FOO
141312
    1MOL0     O    1   3.988   5.434   7.479  0.6320 -0.4358  0.0578
    1MOL0     C    2   3.940   5.328   7.440 -0.3977  0.3383 -0.4555
    1MOL0     O    3   4.014   5.214   7.444  0.5187 -0.0878  0.5059
    1MOL0     C    4   4.138   5.226   7.497  0.2704 -0.2634  0.0253
    1MOL0     C    5   4.177   5.152   7.611  0.6635  0.7231 -0.1336
    1MOL0     C    6   4.299   5.181   7.672 -0.5603  0.2515 -0.1944
    1MOL0     C    7   4.403   5.246   7.601  0.6266  0.8663 -1.6174
    1MOL0     O    8   4.530   5.268   7.642  0.2424  0.7574 -0.4674
    1MOL0     C    9   4.548   5.287   7.783  0.6784 -0.3213 -0.1425
    1MOL0     C   10   4.683   5.358   7.814 -0.8051  0.7851  0.7362
    1MOL0     C   11   4.723   5.371   7.960  0.2537  0.8845  0.5514
    1MOL0     C   12   4.858   5.430   7.985 -0.3557 -0.4909 -0.6533
    1MOL0     C   13   4.892   5.445   8.132  0.8494  0.5520 -0.6039
    1MOL0     C   14   4.799   5.540   8.191  0.2170 -0.5793 -0.1424
    1MOL0     C   15   4.833   5.544   8.339  0.1660  0.8104 -0.3462
    1MOL0     C   16   4.727   5.620   8.420 -0.9560  0.2337  0.2075
    1MOL0     N   17   4.607   5.531   8.436  0.0078 -0.2191 -0.0270
    1MOL0     C   18   4.486   5.574   8.380 -0.5382  0.0479  0.5940
    1MOL0     C   19   4.392   5.487   8.426  0.2503 -0.6017 -0.1987
    1MOL0     C   20   4.238   5.467   8.398  0.5710  0.4014  0.3732
    1MOL0     C   21   4.192   5.479   8.247 -0.5295  1.0564 -0.5339
    1MOL0     C   22   4.177   5.629   8.225 -0.5353  1.3570  0.2581
    1MOL0     C   23   4.151   5.672   8.082 -0.7616 -0.1912  0.2138
    1MOL0     O   24   4.253   5.626   7.998  0.1555 -0.1475  0.1116
    1MOL0     C   25   4.371   5.695   7.988  0.1128 -0.1705 -0.9528
    1MOL0     C   26   4.410   5.807   8.062 -0.1360 -0.5765 -1.1709
    1MOL0     C   27   4.543   5.858   8.049 -0.6722 -0.1813  0.7933
    1MOL0     C   28   4.572   5.984   8.120  0.2937  0.4782 -0.4705
    1MOL0     C   29   4.620   5.812   7.949  0.2407  0.5773 -0.2224
    1MOL0     C   30   4.763   5.858   7.927 -0.2609 -0.4420  0.2827
    1MOL0     O   31   4.800   5.877   7.791 -0.3405  0.3259  0.8007
    1MOL0     C   32   4.933   5.888   7.767 -0.1700 -0.1391 -1.1034
    1MOL0     C   33   5.014   5.781   7.792  0.3901 -0.1600 -0.0918
    1MOL0     C   34   5.152   5.794   7.780 -0.0929  0.3912  0.5707
    1MOL0     C   35   5.212   5.912   7.735  1.1574  0.7296  0.2060
    1MOL0     O   36   5.349   5.904   7.730 -0.0283 -0.4502 -0.1272
    1MOL0     C   37   5.423   5.995   7.640  0.6579 -0.2469  0.2876
    1MOL0     C   38   5.567   5.953   7.650  0.5082  0.4891  0.1642
    1MOL0     C   39   5.609   5.814   7.594 -0.1050  0.5247 -0.5793
    1MOL0     C   40   5.759   5.789   7.573 -0.5012  0.4647 -0.5078
    1MOL0     C   41   5.828   5.868   7.460 -0.6282 -0.2069 -0.0779
    1MOL0     C   42   5.979   5.855   7.459 -0.8008 -0.3977  0.6102
    1MOL0     C   43   6.057   5.919   7.345  1.4304 -0.7778  0.3853
    1MOL0     C   44   6.215   5.917   7.355 -0.2484  0.5689 -0.5153
    1MOL0    Cl   45   6.274   5.955   7.190  0.4471 -0.3861 -0.0274
    1MOL0     C   46   5.127   6.024   7.717 -0.1162  0.2074 -0.1724
    1MOL0     C   47   4.990   6.015   7.727 -0.1780 -0.4697  0.3913
    1MOL0     O   48   4.839   5.872   8.016 -0.2466 -0.8680 -0.6104
    1MOL0     C   49   4.575   5.710   7.865 -0.1978  0.0802  0.3665
    1MOL0     C   50   4.457   5.648   7.893  0.4489  0.0118  0.7671
    1MOL0     N   51   4.466   5.402   8.517 -0.3740  0.2062  0.1715
    1MOL0     N   52   4.587   5.428   8.517  0.2163  0.2764  0.1933
    1MOL0     C   53   4.368   5.290   7.477  0.0572  0.0980 -0.3965
    1MOL0     C   54   4.235   5.292   7.425 -0.8402 -0.4051  0.1734
    1MOL0     C   55   3.800   5.328   7.392  0.0340 -0.2674 -0.6286
    1MOL0     C   56   3.754   5.205   7.342  1.1324  0.1119  0.1834
    1MOL0     C   57   3.630   5.193   7.273 -0.6904 -0.0307  0.4586
    1MOL0     C   58   3.562   5.307   7.245  0.1430 -1.1544 -0.0411
    1MOL0     O   59   3.436   5.294   7.186 -0.2672 -0.1982 -0.1841
    1MOL0     C   60   3.378   5.413   7.127 -0.4275  0.5112  0.4708
    1MOL0     C   61   3.244   5.390   7.044  0.1719 -0.6903 -0.8702
    1MOL0     C   62   3.251   5.272   6.944 -0.5609  0.7729 -0.0554
    1MOL0     C   63   3.137   5.271   6.848  0.1160  0.3971  0.2750
    1MOL0     C   64   3.139   5.383   6.761 -0.0748  0.5453  0.4440
    1MOL0     C   65   3.137   5.479   6.686  0.1891 -0.4874  0.1932
    1MOL0     C   66   3.605   5.429   7.296 -0.0155  0.1979  0.1952
    1MOL0     C   67   3.726   5.445   7.359  0.0903 -0.6321  0.5215
    1MOL0     C   68   3.780   5.593   7.374  0.3336  0.0588 -0.1912
    1MOL0     H   69   4.103   5.105   7.674  2.5416 -0.2532  1.4384
    1MOL0     H   70   4.332   5.143   7.768 -0.9571 -0.0663 -0.1819
    1MOL0     H   71   4.559   5.192   7.835  3.5904  0.6316  1.2383
    1MOL0     H   72   4.473   5.350   7.833  2.6161  1.4921  0.6738
    1MOL0     H   73   4.768   5.302   7.774 -1.2871  0.4078  0.2284
    1MOL0     H   74   4.681   5.454   7.763  0.3259 -0.0268 -0.9246
    1MOL0     H   75   4.644   5.438   7.996 -0.9092 -0.7922  1.2869
    1MOL0     H   76   4.697   5.271   7.996  0.4377  0.0968 -1.3718
    1MOL0     H   77   4.933   5.379   7.924 -0.2248  0.8327 -1.6473
    1MOL0     H   78   4.871   5.530   7.944  1.2443 -1.1669 -1.9014
    1MOL0     H   79   5.000   5.460   8.145  1.2197 -1.4177 -0.9698
    1MOL0     H   80   4.877   5.350   8.184 -0.2145  0.1698 -1.5870
    1MOL0     H   81   4.813   5.643   8.157 -2.3147  1.0882  3.2662
    1MOL0     H   82   4.694   5.509   8.187  0.0486 -0.3559  1.7551
    1MOL0     H   83   4.936   5.579   8.354 -0.6916  2.8605  1.0111
    1MOL0     H   84   4.821   5.442   8.378 -2.4515  0.9394 -0.6758
    1MOL0     H   85   4.778   5.631   8.516  1.7775 -2.3552 -0.8181
    1MOL0     H   86   4.698   5.721   8.388 -5.1391 -0.7973  0.1882
    1MOL0     H   87   4.481   5.661   8.314  0.2147  0.6279  1.2772
    1MOL0     H   88   4.172   5.521   8.466 -2.6879 -0.7980 -1.6022
    1MOL0     H   89   4.216   5.362   8.419 -1.1380  0.2027 -2.0955
    1MOL0     H   90   4.274   5.430   8.193 -0.5200 -0.6884  0.9975
    1MOL0     H   91   4.102   5.420   8.233 -0.9775  0.5008  3.6638
    1MOL0     H   92   4.097   5.673   8.285 -2.8761 -1.6192 -0.4232
    1MOL0     H   93   4.267   5.681   8.258  0.2113  0.6531 -0.6147
    1MOL0     H   94   4.053   5.633   8.052 -2.0851  1.2513  2.4223
    1MOL0     H   95   4.146   5.781   8.083 -0.1603 -0.1623  0.0124
    1MOL0     H   96   4.341   5.858   8.128  1.3759  1.2449 -0.9076
    1MOL0     H   97   4.491   6.058   8.118 -1.5148 -1.4325 -1.7699
    1MOL0     H   98   4.654   6.041   8.075  0.6555  1.3517  1.1929
    1MOL0     H   99   4.607   5.957   8.220 -0.9397  0.1468 -0.1163
    1MOL0     H  100   4.982   5.678   7.807  2.0853 -1.2132 -2.8145
    1MOL0     H  101   5.217   5.708   7.790 -1.4008 -0.5773  1.0858
    1MOL0     H  102   5.385   5.993   7.538  2.2967 -1.3456 -0.3361
    1MOL0     H  103   5.403   6.096   7.678 -0.0686  1.6152 -4.4509
    1MOL0     H  104   5.621   6.024   7.587  1.0902 -0.9362 -0.9916
    1MOL0     H  105   5.601   5.974   7.752 -0.9609 -0.3471  0.8588
    1MOL0     H  106   5.572   5.809   7.491 -0.4579 -0.4721 -0.4144
    1MOL0     H  107   5.567   5.739   7.662  1.8031  0.4026  0.5325
    1MOL0     H  108   5.758   5.680   7.560  1.1760  0.1881  1.2561
    1MOL0     H  109   5.818   5.816   7.661 -0.3736 -2.2072  0.3302
    1MOL0     H  110   5.795   5.823   7.365 -0.7324  0.7830 -0.5210
    1MOL0     H  111   5.807   5.975   7.468 -0.0926 -0.0413 -0.6947
    1MOL0     H  112   6.005   5.749   7.454  0.2863 -0.1433  0.5483
    1MOL0     H  113   6.020   5.904   7.548  0.9602  0.6353 -0.6874
    1MOL0     H  114   6.019   6.020   7.326 -1.2778 -1.9019 -0.6011
    1MOL0     H  115   6.028   5.874   7.250 -0.7399 -0.0233  0.6476
    1MOL0     H  116   6.246   5.817   7.387  1.2274  1.5280  1.2341
    1MOL0     H  117   6.244   5.974   7.444 -1.5370 -2.1483  1.8209
    1MOL0     H  118   5.179   6.110   7.675  1.8720  0.3928  2.4157
    1MOL0     H  119   4.928   6.101   7.704  1.4610  0.2171 -1.9187
    1MOL0     H  120   4.638   5.684   7.780  1.5508  2.0865  0.9546
    1MOL0     H  121   4.420   5.562   7.838  0.3961  0.1943  0.5143
    1MOL0     H  122   4.450   5.352   7.441  1.1278 -0.6284  0.7284
    1MOL0     H  123   4.221   5.340   7.329 -0.6383 -1.3804 -0.3507
    1MOL0     H  124   3.809   5.113   7.360  2.5361  1.5010  3.7839
    1MOL0     H  125   3.592   5.096   7.244  2.3336 -1.5239  1.0113
    1MOL0     H  126   3.349   5.497   7.191 -1.1592  1.0309 -0.5197
    1MOL0     H  127   3.446   5.464   7.058 -0.6387  3.1948  2.0918
    1MOL0     H  128   3.217   5.485   6.996  3.6799  1.0955  0.3762
    1MOL0     H  129   3.173   5.378   7.126  1.0886  4.9075  1.2392
    1MOL0     H  130   3.346   5.278   6.889  0.5658 -1.4358  1.5298
    1MOL0     H  131   3.240   5.178   6.999 -2.4565  1.5681  1.0379
    1MOL0     H  132   3.047   5.277   6.909 -2.7748 -0.9346 -3.4549
    1MOL0     H  133   3.131   5.173   6.798  1.9266  1.2695 -1.8210
    1MOL0     H  134   3.144   5.563   6.619 -0.7254 -1.5666 -1.3223
    1MOL0     H  135   3.550   5.519   7.268 -0.7139 -0.2453  0.1103
    1MOL0     H  136   3.870   5.625   7.319  0.5015 -1.1007 -0.6058
    1MOL0     H  137   3.697   5.664   7.364 -0.5197 -0.5953  1.8100
    1MOL0     H  138   3.813   5.607   7.478  1.8414 -1.5799 -0.4061
    2MOL0     O  139   1.699   4.943   3.543  0.2458 -0.4335 -0.2413
    2MOL0     C  140   1.793   4.865   3.546 -1.3706 -1.0893 -0.1877
    2MOL0     O  141   1.784   4.728   3.542  1.0080 -0.2540  0.0133
    2MOL0     C  142   1.661   4.657   3.559 -0.4972 -0.5025  0.2194
    2MOL0     C  143   1.542   4.712   3.615 -0.1242  0.7734 -0.4723
    2MOL0     C  144   1.441   4.625   3.655  0.6937 -0.2660  0.5304
    2MOL0     C  145   1.432   4.493   3.627  0.0655  0.8767  0.3271
    2MOL0     O  146   1.324   4.425   3.670 -0.1614  0.1131 -0.5161
    2MOL0     C  147   1.299   4.290   3.619 -0.6449 -0.3553 -0.7672
    2MOL0     C  148   1.154   4.244   3.646 -0.6889  1.3963  0.7170
    2MOL0     C  149   1.048   4.337   3.600  0.4656 -0.9064  0.1861
    2MOL0     C  150   1.016   4.307   3.451  0.0071 -1.5563 -0.0926
    2MOL0     C  151   0.961   4.428   3.378 -0.1671  1.1136  0.0537
    2MOL0     C  152   0.929   4.385   3.231 -0.1707 -0.6729  0.0546
    2MOL0     C  153   0.853   4.494   3.148 -0.4677 -0.1403  0.4812
    2MOL0     C  154   0.844   4.453   2.997 -0.0182  0.4012 -1.3389
    2MOL0     N  155   0.825   4.577   2.914  0.4733  0.5494  0.5346
    2MOL0     C  156   0.923   4.669   2.874 -0.0668 -0.3948 -0.1164
    2MOL0     C  157   0.858   4.760   2.805  0.1680  0.3971 -0.5844
    2MOL0     C  158   0.933   4.881   2.748  0.6558  0.0611 -0.5267
    2MOL0     C  159   0.905   4.900   2.600 -0.4388  0.6710 -0.4036
    2MOL0     C  160   0.879   5.044   2.547 -1.0397 -0.1750  0.5223
    2MOL0     C  161   0.758   5.100   2.618  0.3537 -0.1287  0.3357
    2MOL0     O  162   0.716   5.224   2.565  0.1775  0.0360 -0.1065
    2MOL0     C  163   0.604   5.282   2.611  0.0925 -0.4226 -0.9460
    2MOL0     C  164   0.546   5.372   2.530  0.2970 -0.0778 -0.5764
    2MOL0     C  165   0.418   5.430   2.560  0.1105 -0.1079 -0.7052
    2MOL0     C  166   0.372   5.536   2.457 -0.9130  0.6429 -0.4575
    2MOL0     C  167   0.350   5.391   2.677 -0.1096  0.2903  0.1173
    2MOL0     C  168   0.219   5.451   2.721  0.3683 -0.1854 -0.5646
    2MOL0     O  169   0.182   5.409   2.845  0.8766  0.4900 -0.0491
    2MOL0     C  170   0.054   5.430   2.897 -0.3805  0.6970  1.5076
    2MOL0     C  171   0.044   5.461   3.034  0.7893 -0.1292 -0.1449
    2MOL0     C  172  -0.082   5.489   3.088 -0.9731  0.5156  0.6817
    2MOL0     C  173  -0.202   5.473   3.010  0.4322 -0.6825  0.6121
    2MOL0     O  174  -0.328   5.500   3.063 -0.9604 -0.5154 -0.1462
    2MOL0     C  175  -0.335   5.628   3.143 -0.8060 -0.1988  0.2325
    2MOL0     C  176  -0.477   5.632   3.188  0.2533 -0.9236  0.4415
    2MOL0     C  177  -0.493   5.759   3.281 -0.2008  1.0642 -0.8397
    2MOL0     C  178  -0.547   5.872   3.199  0.3360 -0.1205  0.0206
    2MOL0     C  179  -0.449   5.954   3.111  0.5387  0.6245  0.2487
    2MOL0     C  180  -0.513   6.070   3.050  0.0513 -0.4990  0.5694
    2MOL0     C  181  -0.411   6.152   2.972  0.1141  0.4828  0.6640
    2MOL0     C  182  -0.461   6.255   2.864 -0.3230  1.0063  1.2075
    2MOL0    Cl  183  -0.633   6.247   2.840  0.2285 -0.0111  0.5272
    2MOL0     C  184  -0.192   5.455   2.875 -0.1689  0.0178  0.3601
    2MOL0     C  185  -0.062   5.434   2.816 -0.5342  0.0125 -0.6604
    2MOL0     O  186   0.156   5.532   2.660 -0.2955  0.3160  0.1268
    2MOL0     C  187   0.410   5.288   2.760 -0.0920  0.0843 -0.3678
    2MOL0     C  188   0.535   5.236   2.726  0.7629  0.1041  0.3146
    2MOL0     N  189   0.722   4.727   2.795 -0.8346 -0.3166 -0.9595
    2MOL0     N  190   0.708   4.621   2.859 -0.0123  0.4804  0.2145
    2MOL0     C  191   1.546   4.444   3.554 -0.0566 -0.4595  0.4190
    2MOL0     C  192   1.664   4.522   3.522  0.4908 -0.1025  0.2663
    2MOL0     C  193   1.941   4.918   3.554  0.2828 -0.6219 -0.0262
    2MOL0     C  194   2.048   4.838   3.497  0.6755 -0.9918  0.3143
    2MOL0     C  195   2.173   4.894   3.472  0.3304  0.5193  0.0026
    2MOL0     C  196   2.202   5.020   3.518 -0.9599  0.4287 -0.1469
    2MOL0     O  197   2.329   5.073   3.498 -0.5658 -0.1398  1.2896
    2MOL0     C  198   2.437   5.002   3.428 -0.2970  0.8309  1.3266
    2MOL0     C  199   2.555   5.091   3.394  0.9334 -0.1819  0.1902
    2MOL0     C  200   2.675   5.011   3.328  0.5723  0.0105  0.3380
    2MOL0     C  201   2.657   4.973   3.185 -0.1798  0.1130  0.4993
    2MOL0     C  202   2.681   5.083   3.093 -0.1999  1.1520  0.7464
    2MOL0     C  203   2.711   5.173   3.009  0.6149  0.1018  0.0547
    2MOL0     C  204   2.107   5.091   3.587 -0.3168 -0.8857 -0.2750
    2MOL0     C  205   1.980   5.041   3.605 -0.6953 -0.0518  0.1046
    2MOL0     C  206   1.872   5.135   3.674 -0.1116  0.0550  0.6016
    2MOL0     H  207   1.526   4.818   3.631  1.2896  0.8964  0.3543
    2MOL0     H  208   1.361   4.659   3.720  0.7475  2.5661 -0.7640
    2MOL0     H  209   1.371   4.220   3.663 -0.1350  0.5869 -0.0691
    2MOL0     H  210   1.310   4.295   3.510 -0.0469  2.3795 -0.6379
    2MOL0     H  211   1.148   4.148   3.595 -0.3156  1.7705 -0.0610
    2MOL0     H  212   1.146   4.219   3.752 -1.6783  0.9453  0.5445
    2MOL0     H  213   0.959   4.325   3.662 -0.0084  0.0023 -0.2975
    2MOL0     H  214   1.095   4.435   3.613  1.0041 -1.3325  1.5723
    2MOL0     H  215   1.103   4.273   3.394 -1.0413 -1.2982 -1.9533
    2MOL0     H  216   0.948   4.222   3.450 -0.1320 -1.4515 -0.8559
    2MOL0     H  217   1.023   4.518   3.384  1.6128  0.1140 -1.9881
    2MOL0     H  218   0.873   4.472   3.427  0.6005  3.2590 -0.3964
    2MOL0     H  219   1.025   4.372   3.182  0.6003 -0.2334  1.4104
    2MOL0     H  220   0.877   4.288   3.232 -0.5781 -0.4918 -1.1610
    2MOL0     H  221   0.897   4.594   3.159  2.8844 -1.4185 -0.1189
    2MOL0     H  222   0.758   4.505   3.201 -1.4109  0.3452 -1.2232
    2MOL0     H  223   0.942   4.410   2.976  0.6653  0.3229  1.6150
    2MOL0     H  224   0.769   4.376   2.974 -1.5211  2.0169 -2.0422
    2MOL0     H  225   1.028   4.668   2.903 -0.4159 -0.3170  1.2138
    2MOL0     H  226   1.041   4.879   2.767  0.8180  1.7522 -1.1658
    2MOL0     H  227   0.888   4.964   2.802 -2.2079 -2.2525  0.9839
    2MOL0     H  228   0.987   4.854   2.545  1.1708 -0.4428  2.7264
    2MOL0     H  229   0.810   4.850   2.579  0.0742  0.5088 -2.5393
    2MOL0     H  230   0.972   5.099   2.561  0.3825 -1.9247 -1.4891
    2MOL0     H  231   0.878   5.045   2.438 -0.1298  1.2439  0.5060
    2MOL0     H  232   0.684   5.022   2.603  1.4704 -1.2599  0.5158
    2MOL0     H  233   0.786   5.125   2.721  2.8130  0.1085 -0.3270
    2MOL0     H  234   0.598   5.401   2.439  1.9369 -2.5206 -0.5118
    2MOL0     H  235   0.278   5.498   2.416  0.1719  0.0849 -2.5820
    2MOL0     H  236   0.436   5.540   2.368  1.3992 -0.0645  1.0853
    2MOL0     H  237   0.369   5.633   2.507  0.4166 -0.2670  1.5278
    2MOL0     H  238   0.138   5.465   3.089  0.6315  1.3329  0.0626
    2MOL0     H  239  -0.079   5.514   3.193  0.7005  1.1952  0.5064
    2MOL0     H  240  -0.270   5.637   3.231 -0.0896 -0.8054 -0.2164
    2MOL0     H  241  -0.302   5.707   3.075 -0.1679  0.7248  1.5444
    2MOL0     H  242  -0.547   5.639   3.105  1.2122 -1.5241 -0.4514
    2MOL0     H  243  -0.485   5.536   3.240  3.7766 -1.5110  0.2043
    2MOL0     H  244  -0.411   5.794   3.344 -0.5873  4.5601 -2.0260
    2MOL0     H  245  -0.566   5.737   3.360  0.5358 -1.0924 -0.7008
    2MOL0     H  246  -0.597   5.940   3.269 -0.3983 -1.6702  1.0419
    2MOL0     H  247  -0.617   5.833   3.125  0.5482 -1.7981  0.6571
    2MOL0     H  248  -0.379   5.997   3.183  1.4604 -2.0604  1.0744
    2MOL0     H  249  -0.403   5.887   3.037  1.9175  0.0522  1.5771
    2MOL0     H  250  -0.572   6.133   3.116 -1.5736  0.8857 -2.0310
    2MOL0     H  251  -0.588   6.041   2.975  2.4796 -1.0364 -1.8138
    2MOL0     H  252  -0.334   6.094   2.921 -2.4572 -1.2301 -1.5197
    2MOL0     H  253  -0.366   6.215   3.050  0.8056 -0.3012  0.9162
    2MOL0     H  254  -0.416   6.229   2.768 -2.4952 -1.7070  0.7660
    2MOL0     H  255  -0.433   6.355   2.897  2.7582  1.4820 -2.3011
    2MOL0     H  256  -0.277   5.457   2.807  0.2444 -0.8523 -0.1950
    2MOL0     H  257  -0.049   5.428   2.708  0.4555  1.0355 -0.6179
    2MOL0     H  258   0.362   5.229   2.837  1.8929 -1.0306  0.0824
    2MOL0     H  259   0.578   5.151   2.780 -0.9168 -0.1434  1.3576
    2MOL0     H  260   1.552   4.337   3.534  1.8063 -0.0037 -1.9263
    2MOL0     H  261   1.744   4.473   3.468 -0.6070 -0.5247 -1.0259
    2MOL0     H  262   2.024   4.740   3.456 -1.0520  1.1728 -4.5732
    2MOL0     H  263   2.244   4.833   3.416 -0.7557  1.4297 -2.5228
    2MOL0     H  264   2.476   4.921   3.490  2.0696 -0.3266 -1.4404
    2MOL0     H  265   2.403   4.953   3.336  1.0197  1.3588  0.5331
    2MOL0     H  266   2.587   5.137   3.488  0.0115 -0.5162  0.6836
    2MOL0     H  267   2.524   5.169   3.324 -0.8567 -1.1506 -0.1480
    2MOL0     H  268   2.769   5.068   3.326 -0.1787  1.3118  0.4069
    2MOL0     H  269   2.688   4.919   3.385 -1.3046 -0.2468  0.4113
    2MOL0     H  270   2.561   4.926   3.161 -1.6759  1.6487  3.0368
    2MOL0     H  271   2.735   4.903   3.153 -1.0990 -0.1962 -1.2199
    2MOL0     H  272   2.718   5.245   2.931 -0.6786  0.0515 -0.1267
    2MOL0     H  273   2.162   5.178   3.624  3.0284 -2.6580 -0.6437
    2MOL0     H  274   1.788   5.157   3.607 -0.2972 -0.7714  0.5493
    2MOL0     H  275   1.842   5.088   3.768  0.3908  0.5640  1.0188
    2MOL0     H  276   1.908   5.238   3.685  1.1339  0.1910 -3.1936
    3MOL0     O  277  10.769   5.519   7.582  0.0280  0.4250 -0.0246
    3MOL0     C  278  10.871   5.502   7.515 -0.0065  0.4785  0.1563
    3MOL0     O  279  10.954   5.392   7.523  0.1926 -0.5148 -0.5643
    3MOL0     C  280  10.927   5.297   7.624 -0.0047  0.1646  0.0989
    3MOL0     C  281  10.923   5.168   7.581 -0.4007 -0.1614  0.5001
    3MOL0     C  282  10.926   5.056   7.670 -0.0961 -0.3334  0.0213
    3MOL0     C  283  10.916   5.077   7.804  0.3150  0.6378 -0.6545
    3MOL0     O  284  10.886   4.971   7.886 -0.0994 -0.3094 -0.0709
    3MOL0     C  285  10.852   4.996   8.029  0.1350  0.9316  0.6305
    3MOL0     C  286  10.804   4.861   8.105  0.1341  0.1897 -0.5954
    3MOL0     C  287  10.926   4.747   8.106  0.0308 -0.4131  0.3291
    3MOL0     C  288  11.001   4.759   8.237 -0.3894 -0.1730 -0.5967
    3MOL0     C  289  11.139   4.698   8.206 -0.5855  0.3314 -0.4254
    3MOL0     C  290  11.224   4.675   8.334 -0.0156  0.1645  0.1378
    3MOL0     C  291  11.348   4.591   8.297  0.7204 -0.3612 -0.0056
    3MOL0     C  292  11.440   4.574   8.425 -0.3972 -0.3656  0.3785
    3MOL0     N  293  11.526   4.685   8.465 -0.2327 -0.5127 -0.3782
    3MOL0     C  294  11.652   4.685   8.417 -0.4709 -0.2255  0.1263
    3MOL0     C  295  11.696   4.802   8.468  0.1549 -0.5503  0.0567
    3MOL0     C  296  11.834   4.860   8.448 -0.5415  0.5404  0.1028
    3MOL0     C  297  11.926   4.800   8.555  0.3359 -0.6205  0.1282
    3MOL0     C  298  12.041   4.893   8.609 -0.3934 -0.3199 -0.0320
    3MOL0     C  299  12.140   4.807   8.686  0.2840  0.4161 -0.3254
    3MOL0     O  300  12.262   4.880   8.726 -0.3154 -0.7202 -0.2520
    3MOL0     C  301  12.342   4.834   8.826 -0.8736  1.3908  0.2995
    3MOL0     C  302  12.353   4.697   8.848 -0.0564 -0.4820  0.3188
    3MOL0     C  303  12.441   4.658   8.949 -0.1535 -0.0094 -0.2339
    3MOL0     C  304  12.455   4.508   8.962 -0.3503  0.7353 -0.3817
    3MOL0     C  305  12.515   4.754   9.023 -0.4964  0.1232  0.1593
    3MOL0     C  306  12.602   4.700   9.134  0.4928 -0.2417  0.9899
    3MOL0     O  307  12.717   4.760   9.133 -0.1712 -0.1672 -0.4068
    3MOL0     C  308  12.808   4.732   9.227  0.9631  0.2594  0.0182
    3MOL0     C  309  12.814   4.817   9.344  0.2345  0.1089  0.2720
    3MOL0     C  310  12.911   4.796   9.448  0.6234  0.4893 -0.2625
    3MOL0     C  311  12.999   4.691   9.437 -0.3326 -0.2571 -0.7306
    3MOL0     O  312  13.083   4.679   9.541  0.1926  0.2827 -1.4392
    3MOL0     C  313  13.152   4.562   9.548 -0.6492  0.3483 -0.0171
    3MOL0     C  314  13.240   4.563   9.677  0.3634  0.1997 -0.1696
    3MOL0     C  315  13.149   4.580   9.808 -0.2378 -0.1804 -0.5063
    3MOL0     C  316  13.226   4.532   9.930  0.2455  0.7591 -0.0599
    3MOL0     C  317  13.327   4.633   9.988 -0.9363 -0.3569 -0.3297
    3MOL0     C  318  13.453   4.664   9.899  0.1305  0.0691 -0.1477
    3MOL0     C  319  13.576   4.700   9.994  0.1934 -0.2942 -0.5237
    3MOL0     C  320  13.632   4.594  10.079  0.0229  0.0488 -0.2478
    3MOL0    Cl  321  13.680   4.446   9.991  0.4410 -0.5143  0.2951
    3MOL0     C  322  12.991   4.607   9.326 -0.1283  0.3487 -0.2640
    3MOL0     C  323  12.899   4.628   9.225  0.2342 -0.7341  0.1667
    3MOL0     O  324  12.566   4.621   9.215  0.3642  0.2595 -0.1360
    3MOL0     C  325  12.499   4.889   9.014 -0.1183 -0.5744  0.4909
    3MOL0     C  326  12.419   4.927   8.907  0.2317  0.6169  1.1651
    3MOL0     N  327  11.606   4.873   8.544  0.5070  0.0841 -0.1007
    3MOL0     N  328  11.497   4.804   8.530 -0.1868  0.4509  0.2114
    3MOL0     C  329  10.909   5.208   7.849  0.0288 -0.2921  0.7615
    3MOL0     C  330  10.919   5.316   7.766  0.1154  0.4363  0.4493
    3MOL0     C  331  10.898   5.595   7.404 -0.3911 -0.5822 -1.4325
    3MOL0     C  332  10.987   5.557   7.300 -0.2978 -0.0866  0.0394
    3MOL0     C  333  11.013   5.633   7.192 -0.0531 -0.4453 -0.1672
    3MOL0     C  334  10.964   5.762   7.183 -0.2501  0.4306 -0.9474
    3MOL0     O  335  11.019   5.836   7.085 -0.2331 -0.3577  0.9207
    3MOL0     C  336  10.961   5.966   7.045  0.5643  0.3538  0.4211
    3MOL0     C  337  11.021   6.072   7.138 -0.7657 -0.4130  0.1660
    3MOL0     C  338  10.949   6.215   7.131  0.5361 -0.0120 -0.5170
    3MOL0     C  339  10.971   6.305   7.251  0.5564 -0.3381 -0.6785
    3MOL0     C  340  11.107   6.356   7.266  0.6844  0.4292  0.1464
    3MOL0     C  341  11.220   6.392   7.283 -0.8416  0.2626  0.2051
    3MOL0     C  342  10.870   5.805   7.279  0.0684  0.2449 -0.3705
    3MOL0     C  343  10.838   5.720   7.387 -0.6041  1.2092 -0.2012
    3MOL0     C  344  10.743   5.775   7.486 -0.6270 -0.1185 -0.3563
    3MOL0     H  345  10.919   5.160   7.473  1.5203 -0.5239  0.4256
    3MOL0     H  346  10.922   4.956   7.626  3.9123 -0.7287  0.2611
    3MOL0     H  347  10.781   5.078   8.041  1.5504  2.1079  1.3464
    3MOL0     H  348  10.947   5.027   8.074  0.9323  1.1637 -1.1435
    3MOL0     H  349  10.782   4.888   8.209 -2.9130 -1.0883 -0.8045
    3MOL0     H  350  10.712   4.822   8.061  0.0679  2.3780 -2.5909
    3MOL0     H  351  10.890   4.644   8.098  1.0097 -0.6826 -0.8847
    3MOL0     H  352  10.993   4.762   8.021  0.3883  1.9709  0.9797
    3MOL0     H  353  11.009   4.865   8.266 -0.3267 -0.6127  1.1165
    3MOL0     H  354  10.953   4.704   8.318  1.1648  1.9288  1.9269
    3MOL0     H  355  11.199   4.759   8.138  1.5159  1.0437  1.9111
    3MOL0     H  356  11.121   4.607   8.148  1.7307 -1.0866  0.9218
    3MOL0     H  357  11.249   4.776   8.370  3.9241 -0.7137  0.2934
    3MOL0     H  358  11.170   4.630   8.418  1.9140 -1.7909  0.4055
    3MOL0     H  359  11.403   4.643   8.218  2.5007 -0.3184  1.1873
    3MOL0     H  360  11.324   4.495   8.252 -0.4834 -0.4322  0.7395
    3MOL0     H  361  11.382   4.545   8.513 -1.4172 -1.0670 -0.5047
    3MOL0     H  362  11.506   4.489   8.404  2.6426  1.1176  3.1172
    3MOL0     H  363  11.703   4.610   8.358 -2.5972 -1.3681 -0.3672
    3MOL0     H  364  11.813   4.968   8.452 -3.8353 -0.0210  3.3699
    3MOL0     H  365  11.873   4.839   8.348 -2.2494 -0.9733 -0.2887
    3MOL0     H  366  11.862   4.769   8.638 -2.3044  0.9708 -1.1857
    3MOL0     H  367  11.974   4.710   8.515  2.4102  1.0500 -1.3523
    3MOL0     H  368  12.097   4.952   8.536 -1.2421  4.2639  2.6393
    3MOL0     H  369  12.006   4.970   8.679  1.7306  0.1407  0.6083
    3MOL0     H  370  12.089   4.763   8.772 -1.5395 -1.0322 -2.0410
    3MOL0     H  371  12.188   4.729   8.625  2.2194  1.2508  0.0477
    3MOL0     H  372  12.295   4.629   8.787 -0.5417 -0.5939  0.8969
    3MOL0     H  373  12.443   4.462   8.864  2.0284 -0.9183  0.0180
    3MOL0     H  374  12.386   4.468   9.038 -2.1578 -1.2640 -2.9261
    3MOL0     H  375  12.556   4.471   8.983 -0.3973 -0.1726 -1.6863
    3MOL0     H  376  12.741   4.896   9.357  1.6029  1.2240  1.6601
    3MOL0     H  377  12.917   4.867   9.530  2.2240  0.8593 -0.6638
    3MOL0     H  378  13.090   4.472   9.543  1.8511 -1.4581 -0.6156
    3MOL0     H  379  13.227   4.551   9.468 -3.5091 -3.1852 -2.5643
    3MOL0     H  380  13.278   4.461   9.677 -0.4999 -0.1554 -1.9414
    3MOL0     H  381  13.325   4.631   9.664  0.4623 -0.1677 -1.5749
    3MOL0     H  382  13.058   4.521   9.800 -0.3750  0.1020 -1.1312
    3MOL0     H  383  13.115   4.683   9.823  1.7045  0.1497  2.3621
    3MOL0     H  384  13.283   4.439   9.922 -0.1810  0.2557  2.0378
    3MOL0     H  385  13.158   4.505  10.011  1.6183  1.5646  1.4425
    3MOL0     H  386  13.280   4.722  10.028  2.5071  1.7899 -0.6501
    3MOL0     H  387  13.360   4.576  10.075  0.4055  1.3849  0.3629
    3MOL0     H  388  13.432   4.749   9.833  0.9428  0.3985  0.0100
    3MOL0     H  389  13.476   4.573   9.843 -1.9092 -2.7571  3.2553
    3MOL0     H  390  13.561   4.776  10.071  1.5637 -0.3113 -0.2073
    3MOL0     H  391  13.657   4.732   9.927 -0.2962 -4.7243 -3.7276
    3MOL0     H  392  13.562   4.560  10.155  1.0626 -2.7400 -0.4179
    3MOL0     H  393  13.718   4.635  10.132  0.1125 -1.4732  0.8691
    3MOL0     H  394  13.052   4.518   9.315 -0.0043  0.3746  0.1726
    3MOL0     H  395  12.898   4.566   9.136  1.8334  2.4885 -2.3132
    3MOL0     H  396  12.553   4.966   9.068  0.5962 -0.6690 -0.0710
    3MOL0     H  397  12.387   5.028   8.886 -1.1434 -0.1876 -1.1102
    3MOL0     H  398  10.881   5.236   7.950  3.2775  3.2281  0.9084
    3MOL0     H  399  10.925   5.419   7.799  2.2348  0.5976 -0.2335
    3MOL0     H  400  11.055   5.473   7.312  0.5089  0.6811  1.0167
    3MOL0     H  401  11.087   5.602   7.118 -0.7679  0.1157 -1.1453
    3MOL0     H  402  10.994   5.988   6.943  0.0835 -0.0557  0.1742
    3MOL0     H  403  10.852   5.968   7.045  0.4710 -1.8637 -0.4656
    3MOL0     H  404  11.129   6.075   7.123 -0.7189 -0.7071  0.4336
    3MOL0     H  405  11.014   6.033   7.240 -0.7646  0.8152  0.6517
    3MOL0     H  406  10.987   6.258   7.038  0.0924 -0.4239 -0.8984
    3MOL0     H  407  10.840   6.216   7.119  0.5654  2.3953 -1.1175
    3MOL0     H  408  10.942   6.259   7.345 -1.0904 -0.2580 -1.1084
    3MOL0     H  409  10.902   6.390   7.242  0.3318 -0.3420  0.8235
    3MOL0     H  410  11.321   6.427   7.281 -0.8090  0.2156  0.7484
    3MOL0     H  411  10.815   5.896   7.259  0.8063  0.9952  0.9089
    3MOL0     H  412  10.642   5.735   7.471 -0.4179 -0.5197 -0.7304
    3MOL0     H  413  10.782   5.755   7.586 -0.2613 -1.7957 -0.7837
    3MOL0     H  414  10.730   5.882   7.472 -1.7965 -0.1309  0.5664
    4MOL0     O  415   5.508   1.295   2.053  0.5908  0.3549 -0.1697
    4MOL0     C  416   5.517   1.350   2.162  0.1504  0.6471 -1.5354
    4MOL0     O  417   5.627   1.366   2.244  0.6200  0.0879  0.1446
    4MOL0     C  418   5.743   1.322   2.180  0.4234  0.1921  0.9620
    4MOL0     C  419   5.770   1.190   2.144  0.3218 -0.3791 -0.6472
    4MOL0     C  420   5.876   1.152   2.064  0.0994  0.7663 -0.6173
    4MOL0     C  421   5.982   1.240   2.029  0.2026  0.2064 -0.3955
    4MOL0     O  422   6.103   1.204   1.976  0.1209 -0.8441  0.0849
    4MOL0     C  423   6.103   1.079   1.904  0.0002  0.1027  0.7931
    4MOL0     C  424   6.246   1.043   1.855 -0.3675 -0.0897 -0.1213
    4MOL0     C  425   6.319   1.163   1.793  0.6527 -0.2643 -0.3394
    4MOL0     C  426   6.462   1.127   1.750  0.2735 -0.1048  0.8694
    4MOL0     C  427   6.531   1.226   1.654  0.4821  0.0196  0.0406
    4MOL0     C  428   6.665   1.168   1.600 -0.1187 -0.9974  0.1375
    4MOL0     C  429   6.714   1.260   1.481 -0.2412 -0.8285 -0.1415
    4MOL0     C  430   6.625   1.235   1.351  0.7263 -0.9687 -0.3431
    4MOL0     N  431   6.681   1.283   1.221  0.9673  0.3224 -0.3317
    4MOL0     C  432   6.631   1.389   1.143  0.6867  0.1894  0.1823
    4MOL0     C  433   6.699   1.368   1.032  0.0853 -0.9341  0.1718
    4MOL0     C  434   6.677   1.452   0.910  0.1823  0.8703 -0.0853
    4MOL0     C  435   6.743   1.586   0.905  0.2856 -0.4421 -0.2946
    4MOL0     C  436   6.895   1.576   0.904 -0.4290  0.4789 -0.5815
    4MOL0     C  437   6.959   1.709   0.851 -0.2086  0.2784 -0.3954
    4MOL0     O  438   7.097   1.692   0.827 -0.1887  0.2619  0.2347
    4MOL0     C  439   7.182   1.796   0.861 -0.3266 -0.0221 -0.8047
    4MOL0     C  440   7.137   1.928   0.830  0.2610  0.8150 -0.5316
    4MOL0     C  441   7.206   2.038   0.882 -0.4383 -0.2008 -0.3800
    4MOL0     C  442   7.136   2.175   0.893 -0.7163  0.1190 -0.0012
    4MOL0     C  443   7.341   2.025   0.914 -0.5097 -0.2279 -1.1210
    4MOL0     C  444   7.442   2.132   0.941  0.0147  0.8369 -0.6023
    4MOL0     O  445   7.422   2.252   0.889 -0.2649 -0.2319 -0.3707
    4MOL0     C  446   7.533   2.331   0.866  0.4018  1.2329  0.3490
    4MOL0     C  447   7.529   2.464   0.892 -0.8782 -0.6134 -0.2651
    4MOL0     C  448   7.644   2.542   0.866  0.2194 -0.1175  0.1661
    4MOL0     C  449   7.759   2.483   0.814  0.1417 -0.0587 -0.1217
    4MOL0     O  450   7.863   2.570   0.803 -0.3428 -1.2459  0.4805
    4MOL0     C  451   7.981   2.537   0.884  0.2582  0.7978 -0.4963
    4MOL0     C  452   7.990   2.646   0.991 -0.5558 -0.8995  0.6314
    4MOL0     C  453   8.008   2.795   0.928 -0.4162  0.5242  0.6792
    4MOL0     C  454   7.875   2.866   0.917 -0.4624  0.0847  0.4931
    4MOL0     C  455   7.876   3.016   0.873  0.7295 -0.7645  0.1393
    4MOL0     C  456   7.935   3.110   0.976 -0.8083 -0.0660 -1.4163
    4MOL0     C  457   7.851   3.116   1.106  0.3799 -0.3227  0.1120
    4MOL0     C  458   7.922   3.188   1.212  0.4241 -0.0565 -0.4616
    4MOL0    Cl  459   7.968   3.359   1.172 -0.1252  0.0685  0.0197
    4MOL0     C  460   7.764   2.345   0.786 -0.8307  0.1651  0.0126
    4MOL0     C  461   7.650   2.268   0.807  1.4090 -0.2275  0.2799
    4MOL0     O  462   7.539   2.102   1.008  0.6113  0.7849 -0.5200
    4MOL0     C  463   7.392   1.894   0.936  0.5872  1.5544  0.3758
    4MOL0     C  464   7.313   1.782   0.912 -0.1507  0.2375 -0.0766
    4MOL0     N  465   6.794   1.276   1.046  0.3637 -0.7741 -0.3785
    4MOL0     N  466   6.786   1.229   1.159  0.2229  0.1868 -0.4813
    4MOL0     C  467   5.946   1.379   2.048 -0.7909  0.7464  0.0780
    4MOL0     C  468   5.834   1.419   2.127 -0.3993 -0.5261  0.5796
    4MOL0     C  469   5.387   1.406   2.221 -0.3808  0.2592  0.9444
    4MOL0     C  470   5.388   1.498   2.320 -0.6977  0.2589  0.5247
    4MOL0     C  471   5.276   1.545   2.379  0.2269  0.5865 -0.2764
    4MOL0     C  472   5.146   1.500   2.341  0.2176 -0.8215 -0.8472
    4MOL0     O  473   5.021   1.527   2.394 -0.6937 -0.1324 -0.3455
    4MOL0     C  474   5.038   1.546   2.541  0.2036 -0.4910  0.0584
    4MOL0     C  475   4.902   1.533   2.597  0.3684  0.4854  0.9370
    4MOL0     C  476   4.903   1.545   2.751  0.4873 -0.0692  0.0371
    4MOL0     C  477   4.761   1.553   2.801  0.2440  0.1876 -0.4343
    4MOL0     C  478   4.674   1.443   2.750 -0.0345 -0.0256 -0.9402
    4MOL0     C  479   4.600   1.348   2.728  1.4228 -0.9283  0.3854
    4MOL0     C  480   5.140   1.420   2.232  0.0294  0.4590  0.5031
    4MOL0     C  481   5.252   1.368   2.169 -0.7880  0.1438 -0.7606
    4MOL0     C  482   5.219   1.272   2.052 -1.6034 -0.8053 -0.4628
    4MOL0     H  483   5.699   1.122   2.190 -0.4692  1.9074  1.7205
    4MOL0     H  484   5.879   1.046   2.040  1.8076  0.4427  0.7280
    4MOL0     H  485   6.041   1.098   1.816  1.1789  2.8441  0.4532
    4MOL0     H  486   6.070   0.998   1.969  1.4856 -0.6631  0.6407
    4MOL0     H  487   6.297   0.995   1.939  0.6142 -0.7381 -1.0621
    4MOL0     H  488   6.248   0.965   1.779  1.6869  1.9408 -2.3367
    4MOL0     H  489   6.263   1.186   1.702 -0.2703  2.9895  0.9421
    4MOL0     H  490   6.319   1.247   1.862 -1.2796 -0.9953  0.6250
    4MOL0     H  491   6.526   1.118   1.838  1.2449  2.0209  0.4506
    4MOL0     H  492   6.464   1.029   1.701 -2.5313 -1.8006  3.7850
    4MOL0     H  493   6.540   1.331   1.684  3.2359  0.0229 -0.5707
    4MOL0     H  494   6.474   1.214   1.561  2.9291 -1.5992 -1.3607
    4MOL0     H  495   6.743   1.163   1.676  0.5549 -2.4377 -0.5986
    4MOL0     H  496   6.656   1.067   1.558 -1.3737  0.5214 -3.6706
    4MOL0     H  497   6.820   1.238   1.460 -0.4045 -2.4697  0.6345
    4MOL0     H  498   6.722   1.364   1.513  5.1630  0.3734 -3.8149
    4MOL0     H  499   6.601   1.130   1.332 -1.8114 -0.9353  2.1401
    4MOL0     H  500   6.530   1.286   1.369  1.0001 -1.3454  2.6439
    4MOL0     H  501   6.559   1.468   1.161  1.4006  0.9589 -0.2044
    4MOL0     H  502   6.573   1.485   0.901  0.0444  0.4802  0.0592
    4MOL0     H  503   6.707   1.394   0.822  0.2788  0.1922  0.3876
    4MOL0     H  504   6.706   1.638   0.817  1.8539 -1.7133 -1.7537
    4MOL0     H  505   6.716   1.648   0.991  4.9405 -1.3045  2.0927
    4MOL0     H  506   6.934   1.559   1.004 -0.2637  3.9590  0.0711
    4MOL0     H  507   6.930   1.497   0.837 -1.4057 -0.0604 -0.4632
    4MOL0     H  508   6.913   1.736   0.755 -0.2022 -0.1477 -0.5225
    4MOL0     H  509   6.929   1.789   0.919 -2.9947 -1.4251  0.5805
    4MOL0     H  510   7.039   1.939   0.783  0.1051  1.7797 -0.0085
    4MOL0     H  511   7.145   2.216   0.994  1.1914 -0.6498  0.1990
    4MOL0     H  512   7.031   2.170   0.863 -0.3893 -0.8806 -1.0927
    4MOL0     H  513   7.192   2.249   0.836  0.4236 -0.4224  0.3736
    4MOL0     H  514   7.444   2.505   0.945 -0.9541 -2.0915  0.8135
    4MOL0     H  515   7.652   2.642   0.906  0.7367  0.0777 -0.4119
    4MOL0     H  516   7.969   2.442   0.936 -1.9437  0.4443 -1.5730
    4MOL0     H  517   8.069   2.534   0.818 -1.0476 -0.6753 -2.2688
    4MOL0     H  518   7.900   2.642   1.053  0.7709  0.1733  2.7272
    4MOL0     H  519   8.076   2.624   1.054  1.1856 -1.0815 -1.6734
    4MOL0     H  520   8.060   2.785   0.832  0.3921  1.1699  1.0354
    4MOL0     H  521   8.081   2.854   0.984  1.9435 -2.0094  0.4836
    4MOL0     H  522   7.819   2.847   1.008  0.0119  0.4998  0.8776
    4MOL0     H  523   7.832   2.806   0.836  1.1340 -1.5619  0.7962
    4MOL0     H  524   7.912   3.039   0.773 -0.1831 -0.6806 -0.1779
    4MOL0     H  525   7.773   3.051   0.866  0.8472  0.2064  2.3812
    4MOL0     H  526   7.943   3.209   0.930  1.4959  0.2621 -0.4516
    4MOL0     H  527   8.034   3.074   1.007 -1.3386 -0.4433 -0.0886
    4MOL0     H  528   7.821   3.020   1.150 -2.8291  0.6751  0.3984
    4MOL0     H  529   7.757   3.164   1.077  0.1914 -0.8265 -0.1154
    4MOL0     H  530   8.008   3.124   1.235 -0.8439 -0.8585  2.4187
    4MOL0     H  531   7.859   3.185   1.301 -1.6052  1.6227 -1.7447
    4MOL0     H  532   7.853   2.311   0.734 -0.3281  1.5278 -0.0470
    4MOL0     H  533   7.636   2.169   0.766  0.7610  0.7553 -2.0501
    4MOL0     H  534   7.496   1.881   0.964  1.1939 -2.5679 -2.7433
    4MOL0     H  535   7.354   1.684   0.934 -1.0019 -0.0319  0.3578
    4MOL0     H  536   6.011   1.461   2.018 -0.5778  0.7182  0.4507
    4MOL0     H  537   5.801   1.523   2.126  0.5110 -0.0798 -4.2871
    4MOL0     H  538   5.488   1.527   2.351  0.7317  0.7121 -3.8366
    4MOL0     H  539   5.289   1.602   2.470 -2.1719  0.0530  0.4967
    4MOL0     H  540   5.102   1.467   2.583 -0.7093 -1.9579 -1.2017
    4MOL0     H  541   5.066   1.651   2.549 -2.5744  0.5070 -1.9891
    4MOL0     H  542   4.870   1.433   2.565  0.8047  0.6727 -0.1448
    4MOL0     H  543   4.834   1.605   2.551 -0.3421 -0.0657  1.1157
    4MOL0     H  544   4.956   1.470   2.812 -0.5004  1.2051  2.6071
    4MOL0     H  545   4.943   1.645   2.771 -2.5568  1.1378  0.6061
    4MOL0     H  546   4.721   1.649   2.766  0.4379  1.2808  2.1443
    4MOL0     H  547   4.764   1.550   2.910  2.3647 -0.8986 -0.4669
    4MOL0     H  548   4.520   1.280   2.712 -0.2878  1.4898 -2.1454
    4MOL0     H  549   5.040   1.393   2.201  0.0528 -0.4921  1.1889
    4MOL0     H  550   5.112   1.266   2.033 -1.3800  1.4979 -3.2673
    4MOL0     H  551   5.261   1.304   1.956 -1.5040  2.6132  0.5764
    4MOL0     H  552   5.247   1.169   2.074 -2.7215 -1.3284 -1.4252
    5MOL0     O  553  10.400   7.351  10.245 -0.4302  0.2577  0.6637
    5MOL0     C  554  10.489   7.407  10.179  0.1957  0.3260 -0.5057
    5MOL0     O  555  10.527   7.535  10.192 -0.4385  0.2241  0.3496
    5MOL0     C  556  10.485   7.625  10.289 -0.1863 -0.2853 -0.3503
    5MOL0     C  557  10.349   7.615  10.343  0.0971 -0.1757  0.4328
    5MOL0     C  558  10.298   7.716  10.429  0.3115 -0.1682 -0.1987
    5MOL0     C  559  10.393   7.817  10.473  0.6617 -0.4893 -0.2005
    5MOL0     O  560  10.361   7.910  10.570  0.0038  0.6746  1.0146
    5MOL0     C  561  10.264   7.873  10.668 -0.2535 -0.0450 -0.6953
    5MOL0     C  562  10.312   7.750  10.745  0.4856 -0.2701 -0.1796
    5MOL0     C  563  10.459   7.776  10.802  0.4791 -0.2927  0.3708
    5MOL0     C  564  10.503   7.668  10.893 -1.2566  1.0623 -1.0941
    5MOL0     C  565  10.532   7.539  10.818  0.8027  0.1651 -0.2376
    5MOL0     C  566  10.661   7.547  10.735  0.2850  0.6292  0.0625
    5MOL0     C  567  10.660   7.429  10.631  0.5148 -0.0098 -0.7120
    5MOL0     C  568  10.733   7.293  10.681  0.3518  0.7451  0.0684
    5MOL0     N  569  10.878   7.308  10.669 -0.1628 -0.0574 -0.2440
    5MOL0     C  570  10.960   7.310  10.774 -0.6097 -0.2567  0.1675
    5MOL0     C  571  11.080   7.348  10.727 -0.4688  1.1970  0.6134
    5MOL0     C  572  11.207   7.358  10.812  0.0184 -0.0451 -0.1000
    5MOL0     C  573  11.260   7.502  10.826 -0.3261  0.6996 -0.9254
    5MOL0     C  574  11.394   7.502  10.901  0.1800 -0.0412 -0.6661
    5MOL0     C  575  11.445   7.645  10.919  0.6392 -0.5048 -0.1663
    5MOL0     O  576  11.577   7.637  10.982 -0.2271  0.2274  0.1062
    5MOL0     C  577  11.621   7.754  11.043 -0.2556 -0.3188  0.6407
    5MOL0     C  578  11.735   7.740  11.126  0.7040  0.2242 -0.1962
    5MOL0     C  579  11.814   7.841  11.171 -0.2144 -0.8388  0.4314
    5MOL0     C  580  11.933   7.809  11.258 -0.0902  0.6294 -0.7775
    5MOL0     C  581  11.778   7.976  11.139  0.2912  0.5876  0.0393
    5MOL0     C  582  11.845   8.107  11.182  0.4910  0.3431 -0.3241
    5MOL0     O  583  11.914   8.097  11.298  0.5075  0.4379  0.3787
    5MOL0     C  584  12.001   8.193  11.335 -0.1519 -0.4278 -0.3658
    5MOL0     C  585  12.027   8.203  11.468  0.2526 -0.1628 -0.8613
    5MOL0     C  586  12.124   8.292  11.509  0.4349  0.0325 -0.4746
    5MOL0     C  587  12.186   8.381  11.422  0.6459  1.0243 -0.2060
    5MOL0     O  588  12.270   8.474  11.480  0.3880  0.6738 -0.0825
    5MOL0     C  589  12.337   8.557  11.388 -0.3604 -0.3176  0.1519
    5MOL0     C  590  12.442   8.643  11.461  0.0199  0.8099  0.7127
    5MOL0     C  591  12.509   8.739  11.365  0.0962 -0.1456  1.2491
    5MOL0     C  592  12.589   8.846  11.438 -0.1449  0.3797  0.1698
    5MOL0     C  593  12.669   8.939  11.342 -0.7753  0.1213  0.6085
    5MOL0     C  594  12.756   8.865  11.241  0.0324  0.5948 -0.4251
    5MOL0     C  595  12.835   8.954  11.144 -0.1649  0.4262  0.0812
    5MOL0     C  596  12.902   8.870  11.034 -0.1492  0.0918 -0.4198
    5MOL0    Cl  597  13.033   8.964  10.958 -0.0305  0.3110  0.0993
    5MOL0     C  598  12.163   8.368  11.291  0.2837  0.1877 -0.1615
    5MOL0     C  599  12.070   8.265  11.244 -0.5537 -0.2877 -0.2272
    5MOL0     O  600  11.823   8.210  11.125 -0.3268  1.2417  0.5362
    5MOL0     C  601  11.670   7.995  11.047  0.1943  0.6206 -0.3212
    5MOL0     C  602  11.589   7.884  11.000 -1.1044  0.3932  0.8011
    5MOL0     N  603  11.059   7.391  10.597  0.0164 -0.2291 -0.1350
    5MOL0     N  604  10.940   7.366  10.568  0.3357 -0.1004  0.1920
    5MOL0     C  605  10.519   7.825  10.423  0.2331  0.3176  0.7721
    5MOL0     C  606  10.566   7.735  10.326  0.1707  0.1124 -0.5065
    5MOL0     C  607  10.553   7.330  10.075 -0.2457  0.1133  0.5091
    5MOL0     C  608  10.690   7.299  10.087  0.4713 -0.6101  1.1569
    5MOL0     C  609  10.753   7.218   9.995 -1.1405  0.1460 -0.4704
    5MOL0     C  610  10.679   7.182   9.876 -0.9357 -0.2252 -0.3557
    5MOL0     O  611  10.765   7.111   9.799  0.2199  0.6533  0.5122
    5MOL0     C  612  10.721   7.075   9.664  0.6739  0.2733 -0.4942
    5MOL0     C  613  10.826   6.997   9.585  0.2741  0.2921 -0.1490
    5MOL0     C  614  10.883   6.872   9.659 -0.1667  0.4681  0.0074
    5MOL0     C  615  10.972   6.787   9.565 -0.1443 -0.6031 -0.7907
    5MOL0     C  616  11.082   6.866   9.501 -0.3060  0.2708 -0.2713
    5MOL0     C  617  11.168   6.929   9.446  0.5113  0.5147  0.1966
    5MOL0     C  618  10.550   7.232   9.855 -0.8239 -0.5336  0.1698
    5MOL0     C  619  10.481   7.296   9.957  0.3427 -0.0613  1.4402
    5MOL0     C  620  10.343   7.331   9.942  0.9561 -0.3338 -0.1149
    5MOL0     H  621  10.277   7.535  10.326 -0.1891  0.2538 -0.3975
    5MOL0     H  622  10.196   7.707  10.465  0.2763 -0.9023 -0.4477
    5MOL0     H  623  10.168   7.864  10.618 -0.9296 -1.8149  0.8201
    5MOL0     H  624  10.256   7.957  10.738 -4.4921 -0.4053 -0.5203
    5MOL0     H  625  10.251   7.737  10.835  0.2264 -0.6951 -0.4114
    5MOL0     H  626  10.313   7.654  10.693 -0.2473 -1.6352  2.1465
    5MOL0     H  627  10.534   7.798  10.726  0.4849  0.8175  0.6835
    5MOL0     H  628  10.458   7.873  10.852  0.9878  1.0378 -2.0334
    5MOL0     H  629  10.595   7.684  10.949  0.3725 -2.5707 -2.4449
    5MOL0     H  630  10.424   7.643  10.965 -1.6225  0.6204 -1.6351
    5MOL0     H  631  10.449   7.524  10.748 -1.6517  0.1385  2.5123
    5MOL0     H  632  10.548   7.444  10.871 -1.6031 -1.9293 -2.9039
    5MOL0     H  633  10.660   7.637  10.674  0.8077  0.1529 -0.6666
    5MOL0     H  634  10.748   7.544  10.802  0.9987  0.2280 -0.8642
    5MOL0     H  635  10.711   7.463  10.541  0.3753  0.3139 -0.6683
    5MOL0     H  636  10.557   7.417  10.596 -0.1014  6.0114 -1.9670
    5MOL0     H  637  10.702   7.266  10.782  2.5023 -1.2077  0.2689
    5MOL0     H  638  10.694   7.208  10.625 -0.7837  0.9730  0.4948
    5MOL0     H  639  10.939   7.286  10.878  0.3889 -1.4832  0.1209
    5MOL0     H  640  11.287   7.298  10.766  0.6230  0.9166 -0.3320
    5MOL0     H  641  11.188   7.317  10.911  0.0748  0.4759  0.1282
    5MOL0     H  642  11.253   7.556  10.732 -3.2503  0.7998 -0.7404
    5MOL0     H  643  11.194   7.559  10.892  0.7882 -0.1199  1.0011
    5MOL0     H  644  11.382   7.455  10.999  0.7786  0.4168 -0.3672
    5MOL0     H  645  11.466   7.443  10.843  1.1685  0.8334 -0.3559
    5MOL0     H  646  11.456   7.694  10.822  0.1814  2.6856  1.2444
    5MOL0     H  647  11.371   7.705  10.973 -0.7384 -3.7257  1.7930
    5MOL0     H  648  11.767   7.636  11.133 -0.5904 -0.3305 -1.7946
    5MOL0     H  649  11.974   7.712  11.226  0.8707  0.2712  1.3559
    5MOL0     H  650  11.904   7.805  11.363  1.4896  0.7604 -0.3078
    5MOL0     H  651  12.010   7.887  11.261  0.1743  0.5013  4.2246
    5MOL0     H  652  11.979   8.139  11.541  4.2787 -2.2780  0.2338
    5MOL0     H  653  12.147   8.312  11.613 -1.3726  0.4418 -0.1331
    5MOL0     H  654  12.384   8.488  11.318 -1.6495 -1.2158  0.1413
    5MOL0     H  655  12.273   8.630  11.336  3.2186  2.0756 -1.2999
    5MOL0     H  656  12.390   8.693  11.543 -2.4598 -0.3081 -0.0731
    5MOL0     H  657  12.509   8.568  11.503 -1.5037 -0.0556  1.7130
    5MOL0     H  658  12.433   8.792  11.307  0.2763 -2.3444 -1.1600
    5MOL0     H  659  12.568   8.673  11.301  0.0590 -0.4969  1.5682
    5MOL0     H  660  12.654   8.781  11.497  1.3077  1.9764  0.4041
    5MOL0     H  661  12.529   8.907  11.507  3.8256  2.2812  2.2425
    5MOL0     H  662  12.603   9.003  11.283 -0.3340 -0.8129 -0.9643
    5MOL0     H  663  12.739   8.995  11.405 -0.8121  2.6264 -1.3995
    5MOL0     H  664  12.697   8.807  11.171  1.7798 -1.1405 -0.5482
    5MOL0     H  665  12.832   8.804  11.292  0.7434  2.1365  0.4569
    5MOL0     H  666  12.920   8.998  11.198 -1.6901 -0.0847  3.1086
    5MOL0     H  667  12.767   9.033  11.110 -1.9588  0.7000  3.8395
    5MOL0     H  668  12.828   8.833  10.963 -0.4521  2.6282 -1.5250
    5MOL0     H  669  12.953   8.782  11.075  1.7091  0.9876 -0.6781
    5MOL0     H  670  12.211   8.424  11.211  0.8464 -0.0728 -0.0142
    5MOL0     H  671  12.075   8.256  11.136  2.5361  1.0169 -0.3095
    5MOL0     H  672  11.643   8.096  11.014  3.0863  0.7691 -2.6732
    5MOL0     H  673  11.502   7.907  10.939 -1.3217  0.9220  1.2960
    5MOL0     H  674  10.590   7.890  10.471  1.7631 -0.6598 -0.0775
    5MOL0     H  675  10.672   7.735  10.302  0.9382 -3.5794  1.9463
    5MOL0     H  676  10.747   7.344  10.167  3.9684  1.1846 -2.0297
    5MOL0     H  677  10.858   7.202  10.015 -0.9437  1.6865 -0.1420
    5MOL0     H  678  10.641   7.003   9.681  2.4554 -2.3020 -2.1745
    5MOL0     H  679  10.691   7.166   9.612  2.0542  0.7360 -0.5174
    5MOL0     H  680  10.911   7.061   9.557 -0.7076  1.0255 -1.5501
    5MOL0     H  681  10.791   6.970   9.485  1.6466  0.1468 -0.6198
    5MOL0     H  682  10.938   6.910   9.746 -0.2598  0.1960  0.1860
    5MOL0     H  683  10.807   6.805   9.701  0.8403 -0.0054  1.1631
    5MOL0     H  684  10.913   6.747   9.482  0.5341 -0.3763 -1.3928
    5MOL0     H  685  11.028   6.707   9.615  0.2070 -0.7631 -1.4254
    5MOL0     H  686  11.249   6.978   9.396  1.9909 -0.1302  1.8450
    5MOL0     H  687  10.500   7.200   9.764  0.3002  0.7956 -0.9633
    5MOL0     H  688  10.335   7.439   9.956  0.7048 -0.3241 -0.3263
    5MOL0     H  689  10.298   7.315   9.843  1.6790 -2.4720 -0.1571
    5MOL0     H  690  10.284   7.285  10.022 -0.6029  2.5828  0.5322
    6MOL0     O  691   8.238   0.269   4.778  0.1822 -0.1281 -0.1198
    6MOL0     C  692   8.356   0.241   4.750 -0.4692  0.3311  0.3252
    6MOL0     O  693   8.439   0.161   4.831 -0.7250 -0.2745  0.4825
    6MOL0     C  694   8.377   0.082   4.932 -0.1760  0.7502  0.4293
    6MOL0     C  695   8.378   0.118   5.064  0.4211  0.1304 -0.0605
    6MOL0     C  696   8.329   0.040   5.171 -0.5544  0.4394 -0.3504
    6MOL0     C  697   8.269  -0.085   5.147  1.0607  0.9366  0.1206
    6MOL0     O  698   8.228  -0.171   5.246 -0.4106  0.3146  0.4238
    6MOL0     C  699   8.159  -0.300   5.222 -0.7400 -0.1913 -0.0986
    6MOL0     C  700   8.127  -0.359   5.356 -0.1012  0.1138 -0.6806
    6MOL0     C  701   8.252  -0.410   5.429 -0.7371 -0.5020  0.5466
    6MOL0     C  702   8.208  -0.426   5.571 -0.0455  0.5933 -0.3118
    6MOL0     C  703   8.303  -0.520   5.651 -0.3317  0.4620 -0.3118
    6MOL0     C  704   8.274  -0.546   5.798  0.7302 -0.1000 -0.2854
    6MOL0     C  705   8.406  -0.583   5.869 -0.1576  0.0042  0.5084
    6MOL0     C  706   8.391  -0.613   6.023  0.4803  0.7026 -0.4167
    6MOL0     N  707   8.512  -0.672   6.076  0.5301  0.5585 -0.0884
    6MOL0     C  708   8.615  -0.597   6.119  0.7556 -0.6493 -0.7966
    6MOL0     C  709   8.702  -0.685   6.159 -0.3795  0.0013  0.5704
    6MOL0     C  710   8.847  -0.640   6.180 -1.0564  0.0980 -0.0271
    6MOL0     C  711   8.867  -0.595   6.329  0.5151 -0.3197 -0.1584
    6MOL0     C  712   8.880  -0.714   6.426  0.0453  0.0502 -1.0136
    6MOL0     C  713   8.867  -0.664   6.565 -0.5129  0.4663  0.3998
    6MOL0     O  714   8.955  -0.563   6.602  0.0864 -0.0126  0.7351
    6MOL0     C  715   8.994  -0.545   6.732 -0.3399 -0.0087  0.4208
    6MOL0     C  716   8.905  -0.580   6.834 -0.2420 -0.5926 -1.1252
    6MOL0     C  717   8.948  -0.569   6.970 -0.4532  0.4173  0.5844
    6MOL0     C  718   8.851  -0.601   7.079 -0.0846 -0.4821  0.7880
    6MOL0     C  719   9.092  -0.543   6.992  0.8094 -0.0684  0.0354
    6MOL0     C  720   9.152  -0.538   7.128  0.0694  0.3324  0.7270
    6MOL0     O  721   9.274  -0.594   7.137  0.2591 -0.5846  1.4259
    6MOL0     C  722   9.283  -0.672   7.253  0.4381 -0.4812 -0.5942
    6MOL0     C  723   9.371  -0.637   7.353 -0.0032  0.1590  0.5443
    6MOL0     C  724   9.375  -0.704   7.476  0.3040 -0.3988  0.2588
    6MOL0     C  725   9.286  -0.817   7.496  0.8292  0.3249  0.1289
    6MOL0     O  726   9.287  -0.889   7.604  0.0797  0.1294 -0.0708
    6MOL0     C  727   9.408  -0.945   7.661  0.0746 -0.7336 -0.3489
    6MOL0     C  728   9.441  -0.871   7.797  0.7846 -0.8479  0.2310
    6MOL0     C  729   9.563  -0.916   7.889  0.0505 -0.3805  0.3278
    6MOL0     C  730   9.568  -1.068   7.908 -0.1749 -0.4089 -0.1857
    6MOL0     C  731   9.641  -1.104   8.028 -0.5066  0.8216 -0.0207
    6MOL0     C  732   9.788  -1.078   8.011 -0.5998  0.3127 -0.2612
    6MOL0     C  733   9.869  -1.135   8.130  0.3612 -0.0356  0.4912
    6MOL0     C  734  10.013  -1.110   8.139 -0.5624 -0.5477 -0.6747
    6MOL0    Cl  735  10.053  -0.941   8.118 -0.3529  0.2722 -0.3063
    6MOL0     C  736   9.191  -0.845   7.401 -0.3906  0.3524 -0.3838
    6MOL0     C  737   9.186  -0.773   7.280  0.0320  0.0392 -0.9557
    6MOL0     O  738   9.088  -0.489   7.220 -0.5938 -0.1341  0.2749
    6MOL0     C  739   9.172  -0.504   6.884  0.0413  0.3357 -0.1540
    6MOL0     C  740   9.123  -0.491   6.762 -0.0869  0.7431 -0.1333
    6MOL0     N  741   8.655  -0.817   6.124  0.9321  0.4444 -0.1475
    6MOL0     N  742   8.536  -0.809   6.092  0.0503 -0.5000 -0.2427
    6MOL0     C  743   8.260  -0.122   5.007  0.1346  0.0077  1.5136
    6MOL0     C  744   8.308  -0.038   4.898  0.0524 -0.4382 -0.1325
    6MOL0     C  745   8.412   0.292   4.615  0.3615  0.0354 -0.1285
    6MOL0     C  746   8.514   0.214   4.559 -0.3625 -0.1632  0.6261
    6MOL0     C  747   8.577   0.251   4.434  1.3310  0.1469 -0.4385
    6MOL0     C  748   8.524   0.364   4.362  0.2670 -0.5661  0.3643
    6MOL0     O  749   8.566   0.403   4.237  0.3224 -0.4184 -0.8048
    6MOL0     C  750   8.700   0.374   4.190 -0.9488 -0.4742  0.0128
    6MOL0     C  751   8.810   0.452   4.274 -0.5627  0.5646  0.1405
    6MOL0     C  752   8.945   0.418   4.219 -0.1406 -0.1642  1.0749
    6MOL0     C  753   9.021   0.547   4.211 -0.3026 -0.1334 -0.3021
    6MOL0     C  754   9.161   0.517   4.174  1.0280 -0.8045  0.2531
    6MOL0     C  755   9.264   0.483   4.133 -0.6651 -0.2688 -1.4035
    6MOL0     C  756   8.417   0.433   4.423  0.1638  0.9494 -0.5264
    6MOL0     C  757   8.360   0.396   4.543  0.2493 -0.0019  0.1258
    6MOL0     C  758   8.248   0.486   4.588 -0.3374 -0.8394 -0.6650
    6MOL0     H  759   8.424   0.209   5.101 -3.1791  1.1636  2.4949
    6MOL0     H  760   8.361   0.072   5.270  1.0974 -1.2591 -0.2666
    6MOL0     H  761   8.223  -0.366   5.163  1.6149  1.0164  0.9628
    6MOL0     H  762   8.059  -0.284   5.180 -1.2035  1.7994  1.6257
    6MOL0     H  763   8.074  -0.277   5.407  0.6747  2.0438 -2.8140
    6MOL0     H  764   8.049  -0.434   5.350 -0.6431  0.7591 -2.0451
    6MOL0     H  765   8.299  -0.498   5.385 -2.2019  0.0769 -2.4514
    6MOL0     H  766   8.327  -0.331   5.430 -3.4483  2.2787  0.1929
    6MOL0     H  767   8.225  -0.327   5.616  1.9109 -0.1584  0.7433
    6MOL0     H  768   8.108  -0.470   5.573  0.6587 -1.0727  0.8658
    6MOL0     H  769   8.407  -0.486   5.637  0.3940 -1.3191  0.4838
    6MOL0     H  770   8.295  -0.615   5.598 -1.0861 -0.3431  1.1836
    6MOL0     H  771   8.240  -0.456   5.851 -0.2194  1.0563 -2.7468
    6MOL0     H  772   8.197  -0.623   5.813  0.1193  0.4049 -0.7654
    6MOL0     H  773   8.469  -0.493   5.862 -0.6365  0.3056 -0.0544
    6MOL0     H  774   8.446  -0.668   5.814 -0.8408  1.7363 -2.9529
    6MOL0     H  775   8.379  -0.518   6.076  2.7259  1.1614 -0.6443
    6MOL0     H  776   8.307  -0.683   6.032  3.4693 -3.0031  1.0507
    6MOL0     H  777   8.628  -0.490   6.108 -0.8681  0.3435  4.0381
    6MOL0     H  778   8.863  -0.551   6.118 -0.2649  0.9293  1.3385
    6MOL0     H  779   8.919  -0.715   6.145 -2.7545 -2.3509  1.4260
    6MOL0     H  780   8.958  -0.534   6.330  1.5472 -1.7825  2.3202
    6MOL0     H  781   8.784  -0.533   6.363  1.0703  2.0687 -2.7898
    6MOL0     H  782   8.801  -0.788   6.413 -0.1564 -0.0037  0.3848
    6MOL0     H  783   8.974  -0.767   6.407  1.1724  1.5354  0.1556
    6MOL0     H  784   8.762  -0.636   6.579 -0.1528  1.7762  0.5936
    6MOL0     H  785   8.889  -0.758   6.617 -0.6209  0.4166  0.3557
    6MOL0     H  786   8.807  -0.614   6.803 -1.1037  1.1135 -0.3999
    6MOL0     H  787   8.752  -0.591   7.035 -0.1065  0.4346  1.0340
    6MOL0     H  788   8.862  -0.522   7.154  1.6342  1.2594 -1.1734
    6MOL0     H  789   8.875  -0.702   7.115  1.0137 -0.2244  0.8000
    6MOL0     H  790   9.413  -0.537   7.342 -1.2477  0.5831 -0.6768
    6MOL0     H  791   9.451  -0.682   7.551 -0.2897  0.6546  0.5752
    6MOL0     H  792   9.378  -1.043   7.697  1.5603 -0.5759  1.4869
    6MOL0     H  793   9.492  -0.961   7.592  0.9828 -1.6375  0.9147
    6MOL0     H  794   9.464  -0.769   7.767  4.1730 -1.7718 -0.7638
    6MOL0     H  795   9.344  -0.874   7.848  2.1006  0.3434  2.9822
    6MOL0     H  796   9.566  -0.874   7.990  4.0139 -0.4292  0.3835
    6MOL0     H  797   9.661  -0.901   7.843  1.7336  0.4440  3.7895
    6MOL0     H  798   9.613  -1.109   7.818  0.5103  1.0645 -0.5473
    6MOL0     H  799   9.463  -1.100   7.916  0.3322 -2.2109 -0.3871
    6MOL0     H  800   9.602  -1.045   8.111 -2.3683 -1.1481  0.5988
    6MOL0     H  801   9.636  -1.210   8.055  2.8374  1.2791  3.1604
    6MOL0     H  802   9.801  -0.970   8.013 -2.4871  0.5832 -0.7121
    6MOL0     H  803   9.833  -1.102   7.914 -0.6666  1.5060 -0.6035
    6MOL0     H  804   9.851  -1.243   8.119 -0.8837  0.3604 -2.1552
    6MOL0     H  805   9.822  -1.098   8.222  0.3413  0.9881  0.0753
    6MOL0     H  806  10.065  -1.174   8.067  3.3976 -0.9257  2.1895
    6MOL0     H  807  10.064  -1.145   8.229  2.2058 -0.3509 -2.0490
    6MOL0     H  808   9.119  -0.923   7.418  0.9521 -0.6911  0.7045
    6MOL0     H  809   9.121  -0.810   7.201  0.9446 -0.4186 -1.5045
    6MOL0     H  810   9.278  -0.486   6.903  0.5522 -1.9110 -0.5740
    6MOL0     H  811   9.183  -0.459   6.677 -1.3784  1.1939 -0.8978
    6MOL0     H  812   8.212  -0.218   4.991  0.8471 -0.6217  2.9255
    6MOL0     H  813   8.301  -0.074   4.796  1.8672  0.6581 -0.6671
    6MOL0     H  814   8.556   0.133   4.617  3.3978  2.0711  1.3925
    6MOL0     H  815   8.652   0.180   4.401 -0.7414 -1.7587 -1.3452
    6MOL0     H  816   8.716   0.266   4.198  0.3369 -0.1948  1.8314
    6MOL0     H  817   8.706   0.416   4.089  0.4393  2.6064  1.2373
    6MOL0     H  818   8.812   0.418   4.378  0.9061 -1.3400 -0.4468
    6MOL0     H  819   8.784   0.557   4.286  0.4071  0.7868  0.3168
    6MOL0     H  820   9.005   0.355   4.285  1.0049  1.1475  1.3208
    6MOL0     H  821   8.939   0.372   4.120  1.7030 -0.6913  1.1743
    6MOL0     H  822   9.003   0.604   4.302  2.8762  0.0472  0.3544
    6MOL0     H  823   8.982   0.607   4.128  0.0997  0.6481  0.0568
    6MOL0     H  824   9.361   0.449   4.103 -0.1845 -0.1836 -0.0055
    6MOL0     H  825   8.382   0.523   4.374 -4.0156 -0.2196 -0.0417
    6MOL0     H  826   8.240   0.587   4.545 -4.3635 -0.6893  0.0120
    6MOL0     H  827   8.156   0.428   4.578  0.0071 -1.6375  0.5991
    6MOL0     H  828   8.279   0.492   4.692  1.7087  0.1121 -1.2787
    7MOL0     O  829   2.382   9.791   7.625  0.5130  0.4939 -0.5760
    7MOL0     C  830   2.296   9.702   7.622 -0.2381  0.6255  0.2476
    7MOL0     O  831   2.174   9.703   7.555 -0.2372  0.1446  0.1102
    7MOL0     C  832   2.133   9.818   7.499 -0.5646  0.0012  0.3033
    7MOL0     C  833   2.068   9.926   7.567 -0.4618  0.0901  0.0879
    7MOL0     C  834   2.026  10.040   7.502 -0.7444 -0.4187 -1.0736
    7MOL0     C  835   2.047  10.052   7.358 -0.1374 -0.3048  0.0130
    7MOL0     O  836   2.005  10.156   7.281  0.4987 -0.5423  0.6564
    7MOL0     C  837   1.904  10.243   7.341 -0.4011 -0.4351 -0.4248
    7MOL0     C  838   1.850  10.324   7.225  0.2853 -0.3197 -0.0344
    7MOL0     C  839   1.731  10.255   7.148  0.3959 -0.2071  0.1227
    7MOL0     C  840   1.596  10.264   7.211  0.3587  0.0390  0.1076
    7MOL0     C  841   1.546  10.402   7.192 -0.8160 -0.6973 -0.0244
    7MOL0     C  842   1.420  10.444   7.266  0.0836 -0.0144 -0.2047
    7MOL0     C  843   1.393  10.596   7.260  0.0377  0.5628  0.0699
    7MOL0     C  844   1.243  10.633   7.300 -0.2713  0.1052 -0.1232
    7MOL0     N  845   1.216  10.770   7.272 -0.4474 -0.1429 -0.4524
    7MOL0     C  846   1.229  10.842   7.152  0.5059 -0.3081 -0.4346
    7MOL0     C  847   1.181  10.970   7.165  0.2163 -0.6231 -0.8527
    7MOL0     C  848   1.130  11.072   7.068 -0.5599 -0.1477  0.6009
    7MOL0     C  849   1.240  11.180   7.041 -0.4792  0.1589  0.2442
    7MOL0     C  850   1.199  11.248   6.908  0.0075 -0.4912  0.7781
    7MOL0     C  851   1.310  11.344   6.873  0.1531 -0.9231 -1.2025
    7MOL0     O  852   1.395  11.310   6.759 -0.0227  0.3418  0.0422
    7MOL0     C  853   1.511  11.378   6.738 -0.6012  0.1982  0.0808
    7MOL0     C  854   1.571  11.466   6.817 -0.0691  0.5401 -0.2040
    7MOL0     C  855   1.685  11.538   6.784 -0.1864 -0.0863  0.6343
    7MOL0     C  856   1.725  11.659   6.867  0.3053 -0.0934 -1.4017
    7MOL0     C  857   1.765  11.495   6.671 -0.5801  0.1062  0.7071
    7MOL0     C  858   1.897  11.558   6.636 -0.3811 -0.5600  1.0989
    7MOL0     O  859   1.965  11.483   6.542  0.0798 -0.1131 -0.3973
    7MOL0     C  860   2.093  11.521   6.507 -0.2546 -0.6030  0.1909
    7MOL0     C  861   2.188  11.549   6.612 -0.6111  0.3066  0.0304
    7MOL0     C  862   2.322  11.569   6.589  0.1968  0.1955  0.2941
    7MOL0     C  863   2.364  11.573   6.460 -0.0774  0.6529  0.2235
    7MOL0     O  864   2.502  11.594   6.443 -0.0373 -0.1695 -0.2770
    7MOL0     C  865   2.604  11.540   6.530  0.5706  0.9124  0.5954
    7MOL0     C  866   2.700  11.646   6.577 -0.4082  0.5934 -0.4356
    7MOL0     C  867   2.659  11.755   6.669  0.7837  0.1236  0.0211
    7MOL0     C  868   2.636  11.702   6.807  0.0254 -0.3943 -0.1429
    7MOL0     C  869   2.604  11.822   6.904 -0.1924 -0.1253 -0.9319
    7MOL0     C  870   2.602  11.792   7.059  0.0651  0.2196  0.0102
    7MOL0     C  871   2.465  11.797   7.130  0.9572  0.9794  0.2531
    7MOL0     C  872   2.459  11.743   7.276  0.5641  1.0246 -0.6196
    7MOL0    Cl  873   2.529  11.854   7.397 -0.5407 -0.0628 -0.3909
    7MOL0     C  874   2.274  11.567   6.354  0.7722  0.7363 -0.1427
    7MOL0     C  875   2.142  11.532   6.375  0.1387 -0.1397  0.5565
    7MOL0     O  876   1.934  11.669   6.678 -0.3573 -1.0850  0.6226
    7MOL0     C  877   1.707  11.401   6.586 -0.1360  0.7592 -0.4343
    7MOL0     C  878   1.588  11.345   6.624  0.4635  0.2636 -0.4649
    7MOL0     N  879   1.140  10.974   7.301 -0.2877 -0.3768 -0.4522
    7MOL0     N  880   1.167  10.861   7.357  0.1867 -0.4530 -0.3873
    7MOL0     C  881   2.120   9.955   7.297  0.1598 -0.3936 -0.1315
    7MOL0     C  882   2.167   9.838   7.365  0.4943 -0.9286  0.0931
    7MOL0     C  883   2.322   9.575   7.702  0.3359 -0.6281  0.1545
    7MOL0     C  884   2.451   9.532   7.721 -0.0062  0.1448 -0.2854
    7MOL0     C  885   2.475   9.414   7.788 -0.0827 -0.0692 -0.0591
    7MOL0     C  886   2.374   9.336   7.840  0.1620  0.1241  0.1641
    7MOL0     O  887   2.418   9.232   7.916  0.3130  0.5258  1.1533
    7MOL0     C  888   2.331   9.144   7.987 -0.1414  0.0171  0.5542
    7MOL0     C  889   2.328   9.185   8.131 -0.2149 -0.0112 -0.3203
    7MOL0     C  890   2.220   9.107   8.210  0.0289  1.1058  0.0180
    7MOL0     C  891   2.167   9.170   8.338 -0.9894  0.2415  0.6832
    7MOL0     C  892   2.058   9.099   8.389 -0.7326 -0.0430 -0.7271
    7MOL0     C  893   1.966   9.041   8.439 -0.9461 -0.2146 -1.3268
    7MOL0     C  894   2.248   9.386   7.828 -0.2078  0.1105  0.4181
    7MOL0     C  895   2.213   9.504   7.765 -0.6440 -0.1389  0.4868
    7MOL0     C  896   2.072   9.537   7.745  0.0528 -0.0495  0.7104
    7MOL0     H  897   2.053   9.933   7.675  2.3646  1.3575  0.4865
    7MOL0     H  898   1.976  10.117   7.561  0.2061 -0.5124 -0.1096
    7MOL0     H  899   1.959  10.300   7.417  1.0796 -2.6276  0.2411
    7MOL0     H  900   1.831  10.176   7.389 -0.4436 -1.0012 -1.2660
    7MOL0     H  901   1.821  10.423   7.262  2.6710 -0.2889  1.9369
    7MOL0     H  902   1.934  10.343   7.157  0.1804 -0.9532 -0.3484
    7MOL0     H  903   1.731  10.303   7.050  3.2802 -0.1677  0.0370
    7MOL0     H  904   1.759  10.149   7.142  0.9402 -0.4784  4.5297
    7MOL0     H  905   1.521  10.208   7.154 -0.2234  2.9154 -2.1537
    7MOL0     H  906   1.599  10.242   7.318 -1.0228  0.7885  0.3167
    7MOL0     H  907   1.527  10.407   7.085  0.2905  1.9665 -0.1762
    7MOL0     H  908   1.630  10.472   7.202  1.9287 -3.6901 -0.3477
    7MOL0     H  909   1.341  10.389   7.213 -0.7965  0.0097  1.0516
    7MOL0     H  910   1.434  10.428   7.373  0.1559 -0.4404 -0.2762
    7MOL0     H  911   1.413  10.636   7.160 -1.8631  2.1468  0.2724
    7MOL0     H  912   1.465  10.642   7.330 -0.4203 -3.5353  3.6496
    7MOL0     H  913   1.173  10.563   7.253 -0.1246 -1.3038  1.6125
    7MOL0     H  914   1.236  10.623   7.409  1.6708 -2.0843 -0.1071
    7MOL0     H  915   1.261  10.799   7.058 -0.7903 -0.0321 -1.0362
    7MOL0     H  916   1.055  11.134   7.119  1.7832  1.6205  2.1292
    7MOL0     H  917   1.084  11.027   6.979 -3.5196 -0.3459  2.0877
    7MOL0     H  918   1.241  11.243   7.130  0.7032  2.5488 -1.3509
    7MOL0     H  919   1.340  11.135   7.037 -0.3990  0.0587  2.3295
    7MOL0     H  920   1.209  11.176   6.826  0.4871 -0.9773  1.2542
    7MOL0     H  921   1.099  11.292   6.913  1.3483  2.8036  4.0018
    7MOL0     H  922   1.277  11.445   6.848  3.7994  1.0142  0.9053
    7MOL0     H  923   1.368  11.368   6.963 -1.4076 -1.8423  0.0896
    7MOL0     H  924   1.521  11.493   6.909 -3.6491 -0.5474 -1.6536
    7MOL0     H  925   1.824  11.637   6.908  0.9875  0.3624 -2.7623
    7MOL0     H  926   1.661  11.667   6.956  2.5349 -1.2227  0.4303
    7MOL0     H  927   1.732  11.749   6.805 -0.1297  0.0938 -1.1918
    7MOL0     H  928   2.155  11.543   6.715 -0.2549  2.8237  0.3638
    7MOL0     H  929   2.392  11.565   6.672 -0.3518  0.3065  0.7692
    7MOL0     H  930   2.569  11.472   6.608  1.2427 -1.5609 -1.1098
    7MOL0     H  931   2.668  11.472   6.471  0.2076  0.8843  0.2263
    7MOL0     H  932   2.795  11.601   6.606 -0.3089 -0.4149 -2.1765
    7MOL0     H  933   2.731  11.701   6.487 -1.3604  0.1860 -1.0232
    7MOL0     H  934   2.563  11.793   6.634 -1.7756 -4.1346  1.7032
    7MOL0     H  935   2.734  11.835   6.666 -0.6946  1.5672  0.3257
    7MOL0     H  936   2.726  11.663   6.855 -1.7526 -0.9107  3.1003
    7MOL0     H  937   2.565  11.619   6.812 -0.5997  0.1587  0.6488
    7MOL0     H  938   2.679  11.901   6.889  0.1778 -0.5184 -1.1995
    7MOL0     H  939   2.509  11.866   6.875 -0.4478  0.2705  0.4239
    7MOL0     H  940   2.675  11.859   7.105 -0.2412  0.4253  0.1962
    7MOL0     H  941   2.648  11.693   7.073  1.9191  1.2124  1.4592
    7MOL0     H  942   2.393  11.751   7.062  0.9793  0.0039  0.8666
    7MOL0     H  943   2.437  11.902   7.128  1.6455  1.2677  2.6393
    7MOL0     H  944   2.525  11.656   7.270  1.8708  1.9218  0.3709
    7MOL0     H  945   2.357  11.708   7.296  0.8131 -1.1653 -2.6523
    7MOL0     H  946   2.317  11.571   6.254 -1.7272 -2.0255 -1.4756
    7MOL0     H  947   2.061  11.519   6.304 -0.4565 -1.9236  1.4904
    7MOL0     H  948   1.755  11.379   6.490  0.0676  1.5707 -0.5304
    7MOL0     H  949   1.547  11.266   6.562 -0.1792  0.1370  0.1027
    7MOL0     H  950   2.143   9.967   7.192  0.3494 -2.2054 -0.3266
    7MOL0     H  951   2.217   9.769   7.298  0.8831 -0.7714  0.2228
    7MOL0     H  952   2.528   9.597   7.680 -1.2574  0.9083 -1.5323
    7MOL0     H  953   2.579   9.387   7.805  0.1508  0.5640 -0.4170
    7MOL0     H  954   2.227   9.138   7.953 -0.5395 -2.4302  2.0014
    7MOL0     H  955   2.369   9.042   7.981 -0.4051 -0.1215  1.1771
    7MOL0     H  956   2.320   9.293   8.146  3.5656  0.3149  0.4067
    7MOL0     H  957   2.422   9.161   8.182 -1.4440  0.7969  2.5627
    7MOL0     H  958   2.131   9.105   8.147  0.5422  0.3952 -0.7038
    7MOL0     H  959   2.259   9.011   8.245 -1.9550  0.7313  1.3365
    7MOL0     H  960   2.132   9.267   8.301 -1.0337 -0.7676 -2.2072
    7MOL0     H  961   2.244   9.179   8.415  2.1201 -0.7986 -2.0173
    7MOL0     H  962   1.887   8.988   8.487 -2.4984  2.0788 -1.1935
    7MOL0     H  963   2.176   9.323   7.880  0.2418 -1.4349 -0.7483
    7MOL0     H  964   2.054   9.645   7.753  0.8638  0.3819 -2.1253
    7MOL0     H  965   2.036   9.513   7.645 -1.9769  0.9751  1.1385
    7MOL0     H  966   2.012   9.491   7.824 -0.2172  0.1019  0.5913
    8MOL0     O  967  10.189   6.279   9.688  0.6484  0.5400  0.4227
    8MOL0     C  968  10.088   6.325   9.641 -0.6422  0.4160  0.9774
    8MOL0     O  969   9.963   6.295   9.676 -0.0080 -0.3159 -1.0929
    8MOL0     C  970   9.934   6.176   9.738 -0.0248 -0.3531  0.5545
    8MOL0     C  971   9.983   6.052   9.695 -0.5827 -0.1282 -0.1432
    8MOL0     C  972   9.952   5.940   9.776 -0.6824  0.4096 -0.0146
    8MOL0     C  973   9.889   5.953   9.896  0.1322 -0.4037  0.1888
    8MOL0     O  974   9.882   5.837   9.974 -0.1030 -0.4936  0.5739
    8MOL0     C  975   9.932   5.850  10.101  0.3503  0.2287 -0.7853
    8MOL0     C  976  10.085   5.820  10.097  0.7334  0.1541  0.5430
    8MOL0     C  977  10.148   5.816  10.235 -0.1555  0.4819 -0.6502
    8MOL0     C  978  10.299   5.822  10.213 -0.0408  0.3786 -0.0980
    8MOL0     C  979  10.376   5.834  10.350 -0.4361 -0.9121  0.7776
    8MOL0     C  980  10.392   5.978  10.407 -0.9159  0.4331 -0.1233
    8MOL0     C  981  10.476   5.976  10.539 -0.5135  0.1835 -0.1339
    8MOL0     C  982  10.419   6.068  10.646  0.0385 -0.2169 -1.1745
    8MOL0     N  983  10.506   6.060  10.763 -1.2208 -0.1002 -0.1444
    8MOL0     C  984  10.642   6.085  10.759 -1.3031  0.0478 -0.1222
    8MOL0     C  985  10.690   6.050  10.881  0.1486  0.3591  0.3270
    8MOL0     C  986  10.832   6.062  10.933 -0.0383 -0.4976 -0.2120
    8MOL0     C  987  10.938   5.960  10.890  0.3945 -0.3684  0.9061
    8MOL0     C  988  10.966   5.953  10.742  0.6901  0.1348  0.0086
    8MOL0     C  989  11.025   6.081  10.673  0.2335 -0.4067 -0.0056
    8MOL0     O  990  10.916   6.178  10.648 -0.0310 -0.6895  0.4000
    8MOL0     C  991  10.943   6.286  10.562 -0.4698 -0.6155  0.2683
    8MOL0     C  992  10.837   6.342  10.497  0.6631  0.2250  0.2339
    8MOL0     C  993  10.857   6.456  10.411  0.0721  0.0468  0.8676
    8MOL0     C  994  10.741   6.535  10.358 -0.6464 -0.6254 -0.8739
    8MOL0     C  995  10.989   6.506  10.403 -0.4675  0.7890  0.8278
    8MOL0     C  996  11.032   6.616  10.307  1.0214  0.3399 -1.3085
    8MOL0     O  997  11.141   6.687  10.350  0.6824  0.0998  0.4288
    8MOL0     C  998  11.145   6.822  10.309 -0.3723  0.2049  0.6405
    8MOL0     C  999  11.093   6.934  10.394  0.1886 -0.1382  0.4377
    8MOL0     C 1000  11.083   7.060  10.349  1.4065 -0.7899  0.1278
    8MOL0     C 1001  11.118   7.092  10.216  0.0700 -0.4083  0.4158
    8MOL0     O 1002  11.089   7.206  10.153  0.6200 -0.0826 -0.0484
    8MOL0     C 1003  11.085   7.327  10.226 -0.3648 -0.1882 -1.1253
    8MOL0     C 1004  11.048   7.441  10.136  0.5099  0.0792  0.1977
    8MOL0     C 1005  11.047   7.579  10.201 -0.8517  0.0434 -0.4167
    8MOL0     C 1006  10.924   7.614  10.286 -0.6821  0.2840 -0.7039
    8MOL0     C 1007  10.959   7.753  10.356  0.6369 -0.7746 -0.3965
    8MOL0     C 1008  10.979   7.732  10.507  0.1872  0.0043 -0.1265
    8MOL0     C 1009  11.026   7.859  10.580 -0.5102 -0.8408  0.1461
    8MOL0     C 1010  10.992   7.833  10.728 -1.2212  0.4647  0.3569
    8MOL0    Cl 1011  11.101   7.955  10.820 -0.3425  0.2368 -0.2254
    8MOL0     C 1012  11.174   6.993  10.135  0.2364  1.5073 -0.9805
    8MOL0     C 1013  11.188   6.859  10.175  0.3991  0.6438 -0.0154
    8MOL0     O 1014  10.977   6.624  10.191 -0.1227  0.4842 -0.0497
    8MOL0     C 1015  11.096   6.431  10.457  0.2952 -0.1963  0.2387
    8MOL0     C 1016  11.075   6.324  10.536  0.6068  0.0112 -0.0936
    8MOL0     N 1017  10.574   6.007  10.957 -0.3033 -0.1444  0.0024
    8MOL0     N 1018  10.469   6.023  10.891  0.8706  0.4271  0.3783
    8MOL0     C 1019   9.837   6.081   9.932  0.5858  0.9709 -0.5354
    8MOL0     C 1020   9.865   6.191   9.854 -0.6653 -0.7854 -0.1268
    8MOL0     C 1021  10.111   6.440   9.554  0.5981 -1.3886 -0.3058
    8MOL0     C 1022  10.017   6.472   9.452 -0.6169  0.3800 -1.0353
    8MOL0     C 1023  10.024   6.582   9.362  0.2158 -0.2787 -0.3278
    8MOL0     C 1024  10.130   6.664   9.370 -0.1649  0.3281  0.0014
    8MOL0     O 1025  10.118   6.780   9.293 -0.1033  0.2224  0.1765
    8MOL0     C 1026  10.236   6.858   9.271  0.2816  0.2531 -0.2562
    8MOL0     C 1027  10.233   6.932   9.137  0.0323 -0.9322  0.1859
    8MOL0     C 1028  10.135   7.056   9.131 -0.4268 -0.4923 -0.1132
    8MOL0     C 1029  10.165   7.150   9.011 -0.0999 -0.9548  0.5515
    8MOL0     C 1030  10.063   7.253   8.981 -0.5387  0.4455 -0.0970
    8MOL0     C 1031   9.981   7.335   8.952  0.5867  0.0572  0.1211
    8MOL0     C 1032  10.227   6.636   9.462  0.5991 -0.0586 -1.1255
    8MOL0     C 1033  10.224   6.523   9.553 -0.0089 -0.8487  0.4333
    8MOL0     C 1034  10.344   6.494   9.643 -0.8592  0.3166  0.4577
    8MOL0     H 1035  10.047   6.041   9.608 -3.0438 -0.3038 -2.0395
    8MOL0     H 1036  10.011   5.851   9.757  1.3155  1.5495  0.5161
    8MOL0     H 1037   9.887   5.771  10.163  2.9935 -2.1669 -1.6933
    8MOL0     H 1038   9.903   5.947  10.141  0.5530 -0.2811  0.6647
    8MOL0     H 1039  10.106   5.722  10.052  0.2127  1.0889 -1.9236
    8MOL0     H 1040  10.129   5.888  10.023 -3.6963  1.9414 -0.7806
    8MOL0     H 1041  10.116   5.895  10.304 -1.3433 -0.4313 -0.1201
    8MOL0     H 1042  10.125   5.725  10.290  1.4906  1.8029  2.4790
    8MOL0     H 1043  10.333   5.738  10.151 -1.4084 -1.8818  1.9845
    8MOL0     H 1044  10.326   5.909  10.154 -0.0063 -0.5769 -1.5592
    8MOL0     H 1045  10.476   5.795  10.327 -0.3402  0.8933 -2.5292
    8MOL0     H 1046  10.319   5.764  10.411 -2.6079 -0.9050 -1.0878
    8MOL0     H 1047  10.423   6.057  10.338 -0.2235  0.2948  0.0223
    8MOL0     H 1048  10.292   5.998  10.448 -0.6968  1.6384 -0.1438
    8MOL0     H 1049  10.575   6.021  10.528 -0.8798  1.5560  1.6646
    8MOL0     H 1050  10.489   5.873  10.574  0.1106  0.7622  1.4285
    8MOL0     H 1051  10.422   6.166  10.599 -2.2776  1.4965  1.8624
    8MOL0     H 1052  10.318   6.031  10.663  0.7176 -1.6630 -0.0194
    8MOL0     H 1053  10.705   6.131  10.682  0.6877  2.3564  2.6521
    8MOL0     H 1054  10.826   6.045  11.041  1.7886 -0.1261 -0.0260
    8MOL0     H 1055  10.864   6.165  10.913  0.7179 -0.5736  0.5778
    8MOL0     H 1056  11.027   5.974  10.952  0.2015  2.2193  0.7313
    8MOL0     H 1057  10.900   5.863  10.922 -1.8210 -0.1939 -0.8824
    8MOL0     H 1058  11.023   5.863  10.716  0.4699 -0.1895  0.6396
    8MOL0     H 1059  10.873   5.929  10.689  0.0345 -0.2296  1.2850
    8MOL0     H 1060  11.103   6.126  10.736  1.2305  0.1137 -1.5190
    8MOL0     H 1061  11.063   6.060  10.572 -0.7903  1.4499 -0.8440
    8MOL0     H 1062  10.734   6.310  10.507  0.0007  1.9949 -0.4576
    8MOL0     H 1063  10.746   6.544  10.249 -2.8313 -0.1395 -0.9798
    8MOL0     H 1064  10.736   6.634  10.405  2.3724 -0.0077 -1.6545
    8MOL0     H 1065  10.655   6.473  10.385 -1.0187 -0.7068 -2.1942
    8MOL0     H 1066  11.073   6.925  10.501 -0.7316  2.7991  0.5950
    8MOL0     H 1067  11.047   7.129  10.424  0.9058 -2.4722  1.4854
    8MOL0     H 1068  11.032   7.325  10.322  2.3906 -1.2924  0.4735
    8MOL0     H 1069  11.191   7.341  10.251 -0.8211  0.2948  0.6834
    8MOL0     H 1070  11.120   7.446  10.053  0.1142  1.2460 -0.0939
    8MOL0     H 1071  10.953   7.415  10.089  0.2594 -0.6201  1.0535
    8MOL0     H 1072  11.050   7.646  10.115  2.4380 -0.5180 -0.8691
    8MOL0     H 1073  11.138   7.593  10.260 -0.2330  1.2583 -1.6249
    8MOL0     H 1074  10.901   7.525  10.346 -2.9004  1.8578  0.9588
    8MOL0     H 1075  10.837   7.638  10.224 -0.7619 -1.6141 -1.3870
    8MOL0     H 1076  11.040   7.815  10.317  0.5389  1.3399  2.4139
    8MOL0     H 1077  10.875   7.821  10.339  2.3090  0.6875 -3.6355
    8MOL0     H 1078  11.037   7.641  10.526 -0.9177 -1.2280 -2.2303
    8MOL0     H 1079  10.880   7.704  10.544  0.0502 -2.2191 -1.8925
    8MOL0     H 1080  10.977   7.951  10.549 -1.2585 -0.1704  3.0394
    8MOL0     H 1081  11.135   7.872  10.572 -0.6744  1.0075  0.5910
    8MOL0     H 1082  11.012   7.730  10.761  1.4132  1.3111  1.6451
    8MOL0     H 1083  10.890   7.863  10.753 -1.9019 -1.1746 -0.2542
    8MOL0     H 1084  11.181   6.997  10.027 -0.7058  0.4807 -1.0922
    8MOL0     H 1085  11.234   6.780  10.117  0.3753 -1.0061  2.0716
    8MOL0     H 1086  11.196   6.465  10.433 -0.6600  0.3840 -3.4704
    8MOL0     H 1087  11.163   6.274  10.576  0.7367 -0.7572 -1.2848
    8MOL0     H 1088   9.783   6.104  10.023 -1.9479  3.1237 -2.4025
    8MOL0     H 1089   9.831   6.292   9.873  3.2250  0.9244 -1.2990
    8MOL0     H 1090   9.941   6.401   9.418  1.0503 -1.1546 -1.7308
    8MOL0     H 1091   9.939   6.602   9.298 -0.5772  0.3753  0.9011
    8MOL0     H 1092  10.253   6.925   9.356  0.7513  1.8295 -1.5337
    8MOL0     H 1093  10.328   6.798   9.274 -1.0745 -1.8974  0.4403
    8MOL0     H 1094  10.198   6.874   9.051 -0.2928  0.8575 -0.9427
    8MOL0     H 1095  10.334   6.961   9.105 -0.4827  1.0240  0.2084
    8MOL0     H 1096  10.031   7.024   9.119 -0.2292 -0.5805 -1.7524
    8MOL0     H 1097  10.143   7.118   9.221  3.7044 -2.6344  1.2557
    8MOL0     H 1098  10.172   7.095   8.918 -1.7913  3.5860 -2.6253
    8MOL0     H 1099  10.260   7.201   9.029  1.1382 -1.7331 -3.0660
    8MOL0     H 1100   9.912   7.411   8.922  1.8382  0.9024 -0.7445
    8MOL0     H 1101  10.307   6.709   9.465 -0.5239  1.2067 -0.5098
    8MOL0     H 1102  10.311   6.478   9.746 -1.8175  1.7823  0.4149
    8MOL0     H 1103  10.379   6.398   9.604 -3.3057 -0.0737 -1.0141
    8MOL0     H 1104  10.423   6.568   9.629 -2.0759  1.6123  0.1111
    9MOL0     O 1105   2.956   1.048   2.544 -0.4283 -0.1807 -0.2046
    9MOL0     C 1106   2.991   0.947   2.483  0.0431  0.0785  0.6637
    9MOL0     O 1107   3.112   0.884   2.500 -0.2123 -0.7308 -0.5297
    9MOL0     C 1108   3.210   0.935   2.584  0.1990 -0.1341  0.0619
    9MOL0     C 1109   3.286   1.035   2.536  0.6295 -0.3663 -0.7045
    9MOL0     C 1110   3.364   1.111   2.622 -0.3796 -0.8973 -0.7516
    9MOL0     C 1111   3.377   1.079   2.756 -0.8200  0.1955 -0.4015
    9MOL0     O 1112   3.465   1.153   2.832 -0.7492  0.1002  0.3108
    9MOL0     C 1113   3.448   1.164   2.971  0.4460  0.2441 -0.3408
    9MOL0     C 1114   3.323   1.234   3.017  0.0076 -0.0326 -0.0344
    9MOL0     C 1115   3.309   1.382   2.977 -1.1441 -0.7672 -0.3247
    9MOL0     C 1116   3.394   1.480   3.069 -0.3760  0.3080 -0.3540
    9MOL0     C 1117   3.352   1.627   3.038  0.6458 -0.9923 -0.4949
    9MOL0     C 1118   3.219   1.657   3.110 -0.9261 -0.5266 -0.9113
    9MOL0     C 1119   3.237   1.663   3.264 -0.2403 -1.4071  0.3203
    9MOL0     C 1120   3.110   1.677   3.349  1.0388  0.3674  0.8166
    9MOL0     N 1121   3.137   1.755   3.464 -0.8895  0.0049  0.6166
    9MOL0     C 1122   3.114   1.887   3.479  1.1483 -0.3411 -0.2815
    9MOL0     C 1123   3.145   1.906   3.612  0.5279 -0.7100  0.8171
    9MOL0     C 1124   3.144   2.034   3.684  0.2756  0.9267 -0.0988
    9MOL0     C 1125   3.199   2.151   3.611 -0.0823  0.1055 -0.0726
    9MOL0     C 1126   3.345   2.195   3.649 -0.5006  0.1607  0.1886
    9MOL0     C 1127   3.446   2.125   3.564  0.3472  0.5873  0.4127
    9MOL0     O 1128   3.465   1.998   3.619 -0.6685  0.2710 -0.1130
    9MOL0     C 1129   3.529   1.906   3.538  0.8117  0.1553  0.0232
    9MOL0     C 1130   3.557   1.917   3.404  0.0316  0.4369  0.8529
    9MOL0     C 1131   3.630   1.809   3.345  0.4799  0.5937  0.3746
    9MOL0     C 1132   3.641   1.827   3.194 -0.1326  0.1185 -0.5380
    9MOL0     C 1133   3.670   1.693   3.418  0.5577 -0.7324  0.1915
    9MOL0     C 1134   3.746   1.584   3.354  0.0118 -0.5818 -0.7734
    9MOL0     O 1135   3.763   1.472   3.433 -0.2192 -0.1054 -0.3690
    9MOL0     C 1136   3.863   1.382   3.431 -0.7197 -0.2190 -0.1061
    9MOL0     C 1137   3.856   1.259   3.509  0.6263 -0.0054 -0.1020
    9MOL0     C 1138   3.950   1.160   3.511 -0.4405  0.3353 -0.2669
    9MOL0     C 1139   4.069   1.179   3.450  0.5468  0.1501 -0.0949
    9MOL0     O 1140   4.172   1.106   3.480 -1.2196 -0.1605 -0.2475
    9MOL0     C 1141   4.269   1.167   3.561 -0.5241 -0.0590 -0.5496
    9MOL0     C 1142   4.236   1.150   3.712 -0.3677  0.1457 -1.0545
    9MOL0     C 1143   4.190   1.012   3.756 -0.7653  0.1876 -0.2133
    9MOL0     C 1144   4.300   0.910   3.735  0.3889 -0.3425  0.5934
    9MOL0     C 1145   4.264   0.773   3.793  0.1645  0.6462 -0.8998
    9MOL0     C 1146   4.387   0.685   3.771  0.7131 -0.4529  0.1544
    9MOL0     C 1147   4.390   0.549   3.856  0.2865  0.6254  0.4836
    9MOL0     C 1148   4.274   0.460   3.830 -0.1651  0.2612  0.1632
    9MOL0    Cl 1149   4.293   0.315   3.932  0.1850 -0.1467 -0.2875
    9MOL0     C 1150   4.089   1.295   3.372  0.8423 -0.5917  0.0302
    9MOL0     C 1151   3.987   1.393   3.359  0.0867 -0.1344  0.3222
    9MOL0     O 1152   3.792   1.597   3.238 -0.3475 -0.2201 -0.3152
    9MOL0     C 1153   3.643   1.695   3.558 -0.6374 -0.7650  0.0996
    9MOL0     C 1154   3.581   1.797   3.615 -0.1169  0.6270  0.7391
    9MOL0     N 1155   3.190   1.786   3.671 -0.0772 -0.6534 -1.2669
    9MOL0     N 1156   3.179   1.701   3.583  0.0275  0.2659  0.3964
    9MOL0     C 1157   3.309   0.968   2.800  0.9708  0.3128 -0.6188
    9MOL0     C 1158   3.221   0.900   2.713  0.6167  0.1889  0.0942
    9MOL0     C 1159   2.893   0.896   2.381 -0.4882 -0.1534  0.4171
    9MOL0     C 1160   2.782   0.975   2.350 -0.0167 -0.3553 -0.0648
    9MOL0     C 1161   2.679   0.932   2.263  0.8012  0.3789 -0.1870
    9MOL0     C 1162   2.671   0.801   2.216 -0.7684 -0.8674 -0.8302
    9MOL0     O 1163   2.579   0.756   2.136  0.1637 -0.0501 -0.0654
    9MOL0     C 1164   2.593   0.632   2.062 -0.3746 -0.2490 -0.0123
    9MOL0     C 1165   2.469   0.607   1.980 -0.0495  0.7964  0.1931
    9MOL0     C 1166   2.349   0.573   2.070  0.3784  0.3152 -0.3790
    9MOL0     C 1167   2.217   0.559   1.982 -0.0102 -0.2921  0.7378
    9MOL0     C 1168   2.088   0.541   2.048  0.2606  0.2419  0.0325
    9MOL0     C 1169   1.988   0.500   2.108  0.3827 -0.0027 -0.6648
    9MOL0     C 1170   2.778   0.718   2.255 -0.2602 -0.4990 -0.0129
    9MOL0     C 1171   2.889   0.760   2.331  0.6663  0.3704 -0.5555
    9MOL0     C 1172   2.994   0.656   2.358 -0.0783  0.4454 -0.2722
    9MOL0     H 1173   3.275   1.067   2.434 -3.8510  2.3611  0.3859
    9MOL0     H 1174   3.434   1.172   2.565 -0.6720 -0.3759 -0.5616
    9MOL0     H 1175   3.530   1.215   3.022 -0.3553  1.1187  0.1167
    9MOL0     H 1176   3.436   1.065   3.016 -0.5162  0.9576  1.0466
    9MOL0     H 1177   3.238   1.198   2.959 -1.3210  3.2969 -0.3901
    9MOL0     H 1178   3.302   1.215   3.123  3.3532  1.5741  1.0649
    9MOL0     H 1179   3.353   1.403   2.879  3.7624  1.6869  2.0573
    9MOL0     H 1180   3.203   1.407   2.986 -1.3439 -2.1598  2.2958
    9MOL0     H 1181   3.393   1.454   3.175 -0.1153 -1.4290 -0.7362
    9MOL0     H 1182   3.499   1.463   3.041 -0.0081 -0.0454  1.1448
    9MOL0     H 1183   3.344   1.637   2.929  0.2835 -3.7491 -0.7939
    9MOL0     H 1184   3.422   1.700   3.079 -2.2489  0.5653  2.0041
    9MOL0     H 1185   3.179   1.753   3.078  1.2918  0.7053 -0.2115
    9MOL0     H 1186   3.140   1.586   3.082  0.7408 -2.3273 -1.3133
    9MOL0     H 1187   3.296   1.751   3.287 -0.3289 -1.2133 -0.1725
    9MOL0     H 1188   3.276   1.568   3.301 -1.5565 -2.3019 -0.4686
    9MOL0     H 1189   3.033   1.717   3.283  0.1098 -0.0364  1.6301
    9MOL0     H 1190   3.086   1.575   3.381  1.4571 -0.5322 -1.5213
    9MOL0     H 1191   3.071   1.958   3.408 -0.9965 -2.7450 -1.5366
    9MOL0     H 1192   3.202   2.015   3.775  1.1319  0.3475 -0.7490
    9MOL0     H 1193   3.041   2.058   3.712  0.0674 -0.5441  0.5310
    9MOL0     H 1194   3.182   2.140   3.503 -0.1716  2.6502 -0.3911
    9MOL0     H 1195   3.141   2.239   3.642 -1.5843 -1.1283  0.7549
    9MOL0     H 1196   3.351   2.300   3.619 -2.6525  0.3919  0.3843
    9MOL0     H 1197   3.369   2.176   3.754  0.6436 -0.5590 -0.1824
    9MOL0     H 1198   3.416   2.123   3.459 -0.7405  0.5331  0.7111
    9MOL0     H 1199   3.543   2.177   3.568  1.7804 -1.9203  0.6305
    9MOL0     H 1200   3.523   1.995   3.336  0.3059 -0.9282 -0.9217
    9MOL0     H 1201   3.749   1.837   3.187 -0.0442 -0.6530 -0.3949
    9MOL0     H 1202   3.595   1.915   3.147  0.1507  0.9709  0.7497
    9MOL0     H 1203   3.611   1.735   3.143 -4.4407  0.6826  0.5367
    9MOL0     H 1204   3.762   1.243   3.562  0.8728 -1.7172 -0.1318
    9MOL0     H 1205   3.937   1.069   3.568 -1.9620  1.7827  1.8969
    9MOL0     H 1206   4.363   1.117   3.539 -1.7425 -2.5006 -0.5544
    9MOL0     H 1207   4.279   1.275   3.542  0.5049  0.4685  2.4836
    9MOL0     H 1208   4.312   1.190   3.779 -0.6011  0.2350 -0.8398
    9MOL0     H 1209   4.150   1.215   3.731  2.3193  3.3186  1.5097
    9MOL0     H 1210   4.096   0.989   3.705 -0.6455 -2.5425  0.6824
    9MOL0     H 1211   4.168   1.014   3.864  0.6798  1.5577  0.1044
    9MOL0     H 1212   4.392   0.942   3.784  0.7791 -0.9156  0.2577
    9MOL0     H 1213   4.320   0.904   3.627 -2.3511 -0.6399  0.0231
    9MOL0     H 1214   4.247   0.780   3.901  0.0808  0.0264 -0.8677
    9MOL0     H 1215   4.181   0.720   3.746  2.3343 -4.8991  0.6663
    9MOL0     H 1216   4.478   0.736   3.803  0.6878 -1.1367  1.3907
    9MOL0     H 1217   4.401   0.661   3.665 -0.8883  2.2440 -0.7682
    9MOL0     H 1218   4.390   0.576   3.962 -0.6630  2.0001  0.1503
    9MOL0     H 1219   4.478   0.487   3.836  0.2594  0.0288  2.0657
    9MOL0     H 1220   4.274   0.431   3.725  0.3554 -2.3499  0.8258
    9MOL0     H 1221   4.175   0.502   3.849  0.4686  1.0659  1.9040
    9MOL0     H 1222   4.183   1.314   3.322  0.6681 -1.2801 -0.5854
    9MOL0     H 1223   4.006   1.483   3.302  1.6736  0.7122  2.0819
    9MOL0     H 1224   3.680   1.622   3.630  2.0750  2.2320  2.0274
    9MOL0     H 1225   3.565   1.802   3.722  1.9056  1.9455  1.0389
    9MOL0     H 1226   3.329   0.930   2.899 -1.6610  4.3119  1.7351
    9MOL0     H 1227   3.156   0.817   2.743  0.3987  0.8037  1.3959
    9MOL0     H 1228   2.775   1.076   2.389 -0.3853  0.3202 -1.7759
    9MOL0     H 1229   2.594   0.998   2.244  2.5210  3.0671  0.8169
    9MOL0     H 1230   2.679   0.646   1.996  0.9274 -1.0262  1.4340
    9MOL0     H 1231   2.620   0.547   2.125  1.9148  0.5735  0.2215
    9MOL0     H 1232   2.485   0.520   1.915  3.2398  1.1487  0.3760
    9MOL0     H 1233   2.453   0.689   1.909 -4.1416 -1.4043 -1.8063
    9MOL0     H 1234   2.359   0.477   2.122 -2.4171 -1.2293 -2.4276
    9MOL0     H 1235   2.340   0.651   2.145 -1.5187  0.3873 -0.6388
    9MOL0     H 1236   2.232   0.481   1.907 -2.3129  2.1751 -2.5808
    9MOL0     H 1237   2.220   0.651   1.923  2.0447 -0.8006 -0.0314
    9MOL0     H 1238   1.899   0.459   2.150 -0.8313  0.9996 -2.1310
    9MOL0     H 1239   2.782   0.614   2.226  1.3908 -0.1115 -1.3887
    9MOL0     H 1240   3.086   0.692   2.311  0.8827 -1.1290  0.3405
    9MOL0     H 1241   3.011   0.633   2.464  1.6135 -1.7486 -0.9515
    9MOL0     H 1242   2.974   0.566   2.300  0.3896  0.5935 -0.6697
   10MOL0     O 1243   6.731   6.075   5.715  0.0058 -0.1269 -0.6507
   10MOL0     C 1244   6.772   6.150   5.630 -0.2683  0.6360  0.0112
   10MOL0     O 1245   6.899   6.156   5.585  0.2418 -0.2629 -1.1410
   10MOL0     C 1246   7.006   6.116   5.662 -0.4820  0.2553 -1.0093
   10MOL0     C 1247   7.036   6.187   5.783 -0.9049  0.4567  0.2730
   10MOL0     C 1248   7.150   6.138   5.865 -0.1756  0.2009 -0.3034
   10MOL0     C 1249   7.227   6.028   5.817 -0.3716  0.6153 -0.4621
   10MOL0     O 1250   7.324   5.972   5.892 -0.4311  0.1330 -0.5011
   10MOL0     C 1251   7.412   6.069   5.956 -0.3936 -0.6114 -0.4173
   10MOL0     C 1252   7.502   5.988   6.045 -0.8676 -0.2720  1.1197
   10MOL0     C 1253   7.607   6.075   6.118  0.5237 -0.8960  0.9957
   10MOL0     C 1254   7.679   5.995   6.219 -0.5936  0.2280 -0.3181
   10MOL0     C 1255   7.832   6.008   6.192 -0.0658 -0.2684 -0.0453
   10MOL0     C 1256   7.925   5.920   6.276  0.0940 -0.3820  0.2930
   10MOL0     C 1257   8.073   5.954   6.237 -0.2821  0.1132 -0.2020
   10MOL0     C 1258   8.171   5.859   6.296 -0.0194 -0.2575 -0.2363
   10MOL0     N 1259   8.284   5.835   6.215 -0.3893  0.5532  0.1160
   10MOL0     C 1260   8.380   5.929   6.183 -0.4846  0.5740  0.3236
   10MOL0     C 1261   8.466   5.856   6.106 -0.6930  0.2758 -0.1830
   10MOL0     C 1262   8.583   5.915   6.034  0.1843  0.3353  0.2512
   10MOL0     C 1263   8.547   6.058   5.983  0.3885 -0.1345  0.4730
   10MOL0     C 1264   8.627   6.119   5.865  0.5157 -0.1746 -0.2344
   10MOL0     C 1265   8.781   6.123   5.907  0.2786  0.2525 -0.3674
   10MOL0     O 1266   8.869   6.196   5.822  0.5603  0.1524  0.7836
   10MOL0     C 1267   8.951   6.135   5.730  0.6084  1.0168 -0.5692
   10MOL0     C 1268   8.977   5.996   5.719  0.1791  0.2629  0.3280
   10MOL0     C 1269   9.070   5.950   5.625 -0.3562  0.8946 -0.7819
   10MOL0     C 1270   9.100   5.798   5.636 -0.6280  0.2907  0.4519
   10MOL0     C 1271   9.133   6.038   5.539 -0.1999  0.2706 -0.9961
   10MOL0     C 1272   9.224   6.004   5.429 -0.6813  0.1644 -0.0998
   10MOL0     O 1273   9.291   6.104   5.367  0.0899  0.4997  0.3344
   10MOL0     C 1274   9.402   6.066   5.294  0.3131  0.6407  0.6705
   10MOL0     C 1275   9.528   6.114   5.333  0.1611 -0.9933 -0.1211
   10MOL0     C 1276   9.645   6.089   5.255  0.5592 -0.9981 -0.6662
   10MOL0     C 1277   9.628   6.025   5.131 -0.2754  0.2644  0.1187
   10MOL0     O 1278   9.737   5.987   5.058 -0.9135 -0.5577 -1.0397
   10MOL0     C 1279   9.726   5.895   4.950 -0.2313  1.0069 -0.1940
   10MOL0     C 1280   9.872   5.871   4.911  0.3810 -0.1076  0.6651
   10MOL0     C 1281   9.920   5.987   4.821  0.6496  0.6261 -0.1427
   10MOL0     C 1282  10.072   5.972   4.791 -0.1401  0.5005  0.1775
   10MOL0     C 1283  10.106   5.862   4.690 -0.1558  0.6322  0.0504
   10MOL0     C 1284  10.097   5.917   4.547 -0.1936  0.2197 -0.4753
   10MOL0     C 1285  10.189   5.840   4.448  0.4486  0.1087  0.5193
   10MOL0     C 1286  10.246   5.914   4.329 -0.8586 -0.0641  0.4447
   10MOL0    Cl 1287  10.109   5.940   4.225  0.3017  0.6282  0.2321
   10MOL0     C 1288   9.502   5.975   5.100 -0.1422 -0.0295  0.6279
   10MOL0     C 1289   9.399   5.989   5.183  1.5761  0.3297  0.1481
   10MOL0     O 1290   9.244   5.883   5.412  0.3141  0.0790  0.0928
   10MOL0     C 1291   9.098   6.173   5.550 -0.0030 -0.2595  0.1975
   10MOL0     C 1292   9.010   6.224   5.645 -1.1562 -0.4799 -1.1132
   10MOL0     N 1293   8.422   5.728   6.088 -0.9640  0.3955  0.2764
   10MOL0     N 1294   8.317   5.712   6.158  0.3318 -0.4054 -0.4087
   10MOL0     C 1295   7.185   5.963   5.705  0.0925  0.4713  0.7872
   10MOL0     C 1296   7.090   6.013   5.616  0.2842  0.8120 -0.4756
   10MOL0     C 1297   6.663   6.242   5.576 -0.0678 -0.8530 -0.7676
   10MOL0     C 1298   6.537   6.247   5.636  0.8625  0.2137 -0.8888
   10MOL0     C 1299   6.441   6.343   5.589 -0.7057  0.0251 -0.3278
   10MOL0     C 1300   6.467   6.419   5.472 -0.2194 -0.9888 -0.3011
   10MOL0     O 1301   6.354   6.482   5.424 -0.0496  0.0895  0.6662
   10MOL0     C 1302   6.359   6.516   5.291  0.1982 -0.2476  0.8053
   10MOL0     C 1303   6.219   6.567   5.246  0.4053 -0.5905 -0.0409
   10MOL0     C 1304   6.170   6.670   5.347 -0.5581  0.2082 -0.8074
   10MOL0     C 1305   6.138   6.811   5.295  0.2318 -0.2929 -0.3884
   10MOL0     C 1306   6.258   6.868   5.237  0.5569 -0.6083  0.3040
   10MOL0     C 1307   6.366   6.913   5.198 -0.4671 -0.5786  0.8838
   10MOL0     C 1308   6.588   6.423   5.422  0.0808 -1.1374  0.4952
   10MOL0     C 1309   6.695   6.341   5.478  0.3075  0.0333  0.3264
   10MOL0     C 1310   6.832   6.356   5.410  0.6788  0.5129  0.1721
   10MOL0     H 1311   6.983   6.277   5.811 -1.3608 -0.2401  1.8043
   10MOL0     H 1312   7.160   6.181   5.964  1.2989 -0.0323 -0.3309
   10MOL0     H 1313   7.348   6.131   6.020 -2.8877 -0.7019 -2.6569
   10MOL0     H 1314   7.473   6.137   5.895  1.1240  0.2509  1.9038
   10MOL0     H 1315   7.447   5.922   6.113 -1.1312 -2.0743 -0.7389
   10MOL0     H 1316   7.556   5.935   5.967 -0.2965  3.3894 -1.2037
   10MOL0     H 1317   7.685   6.121   6.056  3.9984 -2.2393  4.0047
   10MOL0     H 1318   7.564   6.164   6.164 -1.2980 -0.4672 -1.3170
   10MOL0     H 1319   7.653   6.028   6.320  2.4356 -3.1486  1.8272
   10MOL0     H 1320   7.654   5.888   6.216  1.8571 -0.4304  0.1032
   10MOL0     H 1321   7.865   6.111   6.211 -2.5335  0.1563  2.9414
   10MOL0     H 1322   7.832   5.973   6.089 -0.0087  0.5814 -0.3421
   10MOL0     H 1323   7.921   5.932   6.384  0.4989 -0.5319  0.3290
   10MOL0     H 1324   7.900   5.815   6.258  0.4275 -0.3640 -0.3274
   10MOL0     H 1325   8.097   6.054   6.272 -0.3144 -0.1257  0.5296
   10MOL0     H 1326   8.090   5.947   6.129  2.3270  2.6839 -0.0780
   10MOL0     H 1327   8.206   5.883   6.397  0.8120 -2.6976  0.1452
   10MOL0     H 1328   8.123   5.762   6.310 -0.6922 -0.3624 -2.7489
   10MOL0     H 1329   8.383   6.036   6.203 -1.6788  1.0010 -1.5447
   10MOL0     H 1330   8.617   5.857   5.947  2.0129  1.0022  0.4765
   10MOL0     H 1331   8.666   5.906   6.104 -0.2118 -2.3063  0.4879
   10MOL0     H 1332   8.445   6.055   5.943  0.8330 -3.0959 -0.6367
   10MOL0     H 1333   8.553   6.127   6.068  1.5569  1.6627 -0.9814
   10MOL0     H 1334   8.603   6.071   5.770 -0.6445  0.0518 -0.0674
   10MOL0     H 1335   8.595   6.222   5.846  0.3232 -0.3490 -0.8815
   10MOL0     H 1336   8.784   6.184   5.998  3.8270  1.4760 -1.1542
   10MOL0     H 1337   8.823   6.026   5.933  1.1321  0.2739 -1.5811
   10MOL0     H 1338   8.938   5.917   5.782 -0.6983 -4.0501 -4.9116
   10MOL0     H 1339   9.205   5.779   5.660 -0.8976 -0.4572  1.0987
   10MOL0     H 1340   9.098   5.751   5.537  2.6880 -1.6543  1.1297
   10MOL0     H 1341   9.035   5.750   5.709 -0.6892 -0.3550 -0.0188
   10MOL0     H 1342   9.536   6.176   5.422 -0.3334 -1.6889  0.4169
   10MOL0     H 1343   9.747   6.119   5.276  0.2155  1.1503 -1.7985
   10MOL0     H 1344   9.706   5.799   4.999  1.9482 -0.1100 -1.2941
   10MOL0     H 1345   9.652   5.921   4.874 -2.6901 -4.2932 -0.0864
   10MOL0     H 1346   9.943   5.855   4.992  1.1076 -1.3091 -0.1858
   10MOL0     H 1347   9.874   5.779   4.851  0.3676  1.6464 -2.2309
   10MOL0     H 1348   9.906   6.085   4.867  0.9073  1.4889 -1.8120
   10MOL0     H 1349   9.861   5.995   4.729  2.1649  0.9148 -1.1162
   10MOL0     H 1350  10.115   5.929   4.881 -3.4825 -2.3906  0.5785
   10MOL0     H 1351  10.131   6.062   4.768  2.2024 -0.8337  0.6448
   10MOL0     H 1352  10.204   5.820   4.713 -0.3087 -1.3892 -2.4854
   10MOL0     H 1353  10.035   5.780   4.701 -1.3697  1.4218 -1.4340
   10MOL0     H 1354  10.115   6.025   4.538 -1.3651  0.5272  0.5070
   10MOL0     H 1355   9.996   5.907   4.506  0.3031 -3.1411 -1.1219
   10MOL0     H 1356  10.143   5.747   4.414  0.9944  0.4192 -1.1386
   10MOL0     H 1357  10.277   5.809   4.506  1.8300  0.0566 -1.4811
   10MOL0     H 1358  10.302   5.851   4.259 -2.1072  1.3893 -1.9781
   10MOL0     H 1359  10.294   6.005   4.366  3.2707 -2.4717  1.7097
   10MOL0     H 1360   9.479   5.906   5.020  0.8063  0.4885 -0.1166
   10MOL0     H 1361   9.302   5.948   5.159  1.4482  0.5946  0.2055
   10MOL0     H 1362   9.149   6.243   5.485  0.9619 -0.6537  0.5154
   10MOL0     H 1363   8.993   6.331   5.651  0.2997 -0.3198  1.1379
   10MOL0     H 1364   7.232   5.871   5.670  2.4831  1.8177  0.2792
   10MOL0     H 1365   7.072   5.972   5.517 -0.9176  2.3839 -0.9530
   10MOL0     H 1366   6.501   6.169   5.702 -0.9627 -0.4211 -2.5403
   10MOL0     H 1367   6.342   6.345   5.633 -1.4392  2.6038 -1.9430
   10MOL0     H 1368   6.433   6.590   5.259 -0.2788 -0.9313 -2.1398
   10MOL0     H 1369   6.391   6.434   5.227 -0.5544  1.8492 -2.5087
   10MOL0     H 1370   6.154   6.479   5.252 -2.7058  1.4618 -0.8511
   10MOL0     H 1371   6.225   6.609   5.145  4.2997  0.5134  0.5063
   10MOL0     H 1372   6.087   6.614   5.390 -1.2370 -0.2793 -2.6304
   10MOL0     H 1373   6.239   6.682   5.431  0.1680 -0.5376 -1.2791
   10MOL0     H 1374   6.099   6.870   5.378  1.2851  0.0639 -0.1358
   10MOL0     H 1375   6.055   6.795   5.226 -1.2032 -2.1470  1.6038
   10MOL0     H 1376   6.463   6.947   5.167  0.2389 -1.8674  1.6180
   10MOL0     H 1377   6.609   6.499   5.348 -1.8744  2.7798  3.5566
   10MOL0     H 1378   6.892   6.389   5.495 -0.5255 -1.2934  1.8217
   10MOL0     H 1379   6.870   6.263   5.368 -0.6308 -0.1025  0.3057
   10MOL0     H 1380   6.842   6.430   5.330  0.6937 -0.4871 -0.7719
   11MOL0     O 1381   1.273   4.955   1.850  1.2095  0.0243  0.5346
   11MOL0     C 1382   1.380   4.918   1.813 -0.0417 -0.0542 -0.0526
   11MOL0     O 1383   1.493   4.905   1.892 -0.2466  0.3664 -1.1956
   11MOL0     C 1384   1.513   4.967   2.006 -0.0269  0.5628 -0.5147
   11MOL0     C 1385   1.416   5.027   2.095 -0.0462  0.5824  0.8529
   11MOL0     C 1386   1.457   5.097   2.208 -0.7129 -0.1773 -0.0156
   11MOL0     C 1387   1.597   5.116   2.231  0.1329  0.4152 -1.4567
   11MOL0     O 1388   1.629   5.209   2.334 -0.1741  0.3238 -1.0608
   11MOL0     C 1389   1.742   5.183   2.427 -0.3942  0.2885 -1.0267
   11MOL0     C 1390   1.739   5.253   2.560  0.0546 -0.3813 -0.1929
   11MOL0     C 1391   1.886   5.235   2.623  1.5794  0.7828  0.1288
   11MOL0     C 1392   1.901   5.106   2.686  0.6598 -0.2258 -0.1018
   11MOL0     C 1393   2.044   5.097   2.729 -0.1394 -0.4551 -0.3714
   11MOL0     C 1394   2.053   4.964   2.802 -0.4657  0.1833  0.2128
   11MOL0     C 1395   2.197   4.915   2.816 -0.1345  0.6071 -0.1316
   11MOL0     C 1396   2.197   4.786   2.911  0.0710 -0.4004 -0.4183
   11MOL0     N 1397   2.326   4.731   2.937  0.4085  0.1023  0.4961
   11MOL0     C 1398   2.427   4.717   2.849 -0.0451  0.4869 -0.0844
   11MOL0     C 1399   2.527   4.659   2.922  1.1771  0.5700  0.4941
   11MOL0     C 1400   2.663   4.628   2.882 -0.6018  0.0575  0.2091
   11MOL0     C 1401   2.740   4.555   2.995  0.0304  0.0203 -0.1241
   11MOL0     C 1402   2.866   4.500   2.923  0.3936  0.5384 -0.2193
   11MOL0     C 1403   2.982   4.472   3.033 -0.3591 -0.1920 -0.7410
   11MOL0     O 1404   2.948   4.376   3.137  0.2480  0.1692  0.1683
   11MOL0     C 1405   2.938   4.235   3.114 -0.3382  0.7084 -0.5439
   11MOL0     C 1406   2.969   4.174   2.999  0.2738 -0.3394  0.0030
   11MOL0     C 1407   2.987   4.036   2.990 -0.2615  0.4507  1.2699
   11MOL0     C 1408   3.033   3.966   2.859  0.1199 -0.0519  0.1067
   11MOL0     C 1409   2.962   3.960   3.104  0.6858  0.5090 -0.7632
   11MOL0     C 1410   2.967   3.807   3.102 -0.3877 -0.6213 -0.4057
   11MOL0     O 1411   3.000   3.745   3.217  0.8672 -0.7988  1.0903
   11MOL0     C 1412   3.054   3.620   3.218 -0.7772 -0.0860 -0.5028
   11MOL0     C 1413   3.029   3.505   3.132 -0.7852  0.4018  0.2115
   11MOL0     C 1414   3.068   3.381   3.166 -0.7725  0.9850  0.0345
   11MOL0     C 1415   3.152   3.359   3.270 -0.0889  0.4676 -1.1352
   11MOL0     O 1416   3.197   3.227   3.291  0.1267 -0.4913 -1.1424
   11MOL0     C 1417   3.215   3.176   3.417  0.1289 -0.3237 -0.1768
   11MOL0     C 1418   3.163   3.024   3.432 -0.4636 -0.3938  0.0941
   11MOL0     C 1419   3.159   2.999   3.583  0.2021 -0.1267  0.8191
   11MOL0     C 1420   3.087   2.860   3.605 -0.1045  0.1154 -0.2330
   11MOL0     C 1421   3.062   2.827   3.755  0.5391 -1.7061 -0.3537
   11MOL0     C 1422   2.978   2.704   3.787 -0.1865  0.7014 -0.0344
   11MOL0     C 1423   2.863   2.670   3.694  0.0081  0.2545  0.8033
   11MOL0     C 1424   2.791   2.541   3.727 -0.1571 -0.1175 -0.2377
   11MOL0    Cl 1425   2.888   2.404   3.670  0.5345  0.3745  0.2630
   11MOL0     C 1426   3.199   3.467   3.347  0.3555 -0.3536 -0.5941
   11MOL0     C 1427   3.140   3.598   3.332 -0.4283  0.3565  0.4319
   11MOL0     O 1428   2.921   3.752   3.007 -0.1190  0.3493  0.5048
   11MOL0     C 1429   2.946   4.025   3.233 -0.2984 -0.9755 -0.4146
   11MOL0     C 1430   2.927   4.161   3.231 -0.8522  0.5370 -0.3571
   11MOL0     N 1431   2.492   4.662   3.058  0.5169 -0.2091 -0.2558
   11MOL0     N 1432   2.371   4.693   3.058 -0.1332 -0.6877  0.7694
   11MOL0     C 1433   1.693   5.053   2.144  0.4512  0.1124  0.0772
   11MOL0     C 1434   1.653   4.980   2.037 -0.8767  0.4561 -0.8642
   11MOL0     C 1435   1.404   4.872   1.675 -0.5316  0.1461 -0.3360
   11MOL0     C 1436   1.503   4.773   1.649  1.0182  0.3030 -0.6569
   11MOL0     C 1437   1.522   4.709   1.524 -0.4405 -0.0175  0.1644
   11MOL0     C 1438   1.458   4.760   1.415 -0.7212 -0.1529 -0.2280
   11MOL0     O 1439   1.477   4.713   1.289  0.3706  0.4652  0.4752
   11MOL0     C 1440   1.443   4.577   1.265  0.3081  0.5287  0.4889
   11MOL0     C 1441   1.390   4.566   1.114 -0.2411  0.2332 -0.6504
   11MOL0     C 1442   1.238   4.568   1.082  0.3251  0.6180 -0.4707
   11MOL0     C 1443   1.206   4.540   0.938  0.7748  0.0794  0.5493
   11MOL0     C 1444   1.219   4.398   0.906 -0.5498  0.1553  0.5488
   11MOL0     C 1445   1.202   4.278   0.904 -0.6068  0.1239 -0.0796
   11MOL0     C 1446   1.355   4.855   1.442 -0.3418 -0.0801  0.2377
   11MOL0     C 1447   1.337   4.920   1.564  0.2894 -0.7511 -0.7756
   11MOL0     C 1448   1.232   5.032   1.564 -0.4147 -1.0087 -0.3728
   11MOL0     H 1449   1.311   5.012   2.076  0.5487  0.0881 -2.7147
   11MOL0     H 1450   1.385   5.158   2.262 -2.5519 -0.7180 -1.7352
   11MOL0     H 1451   1.826   5.230   2.375  0.1268  0.1398 -0.3246
   11MOL0     H 1452   1.754   5.074   2.430  1.3994  0.3983 -2.5707
   11MOL0     H 1453   1.710   5.358   2.548  0.0688  0.1054  3.0421
   11MOL0     H 1454   1.655   5.213   2.618 -0.9938  1.1982 -0.5808
   11MOL0     H 1455   1.960   5.247   2.543 -2.0752 -0.1742 -3.8082
   11MOL0     H 1456   1.907   5.304   2.705 -1.6669 -1.1772  2.8712
   11MOL0     H 1457   1.838   5.104   2.776  2.3526  0.8403  1.1788
   11MOL0     H 1458   1.864   5.031   2.616 -1.0166  1.3026 -0.9541
   11MOL0     H 1459   2.084   5.179   2.789  0.0702 -1.0315  0.2926
   11MOL0     H 1460   2.104   5.087   2.638 -2.1730 -1.4849 -1.6733
   11MOL0     H 1461   2.003   4.973   2.899 -1.1542  2.0853 -0.2798
   11MOL0     H 1462   2.000   4.882   2.753 -2.2182  0.4001  1.6327
   11MOL0     H 1463   2.273   4.983   2.854 -0.4184  0.9737 -0.2173
   11MOL0     H 1464   2.243   4.882   2.722 -0.2632 -0.8055  0.2692
   11MOL0     H 1465   2.147   4.801   3.007  2.8662 -0.8658  1.2218
   11MOL0     H 1466   2.132   4.714   2.860 -0.1108 -0.7932  0.3630
   11MOL0     H 1467   2.437   4.748   2.746  1.9701  2.6536  0.6886
   11MOL0     H 1468   2.723   4.717   2.860  1.8125 -2.1480 -3.1060
   11MOL0     H 1469   2.662   4.565   2.792  0.3846  2.7260 -1.8381
   11MOL0     H 1470   2.781   4.628   3.065  0.7977 -2.4903  2.2489
   11MOL0     H 1471   2.677   4.478   3.042 -3.2544  2.0092 -0.9286
   11MOL0     H 1472   2.853   4.404   2.872  4.7319 -0.5589  0.3799
   11MOL0     H 1473   2.902   4.575   2.853  6.3972  0.8987  2.6605
   11MOL0     H 1474   3.072   4.437   2.982 -0.2515 -1.2387  0.1556
   11MOL0     H 1475   3.006   4.566   3.083 -1.3953 -1.1272  1.6342
   11MOL0     H 1476   2.991   4.227   2.907 -1.4548  2.0571  0.8796
   11MOL0     H 1477   3.124   3.909   2.879  0.4917  1.2204  2.3155
   11MOL0     H 1478   3.060   4.043   2.785  2.9687  1.2370  2.3138
   11MOL0     H 1479   2.946   3.906   2.832 -1.1176  0.7583  2.0931
   11MOL0     H 1480   2.961   3.523   3.049 -0.5852  1.2869  0.2311
   11MOL0     H 1481   3.034   3.299   3.103  0.4351  0.7945 -0.3912
   11MOL0     H 1482   3.320   3.176   3.445 -0.1378 -1.9397  0.8901
   11MOL0     H 1483   3.166   3.236   3.494 -1.9556 -1.1240 -0.7940
   11MOL0     H 1484   3.064   3.006   3.389 -0.5939  0.2607  0.1044
   11MOL0     H 1485   3.242   2.957   3.398  1.8611  1.7328  0.9490
   11MOL0     H 1486   3.105   3.068   3.648  1.7425  0.2230  1.7788
   11MOL0     H 1487   3.259   3.000   3.627 -0.5413  0.5416  2.5710
   11MOL0     H 1488   3.138   2.778   3.555 -0.0936  2.1522 -3.8976
   11MOL0     H 1489   2.987   2.856   3.561 -1.3017 -4.7202  2.1654
   11MOL0     H 1490   3.156   2.830   3.811 -1.1509 -0.8930  2.6221
   11MOL0     H 1491   3.002   2.912   3.790 -0.2504 -2.4205  0.0729
   11MOL0     H 1492   2.944   2.710   3.891  3.1236 -2.7635  1.4807
   11MOL0     H 1493   3.043   2.617   3.791 -0.8531  0.0608 -2.0358
   11MOL0     H 1494   2.900   2.652   3.592  1.7497 -0.4529  1.5334
   11MOL0     H 1495   2.795   2.754   3.674  2.4375  2.5584  1.7114
   11MOL0     H 1496   2.702   2.543   3.664 -1.4063  3.7806  1.3959
   11MOL0     H 1497   2.772   2.532   3.834  3.4398 -2.1002  0.4309
   11MOL0     H 1498   3.273   3.444   3.423 -1.3541 -0.7106  1.0094
   11MOL0     H 1499   3.167   3.678   3.401 -1.1971 -1.3937  2.8981
   11MOL0     H 1500   2.938   3.983   3.333 -0.4081  1.5990  0.7508
   11MOL0     H 1501   2.920   4.210   3.327  0.8022  1.5332 -0.6981
   11MOL0     H 1502   1.798   5.071   2.164  0.5808 -1.0939  0.5832
   11MOL0     H 1503   1.725   4.939   1.967 -1.8301  2.0237 -2.8678
   11MOL0     H 1504   1.568   4.742   1.731 -1.4731  0.9307  1.7139
   11MOL0     H 1505   1.587   4.623   1.513 -0.8345 -0.2566 -0.3131
   11MOL0     H 1506   1.525   4.508   1.285 -0.0226  0.4754  1.7202
   11MOL0     H 1507   1.362   4.546   1.331 -0.7903 -0.5188 -1.2643
   11MOL0     H 1508   1.431   4.469   1.087  1.8635  1.0376 -0.5638
   11MOL0     H 1509   1.453   4.633   1.054 -0.0732 -0.3142 -1.0941
   11MOL0     H 1510   1.195   4.487   1.142  1.8532 -2.1516 -2.8526
   11MOL0     H 1511   1.200   4.662   1.122  1.4695 -0.3476  3.1941
   11MOL0     H 1512   1.267   4.605   0.874  1.3816 -0.1185  0.9213
   11MOL0     H 1513   1.102   4.555   0.906  0.7818 -1.4895 -0.2877
   11MOL0     H 1514   1.196   4.171   0.915 -2.6562  0.4030  2.7699
   11MOL0     H 1515   1.291   4.879   1.358  1.1627 -1.5137 -1.3873
   11MOL0     H 1516   1.246   5.087   1.657 -2.5382 -0.0544 -0.5636
   11MOL0     H 1517   1.242   5.111   1.489  2.8146 -2.0111 -1.1946
   11MOL0     H 1518   1.134   4.986   1.580 -0.6075 -0.6336 -0.4709
   12MOL0     O 1519   5.183   1.191   6.745 -0.3017  0.3590 -0.0987
   12MOL0     C 1520   5.236   1.250   6.657  0.2161  0.2312  0.3471
   12MOL0     O 1521   5.264   1.205   6.533 -0.0825 -0.4700 -0.2744
   12MOL0     C 1522   5.195   1.094   6.492  0.2658 -0.4553  0.0495
   12MOL0     C 1523   5.100   1.096   6.393 -0.0803  0.0131  0.6309
   12MOL0     C 1524   5.052   0.976   6.341  0.7045  0.0330  0.5610
   12MOL0     C 1525   5.084   0.856   6.387  0.5921 -0.3039  0.2740
   12MOL0     O 1526   5.017   0.742   6.352 -1.0515  0.0073 -0.3393
   12MOL0     C 1527   4.989   0.723   6.217 -0.2215  0.7554  0.0704
   12MOL0     C 1528   4.904   0.597   6.220  0.5953 -0.0575 -0.2836
   12MOL0     C 1529   4.820   0.570   6.084 -0.1928  0.0725 -0.0235
   12MOL0     C 1530   4.691   0.493   6.096 -0.1378  0.1075  0.0444
   12MOL0     C 1531   4.640   0.437   5.961 -0.6945  0.3189 -0.7455
   12MOL0     C 1532   4.496   0.423   5.963  0.2973  0.7543 -1.0603
   12MOL0     C 1533   4.444   0.314   6.061  0.0540 -0.2186 -0.0425
   12MOL0     C 1534   4.429   0.344   6.208  0.4268  0.2685  0.5718
   12MOL0     N 1535   4.338   0.253   6.283 -0.0391 -0.2139 -1.1665
   12MOL0     C 1536   4.246   0.164   6.236  0.9870 -1.3085 -0.4133
   12MOL0     C 1537   4.179   0.113   6.351 -0.7334 -0.0797 -0.4256
   12MOL0     C 1538   4.085  -0.005   6.351 -1.0638  0.2620 -0.6048
   12MOL0     C 1539   4.153  -0.139   6.321  1.6576  0.7696 -0.2158
   12MOL0     C 1540   4.257  -0.170   6.424 -0.1289  0.6631 -0.0445
   12MOL0     C 1541   4.337  -0.289   6.382 -0.3721  0.4279  0.2316
   12MOL0     O 1542   4.453  -0.297   6.465  0.2879 -0.1613 -0.9106
   12MOL0     C 1543   4.584  -0.316   6.433 -0.0552 -0.6560 -0.0429
   12MOL0     C 1544   4.612  -0.406   6.333 -0.1503 -0.2387 -0.4297
   12MOL0     C 1545   4.745  -0.429   6.312 -0.3864 -0.3765  0.4115
   12MOL0     C 1546   4.790  -0.546   6.225  0.7702 -0.4507 -1.0115
   12MOL0     C 1547   4.849  -0.341   6.373  1.0063 -0.1610 -0.0745
   12MOL0     C 1548   5.000  -0.346   6.349 -0.3487 -0.3149  0.4802
   12MOL0     O 1549   5.059  -0.229   6.321 -0.4112 -0.3971 -0.2295
   12MOL0     C 1550   5.201  -0.229   6.303  1.3689  0.8772 -0.7061
   12MOL0     C 1551   5.253  -0.293   6.189  0.7379 -0.1251 -0.2692
   12MOL0     C 1552   5.391  -0.292   6.189  0.1585  0.8073 -0.0217
   12MOL0     C 1553   5.472  -0.230   6.291  0.2419 -0.1557  0.3025
   12MOL0     O 1554   5.604  -0.254   6.281 -0.0570 -0.6006 -0.2464
   12MOL0     C 1555   5.682  -0.240   6.397  0.7040 -0.1921 -0.0656
   12MOL0     C 1556   5.817  -0.282   6.359 -0.1925  0.0051 -0.4084
   12MOL0     C 1557   5.907  -0.318   6.474  0.3440  0.1004  0.5322
   12MOL0     C 1558   6.053  -0.275   6.463  0.0897  1.0941  0.5855
   12MOL0     C 1559   6.135  -0.310   6.592  0.2468 -0.2662  0.0334
   12MOL0     C 1560   6.278  -0.251   6.581 -0.6497  0.0368 -0.5636
   12MOL0     C 1561   6.350  -0.294   6.708 -0.1988  0.1979 -0.0088
   12MOL0     C 1562   6.490  -0.231   6.709  0.2166  1.0571  0.0813
   12MOL0    Cl 1563   6.590  -0.280   6.566 -0.0010 -0.2318  0.6101
   12MOL0     C 1564   5.406  -0.173   6.408 -0.5704 -0.3250  0.3610
   12MOL0     C 1565   5.267  -0.170   6.411  0.2583 -0.4087 -0.3457
   12MOL0     O 1566   5.052  -0.454   6.365 -0.8435  0.0922  0.2820
   12MOL0     C 1567   4.815  -0.255   6.472  0.4924  0.1167 -0.5419
   12MOL0     C 1568   4.682  -0.241   6.500  0.1666  0.7724 -0.1237
   12MOL0     N 1569   4.239   0.172   6.458  0.2308 -0.0833  0.2690
   12MOL0     N 1570   4.316   0.268   6.422 -0.6311  0.4897  0.3921
   12MOL0     C 1571   5.186   0.852   6.484  0.1694  0.5982  0.1832
   12MOL0     C 1572   5.242   0.970   6.526 -1.7528 -0.9643 -0.6783
   12MOL0     C 1573   5.248   1.405   6.676  0.6596  0.8684  0.3901
   12MOL0     C 1574   5.277   1.459   6.807  0.0085 -0.3425 -0.5724
   12MOL0     C 1575   5.298   1.594   6.840 -0.2867  0.6421  0.6470
   12MOL0     C 1576   5.294   1.685   6.744  0.3162 -1.1206  0.7400
   12MOL0     O 1577   5.325   1.810   6.800  0.0621 -0.3584  0.2129
   12MOL0     C 1578   5.309   1.932   6.730 -0.0813 -0.0615  0.8297
   12MOL0     C 1579   5.338   2.047   6.821  0.6139  0.5481  0.1821
   12MOL0     C 1580   5.472   2.039   6.899  0.0486 -0.1257  0.3356
   12MOL0     C 1581   5.609   2.051   6.813  0.4081  0.1108 -0.0725
   12MOL0     C 1582   5.627   2.185   6.758 -0.6532  0.4856  0.1847
   12MOL0     C 1583   5.624   2.300   6.717  0.5671 -0.3411  0.3822
   12MOL0     C 1584   5.265   1.646   6.615  0.5039 -0.3298  0.7837
   12MOL0     C 1585   5.250   1.505   6.578 -0.5343 -0.0271  0.1014
   12MOL0     C 1586   5.235   1.475   6.435 -0.1595  0.3661 -0.0065
   12MOL0     H 1587   5.071   1.191   6.350 -0.2495  0.6013  1.9872
   12MOL0     H 1588   4.981   0.987   6.260  0.2019  0.9300  1.0968
   12MOL0     H 1589   5.077   0.710   6.153 -1.2033  0.2864 -1.2211
   12MOL0     H 1590   4.924   0.798   6.171 -2.2813 -1.1656 -0.3198
   12MOL0     H 1591   4.964   0.513   6.258  1.7417  1.5051  1.5975
   12MOL0     H 1592   4.826   0.606   6.296  0.4356 -3.0470  0.0073
   12MOL0     H 1593   4.787   0.669   6.050  0.6367  0.5063  0.4075
   12MOL0     H 1594   4.899   0.532   6.017 -0.9398 -1.1009 -0.2670
   12MOL0     H 1595   4.721   0.424   6.175  4.9397 -0.1587 -1.7683
   12MOL0     H 1596   4.616   0.547   6.155 -2.3095 -0.4064 -2.0886
   12MOL0     H 1597   4.689   0.341   5.940  0.7318  0.7743  0.2688
   12MOL0     H 1598   4.668   0.508   5.882 -2.1989  0.4931 -1.1407
   12MOL0     H 1599   4.432   0.511   5.980  2.1821  2.2560 -1.4097
   12MOL0     H 1600   4.466   0.383   5.866 -2.2586 -3.4245  1.1621
   12MOL0     H 1601   4.510   0.228   6.050  0.4458  0.3455 -3.0306
   12MOL0     H 1602   4.346   0.281   6.026 -0.1261  2.7725 -2.8467
   12MOL0     H 1603   4.524   0.348   6.262  0.9966 -0.4731 -0.3614
   12MOL0     H 1604   4.391   0.446   6.224  1.0607  0.5521  0.3026
   12MOL0     H 1605   4.217   0.135   6.136 -1.2516  2.0563 -0.8677
   12MOL0     H 1606   4.021   0.013   6.264 -0.2445 -2.2747 -1.8502
   12MOL0     H 1607   4.032  -0.006   6.447 -0.2798 -2.0818 -0.1301
   12MOL0     H 1608   4.087  -0.226   6.311 -1.3879  2.5735  2.2594
   12MOL0     H 1609   4.200  -0.122   6.224 -1.0644  2.9705 -1.3065
   12MOL0     H 1610   4.329  -0.089   6.431  0.0831  0.4294  0.5040
   12MOL0     H 1611   4.228  -0.179   6.529  1.4195  0.1257  0.3546
   12MOL0     H 1612   4.270  -0.372   6.405  0.2874  0.7498  3.7873
   12MOL0     H 1613   4.362  -0.292   6.275 -0.3904 -2.7829  0.2291
   12MOL0     H 1614   4.539  -0.434   6.258 -0.1756  2.8324 -1.6939
   12MOL0     H 1615   4.828  -0.625   6.291  0.9233 -1.5150 -2.3187
   12MOL0     H 1616   4.865  -0.511   6.153 -2.5857  1.2917 -3.9468
   12MOL0     H 1617   4.707  -0.573   6.159  1.1964  1.7461 -2.5551
   12MOL0     H 1618   5.199  -0.332   6.103 -0.8580 -1.4186  1.2605
   12MOL0     H 1619   5.437  -0.334   6.101 -1.1331 -0.1728 -0.2564
   12MOL0     H 1620   5.686  -0.136   6.429 -0.1404 -0.4103  0.7969
   12MOL0     H 1621   5.640  -0.306   6.473 -2.4704  3.0781  1.2867
   12MOL0     H 1622   5.803  -0.362   6.286  2.8165 -0.5158 -0.5261
   12MOL0     H 1623   5.858  -0.202   6.297 -0.9854  2.2733  1.8089
   12MOL0     H 1624   5.903  -0.425   6.497 -4.0882 -0.8918 -3.3386
   12MOL0     H 1625   5.868  -0.277   6.567  2.4896  0.5366  1.3119
   12MOL0     H 1626   6.067  -0.167   6.450  0.6580  1.1221  1.3685
   12MOL0     H 1627   6.090  -0.323   6.371 -3.9880 -0.6994 -0.3174
   12MOL0     H 1628   6.079  -0.268   6.676 -1.0746  0.5842 -1.2300
   12MOL0     H 1629   6.141  -0.418   6.609 -0.0916 -0.1269  1.0865
   12MOL0     H 1630   6.273  -0.142   6.571 -1.2242  0.1835  1.0131
   12MOL0     H 1631   6.324  -0.300   6.495  0.3434 -1.4157  0.7332
   12MOL0     H 1632   6.370  -0.401   6.721 -1.5502 -0.0629  0.0633
   12MOL0     H 1633   6.293  -0.252   6.791  1.8245  3.3384 -0.0234
   12MOL0     H 1634   6.531  -0.267   6.804  2.5824  1.0647 -0.8585
   12MOL0     H 1635   6.485  -0.122   6.705  0.0069  1.0585  0.3670
   12MOL0     H 1636   5.459  -0.150   6.499 -2.3715 -2.9589  2.2172
   12MOL0     H 1637   5.222  -0.120   6.496  2.5873  0.7749  0.2932
   12MOL0     H 1638   4.886  -0.190   6.522 -2.4581  2.4735  0.8776
   12MOL0     H 1639   4.646  -0.165   6.569 -0.0101 -0.5824  1.3515
   12MOL0     H 1640   5.206   0.746   6.495 -0.0292  0.4885 -0.4945
   12MOL0     H 1641   5.327   0.956   6.593 -0.5817 -0.8696 -2.0825
   12MOL0     H 1642   5.299   1.393   6.891 -0.5883 -0.1918 -0.2876
   12MOL0     H 1643   5.320   1.633   6.939 -0.8446  3.7755 -0.3561
   12MOL0     H 1644   5.381   1.932   6.647 -1.8412  5.4669 -1.1714
   12MOL0     H 1645   5.209   1.941   6.687  0.0638  6.3018  0.7998
   12MOL0     H 1646   5.260   2.048   6.897  2.2016 -3.1576  2.0995
   12MOL0     H 1647   5.329   2.140   6.763 -0.2497  0.7469  0.6180
   12MOL0     H 1648   5.456   2.114   6.977 -0.5890 -0.9854  1.0531
   12MOL0     H 1649   5.480   1.945   6.954 -1.6732  1.0611  2.8013
   12MOL0     H 1650   5.600   1.981   6.729  1.8108 -2.1841  1.5802
   12MOL0     H 1651   5.695   2.019   6.873  0.8663 -1.3468 -1.4278
   12MOL0     H 1652   5.605   2.396   6.675 -1.2073  0.7539  3.3608
   12MOL0     H 1653   5.275   1.719   6.535 -3.2619 -0.6704 -0.1735
   12MOL0     H 1654   5.154   1.402   6.427  0.6363 -0.4795 -0.5336
   12MOL0     H 1655   5.198   1.559   6.376 -0.2955 -0.2534 -0.8211
   12MOL0     H 1656   5.329   1.434   6.396  1.3878  1.9861  1.8059
   13MOL0     O 1657   2.887   0.592   7.867  0.2115 -0.7428  0.1594
   13MOL0     C 1658   2.813   0.566   7.768 -1.3824 -0.2799 -0.0762
   13MOL0     O 1659   2.817   0.448   7.708  0.1489  0.3115 -1.3057
   13MOL0     C 1660   2.896   0.339   7.749  0.0915  0.2517 -0.4319
   13MOL0     C 1661   2.838   0.213   7.737  0.1561 -0.4661  0.3095
   13MOL0     C 1662   2.892   0.100   7.784  0.2536 -0.2751 -0.9761
   13MOL0     C 1663   3.011   0.108   7.858  0.8232 -0.3652  0.6895
   13MOL0     O 1664   3.050  -0.014   7.916 -0.2554 -0.3885 -0.3894
   13MOL0     C 1665   3.140   0.010   8.024 -0.4362 -0.6608  0.2025
   13MOL0     C 1666   3.145  -0.099   8.117  0.6787  0.8589  0.3490
   13MOL0     C 1667   3.224  -0.095   8.249  0.4029 -0.5910  0.0246
   13MOL0     C 1668   3.378  -0.084   8.224  0.7434 -0.2780 -0.6944
   13MOL0     C 1669   3.447  -0.051   8.357  0.6150  0.3708 -0.1032
   13MOL0     C 1670   3.462  -0.175   8.446  0.0551  0.2640  0.7515
   13MOL0     C 1671   3.548  -0.149   8.574 -0.0557 -0.1514 -0.1920
   13MOL0     C 1672   3.461  -0.112   8.694  0.3171  0.2249 -0.4426
   13MOL0     N 1673   3.540  -0.101   8.819 -0.2930  0.2735  0.9020
   13MOL0     C 1674   3.530  -0.169   8.931 -0.0550 -0.1090 -0.0180
   13MOL0     C 1675   3.593  -0.098   9.028 -0.1617 -0.1552  0.1726
   13MOL0     C 1676   3.625  -0.147   9.171 -1.2245 -0.7903 -0.2089
   13MOL0     C 1677   3.592  -0.038   9.269  0.1654  0.0729  0.6364
   13MOL0     C 1678   3.566  -0.083   9.415  0.2294  0.5576  0.4359
   13MOL0     C 1679   3.452  -0.186   9.429 -0.1013  0.1477 -0.8092
   13MOL0     O 1680   3.339  -0.133   9.364  0.1129  0.1281 -0.0111
   13MOL0     C 1681   3.235  -0.080   9.439  0.0338 -0.1323  0.8979
   13MOL0     C 1682   3.254  -0.027   9.566 -1.0201 -0.5553 -0.4659
   13MOL0     C 1683   3.152  -0.001   9.653  0.0861 -0.4803 -0.1274
   13MOL0     C 1684   3.185   0.055   9.786 -0.1867  0.1973 -0.1092
   13MOL0     C 1685   3.023  -0.010   9.612 -0.2529  0.2824  0.5830
   13MOL0     C 1686   2.904   0.032   9.685  0.4188 -0.4952 -0.2526
   13MOL0     O 1687   2.786  -0.025   9.639  0.2323 -0.6720  0.1891
   13MOL0     C 1688   2.674   0.016   9.713  0.1546  0.6276  0.8056
   13MOL0     C 1689   2.617   0.138   9.677  0.0656 -0.3568 -0.4860
   13MOL0     C 1690   2.499   0.173   9.735  0.5495 -0.4229  0.3843
   13MOL0     C 1691   2.436   0.087   9.829  0.2090  0.3551 -0.1124
   13MOL0     O 1692   2.319   0.131   9.893 -0.0268  0.3585 -0.5050
   13MOL0     C 1693   2.237   0.237   9.848  0.6060  0.4090 -0.3188
   13MOL0     C 1694   2.102   0.236   9.915  0.2956 -0.4756  0.5428
   13MOL0     C 1695   2.105   0.283  10.060 -0.0972 -0.0979  0.3620
   13MOL0     C 1696   1.958   0.272  10.114 -0.3046  0.3390  0.1795
   13MOL0     C 1697   1.871   0.394  10.097 -0.3643 -0.7872 -0.0952
   13MOL0     C 1698   1.732   0.369  10.141  0.4758  0.3035 -0.0411
   13MOL0     C 1699   1.651   0.491  10.123 -0.0909 -0.7631 -0.6281
   13MOL0     C 1700   1.504   0.466  10.130 -0.1821  0.7133  0.8976
   13MOL0    Cl 1701   1.398   0.612  10.101  0.4680  0.0776 -0.1447
   13MOL0     C 1702   2.501  -0.027   9.871 -0.2660  0.2832  0.0563
   13MOL0     C 1703   2.615  -0.071   9.806 -0.0712 -0.1785  0.6414
   13MOL0     O 1704   2.913   0.123   9.766  1.2548  0.0787  0.7830
   13MOL0     C 1705   3.004  -0.064   9.482  0.6021 -0.4848 -0.0005
   13MOL0     C 1706   3.103  -0.100   9.390 -0.0445  0.4385  0.4984
   13MOL0     N 1707   3.643   0.015   8.964  0.0334  0.2374  0.8596
   13MOL0     N 1708   3.617   0.008   8.841 -0.1287 -0.1767  0.2701
   13MOL0     C 1709   3.073   0.232   7.865 -0.9611  0.1201  0.5183
   13MOL0     C 1710   3.022   0.346   7.805 -0.4147  0.5647 -0.5882
   13MOL0     C 1711   2.738   0.672   7.694  0.2502 -0.5285  0.6676
   13MOL0     C 1712   2.674   0.630   7.576  0.6769 -0.3394  0.5809
   13MOL0     C 1713   2.632   0.731   7.484 -0.0107  0.2010 -0.1366
   13MOL0     C 1714   2.623   0.866   7.522  0.1110 -0.5684  0.4257
   13MOL0     O 1715   2.563   0.954   7.435 -0.2453 -0.2092 -0.4614
   13MOL0     C 1716   2.614   1.080   7.422 -0.2321 -0.5861 -0.2094
   13MOL0     C 1717   2.540   1.147   7.307 -0.2139 -0.2133 -0.1556
   13MOL0     C 1718   2.584   1.098   7.170  0.9172  0.5316  0.3230
   13MOL0     C 1719   2.715   1.162   7.117 -0.8304 -0.0106  0.5455
   13MOL0     C 1720   2.697   1.314   7.109  0.7231  0.4335  0.7717
   13MOL0     C 1721   2.691   1.433   7.103 -0.0726  0.4292 -0.3153
   13MOL0     C 1722   2.670   0.909   7.645  0.4151  0.8618  0.1293
   13MOL0     C 1723   2.729   0.815   7.727  0.8701  0.4209  0.0777
   13MOL0     C 1724   2.800   0.868   7.845  0.1079  0.1640  0.1923
   13MOL0     H 1725   2.754   0.178   7.679 -0.2805 -2.0328  1.8301
   13MOL0     H 1726   2.843   0.006   7.762  1.4854 -1.1052 -0.3022
   13MOL0     H 1727   3.123   0.100   8.084  3.2681  0.5588 -0.3198
   13MOL0     H 1728   3.239   0.024   7.978 -1.5421  0.2597 -2.0549
   13MOL0     H 1729   3.041  -0.114   8.145  0.6198  1.1807  0.3055
   13MOL0     H 1730   3.174  -0.186   8.057  0.7173  1.4797 -0.5585
   13MOL0     H 1731   3.190   0.002   8.288 -1.3169 -1.3468  0.4889
   13MOL0     H 1732   3.197  -0.174   8.319  2.3421  0.6231  2.2928
   13MOL0     H 1733   3.425  -0.179   8.200  0.3160 -0.6042 -0.2547
   13MOL0     H 1734   3.398  -0.012   8.144  0.2740 -0.7723 -1.2595
   13MOL0     H 1735   3.386   0.025   8.408  0.3720  1.5878 -2.0921
   13MOL0     H 1736   3.548  -0.013   8.335  1.0350 -0.1181  0.8971
   13MOL0     H 1737   3.365  -0.211   8.482  0.6273 -1.3412  0.7507
   13MOL0     H 1738   3.498  -0.262   8.390 -0.3395  1.3398 -1.2694
   13MOL0     H 1739   3.615  -0.065   8.558  0.9507 -0.9205 -0.1374
   13MOL0     H 1740   3.615  -0.231   8.602 -2.3533 -1.5084  1.7917
   13MOL0     H 1741   3.415  -0.014   8.680 -0.6511  0.1384  1.8171
   13MOL0     H 1742   3.380  -0.184   8.705 -0.6189  0.9068 -2.2696
   13MOL0     H 1743   3.477  -0.263   8.943  2.9644 -1.6992  1.8956
   13MOL0     H 1744   3.727  -0.183   9.187 -1.6009 -1.1380  1.6434
   13MOL0     H 1745   3.565  -0.238   9.187 -0.8714 -1.0619 -0.4018
   13MOL0     H 1746   3.670   0.038   9.276  0.2494 -0.1352  2.1258
   13MOL0     H 1747   3.514   0.031   9.234 -0.6258 -0.9974  0.2387
   13MOL0     H 1748   3.661  -0.129   9.442  0.6407 -0.1607 -1.9324
   13MOL0     H 1749   3.548   0.000   9.483 -1.6553  0.9526 -0.4778
   13MOL0     H 1750   3.485  -0.278   9.381 -2.2004  0.0913 -2.3179
   13MOL0     H 1751   3.427  -0.219   9.530  0.1555  3.3504  0.4229
   13MOL0     H 1752   3.355  -0.019   9.607 -1.1420 -1.2437 -0.0209
   13MOL0     H 1753   3.280   0.010   9.819  0.0024  0.1387 -0.7193
   13MOL0     H 1754   3.109   0.045   9.864 -1.5949  1.2118 -1.3011
   13MOL0     H 1755   3.202   0.161   9.765 -1.4991  0.0868 -1.8844
   13MOL0     H 1756   2.656   0.205   9.600  1.7286  1.7039  1.9770
   13MOL0     H 1757   2.460   0.269   9.703  3.8208  0.4644 -1.3502
   13MOL0     H 1758   2.284   0.334   9.869 -0.4006  0.7681  0.3478
   13MOL0     H 1759   2.218   0.230   9.741  2.9179  2.1832 -0.9221
   13MOL0     H 1760   2.030   0.302   9.866 -0.2532  0.3819  2.4031
   13MOL0     H 1761   2.055   0.137   9.921 -2.3290  0.5134 -1.6771
   13MOL0     H 1762   2.143   0.384  10.075  0.2414 -0.5554  3.0733
   13MOL0     H 1763   2.163   0.213  10.120 -3.6242 -4.1174 -0.3957
   13MOL0     H 1764   1.968   0.249  10.221  1.8159  0.2786  0.0064
   13MOL0     H 1765   1.904   0.193  10.062 -1.8024  0.1140  1.9509
   13MOL0     H 1766   1.902   0.486  10.147 -2.4662  0.9296 -1.7592
   13MOL0     H 1767   1.874   0.434   9.995  0.9732  0.7253  0.4960
   13MOL0     H 1768   1.732   0.339  10.246  0.3222 -0.4099 -0.2402
   13MOL0     H 1769   1.682   0.290  10.083  3.1234  0.0413 -2.1488
   13MOL0     H 1770   1.683   0.535  10.028  1.0137 -0.0963  0.0208
   13MOL0     H 1771   1.675   0.569  10.197 -0.4517  0.3859 -1.7000
   13MOL0     H 1772   1.486   0.431  10.232 -1.3380  1.2134  0.8769
   13MOL0     H 1773   1.477   0.384  10.063  0.4527  2.5908 -1.7827
   13MOL0     H 1774   2.450  -0.091   9.941  0.0179 -0.3014 -0.2640
   13MOL0     H 1775   2.651  -0.172   9.824 -1.9041 -2.0967 -4.6742
   13MOL0     H 1776   2.903  -0.075   9.444  0.5175  0.4043 -0.0474
   13MOL0     H 1777   3.067  -0.137   9.294 -0.2181  2.4841 -0.2843
   13MOL0     H 1778   3.174   0.238   7.903 -0.9223 -0.7144  0.5738
   13MOL0     H 1779   3.091   0.431   7.801  1.3194 -0.8110 -1.5528
   13MOL0     H 1780   2.666   0.529   7.538 -0.6033  0.9988 -3.1426
   13MOL0     H 1781   2.582   0.695   7.395  4.0419 -0.8251 -2.1851
   13MOL0     H 1782   2.598   1.140   7.513 -0.0298  3.5653 -2.6281
   13MOL0     H 1783   2.719   1.085   7.391  0.7337 -1.0407  2.6748
   13MOL0     H 1784   2.543   1.256   7.307 -1.1297 -0.1432  2.2928
   13MOL0     H 1785   2.437   1.121   7.333 -0.3961 -1.0423 -1.5513
   13MOL0     H 1786   2.610   0.991   7.169  1.2465  0.6089 -0.6891
   13MOL0     H 1787   2.496   1.104   7.104  0.0161 -0.0155  1.4320
   13MOL0     H 1788   2.736   1.124   7.016 -0.7585 -1.2723  1.0225
   13MOL0     H 1789   2.797   1.136   7.183 -0.8581  1.0900  1.0405
   13MOL0     H 1790   2.713   1.537   7.089  2.6410 -0.3497 -2.9464
   13MOL0     H 1791   2.667   1.009   7.688  0.5495  0.0238  2.1620
   13MOL0     H 1792   2.906   0.847   7.826  1.0945  1.3129  3.7246
   13MOL0     H 1793   2.787   0.975   7.864  1.5211 -0.2453  4.8673
   13MOL0     H 1794   2.772   0.817   7.938  0.4858 -1.4107 -0.5151
   14MOL0     O 1795   2.399   7.561   7.550  0.0845 -0.2440  0.1124
   14MOL0     C 1796   2.300   7.565   7.481 -0.5041 -0.0669 -0.0574
   14MOL0     O 1797   2.297   7.536   7.356  0.5308 -0.4373  0.0976
   14MOL0     C 1798   2.416   7.514   7.292 -1.1246 -0.8844 -0.3392
   14MOL0     C 1799   2.508   7.615   7.257  0.4745  0.0993 -1.0104
   14MOL0     C 1800   2.625   7.587   7.191 -0.0554 -1.2557  0.3798
   14MOL0     C 1801   2.662   7.456   7.165  0.2054 -0.5324 -0.0319
   14MOL0     O 1802   2.784   7.429   7.107 -0.2942  0.6864 -0.0922
   14MOL0     C 1803   2.897   7.486   7.180 -0.1063  0.3434  0.1008
   14MOL0     C 1804   3.028   7.437   7.115 -0.2698 -0.0140  0.0700
   14MOL0     C 1805   3.091   7.324   7.199  0.7420  0.1607  0.2444
   14MOL0     C 1806   3.204   7.260   7.119 -0.9939 -0.1099 -0.8983
   14MOL0     C 1807   3.245   7.134   7.201  0.1268  0.3750 -0.2920
   14MOL0     C 1808   3.359   7.062   7.138 -0.7465 -0.4309  0.8938
   14MOL0     C 1809   3.406   6.940   7.215  0.0144  0.3605  0.8464
   14MOL0     C 1810   3.552   6.907   7.194 -0.4452 -0.1826 -0.2139
   14MOL0     N 1811   3.588   6.765   7.214 -0.8406 -0.0015  0.5044
   14MOL0     C 1812   3.622   6.690   7.321 -0.6836 -0.0905 -0.1921
   14MOL0     C 1813   3.602   6.561   7.289  0.4353 -0.6141 -0.6036
   14MOL0     C 1814   3.645   6.447   7.376  0.4259 -0.0443  0.6334
   14MOL0     C 1815   3.538   6.333   7.393 -0.7100 -0.0770  0.2646
   14MOL0     C 1816   3.511   6.248   7.278 -0.0089 -0.4293 -0.2725
   14MOL0     C 1817   3.445   6.119   7.321 -0.5647 -0.6482 -0.1652
   14MOL0     O 1818   3.518   6.035   7.417  0.0950  0.1129  0.0605
   14MOL0     C 1819   3.641   5.995   7.368  0.5253  0.5276 -0.2223
   14MOL0     C 1820   3.669   5.920   7.253  0.4416 -1.1292 -0.4668
   14MOL0     C 1821   3.798   5.901   7.206 -0.5039  0.6730  0.6615
   14MOL0     C 1822   3.817   5.814   7.085 -0.4776  0.0495 -0.3161
   14MOL0     C 1823   3.904   5.953   7.282  0.6637  0.1529 -0.1033
   14MOL0     C 1824   4.046   5.928   7.258 -0.2709 -0.2767  0.3860
   14MOL0     O 1825   4.073   5.797   7.240  0.5566  0.1248 -0.8190
   14MOL0     C 1826   4.198   5.749   7.272 -0.7603  0.1778 -0.5224
   14MOL0     C 1827   4.213   5.684   7.398 -0.2531  0.0528  0.8109
   14MOL0     C 1828   4.346   5.624   7.418  0.1895 -0.2650 -0.2357
   14MOL0     C 1829   4.453   5.640   7.327  0.1366  0.5312 -1.0553
   14MOL0     O 1830   4.568   5.577   7.366  0.5077  0.4613 -0.7077
   14MOL0     C 1831   4.676   5.664   7.414 -0.4356 -0.0892  0.0269
   14MOL0     C 1832   4.799   5.585   7.396  0.2826  0.2296  0.0241
   14MOL0     C 1833   4.922   5.667   7.420  0.1368 -0.2829  0.6788
   14MOL0     C 1834   4.977   5.731   7.291 -0.5824  0.0298 -0.2729
   14MOL0     C 1835   5.122   5.791   7.311 -0.2483  0.5886  0.3586
   14MOL0     C 1836   5.221   5.672   7.346 -0.2859 -1.1376 -0.3025
   14MOL0     C 1837   5.370   5.714   7.333  0.2638  0.3825 -0.9916
   14MOL0     C 1838   5.410   5.755   7.183 -0.0033 -0.1492 -0.0889
   14MOL0    Cl 1839   5.591   5.780   7.166  0.0149  0.1134  0.3822
   14MOL0     C 1840   4.433   5.711   7.206  0.3401 -0.4013 -0.7798
   14MOL0     C 1841   4.303   5.766   7.186 -0.6734  0.6573  0.5674
   14MOL0     O 1842   4.122   6.022   7.255  0.2876  0.0912 -1.0128
   14MOL0     C 1843   3.880   6.017   7.397 -0.3280  0.2722  0.2449
   14MOL0     C 1844   3.753   6.044   7.435  0.1661  0.3229 -0.2985
   14MOL0     N 1845   3.563   6.555   7.158  0.7127  0.4474 -0.3764
   14MOL0     N 1846   3.552   6.677   7.119 -0.3658  0.4111 -0.6509
   14MOL0     C 1847   2.572   7.356   7.188  0.3440 -0.3645  0.0103
   14MOL0     C 1848   2.450   7.381   7.254  0.1323 -0.5768 -0.5567
   14MOL0     C 1849   2.170   7.606   7.549 -0.6154  0.0823  0.5342
   14MOL0     C 1850   2.063   7.649   7.473  0.0864  0.4702  0.7899
   14MOL0     C 1851   1.941   7.691   7.533 -0.1799 -0.5415  0.6487
   14MOL0     C 1852   1.920   7.693   7.675 -0.2879  0.2882 -0.2528
   14MOL0     O 1853   1.806   7.724   7.737  0.3334 -0.3482 -0.0351
   14MOL0     C 1854   1.803   7.770   7.872 -0.0397 -0.2997  0.9048
   14MOL0     C 1855   1.671   7.842   7.893 -0.3473  0.0546  0.3787
   14MOL0     C 1856   1.544   7.753   7.874 -0.6007  0.6881  0.6828
   14MOL0     C 1857   1.432   7.844   7.890  0.0006  0.4393  0.2098
   14MOL0     C 1858   1.298   7.786   7.861 -1.0218 -0.0290  0.1780
   14MOL0     C 1859   1.118   7.719   7.825  0.4018 -0.5230  0.1604
   14MOL0     C 1860   2.033   7.648   7.751 -0.4694  0.2692  0.0226
   14MOL0     C 1861   2.151   7.600   7.690 -0.2562  1.4165  0.5568
   14MOL0     C 1862   2.263   7.558   7.790 -0.0840 -0.0024  0.8086
   14MOL0     H 1863   2.484   7.719   7.277 -0.4820  0.0660 -1.9502
   14MOL0     H 1864   2.683   7.677   7.169 -1.4559 -0.2886  0.5121
   14MOL0     H 1865   2.891   7.454   7.284  1.4433  0.4226  0.2407
   14MOL0     H 1866   2.906   7.595   7.176  0.9477  0.2530 -0.9190
   14MOL0     H 1867   3.015   7.405   7.011  1.1331  0.1127 -0.1606
   14MOL0     H 1868   3.109   7.510   7.127 -1.2172  0.9658  0.6632
   14MOL0     H 1869   3.128   7.365   7.293 -0.7514 -0.6982  1.2498
   14MOL0     H 1870   3.007   7.257   7.218  0.1700  1.6119  3.5778
   14MOL0     H 1871   3.175   7.239   7.016  0.9153  0.9401 -1.7265
   14MOL0     H 1872   3.291   7.327   7.124 -1.0126 -0.0800 -0.9875
   14MOL0     H 1873   3.158   7.069   7.212  0.9872 -0.5502  1.3153
   14MOL0     H 1874   3.278   7.161   7.301  2.0710 -5.6648  1.1341
   14MOL0     H 1875   3.336   7.039   7.033 -0.0214 -0.5246  0.7454
   14MOL0     H 1876   3.442   7.132   7.124 -0.8158 -0.7232 -1.3478
   14MOL0     H 1877   3.342   6.857   7.182 -2.4269  2.3839  0.2169
   14MOL0     H 1878   3.384   6.952   7.321 -2.5707 -1.3131  0.5903
   14MOL0     H 1879   3.574   6.940   7.092 -1.2281  0.3617 -0.2193
   14MOL0     H 1880   3.615   6.977   7.249 -0.6146  0.9012 -1.3587
   14MOL0     H 1881   3.676   6.724   7.409 -1.4982 -0.7967  0.6028
   14MOL0     H 1882   3.661   6.480   7.479 -2.4164 -2.1581  1.8994
   14MOL0     H 1883   3.729   6.394   7.331  0.6643  0.0146  1.0036
   14MOL0     H 1884   3.579   6.273   7.475 -0.0029 -1.0884 -0.7944
   14MOL0     H 1885   3.444   6.374   7.430  1.4376  3.9658  1.8485
   14MOL0     H 1886   3.443   6.307   7.215 -0.6762 -1.5275 -0.6161
   14MOL0     H 1887   3.606   6.228   7.229  1.1536 -0.8657  2.0352
   14MOL0     H 1888   3.349   6.143   7.367  0.1074  3.1788 -0.3967
   14MOL0     H 1889   3.418   6.062   7.232  0.4954  0.4477 -1.2288
   14MOL0     H 1890   3.578   5.883   7.206 -1.5151  2.4711  0.0998
   14MOL0     H 1891   3.796   5.708   7.098 -0.0563 -0.2555 -1.9662
   14MOL0     H 1892   3.918   5.817   7.043 -0.8726  1.9431 -1.2573
   14MOL0     H 1893   3.746   5.847   7.008 -2.1997  0.0033  1.1722
   14MOL0     H 1894   4.130   5.661   7.464 -0.0289 -1.0191  0.7355
   14MOL0     H 1895   4.355   5.560   7.506 -0.3542 -0.3904 -0.2694
   14MOL0     H 1896   4.682   5.756   7.355 -3.0153 -0.3240 -0.7578
   14MOL0     H 1897   4.655   5.696   7.516 -0.2915  0.8071 -0.2182
   14MOL0     H 1898   4.792   5.501   7.466 -3.6870  0.2575 -0.1474
   14MOL0     H 1899   4.820   5.545   7.296  0.8020  0.3061  0.0985
   14MOL0     H 1900   4.989   5.585   7.448  1.9994  0.4210 -1.4419
   14MOL0     H 1901   4.934   5.739   7.502 -1.4993  2.1741 -1.0870
   14MOL0     H 1902   4.910   5.812   7.261  0.8972  0.4392 -2.7862
   14MOL0     H 1903   4.974   5.656   7.211  3.3084  0.5337 -1.1000
   14MOL0     H 1904   5.139   5.834   7.212 -0.4641 -0.8614 -0.3355
   14MOL0     H 1905   5.124   5.868   7.389 -0.0221 -0.2145  1.1585
   14MOL0     H 1906   5.198   5.594   7.273  0.6633 -0.6704 -1.1281
   14MOL0     H 1907   5.196   5.636   7.446 -2.4560 -0.6825 -0.6310
   14MOL0     H 1908   5.425   5.624   7.363 -2.2585 -0.6519  0.9321
   14MOL0     H 1909   5.396   5.795   7.403 -0.6226 -0.0433 -0.1374
   14MOL0     H 1910   5.356   5.840   7.141  0.8381 -0.4570 -1.9221
   14MOL0     H 1911   5.375   5.667   7.128 -0.9874 -1.4676  2.4625
   14MOL0     H 1912   4.521   5.727   7.143  0.9894 -2.3160 -0.4030
   14MOL0     H 1913   4.279   5.820   7.096 -1.1646  2.0270  1.4956
   14MOL0     H 1914   3.953   6.050   7.471  0.0594  2.2242 -0.9287
   14MOL0     H 1915   3.738   6.097   7.528 -0.3204  2.3170 -1.4640
   14MOL0     H 1916   2.599   7.257   7.156  0.1902 -0.1921 -0.6742
   14MOL0     H 1917   2.378   7.303   7.278 -0.3788 -0.3210 -1.2356
   14MOL0     H 1918   2.066   7.644   7.365 -0.8886  1.8836  0.6732
   14MOL0     H 1919   1.856   7.731   7.479  1.3219  0.3971 -1.1129
   14MOL0     H 1920   1.806   7.684   7.939  2.4902 -0.7896  0.2895
   14MOL0     H 1921   1.889   7.836   7.889 -0.5969  0.1813  1.8982
   14MOL0     H 1922   1.673   7.934   7.834  1.9260 -0.1815 -0.0001
   14MOL0     H 1923   1.675   7.866   8.000  1.4738 -0.6597  0.5098
   14MOL0     H 1924   1.538   7.704   7.777 -2.2691  0.9604  0.6189
   14MOL0     H 1925   1.548   7.675   7.950  0.8197 -2.4924 -2.3978
   14MOL0     H 1926   1.450   7.929   7.822 -0.7497  1.5293  1.3340
   14MOL0     H 1927   1.440   7.877   7.994  0.5083 -1.9012  0.9763
   14MOL0     H 1928   1.022   7.683   7.794 -1.0199  1.1414  2.3516
   14MOL0     H 1929   2.017   7.648   7.858 -1.7781 -0.6445 -0.1440
   14MOL0     H 1930   2.340   7.636   7.795  0.5704 -0.7050  2.1056
   14MOL0     H 1931   2.219   7.545   7.890 -0.0690 -1.6933  0.6196
   14MOL0     H 1932   2.299   7.462   7.751 -3.2540 -0.1506 -2.2640
   15MOL0     O 1933   7.724   6.214   7.092 -0.3738  0.5794 -0.2106
   15MOL0     C 1934   7.651   6.155   7.173 -0.5378  0.0673 -1.5199
   15MOL0     O 1935   7.669   6.149   7.315  0.1203 -0.0964  0.0053
   15MOL0     C 1936   7.791   6.204   7.363 -0.6775 -0.1412 -0.5562
   15MOL0     C 1937   7.782   6.241   7.503 -0.4668 -0.2344  0.3073
   15MOL0     C 1938   7.888   6.306   7.565 -0.1362 -0.4657 -0.3216
   15MOL0     C 1939   8.008   6.317   7.500 -0.7867  0.0433 -0.0210
   15MOL0     O 1940   8.116   6.357   7.575 -0.1899  0.5851 -0.3372
   15MOL0     C 1941   8.154   6.488   7.579 -0.0450 -0.8814  0.1954
   15MOL0     C 1942   8.117   6.556   7.703 -0.0461  0.2868 -0.0355
   15MOL0     C 1943   8.159   6.712   7.705  0.5571 -0.5191 -0.4047
   15MOL0     C 1944   8.272   6.733   7.809 -0.1774 -0.4497  0.4419
   15MOL0     C 1945   8.297   6.888   7.804  0.1290  0.1838 -0.6072
   15MOL0     C 1946   8.438   6.918   7.846  0.4100  0.2016 -0.9418
   15MOL0     C 1947   8.461   6.892   7.998 -0.1276  1.0865  0.3639
   15MOL0     C 1948   8.384   6.986   8.085  0.9255 -0.1925 -0.6139
   15MOL0     N 1949   8.439   7.126   8.097 -0.0220 -0.1392  0.6541
   15MOL0     C 1950   8.570   7.164   8.067 -0.6301 -0.6569  0.1874
   15MOL0     C 1951   8.589   7.287   8.112 -0.8258  0.4550 -0.2029
   15MOL0     C 1952   8.714   7.372   8.117  0.2580  0.3110  0.6486
   15MOL0     C 1953   8.762   7.444   7.990  0.0481 -0.7680  0.5917
   15MOL0     C 1954   8.903   7.508   8.009  0.7172 -0.2477  0.1817
   15MOL0     C 1955   8.993   7.512   7.885 -0.2357  0.3669  0.0612
   15MOL0     O 1956   8.995   7.391   7.810  0.4124  0.4264  0.5672
   15MOL0     C 1957   9.090   7.381   7.707  0.4646 -0.0210 -0.2003
   15MOL0     C 1958   9.131   7.491   7.636 -0.5263 -0.8772  1.5109
   15MOL0     C 1959   9.223   7.483   7.527 -0.7419  0.4065  0.5314
   15MOL0     C 1960   9.240   7.614   7.449 -0.2555  1.0023  0.9153
   15MOL0     C 1961   9.286   7.352   7.492  0.3800 -0.2324 -0.3659
   15MOL0     C 1962   9.406   7.337   7.386 -0.1855  0.9943  0.7892
   15MOL0     O 1963   9.471   7.459   7.334 -0.1434  0.1099  0.4200
   15MOL0     C 1964   9.598   7.451   7.266 -0.7534  0.0444 -0.3051
   15MOL0     C 1965   9.613   7.481   7.130  0.0832  0.9074  0.4151
   15MOL0     C 1966   9.738   7.471   7.064  0.3473 -0.0853  0.0930
   15MOL0     C 1967   9.852   7.447   7.144  0.0455  0.0733  0.7630
   15MOL0     O 1968   9.974   7.465   7.086  0.0032  0.3520 -0.2169
   15MOL0     C 1969  10.071   7.367   7.121  0.0771 -0.5225  0.0356
   15MOL0     C 1970  10.164   7.324   7.005  0.0814  0.4531 -0.2921
   15MOL0     C 1971  10.102   7.230   6.911  0.3378 -0.4853 -0.3585
   15MOL0     C 1972   9.996   7.305   6.825  0.0170 -0.0915  0.1184
   15MOL0     C 1973   9.942   7.244   6.692 -1.0078  0.1615  0.5790
   15MOL0     C 1974   9.861   7.120   6.720  0.1796 -0.6743  0.5584
   15MOL0     C 1975   9.788   7.071   6.590 -0.2101 -0.3590 -0.4895
   15MOL0     C 1976   9.722   6.931   6.610 -0.2732 -0.5111 -0.4106
   15MOL0    Cl 1977   9.856   6.804   6.607  0.3753  0.1492 -0.0150
   15MOL0     C 1978   9.830   7.419   7.277 -0.9391 -0.4978  0.0746
   15MOL0     C 1979   9.711   7.417   7.345 -1.1058  0.2031  0.0584
   15MOL0     O 1980   9.437   7.223   7.357 -0.1373 -0.0962 -0.0396
   15MOL0     C 1981   9.247   7.246   7.579  0.2304  0.9065 -0.2614
   15MOL0     C 1982   9.154   7.264   7.677  0.5951 -0.4686 -0.1280
   15MOL0     N 1983   8.463   7.322   8.175 -0.4212 -0.0145 -0.6793
   15MOL0     N 1984   8.374   7.226   8.161  0.2821 -0.4079 -1.1036
   15MOL0     C 1985   8.028   6.264   7.376  0.6786  0.6643 -0.2089
   15MOL0     C 1986   7.917   6.208   7.309  0.2157  0.6181 -0.4410
   15MOL0     C 1987   7.534   6.090   7.124  0.4525  0.3649  0.2874
   15MOL0     C 1988   7.404   6.117   7.167 -0.8386  0.5916  0.3116
   15MOL0     C 1989   7.298   6.057   7.104 -0.2499 -0.3246 -0.3978
   15MOL0     C 1990   7.311   5.965   7.007 -0.8202  1.4754  0.0395
   15MOL0     O 1991   7.196   5.911   6.959  0.4489  0.2975  0.5305
   15MOL0     C 1992   7.217   5.825   6.844  0.1300  0.4013  0.0345
   15MOL0     C 1993   7.081   5.768   6.814  0.0885  0.0986 -1.2157
   15MOL0     C 1994   7.086   5.702   6.677  0.5439  1.6272  0.1192
   15MOL0     C 1995   6.957   5.618   6.682  1.0722  0.6363  0.9463
   15MOL0     C 1996   6.977   5.481   6.743 -0.4739  0.1891  0.6952
   15MOL0     C 1997   7.000   5.373   6.787  0.6180  0.6842  0.5860
   15MOL0     C 1998   7.443   5.928   6.970 -0.0391 -0.3888 -0.1049
   15MOL0     C 1999   7.552   5.980   7.036  0.1434 -0.4883  0.0554
   15MOL0     C 2000   7.688   5.928   7.000  0.2471  0.6774  0.1867
   15MOL0     H 2001   7.685   6.222   7.546 -1.1009  0.0691 -0.9486
   15MOL0     H 2002   7.884   6.339   7.668  1.9873 -2.1278  0.3572
   15MOL0     H 2003   8.104   6.537   7.495 -4.4298  0.1037  3.0477
   15MOL0     H 2004   8.264   6.487   7.576  0.1984  0.7815  3.7712
   15MOL0     H 2005   8.013   6.534   7.727  0.3109 -0.9894  0.4182
   15MOL0     H 2006   8.174   6.497   7.776  1.0080 -0.9447 -1.7720
   15MOL0     H 2007   8.193   6.748   7.607 -0.7636 -2.7440 -1.7518
   15MOL0     H 2008   8.082   6.784   7.734 -0.9860 -1.7166 -1.4160
   15MOL0     H 2009   8.239   6.694   7.905 -0.2415 -1.4108  0.0400
   15MOL0     H 2010   8.361   6.685   7.767 -0.0422  2.0128 -2.4862
   15MOL0     H 2011   8.224   6.938   7.869  0.8683 -0.9705  1.1947
   15MOL0     H 2012   8.293   6.917   7.699 -0.6273  2.1501 -0.0757
   15MOL0     H 2013   8.510   6.858   7.789  1.4098 -0.1361  0.6437
   15MOL0     H 2014   8.459   7.024   7.835 -0.4829  1.0780  3.7446
   15MOL0     H 2015   8.568   6.891   8.023  0.0987 -0.9755 -0.5087
   15MOL0     H 2016   8.432   6.787   8.013 -0.1515  1.3456  2.4340
   15MOL0     H 2017   8.276   6.996   8.072  0.7804  2.4825  1.5479
   15MOL0     H 2018   8.404   6.951   8.187 -1.7544  2.8167  1.1130
   15MOL0     H 2019   8.643   7.102   8.016 -1.5959 -0.2453 -1.7957
   15MOL0     H 2020   8.798   7.312   8.153  1.0809  0.7090 -0.5605
   15MOL0     H 2021   8.701   7.452   8.191 -0.2411  1.4543 -0.6406
   15MOL0     H 2022   8.767   7.392   7.894 -0.4630  3.5465 -2.0306
   15MOL0     H 2023   8.686   7.521   7.969 -0.5248  0.0120  4.6907
   15MOL0     H 2024   8.884   7.611   8.041 -1.8379 -0.5520 -0.1543
   15MOL0     H 2025   8.955   7.449   8.085  1.0161  1.9382  1.7637
   15MOL0     H 2026   8.955   7.591   7.819 -0.1957 -0.0013 -0.4032
   15MOL0     H 2027   9.097   7.529   7.913  0.3114 -2.6178  0.0985
   15MOL0     H 2028   9.094   7.591   7.653  1.2961  0.9452 -3.5957
   15MOL0     H 2029   9.231   7.591   7.342 -0.9553  2.2782  0.6816
   15MOL0     H 2030   9.333   7.665   7.474  1.0266 -0.9732  0.3731
   15MOL0     H 2031   9.159   7.685   7.469 -1.9225 -0.5330 -0.0649
   15MOL0     H 2032   9.531   7.490   7.059  2.2911  1.3805 -2.2286
   15MOL0     H 2033   9.751   7.488   6.957 -1.1511  1.4441  0.1004
   15MOL0     H 2034  10.128   7.402   7.207  0.0027  0.9068 -0.4745
   15MOL0     H 2035  10.019   7.277   7.155 -1.4527 -0.2381 -1.4260
   15MOL0     H 2036  10.189   7.410   6.942  0.6785 -0.5824 -1.5304
   15MOL0     H 2037  10.246   7.266   7.048 -0.6815 -1.4557 -1.2794
   15MOL0     H 2038  10.069   7.142   6.969  0.9335 -0.1295  0.5434
   15MOL0     H 2039  10.179   7.201   6.839  1.0440  1.8101 -0.5896
   15MOL0     H 2040  10.031   7.406   6.802 -1.3758  1.8142  4.9628
   15MOL0     H 2041   9.905   7.297   6.887 -0.5701 -0.7683 -0.7984
   15MOL0     H 2042   9.889   7.318   6.630  0.0438 -1.6182 -2.6823
   15MOL0     H 2043  10.030   7.218   6.633 -0.8918  0.0908  0.7853
   15MOL0     H 2044   9.788   7.150   6.796 -0.8275 -0.6268 -0.4150
   15MOL0     H 2045   9.916   7.032   6.753 -3.5833 -2.9166  1.3919
   15MOL0     H 2046   9.861   7.085   6.510  1.1076 -1.4324  0.4799
   15MOL0     H 2047   9.708   7.137   6.556  0.1002 -0.2753 -1.0659
   15MOL0     H 2048   9.650   6.915   6.529 -1.4021 -1.5180  0.7506
   15MOL0     H 2049   9.661   6.930   6.701 -1.5872  0.2723 -1.2464
   15MOL0     H 2050   9.911   7.399   7.345  0.7595 -2.1118 -2.2507
   15MOL0     H 2051   9.695   7.385   7.448 -4.2731 -0.7109 -0.6016
   15MOL0     H 2052   9.300   7.152   7.565 -0.6782 -0.0769  2.3795
   15MOL0     H 2053   9.142   7.179   7.744 -1.9611  0.4249  0.6490
   15MOL0     H 2054   8.123   6.252   7.326 -0.4474 -0.4388 -2.2303
   15MOL0     H 2055   7.953   6.163   7.216  2.2217  2.5029 -0.6399
   15MOL0     H 2056   7.378   6.194   7.239 -1.2499  1.1057 -0.3706
   15MOL0     H 2057   7.204   6.108   7.119 -0.1264 -0.5358  1.3110
   15MOL0     H 2058   7.260   5.886   6.764 -0.9899  1.9308  0.5405
   15MOL0     H 2059   7.290   5.746   6.863 -0.1158  0.7205  2.6557
   15MOL0     H 2060   7.003   5.844   6.826  0.6260  0.4414  0.3119
   15MOL0     H 2061   7.074   5.698   6.898 -0.7394  4.3953  2.6460
   15MOL0     H 2062   7.080   5.770   6.592 -2.9515  2.4080  0.8469
   15MOL0     H 2063   7.172   5.635   6.663 -0.1521  0.8260 -0.4573
   15MOL0     H 2064   6.930   5.608   6.576  1.8115  4.4529  0.2437
   15MOL0     H 2065   6.876   5.668   6.736 -2.4732  0.3451 -3.4646
   15MOL0     H 2066   7.007   5.268   6.809  1.8666  0.1031 -2.1490
   15MOL0     H 2067   7.462   5.872   6.879 -0.5715 -4.2265  1.9495
   15MOL0     H 2068   7.683   5.828   6.956  1.4077 -0.2432  2.0171
   15MOL0     H 2069   7.735   5.995   6.927 -1.7518  1.7351 -0.2020
   15MOL0     H 2070   7.753   5.918   7.087  0.5054 -2.9882 -0.2583
   16MOL0     O 2071   5.060  10.615   7.176 -0.7055  0.6104  0.1477
   16MOL0     C 2072   5.054  10.668   7.287 -0.1907  0.4125 -0.2568
   16MOL0     O 2073   5.128  10.625   7.393  0.1200  0.2223 -0.3530
   16MOL0     C 2074   5.195  10.509   7.372  0.2723  0.7254  0.0348
   16MOL0     C 2075   5.130  10.380   7.380 -1.3666  0.5961  0.4849
   16MOL0     C 2076   5.213  10.268   7.363  0.2969 -0.0467 -0.7898
   16MOL0     C 2077   5.355  10.281   7.334  0.3564  0.3108  0.5125
   16MOL0     O 2078   5.416  10.162   7.302  0.8895  0.7662 -0.2397
   16MOL0     C 2079   5.555  10.151   7.314  0.3697 -0.6970 -0.3917
   16MOL0     C 2080   5.584  10.004   7.349 -0.5865 -0.8929 -0.1846
   16MOL0     C 2081   5.730   9.972   7.354 -0.6818 -0.3559 -0.1198
   16MOL0     C 2082   5.758   9.821   7.366  0.1233 -0.9287 -0.1342
   16MOL0     C 2083   5.896   9.786   7.414 -0.1231  0.6661  0.1773
   16MOL0     C 2084   6.020   9.838   7.331 -0.0098  0.0878 -0.8299
   16MOL0     C 2085   6.160   9.804   7.367 -0.1338 -0.1375  0.0636
   16MOL0     C 2086   6.188   9.648   7.365 -0.3185  0.7531 -0.4949
   16MOL0     N 2087   6.327   9.621   7.414  0.2829 -0.6893 -0.5377
   16MOL0     C 2088   6.378   9.675   7.529 -0.0240 -0.4045  0.6232
   16MOL0     C 2089   6.485   9.588   7.565  0.2068 -0.6226  0.3667
   16MOL0     C 2090   6.558   9.611   7.692  0.7943  0.4033  0.5472
   16MOL0     C 2091   6.656   9.726   7.667 -0.4173 -0.6458  1.2406
   16MOL0     C 2092   6.729   9.746   7.786 -0.4208  0.2538 -0.7077
   16MOL0     C 2093   6.845   9.847   7.776 -0.3357 -0.4032  0.5032
   16MOL0     O 2094   6.961   9.786   7.707  0.3853  0.6559 -0.1619
   16MOL0     C 2095   7.060   9.863   7.663 -1.0107  0.0812  0.0010
   16MOL0     C 2096   7.157   9.795   7.588  0.3481  0.0701 -0.6508
   16MOL0     C 2097   7.271   9.857   7.541  0.5538  0.5351 -0.0893
   16MOL0     C 2098   7.368   9.757   7.461  0.0262 -1.0303 -0.1669
   16MOL0     C 2099   7.303   9.993   7.583  0.2278  0.3008  0.2317
   16MOL0     C 2100   7.443  10.057   7.561 -0.0636 -0.3191  0.1667
   16MOL0     O 2101   7.437  10.193   7.552  0.2688  0.0752  0.0545
   16MOL0     C 2102   7.545  10.273   7.567 -0.4840 -0.4700  0.5422
   16MOL0     C 2103   7.518  10.405   7.617  0.8692 -0.4789  0.5660
   16MOL0     C 2104   7.610  10.504   7.631 -0.3803  0.2076  0.3843
   16MOL0     C 2105   7.748  10.466   7.612  0.6147 -0.1088 -0.2382
   16MOL0     O 2106   7.845  10.548   7.637 -0.0734 -0.3362 -0.3784
   16MOL0     C 2107   7.878  10.561   7.770 -0.4687  0.4110  0.4624
   16MOL0     C 2108   8.001  10.646   7.792  0.3469 -0.2534 -0.3681
   16MOL0     C 2109   8.126  10.562   7.795  0.2193 -0.1318  0.0485
   16MOL0     C 2110   8.190  10.538   7.661 -0.2473 -0.2884 -0.2879
   16MOL0     C 2111   8.321  10.462   7.684 -1.2060  0.2403 -0.4881
   16MOL0     C 2112   8.288  10.323   7.736 -0.3342 -0.2905 -0.3346
   16MOL0     C 2113   8.412  10.226   7.726 -0.8076 -0.0114 -0.2488
   16MOL0     C 2114   8.491  10.202   7.588  0.0013 -0.0644  0.2220
   16MOL0    Cl 2115   8.364  10.127   7.467 -0.2759  0.1352 -0.0500
   16MOL0     C 2116   7.777  10.339   7.574  0.5119 -0.1071  0.0766
   16MOL0     C 2117   7.678  10.247   7.534 -0.6788 -0.1553  0.1052
   16MOL0     O 2118   7.535   9.994   7.524  0.3526 -0.4066  0.4958
   16MOL0     C 2119   7.207  10.062   7.654 -0.3342  0.3159 -0.0343
   16MOL0     C 2120   7.090  10.002   7.698 -0.1422  0.7209  0.5817
   16MOL0     N 2121   6.488   9.483   7.479  0.9987 -0.2521 -0.6948
   16MOL0     N 2122   6.396   9.510   7.389  0.8706  0.1965  0.0996
   16MOL0     C 2123   5.419  10.406   7.337 -0.0097  0.4121 -0.2391
   16MOL0     C 2124   5.337  10.522   7.360  0.6197  0.2643  0.7167
   16MOL0     C 2125   4.994  10.807   7.301  0.5826 -0.0476 -0.2957
   16MOL0     C 2126   5.034  10.886   7.405  0.9222 -0.4540  0.3603
   16MOL0     C 2127   4.994  11.018   7.407  0.1966 -0.2285 -1.2037
   16MOL0     C 2128   4.908  11.074   7.307 -0.6072  0.2170  0.2812
   16MOL0     O 2129   4.871  11.207   7.312  0.2256  0.9797  0.3102
   16MOL0     C 2130   4.756  11.228   7.223 -0.0200 -0.0154 -0.2452
   16MOL0     C 2131   4.674  11.351   7.260  0.7444  0.0824 -0.9830
   16MOL0     C 2132   4.762  11.473   7.275 -0.2402  0.8366 -0.9168
   16MOL0     C 2133   4.693  11.599   7.335  0.1450 -0.1321  0.0079
   16MOL0     C 2134   4.601  11.663   7.237 -0.0396 -0.2834 -0.5071
   16MOL0     C 2135   4.522  11.719   7.165 -0.1296  0.8141 -1.1010
   16MOL0     C 2136   4.879  10.992   7.201  0.9023  0.4849 -0.2171
   16MOL0     C 2137   4.915  10.858   7.200  0.9303 -0.1319  0.4665
   16MOL0     C 2138   4.852  10.777   7.084  0.2149  0.0057 -1.1138
   16MOL0     H 2139   5.029  10.360   7.414 -0.6128 -1.2812  1.7880
   16MOL0     H 2140   5.180  10.165   7.374  2.6301 -0.8263 -0.5301
   16MOL0     H 2141   5.601  10.221   7.385  0.0089  1.1854 -1.9322
   16MOL0     H 2142   5.606  10.164   7.218  0.0135 -0.9323 -0.6123
   16MOL0     H 2143   5.547   9.980   7.449  2.2080  0.1486  1.2108
   16MOL0     H 2144   5.541   9.944   7.269 -1.7241  3.2991 -3.0377
   16MOL0     H 2145   5.783  10.020   7.271 -0.3681  0.6956  0.6681
   16MOL0     H 2146   5.767  10.012   7.449  0.8019 -0.0845 -0.7699
   16MOL0     H 2147   5.694   9.777   7.444  0.6942 -2.6728 -0.5967
   16MOL0     H 2148   5.740   9.784   7.265  1.0299  3.0101 -1.9266
   16MOL0     H 2149   5.893   9.677   7.423  0.2666  0.6440  0.0643
   16MOL0     H 2150   5.922   9.832   7.511  1.7573  3.6107 -1.5473
   16MOL0     H 2151   5.987   9.812   7.231 -2.7887 -0.0835  0.0611
   16MOL0     H 2152   6.020   9.947   7.344 -2.4285  0.1183 -0.7381
   16MOL0     H 2153   6.176   9.849   7.466  0.2018 -0.2560  0.0642
   16MOL0     H 2154   6.243   9.853   7.316  1.2758 -0.8353  1.5912
   16MOL0     H 2155   6.118   9.589   7.425  4.4871 -1.8965  3.2789
   16MOL0     H 2156   6.190   9.620   7.260 -0.0209  0.9685 -0.5468
   16MOL0     H 2157   6.337   9.759   7.584  2.5387  1.3456  0.0150
   16MOL0     H 2158   6.604   9.513   7.710 -1.2363 -1.1164 -1.8421
   16MOL0     H 2159   6.494   9.653   7.770  1.0920  2.9383 -0.4821
   16MOL0     H 2160   6.730   9.706   7.588 -0.5586  0.0984  0.9187
   16MOL0     H 2161   6.597   9.816   7.649 -1.6466 -1.5879  0.3965
   16MOL0     H 2162   6.656   9.776   7.861 -0.2841 -2.4500  0.6335
   16MOL0     H 2163   6.777   9.652   7.816 -0.4915 -0.6175 -3.1064
   16MOL0     H 2164   6.811   9.937   7.725  0.5940 -0.0533  0.4975
   16MOL0     H 2165   6.872   9.892   7.872 -1.1710  2.7441 -0.6231
   16MOL0     H 2166   7.135   9.690   7.572 -0.5021  0.5936 -3.5448
   16MOL0     H 2167   7.396   9.800   7.364  0.7850  0.3586  0.6210
   16MOL0     H 2168   7.335   9.653   7.454 -0.6540 -0.7393 -1.8017
   16MOL0     H 2169   7.464   9.757   7.513 -0.1643 -0.5231  0.1931
   16MOL0     H 2170   7.419  10.433   7.651  0.6154 -1.3447  0.5575
   16MOL0     H 2171   7.589  10.604   7.669  0.9629  0.2251  1.1327
   16MOL0     H 2172   7.797  10.615   7.819  0.7634  0.7884  2.1778
   16MOL0     H 2173   7.896  10.462   7.813  0.6552  0.8896  1.1478
   16MOL0     H 2174   8.014  10.722   7.714  1.4510 -1.1187 -1.0703
   16MOL0     H 2175   7.979  10.692   7.888 -0.0197 -2.0438  0.4419
   16MOL0     H 2176   8.107  10.468   7.848  0.6287 -0.9848 -1.2812
   16MOL0     H 2177   8.199  10.609   7.863 -0.4202  0.6507  0.2184
   16MOL0     H 2178   8.211  10.636   7.616  1.2499  0.7516  2.4591
   16MOL0     H 2179   8.121  10.485   7.595  1.0260 -0.0017 -1.9197
   16MOL0     H 2180   8.370  10.451   7.587  0.7998  0.4977  0.4483
   16MOL0     H 2181   8.390  10.511   7.754 -3.0305 -0.0831  1.6582
   16MOL0     H 2182   8.205  10.279   7.680 -0.6329 -0.1817  0.0153
   16MOL0     H 2183   8.259  10.317   7.842 -2.8551  1.0988 -0.8668
   16MOL0     H 2184   8.385  10.132   7.776 -0.6151 -0.7550 -1.4941
   16MOL0     H 2185   8.483  10.271   7.796 -3.2461  0.2560  2.2208
   16MOL0     H 2186   8.576  10.134   7.601 -2.0556 -2.5268  1.5303
   16MOL0     H 2187   8.526  10.302   7.560 -0.9800  0.4183  0.6628
   16MOL0     H 2188   7.884  10.326   7.559  1.3305  2.1263  2.9570
   16MOL0     H 2189   7.712  10.152   7.494  1.0845  0.8046 -0.8120
   16MOL0     H 2190   7.228  10.162   7.691  1.1309 -0.2006  0.6175
   16MOL0     H 2191   7.015  10.058   7.752 -2.3914  3.5156 -4.6774
   16MOL0     H 2192   5.525  10.427   7.328  0.0748  0.1346  0.1026
   16MOL0     H 2193   5.367  10.627   7.360  2.8482 -0.3239  0.6334
   16MOL0     H 2194   5.104  10.844   7.477  0.0836  0.8615  2.0310
   16MOL0     H 2195   5.018  11.100   7.474 -2.4618  0.5075 -1.0342
   16MOL0     H 2196   4.786  11.227   7.117  0.0493  1.4963 -0.2603
   16MOL0     H 2197   4.693  11.141   7.244  0.8657 -0.4722  0.5918
   16MOL0     H 2198   4.629  11.341   7.360 -0.1039  0.7023 -1.2974
   16MOL0     H 2199   4.595  11.364   7.187 -0.3256 -2.7032 -0.4586
   16MOL0     H 2200   4.851  11.450   7.335  0.6975 -2.1916 -3.2128
   16MOL0     H 2201   4.807  11.493   7.178 -0.2199 -3.4105 -1.9881
   16MOL0     H 2202   4.772  11.672   7.357  0.4285 -0.2113 -0.7379
   16MOL0     H 2203   4.638  11.577   7.427 -3.7398 -2.6424 -2.6188
   16MOL0     H 2204   4.450  11.770   7.105 -0.2389  0.7473 -1.0267
   16MOL0     H 2205   4.821  11.019   7.113 -0.7297 -2.0354 -0.0066
   16MOL0     H 2206   4.912  10.804   6.997  0.1489  0.2728 -1.0777
   16MOL0     H 2207   4.847  10.668   7.096  0.3174  0.1444  0.4521
   16MOL0     H 2208   4.746  10.802   7.068 -0.0884 -0.4730  0.0545
   17MOL0     O 2209   6.902   2.286   6.485 -0.6994 -0.0491  0.3180
   17MOL0     C 2210   6.823   2.197   6.460 -0.4815  0.4880  0.1024
   17MOL0     O 2211   6.848   2.083   6.384  0.3169 -0.1897 -0.0964
   17MOL0     C 2212   6.964   2.066   6.325  0.2221 -0.1545  0.5342
   17MOL0     C 2213   6.971   2.042   6.187  0.0098 -0.2270 -0.2623
   17MOL0     C 2214   7.088   2.048   6.121 -0.7339 -0.1596 -0.0817
   17MOL0     C 2215   7.215   2.062   6.182  0.6241 -1.0142 -0.1675
   17MOL0     O 2216   7.329   2.058   6.108  0.3576 -0.2424  0.0937
   17MOL0     C 2217   7.334   2.031   5.971  0.1934  0.2364 -0.5689
   17MOL0     C 2218   7.483   2.009   5.937 -0.1057  0.4218  0.0019
   17MOL0     C 2219   7.556   2.101   5.842 -0.7916 -0.8115 -0.6057
   17MOL0     C 2220   7.575   2.247   5.882  0.5783  0.4214 -0.7704
   17MOL0     C 2221   7.726   2.292   5.863 -0.4445 -0.0425  0.1873
   17MOL0     C 2222   7.726   2.443   5.911 -1.0272 -0.0790  0.1285
   17MOL0     C 2223   7.855   2.490   5.959 -1.8545 -0.7255 -0.4495
   17MOL0     C 2224   7.965   2.481   5.852  1.0328 -0.3004  0.5081
   17MOL0     N 2225   8.077   2.564   5.893  0.5019 -0.9813 -0.0407
   17MOL0     C 2226   8.092   2.696   5.848  0.7563 -0.1964  0.9091
   17MOL0     C 2227   8.199   2.751   5.911  0.1481  0.0144  0.2427
   17MOL0     C 2228   8.256   2.889   5.874  0.0370 -0.4851  0.0872
   17MOL0     C 2229   8.340   2.871   5.751 -0.2317 -1.4011 -0.2639
   17MOL0     C 2230   8.438   2.987   5.735 -0.4401 -1.1975  0.2102
   17MOL0     C 2231   8.583   2.964   5.772  0.4759 -0.4137 -0.1359
   17MOL0     O 2232   8.651   3.084   5.772  0.0493  0.2841 -0.2397
   17MOL0     C 2233   8.773   3.073   5.714 -0.2773 -0.1301 -0.5237
   17MOL0     C 2234   8.867   2.972   5.734 -0.4495 -0.0541 -0.2450
   17MOL0     C 2235   8.997   2.979   5.691 -0.7839  1.2742  0.3647
   17MOL0     C 2236   9.094   2.864   5.723  0.0692 -0.5401  0.2553
   17MOL0     C 2237   9.036   3.102   5.629  0.2311  0.4372 -0.0070
   17MOL0     C 2238   9.166   3.133   5.585  0.0888 -0.2009 -0.0189
   17MOL0     O 2239   9.213   3.272   5.608  0.0442  0.3257 -0.2243
   17MOL0     C 2240   9.323   3.306   5.541 -0.4289  0.6116 -0.3627
   17MOL0     C 2241   9.323   3.415   5.458 -0.2262  0.0085 -0.0963
   17MOL0     C 2242   9.434   3.449   5.377 -0.0681  0.9460  0.9752
   17MOL0     C 2243   9.544   3.359   5.365  0.2705 -0.3840  0.5280
   17MOL0     O 2244   9.648   3.362   5.271 -0.0694 -0.3903  0.2741
   17MOL0     C 2245   9.664   3.473   5.181 -0.3405 -1.0729  0.0138
   17MOL0     C 2246   9.766   3.452   5.071 -0.4607 -0.0144  0.7348
   17MOL0     C 2247   9.910   3.461   5.138  0.5824 -0.5258  0.3856
   17MOL0     C 2248   9.968   3.605   5.132  0.2924  0.0029 -0.1903
   17MOL0     C 2249   9.995   3.656   4.984  0.0190 -0.2511  0.1554
   17MOL0     C 2250  10.078   3.782   4.975 -0.2700 -1.0503  0.4956
   17MOL0     C 2251  10.083   3.833   4.827  0.4455  0.5172 -0.1160
   17MOL0     C 2252  10.130   3.725   4.728  0.1431  0.2235  0.6640
   17MOL0    Cl 2253  10.098   3.778   4.564  0.0755 -0.2337 -0.3006
   17MOL0     C 2254   9.544   3.253   5.458 -0.1675 -0.4781 -0.5942
   17MOL0     C 2255   9.440   3.227   5.538  0.4127  0.6151  0.5721
   17MOL0     O 2256   9.226   3.047   5.517  0.0580 -0.0891 -0.6490
   17MOL0     C 2257   8.935   3.194   5.607  0.7034 -0.0499 -0.8119
   17MOL0     C 2258   8.812   3.187   5.651 -0.2786 -0.0183  1.1396
   17MOL0     N 2259   8.252   2.653   5.989  0.2282  0.0215  0.4796
   17MOL0     N 2260   8.181   2.540   5.979  0.6382  0.9927 -1.0891
   17MOL0     C 2261   7.214   2.064   6.326 -0.8926  0.0579  0.0684
   17MOL0     C 2262   7.093   2.083   6.390  0.1757 -1.0611 -0.5231
   17MOL0     C 2263   6.679   2.229   6.481  0.9031 -0.4230  0.1489
   17MOL0     C 2264   6.592   2.193   6.376  0.2899 -0.7158 -0.1147
   17MOL0     C 2265   6.456   2.226   6.383 -1.2762 -0.5920  0.5023
   17MOL0     C 2266   6.403   2.292   6.489  0.0630 -0.1495 -0.0135
   17MOL0     O 2267   6.264   2.312   6.473  0.4601 -0.0368  0.2851
   17MOL0     C 2268   6.205   2.399   6.569  0.3241 -0.2106  0.1487
   17MOL0     C 2269   6.060   2.419   6.532 -0.2279 -0.4997  0.9574
   17MOL0     C 2270   6.005   2.543   6.623  0.1674  0.2692 -0.4754
   17MOL0     C 2271   5.863   2.584   6.603 -0.6782 -0.0092  0.1924
   17MOL0     C 2272   5.804   2.645   6.720 -0.9722  0.6908 -0.0031
   17MOL0     C 2273   5.764   2.680   6.826  0.6544  0.0315 -0.4030
   17MOL0     C 2274   6.494   2.332   6.591  0.4394 -0.2037 -0.7546
   17MOL0     C 2275   6.625   2.303   6.585 -1.4063  0.1048 -0.2613
   17MOL0     C 2276   6.702   2.350   6.703  0.5629  0.4025 -0.2588
   17MOL0     H 2277   6.892   2.013   6.118  0.5599  1.8873 -1.9034
   17MOL0     H 2278   7.077   2.038   6.013  1.1395 -0.5986 -0.2706
   17MOL0     H 2279   7.293   2.108   5.905 -3.8067 -1.5358 -0.4751
   17MOL0     H 2280   7.279   1.940   5.945 -0.5216  0.9005 -1.4363
   17MOL0     H 2281   7.544   2.007   6.027  2.2638 -0.2683 -1.5325
   17MOL0     H 2282   7.492   1.910   5.892  1.4188  0.1690  0.8123
   17MOL0     H 2283   7.645   2.052   5.802 -0.1312  0.8026 -1.1992
   17MOL0     H 2284   7.480   2.106   5.764  0.8467 -0.5869 -2.2584
   17MOL0     H 2285   7.506   2.306   5.822  0.8400  0.6349 -0.8648
   17MOL0     H 2286   7.556   2.260   5.989  0.7800 -1.3427 -0.4925
   17MOL0     H 2287   7.753   2.291   5.757 -0.5264  1.1445  0.1320
   17MOL0     H 2288   7.793   2.228   5.921  3.9916  2.6356 -1.4440
   17MOL0     H 2289   7.706   2.503   5.822  0.2346 -2.4244 -1.8673
   17MOL0     H 2290   7.654   2.456   5.992 -0.0685  1.5659  0.7469
   17MOL0     H 2291   7.883   2.429   6.045 -2.4433 -0.5371 -0.1230
   17MOL0     H 2292   7.842   2.593   5.993 -1.7055 -1.1865  1.0933
   17MOL0     H 2293   7.997   2.377   5.844 -0.3378 -0.6880 -0.3382
   17MOL0     H 2294   7.924   2.509   5.754  0.9301 -0.6078  0.4607
   17MOL0     H 2295   8.029   2.738   5.770  1.8935 -0.8336 -0.4235
   17MOL0     H 2296   8.317   2.911   5.962 -1.7315 -1.0733  1.4946
   17MOL0     H 2297   8.171   2.957   5.866  0.1486 -0.5091 -2.0103
   17MOL0     H 2298   8.396   2.776   5.754  2.9970  0.3442  3.0584
   17MOL0     H 2299   8.282   2.868   5.658 -0.5352  0.9404 -0.2021
   17MOL0     H 2300   8.442   3.012   5.628 -2.3634  2.8453  0.8951
   17MOL0     H 2301   8.398   3.076   5.785 -1.8351 -0.9863 -1.2294
   17MOL0     H 2302   8.572   2.934   5.877 -2.9477  0.4261 -0.1405
   17MOL0     H 2303   8.616   2.879   5.710 -2.7234 -2.1165  0.2929
   17MOL0     H 2304   8.836   2.884   5.790  0.6253 -0.2859  0.0033
   17MOL0     H 2305   9.129   2.822   5.628  1.5596 -2.1424  1.4456
   17MOL0     H 2306   9.046   2.787   5.783 -0.9883  1.4543  2.1201
   17MOL0     H 2307   9.180   2.905   5.777  0.4656 -0.0603 -0.7083
   17MOL0     H 2308   9.238   3.479   5.472 -0.4805 -0.5650  1.0532
   17MOL0     H 2309   9.420   3.530   5.306 -2.3614  2.2442  2.7829
   17MOL0     H 2310   9.569   3.505   5.137 -0.0470  0.7389  0.5904
   17MOL0     H 2311   9.697   3.560   5.239 -0.1765 -2.0138  1.3666
   17MOL0     H 2312   9.740   3.347   5.055  0.1827 -0.0908  0.1593
   17MOL0     H 2313   9.748   3.520   4.988  0.1090  1.0420  1.4648
   17MOL0     H 2314   9.980   3.399   5.081 -1.9127 -2.4396 -0.7615
   17MOL0     H 2315   9.922   3.429   5.241  1.6234 -0.4685  0.2984
   17MOL0     H 2316  10.064   3.593   5.183  1.2919 -3.3565 -2.4708
   17MOL0     H 2317   9.900   3.674   5.182 -0.5414 -1.5568  0.8974
   17MOL0     H 2318  10.058   3.575   4.947  1.0727  0.1567  0.9752
   17MOL0     H 2319   9.906   3.667   4.922 -0.5816  0.8950  1.1855
   17MOL0     H 2320  10.182   3.778   5.011 -1.0390  0.9810  3.2591
   17MOL0     H 2321  10.026   3.858   5.032  2.6780 -0.1128  2.1589
   17MOL0     H 2322  10.143   3.923   4.810 -1.1733  1.2137 -2.8751
   17MOL0     H 2323   9.982   3.865   4.799 -0.5120 -2.3761 -0.2535
   17MOL0     H 2324  10.076   3.631   4.743  0.5383  0.2240  2.2990
   17MOL0     H 2325  10.237   3.713   4.741  0.2539 -0.1013 -0.4695
   17MOL0     H 2326   9.630   3.187   5.472  0.1918  0.5550  3.1192
   17MOL0     H 2327   9.428   3.150   5.613 -1.5328 -0.5483 -0.8179
   17MOL0     H 2328   8.957   3.289   5.559  0.6327  1.1048  1.3277
   17MOL0     H 2329   8.737   3.263   5.630 -0.2951 -0.7363 -1.7781
   17MOL0     H 2330   7.307   2.056   6.382 -0.2866  0.1384 -0.9108
   17MOL0     H 2331   7.092   2.105   6.497 -0.2584  1.3399 -0.9727
   17MOL0     H 2332   6.622   2.140   6.286 -1.4332 -0.5153 -0.8457
   17MOL0     H 2333   6.388   2.188   6.308  0.1722 -2.8310  0.2067
   17MOL0     H 2334   6.218   2.361   6.670 -0.4510  0.5969  0.5645
   17MOL0     H 2335   6.251   2.498   6.562 -0.2654  0.0482 -0.1124
   17MOL0     H 2336   6.003   2.327   6.549 -2.5019  0.1368 -2.2437
   17MOL0     H 2337   6.054   2.451   6.427  2.9485  4.4822  1.9747
   17MOL0     H 2338   6.018   2.502   6.724  0.8803 -0.7610 -0.9765
   17MOL0     H 2339   6.073   2.626   6.603 -0.7378  1.0476 -0.4407
   17MOL0     H 2340   5.804   2.496   6.576 -0.9088  0.3126 -0.3794
   17MOL0     H 2341   5.853   2.652   6.518 -2.3499 -0.9845 -0.4420
   17MOL0     H 2342   5.737   2.712   6.924  3.4617  0.2487  0.3735
   17MOL0     H 2343   6.457   2.381   6.680  0.0577 -0.8748 -0.5381
   17MOL0     H 2344   6.711   2.459   6.705 -0.9781  0.5840 -1.6537
   17MOL0     H 2345   6.645   2.320   6.792  2.7828 -1.9044  0.5054
   17MOL0     H 2346   6.805   2.313   6.710  1.2335  2.4771  3.0661
   18MOL0     O 2347   5.863   2.839   8.683 -0.1397 -0.8164 -0.4631
   18MOL0     C 2348   5.897   2.870   8.569  0.4561  0.7838  0.0710
   18MOL0     O 2349   5.821   2.936   8.474 -0.8993  0.0024  0.4548
   18MOL0     C 2350   5.705   2.995   8.502  0.2146 -0.4134 -0.3722
   18MOL0     C 2351   5.659   3.048   8.630  0.6157  0.1005  0.7209
   18MOL0     C 2352   5.543   3.108   8.640 -1.0060  0.3508 -0.3072
   18MOL0     C 2353   5.468   3.134   8.523  1.3268 -0.4970  0.3780
   18MOL0     O 2354   5.349   3.207   8.524 -0.4939 -0.1440 -0.1403
   18MOL0     C 2355   5.300   3.248   8.650 -0.0096 -0.3400 -0.9695
   18MOL0     C 2356   5.154   3.297   8.635  0.3005 -0.2976 -0.0963
   18MOL0     C 2357   5.083   3.353   8.757  0.3893 -0.8730 -1.0893
   18MOL0     C 2358   4.974   3.250   8.801 -0.6199 -0.1294  1.4150
   18MOL0     C 2359   4.917   3.284   8.929  0.2325  0.5774 -0.2825
   18MOL0     C 2360   4.827   3.173   8.972 -0.3577 -0.0834 -0.2934
   18MOL0     C 2361   4.696   3.186   8.899 -0.2212 -0.5506 -0.6431
   18MOL0     C 2362   4.637   3.044   8.843  1.0717 -0.4465 -0.7597
   18MOL0     N 2363   4.532   3.058   8.743  0.5048 -0.0347 -0.9402
   18MOL0     C 2364   4.553   3.054   8.602 -0.1542  0.2561 -0.0181
   18MOL0     C 2365   4.427   3.035   8.551 -0.8629  0.1788  0.0951
   18MOL0     C 2366   4.388   3.010   8.409 -0.3517  0.2095  0.3230
   18MOL0     C 2367   4.459   2.870   8.368 -0.2367 -0.6184  0.7990
   18MOL0     C 2368   4.430   2.843   8.215  0.4880 -0.0869  0.2257
   18MOL0     C 2369   4.517   2.937   8.119  0.3245 -0.5757 -0.1779
   18MOL0     O 2370   4.478   3.067   8.104  0.0402  0.1124 -1.5692
   18MOL0     C 2371   4.362   3.101   8.037 -0.2737  0.4872  0.2683
   18MOL0     C 2372   4.321   3.238   8.047  0.2531 -1.4619 -0.0844
   18MOL0     C 2373   4.204   3.283   7.966 -0.6144 -0.1880  0.0897
   18MOL0     C 2374   4.154   3.424   7.993  1.1431  0.1431  0.0272
   18MOL0     C 2375   4.154   3.202   7.865  0.0925 -0.6327 -0.1905
   18MOL0     C 2376   4.054   3.241   7.758  1.0456 -0.5950  0.2022
   18MOL0     O 2377   3.995   3.138   7.678  0.2242 -0.1189  0.0175
   18MOL0     C 2378   3.926   3.149   7.563  0.3535 -0.2781 -0.0289
   18MOL0     C 2379   3.850   3.035   7.525 -0.8228 -0.7975 -0.6474
   18MOL0     C 2380   3.776   3.031   7.404  0.2029 -0.3051 -0.0135
   18MOL0     C 2381   3.766   3.142   7.323  0.2967 -0.0499  0.0005
   18MOL0     O 2382   3.698   3.114   7.210  0.7722  0.2513  0.1034
   18MOL0     C 2383   3.731   3.198   7.095 -0.4468 -0.6307  0.5934
   18MOL0     C 2384   3.670   3.158   6.962  0.0454  0.3206  0.1604
   18MOL0     C 2385   3.534   3.208   6.938 -0.2139 -0.6221  1.0384
   18MOL0     C 2386   3.420   3.133   6.998 -0.9291 -0.5171  0.1813
   18MOL0     C 2387   3.278   3.192   6.954 -0.2435 -0.1944  0.5518
   18MOL0     C 2388   3.265   3.340   6.979  0.0454 -0.5443 -0.2837
   18MOL0     C 2389   3.116   3.374   6.979 -0.2129 -0.2622 -0.1440
   18MOL0     C 2390   3.087   3.530   6.955  0.8884 -0.5552  0.0589
   18MOL0    Cl 2391   2.913   3.560   7.013  0.5305  0.1517  0.1057
   18MOL0     C 2392   3.849   3.249   7.355  0.7600 -1.2088 -0.2750
   18MOL0     C 2393   3.928   3.254   7.475  0.2939  0.1471  0.6367
   18MOL0     O 2394   4.016   3.360   7.748  0.0850  0.1276 -0.5587
   18MOL0     C 2395   4.192   3.060   7.873  0.1139 -0.2579  0.3438
   18MOL0     C 2396   4.287   3.011   7.960  0.1522 -0.1398  0.1123
   18MOL0     N 2397   4.342   3.038   8.660  0.1584  1.0501 -0.3966
   18MOL0     N 2398   4.402   3.059   8.774  0.0266 -0.0396 -0.0582
   18MOL0     C 2399   5.505   3.087   8.398  0.1167  0.1216  0.1377
   18MOL0     C 2400   5.624   3.014   8.393 -0.8264 -0.2320 -1.1166
   18MOL0     C 2401   6.029   2.830   8.524 -0.3343  0.0565  0.8999
   18MOL0     C 2402   6.080   2.898   8.401  1.7007 -0.9883 -0.6357
   18MOL0     C 2403   6.201   2.872   8.343 -0.6434 -0.1008 -0.9652
   18MOL0     C 2404   6.287   2.787   8.408 -0.2574  0.7377 -0.5627
   18MOL0     O 2405   6.413   2.785   8.363  0.2720 -0.6160  0.2164
   18MOL0     C 2406   6.520   2.715   8.422 -0.4864 -0.9259  0.4945
   18MOL0     C 2407   6.638   2.686   8.328 -0.4278  0.1434 -0.4377
   18MOL0     C 2408   6.746   2.796   8.310 -0.2937 -0.2206 -0.2825
   18MOL0     C 2409   6.876   2.761   8.245 -0.3127 -0.1872  0.6076
   18MOL0     C 2410   6.868   2.727   8.104  0.7127 -1.0143  0.5497
   18MOL0     C 2411   6.859   2.710   7.980  1.1621  0.4743 -0.3806
   18MOL0     C 2412   6.239   2.716   8.520 -0.0889 -0.4041  0.2872
   18MOL0     C 2413   6.109   2.730   8.579  0.6437  0.1528  0.8711
   18MOL0     C 2414   6.077   2.629   8.686 -0.0388 -0.7429 -0.1402
   18MOL0     H 2415   5.717   3.023   8.719  0.4721  0.4927  0.9267
   18MOL0     H 2416   5.510   3.135   8.740  0.8302  2.3519 -0.1619
   18MOL0     H 2417   5.370   3.326   8.681 -2.4326  1.3614  0.5844
   18MOL0     H 2418   5.303   3.162   8.717 -4.3664 -2.7227 -3.4291
   18MOL0     H 2419   5.149   3.384   8.568 -4.4869 -0.9347 -0.9205
   18MOL0     H 2420   5.089   3.225   8.585 -1.2448  2.1022 -1.7619
   18MOL0     H 2421   5.148   3.379   8.841 -0.2852 -1.3900 -0.3910
   18MOL0     H 2422   5.029   3.443   8.727 -1.5077 -0.9313  1.7120
   18MOL0     H 2423   4.907   3.248   8.714  1.0234 -1.4115  0.1077
   18MOL0     H 2424   5.024   3.153   8.802  1.7620  0.9684 -0.8368
   18MOL0     H 2425   4.858   3.376   8.930  0.4764  0.7504 -0.9429
   18MOL0     H 2426   4.995   3.296   9.005 -0.1819 -1.1476  0.4713
   18MOL0     H 2427   4.881   3.077   8.978 -3.0857 -1.6238  3.2501
   18MOL0     H 2428   4.807   3.195   9.077 -0.0492 -1.0699 -0.0149
   18MOL0     H 2429   4.702   3.255   8.814 -1.8413  0.1799 -0.1950
   18MOL0     H 2430   4.618   3.220   8.968 -0.9181 -3.3354  0.0632
   18MOL0     H 2431   4.716   3.000   8.781  0.6706  3.0481 -4.1451
   18MOL0     H 2432   4.598   2.988   8.928 -0.0241 -0.1453 -1.0554
   18MOL0     H 2433   4.635   3.093   8.542 -1.0348  1.3543 -0.5396
   18MOL0     H 2434   4.418   3.096   8.349 -0.1692  0.8950  1.3743
   18MOL0     H 2435   4.279   3.006   8.397 -0.3808  2.2864 -0.4017
   18MOL0     H 2436   4.567   2.889   8.369 -0.1294 -0.0785 -3.2231
   18MOL0     H 2437   4.434   2.780   8.424  0.6551 -0.5703  1.2906
   18MOL0     H 2438   4.442   2.737   8.192 -2.6457 -0.9706  2.1046
   18MOL0     H 2439   4.321   2.847   8.215  0.4562  0.6420  2.6158
   18MOL0     H 2440   4.620   2.946   8.157  0.3607  0.9489 -0.5862
   18MOL0     H 2441   4.523   2.893   8.019 -5.0284 -1.7829 -0.2513
   18MOL0     H 2442   4.374   3.302   8.117  0.4989 -1.8334  0.0682
   18MOL0     H 2443   4.176   3.483   7.904 -2.2022  1.3447 -0.1581
   18MOL0     H 2444   4.192   3.461   8.089 -1.3490  0.0961  1.1322
   18MOL0     H 2445   4.046   3.429   8.013  1.2549  0.5673  0.5591
   18MOL0     H 2446   3.859   2.949   7.591  1.9692 -1.2900 -1.5273
   18MOL0     H 2447   3.727   2.938   7.378 -1.9056  0.6056  0.5353
   18MOL0     H 2448   3.704   3.302   7.118  2.3482 -0.4749  4.2132
   18MOL0     H 2449   3.840   3.204   7.086 -0.5025 -1.7614 -1.0850
   18MOL0     H 2450   3.731   3.203   6.884  1.1753  2.1912  2.0097
   18MOL0     H 2451   3.666   3.048   6.958 -1.3873  0.2591  1.9360
   18MOL0     H 2452   3.518   3.218   6.831 -1.3573  0.9416  1.3192
   18MOL0     H 2453   3.526   3.312   6.972 -1.5223  0.2505 -1.6313
   18MOL0     H 2454   3.422   3.121   7.106  1.1233 -2.1321  0.0259
   18MOL0     H 2455   3.418   3.033   6.953 -0.7415 -1.2571  1.7350
   18MOL0     H 2456   3.255   3.172   6.849 -0.7998  2.0813  0.1856
   18MOL0     H 2457   3.197   3.135   7.001 -0.5550 -2.8433 -2.8162
   18MOL0     H 2458   3.310   3.391   6.893  1.6962  0.3392  1.0457
   18MOL0     H 2459   3.306   3.376   7.073 -0.1359 -0.0319 -0.3965
   18MOL0     H 2460   3.065   3.343   7.070  0.2702  1.1764  0.6483
   18MOL0     H 2461   3.067   3.326   6.894  1.1783 -0.1788 -1.0173
   18MOL0     H 2462   3.114   3.554   6.851 -3.2862  0.5133 -0.9649
   18MOL0     H 2463   3.151   3.594   7.017 -0.9456  0.4510  0.9871
   18MOL0     H 2464   3.836   3.337   7.293  1.5358 -1.9117 -1.4804
   18MOL0     H 2465   4.005   3.326   7.502  3.0621 -2.1181 -0.6369
   18MOL0     H 2466   4.148   2.999   7.796  0.3071 -0.5124  0.4323
   18MOL0     H 2467   4.312   2.905   7.958 -2.3098 -0.7762 -1.5631
   18MOL0     H 2468   5.443   3.096   8.309  2.3699  0.6667 -1.4596
   18MOL0     H 2469   5.661   2.974   8.299  2.7910  2.6991 -1.1726
   18MOL0     H 2470   6.011   2.969   8.357  0.6515  0.8770  3.5162
   18MOL0     H 2471   6.223   2.926   8.251 -3.8301  0.4040 -1.5658
   18MOL0     H 2472   6.559   2.776   8.503  1.4788  0.1616 -1.1610
   18MOL0     H 2473   6.491   2.622   8.472 -0.1811 -1.4639 -0.3106
   18MOL0     H 2474   6.602   2.657   8.229 -0.9978  2.7301 -1.0592
   18MOL0     H 2475   6.694   2.604   8.374 -1.9074  0.6236  2.4089
   18MOL0     H 2476   6.693   2.877   8.260  0.7635  0.6405 -0.0351
   18MOL0     H 2477   6.768   2.840   8.408 -0.9194  0.7481 -0.5688
   18MOL0     H 2478   6.939   2.688   8.296  1.9549 -0.3516 -2.1666
   18MOL0     H 2479   6.924   2.860   8.239 -0.1718 -0.2809  0.0846
   18MOL0     H 2480   6.848   2.689   7.875 -0.3897  2.7468 -0.7712
   18MOL0     H 2481   6.315   2.654   8.567  2.2712  2.1740  0.1798
   18MOL0     H 2482   6.060   2.685   8.779  0.5435  1.3014 -1.1993
   18MOL0     H 2483   5.985   2.575   8.664 -0.2762 -0.9188  1.1999
   18MOL0     H 2484   6.157   2.558   8.709  0.5317  0.0435  0.3652
   19MOL0     O 2485   9.495   2.474   6.987  0.1326 -0.3099  0.9531
   19MOL0     C 2486   9.444   2.469   6.874 -0.4591  0.1849  0.4852
   19MOL0     O 2487   9.465   2.566   6.778  0.1740  0.2005 -0.6295
   19MOL0     C 2488   9.554   2.666   6.791 -0.2904  0.1133  0.2992
   19MOL0     C 2489   9.528   2.791   6.731  0.6176  0.6366 -1.4551
   19MOL0     C 2490   9.626   2.897   6.726 -0.5505 -0.1118 -0.3350
   19MOL0     C 2491   9.754   2.875   6.779 -0.1418 -0.3119  0.3305
   19MOL0     O 2492   9.853   2.972   6.798 -0.1914  0.4859 -0.5230
   19MOL0     C 2493   9.834   3.088   6.710 -0.1816  0.8439 -0.0098
   19MOL0     C 2494   9.962   3.170   6.727  1.3180  0.1396 -0.2504
   19MOL0     C 2495   9.953   3.300   6.635  0.1371 -0.0127  0.4100
   19MOL0     C 2496  10.075   3.392   6.651 -0.2212  0.9545  0.2012
   19MOL0     C 2497  10.066   3.521   6.587  0.9441  0.7350  0.4347
   19MOL0     C 2498  10.168   3.634   6.611  0.1290  0.9554  0.2845
   19MOL0     C 2499  10.126   3.775   6.581  0.6958  0.8997 -1.0436
   19MOL0     C 2500  10.088   3.812   6.438  0.5154  0.1052  0.0596
   19MOL0     N 2501  10.197   3.787   6.351  1.2506  0.3077  0.1699
   19MOL0     C 2502  10.280   3.886   6.307  0.4723  0.2958  0.1933
   19MOL0     C 2503  10.342   3.826   6.199  0.5556 -0.8052  0.0172
   19MOL0     C 2504  10.442   3.897   6.111  0.4428  0.2665  0.6654
   19MOL0     C 2505  10.585   3.892   6.160 -0.1442 -0.4483  0.9754
   19MOL0     C 2506  10.682   3.924   6.045 -1.1289  0.6702  0.1452
   19MOL0     C 2507  10.828   3.913   6.094  0.7178  0.3308  0.4708
   19MOL0     O 2508  10.855   4.002   6.202 -0.1508  0.6098  0.2480
   19MOL0     C 2509  10.863   4.140   6.184 -0.4840  0.3348  0.6021
   19MOL0     C 2510  10.881   4.218   6.297 -0.4169 -0.0423 -0.3008
   19MOL0     C 2511  10.911   4.356   6.278 -0.6642 -0.0122  0.8218
   19MOL0     C 2512  10.946   4.428   6.405  0.5436 -0.9976 -0.1726
   19MOL0     C 2513  10.898   4.418   6.152 -0.8063  0.4788  0.4330
   19MOL0     C 2514  10.906   4.563   6.127  0.0074  0.0582  0.4143
   19MOL0     O 2515  11.016   4.630   6.187 -0.0075  0.3256  0.4885
   19MOL0     C 2516  11.053   4.751   6.128 -0.1579 -0.3971  0.0716
   19MOL0     C 2517  11.042   4.875   6.208 -0.3835 -0.1648 -0.3126
   19MOL0     C 2518  11.066   4.999   6.150 -0.3078 -0.6943 -0.0408
   19MOL0     C 2519  11.110   5.009   6.019  0.1228  0.2236  0.4506
   19MOL0     O 2520  11.139   5.130   5.959 -0.5622 -0.2609  0.0967
   19MOL0     C 2521  11.056   5.244   5.991  0.8232  0.9171 -0.3698
   19MOL0     C 2522  11.099   5.367   5.909  0.9173 -0.7089 -0.5679
   19MOL0     C 2523  11.022   5.376   5.773  0.4037  0.2018  0.1445
   19MOL0     C 2524  11.071   5.497   5.682  0.3562 -0.5548 -0.4159
   19MOL0     C 2525  11.208   5.485   5.627  0.1072  0.0378  0.3693
   19MOL0     C 2526  11.226   5.374   5.520 -0.4335 -0.0427  0.4390
   19MOL0     C 2527  11.209   5.416   5.373  0.7632  0.3123  0.6269
   19MOL0     C 2528  11.229   5.293   5.282  0.6042  0.5122  0.0572
   19MOL0    Cl 2529  11.218   5.314   5.103  0.0796 -0.1226 -0.1899
   19MOL0     C 2530  11.131   4.887   5.954 -0.5341  0.0137  0.4642
   19MOL0     C 2531  11.099   4.757   5.994  0.8165  0.3114  0.0788
   19MOL0     O 2532  10.825   4.615   6.050 -0.7886  0.1871 -0.1454
   19MOL0     C 2533  10.876   4.345   6.039 -0.2939  1.4290 -0.4409
   19MOL0     C 2534  10.862   4.202   6.053 -0.3551  0.0123 -0.1476
   19MOL0     N 2535  10.291   3.697   6.176  0.8779 -0.4833 -0.8925
   19MOL0     N 2536  10.207   3.672   6.282 -0.1330  0.0893 -0.1229
   19MOL0     C 2537   9.777   2.743   6.830 -0.7462 -1.4848  0.2661
   19MOL0     C 2538   9.685   2.643   6.840  0.2102 -1.0100  0.2410
   19MOL0     C 2539   9.339   2.369   6.849 -0.4066  0.2644  0.7500
   19MOL0     C 2540   9.373   2.239   6.845  0.7481  0.4298 -0.1575
   19MOL0     C 2541   9.279   2.134   6.840  0.0949 -0.2876  0.1534
   19MOL0     C 2542   9.142   2.166   6.833  0.3185  0.5095 -0.5964
   19MOL0     O 2543   9.047   2.063   6.818 -1.1078  0.2102 -1.1558
   19MOL0     C 2544   9.041   1.959   6.918 -0.6024  0.4169 -0.7265
   19MOL0     C 2545   8.918   1.863   6.894  1.6456 -0.4140 -0.3280
   19MOL0     C 2546   8.792   1.960   6.874 -0.3400  0.5150 -0.5642
   19MOL0     C 2547   8.769   2.050   6.979  0.3942 -0.3827 -0.8799
   19MOL0     C 2548   8.657   2.126   6.945  0.5963  0.0196  0.8693
   19MOL0     C 2549   8.551   2.181   6.924 -0.1973 -0.2252 -0.1217
   19MOL0     C 2550   9.100   2.300   6.821  0.9962  0.3589 -0.8508
   19MOL0     C 2551   9.200   2.399   6.836  0.2217  0.1145  0.4199
   19MOL0     C 2552   9.155   2.547   6.834  0.2448  0.8090 -0.9211
   19MOL0     H 2553   9.428   2.801   6.689  0.7032  0.7928 -1.6252
   19MOL0     H 2554   9.612   2.989   6.671  3.5848  0.3621 -0.8845
   19MOL0     H 2555   9.756   3.157   6.742  0.3899  2.3937 -1.7410
   19MOL0     H 2556   9.814   3.059   6.606 -2.0575  0.2175  0.4908
   19MOL0     H 2557   9.961   3.206   6.830  1.9315  0.2864 -0.2940
   19MOL0     H 2558  10.051   3.112   6.700  0.6724 -1.5470  1.0810
   19MOL0     H 2559   9.936   3.286   6.528 -2.5004 -1.0376  0.8971
   19MOL0     H 2560   9.863   3.349   6.672 -1.7114 -2.6854 -0.2217
   19MOL0     H 2561  10.089   3.403   6.759 -2.3968  0.0609  0.6347
   19MOL0     H 2562  10.163   3.338   6.617  0.4151  1.8609  0.3628
   19MOL0     H 2563   9.974   3.564   6.628 -0.8295 -4.2204  2.4257
   19MOL0     H 2564  10.059   3.504   6.479 -1.1993  1.3311  0.4307
   19MOL0     H 2565  10.179   3.631   6.719 -0.4745 -0.0255  0.3387
   19MOL0     H 2566  10.265   3.617   6.562 -1.0076 -1.4527 -1.3555
   19MOL0     H 2567  10.202   3.843   6.621  0.5345  0.5446 -0.1387
   19MOL0     H 2568  10.041   3.796   6.646  0.1937 -0.9238 -1.0619
   19MOL0     H 2569  10.003   3.751   6.405 -0.8967  1.0528  1.7381
   19MOL0     H 2570  10.066   3.919   6.429  0.3252  0.1899  1.3418
   19MOL0     H 2571  10.295   3.979   6.361  1.9295 -1.2029  2.5814
   19MOL0     H 2572  10.414   4.002   6.100 -3.0437 -0.6493 -0.2765
   19MOL0     H 2573  10.445   3.850   6.011  2.1048  1.3696  0.1490
   19MOL0     H 2574  10.594   3.975   6.231  1.2979  0.9224 -0.7178
   19MOL0     H 2575  10.612   3.798   6.210  0.3496  0.3444  2.2635
   19MOL0     H 2576  10.654   3.863   5.958 -1.1842  0.6430  0.1816
   19MOL0     H 2577  10.666   4.026   6.012  0.4361  1.1138  0.6619
   19MOL0     H 2578  10.839   3.810   6.128 -3.1637 -1.3809 -2.6458
   19MOL0     H 2579  10.891   3.927   6.006 -0.1050  1.2730  0.0113
   19MOL0     H 2580  10.878   4.186   6.401 -2.4092  2.7185  0.6142
   19MOL0     H 2581  10.931   4.535   6.385  1.1082 -1.6169 -5.3949
   19MOL0     H 2582  11.050   4.402   6.427  0.3466 -1.9307 -0.3418
   19MOL0     H 2583  10.870   4.409   6.481  0.7818  2.2973  1.0559
   19MOL0     H 2584  11.003   4.870   6.309 -0.2774  0.2828 -0.2479
   19MOL0     H 2585  11.056   5.090   6.207  1.7715  0.9680 -2.1526
   19MOL0     H 2586  10.951   5.220   5.972  1.3053 -1.2390 -0.6155
   19MOL0     H 2587  11.062   5.270   6.097  0.0482  2.8723 -0.7572
   19MOL0     H 2588  11.066   5.449   5.974 -2.2435 -0.4326 -2.3166
   19MOL0     H 2589  11.208   5.379   5.903  0.8425 -0.6842 -2.4769
   19MOL0     H 2590  10.914   5.383   5.790  0.3910  1.4847 -0.4081
   19MOL0     H 2591  11.038   5.285   5.713 -1.5888  0.2679 -0.5620
   19MOL0     H 2592  11.064   5.592   5.734  0.9819  0.5163 -2.1803
   19MOL0     H 2593  10.998   5.497   5.600  2.1844 -0.8947 -2.1282
   19MOL0     H 2594  11.232   5.578   5.575 -1.0665  0.5373  0.6810
   19MOL0     H 2595  11.282   5.473   5.706 -0.1319  0.9722  0.7426
   19MOL0     H 2596  11.160   5.291   5.548 -0.2231 -0.1370  0.6641
   19MOL0     H 2597  11.328   5.336   5.536 -0.7970 -2.1912 -1.7407
   19MOL0     H 2598  11.288   5.488   5.352  3.2608 -1.8099  2.2243
   19MOL0     H 2599  11.112   5.465   5.362  0.2251 -0.8147  0.0901
   19MOL0     H 2600  11.152   5.218   5.305  1.3102 -0.9084 -1.9257
   19MOL0     H 2601  11.329   5.255   5.304 -0.3779 -2.2602  0.1167
   19MOL0     H 2602  11.169   4.896   5.853  1.1868  1.6838  1.2119
   19MOL0     H 2603  11.100   4.669   5.931 -1.9947  1.3604 -1.6042
   19MOL0     H 2604  10.873   4.385   5.938 -2.5496 -0.2417 -1.0948
   19MOL0     H 2605  10.854   4.148   5.959  1.2099 -0.1434 -0.2266
   19MOL0     H 2606   9.875   2.724   6.873  0.7851  4.3077  0.1589
   19MOL0     H 2607   9.715   2.543   6.870  2.2938 -0.8480 -1.0874
   19MOL0     H 2608   9.477   2.208   6.853  1.1332  1.9356  1.1826
   19MOL0     H 2609   9.309   2.030   6.837  0.0801 -0.3607  1.6371
   19MOL0     H 2610   9.125   1.889   6.916 -1.2322 -0.3343 -2.0735
   19MOL0     H 2611   9.035   1.993   7.022 -5.9737 -0.9507 -0.3282
   19MOL0     H 2612   8.884   1.791   6.969 -0.7129  2.0789  1.2022
   19MOL0     H 2613   8.935   1.803   6.804  0.3598 -1.5828  0.1745
   19MOL0     H 2614   8.808   2.006   6.775  4.4117  3.0664  1.0888
   19MOL0     H 2615   8.712   1.887   6.862  0.2433 -0.0420 -1.1351
   19MOL0     H 2616   8.852   2.118   7.000 -1.6151  1.4605  1.7738
   19MOL0     H 2617   8.749   1.996   7.072  1.9597 -0.9044 -0.8002
   19MOL0     H 2618   8.455   2.216   6.891  0.2629 -0.0970 -1.4038
   19MOL0     H 2619   8.995   2.326   6.812  0.9258  1.4296  1.9503
   19MOL0     H 2620   9.225   2.606   6.774 -1.7861  4.6298  0.1039
   19MOL0     H 2621   9.056   2.547   6.788 -0.6946 -0.6200  0.9648
   19MOL0     H 2622   9.162   2.593   6.934  2.2519  0.1640 -0.7168
   20MOL0     O 2623   6.028   4.326   2.359 -0.0133  0.4146 -0.1405
   20MOL0     C 2624   6.098   4.237   2.308  0.3969  0.6272  0.2171
   20MOL0     O 2625   6.230   4.229   2.299 -0.2382  0.2710 -0.7176
   20MOL0     C 2626   6.321   4.325   2.342  0.0236 -0.2408 -1.3196
   20MOL0     C 2627   6.404   4.379   2.245  0.9069 -0.1055  0.6736
   20MOL0     C 2628   6.499   4.478   2.277 -0.2915  0.0540  0.6083
   20MOL0     C 2629   6.523   4.515   2.407  0.1074 -0.3630 -0.0479
   20MOL0     O 2630   6.631   4.599   2.441 -0.0997 -0.1586 -0.2368
   20MOL0     C 2631   6.690   4.582   2.572  0.4628 -0.0906  0.5391
   20MOL0     C 2632   6.816   4.671   2.563 -1.0851  1.0352 -0.1591
   20MOL0     C 2633   6.916   4.613   2.462 -1.0298 -0.0718  0.8100
   20MOL0     C 2634   7.027   4.719   2.454 -0.7859 -0.9160  0.2084
   20MOL0     C 2635   7.121   4.674   2.339 -0.4016  0.4641  0.5334
   20MOL0     C 2636   7.258   4.729   2.360  0.5294  0.7778  0.6394
   20MOL0     C 2637   7.368   4.682   2.259 -0.6236  0.2617 -0.6088
   20MOL0     C 2638   7.491   4.763   2.284  1.1035 -0.1392  0.0292
   20MOL0     N 2639   7.568   4.736   2.406  0.3015  0.6842 -1.0894
   20MOL0     C 2640   7.637   4.624   2.445  0.2079 -0.3687 -0.5719
   20MOL0     C 2641   7.687   4.648   2.568  0.0264  0.4670 -0.1267
   20MOL0     C 2642   7.775   4.556   2.650  0.7130  0.5203  0.3342
   20MOL0     C 2643   7.687   4.492   2.762  0.0128 -0.1250  0.1313
   20MOL0     C 2644   7.779   4.420   2.863 -1.2128  0.0666 -0.0516
   20MOL0     C 2645   7.712   4.357   2.992 -0.8548 -0.3979 -0.2430
   20MOL0     O 2646   7.624   4.450   3.061 -0.2489 -0.1354  0.0674
   20MOL0     C 2647   7.518   4.410   3.131  0.3610 -0.2380  0.0146
   20MOL0     C 2648   7.460   4.502   3.211 -1.3619  0.8399 -0.5745
   20MOL0     C 2649   7.359   4.473   3.295  0.6016  0.2833 -0.1757
   20MOL0     C 2650   7.350   4.563   3.414  0.2621  0.4714  0.5984
   20MOL0     C 2651   7.278   4.351   3.277 -0.4965 -0.2336 -0.6562
   20MOL0     C 2652   7.161   4.312   3.367 -0.1571 -0.8568 -1.1277
   20MOL0     O 2653   7.105   4.398   3.457 -0.5886  1.0776 -0.1579
   20MOL0     C 2654   6.994   4.360   3.527 -0.1962 -0.2850 -0.1279
   20MOL0     C 2655   6.862   4.362   3.465 -0.9143  0.1667  0.4034
   20MOL0     C 2656   6.743   4.327   3.530 -0.8462 -0.5232  0.0618
   20MOL0     C 2657   6.763   4.278   3.661  0.3609 -0.3055  0.4320
   20MOL0     O 2658   6.656   4.232   3.734  0.7979  0.3427  0.0591
   20MOL0     C 2659   6.531   4.304   3.736 -0.1720 -0.3953  0.1394
   20MOL0     C 2660   6.434   4.220   3.815  0.5303 -0.5043  0.1807
   20MOL0     C 2661   6.391   4.103   3.724 -0.2153  1.4979 -0.5491
   20MOL0     C 2662   6.267   4.039   3.797  0.0401 -0.9235 -0.1405
   20MOL0     C 2663   6.254   3.896   3.770 -0.0720  0.8272  0.2287
   20MOL0     C 2664   6.197   3.884   3.624 -0.8145 -0.3072 -0.0294
   20MOL0     C 2665   6.201   3.739   3.581  0.2586  0.2184 -0.0201
   20MOL0     C 2666   6.092   3.657   3.638  0.5947 -0.1207 -0.9397
   20MOL0    Cl 2667   5.942   3.732   3.565 -0.0382  0.3494  0.3544
   20MOL0     C 2668   6.884   4.289   3.725 -0.6516  0.1700 -0.0071
   20MOL0     C 2669   7.004   4.333   3.658  0.8026 -0.8711 -0.8099
   20MOL0     O 2670   7.123   4.190   3.355 -0.6791 -0.3222 -0.1857
   20MOL0     C 2671   7.327   4.257   3.184 -0.1132 -0.6140 -0.0784
   20MOL0     C 2672   7.449   4.288   3.113  0.3910 -0.9262 -0.1281
   20MOL0     N 2673   7.634   4.773   2.609 -0.1750  0.1677  0.7894
   20MOL0     N 2674   7.551   4.810   2.514  0.0593  0.5216 -0.2361
   20MOL0     C 2675   6.443   4.455   2.501  0.7649  0.0279  0.0662
   20MOL0     C 2676   6.343   4.364   2.469 -0.0174 -0.0553  0.6384
   20MOL0     C 2677   6.034   4.113   2.274  0.5094 -0.9853 -0.2413
   20MOL0     C 2678   6.069   4.077   2.149  0.2230 -0.1275  1.4022
   20MOL0     C 2679   6.010   3.959   2.106 -0.1204 -0.7866  0.4898
   20MOL0     C 2680   5.919   3.881   2.182  0.4932 -0.7312 -0.1437
   20MOL0     O 2681   5.862   3.766   2.152 -0.4129 -0.3577  0.2496
   20MOL0     C 2682   5.923   3.674   2.056 -0.1141 -0.4469 -0.3290
   20MOL0     C 2683   5.812   3.584   2.024 -0.4374 -0.1709  0.3016
   20MOL0     C 2684   5.754   3.508   2.150 -0.1021  0.5326 -0.2288
   20MOL0     C 2685   5.709   3.362   2.108 -0.7595 -0.2941 -0.2956
   20MOL0     C 2686   5.693   3.292   2.238 -0.2193 -0.3886  0.2862
   20MOL0     C 2687   5.658   3.233   2.327  0.1872  0.1012 -0.3446
   20MOL0     C 2688   5.897   3.930   2.310  0.0424 -0.5956 -0.2759
   20MOL0     C 2689   5.952   4.043   2.358 -0.0951 -0.2333 -0.4097
   20MOL0     C 2690   5.900   4.095   2.489  0.4352  0.4754  1.2485
   20MOL0     H 2691   6.404   4.341   2.144 -2.5827 -2.8868  1.5268
   20MOL0     H 2692   6.558   4.524   2.199 -1.3919 -2.3773 -1.8369
   20MOL0     H 2693   6.712   4.477   2.593  0.7779 -0.2297 -0.4194
   20MOL0     H 2694   6.617   4.626   2.640 -0.7453 -0.2361 -0.6339
   20MOL0     H 2695   6.794   4.774   2.534 -1.8756  0.5265 -1.4504
   20MOL0     H 2696   6.867   4.678   2.660  0.9661  1.0647 -1.1956
   20MOL0     H 2697   6.957   4.518   2.496  1.4580  1.1258  1.3968
   20MOL0     H 2698   6.869   4.601   2.364 -0.5687  3.2311  0.0580
   20MOL0     H 2699   6.985   4.809   2.408  0.9597 -0.1751 -0.0010
   20MOL0     H 2700   7.079   4.736   2.549 -2.2576  0.6819  0.7866
   20MOL0     H 2701   7.089   4.689   2.236  1.1657  0.1305 -0.0418
   20MOL0     H 2702   7.132   4.565   2.336 -0.0004  0.5132 -0.2284
   20MOL0     H 2703   7.245   4.837   2.347 -1.4468  0.5640  0.5003
   20MOL0     H 2704   7.291   4.709   2.462 -1.5695 -1.8143  0.9066
   20MOL0     H 2705   7.336   4.702   2.156  0.3266  0.1847 -0.9286
   20MOL0     H 2706   7.388   4.574   2.260 -0.7330  0.2382  0.4500
   20MOL0     H 2707   7.550   4.740   2.195  0.6024 -1.6004  0.0516
   20MOL0     H 2708   7.471   4.870   2.286 -0.4450 -0.2565 -3.4630
   20MOL0     H 2709   7.651   4.526   2.402  3.6631 -2.3030  4.0796
   20MOL0     H 2710   7.854   4.623   2.684  2.8929 -0.1983 -2.8798
   20MOL0     H 2711   7.829   4.481   2.591  1.8258  1.8480 -0.3988
   20MOL0     H 2712   7.622   4.559   2.818 -1.0168 -1.1729  0.2184
   20MOL0     H 2713   7.625   4.412   2.721  2.3702 -1.1370 -1.7104
   20MOL0     H 2714   7.840   4.344   2.814  1.4497  0.6913  2.0383
   20MOL0     H 2715   7.856   4.496   2.882 -2.0532  1.4267 -1.7316
   20MOL0     H 2716   7.648   4.274   2.958 -1.6515 -0.8212  2.1366
   20MOL0     H 2717   7.782   4.314   3.064 -0.9526 -0.3760 -0.1349
   20MOL0     H 2718   7.529   4.586   3.217  1.4504 -1.4455  3.0226
   20MOL0     H 2719   7.432   4.635   3.419 -0.9435  1.9041  0.3414
   20MOL0     H 2720   7.353   4.505   3.506 -3.2349 -0.2740  0.3733
   20MOL0     H 2721   7.254   4.614   3.404  0.1084  0.0485 -0.2348
   20MOL0     H 2722   6.868   4.408   3.367 -0.0704  3.3562  1.8285
   20MOL0     H 2723   6.648   4.334   3.478 -0.7806 -0.8603 -0.1083
   20MOL0     H 2724   6.552   4.399   3.786  2.5607 -0.5710 -0.5469
   20MOL0     H 2725   6.502   4.331   3.634  1.1124  1.9962  0.3493
   20MOL0     H 2726   6.466   4.196   3.917 -2.2182 -1.0383  0.9975
   20MOL0     H 2727   6.352   4.290   3.832  2.0436  1.2620  0.5131
   20MOL0     H 2728   6.466   4.025   3.710  0.2607  0.8618  4.0305
   20MOL0     H 2729   6.362   4.140   3.625  0.0264  3.6635  0.1461
   20MOL0     H 2730   6.178   4.097   3.772  1.6591  0.9768 -1.9455
   20MOL0     H 2731   6.273   4.051   3.905  1.5658  3.2763 -0.5136
   20MOL0     H 2732   6.348   3.840   3.772 -1.5332 -1.8061  1.2655
   20MOL0     H 2733   6.187   3.852   3.845  1.0949 -0.0215  0.8007
   20MOL0     H 2734   6.267   3.933   3.556  0.8253 -2.2607  0.1521
   20MOL0     H 2735   6.099   3.930   3.610 -1.0128 -0.8868 -0.5790
   20MOL0     H 2736   6.299   3.694   3.599 -0.4109 -2.4211 -2.1768
   20MOL0     H 2737   6.189   3.748   3.473 -1.4772  0.8924  0.2031
   20MOL0     H 2738   6.089   3.662   3.747  1.0889 -2.0959 -0.8012
   20MOL0     H 2739   6.105   3.552   3.613 -1.7547 -0.8359  0.5723
   20MOL0     H 2740   6.894   4.257   3.828 -0.4689  1.0889  0.2727
   20MOL0     H 2741   7.103   4.335   3.702 -0.1161 -4.5141  1.9617
   20MOL0     H 2742   7.284   4.159   3.164  0.0699 -0.8991  0.8884
   20MOL0     H 2743   7.487   4.209   3.049  0.0052 -0.9730 -0.3015
   20MOL0     H 2744   6.443   4.475   2.608 -2.1660 -0.4838  0.2370
   20MOL0     H 2745   6.300   4.312   2.554  1.3331 -3.9954 -0.8511
   20MOL0     H 2746   6.127   4.143   2.084 -0.5285 -1.0326 -0.2314
   20MOL0     H 2747   6.033   3.916   2.009  2.2941 -2.7602  1.7996
   20MOL0     H 2748   5.958   3.733   1.971 -2.6902  1.7087 -0.0505
   20MOL0     H 2749   6.005   3.620   2.104  0.6213  1.7125  1.0019
   20MOL0     H 2750   5.857   3.507   1.961  0.3470 -0.1237  0.7859
   20MOL0     H 2751   5.732   3.630   1.966  2.1804  1.3165 -2.3808
   20MOL0     H 2752   5.842   3.486   2.212 -0.8464 -3.2764 -0.2880
   20MOL0     H 2753   5.664   3.558   2.187 -3.1554 -0.4852 -5.3183
   20MOL0     H 2754   5.798   3.317   2.064  0.2229 -2.9245  3.7841
   20MOL0     H 2755   5.625   3.365   2.038  1.5465 -1.0996 -3.3132
   20MOL0     H 2756   5.630   3.171   2.410 -3.0320 -0.4807 -1.7119
   20MOL0     H 2757   5.837   3.868   2.376 -1.4949 -2.4818 -3.2209
   20MOL0     H 2758   5.861   4.007   2.540 -0.3832 -1.6983 -2.7047
   20MOL0     H 2759   5.982   4.139   2.547  2.1511  1.6804 -1.8564
   20MOL0     H 2760   5.825   4.172   2.467  0.1137 -0.2932 -0.4893
   21MOL0     O 2761   3.312   1.048  10.725  0.2826 -0.1384  0.1818
   21MOL0     C 2762   3.349   0.984  10.620 -1.1047  0.0899 -0.4951
   21MOL0     O 2763   3.334   0.843  10.604 -0.0324  0.1750 -0.8875
   21MOL0     C 2764   3.282   0.754  10.701 -1.0322  0.1291  0.2833
   21MOL0     C 2765   3.162   0.698  10.658 -0.2358  0.6601 -0.6950
   21MOL0     C 2766   3.100   0.602  10.742  0.7211 -0.3380 -0.0170
   21MOL0     C 2767   3.149   0.570  10.869  0.9695  0.2614  0.1267
   21MOL0     O 2768   3.096   0.483  10.962  0.4327 -0.1693 -1.0577
   21MOL0     C 2769   2.965   0.419  10.932  0.3239 -0.8707  0.3243
   21MOL0     C 2770   2.926   0.320  11.045  0.5735 -0.1599 -0.2089
   21MOL0     C 2771   2.934   0.384  11.184  0.3680  0.0724  0.5058
   21MOL0     C 2772   2.930   0.278  11.297  0.4086 -0.5727  0.8498
   21MOL0     C 2773   2.898   0.345  11.430 -0.3836 -0.1958 -0.4097
   21MOL0     C 2774   3.010   0.436  11.492  0.7671 -0.1319  0.1461
   21MOL0     C 2775   3.151   0.366  11.531 -0.0917 -0.7554  0.0331
   21MOL0     C 2776   3.232   0.438  11.639 -0.3316 -0.5104 -0.9269
   21MOL0     N 2777   3.357   0.358  11.665  1.0152 -0.1894  0.2164
   21MOL0     C 2778   3.440   0.305  11.565  0.3241 -1.0273 -0.0487
   21MOL0     C 2779   3.561   0.300  11.630 -1.2355  0.7002 -0.1063
   21MOL0     C 2780   3.686   0.250  11.567  0.1109 -0.2395  0.2411
   21MOL0     C 2781   3.721   0.108  11.635 -0.9495 -0.5716  0.3980
   21MOL0     C 2782   3.628  -0.010  11.607  0.3796 -1.4328 -0.1368
   21MOL0     C 2783   3.620  -0.044  11.456 -0.4312 -1.0422 -0.5950
   21MOL0     O 2784   3.743  -0.026  11.386  0.1107  0.6216  0.4070
   21MOL0     C 2785   3.843  -0.127  11.386  0.9771 -0.1695 -0.5011
   21MOL0     C 2786   3.951  -0.096  11.298 -0.4501  0.7754  0.1574
   21MOL0     C 2787   4.059  -0.189  11.296 -0.2845  0.2841  1.0340
   21MOL0     C 2788   4.170  -0.142  11.197 -0.4618 -0.1090  0.0575
   21MOL0     C 2789   4.051  -0.318  11.361 -0.8356 -0.6201  0.2548
   21MOL0     C 2790   4.160  -0.428  11.339  0.3900 -0.5087  0.4773
   21MOL0     O 2791   4.249  -0.422  11.234  0.0341  0.5589 -0.3446
   21MOL0     C 2792   4.304  -0.537  11.170  0.0358 -0.3587 -0.1341
   21MOL0     C 2793   4.246  -0.661  11.169 -0.8693 -0.3902 -0.2011
   21MOL0     C 2794   4.297  -0.768  11.097 -0.2196 -0.5672  0.0774
   21MOL0     C 2795   4.406  -0.741  11.015  0.1615  0.6628  0.4827
   21MOL0     O 2796   4.451  -0.852  10.945  0.0006 -0.0841  0.5490
   21MOL0     C 2797   4.493  -0.830  10.811 -0.3670 -0.7972 -0.7770
   21MOL0     C 2798   4.514  -0.956  10.730 -0.3852  0.3244 -0.6969
   21MOL0     C 2799   4.628  -1.050  10.775 -0.3312  0.0087 -0.2768
   21MOL0     C 2800   4.664  -1.062  10.931  0.9555  0.8561  0.2261
   21MOL0     C 2801   4.764  -1.167  10.944  0.0507  1.2113 -0.4457
   21MOL0     C 2802   4.818  -1.152  11.090 -0.3871 -0.7490  0.5478
   21MOL0     C 2803   4.906  -1.273  11.135 -0.2168  0.7868 -0.1933
   21MOL0     C 2804   5.021  -1.301  11.044  0.6034 -0.4534 -0.1458
   21MOL0    Cl 2805   5.132  -1.166  11.009  0.0905 -0.1409  0.0607
   21MOL0     C 2806   4.472  -0.623  11.025  0.3450 -1.2108  0.9263
   21MOL0     C 2807   4.423  -0.520  11.091  0.1961 -1.1206 -0.4119
   21MOL0     O 2808   4.149  -0.526  11.415 -0.9908 -0.9613 -0.1467
   21MOL0     C 2809   3.952  -0.331  11.449 -0.9442 -0.3425 -0.7338
   21MOL0     C 2810   3.843  -0.242  11.457  0.4123  0.5961 -0.3375
   21MOL0     N 2811   3.548   0.352  11.755  0.1832  0.1765 -0.1705
   21MOL0     N 2812   3.428   0.388  11.778 -0.6144  0.3282  0.5548
   21MOL0     C 2813   3.269   0.637  10.910  0.4833  0.3601 -0.2900
   21MOL0     C 2814   3.332   0.736  10.828  0.2278  1.1970 -0.0238
   21MOL0     C 2815   3.421   1.065  10.517 -0.3451  0.7397  0.3724
   21MOL0     C 2816   3.528   1.144  10.559  0.6542 -0.1250  0.0108
   21MOL0     C 2817   3.590   1.218  10.458  0.7934  0.0346  0.3545
   21MOL0     C 2818   3.552   1.223  10.327  0.0072  0.2806 -0.0460
   21MOL0     O 2819   3.625   1.302  10.245 -0.0568  0.4620  0.3549
   21MOL0     C 2820   3.553   1.418  10.207 -0.8571 -0.5432 -0.2629
   21MOL0     C 2821   3.634   1.512  10.118  0.4155  0.1114  0.1847
   21MOL0     C 2822   3.545   1.629  10.069  0.0362 -0.0583  0.3080
   21MOL0     C 2823   3.618   1.718   9.968  1.1118 -0.0098 -0.0723
   21MOL0     C 2824   3.574   1.686   9.834  0.6349  1.4560 -1.8586
   21MOL0     C 2825   3.549   1.659   9.716  0.5761 -0.8362 -0.3949
   21MOL0     C 2826   3.465   1.121  10.282  0.6575  0.2924  0.6721
   21MOL0     C 2827   3.385   1.050  10.379 -0.3147 -0.2459  0.7015
   21MOL0     C 2828   3.265   0.964  10.331  0.5591 -0.0736  0.4591
   21MOL0     H 2829   3.114   0.725  10.564 -0.0269 -1.1421 -1.3543
   21MOL0     H 2830   3.004   0.556  10.720 -0.4559  1.0604  1.8557
   21MOL0     H 2831   2.953   0.370  10.834 -3.6891  0.5332 -0.0861
   21MOL0     H 2832   2.887   0.495  10.917 -1.0412 -2.6526 -2.9643
   21MOL0     H 2833   2.828   0.278  11.021 -0.3040  1.1987  0.7852
   21MOL0     H 2834   2.995   0.235  11.043  0.2524 -0.4074 -2.0381
   21MOL0     H 2835   3.025   0.444  11.193 -0.5858  1.9218 -1.2707
   21MOL0     H 2836   2.846   0.449  11.194 -0.7450 -1.4441  0.8871
   21MOL0     H 2837   2.848   0.207  11.286 -1.4066  1.6820 -1.4503
   21MOL0     H 2838   3.031   0.238  11.313  1.4917  1.8688  0.6091
   21MOL0     H 2839   2.869   0.274  11.508  0.6431  1.9507  2.0878
   21MOL0     H 2840   2.814   0.414  11.417  0.8097  1.4098 -0.0620
   21MOL0     H 2841   3.015   0.512  11.413 -0.6624  0.5428  0.6665
   21MOL0     H 2842   2.972   0.487  11.580 -1.1570 -0.0721 -0.6673
   21MOL0     H 2843   3.208   0.358  11.438 -1.6214 -3.5592 -0.7648
   21MOL0     H 2844   3.120   0.272  11.576 -0.7200 -0.4911  0.1662
   21MOL0     H 2845   3.279   0.528  11.598 -0.9087  1.0155  1.5942
   21MOL0     H 2846   3.183   0.465  11.733  0.5002  3.4970 -1.4972
   21MOL0     H 2847   3.406   0.276  11.466 -1.5100  1.6377 -0.3307
   21MOL0     H 2848   3.768   0.317  11.596 -0.8832  1.6469 -1.0835
   21MOL0     H 2849   3.690   0.249  11.458  0.3531 -0.7726  0.2521
   21MOL0     H 2850   3.818   0.073  11.600 -1.0012  0.1737 -0.5283
   21MOL0     H 2851   3.716   0.114  11.744 -0.1973  1.2756  0.3805
   21MOL0     H 2852   3.653  -0.102  11.660 -1.6767 -1.4871  0.8301
   21MOL0     H 2853   3.527   0.007  11.646  1.2465  0.1644  1.5830
   21MOL0     H 2854   3.589  -0.147  11.438 -2.8990 -0.4416 -0.1659
   21MOL0     H 2855   3.543   0.017  11.408  0.6419  1.1714  0.3687
   21MOL0     H 2856   3.948  -0.011  11.231 -3.9071 -1.0663 -2.3130
   21MOL0     H 2857   4.166  -0.036  11.173 -0.9060  0.1391  1.1781
   21MOL0     H 2858   4.173  -0.192  11.099 -1.6427  1.9762 -1.1155
   21MOL0     H 2859   4.263  -0.163  11.252  1.8746  2.1931 -2.6818
   21MOL0     H 2860   4.156  -0.667  11.229 -0.8181 -0.5231 -0.1386
   21MOL0     H 2861   4.255  -0.868  11.102  3.2840 -2.1450  0.7135
   21MOL0     H 2862   4.426  -0.767  10.751 -1.3569 -0.3098  0.7845
   21MOL0     H 2863   4.590  -0.779  10.822 -0.1138 -1.0219 -1.8670
   21MOL0     H 2864   4.421  -1.011  10.713 -0.4476  0.0102  0.5536
   21MOL0     H 2865   4.536  -0.920  10.629  2.9578  0.0238 -0.1833
   21MOL0     H 2866   4.718  -1.028  10.717 -0.8051  3.8313  0.1894
   21MOL0     H 2867   4.607  -1.153  10.744  2.6202 -1.1126  1.1351
   21MOL0     H 2868   4.574  -1.084  10.990  0.3080  2.9174  0.0889
   21MOL0     H 2869   4.712  -0.970  10.965 -1.2235  1.2991  2.3774
   21MOL0     H 2870   4.723  -1.268  10.937 -1.0225  1.6354 -0.4591
   21MOL0     H 2871   4.842  -1.146  10.869 -0.6256  1.6748 -1.0334
   21MOL0     H 2872   4.738  -1.137  11.163  0.9141  0.2477  1.8333
   21MOL0     H 2873   4.874  -1.059  11.104 -0.4498 -0.8209  1.3046
   21MOL0     H 2874   4.846  -1.364  11.144  1.5134 -0.1853  4.1024
   21MOL0     H 2875   4.936  -1.261  11.239 -0.6513  0.8276 -0.0702
   21MOL0     H 2876   4.986  -1.350  10.953  0.1549 -0.7020  0.1570
   21MOL0     H 2877   5.088  -1.382  11.074 -0.5562 -1.4710 -0.2001
   21MOL0     H 2878   4.567  -0.594  10.981 -0.8487  1.6276  0.0207
   21MOL0     H 2879   4.480  -0.429  11.100 -2.4557  0.6120 -0.0211
   21MOL0     H 2880   3.948  -0.416  11.517  2.5226  0.1151  0.2434
   21MOL0     H 2881   3.766  -0.268  11.530  0.3583  0.7413 -0.3417
   21MOL0     H 2882   3.291   0.611  11.013 -5.7905  0.5571  1.4850
   21MOL0     H 2883   3.415   0.792  10.869  0.9890  0.7201 -0.8660
   21MOL0     H 2884   3.565   1.154  10.660  0.5065  1.6056 -0.0767
   21MOL0     H 2885   3.666   1.292  10.483 -1.3433  3.2050 -1.8385
   21MOL0     H 2886   3.468   1.387  10.144 -2.0738  1.5972  0.2145
   21MOL0     H 2887   3.511   1.481  10.286 -0.7009  0.0184 -0.6163
   21MOL0     H 2888   3.678   1.459  10.033 -2.8093  0.7251 -2.0450
   21MOL0     H 2889   3.716   1.558  10.174  0.9118  0.2510 -0.6369
   21MOL0     H 2890   3.452   1.584  10.035 -0.7300  1.6438  0.0519
   21MOL0     H 2891   3.524   1.693  10.154  0.8566 -0.8571  1.1406
   21MOL0     H 2892   3.727   1.704   9.975  1.6426  2.2472 -2.5284
   21MOL0     H 2893   3.608   1.825   9.987 -0.0514 -0.2356  0.6570
   21MOL0     H 2894   3.544   1.641   9.610  2.1376  0.1414 -0.6672
   21MOL0     H 2895   3.455   1.117  10.174 -2.3874  3.7473  0.6159
   21MOL0     H 2896   3.185   0.980  10.403  0.3728  1.0010  0.0347
   21MOL0     H 2897   3.227   0.988  10.231 -2.1782  0.8579  1.6311
   21MOL0     H 2898   3.293   0.859  10.330  0.7281 -0.0460 -1.3591
   22MOL0     O 2899  10.500   6.508   0.124  0.3697 -0.1346 -0.6995
   22MOL0     C 2900  10.584   6.437   0.062  0.2326  0.5175  0.1439
   22MOL0     O 2901  10.668   6.355   0.112  0.3716 -0.5132 -0.5763
   22MOL0     C 2902  10.650   6.319   0.241 -0.9361  0.9066  1.0284
   22MOL0     C 2903  10.686   6.398   0.350  0.1280 -0.1078  0.3260
   22MOL0     C 2904  10.686   6.352   0.484 -0.0443  0.6429 -0.0228
   22MOL0     C 2905  10.654   6.224   0.511  0.2715  0.4368  0.3556
   22MOL0     O 2906  10.655   6.187   0.640 -0.6125  0.0014  0.1368
   22MOL0     C 2907  10.565   6.095   0.703 -0.0562  0.3212  0.7444
   22MOL0     C 2908  10.439   6.164   0.749  0.1678  0.2295 -0.8532
   22MOL0     C 2909  10.465   6.272   0.855  0.0267  0.2663 -0.2855
   22MOL0     C 2910  10.350   6.373   0.858 -0.4007 -0.2360 -0.3801
   22MOL0     C 2911  10.369   6.497   0.944 -1.2160  0.7846  0.8811
   22MOL0     C 2912  10.238   6.566   0.958 -0.1810 -0.4496 -0.5011
   22MOL0     C 2913  10.150   6.513   1.074 -0.1600  0.0722 -0.2606
   22MOL0     C 2914  10.016   6.585   1.082 -0.1328  0.6417  0.6537
   22MOL0     N 2915   9.935   6.528   1.191 -0.9906 -0.6705  0.3352
   22MOL0     C 2916   9.828   6.443   1.184  0.3063 -0.4909 -0.0921
   22MOL0     C 2917   9.771   6.449   1.306  0.5751  0.5955  0.0743
   22MOL0     C 2918   9.648   6.373   1.363 -0.0016 -0.7702  0.2714
   22MOL0     C 2919   9.644   6.373   1.516 -0.1684 -0.8695 -0.1485
   22MOL0     C 2920   9.715   6.253   1.583  0.3518  0.6617  1.1985
   22MOL0     C 2921   9.678   6.121   1.528  0.1578  0.2629  1.1586
   22MOL0     O 2922   9.674   6.023   1.631  0.3877  0.2584  0.6989
   22MOL0     C 2923   9.793   5.993   1.702 -0.1097 -0.3781  0.4159
   22MOL0     C 2924   9.926   6.026   1.666  0.3159 -0.9173 -0.2822
   22MOL0     C 2925  10.037   5.979   1.731  0.7269  0.5062  0.8260
   22MOL0     C 2926  10.164   6.041   1.673  0.4042 -0.0230  0.8408
   22MOL0     C 2927  10.025   5.902   1.842  0.5558 -0.1811  0.0377
   22MOL0     C 2928  10.138   5.846   1.916  0.0348  0.0756 -0.3942
   22MOL0     O 2929  10.116   5.735   2.000 -0.9213 -0.1386  0.5942
   22MOL0     C 2930  10.221   5.657   2.033 -0.0142  0.5931  0.4462
   22MOL0     C 2931  10.318   5.689   2.131 -0.1762 -0.3322 -0.4852
   22MOL0     C 2932  10.408   5.593   2.177 -0.6495 -0.9359  0.3206
   22MOL0     C 2933  10.419   5.464   2.123 -0.9670  0.2039 -0.6664
   22MOL0     O 2934  10.523   5.377   2.151  0.5255 -0.1936  0.0013
   22MOL0     C 2935  10.551   5.260   2.067  0.7312 -0.2911 -0.2419
   22MOL0     C 2936  10.685   5.205   2.110  0.9162  0.9794  0.2175
   22MOL0     C 2937  10.805   5.279   2.049 -0.1671  0.2151 -0.1944
   22MOL0     C 2938  10.934   5.197   2.042 -0.2907  0.3691 -0.3282
   22MOL0     C 2939  11.021   5.249   1.925  0.0304 -0.0664 -0.2244
   22MOL0     C 2940  11.085   5.387   1.968  0.3794  1.3975  0.5209
   22MOL0     C 2941  11.157   5.453   1.843  0.5072  0.5871  0.4450
   22MOL0     C 2942  11.201   5.587   1.887  0.0100 -0.5659 -0.8879
   22MOL0    Cl 2943  11.052   5.688   1.914 -0.3000 -0.0040  0.3977
   22MOL0     C 2944  10.329   5.432   2.027 -0.2460  0.0133  0.3667
   22MOL0     C 2945  10.232   5.526   1.980  0.1941  0.7501 -0.4859
   22MOL0     O 2946  10.242   5.907   1.911 -0.3782 -0.2074 -0.0182
   22MOL0     C 2947   9.894   5.861   1.874 -0.7355 -0.2055  0.0107
   22MOL0     C 2948   9.785   5.912   1.813  0.0384  0.0548  0.0942
   22MOL0     N 2949   9.840   6.544   1.381 -0.4718 -0.4069  0.0155
   22MOL0     N 2950   9.936   6.594   1.303  0.5670 -0.8913 -0.2846
   22MOL0     C 2951  10.612   6.139   0.405 -0.5421 -0.2328 -0.2465
   22MOL0     C 2952  10.613   6.182   0.262  0.4213 -0.0436 -0.3515
   22MOL0     C 2953  10.571   6.430  -0.086 -1.0149  0.3861 -0.4327
   22MOL0     C 2954  10.554   6.554  -0.140  1.5821 -0.2090  0.6039
   22MOL0     C 2955  10.508   6.567  -0.277  1.0425  0.4578 -0.4578
   22MOL0     C 2956  10.505   6.457  -0.361  0.3373 -0.5466  0.8652
   22MOL0     O 2957  10.464   6.480  -0.485  0.0246  0.8128 -0.2492
   22MOL0     C 2958  10.525   6.409  -0.601 -0.8175  0.1875 -1.3727
   22MOL0     C 2959  10.500   6.474  -0.740 -0.0035  0.1318 -0.1805
   22MOL0     C 2960  10.540   6.625  -0.739  0.4660  0.5884  0.3441
   22MOL0     C 2961  10.672   6.663  -0.653 -0.3605  0.2880 -0.8185
   22MOL0     C 2962  10.790   6.590  -0.681 -0.2662 -0.0154  0.4348
   22MOL0     C 2963  10.885   6.513  -0.683  0.1319 -0.0397 -0.7274
   22MOL0     C 2964  10.536   6.331  -0.304 -0.7240 -0.7368  0.5014
   22MOL0     C 2965  10.570   6.310  -0.171  0.5420 -0.2869  0.2643
   22MOL0     C 2966  10.571   6.167  -0.116 -0.4862  0.0721  0.1825
   22MOL0     H 2967  10.705   6.504   0.339 -0.6146  0.2219  1.9816
   22MOL0     H 2968  10.720   6.422   0.560  1.9150  1.8277 -1.8745
   22MOL0     H 2969  10.605   6.052   0.795 -3.0015  1.5892  2.7652
   22MOL0     H 2970  10.537   6.014   0.634 -0.3176  1.6152 -0.7130
   22MOL0     H 2971  10.383   6.201   0.663  1.6666  3.2314 -0.6854
   22MOL0     H 2972  10.383   6.080   0.790  1.9875 -1.1441 -1.0457
   22MOL0     H 2973  10.465   6.219   0.950 -1.0164  0.0023 -0.4202
   22MOL0     H 2974  10.568   6.305   0.838  0.3013 -1.2023 -1.7327
   22MOL0     H 2975  10.325   6.402   0.755 -1.6926 -0.6509 -0.2030
   22MOL0     H 2976  10.259   6.327   0.899  0.6015 -3.3766 -1.3421
   22MOL0     H 2977  10.437   6.560   0.886  0.8293 -0.6023  1.6521
   22MOL0     H 2978  10.423   6.480   1.037 -1.2910 -0.8190  0.6508
   22MOL0     H 2979  10.254   6.674   0.968 -2.4092 -0.2132  1.2736
   22MOL0     H 2980  10.179   6.538   0.870  1.4331 -0.0405 -1.7878
   22MOL0     H 2981  10.198   6.535   1.170 -2.8551  2.3763  0.7018
   22MOL0     H 2982  10.131   6.407   1.055  2.8386 -0.3352 -1.5912
   22MOL0     H 2983  10.042   6.688   1.108 -0.0385  1.2945 -1.8156
   22MOL0     H 2984   9.959   6.594   0.989 -1.5582 -0.7754  1.3208
   22MOL0     H 2985   9.798   6.372   1.109 -0.0623 -0.2896 -0.1352
   22MOL0     H 2986   9.639   6.270   1.326 -0.3397 -0.5226 -0.3590
   22MOL0     H 2987   9.564   6.421   1.312  1.5009 -0.8757 -2.4810
   22MOL0     H 2988   9.682   6.468   1.553  0.1901 -1.6685  1.6473
   22MOL0     H 2989   9.538   6.380   1.542 -0.3254  1.4254 -1.1790
   22MOL0     H 2990   9.822   6.267   1.570  0.2508  2.0282  1.6803
   22MOL0     H 2991   9.699   6.260   1.691  1.8991  1.5710  1.4000
   22MOL0     H 2992   9.578   6.145   1.491  0.8996  1.0471 -0.4055
   22MOL0     H 2993   9.741   6.086   1.446 -0.6427  1.2144  0.1075
   22MOL0     H 2994   9.949   6.090   1.581  4.1722  0.3492  1.4694
   22MOL0     H 2995  10.241   5.964   1.673  0.6064  0.0820  3.6653
   22MOL0     H 2996  10.183   6.125   1.740 -1.4291 -0.3121  1.8026
   22MOL0     H 2997  10.153   6.096   1.580  0.9940 -2.3095 -0.6645
   22MOL0     H 2998  10.312   5.790   2.171 -1.4890 -0.4795 -0.2668
   22MOL0     H 2999  10.495   5.636   2.227 -1.7787  0.1926  1.3738
   22MOL0     H 3000  10.471   5.187   2.086  0.3414 -0.2441 -1.6090
   22MOL0     H 3001  10.560   5.278   1.960 -2.1270 -1.7977 -0.8454
   22MOL0     H 3002  10.696   5.197   2.218  1.2025 -0.5821  0.0991
   22MOL0     H 3003  10.685   5.105   2.066 -3.1670 -0.0415  2.0276
   22MOL0     H 3004  10.825   5.367   2.112  2.0120  0.3633 -1.0080
   22MOL0     H 3005  10.771   5.317   1.953 -3.2803 -1.1342  0.2574
   22MOL0     H 3006  10.910   5.091   2.031 -1.8868  0.7673 -0.9103
   22MOL0     H 3007  10.980   5.204   2.141  1.2123  1.9625 -1.0803
   22MOL0     H 3008  11.101   5.177   1.907  0.7254  0.2692  1.3642
   22MOL0     H 3009  10.967   5.259   1.830 -0.1584  0.6258 -0.0479
   22MOL0     H 3010  11.146   5.375   2.058 -1.8669 -0.1026  1.9370
   22MOL0     H 3011  10.996   5.446   1.988  1.3207  2.1734  2.8086
   22MOL0     H 3012  11.084   5.460   1.762 -0.6334  0.8524  1.4649
   22MOL0     H 3013  11.230   5.380   1.808 -0.3094  0.2809 -0.6536
   22MOL0     H 3014  11.268   5.638   1.816 -0.3551  0.5406 -0.4593
   22MOL0     H 3015  11.268   5.574   1.973 -1.5507 -0.1046  0.4316
   22MOL0     H 3016  10.326   5.334   1.982  0.1607 -0.3626  1.1351
   22MOL0     H 3017  10.161   5.498   1.903  1.8252 -0.1874 -1.7240
   22MOL0     H 3018   9.885   5.780   1.945  2.4309  1.2963  2.4171
   22MOL0     H 3019   9.692   5.875   1.856 -0.2856 -0.4918 -1.0534
   22MOL0     H 3020  10.578   6.039   0.429 -0.8239 -0.1859 -0.4508
   22MOL0     H 3021  10.575   6.113   0.189 -1.8467  0.0183  0.6718
   22MOL0     H 3022  10.558   6.643  -0.078 -1.4635  0.1900  0.4177
   22MOL0     H 3023  10.484   6.670  -0.301 -1.4095 -0.4391 -2.3172
   22MOL0     H 3024  10.633   6.401  -0.588 -0.5045  0.5663 -3.4291
   22MOL0     H 3025  10.484   6.308  -0.612  1.6716 -1.2525  1.2694
   22MOL0     H 3026  10.401   6.457  -0.782 -1.1028 -0.3152  2.3704
   22MOL0     H 3027  10.572   6.417  -0.800 -0.6503 -1.6278  0.6521
   22MOL0     H 3028  10.536   6.653  -0.845  0.8604 -2.8582 -0.6989
   22MOL0     H 3029  10.451   6.673  -0.695  0.6356  0.5871  0.6942
   22MOL0     H 3030  10.661   6.651  -0.545  2.0028  3.8977  0.0286
   22MOL0     H 3031  10.686   6.771  -0.670  0.4459  0.0205 -2.0381
   22MOL0     H 3032  10.954   6.432  -0.678 -0.5314 -0.7072 -1.8394
   22MOL0     H 3033  10.540   6.243  -0.367 -2.0522  0.0099 -0.6667
   22MOL0     H 3034  10.532   6.089  -0.183  2.0763 -0.4272 -0.8445
   22MOL0     H 3035  10.673   6.137  -0.092 -0.5148  0.2986  0.5877
   22MOL0     H 3036  10.513   6.160  -0.023 -4.3593 -0.5203 -2.0354
   23MOL0     O 3037   9.846   9.803  10.830 -0.2126  0.2171  0.2701
   23MOL0     C 3038   9.785   9.837  10.728  0.6393  0.4004 -0.8629
   23MOL0     O 3039   9.833   9.928  10.633  0.0135 -0.2006  0.1197
   23MOL0     C 3040   9.959   9.978  10.626  0.2521  0.1104 -0.3126
   23MOL0     C 3041   9.988  10.069  10.521 -0.4315 -0.1118  0.7213
   23MOL0     C 3042  10.103  10.142  10.512  0.1942  0.5535  0.5511
   23MOL0     C 3043  10.206  10.128  10.610 -0.1134  0.4972  0.7561
   23MOL0     O 3044  10.334  10.180  10.618 -0.0862 -0.4091  0.2611
   23MOL0     C 3045  10.358  10.299  10.547 -0.0495 -0.7279  0.4227
   23MOL0     C 3046  10.506  10.332  10.552 -0.4479  0.2625 -0.8754
   23MOL0     C 3047  10.546  10.476  10.536 -0.1385  0.2150  0.1496
   23MOL0     C 3048  10.508  10.531  10.393 -0.0315  1.0627 -0.8432
   23MOL0     C 3049  10.629  10.588  10.336 -0.1898  0.5314  0.2540
   23MOL0     C 3050  10.599  10.648  10.196 -0.3437 -1.5006  0.3542
   23MOL0     C 3051  10.723  10.720  10.141  1.0147 -0.2696 -0.1723
   23MOL0     C 3052  10.705  10.776   9.990  0.0263  1.2402 -0.0800
   23MOL0     N 3053  10.706  10.661   9.893 -0.3704 -0.3385  0.0673
   23MOL0     C 3054  10.806  10.572   9.883 -0.1720  0.0158  0.4341
   23MOL0     C 3055  10.762  10.484   9.794  0.7966  0.1860 -0.2624
   23MOL0     C 3056  10.837  10.367   9.760  0.3555 -0.0234  0.0190
   23MOL0     C 3057  10.975  10.354   9.827  0.5359  0.0180 -0.6616
   23MOL0     C 3058  11.070  10.252   9.757  1.4618 -0.2906  0.3627
   23MOL0     C 3059  11.213  10.278   9.796 -0.2868 -0.0453  0.0659
   23MOL0     O 3060  11.303  10.198   9.719 -0.2285  0.2983  0.7969
   23MOL0     C 3061  11.371  10.104   9.794  0.0723  0.5268  0.4874
   23MOL0     C 3062  11.319  10.003   9.869 -0.1105  0.6414  0.8319
   23MOL0     C 3063  11.393   9.885   9.914 -0.2791 -0.4960  0.4421
   23MOL0     C 3064  11.316   9.787  10.001 -0.7820  0.5265  0.3071
   23MOL0     C 3065  11.531   9.887   9.889  0.0922 -0.6247  0.4109
   23MOL0     C 3066  11.621   9.784   9.942 -0.9123 -0.1277 -0.4431
   23MOL0     O 3067  11.740   9.816   9.986  0.0561 -0.2098 -0.3391
   23MOL0     C 3068  11.824   9.721  10.040 -0.1088  0.1203 -0.2994
   23MOL0     C 3069  11.961   9.737  10.020  0.2943  0.6811 -0.1919
   23MOL0     C 3070  12.053   9.665  10.097  0.2425  0.7287  0.1692
   23MOL0     C 3071  12.018   9.559  10.187  0.6260 -0.1207  0.1769
   23MOL0     O 3072  12.119   9.487  10.251  0.0937  0.4323 -0.4058
   23MOL0     C 3073  12.222   9.434  10.170  0.4945 -0.5490 -0.1889
   23MOL0     C 3074  12.356   9.403  10.235 -0.7968  0.4709 -0.0899
   23MOL0     C 3075  12.351   9.360  10.387  1.6084  0.6083 -0.3975
   23MOL0     C 3076  12.326   9.470  10.491  0.8113  0.3482  0.2835
   23MOL0     C 3077  12.270   9.415  10.624 -0.5959 -0.1468 -0.2414
   23MOL0     C 3078  12.122   9.378  10.625 -0.1342  0.2744 -0.3956
   23MOL0     C 3079  12.026   9.493  10.600 -0.1471  0.0913 -0.0936
   23MOL0     C 3080  12.054   9.611  10.704  0.7817  0.7407  0.5591
   23MOL0    Cl 3081  11.932   9.741  10.677  0.4425  0.1100  0.3718
   23MOL0     C 3082  11.874   9.536  10.202 -0.3084  0.2179 -0.1637
   23MOL0     C 3083  11.785   9.619  10.133  0.8975 -0.4336 -0.1110
   23MOL0     O 3084  11.587   9.669   9.927  0.3579 -0.5776  0.3828
   23MOL0     C 3085  11.591  10.001   9.840  0.9601 -0.3104 -0.6745
   23MOL0     C 3086  11.513  10.101   9.781 -0.1183 -0.4187  0.9762
   23MOL0     N 3087  10.637  10.517   9.756  0.2195  0.7294  0.5846
   23MOL0     N 3088  10.604  10.624   9.811  0.3451  0.4841  0.4035
   23MOL0     C 3089  10.184  10.033  10.709 -0.4529  0.1486  0.0600
   23MOL0     C 3090  10.063   9.961  10.716 -0.1539  0.0910 -0.2623
   23MOL0     C 3091   9.645   9.786  10.703  0.4474  0.6322  0.7736
   23MOL0     C 3092   9.608   9.678  10.784  0.1122  0.5448 -1.0107
   23MOL0     C 3093   9.482   9.608  10.787 -0.0190  0.3772  0.1924
   23MOL0     C 3094   9.387   9.651  10.691 -0.6107 -1.1373 -0.5588
   23MOL0     O 3095   9.276   9.572  10.689 -0.2988  0.4040  0.0644
   23MOL0     C 3096   9.197   9.564  10.562 -0.2515  0.6486  0.0522
   23MOL0     C 3097   9.088   9.456  10.573  1.4294  0.4736 -0.3348
   23MOL0     C 3098   9.027   9.435  10.433 -1.0442  0.4583 -0.1569
   23MOL0     C 3099   8.886   9.373  10.429  0.5662  0.4769  0.3839
   23MOL0     C 3100   8.897   9.226  10.463  0.4321 -0.7202 -1.5904
   23MOL0     C 3101   8.892   9.105  10.485 -0.0431 -0.6136  1.0878
   23MOL0     C 3102   9.422   9.746  10.595  0.0968 -0.3053 -0.7849
   23MOL0     C 3103   9.550   9.815  10.596 -0.0333 -0.8304 -0.2524
   23MOL0     C 3104   9.564   9.932  10.498 -0.8880  0.0186  0.5811
   23MOL0     H 3105   9.906  10.085  10.452 -0.1899 -2.2169 -0.1371
   23MOL0     H 3106  10.117  10.206  10.425  0.6141  1.5135  1.2958
   23MOL0     H 3107  10.297  10.374  10.598  0.9163 -0.6196  1.4445
   23MOL0     H 3108  10.326  10.298  10.442 -5.6774  0.3719  1.7699
   23MOL0     H 3109  10.547  10.304  10.650  2.1573  0.5320 -1.8079
   23MOL0     H 3110  10.565  10.271  10.482 -1.1193  0.7287 -1.8665
   23MOL0     H 3111  10.517  10.533  10.624  2.3676  1.8319  0.0348
   23MOL0     H 3112  10.655  10.477  10.547 -0.1784  1.2812  0.5693
   23MOL0     H 3113  10.482  10.453  10.320  2.1600  0.3705 -0.9745
   23MOL0     H 3114  10.428  10.605  10.391 -0.7183  0.3445 -0.5933
   23MOL0     H 3115  10.712  10.517  10.323 -0.0378  1.1624 -3.3700
   23MOL0     H 3116  10.661  10.667  10.404  1.1163  1.4473 -1.3357
   23MOL0     H 3117  10.554  10.569  10.136 -0.5681 -2.3681  1.6094
   23MOL0     H 3118  10.527  10.729  10.210  0.5698 -0.1352 -2.2807
   23MOL0     H 3119  10.809  10.652  10.141  0.7928 -0.6712 -2.9958
   23MOL0     H 3120  10.734  10.805  10.209 -1.7569 -1.8202  2.5080
   23MOL0     H 3121  10.618  10.835   9.960 -2.7625 -2.5262 -0.2038
   23MOL0     H 3122  10.794  10.837   9.972  1.6552 -1.7243 -2.9868
   23MOL0     H 3123  10.900  10.585   9.936  0.9114 -0.3285 -1.3001
   23MOL0     H 3124  10.848  10.368   9.651 -3.8245 -0.1680 -0.5648
   23MOL0     H 3125  10.772  10.282   9.779 -0.6890  1.2974  3.0201
   23MOL0     H 3126  11.016  10.454   9.808 -2.0279  0.9453 -1.8702
   23MOL0     H 3127  10.972  10.342   9.936 -2.2864  1.5104 -0.4840
   23MOL0     H 3128  11.040  10.152   9.790 -1.9528 -0.3031 -2.1651
   23MOL0     H 3129  11.057  10.263   9.649  0.9559 -0.3428  0.4171
   23MOL0     H 3130  11.243  10.380   9.772  1.5772 -0.8932 -1.5590
   23MOL0     H 3131  11.225  10.262   9.904  2.4762 -1.4691 -0.3631
   23MOL0     H 3132  11.212   9.999   9.887 -0.9733 -0.6843 -3.2793
   23MOL0     H 3133  11.285   9.703   9.937 -3.4076  2.5651 -1.3173
   23MOL0     H 3134  11.235   9.848  10.042 -0.9183  0.0823  0.7086
   23MOL0     H 3135  11.379   9.736  10.074 -1.5877  1.1262  1.4605
   23MOL0     H 3136  11.998   9.814   9.953  3.0486 -1.2001 -1.0180
   23MOL0     H 3137  12.159   9.678  10.077  0.5109  0.4204  1.3169
   23MOL0     H 3138  12.179   9.341  10.132  0.4907 -0.9471  0.7757
   23MOL0     H 3139  12.253   9.506  10.093  2.3257  0.1544  1.1266
   23MOL0     H 3140  12.406   9.317  10.189  2.7200  2.1561  0.2500
   23MOL0     H 3141  12.418   9.493  10.232 -0.9337  0.5476 -2.1152
   23MOL0     H 3142  12.438   9.297  10.408 -0.7317 -2.5242  0.7081
   23MOL0     H 3143  12.279   9.279  10.402  2.7140 -0.2925  0.1229
   23MOL0     H 3144  12.247   9.537  10.455 -1.8412 -2.4536  0.4005
   23MOL0     H 3145  12.416   9.530  10.502  0.0590  1.2916  1.5257
   23MOL0     H 3146  12.333   9.329  10.651 -0.7436 -0.0545  0.4233
   23MOL0     H 3147  12.287   9.487  10.704 -1.2448 -3.1361  2.8471
   23MOL0     H 3148  12.096   9.332  10.720  2.6594  0.2462  0.4589
   23MOL0     H 3149  12.100   9.302  10.549 -0.8020  2.0774 -2.1135
   23MOL0     H 3150  11.923   9.461  10.619 -0.8195  2.0982 -0.1250
   23MOL0     H 3151  12.031   9.530  10.497 -0.6451  1.4215  0.3435
   23MOL0     H 3152  12.152   9.657  10.689 -0.3446  3.3761  0.7590
   23MOL0     H 3153  12.043   9.571  10.806 -0.7333 -0.9620 -0.2156
   23MOL0     H 3154  11.838   9.460  10.271 -0.0233 -0.6750 -0.9773
   23MOL0     H 3155  11.678   9.625  10.152  1.0684  0.7582  0.5390
   23MOL0     H 3156  11.698  10.022   9.841  0.8186  0.4863  0.1254
   23MOL0     H 3157  11.559  10.176   9.717  1.0113 -1.5985  0.3420
   23MOL0     H 3158  10.260  10.021  10.786 -1.2508 -1.3487  0.6473
   23MOL0     H 3159  10.050   9.906  10.809 -0.3866  1.5314  0.5935
   23MOL0     H 3160   9.692   9.643  10.843  2.4062  1.6397 -3.4100
   23MOL0     H 3161   9.469   9.516  10.843  0.2548 -0.5757 -1.2486
   23MOL0     H 3162   9.149   9.659  10.538 -1.5141 -0.0474 -0.2917
   23MOL0     H 3163   9.258   9.539  10.475  0.1259 -3.9001  1.3374
   23MOL0     H 3164   8.996   9.486  10.625  0.3953  0.0107 -1.8221
   23MOL0     H 3165   9.122   9.355  10.599 -2.8180 -1.8839 -2.7305
   23MOL0     H 3166   9.020   9.537  10.393  1.0638  1.8226  2.6301
   23MOL0     H 3167   9.095   9.385  10.364 -1.0750  0.4373 -0.1724
   23MOL0     H 3168   8.840   9.387  10.331 -3.3837 -0.2723  1.9562
   23MOL0     H 3169   8.818   9.421  10.500  1.6293  0.0264  1.7503
   23MOL0     H 3170   8.891   9.000  10.504  1.1972 -0.9769 -0.5939
   23MOL0     H 3171   9.349   9.761  10.517 -0.9971 -0.7885  0.1104
   23MOL0     H 3172   9.470   9.981  10.470 -1.1080 -1.0956 -0.7499
   23MOL0     H 3173   9.625  10.010  10.544 -0.9444 -0.4044  1.3793
   23MOL0     H 3174   9.606   9.897  10.403  1.1675  1.6011  0.8588
   24MOL0     O 3175   6.700   1.414   8.806  0.6608 -0.2719 -0.0684
   24MOL0     C 3176   6.764   1.315   8.803 -0.6799  0.4204 -0.6620
   24MOL0     O 3177   6.878   1.306   8.735 -0.2840 -0.6285  0.0997
   24MOL0     C 3178   6.936   1.415   8.661  0.5850  1.0046  0.1997
   24MOL0     C 3179   6.859   1.482   8.564  0.7084 -0.8842 -0.3928
   24MOL0     C 3180   6.920   1.573   8.476  0.1018 -0.1462 -0.5128
   24MOL0     C 3181   7.063   1.587   8.476  1.0696 -0.5785  0.7455
   24MOL0     O 3182   7.116   1.677   8.387 -0.0594 -0.0432  0.2647
   24MOL0     C 3183   7.250   1.661   8.340  0.7932  0.0663 -0.2484
   24MOL0     C 3184   7.341   1.768   8.384  0.4203 -0.8423  0.1369
   24MOL0     C 3185   7.487   1.772   8.334 -0.0495  0.0944  0.2792
   24MOL0     C 3186   7.585   1.688   8.419 -0.1511  0.4304 -0.5659
   24MOL0     C 3187   7.662   1.770   8.528  0.2780  0.1391  0.3540
   24MOL0     C 3188   7.585   1.783   8.660  0.2306 -0.3667 -0.0557
   24MOL0     C 3189   7.676   1.833   8.770 -0.8524 -0.7178  0.6899
   24MOL0     C 3190   7.796   1.745   8.814  0.4309 -0.9456 -0.6306
   24MOL0     N 3191   7.891   1.802   8.906 -0.1737  0.3708 -0.8903
   24MOL0     C 3192   7.972   1.909   8.879 -0.7942  0.6444 -0.5790
   24MOL0     C 3193   8.086   1.896   8.948 -0.3538 -0.6272 -0.6825
   24MOL0     C 3194   8.197   1.989   8.961 -0.1176 -0.8474 -0.4004
   24MOL0     C 3195   8.229   2.070   8.837 -0.1919 -0.2769 -0.2302
   24MOL0     C 3196   8.297   1.974   8.731 -0.2891 -0.3916  0.2147
   24MOL0     C 3197   8.285   2.010   8.589  0.1757  0.8870 -0.1654
   24MOL0     O 3198   8.160   1.970   8.529 -1.1839  0.1070  0.0715
   24MOL0     C 3199   8.129   2.017   8.407  0.1025  0.3284 -0.6552
   24MOL0     C 3200   8.205   2.077   8.313  0.2187  0.1160  0.4074
   24MOL0     C 3201   8.161   2.137   8.191  0.2904 -0.7028 -0.0954
   24MOL0     C 3202   8.256   2.238   8.127  0.4518 -0.0521 -0.2205
   24MOL0     C 3203   8.027   2.112   8.156 -0.4169  0.4610 -0.5360
   24MOL0     C 3204   7.977   2.151   8.022  0.3405  0.1248 -0.6596
   24MOL0     O 3205   8.043   2.114   7.907 -0.9385  0.8144  0.8693
   24MOL0     C 3206   8.019   2.194   7.791 -0.1029  0.2865 -0.4753
   24MOL0     C 3207   7.929   2.145   7.695  0.2048  0.3181  0.2426
   24MOL0     C 3208   7.920   2.217   7.577 -0.8202 -1.0534 -0.4141
   24MOL0     C 3209   7.989   2.339   7.557 -0.1829  0.8946 -0.0051
   24MOL0     O 3210   7.964   2.384   7.431  0.6299 -0.6352  0.3606
   24MOL0     C 3211   7.953   2.524   7.421 -0.8827 -0.8889 -0.6525
   24MOL0     C 3212   7.811   2.556   7.382 -0.2884  0.3703 -0.2993
   24MOL0     C 3213   7.800   2.711   7.369 -0.0050  0.1387  0.5707
   24MOL0     C 3214   7.864   2.783   7.242 -0.1039  0.0636 -0.0334
   24MOL0     C 3215   7.818   2.735   7.104  1.1121 -0.1760 -0.3054
   24MOL0     C 3216   7.906   2.764   6.986  0.3408 -0.5737  0.2289
   24MOL0     C 3217   7.937   2.910   6.973 -0.1994 -0.2149  0.5339
   24MOL0     C 3218   8.029   2.934   6.852 -0.6157  0.3172  0.1416
   24MOL0    Cl 3219   7.952   2.907   6.694  0.0178  0.2786  0.2306
   24MOL0     C 3220   8.088   2.384   7.645  0.0559 -0.1610  0.3573
   24MOL0     C 3221   8.096   2.311   7.767 -0.0453  0.6389 -0.3008
   24MOL0     O 3222   7.873   2.213   8.015 -0.4023  0.3883 -0.1855
   24MOL0     C 3223   7.944   2.042   8.248 -0.5839 -0.0706 -0.1919
   24MOL0     C 3224   7.993   2.006   8.375  0.4988 -0.5219 -0.3624
   24MOL0     N 3225   8.066   1.779   9.023  0.0736  0.0898 -0.1560
   24MOL0     N 3226   7.960   1.716   8.989 -0.2216  0.7757  0.7536
   24MOL0     C 3227   7.134   1.527   8.580 -0.9409 -0.1973 -0.4003
   24MOL0     C 3228   7.072   1.437   8.670 -0.2787  0.2328  0.7666
   24MOL0     C 3229   6.719   1.188   8.865 -0.6151  0.3124  0.2642
   24MOL0     C 3230   6.784   1.072   8.822 -0.4205 -0.4024 -0.5901
   24MOL0     C 3231   6.737   0.949   8.862 -0.3760  0.8527 -0.2647
   24MOL0     C 3232   6.630   0.935   8.953  0.1012 -0.8080  0.2827
   24MOL0     O 3233   6.579   0.817   9.008  0.7009 -0.9961  0.4152
   24MOL0     C 3234   6.553   0.697   8.927  0.0750 -0.2791  0.3997
   24MOL0     C 3235   6.605   0.566   8.987  0.7007 -0.5542  0.0495
   24MOL0     C 3236   6.591   0.570   9.150 -0.9274 -0.2445  0.0170
   24MOL0     C 3237   6.659   0.438   9.192 -0.2543  0.4894 -0.1151
   24MOL0     C 3238   6.610   0.411   9.326 -0.7136  0.3401  0.1412
   24MOL0     C 3239   6.562   0.364   9.427 -0.3233 -0.6573  0.6445
   24MOL0     C 3240   6.576   1.051   9.007  0.3450 -0.3731  1.0178
   24MOL0     C 3241   6.613   1.180   8.954  0.5659  0.0633 -0.1368
   24MOL0     C 3242   6.546   1.290   9.021  0.1778 -0.0993  1.0703
   24MOL0     H 3243   6.755   1.464   8.541  0.1824  0.4182  0.8301
   24MOL0     H 3244   6.865   1.635   8.406  3.3359  1.1001 -2.1582
   24MOL0     H 3245   7.247   1.659   8.230  0.3100  2.8889 -0.3641
   24MOL0     H 3246   7.284   1.560   8.362 -1.0278 -0.7383 -0.8967
   24MOL0     H 3247   7.291   1.859   8.351 -1.6711 -1.0099  2.5702
   24MOL0     H 3248   7.335   1.769   8.493  0.1413 -1.7163  0.1399
   24MOL0     H 3249   7.496   1.723   8.237  2.1222 -0.0226  0.4784
   24MOL0     H 3250   7.526   1.875   8.336 -1.9307  0.9263  3.8928
   24MOL0     H 3251   7.530   1.607   8.469 -3.0881  2.6182  0.0850
   24MOL0     H 3252   7.661   1.649   8.352  1.5216 -0.7919  1.8832
   24MOL0     H 3253   7.685   1.866   8.481 -1.3316 -0.1039 -1.0615
   24MOL0     H 3254   7.762   1.732   8.550 -0.6648 -1.1613  2.7283
   24MOL0     H 3255   7.503   1.853   8.642 -0.4707 -1.4870 -1.4613
   24MOL0     H 3256   7.539   1.690   8.694  1.9191 -0.8355  1.1160
   24MOL0     H 3257   7.610   1.836   8.857 -0.7420 -2.3120  0.8499
   24MOL0     H 3258   7.697   1.937   8.745  1.3035 -0.9676  1.2590
   24MOL0     H 3259   7.756   1.656   8.863  0.8600 -1.5008 -1.2744
   24MOL0     H 3260   7.856   1.726   8.725 -0.3970 -2.5217 -0.8827
   24MOL0     H 3261   7.955   1.990   8.809  1.6205  1.2324 -0.5423
   24MOL0     H 3262   8.285   1.931   8.988  0.6329  0.6872  0.6362
   24MOL0     H 3263   8.185   2.052   9.050  1.1692 -1.6382  0.3608
   24MOL0     H 3264   8.137   2.107   8.790  0.1431  0.7745 -0.0715
   24MOL0     H 3265   8.299   2.153   8.846  1.3343 -1.4574 -0.7582
   24MOL0     H 3266   8.403   1.979   8.756 -0.0997  3.5484 -0.7597
   24MOL0     H 3267   8.262   1.870   8.719 -0.7049 -0.2830  0.4322
   24MOL0     H 3268   8.295   2.119   8.585 -4.1235  1.3856 -1.6972
   24MOL0     H 3269   8.365   1.964   8.530 -0.2518  0.3893 -0.3504
   24MOL0     H 3270   8.304   2.108   8.343  0.2966  3.5330 -2.5938
   24MOL0     H 3271   8.306   2.196   8.040 -0.5173 -1.0578 -0.3160
   24MOL0     H 3272   8.328   2.272   8.202 -1.6081 -1.2723  2.4927
   24MOL0     H 3273   8.187   2.311   8.082 -1.1970 -1.4656 -0.0857
   24MOL0     H 3274   7.867   2.061   7.724 -2.4773  1.5119 -1.5551
   24MOL0     H 3275   7.844   2.193   7.504 -0.0918  1.5909 -2.2206
   24MOL0     H 3276   7.983   2.564   7.518  1.6837 -3.2867 -0.3416
   24MOL0     H 3277   8.027   2.560   7.349  0.6476 -1.4621  0.5753
   24MOL0     H 3278   7.771   2.512   7.290 -1.1245  1.0472 -0.2723
   24MOL0     H 3279   7.755   2.521   7.469  0.3173  0.2070  0.0321
   24MOL0     H 3280   7.836   2.748   7.466  2.7247 -2.1663  0.5698
   24MOL0     H 3281   7.692   2.732   7.370 -0.7258 -3.0005  1.5736
   24MOL0     H 3282   7.972   2.780   7.251  0.1642 -0.4990 -2.6420
   24MOL0     H 3283   7.833   2.888   7.255 -2.7803 -0.4479 -1.4431
   24MOL0     H 3284   7.790   2.629   7.102 -2.0995  0.5769 -1.1077
   24MOL0     H 3285   7.728   2.794   7.084 -0.3716 -2.8925 -2.2748
   24MOL0     H 3286   7.859   2.731   6.893  0.5387  2.8812 -1.2252
   24MOL0     H 3287   8.000   2.708   6.995 -0.8831 -2.6738  0.5456
   24MOL0     H 3288   7.984   2.956   7.060  2.6665  4.0832 -2.8863
   24MOL0     H 3289   7.843   2.961   6.949  0.1529 -0.1810 -0.8295
   24MOL0     H 3290   8.123   2.880   6.859 -0.6312 -0.0662 -2.0711
   24MOL0     H 3291   8.074   3.034   6.851 -1.5657  0.7645 -1.6035
   24MOL0     H 3292   8.152   2.469   7.620 -0.0676 -0.6287 -1.7860
   24MOL0     H 3293   8.163   2.343   7.846 -2.0372  2.5875  0.7315
   24MOL0     H 3294   7.842   2.021   8.218 -0.2509  1.9623 -3.1886
   24MOL0     H 3295   7.939   1.957   8.455 -0.4049 -0.5622 -0.9736
   24MOL0     H 3296   7.239   1.546   8.599 -0.6792  2.2427 -3.4819
   24MOL0     H 3297   7.141   1.389   8.739  1.0181 -0.0937 -0.7045
   24MOL0     H 3298   6.875   1.061   8.764 -0.0929  1.7175 -0.5612
   24MOL0     H 3299   6.789   0.861   8.826  1.7689  1.1234  1.9278
   24MOL0     H 3300   6.444   0.697   8.919 -0.0057  1.0737  1.1290
   24MOL0     H 3301   6.601   0.709   8.830  1.9280  1.5209  1.4461
   24MOL0     H 3302   6.711   0.554   8.962  0.8817  0.8041  0.0920
   24MOL0     H 3303   6.547   0.487   8.939  0.4556  0.8372 -2.0697
   24MOL0     H 3304   6.645   0.654   9.195 -1.0939 -0.6624  1.0165
   24MOL0     H 3305   6.488   0.585   9.183 -2.0936 -0.4395 -3.1799
   24MOL0     H 3306   6.768   0.446   9.187 -0.3328  2.0060  0.1906
   24MOL0     H 3307   6.623   0.358   9.126 -0.6280 -0.3452  1.0656
   24MOL0     H 3308   6.511   0.337   9.516 -0.6152  1.3256  1.1346
   24MOL0     H 3309   6.505   1.041   9.089 -0.9853 -1.0826 -0.1628
   24MOL0     H 3310   6.613   1.376   9.033 -1.0306  1.1581 -0.6781
   24MOL0     H 3311   6.462   1.311   8.954  1.4846 -4.4702 -2.3820
   24MOL0     H 3312   6.502   1.267   9.118 -0.5772  0.4447  0.8646
   25MOL0     O 3313   6.974   6.055   4.914 -0.0137 -0.2397 -0.0980
   25MOL0     C 3314   7.080   6.014   4.873  0.1347  0.8013  0.0670
   25MOL0     O 3315   7.200   5.997   4.944  0.3725  0.1693 -0.7208
   25MOL0     C 3316   7.221   6.030   5.078 -0.4280 -1.2732  0.7999
   25MOL0     C 3317   7.355   6.044   5.114  0.1723  0.1846 -0.2588
   25MOL0     C 3318   7.395   6.085   5.244  0.4485  0.3399  0.2657
   25MOL0     C 3319   7.302   6.136   5.334 -0.0141  0.2385  0.1145
   25MOL0     O 3320   7.351   6.168   5.452 -0.3838 -0.0617 -0.0288
   25MOL0     C 3321   7.311   6.285   5.521 -0.6697 -0.1155 -0.1355
   25MOL0     C 3322   7.415   6.394   5.478  0.6738  0.0907 -0.7926
   25MOL0     C 3323   7.371   6.529   5.531  0.1573 -1.0881 -0.0472
   25MOL0     C 3324   7.462   6.639   5.488  0.1256 -0.5071  0.2897
   25MOL0     C 3325   7.421   6.763   5.575  0.4198 -0.1486  1.2788
   25MOL0     C 3326   7.493   6.886   5.556  0.1563 -1.1121 -0.4373
   25MOL0     C 3327   7.433   7.001   5.631 -0.0964  0.4640  0.8127
   25MOL0     C 3328   7.531   7.116   5.669  0.2548 -0.2871  0.0080
   25MOL0     N 3329   7.463   7.221   5.744  0.6469 -0.1925  0.5723
   25MOL0     C 3330   7.336   7.274   5.707 -0.0055  0.0606 -0.0590
   25MOL0     C 3331   7.281   7.320   5.828  0.0536 -0.3210 -0.6585
   25MOL0     C 3332   7.137   7.380   5.843  1.0076  0.2784 -0.9825
   25MOL0     C 3333   7.041   7.264   5.840  0.0732 -0.5979  0.1578
   25MOL0     C 3334   6.895   7.307   5.851 -0.0616 -0.1145  0.5885
   25MOL0     C 3335   6.809   7.187   5.867  0.3066  0.0907  0.1146
   25MOL0     O 3336   6.839   7.074   5.783 -0.9537  0.0141 -0.2475
   25MOL0     C 3337   6.850   6.947   5.848 -0.2852  0.0017 -1.1433
   25MOL0     C 3338   6.950   6.855   5.805  0.1365 -0.5051  0.7606
   25MOL0     C 3339   6.964   6.733   5.871 -0.5496  1.9004  0.5247
   25MOL0     C 3340   7.082   6.638   5.815  0.8906  0.1976  0.4308
   25MOL0     C 3341   6.871   6.694   5.978 -0.4432 -0.6013 -0.7104
   25MOL0     C 3342   6.877   6.561   6.045 -1.0175 -0.5732 -0.0624
   25MOL0     O 3343   6.772   6.521   6.118  0.3708 -0.2057 -0.9720
   25MOL0     C 3344   6.773   6.383   6.148 -0.7516  0.8971  0.1208
   25MOL0     C 3345   6.792   6.334   6.272  0.1339 -0.7068 -0.4167
   25MOL0     C 3346   6.769   6.198   6.298  0.0975  0.1306  0.7392
   25MOL0     C 3347   6.747   6.108   6.193 -0.3102  0.1858 -0.2675
   25MOL0     O 3348   6.761   5.973   6.216 -0.0066 -0.6095 -0.5168
   25MOL0     C 3349   6.657   5.893   6.173 -0.3823  0.1611 -0.3688
   25MOL0     C 3350   6.524   5.899   6.255  0.6847  0.0493  0.6481
   25MOL0     C 3351   6.421   5.954   6.164 -0.2640  0.0732 -0.6710
   25MOL0     C 3352   6.292   5.989   6.229  0.0048 -0.2257 -0.8887
   25MOL0     C 3353   6.197   5.867   6.250 -0.5600  0.9052  0.6431
   25MOL0     C 3354   6.056   5.912   6.306  0.5403 -0.0747  0.2817
   25MOL0     C 3355   5.955   5.807   6.288  0.1733  0.2089  0.3922
   25MOL0     C 3356   5.813   5.869   6.303 -0.1610 -1.1217  0.1002
   25MOL0    Cl 3357   5.693   5.737   6.300 -0.4492  0.4084 -0.1095
   25MOL0     C 3358   6.728   6.162   6.067  0.1052  0.4890 -0.7236
   25MOL0     C 3359   6.737   6.301   6.043  0.5135 -0.2072 -1.0270
   25MOL0     O 3360   6.985   6.501   6.032 -0.7808  0.1597 -0.0101
   25MOL0     C 3361   6.778   6.785   6.023 -0.1753 -0.9523  0.4514
   25MOL0     C 3362   6.773   6.913   5.972  0.9004  0.3379 -0.1503
   25MOL0     N 3363   7.376   7.296   5.929 -0.0343  0.3045  0.4354
   25MOL0     N 3364   7.476   7.235   5.882  0.0160  0.1241  0.1096
   25MOL0     C 3365   7.166   6.134   5.295  0.0817 -0.1444 -0.4979
   25MOL0     C 3366   7.132   6.079   5.165  0.2499 -0.0228 -0.2765
   25MOL0     C 3367   7.102   6.001   4.730  0.1539  0.1114  0.6790
   25MOL0     C 3368   7.238   5.986   4.677  0.3424  0.0686  0.4915
   25MOL0     C 3369   7.252   5.968   4.542  0.6711 -0.5171 -0.1190
   25MOL0     C 3370   7.149   5.969   4.448 -0.2617  0.6313 -0.3206
   25MOL0     O 3371   7.187   5.918   4.325  0.0435  0.2896 -0.4353
   25MOL0     C 3372   7.108   5.923   4.202 -0.4458  0.8828  0.5498
   25MOL0     C 3373   7.065   6.065   4.159 -0.8123 -0.3897  0.0715
   25MOL0     C 3374   6.967   6.060   4.035  1.1087  0.0274  0.5246
   25MOL0     C 3375   6.944   6.194   3.959  0.6317  0.5025 -0.0710
   25MOL0     C 3376   7.029   6.207   3.838  0.4985  0.2591  0.7675
   25MOL0     C 3377   7.103   6.200   3.740 -0.3264 -0.5057  0.1517
   25MOL0     C 3378   7.016   5.996   4.499  1.1619  0.1922  0.0087
   25MOL0     C 3379   6.993   6.015   4.635 -0.6061 -0.6487 -0.0654
   25MOL0     C 3380   6.846   6.039   4.665 -0.7661 -0.2599  0.2211
   25MOL0     H 3381   7.435   6.005   5.052 -0.8551  2.0288 -2.9307
   25MOL0     H 3382   7.495   6.074   5.286  1.5326 -0.8697 -2.3488
   25MOL0     H 3383   7.337   6.276   5.627 -1.4428 -3.5786 -0.1322
   25MOL0     H 3384   7.205   6.299   5.500 -1.2835  0.0050  2.7079
   25MOL0     H 3385   7.518   6.377   5.512  0.3574  0.6955  0.5409
   25MOL0     H 3386   7.412   6.407   5.370  0.4118 -0.5669 -0.8709
   25MOL0     H 3387   7.273   6.542   5.484 -0.1491 -2.5919  0.1253
   25MOL0     H 3388   7.365   6.540   5.639 -0.1796 -1.0276 -0.0690
   25MOL0     H 3389   7.563   6.604   5.510  0.9811  1.1086 -0.9356
   25MOL0     H 3390   7.450   6.661   5.381  0.8665  2.1532  0.6960
   25MOL0     H 3391   7.424   6.741   5.683  1.5610  1.4616  1.6011
   25MOL0     H 3392   7.315   6.777   5.553  0.5635  1.3405  1.4834
   25MOL0     H 3393   7.600   6.878   5.579 -0.0440 -3.7500 -0.1030
   25MOL0     H 3394   7.497   6.902   5.448 -1.5244 -0.9897 -0.5129
   25MOL0     H 3395   7.383   6.978   5.726 -2.3972  3.0001  0.3358
   25MOL0     H 3396   7.359   7.054   5.570 -0.7004  1.3721  2.2689
   25MOL0     H 3397   7.610   7.080   5.736  0.0623 -0.5356  0.0992
   25MOL0     H 3398   7.589   7.155   5.584  1.0912 -0.1139  0.6365
   25MOL0     H 3399   7.274   7.259   5.619 -1.9228 -0.2747  1.2834
   25MOL0     H 3400   7.125   7.445   5.756 -1.8706 -1.2471 -1.8723
   25MOL0     H 3401   7.126   7.440   5.934  1.2889  1.8583 -1.9373
   25MOL0     H 3402   7.057   7.204   5.750  0.7376  0.3836 -0.4011
   25MOL0     H 3403   7.067   7.201   5.925  1.9020 -0.1165 -0.0002
   25MOL0     H 3404   6.893   7.366   5.944  2.9738 -1.7817  1.8604
   25MOL0     H 3405   6.879   7.360   5.757  3.2336  0.7980  0.4362
   25MOL0     H 3406   6.817   7.156   5.972 -1.9821 -1.7660 -0.1606
   25MOL0     H 3407   6.707   7.211   5.837 -0.0437  0.2585  1.3530
   25MOL0     H 3408   7.015   6.873   5.721  0.2370 -0.4381  0.8537
   25MOL0     H 3409   7.162   6.617   5.886  1.2981 -0.2698 -0.1568
   25MOL0     H 3410   7.121   6.684   5.724 -2.3896 -0.4961 -1.4865
   25MOL0     H 3411   7.027   6.547   5.789 -1.3960  1.3503  0.9979
   25MOL0     H 3412   6.802   6.408   6.351 -2.3620 -1.8173  1.0899
   25MOL0     H 3413   6.774   6.182   6.405 -1.1344  0.2158  0.8231
   25MOL0     H 3414   6.629   5.919   6.071  1.3078  0.4138 -0.7913
   25MOL0     H 3415   6.687   5.788   6.184 -0.1978  0.0544 -1.7275
   25MOL0     H 3416   6.487   5.797   6.272 -1.3194 -0.0818 -3.2582
   25MOL0     H 3417   6.526   5.960   6.345 -1.8498  3.1472 -1.1892
   25MOL0     H 3418   6.404   5.885   6.081 -1.9538 -0.0333 -0.2714
   25MOL0     H 3419   6.460   6.044   6.115  0.6089 -0.7181 -1.4615
   25MOL0     H 3420   6.247   6.072   6.174 -0.3929  0.8032  0.9061
   25MOL0     H 3421   6.307   6.019   6.333  1.6154  1.8851 -1.6571
   25MOL0     H 3422   6.186   5.825   6.150 -2.4834 -0.8321  1.5277
   25MOL0     H 3423   6.250   5.802   6.320 -1.6743  1.2512  1.8412
   25MOL0     H 3424   6.011   5.998   6.257 -1.8922 -1.4780 -0.1062
   25MOL0     H 3425   6.071   5.946   6.409  0.7074 -0.1023  0.2680
   25MOL0     H 3426   5.977   5.719   6.349 -2.1576 -1.3326 -0.7902
   25MOL0     H 3427   5.949   5.769   6.185 -1.1154 -1.0160  0.8860
   25MOL0     H 3428   5.797   5.939   6.220  1.1275 -0.1986  0.6039
   25MOL0     H 3429   5.786   5.921   6.395 -0.8482  1.2696 -1.3409
   25MOL0     H 3430   6.719   6.102   5.977 -1.9329 -0.1570 -0.1594
   25MOL0     H 3431   6.725   6.350   5.947 -0.0324 -2.1726 -2.0267
   25MOL0     H 3432   6.706   6.763   6.101 -0.5441 -1.2455  0.0302
   25MOL0     H 3433   6.700   6.987   6.005 -0.2126 -0.4943 -0.7093
   25MOL0     H 3434   7.090   6.156   5.369  2.6362  2.4266  1.6040
   25MOL0     H 3435   7.027   6.060   5.145  0.2988 -0.0241 -0.5390
   25MOL0     H 3436   7.327   5.974   4.738  0.4960  4.0883  1.2968
   25MOL0     H 3437   7.357   5.952   4.520  1.0426  0.4023  0.8713
   25MOL0     H 3438   7.170   5.897   4.116 -0.6161  0.0072  0.6795
   25MOL0     H 3439   7.029   5.848   4.206  1.2420 -0.9659  1.2637
   25MOL0     H 3440   7.156   6.119   4.131 -0.2638  0.3149  2.8419
   25MOL0     H 3441   7.024   6.119   4.246  0.8162  0.7878  0.1613
   25MOL0     H 3442   7.017   5.997   3.961 -0.5855  1.3529 -1.8683
   25MOL0     H 3443   6.867   6.021   4.057  0.5103  2.2978  2.1792
   25MOL0     H 3444   6.961   6.273   4.033  3.4977 -0.0643  0.0016
   25MOL0     H 3445   6.841   6.194   3.922  1.7815  1.3434 -3.6821
   25MOL0     H 3446   7.172   6.187   3.659  1.1014 -0.2844  1.2856
   25MOL0     H 3447   6.931   5.986   4.432  1.2801 -0.6770 -0.0177
   25MOL0     H 3448   6.806   5.961   4.730 -0.0495  2.2282  3.9655
   25MOL0     H 3449   6.826   6.139   4.705 -4.5931 -0.3980 -0.9436
   25MOL0     H 3450   6.783   6.037   4.576 -0.2177 -4.2941 -0.2466
   26MOL0     O 3451   1.245   3.880   7.731  0.1410  0.4583  0.1044
   26MOL0     C 3452   1.185   3.770   7.745 -0.1618  0.2235 -0.7275
   26MOL0     O 3453   1.165   3.698   7.870  0.1287  0.0119  0.4686
   26MOL0     C 3454   1.198   3.767   7.980  1.1839  0.1618  0.0566
   26MOL0     C 3455   1.138   3.893   8.010 -0.0388 -0.3224  0.2976
   26MOL0     C 3456   1.167   3.945   8.144 -0.1894 -0.4739 -0.2823
   26MOL0     C 3457   1.234   3.879   8.243 -0.4771  0.3791 -0.9125
   26MOL0     O 3458   1.243   3.933   8.367 -0.0764 -0.1702  0.2861
   26MOL0     C 3459   1.299   3.857   8.474  0.2954  0.2164  0.0711
   26MOL0     C 3460   1.365   3.927   8.590  0.6395 -0.0268 -0.1704
   26MOL0     C 3461   1.459   3.838   8.671 -0.0353 -1.5136  0.1841
   26MOL0     C 3462   1.390   3.725   8.744  0.1452  0.2431 -0.4615
   26MOL0     C 3463   1.260   3.745   8.814  0.3273 -0.6373 -0.0502
   26MOL0     C 3464   1.229   3.617   8.891  0.8707  0.2689  0.0787
   26MOL0     C 3465   1.154   3.516   8.800 -0.5706 -0.2536 -0.0181
   26MOL0     C 3466   1.100   3.389   8.869  0.9986  0.1555 -1.1660
   26MOL0     N 3467   1.196   3.310   8.939  0.4349 -0.4493 -0.1360
   26MOL0     C 3468   1.236   3.319   9.069 -0.1739 -0.0793  0.2599
   26MOL0     C 3469   1.304   3.208   9.092  0.3551 -0.2094  0.6606
   26MOL0     C 3470   1.367   3.173   9.224 -0.0053  0.1132 -0.0579
   26MOL0     C 3471   1.518   3.187   9.234 -0.1587 -0.0728 -0.2110
   26MOL0     C 3472   1.560   3.336   9.227 -0.3846  0.3399 -0.0914
   26MOL0     C 3473   1.712   3.363   9.227  0.4732  1.0054 -0.5552
   26MOL0     O 3474   1.784   3.291   9.330  0.4181 -0.0110 -0.3045
   26MOL0     C 3475   1.904   3.345   9.382  0.0921 -0.1843 -0.1409
   26MOL0     C 3476   1.966   3.268   9.490  1.0042  0.0074  0.3171
   26MOL0     C 3477   2.085   3.296   9.538 -0.8026 -0.7777 -1.1522
   26MOL0     C 3478   2.146   3.205   9.648  0.1723 -0.8414  0.1726
   26MOL0     C 3479   2.159   3.395   9.464  0.1680  0.2794  0.2327
   26MOL0     C 3480   2.301   3.428   9.508 -0.1472  0.0451  0.4303
   26MOL0     O 3481   2.398   3.433   9.410  0.1739  0.4430 -0.4971
   26MOL0     C 3482   2.536   3.436   9.444  0.3098  0.2618 -0.2771
   26MOL0     C 3483   2.623   3.346   9.374 -0.1523 -0.0430  0.6238
   26MOL0     C 3484   2.754   3.337   9.401 -0.3531 -1.1361  1.1034
   26MOL0     C 3485   2.812   3.421   9.498  1.1211 -0.0410 -0.7748
   26MOL0     O 3486   2.947   3.436   9.507 -0.0569 -0.0069 -0.1632
   26MOL0     C 3487   3.025   3.329   9.459  0.9957 -0.0720  0.0798
   26MOL0     C 3488   3.147   3.313   9.542 -0.4574  0.1452  0.3955
   26MOL0     C 3489   3.219   3.182   9.503 -0.4613 -0.3884 -0.9234
   26MOL0     C 3490   3.330   3.147   9.603  0.4549 -0.3216 -0.5263
   26MOL0     C 3491   3.426   3.036   9.555  1.1259 -0.1464 -0.3807
   26MOL0     C 3492   3.363   2.908   9.505 -0.5512  0.0809  0.2807
   26MOL0     C 3493   3.312   2.823   9.618 -0.5802 -0.3393 -0.1719
   26MOL0     C 3494   3.244   2.699   9.559  0.0624 -0.4115  0.1578
   26MOL0    Cl 3495   3.091   2.760   9.509 -0.2142  0.0102  0.3131
   26MOL0     C 3496   2.727   3.513   9.566  0.1108 -0.2352  0.1862
   26MOL0     C 3497   2.593   3.517   9.543 -0.7206  0.1916  0.9337
   26MOL0     O 3498   2.323   3.453   9.626 -0.1403 -0.1583 -0.3838
   26MOL0     C 3499   2.102   3.470   9.357 -0.6670 -0.0004  0.3632
   26MOL0     C 3500   1.971   3.448   9.327 -0.2892  0.6570  0.0711
   26MOL0     N 3501   1.310   3.128   8.980 -0.4892 -0.7700 -0.2485
   26MOL0     N 3502   1.253   3.198   8.888 -0.3176  0.0107 -0.3556
   26MOL0     C 3503   1.288   3.757   8.203 -0.4651  0.2840 -0.2970
   26MOL0     C 3504   1.271   3.706   8.079  0.2381 -0.7105 -0.4828
   26MOL0     C 3505   1.118   3.710   7.637  0.1022 -0.0694  0.4902
   26MOL0     C 3506   1.000   3.649   7.667  0.1991 -0.9715  0.1468
   26MOL0     C 3507   0.936   3.575   7.572 -0.3244 -0.2727  1.0264
   26MOL0     C 3508   0.989   3.565   7.440 -0.2275 -0.3599 -0.2446
   26MOL0     O 3509   0.914   3.490   7.354 -0.3109 -0.8821  0.1698
   26MOL0     C 3510   0.941   3.485   7.215  0.3165 -0.6194 -0.6446
   26MOL0     C 3511   0.832   3.417   7.139 -0.3875  1.0285 -0.8896
   26MOL0     C 3512   0.794   3.278   7.198  0.0822 -0.1254  0.0485
   26MOL0     C 3513   0.664   3.206   7.164 -0.5921  0.6285 -0.2188
   26MOL0     C 3514   0.651   3.182   7.018  0.0072  0.3748 -0.4983
   26MOL0     C 3515   0.637   3.152   6.902  0.4454  0.9477 -0.0899
   26MOL0     C 3516   1.118   3.627   7.406  0.0192 -0.0666  0.5085
   26MOL0     C 3517   1.186   3.697   7.510 -1.0816  0.6295 -0.4787
   26MOL0     C 3518   1.327   3.741   7.474 -0.1243 -0.1543 -0.8737
   26MOL0     H 3519   1.068   3.954   7.956  0.8828  0.7214  0.2419
   26MOL0     H 3520   1.119   4.041   8.163 -0.8426 -0.3039 -2.4660
   26MOL0     H 3521   1.380   3.794   8.437  0.2499  0.6273 -0.7553
   26MOL0     H 3522   1.222   3.790   8.512  1.6031 -0.7963  1.0178
   26MOL0     H 3523   1.405   4.019   8.547 -2.8561  1.6063 -0.2809
   26MOL0     H 3524   1.295   3.974   8.658  0.6812  1.9802 -1.4390
   26MOL0     H 3525   1.524   3.785   8.602  1.7733 -0.2888  0.8791
   26MOL0     H 3526   1.512   3.907   8.737  0.3224  0.7393 -2.2867
   26MOL0     H 3527   1.388   3.645   8.670  0.2425  0.3979 -0.6316
   26MOL0     H 3528   1.458   3.705   8.827  0.3117  0.2594 -0.5951
   26MOL0     H 3529   1.175   3.762   8.747  0.2763 -0.1256  0.1423
   26MOL0     H 3530   1.273   3.827   8.886  0.5909 -1.0376  0.3632
   26MOL0     H 3531   1.315   3.561   8.929 -0.3514 -1.5604  0.2627
   26MOL0     H 3532   1.175   3.637   8.983  0.6237 -2.3717  0.6009
   26MOL0     H 3533   1.232   3.474   8.736 -0.6007 -3.0511  1.6222
   26MOL0     H 3534   1.088   3.576   8.737  3.6504  1.4422 -3.3229
   26MOL0     H 3535   1.027   3.427   8.940  0.9852 -1.1346 -0.4611
   26MOL0     H 3536   1.061   3.334   8.783  3.4168 -2.1754 -0.9018
   26MOL0     H 3537   1.207   3.396   9.139 -0.1067  0.8746 -0.7409
   26MOL0     H 3538   1.348   3.067   9.246 -0.2307  0.1035 -0.2963
   26MOL0     H 3539   1.320   3.237   9.299 -1.4749  1.4249 -2.0122
   26MOL0     H 3540   1.555   3.143   9.327  2.8344  1.9856 -0.2987
   26MOL0     H 3541   1.563   3.130   9.152  0.8451 -1.1597  1.0479
   26MOL0     H 3542   1.526   3.374   9.130 -1.2314  1.8266  0.7621
   26MOL0     H 3543   1.517   3.388   9.313 -2.6343 -1.2030 -0.1916
   26MOL0     H 3544   1.739   3.312   9.134  2.5582 -0.4629  0.7607
   26MOL0     H 3545   1.724   3.471   9.227 -0.0354  1.1183  1.6536
   26MOL0     H 3546   1.907   3.185   9.526  0.3511 -0.7432 -2.2757
   26MOL0     H 3547   2.230   3.146   9.610 -1.4464 -2.6724 -0.6971
   26MOL0     H 3548   2.071   3.137   9.687 -1.2235 -0.1736 -1.2373
   26MOL0     H 3549   2.189   3.263   9.731  0.6014  0.1477 -0.7222
   26MOL0     H 3550   2.581   3.288   9.292  0.8548  1.1204 -0.7551
   26MOL0     H 3551   2.817   3.280   9.333  0.6372  1.0854  0.0425
   26MOL0     H 3552   2.976   3.232   9.467 -0.2689  0.2509 -2.6336
   26MOL0     H 3553   3.046   3.342   9.352  0.4199 -3.2038 -0.5273
   26MOL0     H 3554   3.203   3.406   9.523 -1.2298  0.3447 -1.0682
   26MOL0     H 3555   3.109   3.314   9.644 -2.6607  2.2665 -0.3630
   26MOL0     H 3556   3.257   3.191   9.401  0.0072 -2.6049 -0.9923
   26MOL0     H 3557   3.149   3.098   9.503 -3.3594  1.7874  1.8248
   26MOL0     H 3558   3.277   3.124   9.697 -0.7247 -0.3529 -1.1769
   26MOL0     H 3559   3.386   3.237   9.628 -0.0933 -0.1753  0.2071
   26MOL0     H 3560   3.483   3.091   9.480 -0.5467  0.9358 -0.9408
   26MOL0     H 3561   3.488   3.006   9.639  0.1049 -1.2857 -0.0009
   26MOL0     H 3562   3.445   2.847   9.465  0.8532  0.2288  2.7326
   26MOL0     H 3563   3.296   2.922   9.420  0.3262 -1.0757 -0.6431
   26MOL0     H 3564   3.230   2.880   9.661 -0.2642 -1.4983  2.1325
   26MOL0     H 3565   3.388   2.786   9.688 -1.3505  0.4338  1.1063
   26MOL0     H 3566   3.241   2.617   9.630 -1.4740 -1.0515 -0.5937
   26MOL0     H 3567   3.294   2.647   9.476 -1.7112 -2.6910  0.4112
   26MOL0     H 3568   2.777   3.559   9.651  0.8441 -0.2026 -0.2535
   26MOL0     H 3569   2.535   3.585   9.605 -2.2198  0.4745 -0.6902
   26MOL0     H 3570   2.145   3.559   9.314 -0.6533  0.6605  1.6957
   26MOL0     H 3571   1.923   3.513   9.254  2.1686  2.2479 -0.2460
   26MOL0     H 3572   1.345   3.693   8.270  2.3278  1.9568 -0.9240
   26MOL0     H 3573   1.338   3.621   8.066  1.0756 -0.4302  1.5455
   26MOL0     H 3574   0.946   3.661   7.760 -1.9818 -1.8425 -0.9188
   26MOL0     H 3575   0.835   3.538   7.584 -1.2703  1.2230 -1.3967
   26MOL0     H 3576   0.958   3.589   7.186 -2.9666 -0.0814 -1.0320
   26MOL0     H 3577   1.033   3.428   7.201 -1.4118 -3.6004 -0.5679
   26MOL0     H 3578   0.862   3.416   7.034  1.0305  1.8931 -0.5173
   26MOL0     H 3579   0.748   3.486   7.150 -3.5860 -2.5292 -1.0047
   26MOL0     H 3580   0.876   3.212   7.169  1.3075  1.7862 -1.1365
   26MOL0     H 3581   0.800   3.274   7.307  0.6038 -2.5946 -0.0210
   26MOL0     H 3582   0.582   3.261   7.212 -0.6715  1.4635 -1.2596
   26MOL0     H 3583   0.663   3.106   7.209  0.4867  0.9931  0.6507
   26MOL0     H 3584   0.637   3.135   6.796  2.5830  1.1611 -0.1759
   26MOL0     H 3585   1.161   3.611   7.307 -0.2096 -0.5330  0.4804
   26MOL0     H 3586   1.385   3.759   7.566 -0.5107  0.0797 -0.6740
   26MOL0     H 3587   1.375   3.663   7.414  3.4805  2.9867 -2.5131
   26MOL0     H 3588   1.323   3.829   7.410 -1.0285  1.0708  0.7983
   27MOL0     O 3589   8.290   4.140  10.266 -0.0928 -0.2964 -0.3212
   27MOL0     C 3590   8.406   4.123  10.233  0.3765 -0.0391 -0.2907
   27MOL0     O 3591   8.502   4.223  10.214 -0.1731  1.0820  0.7380
   27MOL0     C 3592   8.483   4.345  10.266 -0.0743  0.0310 -0.1305
   27MOL0     C 3593   8.419   4.451  10.196 -0.0296  0.0256 -0.2759
   27MOL0     C 3594   8.421   4.583  10.243 -0.1786 -0.3751  0.3340
   27MOL0     C 3595   8.488   4.611  10.365  0.4046 -0.7199  0.0753
   27MOL0     O 3596   8.494   4.743  10.424 -0.0453  0.5180  0.8606
   27MOL0     C 3597   8.427   4.846  10.347  0.0355 -0.7184 -0.5210
   27MOL0     C 3598   8.432   4.981  10.421  0.4837  0.1940  0.5382
   27MOL0     C 3599   8.362   4.988  10.555 -0.4546  0.0925 -0.0300
   27MOL0     C 3600   8.434   4.929  10.673 -0.2737  0.3875 -0.5253
   27MOL0     C 3601   8.586   4.984  10.679  0.9124 -0.1270  1.0285
   27MOL0     C 3602   8.640   4.943  10.823  0.9732  0.4687  0.8272
   27MOL0     C 3603   8.796   4.971  10.847 -0.4379 -0.6779  0.6989
   27MOL0     C 3604   8.873   4.847  10.791 -0.5922 -0.1209  1.2314
   27MOL0     N 3605   9.021   4.871  10.773  0.5027  0.5049  0.3585
   27MOL0     C 3606   9.102   4.859  10.881 -0.0008  0.2199 -1.0175
   27MOL0     C 3607   9.205   4.932  10.845  0.5937 -0.6896 -0.5523
   27MOL0     C 3608   9.314   4.971  10.942  0.2978 -0.3665 -0.4524
   27MOL0     C 3609   9.293   5.106  11.023 -0.0649  0.0831 -0.0857
   27MOL0     C 3610   9.173   5.106  11.127  0.3961 -0.3760  0.0063
   27MOL0     C 3611   9.166   5.247  11.198 -0.1339  0.8564 -0.6927
   27MOL0     O 3612   9.159   5.356  11.100  0.4238 -0.5836 -0.1462
   27MOL0     C 3613   9.043   5.381  11.037  1.2930 -0.1220 -0.1246
   27MOL0     C 3614   9.038   5.421  10.903 -0.2484 -0.3203 -0.1210
   27MOL0     C 3615   8.915   5.457  10.844 -0.8054 -0.2763 -0.4071
   27MOL0     C 3616   8.923   5.485  10.699  0.0297 -0.6310 -0.3220
   27MOL0     C 3617   8.795   5.459  10.918 -0.4044 -0.5208  0.5043
   27MOL0     C 3618   8.673   5.529  10.871  0.4939  0.2123 -0.1646
   27MOL0     O 3619   8.560   5.522  10.945 -0.4131 -0.3921 -0.3774
   27MOL0     C 3620   8.443   5.554  10.885  0.2827  0.9602 -0.6356
   27MOL0     C 3621   8.384   5.684  10.904 -0.6600  1.1099  0.0767
   27MOL0     C 3622   8.252   5.713  10.864  0.0672  0.2992 -0.1255
   27MOL0     C 3623   8.177   5.607  10.814  0.3348  0.3092 -0.1874
   27MOL0     O 3624   8.045   5.607  10.788  0.3908 -0.0752  0.4426
   27MOL0     C 3625   7.971   5.715  10.844  0.4769  0.6600 -0.1081
   27MOL0     C 3626   7.838   5.654  10.886  0.6284 -0.0903 -0.0846
   27MOL0     C 3627   7.766   5.759  10.965 -0.0399 -0.1248  0.0427
   27MOL0     C 3628   7.626   5.703  11.006  0.0189  0.4176  0.9783
   27MOL0     C 3629   7.556   5.779  11.109  0.1622 -0.5164  0.0500
   27MOL0     C 3630   7.479   5.910  11.064 -0.2493  0.8901 -0.0338
   27MOL0     C 3631   7.413   5.972  11.190  1.0932 -0.2200  0.6768
   27MOL0     C 3632   7.306   6.077  11.156 -0.8520 -0.1002 -0.0251
   27MOL0    Cl 3633   7.179   6.003  11.065  0.2514 -0.4067 -0.1706
   27MOL0     C 3634   8.237   5.478  10.806 -0.2493 -0.3389 -0.4468
   27MOL0     C 3635   8.372   5.455  10.834  0.4963 -0.0927 -0.1608
   27MOL0     O 3636   8.687   5.597  10.772  0.8653  0.0532 -0.0954
   27MOL0     C 3637   8.801   5.421  11.056 -0.4698 -0.9506 -0.5755
   27MOL0     C 3638   8.925   5.389  11.114  0.4685 -0.1036 -0.0925
   27MOL0     N 3639   9.190   5.000  10.733  0.0929  0.1071 -1.0245
   27MOL0     N 3640   9.072   4.965  10.689 -0.1190 -0.2588  0.0903
   27MOL0     C 3641   8.536   4.505  10.444  0.3686 -0.3390  0.4037
   27MOL0     C 3642   8.541   4.379  10.393  0.7364  0.5952  0.6611
   27MOL0     C 3643   8.456   3.985  10.218 -0.3527  0.0431  0.1522
   27MOL0     C 3644   8.590   3.973  10.259  0.4937 -0.5270 -0.1238
   27MOL0     C 3645   8.663   3.858  10.246 -0.4880 -0.0648  0.2951
   27MOL0     C 3646   8.594   3.741  10.214 -0.2800  0.7803  0.3207
   27MOL0     O 3647   8.656   3.618  10.216  0.2590 -0.0424 -0.0524
   27MOL0     C 3648   8.757   3.583  10.318  0.0142  0.1923 -0.2728
   27MOL0     C 3649   8.759   3.434  10.357  0.4087 -0.9300 -0.0084
   27MOL0     C 3650   8.772   3.331  10.254  0.0588 -1.0464  0.2006
   27MOL0     C 3651   8.793   3.182  10.310  0.6938  0.5328 -0.4470
   27MOL0     C 3652   8.815   3.095  10.198  0.8213  0.2190 -0.6959
   27MOL0     C 3653   8.823   3.031  10.101  0.3185 -0.0338  0.1956
   27MOL0     C 3654   8.464   3.746  10.174  0.0226 -0.1283 -1.0043
   27MOL0     C 3655   8.392   3.861  10.181 -0.0900  0.2319 -0.0911
   27MOL0     C 3656   8.243   3.855  10.142  0.0167  0.0492 -0.1763
   27MOL0     H 3657   8.365   4.419  10.108 -0.5940  1.7951 -0.6082
   27MOL0     H 3658   8.368   4.654  10.180 -1.1027 -0.5018  0.9448
   27MOL0     H 3659   8.320   4.824  10.345  0.2148 -1.6774  0.0120
   27MOL0     H 3660   8.463   4.853  10.243 -1.0007 -3.5039 -1.1668
   27MOL0     H 3661   8.534   5.020  10.431  1.1931 -0.9448 -1.5714
   27MOL0     H 3662   8.377   5.055  10.363 -0.0190  0.3172  1.1630
   27MOL0     H 3663   8.361   5.094  10.582  2.1382  0.9425 -2.6736
   27MOL0     H 3664   8.261   4.948  10.556  0.0144 -1.1309  1.3021
   27MOL0     H 3665   8.383   4.955  10.766  0.7894  2.3886 -0.4542
   27MOL0     H 3666   8.438   4.820  10.665  1.5890  0.4393 -0.7436
   27MOL0     H 3667   8.606   5.088  10.651 -0.3136 -0.3946 -1.0695
   27MOL0     H 3668   8.633   4.913  10.611 -2.5113 -0.0305 -1.7128
   27MOL0     H 3669   8.566   4.977  10.896 -1.8257  1.0664 -2.0230
   27MOL0     H 3670   8.633   4.835  10.834  0.1846  0.2728 -1.0868
   27MOL0     H 3671   8.815   4.980  10.954  0.0187 -1.3040  0.6757
   27MOL0     H 3672   8.823   5.068  10.805 -0.6585 -0.8252  0.2064
   27MOL0     H 3673   8.857   4.771  10.868  2.9288  0.0503  2.3088
   27MOL0     H 3674   8.830   4.817  10.695  0.3336 -2.0114  1.3538
   27MOL0     H 3675   9.091   4.798  10.970  0.0555  0.2554 -0.9869
   27MOL0     H 3676   9.407   4.995  10.891  1.2219  2.5231  2.2684
   27MOL0     H 3677   9.333   4.897  11.021 -0.4311 -1.2900 -1.1058
   27MOL0     H 3678   9.388   5.132  11.070 -1.4508  1.9508  1.8702
   27MOL0     H 3679   9.280   5.176  10.940  1.4325  2.7067  1.7556
   27MOL0     H 3680   9.077   5.090  11.077 -0.2680 -1.0714  1.4440
   27MOL0     H 3681   9.185   5.029  11.203  0.3164 -0.3592  0.0353
   27MOL0     H 3682   9.082   5.236  11.268  0.6662 -1.8320 -0.0761
   27MOL0     H 3683   9.256   5.266  11.257  0.4184 -1.3937 -0.7332
   27MOL0     H 3684   9.135   5.411  10.855 -0.0944  1.5592 -0.2504
   27MOL0     H 3685   9.012   5.443  10.653 -0.5691 -2.2877 -0.0344
   27MOL0     H 3686   8.919   5.591  10.670  3.0510 -0.4324 -0.3013
   27MOL0     H 3687   8.833   5.439  10.656  1.9544 -2.9685 -2.1212
   27MOL0     H 3688   8.450   5.759  10.947  2.6851 -0.8950 -1.2075
   27MOL0     H 3689   8.224   5.817  10.849 -0.7706 -0.2001 -2.3635
   27MOL0     H 3690   8.030   5.753  10.927  2.0606 -1.3408 -0.2470
   27MOL0     H 3691   7.945   5.790  10.768  0.6522  1.0832  0.2480
   27MOL0     H 3692   7.783   5.614  10.800 -0.2407  2.1619 -0.6275
   27MOL0     H 3693   7.857   5.573  10.958  2.3158  0.6858  0.4072
   27MOL0     H 3694   7.738   5.851  10.913 -3.1646  0.5942  2.6941
   27MOL0     H 3695   7.832   5.783  11.049  3.3624  1.5450 -2.8328
   27MOL0     H 3696   7.646   5.599  11.035  0.5860 -0.4278 -2.0698
   27MOL0     H 3697   7.563   5.708  10.917 -1.2357 -0.3103  1.7991
   27MOL0     H 3698   7.479   5.714  11.153  1.3832 -0.0132  3.1674
   27MOL0     H 3699   7.631   5.792  11.188  1.8080 -2.1475 -1.1424
   27MOL0     H 3700   7.404   5.894  10.985 -1.5418  0.2987  1.2784
   27MOL0     H 3701   7.541   5.982  11.010  1.0772  0.8721  1.4207
   27MOL0     H 3702   7.501   6.015  11.239  1.0101 -0.3812  0.9664
   27MOL0     H 3703   7.372   5.904  11.265 -5.2540  1.5822 -0.6161
   27MOL0     H 3704   7.348   6.168  11.112 -1.8466  2.6187  3.9988
   27MOL0     H 3705   7.250   6.105  11.246 -0.1321  1.3774  0.0049
   27MOL0     H 3706   8.170   5.406  10.762 -1.2509 -0.1906  0.7847
   27MOL0     H 3707   8.404   5.352  10.821 -0.4988 -0.7508  2.1651
   27MOL0     H 3708   8.717   5.429  11.125  0.3114 -2.6057  0.6316
   27MOL0     H 3709   8.913   5.371  11.220 -2.6052 -0.8787 -0.4638
   27MOL0     H 3710   8.588   4.530  10.535  3.1438  1.6371 -1.5601
   27MOL0     H 3711   8.586   4.296  10.447 -0.6722 -2.3512 -2.3049
   27MOL0     H 3712   8.637   4.057  10.309 -0.3696  0.3741 -0.8020
   27MOL0     H 3713   8.761   3.850  10.291  1.4226 -1.9946 -3.7254
   27MOL0     H 3714   8.849   3.607  10.263 -0.1259  0.5940 -0.3372
   27MOL0     H 3715   8.761   3.645  10.408  0.7503 -2.1787  1.4313
   27MOL0     H 3716   8.657   3.431  10.395  0.0191  1.8074 -0.5777
   27MOL0     H 3717   8.837   3.417  10.431  0.3927  0.9062  0.4991
   27MOL0     H 3718   8.682   3.332  10.192  0.4183 -0.4858 -0.3207
   27MOL0     H 3719   8.856   3.364  10.193 -1.4639 -2.4822 -2.8937
   27MOL0     H 3720   8.699   3.162  10.363  0.6497  1.3228 -0.2142
   27MOL0     H 3721   8.874   3.181  10.385 -0.1547  1.7924  0.5195
   27MOL0     H 3722   8.860   2.986  10.011  1.9417  3.1154 -0.8888
   27MOL0     H 3723   8.430   3.646  10.148 -0.3700 -0.5602  0.9388
   27MOL0     H 3724   8.211   3.755  10.111  2.2929 -0.9316  0.4429
   27MOL0     H 3725   8.174   3.888  10.220 -1.6569  0.2518 -1.6613
   27MOL0     H 3726   8.234   3.921  10.055  0.3062  2.2843  1.4037
   28MOL0     O 3727   8.182   4.710   2.709 -0.6614 -0.1222  0.3534
   28MOL0     C 3728   8.255   4.776   2.630 -0.5893  0.1897  0.0209
   28MOL0     O 3729   8.386   4.794   2.641 -0.3117  0.1800  0.1488
   28MOL0     C 3730   8.459   4.725   2.738  0.7625  0.0514  0.5452
   28MOL0     C 3731   8.483   4.586   2.733  0.2795  0.2291 -0.1705
   28MOL0     C 3732   8.541   4.511   2.830 -0.2941 -0.5450  0.4226
   28MOL0     C 3733   8.580   4.581   2.948 -0.6854  0.3173  0.3717
   28MOL0     O 3734   8.638   4.523   3.062 -0.0410 -0.5548  0.3005
   28MOL0     C 3735   8.642   4.379   3.055 -0.9872 -0.2442  0.6001
   28MOL0     C 3736   8.729   4.327   3.174 -0.1136  0.4796  0.2039
   28MOL0     C 3737   8.675   4.346   3.324 -0.3934 -0.0000 -1.0907
   28MOL0     C 3738   8.782   4.305   3.428  0.0044  0.5061  1.2778
   28MOL0     C 3739   8.744   4.329   3.575  1.0962 -0.8648  0.1562
   28MOL0     C 3740   8.613   4.265   3.623 -0.2357  0.0089  0.2601
   28MOL0     C 3741   8.557   4.308   3.765 -0.6556  0.6127  0.3558
   28MOL0     C 3742   8.670   4.310   3.867 -0.3849 -0.3554 -0.1883
   28MOL0     N 3743   8.730   4.180   3.894 -0.5706  0.9120 -0.3015
   28MOL0     C 3744   8.694   4.096   3.997  0.1412 -1.5234  0.1431
   28MOL0     C 3745   8.779   3.987   3.984  0.6029 -0.7337 -0.3021
   28MOL0     C 3746   8.765   3.881   4.086 -0.5783 -0.0680 -0.8524
   28MOL0     C 3747   8.676   3.763   4.052 -0.1162  1.1704  0.7627
   28MOL0     C 3748   8.548   3.793   4.116  0.3921  0.3549 -0.0765
   28MOL0     C 3749   8.435   3.701   4.057  0.1296  0.5512  1.3266
   28MOL0     O 3750   8.312   3.746   4.106  0.7522 -0.7460 -0.2173
   28MOL0     C 3751   8.193   3.700   4.051  0.8250 -0.3121 -0.1903
   28MOL0     C 3752   8.178   3.600   3.960 -0.2486  0.0294  0.3413
   28MOL0     C 3753   8.053   3.549   3.918  0.1086  0.0154 -0.5814
   28MOL0     C 3754   8.056   3.448   3.799  0.1734  0.0893  0.7010
   28MOL0     C 3755   7.932   3.605   3.967  0.7997  0.2451 -0.6666
   28MOL0     C 3756   7.792   3.567   3.950  0.4298  0.0679 -0.5587
   28MOL0     O 3757   7.693   3.653   3.975 -0.6115  0.2217 -0.0577
   28MOL0     C 3758   7.560   3.621   3.939 -0.3917  0.9705 -0.1532
   28MOL0     C 3759   7.474   3.605   4.050  0.5143  0.1632  0.8744
   28MOL0     C 3760   7.349   3.557   4.026  0.9162  0.6505  0.4399
   28MOL0     C 3761   7.299   3.532   3.891  0.0957 -0.4174  0.2616
   28MOL0     O 3762   7.172   3.493   3.845  0.1453  0.4008  0.0534
   28MOL0     C 3763   7.067   3.460   3.924  0.0536  0.0960  0.3963
   28MOL0     C 3764   6.936   3.450   3.842  0.7144  0.9249 -0.5604
   28MOL0     C 3765   6.965   3.347   3.723  0.9511 -0.2666 -0.1521
   28MOL0     C 3766   6.841   3.336   3.627 -0.3371 -0.4242  0.2754
   28MOL0     C 3767   6.888   3.291   3.488  0.3875 -1.0533  0.3741
   28MOL0     C 3768   6.776   3.263   3.380  0.4894 -0.0429 -0.5943
   28MOL0     C 3769   6.833   3.225   3.244  0.3559 -0.2001  0.4291
   28MOL0     C 3770   6.727   3.237   3.135 -0.3953  0.1930  0.9502
   28MOL0    Cl 3771   6.591   3.120   3.169  0.0726  0.2967  0.2779
   28MOL0     C 3772   7.388   3.546   3.784  0.5165  0.2050 -0.0375
   28MOL0     C 3773   7.517   3.590   3.811 -0.5612  0.1925  0.4041
   28MOL0     O 3774   7.780   3.453   3.904  0.3155 -0.0218  0.4642
   28MOL0     C 3775   7.944   3.707   4.063  0.5014  0.0792  1.5423
   28MOL0     C 3776   8.072   3.757   4.101  0.6920  1.6295 -0.7826
   28MOL0     N 3777   8.842   3.997   3.866  0.7374 -0.3419 -0.4137
   28MOL0     N 3778   8.820   4.113   3.818 -0.6315 -1.1623  0.7686
   28MOL0     C 3779   8.562   4.725   2.953  0.3660 -0.3675 -0.1295
   28MOL0     C 3780   8.499   4.792   2.846 -1.0765  0.2186 -0.2464
   28MOL0     C 3781   8.193   4.856   2.517  0.3101  0.4373 -0.7605
   28MOL0     C 3782   8.055   4.885   2.528 -0.9434 -0.6790 -0.0724
   28MOL0     C 3783   7.975   4.929   2.423 -0.4484 -0.8596 -0.7623
   28MOL0     C 3784   8.039   4.944   2.297  0.8006  0.0918 -0.0481
   28MOL0     O 3785   7.976   4.969   2.173 -0.3530 -0.1392  0.1373
   28MOL0     C 3786   7.835   4.994   2.181 -0.6792  0.2394  0.0028
   28MOL0     C 3787   7.784   5.021   2.039 -0.2586 -0.8830 -0.3218
   28MOL0     C 3788   7.636   5.025   2.050 -0.5577 -0.1554 -0.1390
   28MOL0     C 3789   7.566   5.118   1.947 -0.6547  0.4125 -0.3381
   28MOL0     C 3790   7.420   5.092   1.964 -0.2690  0.5770  0.1160
   28MOL0     C 3791   7.305   5.068   1.959  0.0827  0.5665  0.5503
   28MOL0     C 3792   8.176   4.929   2.294 -0.2536 -1.1591 -0.3309
   28MOL0     C 3793   8.258   4.889   2.394 -0.3237  0.8253 -0.2040
   28MOL0     C 3794   8.403   4.873   2.366 -0.9229 -0.8640 -0.5548
   28MOL0     H 3795   8.458   4.519   2.651  2.5902 -0.7145 -0.1884
   28MOL0     H 3796   8.550   4.404   2.812 -2.6849 -0.6023 -0.7929
   28MOL0     H 3797   8.705   4.352   2.970 -2.8185  0.0170 -0.8918
   28MOL0     H 3798   8.543   4.331   3.057 -1.6497  0.9408 -1.6439
   28MOL0     H 3799   8.728   4.219   3.157 -0.8694  0.6587 -0.9388
   28MOL0     H 3800   8.829   4.371   3.164  0.7618 -1.6160 -0.6772
   28MOL0     H 3801   8.648   4.452   3.335 -1.7127 -0.3843 -0.5297
   28MOL0     H 3802   8.583   4.292   3.345 -0.7673  1.3660  1.1381
   28MOL0     H 3803   8.801   4.198   3.415 -3.3892  0.0800 -1.4655
   28MOL0     H 3804   8.872   4.360   3.400 -0.4383  1.3818  1.5290
   28MOL0     H 3805   8.748   4.436   3.600 -0.9014 -1.1496  1.9246
   28MOL0     H 3806   8.825   4.295   3.640  2.4830  2.8529  0.6082
   28MOL0     H 3807   8.527   4.277   3.557 -0.7913 -2.1902  0.5122
   28MOL0     H 3808   8.634   4.158   3.625 -0.1392  0.0140  2.4289
   28MOL0     H 3809   8.480   4.237   3.797 -0.3889  1.6778  3.8224
   28MOL0     H 3810   8.510   4.407   3.756 -1.6441  0.0439 -1.0919
   28MOL0     H 3811   8.755   4.368   3.829  0.4375 -1.4646 -0.1016
   28MOL0     H 3812   8.642   4.351   3.964  0.6104 -3.2989  1.4982
   28MOL0     H 3813   8.613   4.114   4.067  1.1177 -1.0513  1.1734
   28MOL0     H 3814   8.734   3.926   4.181 -0.5468  2.2688 -1.8797
   28MOL0     H 3815   8.864   3.846   4.114 -1.3037 -1.8962 -0.4745
   28MOL0     H 3816   8.663   3.756   3.943 -0.0766  0.2329  0.8105
   28MOL0     H 3817   8.723   3.669   4.081  1.6151  1.3815 -1.0825
   28MOL0     H 3818   8.561   3.791   4.225  0.2576  3.2426  0.0675
   28MOL0     H 3819   8.517   3.896   4.096 -1.1791  0.1125  0.9049
   28MOL0     H 3820   8.444   3.708   3.949  0.4115  0.2227  1.3269
   28MOL0     H 3821   8.443   3.593   4.071 -1.5639 -0.0914 -1.8165
   28MOL0     H 3822   8.257   3.551   3.904 -2.6536 -1.6229 -1.8134
   28MOL0     H 3823   7.982   3.474   3.723 -0.6745  0.4168  1.6236
   28MOL0     H 3824   8.027   3.349   3.837 -1.2888 -0.0323 -0.6067
   28MOL0     H 3825   8.152   3.437   3.747 -0.4205 -0.6507 -0.2710
   28MOL0     H 3826   7.492   3.631   4.154 -5.0541  2.9007  1.5438
   28MOL0     H 3827   7.277   3.551   4.107 -2.7928 -0.1172 -2.6534
   28MOL0     H 3828   7.097   3.371   3.980  0.1964 -0.1193 -0.0133
   28MOL0     H 3829   7.065   3.548   3.988  5.5347  0.6746  0.2809
   28MOL0     H 3830   6.857   3.413   3.909  2.6911 -1.6382  0.5042
   28MOL0     H 3831   6.904   3.549   3.810 -0.1249  1.3206  1.3656
   28MOL0     H 3832   6.983   3.248   3.768  1.4172 -1.1581 -2.1812
   28MOL0     H 3833   7.057   3.375   3.671  1.1417 -0.3941  0.1132
   28MOL0     H 3834   6.806   3.439   3.622 -2.1850 -1.0640 -1.2609
   28MOL0     H 3835   6.766   3.264   3.662  2.4591 -3.3169  0.8639
   28MOL0     H 3836   6.938   3.378   3.445 -1.2098  1.0640  2.4905
   28MOL0     H 3837   6.959   3.208   3.495  0.3250 -1.0052  2.0008
   28MOL0     H 3838   6.719   3.356   3.379 -2.5270 -1.4475  4.5540
   28MOL0     H 3839   6.721   3.174   3.414  3.6539 -2.2598 -0.8555
   28MOL0     H 3840   6.854   3.117   3.244 -0.4472 -0.4341  3.6533
   28MOL0     H 3841   6.929   3.277   3.234  1.1005 -1.5747  0.1535
   28MOL0     H 3842   6.778   3.208   3.042 -2.6590 -0.4986 -0.1422
   28MOL0     H 3843   6.691   3.338   3.113  1.4751  0.5207 -0.9959
   28MOL0     H 3844   7.360   3.526   3.681  1.4122 -0.3330 -0.1855
   28MOL0     H 3845   7.585   3.583   3.727 -3.1154 -1.7772 -1.6944
   28MOL0     H 3846   7.852   3.746   4.105 -1.4872 -0.3323 -2.0192
   28MOL0     H 3847   8.079   3.841   4.169  0.4271  0.5820  0.5751
   28MOL0     H 3848   8.597   4.779   3.040  1.3325  0.5831 -1.0687
   28MOL0     H 3849   8.463   4.892   2.870 -1.0873  0.9985 -3.1503
   28MOL0     H 3850   8.010   4.870   2.626 -2.4451  1.2213 -0.4015
   28MOL0     H 3851   7.868   4.943   2.431 -0.3392  1.1938 -2.0819
   28MOL0     H 3852   7.801   4.898   2.222  1.7596 -1.1340 -1.0413
   28MOL0     H 3853   7.807   5.079   2.244  0.7313  1.1545 -0.5631
   28MOL0     H 3854   7.821   4.938   1.977 -0.2994  0.6749 -2.5760
   28MOL0     H 3855   7.827   5.113   1.997 -0.7074  0.0804  1.2552
   28MOL0     H 3856   7.597   4.923   2.037  0.8317 -0.4118 -3.2962
   28MOL0     H 3857   7.602   5.061   2.148  1.8166  2.4203 -0.1691
   28MOL0     H 3858   7.593   5.091   1.845 -0.0169  0.0900 -0.0917
   28MOL0     H 3859   7.589   5.225   1.955 -1.4779  0.4937  1.3231
   28MOL0     H 3860   7.201   5.043   1.954  0.0989  0.6340 -0.4181
   28MOL0     H 3861   8.225   4.961   2.202 -1.4491  2.2396  0.0672
   28MOL0     H 3862   8.457   4.932   2.440  1.7891 -2.1964 -1.3142
   28MOL0     H 3863   8.454   4.777   2.375  0.6522 -0.1758 -1.5446
   28MOL0     H 3864   8.438   4.916   2.271 -3.6107  0.0800 -1.2035
   29MOL0     O 3865   0.194   3.716   2.268  0.1863 -0.6676  0.7010
   29MOL0     C 3866   0.266   3.815   2.299  0.3233  0.5190  0.2973
   29MOL0     O 3867   0.258   3.942   2.248  0.2350  0.9475 -1.0016
   29MOL0     C 3868   0.168   3.986   2.159 -0.4962 -0.0376 -0.2486
   29MOL0     C 3869   0.031   3.998   2.192 -0.4855  0.5398 -0.5067
   29MOL0     C 3870  -0.059   4.049   2.092  0.2029  0.0712  0.1714
   29MOL0     C 3871  -0.020   4.097   1.970 -0.0879 -0.2380 -0.1795
   29MOL0     O 3872  -0.117   4.135   1.883  0.7275  0.8025  0.4205
   29MOL0     C 3873  -0.094   4.125   1.741 -0.9466  0.6488  0.1412
   29MOL0     C 3874  -0.181   4.201   1.644 -0.0555 -0.0356 -0.4355
   29MOL0     C 3875  -0.151   4.355   1.649  1.5430 -0.2718  0.0104
   29MOL0     C 3876  -0.228   4.443   1.553  0.4161 -0.0198  0.0089
   29MOL0     C 3877  -0.210   4.596   1.586  0.0173 -0.3794  0.7946
   29MOL0     C 3878  -0.309   4.677   1.498  0.5503 -0.4586 -0.7741
   29MOL0     C 3879  -0.302   4.651   1.350 -0.6595  0.3074  0.0812
   29MOL0     C 3880  -0.164   4.670   1.284  0.3609  0.5364  0.0177
   29MOL0     N 3881  -0.157   4.662   1.141 -0.1899  0.3799  0.1121
   29MOL0     C 3882  -0.084   4.747   1.064 -1.4252  1.0306  0.6101
   29MOL0     C 3883  -0.110   4.708   0.933  1.0795 -1.0595 -0.6702
   29MOL0     C 3884  -0.032   4.766   0.818  0.3257 -0.4095 -0.5750
   29MOL0     C 3885  -0.071   4.909   0.781 -0.5385  0.0969  0.3688
   29MOL0     C 3886   0.044   4.961   0.682  0.6642  0.5894 -0.8064
   29MOL0     C 3887   0.154   5.035   0.759 -0.1814  0.0544  0.3193
   29MOL0     O 3888   0.243   4.959   0.841 -0.3687  0.6106 -0.1477
   29MOL0     C 3889   0.335   4.872   0.795 -0.8240  0.1371 -0.3984
   29MOL0     C 3890   0.420   4.801   0.887  0.1499 -1.3624  0.4957
   29MOL0     C 3891   0.529   4.717   0.848 -0.2293 -0.4096  0.2253
   29MOL0     C 3892   0.618   4.655   0.947 -0.0477 -0.6157 -0.6018
   29MOL0     C 3893   0.539   4.686   0.710 -0.3138  0.2122  0.4236
   29MOL0     C 3894   0.634   4.597   0.637 -0.3041 -0.1322  0.2088
   29MOL0     O 3895   0.675   4.484   0.702 -0.1340 -0.0764 -0.7158
   29MOL0     C 3896   0.773   4.401   0.656  0.2308  0.6395 -0.0886
   29MOL0     C 3897   0.749   4.265   0.704  0.0862  0.5068  0.3988
   29MOL0     C 3898   0.845   4.172   0.683  0.1016 -0.0432 -0.1850
   29MOL0     C 3899   0.947   4.189   0.588 -1.1566  0.2504  0.8159
   29MOL0     O 3900   1.037   4.088   0.567 -0.2656  0.2433 -0.5073
   29MOL0     C 3901   1.134   4.101   0.463 -0.2905 -0.2514  0.1160
   29MOL0     C 3902   1.229   3.973   0.465  0.0712 -0.7292 -0.6309
   29MOL0     C 3903   1.295   3.952   0.331  0.2020 -0.3400 -0.7209
   29MOL0     C 3904   1.352   3.816   0.325  0.3568 -0.5013 -0.4238
   29MOL0     C 3905   1.406   3.789   0.190  0.5413 -0.2052 -0.1025
   29MOL0     C 3906   1.483   3.656   0.191  0.0722 -0.1171 -0.1421
   29MOL0     C 3907   1.528   3.615   0.049  0.7880  0.1616  0.4668
   29MOL0     C 3908   1.586   3.468   0.060  0.6902  0.4035 -0.5517
   29MOL0    Cl 3909   1.453   3.351   0.099 -0.1296 -0.1864  0.4144
   29MOL0     C 3910   0.960   4.319   0.535 -1.0096 -1.0595 -0.3553
   29MOL0     C 3911   0.877   4.422   0.583 -0.0782 -0.9904  0.3680
   29MOL0     O 3912   0.673   4.630   0.526  0.5665 -0.1629 -0.3524
   29MOL0     C 3913   0.453   4.747   0.625 -0.2798 -0.0983 -0.3953
   29MOL0     C 3914   0.356   4.842   0.658  0.6519  0.2218 -0.0745
   29MOL0     N 3915  -0.192   4.593   0.933  0.4356 -0.2491 -0.4553
   29MOL0     N 3916  -0.215   4.567   1.060 -0.6647  1.0989  0.3800
   29MOL0     C 3917   0.124   4.089   1.945  0.2971 -0.4883  0.4274
   29MOL0     C 3918   0.212   4.026   2.038 -0.6137 -0.3486  0.1404
   29MOL0     C 3919   0.385   3.780   2.380  0.1031 -0.5571 -0.0741
   29MOL0     C 3920   0.423   3.645   2.397 -0.2113 -0.7036  0.0683
   29MOL0     C 3921   0.526   3.606   2.484  0.8892 -0.1671 -0.9978
   29MOL0     C 3922   0.584   3.696   2.563 -0.0872  0.5522  0.4840
   29MOL0     O 3923   0.680   3.638   2.640 -0.6918 -0.5361 -0.6246
   29MOL0     C 3924   0.756   3.717   2.731  0.0259 -0.0391  0.2104
   29MOL0     C 3925   0.825   3.630   2.840 -0.4259 -0.2718  0.4351
   29MOL0     C 3926   0.901   3.707   2.939  0.0126 -1.0012 -0.3368
   29MOL0     C 3927   1.038   3.767   2.892 -0.6667 -0.7521 -0.1626
   29MOL0     C 3928   1.129   3.653   2.851 -0.1091 -0.4934 -0.0034
   29MOL0     C 3929   1.208   3.560   2.827  0.4198 -0.0776 -0.0822
   29MOL0     C 3930   0.548   3.828   2.558  0.6995 -0.5592  0.6017
   29MOL0     C 3931   0.447   3.869   2.467 -0.8739 -0.2644 -0.2812
   29MOL0     C 3932   0.408   4.017   2.486  1.2365  0.6954  0.0993
   29MOL0     H 3933  -0.004   3.946   2.281  0.4283  1.0740  0.1836
   29MOL0     H 3934  -0.163   4.027   2.112 -0.0270  1.3644  0.4847
   29MOL0     H 3935  -0.093   4.021   1.709 -1.3606  0.1975  1.5300
   29MOL0     H 3936   0.005   4.169   1.721  1.0092 -3.5727 -0.4025
   29MOL0     H 3937  -0.165   4.161   1.544  0.3993 -3.1332  0.7767
   29MOL0     H 3938  -0.286   4.184   1.671  0.4762 -3.2545 -0.0511
   29MOL0     H 3939  -0.166   4.368   1.757  0.3182 -3.7985  0.3963
   29MOL0     H 3940  -0.044   4.360   1.628  1.7997  2.1152  1.5097
   29MOL0     H 3941  -0.186   4.444   1.452 -0.3371  1.1639 -0.3103
   29MOL0     H 3942  -0.331   4.408   1.551  0.4168 -0.0281  0.1568
   29MOL0     H 3943  -0.106   4.628   1.575 -0.1205 -0.9584 -4.0510
   29MOL0     H 3944  -0.236   4.617   1.690 -1.5888  2.0040  0.0012
   29MOL0     H 3945  -0.412   4.670   1.534  0.9782  1.9586  1.2234
   29MOL0     H 3946  -0.289   4.783   1.515 -0.7385 -0.3520  0.1911
   29MOL0     H 3947  -0.368   4.725   1.304 -0.3682 -0.1406 -1.0816
   29MOL0     H 3948  -0.324   4.549   1.319  0.1760  0.5136 -1.2752
   29MOL0     H 3949  -0.118   4.762   1.323  2.3512 -0.8328  1.1341
   29MOL0     H 3950  -0.105   4.583   1.316 -0.1702  0.2283  0.1647
   29MOL0     H 3951  -0.032   4.833   1.106  1.9508  0.2660 -1.5707
   29MOL0     H 3952  -0.048   4.712   0.724 -0.8717 -1.4137  0.1690
   29MOL0     H 3953   0.069   4.762   0.860 -0.6657 -0.1371  2.0523
   29MOL0     H 3954  -0.161   4.908   0.719 -0.6071  2.1176  0.3823
   29MOL0     H 3955  -0.098   4.972   0.866 -2.1237  0.9878 -0.7514
   29MOL0     H 3956   0.083   4.894   0.605 -1.0892  0.0268 -1.2598
   29MOL0     H 3957  -0.006   5.039   0.624  0.9727 -0.3284 -2.3595
   29MOL0     H 3958   0.203   5.091   0.679  1.4696 -0.4410  0.9246
   29MOL0     H 3959   0.104   5.102   0.829 -0.1653 -0.7203  1.0958
   29MOL0     H 3960   0.419   4.830   0.992 -0.7167  0.0257  0.1301
   29MOL0     H 3961   0.595   4.550   0.961  3.2041 -1.4309 -0.4825
   29MOL0     H 3962   0.610   4.707   1.044  1.4361 -3.0467  0.9244
   29MOL0     H 3963   0.721   4.658   0.909 -0.7551 -1.8046 -2.7568
   29MOL0     H 3964   0.672   4.245   0.777  1.6980 -2.8171  1.4072
   29MOL0     H 3965   0.824   4.086   0.746 -2.2003  0.6409  0.0430
   29MOL0     H 3966   1.092   4.120   0.364  2.5665  1.4305 -0.8915
   29MOL0     H 3967   1.185   4.197   0.476 -2.1491  0.8168 -0.2074
   29MOL0     H 3968   1.298   3.986   0.550  0.6474  1.8928 -1.3884
   29MOL0     H 3969   1.170   3.885   0.490 -1.1104  0.0680 -0.5278
   29MOL0     H 3970   1.377   4.024   0.321 -0.1277  0.4833  1.7239
   29MOL0     H 3971   1.219   3.964   0.253  1.7738  2.0842 -2.0031
   29MOL0     H 3972   1.274   3.743   0.348 -0.3504  0.7604  1.4730
   29MOL0     H 3973   1.431   3.792   0.397  0.5339 -2.7146 -1.2753
   29MOL0     H 3974   1.327   3.779   0.115 -0.9757  4.0860  0.6363
   29MOL0     H 3975   1.472   3.869   0.154  2.3145 -0.8728  1.4385
   29MOL0     H 3976   1.411   3.581   0.226 -0.8226 -0.4997 -2.5564
   29MOL0     H 3977   1.565   3.648   0.262  0.1666  0.2677 -0.2066
   29MOL0     H 3978   1.600   3.688   0.012  1.6611 -2.0094 -2.4896
   29MOL0     H 3979   1.444   3.611  -0.021  1.6758 -1.1766 -0.5815
   29MOL0     H 3980   1.651   3.466   0.148  0.3021 -2.8284 -0.2316
   29MOL0     H 3981   1.636   3.441  -0.034  0.7044  1.1353 -0.7600
   29MOL0     H 3982   1.032   4.339   0.456 -0.7333 -0.5667  0.0153
   29MOL0     H 3983   0.892   4.525   0.551 -1.2197 -0.7513  0.5519
   29MOL0     H 3984   0.454   4.716   0.520  1.4462 -1.5391 -0.0145
   29MOL0     H 3985   0.293   4.872   0.575 -3.0740 -0.9768  2.1056
   29MOL0     H 3986   0.160   4.102   1.844 -0.8509  0.2820  0.0926
   29MOL0     H 3987   0.311   4.026   1.993 -0.7425  0.6736 -0.1742
   29MOL0     H 3988   0.369   3.568   2.343 -0.7652 -1.0517  1.0974
   29MOL0     H 3989   0.541   3.500   2.503 -2.0090 -0.3449  0.9594
   29MOL0     H 3990   0.809   3.783   2.661 -3.5182  2.7703 -0.1501
   29MOL0     H 3991   0.683   3.781   2.782 -0.9646 -0.7474 -0.2926
   29MOL0     H 3992   0.892   3.555   2.797 -0.5467 -0.8438  1.2251
   29MOL0     H 3993   0.757   3.564   2.895 -0.1851 -0.2453  0.7705
   29MOL0     H 3994   0.838   3.789   2.975  1.5368 -0.9094  2.4198
   29MOL0     H 3995   0.929   3.648   3.026 -1.3627 -1.5705 -0.2461
   29MOL0     H 3996   1.086   3.834   2.963  2.7231 -1.2093 -1.8258
   29MOL0     H 3997   1.023   3.820   2.797  2.4207 -0.4951 -0.6150
   29MOL0     H 3998   1.286   3.487   2.817 -0.6900 -1.0599 -1.9991
   29MOL0     H 3999   0.589   3.901   2.627 -2.1553  1.9087 -0.0945
   29MOL0     H 4000   0.461   4.054   2.574  1.0283  1.3480 -0.0448
   29MOL0     H 4001   0.437   4.077   2.400  1.0108  1.3175  0.4518
   29MOL0     H 4002   0.301   4.026   2.509  1.2157 -0.3732  0.4951
   30MOL0     O 4003   9.112   7.384   1.379 -0.3262  0.3714 -0.0906
   30MOL0     C 4004   9.203   7.412   1.294  0.0833  0.2338 -0.1707
   30MOL0     O 4005   9.338   7.437   1.320 -0.2595  0.4164 -0.0737
   30MOL0     C 4006   9.380   7.442   1.449 -0.4294  0.2839 -0.2620
   30MOL0     C 4007   9.520   7.436   1.459 -0.3989 -0.4825 -0.3718
   30MOL0     C 4008   9.581   7.434   1.588 -0.3024  0.8208  0.1553
   30MOL0     C 4009   9.509   7.463   1.703  0.3403 -0.3445  1.4347
   30MOL0     O 4010   9.584   7.478   1.816  0.3323  0.0922  0.0091
   30MOL0     C 4011   9.510   7.457   1.935 -0.7817 -0.5050  0.3344
   30MOL0     C 4012   9.614   7.437   2.043  0.0557  0.4233 -0.0764
   30MOL0     C 4013   9.550   7.464   2.175 -0.5613 -1.0696  0.2896
   30MOL0     C 4014   9.621   7.379   2.279  0.1816  0.2442 -0.0105
   30MOL0     C 4015   9.578   7.411   2.419 -0.7034 -0.2509 -0.3861
   30MOL0     C 4016   9.619   7.562   2.461  1.6158  0.5040  0.8699
   30MOL0     C 4017   9.581   7.573   2.611  0.4454 -0.7040 -0.1071
   30MOL0     C 4018   9.424   7.589   2.621  0.8348 -0.1899 -1.1139
   30MOL0     N 4019   9.378   7.728   2.634 -0.0726  0.4323  0.4859
   30MOL0     C 4020   9.342   7.784   2.515 -0.5068 -0.4292 -0.4732
   30MOL0     C 4021   9.339   7.921   2.543 -0.1711 -0.4431  1.0381
   30MOL0     C 4022   9.284   8.024   2.445  0.1165 -0.2282  0.3385
   30MOL0     C 4023   9.388   8.092   2.349  0.0117 -0.1584 -0.8861
   30MOL0     C 4024   9.384   8.037   2.209  0.0179 -0.1146 -0.4902
   30MOL0     C 4025   9.452   7.904   2.179  0.3199  0.1325  0.4034
   30MOL0     O 4026   9.380   7.791   2.215  1.0670  0.6560  1.0957
   30MOL0     C 4027   9.295   7.742   2.120 -0.2571  0.1033 -0.8731
   30MOL0     C 4028   9.258   7.804   2.004 -0.2564  0.5875  0.2315
   30MOL0     C 4029   9.160   7.750   1.919 -0.5103 -0.8802 -0.1209
   30MOL0     C 4030   9.137   7.813   1.782  0.1122 -0.9991 -0.0462
   30MOL0     C 4031   9.096   7.629   1.959  0.0654 -0.6991  0.6620
   30MOL0     C 4032   8.998   7.550   1.881  0.2184 -0.5302 -0.0245
   30MOL0     O 4033   9.025   7.412   1.884 -0.0674  0.2452  0.7222
   30MOL0     C 4034   8.927   7.336   1.821 -0.6099  0.5293 -0.9146
   30MOL0     C 4035   8.945   7.308   1.686  0.6593 -0.0364 -0.4859
   30MOL0     C 4036   8.847   7.224   1.628  0.4937 -1.9204  0.2172
   30MOL0     C 4037   8.741   7.162   1.699 -0.1384 -0.4600  0.0976
   30MOL0     O 4038   8.657   7.065   1.638  0.2293  0.8696  0.9238
   30MOL0     C 4039   8.720   6.985   1.529 -0.2141  0.3459  0.3304
   30MOL0     C 4040   8.624   6.879   1.468 -0.3368  0.7186  0.5683
   30MOL0     C 4041   8.681   6.826   1.333  0.5044 -0.2870  0.5314
   30MOL0     C 4042   8.662   6.923   1.220 -0.1845  0.4240 -0.0497
   30MOL0     C 4043   8.691   6.864   1.083 -1.1258  0.9547 -0.1237
   30MOL0     C 4044   8.828   6.795   1.077 -0.8090  0.4672 -0.2607
   30MOL0     C 4045   8.846   6.708   0.950 -0.4007 -0.7868  0.2796
   30MOL0     C 4046   8.983   6.649   0.949 -0.0407 -0.4878  0.5550
   30MOL0    Cl 4047   9.026   6.553   0.797  0.0394 -0.1976  0.2078
   30MOL0     C 4048   8.734   7.180   1.838 -0.0715 -0.1813 -0.0339
   30MOL0     C 4049   8.824   7.272   1.895 -0.1000 -0.4290 -0.0837
   30MOL0     O 4050   8.910   7.613   1.817 -0.0143  0.6138  0.0402
   30MOL0     C 4051   9.135   7.570   2.079 -0.3663  0.2845  0.0253
   30MOL0     C 4052   9.236   7.623   2.155 -0.6090  0.1504 -0.2482
   30MOL0     N 4053   9.353   7.937   2.682 -1.3241 -0.6927  0.4347
   30MOL0     N 4054   9.385   7.817   2.732 -0.0126 -0.9366 -0.5762
   30MOL0     C 4055   9.372   7.485   1.691  0.3707 -0.2195 -0.8094
   30MOL0     C 4056   9.311   7.483   1.567  0.3010  0.1098  0.3297
   30MOL0     C 4057   9.171   7.420   1.154  1.1880  0.6924  0.1638
   30MOL0     C 4058   9.150   7.294   1.088  0.3848  0.1260 -0.0343
   30MOL0     C 4059   9.105   7.300   0.955 -0.2502  0.5525 -0.3728
   30MOL0     C 4060   9.066   7.421   0.897 -1.3838 -0.2337  0.2524
   30MOL0     O 4061   9.046   7.402   0.761 -0.0405  0.1819 -0.1788
   30MOL0     C 4062   9.049   7.508   0.674 -0.6192 -0.1162  0.1924
   30MOL0     C 4063   9.014   7.453   0.536 -0.3904 -0.9868 -0.6248
   30MOL0     C 4064   9.087   7.520   0.420  0.5213  0.1229  0.4112
   30MOL0     C 4065   9.068   7.671   0.397  0.1604 -0.3773  0.9633
   30MOL0     C 4066   8.939   7.729   0.412  1.0973  0.6826 -0.0410
   30MOL0     C 4067   8.838   7.793   0.413  0.4914  0.3360 -0.3708
   30MOL0     C 4068   9.082   7.540   0.964  0.1618  0.1227 -0.4765
   30MOL0     C 4069   9.131   7.537   1.094  0.8601  0.2547  0.7294
   30MOL0     C 4070   9.120   7.663   1.172  0.1816  0.0276  0.1690
   30MOL0     H 4071   9.582   7.423   1.371  1.8601  1.6630  0.7926
   30MOL0     H 4072   9.689   7.426   1.594 -0.3657  0.1601  0.5563
   30MOL0     H 4073   9.440   7.376   1.916 -1.7568  0.9748 -3.1286
   30MOL0     H 4074   9.453   7.548   1.955  0.5643  0.7595 -1.3064
   30MOL0     H 4075   9.653   7.337   2.021 -2.3405 -0.1372 -2.3683
   30MOL0     H 4076   9.683   7.521   2.030  0.7997  0.0570  1.3402
   30MOL0     H 4077   9.562   7.569   2.203 -0.8028 -1.3547  1.5212
   30MOL0     H 4078   9.443   7.443   2.170 -1.4148  2.5481  0.5570
   30MOL0     H 4079   9.608   7.272   2.260 -2.5499  0.4140  0.3821
   30MOL0     H 4080   9.727   7.398   2.265  0.3260 -0.5769 -0.1051
   30MOL0     H 4081   9.624   7.339   2.488 -0.9359 -0.7382 -0.7319
   30MOL0     H 4082   9.471   7.390   2.428 -1.2316 -0.2150 -4.5314
   30MOL0     H 4083   9.728   7.574   2.455  1.3608  2.9348  0.4336
   30MOL0     H 4084   9.575   7.637   2.396  0.2303 -1.0208 -0.0247
   30MOL0     H 4085   9.626   7.660   2.660 -0.0690 -0.2873 -0.3623
   30MOL0     H 4086   9.614   7.481   2.659  0.0038 -0.5385  0.5310
   30MOL0     H 4087   9.366   7.537   2.545 -2.7839  3.2920 -1.0995
   30MOL0     H 4088   9.400   7.541   2.715  0.5779  1.4842 -0.2764
   30MOL0     H 4089   9.317   7.730   2.425  0.9990 -0.3822 -0.9498
   30MOL0     H 4090   9.243   8.110   2.497 -1.4013 -0.7501  0.0391
   30MOL0     H 4091   9.201   7.979   2.390  0.3215  2.3762 -2.3515
   30MOL0     H 4092   9.374   8.200   2.350  3.7969  0.5090  1.1232
   30MOL0     H 4093   9.492   8.063   2.365  0.4845  1.6264 -0.5841
   30MOL0     H 4094   9.284   8.052   2.168  0.5048  0.8371 -1.3879
   30MOL0     H 4095   9.442   8.104   2.145 -0.6860  0.9589 -0.0447
   30MOL0     H 4096   9.490   7.897   2.077 -0.8861 -3.0967  0.0843
   30MOL0     H 4097   9.546   7.917   2.233 -1.2507  0.6195  3.2489
   30MOL0     H 4098   9.317   7.886   1.965  0.8888 -0.2403  0.1935
   30MOL0     H 4099   9.193   7.754   1.709  1.7067  1.4536 -0.9518
   30MOL0     H 4100   9.181   7.914   1.779 -1.4739 -0.2205 -3.8204
   30MOL0     H 4101   9.033   7.824   1.749  1.1959 -2.3300 -4.7267
   30MOL0     H 4102   9.019   7.348   1.618 -1.2325 -0.1376 -2.7486
   30MOL0     H 4103   8.859   7.204   1.522 -1.2138 -0.3792 -0.3279
   30MOL0     H 4104   8.746   7.048   1.443 -0.3230 -0.9056 -0.6353
   30MOL0     H 4105   8.812   6.937   1.564 -0.9927 -0.0150  1.9891
   30MOL0     H 4106   8.606   6.798   1.539 -0.4169  0.4151  0.2053
   30MOL0     H 4107   8.518   6.902   1.450  0.1561  1.3873 -1.8446
   30MOL0     H 4108   8.628   6.732   1.312 -0.8635  0.4147  0.7215
   30MOL0     H 4109   8.789   6.808   1.332  0.4326 -0.7395  0.7166
   30MOL0     H 4110   8.742   6.998   1.226  0.2216 -0.0831  1.0545
   30MOL0     H 4111   8.564   6.972   1.220  1.3082  3.8265  2.4373
   30MOL0     H 4112   8.608   6.796   1.062 -0.7087  0.8612 -1.6047
   30MOL0     H 4113   8.670   6.937   1.004 -0.8204  0.5034 -0.6258
   30MOL0     H 4114   8.844   6.726   1.161  0.2237 -0.0354 -0.8483
   30MOL0     H 4115   8.907   6.871   1.078  0.3219 -0.5971 -2.2350
   30MOL0     H 4116   8.842   6.773   0.862  0.7406  0.5951  1.1855
   30MOL0     H 4117   8.764   6.637   0.946 -2.0567  1.0619 -2.7858
   30MOL0     H 4118   8.981   6.581   1.035 -2.8097 -1.4417 -0.1274
   30MOL0     H 4119   9.062   6.722   0.964 -2.6173  3.0583 -1.4724
   30MOL0     H 4120   8.653   7.140   1.899 -1.0894 -0.9203 -1.7979
   30MOL0     H 4121   8.813   7.305   1.998  2.6470 -0.1976  0.2098
   30MOL0     H 4122   9.086   7.478   2.108 -1.4008 -0.0781 -2.5914
   30MOL0     H 4123   9.261   7.564   2.243  2.4672 -2.9965 -2.9301
   30MOL0     H 4124   9.313   7.513   1.778 -0.1273  0.1911 -1.2746
   30MOL0     H 4125   9.206   7.508   1.552 -0.5147 -0.9260  3.4320
   30MOL0     H 4126   9.185   7.200   1.131  3.6550  1.1041 -0.3378
   30MOL0     H 4127   9.114   7.218   0.884  1.8265  0.4885 -0.0918
   30MOL0     H 4128   8.977   7.582   0.710 -2.1552 -2.7197  2.9488
   30MOL0     H 4129   9.150   7.548   0.664 -0.1838 -1.8274 -5.2288
   30MOL0     H 4130   8.906   7.456   0.521 -0.6444 -1.5156  0.9253
   30MOL0     H 4131   9.047   7.349   0.530 -1.7872 -1.4562 -0.3919
   30MOL0     H 4132   9.193   7.492   0.422  0.3085 -0.7013  1.8200
   30MOL0     H 4133   9.052   7.478   0.325  0.9809  0.5872  0.0332
   30MOL0     H 4134   9.110   7.690   0.298  0.0950 -0.3578  0.9391
   30MOL0     H 4135   9.142   7.731   0.452 -0.5558  4.0968 -2.3959
   30MOL0     H 4136   8.740   7.830   0.390 -0.9142 -2.2114  1.0954
   30MOL0     H 4137   9.058   7.634   0.916  0.6708  0.7053  0.3731
   30MOL0     H 4138   9.054   7.657   1.259  0.4854  0.8761  0.4733
   30MOL0     H 4139   9.216   7.700   1.207  0.1233  1.1461 -0.7657
   30MOL0     H 4140   9.069   7.743   1.116  1.1718  0.5662  0.0160
   31MOL0     O 4141   0.379   8.543   2.376  0.9025 -0.3854  0.0963
   31MOL0     C 4142   0.290   8.580   2.453  0.1362 -0.2100  0.4268
   31MOL0     O 4143   0.281   8.568   2.582 -0.6025  0.3294  0.5217
   31MOL0     C 4144   0.385   8.523   2.647  0.1406 -0.0496  0.0384
   31MOL0     C 4145   0.390   8.384   2.663 -0.6574  0.9908  0.4874
   31MOL0     C 4146   0.510   8.334   2.728 -0.2340 -0.3338  0.1306
   31MOL0     C 4147   0.623   8.416   2.755  0.4994  0.2534 -0.7275
   31MOL0     O 4148   0.736   8.340   2.786 -0.5800 -0.3033 -0.3508
   31MOL0     C 4149   0.866   8.410   2.804  0.9332 -0.1221 -0.1524
   31MOL0     C 4150   0.975   8.322   2.859  0.5655  0.2940  0.1497
   31MOL0     C 4151   1.106   8.394   2.896 -0.9708 -0.1532 -0.6741
   31MOL0     C 4152   1.094   8.497   3.009  0.3413  0.1753 -0.7035
   31MOL0     C 4153   1.217   8.585   3.012  0.3997 -0.0026 -1.0668
   31MOL0     C 4154   1.212   8.681   3.133 -0.2036 -0.2223  0.9134
   31MOL0     C 4155   1.106   8.783   3.119  1.2319  0.3440  0.2193
   31MOL0     C 4156   1.110   8.861   2.993  0.2586  1.1683 -0.4517
   31MOL0     N 4157   1.245   8.909   2.964 -0.0926 -0.6277 -0.4678
   31MOL0     C 4158   1.331   8.988   3.047  0.0156  0.2546 -0.0749
   31MOL0     C 4159   1.441   9.027   2.968 -1.4938  0.4462 -0.7974
   31MOL0     C 4160   1.562   9.116   3.006  0.5499  0.5451 -0.3670
   31MOL0     C 4161   1.560   9.132   3.153  0.6788  1.0536 -0.3561
   31MOL0     C 4162   1.671   9.215   3.202  0.8262  0.5862 -0.7547
   31MOL0     C 4163   1.643   9.268   3.347  0.2153 -0.2336  0.4630
   31MOL0     O 4164   1.627   9.167   3.448  0.3188 -0.3587 -0.2118
   31MOL0     C 4165   1.733   9.093   3.494  1.2493  0.3101  0.1508
   31MOL0     C 4166   1.690   8.966   3.544 -0.0226 -0.2626  0.4161
   31MOL0     C 4167   1.782   8.869   3.576  1.0613 -0.9790 -0.0461
   31MOL0     C 4168   1.715   8.734   3.603 -0.9122 -0.3221  0.1277
   31MOL0     C 4169   1.913   8.910   3.583 -0.3944 -0.0751  0.4228
   31MOL0     C 4170   2.015   8.814   3.627 -0.8320  0.6948 -0.1276
   31MOL0     O 4171   2.130   8.825   3.563 -0.4292 -0.6145 -0.1170
   31MOL0     C 4172   2.230   8.736   3.596 -0.6720  0.4413 -0.0198
   31MOL0     C 4173   2.273   8.650   3.495 -0.5382 -0.0508  0.8776
   31MOL0     C 4174   2.369   8.555   3.527 -0.4188  0.8155  0.1919
   31MOL0     C 4175   2.430   8.539   3.648 -0.0837 -0.2330  0.9291
   31MOL0     O 4176   2.543   8.452   3.656  0.6075  0.2585 -0.2014
   31MOL0     C 4177   2.604   8.410   3.779 -0.0036  0.5038 -0.0359
   31MOL0     C 4178   2.671   8.274   3.759 -0.2955 -0.2335 -0.1781
   31MOL0     C 4179   2.660   8.190   3.883 -0.2933  0.3426 -0.3947
   31MOL0     C 4180   2.747   8.060   3.859  0.4503 -0.1501  0.7973
   31MOL0     C 4181   2.750   7.955   3.973 -0.5295  0.1049  0.1538
   31MOL0     C 4182   2.869   7.857   3.966 -0.0291 -0.7475  0.7974
   31MOL0     C 4183   2.871   7.754   3.850 -0.3945 -0.3113 -0.8757
   31MOL0     C 4184   3.010   7.678   3.854 -0.1401 -0.0067  0.5029
   31MOL0    Cl 4185   3.002   7.540   3.753 -0.4436 -0.4768  0.0863
   31MOL0     C 4186   2.390   8.629   3.751  0.3446  0.6030 -0.1411
   31MOL0     C 4187   2.291   8.720   3.721  0.0789  0.1957 -0.7106
   31MOL0     O 4188   1.990   8.736   3.717  0.5381 -0.3333 -0.5050
   31MOL0     C 4189   1.956   9.041   3.552  0.3802  1.8927 -0.3070
   31MOL0     C 4190   1.863   9.129   3.500  0.6254 -0.3512  0.6828
   31MOL0     N 4191   1.418   8.972   2.839 -0.3726  0.4889 -0.6008
   31MOL0     N 4192   1.304   8.915   2.844  0.3003  0.7321  0.7406
   31MOL0     C 4193   0.611   8.557   2.737 -1.2042  0.0580 -0.5040
   31MOL0     C 4194   0.493   8.607   2.674 -0.6294  0.1705  0.7468
   31MOL0     C 4195   0.166   8.640   2.385 -0.6214 -0.7988  0.3249
   31MOL0     C 4196   0.186   8.725   2.268  0.1535 -0.2176 -0.3379
   31MOL0     C 4197   0.076   8.786   2.211  0.0243 -0.3017 -0.0477
   31MOL0     C 4198  -0.053   8.772   2.257 -1.1543  0.4531  0.0923
   31MOL0     O 4199  -0.146   8.851   2.197  0.3762  0.0370  0.6747
   31MOL0     C 4200  -0.278   8.837   2.254  0.4339 -0.3725  0.1537
   31MOL0     C 4201  -0.364   8.919   2.163 -1.0542 -0.1820 -0.1830
   31MOL0     C 4202  -0.510   8.913   2.212  0.6014  0.6817  0.3121
   31MOL0     C 4203  -0.544   8.998   2.332  0.0768 -0.4697 -1.0069
   31MOL0     C 4204  -0.685   9.033   2.323  0.6338 -0.4767  0.0146
   31MOL0     C 4205  -0.804   9.067   2.322 -0.3841  0.7986 -0.0005
   31MOL0     C 4206  -0.068   8.680   2.354  0.1603  0.3674 -0.1228
   31MOL0     C 4207   0.038   8.628   2.432 -0.6396 -0.5000  0.2317
   31MOL0     C 4208  -0.003   8.568   2.567 -0.9033 -0.2046  0.7750
   31MOL0     H 4209   0.324   8.305   2.629  0.5512 -0.9169  2.2646
   31MOL0     H 4210   0.520   8.228   2.749  0.3374 -0.2559  0.2729
   31MOL0     H 4211   0.846   8.491   2.874  1.1535  0.0254 -0.2620
   31MOL0     H 4212   0.897   8.447   2.706  1.4944 -1.7344 -0.6155
   31MOL0     H 4213   0.947   8.265   2.948  0.9699  0.3773  0.3340
   31MOL0     H 4214   1.002   8.247   2.783  2.3930  4.1792 -3.4376
   31MOL0     H 4215   1.187   8.323   2.919 -0.9357  0.1299  0.1143
   31MOL0     H 4216   1.137   8.449   2.807  0.5533 -1.2028 -0.8421
   31MOL0     H 4217   0.998   8.548   3.000 -0.4171 -0.7434  1.5594
   31MOL0     H 4218   1.082   8.434   3.098  0.9330  1.3144  0.1985
   31MOL0     H 4219   1.232   8.643   2.920 -0.0124  1.0468 -0.4926
   31MOL0     H 4220   1.310   8.527   3.009  0.3508 -0.1640  0.2119
   31MOL0     H 4221   1.193   8.621   3.222  2.5883 -3.6956 -0.6022
   31MOL0     H 4222   1.311   8.725   3.150 -1.8433  3.4576  2.1131
   31MOL0     H 4223   1.105   8.846   3.209  2.8554 -2.0891  2.0813
   31MOL0     H 4224   1.010   8.730   3.121  1.4595 -0.0708  0.3649
   31MOL0     H 4225   1.054   8.815   2.911 -1.5873  1.3858  0.6224
   31MOL0     H 4226   1.051   8.952   3.011 -3.1543 -1.2156  1.6815
   31MOL0     H 4227   1.308   9.015   3.150  0.3712  3.3268 -0.7137
   31MOL0     H 4228   1.543   9.212   2.959 -2.8130  0.2020  0.0495
   31MOL0     H 4229   1.656   9.074   2.968  0.5194 -2.0907  2.0570
   31MOL0     H 4230   1.465   9.178   3.179 -0.7531 -0.9534 -1.7259
   31MOL0     H 4231   1.561   9.030   3.194 -2.2462  0.6594 -1.0706
   31MOL0     H 4232   1.763   9.156   3.199  0.2222 -0.3229 -1.9086
   31MOL0     H 4233   1.689   9.305   3.141  2.5796  0.0659 -1.0487
   31MOL0     H 4234   1.736   9.318   3.373  0.8425 -0.4960 -1.1677
   31MOL0     H 4235   1.561   9.339   3.334  1.1421  0.3656 -3.3991
   31MOL0     H 4236   1.586   8.934   3.540  0.9562 -3.7726 -0.2219
   31MOL0     H 4237   1.624   8.712   3.547 -1.1771  0.0064  0.4251
   31MOL0     H 4238   1.697   8.726   3.711  0.9486 -0.0942  0.4879
   31MOL0     H 4239   1.795   8.659   3.593 -0.5544  0.2259 -1.3141
   31MOL0     H 4240   2.222   8.655   3.399 -2.7234  0.4439  2.0034
   31MOL0     H 4241   2.386   8.485   3.446  0.7705  1.8986 -0.5140
   31MOL0     H 4242   2.685   8.474   3.815  0.1156 -1.4160  3.5921
   31MOL0     H 4243   2.532   8.402   3.861  1.1871 -0.1906  0.9746
   31MOL0     H 4244   2.616   8.224   3.679 -0.8969  2.5556 -1.6172
   31MOL0     H 4245   2.775   8.293   3.732  0.8031 -0.5174  3.3036
   31MOL0     H 4246   2.558   8.161   3.909  0.4679 -1.1723  1.1356
   31MOL0     H 4247   2.702   8.239   3.972 -2.1364  0.0394  0.6744
   31MOL0     H 4248   2.847   8.094   3.831  0.8952 -1.7676  0.3049
   31MOL0     H 4249   2.715   8.007   3.769  4.3123 -2.7969  0.7784
   31MOL0     H 4250   2.746   8.017   4.063  1.0920  2.3939 -1.2429
   31MOL0     H 4251   2.660   7.894   3.978 -0.4295 -0.1101 -0.5936
   31MOL0     H 4252   2.863   7.807   4.063  0.0238 -0.5913  0.8815
   31MOL0     H 4253   2.957   7.922   3.970  0.6255 -1.6508  1.4582
   31MOL0     H 4254   2.854   7.785   3.747 -2.9112  2.0429  0.1402
   31MOL0     H 4255   2.784   7.691   3.871 -1.3639  0.6627 -1.8236
   31MOL0     H 4256   3.040   7.647   3.955 -2.3077  0.2652  1.2652
   31MOL0     H 4257   3.090   7.741   3.813 -1.7416  1.6633 -0.1730
   31MOL0     H 4258   2.443   8.630   3.845  2.9306  1.5070 -1.4976
   31MOL0     H 4259   2.270   8.799   3.793  2.9869  0.3473  0.1019
   31MOL0     H 4260   2.063   9.058   3.549  0.6439  0.7162  1.4731
   31MOL0     H 4261   1.897   9.228   3.471 -0.8127 -0.4380 -1.5202
   31MOL0     H 4262   0.704   8.611   2.752 -0.7491 -0.1273 -2.3804
   31MOL0     H 4263   0.500   8.715   2.667 -0.1427  0.4217  3.7149
   31MOL0     H 4264   0.278   8.748   2.214 -0.6872  0.3993 -1.5464
   31MOL0     H 4265   0.088   8.852   2.125  1.7020  2.3562  2.0605
   31MOL0     H 4266  -0.315   8.734   2.247 -0.8379  0.0686  0.3371
   31MOL0     H 4267  -0.279   8.880   2.354 -2.1647  0.6495 -0.2344
   31MOL0     H 4268  -0.353   8.876   2.063 -1.4220  1.6415 -1.0507
   31MOL0     H 4269  -0.341   9.025   2.145 -0.6507 -0.5194 -1.7945
   31MOL0     H 4270  -0.568   8.952   2.127  1.9093  0.2063 -0.8482
   31MOL0     H 4271  -0.536   8.810   2.235 -1.5249  0.7092 -1.5793
   31MOL0     H 4272  -0.480   9.086   2.345 -1.8309  0.6375  1.7100
   31MOL0     H 4273  -0.527   8.937   2.422 -3.1409  0.1037  0.0948
   31MOL0     H 4274  -0.909   9.087   2.319 -0.5484  0.1515 -3.6713
   31MOL0     H 4275  -0.168   8.660   2.392  0.0645  2.9723  1.2270
   31MOL0     H 4276   0.018   8.636   2.650 -2.0827  0.0746  0.8618
   31MOL0     H 4277  -0.110   8.545   2.572 -1.0010  0.4569  3.2007
   31MOL0     H 4278   0.060   8.479   2.576  0.4502  0.3407 -2.2225
   32MOL0     O 4279   6.675   1.345  11.441  0.5062 -0.2858 -1.0135
   32MOL0     C 4280   6.654   1.464  11.463 -0.7964  0.7118 -0.3922
   32MOL0     O 4281   6.536   1.527  11.488 -0.4391  0.3836 -0.5882
   32MOL0     C 4282   6.416   1.456  11.505 -0.4020 -0.8790 -0.4828
   32MOL0     C 4283   6.405   1.354  11.591 -0.0839 -0.0938  0.9204
   32MOL0     C 4284   6.277   1.285  11.604 -0.4301  0.0668  0.2751
   32MOL0     C 4285   6.158   1.331  11.534  0.5594 -0.1779  0.1504
   32MOL0     O 4286   6.031   1.272  11.535  0.5076  0.5124  0.2459
   32MOL0     C 4287   6.019   1.131  11.506 -1.0575  0.5995  0.8914
   32MOL0     C 4288   5.911   1.060  11.581  0.5356  0.0753 -0.2411
   32MOL0     C 4289   5.941   1.062  11.728 -0.4351  0.1518  0.3235
   32MOL0     C 4290   5.835   0.981  11.807 -1.0881  0.3147 -0.6824
   32MOL0     C 4291   5.703   1.057  11.809  0.1792 -0.0589  1.5197
   32MOL0     C 4292   5.612   1.015  11.922  0.1846  0.3392 -0.5729
   32MOL0     C 4293   5.567   0.864  11.911  0.5285  0.2060  0.0836
   32MOL0     C 4294   5.465   0.837  11.804  0.6162  0.3265  0.2050
   32MOL0     N 4295   5.521   0.830  11.666 -0.5546 -1.0147 -0.6686
   32MOL0     C 4296   5.620   0.752  11.607 -0.1365 -0.6393 -0.7729
   32MOL0     C 4297   5.624   0.783  11.479 -0.0586  0.4210 -0.3086
   32MOL0     C 4298   5.718   0.721  11.382  0.1912 -0.5339  0.5464
   32MOL0     C 4299   5.645   0.668  11.259  0.2183 -0.6670 -0.2567
   32MOL0     C 4300   5.754   0.640  11.153 -0.4386  0.4696  0.6937
   32MOL0     C 4301   5.694   0.576  11.023 -0.7700 -0.3649  0.0635
   32MOL0     O 4302   5.800   0.556  10.928  0.7001  0.1511 -0.5967
   32MOL0     C 4303   5.775   0.555  10.793  0.0081 -0.7244 -0.3904
   32MOL0     C 4304   5.752   0.440  10.728 -0.2965  0.3453 -0.5291
   32MOL0     C 4305   5.745   0.431  10.589 -0.5921  0.0542 -0.4532
   32MOL0     C 4306   5.738   0.298  10.519  0.4206  0.2204 -0.8018
   32MOL0     C 4307   5.759   0.549  10.514 -0.5799  0.1442 -0.5979
   32MOL0     C 4308   5.772   0.562  10.364  0.0182  0.8229  0.3884
   32MOL0     O 4309   5.810   0.690  10.308 -0.3097  0.2078  0.5618
   32MOL0     C 4310   5.780   0.694  10.175  0.0763 -0.5596  0.8555
   32MOL0     C 4311   5.652   0.703  10.115 -0.3808  0.3912  0.0512
   32MOL0     C 4312   5.653   0.714   9.973  1.2671  0.5009  0.2221
   32MOL0     C 4313   5.765   0.723   9.892 -1.0354  0.4377  1.1792
   32MOL0     O 4314   5.750   0.705   9.762  0.0013  0.7758  0.4503
   32MOL0     C 4315   5.827   0.788   9.677  1.0690 -0.0077  0.3945
   32MOL0     C 4316   5.847   0.730   9.539 -1.4319 -0.2003  0.2661
   32MOL0     C 4317   5.890   0.586   9.538 -0.9150 -0.6687  0.0418
   32MOL0     C 4318   5.929   0.561   9.390 -1.0734  0.6005 -0.1273
   32MOL0     C 4319   5.993   0.428   9.373  0.4271 -0.6267 -0.1098
   32MOL0     C 4320   6.015   0.401   9.233 -1.1118 -0.1774 -0.2748
   32MOL0     C 4321   6.117   0.298   9.195 -1.0753  0.4410  0.4276
   32MOL0     C 4322   6.257   0.361   9.224  0.2844  0.1721 -0.3648
   32MOL0    Cl 4323   6.368   0.235   9.186  0.1935  0.3378 -0.5520
   32MOL0     C 4324   5.887   0.723   9.955  0.0090 -0.1406  0.5682
   32MOL0     C 4325   5.894   0.712  10.089  0.2184 -0.4774  0.5001
   32MOL0     O 4326   5.746   0.465  10.296  0.0655  0.9819  0.3320
   32MOL0     C 4327   5.766   0.675  10.588 -0.1699 -0.2500  0.2528
   32MOL0     C 4328   5.775   0.680  10.726  1.2368 -0.1576 -0.3862
   32MOL0     N 4329   5.543   0.897  11.460 -0.4510 -0.6571  0.0463
   32MOL0     N 4330   5.483   0.925  11.575  0.1242 -0.1513 -0.4000
   32MOL0     C 4331   6.167   1.458  11.468 -0.6340  0.4105  0.2262
   32MOL0     C 4332   6.297   1.515  11.452 -0.2008  0.3100 -0.2082
   32MOL0     C 4333   6.771   1.549  11.473 -0.6837  0.1184  0.9082
   32MOL0     C 4334   6.879   1.511  11.564  0.2429 -0.6430  0.3587
   32MOL0     C 4335   7.000   1.592  11.577  0.5662  0.2991 -0.7107
   32MOL0     C 4336   7.014   1.713  11.493 -0.4860  1.5538  0.4645
   32MOL0     O 4337   7.136   1.780  11.520 -0.3435  0.7234 -0.4476
   32MOL0     C 4338   7.159   1.897  11.437  0.6410 -0.5562 -0.0846
   32MOL0     C 4339   7.274   1.985  11.496 -0.1133  0.0379 -0.2235
   32MOL0     C 4340   7.205   2.109  11.546  0.5686  0.0322  0.3919
   32MOL0     C 4341   7.301   2.213  11.616  0.2286  0.2500 -0.5160
   32MOL0     C 4342   7.224   2.310  11.691  0.5420  0.7132 -0.7612
   32MOL0     C 4343   7.151   2.391  11.759 -0.4171 -0.1419  0.6176
   32MOL0     C 4344   6.900   1.746  11.416 -0.5226 -0.9584  0.0957
   32MOL0     C 4345   6.787   1.665  11.399 -1.1466 -0.5266  0.2678
   32MOL0     C 4346   6.691   1.713  11.293  0.6037  0.4233 -0.1901
   32MOL0     H 4347   6.489   1.306  11.640 -0.2651 -0.2969  1.0357
   32MOL0     H 4348   6.272   1.192  11.659 -5.0117  1.2281  2.3206
   32MOL0     H 4349   6.116   1.089  11.536  0.3510  4.3554  2.1268
   32MOL0     H 4350   6.011   1.104  11.400 -1.4213  0.1736  1.0266
   32MOL0     H 4351   5.818   1.112  11.556 -0.0160 -0.5934  0.3868
   32MOL0     H 4352   5.902   0.955  11.551 -0.2603 -0.0994  0.5587
   32MOL0     H 4353   6.028   0.995  11.734  1.7178  2.3207 -3.0203
   32MOL0     H 4354   5.965   1.158  11.775 -0.5487  0.0777  0.5324
   32MOL0     H 4355   5.821   0.878  11.772 -0.9023 -0.0799  0.3668
   32MOL0     H 4356   5.870   0.985  11.910 -0.4964  2.1021 -0.9163
   32MOL0     H 4357   5.664   1.037  11.709  0.7169  1.5812  0.9545
   32MOL0     H 4358   5.725   1.164  11.807  0.9253 -0.1590  2.8693
   32MOL0     H 4359   5.663   1.040  12.015 -0.5477  3.8102 -0.9555
   32MOL0     H 4360   5.525   1.081  11.931  1.5575  2.2668 -0.6419
   32MOL0     H 4361   5.519   0.867  12.009  1.6483 -1.2830  0.7026
   32MOL0     H 4362   5.653   0.797  11.911  1.5368  1.4350  1.6606
   32MOL0     H 4363   5.407   0.745  11.816  0.7275  0.4630  2.0189
   32MOL0     H 4364   5.379   0.904  11.808 -1.9002 -2.7040  1.4608
   32MOL0     H 4365   5.688   0.678  11.648 -0.1540 -1.8722 -2.8337
   32MOL0     H 4366   5.768   0.643  11.440  1.4762  1.3422  2.0653
   32MOL0     H 4367   5.795   0.793  11.353  2.4572 -2.4201  1.5934
   32MOL0     H 4368   5.594   0.574  11.280  1.2852 -1.2384 -0.1778
   32MOL0     H 4369   5.583   0.748  11.216 -0.3137  0.3540  2.2385
   32MOL0     H 4370   5.823   0.722  11.125  2.4151 -2.2957 -1.1032
   32MOL0     H 4371   5.817   0.565  11.202  0.5408  0.6906 -0.1749
   32MOL0     H 4372   5.653   0.475  11.035  0.2733 -0.8680 -0.4314
   32MOL0     H 4373   5.627   0.652  10.981 -0.1865  1.7690  2.7598
   32MOL0     H 4374   5.742   0.360  10.801  1.7609  0.7573  0.2641
   32MOL0     H 4375   5.716   0.223  10.596  1.9680  2.2667  1.8479
   32MOL0     H 4376   5.835   0.292  10.469 -0.2715 -0.0007 -2.1668
   32MOL0     H 4377   5.664   0.297  10.439  0.0853  1.7665 -0.5374
   32MOL0     H 4378   5.575   0.707  10.191  2.3015  2.5751  2.9227
   32MOL0     H 4379   5.558   0.705   9.920  2.0110 -1.2005 -0.9134
   32MOL0     H 4380   5.782   0.886   9.659  2.6178  0.8344  0.9501
   32MOL0     H 4381   5.926   0.807   9.719  0.5472 -2.1840  2.8774
   32MOL0     H 4382   5.757   0.745   9.480  0.7540 -0.0455 -3.3187
   32MOL0     H 4383   5.932   0.791   9.504  0.2894 -1.7684  1.4946
   32MOL0     H 4384   5.806   0.521   9.566 -0.7442 -0.6365  0.6213
   32MOL0     H 4385   5.972   0.569   9.607  0.2570  0.1887 -1.0875
   32MOL0     H 4386   5.992   0.641   9.351  1.7717  0.3648  3.5038
   32MOL0     H 4387   5.838   0.558   9.329  0.0015 -0.6933 -1.7547
   32MOL0     H 4388   6.073   0.400   9.441 -0.5712 -4.9623 -0.4000
   32MOL0     H 4389   5.920   0.355   9.410 -0.8938  0.2926 -0.8027
   32MOL0     H 4390   6.036   0.490   9.172  0.6513 -1.6985 -2.0477
   32MOL0     H 4391   5.924   0.369   9.181 -0.0711  0.9486 -2.9850
   32MOL0     H 4392   6.112   0.270   9.090  4.3021 -1.3330  0.3555
   32MOL0     H 4393   6.104   0.207   9.253  0.0451 -0.5850 -0.8848
   32MOL0     H 4394   6.267   0.401   9.326 -1.7352  1.0576 -0.4620
   32MOL0     H 4395   6.270   0.453   9.167  3.3436 -0.6866 -1.2597
   32MOL0     H 4396   5.979   0.735   9.898 -0.5259  0.7800 -0.1335
   32MOL0     H 4397   5.993   0.720  10.134 -0.2016  0.9861  1.2039
   32MOL0     H 4398   5.778   0.767  10.531  0.5335  0.8543  2.0799
   32MOL0     H 4399   5.771   0.776  10.775  0.6589 -0.2725 -0.2143
   32MOL0     H 4400   6.081   1.505  11.422 -0.2270  0.6979 -0.2414
   32MOL0     H 4401   6.308   1.611  11.403 -1.5603  0.5633 -0.0572
   32MOL0     H 4402   6.868   1.428  11.633 -1.1443  1.4656  2.8890
   32MOL0     H 4403   7.088   1.569  11.637  1.5648  2.3547 -1.2882
   32MOL0     H 4404   7.180   1.861  11.335 -0.2145 -0.2829 -0.3691
   32MOL0     H 4405   7.068   1.955  11.419  1.3742  0.6923  0.1116
   32MOL0     H 4406   7.332   2.015  11.408 -1.3921 -0.1997 -1.1760
   32MOL0     H 4407   7.341   1.938  11.569  0.4877 -1.8481 -1.8721
   32MOL0     H 4408   7.165   2.159  11.457 -1.0779  1.2993  1.7396
   32MOL0     H 4409   7.116   2.093  11.609  0.2821 -0.3731 -0.1153
   32MOL0     H 4410   7.349   2.278  11.543  1.5772 -0.3218 -0.1620
   32MOL0     H 4411   7.369   2.165  11.687  2.7967  1.6853 -1.8636
   32MOL0     H 4412   7.100   2.466  11.815  0.4845  0.6278  0.4274
   32MOL0     H 4413   6.903   1.841  11.364 -1.6452 -0.5214  0.7760
   32MOL0     H 4414   6.753   1.731  11.205 -0.1981 -2.1814 -1.3955
   32MOL0     H 4415   6.625   1.628  11.272  1.8851 -1.0306  1.3999
   32MOL0     H 4416   6.637   1.803  11.325  2.4396  2.0109 -1.4054
   33MOL0     O 4417   6.585  11.016   0.044  0.2159  0.3701 -0.2418
   33MOL0     C 4418   6.474  10.992   0.095 -0.2758  0.5216 -0.4313
   33MOL0     O 4419   6.437  10.898   0.183  0.5747  0.3203 -0.5734
   33MOL0     C 4420   6.529  10.838   0.265 -0.6834  0.6296 -0.7804
   33MOL0     C 4421   6.482  10.801   0.395 -0.2911 -0.6015  0.7021
   33MOL0     C 4422   6.574  10.749   0.483 -0.0618 -0.0016 -0.0655
   33MOL0     C 4423   6.714  10.721   0.439  0.5235  0.0447 -0.1928
   33MOL0     O 4424   6.815  10.662   0.513  0.3349  0.2578 -1.0483
   33MOL0     C 4425   6.777  10.587   0.626 -0.0225 -0.3519 -0.0151
   33MOL0     C 4426   6.902  10.508   0.679 -0.2539 -0.5021 -0.2640
   33MOL0     C 4427   6.934  10.399   0.587  0.6428 -0.9419  0.0938
   33MOL0     C 4428   7.004  10.292   0.657 -0.1394  0.3380  0.2711
   33MOL0     C 4429   7.007  10.162   0.576  0.3782 -0.1463  0.6805
   33MOL0     C 4430   7.046  10.036   0.652  0.1655  0.0063  0.2267
   33MOL0     C 4431   7.188  10.038   0.707 -0.1902  0.8519  0.0040
   33MOL0     C 4432   7.221   9.893   0.755  0.1899  0.8410  0.3874
   33MOL0     N 4433   7.334   9.898   0.851 -0.7698  0.0230  0.2446
   33MOL0     C 4434   7.330   9.941   0.982 -0.6818 -0.7850 -0.1193
   33MOL0     C 4435   7.462   9.933   1.022 -0.0944  0.6868  0.3676
   33MOL0     C 4436   7.520   9.989   1.142  0.4143 -0.4527 -0.9162
   33MOL0     C 4437   7.626  10.093   1.117  0.1526  0.2410  0.0875
   33MOL0     C 4438   7.641  10.189   1.239 -0.0978 -0.4319  0.6753
   33MOL0     C 4439   7.785  10.225   1.280 -0.6511 -0.3443  0.2577
   33MOL0     O 4440   7.784  10.314   1.395  0.0840 -0.0511  0.5402
   33MOL0     C 4441   7.763  10.450   1.395  0.3228  0.5729  0.0518
   33MOL0     C 4442   7.722  10.530   1.286 -0.1400 -0.2828  0.7804
   33MOL0     C 4443   7.724  10.670   1.293 -0.5348 -0.0444 -0.9308
   33MOL0     C 4444   7.681  10.745   1.158 -1.1286  0.2224 -0.5026
   33MOL0     C 4445   7.755  10.729   1.417  0.0122 -0.0740 -1.1774
   33MOL0     C 4446   7.752  10.873   1.444  0.0687  0.1084  0.7356
   33MOL0     O 4447   7.812  10.912   1.560 -0.1379  0.0371  0.0405
   33MOL0     C 4448   7.880  11.025   1.582 -0.0319 -0.3546 -0.9494
   33MOL0     C 4449   7.911  11.119   1.481 -0.2728 -0.4523  0.4434
   33MOL0     C 4450   7.980  11.239   1.515  1.2453  1.1024 -0.5643
   33MOL0     C 4451   8.029  11.261   1.648  0.1969  0.6126  0.3168
   33MOL0     O 4452   8.102  11.363   1.697 -0.2462  0.1068 -0.0019
   33MOL0     C 4453   8.186  11.426   1.597 -0.5246  0.0815 -0.5647
   33MOL0     C 4454   8.278  11.324   1.530 -0.9646  0.5880 -0.5918
   33MOL0     C 4455   8.316  11.371   1.393  0.2812 -0.2330 -0.5365
   33MOL0     C 4456   8.400  11.497   1.395  0.2851  0.2200 -0.4716
   33MOL0     C 4457   8.492  11.506   1.262  0.0038 -0.1420 -0.4885
   33MOL0     C 4458   8.575  11.639   1.249 -0.1376 -0.2825 -0.1872
   33MOL0     C 4459   8.647  11.656   1.113  0.8657  0.6611 -1.0534
   33MOL0     C 4460   8.742  11.538   1.078  0.1465 -0.3439 -0.0721
   33MOL0    Cl 4461   8.861  11.596   0.952 -0.2560 -0.3306  0.5819
   33MOL0     C 4462   7.988  11.176   1.749 -0.1457  0.2434  0.4137
   33MOL0     C 4463   7.922  11.058   1.715 -0.0887 -0.3485 -0.4138
   33MOL0     O 4464   7.706  10.947   1.359  0.3264  0.3796 -0.2726
   33MOL0     C 4465   7.785  10.647   1.527  0.7260  0.4488  0.3225
   33MOL0     C 4466   7.793  10.507   1.518 -0.1388 -0.4691  1.0026
   33MOL0     N 4467   7.531   9.850   0.930  0.1679  0.6092  0.2590
   33MOL0     N 4468   7.452   9.844   0.823 -0.2837 -0.5199 -0.2995
   33MOL0     C 4469   6.753  10.751   0.311  0.6552 -0.8114  0.2110
   33MOL0     C 4470   6.663  10.812   0.223  0.2809 -0.2600 -0.2094
   33MOL0     C 4471   6.356  11.066   0.037 -1.0966  0.2591 -0.1766
   33MOL0     C 4472   6.377  11.149  -0.073 -0.2743 -0.7754  0.3131
   33MOL0     C 4473   6.274  11.230  -0.130 -0.0422 -0.1321 -0.2242
   33MOL0     C 4474   6.145  11.221  -0.088 -1.2406  0.4232 -0.3688
   33MOL0     O 4475   6.039  11.283  -0.136 -0.1376  0.6277  0.0359
   33MOL0     C 4476   6.036  11.308  -0.284  1.1323 -0.0805 -0.4097
   33MOL0     C 4477   5.901  11.368  -0.313 -0.0662  0.3765  1.0289
   33MOL0     C 4478   5.798  11.252  -0.317 -0.4869  0.0194 -0.3863
   33MOL0     C 4479   5.649  11.301  -0.335 -1.1515 -0.6619 -0.7696
   33MOL0     C 4480   5.611  11.400  -0.234 -0.5701 -0.0654 -0.8753
   33MOL0     C 4481   5.574  11.482  -0.147  0.9025  0.1109 -0.2487
   33MOL0     C 4482   6.120  11.146   0.027 -0.1146 -0.2515  0.0780
   33MOL0     C 4483   6.222  11.073   0.098 -0.8665 -0.4202  0.0441
   33MOL0     C 4484   6.171  11.007   0.227 -0.4676  0.1073 -0.1521
   33MOL0     H 4485   6.376  10.819   0.415  0.0525  4.2687 -0.5128
   33MOL0     H 4486   6.554  10.702   0.579  1.6838 -1.0761 -0.1848
   33MOL0     H 4487   6.690  10.524   0.603  0.4051 -2.3355  3.1679
   33MOL0     H 4488   6.751  10.656   0.707  0.7954 -2.1955  1.9012
   33MOL0     H 4489   6.981  10.583   0.687 -0.5050  0.2386 -3.3376
   33MOL0     H 4490   6.887  10.458   0.775  2.7311 -1.2693 -0.0944
   33MOL0     H 4491   6.850  10.358   0.530  1.3972  0.6684 -2.3137
   33MOL0     H 4492   6.998  10.435   0.506 -1.1839  0.6243 -0.7265
   33MOL0     H 4493   7.104  10.333   0.674 -1.6100  3.4330  2.3311
   33MOL0     H 4494   6.961  10.260   0.753  0.4431 -2.4075 -0.2886
   33MOL0     H 4495   7.055  10.170   0.478 -2.2187  0.6639 -0.6217
   33MOL0     H 4496   6.902  10.141   0.552  0.9393 -1.3605 -0.9344
   33MOL0     H 4497   6.995  10.020   0.747  1.0601  1.1518  0.9266
   33MOL0     H 4498   7.035   9.951   0.585  1.4494  2.1794 -2.9939
   33MOL0     H 4499   7.188  10.107   0.792 -0.7405 -0.3152  0.9853
   33MOL0     H 4500   7.268  10.076   0.644 -1.7349  0.8591 -2.0725
   33MOL0     H 4501   7.134   9.842   0.797  0.0264 -0.7779 -1.7540
   33MOL0     H 4502   7.232   9.832   0.666  0.6772 -0.4074  1.2737
   33MOL0     H 4503   7.263  10.018   1.020 -1.3323  0.4496 -3.4473
   33MOL0     H 4504   7.569   9.912   1.203  0.4760  1.7786  2.0687
   33MOL0     H 4505   7.440  10.020   1.210 -1.4438 -3.1169 -1.6947
   33MOL0     H 4506   7.722  10.047   1.092 -0.5315  0.2440 -2.8582
   33MOL0     H 4507   7.603  10.152   1.028 -0.7733  0.6533  0.5905
   33MOL0     H 4508   7.599  10.283   1.202  1.9425 -0.9743 -3.6104
   33MOL0     H 4509   7.587  10.150   1.326  1.0345 -0.1314  1.5296
   33MOL0     H 4510   7.838  10.133   1.308 -1.5137 -0.5778  1.1757
   33MOL0     H 4511   7.836  10.250   1.186 -3.2495  0.1928 -1.1014
   33MOL0     H 4512   7.694  10.488   1.190 -1.5050  3.1277 -0.4650
   33MOL0     H 4513   7.767  10.799   1.118 -0.6278  1.9577  2.5998
   33MOL0     H 4514   7.604  10.819   1.183 -1.6389 -0.1293 -1.0070
   33MOL0     H 4515   7.643  10.672   1.085  1.0772  0.7211 -2.2485
   33MOL0     H 4516   7.887  11.108   1.375 -1.9736 -4.6311  1.0752
   33MOL0     H 4517   8.004  11.323   1.450  1.4568  0.1639 -1.7365
   33MOL0     H 4518   8.126  11.483   1.527 -1.3777 -1.0577 -0.7925
   33MOL0     H 4519   8.237  11.497   1.662 -1.3929  2.5332 -2.4339
   33MOL0     H 4520   8.372  11.316   1.586 -1.2629 -0.6326 -0.2411
   33MOL0     H 4521   8.230  11.226   1.527 -2.4924  1.3008 -0.3787
   33MOL0     H 4522   8.230  11.385   1.327  0.1552  0.5829 -0.2059
   33MOL0     H 4523   8.369  11.285   1.350 -2.2200 -1.8259 -0.5992
   33MOL0     H 4524   8.476  11.481   1.473  0.0612 -0.4055 -0.3816
   33MOL0     H 4525   8.337  11.585   1.409 -1.8005 -1.1625 -0.8400
   33MOL0     H 4526   8.565  11.425   1.270 -1.6183 -1.5792  0.2916
   33MOL0     H 4527   8.430  11.502   1.172  0.2063 -0.3153 -0.6208
   33MOL0     H 4528   8.657  11.648   1.322 -1.4556 -2.2033  1.6631
   33MOL0     H 4529   8.513  11.727   1.269 -0.6004 -0.8969  1.2433
   33MOL0     H 4530   8.697  11.752   1.123  0.2899  1.0881 -2.1537
   33MOL0     H 4531   8.567  11.660   1.039 -2.1847  3.2007  2.0668
   33MOL0     H 4532   8.695  11.455   1.024  0.9922  0.3152 -1.8902
   33MOL0     H 4533   8.801  11.507   1.166 -0.3766  1.9697  1.1657
   33MOL0     H 4534   8.009  11.196   1.854  1.6864 -1.8841  0.5275
   33MOL0     H 4535   7.896  10.989   1.795  0.8846 -0.9817 -0.6235
   33MOL0     H 4536   7.809  10.691   1.623  0.3935  1.6510 -0.1232
   33MOL0     H 4537   7.842  10.443   1.591  1.8731  0.9752  0.9945
   33MOL0     H 4538   6.855  10.718   0.294  0.1310 -5.5329  3.9229
   33MOL0     H 4539   6.698  10.816   0.121  1.3702 -0.6337  0.1381
   33MOL0     H 4540   6.471  11.160  -0.126 -1.8033  2.0047 -2.1144
   33MOL0     H 4541   6.294  11.300  -0.210 -1.2922 -0.6697 -1.0459
   33MOL0     H 4542   6.115  11.371  -0.327 -0.4521  1.2968 -1.4428
   33MOL0     H 4543   6.057  11.209  -0.327 -0.3823 -2.4358  3.7196
   33MOL0     H 4544   5.894  11.412  -0.413 -3.3437 -1.9024  0.0744
   33MOL0     H 4545   5.878  11.445  -0.239 -3.7459 -1.6100  2.2251
   33MOL0     H 4546   5.825  11.169  -0.384  0.0240 -0.0638 -0.0748
   33MOL0     H 4547   5.803  11.209  -0.217 -1.5016 -1.8522 -1.0828
   33MOL0     H 4548   5.587  11.212  -0.319 -2.8419  0.5261 -0.4101
   33MOL0     H 4549   5.641  11.356  -0.429  1.5058  2.0532  0.4195
   33MOL0     H 4550   5.541  11.568  -0.093 -0.4695 -0.6352  0.1425
   33MOL0     H 4551   6.021  11.152   0.071  0.5696 -0.6464  1.7458
   33MOL0     H 4552   6.108  11.077   0.283  1.4543  0.4578  1.6604
   33MOL0     H 4553   6.116  10.915   0.205  0.9211 -0.1238 -3.1669
   33MOL0     H 4554   6.258  10.978   0.286 -0.1830 -1.9033 -1.4550
   34MOL0     O 4555   0.790   5.080   6.363 -0.5324 -0.3333 -0.4751
   34MOL0     C 4556   0.732   5.190   6.337  0.5937 -0.3792  0.4734
   34MOL0     O 4557   0.787   5.318   6.345 -0.7239  0.2132 -0.0554
   34MOL0     C 4558   0.921   5.346   6.363 -0.4548  0.2026 -0.3019
   34MOL0     C 4559   1.028   5.283   6.297  0.4509  0.0179  0.1985
   34MOL0     C 4560   1.159   5.319   6.324 -0.1961  0.2299  0.1680
   34MOL0     C 4561   1.184   5.435   6.415  0.2550 -0.6120 -0.3815
   34MOL0     O 4562   1.309   5.481   6.439  0.4286  0.7024  0.2818
   34MOL0     C 4563   1.424   5.413   6.398  0.3870 -0.5552  0.2698
   34MOL0     C 4564   1.561   5.483   6.444  0.3818 -0.0918 -0.1704
   34MOL0     C 4565   1.578   5.498   6.594 -0.5952  0.1371 -0.8884
   34MOL0     C 4566   1.583   5.369   6.679  0.1733  1.0253 -0.1072
   34MOL0     C 4567   1.611   5.389   6.827 -0.4052 -0.5441 -0.1687
   34MOL0     C 4568   1.619   5.255   6.913  0.0717  0.6955 -0.4206
   34MOL0     C 4569   1.718   5.145   6.863 -1.0337  0.7328  1.2187
   34MOL0     C 4570   1.773   5.068   6.990 -0.4396  0.5167  0.5767
   34MOL0     N 4571   1.884   4.971   6.947  0.8321  0.1880 -0.3546
   34MOL0     C 4572   1.883   4.860   6.850  0.6133  0.5394  0.1127
   34MOL0     C 4573   2.013   4.824   6.838  0.2958 -0.0631  0.0569
   34MOL0     C 4574   2.072   4.717   6.744  0.5944 -0.0525  0.3338
   34MOL0     C 4575   2.152   4.768   6.622  1.2783 -0.6144  0.1801
   34MOL0     C 4576   2.295   4.809   6.646  0.5937  0.5614 -0.6077
   34MOL0     C 4577   2.392   4.757   6.544 -0.1612 -0.2141 -0.0475
   34MOL0     O 4578   2.403   4.612   6.560 -0.1399 -0.5569  0.6593
   34MOL0     C 4579   2.492   4.574   6.655 -0.1631  0.1303 -0.4356
   34MOL0     C 4580   2.630   4.574   6.630 -0.4493 -0.1048 -0.0051
   34MOL0     C 4581   2.723   4.545   6.738  0.0726  0.3317 -0.0802
   34MOL0     C 4582   2.873   4.546   6.697  1.1188  0.4477 -1.1720
   34MOL0     C 4583   2.673   4.530   6.868 -1.1007  0.9900 -0.5896
   34MOL0     C 4584   2.770   4.513   6.988  0.8288 -0.2223 -0.1679
   34MOL0     O 4585   2.718   4.552   7.109 -1.0814 -0.2911  0.0697
   34MOL0     C 4586   2.805   4.545   7.214  0.4556 -0.6613 -0.1417
   34MOL0     C 4587   2.745   4.514   7.337  0.1952 -0.2221  0.3060
   34MOL0     C 4588   2.809   4.504   7.457  0.0254 -0.0677 -0.0568
   34MOL0     C 4589   2.948   4.523   7.453 -0.0730 -0.6328 -0.4351
   34MOL0     O 4590   3.017   4.555   7.567 -0.3628  0.7646  0.2695
   34MOL0     C 4591   2.999   4.491   7.694 -0.0979 -0.1970 -0.4505
   34MOL0     C 4592   3.143   4.489   7.756 -0.2326  0.1607  0.1438
   34MOL0     C 4593   3.206   4.627   7.756 -0.6274  0.0766  0.2973
   34MOL0     C 4594   3.319   4.649   7.861 -1.2430 -0.4756  0.0762
   34MOL0     C 4595   3.438   4.558   7.824 -1.0082  0.2316 -0.8314
   34MOL0     C 4596   3.489   4.561   7.686  0.1203 -0.2981  1.1263
   34MOL0     C 4597   3.555   4.688   7.638 -0.2124 -0.1433 -0.1160
   34MOL0     C 4598   3.684   4.670   7.561 -0.0725 -0.0822 -0.1967
   34MOL0    Cl 4599   3.756   4.824   7.508  0.7033  0.3752 -0.2172
   34MOL0     C 4600   3.016   4.559   7.335  0.5695  0.2424 -0.4695
   34MOL0     C 4601   2.945   4.569   7.215  0.8735 -0.2235  0.4982
   34MOL0     O 4602   2.864   4.432   6.972 -0.5544 -0.4880 -0.4066
   34MOL0     C 4603   2.534   4.538   6.890 -0.4458 -0.1433  0.5204
   34MOL0     C 4604   2.448   4.551   6.780  0.0270 -0.1502 -0.3594
   34MOL0     N 4605   2.089   4.889   6.935  0.0447 -1.0905  1.0492
   34MOL0     N 4606   2.013   4.979   6.999 -0.2996  0.6379  0.3442
   34MOL0     C 4607   1.080   5.506   6.470 -0.3066  0.0417 -0.3243
   34MOL0     C 4608   0.953   5.452   6.450  0.2846 -0.3257  1.1856
   34MOL0     C 4609   0.580   5.177   6.298 -0.6959 -0.1779  0.3781
   34MOL0     C 4610   0.524   5.045   6.310 -0.3451 -0.0850  0.3745
   34MOL0     C 4611   0.388   5.026   6.261 -0.0863 -0.8603  0.0672
   34MOL0     C 4612   0.310   5.124   6.206 -0.5921 -0.0062  1.3978
   34MOL0     O 4613   0.183   5.098   6.165 -0.0906  0.7292  0.5479
   34MOL0     C 4614   0.093   5.197   6.108 -0.6112 -0.1038  0.5195
   34MOL0     C 4615  -0.035   5.141   6.044 -0.0564  0.4460 -0.5334
   34MOL0     C 4616  -0.009   5.020   5.951  0.1860  0.0541 -0.6613
   34MOL0     C 4617   0.099   5.041   5.847  0.0337  0.3043  0.5054
   34MOL0     C 4618   0.063   5.160   5.773 -0.1581  0.1946  0.2166
   34MOL0     C 4619   0.042   5.264   5.711 -0.2269  0.2024  0.1528
   34MOL0     C 4620   0.370   5.258   6.196  0.4848 -0.4742  0.4815
   34MOL0     C 4621   0.495   5.280   6.249  0.0807 -0.3113 -0.7607
   34MOL0     C 4622   0.540   5.427   6.256  0.0932 -0.1619  0.7050
   34MOL0     H 4623   1.023   5.192   6.238  0.3460  0.2603 -0.1693
   34MOL0     H 4624   1.229   5.249   6.279 -1.5838 -0.9344 -0.2601
   34MOL0     H 4625   1.428   5.402   6.290  1.1271  1.1955  0.0788
   34MOL0     H 4626   1.429   5.311   6.437  2.6093 -0.7301 -0.3185
   34MOL0     H 4627   1.650   5.435   6.403  0.5356  0.8648 -1.0051
   34MOL0     H 4628   1.562   5.587   6.410  0.3856 -0.2610 -0.6959
   34MOL0     H 4629   1.663   5.565   6.609 -0.6599  0.0051  0.1292
   34MOL0     H 4630   1.501   5.556   6.644  2.4576  0.9176  3.4779
   34MOL0     H 4631   1.485   5.320   6.678  0.6438  0.0416  0.3256
   34MOL0     H 4632   1.649   5.303   6.623 -0.5004 -1.7140  2.0931
   34MOL0     H 4633   1.532   5.459   6.855  0.8544  0.0737  2.1125
   34MOL0     H 4634   1.710   5.434   6.834 -0.0874 -1.2470 -0.0497
   34MOL0     H 4635   1.648   5.280   7.015 -0.1162 -0.3822 -0.0938
   34MOL0     H 4636   1.519   5.211   6.907  0.1743  0.5353 -1.1299
   34MOL0     H 4637   1.802   5.195   6.814  0.0025  0.3732  2.5866
   34MOL0     H 4638   1.680   5.059   6.806  1.5035  0.9999 -1.1207
   34MOL0     H 4639   1.806   5.140   7.065  2.4041 -0.9900  0.9176
   34MOL0     H 4640   1.684   5.015   7.025  0.3997 -2.0594 -0.9469
   34MOL0     H 4641   1.803   4.821   6.788  1.9866 -1.7684 -0.3585
   34MOL0     H 4642   1.987   4.659   6.708  2.3476 -1.4717 -1.7872
   34MOL0     H 4643   2.124   4.645   6.808 -2.1592 -1.5680  0.9878
   34MOL0     H 4644   2.171   4.677   6.566  2.8610 -0.3338  0.2197
   34MOL0     H 4645   2.090   4.842   6.570 -1.2342 -2.0565  0.9330
   34MOL0     H 4646   2.302   4.918   6.640 -1.8117  0.6898 -2.7281
   34MOL0     H 4647   2.325   4.789   6.750 -2.6589  1.8693  0.7225
   34MOL0     H 4648   2.348   4.784   6.447 -0.2914  0.0916  0.0951
   34MOL0     H 4649   2.488   4.809   6.553 -1.0968  1.2139  2.6924
   34MOL0     H 4650   2.664   4.600   6.531  2.6201  1.3515  1.2913
   34MOL0     H 4651   2.878   4.583   6.594  1.2902  1.3896 -0.8345
   34MOL0     H 4652   2.916   4.447   6.714  1.0977  0.5948 -0.2341
   34MOL0     H 4653   2.925   4.619   6.759  1.3981  0.1463 -1.0470
   34MOL0     H 4654   2.640   4.489   7.335 -0.2746  1.5998  0.5276
   34MOL0     H 4655   2.743   4.496   7.543 -1.4117  0.7485 -1.0387
   34MOL0     H 4656   2.931   4.544   7.762  0.2200 -2.3889  1.7189
   34MOL0     H 4657   2.951   4.394   7.674 -2.6158  1.0032 -0.6965
   34MOL0     H 4658   3.145   4.446   7.857  0.3193  1.5243  0.7380
   34MOL0     H 4659   3.190   4.423   7.683  0.4516  1.2577 -0.4317
   34MOL0     H 4660   3.130   4.699   7.787  0.6527  1.1253  1.1318
   34MOL0     H 4661   3.234   4.650   7.653 -1.0179 -3.2299 -0.6770
   34MOL0     H 4662   3.286   4.610   7.958  3.6243 -0.3337  2.0659
   34MOL0     H 4663   3.345   4.754   7.876  2.7426 -1.1353 -1.2350
   34MOL0     H 4664   3.516   4.578   7.897 -3.9503  2.3408  2.0251
   34MOL0     H 4665   3.414   4.452   7.838 -0.2676 -0.2320 -2.7870
   34MOL0     H 4666   3.413   4.539   7.610  0.1352 -2.6864  1.7273
   34MOL0     H 4667   3.563   4.482   7.668 -0.0132  0.0838 -1.5667
   34MOL0     H 4668   3.563   4.751   7.728 -0.9054 -2.1838  1.4666
   34MOL0     H 4669   3.487   4.736   7.567  2.7259  1.1397 -2.2378
   34MOL0     H 4670   3.670   4.604   7.474  0.9450  2.6177 -2.5699
   34MOL0     H 4671   3.767   4.623   7.615  1.6019  0.1476 -2.4146
   34MOL0     H 4672   3.121   4.587   7.337  1.5422 -2.8058  3.6345
   34MOL0     H 4673   2.981   4.602   7.118 -0.1025 -2.3117 -0.6241
   34MOL0     H 4674   2.498   4.511   6.989  1.0443 -2.1621  0.5661
   34MOL0     H 4675   2.344   4.547   6.808  0.1695 -0.3304  0.1615
   34MOL0     H 4676   1.095   5.592   6.535 -1.7526 -0.9322  1.3653
   34MOL0     H 4677   0.871   5.500   6.502  1.8797  1.6824  1.9751
   34MOL0     H 4678   0.579   4.960   6.348  0.2420 -0.4237 -1.1497
   34MOL0     H 4679   0.341   4.928   6.275 -1.5752 -0.0182  1.3132
   34MOL0     H 4680   0.070   5.270   6.187 -2.2247  2.2606 -1.9404
   34MOL0     H 4681   0.139   5.248   6.023 -0.0514 -1.5694 -0.0843
   34MOL0     H 4682  -0.082   5.229   5.999 -1.0965  0.2560  0.1292
   34MOL0     H 4683  -0.111   5.111   6.117  0.2785 -0.6630 -0.6203
   34MOL0     H 4684   0.019   4.933   6.013 -3.2332  0.6019  1.9226
   34MOL0     H 4685  -0.089   4.972   5.894  1.9565  0.7029 -3.9301
   34MOL0     H 4686   0.105   4.949   5.789 -0.1283 -0.5960  1.8617
   34MOL0     H 4687   0.200   5.041   5.888  0.3752 -2.7996 -0.1074
   34MOL0     H 4688   0.024   5.358   5.664  0.8283 -0.7297 -2.2369
   34MOL0     H 4689   0.310   5.340   6.157  0.1498 -0.6569  0.6131
   34MOL0     H 4690   0.454   5.493   6.245 -0.7682 -1.6074 -2.2251
   34MOL0     H 4691   0.588   5.447   6.352  0.0790  2.7045  0.2119
   34MOL0     H 4692   0.612   5.450   6.177 -1.8610 -3.6705 -2.4393
   35MOL0     O 4693   3.585   6.779   5.264  0.1681 -0.2124  0.2700
   35MOL0     C 4694   3.684   6.780   5.335 -0.8932 -0.2857  0.8268
   35MOL0     O 4695   3.798   6.722   5.296 -0.1136 -0.1275 -0.1006
   35MOL0     C 4696   3.813   6.676   5.171  0.0179 -0.6201 -0.2011
   35MOL0     C 4697   3.779   6.544   5.142 -0.3604 -0.1519 -0.0677
   35MOL0     C 4698   3.802   6.500   5.015  0.2265  1.0502  0.8435
   35MOL0     C 4699   3.858   6.586   4.912 -0.2072 -0.3750 -0.8191
   35MOL0     O 4700   3.875   6.535   4.785  0.8918  0.1937  0.6244
   35MOL0     C 4701   3.773   6.445   4.727  0.0914 -0.0906 -0.3421
   35MOL0     C 4702   3.806   6.427   4.585  0.5327  0.0015  0.4106
   35MOL0     C 4703   3.698   6.388   4.483 -0.6747 -0.2436  0.1237
   35MOL0     C 4704   3.614   6.266   4.515 -0.6674 -0.0748  0.0493
   35MOL0     C 4705   3.514   6.243   4.402  0.1630 -0.0669  0.0319
   35MOL0     C 4706   3.572   6.136   4.312 -0.5236 -0.6756 -0.6880
   35MOL0     C 4707   3.516   6.145   4.168 -0.6116 -0.1202 -0.1157
   35MOL0     C 4708   3.365   6.108   4.165 -0.6410  0.3754 -0.3017
   35MOL0     N 4709   3.335   6.101   4.018 -0.3514 -1.1513 -0.0502
   35MOL0     C 4710   3.306   5.985   3.945 -0.4512  0.3156 -0.3486
   35MOL0     C 4711   3.275   6.033   3.820  0.6939  1.0454  0.5125
   35MOL0     C 4712   3.243   5.948   3.697  0.5451 -0.3201 -0.0296
   35MOL0     C 4713   3.372   5.874   3.662 -0.6287  0.4199 -0.5225
   35MOL0     C 4714   3.351   5.794   3.539 -0.1899  0.7231  0.5156
   35MOL0     C 4715   3.353   5.885   3.412 -0.1799  0.4208  0.1762
   35MOL0     O 4716   3.274   5.819   3.309 -0.3459  1.1955 -0.1086
   35MOL0     C 4717   3.290   5.858   3.180 -0.3633 -0.2310  0.3387
   35MOL0     C 4718   3.224   5.781   3.084  0.4913 -0.0771  0.5427
   35MOL0     C 4719   3.214   5.819   2.953  0.5225 -0.7011 -0.1097
   35MOL0     C 4720   3.132   5.729   2.873 -0.3249 -0.5239 -0.6024
   35MOL0     C 4721   3.276   5.943   2.911 -0.4738  1.0615 -0.2849
   35MOL0     C 4722   3.275   5.999   2.777  0.4718 -0.3520  0.2717
   35MOL0     O 4723   3.210   5.928   2.679 -0.5257 -0.6332 -0.8944
   35MOL0     C 4724   3.244   5.959   2.541  0.7872  0.3338 -0.9858
   35MOL0     C 4725   3.214   6.089   2.479 -0.3891  0.6383  0.0507
   35MOL0     C 4726   3.255   6.119   2.352  0.2929  0.8982  0.8190
   35MOL0     C 4727   3.334   6.019   2.285 -1.4252 -0.5692 -0.4509
   35MOL0     O 4728   3.398   6.038   2.155 -0.4032 -0.2036 -0.4158
   35MOL0     C 4729   3.355   6.142   2.068  0.1667 -0.2150 -0.4939
   35MOL0     C 4730   3.223   6.112   1.996 -0.6253 -0.5976  0.5652
   35MOL0     C 4731   3.193   6.234   1.896 -0.1523  0.6883  0.4234
   35MOL0     C 4732   3.270   6.221   1.765 -0.2426 -0.4994 -0.3495
   35MOL0     C 4733   3.209   6.309   1.651 -1.5795 -0.5880  0.5531
   35MOL0     C 4734   3.308   6.289   1.526 -1.0767  0.5618  0.4338
   35MOL0     C 4735   3.271   6.371   1.408  0.3617 -1.3877 -1.0303
   35MOL0     C 4736   3.147   6.326   1.330 -0.2863  0.1381 -0.4323
   35MOL0    Cl 4737   3.182   6.176   1.233 -0.0796 -0.1389  0.7588
   35MOL0     C 4738   3.362   5.893   2.339 -0.4993  0.6982 -1.0067
   35MOL0     C 4739   3.318   5.866   2.470 -0.3111 -1.7023  0.6220
   35MOL0     O 4740   3.328   6.108   2.764 -0.0543 -0.4059 -0.4592
   35MOL0     C 4741   3.343   6.018   3.005  0.4551  0.3255 -0.7669
   35MOL0     C 4742   3.357   5.966   3.132  0.4343 -0.1347  0.0050
   35MOL0     N 4743   3.293   6.170   3.826  0.3763 -0.3084  0.0673
   35MOL0     N 4744   3.313   6.219   3.943  0.0989  0.1885  0.9763
   35MOL0     C 4745   3.907   6.716   4.953  0.5027 -0.0180 -0.1564
   35MOL0     C 4746   3.879   6.766   5.082  0.1194 -0.1725 -0.1434
   35MOL0     C 4747   3.695   6.845   5.470  0.7466  0.6551  0.1237
   35MOL0     C 4748   3.819   6.850   5.530 -0.1396 -0.8173 -0.2182
   35MOL0     C 4749   3.844   6.911   5.652  0.6873 -1.2781 -1.0366
   35MOL0     C 4750   3.739   6.965   5.734 -0.9526  1.1663 -0.0759
   35MOL0     O 4751   3.761   7.028   5.853  0.4077 -0.2901  0.1387
   35MOL0     C 4752   3.662   7.103   5.928 -0.5352  0.6086  0.8335
   35MOL0     C 4753   3.747   7.191   6.014 -0.5739 -0.1190  0.0556
   35MOL0     C 4754   3.791   7.312   5.927  0.3533  0.4548  0.1505
   35MOL0     C 4755   3.879   7.407   6.013 -0.8017  0.3068  0.3792
   35MOL0     C 4756   3.903   7.525   5.926 -1.0481  0.6016 -0.9172
   35MOL0     C 4757   3.917   7.624   5.859 -0.3479  0.2831  1.3488
   35MOL0     C 4758   3.616   6.951   5.674 -0.2438 -0.1607  1.1333
   35MOL0     C 4759   3.586   6.885   5.550  0.5774  0.2570 -0.3792
   35MOL0     C 4760   3.438   6.879   5.510  0.4741  0.2915 -0.3756
   35MOL0     H 4761   3.737   6.487   5.225 -2.3000  2.5080  0.9426
   35MOL0     H 4762   3.781   6.395   4.997 -2.3636  1.7861 -1.0410
   35MOL0     H 4763   3.681   6.505   4.733 -0.6329 -1.1752 -0.2023
   35MOL0     H 4764   3.761   6.347   4.776 -0.9135  0.2795  0.1861
   35MOL0     H 4765   3.852   6.520   4.551  1.8150  0.0624  2.1446
   35MOL0     H 4766   3.877   6.345   4.570 -0.1674  0.0196 -4.6703
   35MOL0     H 4767   3.634   6.476   4.476  2.0643  1.9628  1.0693
   35MOL0     H 4768   3.737   6.367   4.383 -1.4741 -0.0396 -0.2348
   35MOL0     H 4769   3.682   6.182   4.533 -1.0659 -0.1445  1.3450
   35MOL0     H 4770   3.560   6.283   4.609  1.1924  1.4920  0.9051
   35MOL0     H 4771   3.483   6.336   4.354 -1.0538 -0.8826 -0.8422
   35MOL0     H 4772   3.419   6.204   4.438 -1.1553  1.2020 -1.8625
   35MOL0     H 4773   3.679   6.146   4.296 -0.7776 -0.8574 -2.8060
   35MOL0     H 4774   3.558   6.034   4.349  0.5204 -0.6884 -0.3034
   35MOL0     H 4775   3.560   6.074   4.097  0.7118  3.1147 -2.7506
   35MOL0     H 4776   3.534   6.244   4.126  0.8338 -1.2411 -2.3186
   35MOL0     H 4777   3.339   6.013   4.212 -0.9112  1.1011  1.0884
   35MOL0     H 4778   3.307   6.189   4.211  1.0409  2.2999 -1.3669
   35MOL0     H 4779   3.318   5.884   3.983  0.6942  0.3506 -0.5839
   35MOL0     H 4780   3.230   6.014   3.611 -1.8460 -0.0573  0.4762
   35MOL0     H 4781   3.146   5.896   3.700 -0.2152  1.0557 -0.1223
   35MOL0     H 4782   3.452   5.947   3.648 -0.8362  0.6811 -0.3563
   35MOL0     H 4783   3.400   5.799   3.737  0.1049  1.0947 -0.1097
   35MOL0     H 4784   3.430   5.718   3.544 -0.8920  0.0569  2.3412
   35MOL0     H 4785   3.260   5.733   3.544  1.0913 -1.3161  0.4517
   35MOL0     H 4786   3.301   5.980   3.423 -2.1742 -0.4016 -1.3912
   35MOL0     H 4787   3.459   5.894   3.386 -0.7204  0.4696 -2.2887
   35MOL0     H 4788   3.167   5.694   3.113  0.8241 -1.0798 -1.6016
   35MOL0     H 4789   3.046   5.773   2.821 -1.4571 -0.5635  1.1564
   35MOL0     H 4790   3.105   5.639   2.930  2.7827 -2.0581 -1.3386
   35MOL0     H 4791   3.191   5.689   2.790 -1.3100 -0.5418 -1.3156
   35MOL0     H 4792   3.150   6.153   2.538  2.9916  2.7855  1.7304
   35MOL0     H 4793   3.230   6.218   2.316  0.0346  0.6284  0.2491
   35MOL0     H 4794   3.342   6.238   2.120 -2.0108 -0.7441  0.0505
   35MOL0     H 4795   3.435   6.154   1.995  0.5913 -0.0937 -0.0125
   35MOL0     H 4796   3.237   6.019   1.939 -1.0977  1.0130 -2.3707
   35MOL0     H 4797   3.144   6.106   2.072  0.0081 -0.1695  1.2714
   35MOL0     H 4798   3.204   6.323   1.957  1.1816 -0.8869  2.6213
   35MOL0     H 4799   3.091   6.234   1.857 -0.7752 -2.1422  1.7762
   35MOL0     H 4800   3.267   6.116   1.733  0.9011 -1.4022  2.2226
   35MOL0     H 4801   3.373   6.253   1.783 -1.4230  2.5787  1.7857
   35MOL0     H 4802   3.106   6.284   1.624 -2.7128  0.0748  3.7896
   35MOL0     H 4803   3.205   6.412   1.687 -1.7213 -0.8972  1.4372
   35MOL0     H 4804   3.295   6.185   1.496  0.7441  0.8560 -1.5780
   35MOL0     H 4805   3.411   6.313   1.551 -0.4526 -1.0861 -0.4393
   35MOL0     H 4806   3.351   6.371   1.333  1.1423 -0.0382 -0.2290
   35MOL0     H 4807   3.259   6.478   1.430  0.9932 -1.0036 -2.4457
   35MOL0     H 4808   3.115   6.408   1.265  1.3385  0.4780 -0.8621
   35MOL0     H 4809   3.079   6.302   1.412  1.9667 -1.4404  1.1023
   35MOL0     H 4810   3.421   5.819   2.287  0.9470 -1.3524  3.1027
   35MOL0     H 4811   3.341   5.767   2.507 -3.5502 -2.5378  0.6565
   35MOL0     H 4812   3.407   6.102   2.980 -0.5386  1.1369 -0.6439
   35MOL0     H 4813   3.426   6.015   3.200  1.7722 -1.1477 -0.5904
   35MOL0     H 4814   3.948   6.796   4.893 -2.2203  0.8158 -1.0190
   35MOL0     H 4815   3.894   6.870   5.106  1.0803  0.1407 -1.9115
   35MOL0     H 4816   3.905   6.812   5.475 -0.1977  1.7001 -2.2297
   35MOL0     H 4817   3.947   6.907   5.688  0.6445 -1.6202 -0.9446
   35MOL0     H 4818   3.591   7.162   5.871  1.3889  0.5716 -1.7743
   35MOL0     H 4819   3.599   7.033   5.984  0.2496 -0.9380 -0.1262
   35MOL0     H 4820   3.833   7.137   6.055 -0.3696 -2.7745 -3.3620
   35MOL0     H 4821   3.678   7.238   6.084 -1.3645  2.3697 -2.1917
   35MOL0     H 4822   3.853   7.279   5.844  1.4927  3.3426 -0.2475
   35MOL0     H 4823   3.702   7.365   5.891  0.9553  0.7651 -0.9082
   35MOL0     H 4824   3.980   7.366   6.025  0.4689  3.3883  1.2126
   35MOL0     H 4825   3.843   7.442   6.111  1.3568  2.1966  0.5793
   35MOL0     H 4826   3.939   7.701   5.788 -0.9687 -1.6802 -1.1346
   35MOL0     H 4827   3.531   6.999   5.722  1.0521  2.3994  1.0288
   35MOL0     H 4828   3.364   6.880   5.590 -3.8072 -2.6048 -3.8148
   35MOL0     H 4829   3.407   6.957   5.440 -0.4326  1.8150  1.6332
   35MOL0     H 4830   3.405   6.779   5.480  5.2287 -1.2464 -1.4058
   36MOL0     O 4831   3.032   4.925   5.098  0.1632  0.5286 -0.3160
   36MOL0     C 4832   3.147   4.938   5.137 -0.3471 -0.1231 -0.5630
   36MOL0     O 4833   3.251   4.854   5.106  0.5084  0.4591 -0.9173
   36MOL0     C 4834   3.232   4.777   4.997 -0.0206  0.4637  0.0526
   36MOL0     C 4835   3.222   4.635   5.010 -1.3600 -0.1378  0.2616
   36MOL0     C 4836   3.203   4.556   4.894  0.4780 -0.5697 -0.1066
   36MOL0     C 4837   3.186   4.613   4.772 -0.4209  0.1405  0.4102
   36MOL0     O 4838   3.152   4.534   4.665  0.5048 -0.2817  0.3897
   36MOL0     C 4839   3.018   4.480   4.656  0.5796  0.0527  0.3181
   36MOL0     C 4840   3.018   4.341   4.593  0.5082 -0.4346 -0.1573
   36MOL0     C 4841   3.066   4.349   4.452 -1.0752 -0.0676  0.7272
   36MOL0     C 4842   3.149   4.237   4.385  0.3256 -0.0816 -0.6066
   36MOL0     C 4843   3.131   4.220   4.233 -0.0993  0.0466  0.5630
   36MOL0     C 4844   3.189   4.096   4.172 -0.2328  0.3683  0.2615
   36MOL0     C 4845   3.334   4.066   4.224  0.3737 -0.3905  0.2972
   36MOL0     C 4846   3.401   3.963   4.133  0.2078 -0.2747  0.4477
   36MOL0     N 4847   3.341   3.837   4.124  0.1716  0.5663  0.4081
   36MOL0     C 4848   3.254   3.789   4.023  0.7750  0.5721  0.0500
   36MOL0     C 4849   3.196   3.681   4.076 -0.0900  0.1509  0.5579
   36MOL0     C 4850   3.107   3.592   3.989 -0.3246 -0.0762 -0.2456
   36MOL0     C 4851   2.957   3.631   4.000  0.2562  0.9422  0.2421
   36MOL0     C 4852   2.869   3.506   3.958 -0.0412 -0.6512 -0.0888
   36MOL0     C 4853   2.710   3.520   3.974 -0.6335  1.0266  0.2819
   36MOL0     O 4854   2.675   3.657   3.933 -0.0167 -0.0404  0.5516
   36MOL0     C 4855   2.538   3.697   3.931 -0.8726 -1.1211 -0.2436
   36MOL0     C 4856   2.428   3.615   3.889 -0.2627 -0.4062  0.3116
   36MOL0     C 4857   2.306   3.671   3.898  0.2923  0.5786  0.6002
   36MOL0     C 4858   2.201   3.578   3.861  0.3065  0.0208  0.4589
   36MOL0     C 4859   2.282   3.800   3.946  0.6663  0.3852  0.1901
   36MOL0     C 4860   2.146   3.862   3.953 -0.1892  0.2400  0.1331
   36MOL0     O 4861   2.152   3.996   3.977  0.1158  0.7087 -0.0167
   36MOL0     C 4862   2.036   4.074   3.973  0.1697  0.8312 -0.0315
   36MOL0     C 4863   2.016   4.165   3.868 -0.0940  0.1019 -0.1769
   36MOL0     C 4864   1.890   4.227   3.861  0.2125 -0.9676 -0.1740
   36MOL0     C 4865   1.789   4.217   3.958  0.1865 -0.2314 -0.0626
   36MOL0     O 4866   1.676   4.293   3.946  0.5683  0.4604 -0.4556
   36MOL0     C 4867   1.587   4.328   4.060 -1.4737  0.5612 -0.0320
   36MOL0     C 4868   1.493   4.444   4.012 -0.2417 -0.0231  0.0286
   36MOL0     C 4869   1.378   4.470   4.104  0.2185 -0.1853 -0.1552
   36MOL0     C 4870   1.417   4.543   4.233 -0.4473  0.4381 -0.4637
   36MOL0     C 4871   1.306   4.550   4.341 -0.6845 -0.0254  0.3491
   36MOL0     C 4872   1.188   4.651   4.311 -0.0076 -0.1115  0.9331
   36MOL0     C 4873   1.218   4.800   4.281 -0.3954  0.7278  2.0995
   36MOL0     C 4874   1.283   4.868   4.396  0.9617  0.0923 -0.6245
   36MOL0    Cl 4875   1.239   5.037   4.386 -0.6477 -0.3404  0.0558
   36MOL0     C 4876   1.821   4.130   4.069  0.2358 -0.4123  1.0229
   36MOL0     C 4877   1.950   4.062   4.081  1.4303 -1.4355 -0.4109
   36MOL0     O 4878   2.048   3.795   3.927  0.1917  0.2344  0.0586
   36MOL0     C 4879   2.395   3.878   3.973 -0.1445  0.2238  0.0566
   36MOL0     C 4880   2.523   3.827   3.973  0.2519  1.2214  0.1766
   36MOL0     N 4881   3.230   3.677   4.207  0.2699  0.1965 -0.0845
   36MOL0     N 4882   3.318   3.764   4.234  0.0328  0.4952 -0.1136
   36MOL0     C 4883   3.201   4.749   4.753  0.0255  0.2212 -0.3485
   36MOL0     C 4884   3.231   4.827   4.866  0.2805  0.0411  0.5601
   36MOL0     C 4885   3.167   5.051   5.235  0.1061  0.6179  1.4561
   36MOL0     C 4886   3.273   5.042   5.327  0.6942  0.5974  1.1558
   36MOL0     C 4887   3.289   5.138   5.432  0.8635 -0.7886 -0.2457
   36MOL0     C 4888   3.185   5.233   5.451 -0.2229 -0.1472  0.2570
   36MOL0     O 4889   3.170   5.323   5.554 -0.2094 -0.1352  0.3178
   36MOL0     C 4890   3.252   5.297   5.673  0.5778  0.4185 -0.3532
   36MOL0     C 4891   3.378   5.376   5.670  0.1055 -0.7914  0.4029
   36MOL0     C 4892   3.452   5.365   5.803 -0.4690  0.3038  0.5658
   36MOL0     C 4893   3.561   5.472   5.810 -0.2007 -0.1944  0.1558
   36MOL0     C 4894   3.667   5.457   5.714 -0.4959 -0.2981 -0.7066
   36MOL0     C 4895   3.747   5.456   5.623 -0.0642  1.1435 -0.5542
   36MOL0     C 4896   3.083   5.242   5.355  1.3523  0.0396 -0.4394
   36MOL0     C 4897   3.075   5.157   5.242 -0.5637 -0.5943  0.0915
   36MOL0     C 4898   2.964   5.196   5.142  0.0769 -0.0709 -0.0334
   36MOL0     H 4899   3.219   4.589   5.108 -2.5165  1.4168  1.0006
   36MOL0     H 4900   3.205   4.449   4.912  0.1388 -0.6424 -0.5097
   36MOL0     H 4901   2.959   4.547   4.593  1.8938  0.9335 -0.0008
   36MOL0     H 4902   2.970   4.472   4.754  3.6923 -0.6050  1.9383
   36MOL0     H 4903   3.079   4.266   4.644 -0.8908 -2.8755 -1.8584
   36MOL0     H 4904   2.917   4.299   4.595  1.5732 -3.1873  1.0579
   36MOL0     H 4905   2.977   4.368   4.390 -1.2569  2.9039  1.7668
   36MOL0     H 4906   3.124   4.441   4.441 -0.4899 -0.4504  0.5979
   36MOL0     H 4907   3.254   4.245   4.414  0.5304 -0.8497 -1.0958
   36MOL0     H 4908   3.113   4.146   4.433  0.1382 -0.7143 -1.8846
   36MOL0     H 4909   3.179   4.309   4.191 -2.5930  0.5395 -1.5121
   36MOL0     H 4910   3.029   4.218   4.192  0.5934 -0.6227 -1.2184
   36MOL0     H 4911   3.116   4.019   4.197  0.0472 -0.7389 -2.0123
   36MOL0     H 4912   3.195   4.116   4.064 -1.0716  2.6195  0.5745
   36MOL0     H 4913   3.335   4.032   4.327  0.3699  0.3265  0.5395
   36MOL0     H 4914   3.398   4.156   4.222 -0.5334  0.3291  1.9891
   36MOL0     H 4915   3.391   4.014   4.037 -1.4899  4.3360  2.7751
   36MOL0     H 4916   3.505   3.962   4.166 -0.2959  2.3092  2.5178
   36MOL0     H 4917   3.241   3.822   3.921  1.3484  0.4066 -0.0810
   36MOL0     H 4918   3.126   3.486   4.004 -1.6037 -0.2919 -0.0102
   36MOL0     H 4919   3.136   3.607   3.884 -1.3697 -3.4115 -1.1266
   36MOL0     H 4920   2.932   3.644   4.106  4.8029 -1.6614  1.9441
   36MOL0     H 4921   2.936   3.720   3.940 -3.6829  1.0590  1.5290
   36MOL0     H 4922   2.880   3.498   3.849 -1.7206  3.7355 -0.7982
   36MOL0     H 4923   2.903   3.420   4.016 -3.1308 -1.0794  1.2810
   36MOL0     H 4924   2.665   3.452   3.902 -0.5674  2.1860 -0.8899
   36MOL0     H 4925   2.669   3.489   4.071 -1.9223 -3.5161 -1.4838
   36MOL0     H 4926   2.444   3.516   3.846  1.2970  1.5786 -4.4082
   36MOL0     H 4927   2.148   3.608   3.769 -0.3938  1.0219  1.1640
   36MOL0     H 4928   2.128   3.570   3.942 -2.7564 -3.0217 -2.2576
   36MOL0     H 4929   2.237   3.476   3.855 -1.6835 -0.6610 -1.4274
   36MOL0     H 4930   2.101   4.170   3.802  1.4818 -2.8611  1.4631
   36MOL0     H 4931   1.880   4.289   3.773  2.0691  0.5332  0.6023
   36MOL0     H 4932   1.530   4.245   4.105 -0.5458  0.9100  1.8981
   36MOL0     H 4933   1.659   4.367   4.132  0.9037  0.3400 -2.1945
   36MOL0     H 4934   1.569   4.523   4.009 -0.8661  0.6498  1.2483
   36MOL0     H 4935   1.445   4.412   3.919  0.7625 -2.2454  0.2318
   36MOL0     H 4936   1.331   4.380   4.143  2.1211 -1.6661 -1.1125
   36MOL0     H 4937   1.298   4.528   4.057 -0.9731 -1.2201  0.5247
   36MOL0     H 4938   1.463   4.640   4.208 -1.7571  1.6171  1.4590
   36MOL0     H 4939   1.501   4.488   4.276 -0.6046  0.4513 -0.1445
   36MOL0     H 4940   1.272   4.449   4.364  1.8689 -1.1989 -0.5993
   36MOL0     H 4941   1.353   4.571   4.438  1.5731 -2.2638 -0.1371
   36MOL0     H 4942   1.116   4.634   4.392 -1.2012  0.5778  0.0448
   36MOL0     H 4943   1.154   4.597   4.222 -0.1125 -0.3734  1.1303
   36MOL0     H 4944   1.121   4.842   4.252 -1.0548 -2.3354 -0.7911
   36MOL0     H 4945   1.277   4.818   4.190 -1.6405 -2.1480  0.5970
   36MOL0     H 4946   1.391   4.854   4.403  1.0004 -0.3747 -1.9265
   36MOL0     H 4947   1.246   4.819   4.487 -1.5576 -2.0037 -2.6113
   36MOL0     H 4948   1.743   4.109   4.142  0.1733  0.5642  1.2514
   36MOL0     H 4949   1.987   3.999   4.162  1.6334  0.1726  0.7984
   36MOL0     H 4950   2.385   3.986   3.979 -1.6341  0.2696 -1.9639
   36MOL0     H 4951   2.615   3.877   4.000 -0.9607  2.0522  3.2493
   36MOL0     H 4952   3.196   4.786   4.651 -3.4863 -1.6462 -0.9751
   36MOL0     H 4953   3.226   4.936   4.857 -1.8336  0.0791  1.5883
   36MOL0     H 4954   3.353   4.969   5.315  2.2328  1.9336  2.6615
   36MOL0     H 4955   3.371   5.137   5.503 -0.1363  1.3296  1.0237
   36MOL0     H 4956   3.192   5.339   5.755  0.2229 -0.5721 -0.1019
   36MOL0     H 4957   3.270   5.190   5.681  1.6672  0.6879  1.4166
   36MOL0     H 4958   3.336   5.475   5.655 -0.7707 -0.9400  1.6639
   36MOL0     H 4959   3.445   5.358   5.585 -0.5012  0.0096 -0.2606
   36MOL0     H 4960   3.381   5.370   5.885 -0.4510  1.4707  0.5360
   36MOL0     H 4961   3.496   5.265   5.810  0.1172  0.5345  0.2622
   36MOL0     H 4962   3.602   5.465   5.911 -0.9495 -1.5490  0.4001
   36MOL0     H 4963   3.525   5.575   5.807  1.2823  0.3764  1.0124
   36MOL0     H 4964   3.824   5.470   5.550  0.4138  1.5951  0.0363
   36MOL0     H 4965   3.003   5.313   5.375  0.1507 -1.4124  0.2040
   36MOL0     H 4966   2.973   5.302   5.116 -0.9362 -0.2668 -1.2774
   36MOL0     H 4967   2.977   5.153   5.042 -1.2504  1.7994 -1.0857
   36MOL0     H 4968   2.871   5.166   5.190 -0.3213  0.9905 -0.1164
   37MOL0     O 4969   0.748   2.161   8.317 -1.2823 -0.0006 -0.5562
   37MOL0     C 4970   0.737   2.265   8.258 -0.2240 -0.2315 -0.0246
   37MOL0     O 4971   0.836   2.362   8.243 -0.0250 -0.3490  0.1623
   37MOL0     C 4972   0.967   2.323   8.254  0.5667  0.2787 -0.6263
   37MOL0     C 4973   1.028   2.244   8.156 -0.3826 -0.1381  0.7807
   37MOL0     C 4974   1.158   2.197   8.174  0.1699 -1.1383 -0.1785
   37MOL0     C 4975   1.237   2.230   8.290 -0.4760 -0.4836  0.9500
   37MOL0     O 4976   1.352   2.161   8.314 -0.2181 -0.0872 -0.5108
   37MOL0     C 4977   1.465   2.245   8.334 -0.7210 -0.5876  0.0080
   37MOL0     C 4978   1.582   2.150   8.368 -0.2399 -0.0836 -1.1813
   37MOL0     C 4979   1.612   2.037   8.261 -0.4946  0.2000 -0.2624
   37MOL0     C 4980   1.705   1.935   8.322 -0.6851  0.5838 -0.1434
   37MOL0     C 4981   1.777   1.848   8.209  0.0943 -0.1718  0.4806
   37MOL0     C 4982   1.686   1.732   8.166 -0.4161 -0.7260 -0.4778
   37MOL0     C 4983   1.738   1.652   8.047  0.2831  0.3539 -0.3085
   37MOL0     C 4984   1.875   1.583   8.079  0.4941 -0.7098 -0.1389
   37MOL0     N 4985   1.938   1.539   7.953 -1.2294 -0.6620 -0.5996
   37MOL0     C 4986   1.891   1.449   7.869  0.9823  1.0486 -0.1330
   37MOL0     C 4987   1.991   1.422   7.776  1.3884  0.5121  1.1709
   37MOL0     C 4988   1.982   1.326   7.662 -0.1198  0.4092  0.0102
   37MOL0     C 4989   2.079   1.211   7.697  0.4598  1.1154 -0.2367
   37MOL0     C 4990   2.092   1.096   7.598 -0.5450  0.5291  0.1558
   37MOL0     C 4991   2.162   0.978   7.662 -0.6336 -0.0099 -0.2627
   37MOL0     O 4992   2.088   0.925   7.771  0.5375  0.4424 -1.3992
   37MOL0     C 4993   2.149   0.828   7.849 -0.4677 -0.6035 -0.4583
   37MOL0     C 4994   2.273   0.767   7.816  0.2919  0.2671 -0.0447
   37MOL0     C 4995   2.317   0.655   7.894 -0.0165  0.4066  0.6904
   37MOL0     C 4996   2.426   0.571   7.834 -0.8754 -0.2170 -0.9362
   37MOL0     C 4997   2.240   0.608   8.004 -0.1175  0.1113 -0.1947
   37MOL0     C 4998   2.272   0.486   8.071  0.4471  1.2587 -0.2567
   37MOL0     O 4999   2.405   0.461   8.099 -0.7364 -0.0133  0.1955
   37MOL0     C 5000   2.455   0.336   8.137 -1.2509 -0.3640 -0.4102
   37MOL0     C 5001   2.595   0.322   8.123 -0.3061 -0.1544  0.2600
   37MOL0     C 5002   2.668   0.206   8.142  0.1242  0.4283  0.4079
   37MOL0     C 5003   2.598   0.089   8.185 -0.5556 -0.7824 -0.6514
   37MOL0     O 5004   2.641  -0.032   8.222 -0.3813 -0.5089 -0.1921
   37MOL0     C 5005   2.741  -0.103   8.137  0.0026  0.0768 -0.2433
   37MOL0     C 5006   2.692  -0.171   8.001  0.1671  0.8625  0.2758
   37MOL0     C 5007   2.581  -0.283   8.016 -0.8349  0.0858 -0.3775
   37MOL0     C 5008   2.447  -0.234   8.057  0.3278 -1.1248 -0.1792
   37MOL0     C 5009   2.342  -0.341   8.070  0.0662 -0.8429 -0.4887
   37MOL0     C 5010   2.206  -0.279   8.102  0.3691  0.1337  0.2442
   37MOL0     C 5011   2.119  -0.266   7.980 -1.0228 -0.7227  0.1781
   37MOL0     C 5012   2.003  -0.170   7.988  0.3484  0.2343  0.0545
   37MOL0    Cl 5013   1.914  -0.169   7.830 -0.0982 -0.7511  0.0227
   37MOL0     C 5014   2.459   0.104   8.214 -0.2069  0.2706 -1.6204
   37MOL0     C 5015   2.388   0.220   8.193 -0.1017  0.1162  0.3278
   37MOL0     O 5016   2.185   0.405   8.099  0.2105  0.0906 -0.6499
   37MOL0     C 5017   2.117   0.672   8.031 -0.1270  0.2856 -0.2936
   37MOL0     C 5018   2.080   0.790   7.959  0.0051  0.5418 -0.0655
   37MOL0     N 5019   2.099   1.490   7.820 -0.1679  0.4553  0.4045
   37MOL0     N 5020   2.073   1.561   7.923  0.6704 -1.3519 -0.7084
   37MOL0     C 5021   1.180   2.310   8.384 -0.0406 -0.1299  1.0670
   37MOL0     C 5022   1.049   2.356   8.368 -0.7258 -0.0008 -0.0478
   37MOL0     C 5023   0.604   2.291   8.199  0.1061  0.3762 -0.3227
   37MOL0     C 5024   0.494   2.206   8.229 -0.3768 -0.7452  0.0948
   37MOL0     C 5025   0.362   2.240   8.193  0.5798  0.6817 -1.4110
   37MOL0     C 5026   0.338   2.361   8.129  0.2925  0.6107  0.9147
   37MOL0     O 5027   0.212   2.413   8.097  0.0551 -0.2764  0.0620
   37MOL0     C 5028   0.130   2.324   8.013  0.0702  0.7285  0.5680
   37MOL0     C 5029   0.055   2.411   7.909  0.1815 -0.3912  0.0914
   37MOL0     C 5030  -0.024   2.325   7.806  0.2850 -0.6441  0.1632
   37MOL0     C 5031   0.066   2.255   7.690  0.2052  0.2636  0.0360
   37MOL0     C 5032   0.134   2.348   7.600 -0.5417 -0.3622 -0.5723
   37MOL0     C 5033   0.208   2.420   7.533  0.4773  0.8655 -0.6346
   37MOL0     C 5034   0.452   2.441   8.086  0.7275  1.1334  0.3338
   37MOL0     C 5035   0.581   2.407   8.119  0.2626 -0.2604 -0.4764
   37MOL0     C 5036   0.689   2.495   8.066 -0.3429  0.3903  0.4279
   37MOL0     H 5037   0.967   2.217   8.070  1.2198  0.3586 -0.5583
   37MOL0     H 5038   1.207   2.132   8.102  0.7794 -3.5170  2.2156
   37MOL0     H 5039   1.453   2.309   8.422  2.4659  1.4250 -0.9053
   37MOL0     H 5040   1.490   2.303   8.245 -1.2470 -2.0331 -1.1324
   37MOL0     H 5041   1.677   2.194   8.399  0.3650 -1.2260 -1.3511
   37MOL0     H 5042   1.544   2.111   8.463 -1.9384  4.4474  0.2629
   37MOL0     H 5043   1.520   2.000   8.216 -0.6422  0.6890 -0.3690
   37MOL0     H 5044   1.674   2.078   8.181 -1.7199 -0.8580 -1.8176
   37MOL0     H 5045   1.791   1.980   8.372  2.8755 -1.1006 -4.1266
   37MOL0     H 5046   1.652   1.875   8.397 -0.7685  0.4378 -0.3194
   37MOL0     H 5047   1.868   1.812   8.256  1.4324  2.1676 -0.1481
   37MOL0     H 5048   1.803   1.913   8.124  0.1989  0.1179  0.7329
   37MOL0     H 5049   1.672   1.666   8.252 -0.3790  2.1499  1.9027
   37MOL0     H 5050   1.594   1.776   8.128  1.8126  0.5270 -5.1321
   37MOL0     H 5051   1.758   1.722   7.965 -1.5546 -0.4781 -1.5625
   37MOL0     H 5052   1.660   1.584   8.010 -1.7344  2.3633  0.0733
   37MOL0     H 5053   1.946   1.657   8.116  1.6268 -1.3191 -1.0104
   37MOL0     H 5054   1.855   1.503   8.151 -1.2881  0.4821  0.7696
   37MOL0     H 5055   1.790   1.410   7.865  0.1030  3.2952 -0.9151
   37MOL0     H 5056   2.019   1.370   7.569  2.6121 -1.8362 -0.1310
   37MOL0     H 5057   1.883   1.281   7.652  1.2122 -2.0971 -4.1349
   37MOL0     H 5058   2.182   1.240   7.720  0.0094  2.0540  0.6911
   37MOL0     H 5059   2.031   1.171   7.787 -0.2586  0.4589 -0.9034
   37MOL0     H 5060   2.000   1.060   7.552 -1.0869  2.1881 -0.1210
   37MOL0     H 5061   2.162   1.124   7.518  3.3836 -2.6099  2.0878
   37MOL0     H 5062   2.179   0.894   7.594 -0.4627 -0.8798  0.8321
   37MOL0     H 5063   2.263   1.015   7.685 -0.3167 -1.7981  1.5396
   37MOL0     H 5064   2.342   0.802   7.740  2.5045 -0.6626  1.4436
   37MOL0     H 5065   2.435   0.590   7.727 -4.3902 -0.5401 -1.4055
   37MOL0     H 5066   2.392   0.467   7.838 -2.1712  0.2296  1.0643
   37MOL0     H 5067   2.523   0.587   7.883 -1.4260  0.3873 -0.0105
   37MOL0     H 5068   2.654   0.404   8.082 -1.2916  0.6476  0.3883
   37MOL0     H 5069   2.773   0.191   8.118  0.5988  1.9169  1.4533
   37MOL0     H 5070   2.825  -0.037   8.114 -0.3138  0.3277 -0.6914
   37MOL0     H 5071   2.797  -0.180   8.191  3.3005  1.7111 -1.0984
   37MOL0     H 5072   2.641  -0.102   7.931  0.0815  2.2867  1.6840
   37MOL0     H 5073   2.780  -0.216   7.955 -1.5004 -2.3287 -0.0647
   37MOL0     H 5074   2.614  -0.358   8.089  0.2368 -1.3024 -2.1986
   37MOL0     H 5075   2.585  -0.345   7.926  1.1582 -1.0892  0.4550
   37MOL0     H 5076   2.408  -0.172   7.976 -4.0821 -2.3233  0.7394
   37MOL0     H 5077   2.452  -0.178   8.150 -1.8034 -0.7427 -0.2404
   37MOL0     H 5078   2.338  -0.404   7.981 -1.4365 -1.3028 -0.1225
   37MOL0     H 5079   2.367  -0.411   8.150 -0.8700  0.2510  0.8091
   37MOL0     H 5080   2.207  -0.179   8.146 -2.4114  0.2466  0.2247
   37MOL0     H 5081   2.151  -0.345   8.169  0.0763 -1.9691 -1.9212
   37MOL0     H 5082   2.076  -0.365   7.959 -0.6204 -0.4483 -2.1982
   37MOL0     H 5083   2.180  -0.232   7.896 -0.3543 -2.8435 -0.2794
   37MOL0     H 5084   2.035  -0.068   8.009 -1.0684  0.9211 -0.8976
   37MOL0     H 5085   1.938  -0.200   8.071  1.0316  0.7541  0.7913
   37MOL0     H 5086   2.409   0.015   8.251  0.0929  0.7021 -0.1295
   37MOL0     H 5087   2.286   0.210   8.229  0.4523 -3.9019  1.2638
   37MOL0     H 5088   2.055   0.635   8.113 -0.8180 -0.8795 -1.3140
   37MOL0     H 5089   1.988   0.838   7.991  1.0971  1.4618  1.9040
   37MOL0     H 5090   1.238   2.339   8.472  0.3583  1.5474  0.3019
   37MOL0     H 5091   1.020   2.423   8.448  0.3570 -1.5921  1.7571
   37MOL0     H 5092   0.516   2.118   8.290  2.0639  1.3284  2.4609
   37MOL0     H 5093   0.290   2.169   8.233  3.5021 -0.6148  2.0459
   37MOL0     H 5094   0.183   2.242   7.963  1.3470  1.9341 -0.1487
   37MOL0     H 5095   0.050   2.281   8.074 -2.0815  2.5439 -0.8121
   37MOL0     H 5096   0.124   2.463   7.842  1.0553 -2.1491 -0.4337
   37MOL0     H 5097   0.007   2.493   7.963  3.5877 -0.8336  4.2957
   37MOL0     H 5098  -0.081   2.251   7.863 -1.7442  2.7318  2.9156
   37MOL0     H 5099  -0.103   2.395   7.778 -1.2063  0.0390  5.0940
   37MOL0     H 5100  -0.001   2.194   7.630 -0.4491 -0.1678  1.1806
   37MOL0     H 5101   0.146   2.209   7.748 -1.9831  0.4056  3.4724
   37MOL0     H 5102   0.288   2.472   7.485  3.0403 -0.8196  1.5471
   37MOL0     H 5103   0.425   2.528   8.027 -0.2494  0.2860 -0.5271
   37MOL0     H 5104   0.780   2.440   8.039 -1.6508 -1.5178 -0.3044
   37MOL0     H 5105   0.642   2.537   7.977 -3.2688 -1.8903  0.7125
   37MOL0     H 5106   0.719   2.565   8.144  1.0983  0.3629 -0.0727
   38MOL0     O 5107  11.357   3.342   1.237 -0.0260  0.3274 -0.4174
   38MOL0     C 5108  11.352   3.256   1.149 -0.9992 -0.8326  0.3288
   38MOL0     O 5109  11.274   3.266   1.040 -0.2433 -0.8893  0.5732
   38MOL0     C 5110  11.175   3.366   1.040 -0.5392  0.2809 -0.7103
   38MOL0     C 5111  11.192   3.487   0.974 -0.4472  0.1397 -0.2507
   38MOL0     C 5112  11.092   3.590   0.989 -0.0838 -0.3535 -0.7972
   38MOL0     C 5113  10.975   3.567   1.064 -0.1468  0.7886  0.5333
   38MOL0     O 5114  10.882   3.668   1.103  0.0505  0.0194 -0.1005
   38MOL0     C 5115  10.920   3.799   1.103 -0.1417  0.2371 -0.5973
   38MOL0     C 5116  10.804   3.899   1.142  0.0189  0.0060 -0.6331
   38MOL0     C 5117  10.854   4.037   1.110 -0.5298 -0.5228  0.7578
   38MOL0     C 5118  10.761   4.150   1.133  0.4561  0.2221  0.0086
   38MOL0     C 5119  10.776   4.253   1.011 -0.1338 -0.5701  0.2707
   38MOL0     C 5120  10.911   4.334   1.004 -0.4039 -0.2790 -0.6802
   38MOL0     C 5121  10.877   4.469   0.924  0.1590 -0.0254  0.1142
   38MOL0     C 5122  11.005   4.551   0.912  0.8085 -0.9166 -0.2219
   38MOL0     N 5123  10.986   4.658   0.821 -0.4903  0.4526  0.4884
   38MOL0     C 5124  11.048   4.664   0.693 -0.3777 -0.6544  0.0888
   38MOL0     C 5125  10.991   4.772   0.633 -0.1237 -0.9219 -0.2891
   38MOL0     C 5126  11.021   4.816   0.499 -0.5056 -1.6021 -0.2381
   38MOL0     C 5127  11.112   4.951   0.493  0.4412  0.6834  0.3828
   38MOL0     C 5128  11.039   5.076   0.551 -0.0519  0.0284 -0.7254
   38MOL0     C 5129  11.115   5.208   0.533  0.5097  0.4045  0.2388
   38MOL0     O 5130  11.259   5.180   0.567  0.4132  0.0910  0.6405
   38MOL0     C 5131  11.358   5.272   0.561  0.7073  0.1997  0.1443
   38MOL0     C 5132  11.423   5.319   0.675 -0.2812  0.1438 -0.0495
   38MOL0     C 5133  11.532   5.410   0.669 -0.2973 -0.5826  0.4168
   38MOL0     C 5134  11.605   5.439   0.806 -0.1195  0.5751 -0.6777
   38MOL0     C 5135  11.574   5.460   0.544 -0.1251  1.1425  0.5435
   38MOL0     C 5136  11.682   5.553   0.518 -0.4634  0.1503 -0.2063
   38MOL0     O 5137  11.683   5.611   0.392 -0.3126  0.6130  0.6174
   38MOL0     C 5138  11.780   5.700   0.358 -0.2818  0.0776  0.2111
   38MOL0     C 5139  11.836   5.687   0.228  0.5133  0.0543 -0.2680
   38MOL0     C 5140  11.949   5.759   0.191  0.0557  0.2803  0.0853
   38MOL0     C 5141  11.991   5.873   0.269  0.8999 -0.0884  0.6858
   38MOL0     O 5142  12.106   5.944   0.233 -0.8235  0.3221 -0.6913
   38MOL0     C 5143  12.179   6.004   0.342 -0.0145  0.3448 -0.4091
   38MOL0     C 5144  12.306   6.060   0.281 -0.0723  0.8609  0.9694
   38MOL0     C 5145  12.367   6.150   0.386  0.7818 -0.2235 -0.2521
   38MOL0     C 5146  12.481   6.229   0.325 -0.8497 -0.2130 -1.5209
   38MOL0     C 5147  12.566   6.306   0.429 -0.6040  0.4177  0.7705
   38MOL0     C 5148  12.693   6.369   0.359  0.1589 -0.1468 -0.0641
   38MOL0     C 5149  12.778   6.449   0.468 -0.3553 -1.3981 -0.3600
   38MOL0     C 5150  12.920   6.475   0.422 -0.7349  0.4321 -0.3811
   38MOL0    Cl 5151  12.987   6.306   0.421  0.1037  0.3636 -0.0811
   38MOL0     C 5152  11.921   5.894   0.385 -0.8842  0.2628 -0.1075
   38MOL0     C 5153  11.829   5.805   0.438 -0.0240  0.0416 -0.3516
   38MOL0     O 5154  11.770   5.568   0.606 -0.3016  0.2994 -0.0377
   38MOL0     C 5155  11.506   5.411   0.426  0.0774  0.3716  0.2938
   38MOL0     C 5156  11.399   5.329   0.438 -0.5794  1.2077  0.3740
   38MOL0     N 5157  10.891   4.824   0.723  0.1983  0.2490  1.2072
   38MOL0     N 5158  10.885   4.747   0.826  0.2570 -0.3460 -0.9803
   38MOL0     C 5159  10.964   3.443   1.121  0.2004 -0.4333  0.7402
   38MOL0     C 5160  11.053   3.341   1.103 -0.5221 -0.0516  0.8651
   38MOL0     C 5161  11.437   3.142   1.165  0.0186  0.7810 -0.5976
   38MOL0     C 5162  11.409   3.026   1.095  0.2489 -0.0390 -0.2764
   38MOL0     C 5163  11.491   2.920   1.087 -0.0450 -0.9766 -0.1741
   38MOL0     C 5164  11.612   2.923   1.158  0.7084 -0.0478 -0.0797
   38MOL0     O 5165  11.700   2.824   1.145 -1.0559  1.0462 -0.5520
   38MOL0     C 5166  11.810   2.868   1.066 -1.7950  0.0328  0.1877
   38MOL0     C 5167  11.893   2.756   1.004 -0.3250 -0.6974  0.5760
   38MOL0     C 5168  11.955   2.660   1.100 -0.0006 -0.3294  0.6120
   38MOL0     C 5169  12.010   2.527   1.036  0.5020 -1.1159 -0.5034
   38MOL0     C 5170  12.029   2.428   1.152 -0.4656 -0.8893 -0.7109
   38MOL0     C 5171  12.061   2.357   1.241  0.4812  0.6441  0.3360
   38MOL0     C 5172  11.645   3.035   1.234 -0.1253 -0.6208  0.2803
   38MOL0     C 5173  11.554   3.140   1.253  0.0110  0.3088  0.2542
   38MOL0     C 5174  11.607   3.245   1.350 -0.1631  0.1670  1.0148
   38MOL0     H 5175  11.279   3.510   0.913 -0.5330  0.3562 -0.2962
   38MOL0     H 5176  11.104   3.684   0.935  0.6579 -1.9120 -3.5495
   38MOL0     H 5177  10.959   3.831   1.006  1.9956 -0.4231 -0.0240
   38MOL0     H 5178  11.009   3.809   1.166  0.2808  0.3484 -1.2080
   38MOL0     H 5179  10.723   3.864   1.077 -1.3660 -0.1911  1.1083
   38MOL0     H 5180  10.778   3.898   1.248  0.9760 -0.7574 -0.3872
   38MOL0     H 5181  10.951   4.039   1.160  1.1193 -4.7651 -1.7554
   38MOL0     H 5182  10.880   4.037   1.004 -1.7121  0.0036  0.4580
   38MOL0     H 5183  10.659   4.111   1.128 -0.0599  1.4350  0.6291
   38MOL0     H 5184  10.779   4.194   1.232  0.4613  0.4097 -0.0764
   38MOL0     H 5185  10.700   4.329   1.033 -0.0585 -1.1826  3.0315
   38MOL0     H 5186  10.734   4.200   0.925 -1.0909 -1.0808  1.0249
   38MOL0     H 5187  10.953   4.355   1.102  0.0223 -3.3278 -0.1142
   38MOL0     H 5188  10.982   4.269   0.953 -1.3935 -0.5804 -1.7409
   38MOL0     H 5189  10.790   4.520   0.966 -0.9829 -1.0498 -0.9227
   38MOL0     H 5190  10.835   4.440   0.828  2.6634 -0.2352 -0.9950
   38MOL0     H 5191  11.032   4.592   1.010 -0.3461  1.4928 -0.8188
   38MOL0     H 5192  11.085   4.484   0.880  1.1172  1.0509 -4.1667
   38MOL0     H 5193  11.121   4.589   0.666  0.6239  0.3660 -0.0861
   38MOL0     H 5194  10.922   4.826   0.453 -1.2833  3.4391  1.8749
   38MOL0     H 5195  11.074   4.739   0.443  1.3430 -0.1310 -0.5836
   38MOL0     H 5196  11.201   4.913   0.544 -2.0930 -4.2923  1.7829
   38MOL0     H 5197  11.125   4.973   0.386 -1.7679 -0.6113 -0.2147
   38MOL0     H 5198  10.938   5.088   0.510 -1.1178 -3.1590  0.6660
   38MOL0     H 5199  11.030   5.066   0.659 -0.9288  0.1712 -0.7757
   38MOL0     H 5200  11.111   5.243   0.429  1.9862 -0.7390 -0.2255
   38MOL0     H 5201  11.071   5.282   0.601 -2.2501 -2.3766  1.7126
   38MOL0     H 5202  11.405   5.281   0.775  2.5383  1.0042  0.8898
   38MOL0     H 5203  11.577   5.363   0.880 -0.2355 -0.0205 -1.3246
   38MOL0     H 5204  11.584   5.542   0.836  0.6405  0.7323 -0.6718
   38MOL0     H 5205  11.714   5.433   0.795 -0.0508  0.0929  0.1823
   38MOL0     H 5206  11.808   5.601   0.168  0.4656 -0.7634  0.8903
   38MOL0     H 5207  11.992   5.743   0.093  1.1392  1.7112  0.2963
   38MOL0     H 5208  12.124   6.093   0.376  0.8339 -0.2027  2.7469
   38MOL0     H 5209  12.199   5.943   0.431 -1.1159  1.5266  0.7081
   38MOL0     H 5210  12.375   5.979   0.254  2.7354  3.1233  0.9341
   38MOL0     H 5211  12.271   6.117   0.194  0.2447 -1.8870 -1.1011
   38MOL0     H 5212  12.396   6.091   0.473  1.2022 -1.4219 -1.1667
   38MOL0     H 5213  12.290   6.225   0.406 -0.8632 -1.9058 -0.0334
   38MOL0     H 5214  12.441   6.297   0.249 -1.9398 -0.1080 -0.8619
   38MOL0     H 5215  12.544   6.157   0.272  0.4130 -0.4367  0.1812
   38MOL0     H 5216  12.516   6.391   0.478  0.3478  0.6522  1.3666
   38MOL0     H 5217  12.606   6.239   0.505 -0.6928  0.2805  0.6959
   38MOL0     H 5218  12.653   6.439   0.285  1.7947  1.9462  0.9157
   38MOL0     H 5219  12.749   6.280   0.326 -0.7749 -0.9013  0.3522
   38MOL0     H 5220  12.800   6.402   0.565  3.5845 -0.4895 -0.6344
   38MOL0     H 5221  12.726   6.542   0.490  1.5748 -0.1009 -1.0004
   38MOL0     H 5222  12.975   6.548   0.484  0.1041  1.0768 -1.8400
   38MOL0     H 5223  12.920   6.506   0.317 -2.4141 -2.0882 -1.1861
   38MOL0     H 5224  11.938   5.975   0.455 -0.9131 -0.3462  0.6191
   38MOL0     H 5225  11.806   5.813   0.543  2.0958  0.8980  0.0951
   38MOL0     H 5226  11.523   5.454   0.328 -0.0337  2.5405  1.1706
   38MOL0     H 5227  11.352   5.298   0.346  2.5190 -2.2113 -0.2740
   38MOL0     H 5228  10.869   3.434   1.173 -0.1529  0.7062  0.3343
   38MOL0     H 5229  11.026   3.242   1.139 -0.6491  0.0648  1.0889
   38MOL0     H 5230  11.321   3.009   1.033 -0.2936  0.6507  0.2818
   38MOL0     H 5231  11.460   2.845   1.015 -1.2442 -1.7245  1.0701
   38MOL0     H 5232  11.781   2.939   0.988 -1.6770 -0.6184 -0.4620
   38MOL0     H 5233  11.880   2.926   1.126 -1.6604  0.4657 -0.3769
   38MOL0     H 5234  11.981   2.803   0.959 -0.0323 -0.2891  1.5419
   38MOL0     H 5235  11.836   2.702   0.928  1.9916 -1.1992 -0.9340
   38MOL0     H 5236  12.027   2.711   1.164  1.3844  1.5881 -2.3023
   38MOL0     H 5237  11.868   2.628   1.160 -1.8014  2.9030 -0.0498
   38MOL0     H 5238  12.102   2.556   0.985  0.1945  0.6187 -0.1200
   38MOL0     H 5239  11.935   2.482   0.970  0.1926  0.3603 -1.1961
   38MOL0     H 5240  12.102   2.302   1.324  0.7069  0.0165 -0.1758
   38MOL0     H 5241  11.746   3.041   1.274 -0.4532 -0.8431  1.1677
   38MOL0     H 5242  11.608   3.326   1.276 -1.3958  1.7834  2.6891
   38MOL0     H 5243  11.544   3.255   1.439  1.4387  1.0294  2.1067
   38MOL0     H 5244  11.708   3.229   1.391  1.7553 -0.5275 -3.4019
   39MOL0     O 5245   7.581   0.476   8.544  0.0778  1.1155  0.0448
   39MOL0     C 5246   7.503   0.495   8.643 -0.4998 -0.3841  0.3242
   39MOL0     O 5247   7.526   0.436   8.765 -0.7412  0.2324 -0.1396
   39MOL0     C 5248   7.648   0.382   8.793 -0.1857 -0.3464 -0.3813
   39MOL0     C 5249   7.644   0.258   8.865 -0.1366  0.2158  0.1172
   39MOL0     C 5250   7.764   0.191   8.902  1.4193 -0.4095 -1.3179
   39MOL0     C 5251   7.883   0.253   8.875  0.6432 -0.4315 -0.1031
   39MOL0     O 5252   7.989   0.191   8.931  0.3174  0.2371  1.1778
   39MOL0     C 5253   8.111   0.190   8.855  0.5860  0.8961  0.6576
   39MOL0     C 5254   8.207   0.090   8.913  0.3113 -0.2348  0.4080
   39MOL0     C 5255   8.137  -0.049   8.895  0.0857 -0.0379  0.6199
   39MOL0     C 5256   8.053  -0.086   9.019 -0.0889 -0.7663 -0.1269
   39MOL0     C 5257   7.951  -0.196   8.977 -0.7036  0.2731 -0.0040
   39MOL0     C 5258   7.856  -0.247   9.088  0.2930  0.5299  0.3028
   39MOL0     C 5259   7.934  -0.332   9.202  0.3591 -0.2579  1.7658
   39MOL0     C 5260   7.980  -0.260   9.326 -0.0513  0.0774 -0.4738
   39MOL0     N 5261   8.100  -0.339   9.383  0.2221 -0.1240  0.6693
   39MOL0     C 5262   8.229  -0.352   9.342  0.1851  1.0084 -0.5262
   39MOL0     C 5263   8.281  -0.446   9.431 -0.5716  0.9197  0.0914
   39MOL0     C 5264   8.422  -0.500   9.428  0.8734  0.2498  0.3575
   39MOL0     C 5265   8.457  -0.567   9.558  0.0498  0.7067  0.6523
   39MOL0     C 5266   8.611  -0.586   9.566  0.8724  0.5649  0.5170
   39MOL0     C 5267   8.658  -0.607   9.710  0.9956  0.1327 -0.4360
   39MOL0     O 5268   8.785  -0.556   9.740  0.5376 -0.1600  0.3214
   39MOL0     C 5269   8.888  -0.596   9.661 -0.2532  0.1436 -0.1743
   39MOL0     C 5270   8.965  -0.512   9.588  0.4986  0.4442 -0.3418
   39MOL0     C 5271   9.080  -0.558   9.516  0.9040 -0.0074  0.0447
   39MOL0     C 5272   9.157  -0.452   9.447  0.2268 -0.0998 -0.0848
   39MOL0     C 5273   9.114  -0.691   9.516 -0.3011  0.9303 -0.4805
   39MOL0     C 5274   9.212  -0.753   9.427 -0.6847 -0.5712  0.0458
   39MOL0     O 5275   9.262  -0.872   9.473 -0.2858  0.2846 -0.5849
   39MOL0     C 5276   9.302  -0.970   9.378 -0.1934  0.2939  0.0817
   39MOL0     C 5277   9.411  -1.055   9.407 -0.9444  0.3049 -0.1825
   39MOL0     C 5278   9.449  -1.153   9.321 -0.7055 -0.1637 -0.9088
   39MOL0     C 5279   9.377  -1.170   9.198 -0.5542 -0.0161 -0.0628
   39MOL0     O 5280   9.404  -1.263   9.102  0.4252  0.2922  0.3554
   39MOL0     C 5281   9.508  -1.200   9.025  0.3984 -0.2030  1.1929
   39MOL0     C 5282   9.556  -1.312   8.929  0.1819  0.2896 -0.1976
   39MOL0     C 5283   9.675  -1.383   8.996 -0.3248 -0.3637 -0.5084
   39MOL0     C 5284   9.736  -1.490   8.906 -0.5973  1.1348 -0.9703
   39MOL0     C 5285   9.871  -1.530   8.968 -0.6002 -0.4426 -0.4916
   39MOL0     C 5286   9.925  -1.648   8.892 -0.1554  0.5285  0.0634
   39MOL0     C 5287  10.054  -1.697   8.945 -0.0095 -0.0810  0.5299
   39MOL0     C 5288  10.088  -1.820   8.856  0.1465 -1.0459 -0.6549
   39MOL0    Cl 5289  10.200  -1.930   8.943 -0.2610  0.3828  0.1137
   39MOL0     C 5290   9.270  -1.092   9.170 -0.9018  0.5123  0.8302
   39MOL0     C 5291   9.240  -0.989   9.257  0.5015  1.4094  0.2700
   39MOL0     O 5292   9.231  -0.705   9.320 -0.1542 -0.6463  0.6204
   39MOL0     C 5293   9.043  -0.777   9.604  0.8649 -0.6201 -0.6702
   39MOL0     C 5294   8.930  -0.733   9.673  0.0040 -0.3981  0.3479
   39MOL0     N 5295   8.187  -0.492   9.519  0.0974  0.7684  0.6457
   39MOL0     N 5296   8.079  -0.430   9.486  0.2972 -0.4193  0.3095
   39MOL0     C 5297   7.888   0.374   8.801  1.0912 -0.2694 -0.8647
   39MOL0     C 5298   7.771   0.442   8.752  0.2295 -0.1806 -0.7685
   39MOL0     C 5299   7.387   0.594   8.629 -0.0221 -0.2191  1.2854
   39MOL0     C 5300   7.341   0.608   8.493  0.0398  0.2377 -0.3441
   39MOL0     C 5301   7.239   0.703   8.462  0.7966  0.7776 -0.2826
   39MOL0     C 5302   7.174   0.771   8.563  0.0223  0.2017  0.6091
   39MOL0     O 5303   7.071   0.859   8.531  0.0645 -0.6072  0.0035
   39MOL0     C 5304   7.094   0.993   8.565 -1.2658  0.3266 -0.3370
   39MOL0     C 5305   7.022   1.090   8.468  0.7753 -0.9279  1.1197
   39MOL0     C 5306   7.089   1.110   8.328 -0.0477  1.0178 -0.4256
   39MOL0     C 5307   7.045   1.242   8.257 -0.0360 -0.2774 -0.2689
   39MOL0     C 5308   7.132   1.291   8.154  0.2384 -0.0330  1.3220
   39MOL0     C 5309   7.183   1.345   8.061 -0.6513 -0.7479 -0.6675
   39MOL0     C 5310   7.216   0.754   8.694  0.1873 -0.2697  0.0104
   39MOL0     C 5311   7.314   0.670   8.732 -0.2549  0.5395 -0.2310
   39MOL0     C 5312   7.342   0.659   8.882 -0.6990  0.5200  0.6080
   39MOL0     H 5313   7.549   0.217   8.899  0.5734  1.4950  4.1480
   39MOL0     H 5314   7.748   0.102   8.961 -1.0312 -1.3633 -3.2727
   39MOL0     H 5315   8.170   0.281   8.870  2.9813  0.3701 -3.9575
   39MOL0     H 5316   8.089   0.171   8.750  0.9521 -4.6339  1.2466
   39MOL0     H 5317   8.308   0.095   8.872  0.6906 -2.1473  1.0205
   39MOL0     H 5318   8.209   0.118   9.019 -0.5610  3.8219 -0.4487
   39MOL0     H 5319   8.061  -0.041   8.817 -1.8565 -1.6890  2.2096
   39MOL0     H 5320   8.211  -0.126   8.873  1.6168  1.0558  1.7446
   39MOL0     H 5321   8.115  -0.115   9.104 -1.4037 -2.6838  0.2389
   39MOL0     H 5322   7.996   0.000   9.054  0.9438  0.2025 -0.7598
   39MOL0     H 5323   8.016  -0.280   8.952  1.5450  1.9475 -0.0674
   39MOL0     H 5324   7.898  -0.169   8.886  0.2675 -1.4616 -1.1399
   39MOL0     H 5325   7.815  -0.153   9.127  3.3558  2.9176 -1.6539
   39MOL0     H 5326   7.776  -0.307   9.044  1.6662 -1.5847  0.5434
   39MOL0     H 5327   8.009  -0.396   9.153  0.0118  0.1409  0.6729
   39MOL0     H 5328   7.854  -0.402   9.227  0.5312 -0.1709  2.5820
   39MOL0     H 5329   8.026  -0.163   9.302  1.7197 -1.1120 -2.2826
   39MOL0     H 5330   7.902  -0.247   9.401  1.3071  0.1310  0.9866
   39MOL0     H 5331   8.273  -0.299   9.258  0.5478  0.0979 -0.9321
   39MOL0     H 5332   8.490  -0.417   9.409 -1.3525  1.9074 -0.8688
   39MOL0     H 5333   8.430  -0.571   9.345 -3.1485 -0.8398  0.6939
   39MOL0     H 5334   8.432  -0.503   9.643 -1.3357 -0.5641  1.2495
   39MOL0     H 5335   8.412  -0.664   9.581  1.4561  0.2612  1.6002
   39MOL0     H 5336   8.646  -0.666   9.500 -0.6675 -0.1401  0.5111
   39MOL0     H 5337   8.661  -0.499   9.522  1.4727  0.1362  0.3431
   39MOL0     H 5338   8.588  -0.562   9.781 -1.1839  0.5315 -2.6983
   39MOL0     H 5339   8.666  -0.715   9.730  1.2284  0.2142 -0.0921
   39MOL0     H 5340   8.944  -0.405   9.592 -3.0274  0.0063 -2.4084
   39MOL0     H 5341   9.122  -0.469   9.345 -4.9094 -1.7166  1.6473
   39MOL0     H 5342   9.264  -0.472   9.458  0.1260 -0.9995 -0.6299
   39MOL0     H 5343   9.138  -0.347   9.472  0.3181 -0.3576  1.0862
   39MOL0     H 5344   9.456  -1.031   9.502 -1.2326 -1.1034  0.3417
   39MOL0     H 5345   9.532  -1.216   9.350 -0.9651  0.2210  0.7509
   39MOL0     H 5346   9.459  -1.118   8.973  3.3331  0.2471 -1.0896
   39MOL0     H 5347   9.593  -1.157   9.080  1.1644 -1.8792  1.3836
   39MOL0     H 5348   9.482  -1.387   8.900 -0.4367  0.9712 -0.4154
   39MOL0     H 5349   9.581  -1.263   8.834  0.4211  0.6187  0.0344
   39MOL0     H 5350   9.652  -1.429   9.093  0.7132  0.2965  0.0624
   39MOL0     H 5351   9.760  -1.317   9.010 -1.6820  1.2514  0.4771
   39MOL0     H 5352   9.759  -1.458   8.803 -3.0753  0.4070 -1.8157
   39MOL0     H 5353   9.672  -1.578   8.908 -2.6468  2.5384 -1.9658
   39MOL0     H 5354   9.935  -1.441   8.963 -2.7574  1.1570 -0.5922
   39MOL0     H 5355   9.852  -1.563   9.070 -2.3220  1.6902 -0.0516
   39MOL0     H 5356   9.945  -1.636   8.785  2.4354 -2.7739 -0.0117
   39MOL0     H 5357   9.854  -1.732   8.892  0.0648  0.3327  0.9481
   39MOL0     H 5358  10.046  -1.711   9.053 -1.7829  3.0495  0.9395
   39MOL0     H 5359  10.131  -1.621   8.930  0.7876 -0.6910  1.4158
   39MOL0     H 5360  10.132  -1.782   8.764 -1.0869  3.7480  0.4731
   39MOL0     H 5361  10.003  -1.881   8.823 -1.8493  1.0635  0.3025
   39MOL0     H 5362   9.213  -1.122   9.083 -1.0898 -0.6834  1.3523
   39MOL0     H 5363   9.147  -0.936   9.238 -1.5627 -1.6167  1.1539
   39MOL0     H 5364   9.068  -0.883   9.609 -0.3534 -0.8984 -0.1517
   39MOL0     H 5365   8.883  -0.799   9.746 -0.0225 -1.3853 -0.5348
   39MOL0     H 5366   7.983   0.427   8.793 -0.0522  2.1314  0.3319
   39MOL0     H 5367   7.766   0.538   8.703 -1.3063 -0.6196 -1.5513
   39MOL0     H 5368   7.369   0.553   8.404 -1.7860 -0.6979 -0.3857
   39MOL0     H 5369   7.206   0.715   8.359  1.6184 -2.0640 -0.9720
   39MOL0     H 5370   7.055   1.015   8.665  1.0229  0.1737  0.6454
   39MOL0     H 5371   7.203   1.003   8.564 -0.9980 -1.9700  0.0535
   39MOL0     H 5372   7.017   1.187   8.518  2.4486  0.8299 -1.8536
   39MOL0     H 5373   6.921   1.052   8.451  0.6739 -1.0764  1.9915
   39MOL0     H 5374   7.195   1.112   8.355 -0.1539 -1.0530  0.2721
   39MOL0     H 5375   7.078   1.022   8.265  1.4087  0.2322  0.3584
   39MOL0     H 5376   7.046   1.314   8.340  1.6952 -2.7581  2.0060
   39MOL0     H 5377   6.953   1.247   8.197  0.0956 -2.9939 -0.8112
   39MOL0     H 5378   7.247   1.380   7.983 -1.7367 -0.5523 -1.4907
   39MOL0     H 5379   7.175   0.818   8.772 -0.2320 -1.3381  0.6824
   39MOL0     H 5380   7.423   0.727   8.909 -0.6203  0.0406  1.6016
   39MOL0     H 5381   7.259   0.686   8.949 -1.6642 -1.5103  0.3162
   39MOL0     H 5382   7.360   0.558   8.919 -3.4742  0.9660  3.6913
   40MOL0     O 5383   0.937   4.445   5.693  0.7875  0.2903 -0.4558
   40MOL0     C 5384   0.932   4.341   5.630  0.3198 -0.5421  0.3022
   40MOL0     O 5385   0.983   4.320   5.508 -0.1783  0.8318  0.3318
   40MOL0     C 5386   1.089   4.378   5.444 -0.3701  0.5138  1.1345
   40MOL0     C 5387   1.170   4.469   5.499 -0.2747 -0.8034 -0.2284
   40MOL0     C 5388   1.276   4.530   5.429  0.4034 -0.2971  0.2232
   40MOL0     C 5389   1.315   4.487   5.302 -0.2382 -0.5465 -0.1617
   40MOL0     O 5390   1.425   4.546   5.242 -0.2949  0.9996  0.6263
   40MOL0     C 5391   1.453   4.511   5.104 -0.2228 -0.1259  0.1831
   40MOL0     C 5392   1.542   4.388   5.096 -0.3328 -0.0798 -0.1411
   40MOL0     C 5393   1.575   4.350   4.948 -0.3086  0.4403  0.9287
   40MOL0     C 5394   1.654   4.216   4.929  1.0669 -0.3796 -1.0957
   40MOL0     C 5395   1.590   4.125   4.824 -1.3558  0.8591 -0.6532
   40MOL0     C 5396   1.688   4.018   4.788  0.2211 -0.5915 -1.0010
   40MOL0     C 5397   1.702   3.908   4.901 -0.4073 -0.4664  0.2159
   40MOL0     C 5398   1.756   3.772   4.851  0.1433 -0.7213  0.0622
   40MOL0     N 5399   1.899   3.780   4.820 -0.6388  0.3627 -0.4819
   40MOL0     C 5400   1.973   3.850   4.725 -0.6389 -0.6904  0.4338
   40MOL0     C 5401   2.107   3.817   4.751  0.1611 -0.1669  0.4202
   40MOL0     C 5402   2.236   3.850   4.681  0.0631  0.4256 -0.2562
   40MOL0     C 5403   2.333   3.923   4.780  0.0823 -0.1812  0.8048
   40MOL0     C 5404   2.475   3.873   4.759  0.6979 -0.4646  0.2068
   40MOL0     C 5405   2.569   3.934   4.862 -0.0965 -0.3414  0.1982
   40MOL0     O 5406   2.697   3.876   4.840 -0.4461  0.6619  0.6190
   40MOL0     C 5407   2.793   3.951   4.901  1.4234 -0.0097  0.4941
   40MOL0     C 5408   2.865   3.896   5.003 -0.7046 -0.1413  0.3855
   40MOL0     C 5409   2.959   3.968   5.075 -0.5836 -0.7005 -0.6356
   40MOL0     C 5410   3.004   3.895   5.191 -0.2389 -1.3614  0.0232
   40MOL0     C 5411   2.989   4.107   5.048  0.2139 -0.0673  0.4693
   40MOL0     C 5412   3.068   4.197   5.134 -0.3281  0.0148 -0.5417
   40MOL0     O 5413   3.068   4.162   5.263 -0.7639  0.5508 -0.6315
   40MOL0     C 5414   3.134   4.223   5.369 -0.2726 -0.2796  0.3413
   40MOL0     C 5415   3.087   4.200   5.497  0.5230  0.4151 -0.4207
   40MOL0     C 5416   3.145   4.262   5.609 -0.2858 -0.1353 -0.3932
   40MOL0     C 5417   3.256   4.345   5.595  0.1180  0.0997  0.0945
   40MOL0     O 5418   3.328   4.375   5.706 -0.4132 -0.2160  0.3499
   40MOL0     C 5419   3.350   4.518   5.723  0.4070 -0.7856  0.9944
   40MOL0     C 5420   3.315   4.559   5.872 -0.4716 -0.7623  0.0840
   40MOL0     C 5421   3.167   4.519   5.912 -0.4402 -0.6107  0.7375
   40MOL0     C 5422   3.138   4.573   6.048 -0.6438 -0.0101  0.1263
   40MOL0     C 5423   2.994   4.548   6.094 -0.4170  0.9762 -0.5321
   40MOL0     C 5424   2.910   4.657   6.032 -0.2754 -0.4117  0.3605
   40MOL0     C 5425   2.759   4.623   6.031 -0.7554 -0.7570  0.9200
   40MOL0     C 5426   2.676   4.739   6.085  0.1062  0.4062 -0.9284
   40MOL0    Cl 5427   2.529   4.660   6.159  0.1329 -0.1701 -0.0417
   40MOL0     C 5428   3.303   4.378   5.462 -0.8061  0.7994 -0.1591
   40MOL0     C 5429   3.235   4.324   5.347 -0.4245  0.8919  0.2589
   40MOL0     O 5430   3.114   4.299   5.086  0.5356 -0.0852 -0.2179
   40MOL0     C 5431   2.907   4.164   4.947  0.5356  0.2876  0.5112
   40MOL0     C 5432   2.811   4.088   4.873 -0.1937  0.9294 -0.2552
   40MOL0     N 5433   2.105   3.722   4.848  0.0194 -0.6997 -0.6124
   40MOL0     N 5434   1.984   3.698   4.889 -0.1695 -0.2206  0.3312
   40MOL0     C 5435   1.226   4.391   5.238 -0.2516 -0.6058 -0.0213
   40MOL0     C 5436   1.113   4.342   5.311  0.2055 -0.0197  0.2461
   40MOL0     C 5437   0.848   4.227   5.674  0.4569  0.8738  0.3334
   40MOL0     C 5438   0.803   4.130   5.575 -0.3642 -0.1242 -0.6314
   40MOL0     C 5439   0.735   4.017   5.608 -0.0020  0.2174 -0.7222
   40MOL0     C 5440   0.717   3.994   5.738  0.1313  0.5525 -0.0618
   40MOL0     O 5441   0.656   3.877   5.764 -0.5878  0.1994 -0.6808
   40MOL0     C 5442   0.671   3.811   5.887 -0.1436 -0.1273 -0.1659
   40MOL0     C 5443   0.807   3.769   5.920 -0.3539 -0.4448  0.3969
   40MOL0     C 5444   0.869   3.684   5.805 -0.5396 -0.5378 -1.1718
   40MOL0     C 5445   1.016   3.679   5.795  0.2503 -0.0413 -0.4033
   40MOL0     C 5446   1.092   3.629   5.916  0.7576  0.5656  0.6877
   40MOL0     C 5447   1.161   3.593   6.008  0.7542  0.5710 -0.2697
   40MOL0     C 5448   0.754   4.086   5.840  0.0709 -0.0002 -0.9053
   40MOL0     C 5449   0.812   4.209   5.807  1.0878  0.0225 -0.5984
   40MOL0     C 5450   0.848   4.306   5.926 -0.7031  0.0517  0.4475
   40MOL0     H 5451   1.169   4.501   5.603  0.3044  0.8014 -0.6775
   40MOL0     H 5452   1.335   4.599   5.489 -2.0401 -0.2331  2.8148
   40MOL0     H 5453   1.519   4.590   5.067 -0.5623  0.0941  0.0385
   40MOL0     H 5454   1.360   4.510   5.047 -0.4196 -1.7599  0.4918
   40MOL0     H 5455   1.632   4.414   5.152 -1.8198  0.9420  1.9198
   40MOL0     H 5456   1.487   4.305   5.143 -4.2288  1.4648 -1.5222
   40MOL0     H 5457   1.479   4.327   4.901 -0.3949 -0.1774  1.3925
   40MOL0     H 5458   1.640   4.417   4.890  0.4312 -0.9608  0.0943
   40MOL0     H 5459   1.757   4.230   4.898  1.0271 -1.7698 -1.9394
   40MOL0     H 5460   1.643   4.169   5.027 -2.4905  0.8835 -0.6995
   40MOL0     H 5461   1.570   4.183   4.734 -0.2602  1.2901 -0.6357
   40MOL0     H 5462   1.506   4.073   4.870  1.9521 -1.8859  3.0618
   40MOL0     H 5463   1.639   3.975   4.700 -0.4566 -0.6463 -0.6062
   40MOL0     H 5464   1.782   4.059   4.749 -0.1910 -0.5996 -2.0291
   40MOL0     H 5465   1.608   3.898   4.955 -0.1387 -1.4341  0.5151
   40MOL0     H 5466   1.776   3.935   4.978  1.7444  0.7907 -2.1276
   40MOL0     H 5467   1.741   3.683   4.913  0.6181 -1.8339 -1.3604
   40MOL0     H 5468   1.706   3.762   4.755  1.9332 -1.3962 -0.8483
   40MOL0     H 5469   1.945   3.909   4.637 -0.0646 -1.9161 -0.6084
   40MOL0     H 5470   2.210   3.903   4.588 -1.4347  1.2308  0.5734
   40MOL0     H 5471   2.280   3.755   4.649  2.3816  1.0175  1.0178
   40MOL0     H 5472   2.332   4.032   4.767  4.0423 -0.3023 -2.2259
   40MOL0     H 5473   2.307   3.899   4.883  0.4049  1.4945  1.3009
   40MOL0     H 5474   2.469   3.767   4.786 -1.3193  0.2252  2.9133
   40MOL0     H 5475   2.499   3.876   4.653  0.6005  0.7872  0.2060
   40MOL0     H 5476   2.578   4.041   4.839  0.5570 -0.5379 -0.5127
   40MOL0     H 5477   2.540   3.921   4.966 -1.7597 -2.4101 -0.4580
   40MOL0     H 5478   2.831   3.800   5.041 -1.0186  0.4129  1.5675
   40MOL0     H 5479   2.935   3.907   5.275  1.0240 -0.1007  0.9274
   40MOL0     H 5480   3.108   3.918   5.216  0.1312  1.0157 -3.0022
   40MOL0     H 5481   3.007   3.787   5.175 -0.7579 -1.3304 -0.3099
   40MOL0     H 5482   3.008   4.126   5.511  0.6847  0.7278  2.7320
   40MOL0     H 5483   3.104   4.236   5.706 -3.3820 -3.8901 -2.4218
   40MOL0     H 5484   3.451   4.545   5.690 -0.9584  1.1297 -2.1179
   40MOL0     H 5485   3.287   4.587   5.666  1.3669 -0.1587  0.6889
   40MOL0     H 5486   3.385   4.529   5.951  1.5178 -0.4905 -1.4883
   40MOL0     H 5487   3.315   4.669   5.869 -2.7174 -0.6936  0.6985
   40MOL0     H 5488   3.145   4.412   5.903 -3.0019 -0.1561  0.9965
   40MOL0     H 5489   3.094   4.559   5.841 -0.4155 -0.0711  1.0167
   40MOL0     H 5490   3.161   4.680   6.055 -0.3291 -0.0460 -0.3599
   40MOL0     H 5491   3.213   4.526   6.112  1.5721 -0.3663 -2.5775
   40MOL0     H 5492   2.946   4.452   6.073 -0.8673  0.9018  0.7400
   40MOL0     H 5493   2.989   4.561   6.203  2.3427  0.2173 -0.2392
   40MOL0     H 5494   2.937   4.675   5.928  1.3493  2.8051  1.1916
   40MOL0     H 5495   2.940   4.744   6.092 -3.2682 -0.4614  2.1925
   40MOL0     H 5496   2.744   4.527   6.081  2.6742 -1.1094  1.5190
   40MOL0     H 5497   2.725   4.615   5.927  0.5169  3.0173  0.0370
   40MOL0     H 5498   2.644   4.807   6.006  0.4645 -0.4271 -1.7979
   40MOL0     H 5499   2.732   4.802   6.155 -0.7986  1.8633 -1.4846
   40MOL0     H 5500   3.376   4.455   5.439 -1.5964  0.9854 -2.3469
   40MOL0     H 5501   3.264   4.344   5.244 -1.2050 -1.2061 -0.4388
   40MOL0     H 5502   2.908   4.272   4.938 -0.7988  0.2019 -1.1420
   40MOL0     H 5503   2.749   4.135   4.798  0.6611  1.9627 -0.3356
   40MOL0     H 5504   1.248   4.344   5.142  1.4359 -3.7343  1.7079
   40MOL0     H 5505   1.053   4.257   5.278  2.9787 -1.9191 -0.2683
   40MOL0     H 5506   0.821   4.152   5.471 -1.6170  4.5327 -0.0852
   40MOL0     H 5507   0.703   3.947   5.532 -2.5364  0.1657  0.2869
   40MOL0     H 5508   0.626   3.861   5.973  1.0881  1.8660 -0.6043
   40MOL0     H 5509   0.615   3.718   5.872  1.1637 -0.9570 -0.1126
   40MOL0     H 5510   0.793   3.708   6.010 -0.5278  1.2342  1.5570
   40MOL0     H 5511   0.868   3.860   5.933  0.4749 -0.9768  0.3389
   40MOL0     H 5512   0.837   3.580   5.818  0.7123 -0.6175  2.6127
   40MOL0     H 5513   0.827   3.707   5.707  0.9306  2.2318 -1.2408
   40MOL0     H 5514   1.049   3.775   5.755 -1.7073  0.1306 -1.7368
   40MOL0     H 5515   1.036   3.608   5.714 -1.1653 -2.5362  1.3291
   40MOL0     H 5516   1.231   3.580   6.088 -0.3486  2.8181  1.1771
   40MOL0     H 5517   0.742   4.071   5.947  3.2297  2.3957 -0.0603
   40MOL0     H 5518   0.804   4.406   5.927 -0.8937 -0.0238 -0.1743
   40MOL0     H 5519   0.817   4.256   6.019  3.7252 -2.1218  1.0117
   40MOL0     H 5520   0.957   4.317   5.932 -0.7326  1.5857 -1.0032
   41MOL0     O 5521   7.159   4.320  10.452  0.3946  0.1779 -0.2161
   41MOL0     C 5522   7.166   4.200  10.416 -0.2435  0.4953 -0.0565
   41MOL0     O 5523   7.063   4.128  10.368  0.1217 -0.0890 -0.8846
   41MOL0     C 5524   6.962   4.180  10.287  0.1272 -0.4748  0.0500
   41MOL0     C 5525   6.972   4.297  10.206  0.1866  0.0782  0.1877
   41MOL0     C 5526   6.865   4.351  10.133  0.2981  0.9347  0.1340
   41MOL0     C 5527   6.739   4.281  10.142 -0.1176  0.5024  0.5088
   41MOL0     O 5528   6.627   4.331  10.079  0.3348 -0.1929  0.0242
   41MOL0     C 5529   6.520   4.245  10.055  0.6980 -0.4636 -0.2185
   41MOL0     C 5530   6.450   4.319   9.937 -0.7315  0.4151 -0.3241
   41MOL0     C 5531   6.487   4.248   9.809 -0.0398  0.0229 -0.1566
   41MOL0     C 5532   6.430   4.334   9.698 -0.3754  0.7974 -0.5186
   41MOL0     C 5533   6.449   4.274   9.559  0.2013  0.1277  0.5163
   41MOL0     C 5534   6.590   4.263   9.511  0.6486  0.1867  0.4816
   41MOL0     C 5535   6.588   4.211   9.366  0.5216  0.3077  0.0006
   41MOL0     C 5536   6.620   4.057   9.368 -0.4930  0.8666  0.0358
   41MOL0     N 5537   6.601   3.995   9.241  0.4486 -0.1169  0.3960
   41MOL0     C 5538   6.596   4.049   9.118  0.9453 -0.0895 -0.0060
   41MOL0     C 5539   6.587   3.945   9.031  0.2535  0.7030 -0.3548
   41MOL0     C 5540   6.567   3.957   8.883 -0.2101 -0.0721 -0.9006
   41MOL0     C 5541   6.703   3.950   8.820 -0.3223  0.4413  0.9735
   41MOL0     C 5542   6.696   3.959   8.670 -0.5390  0.2027 -0.2553
   41MOL0     C 5543   6.826   3.915   8.605 -0.7291  0.3483 -0.3577
   41MOL0     O 5544   6.914   4.020   8.573 -0.1654  0.0286 -0.4684
   41MOL0     C 5545   7.042   4.036   8.632 -0.6822 -0.0677  0.1387
   41MOL0     C 5546   7.087   4.165   8.647  0.7636 -0.0295 -0.3472
   41MOL0     C 5547   7.209   4.200   8.705  0.1609  0.3036 -0.0038
   41MOL0     C 5548   7.247   4.344   8.736  0.6462  0.2242 -0.7599
   41MOL0     C 5549   7.300   4.091   8.740  0.1655  0.7168 -0.4159
   41MOL0     C 5550   7.444   4.101   8.771 -0.5675  1.3299  0.4732
   41MOL0     O 5551   7.504   3.976   8.772 -0.6500  0.0978 -0.3314
   41MOL0     C 5552   7.643   3.966   8.772 -0.1020  0.0512  0.3438
   41MOL0     C 5553   7.737   4.002   8.871  0.3117 -0.3300  0.1271
   41MOL0     C 5554   7.871   3.966   8.869  0.4164 -0.1272 -0.8399
   41MOL0     C 5555   7.921   3.889   8.766 -0.5754 -0.4107  0.0576
   41MOL0     O 5556   8.054   3.846   8.763  0.1968 -0.2048  0.6734
   41MOL0     C 5557   8.144   3.864   8.880  0.5381  0.2997  0.5402
   41MOL0     C 5558   8.278   3.808   8.858  0.7286  0.5085 -0.1939
   41MOL0     C 5559   8.375   3.838   8.974  0.4490  0.6162 -0.0454
   41MOL0     C 5560   8.510   3.780   8.959  0.0748  0.3867  0.4115
   41MOL0     C 5561   8.589   3.855   8.848 -0.8525  0.2361  0.0015
   41MOL0     C 5562   8.711   3.787   8.799  1.3273  0.2047  0.1074
   41MOL0     C 5563   8.787   3.869   8.694 -0.1011 -0.8701  0.5857
   41MOL0     C 5564   8.895   3.790   8.630  0.1294  0.1548 -0.0787
   41MOL0    Cl 5565   9.048   3.814   8.717  0.2139 -0.6521 -0.7024
   41MOL0     C 5566   7.832   3.859   8.658  0.2514 -0.5161  0.7533
   41MOL0     C 5567   7.698   3.899   8.656 -0.1978 -0.2440  0.3618
   41MOL0     O 5568   7.500   4.207   8.777 -0.7999 -0.1241  0.1645
   41MOL0     C 5569   7.253   3.955   8.735  0.2069 -0.1351 -0.2909
   41MOL0     C 5570   7.118   3.934   8.679 -0.6290 -0.8831  0.5159
   41MOL0     N 5571   6.588   3.825   9.099  0.1987 -0.4335  0.2469
   41MOL0     N 5572   6.597   3.864   9.225 -0.1745  0.1485 -0.6543
   41MOL0     C 5573   6.732   4.158  10.219  0.7128 -0.5890  0.6376
   41MOL0     C 5574   6.836   4.111  10.294 -1.0580  0.1012  0.3776
   41MOL0     C 5575   7.287   4.116  10.441  0.4003 -0.0276  0.6965
   41MOL0     C 5576   7.268   3.983  10.489 -0.4518 -0.4503 -0.3508
   41MOL0     C 5577   7.382   3.910  10.507 -0.2265 -0.1822  0.1239
   41MOL0     C 5578   7.519   3.951  10.493  0.4578 -1.4054 -0.1585
   41MOL0     O 5579   7.626   3.862  10.506 -0.4173 -0.4751  0.6367
   41MOL0     C 5580   7.658   3.801  10.386 -0.5331  0.0451  0.0054
   41MOL0     C 5581   7.777   3.698  10.396 -0.3318  0.3546 -0.4333
   41MOL0     C 5582   7.892   3.745  10.489  0.6256 -0.6169  0.0205
   41MOL0     C 5583   7.952   3.865  10.420  0.3520  0.1680  0.4381
   41MOL0     C 5584   8.059   3.917  10.499 -0.0585 -1.2806 -0.0879
   41MOL0     C 5585   8.135   3.983  10.559 -0.2217  0.1666 -0.0770
   41MOL0     C 5586   7.528   4.089  10.463 -0.4276  0.6586 -0.2998
   41MOL0     C 5587   7.419   4.171  10.435  0.4516  0.2689 -0.3358
   41MOL0     C 5588   7.456   4.300  10.366 -0.8327 -0.2338  0.2128
   41MOL0     H 5589   7.067   4.348  10.200  0.0079  0.4242  0.2840
   41MOL0     H 5590   6.864   4.437  10.066 -2.7098 -0.9051 -2.4886
   41MOL0     H 5591   6.465   4.260  10.149  1.9208  0.4896  0.3616
   41MOL0     H 5592   6.546   4.143  10.025 -0.2469 -0.1063 -2.4629
   41MOL0     H 5593   6.348   4.316   9.975 -0.7904  0.2060 -0.5038
   41MOL0     H 5594   6.498   4.417   9.924  2.2202 -1.2434 -3.3084
   41MOL0     H 5595   6.595   4.236   9.800  0.1893  1.9859 -0.4075
   41MOL0     H 5596   6.444   4.148   9.798  1.9982 -0.7643 -1.5408
   41MOL0     H 5597   6.321   4.336   9.708 -0.5489  0.8349 -2.0739
   41MOL0     H 5598   6.457   4.440   9.705  2.0517  0.1451  2.0239
   41MOL0     H 5599   6.389   4.322   9.481 -0.2749 -0.0429  0.7760
   41MOL0     H 5600   6.411   4.172   9.573  2.8614 -0.9783  0.2699
   41MOL0     H 5601   6.631   4.365   9.507 -1.8673  1.2452 -1.1631
   41MOL0     H 5602   6.655   4.216   9.585  3.2868  2.0305 -0.4939
   41MOL0     H 5603   6.670   4.265   9.317  1.7279 -2.0194 -0.6561
   41MOL0     H 5604   6.493   4.219   9.312 -0.2081  1.6250  1.3842
   41MOL0     H 5605   6.726   4.050   9.397 -0.3879  0.9282 -0.3245
   41MOL0     H 5606   6.563   4.011   9.449  0.6444  1.3253  1.1439
   41MOL0     H 5607   6.601   4.152   9.085  4.9813 -0.9429 -2.7913
   41MOL0     H 5608   6.527   4.059   8.885  0.0255  0.0494 -1.9564
   41MOL0     H 5609   6.497   3.890   8.833 -0.3937 -0.5467 -0.0409
   41MOL0     H 5610   6.785   4.008   8.863  1.9761 -1.1325 -0.9901
   41MOL0     H 5611   6.734   3.845   8.826  0.8254  0.1524 -4.5640
   41MOL0     H 5612   6.621   3.883   8.647 -1.4585  1.4781 -1.6691
   41MOL0     H 5613   6.666   4.059   8.636  0.4722  0.1807 -1.2404
   41MOL0     H 5614   6.868   3.835   8.666  0.0054  0.4018 -0.7830
   41MOL0     H 5615   6.808   3.858   8.513 -0.4200 -0.8729  0.3160
   41MOL0     H 5616   7.018   4.246   8.625 -0.3447 -0.5377  1.1285
   41MOL0     H 5617   7.301   4.396   8.657 -1.7150  0.3446 -2.3798
   41MOL0     H 5618   7.300   4.356   8.831  0.7154  2.0009 -0.9878
   41MOL0     H 5619   7.154   4.401   8.744  0.4919  0.1504 -1.8919
   41MOL0     H 5620   7.699   4.062   8.953  0.0877  1.8592 -1.5029
   41MOL0     H 5621   7.919   3.998   8.960 -0.2964 -1.5936  0.0849
   41MOL0     H 5622   8.172   3.969   8.894  0.3094  0.6309 -1.2924
   41MOL0     H 5623   8.109   3.818   8.973  1.9673  0.7272  1.3258
   41MOL0     H 5624   8.268   3.699   8.849 -1.8387  0.7032 -0.4484
   41MOL0     H 5625   8.325   3.845   8.767  2.9475 -0.4061  0.5088
   41MOL0     H 5626   8.338   3.800   9.070  0.8427 -1.3870 -0.6423
   41MOL0     H 5627   8.390   3.945   8.989  2.3109  0.6183 -1.5430
   41MOL0     H 5628   8.515   3.672   8.940 -1.3275  0.0080  1.9762
   41MOL0     H 5629   8.555   3.786   9.058 -1.4870  2.2172  1.0571
   41MOL0     H 5630   8.529   3.868   8.757 -0.5845 -0.4795 -0.2847
   41MOL0     H 5631   8.620   3.955   8.879 -0.3434 -0.5341  2.1135
   41MOL0     H 5632   8.671   3.704   8.740  3.1403  1.0426 -2.4120
   41MOL0     H 5633   8.773   3.755   8.883  0.3786  0.6138  0.9918
   41MOL0     H 5634   8.826   3.958   8.745 -2.1168 -0.7035  1.9306
   41MOL0     H 5635   8.725   3.904   8.611 -0.7601 -0.9658  1.0285
   41MOL0     H 5636   8.908   3.826   8.527 -2.8854  0.0820 -0.5711
   41MOL0     H 5637   8.872   3.683   8.634 -0.8107  0.3730  0.7562
   41MOL0     H 5638   7.858   3.787   8.581 -3.3142 -0.4249 -0.6833
   41MOL0     H 5639   7.645   3.865   8.568 -1.2982  1.9138  0.1156
   41MOL0     H 5640   7.298   3.860   8.763 -0.4003 -0.7469 -1.3342
   41MOL0     H 5641   7.086   3.834   8.651 -0.3851 -0.6207 -0.7871
   41MOL0     H 5642   6.643   4.102  10.244 -1.1308  2.2385  0.8278
   41MOL0     H 5643   6.818   4.035  10.369 -1.1323  2.6264  3.1346
   41MOL0     H 5644   7.170   3.939  10.504 -0.4990  0.2318  1.6277
   41MOL0     H 5645   7.383   3.803  10.525 -0.5147 -0.2129 -0.0309
   41MOL0     H 5646   7.575   3.744  10.345  0.5756 -1.8661  0.3276
   41MOL0     H 5647   7.679   3.866  10.300 -2.3610 -1.0665 -1.3411
   41MOL0     H 5648   7.819   3.680  10.297  1.0178 -0.5514  0.2830
   41MOL0     H 5649   7.735   3.599  10.419 -1.6286  0.7738 -0.9004
   41MOL0     H 5650   7.851   3.765  10.589  0.0051  0.1099 -0.3669
   41MOL0     H 5651   7.966   3.664  10.492 -0.8770 -2.0329  1.4113
   41MOL0     H 5652   7.869   3.936  10.415 -1.2920 -1.5113  2.3606
   41MOL0     H 5653   7.985   3.827  10.323 -3.1545 -1.8578 -0.1389
   41MOL0     H 5654   8.206   4.043  10.612  1.2607 -1.0161 -0.6310
   41MOL0     H 5655   7.632   4.114  10.449 -0.9166  2.3835 -1.0440
   41MOL0     H 5656   7.401   4.322  10.274  1.4651  0.7783 -0.9937
   41MOL0     H 5657   7.440   4.386  10.431 -1.5466 -0.2880  0.1149
   41MOL0     H 5658   7.562   4.299  10.339 -1.0326  0.2764 -0.6191
   42MOL0     O 5659   5.259   5.347   1.071  0.0533  0.2186 -0.5610
   42MOL0     C 5660   5.169   5.428   1.092 -0.8993  0.4501  0.5057
   42MOL0     O 5661   5.037   5.383   1.114  0.6898  0.3344  0.0098
   42MOL0     C 5662   5.020   5.259   1.174  0.2087  0.9096 -0.5296
   42MOL0     C 5663   4.918   5.181   1.119 -1.2191 -0.2052 -0.3116
   42MOL0     C 5664   4.873   5.071   1.190  0.5798 -0.3158  0.4207
   42MOL0     C 5665   4.926   5.036   1.308  0.1605 -0.6641 -0.8188
   42MOL0     O 5666   4.892   4.928   1.382  0.1240 -0.4016  0.0107
   42MOL0     C 5667   4.869   4.813   1.300  0.0481  0.4301  1.0466
   42MOL0     C 5668   4.866   4.685   1.385  0.5451 -0.0127 -1.0428
   42MOL0     C 5669   4.992   4.640   1.465  1.0418  0.3338  0.2253
   42MOL0     C 5670   5.065   4.743   1.534  0.2588  0.0947  0.2002
   42MOL0     C 5671   5.167   4.689   1.630  0.0197  0.1862 -0.0632
   42MOL0     C 5672   5.129   4.668   1.776 -0.3553 -0.3322  0.1604
   42MOL0     C 5673   5.130   4.790   1.868  0.2236  0.7271  0.4841
   42MOL0     C 5674   5.018   4.891   1.842  0.7120  0.1886 -0.8690
   42MOL0     N 5675   5.018   5.008   1.930 -0.1739  0.7106  0.1986
   42MOL0     C 5676   5.037   5.025   2.070 -0.1326 -0.0922 -0.6004
   42MOL0     C 5677   5.073   5.155   2.100 -0.9218  0.6971  0.6033
   42MOL0     C 5678   5.093   5.198   2.241  0.2618 -0.1696  0.5502
   42MOL0     C 5679   5.192   5.103   2.314  0.4178  0.2834  0.4009
   42MOL0     C 5680   5.215   5.167   2.445  0.3971  0.5509  0.2007
   42MOL0     C 5681   5.291   5.061   2.525  0.1375 -0.4933 -0.1176
   42MOL0     O 5682   5.317   5.128   2.648  0.0100  0.3022  0.3674
   42MOL0     C 5683   5.431   5.196   2.677  0.0423 -0.1000 -0.4368
   42MOL0     C 5684   5.534   5.219   2.588 -0.0164 -0.6978 -0.1509
   42MOL0     C 5685   5.649   5.296   2.619  0.5250  0.3693  0.7395
   42MOL0     C 5686   5.753   5.319   2.511  0.6438 -0.8518  0.2950
   42MOL0     C 5687   5.665   5.338   2.754 -0.4981  0.3563  0.4063
   42MOL0     C 5688   5.777   5.416   2.807  1.2088 -1.2807  0.5882
   42MOL0     O 5689   5.772   5.432   2.935  0.2217 -0.6715 -0.3573
   42MOL0     C 5690   5.894   5.429   3.001  0.1238  0.6701  0.1254
   42MOL0     C 5691   5.921   5.545   3.065 -1.3549 -0.3013 -0.8002
   42MOL0     C 5692   6.052   5.565   3.108 -1.5287 -0.4121  1.2830
   42MOL0     C 5693   6.154   5.471   3.097  0.9678  1.1736  1.2750
   42MOL0     O 5694   6.277   5.501   3.146  0.1727  0.6842  0.4406
   42MOL0     C 5695   6.378   5.492   3.049 -0.3183 -0.3193  0.3032
   42MOL0     C 5696   6.443   5.632   3.049  0.2641 -0.2455  0.0494
   42MOL0     C 5697   6.560   5.644   2.950 -0.3199 -0.1107  1.0232
   42MOL0     C 5698   6.574   5.795   2.939 -0.1876  0.0996  0.2504
   42MOL0     C 5699   6.703   5.852   2.872 -0.4503 -0.7158 -0.1446
   42MOL0     C 5700   6.686   5.849   2.723 -0.7250 -1.0110 -0.2844
   42MOL0     C 5701   6.785   5.751   2.646 -0.2663 -0.4094 -0.1578
   42MOL0     C 5702   6.770   5.766   2.495 -0.0314 -0.2408  0.4316
   42MOL0    Cl 5703   6.613   5.733   2.433  0.1114 -0.0842 -0.2331
   42MOL0     C 5704   6.120   5.339   3.047  0.2115 -0.6773 -0.1418
   42MOL0     C 5705   5.987   5.323   2.998 -0.2712 -0.4809  1.0842
   42MOL0     O 5706   5.852   5.470   2.728 -0.6948 -0.0955  1.0697
   42MOL0     C 5707   5.558   5.306   2.842 -0.9535  0.6754 -0.5295
   42MOL0     C 5708   5.442   5.241   2.805  0.8158  0.1966 -0.2370
   42MOL0     N 5709   5.071   5.218   1.968 -0.3859  0.3930  0.0207
   42MOL0     N 5710   5.043   5.130   1.869 -0.5293 -0.2759 -0.5483
   42MOL0     C 5711   5.022   5.118   1.360 -0.0216 -0.0523 -0.2828
   42MOL0     C 5712   5.069   5.227   1.296  0.0927 -1.2104 -0.1682
   42MOL0     C 5713   5.184   5.568   1.072 -0.0307 -0.6341  0.8243
   42MOL0     C 5714   5.067   5.655   1.066  0.9378  0.3892 -0.2375
   42MOL0     C 5715   5.078   5.794   1.047  0.0313 -0.1390 -0.4029
   42MOL0     C 5716   5.200   5.846   1.028  0.0484 -0.7327 -0.7646
   42MOL0     O 5717   5.196   5.976   1.005  0.0690 -0.2251 -0.3157
   42MOL0     C 5718   5.319   6.050   0.971 -0.4299  0.2406  1.0691
   42MOL0     C 5719   5.281   6.182   0.905 -0.5689 -0.1216 -0.6336
   42MOL0     C 5720   5.216   6.260   1.015  0.4774  0.2160  0.0953
   42MOL0     C 5721   5.212   6.408   0.981  0.3731  0.1925  0.4162
   42MOL0     C 5722   5.108   6.483   1.058  0.8398 -0.1675  0.9786
   42MOL0     C 5723   5.042   6.552   1.134 -0.1539  0.1498  0.1628
   42MOL0     C 5724   5.318   5.767   1.028  0.4069 -0.1282 -0.2120
   42MOL0     C 5725   5.310   5.627   1.051 -0.8190  0.3343 -0.2755
   42MOL0     C 5726   5.444   5.556   1.044 -0.6564  0.2866 -0.8982
   42MOL0     H 5727   4.891   5.203   1.017  0.3512  0.8516 -0.5346
   42MOL0     H 5728   4.789   5.016   1.148 -0.2207  0.1221  1.4027
   42MOL0     H 5729   4.935   4.801   1.214  3.9053  0.8514  3.7137
   42MOL0     H 5730   4.770   4.821   1.254  0.5983  2.7397  0.1355
   42MOL0     H 5731   4.790   4.711   1.460 -0.5656 -1.9305 -1.4435
   42MOL0     H 5732   4.825   4.595   1.337  2.3924 -2.3143  1.4126
   42MOL0     H 5733   4.958   4.572   1.544  0.4364 -0.1761 -0.4537
   42MOL0     H 5734   5.053   4.586   1.392  0.4085 -0.0633 -0.0175
   42MOL0     H 5735   5.113   4.791   1.448  0.6263  0.1383  0.4290
   42MOL0     H 5736   4.996   4.816   1.577  2.0650  2.1227 -0.1631
   42MOL0     H 5737   5.257   4.751   1.627  2.9842 -3.6691  0.8212
   42MOL0     H 5738   5.185   4.592   1.585 -1.3260  1.8047 -4.6447
   42MOL0     H 5739   5.037   4.609   1.773  0.7328 -2.1580  0.7208
   42MOL0     H 5740   5.200   4.593   1.813  2.4262  2.4892  0.9685
   42MOL0     H 5741   5.230   4.831   1.852 -0.0882  0.6397 -2.0225
   42MOL0     H 5742   5.124   4.747   1.969 -2.7201 -0.4052 -0.0772
   42MOL0     H 5743   5.026   4.924   1.738  0.1581 -0.2038 -1.0389
   42MOL0     H 5744   4.928   4.831   1.862  1.4793 -0.4908  0.7288
   42MOL0     H 5745   5.016   4.947   2.143 -2.4314 -0.3895 -1.4955
   42MOL0     H 5746   4.995   5.202   2.291 -0.0209 -0.7680  0.0503
   42MOL0     H 5747   5.134   5.299   2.238  1.8832 -0.8142 -0.6123
   42MOL0     H 5748   5.163   5.000   2.337 -0.7772  0.9168  1.8598
   42MOL0     H 5749   5.283   5.091   2.255  0.5524 -0.1473  0.6933
   42MOL0     H 5750   5.265   5.264   2.436 -1.2201  1.2471 -1.9748
   42MOL0     H 5751   5.119   5.195   2.489  1.1464  0.0254  2.3146
   42MOL0     H 5752   5.225   4.978   2.549  2.1835 -2.0722  0.3502
   42MOL0     H 5753   5.379   5.015   2.480  1.4607 -1.7841  3.3941
   42MOL0     H 5754   5.525   5.198   2.482  0.5749  0.8613 -0.5293
   42MOL0     H 5755   5.738   5.422   2.477 -1.1146 -2.1215 -3.3089
   42MOL0     H 5756   5.743   5.256   2.422 -3.0195  2.5910 -2.0966
   42MOL0     H 5757   5.852   5.329   2.557 -0.0696  3.6198  1.3963
   42MOL0     H 5758   5.843   5.619   3.077  0.0804  0.9370  1.8829
   42MOL0     H 5759   6.067   5.662   3.153  0.0167 -0.6660  1.3561
   42MOL0     H 5760   6.455   5.421   3.082  0.3484  0.4307  0.3990
   42MOL0     H 5761   6.341   5.455   2.953  2.4345 -2.5205 -0.0721
   42MOL0     H 5762   6.373   5.712   3.022 -0.3918 -1.3991 -1.8491
   42MOL0     H 5763   6.480   5.647   3.151  0.0355  0.1051  0.0843
   42MOL0     H 5764   6.537   5.596   2.854 -1.4322 -0.2302  1.3292
   42MOL0     H 5765   6.656   5.603   2.983 -0.4000  1.8132  4.0039
   42MOL0     H 5766   6.580   5.837   3.040  1.4367  1.1139 -0.2179
   42MOL0     H 5767   6.488   5.839   2.888  0.5070 -0.6382 -1.6432
   42MOL0     H 5768   6.718   5.954   2.908  0.2525 -1.3919  1.6035
   42MOL0     H 5769   6.792   5.792   2.893  1.2253  1.2141 -1.4701
   42MOL0     H 5770   6.711   5.951   2.693  1.2109 -2.1412 -2.9205
   42MOL0     H 5771   6.585   5.820   2.694 -1.0440  1.0395 -1.4481
   42MOL0     H 5772   6.757   5.648   2.670 -1.1635 -0.6907 -2.2287
   42MOL0     H 5773   6.891   5.775   2.660 -0.0793  1.2309 -3.4721
   42MOL0     H 5774   6.843   5.709   2.437 -0.4423  0.0894 -0.4330
   42MOL0     H 5775   6.799   5.869   2.472 -1.0490  0.0576  0.4469
   42MOL0     H 5776   6.199   5.266   3.027  0.3858 -0.5923  0.2206
   42MOL0     H 5777   5.955   5.227   2.958  1.1055 -1.2245  1.7179
   42MOL0     H 5778   5.549   5.343   2.944 -1.1980  1.9126 -0.9849
   42MOL0     H 5779   5.350   5.243   2.863 -0.7253 -3.3084 -2.2130
   42MOL0     H 5780   5.069   5.086   1.452  1.2447  1.9309 -0.1844
   42MOL0     H 5781   5.150   5.292   1.326 -1.3304  0.7347 -0.3333
   42MOL0     H 5782   4.968   5.619   1.091  0.5315  2.8160  2.2030
   42MOL0     H 5783   4.997   5.867   1.046  1.4492  1.5460  1.4373
   42MOL0     H 5784   5.390   6.065   1.053 -2.0311  2.8487  2.0856
   42MOL0     H 5785   5.377   5.999   0.893 -2.1791  0.2003 -0.2621
   42MOL0     H 5786   5.215   6.151   0.824 -1.1773 -3.8424  1.0688
   42MOL0     H 5787   5.369   6.235   0.867 -0.7220  0.1115 -0.6621
   42MOL0     H 5788   5.114   6.222   1.028  0.8993 -1.1547 -0.4149
   42MOL0     H 5789   5.263   6.249   1.113 -1.8024 -2.4071  1.0394
   42MOL0     H 5790   5.193   6.412   0.874  1.0588  0.8026  0.3119
   42MOL0     H 5791   5.314   6.442   0.998  1.7742 -3.3156 -0.2331
   42MOL0     H 5792   4.983   6.618   1.194  1.3498  3.4111 -1.7049
   42MOL0     H 5793   5.416   5.811   1.008 -0.4201  1.1835 -1.5412
   42MOL0     H 5794   5.530   5.618   1.070 -0.5723 -0.9992  2.4763
   42MOL0     H 5795   5.452   5.489   1.131  2.7939  2.3435  0.6298
   42MOL0     H 5796   5.451   5.487   0.959  1.4080 -0.0006 -0.5605
   43MOL0     O 5797  11.029   3.952   5.756  0.1746 -0.1430 -0.0143
   43MOL0     C 5798  11.102   3.870   5.809  0.4240  0.4069 -0.2451
   43MOL0     O 5799  11.170   3.888   5.932  0.4479 -0.5453  0.9352
   43MOL0     C 5800  11.215   4.009   5.969 -0.5944 -0.2068 -0.2489
   43MOL0     C 5801  11.203   4.049   6.102 -0.0898  0.4082 -0.0593
   43MOL0     C 5802  11.254   4.171   6.153  0.2108  1.0310 -0.2638
   43MOL0     C 5803  11.336   4.243   6.070  0.0488 -0.1218  0.0383
   43MOL0     O 5804  11.389   4.370   6.108  0.3943 -0.9900  0.6899
   43MOL0     C 5805  11.332   4.433   6.226  0.6945 -0.0013 -0.1279
   43MOL0     C 5806  11.363   4.576   6.209  0.0061 -0.0044 -0.1879
   43MOL0     C 5807  11.367   4.658   6.334  0.4496 -0.3065  0.3580
   43MOL0     C 5808  11.406   4.804   6.299  0.0287 -0.1953  0.1419
   43MOL0     C 5809  11.405   4.888   6.425 -0.8584 -0.3150  0.9589
   43MOL0     C 5810  11.459   5.023   6.406 -0.0645 -0.7278 -0.0885
   43MOL0     C 5811  11.509   5.081   6.539 -0.2646 -0.8093 -0.6882
   43MOL0     C 5812  11.556   5.229   6.523  0.4975 -0.1422  0.1057
   43MOL0     N 5813  11.671   5.248   6.610  0.0056 -0.2507 -0.2232
   43MOL0     C 5814  11.792   5.215   6.572 -0.3038 -1.2106  0.7175
   43MOL0     C 5815  11.880   5.255   6.662  0.4440  0.1991 -0.3900
   43MOL0     C 5816  12.031   5.248   6.645  0.0911  0.6300  0.1128
   43MOL0     C 5817  12.110   5.254   6.781  0.0159 -0.1170 -0.7200
   43MOL0     C 5818  12.246   5.319   6.753  0.1406  0.1498 -0.1857
   43MOL0     C 5819  12.353   5.223   6.691 -0.4229 -0.0509  0.6719
   43MOL0     O 5820  12.391   5.125   6.780  0.1457  0.2632  0.2738
   43MOL0     C 5821  12.504   5.043   6.760 -0.4168 -1.1341 -1.1131
   43MOL0     C 5822  12.501   4.912   6.786  0.1145 -0.4932  0.1211
   43MOL0     C 5823  12.616   4.836   6.803  0.0357  0.3691  0.7393
   43MOL0     C 5824  12.599   4.690   6.839  0.6503  0.6852  0.0932
   43MOL0     C 5825  12.744   4.895   6.770 -0.4470 -0.3278  0.0460
   43MOL0     C 5826  12.876   4.823   6.774  0.1423 -0.7174 -0.2990
   43MOL0     O 5827  12.870   4.688   6.747  0.3464  0.4388 -0.3149
   43MOL0     C 5828  12.997   4.620   6.756 -0.3953 -0.7399 -0.0009
   43MOL0     C 5829  13.053   4.598   6.874  0.7041 -0.4960  0.4131
   43MOL0     C 5830  13.175   4.541   6.878 -0.5527  0.2790 -0.1695
   43MOL0     C 5831  13.250   4.507   6.752  0.2348  1.1342 -0.7056
   43MOL0     O 5832  13.364   4.429   6.762 -0.4725 -0.6104  0.2086
   43MOL0     C 5833  13.389   4.333   6.656  0.2127 -0.5483  1.0370
   43MOL0     C 5834  13.526   4.369   6.598  0.7675  0.3724 -0.0077
   43MOL0     C 5835  13.588   4.277   6.485 -0.9756  0.5086 -0.0323
   43MOL0     C 5836  13.742   4.294   6.455 -0.7263 -0.7279 -0.5913
   43MOL0     C 5837  13.780   4.192   6.343  0.1279 -0.6262 -0.1750
   43MOL0     C 5838  13.924   4.148   6.327 -0.7972 -0.9471 -0.5308
   43MOL0     C 5839  14.015   4.273   6.300  0.9298  0.5318  1.0119
   43MOL0     C 5840  14.159   4.231   6.315  0.1088  0.1854  0.3342
   43MOL0    Cl 5841  14.205   4.228   6.490 -0.1759  0.0979  0.5200
   43MOL0     C 5842  13.186   4.545   6.634 -1.3367 -0.8309  0.2451
   43MOL0     C 5843  13.069   4.602   6.631  0.7505 -0.0738 -0.5722
   43MOL0     O 5844  12.981   4.888   6.804  0.0627  0.2662  0.4171
   43MOL0     C 5845  12.744   5.030   6.743  0.2640  0.0731 -0.2491
   43MOL0     C 5846  12.621   5.104   6.730 -0.8038 -0.4334  0.7399
   43MOL0     N 5847  11.807   5.319   6.768  0.3956  0.4754  0.8293
   43MOL0     N 5848  11.680   5.312   6.730 -0.6833  0.4149 -1.1277
   43MOL0     C 5849  11.360   4.201   5.937 -0.1660 -0.2462 -0.3391
   43MOL0     C 5850  11.302   4.087   5.886 -0.3051  0.2474  0.7400
   43MOL0     C 5851  11.090   3.732   5.758 -0.6698  0.6026 -0.0671
   43MOL0     C 5852  10.984   3.700   5.677  0.4203 -0.1645 -0.3546
   43MOL0     C 5853  10.963   3.563   5.646  0.1230  0.3850  1.1315
   43MOL0     C 5854  11.054   3.462   5.692  0.3615  0.2623 -0.3448
   43MOL0     O 5855  11.041   3.334   5.638  0.5418 -0.1612  1.2417
   43MOL0     C 5856  11.071   3.221   5.719  0.3472 -0.3131  0.7743
   43MOL0     C 5857  11.015   3.090   5.653  0.4803  0.6827 -0.1274
   43MOL0     C 5858  10.856   3.105   5.647  1.2447 -0.5134 -0.1935
   43MOL0     C 5859  10.805   3.092   5.791 -0.8326 -0.8470  0.2799
   43MOL0     C 5860  10.662   3.113   5.821 -0.1024 -0.2212 -0.0195
   43MOL0     C 5861  10.541   3.127   5.840  0.0409  0.4807 -0.4542
   43MOL0     C 5862  11.175   3.501   5.759  0.2592  0.2989 -0.3608
   43MOL0     C 5863  11.185   3.636   5.794  0.2348 -0.1087 -1.1707
   43MOL0     C 5864  11.319   3.676   5.859 -0.5923  0.2186 -0.1264
   43MOL0     H 5865  11.133   4.001   6.169  1.6963 -1.5963  0.4930
   43MOL0     H 5866  11.222   4.200   6.253 -0.5371 -0.7013  0.0471
   43MOL0     H 5867  11.387   4.398   6.314 -0.8581  1.5340  1.5362
   43MOL0     H 5868  11.226   4.417   6.244  0.3083  3.0873  1.0475
   43MOL0     H 5869  11.466   4.581   6.171 -0.7764  2.6031 -2.2546
   43MOL0     H 5870  11.299   4.612   6.129  1.0027 -1.3761 -1.6687
   43MOL0     H 5871  11.264   4.659   6.371  0.1210 -0.7717 -0.5164
   43MOL0     H 5872  11.446   4.614   6.396 -1.3170 -2.4832  1.2108
   43MOL0     H 5873  11.508   4.806   6.261 -0.6837  1.9545 -1.9461
   43MOL0     H 5874  11.346   4.843   6.216  2.6311 -0.2329 -1.8725
   43MOL0     H 5875  11.471   4.842   6.499  2.8005  0.6708 -1.4395
   43MOL0     H 5876  11.302   4.894   6.461 -1.1866 -1.0795  0.1946
   43MOL0     H 5877  11.541   5.024   6.334 -1.0494 -0.4866 -1.2436
   43MOL0     H 5878  11.386   5.097   6.372  0.5595  0.1588  0.4500
   43MOL0     H 5879  11.597   5.033   6.583 -0.2078  1.3753  1.8172
   43MOL0     H 5880  11.421   5.077   6.605  0.0335  0.6785 -0.1536
   43MOL0     H 5881  11.576   5.258   6.419 -1.9468 -0.2916 -0.4702
   43MOL0     H 5882  11.475   5.295   6.556  2.4999  2.7178 -0.3787
   43MOL0     H 5883  11.816   5.174   6.474 -2.3028 -4.4555  1.4423
   43MOL0     H 5884  12.059   5.325   6.573  3.8152 -2.9003 -2.7331
   43MOL0     H 5885  12.056   5.154   6.594 -1.4328  2.3012 -4.0976
   43MOL0     H 5886  12.070   5.319   6.859  0.0064 -0.6144 -0.3041
   43MOL0     H 5887  12.116   5.154   6.827 -1.4295  0.8188  1.7054
   43MOL0     H 5888  12.242   5.407   6.689  3.4891 -0.2831 -1.2011
   43MOL0     H 5889  12.285   5.352   6.850  1.9020  0.8533 -1.0778
   43MOL0     H 5890  12.325   5.180   6.594 -1.2144  1.6013  0.1248
   43MOL0     H 5891  12.439   5.286   6.667 -0.9290 -0.2878 -2.1530
   43MOL0     H 5892  12.409   4.861   6.811 -0.0619 -1.1421 -1.7539
   43MOL0     H 5893  12.583   4.628   6.750 -1.2692  1.2087  0.0205
   43MOL0     H 5894  12.505   4.680   6.896  1.0818 -4.1330  0.4339
   43MOL0     H 5895  12.675   4.646   6.905  0.5698  2.4428  1.4217
   43MOL0     H 5896  13.006   4.630   6.967 -1.8090 -1.0611 -0.5895
   43MOL0     H 5897  13.215   4.517   6.976 -0.6952 -0.8990 -0.3888
   43MOL0     H 5898  13.409   4.235   6.700  0.4673 -1.0810 -0.2301
   43MOL0     H 5899  13.312   4.324   6.579  1.1589 -1.9668  0.2083
   43MOL0     H 5900  13.517   4.476   6.575 -0.4017  0.6370  1.4659
   43MOL0     H 5901  13.599   4.363   6.679 -1.7023 -1.2254  2.3064
   43MOL0     H 5902  13.541   4.295   6.388  0.6121 -1.3361 -1.2135
   43MOL0     H 5903  13.567   4.170   6.495 -0.4334  0.3372 -0.7054
   43MOL0     H 5904  13.785   4.255   6.548 -1.0190  0.4120  0.0274
   43MOL0     H 5905  13.780   4.396   6.442 -0.9620 -0.4603  0.7122
   43MOL0     H 5906  13.715   4.104   6.353 -1.8327  0.8098  0.2624
   43MOL0     H 5907  13.758   4.246   6.251 -0.0205 -1.2087 -0.4887
   43MOL0     H 5908  13.920   4.083   6.240  0.2396  1.1057 -2.2124
   43MOL0     H 5909  13.964   4.099   6.416  0.2829  0.7224 -0.0467
   43MOL0     H 5910  14.000   4.352   6.375  2.2491 -1.4817  3.5815
   43MOL0     H 5911  14.002   4.301   6.196  2.8721 -1.5962  0.1131
   43MOL0     H 5912  14.220   4.299   6.254  1.6039 -0.2135  1.3173
   43MOL0     H 5913  14.174   4.135   6.264  4.0349  1.0575 -0.4906
   43MOL0     H 5914  13.241   4.529   6.541  1.1863  1.5862  1.1688
   43MOL0     H 5915  13.027   4.638   6.538  0.6710  4.0364  0.8277
   43MOL0     H 5916  12.839   5.082   6.735  2.4929 -3.2275  2.2305
   43MOL0     H 5917  12.634   5.208   6.701  2.7628 -1.5746 -2.6217
   43MOL0     H 5918  11.427   4.260   5.875 -1.4481 -0.5896 -2.1356
   43MOL0     H 5919  11.337   4.063   5.786  2.9811 -1.7425  2.2123
   43MOL0     H 5920  10.912   3.773   5.642  1.2331  1.6625  1.5537
   43MOL0     H 5921  10.872   3.528   5.598  0.3675  1.0701  0.1301
   43MOL0     H 5922  11.179   3.204   5.712  0.3163  0.1061 -2.4557
   43MOL0     H 5923  11.031   3.226   5.821  0.0845 -1.3139  0.7275
   43MOL0     H 5924  11.059   3.007   5.709  1.0533  1.6494  0.9102
   43MOL0     H 5925  11.058   3.093   5.553  2.2036  0.9787  0.5906
   43MOL0     H 5926  10.817   3.200   5.610 -1.9372 -1.8244 -0.5081
   43MOL0     H 5927  10.809   3.029   5.584  0.8713  1.1799 -2.0945
   43MOL0     H 5928  10.847   3.173   5.851 -0.7432 -1.6922  1.4002
   43MOL0     H 5929  10.846   2.997   5.827  1.8632  1.2773  3.3827
   43MOL0     H 5930  10.441   3.144   5.874  0.9528 -0.3415  3.1068
   43MOL0     H 5931  11.252   3.428   5.783 -0.5461 -1.6136 -3.1504
   43MOL0     H 5932  11.368   3.758   5.807  2.2203 -0.1686  1.7318
   43MOL0     H 5933  11.295   3.706   5.961 -0.0599 -3.2464  1.1637
   43MOL0     H 5934  11.389   3.592   5.865 -0.2324  0.4913 -0.5242
   44MOL0     O 5935   6.388   0.051   1.265  0.2457 -0.1556  0.0324
   44MOL0     C 5936   6.427  -0.046   1.333 -0.5750 -0.2882  0.5771
   44MOL0     O 5937   6.528  -0.036   1.427  0.5135  0.3332 -0.3208
   44MOL0     C 5938   6.608   0.073   1.421  0.6718 -0.3851  0.0438
   44MOL0     C 5939   6.599   0.177   1.520  0.2406 -0.3430 -0.0271
   44MOL0     C 5940   6.696   0.280   1.520 -0.7363 -0.5721 -0.2918
   44MOL0     C 5941   6.798   0.287   1.424 -0.4364  0.5369  0.1709
   44MOL0     O 5942   6.887   0.396   1.426  0.8361  0.5307  0.1234
   44MOL0     C 5943   6.985   0.407   1.322  0.6909  0.0623  0.1187
   44MOL0     C 5944   7.074   0.532   1.354  0.2267  0.1527 -0.2355
   44MOL0     C 5945   7.137   0.523   1.494 -0.4120 -0.1913 -0.7812
   44MOL0     C 5946   7.234   0.641   1.521 -0.5799  0.3263  0.5037
   44MOL0     C 5947   7.304   0.634   1.658  0.4360  0.1442 -0.0239
   44MOL0     C 5948   7.400   0.757   1.669 -0.8905 -0.0238 -0.1925
   44MOL0     C 5949   7.510   0.744   1.777  0.5250  0.0459 -0.0525
   44MOL0     C 5950   7.643   0.672   1.730  0.4000 -0.3172 -0.7546
   44MOL0     N 5951   7.736   0.679   1.838  0.6861  1.1468  0.4497
   44MOL0     C 5952   7.843   0.595   1.850 -0.2868  0.4177  0.1794
   44MOL0     C 5953   7.908   0.641   1.958  0.5407 -0.2803 -0.8483
   44MOL0     C 5954   8.048   0.606   2.009 -0.6224  0.3702  0.0378
   44MOL0     C 5955   8.141   0.720   1.964  0.1195 -0.1662  0.1596
   44MOL0     C 5956   8.241   0.725   2.079 -1.0669  0.4582  0.3757
   44MOL0     C 5957   8.335   0.843   2.050  0.6834  0.2851  0.7870
   44MOL0     O 5958   8.377   0.880   2.178  0.7323 -0.2815  0.8518
   44MOL0     C 5959   8.476   0.969   2.191 -0.8177 -0.5756 -1.3000
   44MOL0     C 5960   8.542   0.988   2.312 -0.0625 -0.2840  0.1508
   44MOL0     C 5961   8.649   1.076   2.333  0.3484  0.2233  0.2259
   44MOL0     C 5962   8.726   1.070   2.468  0.3817  0.1840 -0.1622
   44MOL0     C 5963   8.696   1.150   2.220 -0.5089  0.0041  0.6564
   44MOL0     C 5964   8.795   1.257   2.230 -0.4803  1.0095 -0.1146
   44MOL0     O 5965   8.760   1.379   2.163 -0.5091  0.3316 -0.0227
   44MOL0     C 5966   8.855   1.477   2.145  0.5469  1.0138  0.7368
   44MOL0     C 5967   8.937   1.522   2.255 -0.9309 -0.1130 -1.1601
   44MOL0     C 5968   9.035   1.619   2.249  0.7888  0.9281 -0.1304
   44MOL0     C 5969   9.058   1.686   2.131 -0.6177  0.7853 -0.1664
   44MOL0     O 5970   9.158   1.785   2.116 -0.1476  0.2107  1.0467
   44MOL0     C 5971   9.232   1.821   2.237 -0.4412 -0.0901  0.1663
   44MOL0     C 5972   9.364   1.884   2.182 -0.5673  1.0044 -0.3200
   44MOL0     C 5973   9.357   2.020   2.113 -0.0634  0.5961 -0.4414
   44MOL0     C 5974   9.343   2.141   2.220  0.0315 -0.4694  0.8231
   44MOL0     C 5975   9.486   2.184   2.265  0.6072  0.0069 -0.2037
   44MOL0     C 5976   9.489   2.291   2.371  0.3502 -1.2589 -0.1481
   44MOL0     C 5977   9.633   2.312   2.429  0.2061 -0.5925 -0.5334
   44MOL0     C 5978   9.733   2.389   2.349  0.4497 -0.7379  0.4877
   44MOL0    Cl 5979   9.690   2.566   2.358  0.2876 -0.2752  0.4325
   44MOL0     C 5980   8.982   1.637   2.019 -0.4181 -0.5252  0.0171
   44MOL0     C 5981   8.883   1.543   2.028  1.5866  0.7223 -0.4479
   44MOL0     O 5982   8.899   1.240   2.292  0.2801 -0.2943  0.1142
   44MOL0     C 5983   8.624   1.136   2.097 -0.4452 -0.0413  0.0592
   44MOL0     C 5984   8.514   1.051   2.089  0.0386  0.1314  0.5871
   44MOL0     N 5985   7.829   0.747   2.018 -0.4328  0.1450 -0.1552
   44MOL0     N 5986   7.728   0.765   1.942  0.1033 -0.5047  0.6296
   44MOL0     C 5987   6.809   0.175   1.330 -0.7887  0.1805 -0.1736
   44MOL0     C 5988   6.718   0.071   1.336 -0.4650 -0.2827 -0.1202
   44MOL0     C 5989   6.373  -0.185   1.312  1.4787  0.9263  0.0354
   44MOL0     C 5990   6.415  -0.292   1.406  0.5563  0.2267  0.5342
   44MOL0     C 5991   6.367  -0.432   1.391  0.1131  0.3249 -1.0787
   44MOL0     C 5992   6.279  -0.466   1.295  0.8343 -0.1553  0.7142
   44MOL0     O 5993   6.243  -0.599   1.311 -1.0129  0.4643  0.0475
   44MOL0     C 5994   6.168  -0.667   1.214  1.0661  0.1595  0.5961
   44MOL0     C 5995   6.024  -0.612   1.198  0.1311 -0.1970 -0.1341
   44MOL0     C 5996   5.959  -0.638   1.337  0.4107  0.4320  0.7365
   44MOL0     C 5997   5.811  -0.612   1.343  0.1201 -0.0113 -0.4093
   44MOL0     C 5998   5.727  -0.715   1.279  0.3656  0.3627  0.2722
   44MOL0     C 5999   5.651  -0.780   1.213 -0.3732 -0.3157 -0.8817
   44MOL0     C 6000   6.243  -0.366   1.197 -0.8839  1.0903 -0.5635
   44MOL0     C 6001   6.287  -0.230   1.203 -0.4366  0.3018  0.4779
   44MOL0     C 6002   6.233  -0.130   1.098 -0.0514  0.7126  0.1857
   44MOL0     H 6003   6.528   0.180   1.602  0.9288  2.4640  0.5724
   44MOL0     H 6004   6.691   0.354   1.600  0.4538 -3.9305  3.2227
   44MOL0     H 6005   6.940   0.404   1.222  1.9389 -1.1380 -0.4340
   44MOL0     H 6006   7.050   0.319   1.324  0.1688 -0.3437  2.3513
   44MOL0     H 6007   7.148   0.544   1.274 -2.7380  2.1183 -2.9398
   44MOL0     H 6008   7.014   0.623   1.349  0.1735  0.3269  2.2536
   44MOL0     H 6009   7.056   0.530   1.568 -1.5866  2.7105 -2.1635
   44MOL0     H 6010   7.202   0.436   1.506 -0.0536 -0.3170 -3.1684
   44MOL0     H 6011   7.300   0.648   1.435  0.1235  1.3548  1.1080
   44MOL0     H 6012   7.176   0.733   1.511  0.1978  0.6196 -1.9534
   44MOL0     H 6013   7.372   0.549   1.656  0.3271  0.0500 -1.6814
   44MOL0     H 6014   7.225   0.632   1.734  0.8770 -0.2526  0.4325
   44MOL0     H 6015   7.456   0.770   1.576  0.4054 -1.1414  0.3929
   44MOL0     H 6016   7.337   0.847   1.680 -2.4214 -0.3373 -4.4410
   44MOL0     H 6017   7.462   0.701   1.865 -1.7670  1.3735 -0.5876
   44MOL0     H 6018   7.539   0.847   1.799  3.8695 -0.3542 -1.8315
   44MOL0     H 6019   7.621   0.566   1.719  4.4800 -1.3090 -0.9189
   44MOL0     H 6020   7.674   0.725   1.639 -0.6597  2.0913  0.1875
   44MOL0     H 6021   7.894   0.519   1.792 -1.8999 -0.3727 -0.2559
   44MOL0     H 6022   8.080   0.510   1.965 -2.3324 -1.5490  2.7393
   44MOL0     H 6023   8.049   0.587   2.116  1.4475 -1.1805 -0.1737
   44MOL0     H 6024   8.196   0.694   1.873 -1.6943  2.7116 -1.8930
   44MOL0     H 6025   8.094   0.818   1.956 -0.2052 -0.2378  1.0510
   44MOL0     H 6026   8.187   0.743   2.173 -3.3258 -3.3414  0.0213
   44MOL0     H 6027   8.294   0.629   2.083 -0.0923  1.0217  2.2386
   44MOL0     H 6028   8.410   0.821   1.973 -0.2575  2.3982 -0.8292
   44MOL0     H 6029   8.282   0.924   1.998  1.5636 -0.3379 -1.1680
   44MOL0     H 6030   8.495   0.919   2.382 -0.6588 -2.2463 -2.0651
   44MOL0     H 6031   8.707   1.169   2.510  2.4321  0.8341 -0.6579
   44MOL0     H 6032   8.831   1.053   2.445  0.2581  1.0885 -1.5125
   44MOL0     H 6033   8.698   0.990   2.537  2.4032 -0.0562  0.4391
   44MOL0     H 6034   8.932   1.468   2.350 -0.4519 -0.4960 -1.3444
   44MOL0     H 6035   9.080   1.647   2.344  0.4398 -2.1454  1.0377
   44MOL0     H 6036   9.180   1.875   2.316 -2.0990 -1.3841  0.0354
   44MOL0     H 6037   9.259   1.727   2.287  1.7281  0.5072  0.1826
   44MOL0     H 6038   9.431   1.893   2.267  1.0224  0.9070 -1.5262
   44MOL0     H 6039   9.403   1.810   2.111 -0.9686 -0.9638  1.4091
   44MOL0     H 6040   9.267   2.021   2.050 -0.2657 -0.0458 -0.1780
   44MOL0     H 6041   9.436   2.045   2.041  0.9560 -0.0872  0.4005
   44MOL0     H 6042   9.278   2.117   2.304 -3.9610  0.5985 -1.6707
   44MOL0     H 6043   9.283   2.218   2.170 -0.6143 -1.6883 -0.3497
   44MOL0     H 6044   9.544   2.096   2.293  0.1999 -0.0668  0.4219
   44MOL0     H 6045   9.526   2.230   2.174  1.5393  1.0487  0.7048
   44MOL0     H 6046   9.419   2.262   2.449  0.6983 -1.0851  0.2364
   44MOL0     H 6047   9.453   2.388   2.336  1.6785 -1.2818 -1.7014
   44MOL0     H 6048   9.674   2.211   2.434  2.3726  0.2145 -1.1050
   44MOL0     H 6049   9.634   2.371   2.521 -0.9044  1.6493 -1.8574
   44MOL0     H 6050   9.722   2.357   2.245  0.2125 -1.3730  0.7029
   44MOL0     H 6051   9.832   2.367   2.389 -0.2616  1.5557  3.9741
   44MOL0     H 6052   8.992   1.685   1.922  0.5742 -0.3705  0.1813
   44MOL0     H 6053   8.822   1.509   1.946 -1.7722  0.3610  2.0079
   44MOL0     H 6054   8.652   1.189   2.007 -2.5454  2.4387  0.7517
   44MOL0     H 6055   8.470   1.042   1.990 -2.6830  1.8965  1.5060
   44MOL0     H 6056   6.897   0.162   1.268 -0.7662  2.3510 -0.6836
   44MOL0     H 6057   6.724  -0.016   1.271 -0.4528  0.6692 -1.4145
   44MOL0     H 6058   6.484  -0.260   1.483 -0.9449  1.4519  1.4341
   44MOL0     H 6059   6.415  -0.505   1.455  0.0481  2.0431  1.0701
   44MOL0     H 6060   6.224  -0.665   1.120 -3.1946  0.3766 -2.2670
   44MOL0     H 6061   6.159  -0.774   1.237 -1.4301  0.2277  0.2605
   44MOL0     H 6062   5.971  -0.677   1.128  0.2407 -1.1393  0.6418
   44MOL0     H 6063   6.018  -0.506   1.173  2.5181 -0.3553 -1.8186
   44MOL0     H 6064   5.974  -0.740   1.374  1.0413  0.2857  0.1175
   44MOL0     H 6065   5.992  -0.571   1.416  1.5405 -2.1243  2.5645
   44MOL0     H 6066   5.783  -0.513   1.306  1.4013 -0.2626 -2.1831
   44MOL0     H 6067   5.786  -0.613   1.450  1.0041  3.4184 -0.0600
   44MOL0     H 6068   5.584  -0.842   1.156 -1.3884 -0.4114  0.3822
   44MOL0     H 6069   6.176  -0.384   1.113  0.7678  0.6773 -1.8450
   44MOL0     H 6070   6.188  -0.186   1.016  2.6317 -1.4473  0.0528
   44MOL0     H 6071   6.160  -0.068   1.151 -1.3431 -0.7161  0.1471
   44MOL0     H 6072   6.310  -0.066   1.053  0.2372  0.2111 -0.0445
   45MOL0     O 6073   4.515   9.741   7.566  0.3029  0.7753  0.2271
   45MOL0     C 6074   4.451   9.808   7.645  0.0584  0.2436 -0.8467
   45MOL0     O 6075   4.473   9.809   7.784 -0.4869  0.9114  0.5640
   45MOL0     C 6076   4.575   9.726   7.828  0.4569 -0.8554  0.3856
   45MOL0     C 6077   4.711   9.749   7.837  0.7586  0.0790  0.2710
   45MOL0     C 6078   4.801   9.662   7.889  0.2320  0.5429  0.5149
   45MOL0     C 6079   4.761   9.544   7.953  0.0987  0.9385  0.4573
   45MOL0     O 6080   4.842   9.456   8.022  0.3096 -0.1126 -0.5298
   45MOL0     C 6081   4.810   9.318   8.048  0.0955 -0.3183 -0.7250
   45MOL0     C 6082   4.795   9.226   7.923  0.2281  0.0944  0.1991
   45MOL0     C 6083   4.890   9.249   7.798  0.3367  0.3884 -0.2055
   45MOL0     C 6084   5.030   9.202   7.841 -0.8079 -0.6419  0.2041
   45MOL0     C 6085   5.117   9.226   7.713 -0.2465  0.7494  0.3098
   45MOL0     C 6086   5.244   9.143   7.731 -0.0559 -0.1557  0.6499
   45MOL0     C 6087   5.320   9.138   7.603 -0.0036 -0.3851 -0.9518
   45MOL0     C 6088   5.467   9.090   7.634 -0.0175  0.0855  0.0107
   45MOL0     N 6089   5.536   9.056   7.511  0.0414  0.9549  0.3202
   45MOL0     C 6090   5.531   8.923   7.463  0.3675  0.1543 -1.1434
   45MOL0     C 6091   5.593   8.934   7.341  1.1427  0.8717 -1.2281
   45MOL0     C 6092   5.610   8.823   7.226  1.2835 -0.2735 -0.2737
   45MOL0     C 6093   5.618   8.681   7.275  0.3082  0.4733  0.1732
   45MOL0     C 6094   5.662   8.588   7.153  0.0677 -0.4791 -0.4670
   45MOL0     C 6095   5.640   8.445   7.192  0.5568  0.0794 -0.4283
   45MOL0     O 6096   5.501   8.408   7.214  0.3854 -0.5084 -1.0925
   45MOL0     C 6097   5.434   8.353   7.104 -0.1704 -0.9687  0.2086
   45MOL0     C 6098   5.469   8.373   6.972 -0.4016  0.3042  0.7072
   45MOL0     C 6099   5.404   8.308   6.862 -0.3812 -0.7811 -0.4512
   45MOL0     C 6100   5.447   8.341   6.721 -0.1669  0.5992  0.8940
   45MOL0     C 6101   5.298   8.226   6.890  0.4782  0.0883  0.6161
   45MOL0     C 6102   5.239   8.137   6.792  0.1264 -0.6459  0.2174
   45MOL0     O 6103   5.102   8.113   6.800  0.4645 -0.0164 -0.2145
   45MOL0     C 6104   5.057   8.003   6.725 -0.3769  0.1659  1.1496
   45MOL0     C 6105   5.100   7.873   6.759 -1.0173 -0.1847 -0.6803
   45MOL0     C 6106   5.051   7.772   6.681  0.0300 -0.2739 -0.3469
   45MOL0     C 6107   4.959   7.785   6.579 -0.4691  0.6679  0.4119
   45MOL0     O 6108   4.903   7.670   6.532 -0.3345 -0.2024  0.0570
   45MOL0     C 6109   4.871   7.667   6.392  0.4640 -0.3596  0.0733
   45MOL0     C 6110   4.722   7.628   6.347 -0.3802  0.6668 -0.4145
   45MOL0     C 6111   4.658   7.496   6.399 -0.1331 -0.4676 -0.7359
   45MOL0     C 6112   4.735   7.358   6.361  0.4451 -0.6089  0.0748
   45MOL0     C 6113   4.687   7.234   6.434 -0.2026  0.4309  0.2128
   45MOL0     C 6114   4.588   7.159   6.349  0.4581  1.0069  0.0421
   45MOL0     C 6115   4.655   7.106   6.228  0.2503 -0.2004  0.1827
   45MOL0     C 6116   4.596   6.973   6.168 -0.1943 -0.3568 -1.2493
   45MOL0    Cl 6117   4.701   6.910   6.037 -0.0512 -0.5233 -0.0965
   45MOL0     C 6118   4.903   7.914   6.557 -0.6975  0.3985 -0.0709
   45MOL0     C 6119   4.954   8.021   6.635 -0.5472 -0.8110 -0.1700
   45MOL0     O 6120   5.318   8.075   6.727 -0.1594 -0.4809 -0.0617
   45MOL0     C 6121   5.262   8.200   7.022  0.0763 -0.5884 -0.2523
   45MOL0     C 6122   5.323   8.270   7.126  0.2902  0.0763 -0.8934
   45MOL0     N 6123   5.623   9.070   7.318 -0.1216  0.5124  0.3404
   45MOL0     N 6124   5.583   9.145   7.416  0.0976  0.8010 -0.0588
   45MOL0     C 6125   4.618   9.520   7.942  0.4435 -0.0471  0.0709
   45MOL0     C 6126   4.533   9.607   7.879 -0.1063  0.1598 -0.6468
   45MOL0     C 6127   4.352   9.896   7.593 -0.0367 -0.1249  0.2838
   45MOL0     C 6128   4.361  10.026   7.635 -0.2258  0.3442 -0.6215
   45MOL0     C 6129   4.250  10.114   7.599 -0.3818 -0.1402  0.8709
   45MOL0     C 6130   4.147  10.085   7.509  0.2351  0.3536  0.4254
   45MOL0     O 6131   4.041  10.161   7.462 -0.2354 -0.9553  0.2748
   45MOL0     C 6132   4.023  10.286   7.522  0.2306 -0.1945 -0.8324
   45MOL0     C 6133   3.880  10.338   7.483  0.3457  0.1149 -0.7634
   45MOL0     C 6134   3.852  10.484   7.517 -0.3838  0.4654 -0.3905
   45MOL0     C 6135   3.788  10.494   7.655 -0.3544 -0.6592  0.5079
   45MOL0     C 6136   3.644  10.452   7.656 -0.2895  0.6343  0.5407
   45MOL0     C 6137   3.532  10.404   7.639 -0.5935 -0.0676 -0.4723
   45MOL0     C 6138   4.154   9.953   7.474  0.3431 -0.4337  0.7912
   45MOL0     C 6139   4.256   9.855   7.504 -0.7545 -1.5268 -0.2730
   45MOL0     C 6140   4.231   9.709   7.462  0.6272 -0.3246 -0.2893
   45MOL0     H 6141   4.741   9.849   7.806  1.9430 -0.3981 -0.1847
   45MOL0     H 6142   4.906   9.685   7.898  0.4006 -0.5183  1.4872
   45MOL0     H 6143   4.729   9.322   8.122  0.8349  1.1684  0.0604
   45MOL0     H 6144   4.889   9.268   8.105  1.5076  0.6614 -1.7358
   45MOL0     H 6145   4.804   9.121   7.951  3.0634  0.5517  1.3033
   45MOL0     H 6146   4.693   9.241   7.886  1.3937  2.4071 -2.3580
   45MOL0     H 6147   4.851   9.182   7.720 -1.0622 -1.5016  1.9821
   45MOL0     H 6148   4.894   9.354   7.769 -0.4717  1.3756  2.9040
   45MOL0     H 6149   5.084   9.248   7.925  0.6332 -1.6086 -0.1500
   45MOL0     H 6150   5.023   9.096   7.867  0.4501 -0.7336  0.2297
   45MOL0     H 6151   5.140   9.332   7.708  3.0235  0.2303  1.6554
   45MOL0     H 6152   5.072   9.194   7.618  2.7122 -1.2543 -0.5945
   45MOL0     H 6153   5.302   9.200   7.804  0.7887  2.9832 -2.2127
   45MOL0     H 6154   5.225   9.038   7.754 -1.1289 -0.4212 -1.1883
   45MOL0     H 6155   5.320   9.242   7.571 -0.8229  1.4351  4.0255
   45MOL0     H 6156   5.280   9.071   7.527 -1.4803 -2.3998  1.4284
   45MOL0     H 6157   5.521   9.172   7.683 -0.8539  0.4827  0.2750
   45MOL0     H 6158   5.457   9.001   7.697  0.7892 -1.3874 -1.8224
   45MOL0     H 6159   5.479   8.838   7.506 -1.9626  2.3551  0.7476
   45MOL0     H 6160   5.690   8.861   7.161 -0.4638  0.8003 -1.8948
   45MOL0     H 6161   5.517   8.827   7.168  0.7693 -1.6278  0.4164
   45MOL0     H 6162   5.701   8.674   7.347  0.7095  1.4169 -0.1811
   45MOL0     H 6163   5.527   8.647   7.326  1.0151 -1.0749  0.4833
   45MOL0     H 6164   5.597   8.606   7.067  0.8391  0.3121 -0.9058
   45MOL0     H 6165   5.768   8.594   7.126 -0.1788  0.7241 -1.2216
   45MOL0     H 6166   5.680   8.380   7.113 -2.0928 -3.5988  0.9523
   45MOL0     H 6167   5.703   8.421   7.278  0.4989  0.8720 -0.1599
   45MOL0     H 6168   5.552   8.431   6.936 -0.3091  0.3399  0.9750
   45MOL0     H 6169   5.496   8.256   6.671  0.4710  2.2956 -1.5227
   45MOL0     H 6170   5.519   8.423   6.717 -0.1524  0.5328 -0.9079
   45MOL0     H 6171   5.367   8.377   6.656  0.7041  0.6239 -0.1884
   45MOL0     H 6172   5.182   7.860   6.829 -2.2186 -2.4035  0.4286
   45MOL0     H 6173   5.090   7.675   6.711 -1.6641  0.6053  6.3679
   45MOL0     H 6174   4.895   7.760   6.339  2.0357 -0.1522  1.0707
   45MOL0     H 6175   4.940   7.598   6.342  1.1135  0.1038  0.3167
   45MOL0     H 6176   4.652   7.704   6.383 -2.7115 -1.8424  0.7421
   45MOL0     H 6177   4.710   7.631   6.239 -1.6434  0.8373 -0.2925
   45MOL0     H 6178   4.562   7.479   6.349 -0.0176 -1.3886 -0.6697
   45MOL0     H 6179   4.655   7.494   6.508  1.6861 -3.2205 -0.6296
   45MOL0     H 6180   4.843   7.363   6.377  0.2971 -1.9943  1.8654
   45MOL0     H 6181   4.733   7.348   6.252 -1.1303 -2.1886  0.1989
   45MOL0     H 6182   4.775   7.173   6.456  0.5979  1.6760  0.5675
   45MOL0     H 6183   4.641   7.258   6.530  1.2901  2.4843  0.4790
   45MOL0     H 6184   4.510   7.229   6.319  2.2535  3.4965  0.8352
   45MOL0     H 6185   4.534   7.078   6.398 -0.6943  1.8165  0.1515
   45MOL0     H 6186   4.762   7.097   6.250  0.5581  1.3297 -0.5991
   45MOL0     H 6187   4.645   7.178   6.147 -1.1362 -0.5713  0.0088
   45MOL0     H 6188   4.498   6.999   6.128 -0.4530 -1.5325 -1.4097
   45MOL0     H 6189   4.587   6.896   6.245 -0.1977 -0.1808 -1.0710
   45MOL0     H 6190   4.821   7.923   6.488 -0.6100  1.9897 -0.0087
   45MOL0     H 6191   4.913   8.122   6.627 -0.4202 -0.6252  1.2677
   45MOL0     H 6192   5.184   8.125   7.032 -0.0902 -0.6833 -1.8737
   45MOL0     H 6193   5.282   8.257   7.226  0.4477  1.7486 -0.5767
   45MOL0     H 6194   4.569   9.430   7.978  0.0454  0.6309  1.2845
   45MOL0     H 6195   4.431   9.570   7.869 -0.2550 -0.1363  1.3870
   45MOL0     H 6196   4.450  10.067   7.682  0.5081  0.5108 -2.0973
   45MOL0     H 6197   4.251  10.214   7.641 -0.2274 -0.5344  1.8221
   45MOL0     H 6198   4.020  10.285   7.631 -0.6553  1.3808 -0.8075
   45MOL0     H 6199   4.096  10.361   7.487  1.1565 -0.2498  0.8764
   45MOL0     H 6200   3.798  10.270   7.512  2.2439 -0.4332  4.3903
   45MOL0     H 6201   3.884  10.328   7.375  0.8690 -0.0861 -0.7298
   45MOL0     H 6202   3.941  10.548   7.508 -0.7717  0.9289 -1.0905
   45MOL0     H 6203   3.771  10.522   7.453 -0.7878 -0.2410 -0.3107
   45MOL0     H 6204   3.789  10.599   7.686 -1.3888 -1.1095  2.1201
   45MOL0     H 6205   3.843  10.440   7.733  0.9616 -1.7559 -1.0888
   45MOL0     H 6206   3.434  10.360   7.628 -0.8014  0.5903 -1.3175
   45MOL0     H 6207   4.065   9.922   7.421 -1.2541 -0.0294  3.0758
   45MOL0     H 6208   4.149   9.673   7.525 -0.9626  2.2568 -0.7319
   45MOL0     H 6209   4.210   9.701   7.355 -1.8655 -0.5032  0.1530
   45MOL0     H 6210   4.305   9.637   7.500 -0.3675 -1.3112 -0.1810
   46MOL0     O 6211   2.426   7.311   8.864  0.4408  0.0757 -0.5658
   46MOL0     C 6212   2.349   7.324   8.769  0.4087  0.1901  0.6668
   46MOL0     O 6213   2.267   7.229   8.724  0.3578  0.2650  0.6696
   46MOL0     C 6214   2.255   7.117   8.798 -0.2900  0.3230 -0.5375
   46MOL0     C 6215   2.145   7.112   8.890 -0.1180 -0.3309  0.2683
   46MOL0     C 6216   2.120   6.998   8.972  0.1229  0.1171  0.6770
   46MOL0     C 6217   2.222   6.907   8.982 -0.0991  1.0000  0.1362
   46MOL0     O 6218   2.239   6.813   9.092 -0.2949  0.3423 -0.1780
   46MOL0     C 6219   2.145   6.851   9.204  0.4829  0.3365 -0.0138
   46MOL0     C 6220   2.185   6.766   9.328  0.2949  0.0037 -0.1332
   46MOL0     C 6221   2.100   6.778   9.462 -0.0816 -0.4312 -0.0472
   46MOL0     C 6222   2.154   6.672   9.559  0.0164 -0.2693 -1.1041
   46MOL0     C 6223   2.076   6.684   9.696 -0.5166  0.5201  0.6945
   46MOL0     C 6224   2.152   6.630   9.808 -0.3198  1.2459 -0.7025
   46MOL0     C 6225   2.182   6.476   9.786 -0.2306 -0.2850 -0.2177
   46MOL0     C 6226   2.335   6.454   9.827  0.2013  0.1800 -0.4381
   46MOL0     N 6227   2.394   6.520   9.704 -0.2247  0.6119 -0.8107
   46MOL0     C 6228   2.417   6.446   9.590 -0.9671 -0.7557 -0.0922
   46MOL0     C 6229   2.504   6.518   9.518  0.7484 -0.5405  0.6330
   46MOL0     C 6230   2.557   6.495   9.374 -0.7853  0.2773 -0.2895
   46MOL0     C 6231   2.580   6.631   9.299  0.0547 -0.3382 -1.5841
   46MOL0     C 6232   2.592   6.606   9.151 -0.6417 -0.5149  0.3151
   46MOL0     C 6233   2.744   6.577   9.104  0.1509 -0.4657 -0.4608
   46MOL0     O 6234   2.731   6.560   8.961 -0.1284 -0.2533 -0.2511
   46MOL0     C 6235   2.831   6.553   8.872  0.0341  0.0251  0.0797
   46MOL0     C 6236   2.961   6.512   8.910 -0.3839 -0.2905  0.1177
   46MOL0     C 6237   3.071   6.510   8.824  0.4027 -0.6769 -0.2165
   46MOL0     C 6238   3.189   6.445   8.872 -0.6348 -0.0220 -0.2347
   46MOL0     C 6239   3.055   6.567   8.689  0.7857  0.3892 -0.4870
   46MOL0     C 6240   3.163   6.595   8.591  1.3866 -0.2266  0.2803
   46MOL0     O 6241   3.127   6.679   8.477  0.7769  0.3103  0.2016
   46MOL0     C 6242   3.219   6.718   8.386 -0.3601  0.0424 -0.5741
   46MOL0     C 6243   3.226   6.663   8.261 -0.5143  0.8441 -0.8712
   46MOL0     C 6244   3.333   6.688   8.173 -0.1824 -0.6353  0.5882
   46MOL0     C 6245   3.446   6.773   8.217 -1.1241  0.2820  0.8725
   46MOL0     O 6246   3.558   6.800   8.138  0.5679  0.3049 -0.8070
   46MOL0     C 6247   3.591   6.706   8.036  0.6093 -0.1081 -0.0245
   46MOL0     C 6248   3.733   6.724   7.989 -0.7533 -0.3040 -0.5403
   46MOL0     C 6249   3.742   6.825   7.877 -0.2564 -0.3988  0.0651
   46MOL0     C 6250   3.711   6.964   7.923  0.5084  0.1345  0.6986
   46MOL0     C 6251   3.718   7.051   7.796 -0.2847  0.4777 -0.8281
   46MOL0     C 6252   3.669   7.181   7.830  0.2149 -0.6681 -0.8063
   46MOL0     C 6253   3.713   7.284   7.711  0.8978 -0.4494 -0.5504
   46MOL0     C 6254   3.703   7.440   7.748  0.0881 -0.3653  0.2534
   46MOL0    Cl 6255   3.746   7.538   7.616  0.2793  0.0131 -0.1850
   46MOL0     C 6256   3.430   6.834   8.346 -0.4393 -0.1483  0.0854
   46MOL0     C 6257   3.320   6.809   8.435  0.2618 -0.3987 -0.1181
   46MOL0     O 6258   3.278   6.565   8.616 -0.4322 -0.3053  0.0757
   46MOL0     C 6259   2.920   6.599   8.655  0.8791 -0.7186 -0.7334
   46MOL0     C 6260   2.811   6.593   8.743 -0.1492 -0.6791  0.7389
   46MOL0     N 6261   2.553   6.620   9.597 -0.9503 -0.0173 -0.1208
   46MOL0     N 6262   2.473   6.631   9.702  0.0756 -0.4726  0.5235
   46MOL0     C 6263   2.331   6.918   8.888  0.3274  0.7749 -0.0562
   46MOL0     C 6264   2.344   7.015   8.798 -0.3531 -0.2326 -0.7268
   46MOL0     C 6265   2.364   7.463   8.708  0.3939  0.3043 -0.3806
   46MOL0     C 6266   2.480   7.542   8.720 -0.2814  0.2082  0.3456
   46MOL0     C 6267   2.490   7.668   8.663 -0.4411 -0.0431  0.1223
   46MOL0     C 6268   2.382   7.729   8.605  0.8416  0.0146 -0.8491
   46MOL0     O 6269   2.362   7.858   8.569  0.4622 -0.0019 -0.4969
   46MOL0     C 6270   2.477   7.934   8.538  0.4962 -0.4000 -0.5264
   46MOL0     C 6271   2.433   8.053   8.454 -0.4204  0.0385  0.9807
   46MOL0     C 6272   2.509   8.182   8.496 -0.1211  0.0422  0.2585
   46MOL0     C 6273   2.462   8.305   8.420 -0.1411 -0.1381 -0.0953
   46MOL0     C 6274   2.354   8.383   8.479  0.2591  0.0471  0.0792
   46MOL0     C 6275   2.266   8.439   8.519  0.2667 -0.6715  0.8459
   46MOL0     C 6276   2.270   7.651   8.592 -0.3416 -0.1534  1.3267
   46MOL0     C 6277   2.253   7.527   8.647 -0.1601  0.0819 -1.3865
   46MOL0     C 6278   2.113   7.459   8.636  0.2402 -0.4535 -0.5410
   46MOL0     H 6279   2.076   7.195   8.883  2.0718  1.6756  1.3464
   46MOL0     H 6280   2.032   7.005   9.036  0.5278 -0.6717  1.3280
   46MOL0     H 6281   2.040   6.839   9.179 -0.9807  3.8132  3.5188
   46MOL0     H 6282   2.146   6.955   9.238  0.5543 -0.4707  2.6434
   46MOL0     H 6283   2.203   6.660   9.309  1.4275 -0.0806  1.1634
   46MOL0     H 6284   2.279   6.804   9.369 -0.8098  0.6066  1.9894
   46MOL0     H 6285   2.131   6.869   9.514  0.5901 -2.3449  3.1325
   46MOL0     H 6286   1.993   6.757   9.449  0.3165 -3.7441  1.2003
   46MOL0     H 6287   2.155   6.575   9.508 -0.0777  0.7551 -3.1637
   46MOL0     H 6288   2.253   6.709   9.585 -1.9046  1.7018  5.0373
   46MOL0     H 6289   1.976   6.640   9.692  1.0107 -3.2268 -0.3465
   46MOL0     H 6290   2.060   6.790   9.719 -3.4032  0.5316 -0.8921
   46MOL0     H 6291   2.241   6.685   9.842  1.2267 -0.5163 -1.7401
   46MOL0     H 6292   2.076   6.618   9.886  0.0499 -0.3042 -0.5488
   46MOL0     H 6293   2.158   6.450   9.683  0.8178  1.0890 -0.8298
   46MOL0     H 6294   2.128   6.418   9.862  0.8788  1.5301  2.0762
   46MOL0     H 6295   2.367   6.494   9.924  0.4399 -0.9300 -0.0405
   46MOL0     H 6296   2.358   6.347   9.830 -4.0533 -0.9691 -1.5548
   46MOL0     H 6297   2.386   6.345   9.566 -0.5583 -1.0024  0.4062
   46MOL0     H 6298   2.480   6.449   9.311 -0.6571  1.8104 -1.6375
   46MOL0     H 6299   2.650   6.438   9.373  0.6769  2.5225 -0.7641
   46MOL0     H 6300   2.485   6.683   9.309 -0.3630 -1.1725 -1.0610
   46MOL0     H 6301   2.667   6.688   9.333  0.2740 -1.5960  0.1156
   46MOL0     H 6302   2.519   6.532   9.119 -0.2559 -0.6566 -0.2448
   46MOL0     H 6303   2.561   6.696   9.097  2.0304 -0.7209 -1.7648
   46MOL0     H 6304   2.810   6.660   9.129  0.0663 -0.7561  0.7959
   46MOL0     H 6305   2.783   6.479   9.134 -0.6467 -0.2825  1.3158
   46MOL0     H 6306   2.974   6.467   9.008  2.9142  0.6295  0.2328
   46MOL0     H 6307   3.185   6.341   8.836 -0.5422  0.8385 -2.9123
   46MOL0     H 6308   3.188   6.437   8.981 -0.2490  0.0127 -0.2277
   46MOL0     H 6309   3.277   6.493   8.830 -0.4811 -2.6247 -3.2821
   46MOL0     H 6310   3.138   6.609   8.226  0.1088 -1.1739  0.5357
   46MOL0     H 6311   3.314   6.635   8.080 -0.5634 -2.2466  1.5673
   46MOL0     H 6312   3.576   6.604   8.074  1.6640  0.3283  1.6784
   46MOL0     H 6313   3.524   6.724   7.951  3.4413 -0.0378 -2.3921
   46MOL0     H 6314   3.794   6.760   8.073 -1.5994  2.7985 -1.1524
   46MOL0     H 6315   3.771   6.624   7.963 -1.4340 -0.8260  0.4014
   46MOL0     H 6316   3.662   6.799   7.808 -0.7160  1.0641  0.0020
   46MOL0     H 6317   3.839   6.822   7.827  0.6058 -2.5562  1.7372
   46MOL0     H 6318   3.784   6.991   7.999  2.0293  0.5444 -0.8391
   46MOL0     H 6319   3.608   6.960   7.959 -0.3731 -0.5300 -1.7062
   46MOL0     H 6320   3.825   7.066   7.779  0.1107  2.5012  2.5348
   46MOL0     H 6321   3.673   7.008   7.706 -0.6832  0.4548 -0.6246
   46MOL0     H 6322   3.722   7.217   7.919 -1.0831 -0.8285  0.0591
   46MOL0     H 6323   3.560   7.192   7.841  0.4269  0.4175  0.5124
   46MOL0     H 6324   3.636   7.267   7.635 -1.3167  0.0435  1.4401
   46MOL0     H 6325   3.812   7.264   7.670 -0.3559 -0.4084 -4.0054
   46MOL0     H 6326   3.771   7.448   7.834  1.8304 -3.7232 -0.6376
   46MOL0     H 6327   3.596   7.453   7.769 -0.2206  0.5358 -1.6734
   46MOL0     H 6328   3.507   6.903   8.379  1.0204 -0.8692 -1.6624
   46MOL0     H 6329   3.312   6.863   8.529  1.9734  0.2755 -0.3220
   46MOL0     H 6330   2.907   6.648   8.559 -2.1166  1.8475  0.8153
   46MOL0     H 6331   2.717   6.634   8.709 -0.3877 -1.7270  0.1188
   46MOL0     H 6332   2.400   6.837   8.910 -0.4914  0.8748  3.5018
   46MOL0     H 6333   2.430   7.022   8.733 -0.2798  0.4123 -0.5655
   46MOL0     H 6334   2.568   7.513   8.777 -0.9644 -0.6974  0.9659
   46MOL0     H 6335   2.579   7.730   8.676 -0.4082 -0.2637  0.9778
   46MOL0     H 6336   2.520   7.964   8.633 -1.8045  1.7176 -0.0376
   46MOL0     H 6337   2.540   7.873   8.472  0.3487  0.1330 -1.1691
   46MOL0     H 6338   2.326   8.074   8.461 -0.7714 -1.2812 -0.0443
   46MOL0     H 6339   2.452   8.023   8.350 -1.7635 -0.3621  0.8326
   46MOL0     H 6340   2.483   8.183   8.602 -0.5277 -1.3098  0.1974
   46MOL0     H 6341   2.612   8.156   8.470 -0.5497  0.2683 -1.8942
   46MOL0     H 6342   2.431   8.281   8.318 -0.9240  0.9322 -0.1224
   46MOL0     H 6343   2.544   8.376   8.406 -1.4554  1.4397 -0.0935
   46MOL0     H 6344   2.183   8.497   8.553 -2.4360 -3.2155 -0.8370
   46MOL0     H 6345   2.190   7.699   8.537 -2.4691 -2.0781  2.6000
   46MOL0     H 6346   2.114   7.368   8.575 -2.4351  0.0736 -1.5019
   46MOL0     H 6347   2.075   7.436   8.736  1.8804  1.9136  0.7240
   46MOL0     H 6348   2.050   7.533   8.588 -2.2084 -1.6515  0.6637
   47MOL0     O 6349   1.636   9.453   5.942  0.1448 -0.1194  0.0828
   47MOL0     C 6350   1.607   9.572   5.965 -0.6038  0.3947 -0.4438
   47MOL0     O 6351   1.565   9.661   5.873  0.1595  0.4939 -0.3934
   47MOL0     C 6352   1.546   9.618   5.741  0.3897  0.5942  0.2074
   47MOL0     C 6353   1.621   9.513   5.674  0.4501  0.2083  0.2048
   47MOL0     C 6354   1.596   9.481   5.539  0.1816  0.6521 -0.1511
   47MOL0     C 6355   1.500   9.547   5.466  0.2122 -0.3201 -0.3082
   47MOL0     O 6356   1.459   9.519   5.339 -0.0590 -0.3568 -0.1436
   47MOL0     C 6357   1.466   9.387   5.292  1.1155  0.8150  0.1155
   47MOL0     C 6358   1.429   9.388   5.147  0.3212 -0.5918 -0.3529
   47MOL0     C 6359   1.475   9.262   5.072 -0.1092 -0.6210 -0.3664
   47MOL0     C 6360   1.418   9.251   4.934  0.1330 -0.2473 -0.3174
   47MOL0     C 6361   1.472   9.136   4.859  0.0651  0.5077  0.0597
   47MOL0     C 6362   1.623   9.141   4.823 -0.5339 -0.8975  0.2383
   47MOL0     C 6363   1.662   9.027   4.742 -0.8298 -0.6589  0.0755
   47MOL0     C 6364   1.810   9.042   4.681 -0.2144  0.5801 -0.1916
   47MOL0     N 6365   1.917   9.001   4.774 -0.7086 -0.3620  0.9522
   47MOL0     C 6366   1.958   9.057   4.891  0.4326 -0.4891 -0.1590
   47MOL0     C 6367   2.054   8.985   4.946 -1.2209  0.1845  0.3034
   47MOL0     C 6368   2.122   9.003   5.075 -0.3209  0.5628 -0.6568
   47MOL0     C 6369   2.179   9.145   5.108 -1.2247 -0.3105 -0.5670
   47MOL0     C 6370   2.272   9.211   5.000  0.7479 -0.7933  0.1248
   47MOL0     C 6371   2.408   9.153   4.994 -0.1174 -0.1051 -0.0308
   47MOL0     O 6372   2.471   9.183   5.122  0.0879 -0.3712  0.2542
   47MOL0     C 6373   2.508   9.082   5.213 -0.4889  0.1091 -0.0739
   47MOL0     C 6374   2.470   8.948   5.204  0.0403  0.2112  0.2325
   47MOL0     C 6375   2.501   8.852   5.302  0.0489 -0.0965  0.1087
   47MOL0     C 6376   2.447   8.715   5.298  0.1930 -0.0199  0.3688
   47MOL0     C 6377   2.590   8.891   5.407 -0.0714  0.4887  0.4113
   47MOL0     C 6378   2.650   8.799   5.502  0.1863  0.1893 -0.2857
   47MOL0     O 6379   2.665   8.860   5.631  0.3122 -0.8302 -0.2581
   47MOL0     C 6380   2.747   8.802   5.726 -0.4128  0.1395  0.5527
   47MOL0     C 6381   2.829   8.897   5.794 -0.2894  0.4263 -0.5183
   47MOL0     C 6382   2.919   8.858   5.891  0.3904  0.8017  0.2358
   47MOL0     C 6383   2.925   8.721   5.928  0.2364 -0.4164  0.4516
   47MOL0     O 6384   3.020   8.679   6.017  0.2650  0.3904 -0.9664
   47MOL0     C 6385   2.982   8.709   6.154 -0.3015  0.2791  0.0745
   47MOL0     C 6386   3.037   8.589   6.245  0.1573 -0.4431 -0.6991
   47MOL0     C 6387   2.979   8.572   6.391  0.7569  0.5255 -0.6417
   47MOL0     C 6388   3.080   8.487   6.477  0.0512 -1.9732 -0.6940
   47MOL0     C 6389   3.050   8.484   6.627 -0.1775 -0.5403  0.7850
   47MOL0     C 6390   2.900   8.463   6.653  0.0153  0.4627 -0.2395
   47MOL0     C 6391   2.875   8.421   6.798 -0.6733 -0.3813 -0.0665
   47MOL0     C 6392   2.729   8.397   6.820 -0.7596  0.7593  0.2647
   47MOL0    Cl 6393   2.646   8.547   6.788 -0.1410  0.1042 -0.1629
   47MOL0     C 6394   2.835   8.621   5.868 -0.7899 -1.0224 -0.3125
   47MOL0     C 6395   2.751   8.664   5.759 -0.9751  0.1982  0.2742
   47MOL0     O 6396   2.687   8.684   5.473  0.2238 -0.1302 -0.3011
   47MOL0     C 6397   2.625   9.027   5.415  0.6049  0.9876  0.0737
   47MOL0     C 6398   2.584   9.119   5.323  0.2060 -0.1940  0.6058
   47MOL0     N 6399   2.093   8.897   4.845 -0.3190  0.6354  0.4467
   47MOL0     N 6400   2.026   8.908   4.745  0.3616  0.8651  0.0921
   47MOL0     C 6401   1.435   9.658   5.531  0.4745  0.9573 -0.0252
   47MOL0     C 6402   1.458   9.690   5.662  0.5922  0.6528  0.3541
   47MOL0     C 6403   1.625   9.615   6.105  0.1988  0.1712 -0.0956
   47MOL0     C 6404   1.528   9.694   6.162 -0.1135  0.3680  0.3328
   47MOL0     C 6405   1.537   9.731   6.300 -0.3807 -0.4206 -0.1056
   47MOL0     C 6406   1.649   9.694   6.377  0.1907 -0.8313  0.5591
   47MOL0     O 6407   1.677   9.731   6.500  0.4640  0.1048  0.0792
   47MOL0     C 6408   1.569   9.728   6.600  0.2709  0.0913  0.0674
   47MOL0     C 6409   1.623   9.711   6.742  0.4720  0.1304 -0.1304
   47MOL0     C 6410   1.702   9.833   6.796  0.5305  1.1516  0.1746
   47MOL0     C 6411   1.744   9.806   6.946 -0.1459  0.0069  0.5614
   47MOL0     C 6412   1.838   9.919   6.971 -0.3406  0.3925  0.1464
   47MOL0     C 6413   1.933   9.988   6.990 -0.2693  0.4570  0.3688
   47MOL0     C 6414   1.749   9.619   6.319  0.2518 -0.3859  0.2708
   47MOL0     C 6415   1.739   9.579   6.176 -0.3111 -1.2168 -0.6546
   47MOL0     C 6416   1.865   9.513   6.119  0.1292 -0.0505  0.3943
   47MOL0     H 6417   1.712   9.481   5.722  1.5671  1.7417 -0.8239
   47MOL0     H 6418   1.662   9.412   5.487 -2.2993 -0.3011 -2.2413
   47MOL0     H 6419   1.395   9.328   5.351  0.9890 -0.3823 -1.1848
   47MOL0     H 6420   1.569   9.355   5.305  1.1171  0.8606  0.2092
   47MOL0     H 6421   1.320   9.394   5.132 -0.1391  0.5904  2.7910
   47MOL0     H 6422   1.489   9.471   5.109 -1.8915  1.1383 -0.3111
   47MOL0     H 6423   1.583   9.277   5.068 -0.4633  2.7435 -0.6071
   47MOL0     H 6424   1.440   9.178   5.133 -0.5070 -0.0542  0.2074
   47MOL0     H 6425   1.309   9.250   4.930 -0.0892  4.7373 -0.8805
   47MOL0     H 6426   1.445   9.347   4.891  4.9316  1.4501  5.2144
   47MOL0     H 6427   1.412   9.107   4.772 -1.1193 -0.7992  1.2606
   47MOL0     H 6428   1.455   9.049   4.923 -4.1223  2.2583  1.7555
   47MOL0     H 6429   1.645   9.230   4.763  0.2780 -0.9315  0.4828
   47MOL0     H 6430   1.692   9.146   4.907  0.1723  0.1152 -0.3820
   47MOL0     H 6431   1.598   9.019   4.654  3.5718 -0.6825 -3.5174
   47MOL0     H 6432   1.656   8.929   4.789 -2.9348 -0.5039  0.2185
   47MOL0     H 6433   1.813   8.980   4.592  0.6877 -0.4467  0.5294
   47MOL0     H 6434   1.838   9.146   4.661  5.1631 -0.8763 -1.8898
   47MOL0     H 6435   1.899   9.138   4.931  0.6779  0.4610 -1.6273
   47MOL0     H 6436   2.209   8.937   5.068 -0.4360  0.4784 -1.3891
   47MOL0     H 6437   2.055   8.964   5.152  0.4774  1.2683  0.4162
   47MOL0     H 6438   2.092   9.211   5.114  0.3726  2.0098 -1.3941
   47MOL0     H 6439   2.234   9.144   5.202 -1.6641  2.3823 -0.2191
   47MOL0     H 6440   2.220   9.190   4.906 -0.8686 -0.7817  0.9835
   47MOL0     H 6441   2.281   9.320   5.002 -1.2988 -0.5598 -0.8551
   47MOL0     H 6442   2.417   9.048   4.963  1.4394  0.7102 -2.6568
   47MOL0     H 6443   2.459   9.216   4.921 -0.1479 -0.7130 -0.5914
   47MOL0     H 6444   2.407   8.907   5.126 -1.4857  2.5377  0.1453
   47MOL0     H 6445   2.522   8.636   5.287 -0.1349 -0.7323  2.7143
   47MOL0     H 6446   2.367   8.698   5.225  0.1835  1.0255  0.1089
   47MOL0     H 6447   2.399   8.705   5.395 -0.4370  4.3690  0.7246
   47MOL0     H 6448   2.831   9.002   5.765  1.5803  0.0637 -1.9031
   47MOL0     H 6449   2.995   8.919   5.939 -0.3705  1.6398  0.4001
   47MOL0     H 6450   3.022   8.808   6.180  2.4853 -0.4198 -1.1122
   47MOL0     H 6451   2.873   8.709   6.160 -0.4759 -0.7315 -2.1407
   47MOL0     H 6452   3.032   8.490   6.198  0.1568 -0.7617 -0.0503
   47MOL0     H 6453   3.141   8.614   6.265 -0.5400  1.3206  0.9734
   47MOL0     H 6454   2.883   8.520   6.400  1.5983 -1.1274 -0.8151
   47MOL0     H 6455   2.970   8.669   6.441  0.4232 -0.2971  0.9839
   47MOL0     H 6456   3.181   8.527   6.472 -1.5992  3.5030  2.1199
   47MOL0     H 6457   3.077   8.385   6.437 -0.0204 -0.8580 -3.8539
   47MOL0     H 6458   3.115   8.405   6.667  1.7531 -0.6879 -2.2572
   47MOL0     H 6459   3.085   8.576   6.674 -1.8991 -0.1487  1.3540
   47MOL0     H 6460   2.864   8.384   6.586  0.7972  3.8837 -5.2516
   47MOL0     H 6461   2.844   8.555   6.638  2.1322  1.7624 -0.4989
   47MOL0     H 6462   2.907   8.498   6.868  1.9598  0.5129 -2.0974
   47MOL0     H 6463   2.942   8.337   6.820  2.4063  1.4972 -1.6815
   47MOL0     H 6464   2.719   8.364   6.924 -0.6658  2.7086  0.9356
   47MOL0     H 6465   2.691   8.327   6.745  3.3186 -0.0864 -1.2712
   47MOL0     H 6466   2.833   8.521   5.911  1.8256 -1.0421 -0.0947
   47MOL0     H 6467   2.678   8.598   5.713 -0.5900  0.8359 -1.3269
   47MOL0     H 6468   2.690   9.064   5.493  0.2915  0.6770  0.4881
   47MOL0     H 6469   2.623   9.219   5.340 -0.7480  0.6017 -1.5297
   47MOL0     H 6470   1.357   9.704   5.471 -0.0685 -0.4320 -0.4352
   47MOL0     H 6471   1.397   9.768   5.705  0.9380 -0.1213  2.3968
   47MOL0     H 6472   1.451   9.734   6.097 -0.1227  1.1786  0.8259
   47MOL0     H 6473   1.456   9.791   6.339 -0.0967  1.2218 -1.8991
   47MOL0     H 6474   1.509   9.819   6.596 -1.3699 -0.9351  0.6194
   47MOL0     H 6475   1.506   9.640   6.586 -0.3485  0.4904  0.2923
   47MOL0     H 6476   1.679   9.618   6.751 -2.3223 -1.4692  3.2535
   47MOL0     H 6477   1.541   9.698   6.813  2.0967 -1.2625  1.5668
   47MOL0     H 6478   1.789   9.845   6.730 -0.1416  0.4001 -0.8871
   47MOL0     H 6479   1.639   9.923   6.795  1.6507  2.0288 -2.3134
   47MOL0     H 6480   1.794   9.710   6.962 -1.9838 -0.9032  1.1414
   47MOL0     H 6481   1.653   9.801   7.007  0.4452 -1.4149  1.3597
   47MOL0     H 6482   2.024  10.042   7.006  0.2727  0.2885 -1.8057
   47MOL0     H 6483   1.839   9.597   6.375 -0.1015  0.8912  1.3853
   47MOL0     H 6484   1.933   9.480   6.198 -1.2127  2.3518  2.7106
   47MOL0     H 6485   1.834   9.425   6.062  2.2313 -1.7916  1.7978
   47MOL0     H 6486   1.918   9.569   6.041  1.7036  0.0954  1.5139
   48MOL0     O 6487   6.576   8.893   3.169 -0.2495 -0.0385 -0.1709
   48MOL0     C 6488   6.491   8.805   3.150 -0.5620 -0.8945 -0.5020
   48MOL0     O 6489   6.484   8.697   3.228 -0.0416  0.9162  0.3847
   48MOL0     C 6490   6.574   8.685   3.327 -0.6271 -0.9484 -0.0416
   48MOL0     C 6491   6.712   8.655   3.305 -0.7867  0.1967  0.2641
   48MOL0     C 6492   6.794   8.641   3.421 -0.5708  0.1440  0.3221
   48MOL0     C 6493   6.742   8.630   3.552  0.6428 -0.3784  0.6974
   48MOL0     O 6494   6.804   8.608   3.671  0.7592 -0.3106  0.4087
   48MOL0     C 6495   6.943   8.598   3.656 -0.0404  0.2548  0.4373
   48MOL0     C 6496   7.006   8.578   3.786  0.5220 -0.3309  0.3041
   48MOL0     C 6497   7.147   8.527   3.759  0.5171  0.3577  0.4601
   48MOL0     C 6498   7.225   8.542   3.889  0.4988  1.0558  1.0136
   48MOL0     C 6499   7.345   8.450   3.871  0.1413 -0.1088 -0.8631
   48MOL0     C 6500   7.466   8.498   3.950 -0.2882 -0.2337 -0.9647
   48MOL0     C 6501   7.451   8.486   4.104  0.4144  1.3716 -0.7622
   48MOL0     C 6502   7.462   8.334   4.152  0.1814 -0.5887  0.0346
   48MOL0     N 6503   7.603   8.294   4.164 -0.3046 -0.0751 -0.0248
   48MOL0     C 6504   7.706   8.339   4.246  0.3219  0.6627 -0.3128
   48MOL0     C 6505   7.805   8.248   4.228  0.4744  0.1495  0.1702
   48MOL0     C 6506   7.935   8.254   4.300 -0.8113  0.1555  0.0460
   48MOL0     C 6507   7.982   8.109   4.345  0.3190 -0.6157 -0.0049
   48MOL0     C 6508   8.107   8.103   4.435 -0.3482 -0.1235  0.2680
   48MOL0     C 6509   8.236   8.120   4.351  0.0549 -0.0252 -0.3161
   48MOL0     O 6510   8.351   8.125   4.434 -0.0666  0.1738 -0.4201
   48MOL0     C 6511   8.471   8.157   4.387 -0.2018 -0.0500  0.9143
   48MOL0     C 6512   8.522   8.289   4.401 -0.7628 -0.0016  0.5088
   48MOL0     C 6513   8.651   8.320   4.349  0.3279  1.0686  0.2617
   48MOL0     C 6514   8.706   8.449   4.374 -0.1286  0.2794 -0.3396
   48MOL0     C 6515   8.715   8.224   4.263 -0.4633 -0.2271 -0.1421
   48MOL0     C 6516   8.845   8.257   4.197 -0.0305 -0.7065  0.2680
   48MOL0     O 6517   8.836   8.338   4.093 -0.1644  0.5092  0.4593
   48MOL0     C 6518   8.947   8.354   4.011  0.0863 -0.2925 -0.0306
   48MOL0     C 6519   9.052   8.421   4.060  0.4250  0.1576 -0.6108
   48MOL0     C 6520   9.157   8.459   3.979 -0.3544  0.2972  0.7234
   48MOL0     C 6521   9.159   8.424   3.843 -0.6713  0.4500  0.9520
   48MOL0     O 6522   9.265   8.458   3.759  0.2726  0.2598  0.2557
   48MOL0     C 6523   9.329   8.346   3.701  0.9117 -0.0872  0.8288
   48MOL0     C 6524   9.337   8.351   3.552 -0.3262  0.4619  0.6270
   48MOL0     C 6525   9.367   8.494   3.488 -1.0079 -0.0051 -0.4998
   48MOL0     C 6526   9.427   8.473   3.347 -0.3108 -0.1311  1.3252
   48MOL0     C 6527   9.487   8.602   3.291 -0.0989  0.6861  0.3038
   48MOL0     C 6528   9.518   8.596   3.140  0.4104  0.6224 -0.0187
   48MOL0     C 6529   9.619   8.692   3.087  0.6163  0.1411 -0.2293
   48MOL0     C 6530   9.758   8.652   3.092  0.4360  0.6346 -0.3615
   48MOL0    Cl 6531   9.783   8.498   2.992  0.1300  0.0768 -0.4661
   48MOL0     C 6532   9.053   8.352   3.787  0.5695 -0.4166  0.6445
   48MOL0     C 6533   8.950   8.313   3.875 -1.0911  0.8213 -0.0197
   48MOL0     O 6534   8.942   8.203   4.237  0.1496  0.1402 -0.3486
   48MOL0     C 6535   8.657   8.095   4.243 -0.7920  0.0246 -0.4601
   48MOL0     C 6536   8.537   8.061   4.305 -0.5569 -0.0950 -0.8219
   48MOL0     N 6537   7.766   8.161   4.137 -0.7570  0.5634  0.2194
   48MOL0     N 6538   7.649   8.185   4.088  0.2279  0.3633 -0.3778
   48MOL0     C 6539   6.614   8.664   3.561 -0.3897 -0.4113 -0.2726
   48MOL0     C 6540   6.531   8.698   3.460  0.7824  0.3141  0.5876
   48MOL0     C 6541   6.389   8.819   3.052 -0.1754 -0.1735  0.0599
   48MOL0     C 6542   6.278   8.726   3.061  0.2146 -0.7347  0.2735
   48MOL0     C 6543   6.182   8.736   2.960 -0.7434  0.1983 -1.2335
   48MOL0     C 6544   6.188   8.828   2.858  0.1054  0.6223 -0.0032
   48MOL0     O 6545   6.088   8.844   2.769  0.6346  0.9165 -0.3091
   48MOL0     C 6546   5.993   8.943   2.795 -0.2532 -0.0751  0.3996
   48MOL0     C 6547   5.869   8.922   2.710  0.7570 -0.2592 -0.4922
   48MOL0     C 6548   5.755   9.006   2.751  0.3896 -0.5129  0.1692
   48MOL0     C 6549   5.680   8.975   2.885  0.9021 -0.1242 -0.1349
   48MOL0     C 6550   5.611   8.836   2.887  0.1169 -0.7720  0.0690
   48MOL0     C 6551   5.570   8.725   2.869  0.4449  0.0798  0.0050
   48MOL0     C 6552   6.295   8.915   2.850 -0.4309 -0.1349  1.0344
   48MOL0     C 6553   6.391   8.918   2.951  0.0343 -0.0682  0.5346
   48MOL0     C 6554   6.502   9.020   2.920 -0.0219 -0.4033  0.7408
   48MOL0     H 6555   6.758   8.655   3.206 -0.3821  1.4940  0.4355
   48MOL0     H 6556   6.902   8.637   3.407 -0.5210  2.1519 -0.1435
   48MOL0     H 6557   6.989   8.685   3.609  0.7051 -0.0501  0.5865
   48MOL0     H 6558   6.970   8.509   3.598  1.6446  1.0889 -0.1407
   48MOL0     H 6559   7.008   8.677   3.831  0.7631 -0.0555 -0.3102
   48MOL0     H 6560   6.947   8.516   3.855  0.9139  0.1593  1.0901
   48MOL0     H 6561   7.128   8.423   3.732 -0.5435  0.4732  0.6921
   48MOL0     H 6562   7.202   8.577   3.678  2.4732 -0.8391  0.9812
   48MOL0     H 6563   7.248   8.647   3.907 -2.3881  2.5264 -2.4590
   48MOL0     H 6564   7.170   8.503   3.975  1.9836 -2.7158  0.4383
   48MOL0     H 6565   7.380   8.453   3.768 -0.5597  2.3912 -1.0800
   48MOL0     H 6566   7.311   8.350   3.902  0.0318  0.8127  2.4531
   48MOL0     H 6567   7.555   8.441   3.923  0.4865  0.5004 -0.0540
   48MOL0     H 6568   7.493   8.602   3.930  1.3323 -0.7227 -1.4918
   48MOL0     H 6569   7.351   8.520   4.132 -2.4759 -4.2138 -2.7530
   48MOL0     H 6570   7.529   8.553   4.141 -1.9294  3.4725  0.7401
   48MOL0     H 6571   7.415   8.318   4.249 -2.1485 -0.7398 -1.0520
   48MOL0     H 6572   7.411   8.269   4.081  3.4830 -0.9381 -2.2401
   48MOL0     H 6573   7.699   8.412   4.325 -1.1157  0.3615 -0.1444
   48MOL0     H 6574   7.928   8.311   4.393  1.8206  0.7572 -0.0542
   48MOL0     H 6575   8.009   8.304   4.238  1.1485 -1.8913  0.5970
   48MOL0     H 6576   7.905   8.061   4.407  0.7382  0.4497  1.4036
   48MOL0     H 6577   7.999   8.047   4.257  1.6341 -0.3453  0.0354
   48MOL0     H 6578   8.104   8.189   4.503 -1.9220 -1.1551  1.5577
   48MOL0     H 6579   8.098   8.010   4.491  2.3280  0.4768  1.8698
   48MOL0     H 6580   8.243   8.027   4.293  1.9696 -2.0031  2.7834
   48MOL0     H 6581   8.239   8.210   4.289  7.0626  2.5686  2.7761
   48MOL0     H 6582   8.479   8.351   4.479 -0.9442 -2.4677  2.5170
   48MOL0     H 6583   8.641   8.511   4.436 -0.6871 -0.0868 -0.5506
   48MOL0     H 6584   8.705   8.496   4.276 -0.7230 -2.8760 -1.9753
   48MOL0     H 6585   8.801   8.439   4.428  0.0497 -0.7840 -0.8237
   48MOL0     H 6586   9.047   8.461   4.160 -3.2521  0.5839 -0.8459
   48MOL0     H 6587   9.230   8.535   4.004 -0.1539  0.1085  0.7125
   48MOL0     H 6588   9.435   8.355   3.727  0.8216  1.2280  0.7947
   48MOL0     H 6589   9.292   8.249   3.737 -0.0622  1.2993  3.8322
   48MOL0     H 6590   9.415   8.281   3.525 -1.3583  0.3248 -2.3166
   48MOL0     H 6591   9.243   8.306   3.518 -0.4981  2.2356 -1.4795
   48MOL0     H 6592   9.430   8.559   3.549 -0.2925  0.3431 -1.5800
   48MOL0     H 6593   9.271   8.545   3.473  0.7560  2.8875 -3.0394
   48MOL0     H 6594   9.340   8.445   3.286  1.0052 -1.1524 -0.1474
   48MOL0     H 6595   9.510   8.403   3.343  1.0938  1.5291 -0.1417
   48MOL0     H 6596   9.436   8.692   3.325  0.3858  1.4901 -1.0157
   48MOL0     H 6597   9.583   8.609   3.342  0.7456  0.8096 -1.2353
   48MOL0     H 6598   9.431   8.620   3.078  0.9641 -0.4946 -1.2689
   48MOL0     H 6599   9.548   8.496   3.109  4.0177  2.5186 -3.6320
   48MOL0     H 6600   9.606   8.784   3.145 -0.4435  1.3129 -2.1847
   48MOL0     H 6601   9.591   8.719   2.984  0.7035 -1.2809 -0.6444
   48MOL0     H 6602   9.792   8.637   3.194 -1.7089 -0.7981  0.2227
   48MOL0     H 6603   9.811   8.737   3.049  0.0112 -0.6978 -3.9415
   48MOL0     H 6604   9.055   8.314   3.685 -0.8049 -0.0206  0.4431
   48MOL0     H 6605   8.868   8.256   3.834  0.8606 -0.9064 -1.7772
   48MOL0     H 6606   8.706   8.030   4.172  0.4648 -1.6436  1.8194
   48MOL0     H 6607   8.498   7.963   4.280  2.9030 -2.1703  1.1052
   48MOL0     H 6608   6.568   8.671   3.659  0.8292  1.8198  0.2120
   48MOL0     H 6609   6.427   8.724   3.475  0.1081 -2.0293  0.3801
   48MOL0     H 6610   6.282   8.653   3.141  1.3841 -2.7608 -1.5527
   48MOL0     H 6611   6.101   8.664   2.961 -0.5983  0.0208  0.4983
   48MOL0     H 6612   5.968   8.942   2.901 -1.0268 -2.8315  0.2594
   48MOL0     H 6613   6.038   9.041   2.776 -0.1201 -0.1716  0.2105
   48MOL0     H 6614   5.840   8.816   2.716  0.6192 -0.1408  2.5133
   48MOL0     H 6615   5.893   8.937   2.604  1.0581  3.3367 -0.0422
   48MOL0     H 6616   5.779   9.113   2.757  0.8610 -0.6698  1.2537
   48MOL0     H 6617   5.679   9.002   2.672  1.7758 -0.8909 -1.1994
   48MOL0     H 6618   5.594   9.042   2.900 -1.0431 -2.2392 -1.1017
   48MOL0     H 6619   5.748   8.992   2.968 -0.3982 -0.0462  0.9466
   48MOL0     H 6620   5.515   8.635   2.853 -0.3806  0.0167  2.7975
   48MOL0     H 6621   6.285   8.991   2.772 -1.6301 -1.6840 -0.3931
   48MOL0     H 6622   6.531   9.088   3.001  0.7929  1.8792 -1.3746
   48MOL0     H 6623   6.592   8.966   2.889 -0.7577 -0.4194 -1.5816
   48MOL0     H 6624   6.472   9.083   2.836  0.1717 -0.3228  0.7315
   49MOL0     O 6625  10.378   4.681   5.132 -0.9953  0.0758 -0.5569
   49MOL0     C 6626  10.498   4.657   5.150  0.3298  0.3162  0.1079
   49MOL0     O 6627  10.550   4.564   5.242  0.2103 -0.3410  0.1846
   49MOL0     C 6628  10.463   4.521   5.346  0.2595  0.0701  0.0931
   49MOL0     C 6629  10.506   4.535   5.477  0.0358 -1.3045 -0.0558
   49MOL0     C 6630  10.418   4.529   5.586  0.8423  0.5808 -0.6415
   49MOL0     C 6631  10.285   4.492   5.569  0.0090  0.5571 -0.1337
   49MOL0     O 6632  10.196   4.476   5.681 -0.2370  0.2186  0.3190
   49MOL0     C 6633  10.070   4.401   5.682 -0.7131 -0.2713 -0.3055
   49MOL0     C 6634  10.095   4.251   5.673  0.2491 -0.0326  1.0644
   49MOL0     C 6635  10.192   4.187   5.781  0.5001  0.2949 -0.2112
   49MOL0     C 6636  10.143   4.056   5.839  0.7239 -0.4265 -0.6274
   49MOL0     C 6637  10.047   4.060   5.957 -0.4492  0.3305 -0.2701
   49MOL0     C 6638   9.902   4.050   5.915  0.0697  1.4681 -0.7763
   49MOL0     C 6639   9.800   4.052   6.036 -0.1678 -0.3602 -0.3362
   49MOL0     C 6640   9.659   4.011   5.986 -0.3911 -0.3294 -0.2441
   49MOL0     N 6641   9.571   3.997   6.106 -0.7733 -0.0490  0.2024
   49MOL0     C 6642   9.439   3.982   6.114 -0.2252  0.5710  0.9759
   49MOL0     C 6643   9.408   3.980   6.247 -0.1759  0.7617 -0.1241
   49MOL0     C 6644   9.277   3.984   6.311 -0.3035  0.2590  0.4378
   49MOL0     C 6645   9.232   4.123   6.348  0.4652  0.2292  0.6877
   49MOL0     C 6646   9.291   4.193   6.477 -0.1478 -0.4578  0.4298
   49MOL0     C 6647   9.279   4.109   6.607  0.0998  0.8185  0.0443
   49MOL0     O 6648   9.147   4.085   6.661 -0.3500  0.2557  0.2585
   49MOL0     C 6649   9.090   4.182   6.741 -0.1415 -0.2518  0.4355
   49MOL0     C 6650   9.159   4.282   6.806 -0.1557  0.4250 -0.5277
   49MOL0     C 6651   9.105   4.369   6.900  1.0315 -0.5797  0.3939
   49MOL0     C 6652   9.197   4.454   6.989 -0.4254 -0.4772 -0.4181
   49MOL0     C 6653   8.964   4.356   6.919  0.3063  0.7650 -0.2192
   49MOL0     C 6654   8.891   4.422   7.032  0.2772  0.6300 -0.4823
   49MOL0     O 6655   8.759   4.391   7.036  0.2070 -0.2190 -0.7534
   49MOL0     C 6656   8.679   4.494   7.082  0.7967  0.0131 -0.3943
   49MOL0     C 6657   8.695   4.554   7.212 -0.1059  0.1082 -0.5349
   49MOL0     C 6658   8.604   4.648   7.256 -0.8505  0.1646  1.1074
   49MOL0     C 6659   8.513   4.704   7.165 -0.7583  0.7594  0.6583
   49MOL0     O 6660   8.440   4.802   7.218 -0.6107 -0.3162  0.0419
   49MOL0     C 6661   8.384   4.909   7.132 -0.6281 -0.7820 -0.2195
   49MOL0     C 6662   8.349   5.037   7.201 -0.6779 -0.5998  0.0314
   49MOL0     C 6663   8.471   5.097   7.278 -0.1004  0.7044  0.6319
   49MOL0     C 6664   8.426   5.221   7.366  0.3336 -0.6729 -0.0356
   49MOL0     C 6665   8.521   5.280   7.459 -0.5122  0.4001  0.6169
   49MOL0     C 6666   8.588   5.178   7.548  0.1388  0.2387 -0.5222
   49MOL0     C 6667   8.482   5.113   7.642  0.4081  0.0802  0.0868
   49MOL0     C 6668   8.536   4.990   7.710 -0.4464  0.5344 -0.4722
   49MOL0    Cl 6669   8.605   4.861   7.594 -0.0050  0.2521  0.0607
   49MOL0     C 6670   8.495   4.658   7.034 -0.7866  0.1937  0.0660
   49MOL0     C 6671   8.584   4.551   6.993 -0.1440  0.5454 -0.5148
   49MOL0     O 6672   8.944   4.505   7.101 -1.2183 -0.0158  0.5048
   49MOL0     C 6673   8.885   4.269   6.833  0.4083  0.4967  0.8095
   49MOL0     C 6674   8.955   4.180   6.752  0.0430  0.1917  0.2192
   49MOL0     N 6675   9.530   3.967   6.318  0.1971 -0.9735  0.3169
   49MOL0     N 6676   9.620   3.989   6.231 -1.1144  0.3217 -0.4081
   49MOL0     C 6677  10.242   4.466   5.431 -0.0562  0.4441  0.3477
   49MOL0     C 6678  10.329   4.486   5.325  0.1143  0.2200 -0.0532
   49MOL0     C 6679  10.596   4.741   5.074  0.1719 -0.6251 -0.6748
   49MOL0     C 6680  10.558   4.805   4.955  0.3335 -0.3195 -0.1519
   49MOL0     C 6681  10.651   4.862   4.870 -0.5272 -0.1386  0.3016
   49MOL0     C 6682  10.781   4.885   4.904 -1.3653 -0.1408 -0.2166
   49MOL0     O 6683  10.865   4.947   4.811 -0.3425 -0.8381 -0.5062
   49MOL0     C 6684  11.002   4.972   4.862 -0.9174  0.1150 -0.4325
   49MOL0     C 6685  11.081   5.081   4.795  0.2096 -0.5018 -0.1098
   49MOL0     C 6686  11.011   5.180   4.705 -0.8581 -0.1481 -0.3792
   49MOL0     C 6687  10.927   5.272   4.787 -0.2736  0.4039 -0.1420
   49MOL0     C 6688  10.995   5.402   4.818  1.2109  0.1354 -0.6769
   49MOL0     C 6689  11.056   5.501   4.849  0.2267  0.0921  0.1458
   49MOL0     C 6690  10.825   4.826   5.019  0.1396  0.3331  0.1199
   49MOL0     C 6691  10.735   4.758   5.104 -0.9638 -0.7844 -0.0315
   49MOL0     C 6692  10.794   4.707   5.235 -0.8398  0.7932  0.5805
   49MOL0     H 6693  10.609   4.570   5.490 -0.7873  1.3222  0.0344
   49MOL0     H 6694  10.452   4.565   5.682  1.8142 -1.1100 -0.3132
   49MOL0     H 6695  10.000   4.435   5.605 -2.0617  1.8242  1.7019
   49MOL0     H 6696  10.023   4.424   5.778 -0.5309 -0.8247 -0.0811
   49MOL0     H 6697   9.996   4.206   5.669  0.8780 -1.3845 -1.3172
   49MOL0     H 6698  10.146   4.225   5.580 -1.6448 -0.3694  0.0729
   49MOL0     H 6699  10.286   4.175   5.726 -0.0824  0.2003 -1.2181
   49MOL0     H 6700  10.200   4.253   5.868  1.8656  0.6715 -0.6029
   49MOL0     H 6701  10.085   4.010   5.759  1.0956  0.2602 -1.3126
   49MOL0     H 6702  10.229   3.992   5.861  0.3934 -0.8700 -0.6299
   49MOL0     H 6703  10.070   4.145   6.022  0.0812 -0.2597  0.3462
   49MOL0     H 6704  10.067   3.975   6.023  1.0426  1.8303  1.3065
   49MOL0     H 6705   9.884   4.125   5.838  1.4677  3.0952  0.4227
   49MOL0     H 6706   9.887   3.960   5.854  2.3854  0.7387 -0.3800
   49MOL0     H 6707   9.802   4.153   6.076 -0.0601 -1.8275  3.8406
   49MOL0     H 6708   9.831   3.977   6.109 -1.9674  0.1811  1.0369
   49MOL0     H 6709   9.622   4.081   5.910  1.9513  0.4818 -0.7226
   49MOL0     H 6710   9.674   3.915   5.937  1.0675 -0.1464 -0.1855
   49MOL0     H 6711   9.368   3.978   6.031 -1.8198 -0.5499  2.3410
   49MOL0     H 6712   9.284   3.934   6.408  3.9507  0.8279  0.5874
   49MOL0     H 6713   9.204   3.938   6.243 -1.2483  2.4101 -0.0794
   49MOL0     H 6714   9.278   4.183   6.269  3.3674 -0.2017  1.9231
   49MOL0     H 6715   9.123   4.129   6.358  0.6305  1.4332  2.3318
   49MOL0     H 6716   9.397   4.213   6.457 -0.1580 -1.5337 -0.8928
   49MOL0     H 6717   9.233   4.285   6.477 -2.5855 -1.8033 -2.4686
   49MOL0     H 6718   9.309   4.006   6.586  0.8388  0.6783  1.6306
   49MOL0     H 6719   9.347   4.156   6.679 -0.0406  1.4616 -0.2403
   49MOL0     H 6720   9.268   4.279   6.805 -0.1512 -0.3904  0.5925
   49MOL0     H 6721   9.166   4.558   6.979 -2.1013 -1.0333 -1.3793
   49MOL0     H 6722   9.300   4.432   6.960 -0.6732 -1.3738 -0.6451
   49MOL0     H 6723   9.196   4.432   7.096 -0.7453 -0.6721 -0.4600
   49MOL0     H 6724   8.766   4.528   7.290  0.5409  1.7747 -0.5424
   49MOL0     H 6725   8.610   4.681   7.359  0.3842 -0.0049  1.0992
   49MOL0     H 6726   8.448   4.934   7.046  2.0254  0.6813  2.0181
   49MOL0     H 6727   8.286   4.872   7.098 -0.7240  0.5531 -1.5055
   49MOL0     H 6728   8.314   5.116   7.134  0.5668 -0.2434 -0.2240
   49MOL0     H 6729   8.266   5.011   7.267 -2.4525  1.3847 -1.2908
   49MOL0     H 6730   8.538   5.136   7.201 -3.4019  0.3770 -2.6973
   49MOL0     H 6731   8.516   5.013   7.332  3.5347 -0.4203 -3.5963
   49MOL0     H 6732   8.337   5.189   7.420  0.4779  0.8265  1.1441
   49MOL0     H 6733   8.395   5.303   7.300  0.8643 -2.8753 -3.3102
   49MOL0     H 6734   8.605   5.323   7.402  0.8822 -2.9788 -0.1033
   49MOL0     H 6735   8.465   5.353   7.519 -1.1073 -0.3511  0.9895
   49MOL0     H 6736   8.667   5.218   7.611 -0.8743 -0.5279  1.3150
   49MOL0     H 6737   8.645   5.114   7.479  3.5651  1.8492  0.6228
   49MOL0     H 6738   8.391   5.091   7.586 -0.2014  2.2896  0.0940
   49MOL0     H 6739   8.462   5.187   7.720 -0.3044 -0.3705  0.3397
   49MOL0     H 6740   8.456   4.940   7.766 -1.0100 -0.5535 -2.1813
   49MOL0     H 6741   8.611   5.027   7.781  0.8683 -0.2772 -1.3978
   49MOL0     H 6742   8.411   4.699   6.980 -1.5604 -2.3547 -0.8295
   49MOL0     H 6743   8.583   4.506   6.894 -0.1981 -0.1230 -0.2162
   49MOL0     H 6744   8.778   4.254   6.843  0.0253  2.0834 -0.4209
   49MOL0     H 6745   8.881   4.115   6.706 -0.4142  0.4877  0.5196
   49MOL0     H 6746  10.143   4.420   5.431  0.6107 -1.6734 -5.0005
   49MOL0     H 6747  10.289   4.450   5.231 -0.1120  0.3184  0.0034
   49MOL0     H 6748  10.451   4.805   4.935  0.2253 -0.7416  0.4322
   49MOL0     H 6749  10.611   4.901   4.777 -1.3985 -4.5667 -1.4625
   49MOL0     H 6750  11.002   4.986   4.970 -2.1645 -0.9178 -0.2737
   49MOL0     H 6751  11.057   4.879   4.847 -2.3269 -1.4280  3.0768
   49MOL0     H 6752  11.168   5.041   4.744 -0.2173 -0.6200 -0.7576
   49MOL0     H 6753  11.117   5.139   4.880 -1.1602 -1.1848  0.9833
   49MOL0     H 6754  11.078   5.245   4.649  0.8536 -1.6499 -0.1820
   49MOL0     H 6755  10.951   5.122   4.634 -1.3539 -0.4796  0.2923
   49MOL0     H 6756  10.883   5.235   4.880  1.9651 -3.8670 -0.5684
   49MOL0     H 6757  10.846   5.297   4.719 -0.4107 -2.1206 -1.0012
   49MOL0     H 6758  11.126   5.578   4.874  0.3532 -0.0218  0.1440
   49MOL0     H 6759  10.930   4.832   5.047  0.8337 -0.0749 -2.2205
   49MOL0     H 6760  10.732   4.695   5.323  0.2619 -1.0974  1.1538
   49MOL0     H 6761  10.835   4.606   5.227  1.3895  1.5505  1.6265
   49MOL0     H 6762  10.873   4.775   5.269 -1.0992  0.3278  2.2029
   50MOL0     O 6763   0.466   0.941   5.090  0.7406 -0.4108  0.6278
   50MOL0     C 6764   0.399   0.994   5.186 -0.1318  0.2099  0.1957
   50MOL0     O 6765   0.449   1.054   5.296  0.2509 -0.0370  0.6678
   50MOL0     C 6766   0.574   1.046   5.333  0.2056  0.1159  0.4585
   50MOL0     C 6767   0.673   1.085   5.244 -0.7120 -0.0984  0.0303
   50MOL0     C 6768   0.811   1.076   5.279 -0.1881  0.7617  0.4047
   50MOL0     C 6769   0.853   1.030   5.407  0.7049  0.5752  0.2989
   50MOL0     O 6770   0.979   1.012   5.457 -0.3211  0.2284 -0.6223
   50MOL0     C 6771   1.096   1.065   5.400  0.2995  0.3415 -0.2273
   50MOL0     C 6772   1.221   1.022   5.467  0.1941 -0.5960 -1.2613
   50MOL0     C 6773   1.350   1.105   5.438  0.4922  0.0175  0.1296
   50MOL0     C 6774   1.460   1.025   5.370 -0.0191 -0.0291 -0.6106
   50MOL0     C 6775   1.556   1.116   5.301 -0.6075 -0.0757  1.1369
   50MOL0     C 6776   1.671   1.032   5.243  0.2728  0.3707 -0.3271
   50MOL0     C 6777   1.795   1.033   5.343  0.8390  0.1410  0.6798
   50MOL0     C 6778   1.767   0.973   5.480 -0.0871  0.5833  0.2942
   50MOL0     N 6779   1.890   0.973   5.564  0.4514 -0.1881 -0.3667
   50MOL0     C 6780   1.967   0.871   5.605  0.2821  0.4206 -0.4995
   50MOL0     C 6781   2.070   0.934   5.665 -0.2818 -0.4268 -0.0540
   50MOL0     C 6782   2.183   0.878   5.738 -0.8220  0.7733 -0.2562
   50MOL0     C 6783   2.122   0.812   5.867 -0.1354  0.3531 -0.1630
   50MOL0     C 6784   2.221   0.746   5.955  0.3358  0.2925 -0.6120
   50MOL0     C 6785   2.168   0.634   6.049  0.2705 -0.0075  0.8142
   50MOL0     O 6786   2.087   0.702   6.144  0.0749 -0.3935 -0.3040
   50MOL0     C 6787   2.089   0.671   6.275 -0.4113 -0.0651  0.2189
   50MOL0     C 6788   2.154   0.555   6.328  0.8189  0.2763  1.1979
   50MOL0     C 6789   2.160   0.536   6.470 -0.3970 -1.3217  0.7398
   50MOL0     C 6790   2.224   0.412   6.513 -0.2143  0.3631  0.2415
   50MOL0     C 6791   2.102   0.630   6.560 -0.4527  0.7866  0.0433
   50MOL0     C 6792   2.122   0.620   6.708  0.0173 -0.5018 -0.5648
   50MOL0     O 6793   2.203   0.535   6.775 -0.0629  0.2166  0.0275
   50MOL0     C 6794   2.177   0.515   6.913  0.4828  0.2180  0.2922
   50MOL0     C 6795   2.111   0.394   6.931  0.0359 -0.6610 -0.0226
   50MOL0     C 6796   2.092   0.366   7.069 -0.3473 -0.0203  0.2967
   50MOL0     C 6797   2.142   0.451   7.172  0.1502 -0.3248 -0.5982
   50MOL0     O 6798   2.132   0.414   7.304 -0.0643 -0.1839  0.8170
   50MOL0     C 6799   2.121   0.514   7.407 -0.2090 -0.0188 -0.1596
   50MOL0     C 6800   2.091   0.439   7.533  0.1360  0.6111  0.4460
   50MOL0     C 6801   2.196   0.333   7.590  0.7519  0.9224  0.0854
   50MOL0     C 6802   2.153   0.239   7.699  0.3292  0.7993  0.1207
   50MOL0     C 6803   2.265   0.143   7.752  0.2181  0.1890 -0.4556
   50MOL0     C 6804   2.325   0.042   7.654  0.3489  0.2020  0.5456
   50MOL0     C 6805   2.420  -0.059   7.704  0.7338  0.3306 -0.6248
   50MOL0     C 6806   2.507  -0.114   7.588 -0.9030 -0.4953  0.2735
   50MOL0    Cl 6807   2.633  -0.218   7.664 -0.4673 -0.2399 -0.0493
   50MOL0     C 6808   2.208   0.576   7.141 -0.0251 -0.4164  0.2072
   50MOL0     C 6809   2.224   0.609   7.013 -0.4520 -0.0677  0.9815
   50MOL0     O 6810   2.045   0.700   6.768 -0.1608 -0.1348  0.2139
   50MOL0     C 6811   2.037   0.733   6.498 -0.3988 -0.9777 -0.5018
   50MOL0     C 6812   2.034   0.755   6.363  0.0591 -0.3458 -0.1154
   50MOL0     N 6813   2.045   1.067   5.670  0.5343 -0.4693  0.1614
   50MOL0     N 6814   1.928   1.080   5.630 -0.2130  0.5444  0.8963
   50MOL0     C 6815   0.748   1.002   5.495  0.5132  0.5006  0.5095
   50MOL0     C 6816   0.612   1.001   5.454  0.2008 -0.5968  0.3144
   50MOL0     C 6817   0.252   0.984   5.185 -0.0920  0.2960 -0.7597
   50MOL0     C 6818   0.183   0.974   5.309  0.6618 -0.0172  0.5364
   50MOL0     C 6819   0.044   0.967   5.314 -0.6355 -0.5036  0.5145
   50MOL0     C 6820  -0.028   0.949   5.199  0.1888  0.0677  0.0495
   50MOL0     O 6821  -0.169   0.945   5.193 -0.0368  1.2254 -0.3744
   50MOL0     C 6822  -0.248   0.995   5.297  0.6102  0.0935 -0.3101
   50MOL0     C 6823  -0.379   0.923   5.296  0.0273  0.3584  0.5520
   50MOL0     C 6824  -0.450   0.918   5.159  0.0249 -1.2062 -0.2549
   50MOL0     C 6825  -0.602   0.950   5.171  0.7218  0.2753 -0.4175
   50MOL0     C 6826  -0.695   0.837   5.207 -0.8125  0.3219 -0.3229
   50MOL0     C 6827  -0.771   0.743   5.236  0.3167  0.5446  0.2117
   50MOL0     C 6828   0.033   0.963   5.075  0.7779 -0.1363 -0.2678
   50MOL0     C 6829   0.170   0.987   5.070  0.5343  0.6026 -1.3031
   50MOL0     C 6830   0.223   1.013   4.932 -0.1724  1.1407  1.3093
   50MOL0     H 6831   0.644   1.119   5.145 -4.1669 -1.5774  0.4061
   50MOL0     H 6832   0.886   1.107   5.206  2.1337 -1.8975  1.4890
   50MOL0     H 6833   1.091   1.175   5.405 -1.0884  0.2974 -0.4325
   50MOL0     H 6834   1.101   1.042   5.293  0.2048  2.8172 -0.8359
   50MOL0     H 6835   1.203   1.022   5.575  2.5750  1.8350 -0.7626
   50MOL0     H 6836   1.237   0.915   5.449  0.1055 -0.8495  0.0658
   50MOL0     H 6837   1.329   1.200   5.387 -2.0483  0.3283  1.6115
   50MOL0     H 6838   1.378   1.139   5.538  2.0460 -3.2380  0.9315
   50MOL0     H 6839   1.511   0.961   5.442  0.7068 -2.8182 -3.3756
   50MOL0     H 6840   1.413   0.966   5.291 -0.9871 -0.3269  0.1627
   50MOL0     H 6841   1.605   1.188   5.367 -1.0034  0.0475  1.2946
   50MOL0     H 6842   1.509   1.174   5.221  0.0370 -1.9975 -0.7318
   50MOL0     H 6843   1.640   0.929   5.222 -0.4812  0.6335 -0.5530
   50MOL0     H 6844   1.698   1.079   5.148  0.1072  0.7837 -0.1758
   50MOL0     H 6845   1.831   1.133   5.367  0.8543 -0.1505  1.9508
   50MOL0     H 6846   1.872   0.979   5.286 -0.0346  2.1529 -2.6936
   50MOL0     H 6847   1.698   1.030   5.542 -1.0834  1.1222 -1.2479
   50MOL0     H 6848   1.722   0.874   5.470  2.5742 -0.6007 -1.2694
   50MOL0     H 6849   1.950   0.765   5.585 -0.4231  0.4180  0.0943
   50MOL0     H 6850   2.259   0.951   5.767  0.6892 -0.4134 -1.0694
   50MOL0     H 6851   2.233   0.802   5.677  1.2054  0.7442  1.3355
   50MOL0     H 6852   2.056   0.884   5.916  0.8286 -0.5740  2.6759
   50MOL0     H 6853   2.060   0.726   5.838  0.1824 -0.4779  1.5041
   50MOL0     H 6854   2.300   0.710   5.889 -0.3943  0.1693 -1.4374
   50MOL0     H 6855   2.257   0.818   6.030  0.5368 -2.1067  1.7600
   50MOL0     H 6856   2.123   0.555   5.988  2.8854 -1.1860  0.2974
   50MOL0     H 6857   2.259   0.592   6.093 -0.1317  0.3126  2.0004
   50MOL0     H 6858   2.192   0.485   6.255 -2.0687 -0.4066  0.1984
   50MOL0     H 6859   2.214   0.342   6.429 -0.5978 -0.4291  0.9322
   50MOL0     H 6860   2.172   0.373   6.601 -1.5852  1.7143  0.0717
   50MOL0     H 6861   2.332   0.420   6.526  0.1363  1.3144 -2.5456
   50MOL0     H 6862   2.090   0.325   6.850  0.1421 -1.4112  0.5784
   50MOL0     H 6863   2.043   0.273   7.094  0.4224 -0.0317  1.8326
   50MOL0     H 6864   2.216   0.568   7.418  0.6953 -1.8268  1.6432
   50MOL0     H 6865   2.035   0.576   7.380 -1.4170 -1.6292 -0.1625
   50MOL0     H 6866   2.085   0.517   7.609 -0.8725  0.8019  0.1894
   50MOL0     H 6867   1.992   0.394   7.518 -0.3298  2.2442 -2.0022
   50MOL0     H 6868   2.288   0.386   7.619  1.8252 -0.2485 -1.0165
   50MOL0     H 6869   2.224   0.264   7.509  0.1536  2.9617 -1.9689
   50MOL0     H 6870   2.066   0.183   7.664  1.7106 -1.1418 -0.4267
   50MOL0     H 6871   2.121   0.301   7.783 -2.4208 -1.4185  0.8596
   50MOL0     H 6872   2.350   0.201   7.789  0.2253  0.2384 -0.5522
   50MOL0     H 6873   2.223   0.081   7.832  0.3966  0.1458 -0.3950
   50MOL0     H 6874   2.369   0.100   7.573 -2.2670 -0.3778 -1.4032
   50MOL0     H 6875   2.245  -0.014   7.605 -0.0653  1.5111 -0.3096
   50MOL0     H 6876   2.368  -0.146   7.746  0.3630 -1.2532 -4.0446
   50MOL0     H 6877   2.477  -0.010   7.784  2.3526 -1.9399 -0.2586
   50MOL0     H 6878   2.556  -0.028   7.543  0.2474  1.7120  5.0324
   50MOL0     H 6879   2.443  -0.170   7.520  2.0713  0.0233 -3.2205
   50MOL0     H 6880   2.257   0.639   7.216  3.2019 -0.4991 -1.6246
   50MOL0     H 6881   2.278   0.699   6.987 -3.5920  1.7110  0.0837
   50MOL0     H 6882   1.988   0.801   6.566  1.3256 -3.2451  3.3583
   50MOL0     H 6883   1.987   0.850   6.340  0.8789  0.1110  0.0417
   50MOL0     H 6884   0.758   0.966   5.597  0.4522 -2.3797 -0.3904
   50MOL0     H 6885   0.538   0.961   5.523  1.6002  2.6386  4.0780
   50MOL0     H 6886   0.238   0.988   5.402  0.5690  1.8273  0.3547
   50MOL0     H 6887   0.014   0.963   5.418  2.2515  0.7660  1.5075
   50MOL0     H 6888  -0.211   0.989   5.400 -1.3389 -0.3102  0.4174
   50MOL0     H 6889  -0.260   1.102   5.280 -0.1937  0.0631 -0.0234
   50MOL0     H 6890  -0.428   0.979   5.376  0.4640  2.6134 -0.6774
   50MOL0     H 6891  -0.359   0.821   5.329  0.9158 -0.0409 -1.1301
   50MOL0     H 6892  -0.410   0.990   5.087 -0.4394  0.9893  1.5640
   50MOL0     H 6893  -0.441   0.816   5.119  1.0933 -0.6747 -1.4342
   50MOL0     H 6894  -0.643   0.993   5.079 -2.1813 -1.9709 -0.3107
   50MOL0     H 6895  -0.619   1.027   5.247  3.1986  2.0107 -1.4780
   50MOL0     H 6896  -0.835   0.659   5.255 -0.7773  1.3350  0.1375
   50MOL0     H 6897  -0.019   0.985   4.982  0.9134  1.0494 -0.0795
   50MOL0     H 6898   0.151   1.061   4.865 -0.7856 -1.7161 -0.2007
   50MOL0     H 6899   0.302   1.087   4.947 -0.3419  1.1905  1.9901
   50MOL0     H 6900   0.264   0.929   4.876  2.9120  3.0144  0.5029
   51MOL0     O 6901  11.074  11.032   1.229  0.2231  0.4018 -0.0043
   51MOL0     C 6902  11.048  10.924   1.276 -0.2659 -0.1838 -0.1796
   51MOL0     O 6903  11.121  10.867   1.381 -0.0158  1.3272  0.0116
   51MOL0     C 6904  11.210  10.943   1.441  1.0585  0.6105 -0.0733
   51MOL0     C 6905  11.182  11.062   1.504 -0.6747 -0.0944 -0.3111
   51MOL0     C 6906  11.289  11.125   1.576  1.1140 -0.3578 -0.2648
   51MOL0     C 6907  11.413  11.078   1.577  0.0087  0.4588  0.4868
   51MOL0     O 6908  11.497  11.145   1.653 -0.3156  0.6029 -0.8631
   51MOL0     C 6909  11.624  11.174   1.598  0.7693 -0.5109 -0.6924
   51MOL0     C 6910  11.720  11.221   1.712  0.2008  0.5929 -0.0195
   51MOL0     C 6911  11.866  11.230   1.654 -0.6832  0.8512 -0.2365
   51MOL0     C 6912  11.961  11.295   1.751  0.9084  0.0953 -0.3181
   51MOL0     C 6913  12.106  11.313   1.692  0.5258  0.1064  0.0204
   51MOL0     C 6914  12.134  11.400   1.573 -0.3545  0.3032 -0.0469
   51MOL0     C 6915  12.279  11.377   1.526 -0.4248  0.0201  1.4123
   51MOL0     C 6916  12.329  11.511   1.480  0.2188 -0.1065 -1.5826
   51MOL0     N 6917  12.466  11.489   1.422  0.8241  0.5391  0.2562
   51MOL0     C 6918  12.580  11.441   1.492 -0.1300 -0.1762  0.1889
   51MOL0     C 6919  12.685  11.446   1.406 -0.0788 -0.4527  0.1372
   51MOL0     C 6920  12.831  11.412   1.434 -0.8462 -0.6179 -0.7154
   51MOL0     C 6921  12.922  11.526   1.425  0.3497  0.1005 -0.1457
   51MOL0     C 6922  12.905  11.642   1.540 -1.1059  0.6242  0.2498
   51MOL0     C 6923  12.996  11.755   1.491 -0.4051 -1.8693  0.8447
   51MOL0     O 6924  12.933  11.883   1.531  0.3605  0.4460 -0.3856
   51MOL0     C 6925  13.011  11.999   1.495  0.3519  1.0258 -0.0480
   51MOL0     C 6926  12.987  12.109   1.578  0.5737  0.3788  0.2523
   51MOL0     C 6927  13.055  12.234   1.567  0.5587  0.1161 -0.3972
   51MOL0     C 6928  13.024  12.331   1.682 -0.8619  0.2329  0.4974
   51MOL0     C 6929  13.145  12.255   1.455 -0.2511  0.5349  1.0729
   51MOL0     C 6930  13.217  12.383   1.429 -0.6553  0.7102  0.7973
   51MOL0     O 6931  13.308  12.375   1.331 -0.4777  0.0744  0.2849
   51MOL0     C 6932  13.382  12.484   1.282  0.5528  0.2852  0.3673
   51MOL0     C 6933  13.354  12.546   1.163  0.6531 -0.1019 -0.2254
   51MOL0     C 6934  13.424  12.657   1.115 -0.2958  0.8883 -1.2141
   51MOL0     C 6935  13.537  12.701   1.184 -0.2058  0.4550 -0.0947
   51MOL0     O 6936  13.604  12.804   1.125  0.5534  0.0244 -0.2490
   51MOL0     C 6937  13.681  12.890   1.212  0.3062 -0.3209 -0.2438
   51MOL0     C 6938  13.828  12.845   1.240 -1.1849  0.6595  0.9951
   51MOL0     C 6939  13.912  12.937   1.322  0.6044 -0.2565  0.0183
   51MOL0     C 6940  14.014  12.850   1.397 -0.2025 -0.0263 -0.4572
   51MOL0     C 6941  14.114  12.934   1.483  0.3178 -0.2712 -0.4589
   51MOL0     C 6942  14.173  12.862   1.607  0.7327  0.5355  0.3096
   51MOL0     C 6943  14.254  12.967   1.681  0.3887 -0.1831 -0.3621
   51MOL0     C 6944  14.329  12.909   1.796 -0.0475  0.2469  0.2105
   51MOL0    Cl 6945  14.488  12.852   1.746 -0.3205 -0.3138 -0.0483
   51MOL0     C 6946  13.569  12.645   1.309  0.3335 -0.4100 -0.8956
   51MOL0     C 6947  13.491  12.542   1.356 -0.0037 -0.2329  0.2163
   51MOL0     O 6948  13.185  12.490   1.484  0.2313 -0.1929  0.6962
   51MOL0     C 6949  13.156  12.148   1.369 -0.2631 -0.4162  0.4199
   51MOL0     C 6950  13.094  12.016   1.389 -0.3060 -0.0694  0.7976
   51MOL0     N 6951  12.636  11.507   1.287 -0.2031  0.5961  0.1839
   51MOL0     N 6952  12.509  11.526   1.298 -0.6045 -0.0365  0.0046
   51MOL0     C 6953  11.439  10.954   1.511 -0.9666 -0.0967 -0.7294
   51MOL0     C 6954  11.337  10.889   1.446 -0.3863  0.4587  0.4415
   51MOL0     C 6955  10.924  10.846   1.229  0.0319 -0.6479 -0.4229
   51MOL0     C 6956  10.886  10.729   1.311  0.1261 -0.8722 -0.0129
   51MOL0     C 6957  10.788  10.642   1.267 -0.0786 -0.5375 -0.2674
   51MOL0     C 6958  10.704  10.672   1.161 -0.0269 -0.5205 -0.0677
   51MOL0     O 6959  10.597  10.593   1.120  0.5879  0.0227  0.3645
   51MOL0     C 6960  10.636  10.451   1.100 -0.4654 -1.2854  0.1945
   51MOL0     C 6961  10.758  10.437   0.994  0.4042  0.3418 -0.0906
   51MOL0     C 6962  10.722  10.514   0.868  0.5742  0.2204  0.0212
   51MOL0     C 6963  10.854  10.528   0.780  0.8719  0.0983  0.3794
   51MOL0     C 6964  10.818  10.620   0.673  0.5226 -0.4641 -0.7637
   51MOL0     C 6965  10.795  10.691   0.579 -0.2060  0.1826 -0.1994
   51MOL0     C 6966  10.729  10.787   1.086  0.3100 -1.0595 -0.5667
   51MOL0     C 6967  10.838  10.876   1.117  0.5780 -0.4660  0.4422
   51MOL0     C 6968  10.852  10.995   1.036  0.0569 -0.3883 -0.0904
   51MOL0     H 6969  11.083  11.108   1.500 -0.7882 -0.3210 -0.1088
   51MOL0     H 6970  11.258  11.221   1.615 -2.6066 -1.6604  0.4133
   51MOL0     H 6971  11.602  11.258   1.530  2.4225 -0.1128 -0.7908
   51MOL0     H 6972  11.669  11.088   1.548  5.0169  0.4200  1.0123
   51MOL0     H 6973  11.679  11.310   1.760  0.0326 -0.6803  2.3588
   51MOL0     H 6974  11.727  11.154   1.798  1.0720  0.0703 -0.4755
   51MOL0     H 6975  11.882  11.124   1.635  1.9520  1.0975  0.2115
   51MOL0     H 6976  11.865  11.284   1.559 -4.8232 -0.9266 -1.4105
   51MOL0     H 6977  11.907  11.388   1.770  3.0145  1.4139 -0.5132
   51MOL0     H 6978  11.964  11.233   1.841 -2.2701 -0.7556 -0.6620
   51MOL0     H 6979  12.148  11.213   1.680  3.1076  1.0222  0.5406
   51MOL0     H 6980  12.159  11.349   1.781  1.7352  0.1455 -0.6900
   51MOL0     H 6981  12.071  11.377   1.487 -0.6922  3.4451 -0.7679
   51MOL0     H 6982  12.112  11.501   1.610 -1.1143 -0.6923  2.3874
   51MOL0     H 6983  12.272  11.304   1.444 -1.5909  1.7853 -0.1331
   51MOL0     H 6984  12.352  11.342   1.600 -0.5842  0.2704  1.6883
   51MOL0     H 6985  12.264  11.559   1.406 -0.1154 -1.3393 -2.1277
   51MOL0     H 6986  12.351  11.580   1.561 -1.8215  0.8238 -1.7609
   51MOL0     H 6987  12.594  11.400   1.592 -0.2465  1.6899  1.0177
   51MOL0     H 6988  12.865  11.333   1.365  0.3285 -1.3747  0.6782
   51MOL0     H 6989  12.855  11.385   1.537  1.5013  2.0208 -0.4407
   51MOL0     H 6990  13.024  11.485   1.430  0.7701  0.9996 -0.9750
   51MOL0     H 6991  12.906  11.574   1.328  1.2090  2.9695  1.0368
   51MOL0     H 6992  12.800  11.674   1.540 -1.4376 -0.0755 -3.0266
   51MOL0     H 6993  12.942  11.596   1.632 -3.6985 -1.9453  0.1591
   51MOL0     H 6994  13.098  11.739   1.527 -0.7958  0.3619  3.3380
   51MOL0     H 6995  13.005  11.759   1.382  0.4141 -1.6856  0.9107
   51MOL0     H 6996  12.911  12.092   1.653 -1.3158  4.1405 -0.5576
   51MOL0     H 6997  13.111  12.392   1.708  0.6040 -1.3205 -0.5290
   51MOL0     H 6998  13.007  12.277   1.775  1.5565 -0.9637  0.3275
   51MOL0     H 6999  12.938  12.396   1.666 -2.0114 -1.2703  0.3611
   51MOL0     H 7000  13.258  12.520   1.119  0.0328 -1.8196  1.9485
   51MOL0     H 7001  13.396  12.720   1.031 -0.5091  1.9289 -0.3783
   51MOL0     H 7002  13.687  12.981   1.151 -1.3329  0.2068  0.3441
   51MOL0     H 7003  13.617  12.910   1.298  3.9297  0.3226  2.5422
   51MOL0     H 7004  13.821  12.747   1.287 -1.5440 -0.0681 -0.5011
   51MOL0     H 7005  13.870  12.827   1.140 -2.1920 -0.8427  0.8147
   51MOL0     H 7006  13.845  12.992   1.388 -0.5010 -1.2714 -0.2088
   51MOL0     H 7007  13.967  13.004   1.256 -0.7179 -1.0100 -1.9328
   51MOL0     H 7008  14.070  12.800   1.318 -0.0668  1.1752 -1.1433
   51MOL0     H 7009  13.961  12.782   1.465 -0.6658  1.3492  0.6166
   51MOL0     H 7010  14.190  12.957   1.407 -2.0512  0.2853 -2.8317
   51MOL0     H 7011  14.066  13.028   1.508 -0.9236 -0.4950 -1.8580
   51MOL0     H 7012  14.225  12.773   1.572 -0.6107 -0.6519  1.2110
   51MOL0     H 7013  14.087  12.824   1.663  1.0279 -0.3746  0.1508
   51MOL0     H 7014  14.182  13.033   1.730 -0.6500 -1.2266 -0.4551
   51MOL0     H 7015  14.317  13.031   1.619  0.9388  1.2385  1.5560
   51MOL0     H 7016  14.270  12.833   1.849 -0.8007 -0.9188 -2.1482
   51MOL0     H 7017  14.349  12.994   1.862  2.5335 -0.7639  0.8333
   51MOL0     H 7018  13.660  12.663   1.365  0.3548 -0.6424 -0.8530
   51MOL0     H 7019  13.519  12.511   1.456 -2.2069  0.5902  1.1582
   51MOL0     H 7020  13.237  12.146   1.296  1.4505  0.2990  2.2165
   51MOL0     H 7021  13.112  11.925   1.332 -4.1835 -0.6140  0.1798
   51MOL0     H 7022  11.541  10.918   1.509 -1.4958 -1.9530 -4.5679
   51MOL0     H 7023  11.343  10.792   1.397 -5.5796 -0.6287  1.3243
   51MOL0     H 7024  10.939  10.692   1.398 -1.5734  0.2156  1.5553
   51MOL0     H 7025  10.756  10.554   1.321  2.4273 -1.0268  0.5299
   51MOL0     H 7026  10.667  10.414   1.198  0.5808  0.8624  0.7444
   51MOL0     H 7027  10.546  10.397   1.069  1.2236 -1.5809 -5.3304
   51MOL0     H 7028  10.777  10.332   0.970 -0.2391  0.2370 -0.1441
   51MOL0     H 7029  10.849  10.477   1.038  1.2488  1.2117 -2.4380
   51MOL0     H 7030  10.645  10.458   0.816  2.3221 -1.7236 -0.6126
   51MOL0     H 7031  10.685  10.615   0.887  0.2833  0.2792 -0.8402
   51MOL0     H 7032  10.889  10.433   0.738 -0.1830  1.0050 -2.8860
   51MOL0     H 7033  10.936  10.576   0.834  1.8698 -1.4222  0.2924
   51MOL0     H 7034  10.782  10.756   0.495  0.4799 -1.5082 -1.6808
   51MOL0     H 7035  10.659  10.823   1.011 -0.2355 -0.2171  0.3322
   51MOL0     H 7036  10.960  11.015   1.031  0.1351 -0.1873  1.7141
   51MOL0     H 7037  10.825  10.985   0.931  1.0527 -1.5841 -0.2699
   51MOL0     H 7038  10.810  11.083   1.085  2.9992  2.2258 -1.8938
   52MOL0     O 7039   2.457   2.536   1.795  0.2139 -0.0867 -0.4108
   52MOL0     C 7040   2.578   2.525   1.765  0.3311 -0.2178  0.0084
   52MOL0     O 7041   2.670   2.504   1.872 -0.1910 -0.4028  0.5598
   52MOL0     C 7042   2.635   2.434   1.984  0.0500  0.7493  0.8887
   52MOL0     C 7043   2.699   2.458   2.108 -1.0017  0.3500 -0.5283
   52MOL0     C 7044   2.678   2.379   2.221 -0.9038  0.5321  0.3409
   52MOL0     C 7045   2.595   2.270   2.223  0.1198  1.3248 -0.1617
   52MOL0     O 7046   2.582   2.197   2.341 -0.0957  0.9197  0.0251
   52MOL0     C 7047   2.527   2.061   2.347  0.2514  0.0482 -0.0951
   52MOL0     C 7048   2.549   2.020   2.494 -0.0149  0.1828  0.0017
   52MOL0     C 7049   2.699   2.023   2.538  0.7342  0.9566 -0.3380
   52MOL0     C 7050   2.793   1.952   2.436 -0.2874 -0.2371 -0.5216
   52MOL0     C 7051   2.938   1.924   2.488 -0.4907 -1.0251  0.6739
   52MOL0     C 7052   2.935   1.817   2.600  0.8293  0.3136 -0.8417
   52MOL0     C 7053   3.073   1.830   2.672 -0.8384  0.0242 -0.3542
   52MOL0     C 7054   3.098   1.707   2.761 -0.6249 -0.1688  0.6211
   52MOL0     N 7055   2.989   1.696   2.852 -0.2775  0.1428 -0.0790
   52MOL0     C 7056   2.943   1.577   2.900 -0.4666  0.1491 -0.7985
   52MOL0     C 7057   2.857   1.617   3.001  0.7015  0.3244 -0.0203
   52MOL0     C 7058   2.772   1.528   3.084  0.1322  0.0182  0.1565
   52MOL0     C 7059   2.860   1.475   3.194 -1.2501 -0.5912 -1.5886
   52MOL0     C 7060   2.798   1.362   3.266 -0.4786  0.5683 -0.1163
   52MOL0     C 7061   2.871   1.315   3.395 -0.3726 -0.8353  0.0628
   52MOL0     O 7062   3.012   1.318   3.369 -0.3892  0.3614 -0.1819
   52MOL0     C 7063   3.102   1.256   3.453  0.1579  0.4579  0.7278
   52MOL0     C 7064   3.084   1.125   3.494  0.0906 -0.7006 -0.7289
   52MOL0     C 7065   3.181   1.066   3.570  1.2045  0.5242 -0.7896
   52MOL0     C 7066   3.157   0.920   3.608  0.0881 -0.7190  0.2008
   52MOL0     C 7067   3.299   1.139   3.603 -0.1495  0.3666  0.1063
   52MOL0     C 7068   3.406   1.088   3.699  0.5821 -1.0120 -0.0881
   52MOL0     O 7069   3.532   1.142   3.688 -0.4251 -0.4915  0.1224
   52MOL0     C 7070   3.629   1.075   3.757 -0.0282 -0.3411 -0.7289
   52MOL0     C 7071   3.723   1.157   3.829  0.0796 -1.1732  1.2272
   52MOL0     C 7072   3.828   1.110   3.905  1.3206 -0.2326  0.3631
   52MOL0     C 7073   3.848   0.968   3.896 -0.1084  0.3370  0.0596
   52MOL0     O 7074   3.945   0.894   3.956  0.2014 -0.0182  0.7381
   52MOL0     C 7075   3.996   0.950   4.079 -0.1866  0.2017 -0.5345
   52MOL0     C 7076   4.069   0.843   4.156 -0.5173 -0.7597 -0.2720
   52MOL0     C 7077   3.983   0.721   4.195  0.4605 -0.3267  0.9769
   52MOL0     C 7078   4.037   0.633   4.299 -1.4197  0.3902  0.2448
   52MOL0     C 7079   3.953   0.505   4.303  0.3590  0.5736 -1.0662
   52MOL0     C 7080   3.984   0.421   4.423 -0.0208  0.3747 -0.4149
   52MOL0     C 7081   3.886   0.309   4.443  0.0045 -0.2068  0.0864
   52MOL0     C 7082   3.951   0.199   4.520 -0.6183 -0.2559 -0.3896
   52MOL0    Cl 7083   4.001   0.243   4.679  0.2658  0.1115 -0.1608
   52MOL0     C 7084   3.759   0.886   3.814 -1.5041 -0.5481  0.6695
   52MOL0     C 7085   3.655   0.943   3.745 -0.2318  1.0110 -0.6084
   52MOL0     O 7086   3.364   1.016   3.787 -0.5171 -1.1930  0.3168
   52MOL0     C 7087   3.320   1.265   3.551  0.7621 -0.1620  0.4309
   52MOL0     C 7088   3.217   1.323   3.482 -0.3641 -0.5181 -0.5013
   52MOL0     N 7089   2.853   1.752   3.011 -0.1100  0.2241  0.4265
   52MOL0     N 7090   2.936   1.798   2.924  0.5547 -0.9917 -1.2942
   52MOL0     C 7091   2.537   2.239   2.095  0.6414  0.0528 -1.0049
   52MOL0     C 7092   2.550   2.323   1.987  0.7852  0.5137  0.2854
   52MOL0     C 7093   2.629   2.547   1.620  0.4642  0.7987  0.1159
   52MOL0     C 7094   2.763   2.566   1.602 -0.1194  0.9299 -0.9105
   52MOL0     C 7095   2.832   2.582   1.482 -0.0645  0.4130 -0.2501
   52MOL0     C 7096   2.755   2.569   1.362 -0.1097 -0.4593 -0.3603
   52MOL0     O 7097   2.813   2.576   1.244 -0.0848 -1.2288 -0.2637
   52MOL0     C 7098   2.773   2.488   1.137  0.2043  0.3292 -0.2514
   52MOL0     C 7099   2.772   2.334   1.150 -0.9266 -0.1478  0.7978
   52MOL0     C 7100   2.908   2.265   1.157 -0.8484 -0.3676  0.2159
   52MOL0     C 7101   3.003   2.277   1.034  0.2729 -0.1152  1.2632
   52MOL0     C 7102   3.136   2.218   1.048 -0.1238 -1.0135 -0.3840
   52MOL0     C 7103   3.237   2.147   1.048  0.6930  0.1794  0.5170
   52MOL0     C 7104   2.615   2.550   1.372  0.0606 -0.3151 -0.0456
   52MOL0     C 7105   2.549   2.535   1.500  0.4157 -0.8697  0.7109
   52MOL0     C 7106   2.398   2.530   1.493 -0.1506 -0.1958 -0.2289
   52MOL0     H 7107   2.772   2.538   2.106 -0.6485  0.0337 -2.5598
   52MOL0     H 7108   2.722   2.405   2.316  2.0204 -0.9925 -0.4846
   52MOL0     H 7109   2.570   1.987   2.279 -0.3266 -0.6402  0.2664
   52MOL0     H 7110   2.418   2.062   2.338  0.1470 -1.4846  0.6204
   52MOL0     H 7111   2.486   2.084   2.556 -1.1980 -2.9871  2.3811
   52MOL0     H 7112   2.514   1.916   2.503  0.1690 -0.0205 -1.3491
   52MOL0     H 7113   2.738   2.125   2.545  1.4554  0.8052 -1.8104
   52MOL0     H 7114   2.698   1.976   2.637  0.4545 -0.3769 -0.9467
   52MOL0     H 7115   2.766   1.865   2.376 -1.0951  1.1285 -2.2278
   52MOL0     H 7116   2.811   2.029   2.360 -0.6122 -0.0342 -0.3938
   52MOL0     H 7117   2.989   2.010   2.533 -0.3244 -0.4890 -0.4869
   52MOL0     H 7118   3.002   1.901   2.402 -0.5246  2.0965 -0.3378
   52MOL0     H 7119   2.856   1.830   2.674  2.8118  1.5619  1.2052
   52MOL0     H 7120   2.915   1.720   2.555  1.2753  0.4515 -1.3493
   52MOL0     H 7121   3.080   1.926   2.723 -0.9860 -0.6563  0.9987
   52MOL0     H 7122   3.142   1.833   2.588 -2.3947  2.0911 -1.6305
   52MOL0     H 7123   3.108   1.619   2.697  2.1863  0.0661  0.6439
   52MOL0     H 7124   3.186   1.726   2.823  0.4412 -0.7250 -0.6710
   52MOL0     H 7125   2.968   1.474   2.874  3.7585  0.2010  2.1413
   52MOL0     H 7126   2.737   1.449   3.018 -2.5602  1.1405  0.1098
   52MOL0     H 7127   2.684   1.582   3.120 -0.3525 -1.2080  0.8685
   52MOL0     H 7128   2.956   1.441   3.154  1.0064 -0.8630  3.2987
   52MOL0     H 7129   2.880   1.558   3.263  0.1055 -2.5014  0.4714
   52MOL0     H 7130   2.701   1.399   3.301 -0.3267  1.8887 -1.0148
   52MOL0     H 7131   2.798   1.271   3.206  1.0283  1.6237 -1.8209
   52MOL0     H 7132   2.848   1.394   3.466  1.3432  1.3826 -1.6969
   52MOL0     H 7133   2.825   1.219   3.421 -2.9349  0.1895 -0.3867
   52MOL0     H 7134   2.993   1.070   3.474 -1.1065  1.5866 -1.9894
   52MOL0     H 7135   3.078   0.872   3.550 -0.6301 -1.3986  1.6724
   52MOL0     H 7136   3.140   0.908   3.716  0.1797  1.0061  0.4426
   52MOL0     H 7137   3.243   0.865   3.571 -1.0099 -2.2243 -0.2115
   52MOL0     H 7138   3.696   1.262   3.823 -0.9001 -1.4143  1.1074
   52MOL0     H 7139   3.891   1.168   3.972  2.3448 -1.5760  0.5822
   52MOL0     H 7140   4.074   1.023   4.056  1.5629 -1.5406 -0.5015
   52MOL0     H 7141   3.915   0.979   4.147  0.6158 -1.8994  1.5047
   52MOL0     H 7142   4.157   0.808   4.100 -0.7361 -0.7096 -0.6526
   52MOL0     H 7143   4.098   0.889   4.251 -1.3713 -0.7175 -0.0208
   52MOL0     H 7144   3.955   0.672   4.101  1.7776  1.2319 -0.2762
   52MOL0     H 7145   3.891   0.765   4.234 -1.3300 -0.1992 -2.9698
   52MOL0     H 7146   4.044   0.682   4.396 -0.1093  0.1294  0.3055
   52MOL0     H 7147   4.137   0.602   4.266 -0.7014  2.6708  0.0997
   52MOL0     H 7148   3.844   0.514   4.292 -0.0423 -2.3426 -0.1550
   52MOL0     H 7149   3.978   0.445   4.215 -3.8194  0.3461 -2.3517
   52MOL0     H 7150   3.988   0.476   4.518  0.4965 -2.3618  1.2755
   52MOL0     H 7151   4.080   0.369   4.410 -1.5569 -2.8117  0.0168
   52MOL0     H 7152   3.841   0.275   4.349  0.5163  0.4292 -0.3987
   52MOL0     H 7153   3.796   0.345   4.494  1.2591 -1.4653  3.4652
   52MOL0     H 7154   4.036   0.161   4.463 -0.2023 -0.9544  0.6576
   52MOL0     H 7155   3.876   0.120   4.530 -1.8782  0.8475 -0.8236
   52MOL0     H 7156   3.775   0.780   3.801 -0.1935 -0.1892 -0.9384
   52MOL0     H 7157   3.601   0.879   3.677 -2.3480  0.7291  1.2031
   52MOL0     H 7158   3.406   1.330   3.566 -0.3487  1.7902 -1.1176
   52MOL0     H 7159   3.219   1.430   3.462 -2.9149 -0.3465 -0.1849
   52MOL0     H 7160   2.465   2.158   2.090 -1.1973  1.6573 -2.1674
   52MOL0     H 7161   2.522   2.292   1.887  2.1577  1.9228 -0.5868
   52MOL0     H 7162   2.826   2.570   1.690 -0.3831  0.8346 -0.7174
   52MOL0     H 7163   2.939   2.597   1.480  0.1070 -0.7775 -1.6517
   52MOL0     H 7164   2.673   2.519   1.105 -0.6100 -0.5030  1.3989
   52MOL0     H 7165   2.838   2.505   1.050  2.1765 -0.7914  0.9329
   52MOL0     H 7166   2.713   2.291   1.068  0.0819  0.0887 -0.0749
   52MOL0     H 7167   2.724   2.303   1.243  0.7861 -2.9482  0.8857
   52MOL0     H 7168   2.963   2.301   1.245  3.3225  2.3370 -3.0702
   52MOL0     H 7169   2.890   2.157   1.160  3.4371 -1.3492 -1.4476
   52MOL0     H 7170   3.023   2.382   1.013  1.8668 -0.2532  2.0153
   52MOL0     H 7171   2.944   2.226   0.956 -0.3338  0.0102  1.6289
   52MOL0     H 7172   3.335   2.104   1.037  1.5570  2.4267 -1.5367
   52MOL0     H 7173   2.557   2.551   1.281 -0.9335 -1.7504  0.5338
   52MOL0     H 7174   2.363   2.619   1.546 -0.6790 -0.9467  0.7076
   52MOL0     H 7175   2.364   2.521   1.390  3.6293  2.2596 -1.9632
   52MOL0     H 7176   2.353   2.450   1.552 -0.5948  1.0969  1.2537
   53MOL0     O 7177   3.490   4.242  10.289  0.2303  0.7370  0.1713
   53MOL0     C 7178   3.370   4.253  10.280  0.2506  0.3059  0.4719
   53MOL0     O 7179   3.279   4.221  10.374 -0.2462  1.1406 -0.1756
   53MOL0     C 7180   3.326   4.182  10.493 -0.3048 -0.6839  0.0622
   53MOL0     C 7181   3.340   4.054  10.529  0.4218  0.5038 -0.0577
   53MOL0     C 7182   3.365   4.014  10.662 -0.3705  0.2273  1.1713
   53MOL0     C 7183   3.404   4.117  10.755 -0.4910 -0.4010 -0.0044
   53MOL0     O 7184   3.456   4.100  10.882 -0.1100  0.1014 -0.5501
   53MOL0     C 7185   3.480   3.972  10.940 -0.7134  0.1921 -1.0486
   53MOL0     C 7186   3.592   3.905  10.865  0.0846 -0.4449 -0.4569
   53MOL0     C 7187   3.716   3.989  10.848 -0.9279 -0.1908  0.8750
   53MOL0     C 7188   3.841   3.898  10.839  0.1255 -0.1585  0.4696
   53MOL0     C 7189   3.969   3.975  10.832 -0.9008 -0.0232 -0.4548
   53MOL0     C 7190   4.094   3.885  10.865 -0.1866  0.6317 -0.3370
   53MOL0     C 7191   4.222   3.956  10.803 -0.7788  0.2358 -0.0788
   53MOL0     C 7192   4.351   3.920  10.875  0.2582  0.2139  1.4018
   53MOL0     N 7193   4.473   4.002  10.847  0.5547 -0.3896  1.3967
   53MOL0     C 7194   4.526   4.039  10.731 -0.0913  0.5268 -0.2982
   53MOL0     C 7195   4.631   4.122  10.768 -0.0816 -0.1454  0.3820
   53MOL0     C 7196   4.729   4.200  10.682 -0.6865 -0.6917  0.4105
   53MOL0     C 7197   4.871   4.153  10.703 -0.1067 -0.0564 -0.0051
   53MOL0     C 7198   4.967   4.217  10.603 -0.2725  0.0448  0.3733
   53MOL0     C 7199   5.117   4.170  10.631  0.6686  0.4239 -0.0488
   53MOL0     O 7200   5.132   4.210  10.764 -0.2220 -0.1697 -0.5885
   53MOL0     C 7201   5.255   4.214  10.819 -0.5219  0.1360 -0.7758
   53MOL0     C 7202   5.385   4.167  10.759  1.3247  0.4489  0.6962
   53MOL0     C 7203   5.504   4.172  10.832  0.0162  0.2631 -0.1046
   53MOL0     C 7204   5.624   4.112  10.759  0.0093  0.1824  0.5675
   53MOL0     C 7205   5.507   4.229  10.959 -0.3050 -0.2471  0.5835
   53MOL0     C 7206   5.628   4.258  11.033 -0.0979 -0.4272 -0.2823
   53MOL0     O 7207   5.752   4.224  10.989 -0.7310  0.0333  0.1304
   53MOL0     C 7208   5.861   4.230  11.075 -1.1108  0.0986 -0.2111
   53MOL0     C 7209   5.861   4.122  11.162  0.4411 -0.5038 -0.7408
   53MOL0     C 7210   5.943   4.118  11.280 -0.6696  0.6241  0.9795
   53MOL0     C 7211   6.026   4.229  11.308 -0.5180  0.5400 -0.4977
   53MOL0     O 7212   6.101   4.242  11.424 -0.2022  0.5634  0.2933
   53MOL0     C 7213   6.116   4.130  11.517 -0.4554 -0.2915  0.0596
   53MOL0     C 7214   6.256   4.153  11.566 -0.2312  0.3819  0.6875
   53MOL0     C 7215   6.279   4.051  11.678 -0.9160  0.6187 -0.5859
   53MOL0     C 7216   6.429   4.020  11.714 -1.2037  0.8261  0.9229
   53MOL0     C 7217   6.452   3.901  11.810  0.4968  0.4709  0.0505
   53MOL0     C 7218   6.601   3.890  11.857 -0.1520 -0.4362 -0.9062
   53MOL0     C 7219   6.645   3.755  11.911 -0.1790  0.4132  0.6744
   53MOL0     C 7220   6.710   3.672  11.802 -1.1619 -1.0795  0.0957
   53MOL0    Cl 7221   6.596   3.646  11.664  0.4451  0.1143  0.2053
   53MOL0     C 7222   6.016   4.342  11.232 -0.0263  0.4632 -0.8805
   53MOL0     C 7223   5.939   4.340  11.112  0.0055 -1.1678 -0.3318
   53MOL0     O 7224   5.613   4.305  11.144 -0.0002 -0.0852 -0.5319
   53MOL0     C 7225   5.383   4.272  11.016 -0.1176 -0.5762 -0.1798
   53MOL0     C 7226   5.262   4.267  10.950 -0.0122  0.3975  0.0414
   53MOL0     N 7227   4.638   4.132  10.901  0.4788  0.7805  0.8278
   53MOL0     N 7228   4.541   4.058  10.948  0.5933 -0.3229  0.2170
   53MOL0     C 7229   3.388   4.248  10.717 -0.3071  0.0501  0.1971
   53MOL0     C 7230   3.355   4.282  10.585  0.4950  0.3496  0.1483
   53MOL0     C 7231   3.324   4.289  10.148  0.6528 -0.3083 -0.4373
   53MOL0     C 7232   3.202   4.234  10.108 -0.7578 -0.7155 -1.3668
   53MOL0     C 7233   3.149   4.266   9.989 -0.1702 -0.5696  0.8892
   53MOL0     C 7234   3.213   4.358   9.906  0.7805 -0.0361  1.0759
   53MOL0     O 7235   3.161   4.414   9.791  0.5203  0.6121 -0.2659
   53MOL0     C 7236   3.039   4.371   9.740  0.1231  0.0766 -0.2415
   53MOL0     C 7237   3.041   4.238   9.660  0.9278  0.4341  0.4514
   53MOL0     C 7238   3.150   4.239   9.555  0.2323  0.8429 -0.2182
   53MOL0     C 7239   3.143   4.103   9.478 -0.8943  0.5176  0.4708
   53MOL0     C 7240   3.263   4.080   9.383  0.0904  0.0412  0.6301
   53MOL0     C 7241   3.358   4.072   9.312 -0.5376  0.0103 -0.0595
   53MOL0     C 7242   3.336   4.412   9.948 -0.0771 -0.2623  0.8790
   53MOL0     C 7243   3.396   4.374  10.065 -0.4172 -0.5878  0.5470
   53MOL0     C 7244   3.529   4.444  10.091 -0.0218  0.0023  0.4937
   53MOL0     H 7245   3.313   3.986  10.450 -0.1843  0.4356  0.2040
   53MOL0     H 7246   3.369   3.910  10.694 -0.6175 -0.8474 -1.9408
   53MOL0     H 7247   3.383   3.922  10.950 -0.3338 -0.0716  2.2957
   53MOL0     H 7248   3.507   3.985  11.045 -0.0543 -3.3847 -0.6718
   53MOL0     H 7249   3.611   3.819  10.929 -1.9559 -1.2207 -0.8332
   53MOL0     H 7250   3.559   3.865  10.769 -4.1809  0.2426  0.5482
   53MOL0     H 7251   3.719   4.044  10.754  2.7655 -3.0356 -0.9162
   53MOL0     H 7252   3.726   4.065  10.926  0.9797  1.3672 -0.7565
   53MOL0     H 7253   3.843   3.833  10.927  1.0382 -0.6045  0.1273
   53MOL0     H 7254   3.818   3.838  10.750 -1.0179  0.2602  0.4595
   53MOL0     H 7255   3.976   4.065  10.893  0.6705 -0.9537  0.8042
   53MOL0     H 7256   3.967   4.019  10.732 -0.4627  1.3661  0.1384
   53MOL0     H 7257   4.097   3.885  10.974  3.1655  2.9351 -0.2496
   53MOL0     H 7258   4.082   3.782  10.831  0.5328 -0.4040  2.2989
   53MOL0     H 7259   4.214   4.065  10.807 -0.1473  0.2520  1.0574
   53MOL0     H 7260   4.229   3.927  10.697 -2.8355  0.0772 -0.2138
   53MOL0     H 7261   4.338   3.916  10.983  2.3539 -4.5862  1.7447
   53MOL0     H 7262   4.376   3.816  10.853 -2.6323 -0.2087 -0.5102
   53MOL0     H 7263   4.485   4.015  10.634  0.5288  1.6185 -0.8516
   53MOL0     H 7264   4.725   4.308  10.699  1.2210 -0.2308 -1.6098
   53MOL0     H 7265   4.708   4.189  10.575 -2.6704  1.4286  0.5015
   53MOL0     H 7266   4.899   4.177  10.806 -1.7474 -1.5393  0.8393
   53MOL0     H 7267   4.864   4.044  10.689 -1.3327 -0.2788  1.8845
   53MOL0     H 7268   4.935   4.185  10.503 -0.1577 -1.0105  0.6573
   53MOL0     H 7269   4.969   4.326  10.605  0.7753  0.0202  1.8671
   53MOL0     H 7270   5.143   4.064  10.615  1.2663  0.4188  0.8993
   53MOL0     H 7271   5.183   4.228  10.566 -1.3448  1.7837 -0.9744
   53MOL0     H 7272   5.376   4.108  10.668 -1.8018  1.1289  0.4527
   53MOL0     H 7273   5.707   4.181  10.739 -1.2263  1.9352  1.2963
   53MOL0     H 7274   5.586   4.079  10.662 -1.0270 -0.6707  1.2463
   53MOL0     H 7275   5.664   4.033  10.823  1.4326  2.4676  2.6391
   53MOL0     H 7276   5.791   4.039  11.166 -1.0084  0.7155  0.3807
   53MOL0     H 7277   5.923   4.037  11.349 -3.8777 -0.4599 -1.0124
   53MOL0     H 7278   6.040   4.124  11.595  0.4439  0.1932  1.0056
   53MOL0     H 7279   6.113   4.038  11.458 -1.9590 -0.3253  0.1626
   53MOL0     H 7280   6.312   4.128  11.476 -1.2256  1.7898 -0.3599
   53MOL0     H 7281   6.286   4.254  11.595 -0.5249  0.2398  1.5343
   53MOL0     H 7282   6.230   3.953  11.677 -0.8821  0.5912  0.0536
   53MOL0     H 7283   6.250   4.098  11.773 -1.6771 -1.3224  0.2204
   53MOL0     H 7284   6.484   4.101  11.763  4.5867 -1.4019 -0.9451
   53MOL0     H 7285   6.489   3.998  11.624 -0.6809 -1.2344  1.7045
   53MOL0     H 7286   6.387   3.887  11.897 -0.7091 -0.6861 -0.9864
   53MOL0     H 7287   6.428   3.812  11.751 -0.9081 -0.5226  1.9971
   53MOL0     H 7288   6.610   3.961  11.941  1.4400 -2.0903  0.3970
   53MOL0     H 7289   6.667   3.919  11.775  0.0012 -2.4699 -1.5457
   53MOL0     H 7290   6.566   3.704  11.966  0.4530 -1.6310 -0.2280
   53MOL0     H 7291   6.719   3.774  11.989  0.1546  0.5596  0.3296
   53MOL0     H 7292   6.752   3.578  11.839 -2.1792 -0.9258  1.7507
   53MOL0     H 7293   6.798   3.728  11.769 -1.2292 -0.6198  0.6717
   53MOL0     H 7294   6.065   4.431  11.272  1.0315 -0.9052  1.0778
   53MOL0     H 7295   5.940   4.429  11.049  1.9372 -0.6196  0.3846
   53MOL0     H 7296   5.370   4.331  11.107 -1.6698 -0.1402 -0.6418
   53MOL0     H 7297   5.175   4.303  11.004  1.1288 -1.4751  3.4052
   53MOL0     H 7298   3.399   4.327  10.790 -1.1187 -2.4232  3.2157
   53MOL0     H 7299   3.357   4.387  10.556  2.9332  1.5927  3.9802
   53MOL0     H 7300   3.154   4.171  10.183  0.6394 -0.9048 -0.5888
   53MOL0     H 7301   3.046   4.236   9.971  0.0904 -0.3248 -1.3097
   53MOL0     H 7302   2.965   4.363   9.821 -0.1525  2.1287 -0.2436
   53MOL0     H 7303   3.008   4.460   9.685  0.4056  0.5351  0.3220
   53MOL0     H 7304   2.946   4.220   9.609  1.3187  0.8266 -0.4444
   53MOL0     H 7305   3.051   4.154   9.729  1.9972  0.3248  0.1701
   53MOL0     H 7306   3.140   4.330   9.496 -1.8105  1.4222  0.9186
   53MOL0     H 7307   3.249   4.250   9.599  1.5244 -2.6565 -1.8682
   53MOL0     H 7308   3.049   4.088   9.425 -1.6544  2.7542  1.0999
   53MOL0     H 7309   3.156   4.023   9.551  1.1741  0.2926 -0.0743
   53MOL0     H 7310   3.444   4.062   9.249  0.1827 -3.5294  1.2519
   53MOL0     H 7311   3.378   4.490   9.886  0.8989 -1.5641 -0.1576
   53MOL0     H 7312   3.528   4.473  10.197  0.9500 -0.1046  0.5398
   53MOL0     H 7313   3.608   4.376  10.057  2.6203  3.1217 -0.0667
   53MOL0     H 7314   3.540   4.530  10.025  2.1747 -0.2628  0.4553
   54MOL0     O 7315   4.498  11.510   2.193 -0.5801  1.1072 -0.9132
   54MOL0     C 7316   4.471  11.453   2.297 -0.3238 -0.9032  0.1599
   54MOL0     O 7317   4.535  11.341   2.353  0.2883 -0.0822  0.7656
   54MOL0     C 7318   4.659  11.304   2.316 -0.1656 -0.0474 -0.4290
   54MOL0     C 7319   4.683  11.167   2.319 -0.1220 -0.1286 -0.4617
   54MOL0     C 7320   4.812  11.116   2.282 -0.8723 -0.0415 -0.3015
   54MOL0     C 7321   4.909  11.203   2.214  0.2353 -0.0201 -0.5454
   54MOL0     O 7322   5.025  11.140   2.183  0.1002  0.7084 -0.9000
   54MOL0     C 7323   5.125  11.221   2.125  0.1854 -0.3417  0.2215
   54MOL0     C 7324   5.259  11.153   2.112 -0.8283 -0.6044  0.0781
   54MOL0     C 7325   5.362  11.244   2.042 -0.1775 -0.6598  0.1640
   54MOL0     C 7326   5.492  11.164   2.009 -0.5085 -0.0147  0.5345
   54MOL0     C 7327   5.610  11.247   1.968  0.4574  0.0592  0.1317
   54MOL0     C 7328   5.715  11.164   1.899 -0.2008 -0.0374  0.5772
   54MOL0     C 7329   5.849  11.231   1.866  1.3993 -0.1141 -0.1538
   54MOL0     C 7330   5.956  11.154   1.787  1.0874 -0.2331 -0.4838
   54MOL0     N 7331   6.091  11.201   1.787  0.1242  0.1100  0.0416
   54MOL0     C 7332   6.199  11.143   1.855  0.3262 -0.1609 -0.1209
   54MOL0     C 7333   6.304  11.182   1.768  0.6717 -0.1899  0.8187
   54MOL0     C 7334   6.455  11.149   1.776  0.6061  0.6661  0.3107
   54MOL0     C 7335   6.488  11.097   1.919 -1.8502 -0.2247 -0.0880
   54MOL0     C 7336   6.632  11.050   1.909  0.0972 -0.4213  0.2900
   54MOL0     C 7337   6.685  10.965   2.031 -0.3494 -0.2398  0.4314
   54MOL0     O 7338   6.594  10.863   2.073 -0.6445  0.1187  0.0090
   54MOL0     C 7339   6.627  10.805   2.190  0.3994 -1.0351  0.5029
   54MOL0     C 7340   6.754  10.813   2.253 -1.0199  0.2396 -0.6199
   54MOL0     C 7341   6.778  10.735   2.366 -0.1087 -0.3870  0.3192
   54MOL0     C 7342   6.914  10.748   2.438 -0.7105  0.1770  0.5300
   54MOL0     C 7343   6.684  10.641   2.414  0.2329 -0.4733  0.1819
   54MOL0     C 7344   6.710  10.549   2.532 -0.5718 -0.0474 -0.0570
   54MOL0     O 7345   6.761  10.597   2.635 -0.5120  0.2058 -0.0588
   54MOL0     C 7346   6.812  10.531   2.743  0.9440  0.3688  0.3096
   54MOL0     C 7347   6.838  10.608   2.851 -0.1273 -0.0171 -0.8615
   54MOL0     C 7348   6.873  10.552   2.971  0.2722 -0.1443 -0.4608
   54MOL0     C 7349   6.896  10.421   2.988 -0.6749 -0.5370 -0.2019
   54MOL0     O 7350   6.939  10.377   3.111  0.1721 -0.2336  0.2459
   54MOL0     C 7351   6.966  10.242   3.131  0.1421  0.5055  0.4293
   54MOL0     C 7352   7.006  10.227   3.278 -0.4244 -0.0019 -0.5464
   54MOL0     C 7353   7.129  10.142   3.296  0.2668 -0.4222  0.0053
   54MOL0     C 7354   7.186  10.127   3.438  0.6826 -0.3786  0.2161
   54MOL0     C 7355   7.291  10.018   3.456  0.5406  0.3840  0.2612
   54MOL0     C 7356   7.438  10.075   3.442 -0.1692  0.7535  0.1873
   54MOL0     C 7357   7.536   9.962   3.474 -0.7693  0.1947  0.0272
   54MOL0     C 7358   7.602   9.894   3.351  0.0506 -0.7801  0.0827
   54MOL0    Cl 7359   7.725   9.786   3.402 -0.0306  0.0595  0.2576
   54MOL0     C 7360   6.872  10.341   2.875 -0.7133  0.3062  0.2978
   54MOL0     C 7361   6.833  10.395   2.752  0.6459  1.3112  0.1939
   54MOL0     O 7362   6.699  10.429   2.513  0.1768  0.2886  0.6788
   54MOL0     C 7363   6.562  10.639   2.351 -0.0465  0.0701 -0.4551
   54MOL0     C 7364   6.527  10.721   2.243  0.3254  0.2602  0.1966
   54MOL0     N 7365   6.250  11.253   1.670  0.1503 -0.5562 -0.4028
   54MOL0     N 7366   6.130  11.257   1.672  0.1184  0.4339 -0.5789
   54MOL0     C 7367   4.874  11.336   2.195  0.6429  0.2513  0.1889
   54MOL0     C 7368   4.753  11.387   2.248  0.0697  0.1921 -0.8503
   54MOL0     C 7369   4.341  11.496   2.364  0.0246  0.6510 -0.7522
   54MOL0     C 7370   4.299  11.417   2.481 -0.0089 -0.2625  0.2232
   54MOL0     C 7371   4.197  11.465   2.568 -0.4191  0.2788  0.6621
   54MOL0     C 7372   4.131  11.584   2.533  0.1414  0.1295  0.9325
   54MOL0     O 7373   4.036  11.623   2.623 -0.0736 -0.2223 -0.5070
   54MOL0     C 7374   3.962  11.746   2.594 -0.3821 -0.1243 -0.1310
   54MOL0     C 7375   3.862  11.779   2.701 -0.4023 -0.3205 -0.3393
   54MOL0     C 7376   3.781  11.909   2.681 -0.8428  0.0121 -0.2015
   54MOL0     C 7377   3.661  11.902   2.778  0.3332 -0.1707  0.2460
   54MOL0     C 7378   3.576  12.023   2.782 -0.9410 -0.3215  0.0506
   54MOL0     C 7379   3.512  12.129   2.772 -0.0662  0.3664 -0.8941
   54MOL0     C 7380   4.159  11.647   2.408  0.9486  0.2186  0.1340
   54MOL0     C 7381   4.268  11.604   2.329  0.8442 -0.9171  0.1848
   54MOL0     C 7382   4.284  11.680   2.199 -0.0359  0.0698 -0.6534
   54MOL0     H 7383   4.620  11.104   2.381  1.7526  0.0185  1.7247
   54MOL0     H 7384   4.843  11.017   2.311  1.6195  0.6042 -0.5930
   54MOL0     H 7385   5.133  11.313   2.184  2.7878 -1.6018  2.0238
   54MOL0     H 7386   5.083  11.246   2.026 -0.4521 -2.0008  0.0450
   54MOL0     H 7387   5.298  11.128   2.211 -0.5181  0.3256  0.1980
   54MOL0     H 7388   5.263  11.063   2.049  0.7400 -1.9312  1.9379
   54MOL0     H 7389   5.317  11.285   1.951  0.0212 -1.6855 -0.4139
   54MOL0     H 7390   5.382  11.331   2.105  0.7470 -1.9341  1.6922
   54MOL0     H 7391   5.522  11.108   2.098 -2.5290 -0.5161  0.9334
   54MOL0     H 7392   5.467  11.111   1.917  1.4540  0.4697 -0.3372
   54MOL0     H 7393   5.663  11.291   2.053  4.2288 -1.0522 -1.4192
   54MOL0     H 7394   5.588  11.332   1.903  1.5971 -0.0346 -0.3969
   54MOL0     H 7395   5.741  11.085   1.971  0.2780  1.6629  2.3758
   54MOL0     H 7396   5.677  11.121   1.807  2.0935 -2.7446  0.7543
   54MOL0     H 7397   5.896  11.259   1.961  0.0843 -1.8717  1.0704
   54MOL0     H 7398   5.820  11.321   1.811  2.4212  0.2737 -0.0836
   54MOL0     H 7399   5.961  11.052   1.828  2.0728 -0.4210 -1.0576
   54MOL0     H 7400   5.922  11.140   1.684  1.0238 -1.6884 -0.2885
   54MOL0     H 7401   6.214  11.100   1.954  3.0059  3.5877  1.3500
   54MOL0     H 7402   6.504  11.245   1.752 -1.0896  0.8795 -2.8471
   54MOL0     H 7403   6.482  11.071   1.705  0.4148  1.2187 -0.3848
   54MOL0     H 7404   6.486  11.180   1.990 -0.0361 -0.5896  0.4332
   54MOL0     H 7405   6.425  11.014   1.950 -1.6901 -0.9771 -1.6847
   54MOL0     H 7406   6.635  10.984   1.821  0.6900  0.9589 -0.7690
   54MOL0     H 7407   6.699  11.132   1.884  1.4120 -2.0422 -1.9470
   54MOL0     H 7408   6.787  10.925   2.027 -0.4801 -0.6845  1.3194
   54MOL0     H 7409   6.692  11.037   2.113 -1.1981  0.3856 -0.0335
   54MOL0     H 7410   6.833  10.882   2.226  0.8813 -1.5551  0.0836
   54MOL0     H 7411   6.953  10.649   2.465  1.0452  0.7016  0.0225
   54MOL0     H 7412   6.919  10.804   2.532  0.2639 -0.0159  0.6016
   54MOL0     H 7413   6.989  10.786   2.369 -0.5624 -0.0364  0.5741
   54MOL0     H 7414   6.830  10.716   2.843 -3.3974 -0.3185 -3.8115
   54MOL0     H 7415   6.866  10.610   3.063 -1.6719 -0.5748 -0.3073
   54MOL0     H 7416   6.885  10.175   3.100  0.3057  0.7608 -0.5860
   54MOL0     H 7417   7.048  10.212   3.065 -1.0406 -2.3012  0.0926
   54MOL0     H 7418   7.016  10.327   3.321  1.2421 -0.6983  0.7960
   54MOL0     H 7419   6.924  10.174   3.329 -1.0792  1.9125  0.5227
   54MOL0     H 7420   7.207  10.179   3.230  0.8171  0.5215  1.1406
   54MOL0     H 7421   7.102  10.042   3.259 -0.9177  0.0849 -0.5494
   54MOL0     H 7422   7.097  10.102   3.498 -1.2271  0.9935 -1.8914
   54MOL0     H 7423   7.225  10.221   3.480  1.8369 -1.1036  0.8157
   54MOL0     H 7424   7.263   9.961   3.544  0.2857  0.0083 -0.0573
   54MOL0     H 7425   7.276   9.951   3.371  3.4482 -0.7316  0.5135
   54MOL0     H 7426   7.462  10.157   3.510  0.0188  1.4547 -0.7093
   54MOL0     H 7427   7.453  10.105   3.338  3.0811  0.1646  0.3524
   54MOL0     H 7428   7.497   9.888   3.544 -0.5893  1.9918  2.1525
   54MOL0     H 7429   7.617  10.013   3.528  2.4262  1.6022 -5.3644
   54MOL0     H 7430   7.649   9.965   3.281  1.1656 -0.4227  1.1575
   54MOL0     H 7431   7.534   9.834   3.290  2.1916 -3.4043  0.1089
   54MOL0     H 7432   6.890  10.234   2.880 -1.3467  0.1889  0.0911
   54MOL0     H 7433   6.832  10.331   2.664 -1.3825  1.2305  0.2248
   54MOL0     H 7434   6.484  10.574   2.391  0.1630  0.1840  0.1355
   54MOL0     H 7435   6.424  10.699   2.215 -0.0400  1.0284  0.9007
   54MOL0     H 7436   4.938  11.410   2.147  0.7201  1.0767  1.5132
   54MOL0     H 7437   4.734  11.491   2.222 -0.1339  0.1116 -1.0208
   54MOL0     H 7438   4.354  11.333   2.523 -1.0457 -0.7060  0.7181
   54MOL0     H 7439   4.184  11.409   2.660 -1.3220 -0.5086  0.0761
   54MOL0     H 7440   4.041  11.821   2.579  1.6926 -2.1847 -0.1111
   54MOL0     H 7441   3.917  11.731   2.495  1.4982  1.3289 -1.2922
   54MOL0     H 7442   3.906  11.785   2.801 -0.4172  0.9322 -0.3935
   54MOL0     H 7443   3.785  11.701   2.703  0.2810 -0.9953  0.8072
   54MOL0     H 7444   3.849  11.988   2.715 -1.2291 -0.3634  1.5687
   54MOL0     H 7445   3.756  11.935   2.578  1.7182  3.4089 -0.1435
   54MOL0     H 7446   3.704  11.887   2.877 -2.2199 -0.1440  1.4419
   54MOL0     H 7447   3.600  11.811   2.766 -1.2688  0.8815  0.0747
   54MOL0     H 7448   3.457  12.220   2.767 -0.0931  0.4603  0.7320
   54MOL0     H 7449   4.112  11.743   2.392  2.0768  0.9933  1.2050
   54MOL0     H 7450   4.381  11.731   2.206 -1.4117  3.2804 -2.3823
   54MOL0     H 7451   4.273  11.619   2.109 -2.0948  3.3712 -2.8579
   54MOL0     H 7452   4.213  11.762   2.188 -2.0792 -1.5745 -0.1744
   55MOL0     O 7453   7.022   1.603   2.471 -0.4962  0.3739  0.0093
   55MOL0     C 7454   7.088   1.499   2.472  0.3034  0.3430 -1.0384
   55MOL0     O 7455   7.041   1.376   2.443  0.0356  0.1616 -0.3594
   55MOL0     C 7456   6.915   1.344   2.484  0.2014  0.9958 -0.4764
   55MOL0     C 7457   6.833   1.413   2.583  0.4455  0.2528  0.7465
   55MOL0     C 7458   6.695   1.381   2.605 -0.0948  0.4265  0.4552
   55MOL0     C 7459   6.637   1.281   2.537  0.2731  0.0688 -0.0891
   55MOL0     O 7460   6.501   1.241   2.560  0.4720 -0.0310  0.3634
   55MOL0     C 7461   6.473   1.197   2.691  0.2165  0.5299 -0.1877
   55MOL0     C 7462   6.330   1.244   2.720 -0.0913 -0.1046  0.9076
   55MOL0     C 7463   6.316   1.393   2.725  0.0995  0.4525  0.2799
   55MOL0     C 7464   6.172   1.428   2.782 -0.7296  0.1659  0.1176
   55MOL0     C 7465   6.123   1.574   2.743 -0.0016 -0.3238 -0.0831
   55MOL0     C 7466   5.980   1.611   2.772 -0.3079 -0.1403  0.8565
   55MOL0     C 7467   5.870   1.511   2.727  0.5339  1.0030  0.4525
   55MOL0     C 7468   5.845   1.490   2.582 -0.4929 -0.7745 -0.0446
   55MOL0     N 7469   5.819   1.618   2.512 -0.7096 -0.4765  0.3735
   55MOL0     C 7470   5.698   1.681   2.513 -0.1693 -0.6857  0.1659
   55MOL0     C 7471   5.717   1.796   2.449 -0.0111 -0.9073  0.4063
   55MOL0     C 7472   5.612   1.912   2.416 -0.8736 -0.0936 -0.4515
   55MOL0     C 7473   5.565   1.907   2.263 -0.2130 -0.2715 -0.1714
   55MOL0     C 7474   5.510   2.052   2.235  1.1847 -0.1150  0.5110
   55MOL0     C 7475   5.385   2.083   2.315 -0.2335 -1.4890 -0.9832
   55MOL0     O 7476   5.305   1.962   2.330  0.2075 -0.2019  0.1157
   55MOL0     C 7477   5.200   1.969   2.423 -0.1914  0.4039 -0.0835
   55MOL0     C 7478   5.185   2.061   2.526  1.3189  0.2983 -0.3321
   55MOL0     C 7479   5.063   2.055   2.596  0.4216 -0.5288 -0.2825
   55MOL0     C 7480   5.031   2.164   2.697 -0.3001  0.4119  0.3945
   55MOL0     C 7481   4.958   1.959   2.561 -0.6863 -0.5618  0.0953
   55MOL0     C 7482   4.823   1.946   2.631 -0.2296 -0.1647 -0.6703
   55MOL0     O 7483   4.717   1.912   2.544  0.3818  0.1037 -0.4120
   55MOL0     C 7484   4.585   1.898   2.596  0.1491  0.1429  0.3997
   55MOL0     C 7485   4.530   2.014   2.654 -0.0678 -0.6628  0.3823
   55MOL0     C 7486   4.408   2.010   2.719  0.0339  0.3124 -1.0810
   55MOL0     C 7487   4.336   1.887   2.721  0.1822 -0.2476  1.3109
   55MOL0     O 7488   4.206   1.872   2.755 -0.4820  0.4017 -1.1957
   55MOL0     C 7489   4.148   1.942   2.867 -0.1250 -0.3649 -0.4088
   55MOL0     C 7490   3.996   1.942   2.860  1.1424  0.7139 -0.4876
   55MOL0     C 7491   3.928   2.045   2.943  0.2266 -0.1295 -0.0301
   55MOL0     C 7492   3.777   2.060   2.929  0.4440  0.3971  0.2816
   55MOL0     C 7493   3.733   2.159   3.037  0.4630  0.0144  0.3439
   55MOL0     C 7494   3.587   2.201   3.024 -0.6916 -0.6049 -0.1846
   55MOL0     C 7495   3.569   2.323   3.109 -0.1533 -0.7851 -0.1746
   55MOL0     C 7496   3.429   2.372   3.112  0.3769 -0.0439  0.3157
   55MOL0    Cl 7497   3.332   2.279   3.233 -0.0591 -0.0388  0.1070
   55MOL0     C 7498   4.395   1.777   2.665  0.4175  0.1816  0.1873
   55MOL0     C 7499   4.523   1.779   2.593  1.0230 -0.0883 -0.5562
   55MOL0     O 7500   4.811   1.956   2.756 -0.3199  0.2617 -0.3481
   55MOL0     C 7501   4.978   1.872   2.456  0.1538  0.4030 -0.0847
   55MOL0     C 7502   5.100   1.880   2.386 -0.5047  0.3312  0.0798
   55MOL0     N 7503   5.849   1.810   2.414 -0.3946  0.2075 -0.7160
   55MOL0     N 7504   5.906   1.699   2.454 -0.4671 -0.3456  0.4984
   55MOL0     C 7505   6.717   1.214   2.448  0.1552 -0.4048 -0.6906
   55MOL0     C 7506   6.850   1.237   2.421  0.2347 -0.7578 -1.1089
   55MOL0     C 7507   7.231   1.522   2.452 -0.2265  0.6608  0.1177
   55MOL0     C 7508   7.297   1.407   2.396 -0.3799  0.0553  0.9078
   55MOL0     C 7509   7.438   1.403   2.379 -0.5840 -0.4896  0.2105
   55MOL0     C 7510   7.511   1.519   2.415  0.1698 -1.3512  0.4615
   55MOL0     O 7511   7.642   1.544   2.394  0.0370 -0.3372 -0.3890
   55MOL0     C 7512   7.716   1.440   2.324  0.6704 -0.0767 -0.1376
   55MOL0     C 7513   7.865   1.482   2.315  1.2313 -0.1547  0.5276
   55MOL0     C 7514   7.862   1.627   2.253 -0.0762 -0.5315 -1.0576
   55MOL0     C 7515   8.001   1.678   2.224 -0.4604 -0.7863 -0.1833
   55MOL0     C 7516   8.055   1.721   2.354  0.7280 -0.0402 -0.1799
   55MOL0     C 7517   8.084   1.770   2.460  0.2951 -0.0245 -0.7242
   55MOL0     C 7518   7.444   1.635   2.467  0.0645  0.6300 -0.7817
   55MOL0     C 7519   7.302   1.639   2.475  0.1750  1.0143  0.2040
   55MOL0     C 7520   7.241   1.762   2.536  0.1150 -0.6959  0.0484
   55MOL0     H 7521   6.876   1.497   2.636  2.2353  2.1031 -3.2614
   55MOL0     H 7522   6.643   1.442   2.678  0.5135 -2.2504  3.3500
   55MOL0     H 7523   6.538   1.252   2.760 -0.5673  1.2198  0.0236
   55MOL0     H 7524   6.476   1.088   2.697  0.5038  0.6169  2.3337
   55MOL0     H 7525   6.262   1.206   2.644 -0.1728  0.9975  0.4125
   55MOL0     H 7526   6.301   1.199   2.816 -2.6555 -1.9747 -0.6108
   55MOL0     H 7527   6.395   1.433   2.789 -0.8933  0.3868  1.5998
   55MOL0     H 7528   6.331   1.425   2.622  1.8070  2.6399  1.1163
   55MOL0     H 7529   6.101   1.351   2.749 -0.3486 -1.4595  2.7571
   55MOL0     H 7530   6.170   1.413   2.891 -0.3313 -1.3535 -0.0511
   55MOL0     H 7531   6.128   1.586   2.635 -0.8814 -0.1199 -0.1096
   55MOL0     H 7532   6.187   1.644   2.798 -2.4554  3.3914 -1.6121
   55MOL0     H 7533   5.966   1.622   2.880 -0.4522  1.1719  0.7195
   55MOL0     H 7534   5.960   1.709   2.728  2.3600  0.0168 -0.2444
   55MOL0     H 7535   5.775   1.550   2.763  0.7208  0.5440  1.4680
   55MOL0     H 7536   5.889   1.412   2.771 -0.2013  0.0816 -1.1874
   55MOL0     H 7537   5.930   1.438   2.536 -1.6532  0.1712 -3.6040
   55MOL0     H 7538   5.752   1.434   2.580  0.1382 -2.0509  2.3983
   55MOL0     H 7539   5.602   1.641   2.542  0.9068 -0.9029  3.9519
   55MOL0     H 7540   5.654   2.009   2.447  0.2566 -1.0018  0.9998
   55MOL0     H 7541   5.528   1.907   2.486  1.5231 -0.3985  2.5824
   55MOL0     H 7542   5.653   1.890   2.200  0.2090 -1.6807  0.7562
   55MOL0     H 7543   5.496   1.824   2.249 -1.1413  0.6509 -1.2775
   55MOL0     H 7544   5.590   2.123   2.259  2.0002 -1.6514  2.7208
   55MOL0     H 7545   5.476   2.061   2.132 -1.3423  1.8838  1.4104
   55MOL0     H 7546   5.413   2.133   2.408 -3.0469  1.5493 -1.5941
   55MOL0     H 7547   5.319   2.157   2.270  0.6142 -0.6059 -0.7912
   55MOL0     H 7548   5.261   2.131   2.560  0.1115  2.4306 -1.8184
   55MOL0     H 7549   4.996   2.126   2.793  0.3684 -0.3952  0.3400
   55MOL0     H 7550   4.951   2.217   2.645  0.3293 -1.6403 -3.0443
   55MOL0     H 7551   5.126   2.212   2.722  2.8187 -3.2756 -2.8188
   55MOL0     H 7552   4.556   2.119   2.645  1.0159 -0.9705 -0.2373
   55MOL0     H 7553   4.364   2.104   2.749  0.3883  1.3315 -3.5081
   55MOL0     H 7554   4.180   1.900   2.963  0.7139  2.3047  0.5640
   55MOL0     H 7555   4.182   2.046   2.869  0.2319 -0.2898  4.8323
   55MOL0     H 7556   3.981   1.955   2.752  0.6243  1.2096 -0.3602
   55MOL0     H 7557   3.957   1.844   2.887 -1.6675  1.4297 -1.6363
   55MOL0     H 7558   3.989   2.133   2.918 -1.6270  1.1553 -0.2067
   55MOL0     H 7559   3.943   2.033   3.051 -0.4671  0.7040  0.1726
   55MOL0     H 7560   3.720   1.970   2.950 -2.8017  2.3452  0.5174
   55MOL0     H 7561   3.762   2.091   2.825  1.5205 -4.5163 -1.6077
   55MOL0     H 7562   3.758   2.119   3.135 -1.1756  0.9585  1.1909
   55MOL0     H 7563   3.796   2.245   3.015 -1.2204  0.9955 -0.9215
   55MOL0     H 7564   3.525   2.117   3.055 -2.3757 -0.6830 -3.3906
   55MOL0     H 7565   3.573   2.211   2.916  1.8950 -1.7499 -0.7121
   55MOL0     H 7566   3.643   2.400   3.085  0.9481 -1.4882  0.8809
   55MOL0     H 7567   3.608   2.300   3.208  1.5618 -0.0208 -0.6357
   55MOL0     H 7568   3.372   2.351   3.021 -2.2180  3.0776  1.0646
   55MOL0     H 7569   3.429   2.479   3.134 -1.4854 -0.0548  0.5297
   55MOL0     H 7570   4.353   1.677   2.657  4.0494 -1.5908  1.0780
   55MOL0     H 7571   4.579   1.697   2.550  2.5826  1.6110 -1.9805
   55MOL0     H 7572   4.900   1.807   2.416 -0.1508  0.7816 -0.1113
   55MOL0     H 7573   5.123   1.826   2.295 -1.4945 -1.1871  0.6912
   55MOL0     H 7574   6.673   1.127   2.398  0.9128 -1.2104  0.0224
   55MOL0     H 7575   6.892   1.166   2.350  1.8662 -0.7670 -0.1934
   55MOL0     H 7576   7.241   1.321   2.363 -0.3920 -0.3631  1.9788
   55MOL0     H 7577   7.494   1.323   2.331 -1.8941 -0.5067 -1.3866
   55MOL0     H 7578   7.701   1.344   2.374 -0.6490  0.0672 -0.2334
   55MOL0     H 7579   7.674   1.427   2.224 -3.0503  1.9854  0.9783
   55MOL0     H 7580   7.939   1.423   2.260  1.4753  1.0075 -0.4233
   55MOL0     H 7581   7.912   1.481   2.413  0.9142  0.2819  0.6862
   55MOL0     H 7582   7.807   1.630   2.159  0.2721 -1.3468 -1.2956
   55MOL0     H 7583   7.809   1.702   2.313 -1.8153 -0.9045 -2.0454
   55MOL0     H 7584   8.001   1.763   2.155 -0.4217 -0.7057 -0.0857
   55MOL0     H 7585   8.060   1.604   2.169  1.2335  2.3236 -2.9162
   55MOL0     H 7586   8.090   1.806   2.561  1.9417  0.1998 -0.8694
   55MOL0     H 7587   7.510   1.718   2.490  0.8531 -0.4055  0.8692
   55MOL0     H 7588   7.318   1.839   2.544 -0.9352  0.3763  0.2192
   55MOL0     H 7589   7.164   1.813   2.476  0.8125  0.6885  0.2875
   55MOL0     H 7590   7.195   1.747   2.634  1.6733  3.1852  1.5534
   56MOL0     O 7591   2.295  11.418   1.342 -0.4079 -0.5650  0.1318
   56MOL0     C 7592   2.369  11.319   1.331  0.3086  0.9711  0.0674
   56MOL0     O 7593   2.503  11.318   1.312 -0.0700 -0.9280  0.6927
   56MOL0     C 7594   2.574  11.429   1.293  1.0620 -0.3181  0.6371
   56MOL0     C 7595   2.664  11.471   1.378 -0.6961  0.6291 -0.4223
   56MOL0     C 7596   2.751  11.572   1.346  0.4520  0.4203 -0.0127
   56MOL0     C 7597   2.745  11.637   1.228 -0.2141 -0.5042 -0.6398
   56MOL0     O 7598   2.826  11.754   1.208  0.4083  0.2331 -0.6149
   56MOL0     C 7599   2.939  11.787   1.289  0.1363  0.0610 -0.1677
   56MOL0     C 7600   2.976  11.938   1.270  0.2485 -0.3742 -0.3396
   56MOL0     C 7601   3.112  11.982   1.313  0.6542  0.1270  1.0075
   56MOL0     C 7602   3.158  11.924   1.441 -0.5512  0.3395 -0.3451
   56MOL0     C 7603   3.285  11.995   1.504  0.4890  0.6231 -0.4323
   56MOL0     C 7604   3.356  11.909   1.609  0.0692 -0.2171  0.0601
   56MOL0     C 7605   3.420  11.998   1.719  0.2614 -0.1787  0.0586
   56MOL0     C 7606   3.330  12.074   1.819  0.0572 -0.0935 -0.2578
   56MOL0     N 7607   3.241  11.969   1.882 -0.3137  0.0884 -0.2519
   56MOL0     C 7608   3.106  11.947   1.859 -0.5591 -0.3841  0.8140
   56MOL0     C 7609   3.067  11.852   1.939 -0.1450 -0.2437 -0.6223
   56MOL0     C 7610   2.931  11.799   1.922 -0.5374  0.8163 -0.7781
   56MOL0     C 7611   2.927  11.687   1.816 -0.3014  0.2270  0.2821
   56MOL0     C 7612   2.785  11.625   1.802  0.1252  0.3410 -0.2936
   56MOL0     C 7613   2.784  11.484   1.870  0.1139 -0.1137  0.0905
   56MOL0     O 7614   2.879  11.393   1.800  0.9758 -0.3959 -1.0899
   56MOL0     C 7615   2.827  11.274   1.767  0.0459 -0.1142 -0.0126
   56MOL0     C 7616   2.774  11.192   1.863 -0.2185  0.2597  0.6093
   56MOL0     C 7617   2.716  11.071   1.836 -0.1433  0.3060 -0.1975
   56MOL0     C 7618   2.659  10.999   1.960  0.5029  0.7025  0.1533
   56MOL0     C 7619   2.708  11.019   1.707  0.7070  0.7070  1.1147
   56MOL0     C 7620   2.660  10.879   1.674  0.3229  0.9869  0.2397
   56MOL0     O 7621   2.670  10.837   1.544 -0.3323 -0.5164 -0.2291
   56MOL0     C 7622   2.601  10.730   1.496  0.1633  0.5673  0.6205
   56MOL0     C 7623   2.467  10.714   1.501  0.9776 -0.7770 -0.5229
   56MOL0     C 7624   2.409  10.596   1.459 -1.1331  0.8038 -0.3493
   56MOL0     C 7625   2.487  10.497   1.408  0.0218  0.3852  0.3463
   56MOL0     O 7626   2.416  10.383   1.376  0.7061 -0.1932 -0.2620
   56MOL0     C 7627   2.495  10.262   1.356 -0.6366  0.7535  1.3372
   56MOL0     C 7628   2.509  10.177   1.488  0.4934 -1.2287 -0.1251
   56MOL0     C 7629   2.578  10.251   1.605 -0.1056 -0.2944  0.9498
   56MOL0     C 7630   2.622  10.169   1.718 -0.2498  0.3983 -0.9338
   56MOL0     C 7631   2.701  10.257   1.817  0.4128 -0.4829 -0.1985
   56MOL0     C 7632   2.629  10.396   1.843  0.0591 -0.0993  0.2475
   56MOL0     C 7633   2.682  10.462   1.967  0.2241  0.3394  0.2739
   56MOL0     C 7634   2.640  10.390   2.107 -0.0821 -0.3043 -0.3436
   56MOL0    Cl 7635   2.463  10.420   2.128  0.1582  0.0036  0.0532
   56MOL0     C 7636   2.623  10.516   1.381 -0.0372 -0.3299  0.3229
   56MOL0     C 7637   2.679  10.635   1.433 -0.0523 -1.3066 -0.3375
   56MOL0     O 7638   2.612  10.811   1.761 -0.7896  0.2744 -0.5106
   56MOL0     C 7639   2.757  11.109   1.604  1.1626  0.2106 -0.1297
   56MOL0     C 7640   2.829  11.224   1.634 -0.5651 -0.0632 -0.5703
   56MOL0     N 7641   3.170  11.810   2.012 -0.7688 -0.6357  0.2384
   56MOL0     N 7642   3.278  11.884   1.983  0.1175  0.1320 -0.6759
   56MOL0     C 7643   2.648  11.602   1.140  1.0636  0.3045  0.2242
   56MOL0     C 7644   2.565  11.494   1.172 -0.1318  0.4202  0.6642
   56MOL0     C 7645   2.305  11.178   1.327 -0.2777  0.1360  0.1593
   56MOL0     C 7646   2.390  11.063   1.317 -0.3793  0.0769  0.1186
   56MOL0     C 7647   2.337  10.937   1.290  0.6703 -0.1528  0.6371
   56MOL0     C 7648   2.195  10.920   1.269 -1.3175 -0.2390 -0.3175
   56MOL0     O 7649   2.142  10.794   1.252  0.1762  0.5496 -0.7574
   56MOL0     C 7650   2.005  10.765   1.252  0.6918  0.4176 -0.1919
   56MOL0     C 7651   1.975  10.633   1.178 -0.2043  1.1953 -0.3498
   56MOL0     C 7652   2.009  10.644   1.028  0.1083 -0.0613 -0.4366
   56MOL0     C 7653   1.994  10.516   0.938  0.3665  0.7262 -0.6239
   56MOL0     C 7654   1.848  10.491   0.918  0.0059  0.6482  0.5434
   56MOL0     C 7655   1.743  10.462   0.868  0.4997  0.0793 -0.6718
   56MOL0     C 7656   2.115  11.031   1.292  0.1840 -0.9157  0.3370
   56MOL0     C 7657   2.164  11.159   1.330 -0.2990 -0.2571 -0.6230
   56MOL0     C 7658   2.058  11.260   1.364 -0.3112 -0.3079 -0.0542
   56MOL0     H 7659   2.680  11.412   1.468  0.8003 -0.3460 -1.2883
   56MOL0     H 7660   2.829  11.590   1.420  1.2833 -2.3051 -0.1190
   56MOL0     H 7661   3.012  11.710   1.262 -2.4021 -2.0358 -1.5238
   56MOL0     H 7662   2.916  11.778   1.396 -0.3015 -0.2155 -0.2855
   56MOL0     H 7663   2.952  11.959   1.166  1.0042  0.4161 -0.3706
   56MOL0     H 7664   2.923  12.006   1.337  1.7964  0.6650 -0.0997
   56MOL0     H 7665   3.178  11.959   1.228 -0.1833  0.2076  0.3258
   56MOL0     H 7666   3.127  12.090   1.326 -0.0916  0.4176 -0.3875
   56MOL0     H 7667   3.085  11.934   1.522  2.0020  0.5891  2.0572
   56MOL0     H 7668   3.169  11.815   1.438  1.0062  0.4014  1.4928
   56MOL0     H 7669   3.239  12.086   1.545 -4.7728 -1.9131  0.1839
   56MOL0     H 7670   3.352  12.024   1.423  0.7955 -0.6583 -0.6613
   56MOL0     H 7671   3.275  11.851   1.653  1.0494 -1.0532  0.8280
   56MOL0     H 7672   3.426  11.839   1.563 -0.7709 -0.5714 -0.7039
   56MOL0     H 7673   3.480  12.068   1.661 -0.0183 -1.0507 -1.3149
   56MOL0     H 7674   3.484  11.934   1.780  1.0363 -0.1599 -0.7244
   56MOL0     H 7675   3.394  12.119   1.896  2.1307 -0.3394 -1.7711
   56MOL0     H 7676   3.267  12.144   1.764  1.2481 -0.7306 -2.5635
   56MOL0     H 7677   3.054  12.002   1.781  1.2650 -1.8058 -1.5002
   56MOL0     H 7678   2.866  11.882   1.894 -0.3138  1.3294  0.1800
   56MOL0     H 7679   2.891  11.763   2.017  2.8794 -1.8175 -0.1511
   56MOL0     H 7680   2.950  11.726   1.717  0.7447  3.2177  1.5767
   56MOL0     H 7681   3.003  11.610   1.837 -0.3878 -0.0128 -0.2726
   56MOL0     H 7682   2.712  11.679   1.862 -1.6157 -1.1437 -0.9969
   56MOL0     H 7683   2.753  11.611   1.698 -3.4319  0.6006  0.6417
   56MOL0     H 7684   2.820  11.493   1.972  0.5040 -2.7326  0.2636
   56MOL0     H 7685   2.684  11.438   1.868  0.2800 -0.5219  0.9878
   56MOL0     H 7686   2.771  11.223   1.967 -1.8352  0.4654  0.5310
   56MOL0     H 7687   2.718  10.910   1.981  1.5339  1.4210  0.4003
   56MOL0     H 7688   2.554  10.979   1.936  0.9043  0.5738 -1.6050
   56MOL0     H 7689   2.674  11.051   2.056  0.0335 -0.2623  0.7598
   56MOL0     H 7690   2.414  10.785   1.563  1.2331 -1.0634  0.0326
   56MOL0     H 7691   2.303  10.588   1.482 -0.9417 -2.5180 -0.1174
   56MOL0     H 7692   2.447  10.199   1.281  1.0875  1.0419 -0.0578
   56MOL0     H 7693   2.592  10.280   1.308 -1.7490  0.0078 -1.3456
   56MOL0     H 7694   2.419  10.129   1.528  1.0218 -1.9033  0.2876
   56MOL0     H 7695   2.576  10.095   1.460  2.9311  0.2684  1.0187
   56MOL0     H 7696   2.504  10.324   1.641  1.2389  2.0825 -0.7651
   56MOL0     H 7697   2.655  10.315   1.559 -2.5807  0.6235 -2.3026
   56MOL0     H 7698   2.692  10.091   1.687 -0.4943 -0.3736  0.3673
   56MOL0     H 7699   2.529  10.131   1.760  0.0447 -2.1469 -2.4226
   56MOL0     H 7700   2.693  10.195   1.906 -2.5011 -1.5442 -1.0653
   56MOL0     H 7701   2.802  10.268   1.777  2.0335 -1.8488  3.1475
   56MOL0     H 7702   2.521  10.386   1.852 -0.2119 -0.0265 -2.2948
   56MOL0     H 7703   2.660  10.459   1.759 -0.3582  2.5399  1.9668
   56MOL0     H 7704   2.643  10.564   1.975  1.9225  0.9107  2.4509
   56MOL0     H 7705   2.791  10.452   1.966  0.0703 -2.6411 -2.1457
   56MOL0     H 7706   2.699  10.435   2.188 -2.0839  1.7033  0.0979
   56MOL0     H 7707   2.662  10.284   2.094 -2.0964 -0.4479 -3.5392
   56MOL0     H 7708   2.691  10.449   1.330  0.2885  1.5327 -1.8708
   56MOL0     H 7709   2.785  10.649   1.416 -0.3674  2.1785 -0.0903
   56MOL0     H 7710   2.732  11.086   1.501  2.1100  1.3871 -0.6560
   56MOL0     H 7711   2.874  11.283   1.555 -2.5788 -1.6924 -3.1122
   56MOL0     H 7712   2.624  11.651   1.046 -0.9234 -0.6340  0.2015
   56MOL0     H 7713   2.486  11.465   1.103  0.4077 -1.5211  0.8012
   56MOL0     H 7714   2.498  11.076   1.313 -0.4791  1.5378  1.2364
   56MOL0     H 7715   2.398  10.848   1.278  0.9839  0.0130  0.9862
   56MOL0     H 7716   1.981  10.747   1.358  4.2889 -2.1564  0.4179
   56MOL0     H 7717   1.941  10.837   1.201 -0.7745 -0.8382 -0.1913
   56MOL0     H 7718   1.870  10.605   1.190 -0.6301  2.4243 -1.0174
   56MOL0     H 7719   2.038  10.560   1.230 -0.0641  2.4080  1.2216
   56MOL0     H 7720   1.952  10.719   0.973  5.1845  2.7191 -2.5763
   56MOL0     H 7721   2.113  10.673   1.013  0.3422 -1.3985 -1.5199
   56MOL0     H 7722   2.051  10.430   0.974  1.3709  2.6301  2.6440
   56MOL0     H 7723   2.041  10.539   0.842  0.3499  0.8161 -0.6101
   56MOL0     H 7724   1.648  10.454   0.820 -0.3631  1.4050  0.7079
   56MOL0     H 7725   2.006  11.029   1.294  0.0829  1.1076 -0.6133
   56MOL0     H 7726   2.087  11.317   1.453 -1.4866  1.5367 -0.7831
   56MOL0     H 7727   2.067  11.332   1.281 -0.9858  0.4676  0.5298
   56MOL0     H 7728   1.961  11.211   1.376  0.8033 -2.0208  3.3019
   57MOL0     O 7729   9.404   6.359   8.204  0.5024  0.0556 -0.2264
   57MOL0     C 7730   9.316   6.355   8.114 -0.6052 -0.1970  1.2585
   57MOL0     O 7731   9.323   6.411   7.990  0.4236 -0.1306 -0.2378
   57MOL0     C 7732   9.427   6.492   7.948 -0.4565  0.8347  0.4928
   57MOL0     C 7733   9.484   6.458   7.824  0.6197  0.2848  0.5233
   57MOL0     C 7734   9.599   6.522   7.777 -0.1568  0.4278  0.4473
   57MOL0     C 7735   9.671   6.616   7.854  1.3818 -0.1816 -0.2589
   57MOL0     O 7736   9.797   6.635   7.810  0.5911  1.0688  0.0017
   57MOL0     C 7737   9.872   6.749   7.865  0.3827  0.1541  0.1724
   57MOL0     C 7738   9.990   6.794   7.785  0.8753 -0.0323 -0.5955
   57MOL0     C 7739  10.095   6.693   7.761 -0.5006 -0.7392  0.5992
   57MOL0     C 7740  10.186   6.749   7.646  0.2039 -1.0324 -0.5720
   57MOL0     C 7741  10.292   6.658   7.590  0.0208  0.0171  0.2999
   57MOL0     C 7742  10.230   6.555   7.490  0.3420  1.0008 -0.0613
   57MOL0     C 7743  10.209   6.619   7.353 -0.3461 -0.7252 -0.5040
   57MOL0     C 7744  10.322   6.699   7.283  0.6703  0.9705 -0.8506
   57MOL0     N 7745  10.290   6.756   7.148 -0.9807 -0.4088 -0.0066
   57MOL0     C 7746  10.357   6.727   7.037  0.2605 -0.0977  0.1546
   57MOL0     C 7747  10.308   6.807   6.946  0.8590 -0.6653  0.5369
   57MOL0     C 7748  10.337   6.796   6.794  0.0700  0.1524 -0.6821
   57MOL0     C 7749  10.305   6.922   6.718 -0.2812 -0.5464 -0.4184
   57MOL0     C 7750  10.363   6.916   6.574  0.1173 -0.0890  0.1538
   57MOL0     C 7751  10.304   7.013   6.479  0.7293 -0.9343 -0.1911
   57MOL0     O 7752  10.286   7.148   6.538  0.4327 -0.1925  0.9512
   57MOL0     C 7753  10.399   7.216   6.579  0.6181 -0.1537  0.6414
   57MOL0     C 7754  10.366   7.324   6.651  0.6993 -0.1169  0.9315
   57MOL0     C 7755  10.455   7.421   6.708  0.8241 -0.6475 -0.2676
   57MOL0     C 7756  10.402   7.527   6.802 -0.8183  0.3500  0.0041
   57MOL0     C 7757  10.596   7.395   6.681 -0.5462 -0.1803 -0.0801
   57MOL0     C 7758  10.707   7.481   6.735  0.3849 -0.1441 -0.0657
   57MOL0     O 7759  10.819   7.428   6.807  0.1139  0.1525  0.1406
   57MOL0     C 7760  10.926   7.504   6.833 -0.1823 -0.1144 -0.0914
   57MOL0     C 7761  10.976   7.473   6.959 -0.9826  0.0154  0.1305
   57MOL0     C 7762  11.091   7.537   7.003 -0.7728  0.9754  0.7953
   57MOL0     C 7763  11.154   7.634   6.921  0.4990 -1.3273 -0.7928
   57MOL0     O 7764  11.265   7.703   6.949 -0.8410 -0.4267 -0.8510
   57MOL0     C 7765  11.302   7.715   7.087  0.3344 -0.0005  0.8567
   57MOL0     C 7766  11.421   7.810   7.097 -0.1477  0.0826 -0.8761
   57MOL0     C 7767  11.465   7.837   7.235  0.0084  0.2639  0.5160
   57MOL0     C 7768  11.529   7.712   7.294  0.0855  0.9916  0.3343
   57MOL0     C 7769  11.581   7.741   7.434  0.1303  0.4079 -0.3297
   57MOL0     C 7770  11.695   7.652   7.485 -0.3936  0.0471  0.4656
   57MOL0     C 7771  11.650   7.511   7.523 -0.5012  0.4037 -0.5520
   57MOL0     C 7772  11.744   7.458   7.636  0.1352  0.3899 -0.3404
   57MOL0    Cl 7773  11.700   7.288   7.675  0.7605 -0.0883  0.2510
   57MOL0     C 7774  11.089   7.670   6.798 -0.8016  0.1218  0.7761
   57MOL0     C 7775  10.988   7.599   6.751  0.2506 -0.0331  0.6393
   57MOL0     O 7776  10.685   7.603   6.720  0.3778 -0.3861  0.6626
   57MOL0     C 7777  10.630   7.284   6.606 -0.6448 -0.3344 -0.8908
   57MOL0     C 7778  10.535   7.189   6.559 -0.2107 -0.1367 -0.4282
   57MOL0     N 7779  10.215   6.893   7.002  0.5694  0.0448 -0.4560
   57MOL0     N 7780  10.210   6.867   7.132 -0.3113  0.2291  0.1861
   57MOL0     C 7781   9.620   6.652   7.984  0.6904 -1.2866 -0.7549
   57MOL0     C 7782   9.501   6.587   8.025 -0.5310 -0.2995 -0.3998
   57MOL0     C 7783   9.199   6.275   8.148  0.0017 -0.2595 -0.1895
   57MOL0     C 7784   9.224   6.152   8.205  0.4812  0.0838 -1.0250
   57MOL0     C 7785   9.130   6.067   8.255  0.2570  0.6067 -0.8283
   57MOL0     C 7786   8.995   6.110   8.263  0.8410 -0.2974  0.2288
   57MOL0     O 7787   8.901   6.017   8.300 -0.0285 -0.4970  0.1006
   57MOL0     C 7788   8.828   6.048   8.423 -1.0791 -0.4506  0.0053
   57MOL0     C 7789   8.735   5.943   8.475 -1.4263  0.5287  0.3029
   57MOL0     C 7790   8.812   5.811   8.511  0.9827 -0.2807  0.4469
   57MOL0     C 7791   8.727   5.696   8.463 -0.4163  0.0268  0.2273
   57MOL0     C 7792   8.788   5.571   8.522  0.3244  0.5609 -0.0574
   57MOL0     C 7793   8.839   5.479   8.590  0.9473  0.0883  0.9897
   57MOL0     C 7794   8.962   6.241   8.223  0.4373 -0.0932 -0.0626
   57MOL0     C 7795   9.065   6.322   8.169  0.1021  0.0941  1.2453
   57MOL0     C 7796   9.028   6.462   8.139  0.6348  0.1286 -0.5066
   57MOL0     H 7797   9.431   6.377   7.776 -1.9843  2.1239  0.1350
   57MOL0     H 7798   9.641   6.481   7.686  2.5549 -0.6099  2.0345
   57MOL0     H 7799   9.898   6.734   7.971 -0.7582 -1.1971  0.2875
   57MOL0     H 7800   9.804   6.835   7.861  0.3666  0.3576  2.7789
   57MOL0     H 7801   9.961   6.835   7.687  0.4981 -0.1314 -0.5251
   57MOL0     H 7802  10.028   6.882   7.839 -0.3081 -0.2036  0.5736
   57MOL0     H 7803  10.149   6.682   7.855  0.8373  0.3148 -0.0088
   57MOL0     H 7804  10.045   6.599   7.735  0.9257 -1.9484  1.9632
   57MOL0     H 7805  10.134   6.790   7.558  0.9225  0.2382 -0.4319
   57MOL0     H 7806  10.236   6.839   7.683 -0.2751 -0.7253 -0.6559
   57MOL0     H 7807  10.322   6.594   7.673 -2.7192 -0.2738  1.1589
   57MOL0     H 7808  10.379   6.706   7.544 -0.5134  0.1297 -0.6320
   57MOL0     H 7809  10.305   6.475   7.480  0.6202  1.4295 -1.7259
   57MOL0     H 7810  10.138   6.509   7.527  1.3644 -1.2655 -0.1897
   57MOL0     H 7811  10.125   6.689   7.361  0.8866  0.6386  1.9001
   57MOL0     H 7812  10.178   6.540   7.285  2.8191 -1.4229 -1.3054
   57MOL0     H 7813  10.352   6.778   7.352  0.2759  0.3615  0.0339
   57MOL0     H 7814  10.411   6.638   7.299 -1.1679 -1.5404  0.5078
   57MOL0     H 7815  10.420   6.639   7.026 -0.3096 -0.4167 -0.7964
   57MOL0     H 7816  10.278   6.711   6.757 -0.5128  0.9194 -1.5554
   57MOL0     H 7817  10.438   6.761   6.771  1.5047  2.3063  1.8454
   57MOL0     H 7818  10.197   6.935   6.716 -0.2667 -0.4811 -0.7357
   57MOL0     H 7819  10.357   6.999   6.777  0.5105 -0.1911 -1.5476
   57MOL0     H 7820  10.472   6.925   6.574  0.0473  1.3356 -1.0043
   57MOL0     H 7821  10.339   6.818   6.532  0.0958 -0.2109  0.4527
   57MOL0     H 7822  10.358   7.031   6.386 -0.6051  0.9614 -0.6656
   57MOL0     H 7823  10.203   6.979   6.458  0.0652  0.8671 -0.1090
   57MOL0     H 7824  10.261   7.344   6.669  0.5932  0.4656 -0.2183
   57MOL0     H 7825  10.298   7.556   6.783 -1.8429 -4.1272 -2.6239
   57MOL0     H 7826  10.461   7.614   6.772  0.5684 -1.1658 -1.9247
   57MOL0     H 7827  10.425   7.503   6.906  1.1351 -3.2312 -1.0811
   57MOL0     H 7828  10.943   7.392   7.023  2.8616 -0.1214  2.2527
   57MOL0     H 7829  11.133   7.512   7.100  0.6863  0.3948  0.0437
   57MOL0     H 7830  11.225   7.751   7.155  2.1168 -0.2261  3.1311
   57MOL0     H 7831  11.336   7.619   7.127  3.3198  0.0551 -1.2181
   57MOL0     H 7832  11.507   7.771   7.041  0.0634 -1.4705  0.4538
   57MOL0     H 7833  11.378   7.897   7.047 -0.3594  1.1540  1.0734
   57MOL0     H 7834  11.388   7.879   7.300  0.4343  0.0889  1.1441
   57MOL0     H 7835  11.538   7.918   7.227  1.3583 -1.1324 -2.7924
   57MOL0     H 7836  11.616   7.689   7.232  1.6702 -0.4608  2.8965
   57MOL0     H 7837  11.465   7.623   7.290  2.1331 -0.5511  0.6788
   57MOL0     H 7838  11.626   7.841   7.429  0.1166  0.3812 -1.2179
   57MOL0     H 7839  11.490   7.749   7.494  0.7549 -1.1446  0.9036
   57MOL0     H 7840  11.741   7.707   7.568 -1.9254  1.9061  0.1549
   57MOL0     H 7841  11.774   7.657   7.410  0.0458 -0.8447  0.8502
   57MOL0     H 7842  11.640   7.439   7.442  0.2974  0.7975 -1.0067
   57MOL0     H 7843  11.552   7.500   7.571 -0.3902 -2.7890 -0.8556
   57MOL0     H 7844  11.739   7.520   7.726 -1.6354 -2.4858  1.7051
   57MOL0     H 7845  11.849   7.462   7.604  0.2125 -0.8579 -0.2915
   57MOL0     H 7846  11.139   7.746   6.739 -4.2945  1.9964 -0.0557
   57MOL0     H 7847  10.939   7.623   6.657  1.7103 -1.2761 -0.4858
   57MOL0     H 7848  10.736   7.262   6.611 -0.3811  0.7798 -1.4321
   57MOL0     H 7849  10.575   7.104   6.505  0.6159 -0.1210  0.1403
   57MOL0     H 7850   9.668   6.709   8.063  2.2685 -1.9912 -1.1788
   57MOL0     H 7851   9.467   6.614   8.125  0.8866  3.3819 -0.7501
   57MOL0     H 7852   9.328   6.123   8.218 -0.4461 -3.1402  0.3072
   57MOL0     H 7853   9.154   5.962   8.261  1.3169  0.7683 -2.0133
   57MOL0     H 7854   8.896   6.067   8.507  1.2875 -0.1144 -1.8797
   57MOL0     H 7855   8.771   6.141   8.419  0.4449  0.5613  0.7837
   57MOL0     H 7856   8.666   5.923   8.393  0.1272 -0.2760 -0.8555
   57MOL0     H 7857   8.678   5.962   8.566 -0.1318 -3.2377  2.1207
   57MOL0     H 7858   8.913   5.805   8.469  1.0621 -0.3140  0.6414
   57MOL0     H 7859   8.824   5.813   8.620  1.6683 -0.4156  0.3775
   57MOL0     H 7860   8.716   5.694   8.354 -4.8054  0.3380  0.4879
   57MOL0     H 7861   8.627   5.720   8.502 -1.0632  1.2824 -2.0076
   57MOL0     H 7862   8.871   5.404   8.659  0.2023 -0.7885  0.4118
   57MOL0     H 7863   8.858   6.272   8.223 -0.4535 -2.8304  0.7398
   57MOL0     H 7864   9.086   6.510   8.060 -1.1537  2.0221 -0.7730
   57MOL0     H 7865   8.923   6.457   8.106  0.6296  2.4400 -0.9769
   57MOL0     H 7866   9.037   6.520   8.231  2.3368 -1.7366  0.5863
   58MOL0     O 7867   3.705   8.252   2.299  0.9986  0.1895  0.1907
   58MOL0     C 7868   3.761   8.229   2.186  0.3870 -0.7036 -0.2819
   58MOL0     O 7869   3.701   8.159   2.078 -0.4474  0.3385  0.3697
   58MOL0     C 7870   3.573   8.112   2.072  0.4672  0.1132  0.0011
   58MOL0     C 7871   3.563   7.975   2.053 -0.1650 -0.7459  0.0954
   58MOL0     C 7872   3.433   7.913   2.045  0.0909  0.2855  0.3535
   58MOL0     C 7873   3.318   7.993   2.059 -0.0388 -0.3374  0.3714
   58MOL0     O 7874   3.194   7.938   2.044  0.6173 -0.4129 -0.1498
   58MOL0     C 7875   3.149   7.899   2.181  0.2944  0.0398  1.1844
   58MOL0     C 7876   3.003   7.840   2.172  0.0466 -0.6040 -0.4424
   58MOL0     C 7877   2.923   7.857   2.303 -0.7341 -0.4603 -0.6768
   58MOL0     C 7878   2.783   7.793   2.287 -1.2540  0.3039 -0.3231
   58MOL0     C 7879   2.683   7.864   2.369  0.3423 -0.3132 -0.0882
   58MOL0     C 7880   2.537   7.809   2.343 -0.5490 -0.3715  0.4864
   58MOL0     C 7881   2.442   7.886   2.441  0.3857 -0.0819 -0.5995
   58MOL0     C 7882   2.293   7.874   2.408  0.4066 -0.1178  0.2370
   58MOL0     N 7883   2.210   7.892   2.526 -0.7968 -0.0547 -0.2090
   58MOL0     C 7884   2.187   8.003   2.604 -0.5331 -0.4280 -0.3449
   58MOL0     C 7885   2.085   7.973   2.690 -0.7781 -0.3703  0.5122
   58MOL0     C 7886   2.027   8.049   2.813  0.5836 -0.4882  0.5420
   58MOL0     C 7887   1.918   8.148   2.768 -0.3213  0.1329  0.7275
   58MOL0     C 7888   1.961   8.295   2.732  0.1792  0.2739  0.0551
   58MOL0     C 7889   2.013   8.367   2.851 -1.0011  0.5028 -0.1168
   58MOL0     O 7890   2.056   8.503   2.807 -0.0975  0.4595  0.1352
   58MOL0     C 7891   2.190   8.523   2.814  0.5260 -0.1153  0.3055
   58MOL0     C 7892   2.249   8.563   2.932 -1.0850  0.5832 -0.4148
   58MOL0     C 7893   2.389   8.574   2.934 -0.5025  0.2857 -0.3970
   58MOL0     C 7894   2.451   8.597   3.070 -0.1905 -0.1571 -0.2051
   58MOL0     C 7895   2.471   8.545   2.819  0.4341 -0.5660  0.5673
   58MOL0     C 7896   2.619   8.555   2.820  0.2788 -0.0489 -0.7064
   58MOL0     O 7897   2.675   8.556   2.698  0.6985  0.8236 -0.4208
   58MOL0     C 7898   2.810   8.572   2.696 -0.4530 -0.8095  0.6624
   58MOL0     C 7899   2.857   8.703   2.660 -0.6444 -0.1959  0.2389
   58MOL0     C 7900   2.992   8.732   2.640  0.0299 -0.7668 -0.1971
   58MOL0     C 7901   3.084   8.629   2.659  0.1195 -0.8879 -0.5994
   58MOL0     O 7902   3.215   8.657   2.640  0.3217 -0.0186  0.1708
   58MOL0     C 7903   3.278   8.727   2.746 -0.0875 -0.1304  0.3604
   58MOL0     C 7904   3.429   8.711   2.726  0.0251 -0.7739 -0.0848
   58MOL0     C 7905   3.506   8.763   2.847 -0.1950  0.6688 -0.1516
   58MOL0     C 7906   3.652   8.760   2.830 -0.8408  0.3706  0.3302
   58MOL0     C 7907   3.726   8.844   2.939  0.1711 -0.3643 -0.1617
   58MOL0     C 7908   3.876   8.814   2.919 -0.5533  0.3739 -0.2691
   58MOL0     C 7909   3.938   8.895   3.029  0.3112 -0.6544 -0.2447
   58MOL0     C 7910   4.084   8.914   3.017  0.2029  0.0150 -0.6178
   58MOL0    Cl 7911   4.198   8.765   3.030  0.4758  0.4820 -0.5769
   58MOL0     C 7912   3.040   8.501   2.695 -0.9434 -1.3477  0.8600
   58MOL0     C 7913   2.904   8.474   2.722  0.5535  0.7859  0.1361
   58MOL0     O 7914   2.688   8.563   2.926  0.7385  0.0829  0.3613
   58MOL0     C 7915   2.401   8.511   2.697 -0.5790  0.0465 -0.4748
   58MOL0     C 7916   2.264   8.509   2.697  0.9232  0.1753 -0.0319
   58MOL0     N 7917   2.047   7.837   2.663 -0.0469 -0.7313 -0.6995
   58MOL0     N 7918   2.118   7.793   2.562 -0.0200  0.7005  0.1050
   58MOL0     C 7919   3.330   8.127   2.091  0.1198 -0.0405  0.0640
   58MOL0     C 7920   3.459   8.191   2.101  0.3608 -0.2609  0.3166
   58MOL0     C 7921   3.894   8.291   2.167  0.4106  0.2966  0.2603
   58MOL0     C 7922   3.935   8.311   2.034 -0.0887 -0.2985  0.0877
   58MOL0     C 7923   4.060   8.345   1.999 -0.4987 -0.5345  0.3768
   58MOL0     C 7924   4.152   8.391   2.092  0.3086 -0.1630  0.7119
   58MOL0     O 7925   4.276   8.436   2.062  0.4858  0.4526 -0.3903
   58MOL0     C 7926   4.351   8.369   1.962  0.8130  0.4557  1.0442
   58MOL0     C 7927   4.499   8.381   1.994 -0.2463  0.1275  0.3826
   58MOL0     C 7928   4.546   8.527   2.019  0.5469  0.5659  0.6066
   58MOL0     C 7929   4.700   8.528   2.037  0.0033  0.1153 -0.1637
   58MOL0     C 7930   4.774   8.493   1.912 -0.4565 -0.8686  0.8812
   58MOL0     C 7931   4.845   8.486   1.808 -0.2472 -0.4338 -0.1244
   58MOL0     C 7932   4.116   8.395   2.227  0.8385 -0.1279  0.5757
   58MOL0     C 7933   3.995   8.335   2.258  0.7000 -1.0962 -0.1818
   58MOL0     C 7934   3.978   8.298   2.404  0.3360  0.2988  0.0017
   58MOL0     H 7935   3.655   7.919   2.045  0.6699  0.0912  2.6248
   58MOL0     H 7936   3.410   7.809   2.028 -2.3584  0.7902  0.2568
   58MOL0     H 7937   3.153   7.989   2.242 -2.3505 -0.4886  2.2820
   58MOL0     H 7938   3.214   7.817   2.212  3.6049  1.2888 -1.8333
   58MOL0     H 7939   2.956   7.873   2.079 -2.5748  1.6025  1.5246
   58MOL0     H 7940   3.014   7.731   2.162  0.3538 -0.6819  0.6246
   58MOL0     H 7941   2.966   7.807   2.390 -1.4260  1.7190  1.0160
   58MOL0     H 7942   2.922   7.964   2.327  0.2484  0.2855 -3.6067
   58MOL0     H 7943   2.751   7.806   2.183  0.9767  0.5330 -1.0336
   58MOL0     H 7944   2.779   7.687   2.312  2.1534  0.3028  0.6902
   58MOL0     H 7945   2.678   7.972   2.351 -0.6919 -0.4222 -0.4877
   58MOL0     H 7946   2.721   7.851   2.471  1.0767 -0.9056 -0.4259
   58MOL0     H 7947   2.508   7.825   2.239 -1.0931 -0.5119  0.6153
   58MOL0     H 7948   2.536   7.701   2.365 -0.6520  0.0378  2.6936
   58MOL0     H 7949   2.464   7.991   2.461 -0.8825  0.1595 -0.3916
   58MOL0     H 7950   2.470   7.838   2.535 -1.1175  1.0582  0.4614
   58MOL0     H 7951   2.256   7.955   2.344  1.1294  0.1243  0.1220
   58MOL0     H 7952   2.272   7.778   2.359  1.2024  0.2247 -0.7993
   58MOL0     H 7953   2.241   8.097   2.610  0.5252 -1.1254  2.0934
   58MOL0     H 7954   2.108   8.100   2.867 -1.3747  3.5243  0.0561
   58MOL0     H 7955   1.976   7.979   2.878 -3.2688  0.8087 -0.8281
   58MOL0     H 7956   1.868   8.115   2.676  0.5166 -1.6093  0.8591
   58MOL0     H 7957   1.844   8.154   2.848  1.1084 -0.8888  2.2019
   58MOL0     H 7958   2.039   8.299   2.655 -0.2492  0.2169 -0.3851
   58MOL0     H 7959   1.870   8.347   2.700 -0.0516 -2.0853 -3.7766
   58MOL0     H 7960   1.934   8.387   2.925 -2.7735  3.2371 -2.5355
   58MOL0     H 7961   2.092   8.313   2.904 -2.5937 -1.5465  0.2865
   58MOL0     H 7962   2.187   8.587   3.018 -3.9694  3.4396 -2.9997
   58MOL0     H 7963   2.496   8.509   3.117 -3.6341 -0.1895  3.6248
   58MOL0     H 7964   2.377   8.628   3.144 -1.5285 -1.1160 -1.0758
   58MOL0     H 7965   2.519   8.682   3.059 -0.0103 -0.3628 -0.7087
   58MOL0     H 7966   2.791   8.788   2.646 -2.3407 -0.9476  2.8885
   58MOL0     H 7967   3.026   8.827   2.601 -0.1592 -0.3752  0.5735
   58MOL0     H 7968   3.230   8.824   2.760  0.7806  0.8296 -2.6468
   58MOL0     H 7969   3.249   8.675   2.838 -0.5576 -1.7662 -0.6737
   58MOL0     H 7970   3.453   8.605   2.710  0.9193 -0.8403  1.4399
   58MOL0     H 7971   3.456   8.778   2.644  3.3832 -2.3024 -0.4268
   58MOL0     H 7972   3.476   8.704   2.935 -3.0933 -0.4865 -1.7888
   58MOL0     H 7973   3.468   8.865   2.858  0.6601  1.2273 -1.9722
   58MOL0     H 7974   3.673   8.803   2.732 -0.4176  0.0013  0.2553
   58MOL0     H 7975   3.693   8.658   2.834 -0.5607  0.4964  0.7245
   58MOL0     H 7976   3.700   8.950   2.937 -0.0366 -0.4186 -1.6182
   58MOL0     H 7977   3.697   8.808   3.038 -0.4343  1.2389  0.2694
   58MOL0     H 7978   3.918   8.830   2.819  1.2406 -1.5318  0.1112
   58MOL0     H 7979   3.895   8.711   2.948 -0.4604  0.4388 -0.1024
   58MOL0     H 7980   3.914   8.838   3.119 -1.5568 -3.1269 -2.1616
   58MOL0     H 7981   3.889   8.993   3.028  1.3094 -0.0155  2.5565
   58MOL0     H 7982   4.121   8.984   3.093  0.1185  1.2238 -1.6601
   58MOL0     H 7983   4.107   8.946   2.915  0.6405  2.0105  0.0641
   58MOL0     H 7984   3.122   8.431   2.697 -1.1302 -1.6957 -1.5044
   58MOL0     H 7985   2.872   8.377   2.758  1.7136  0.1036 -0.5870
   58MOL0     H 7986   2.450   8.499   2.601 -2.6156 -0.2341 -1.5490
   58MOL0     H 7987   2.219   8.473   2.605  3.0339 -0.5527 -0.8374
   58MOL0     H 7988   3.240   8.185   2.077 -0.2717 -0.8037 -0.6711
   58MOL0     H 7989   3.474   8.298   2.115 -2.8450  0.1893  1.2197
   58MOL0     H 7990   3.872   8.295   1.946  2.0653  0.9817 -1.7957
   58MOL0     H 7991   4.096   8.350   1.897 -2.4355  2.9997 -0.2949
   58MOL0     H 7992   4.327   8.264   1.940 -1.4073  0.5822  2.5975
   58MOL0     H 7993   4.328   8.419   1.868 -2.0677  0.5541  1.7291
   58MOL0     H 7994   4.557   8.342   1.910 -1.4987 -0.1608 -0.3734
   58MOL0     H 7995   4.523   8.323   2.083 -1.3773 -2.4342 -0.8672
   58MOL0     H 7996   4.521   8.586   1.930 -0.4701 -0.1551  0.3904
   58MOL0     H 7997   4.490   8.568   2.103 -0.1582  1.8292 -0.4361
   58MOL0     H 7998   4.733   8.464   2.119 -3.1646  2.3806  3.2197
   58MOL0     H 7999   4.731   8.630   2.065 -3.1922  1.2487 -0.3470
   58MOL0     H 8000   4.897   8.476   1.715  0.5316  0.1350  0.2403
   58MOL0     H 8001   4.175   8.429   2.312 -1.1120  0.0636  1.9503
   58MOL0     H 8002   3.900   8.357   2.452 -1.9283 -1.4631 -1.3153
   58MOL0     H 8003   3.960   8.191   2.417 -0.7232  0.2575 -1.4954
   58MOL0     H 8004   4.071   8.316   2.459  1.8161 -1.4321 -1.7808
   59MOL0     O 8005  10.067   2.406   4.370  0.0797 -0.2464  1.2867
   59MOL0     C 8006  10.022   2.397   4.475  0.0439 -0.2473  0.2277
   59MOL0     O 8007  10.099   2.386   4.598  0.5154  1.1941 -0.1225
   59MOL0     C 8008  10.238   2.384   4.617  0.0420  0.7576  0.0689
   59MOL0     C 8009  10.336   2.357   4.522  0.4772  0.2824 -0.1038
   59MOL0     C 8010  10.471   2.377   4.567 -0.0917  0.0837  0.0968
   59MOL0     C 8011  10.504   2.414   4.701 -0.7024  0.5359  0.0538
   59MOL0     O 8012  10.633   2.428   4.748 -0.2318  0.1848 -0.1344
   59MOL0     C 8013  10.735   2.353   4.679  0.2935 -0.0049 -1.1186
   59MOL0     C 8014  10.863   2.375   4.754  0.8093  0.2054  0.4316
   59MOL0     C 8015  10.965   2.284   4.677  0.0295 -0.0309  0.7493
   59MOL0     C 8016  11.075   2.232   4.773 -0.4569  0.1787 -0.0756
   59MOL0     C 8017  11.184   2.338   4.805  0.3062  0.5708 -0.1452
   59MOL0     C 8018  11.268   2.389   4.684  0.1144 -0.2545 -0.0780
   59MOL0     C 8019  11.381   2.482   4.735  0.0000 -0.4471  0.4543
   59MOL0     C 8020  11.333   2.627   4.716  0.0385 -0.8939  0.5169
   59MOL0     N 8021  11.407   2.722   4.807  0.2942  0.3592  1.1031
   59MOL0     C 8022  11.363   2.853   4.836 -0.2990 -0.8153 -0.7934
   59MOL0     C 8023  11.476   2.901   4.910 -0.0107 -0.0418  0.2766
   59MOL0     C 8024  11.484   3.032   4.976  0.2751  0.0430 -0.4017
   59MOL0     C 8025  11.624   3.051   5.035 -0.3290 -0.5869 -0.4020
   59MOL0     C 8026  11.719   3.118   4.939  0.1352 -0.6593 -0.1252
   59MOL0     C 8027  11.859   3.150   4.991  0.9602  0.2845  0.5034
   59MOL0     O 8028  11.906   3.023   5.045 -0.0558  0.3439 -0.1755
   59MOL0     C 8029  12.013   3.031   5.133  0.3846 -0.8452  0.2197
   59MOL0     C 8030  12.058   2.910   5.169  0.9056  0.3130 -0.2684
   59MOL0     C 8031  12.170   2.883   5.241 -0.3316 -0.1792  0.1439
   59MOL0     C 8032  12.207   2.741   5.250 -0.4708 -1.0471  0.1211
   59MOL0     C 8033  12.238   2.995   5.292 -0.1762 -0.1609 -0.3552
   59MOL0     C 8034  12.361   2.984   5.371  1.2522 -0.1088  0.8552
   59MOL0     O 8035  12.374   3.081   5.467  0.3764 -0.4050  0.2266
   59MOL0     C 8036  12.500   3.139   5.496  0.1205  0.0585 -0.5024
   59MOL0     C 8037  12.500   3.214   5.614 -0.5936 -0.1195 -0.3159
   59MOL0     C 8038  12.613   3.273   5.667  0.3181 -0.8680  0.4220
   59MOL0     C 8039  12.730   3.270   5.597  0.4582  0.2666 -0.8589
   59MOL0     O 8040  12.848   3.330   5.634 -0.2325 -0.0335  0.2299
   59MOL0     C 8041  12.846   3.393   5.768 -0.4163 -0.0741  0.4267
   59MOL0     C 8042  12.991   3.445   5.799 -0.9704 -0.3050  0.3769
   59MOL0     C 8043  13.056   3.547   5.701  0.0317 -0.4857 -0.4036
   59MOL0     C 8044  12.965   3.657   5.667 -0.1921  0.2279 -0.8018
   59MOL0     C 8045  13.050   3.762   5.589  0.5505  0.1088 -0.6166
   59MOL0     C 8046  13.101   3.734   5.456 -0.1917  0.8941  0.2397
   59MOL0     C 8047  13.182   3.848   5.390  0.0368  0.2544  0.3395
   59MOL0     C 8048  13.133   3.904   5.257 -0.5745  0.6280  0.9612
   59MOL0    Cl 8049  13.227   4.056   5.228  0.1863 -0.1238 -0.2528
   59MOL0     C 8050  12.728   3.203   5.474 -0.7800  0.2721  0.4032
   59MOL0     C 8051  12.614   3.134   5.422 -0.3058  0.1662  0.5175
   59MOL0     O 8052  12.435   2.888   5.355 -0.3030  0.3087 -0.3594
   59MOL0     C 8053  12.188   3.128   5.265  0.1851  1.0140 -0.0726
   59MOL0     C 8054  12.076   3.148   5.188  0.1546 -0.0552  0.2361
   59MOL0     N 8055  11.570   2.797   4.919 -0.5774  0.7957  0.3209
   59MOL0     N 8056  11.528   2.695   4.851 -0.5111  0.8780  0.2026
   59MOL0     C 8057  10.400   2.430   4.792 -0.8954  0.5057 -0.4764
   59MOL0     C 8058  10.274   2.415   4.754  0.0062 -0.3777 -0.1945
   59MOL0     C 8059   9.874   2.401   4.499 -0.0144 -0.0655  0.9592
   59MOL0     C 8060   9.830   2.400   4.635 -0.5428  0.5463 -0.1126
   59MOL0     C 8061   9.690   2.396   4.663  0.1052 -0.4327 -0.9543
   59MOL0     C 8062   9.597   2.381   4.558 -1.6505 -0.2518  0.2277
   59MOL0     O 8063   9.466   2.388   4.602  0.6498  0.0118 -0.0370
   59MOL0     C 8064   9.366   2.338   4.511 -0.6784  0.4268 -0.1894
   59MOL0     C 8065   9.239   2.304   4.586  0.0904 -0.6168 -0.4659
   59MOL0     C 8066   9.262   2.174   4.674  0.7361 -0.5717 -0.6399
   59MOL0     C 8067   9.130   2.130   4.731 -0.3458 -0.3376  0.6560
   59MOL0     C 8068   9.140   2.006   4.815 -0.3070 -1.0163  0.4886
   59MOL0     C 8069   9.161   1.902   4.867 -0.7747  1.3718 -0.2933
   59MOL0     C 8070   9.643   2.400   4.426 -0.3529  0.4124  0.1221
   59MOL0     C 8071   9.777   2.412   4.396  0.4936 -0.5278  0.7039
   59MOL0     C 8072   9.808   2.464   4.253  0.0855  0.2451 -0.8756
   59MOL0     H 8073  10.321   2.341   4.416 -1.3764 -1.8298  0.4046
   59MOL0     H 8074  10.550   2.382   4.493  1.1906 -0.7435  1.3747
   59MOL0     H 8075  10.738   2.374   4.571  1.0631  1.1252 -0.8951
   59MOL0     H 8076  10.715   2.245   4.686  0.1002  0.1597  4.0945
   59MOL0     H 8077  10.897   2.479   4.742  0.0972  0.1571 -3.0412
   59MOL0     H 8078  10.858   2.346   4.860 -3.4500  1.3982  0.7228
   59MOL0     H 8079  10.923   2.192   4.635 -0.0600  0.0321  0.6993
   59MOL0     H 8080  11.006   2.346   4.596  0.9711  0.0463  1.2678
   59MOL0     H 8081  11.034   2.185   4.863  5.2804 -1.1165  2.3107
   59MOL0     H 8082  11.135   2.160   4.717  0.4630  1.4608 -0.8002
   59MOL0     H 8083  11.252   2.285   4.873 -1.0064 -3.6981 -1.8296
   59MOL0     H 8084  11.137   2.425   4.850 -0.8277  1.0268 -2.1006
   59MOL0     H 8085  11.314   2.313   4.621  2.2688  1.4743 -0.7363
   59MOL0     H 8086  11.203   2.449   4.620  0.0450 -0.6211 -0.3542
   59MOL0     H 8087  11.476   2.460   4.685 -1.4661 -1.4708 -2.0692
   59MOL0     H 8088  11.401   2.469   4.842  0.2248  2.6324  0.8813
   59MOL0     H 8089  11.362   2.648   4.613  2.1728  0.1415  1.2616
   59MOL0     H 8090  11.226   2.645   4.730  0.0562 -1.2849  1.2086
   59MOL0     H 8091  11.272   2.911   4.827  0.4278  0.7792  1.1784
   59MOL0     H 8092  11.409   3.037   5.056  0.1887  0.8719 -0.5254
   59MOL0     H 8093  11.464   3.113   4.906  0.6254  1.8252  1.4554
   59MOL0     H 8094  11.619   3.131   5.110 -0.6557 -2.3767  1.5813
   59MOL0     H 8095  11.667   2.968   5.092 -0.1158 -0.4595 -0.3755
   59MOL0     H 8096  11.735   3.049   4.856 -1.7136  1.1222 -2.0761
   59MOL0     H 8097  11.676   3.206   4.891  2.7663  1.2361  0.7308
   59MOL0     H 8098  11.919   3.181   4.905  0.9345  1.8398  1.0162
   59MOL0     H 8099  11.856   3.229   5.067  0.1703  0.7177  0.0355
   59MOL0     H 8100  11.998   2.823   5.145  1.3632  0.4744 -2.1195
   59MOL0     H 8101  12.303   2.732   5.198 -0.1170  1.4031  0.2221
   59MOL0     H 8102  12.142   2.675   5.191 -0.5245 -0.6217 -0.3003
   59MOL0     H 8103  12.207   2.705   5.353  2.9490 -1.1504  0.2031
   59MOL0     H 8104  12.407   3.230   5.668  0.4195  1.6457  0.9727
   59MOL0     H 8105  12.605   3.329   5.759 -5.8212 -1.4800  0.7193
   59MOL0     H 8106  12.777   3.477   5.762 -0.8364 -0.5106 -1.9047
   59MOL0     H 8107  12.817   3.326   5.849 -1.3491 -0.6226 -0.3401
   59MOL0     H 8108  12.984   3.503   5.891 -0.6226  0.6491 -0.1757
   59MOL0     H 8109  13.065   3.366   5.813  0.6276  0.9674 -0.4124
   59MOL0     H 8110  13.093   3.496   5.611 -0.6901  0.6180 -1.3546
   59MOL0     H 8111  13.137   3.600   5.752 -0.2563  1.2286 -1.6390
   59MOL0     H 8112  12.942   3.699   5.766  0.5757 -0.7209 -0.1969
   59MOL0     H 8113  12.877   3.619   5.614  1.1683 -1.4644 -1.9612
   59MOL0     H 8114  12.996   3.857   5.579 -2.3500 -1.6934 -4.4402
   59MOL0     H 8115  13.140   3.794   5.643  0.3744 -1.1238  0.4406
   59MOL0     H 8116  13.009   3.725   5.397 -1.1744  1.3934  1.6473
   59MOL0     H 8117  13.158   3.642   5.446  1.1308  1.6545  0.5801
   59MOL0     H 8118  13.285   3.816   5.374  0.3222  1.8986 -1.5693
   59MOL0     H 8119  13.183   3.930   5.462 -2.3917  0.6789 -0.0191
   59MOL0     H 8120  13.027   3.927   5.271 -0.3997  2.9765 -0.7819
   59MOL0     H 8121  13.141   3.833   5.174  2.2873  1.7051  0.1955
   59MOL0     H 8122  12.818   3.193   5.414 -0.4528  1.6174  0.6323
   59MOL0     H 8123  12.621   3.080   5.329  1.9529  0.6504  0.3379
   59MOL0     H 8124  12.241   3.213   5.307  1.3681  0.6178 -0.7412
   59MOL0     H 8125  12.046   3.250   5.164 -1.8335 -0.5059  0.6398
   59MOL0     H 8126  10.435   2.447   4.893 -1.4315  0.4950 -0.2894
   59MOL0     H 8127  10.195   2.433   4.827  0.6996  0.8889  0.2632
   59MOL0     H 8128   9.880   2.402   4.731 -0.5317 -1.3611 -0.0309
   59MOL0     H 8129   9.657   2.410   4.765  1.3422  1.3966 -0.7545
   59MOL0     H 8130   9.348   2.409   4.430 -2.2256 -2.0122 -2.1336
   59MOL0     H 8131   9.400   2.250   4.455  2.9909 -0.3641  2.8798
   59MOL0     H 8132   9.163   2.277   4.511 -2.7128  0.5489  1.7694
   59MOL0     H 8133   9.210   2.390   4.648  1.7638 -0.7544  0.5497
   59MOL0     H 8134   9.315   2.103   4.610 -0.8966 -2.3023 -0.1676
   59MOL0     H 8135   9.320   2.192   4.765 -1.2611 -2.1846  1.0505
   59MOL0     H 8136   9.067   2.116   4.643 -0.7663  1.2083  0.6922
   59MOL0     H 8137   9.089   2.208   4.795  0.5111 -0.2223  1.0786
   59MOL0     H 8138   9.184   1.803   4.903  2.3415  2.4221  0.9647
   59MOL0     H 8139   9.567   2.413   4.350 -0.0933 -1.4986 -0.5242
   59MOL0     H 8140   9.885   2.407   4.199  0.9872  3.1647 -2.9429
   59MOL0     H 8141   9.720   2.474   4.189  0.9637 -0.2130 -2.2031
   59MOL0     H 8142   9.849   2.565   4.257 -0.0033  0.3718 -2.6715
   60MOL0     O 8143   6.180   9.308   3.485 -0.0574 -0.1970  0.2527
   60MOL0     C 8144   6.253   9.273   3.387 -0.1699  0.0573 -0.0619
   60MOL0     O 8145   6.368   9.211   3.400  0.3288 -0.0162  0.2959
   60MOL0     C 8146   6.445   9.179   3.512 -0.3321  0.1656  0.3511
   60MOL0     C 8147   6.538   9.068   3.498 -0.2901 -0.1578 -0.1641
   60MOL0     C 8148   6.616   9.025   3.605  0.3865 -0.7471 -0.5352
   60MOL0     C 8149   6.601   9.081   3.736 -0.0892  0.4276  1.2783
   60MOL0     O 8150   6.669   9.023   3.844  0.2406 -0.1565 -0.4051
   60MOL0     C 8151   6.583   8.982   3.943  0.0970  0.8030 -0.3734
   60MOL0     C 8152   6.636   8.871   4.041  1.3031  0.2093  0.5384
   60MOL0     C 8153   6.659   8.737   3.966 -0.5299  0.1392 -0.6632
   60MOL0     C 8154   6.724   8.637   4.068  0.2001  0.7418  0.3508
   60MOL0     C 8155   6.875   8.673   4.118 -0.8626 -0.5183 -0.8515
   60MOL0     C 8156   6.946   8.556   4.188 -0.0945  0.1564  0.4591
   60MOL0     C 8157   7.060   8.612   4.269 -1.0406 -0.8486  0.2307
   60MOL0     C 8158   7.151   8.512   4.337  0.1010 -0.3583 -0.1224
   60MOL0     N 8159   7.273   8.558   4.402 -0.4440 -0.3288  0.5181
   60MOL0     C 8160   7.344   8.672   4.368  0.6413 -0.6314 -0.0173
   60MOL0     C 8161   7.460   8.653   4.434 -1.1988 -0.3056  0.8573
   60MOL0     C 8162   7.586   8.726   4.409 -0.2802  0.7215  0.2803
   60MOL0     C 8163   7.573   8.878   4.372  0.7277 -0.5517  0.2318
   60MOL0     C 8164   7.701   8.948   4.348 -0.1161 -0.4368 -0.2467
   60MOL0     C 8165   7.768   8.904   4.217 -0.3590  0.2986 -0.7209
   60MOL0     O 8166   7.818   8.772   4.207 -0.1096 -0.4357  0.2478
   60MOL0     C 8167   7.877   8.733   4.085  0.2922  0.2971  0.6774
   60MOL0     C 8168   7.941   8.809   3.998 -0.7363 -0.2907 -0.3919
   60MOL0     C 8169   8.008   8.765   3.881  0.1363 -0.2492  0.1185
   60MOL0     C 8170   8.075   8.872   3.797  0.3925 -0.1822  0.6113
   60MOL0     C 8171   7.997   8.632   3.844  1.3422  0.0850  0.4354
   60MOL0     C 8172   8.063   8.587   3.722  0.0553 -0.1388 -0.3775
   60MOL0     O 8173   8.096   8.449   3.742  0.0794 -0.1753  1.1683
   60MOL0     C 8174   8.183   8.389   3.652  0.0956 -0.8463  0.2082
   60MOL0     C 8175   8.174   8.252   3.632  0.2616 -0.1150  0.8930
   60MOL0     C 8176   8.254   8.173   3.544 -0.0732 -0.3036  0.4859
   60MOL0     C 8177   8.357   8.243   3.477 -0.1937  1.2716  0.5549
   60MOL0     O 8178   8.436   8.199   3.375  0.3225  0.3289 -0.8013
   60MOL0     C 8179   8.539   8.105   3.423 -0.2429 -0.1722 -0.7132
   60MOL0     C 8180   8.494   7.956   3.417  0.5727  0.5557  0.5415
   60MOL0     C 8181   8.453   7.917   3.269 -0.3192 -0.4280 -0.1973
   60MOL0     C 8182   8.386   7.784   3.251 -0.9043  0.4818  0.2789
   60MOL0     C 8183   8.467   7.656   3.282 -0.3531 -0.2661  0.5666
   60MOL0     C 8184   8.371   7.536   3.290 -0.6019  0.4892  0.8865
   60MOL0     C 8185   8.436   7.411   3.359  0.3247 -0.5332  0.0514
   60MOL0     C 8186   8.350   7.288   3.319 -1.2394  0.4047 -0.5420
   60MOL0    Cl 8187   8.190   7.286   3.390  0.0773  0.1422  0.3001
   60MOL0     C 8188   8.371   8.382   3.493 -0.1403  0.9766 -0.1813
   60MOL0     C 8189   8.290   8.449   3.584  0.7890  0.1511  0.0300
   60MOL0     O 8190   8.078   8.654   3.620 -0.5789 -0.0643 -0.0033
   60MOL0     C 8191   7.931   8.547   3.943 -0.3792 -0.1138  0.8102
   60MOL0     C 8192   7.873   8.596   4.062  1.2565  0.9268  0.6783
   60MOL0     N 8193   7.462   8.531   4.496  0.5260  0.2895  0.2557
   60MOL0     N 8194   7.347   8.480   4.488  0.2583 -0.4781  0.5863
   60MOL0     C 8195   6.504   9.185   3.750  0.2972 -0.2687 -0.3342
   60MOL0     C 8196   6.436   9.234   3.638 -0.4085 -0.7289 -0.3786
   60MOL0     C 8197   6.206   9.288   3.241  0.9611 -0.5445 -0.6963
   60MOL0     C 8198   6.211   9.172   3.149 -0.8799 -0.7240 -0.2708
   60MOL0     C 8199   6.145   9.169   3.024  0.2936  0.3315 -0.4093
   60MOL0     C 8200   6.065   9.271   2.983 -0.2494 -0.6350 -0.4435
   60MOL0     O 8201   6.000   9.261   2.867 -0.5744 -0.0607 -0.2607
   60MOL0     C 8202   5.999   9.371   2.769  0.4024  0.1772  0.1217
   60MOL0     C 8203   6.055   9.328   2.636  0.1500 -0.5247  0.1087
   60MOL0     C 8204   6.197   9.284   2.646  0.5406  0.0082 -0.4394
   60MOL0     C 8205   6.258   9.249   2.516  0.0560  0.0989 -0.1989
   60MOL0     C 8206   6.350   9.134   2.525 -0.2970 -0.4265  0.2990
   60MOL0     C 8207   6.412   9.029   2.534 -0.9068 -0.9294  0.0173
   60MOL0     C 8208   6.038   9.376   3.076 -0.4829  1.0137  0.3518
   60MOL0     C 8209   6.111   9.390   3.198  0.0565  0.1886 -0.5565
   60MOL0     C 8210   6.101   9.523   3.275  0.6704  0.6087  0.0842
   60MOL0     H 8211   6.531   9.018   3.402 -1.5952  0.6353 -0.5076
   60MOL0     H 8212   6.688   8.945   3.588  1.5309  0.2320 -0.4495
   60MOL0     H 8213   6.507   8.924   3.891  1.6376 -2.1827  0.4726
   60MOL0     H 8214   6.540   9.067   3.996  0.3206  1.0371 -0.5634
   60MOL0     H 8215   6.719   8.924   4.089  1.5264  2.7602 -2.3496
   60MOL0     H 8216   6.566   8.851   4.122  0.1683 -0.7117 -0.6277
   60MOL0     H 8217   6.564   8.697   3.928 -0.2114 -0.3998 -0.9017
   60MOL0     H 8218   6.727   8.745   3.882 -0.5486 -2.0638 -0.9461
   60MOL0     H 8219   6.656   8.613   4.151  0.3452 -6.1609 -0.9626
   60MOL0     H 8220   6.728   8.545   4.010  1.2120  3.2064 -3.9195
   60MOL0     H 8221   6.876   8.757   4.188 -2.6821 -0.0976 -1.2782
   60MOL0     H 8222   6.930   8.708   4.030 -2.0072  3.1828 -0.2445
   60MOL0     H 8223   6.862   8.509   4.240 -1.6166  0.0374 -1.9422
   60MOL0     H 8224   6.990   8.494   4.110  0.3112  4.0979 -2.7265
   60MOL0     H 8225   7.016   8.683   4.340 -1.3723  1.7114 -2.3644
   60MOL0     H 8226   7.126   8.676   4.210  0.0411  0.2051  2.4784
   60MOL0     H 8227   7.090   8.463   4.413 -0.2226 -0.5847 -0.5285
   60MOL0     H 8228   7.192   8.448   4.258 -1.4696  0.6500 -1.8331
   60MOL0     H 8229   7.325   8.757   4.302  1.6490  1.1955  1.9244
   60MOL0     H 8230   7.624   8.668   4.324 -1.5064  0.0312  0.1809
   60MOL0     H 8231   7.667   8.709   4.480 -0.3899 -0.5577  0.1240
   60MOL0     H 8232   7.506   8.891   4.286 -0.0430 -0.0334  0.8952
   60MOL0     H 8233   7.523   8.933   4.452 -0.3804 -1.1597 -0.0140
   60MOL0     H 8234   7.690   9.056   4.347  3.1603  0.0116  0.3957
   60MOL0     H 8235   7.763   8.944   4.439  0.0165 -0.4618 -0.3364
   60MOL0     H 8236   7.703   8.913   4.129  0.3755 -0.7615 -1.3827
   60MOL0     H 8237   7.850   8.975   4.205 -0.7195  1.2346  1.6508
   60MOL0     H 8238   7.956   8.910   4.033 -5.2478  0.8824 -1.2538
   60MOL0     H 8239   8.027   8.907   3.706  0.9625  0.2167  0.4578
   60MOL0     H 8240   8.175   8.834   3.774  0.0881 -0.2760 -0.6053
   60MOL0     H 8241   8.093   8.958   3.862  5.0044  0.6091 -1.3323
   60MOL0     H 8242   8.097   8.196   3.685  0.7165 -1.3432  0.2978
   60MOL0     H 8243   8.232   8.069   3.523 -0.5187 -0.2804  0.8253
   60MOL0     H 8244   8.624   8.114   3.355 -0.7095  0.2334 -1.2507
   60MOL0     H 8245   8.578   8.126   3.523  1.5262 -0.6246 -1.2726
   60MOL0     H 8246   8.561   7.885   3.466  0.4712  0.7454  0.9669
   60MOL0     H 8247   8.402   7.953   3.477  0.9374 -0.8783  1.0679
   60MOL0     H 8248   8.539   7.919   3.200  0.5642 -0.4225  0.8724
   60MOL0     H 8249   8.385   7.994   3.231 -0.9965 -1.7260 -1.7159
   60MOL0     H 8250   8.347   7.776   3.149 -0.4045  0.0960  0.1119
   60MOL0     H 8251   8.291   7.785   3.306 -1.6427 -0.7450 -0.9222
   60MOL0     H 8252   8.545   7.630   3.210 -2.4833 -0.4947 -1.8139
   60MOL0     H 8253   8.506   7.670   3.383 -0.9492  0.2073  0.7391
   60MOL0     H 8254   8.334   7.506   3.191 -2.4992  2.8131  0.7957
   60MOL0     H 8255   8.288   7.562   3.356  0.5103  2.1785  1.7030
   60MOL0     H 8256   8.450   7.425   3.466 -0.0769  0.5435 -0.0304
   60MOL0     H 8257   8.538   7.408   3.318  0.3127  1.0385 -0.1489
   60MOL0     H 8258   8.403   7.198   3.352 -0.0526  1.0517 -0.6293
   60MOL0     H 8259   8.339   7.276   3.211 -2.9156  0.9301 -0.4564
   60MOL0     H 8260   8.450   8.423   3.432  2.2859  0.7146  2.5726
   60MOL0     H 8261   8.288   8.557   3.594 -1.7761  0.0756  0.9565
   60MOL0     H 8262   7.925   8.441   3.922 -2.0600  0.3523 -1.3094
   60MOL0     H 8263   7.815   8.519   4.112  0.6346  0.2973 -0.9321
   60MOL0     H 8264   6.493   9.231   3.848  2.7462 -0.7009  0.2136
   60MOL0     H 8265   6.378   9.325   3.650 -0.1542 -0.6841  0.6140
   60MOL0     H 8266   6.270   9.087   3.180  2.0498  0.0933 -2.9905
   60MOL0     H 8267   6.152   9.074   2.971  3.0764  0.2437  0.0154
   60MOL0     H 8268   5.892   9.396   2.769  0.0450 -1.2819  0.3178
   60MOL0     H 8269   6.050   9.461   2.803 -0.5710  1.4923 -1.7116
   60MOL0     H 8270   6.041   9.408   2.564 -2.1359 -2.3468 -1.6421
   60MOL0     H 8271   5.985   9.251   2.601 -0.0281 -0.8905  1.2047
   60MOL0     H 8272   6.256   9.366   2.687 -0.6338  0.2663  0.8064
   60MOL0     H 8273   6.199   9.198   2.713 -2.2143 -0.4261 -0.7925
   60MOL0     H 8274   6.312   9.336   2.477 -1.0462  1.2657  0.7802
   60MOL0     H 8275   6.175   9.227   2.448 -0.5079  0.0001  0.5087
   60MOL0     H 8276   6.470   8.940   2.526 -0.2244 -0.6085  1.2060
   60MOL0     H 8277   5.970   9.457   3.050 -0.5215  1.1502  0.8657
   60MOL0     H 8278   6.038   9.511   3.363 -0.1897 -1.0996 -0.7135
   60MOL0     H 8279   6.196   9.568   3.305  2.0020 -1.3551 -0.9342
   60MOL0     H 8280   6.051   9.588   3.203  2.1890  0.7577 -0.8828
   61MOL0     O 8281  10.766  10.896   8.349  0.1380 -0.0828 -0.0524
   61MOL0     C 8282  10.665  10.825   8.371  0.5790 -0.9013  0.5053
   61MOL0     O 8283  10.668  10.690   8.396  0.2366 -0.3512  0.0746
   61MOL0     C 8284  10.786  10.624   8.395 -0.5109  0.4222 -0.3102
   61MOL0     C 8285  10.892  10.683   8.474  0.2668  0.5054  0.9748
   61MOL0     C 8286  11.011  10.610   8.491  0.3374  0.6296  0.3054
   61MOL0     C 8287  11.033  10.484   8.427  0.4427 -1.4780 -0.3592
   61MOL0     O 8288  11.155  10.415   8.442 -0.0568 -0.4068  0.1217
   61MOL0     C 8289  11.241  10.425   8.560  0.6159 -0.5080  0.6099
   61MOL0     C 8290  11.342  10.535   8.540 -0.0463  0.8599  0.2245
   61MOL0     C 8291  11.465  10.499   8.454 -0.7377  0.6749  0.1657
   61MOL0     C 8292  11.588  10.573   8.502  0.4375  0.7991 -0.1290
   61MOL0     C 8293  11.693  10.594   8.395  0.1265  0.2785  0.9113
   61MOL0     C 8294  11.815  10.641   8.473 -0.8713 -0.9753 -0.2695
   61MOL0     C 8295  11.925  10.669   8.370  0.2540 -0.5818  0.1306
   61MOL0     C 8296  12.047  10.714   8.446 -0.7564  0.6833 -0.3440
   61MOL0     N 8297  12.108  10.604   8.532  0.1660  0.3250  1.5560
   61MOL0     C 8298  12.167  10.619   8.657  1.1177 -0.0983  0.9515
   61MOL0     C 8299  12.207  10.502   8.705  0.1244  0.5673 -0.0723
   61MOL0     C 8300  12.274  10.478   8.844 -0.0028 -0.3706  0.0972
   61MOL0     C 8301  12.407  10.549   8.866  0.2952  0.2424  0.3569
   61MOL0     C 8302  12.513  10.500   8.757 -0.0743  0.4238  0.5181
   61MOL0     C 8303  12.645  10.584   8.749  0.0968 -0.3305  0.2899
   61MOL0     O 8304  12.756  10.508   8.690  0.1642 -0.6266 -0.5851
   61MOL0     C 8305  12.874  10.563   8.658  0.5055  0.2486 -0.1241
   61MOL0     C 8306  12.913  10.699   8.671 -0.1857  1.0227 -0.1210
   61MOL0     C 8307  13.038  10.741   8.633 -0.1410  0.4425 -0.4508
   61MOL0     C 8308  13.060  10.891   8.646  0.4226  1.3173 -0.1969
   61MOL0     C 8309  13.130  10.656   8.574 -0.1167  0.1152 -0.1250
   61MOL0     C 8310  13.266  10.702   8.519  0.4406 -0.2336  0.1051
   61MOL0     O 8311  13.303  10.835   8.520 -1.0747 -0.1805  0.3064
   61MOL0     C 8312  13.423  10.876   8.454 -0.6296 -0.7933  0.9988
   61MOL0     C 8313  13.440  10.875   8.316  0.5718  0.4241  0.7057
   61MOL0     C 8314  13.567  10.898   8.254  0.4196 -0.0742  0.6226
   61MOL0     C 8315  13.681  10.918   8.328  0.0009  0.2214  0.3424
   61MOL0     O 8316  13.809  10.930   8.277  0.3171 -0.7344 -0.0835
   61MOL0     C 8317  13.899  10.842   8.341  0.1061  0.3700  0.2671
   61MOL0     C 8318  14.039  10.859   8.284  0.7447 -0.5278 -0.8917
   61MOL0     C 8319  14.060  10.776   8.157 -0.6630 -0.0576 -0.3627
   61MOL0     C 8320  14.200  10.738   8.133  0.4746  0.3736  0.0247
   61MOL0     C 8321  14.228  10.693   7.984  0.5517 -0.3799 -0.1020
   61MOL0     C 8322  14.136  10.574   7.938  0.4316  0.0865  0.5115
   61MOL0     C 8323  14.138  10.445   8.018 -0.0842 -0.0300 -0.1077
   61MOL0     C 8324  14.086  10.332   7.917 -0.5215  0.4104 -0.0046
   61MOL0    Cl 8325  13.911  10.342   7.931  0.0989  0.4818 -0.7358
   61MOL0     C 8326  13.659  10.927   8.471  0.6639  0.7446 -0.0108
   61MOL0     C 8327  13.532  10.894   8.536 -0.0625 -0.1572 -0.5108
   61MOL0     O 8328  13.347  10.613   8.495 -0.3597 -0.3142  0.2457
   61MOL0     C 8329  13.086  10.522   8.550  0.0154 -0.4403 -0.1482
   61MOL0     C 8330  12.963  10.477   8.594 -0.3549 -0.7641  0.1858
   61MOL0     N 8331  12.152  10.409   8.610  0.1537  0.6865  0.0857
   61MOL0     N 8332  12.096  10.469   8.507  0.4264  0.9069  0.5079
   61MOL0     C 8333  10.934  10.441   8.340 -0.0253  0.0789 -0.6735
   61MOL0     C 8334  10.810  10.502   8.327 -0.9149 -0.5660  0.4686
   61MOL0     C 8335  10.532  10.895   8.370  0.3858  0.2734  0.0837
   61MOL0     C 8336  10.534  11.038   8.379  0.8364 -0.1128 -0.0135
   61MOL0     C 8337  10.417  11.113   8.384 -0.1913  0.6978  1.1293
   61MOL0     C 8338  10.301  11.055   8.357  0.6455  0.6954  0.9338
   61MOL0     O 8339  10.188  11.136   8.335  0.3412 -0.2752  0.1222
   61MOL0     C 8340  10.066  11.057   8.334 -0.0660 -0.7170  0.6592
   61MOL0     C 8341   9.944  11.150   8.315 -0.4366  1.0966  0.7687
   61MOL0     C 8342   9.807  11.085   8.363 -0.2107 -0.6401  0.3659
   61MOL0     C 8343   9.689  11.189   8.356 -0.3082  0.1063 -0.6649
   61MOL0     C 8344   9.575  11.152   8.432 -0.6660  0.3037 -0.4500
   61MOL0     C 8345   9.482  11.130   8.504 -0.4084  0.0437 -0.1715
   61MOL0     C 8346  10.295  10.912   8.342 -0.7096 -0.2697 -0.0770
   61MOL0     C 8347  10.412  10.832   8.347 -0.4951  0.0849 -0.1042
   61MOL0     C 8348  10.397  10.688   8.339  0.1935  0.2239  0.0156
   61MOL0     H 8349  10.889  10.779   8.524  1.6293  1.0907  0.0136
   61MOL0     H 8350  11.080  10.636   8.570  0.4880 -2.0809  1.1493
   61MOL0     H 8351  11.300  10.334   8.571  1.6193 -0.1500 -1.2662
   61MOL0     H 8352  11.179  10.431   8.650 -0.2339 -1.9501  0.1504
   61MOL0     H 8353  11.294  10.621   8.493 -2.6615 -1.0223 -0.8210
   61MOL0     H 8354  11.380  10.565   8.638  0.0161 -0.4172  0.6138
   61MOL0     H 8355  11.484  10.391   8.450  2.5625  1.0484  2.4993
   61MOL0     H 8356  11.439  10.523   8.351 -3.3142  0.6139  0.7254
   61MOL0     H 8357  11.556  10.674   8.533  1.3830  1.2147 -0.4638
   61MOL0     H 8358  11.621  10.526   8.594  0.0551 -0.0906 -0.4368
   61MOL0     H 8359  11.662  10.659   8.312 -0.1527  1.0849  1.6390
   61MOL0     H 8360  11.707  10.496   8.348 -2.4404 -0.8619  2.3439
   61MOL0     H 8361  11.791  10.728   8.535 -2.0304 -0.7065 -1.0519
   61MOL0     H 8362  11.840  10.564   8.546  2.2224  2.0366  2.1817
   61MOL0     H 8363  11.906  10.751   8.300 -3.2518  0.6064  2.1988
   61MOL0     H 8364  11.940  10.582   8.306  1.5244  0.8909 -1.6683
   61MOL0     H 8365  12.133  10.753   8.390  1.3547 -4.3597 -1.2234
   61MOL0     H 8366  12.020  10.785   8.524 -1.3060 -2.0113  2.0958
   61MOL0     H 8367  12.178  10.708   8.717 -1.1215  2.1341 -1.7014
   61MOL0     H 8368  12.294  10.372   8.862  2.0090 -0.1529 -0.5960
   61MOL0     H 8369  12.208  10.501   8.928 -1.7187 -1.1192 -0.9928
   61MOL0     H 8370  12.390  10.656   8.855 -0.1637  0.3786  2.0524
   61MOL0     H 8371  12.454  10.512   8.958 -1.6257 -2.1990  0.4597
   61MOL0     H 8372  12.544  10.404   8.800  1.9223  1.7545  2.2595
   61MOL0     H 8373  12.478  10.483   8.655  0.5303 -2.1523  0.6769
   61MOL0     H 8374  12.634  10.676   8.691  0.1133  1.0280  2.3182
   61MOL0     H 8375  12.667  10.602   8.855 -0.2162  1.9910  0.0046
   61MOL0     H 8376  12.856  10.776   8.722  0.5130  0.3687  1.7483
   61MOL0     H 8377  13.063  10.932   8.545 -0.1616  1.7415 -0.0492
   61MOL0     H 8378  13.141  10.917   8.715 -1.5073  2.8815  1.6316
   61MOL0     H 8379  12.976  10.946   8.689 -0.8605  0.3674 -1.3941
   61MOL0     H 8380  13.353  10.855   8.254  0.3738  2.4239  0.2550
   61MOL0     H 8381  13.562  10.889   8.146 -0.6111 -2.9011  0.8376
   61MOL0     H 8382  13.900  10.866   8.448 -0.2946 -0.6926  0.5272
   61MOL0     H 8383  13.870  10.737   8.332  2.2943 -0.4046  1.6631
   61MOL0     H 8384  14.048  10.968   8.278  0.4800 -0.2709  2.0665
   61MOL0     H 8385  14.113  10.826   8.358  0.2113 -2.0010 -0.9847
   61MOL0     H 8386  14.028  10.846   8.078 -3.4246 -0.6856  0.1159
   61MOL0     H 8387  13.997  10.687   8.163  1.5622 -1.6404  0.6931
   61MOL0     H 8388  14.224  10.659   8.205  0.6263  0.0475 -0.3789
   61MOL0     H 8389  14.251  10.833   8.152 -1.2135  0.5560  4.7674
   61MOL0     H 8390  14.208  10.777   7.917  1.1560 -0.2245 -0.0989
   61MOL0     H 8391  14.336  10.677   7.970  0.6632 -1.5192  1.7544
   61MOL0     H 8392  14.162  10.552   7.834 -1.3380 -1.6376  0.3734
   61MOL0     H 8393  14.031  10.604   7.949  0.4045  0.1581  0.0559
   61MOL0     H 8394  14.064  10.453   8.099 -1.1865 -2.3610 -0.7967
   61MOL0     H 8395  14.241  10.424   8.049  1.2809  1.7466 -3.0443
   61MOL0     H 8396  14.113  10.229   7.942  0.8798  0.5926 -0.6964
   61MOL0     H 8397  14.117  10.361   7.816  2.0707  0.3632  0.7093
   61MOL0     H 8398  13.735  10.933   8.548 -0.5975  0.3877  1.3060
   61MOL0     H 8399  13.527  10.877   8.643 -0.1014 -0.3527 -0.5438
   61MOL0     H 8400  13.151  10.447   8.506  0.1773 -1.6095  1.9365
   61MOL0     H 8401  12.922  10.377   8.580 -3.1593  0.4315 -1.1309
   61MOL0     H 8402  10.953  10.361   8.269 -2.7857 -0.5895 -0.7656
   61MOL0     H 8403  10.735  10.469   8.256 -0.6498  0.0407 -0.1108
   61MOL0     H 8404  10.618  11.107   8.387  1.5442 -0.7399 -1.6285
   61MOL0     H 8405  10.420  11.221   8.396 -0.0706  0.8011  0.1836
   61MOL0     H 8406  10.077  10.993   8.246 -1.7272  0.7008 -0.6476
   61MOL0     H 8407  10.064  10.994   8.424  0.5358 -1.2673  0.3036
   61MOL0     H 8408   9.938  11.173   8.208  2.2122 -0.9790  0.0589
   61MOL0     H 8409   9.962  11.241   8.372  0.5998  0.9698  0.6778
   61MOL0     H 8410   9.787  10.998   8.300  2.2455  0.5129 -2.2053
   61MOL0     H 8411   9.826  11.055   8.467  3.1710  3.1355  1.0807
   61MOL0     H 8412   9.665  11.202   8.250  2.2339 -0.9709 -1.4314
   61MOL0     H 8413   9.726  11.291   8.373  2.6692 -0.6455 -2.0610
   61MOL0     H 8414   9.405  11.119   8.577 -0.7055  1.0933 -0.3096
   61MOL0     H 8415  10.203  10.858   8.323 -1.0216 -1.2231  3.4327
   61MOL0     H 8416  10.292  10.656   8.330  0.3381  0.3007 -2.9596
   61MOL0     H 8417  10.443  10.649   8.247  2.0812 -0.5777  1.2503
   61MOL0     H 8418  10.431  10.627   8.422 -0.1132 -0.3864 -0.2973
   62MOL0     O 8419   8.422   5.898   5.547  0.4364 -0.3347  0.0899
   62MOL0     C 8420   8.503   5.965   5.485 -0.5068 -0.9602  1.3901
   62MOL0     O 8421   8.600   5.920   5.399  0.3650  0.4468  1.3832
   62MOL0     C 8422   8.654   5.795   5.411 -0.2504  0.1992 -1.0645
   62MOL0     C 8423   8.686   5.750   5.543 -0.0514 -0.5924  0.3362
   62MOL0     C 8424   8.759   5.637   5.558 -0.0500  0.2195 -0.6487
   62MOL0     C 8425   8.803   5.552   5.447 -0.1805  0.2193 -0.3236
   62MOL0     O 8426   8.863   5.426   5.477  0.3599  0.2265  0.9346
   62MOL0     C 8427   8.815   5.322   5.393  0.4355  0.0853 -0.3259
   62MOL0     C 8428   8.833   5.186   5.460 -0.3109  0.2067 -0.1181
   62MOL0     C 8429   8.735   5.080   5.403  0.3122 -0.5565 -0.1320
   62MOL0     C 8430   8.761   4.938   5.466  0.1875  0.4149  1.0343
   62MOL0     C 8431   8.634   4.850   5.475  0.8351  0.1471  0.5373
   62MOL0     C 8432   8.520   4.906   5.562 -0.5177  0.3728  0.2433
   62MOL0     C 8433   8.398   4.813   5.561 -0.1234 -0.2555  0.1220
   62MOL0     C 8434   8.291   4.864   5.652  0.0977  0.7210  0.0913
   62MOL0     N 8435   8.166   4.786   5.651  0.4603 -0.0322 -0.8868
   62MOL0     C 8436   8.038   4.825   5.690  0.5506  1.1322  0.1437
   62MOL0     C 8437   7.970   4.709   5.662  0.7159 -1.0026 -0.1715
   62MOL0     C 8438   7.827   4.703   5.664 -0.5359 -0.4633 -0.3676
   62MOL0     C 8439   7.780   4.640   5.797 -0.0859  0.1229  0.8845
   62MOL0     C 8440   7.632   4.570   5.774 -0.6812 -0.2528 -0.0314
   62MOL0     C 8441   7.610   4.481   5.650  0.1485  0.2645 -0.1484
   62MOL0     O 8442   7.710   4.393   5.640  0.3663  0.1291 -0.5233
   62MOL0     C 8443   7.740   4.331   5.522 -0.0030  0.3740  0.4821
   62MOL0     C 8444   7.645   4.255   5.452  0.7986  0.5444 -0.9565
   62MOL0     C 8445   7.670   4.201   5.327  0.4477 -0.2457 -0.1841
   62MOL0     C 8446   7.555   4.143   5.254 -0.4560  0.6013  0.2266
   62MOL0     C 8447   7.796   4.207   5.271  0.0653 -0.5647 -0.9418
   62MOL0     C 8448   7.844   4.163   5.137  1.1847 -0.5047  0.3738
   62MOL0     O 8449   7.968   4.204   5.101 -0.5186 -0.8818  0.2666
   62MOL0     C 8450   8.001   4.167   4.974  1.0909 -0.0145  0.2358
   62MOL0     C 8451   8.042   4.034   4.931 -0.2945 -1.0822 -0.1662
   62MOL0     C 8452   8.097   4.017   4.799  0.3343  0.4101  0.0754
   62MOL0     C 8453   8.102   4.121   4.700  0.4817  1.2000 -0.3386
   62MOL0     O 8454   8.158   4.109   4.579 -0.3544  1.3207  0.5229
   62MOL0     C 8455   8.131   4.194   4.472  0.0833  0.5781  0.4622
   62MOL0     C 8456   8.172   4.146   4.330 -0.3197  0.0436 -0.2482
   62MOL0     C 8457   8.328   4.136   4.331  0.0190  0.5253 -0.5358
   62MOL0     C 8458   8.395   4.265   4.275  1.1914  0.8030 -0.6699
   62MOL0     C 8459   8.540   4.260   4.333 -0.1539  0.8720  1.1553
   62MOL0     C 8460   8.634   4.371   4.272 -0.1480  0.3143 -0.2516
   62MOL0     C 8461   8.576   4.507   4.295 -0.1408 -0.3912 -0.5320
   62MOL0     C 8462   8.655   4.622   4.244  0.1694  0.0142 -0.4949
   62MOL0    Cl 8463   8.700   4.615   4.072  0.1636 -0.0400  0.1133
   62MOL0     C 8464   8.049   4.242   4.744  0.4024 -0.1541 -0.2860
   62MOL0     C 8465   7.997   4.265   4.872  0.4463  0.1470 -0.2111
   62MOL0     O 8466   7.785   4.071   5.090 -0.1789 -0.4783  0.7195
   62MOL0     C 8467   7.894   4.288   5.342  0.1027 -0.3018  0.5934
   62MOL0     C 8468   7.869   4.330   5.469 -0.5146 -0.7638 -0.4851
   62MOL0     N 8469   8.053   4.612   5.613  0.0541  0.0582 -0.8894
   62MOL0     N 8470   8.168   4.658   5.603  0.2686 -0.3292  0.9824
   62MOL0     C 8471   8.768   5.594   5.321 -0.0675  0.5507  0.5465
   62MOL0     C 8472   8.695   5.713   5.307 -0.1045 -0.7602 -0.2163
   62MOL0     C 8473   8.478   6.118   5.498  0.3134  0.4899  0.4789
   62MOL0     C 8474   8.345   6.157   5.540 -0.3343  0.5640  0.2556
   62MOL0     C 8475   8.328   6.297   5.553 -0.5182 -0.6131 -0.0359
   62MOL0     C 8476   8.429   6.394   5.538  0.1216 -0.0336 -0.1701
   62MOL0     O 8477   8.396   6.523   5.571 -0.0973 -0.3828 -0.3929
   62MOL0     C 8478   8.494   6.634   5.545  0.2498  0.2630 -0.1676
   62MOL0     C 8479   8.573   6.655   5.676 -0.7085 -0.6285 -0.1256
   62MOL0     C 8480   8.714   6.719   5.657 -0.3259  0.6557  0.9584
   62MOL0     C 8481   8.782   6.753   5.790 -0.3058 -0.0784 -0.2249
   62MOL0     C 8482   8.846   6.629   5.849  0.3133 -0.8680 -0.0931
   62MOL0     C 8483   8.885   6.518   5.875  0.1591 -0.9630 -1.0156
   62MOL0     C 8484   8.556   6.343   5.504 -0.1956 -0.3228 -0.4032
   62MOL0     C 8485   8.592   6.215   5.487  0.2893  0.6643  0.0155
   62MOL0     C 8486   8.733   6.170   5.478 -0.4045  0.2185  0.0683
   62MOL0     H 8487   8.663   5.809   5.631 -1.3521 -0.8190  0.1733
   62MOL0     H 8488   8.790   5.597   5.655  2.6076 -2.8927 -2.5592
   62MOL0     H 8489   8.867   5.318   5.297  0.2683 -1.7927 -0.3856
   62MOL0     H 8490   8.706   5.331   5.386  0.3462 -1.1201 -0.7652
   62MOL0     H 8491   8.934   5.146   5.446  0.1281  0.0068  2.9887
   62MOL0     H 8492   8.828   5.182   5.569 -0.0098 -3.7198 -0.1021
   62MOL0     H 8493   8.632   5.112   5.416 -0.2924 -2.8227  1.1214
   62MOL0     H 8494   8.757   5.066   5.297  1.7571 -1.9115  0.2914
   62MOL0     H 8495   8.834   4.882   5.408 -3.0020 -1.1993 -1.8263
   62MOL0     H 8496   8.800   4.948   5.568 -1.9038 -1.8553  2.1827
   62MOL0     H 8497   8.666   4.753   5.513  1.9439 -0.7855 -2.5323
   62MOL0     H 8498   8.607   4.820   5.374  0.0987 -2.0412  1.3356
   62MOL0     H 8499   8.562   4.926   5.661  2.2161 -3.0131 -0.0572
   62MOL0     H 8500   8.492   4.999   5.512 -2.8253 -0.5816 -0.3966
   62MOL0     H 8501   8.435   4.714   5.591 -0.1389 -0.1140  0.6106
   62MOL0     H 8502   8.348   4.808   5.463 -0.5975  2.0934  0.2014
   62MOL0     H 8503   8.320   4.869   5.758  2.1160 -0.0911 -0.3803
   62MOL0     H 8504   8.257   4.963   5.620  0.1282  0.8915  0.5761
   62MOL0     H 8505   7.997   4.915   5.733 -2.7217  0.6032 -1.5961
   62MOL0     H 8506   7.797   4.641   5.579  1.1215 -0.0336 -1.3060
   62MOL0     H 8507   7.784   4.803   5.655  2.0331  0.9119  1.4809
   62MOL0     H 8508   7.846   4.566   5.844  1.1158  1.7511  1.8498
   62MOL0     H 8509   7.773   4.715   5.876 -2.7691  0.0085  0.8672
   62MOL0     H 8510   7.614   4.515   5.867 -0.1192  0.8140  0.7298
   62MOL0     H 8511   7.565   4.656   5.778  0.8313  1.0699 -1.4864
   62MOL0     H 8512   7.519   4.423   5.667  3.3212 -4.5684  2.6961
   62MOL0     H 8513   7.593   4.541   5.560 -2.1529  0.1906  0.1704
   62MOL0     H 8514   7.544   4.243   5.490  1.5073 -2.3044  0.3205
   62MOL0     H 8515   7.581   4.042   5.222  1.0128  0.9521  0.2390
   62MOL0     H 8516   7.522   4.202   5.168 -1.9819  0.4861  0.7021
   62MOL0     H 8517   7.471   4.135   5.323 -2.6853  1.7875 -2.1810
   62MOL0     H 8518   8.064   3.953   5.001  2.6988 -1.7979 -1.7524
   62MOL0     H 8519   8.148   3.926   4.770  0.2497 -0.0315  1.2599
   62MOL0     H 8520   8.025   4.221   4.475  0.0322  0.3570  0.6169
   62MOL0     H 8521   8.179   4.289   4.500  2.1655 -0.4775  0.6664
   62MOL0     H 8522   8.131   4.052   4.292  1.6317 -0.0812 -2.2479
   62MOL0     H 8523   8.149   4.221   4.254  2.8569  1.4588  0.0491
   62MOL0     H 8524   8.363   4.044   4.284 -3.0224 -1.5521  0.9988
   62MOL0     H 8525   8.358   4.124   4.435 -1.6033  0.6360 -0.0355
   62MOL0     H 8526   8.342   4.351   4.317 -0.8850 -0.2714 -0.9282
   62MOL0     H 8527   8.383   4.280   4.167 -0.7749  2.4124 -0.2884
   62MOL0     H 8528   8.537   4.279   4.441 -1.1811  2.1554  0.9313
   62MOL0     H 8529   8.574   4.157   4.318 -2.1740  0.2163  0.8796
   62MOL0     H 8530   8.653   4.356   4.165  0.6311  4.0515 -0.7841
   62MOL0     H 8531   8.729   4.370   4.326 -0.6179  2.4817  0.7316
   62MOL0     H 8532   8.569   4.518   4.404  0.9982  0.2134 -0.5096
   62MOL0     H 8533   8.481   4.503   4.240 -0.5354 -1.6224  0.2102
   62MOL0     H 8534   8.743   4.617   4.309  0.0986 -4.6785 -0.4417
   62MOL0     H 8535   8.601   4.715   4.266  1.4922  1.1471 -1.8041
   62MOL0     H 8536   8.044   4.332   4.684  0.5265  0.3938  0.5016
   62MOL0     H 8537   7.952   4.361   4.896 -0.7035  0.1038 -2.0178
   62MOL0     H 8538   7.991   4.311   5.299 -1.1466  0.6053 -1.9425
   62MOL0     H 8539   7.952   4.378   5.519  0.2544 -2.2016 -0.3243
   62MOL0     H 8540   8.810   5.541   5.236  2.7887  2.0393  0.8888
   62MOL0     H 8541   8.671   5.755   5.209  0.5060 -0.8763 -0.4230
   62MOL0     H 8542   8.268   6.081   5.551  0.1049  0.0537 -0.1603
   62MOL0     H 8543   8.234   6.342   5.584  0.7100  0.6586  2.0772
   62MOL0     H 8544   8.554   6.611   5.457  0.5155  2.1507 -0.5257
   62MOL0     H 8545   8.433   6.723   5.523 -0.8877 -1.0736 -2.8403
   62MOL0     H 8546   8.591   6.552   5.709 -0.6022 -1.7956 -3.3858
   62MOL0     H 8547   8.514   6.715   5.745  0.7926  3.5506 -2.1334
   62MOL0     H 8548   8.775   6.659   5.588 -2.2683  0.5306 -0.7593
   62MOL0     H 8549   8.691   6.810   5.600 -0.6184 -0.4404 -0.7753
   62MOL0     H 8550   8.714   6.794   5.865  0.4577  0.4039  0.2288
   62MOL0     H 8551   8.861   6.829   5.786  0.0702 -0.1686  2.7898
   62MOL0     H 8552   8.919   6.426   5.919 -1.6338 -0.6350  1.2923
   62MOL0     H 8553   8.628   6.425   5.500 -1.4643  0.8113 -1.2341
   62MOL0     H 8554   8.746   6.129   5.377  0.1680  0.5442  0.0032
   62MOL0     H 8555   8.808   6.249   5.493  0.5613 -0.6378 -0.1715
   62MOL0     H 8556   8.746   6.101   5.562 -1.8494 -2.6362 -1.9038
   63MOL0     O 8557   1.306   9.594   4.070 -0.4098 -0.2944 -0.4570
   63MOL0     C 8558   1.370   9.609   4.173  0.8394 -0.2648 -0.4494
   63MOL0     O 8559   1.458   9.701   4.209 -0.2996  0.4566  0.3916
   63MOL0     C 8560   1.526   9.771   4.113 -0.7607  0.3181 -0.1573
   63MOL0     C 8561   1.545   9.908   4.130  0.4627 -0.1975  1.8444
   63MOL0     C 8562   1.620   9.978   4.030  0.1721 -0.4756 -1.0473
   63MOL0     C 8563   1.672   9.919   3.915 -1.0493  0.9382  0.6753
   63MOL0     O 8564   1.748   9.981   3.824 -0.0985 -0.0021 -1.0546
   63MOL0     C 8565   1.759  10.127   3.819  0.1803 -0.3421 -1.1080
   63MOL0     C 8566   1.821  10.168   3.682 -0.7936  0.1496  0.3912
   63MOL0     C 8567   1.818  10.314   3.644  0.5713  0.1848  0.5552
   63MOL0     C 8568   1.868  10.358   3.503  0.9418  0.5928  0.0531
   63MOL0     C 8569   2.012  10.402   3.500 -0.8979 -0.8452  0.0746
   63MOL0     C 8570   2.077  10.400   3.357  0.3267  0.0206  0.2158
   63MOL0     C 8571   2.226  10.451   3.348  0.2169 -0.2671 -1.1163
   63MOL0     C 8572   2.248  10.579   3.424  0.5252 -0.5029  0.2989
   63MOL0     N 8573   2.384  10.624   3.393  0.6007  0.2203  0.4605
   63MOL0     C 8574   2.496  10.565   3.439 -0.2401  0.3543 -1.0765
   63MOL0     C 8575   2.596  10.652   3.406 -1.1555 -0.6283 -0.0538
   63MOL0     C 8576   2.731  10.621   3.455  0.5794  0.3285  0.1273
   63MOL0     C 8577   2.825  10.556   3.346  0.4603  0.9272  0.0738
   63MOL0     C 8578   2.881  10.417   3.351  0.3950  0.0643 -0.1472
   63MOL0     C 8579   2.779  10.322   3.296 -0.0577 -0.7443 -0.2065
   63MOL0     O 8580   2.660  10.299   3.377  0.2331 -0.4229  0.1832
   63MOL0     C 8581   2.640  10.183   3.446 -0.0014  0.1658  0.2614
   63MOL0     C 8582   2.534  10.190   3.535  0.1180  0.1525  1.1219
   63MOL0     C 8583   2.500  10.070   3.595 -0.2163  0.4664 -0.2159
   63MOL0     C 8584   2.385  10.077   3.696  0.3982  0.6135  0.5269
   63MOL0     C 8585   2.574   9.952   3.576 -0.4537  0.0506 -0.1105
   63MOL0     C 8586   2.537   9.825   3.642  0.9940 -0.4533  0.2436
   63MOL0     O 8587   2.594   9.798   3.758  0.0105  0.3493  0.1867
   63MOL0     C 8588   2.616   9.667   3.790 -0.7950  0.1000 -0.3520
   63MOL0     C 8589   2.573   9.621   3.919  0.1205  0.5571 -0.0140
   63MOL0     C 8590   2.619   9.496   3.959  0.3567  0.4436  0.4462
   63MOL0     C 8591   2.702   9.410   3.883  0.9885 -0.1075 -0.0917
   63MOL0     O 8592   2.714   9.285   3.938 -0.1199 -0.3322  0.1835
   63MOL0     C 8593   2.845   9.235   3.978 -0.2507 -0.5869 -0.3476
   63MOL0     C 8594   2.830   9.141   4.101 -0.8020 -0.4097 -0.8729
   63MOL0     C 8595   2.977   9.098   4.153  0.3051 -0.8462 -0.4515
   63MOL0     C 8596   2.961   8.969   4.245 -0.8038 -0.9563  0.2164
   63MOL0     C 8597   3.091   8.914   4.297 -0.5779  0.1883  0.2216
   63MOL0     C 8598   3.125   9.013   4.417  1.1166 -0.2449  0.0479
   63MOL0     C 8599   3.196   8.921   4.516  0.2239 -0.3966 -0.4996
   63MOL0     C 8600   3.089   8.859   4.604 -0.2657  0.3324  0.3227
   63MOL0    Cl 8601   3.156   8.741   4.726  0.0112 -0.0118 -0.2907
   63MOL0     C 8602   2.758   9.466   3.774  0.7185  0.0608 -0.4624
   63MOL0     C 8603   2.702   9.584   3.718 -0.1298 -0.1002 -0.2379
   63MOL0     O 8604   2.457   9.753   3.579  0.0954 -0.1102  0.0670
   63MOL0     C 8605   2.679   9.946   3.490 -0.9110 -0.1520 -0.1806
   63MOL0     C 8606   2.713  10.066   3.428 -0.1049 -0.1474 -0.0040
   63MOL0     N 8607   2.541  10.756   3.332  0.1715 -0.6747 -0.5871
   63MOL0     N 8608   2.418  10.739   3.328  0.1198 -0.5449 -0.3831
   63MOL0     C 8609   1.644   9.782   3.898 -0.4319 -1.0886  1.4052
   63MOL0     C 8610   1.574   9.708   3.998 -0.0261 -0.4740 -0.1663
   63MOL0     C 8611   1.341   9.509   4.279 -0.2987 -0.2965 -0.8935
   63MOL0     C 8612   1.310   9.557   4.403  0.1972 -1.2665  1.5073
   63MOL0     C 8613   1.265   9.482   4.506 -0.5477  1.2364 -0.1302
   63MOL0     C 8614   1.263   9.343   4.496  1.7702  0.3404  0.6407
   63MOL0     O 8615   1.219   9.260   4.594 -0.1542 -0.5501  0.2901
   63MOL0     C 8616   1.080   9.217   4.594  0.1123  0.0271  0.2306
   63MOL0     C 8617   0.979   9.311   4.646  0.1684 -0.4075 -0.0303
   63MOL0     C 8618   0.947   9.292   4.794 -0.2787  0.0452 -0.8384
   63MOL0     C 8619   0.840   9.399   4.840  1.1407  0.5372 -0.0347
   63MOL0     C 8620   0.703   9.351   4.812 -0.0532 -0.5944 -0.1443
   63MOL0     C 8621   0.594   9.312   4.776 -0.8094  0.1858  0.3522
   63MOL0     C 8622   1.307   9.287   4.376 -0.0466  0.2486 -0.2321
   63MOL0     C 8623   1.345   9.368   4.264 -0.1200  0.5744  0.0470
   63MOL0     C 8624   1.386   9.286   4.142  0.9350 -0.4725 -0.0037
   63MOL0     H 8625   1.499   9.966   4.209 -1.7658 -0.1835  0.6248
   63MOL0     H 8626   1.650  10.079   4.053  0.4506 -0.7454 -0.1579
   63MOL0     H 8627   1.818  10.166   3.903  0.0123 -0.3785 -0.9712
   63MOL0     H 8628   1.660  10.174   3.825  0.7581  0.9077 -1.0784
   63MOL0     H 8629   1.927  10.141   3.689 -0.2493  0.3414 -4.0639
   63MOL0     H 8630   1.759  10.109   3.614 -1.7295  1.5049  0.0217
   63MOL0     H 8631   1.710  10.335   3.649  0.5913  0.3457  0.3486
   63MOL0     H 8632   1.854  10.384   3.720 -1.0362  0.4587  1.1055
   63MOL0     H 8633   1.851  10.277   3.432 -1.8771  0.3558  0.8620
   63MOL0     H 8634   1.802  10.436   3.463 -3.0143 -1.3761  2.1439
   63MOL0     H 8635   2.079  10.336   3.556 -0.0106 -2.2189 -2.4631
   63MOL0     H 8636   2.023  10.502   3.545  2.5795  0.0760 -2.4499
   63MOL0     H 8637   2.059  10.297   3.324 -3.1743  0.5627  0.1237
   63MOL0     H 8638   2.006  10.454   3.295  0.2536  1.1831  1.2731
   63MOL0     H 8639   2.258  10.459   3.244  1.6119 -3.5297 -1.0429
   63MOL0     H 8640   2.288  10.377   3.399 -0.7179  0.9650  2.1253
   63MOL0     H 8641   2.190  10.661   3.381  2.2357 -0.2666 -1.6891
   63MOL0     H 8642   2.238  10.576   3.533  1.4688 -0.2140  0.4088
   63MOL0     H 8643   2.520  10.474   3.493  0.7247 -0.0162 -2.1015
   63MOL0     H 8644   2.737  10.567   3.550  0.6668 -0.5170 -0.3456
   63MOL0     H 8645   2.769  10.716   3.494 -1.2648  1.2698 -0.2565
   63MOL0     H 8646   2.780  10.563   3.247  0.7837 -1.3066 -0.2744
   63MOL0     H 8647   2.906  10.630   3.346 -0.3754  2.0008 -2.7809
   63MOL0     H 8648   2.975  10.411   3.295  1.1657 -2.0828  1.2346
   63MOL0     H 8649   2.901  10.382   3.453  0.2888  1.3406  0.3283
   63MOL0     H 8650   2.749  10.370   3.203  1.7013  0.2618 -0.3072
   63MOL0     H 8651   2.829  10.228   3.272  2.2023  0.4868 -0.5638
   63MOL0     H 8652   2.484  10.284   3.555  0.4536  0.9218 -1.2572
   63MOL0     H 8653   2.413  10.105   3.797  0.9341  1.6946  0.0943
   63MOL0     H 8654   2.328   9.984   3.687 -1.0423  1.6155 -1.6222
   63MOL0     H 8655   2.328  10.165   3.663  2.1766  1.5486 -0.1717
   63MOL0     H 8656   2.503   9.684   3.972 -1.5289 -2.8099  2.1823
   63MOL0     H 8657   2.559   9.460   4.042 -0.8237  3.0783  0.8115
   63MOL0     H 8658   2.902   9.184   3.900  0.9981 -0.8416  0.7042
   63MOL0     H 8659   2.888   9.329   4.012 -0.4156 -0.5430 -0.2584
   63MOL0     H 8660   2.778   9.188   4.185  0.3412  2.6902 -1.7515
   63MOL0     H 8661   2.774   9.053   4.070 -2.3018 -0.8713  2.6520
   63MOL0     H 8662   3.022   9.188   4.195 -2.1413  0.9337 -1.3740
   63MOL0     H 8663   3.044   9.073   4.070  2.4599  1.2611  0.5285
   63MOL0     H 8664   2.917   8.894   4.179  0.6304 -0.0234 -1.9524
   63MOL0     H 8665   2.890   8.985   4.325  0.8245 -0.9546  1.7260
   63MOL0     H 8666   3.063   8.808   4.309  3.7725 -1.6498 -3.2232
   63MOL0     H 8667   3.166   8.921   4.218 -2.4875  2.6560 -1.5128
   63MOL0     H 8668   3.033   9.051   4.462 -0.0512 -2.6177 -0.1807
   63MOL0     H 8669   3.187   9.092   4.372  0.5143  0.2969  0.1578
   63MOL0     H 8670   3.268   8.986   4.566 -3.0514  3.0593  0.1132
   63MOL0     H 8671   3.252   8.841   4.466 -0.0640  0.5395 -2.3869
   63MOL0     H 8672   3.019   8.808   4.538 -0.5765 -0.9025  1.5483
   63MOL0     H 8673   3.038   8.938   4.661  0.4764  1.2628 -0.2770
   63MOL0     H 8674   2.832   9.419   3.709  0.9117 -3.7729  2.2575
   63MOL0     H 8675   2.743   9.625   3.627  2.1541  0.8835  1.1447
   63MOL0     H 8676   2.733   9.854   3.474  0.5984  0.6419  0.1001
   63MOL0     H 8677   2.797  10.060   3.360  1.7350 -1.3570  2.2086
   63MOL0     H 8678   1.690   9.740   3.809 -0.5817  1.7763 -0.1094
   63MOL0     H 8679   1.556   9.603   3.980 -0.3264 -0.0927 -2.3782
   63MOL0     H 8680   1.303   9.662   4.430 -0.2025 -0.6656 -0.7484
   63MOL0     H 8681   1.228   9.518   4.601 -1.1562 -1.9619  0.9708
   63MOL0     H 8682   1.048   9.196   4.492  0.1796  3.0153 -0.5242
   63MOL0     H 8683   1.072   9.121   4.644 -0.4370 -0.8738 -1.5022
   63MOL0     H 8684   0.893   9.299   4.579  0.6631 -0.4405 -0.6727
   63MOL0     H 8685   1.010   9.414   4.625 -1.6207  0.2147  0.2252
   63MOL0     H 8686   0.916   9.197   4.837 -0.2977  0.7691  0.8462
   63MOL0     H 8687   1.040   9.316   4.847 -0.2289 -0.5382 -0.6597
   63MOL0     H 8688   0.864   9.486   4.777  0.0356 -0.1916 -1.5398
   63MOL0     H 8689   0.851   9.429   4.944 -3.1874 -0.8477  1.0406
   63MOL0     H 8690   0.499   9.269   4.752 -0.7994 -0.5065  1.4784
   63MOL0     H 8691   1.297   9.179   4.374 -1.9435  0.3869 -2.9521
   63MOL0     H 8692   1.340   9.327   4.052  1.5548  0.7058  0.1882
   63MOL0     H 8693   1.494   9.274   4.129  1.1263  0.9654  0.1226
   63MOL0     H 8694   1.346   9.185   4.143  0.7980 -0.6129 -3.7006
   64MOL0     O 8695  10.197   7.499   0.244 -0.4362 -1.2114  0.8024
   64MOL0     C 8696  10.157   7.385   0.265 -0.4586  0.2912  0.8244
   64MOL0     O 8697  10.242   7.273   0.281  0.5092 -0.0536 -0.8860
   64MOL0     C 8698  10.382   7.290   0.271 -0.1357  0.6947  0.5386
   64MOL0     C 8699  10.465   7.273   0.383  1.0309  0.2641 -0.0036
   64MOL0     C 8700  10.596   7.296   0.385 -0.1061  0.2348  0.2787
   64MOL0     C 8701  10.652   7.343   0.263 -0.0043  0.0589 -1.7041
   64MOL0     O 8702  10.783   7.378   0.262 -1.1678 -0.8127 -0.0626
   64MOL0     C 8703  10.877   7.281   0.207  0.0950  0.6596  0.1773
   64MOL0     C 8704  11.017   7.317   0.228  0.4850  0.2449 -0.0684
   64MOL0     C 8705  11.067   7.337   0.371 -0.7619 -0.3916 -0.6789
   64MOL0     C 8706  11.211   7.382   0.373 -0.4572 -0.6500 -0.5277
   64MOL0     C 8707  11.230   7.529   0.345  0.2068  0.1351  1.2114
   64MOL0     C 8708  11.377   7.559   0.335 -0.2152  0.0800 -0.2629
   64MOL0     C 8709  11.383   7.706   0.294  0.1296 -0.7633  0.6863
   64MOL0     C 8710  11.313   7.813   0.382  0.8762  0.1665  0.1223
   64MOL0     N 8711  11.326   7.956   0.340  0.0482 -0.0287  0.4481
   64MOL0     C 8712  11.276   8.000   0.217  1.0880  0.2517 -0.8953
   64MOL0     C 8713  11.275   8.136   0.233 -0.9241  0.2345  0.6084
   64MOL0     C 8714  11.230   8.234   0.127  0.6461 -0.7080 -0.0762
   64MOL0     C 8715  11.075   8.241   0.116 -0.1974  0.0166 -0.3550
   64MOL0     C 8716  11.028   8.359   0.038  0.6061 -0.4639  0.3897
   64MOL0     C 8717  10.894   8.322  -0.031 -0.3989 -0.4652 -1.0538
   64MOL0     O 8718  10.863   8.444  -0.090  0.3901 -0.7664  0.5452
   64MOL0     C 8719  10.747   8.451  -0.168 -1.0079 -0.0901 -0.3243
   64MOL0     C 8720  10.747   8.529  -0.280  0.0677 -0.3719 -0.3475
   64MOL0     C 8721  10.629   8.549  -0.352  0.0590  0.8437 -0.1833
   64MOL0     C 8722  10.646   8.640  -0.473  0.4230 -0.4163 -0.5207
   64MOL0     C 8723  10.507   8.478  -0.320 -1.4719  0.5088  1.3092
   64MOL0     C 8724  10.375   8.493  -0.396 -0.1024  0.3246  0.6352
   64MOL0     O 8725  10.376   8.556  -0.514 -0.0885 -0.2039 -0.5693
   64MOL0     C 8726  10.273   8.578  -0.600 -0.2364  0.2825 -0.0997
   64MOL0     C 8727  10.152   8.499  -0.595  0.0759  0.2516  0.1639
   64MOL0     C 8728  10.041   8.536  -0.677 -1.1137  0.3864  0.0790
   64MOL0     C 8729  10.064   8.634  -0.771  0.0503 -0.2397 -0.2248
   64MOL0     O 8730   9.962   8.657  -0.859 -0.5885  0.3146  0.0223
   64MOL0     C 8731   9.952   8.779  -0.938 -0.0084 -1.0557 -0.1458
   64MOL0     C 8732   9.805   8.794  -0.988 -0.1895 -0.0633 -0.4773
   64MOL0     C 8733   9.711   8.794  -0.870 -0.2927 -0.4597  0.0679
   64MOL0     C 8734   9.586   8.873  -0.897  0.4245  0.1409 -1.4191
   64MOL0     C 8735   9.497   8.887  -0.774 -1.1431  0.8356  0.4175
   64MOL0     C 8736   9.377   8.965  -0.809  0.7352  0.1591  0.5423
   64MOL0     C 8737   9.268   8.860  -0.848  0.6237 -1.1474  0.7000
   64MOL0     C 8738   9.145   8.937  -0.903  0.7473  0.0416  0.7545
   64MOL0    Cl 8739   9.053   9.012  -0.771 -0.0233 -0.1273 -0.0173
   64MOL0     C 8740  10.181   8.697  -0.795  0.6552 -0.2149 -0.3519
   64MOL0     C 8741  10.288   8.670  -0.707  0.0522 -0.7466  0.3904
   64MOL0     O 8742  10.271   8.457  -0.343 -0.2086 -0.0375  0.1209
   64MOL0     C 8743  10.509   8.401  -0.203 -0.4813 -1.0232 -0.4433
   64MOL0     C 8744  10.632   8.387  -0.128 -0.5559 -0.4504 -0.7847
   64MOL0     N 8745  11.326   8.174   0.349  0.2757  0.2483 -0.7191
   64MOL0     N 8746  11.353   8.068   0.417 -0.4027 -0.3756  0.6569
   64MOL0     C 8747  10.581   7.354   0.146 -0.4718 -0.9327 -0.6426
   64MOL0     C 8748  10.444   7.336   0.149  0.5534  0.3575  1.0240
   64MOL0     C 8749  10.020   7.367   0.299  1.1492 -0.2325  0.9756
   64MOL0     C 8750   9.988   7.258   0.373  0.4407  0.6944  0.6831
   64MOL0     C 8751   9.858   7.230   0.414 -0.5513  0.1917 -0.5721
   64MOL0     C 8752   9.752   7.303   0.355 -0.0646 -0.8218  0.7150
   64MOL0     O 8753   9.618   7.280   0.365 -0.1357  0.0300 -0.1753
   64MOL0     C 8754   9.574   7.196   0.468 -0.4487  0.9799 -0.7783
   64MOL0     C 8755   9.438   7.241   0.502  0.3932 -0.3094  0.3237
   64MOL0     C 8756   9.440   7.301   0.649  0.1353  0.4578 -0.3346
   64MOL0     C 8757   9.438   7.198   0.752 -0.4163 -0.9682 -0.1124
   64MOL0     C 8758   9.453   7.246   0.889 -0.1026  0.0441 -0.2959
   64MOL0     C 8759   9.465   7.276   1.006 -0.6216  0.0558  0.2775
   64MOL0     C 8760   9.785   7.416   0.280  0.0377  0.5425 -0.1116
   64MOL0     C 8761   9.911   7.446   0.245  0.0430 -0.2313 -0.5621
   64MOL0     C 8762   9.932   7.564   0.159  0.0798  0.5342  0.6925
   64MOL0     H 8763  10.415   7.253   0.478  4.6492  1.4285  2.3749
   64MOL0     H 8764  10.664   7.290   0.469  1.1941  1.1595 -0.6614
   64MOL0     H 8765  10.862   7.274   0.099 -3.6578  2.2363  0.4428
   64MOL0     H 8766  10.861   7.186   0.258 -1.6603 -0.7112 -2.6984
   64MOL0     H 8767  11.080   7.241   0.181  0.7328 -0.4540  1.3399
   64MOL0     H 8768  11.027   7.414   0.178  1.2667  0.2053 -0.0119
   64MOL0     H 8769  11.003   7.398   0.435  0.0055 -0.4912  0.2092
   64MOL0     H 8770  11.064   7.238   0.418  0.1505  0.6097  1.6435
   64MOL0     H 8771  11.248   7.354   0.472 -0.6642  0.0691 -0.2462
   64MOL0     H 8772  11.277   7.322   0.309  2.5089 -2.1816  3.5595
   64MOL0     H 8773  11.175   7.573   0.428 -2.2171  1.3972 -0.9173
   64MOL0     H 8774  11.174   7.554   0.254 -0.4310  3.3313  2.3741
   64MOL0     H 8775  11.436   7.545   0.426 -0.6961 -0.8820 -0.0814
   64MOL0     H 8776  11.428   7.503   0.256  1.1906  0.4352  0.3735
   64MOL0     H 8777  11.341   7.704   0.193 -2.3424  2.6875  1.4433
   64MOL0     H 8778  11.490   7.723   0.279  0.4787 -2.3956  1.0985
   64MOL0     H 8779  11.206   7.794   0.388  0.6473  1.7767  2.4429
   64MOL0     H 8780  11.353   7.796   0.483  2.6409  0.1436 -0.5445
   64MOL0     H 8781  11.245   7.941   0.131  2.2082 -0.9688 -0.5021
   64MOL0     H 8782  11.273   8.197   0.033 -1.5265  1.0959 -1.9067
   64MOL0     H 8783  11.281   8.328   0.150 -0.1474 -1.1346  4.3621
   64MOL0     H 8784  11.054   8.148   0.062 -0.3029  0.9350 -1.9782
   64MOL0     H 8785  11.039   8.242   0.219  3.6699 -1.2410  1.1907
   64MOL0     H 8786  11.012   8.446   0.101  0.8666 -1.0437  1.2675
   64MOL0     H 8787  11.103   8.379  -0.039 -0.1381  1.9625  0.2175
   64MOL0     H 8788  10.883   8.243  -0.106 -1.0968  0.7360 -2.2447
   64MOL0     H 8789  10.834   8.280   0.050  1.3721  1.8030  1.6259
   64MOL0     H 8790  10.845   8.567  -0.310  0.6062 -0.9599  0.6174
   64MOL0     H 8791  10.732   8.703  -0.452 -0.8737  1.0220  0.6236
   64MOL0     H 8792  10.552   8.696  -0.479 -0.2100 -1.5599 -2.1864
   64MOL0     H 8793  10.649   8.588  -0.570 -2.1978  0.2122 -1.0241
   64MOL0     H 8794  10.137   8.415  -0.528  0.8371 -0.4696 -0.5583
   64MOL0     H 8795   9.948   8.482  -0.661 -0.5979 -0.5324  0.0270
   64MOL0     H 8796   9.989   8.871  -0.891 -2.3702 -0.2206  0.1889
   64MOL0     H 8797  10.020   8.772  -1.023  0.0287 -3.5458  0.0321
   64MOL0     H 8798   9.793   8.886  -1.046 -2.6518 -0.1306 -0.1495
   64MOL0     H 8799   9.784   8.706  -1.049 -0.1235 -2.4227  2.6630
   64MOL0     H 8800   9.769   8.823  -0.782  1.0796  2.7864 -1.7475
   64MOL0     H 8801   9.683   8.690  -0.849  1.0223 -0.5005  1.8162
   64MOL0     H 8802   9.529   8.814  -0.970  0.6426 -0.2433 -1.2855
   64MOL0     H 8803   9.590   8.971  -0.945  0.6243  0.8720  0.0384
   64MOL0     H 8804   9.488   8.786  -0.731  0.0309 -0.7717 -2.7992
   64MOL0     H 8805   9.558   8.931  -0.694  0.9426  3.1301 -2.2563
   64MOL0     H 8806   9.395   9.024  -0.900 -1.3474 -0.8424 -0.5909
   64MOL0     H 8807   9.346   9.037  -0.732  1.7701 -1.3330  2.4369
   64MOL0     H 8808   9.231   8.802  -0.762  1.9489 -1.0812  1.3328
   64MOL0     H 8809   9.308   8.793  -0.925  3.5732 -0.5829  1.6272
   64MOL0     H 8810   9.077   8.878  -0.966  1.5148  1.6838 -1.8056
   64MOL0     H 8811   9.166   9.019  -0.973 -1.5400 -0.3482 -0.4917
   64MOL0     H 8812  10.182   8.775  -0.870  1.8581  0.5171  0.3898
   64MOL0     H 8813  10.388   8.713  -0.716  0.8053 -2.7002 -1.8997
   64MOL0     H 8814  10.413   8.368  -0.166 -0.8367  1.5884  1.2328
   64MOL0     H 8815  10.635   8.332  -0.034 -3.4630 -0.2540 -0.4893
   64MOL0     H 8816  10.629   7.397   0.059 -1.2241  4.6148  1.3214
   64MOL0     H 8817  10.392   7.370   0.060  1.0657 -2.6402 -0.5440
   64MOL0     H 8818  10.067   7.191   0.405 -0.4732 -0.9604 -0.3519
   64MOL0     H 8819   9.837   7.139   0.469  1.3316  0.3672  0.5240
   64MOL0     H 8820   9.577   7.095   0.427 -0.1177  1.0440 -0.9083
   64MOL0     H 8821   9.633   7.191   0.560 -2.6986  1.9056  0.8205
   64MOL0     H 8822   9.367   7.159   0.485  0.7260 -0.1271 -2.3557
   64MOL0     H 8823   9.394   7.321   0.440 -1.3130 -0.2988  1.4740
   64MOL0     H 8824   9.526   7.367   0.664  1.7660 -1.1354 -2.0471
   64MOL0     H 8825   9.354   7.368   0.655  1.1669  1.8037  0.1106
   64MOL0     H 8826   9.512   7.123   0.721  1.9856  1.1210  0.2393
   64MOL0     H 8827   9.346   7.139   0.751 -0.6054 -0.6728 -0.2837
   64MOL0     H 8828   9.493   7.294   1.108  1.8301 -0.3522 -0.2630
   64MOL0     H 8829   9.707   7.487   0.255 -1.1948 -0.9688 -0.6740
   64MOL0     H 8830   9.844   7.629   0.164 -1.0925 -1.0908  3.5177
   64MOL0     H 8831  10.018   7.627   0.182 -0.7685  0.8998  3.0692
   64MOL0     H 8832   9.941   7.536   0.053 -1.6690  2.1777  0.0483
   65MOL0     O 8833   6.642   3.646   3.095  0.0341  0.0144  0.0037
   65MOL0     C 8834   6.612   3.629   2.972  0.6980 -0.7105 -0.9843
   65MOL0     O 8835   6.483   3.608   2.926  0.5008 -0.2582  0.5638
   65MOL0     C 8836   6.383   3.579   3.016 -0.6284  0.0858 -0.0024
   65MOL0     C 8837   6.360   3.442   3.039  0.1747 -0.0326 -0.0686
   65MOL0     C 8838   6.258   3.395   3.127  0.2173 -0.2247 -0.0234
   65MOL0     C 8839   6.175   3.482   3.206 -0.3356 -0.5376 -0.5276
   65MOL0     O 8840   6.083   3.453   3.306  0.2450  0.5328  0.6896
   65MOL0     C 8841   6.057   3.311   3.335 -0.9456 -0.1627  0.1321
   65MOL0     C 8842   5.919   3.308   3.384  0.4493  0.1578 -0.5522
   65MOL0     C 8843   5.858   3.167   3.376  0.3547  0.2631  0.6420
   65MOL0     C 8844   5.713   3.169   3.427  0.6029 -0.4904 -0.4730
   65MOL0     C 8845   5.639   3.040   3.384  0.4539  1.1262  0.0357
   65MOL0     C 8846   5.495   3.036   3.435  0.5609  0.5245 -0.0481
   65MOL0     C 8847   5.411   3.148   3.353  1.0652 -0.3185  0.2024
   65MOL0     C 8848   5.262   3.110   3.374 -0.2935 -1.0202  0.5413
   65MOL0     N 8849   5.179   3.202   3.294 -0.2270 -0.2848 -0.1125
   65MOL0     C 8850   5.164   3.212   3.159  0.0415 -0.5345 -0.0537
   65MOL0     C 8851   5.099   3.327   3.139  0.3496  0.8479  1.0521
   65MOL0     C 8852   5.030   3.396   3.027 -0.3194  0.5875  0.3851
   65MOL0     C 8853   5.076   3.544   3.022  0.0050  0.0367  0.0528
   65MOL0     C 8854   5.024   3.605   2.893 -0.0381 -0.3821 -0.4715
   65MOL0     C 8855   5.063   3.752   2.885 -0.3146 -0.1441  0.0762
   65MOL0     O 8856   5.133   3.776   2.769  0.3475  0.1111  0.1434
   65MOL0     C 8857   5.270   3.775   2.780  0.8864  0.0535 -0.1842
   65MOL0     C 8858   5.332   3.798   2.657  0.6950 -0.1990  0.1156
   65MOL0     C 8859   5.467   3.823   2.643 -0.2847 -0.3106 -0.6095
   65MOL0     C 8860   5.523   3.868   2.508 -0.7507  0.5105 -0.2290
   65MOL0     C 8861   5.543   3.824   2.762  0.8294 -0.6972  0.5067
   65MOL0     C 8862   5.694   3.849   2.761  0.2866 -0.1494  0.2194
   65MOL0     O 8863   5.755   3.898   2.874  0.1974  0.4319 -0.1570
   65MOL0     C 8864   5.891   3.910   2.868 -0.4087 -1.4320 -0.0868
   65MOL0     C 8865   5.941   4.044   2.862  0.0725  0.2499  0.1144
   65MOL0     C 8866   6.073   4.056   2.831  0.4326 -0.4074 -1.2473
   65MOL0     C 8867   6.158   3.959   2.805 -0.3295  0.2407  0.7145
   65MOL0     O 8868   6.296   3.978   2.776  0.1764  0.8363 -0.3949
   65MOL0     C 8869   6.317   3.956   2.637 -0.5032 -0.4491 -0.0242
   65MOL0     C 8870   6.469   3.965   2.606 -0.8154  0.9027  0.3704
   65MOL0     C 8871   6.504   3.968   2.447 -1.0302 -0.2570  0.6009
   65MOL0     C 8872   6.653   3.990   2.418 -1.2044 -0.5114  0.5698
   65MOL0     C 8873   6.714   4.133   2.422  0.2226  0.3729 -0.5987
   65MOL0     C 8874   6.848   4.154   2.345  0.0782  0.1330  0.9388
   65MOL0     C 8875   6.965   4.075   2.410 -0.4692 -0.7855 -0.3737
   65MOL0     C 8876   7.099   4.121   2.358 -1.1814 -0.4096 -1.0355
   65MOL0    Cl 8877   7.102   4.063   2.173 -0.6567 -0.3421 -0.6899
   65MOL0     C 8878   6.111   3.826   2.811  0.0129  0.2353 -0.0796
   65MOL0     C 8879   5.976   3.798   2.848  0.1799  0.0617 -1.0584
   65MOL0     O 8880   5.751   3.797   2.662 -0.4524 -0.9879  0.1876
   65MOL0     C 8881   5.484   3.799   2.887 -0.7902  0.8999  0.3021
   65MOL0     C 8882   5.348   3.782   2.902  0.5644 -0.2789  0.8360
   65MOL0     N 8883   5.091   3.390   3.256  0.3596 -0.1038  0.2750
   65MOL0     N 8884   5.123   3.314   3.351 -0.3941  0.4904  0.2827
   65MOL0     C 8885   6.200   3.613   3.178 -0.0817 -0.6444  0.1813
   65MOL0     C 8886   6.301   3.666   3.091  0.2093 -0.2125 -0.2191
   65MOL0     C 8887   6.719   3.641   2.867  0.2183  0.3350 -0.6607
   65MOL0     C 8888   6.842   3.706   2.909 -0.0291  0.6703 -0.3013
   65MOL0     C 8889   6.946   3.722   2.822  0.6530 -0.2428  0.4574
   65MOL0     C 8890   6.930   3.681   2.690  0.1516 -0.3946 -0.2598
   65MOL0     O 8891   7.042   3.688   2.615 -0.7061 -0.9788  0.1119
   65MOL0     C 8892   7.035   3.678   2.472  0.9041 -0.2915 -0.1965
   65MOL0     C 8893   7.173   3.717   2.414 -0.0688 -0.0533  0.7932
   65MOL0     C 8894   7.295   3.649   2.485 -0.5612  0.0447  0.0909
   65MOL0     C 8895   7.387   3.746   2.550  1.3170 -0.3427  0.9401
   65MOL0     C 8896   7.514   3.681   2.578  0.1533  1.1499 -0.9583
   65MOL0     C 8897   7.627   3.637   2.587 -0.2697  0.2368 -0.7105
   65MOL0     C 8898   6.812   3.623   2.650  0.1164  0.6120  0.0415
   65MOL0     C 8899   6.703   3.596   2.736 -0.4752 -0.0417  0.4853
   65MOL0     C 8900   6.584   3.522   2.671 -0.4499  0.8435  0.4991
   65MOL0     H 8901   6.413   3.370   2.978 -2.9074 -2.3164 -0.2634
   65MOL0     H 8902   6.231   3.290   3.130  1.4765 -0.6050 -1.1421
   65MOL0     H 8903   6.132   3.268   3.402  0.0120  1.6941  0.3302
   65MOL0     H 8904   6.053   3.254   3.241  3.7977 -0.1339 -0.3033
   65MOL0     H 8905   5.921   3.338   3.489 -3.1393  1.2874 -0.6481
   65MOL0     H 8906   5.856   3.381   3.332  0.5162  0.0068 -0.8481
   65MOL0     H 8907   5.871   3.122   3.277  2.1065 -1.7636  1.7068
   65MOL0     H 8908   5.913   3.105   3.448  2.5779  1.1984 -0.1900
   65MOL0     H 8909   5.720   3.187   3.535 -0.5600 -0.4710 -0.3900
   65MOL0     H 8910   5.660   3.250   3.377  1.1655  0.3398  0.2349
   65MOL0     H 8911   5.691   2.955   3.430 -0.2528  1.1287  0.8624
   65MOL0     H 8912   5.654   3.021   3.277 -1.8668  1.8883 -0.4783
   65MOL0     H 8913   5.459   2.937   3.405 -1.5992  1.5621 -1.1232
   65MOL0     H 8914   5.482   3.039   3.544  2.0610 -3.6765  0.4386
   65MOL0     H 8915   5.435   3.148   3.246  0.1636 -1.8039 -0.0375
   65MOL0     H 8916   5.428   3.249   3.391 -0.5450 -0.0650  0.3266
   65MOL0     H 8917   5.245   3.008   3.338  2.0823 -0.9838 -0.9391
   65MOL0     H 8918   5.226   3.114   3.477 -0.2306  1.4222  0.5227
   65MOL0     H 8919   5.187   3.133   3.089  4.4758  1.1948 -0.9117
   65MOL0     H 8920   4.925   3.372   3.045  0.5212 -2.7624  1.5736
   65MOL0     H 8921   5.078   3.345   2.943  2.2725  0.7735  1.6428
   65MOL0     H 8922   5.044   3.588   3.117  1.9742  0.5476  0.5405
   65MOL0     H 8923   5.185   3.553   3.026 -0.1608  3.3656  0.2428
   65MOL0     H 8924   5.053   3.550   2.803  1.0291 -0.6940  0.0424
   65MOL0     H 8925   4.915   3.602   2.889 -0.0270  0.1857 -2.7617
   65MOL0     H 8926   4.969   3.805   2.869 -0.4526 -0.0533  1.1089
   65MOL0     H 8927   5.101   3.808   2.971  1.6013 -1.0305 -0.1485
   65MOL0     H 8928   5.263   3.826   2.577 -0.9889 -2.8502  0.5258
   65MOL0     H 8929   5.556   3.776   2.457  2.1002  0.3630  1.6761
   65MOL0     H 8930   5.611   3.932   2.518  2.1794 -3.0901 -0.4663
   65MOL0     H 8931   5.446   3.926   2.457 -3.0336 -1.5917  0.6427
   65MOL0     H 8932   5.872   4.128   2.864  0.6474  0.8323 -1.8803
   65MOL0     H 8933   6.115   4.156   2.825  0.9049 -0.2643  2.3608
   65MOL0     H 8934   6.280   3.868   2.585  2.4658 -1.5565 -0.4766
   65MOL0     H 8935   6.278   4.040   2.578  1.4196 -0.0315 -0.8013
   65MOL0     H 8936   6.507   4.053   2.658 -1.8706  1.2273  0.6086
   65MOL0     H 8937   6.512   3.876   2.655  2.0678  1.7225 -0.4847
   65MOL0     H 8938   6.436   4.041   2.403  0.1341  0.1551 -0.5618
   65MOL0     H 8939   6.477   3.867   2.417  1.6747 -1.3631  1.5824
   65MOL0     H 8940   6.662   3.963   2.312 -1.7370  2.7839 -0.4374
   65MOL0     H 8941   6.718   3.924   2.477 -1.6976 -4.3515 -2.7016
   65MOL0     H 8942   6.640   4.191   2.366 -2.1604 -1.1411  0.8088
   65MOL0     H 8943   6.724   4.179   2.521 -4.2344 -0.6279  0.5381
   65MOL0     H 8944   6.879   4.259   2.350  1.9192 -0.3537  0.4391
   65MOL0     H 8945   6.846   4.128   2.239  0.7629  0.4082  0.8555
   65MOL0     H 8946   6.959   3.970   2.379  2.8695 -1.5778  1.1529
   65MOL0     H 8947   6.960   4.092   2.518 -1.2983  2.8189 -0.8413
   65MOL0     H 8948   7.186   4.074   2.405 -1.4939 -0.4686 -0.5094
   65MOL0     H 8949   7.107   4.228   2.384  5.0487 -1.0065  1.2216
   65MOL0     H 8950   6.174   3.740   2.790  0.6495  0.9219 -1.1241
   65MOL0     H 8951   5.937   3.698   2.861 -2.0553  1.2114  2.8766
   65MOL0     H 8952   5.546   3.784   2.975 -0.8678 -3.5729 -0.1380
   65MOL0     H 8953   5.302   3.778   3.000 -1.6378 -0.6410 -0.1304
   65MOL0     H 8954   6.142   3.678   3.242  2.0558  0.4355  1.0979
   65MOL0     H 8955   6.328   3.771   3.083  0.1871  0.1966  3.5288
   65MOL0     H 8956   6.851   3.724   3.016 -0.2311 -1.2920  0.0902
   65MOL0     H 8957   7.035   3.763   2.869  0.1620  2.1411 -0.5343
   65MOL0     H 8958   7.003   3.580   2.434 -1.2953  1.4221 -3.1524
   65MOL0     H 8959   6.958   3.746   2.436  1.6235  1.4284  1.4153
   65MOL0     H 8960   7.194   3.824   2.404  1.6347 -0.4674 -0.4459
   65MOL0     H 8961   7.153   3.688   2.310 -2.6361  3.5066  0.0907
   65MOL0     H 8962   7.262   3.588   2.570  0.1478  1.2865  1.2975
   65MOL0     H 8963   7.357   3.595   2.413 -0.6627 -1.1123  0.8525
   65MOL0     H 8964   7.341   3.782   2.642 -2.5456 -2.7117  0.1266
   65MOL0     H 8965   7.409   3.826   2.478  1.1986  0.4143  1.7244
   65MOL0     H 8966   7.726   3.602   2.605  0.1551  2.1412  0.9132
   65MOL0     H 8967   6.798   3.584   2.549 -1.8791 -0.7399  0.7783
   65MOL0     H 8968   6.523   3.605   2.633  0.3423  0.8053 -0.9313
   65MOL0     H 8969   6.601   3.455   2.586  0.4333  2.3402 -0.5725
   65MOL0     H 8970   6.543   3.467   2.756  1.2429  0.7455  1.2797
   66MOL0     O 8971   0.915  11.182   5.636  0.2223  0.4485  1.0314
   66MOL0     C 8972   0.947  11.073   5.685 -0.1099  0.7272  0.7666
   66MOL0     O 8973   1.010  11.066   5.807  0.1251 -0.0693  0.3057
   66MOL0     C 8974   1.018  11.179   5.876  0.7766  0.5762  0.9014
   66MOL0     C 8975   1.112  11.281   5.848  0.1188  1.0533  0.6786
   66MOL0     C 8976   1.128  11.399   5.923 -0.5295 -0.3372  0.7643
   66MOL0     C 8977   1.041  11.418   6.038 -0.0678 -0.4779  0.9757
   66MOL0     O 8978   1.040  11.543   6.100 -0.8097  0.1679 -0.2571
   66MOL0     C 8979   0.999  11.554   6.236  0.1762  0.2549  0.2593
   66MOL0     C 8980   0.878  11.642   6.235 -0.3418 -0.6828  0.3570
   66MOL0     C 8981   0.749  11.556   6.222  0.4748 -0.1536  0.6817
   66MOL0     C 8982   0.633  11.649   6.173 -0.4226  1.1553 -0.0309
   66MOL0     C 8983   0.491  11.603   6.208  0.8920  0.4501 -0.3274
   66MOL0     C 8984   0.472  11.555   6.352 -0.5937 -0.4444  0.2473
   66MOL0     C 8985   0.324  11.557   6.405 -0.2794 -1.0520 -0.3018
   66MOL0     C 8986   0.272  11.688   6.455 -1.1317  0.1904  0.2808
   66MOL0     N 8987   0.134  11.686   6.500 -0.0197  0.0808  0.4832
   66MOL0     C 8988   0.038  11.602   6.440 -0.2060 -0.2906 -0.2074
   66MOL0     C 8989  -0.058  11.599   6.536  0.4494  0.1785  0.7528
   66MOL0     C 8990  -0.191  11.530   6.503 -0.9330  0.3580  0.0113
   66MOL0     C 8991  -0.223  11.558   6.355 -0.0339  0.2445  0.4900
   66MOL0     C 8992  -0.370  11.542   6.313 -0.1117  0.5587 -0.0240
   66MOL0     C 8993  -0.394  11.560   6.160  0.3674  0.0691  0.1230
   66MOL0     O 8994  -0.327  11.456   6.078  0.0132 -0.0026 -0.0657
   66MOL0     C 8995  -0.392  11.335   6.058  0.2948 -0.1408 -0.8235
   66MOL0     C 8996  -0.371  11.236   6.154 -0.8518 -0.3495  0.2858
   66MOL0     C 8997  -0.443  11.115   6.151 -0.5260 -0.6802  0.7315
   66MOL0     C 8998  -0.392  11.006   6.243 -0.4404 -0.0101  0.1848
   66MOL0     C 8999  -0.554  11.102   6.064  0.7860 -0.3808  0.1449
   66MOL0     C 9000  -0.644  10.983   6.064  0.2088  0.1216 -0.5350
   66MOL0     O 9001  -0.781  11.006   6.041 -0.7895 -0.3688  0.1392
   66MOL0     C 9002  -0.858  10.903   5.991 -0.0554  0.1156 -0.0580
   66MOL0     C 9003  -0.905  10.798   6.071  0.2608 -0.4783  0.3928
   66MOL0     C 9004  -0.994  10.704   6.009 -0.0084  0.1550 -0.2139
   66MOL0     C 9005  -1.044  10.708   5.882  0.4174 -0.8678  0.1259
   66MOL0     O 9006  -1.129  10.608   5.845  0.8616 -0.9238 -0.3257
   66MOL0     C 9007  -1.211  10.656   5.737 -0.0132  0.4174  0.1156
   66MOL0     C 9008  -1.311  10.550   5.706 -0.4553 -0.0194 -0.2590
   66MOL0     C 9009  -1.261  10.408   5.692  0.6438 -1.0827  0.3937
   66MOL0     C 9010  -1.379  10.306   5.695 -0.7417 -0.6683 -0.3364
   66MOL0     C 9011  -1.313  10.166   5.675  0.3297  0.5198 -0.9174
   66MOL0     C 9012  -1.221  10.150   5.560 -0.3979 -0.3348 -0.2440
   66MOL0     C 9013  -1.183  10.000   5.551 -0.6230  0.1093 -0.3119
   66MOL0     C 9014  -1.131   9.958   5.414 -0.6172  0.1581  0.2304
   66MOL0    Cl 9015  -1.268   9.900   5.322  0.1561 -0.1189  0.1105
   66MOL0     C 9016  -0.990  10.809   5.798  1.5211  0.2936 -0.7486
   66MOL0     C 9017  -0.903  10.912   5.859 -0.2263 -0.3840  0.2627
   66MOL0     O 9018  -0.596  10.873   6.072  0.2565  0.2272 -0.6289
   66MOL0     C 9019  -0.570  11.205   5.964  0.5178  0.0137 -1.3032
   66MOL0     C 9020  -0.496  11.317   5.971  0.6082  0.1050 -0.1760
   66MOL0     N 9021  -0.025  11.692   6.632  0.5041 -0.2025 -0.2256
   66MOL0     N 9022   0.090  11.743   6.614  0.1353  0.1768 -0.0514
   66MOL0     C 9023   0.957  11.312   6.079 -0.6234 -0.8040 -0.5580
   66MOL0     C 9024   0.938  11.205   5.990  0.7407  0.4581 -0.2347
   66MOL0     C 9025   0.911  10.949   5.624 -0.2284  0.0100  0.4442
   66MOL0     C 9026   0.842  10.844   5.696  0.7374 -1.0615 -0.4334
   66MOL0     C 9027   0.778  10.743   5.620 -1.1502  0.5028  0.0080
   66MOL0     C 9028   0.790  10.733   5.483  0.4602 -0.6497 -0.5196
   66MOL0     O 9029   0.721  10.644   5.415 -0.0802  0.5849  0.0072
   66MOL0     C 9030   0.732  10.504   5.452  0.1760 -0.3449 -0.7197
   66MOL0     C 9031   0.658  10.424   5.348 -0.4784  0.4236 -0.1208
   66MOL0     C 9032   0.676  10.267   5.360  0.0875  1.2475 -1.1234
   66MOL0     C 9033   0.628  10.182   5.488  0.1299 -0.4404  0.2038
   66MOL0     C 9034   0.700  10.210   5.616  0.2591  0.2653  1.0746
   66MOL0     C 9035   0.745  10.220   5.725  0.0041 -1.1123  0.3655
   66MOL0     C 9036   0.861  10.825   5.416  0.0403  0.1926  0.7624
   66MOL0     C 9037   0.935  10.929   5.487  0.6052  0.4734 -0.0686
   66MOL0     C 9038   1.009  11.019   5.394  0.2335  0.1424 -0.1528
   66MOL0     H 9039   1.165  11.267   5.754  1.4800 -0.8225  1.6635
   66MOL0     H 9040   1.196  11.473   5.881 -1.5880 -0.7274 -1.8093
   66MOL0     H 9041   1.087  11.593   6.287  0.4588  1.8315 -1.3124
   66MOL0     H 9042   0.988  11.455   6.280 -1.3312 -0.0726 -0.7642
   66MOL0     H 9043   0.861  11.702   6.325  1.2182  1.9011 -0.9694
   66MOL0     H 9044   0.877  11.706   6.146 -4.2223 -0.2318  0.5642
   66MOL0     H 9045   0.767  11.492   6.135  0.2426  1.6593 -0.7415
   66MOL0     H 9046   0.719  11.491   6.305 -2.8989  2.0470  1.3744
   66MOL0     H 9047   0.648  11.746   6.220  0.2783  0.9714  0.1262
   66MOL0     H 9048   0.636  11.655   6.063 -0.2703 -0.6959 -0.1703
   66MOL0     H 9049   0.448  11.518   6.154 -0.9937  1.2379 -0.1359
   66MOL0     H 9050   0.416  11.675   6.174 -0.9384 -1.8579 -1.4957
   66MOL0     H 9051   0.505  11.451   6.344 -0.0205 -0.1057 -3.8910
   66MOL0     H 9052   0.534  11.615   6.420  1.8666 -0.4189 -1.8569
   66MOL0     H 9053   0.323  11.486   6.488 -0.3892  1.0494  1.5498
   66MOL0     H 9054   0.254  11.511   6.334 -1.7951 -0.2651  0.6476
   66MOL0     H 9055   0.343  11.732   6.526  0.1278 -1.2114 -0.0665
   66MOL0     H 9056   0.285  11.751   6.366 -2.0471  1.4525  1.0038
   66MOL0     H 9057   0.044  11.552   6.344 -0.8726  0.9342 -0.9155
   66MOL0     H 9058  -0.282  11.559   6.556 -1.8270 -3.0448  0.5978
   66MOL0     H 9059  -0.182  11.421   6.511 -0.6700  0.0838 -3.0056
   66MOL0     H 9060  -0.188  11.654   6.316 -1.3139  0.5929  0.1500
   66MOL0     H 9061  -0.173  11.482   6.294  1.0379  1.4958 -0.2380
   66MOL0     H 9062  -0.405  11.441   6.336 -3.0005  1.9663  2.5210
   66MOL0     H 9063  -0.433  11.612   6.370  1.6516  2.0198  0.1989
   66MOL0     H 9064  -0.499  11.567   6.132  1.2866 -1.5989 -4.6674
   66MOL0     H 9065  -0.374  11.663   6.127 -5.6271  1.9656  1.2052
   66MOL0     H 9066  -0.287  11.254   6.221 -1.2717 -0.1658  0.7668
   66MOL0     H 9067  -0.292  11.021   6.284 -1.2595  0.2096  2.2422
   66MOL0     H 9068  -0.390  10.920   6.175  2.6821  0.2319 -0.1520
   66MOL0     H 9069  -0.467  10.995   6.322 -1.8568 -1.3549 -1.2663
   66MOL0     H 9070  -0.866  10.788   6.171  3.0302  0.5406 -0.4971
   66MOL0     H 9071  -1.019  10.620   6.072 -1.6138  2.2923  2.1509
   66MOL0     H 9072  -1.267  10.740   5.779 -0.1144 -0.5958  2.1167
   66MOL0     H 9073  -1.157  10.671   5.643 -1.2911 -3.3452 -1.3945
   66MOL0     H 9074  -1.384  10.540   5.787 -1.2473  2.1760 -0.6423
   66MOL0     H 9075  -1.362  10.588   5.618 -2.0204 -1.6868 -0.1293
   66MOL0     H 9076  -1.190  10.374   5.767  2.8483 -0.3991 -1.2854
   66MOL0     H 9077  -1.206  10.412   5.598  0.2665 -1.7472  0.1360
   66MOL0     H 9078  -1.439  10.337   5.609 -1.7985  2.6506  1.4320
   66MOL0     H 9079  -1.443  10.313   5.783 -1.2762 -0.3947 -0.7413
   66MOL0     H 9080  -1.262  10.131   5.765  1.6243 -0.7234 -2.0963
   66MOL0     H 9081  -1.390  10.092   5.650  1.1130 -0.0267 -1.7775
   66MOL0     H 9082  -1.132  10.214   5.559  0.8571 -1.9842 -0.1015
   66MOL0     H 9083  -1.286  10.175   5.476 -2.4320 -0.5614  1.1804
   66MOL0     H 9084  -1.265   9.931   5.570  0.8906 -1.4533  0.9321
   66MOL0     H 9085  -1.094   9.985   5.613 -0.9508 -0.5513  0.0138
   66MOL0     H 9086  -1.057   9.878   5.420 -0.7131  0.0695  0.2274
   66MOL0     H 9087  -1.082  10.048   5.375  0.8643 -0.7071  0.0304
   66MOL0     H 9088  -1.025  10.815   5.695 -0.3617  1.7093 -0.0749
   66MOL0     H 9089  -0.872  11.002   5.808 -1.8756 -1.5390 -3.0936
   66MOL0     H 9090  -0.659  11.192   5.904 -0.7273 -2.0835  0.8277
   66MOL0     H 9091  -0.514  11.394   5.897  1.3382  1.0065  0.5519
   66MOL0     H 9092   0.898  11.320   6.170  0.4282 -0.3897  0.1166
   66MOL0     H 9093   0.866  11.126   6.012 -1.0659  2.3260  0.9014
   66MOL0     H 9094   0.817  10.854   5.801  0.8938  1.0625 -0.5596
   66MOL0     H 9095   0.715  10.677   5.679 -1.6942  2.2324  1.4569
   66MOL0     H 9096   0.832  10.465   5.471 -1.0198 -3.7243 -0.6901
   66MOL0     H 9097   0.688  10.488   5.551  1.9533 -0.4588  0.0784
   66MOL0     H 9098   0.687  10.454   5.247 -0.4011  1.0601  0.0853
   66MOL0     H 9099   0.554  10.453   5.367 -0.2411  1.4042 -0.2356
   66MOL0     H 9100   0.641  10.228   5.264  0.5463 -0.1135 -0.7611
   66MOL0     H 9101   0.785  10.257   5.354  0.7780  6.4812 -2.4178
   66MOL0     H 9102   0.641  10.076   5.461  1.3473 -0.5354  1.1195
   66MOL0     H 9103   0.520  10.195   5.501 -0.2949 -3.0098 -0.1757
   66MOL0     H 9104   0.779  10.206   5.826  1.9287  0.1043 -0.0603
   66MOL0     H 9105   0.861  10.808   5.309 -0.2781  1.0796  0.6137
   66MOL0     H 9106   1.066  10.972   5.314  2.0405  0.5394  0.8468
   66MOL0     H 9107   0.936  11.088   5.350 -0.6359 -0.4376  0.3502
   66MOL0     H 9108   1.079  11.085   5.447 -0.5070 -0.9660  2.3709
   67MOL0     O 9109   0.971   5.346   3.965 -0.0064  0.2470  0.4956
   67MOL0     C 9110   1.060   5.272   4.014 -0.2704  0.4591  0.8639
   67MOL0     O 9111   1.112   5.285   4.139 -0.2047  0.5249  0.0708
   67MOL0     C 9112   1.102   5.397   4.211  0.7317  1.4943  0.6249
   67MOL0     C 9113   1.167   5.505   4.166 -0.0768  0.2017  0.1715
   67MOL0     C 9114   1.167   5.635   4.235  0.4741 -0.8631  0.1013
   67MOL0     C 9115   1.103   5.643   4.363  0.0465  0.5459 -0.1954
   67MOL0     O 9116   1.083   5.762   4.434 -0.1934  0.6705  0.6581
   67MOL0     C 9117   1.197   5.846   4.437 -0.2822 -0.3091  0.3228
   67MOL0     C 9118   1.186   5.954   4.339  0.6005 -0.3145 -0.6112
   67MOL0     C 9119   1.086   6.056   4.413 -0.8444 -1.3041  0.5868
   67MOL0     C 9120   1.151   6.190   4.456  0.3214  0.0188 -0.1816
   67MOL0     C 9121   1.042   6.273   4.525  0.0661  0.2632 -0.2155
   67MOL0     C 9122   1.073   6.424   4.562  0.0927  0.7092 -0.3038
   67MOL0     C 9123   1.184   6.434   4.669  0.1646 -0.3946  0.0693
   67MOL0     C 9124   1.195   6.584   4.710  0.4332 -0.0653  0.5891
   67MOL0     N 9125   1.307   6.615   4.789 -0.6136 -0.8586  0.2693
   67MOL0     C 9126   1.315   6.602   4.921 -0.1657 -0.0957  0.0903
   67MOL0     C 9127   1.448   6.597   4.941  0.3755  0.1986  0.5902
   67MOL0     C 9128   1.503   6.589   5.083 -0.4272  0.2490 -0.6486
   67MOL0     C 9129   1.610   6.691   5.087  0.0686  0.0134 -0.6097
   67MOL0     C 9130   1.697   6.675   5.215 -0.2623 -0.0125  0.1672
   67MOL0     C 9131   1.745   6.813   5.259  0.5484 -0.1996  0.1744
   67MOL0     O 9132   1.826   6.873   5.150  0.9039 -0.2182  0.4444
   67MOL0     C 9133   1.844   7.005   5.152 -0.8892 -0.0464  0.6790
   67MOL0     C 9134   1.854   7.079   5.026  0.1560  0.4618  0.7785
   67MOL0     C 9135   1.866   7.216   5.023 -0.3248  0.0971 -0.2089
   67MOL0     C 9136   1.862   7.271   4.884 -0.2231 -0.4323  0.9003
   67MOL0     C 9137   1.892   7.291   5.141 -0.4635  0.4890 -0.2241
   67MOL0     C 9138   1.907   7.443   5.142  0.2130  0.6064 -0.1119
   67MOL0     O 9139   1.975   7.495   5.043 -0.5420 -0.4958  0.0555
   67MOL0     C 9140   2.006   7.628   5.055  0.1989  0.5171 -0.5870
   67MOL0     C 9141   2.113   7.665   5.132  0.5063 -0.7365  0.0020
   67MOL0     C 9142   2.157   7.796   5.149  0.0825 -0.7203 -0.5471
   67MOL0     C 9143   2.076   7.899   5.105  0.3338  0.1854  0.0733
   67MOL0     O 9144   2.116   8.030   5.130 -0.0314  0.1664  0.3518
   67MOL0     C 9145   2.045   8.144   5.074  0.6409 -0.0452 -0.6087
   67MOL0     C 9146   2.133   8.267   5.089  0.2889 -0.2472  0.0707
   67MOL0     C 9147   2.273   8.262   5.030  0.3233  0.3069 -0.5576
   67MOL0     C 9148   2.310   8.410   5.000 -0.4304  0.2583 -0.0621
   67MOL0     C 9149   2.436   8.419   4.919  0.6282 -0.0823 -0.5811
   67MOL0     C 9150   2.502   8.558   4.915  0.2029 -0.5578  0.3756
   67MOL0     C 9151   2.409   8.674   4.870 -0.3089  0.7789 -0.8731
   67MOL0     C 9152   2.339   8.666   4.733 -0.4193  0.3537 -0.0022
   67MOL0    Cl 9153   2.454   8.625   4.607 -0.0362 -0.0686 -0.0706
   67MOL0     C 9154   1.971   7.860   5.031  0.1016 -0.2526  0.2252
   67MOL0     C 9155   1.930   7.728   5.001 -0.5824 -0.1810 -0.6171
   67MOL0     O 9156   1.849   7.506   5.234 -0.5386 -0.2113 -0.1092
   67MOL0     C 9157   1.878   7.218   5.264  0.2015  0.4493  0.6319
   67MOL0     C 9158   1.852   7.081   5.270 -0.6358 -0.0990  0.1531
   67MOL0     N 9159   1.517   6.590   4.822 -0.4592 -0.5526  0.3292
   67MOL0     N 9160   1.433   6.614   4.732 -0.2654  0.2850 -0.6170
   67MOL0     C 9161   1.049   5.528   4.405  1.3715  0.3299  0.1963
   67MOL0     C 9162   1.049   5.404   4.338  0.4321 -0.7238  0.0030
   67MOL0     C 9163   1.079   5.140   3.929 -0.2982 -0.1292  0.7356
   67MOL0     C 9164   1.124   5.025   3.993  0.1592 -1.1538  0.4331
   67MOL0     C 9165   1.157   4.914   3.923  0.5867 -0.3694  0.0636
   67MOL0     C 9166   1.146   4.906   3.784 -0.2019 -0.5743  0.6302
   67MOL0     O 9167   1.167   4.787   3.719  0.3377 -1.0405  0.3553
   67MOL0     C 9168   1.116   4.763   3.582  0.1219 -1.0623 -0.1616
   67MOL0     C 9169   0.971   4.732   3.564 -0.4518 -0.1420  0.4186
   67MOL0     C 9170   0.935   4.790   3.426  0.3313 -0.6919  0.5179
   67MOL0     C 9171   0.781   4.772   3.388 -0.1481  0.2157  0.1214
   67MOL0     C 9172   0.756   4.818   3.249 -0.0788  0.6740  0.5398
   67MOL0     C 9173   0.717   4.860   3.141 -0.4139  0.8928  1.0279
   67MOL0     C 9174   1.097   5.028   3.721  0.8787 -0.5334 -0.1412
   67MOL0     C 9175   1.074   5.146   3.783  0.0506  0.4946 -0.3319
   67MOL0     C 9176   1.056   5.278   3.705 -0.8502 -0.3965  0.7367
   67MOL0     H 9177   1.210   5.493   4.066 -1.1561 -2.3031 -0.0674
   67MOL0     H 9178   1.222   5.715   4.186  1.6606 -1.4704  0.3921
   67MOL0     H 9179   1.283   5.783   4.415 -0.2766 -0.9600  2.0601
   67MOL0     H 9180   1.203   5.885   4.539 -1.2436 -0.6752  0.5333
   67MOL0     H 9181   1.289   5.991   4.339  0.7417 -0.5297 -3.3533
   67MOL0     H 9182   1.152   5.931   4.238 -0.2620 -1.5110 -0.0728
   67MOL0     H 9183   1.006   6.065   4.338 -0.7263 -1.1753  0.4768
   67MOL0     H 9184   1.045   6.003   4.500  0.7043 -1.9040  0.9792
   67MOL0     H 9185   1.234   6.171   4.525  1.9229 -0.0015 -2.0077
   67MOL0     H 9186   1.196   6.246   4.373 -0.0919 -2.8445 -2.5231
   67MOL0     H 9187   1.021   6.216   4.616  0.9847 -0.7531 -0.6136
   67MOL0     H 9188   0.946   6.263   4.472 -0.4783 -2.9383  1.1429
   67MOL0     H 9189   1.093   6.481   4.471  0.2027  1.9261  0.4531
   67MOL0     H 9190   0.985   6.474   4.603  0.1178  1.2111 -0.8454
   67MOL0     H 9191   1.282   6.399   4.634  1.9530  1.5782  2.6700
   67MOL0     H 9192   1.162   6.374   4.758 -0.0328  0.5656  0.6797
   67MOL0     H 9193   1.187   6.653   4.625 -1.5247 -0.8451  0.0679
   67MOL0     H 9194   1.111   6.606   4.777  1.9458  4.4002  1.3031
   67MOL0     H 9195   1.225   6.605   4.982 -0.6421 -0.1180 -0.6038
   67MOL0     H 9196   1.527   6.487   5.118 -3.3963  0.0734  1.2439
   67MOL0     H 9197   1.428   6.624   5.154 -0.1555 -1.5334  0.5869
   67MOL0     H 9198   1.689   6.673   5.014  1.9387  0.3963  1.2418
   67MOL0     H 9199   1.576   6.795   5.085  0.1654  0.0593 -0.0149
   67MOL0     H 9200   1.642   6.622   5.293  2.2772 -2.7709  0.3055
   67MOL0     H 9201   1.789   6.620   5.190 -1.5090 -2.4464  0.5944
   67MOL0     H 9202   1.658   6.879   5.268  1.2940  0.7578  0.5266
   67MOL0     H 9203   1.797   6.817   5.355  2.1829  4.1423 -0.6553
   67MOL0     H 9204   1.830   7.015   4.941 -0.9316  0.6741  0.9072
   67MOL0     H 9205   1.846   7.206   4.798 -2.4098  0.1338  0.8281
   67MOL0     H 9206   1.951   7.333   4.873 -0.8206 -0.0808 -4.7805
   67MOL0     H 9207   1.784   7.347   4.875  0.8160  0.8380  2.1580
   67MOL0     H 9208   2.166   7.578   5.169  4.4839  0.7525 -1.6969
   67MOL0     H 9209   2.242   7.812   5.214 -0.6884 -0.2343  0.3593
   67MOL0     H 9210   2.022   8.135   4.968 -0.2640 -0.3429 -0.3922
   67MOL0     H 9211   1.953   8.162   5.130  2.1429  3.9469  1.0080
   67MOL0     H 9212   2.069   8.341   5.042  1.6500  0.8419 -0.1112
   67MOL0     H 9213   2.150   8.303   5.191 -0.8824  1.2458 -0.2310
   67MOL0     H 9214   2.267   8.211   4.934  0.7318  1.2400 -1.0978
   67MOL0     H 9215   2.346   8.212   5.095  0.7076 -1.3483 -2.1826
   67MOL0     H 9216   2.314   8.461   5.097 -2.3580 -3.0085  1.9192
   67MOL0     H 9217   2.228   8.453   4.942  0.3490 -0.8160 -2.0879
   67MOL0     H 9218   2.500   8.344   4.966 -1.3537 -1.0787  0.6667
   67MOL0     H 9219   2.411   8.385   4.818 -0.2308  0.1945 -0.4706
   67MOL0     H 9220   2.591   8.554   4.851 -1.1526  0.9200 -1.7459
   67MOL0     H 9221   2.536   8.586   5.015 -0.1150 -0.2984  0.4109
   67MOL0     H 9222   2.474   8.761   4.868  1.0638 -0.0411  2.1098
   67MOL0     H 9223   2.342   8.680   4.957  1.6735  0.7811  0.7255
   67MOL0     H 9224   2.283   8.760   4.719  0.3166  0.9815  1.1395
   67MOL0     H 9225   2.266   8.585   4.736 -0.5306  0.2861 -2.4252
   67MOL0     H 9226   1.915   7.940   4.984  0.5034 -0.0703  0.0592
   67MOL0     H 9227   1.840   7.711   4.943 -0.9975 -1.0907  0.2617
   67MOL0     H 9228   1.885   7.287   5.347 -2.1039  3.7676 -1.6632
   67MOL0     H 9229   1.838   7.042   5.371 -1.1461  0.4469  0.2991
   67MOL0     H 9230   0.999   5.534   4.501  0.3889  0.3860 -0.3043
   67MOL0     H 9231   0.983   5.326   4.375 -1.0046 -0.2029 -1.3447
   67MOL0     H 9232   1.138   5.030   4.100  1.7443 -3.2492  0.3852
   67MOL0     H 9233   1.201   4.830   3.977  0.9896 -0.4861 -0.4498
   67MOL0     H 9234   1.141   4.846   3.516 -0.0592 -1.7087 -1.0505
   67MOL0     H 9235   1.177   4.678   3.550  0.1025 -1.2205  0.2138
   67MOL0     H 9236   0.907   4.775   3.642 -0.4811  0.6885 -0.0439
   67MOL0     H 9237   0.953   4.624   3.559  1.3637 -0.4576  0.0392
   67MOL0     H 9238   0.961   4.896   3.419  2.9144 -1.0146  3.2774
   67MOL0     H 9239   0.999   4.739   3.353 -1.8455 -2.6189 -0.1566
   67MOL0     H 9240   0.708   4.832   3.442 -1.6590 -1.5264  0.1137
   67MOL0     H 9241   0.762   4.664   3.392 -0.3666  0.2810  0.9174
   67MOL0     H 9242   0.700   4.881   3.037  1.5695  1.5822  0.8023
   67MOL0     H 9243   1.090   5.036   3.613  0.0321  2.9806  0.0498
   67MOL0     H 9244   0.962   5.329   3.723  0.4674  2.8583 -0.8086
   67MOL0     H 9245   1.143   5.339   3.732 -0.9432 -0.5711  1.4494
   67MOL0     H 9246   1.057   5.262   3.596 -1.4301  0.1830  0.6445
   68MOL0     O 9247   2.944   4.208   2.498 -0.9051  0.3867  0.5438
   68MOL0     C 9248   2.967   4.316   2.443 -1.0664 -0.2794 -0.0479
   68MOL0     O 9249   3.091   4.362   2.407  0.7611  0.2222  0.0903
   68MOL0     C 9250   3.196   4.269   2.409  0.6697  0.0489  0.3565
   68MOL0     C 9251   3.313   4.327   2.458  1.6354 -0.0808  0.6890
   68MOL0     C 9252   3.430   4.253   2.459  0.2829  0.3032 -0.4043
   68MOL0     C 9253   3.434   4.129   2.403 -0.0652  0.3096  0.2026
   68MOL0     O 9254   3.558   4.064   2.409  0.0344 -0.0772 -0.2939
   68MOL0     C 9255   3.577   3.964   2.503 -0.6813  0.0855  0.0871
   68MOL0     C 9256   3.492   3.837   2.516 -1.1502 -0.1530 -0.1049
   68MOL0     C 9257   3.498   3.751   2.387  0.7645  0.5689  0.3361
   68MOL0     C 9258   3.581   3.627   2.396  0.1983  0.7808 -0.9657
   68MOL0     C 9259   3.631   3.579   2.266 -0.5917  0.5989  0.2984
   68MOL0     C 9260   3.774   3.632   2.255  0.3764 -0.6222 -0.6808
   68MOL0     C 9261   3.779   3.727   2.135 -0.8444  0.7847  0.3282
   68MOL0     C 9262   3.917   3.780   2.100  0.4067  0.6289 -0.7736
   68MOL0     N 9263   4.020   3.676   2.104 -0.1502  0.3611 -0.5379
   68MOL0     C 9264   4.065   3.599   1.999 -0.5673  0.1126  0.2919
   68MOL0     C 9265   4.187   3.553   2.039 -0.2101 -0.4490 -0.5634
   68MOL0     C 9266   4.284   3.464   1.955 -0.0951 -0.5148 -0.2973
   68MOL0     C 9267   4.431   3.507   1.955  0.5200 -0.5279 -0.9497
   68MOL0     C 9268   4.489   3.520   2.093  0.5350 -0.3655  1.0882
   68MOL0     C 9269   4.633   3.567   2.088 -0.1209  0.1876  0.1405
   68MOL0     O 9270   4.706   3.503   1.983  0.1598  0.0592 -0.6334
   68MOL0     C 9271   4.798   3.564   1.904  0.4596  0.3511  0.2788
   68MOL0     C 9272   4.872   3.670   1.948 -0.3212 -0.6428  0.0683
   68MOL0     C 9273   4.966   3.743   1.861 -0.2504 -0.5447 -0.3132
   68MOL0     C 9274   5.034   3.866   1.936  0.5635 -0.0368  0.2004
   68MOL0     C 9275   5.005   3.682   1.740  0.3614  0.1520 -0.1719
   68MOL0     C 9276   5.100   3.741   1.645 -0.8961  0.9110  0.8770
   68MOL0     O 9277   5.128   3.666   1.528 -0.0326 -0.2729 -0.0737
   68MOL0     C 9278   5.240   3.715   1.458 -0.9663 -0.0833  0.9168
   68MOL0     C 9279   5.370   3.654   1.457  0.3364 -0.4029 -0.4892
   68MOL0     C 9280   5.482   3.708   1.390  0.0443  0.3192 -0.1892
   68MOL0     C 9281   5.457   3.825   1.313 -0.0960 -0.4661 -0.8002
   68MOL0     O 9282   5.556   3.880   1.231 -0.4534 -0.6146 -0.5978
   68MOL0     C 9283   5.684   3.919   1.292  1.2329 -0.1307  0.3176
   68MOL0     C 9284   5.791   3.855   1.204 -0.2242 -0.1568 -0.7783
   68MOL0     C 9285   5.780   3.922   1.063  0.0235 -0.1392 -0.1952
   68MOL0     C 9286   5.861   3.846   0.969  0.6650  0.1585  1.2240
   68MOL0     C 9287   5.853   3.904   0.824  1.0432  0.0160 -0.8287
   68MOL0     C 9288   5.921   3.806   0.720  0.9296 -0.2539 -0.0528
   68MOL0     C 9289   5.954   3.874   0.585 -0.5021  0.0796  0.3158
   68MOL0     C 9290   5.849   3.970   0.532 -0.3853  0.4822  0.0142
   68MOL0    Cl 9291   5.689   3.894   0.513 -0.2537 -0.2115  0.1566
   68MOL0     C 9292   5.335   3.889   1.321  0.0061  0.1446 -0.2952
   68MOL0     C 9293   5.224   3.843   1.388 -0.3922 -0.2869  0.1281
   68MOL0     O 9294   5.146   3.847   1.676 -0.3407  0.1754 -0.2308
   68MOL0     C 9295   4.930   3.575   1.699 -0.4451  0.8866 -0.0818
   68MOL0     C 9296   4.824   3.513   1.774  0.2582 -0.6752  0.2067
   68MOL0     N 9297   4.194   3.579   2.181  0.3011 -0.1834  0.1019
   68MOL0     N 9298   4.086   3.648   2.216 -0.4609  0.3331 -0.1974
   68MOL0     C 9299   3.322   4.078   2.341 -0.0635 -0.0465  0.8167
   68MOL0     C 9300   3.193   4.145   2.351  0.2235  0.1319 -0.2660
   68MOL0     C 9301   2.860   4.411   2.450  1.2152  0.3605 -0.5584
   68MOL0     C 9302   2.877   4.549   2.411 -0.5747  0.3940 -0.0694
   68MOL0     C 9303   2.773   4.642   2.418  0.3442  1.1698  0.4175
   68MOL0     C 9304   2.646   4.601   2.461  0.2466 -0.3353  0.6754
   68MOL0     O 9305   2.542   4.689   2.469 -0.0946 -0.0465 -0.0256
   68MOL0     C 9306   2.538   4.767   2.352  0.0065  0.3914  0.4212
   68MOL0     C 9307   2.401   4.836   2.345  0.9574  0.5196  0.5697
   68MOL0     C 9308   2.317   4.767   2.231  0.2347 -0.6127  0.1424
   68MOL0     C 9309   2.164   4.799   2.238  0.0176 -0.4587  0.7834
   68MOL0     C 9310   2.163   4.940   2.258  0.0623 -0.6362  0.1204
   68MOL0     C 9311   2.158   5.061   2.266 -0.3598  1.5088 -0.2068
   68MOL0     C 9312   2.621   4.465   2.475 -0.5299  0.4039 -0.6488
   68MOL0     C 9313   2.723   4.372   2.478 -0.0896  0.8955  0.1729
   68MOL0     C 9314   2.672   4.219   2.514  0.1397 -0.3119  0.5754
   68MOL0     H 9315   3.303   4.432   2.484  1.0889 -0.5667  2.7061
   68MOL0     H 9316   3.518   4.292   2.507  2.6641 -4.8718  0.1676
   68MOL0     H 9317   3.569   4.016   2.599  0.6351 -0.1427  0.3300
   68MOL0     H 9318   3.683   3.938   2.497 -0.6642  0.3072 -0.6174
   68MOL0     H 9319   3.519   3.783   2.608 -1.8580  2.9527  2.1003
   68MOL0     H 9320   3.388   3.866   2.537 -0.9479  1.2681 -0.9920
   68MOL0     H 9321   3.396   3.719   2.364  0.1278  2.0991  0.8943
   68MOL0     H 9322   3.533   3.808   2.300  1.2869  0.3416  0.3949
   68MOL0     H 9323   3.665   3.638   2.465  0.6724 -0.3213 -1.3485
   68MOL0     H 9324   3.514   3.548   2.430  0.2499  0.7126 -1.0221
   68MOL0     H 9325   3.564   3.599   2.182  0.2990 -1.1301 -0.9001
   68MOL0     H 9326   3.648   3.471   2.271 -2.3083  0.1934 -1.5388
   68MOL0     H 9327   3.816   3.682   2.343  1.0172 -1.9002 -0.2339
   68MOL0     H 9328   3.845   3.551   2.235  2.1868  0.4594  0.9556
   68MOL0     H 9329   3.707   3.807   2.153 -2.7937 -1.1638  1.6594
   68MOL0     H 9330   3.737   3.669   2.052  0.9605  0.3433 -0.3239
   68MOL0     H 9331   3.906   3.828   2.002 -2.4499 -0.5723 -1.1325
   68MOL0     H 9332   3.942   3.850   2.180 -1.6446 -0.9241  1.3440
   68MOL0     H 9333   4.028   3.598   1.897 -1.5051 -0.4161  0.6314
   68MOL0     H 9334   4.240   3.469   1.855 -0.4259 -1.7984 -0.2359
   68MOL0     H 9335   4.287   3.362   1.994 -0.2727 -0.7696 -0.9440
   68MOL0     H 9336   4.481   3.433   1.891  0.4142  0.6917 -2.4948
   68MOL0     H 9337   4.428   3.602   1.903  0.6169 -1.1784 -2.1784
   68MOL0     H 9338   4.438   3.597   2.151 -2.1181 -1.6483  0.6327
   68MOL0     H 9339   4.485   3.424   2.145  1.5265  0.0791  2.0302
   68MOL0     H 9340   4.630   3.675   2.071 -0.0874  0.2589  0.5849
   68MOL0     H 9341   4.685   3.540   2.180 -1.3009  0.4899  0.9211
   68MOL0     H 9342   4.856   3.699   2.051  1.8564  1.0599  0.0276
   68MOL0     H 9343   5.142   3.878   1.928  0.5266 -0.8446 -2.3181
   68MOL0     H 9344   5.009   3.865   2.043 -0.6345  0.3598 -0.0503
   68MOL0     H 9345   4.992   3.951   1.881 -0.2448 -0.1045  0.6915
   68MOL0     H 9346   5.389   3.560   1.509 -0.8956 -1.0416 -1.1416
   68MOL0     H 9347   5.570   3.644   1.388  0.2821  0.6034  0.6527
   68MOL0     H 9348   5.683   4.028   1.293 -0.4375 -0.1215  1.2482
   68MOL0     H 9349   5.684   3.885   1.396  1.0686 -0.3419  0.2486
   68MOL0     H 9350   5.888   3.866   1.253 -0.5381  1.4393 -0.4582
   68MOL0     H 9351   5.769   3.749   1.193  0.6470 -0.2178 -2.1679
   68MOL0     H 9352   5.823   4.019   1.088 -0.0692 -0.4643  1.2998
   68MOL0     H 9353   5.673   3.929   1.041  0.4613  0.9043 -2.2046
   68MOL0     H 9354   5.827   3.742   0.964 -2.5378  1.0544 -3.7588
   68MOL0     H 9355   5.963   3.845   1.007  0.8191  3.8458  1.2954
   68MOL0     H 9356   5.748   3.928   0.803  0.0418 -0.6745  2.7483
   68MOL0     H 9357   5.914   3.994   0.817 -0.5387  1.0194 -3.7933
   68MOL0     H 9358   5.868   3.716   0.687 -0.3443  0.0694  0.9992
   68MOL0     H 9359   6.012   3.769   0.768 -0.0643 -1.5452  0.9050
   68MOL0     H 9360   5.963   3.790   0.517 -2.7239  0.2647 -0.2845
   68MOL0     H 9361   6.047   3.931   0.585  0.7936 -1.9594  0.6843
   68MOL0     H 9362   5.883   4.008   0.436  1.9492 -2.0346 -0.2769
   68MOL0     H 9363   5.831   4.061   0.590  1.7109  1.0699 -0.1979
   68MOL0     H 9364   5.328   3.977   1.257 -0.7311  0.5487  0.3203
   68MOL0     H 9365   5.121   3.875   1.381 -1.0426 -1.4577  2.9405
   68MOL0     H 9366   4.940   3.521   1.606 -1.1257  1.5869 -0.5825
   68MOL0     H 9367   4.779   3.421   1.738  0.9804 -0.6006 -0.9482
   68MOL0     H 9368   3.336   3.978   2.301  1.2275  1.5039 -3.1025
   68MOL0     H 9369   3.108   4.093   2.308 -0.3443  0.4852  0.4022
   68MOL0     H 9370   2.970   4.574   2.361 -1.1892  1.5343 -0.6845
   68MOL0     H 9371   2.807   4.739   2.382  1.8571  0.1286 -1.0907
   68MOL0     H 9372   2.615   4.844   2.358  0.4456  0.0178 -0.2219
   68MOL0     H 9373   2.550   4.701   2.265 -1.5461 -0.6700  0.9624
   68MOL0     H 9374   2.428   4.939   2.321 -0.8603  0.8631 -0.1535
   68MOL0     H 9375   2.353   4.827   2.443 -2.3337 -1.1700 -1.0466
   68MOL0     H 9376   2.360   4.804   2.137  1.3695 -1.3546  0.3576
   68MOL0     H 9377   2.333   4.659   2.238  2.4441 -0.2216  3.9522
   68MOL0     H 9378   2.125   4.748   2.327  1.4342 -1.1048  1.0537
   68MOL0     H 9379   2.110   4.768   2.148  0.3984 -0.0961  0.4247
   68MOL0     H 9380   2.146   5.167   2.268 -0.5394  1.4775  0.7392
   68MOL0     H 9381   2.521   4.433   2.505  0.1202  0.0156  1.3010
   68MOL0     H 9382   2.699   4.149   2.434  0.2996  0.4649 -0.0613
   68MOL0     H 9383   2.705   4.188   2.614 -0.5843  1.2617  1.3440
   68MOL0     H 9384   2.562   4.211   2.512  0.0857  0.3999 -1.0603
   69MOL0     O 9385   6.015   0.725   3.459  0.1584 -0.7203  0.1627
   69MOL0     C 9386   5.989   0.826   3.394 -0.3683  0.2943  0.5635
   69MOL0     O 9387   6.081   0.908   3.335  0.2512 -0.4198  0.2998
   69MOL0     C 9388   6.212   0.872   3.305 -0.3828  0.6118  0.8168
   69MOL0     C 9389   6.250   0.742   3.269 -0.0971  0.4638  0.5108
   69MOL0     C 9390   6.390   0.714   3.256 -0.3872  0.3110  0.7697
   69MOL0     C 9391   6.488   0.807   3.264  0.7578 -0.0819 -0.4039
   69MOL0     O 9392   6.623   0.771   3.255  0.6832 -0.7454  0.1336
   69MOL0     C 9393   6.712   0.824   3.354  0.1124  0.1567  0.0927
   69MOL0     C 9394   6.826   0.892   3.282  0.5939 -0.3694  0.4056
   69MOL0     C 9395   6.904   0.810   3.177  0.0415 -0.9648 -0.0452
   69MOL0     C 9396   6.971   0.678   3.228 -1.1706 -0.8904  1.1649
   69MOL0     C 9397   7.085   0.623   3.138 -0.5691  0.2505 -0.4255
   69MOL0     C 9398   7.175   0.516   3.214  0.2582 -0.7495  0.0454
   69MOL0     C 9399   7.241   0.577   3.344  0.0681 -0.1327  1.0399
   69MOL0     C 9400   7.341   0.476   3.402  0.0794 -0.4938  0.1957
   69MOL0     N 9401   7.431   0.527   3.515  0.4548 -0.4831  0.4341
   69MOL0     C 9402   7.521   0.621   3.474  0.1052  1.1009 -0.3760
   69MOL0     C 9403   7.559   0.690   3.585  0.3876 -0.4076  0.0496
   69MOL0     C 9404   7.658   0.797   3.581 -0.5083 -0.2517 -0.1708
   69MOL0     C 9405   7.734   0.805   3.715 -0.3158 -0.8551 -0.0422
   69MOL0     C 9406   7.801   0.670   3.750 -0.6220  0.4665 -0.0386
   69MOL0     C 9407   7.946   0.665   3.701  0.7654  0.6208  0.6059
   69MOL0     O 9408   8.032   0.751   3.774  0.5523  0.0653 -0.1848
   69MOL0     C 9409   8.145   0.788   3.700 -0.4444  0.4468  0.3221
   69MOL0     C 9410   8.217   0.701   3.612 -0.5703 -0.5409  0.1622
   69MOL0     C 9411   8.341   0.746   3.549  0.3485 -0.3813 -0.1591
   69MOL0     C 9412   8.425   0.644   3.475 -0.0181 -0.5867 -0.1762
   69MOL0     C 9413   8.364   0.886   3.554 -0.1913  0.4153 -0.1193
   69MOL0     C 9414   8.475   0.949   3.482 -0.0574 -1.5007  0.7668
   69MOL0     O 9415   8.595   0.919   3.530  0.2800  0.2616  0.8064
   69MOL0     C 9416   8.702   0.963   3.456  0.4164  0.4168 -0.0134
   69MOL0     C 9417   8.719   1.102   3.445  0.8463 -0.4848 -0.6328
   69MOL0     C 9418   8.838   1.160   3.378 -0.0280  0.5718 -0.9241
   69MOL0     C 9419   8.928   1.070   3.312 -0.2715  0.5123  0.1304
   69MOL0     O 9420   9.033   1.115   3.237 -0.3230 -0.3451 -0.4194
   69MOL0     C 9421   8.989   1.147   3.108  0.3538 -0.4210  1.8908
   69MOL0     C 9422   9.110   1.139   3.009 -0.0388  0.3958 -0.0159
   69MOL0     C 9423   9.217   1.241   3.044  0.3218  0.3142  0.5843
   69MOL0     C 9424   9.325   1.195   3.144 -0.0170  0.9820 -0.8042
   69MOL0     C 9425   9.440   1.292   3.157  0.2595  0.6151 -0.4854
   69MOL0     C 9426   9.571   1.234   3.098  0.5357  0.8464  0.9704
   69MOL0     C 9427   9.681   1.341   3.116  0.0763  0.8338 -0.8471
   69MOL0     C 9428   9.809   1.294   3.061 -1.0096  0.0422  0.2436
   69MOL0    Cl 9429   9.957   1.392   3.104  0.6516  0.1011 -0.5154
   69MOL0     C 9430   8.910   0.935   3.335 -0.1472  1.0494  0.9695
   69MOL0     C 9431   8.799   0.883   3.405 -0.2412  0.7078 -0.4107
   69MOL0     O 9432   8.455   1.023   3.386 -0.4700  0.2884 -0.3339
   69MOL0     C 9433   8.286   0.975   3.624 -0.3542  0.5433  0.4583
   69MOL0     C 9434   8.186   0.924   3.709 -0.0248 -1.2821  0.4561
   69MOL0     N 9435   7.479   0.633   3.684  0.2216  0.1897  0.1438
   69MOL0     N 9436   7.412   0.535   3.645  0.6202  0.9216  0.4804
   69MOL0     C 9437   6.440   0.941   3.288 -0.6010 -0.4222  0.3753
   69MOL0     C 9438   6.307   0.971   3.316 -0.0204 -0.3409 -0.2892
   69MOL0     C 9439   5.848   0.866   3.379  1.2712 -0.1293  0.5800
   69MOL0     C 9440   5.820   0.985   3.301  0.8754 -0.3344 -0.6655
   69MOL0     C 9441   5.684   1.034   3.289 -0.4266 -0.5173 -0.7693
   69MOL0     C 9442   5.570   0.967   3.341  0.0523  0.6963  1.2863
   69MOL0     O 9443   5.438   0.993   3.312  0.4089  0.3657 -0.0446
   69MOL0     C 9444   5.405   1.077   3.195  0.0129  1.3101  0.1828
   69MOL0     C 9445   5.251   1.077   3.192 -0.1631  0.7249 -0.0039
   69MOL0     C 9446   5.194   0.939   3.156 -0.8190  0.2072 -0.3324
   69MOL0     C 9447   5.256   0.865   3.030 -0.0077 -0.0618  0.4362
   69MOL0     C 9448   5.270   0.959   2.911  1.0581 -0.5483 -0.3335
   69MOL0     C 9449   5.295   1.043   2.829 -0.8437 -0.3627  0.0874
   69MOL0     C 9450   5.594   0.841   3.409  0.5247  0.2364  0.8772
   69MOL0     C 9451   5.725   0.806   3.441 -0.3262  0.7495 -0.2560
   69MOL0     C 9452   5.735   0.709   3.557  0.2631 -0.0286  0.4026
   69MOL0     H 9453   6.174   0.665   3.255 -0.8889  1.6332 -2.5909
   69MOL0     H 9454   6.420   0.610   3.249 -4.2768 -1.1821  3.0468
   69MOL0     H 9455   6.748   0.749   3.424  3.0570 -0.0027 -1.4401
   69MOL0     H 9456   6.669   0.893   3.428  0.5595 -1.1545  1.6200
   69MOL0     H 9457   6.791   0.985   3.238 -0.6364 -0.3107  1.4362
   69MOL0     H 9458   6.895   0.919   3.363  1.5390 -2.7340  0.4815
   69MOL0     H 9459   6.852   0.797   3.082 -1.9192  2.5530  0.3684
   69MOL0     H 9460   6.990   0.875   3.160 -2.5597  2.3374 -1.6463
   69MOL0     H 9461   6.990   0.706   3.331 -3.5941 -2.8328  2.2607
   69MOL0     H 9462   6.887   0.608   3.226 -1.6560 -0.4767 -3.2207
   69MOL0     H 9463   7.154   0.706   3.119  0.7206 -0.4298  1.0490
   69MOL0     H 9464   7.046   0.575   3.048  2.5985 -1.4900 -0.9955
   69MOL0     H 9465   7.112   0.427   3.228 -1.3135 -0.1850 -2.6992
   69MOL0     H 9466   7.251   0.485   3.142  1.5016 -1.5939  1.6415
   69MOL0     H 9467   7.160   0.606   3.412  0.9509  0.5230  1.8450
   69MOL0     H 9468   7.291   0.671   3.320 -0.0460 -0.8673 -2.7005
   69MOL0     H 9469   7.285   0.389   3.437  0.5937  0.1446  2.8411
   69MOL0     H 9470   7.407   0.441   3.322  0.3812  1.1302 -0.3052
   69MOL0     H 9471   7.555   0.639   3.372 -0.5385  1.6214 -0.5062
   69MOL0     H 9472   7.585   0.877   3.569 -4.4747 -3.0561  2.3434
   69MOL0     H 9473   7.726   0.778   3.498  1.6655  1.3548  1.1568
   69MOL0     H 9474   7.812   0.881   3.710 -0.8846 -0.1373  1.3625
   69MOL0     H 9475   7.676   0.844   3.800  1.5738  1.9342  0.1029
   69MOL0     H 9476   7.800   0.674   3.859  0.8312  0.0646  0.0145
   69MOL0     H 9477   7.745   0.584   3.711  0.7934 -1.3157  1.6390
   69MOL0     H 9478   7.985   0.564   3.720  0.4496  0.9049  3.1188
   69MOL0     H 9479   7.944   0.685   3.593  1.7499  0.7874  0.6111
   69MOL0     H 9480   8.199   0.596   3.596 -2.9417  0.1443 -2.4602
   69MOL0     H 9481   8.520   0.646   3.530 -0.4637 -0.4943  0.5967
   69MOL0     H 9482   8.427   0.655   3.366 -2.9922 -0.8268 -0.3461
   69MOL0     H 9483   8.392   0.541   3.491  1.0410 -0.8932  0.1518
   69MOL0     H 9484   8.651   1.175   3.488  0.3408  0.1201 -2.3776
   69MOL0     H 9485   8.871   1.263   3.372  0.7867  0.3403 -0.4920
   69MOL0     H 9486   8.919   1.074   3.067  2.2258  0.1364 -2.8705
   69MOL0     H 9487   8.946   1.246   3.090  0.3947 -0.8155 -0.7505
   69MOL0     H 9488   9.153   1.039   3.011  2.2651  1.3419  0.7529
   69MOL0     H 9489   9.081   1.154   2.905 -1.4757  2.0370  0.5519
   69MOL0     H 9490   9.160   1.319   3.096  1.3567 -0.5683  3.2559
   69MOL0     H 9491   9.281   1.267   2.960  1.8742  0.1732  1.6810
   69MOL0     H 9492   9.361   1.097   3.113  0.0207  1.2387 -1.5818
   69MOL0     H 9493   9.282   1.179   3.244  0.6025 -0.4148 -0.7362
   69MOL0     H 9494   9.412   1.388   3.112 -0.7819  0.0002 -1.2310
   69MOL0     H 9495   9.452   1.304   3.265 -0.0893 -1.1909 -0.2074
   69MOL0     H 9496   9.550   1.211   2.993 -2.5967 -2.2024  2.0919
   69MOL0     H 9497   9.590   1.137   3.145 -1.7144  0.1446  0.5318
   69MOL0     H 9498   9.676   1.359   3.223  0.2148 -0.2103 -0.6476
   69MOL0     H 9499   9.667   1.437   3.066  0.9692  0.7456 -1.2885
   69MOL0     H 9500   9.809   1.273   2.953  0.5293 -4.1378  0.8878
   69MOL0     H 9501   9.834   1.195   3.100 -1.1929 -0.7763 -1.6055
   69MOL0     H 9502   8.986   0.869   3.295 -2.8787 -0.3248 -2.6194
   69MOL0     H 9503   8.790   0.778   3.431 -1.8491  0.2997 -2.3317
   69MOL0     H 9504   8.309   1.080   3.608 -1.6899  0.8231  0.2462
   69MOL0     H 9505   8.132   1.002   3.763  2.0328  1.2784 -0.9024
   69MOL0     H 9506   6.505   1.027   3.283 -2.3454  1.2149  3.3905
   69MOL0     H 9507   6.272   1.071   3.339 -0.7560 -0.8559  0.9936
   69MOL0     H 9508   5.898   1.040   3.249  2.5731 -1.5495  0.4881
   69MOL0     H 9509   5.679   1.129   3.236  2.3313  1.1387  1.6459
   69MOL0     H 9510   5.435   1.182   3.188  2.0541  0.6785 -1.3919
   69MOL0     H 9511   5.439   1.038   3.098 -5.2605  0.5834 -1.7348
   69MOL0     H 9512   5.209   1.146   3.117 -2.6413 -1.8045 -1.1315
   69MOL0     H 9513   5.217   1.114   3.289  4.5394 -1.4851  2.7885
   69MOL0     H 9514   5.223   0.871   3.236  1.6427 -0.6039 -1.7858
   69MOL0     H 9515   5.085   0.945   3.152 -0.7053  2.8963 -1.6192
   69MOL0     H 9516   5.191   0.782   3.001 -4.2724  2.1661  2.6877
   69MOL0     H 9517   5.349   0.813   3.054 -1.0253 -1.3126  1.7936
   69MOL0     H 9518   5.324   1.107   2.748  0.3734 -1.7339 -0.6146
   69MOL0     H 9519   5.503   0.792   3.444 -0.4613  0.0757 -1.7217
   69MOL0     H 9520   5.818   0.751   3.615 -0.6080  0.6851  1.1797
   69MOL0     H 9521   5.650   0.710   3.625 -1.1408  0.1307 -1.2851
   69MOL0     H 9522   5.757   0.610   3.518 -0.1240  0.3051 -0.6905
   70MOL0     O 9523   8.321   7.284   0.684  0.1432  0.5725 -0.2901
   70MOL0     C 9524   8.419   7.273   0.610  0.0634  0.1209 -1.0117
   70MOL0     O 9525   8.545   7.259   0.663 -1.4062  0.0154 -0.2597
   70MOL0     C 9526   8.568   7.241   0.801  0.0047 -0.7989  0.1396
   70MOL0     C 9527   8.685   7.297   0.834  0.5344  0.0339  0.2360
   70MOL0     C 9528   8.725   7.295   0.975  0.5502 -0.0692 -0.3708
   70MOL0     C 9529   8.644   7.243   1.073  0.2679 -0.5145 -0.4972
   70MOL0     O 9530   8.675   7.253   1.209  0.2812 -0.0480 -0.5889
   70MOL0     C 9531   8.748   7.371   1.263 -0.2817  0.1095 -1.4635
   70MOL0     C 9532   8.669   7.491   1.220  0.2561  0.1937  0.1953
   70MOL0     C 9533   8.733   7.608   1.272 -0.2173 -0.7037 -0.2183
   70MOL0     C 9534   8.729   7.630   1.422 -0.7808 -0.7840  0.6396
   70MOL0     C 9535   8.824   7.743   1.468 -0.1884  1.1029  0.6794
   70MOL0     C 9536   8.780   7.887   1.428  0.0505  0.0305 -0.1999
   70MOL0     C 9537   8.872   8.003   1.479 -0.4125 -0.5188  0.4129
   70MOL0     C 9538   8.847   8.087   1.603  0.5653 -0.1147 -0.9510
   70MOL0     N 9539   8.761   8.205   1.581 -0.1805  0.7783 -0.3782
   70MOL0     C 9540   8.636   8.185   1.564 -0.0746  0.5578 -0.5846
   70MOL0     C 9541   8.594   8.300   1.528 -0.0299 -0.6739  0.2908
   70MOL0     C 9542   8.453   8.338   1.483 -0.7532 -0.3563 -0.4995
   70MOL0     C 9543   8.391   8.275   1.357  0.1181  0.3481 -0.3265
   70MOL0     C 9544   8.407   8.126   1.351 -0.4932 -0.3462 -1.1718
   70MOL0     C 9545   8.316   8.066   1.243 -0.4761  0.2689 -0.8723
   70MOL0     O 9546   8.342   7.924   1.236 -0.2579 -0.3242  0.5579
   70MOL0     C 9547   8.291   7.843   1.343 -0.7004 -0.6440  0.1941
   70MOL0     C 9548   8.371   7.802   1.448  0.8566  1.2118  0.5424
   70MOL0     C 9549   8.331   7.700   1.541  0.9690  0.0265  0.3283
   70MOL0     C 9550   8.439   7.660   1.650  0.6606  0.6205 -1.0410
   70MOL0     C 9551   8.194   7.641   1.533  0.1931 -0.1172  0.1023
   70MOL0     C 9552   8.141   7.549   1.635 -0.2544 -0.4748 -0.5847
   70MOL0     O 9553   8.028   7.478   1.608 -0.5117 -0.4779  0.3899
   70MOL0     C 9554   7.981   7.397   1.708 -0.9901 -0.1823  0.0349
   70MOL0     C 9555   7.999   7.253   1.714 -1.1900 -0.3479  0.9576
   70MOL0     C 9556   7.943   7.179   1.812  0.9291 -0.1447  0.4431
   70MOL0     C 9557   7.863   7.237   1.915 -1.2611 -0.2737 -0.3799
   70MOL0     O 9558   7.828   7.156   2.023  0.2246 -0.1697  0.7457
   70MOL0     C 9559   7.822   7.203   2.156 -0.5677  0.7692 -0.5077
   70MOL0     C 9560   7.960   7.177   2.222  1.5895 -0.1035 -0.6539
   70MOL0     C 9561   7.940   7.160   2.368  0.0031 -0.5256 -0.2947
   70MOL0     C 9562   8.050   7.199   2.465  0.9944  0.7687 -0.3496
   70MOL0     C 9563   8.035   7.134   2.606  0.0810 -0.0371  0.4279
   70MOL0     C 9564   7.903   7.179   2.673 -0.1771 -0.0625  0.9639
   70MOL0     C 9565   7.853   7.096   2.788  0.2549 -0.4259  0.4246
   70MOL0     C 9566   7.752   7.176   2.878  0.4003 -0.5108 -0.3546
   70MOL0    Cl 9567   7.828   7.298   2.980 -0.0952 -0.0106  0.6251
   70MOL0     C 9568   7.840   7.377   1.905 -0.7726 -0.3529  0.0327
   70MOL0     C 9569   7.899   7.455   1.806  0.3366  0.5575 -0.0766
   70MOL0     O 9570   8.193   7.559   1.752  0.4526 -0.5061 -0.1146
   70MOL0     C 9571   8.123   7.698   1.425  0.4253  0.1563 -0.5392
   70MOL0     C 9572   8.166   7.790   1.334 -0.2538  1.0319  0.2030
   70MOL0     N 9573   8.696   8.400   1.522  0.4887  0.1020  0.0895
   70MOL0     N 9574   8.797   8.341   1.572  0.3412  0.1123 -0.4294
   70MOL0     C 9575   8.516   7.191   1.037  0.1360  0.8748 -0.1337
   70MOL0     C 9576   8.482   7.190   0.902 -0.7188 -0.5358  0.9548
   70MOL0     C 9577   8.392   7.291   0.467 -0.1457 -1.0307 -0.2496
   70MOL0     C 9578   8.258   7.293   0.417 -0.1403  0.6893 -0.5591
   70MOL0     C 9579   8.230   7.298   0.279 -0.3964  0.2009 -0.0267
   70MOL0     C 9580   8.333   7.301   0.183 -0.6245 -0.0609 -0.3703
   70MOL0     O 9581   8.314   7.309   0.042  0.2364  0.4374 -0.4433
   70MOL0     C 9582   8.196   7.257  -0.013 -0.2741 -1.1093 -0.1024
   70MOL0     C 9583   8.200   7.242  -0.162 -0.0401 -0.8088 -0.0327
   70MOL0     C 9584   8.263   7.350  -0.241 -0.0064 -0.2590 -0.4422
   70MOL0     C 9585   8.261   7.326  -0.389  0.3836 -1.3809  0.8905
   70MOL0     C 9586   8.149   7.403  -0.452  0.0644 -0.1573  0.4121
   70MOL0     C 9587   8.047   7.458  -0.495 -0.7830 -0.0231 -0.1499
   70MOL0     C 9588   8.470   7.296   0.237  0.2043  0.3050 -0.0879
   70MOL0     C 9589   8.502   7.305   0.378  1.1068  0.4484  1.0313
   70MOL0     C 9590   8.638   7.341   0.413 -0.8396 -0.2924  0.9322
   70MOL0     H 9591   8.749   7.356   0.769  2.5720 -0.8581  1.3592
   70MOL0     H 9592   8.815   7.350   1.002 -0.3709  1.1197  0.3829
   70MOL0     H 9593   8.851   7.376   1.225 -0.5163 -0.2760 -2.1785
   70MOL0     H 9594   8.746   7.346   1.370  0.6043 -2.9087 -2.0465
   70MOL0     H 9595   8.658   7.514   1.113  1.3031  1.0006  0.2439
   70MOL0     H 9596   8.568   7.491   1.260  0.2312 -0.0141  0.1347
   70MOL0     H 9597   8.835   7.594   1.234  0.5762 -3.4122  2.4944
   70MOL0     H 9598   8.683   7.697   1.233 -0.8476  0.6020  3.2629
   70MOL0     H 9599   8.625   7.663   1.433 -0.9950  0.2204 -3.1030
   70MOL0     H 9600   8.753   7.544   1.486  2.2346  0.3487  1.2293
   70MOL0     H 9601   8.923   7.722   1.426 -1.0968 -0.8984 -0.6067
   70MOL0     H 9602   8.841   7.734   1.575  3.8046 -0.9239  0.0794
   70MOL0     H 9603   8.756   7.901   1.322  1.0945 -2.2148 -0.7959
   70MOL0     H 9604   8.690   7.901   1.489 -1.4816 -0.3679 -2.2550
   70MOL0     H 9605   8.873   8.077   1.398 -0.8717 -1.0922 -0.1278
   70MOL0     H 9606   8.972   7.960   1.471  0.1468  0.7256  0.3710
   70MOL0     H 9607   8.805   8.029   1.685  0.8569 -0.0445 -0.7476
   70MOL0     H 9608   8.946   8.125   1.631  0.1160 -0.2904  1.0170
   70MOL0     H 9609   8.581   8.092   1.555 -0.3257  0.6227  0.1808
   70MOL0     H 9610   8.453   8.446   1.468  1.3027 -0.1066  0.8145
   70MOL0     H 9611   8.393   8.309   1.569  1.8964 -0.8613  1.3287
   70MOL0     H 9612   8.282   8.286   1.360 -0.2381 -1.0124 -3.6947
   70MOL0     H 9613   8.421   8.320   1.262  0.2347  3.0979  0.9291
   70MOL0     H 9614   8.509   8.102   1.319 -0.6963 -0.9655 -1.3875
   70MOL0     H 9615   8.395   8.081   1.450  2.5724 -0.3535 -0.7073
   70MOL0     H 9616   8.211   8.079   1.273 -0.8434 -0.2091 -1.8658
   70MOL0     H 9617   8.340   8.112   1.147 -1.8400  0.6455 -1.0520
   70MOL0     H 9618   8.474   7.836   1.454  1.0303  0.9833 -0.8563
   70MOL0     H 9619   8.531   7.716   1.629  1.3389  0.1125  0.4487
   70MOL0     H 9620   8.458   7.552   1.648  0.8888  0.6110  0.5449
   70MOL0     H 9621   8.396   7.687   1.746  0.0789 -0.4047 -1.0023
   70MOL0     H 9622   8.060   7.206   1.638 -2.1196 -1.4085  0.8436
   70MOL0     H 9623   7.964   7.072   1.810 -0.7778 -0.5127 -0.1716
   70MOL0     H 9624   7.788   7.305   2.175  0.9970  1.6904 -2.3102
   70MOL0     H 9625   7.744   7.143   2.203 -0.3441 -0.0458 -1.1435
   70MOL0     H 9626   8.000   7.085   2.179  1.0759 -0.2182 -0.8956
   70MOL0     H 9627   8.037   7.252   2.200  1.0568  0.6914  0.1528
   70MOL0     H 9628   7.932   7.051   2.382 -2.0605 -1.2520 -5.1168
   70MOL0     H 9629   7.848   7.214   2.394  0.0621  0.1164 -1.3896
   70MOL0     H 9630   8.066   7.307   2.467  0.1255  0.9929 -2.7414
   70MOL0     H 9631   8.135   7.147   2.422  0.3175 -2.8004  2.1933
   70MOL0     H 9632   8.037   7.025   2.600 -0.4729 -0.1287  1.5055
   70MOL0     H 9633   8.128   7.163   2.658 -0.2652  1.1218  0.4296
   70MOL0     H 9634   7.827   7.175   2.594  0.8872 -1.5941 -0.0347
   70MOL0     H 9635   7.913   7.283   2.705 -1.1082  0.6592 -0.9535
   70MOL0     H 9636   7.939   7.060   2.846 -0.5283 -1.7281  0.8038
   70MOL0     H 9637   7.807   7.010   2.740  1.4324 -0.1935 -1.1741
   70MOL0     H 9638   7.705   7.098   2.938  2.0145 -0.9680  0.3658
   70MOL0     H 9639   7.665   7.213   2.822 -0.1699 -1.3954 -0.0806
   70MOL0     H 9640   7.784   7.437   1.977  2.1907  0.9221  1.4370
   70MOL0     H 9641   7.900   7.563   1.800  0.1192  0.7399  2.1881
   70MOL0     H 9642   8.020   7.663   1.416 -0.0947  0.0563  3.6375
   70MOL0     H 9643   8.110   7.817   1.244  1.6698  2.2277 -0.7049
   70MOL0     H 9644   8.449   7.146   1.110  0.0524  1.3081  0.0631
   70MOL0     H 9645   8.380   7.166   0.877 -1.0808  1.6039  0.1693
   70MOL0     H 9646   8.171   7.299   0.482  0.8016  2.3121  0.6388
   70MOL0     H 9647   8.131   7.316   0.238  0.0273  2.2883 -0.2490
   70MOL0     H 9648   8.174   7.162   0.036  0.2080  1.2351  5.3124
   70MOL0     H 9649   8.118   7.328   0.015  1.9653  2.4566 -2.1021
   70MOL0     H 9650   8.100   7.214  -0.195 -0.6863  1.1490  0.1086
   70MOL0     H 9651   8.262   7.152  -0.169  1.8791  0.3893  0.6472
   70MOL0     H 9652   8.200   7.434  -0.210 -0.5506 -0.8258  0.0203
   70MOL0     H 9653   8.367   7.365  -0.212  0.4642  2.0973 -2.9399
   70MOL0     H 9654   8.253   7.217  -0.399  0.0893 -1.2843 -0.0307
   70MOL0     H 9655   8.357   7.360  -0.430 -1.8631  1.2266 -2.8529
   70MOL0     H 9656   7.949   7.499  -0.503 -0.8214  0.3642  1.7298
   70MOL0     H 9657   8.547   7.286   0.161 -0.2671  0.5488 -0.6031
   70MOL0     H 9658   8.692   7.264   0.469 -2.5929 -1.4540  1.1139
   70MOL0     H 9659   8.697   7.386   0.333 -1.4037 -0.8050  0.2079
   70MOL0     H 9660   8.634   7.431   0.475  0.7743  0.0817  0.5228
   71MOL0     O 9661  10.361   3.078   0.078 -0.0494  0.2317 -0.4939
   71MOL0     C 9662  10.484   3.064   0.050 -0.9932  0.6986 -0.6847
   71MOL0     O 9663  10.538   3.024  -0.064  0.3849  0.6481 -0.1410
   71MOL0     C 9664  10.482   3.049  -0.181 -0.3480 -0.1747  0.0422
   71MOL0     C 9665  10.381   3.145  -0.207  0.2559  0.2688 -0.5514
   71MOL0     C 9666  10.313   3.154  -0.331  0.0337  0.4361  0.5283
   71MOL0     C 9667  10.359   3.073  -0.436 -0.3936 -0.3863  0.1756
   71MOL0     O 9668  10.308   3.084  -0.566 -0.1375 -0.0736 -0.3248
   71MOL0     C 9669  10.248   3.210  -0.606 -0.1747  0.1831  1.0354
   71MOL0     C 9670  10.340   3.334  -0.601 -0.7546 -0.2779 -0.5398
   71MOL0     C 9671  10.481   3.306  -0.650  0.0948  0.3093 -1.3569
   71MOL0     C 9672  10.494   3.269  -0.797  0.1937  0.3068  0.0251
   71MOL0     C 9673  10.533   3.127  -0.819 -0.1703  0.7171  0.6359
   71MOL0     C 9674  10.682   3.099  -0.776 -0.3583  0.4189 -0.3552
   71MOL0     C 9675  10.749   2.982  -0.859  0.5038 -0.0880 -0.6064
   71MOL0     C 9676  10.877   2.944  -0.787 -0.1101  0.1377 -0.4159
   71MOL0     N 9677  10.955   2.841  -0.852 -0.2380  0.2485  0.1109
   71MOL0     C 9678  10.982   2.718  -0.792  0.4385 -0.2358 -0.6503
   71MOL0     C 9679  11.096   2.675  -0.853  0.6109 -0.4910 -0.0592
   71MOL0     C 9680  11.164   2.550  -0.823  0.4177 -0.5777 -0.5089
   71MOL0     C 9681  11.201   2.545  -0.675 -0.2024  0.3256 -1.5005
   71MOL0     C 9682  11.281   2.415  -0.643  0.4756 -0.2347 -0.5646
   71MOL0     C 9683  11.184   2.304  -0.616  0.2487  0.8765 -0.1910
   71MOL0     O 9684  11.255   2.180  -0.632  0.1477 -0.3196  0.3917
   71MOL0     C 9685  11.297   2.115  -0.512 -0.4429  0.0353  0.4898
   71MOL0     C 9686  11.346   1.992  -0.543  0.8601  0.0870 -0.7360
   71MOL0     C 9687  11.387   1.899  -0.440  0.2648 -0.4992  0.5380
   71MOL0     C 9688  11.426   1.766  -0.488 -1.2558 -0.2303 -0.4118
   71MOL0     C 9689  11.388   1.950  -0.312 -0.4674  0.6144  0.1053
   71MOL0     C 9690  11.439   1.855  -0.208  0.1916 -0.0814 -0.5922
   71MOL0     O 9691  11.382   1.879  -0.083 -0.4137  0.3082 -0.3814
   71MOL0     C 9692  11.419   1.790   0.016  0.6113 -0.6806  0.3687
   71MOL0     C 9693  11.350   1.678   0.055 -0.3151 -0.1516 -0.0987
   71MOL0     C 9694  11.380   1.604   0.169 -0.0961  1.6068  0.9749
   71MOL0     C 9695  11.475   1.644   0.260  0.3295 -0.1549  0.0184
   71MOL0     O 9696  11.504   1.585   0.380  0.5318  0.2088  0.1864
   71MOL0     C 9697  11.415   1.492   0.450 -0.6299  0.7034  0.0581
   71MOL0     C 9698  11.489   1.417   0.559  0.0702 -0.2625  0.3255
   71MOL0     C 9699  11.603   1.322   0.505 -0.2805  0.4048 -0.8189
   71MOL0     C 9700  11.752   1.368   0.537 -1.0296 -0.1700  0.3180
   71MOL0     C 9701  11.810   1.459   0.430 -0.0459 -0.5409 -0.0657
   71MOL0     C 9702  11.849   1.395   0.295  0.3635 -1.1714  0.2407
   71MOL0     C 9703  11.951   1.489   0.215 -0.0254  0.3590 -0.1093
   71MOL0     C 9704  11.899   1.629   0.178  0.2576  0.8119  0.3335
   71MOL0    Cl 9705  11.894   1.747   0.312 -0.3604 -0.0356  0.4763
   71MOL0     C 9706  11.545   1.758   0.224  0.2247  1.1151 -0.1547
   71MOL0     C 9707  11.525   1.820   0.101 -0.5049 -1.0182 -0.0835
   71MOL0     O 9708  11.526   1.773  -0.229 -0.9811  0.6103  0.0819
   71MOL0     C 9709  11.338   2.079  -0.280 -0.0777 -0.1387  0.1393
   71MOL0     C 9710  11.290   2.162  -0.382 -0.6250  0.1995 -0.4891
   71MOL0     N 9711  11.123   2.767  -0.956  0.0091  0.0189  0.0501
   71MOL0     N 9712  11.028   2.860  -0.965 -0.0026  0.4650  0.1823
   71MOL0     C 9713  10.469   2.984  -0.415 -0.5112 -0.9237  0.3112
   71MOL0     C 9714  10.527   2.968  -0.286  0.2172 -0.3978  0.3972
   71MOL0     C 9715  10.576   3.081   0.166  0.6179 -0.3614  0.6955
   71MOL0     C 9716  10.541   3.029   0.285 -0.3772  0.6233 -1.7152
   71MOL0     C 9717  10.626   3.042   0.404  0.6760 -0.0164  1.3861
   71MOL0     C 9718  10.756   3.089   0.390 -0.3758 -0.3288  0.2827
   71MOL0     O 9719  10.845   3.104   0.493  0.2910  0.3128 -0.2770
   71MOL0     C 9720  10.811   3.049   0.622 -0.3355 -0.5453 -1.0638
   71MOL0     C 9721  10.938   3.038   0.710  0.5470 -0.4910 -0.4968
   71MOL0     C 9722  10.921   2.974   0.853 -0.6780 -0.0794  0.6249
   71MOL0     C 9723  11.061   2.968   0.918  0.1379 -0.0480  0.0445
   71MOL0     C 9724  11.048   2.921   1.056  0.7093 -0.0909 -0.0140
   71MOL0     C 9725  11.025   2.880   1.169 -0.3264 -0.1104 -0.0185
   71MOL0     C 9726  10.798   3.141   0.266  0.2434  1.0559 -0.9780
   71MOL0     C 9727  10.705   3.143   0.154  0.1833  0.5297 -0.1608
   71MOL0     C 9728  10.767   3.178   0.025  0.2872 -0.1798 -0.0072
   71MOL0     H 9729  10.348   3.224  -0.140 -0.9428 -0.1317 -0.6517
   71MOL0     H 9730  10.229   3.221  -0.344  0.1440  0.3296 -0.8277
   71MOL0     H 9731  10.152   3.226  -0.557  0.2195 -0.6065  2.1092
   71MOL0     H 9732  10.219   3.193  -0.710  0.2057  1.3541  0.7262
   71MOL0     H 9733  10.296   3.419  -0.655 -0.3252  2.4915  3.0664
   71MOL0     H 9734  10.345   3.364  -0.496 -1.5898 -0.2132 -0.5090
   71MOL0     H 9735  10.535   3.401  -0.642 -0.8020  0.7015  0.4142
   71MOL0     H 9736  10.544   3.240  -0.588  2.2493  2.9860 -0.4878
   71MOL0     H 9737  10.395   3.284  -0.842 -0.4690 -1.9135  0.6140
   71MOL0     H 9738  10.571   3.329  -0.846 -1.8506  1.8693 -1.4682
   71MOL0     H 9739  10.534   3.109  -0.927 -0.3474 -0.6242  0.8389
   71MOL0     H 9740  10.464   3.055  -0.774 -1.8009  1.6451 -0.2956
   71MOL0     H 9741  10.733   3.194  -0.789 -0.9211  0.3721 -4.4593
   71MOL0     H 9742  10.681   3.082  -0.668 -1.2619  0.4552 -0.3529
   71MOL0     H 9743  10.781   3.020  -0.957  1.5680  2.1740  0.5296
   71MOL0     H 9744  10.693   2.890  -0.876 -0.3919 -0.2210  2.5499
   71MOL0     H 9745  10.944   3.029  -0.775  1.0403 -0.8774  0.5271
   71MOL0     H 9746  10.847   2.905  -0.690  0.3300 -3.1080 -1.4517
   71MOL0     H 9747  10.918   2.669  -0.719  1.2931 -1.1517 -0.4951
   71MOL0     H 9748  11.253   2.548  -0.886  0.9681  1.3180  0.1403
   71MOL0     H 9749  11.106   2.463  -0.856  0.0687 -0.9971  1.1266
   71MOL0     H 9750  11.265   2.633  -0.662 -0.9346  0.9016 -1.7148
   71MOL0     H 9751  11.108   2.558  -0.619 -0.1882 -0.6567 -1.2293
   71MOL0     H 9752  11.356   2.386  -0.718  3.1407 -2.2191  2.5894
   71MOL0     H 9753  11.337   2.437  -0.552  1.0486  2.2837 -1.4306
   71MOL0     H 9754  11.134   2.303  -0.519 -1.1177 -2.1459 -0.7913
   71MOL0     H 9755  11.111   2.294  -0.698 -0.6682  0.4454  0.6581
   71MOL0     H 9756  11.339   1.969  -0.649  0.8533 -0.4304 -0.6265
   71MOL0     H 9757  11.386   1.758  -0.589 -1.5926 -3.1510 -0.1257
   71MOL0     H 9758  11.378   1.690  -0.425 -1.2453 -0.8613 -1.1485
   71MOL0     H 9759  11.534   1.750  -0.495 -1.5475 -1.6838 -3.9707
   71MOL0     H 9760  11.263   1.642   0.001 -2.0734  0.3382  2.2514
   71MOL0     H 9761  11.323   1.517   0.200  0.6576  0.7459  0.0110
   71MOL0     H 9762  11.337   1.550   0.499  1.0864  1.7213  1.7121
   71MOL0     H 9763  11.365   1.419   0.386 -2.7482  0.2092  2.1584
   71MOL0     H 9764  11.519   1.487   0.638  1.9453 -1.4062  0.6771
   71MOL0     H 9765  11.421   1.346   0.606 -0.1329 -3.0424 -3.7824
   71MOL0     H 9766  11.580   1.312   0.398  1.9876 -1.0667 -1.2392
   71MOL0     H 9767  11.595   1.221   0.545 -0.7570  0.0943 -1.6829
   71MOL0     H 9768  11.816   1.282   0.560 -1.6274 -0.5465  0.5852
   71MOL0     H 9769  11.741   1.436   0.621 -0.5721 -0.5184  0.6640
   71MOL0     H 9770  11.746   1.542   0.399 -1.9404 -2.3171 -1.2255
   71MOL0     H 9771  11.903   1.501   0.468 -0.1607 -1.0749  0.8268
   71MOL0     H 9772  11.769   1.368   0.226  1.4084 -0.0354 -1.5211
   71MOL0     H 9773  11.907   1.304   0.313  3.7089  0.5113 -1.0683
   71MOL0     H 9774  11.984   1.436   0.125 -0.9572  0.3224 -0.4459
   71MOL0     H 9775  12.046   1.505   0.266 -0.1055  2.5208 -0.5580
   71MOL0     H 9776  11.797   1.612   0.141  0.8746 -2.8795 -0.0955
   71MOL0     H 9777  11.971   1.674   0.110  3.3366 -1.6181  1.7516
   71MOL0     H 9778  11.624   1.791   0.292  2.1491 -0.9224 -1.2611
   71MOL0     H 9779  11.579   1.908   0.068  0.5579 -1.0778  1.4169
   71MOL0     H 9780  11.352   2.117  -0.180  1.8730  2.6444 -1.0669
   71MOL0     H 9781  11.234   2.254  -0.362  0.3281  1.3055 -2.5493
   71MOL0     H 9782  10.515   2.922  -0.491  3.0640  0.8015  0.8331
   71MOL0     H 9783  10.606   2.897  -0.263 -1.5814 -2.2929  1.0319
   71MOL0     H 9784  10.437   3.001   0.296 -1.0079  3.5572  1.6762
   71MOL0     H 9785  10.589   3.015   0.503 -0.5645 -1.8044  0.4833
   71MOL0     H 9786  10.736   3.116   0.665 -0.1544  1.1524 -3.2086
   71MOL0     H 9787  10.757   2.953   0.615 -0.3982 -0.6399  0.5184
   71MOL0     H 9788  10.955   3.145   0.727 -1.3981  0.1509 -2.1401
   71MOL0     H 9789  11.027   3.003   0.657  0.9857  0.3738 -0.3411
   71MOL0     H 9790  10.857   3.044   0.907 -1.1743  1.9296 -2.3036
   71MOL0     H 9791  10.888   2.870   0.863  1.0108 -0.7966 -0.6901
   71MOL0     H 9792  11.087   3.075   0.919 -2.0302  0.6229 -2.5472
   71MOL0     H 9793  11.140   2.914   0.864  2.7333  0.6049  2.9287
   71MOL0     H 9794  10.997   2.838   1.264  0.8851 -3.6401 -1.0571
   71MOL0     H 9795  10.886   3.205   0.259  1.4179 -0.5988 -2.0256
   71MOL0     H 9796  10.852   3.245   0.043 -0.1914  0.1702  0.9852
   71MOL0     H 9797  10.800   3.092  -0.034  0.4519  1.3827 -2.3379
   71MOL0     H 9798  10.701   3.230  -0.045  0.3996 -1.8154 -1.4061
   72MOL0     O 9799   0.451   5.787   6.340 -0.7182 -0.0653 -0.3756
   72MOL0     C 9800   0.419   5.879   6.417 -0.4910 -0.3068  1.5667
   72MOL0     O 9801   0.445   6.012   6.384 -0.3570  1.0079  0.0228
   72MOL0     C 9802   0.499   6.026   6.260 -0.4483  0.2624  0.7518
   72MOL0     C 9803   0.642   6.032   6.223  0.6214 -0.9821  0.4009
   72MOL0     C 9804   0.684   6.061   6.095  0.2577 -0.0092 -0.0861
   72MOL0     C 9805   0.596   6.085   5.987  0.4990  0.1311  0.3015
   72MOL0     O 9806   0.654   6.119   5.860 -0.5953  0.0324 -0.6794
   72MOL0     C 9807   0.577   6.121   5.745 -0.7445  0.1222 -0.2269
   72MOL0     C 9808   0.490   6.249   5.756  0.2595 -0.4092  0.1165
   72MOL0     C 9809   0.438   6.286   5.613  0.4984  0.9555 -0.4691
   72MOL0     C 9810   0.375   6.167   5.534 -0.4947 -0.8665  0.7855
   72MOL0     C 9811   0.276   6.094   5.610  0.2423 -0.0594  0.2140
   72MOL0     C 9812   0.248   5.951   5.571  0.5654 -0.2323 -0.1678
   72MOL0     C 9813   0.140   5.887   5.659 -0.1897  0.4928 -0.1456
   72MOL0     C 9814   0.100   5.747   5.617 -0.2452  0.6709  0.1582
   72MOL0     N 9815   0.028   5.742   5.482  0.2646  0.0796 -0.0962
   72MOL0     C 9816   0.077   5.722   5.354  0.5930 -0.1843  0.4896
   72MOL0     C 9817  -0.037   5.725   5.282 -0.2488  0.5737 -0.1568
   72MOL0     C 9818  -0.040   5.689   5.134 -0.0363 -1.0046 -0.1480
   72MOL0     C 9819  -0.004   5.804   5.037 -0.3609  0.0317  0.3769
   72MOL0     C 9820   0.150   5.818   5.018  0.1064 -0.0107  0.4343
   72MOL0     C 9821   0.167   5.917   4.906  0.5584  0.4208 -0.3076
   72MOL0     O 9822   0.126   5.861   4.782 -0.4081  0.5646  0.7455
   72MOL0     C 9823   0.170   5.925   4.667  0.0824  0.4564  0.0593
   72MOL0     C 9824   0.229   6.058   4.659  0.6173  0.0586 -0.6940
   72MOL0     C 9825   0.254   6.114   4.536  0.4431 -0.0524  1.0208
   72MOL0     C 9826   0.305   6.254   4.519 -0.7525  0.1559 -0.8176
   72MOL0     C 9827   0.230   6.033   4.420 -0.6239  0.0994  0.1784
   72MOL0     C 9828   0.238   6.091   4.284  0.0897 -1.2694 -0.3741
   72MOL0     O 9829   0.314   6.023   4.193  0.2496 -0.2796 -0.5263
   72MOL0     C 9830   0.361   6.077   4.073 -0.7176 -0.3720 -0.0685
   72MOL0     C 9831   0.382   5.996   3.968  0.5580  0.0430 -0.2885
   72MOL0     C 9832   0.420   6.051   3.843  0.7713  0.2651 -0.3528
   72MOL0     C 9833   0.431   6.188   3.819 -0.5825  0.7277  0.6367
   72MOL0     O 9834   0.463   6.223   3.689 -0.4133  0.1964  0.7891
   72MOL0     C 9835   0.543   6.340   3.655  0.2840 -0.4467  0.6222
   72MOL0     C 9836   0.512   6.369   3.505 -0.0992  0.5565 -0.0308
   72MOL0     C 9837   0.546   6.519   3.483  0.6919  0.3220 -0.4112
   72MOL0     C 9838   0.545   6.560   3.340  0.0453  0.1523  0.4917
   72MOL0     C 9839   0.617   6.699   3.314 -0.3233  0.2080 -0.3558
   72MOL0     C 9840   0.637   6.735   3.161  0.6734  0.7079  0.1753
   72MOL0     C 9841   0.511   6.778   3.091  0.0674  0.0299  0.6824
   72MOL0     C 9842   0.532   6.846   2.952 -0.2476  0.5382  0.0253
   72MOL0    Cl 9843   0.618   7.004   2.981  0.2296  0.0758 -0.0463
   72MOL0     C 9844   0.412   6.276   3.927  0.3820 -0.2569  0.0526
   72MOL0     C 9845   0.385   6.218   4.054  0.4980 -0.1686  0.6237
   72MOL0     O 9846   0.169   6.189   4.261 -0.7943  0.2185 -0.2948
   72MOL0     C 9847   0.177   5.900   4.432  0.3585  0.0923 -0.6162
   72MOL0     C 9848   0.144   5.847   4.554  0.4178 -0.1077  0.1305
   72MOL0     N 9849  -0.145   5.737   5.359  1.4885  0.4976  0.0691
   72MOL0     N 9850  -0.111   5.759   5.484 -0.4090  0.7921 -0.2604
   72MOL0     C 9851   0.460   6.064   6.016  0.2480  0.5685 -0.9754
   72MOL0     C 9852   0.413   6.043   6.146  0.0343 -0.7826  0.6123
   72MOL0     C 9853   0.354   5.849   6.545  0.5413 -0.6570 -0.7987
   72MOL0     C 9854   0.310   5.953   6.638 -0.0044  0.2263  0.6300
   72MOL0     C 9855   0.252   5.935   6.760  0.1085  0.6274 -0.0538
   72MOL0     C 9856   0.219   5.806   6.801  0.2841  0.0555  0.4649
   72MOL0     O 9857   0.147   5.762   6.917 -1.1362  0.1386  0.5370
   72MOL0     C 9858   0.129   5.858   7.021  0.8089  0.1104 -0.4377
   72MOL0     C 9859   0.001   5.808   7.100 -0.8736  0.2306  0.1885
   72MOL0     C 9860  -0.079   5.919   7.163  0.1071  0.1584 -0.2907
   72MOL0     C 9861  -0.015   6.031   7.244  0.1652 -0.6042  0.6876
   72MOL0     C 9862   0.076   5.997   7.346  0.6453  1.2705 -0.1205
   72MOL0     C 9863   0.164   5.962   7.425 -0.3971 -0.3072 -0.6242
   72MOL0     C 9864   0.233   5.706   6.705 -0.5308  0.4726  0.1281
   72MOL0     C 9865   0.307   5.719   6.586 -0.7924  0.3086  0.3861
   72MOL0     C 9866   0.329   5.594   6.507 -0.5725  0.4413  0.1767
   72MOL0     H 9867   0.713   6.006   6.301  0.4338  1.1596  1.3372
   72MOL0     H 9868   0.791   6.072   6.077  0.2161 -0.3863 -0.5895
   72MOL0     H 9869   0.526   6.024   5.741 -0.5262  0.0142 -0.4453
   72MOL0     H 9870   0.648   6.127   5.662  0.9078 -2.0815  0.9043
   72MOL0     H 9871   0.402   6.245   5.821  1.2307  0.8109  1.5844
   72MOL0     H 9872   0.553   6.330   5.794  0.8167  0.0537 -1.7060
   72MOL0     H 9873   0.360   6.363   5.614  0.4950  0.9434  0.1712
   72MOL0     H 9874   0.525   6.326   5.561  0.3874 -0.0890 -1.5275
   72MOL0     H 9875   0.334   6.195   5.436 -2.5185  1.5788  2.2239
   72MOL0     H 9876   0.455   6.094   5.518 -0.0343 -0.1681 -0.2427
   72MOL0     H 9877   0.181   6.149   5.620  1.4821  1.8473  2.6081
   72MOL0     H 9878   0.311   6.076   5.712 -0.6541  3.4040  1.2733
   72MOL0     H 9879   0.213   5.945   5.467 -2.8323 -1.4150  0.9116
   72MOL0     H 9880   0.337   5.887   5.580 -0.2481 -1.8282 -2.5962
   72MOL0     H 9881   0.055   5.952   5.638  0.1660  0.8834 -0.3908
   72MOL0     H 9882   0.179   5.891   5.761  2.6732  2.5027 -1.2000
   72MOL0     H 9883   0.184   5.678   5.621 -1.1804 -0.5164  0.1009
   72MOL0     H 9884   0.017   5.714   5.681  1.8433  1.8656  3.7327
   72MOL0     H 9885   0.175   5.698   5.316 -0.5744  0.4319 -3.3535
   72MOL0     H 9886  -0.139   5.644   5.120 -0.7964  0.4920  0.1705
   72MOL0     H 9887   0.026   5.605   5.114 -1.0723 -1.2654 -2.9801
   72MOL0     H 9888  -0.057   5.782   4.944  1.7808  1.0787 -1.1595
   72MOL0     H 9889  -0.043   5.896   5.080  2.8875  2.0406 -0.6597
   72MOL0     H 9890   0.179   5.863   5.113 -1.8999 -1.2983  1.7310
   72MOL0     H 9891   0.188   5.716   5.005  1.4068  0.1807  2.3140
   72MOL0     H 9892   0.101   6.002   4.923  1.1596  0.5864  1.3969
   72MOL0     H 9893   0.274   5.942   4.909  1.1028 -1.0314 -3.2698
   72MOL0     H 9894   0.233   6.114   4.751  0.4089 -1.2192  0.1204
   72MOL0     H 9895   0.394   6.261   4.456 -1.0409  3.9726 -1.0007
   72MOL0     H 9896   0.326   6.286   4.621 -0.2550  2.6085 -1.6349
   72MOL0     H 9897   0.227   6.317   4.475 -2.9363 -2.1404 -0.4840
   72MOL0     H 9898   0.346   5.894   3.976 -4.5776  1.7095  1.2669
   72MOL0     H 9899   0.423   5.988   3.754  0.2465 -2.1099  1.2045
   72MOL0     H 9900   0.510   6.424   3.718  1.0883  1.1819 -1.0108
   72MOL0     H 9901   0.652   6.332   3.659  0.5125  2.2713  1.9416
   72MOL0     H 9902   0.573   6.306   3.440 -1.8263 -0.3987 -0.7760
   72MOL0     H 9903   0.407   6.351   3.479  0.0634 -3.7049  1.4543
   72MOL0     H 9904   0.646   6.524   3.527 -0.3590  0.5761  2.1318
   72MOL0     H 9905   0.464   6.580   3.524 -1.0095  0.5441 -3.7803
   72MOL0     H 9906   0.444   6.581   3.306 -0.1320 -0.6874  0.4979
   72MOL0     H 9907   0.587   6.492   3.266  1.3788  0.8220  0.5864
   72MOL0     H 9908   0.575   6.782   3.371  1.7432  1.2292 -0.2227
   72MOL0     H 9909   0.718   6.708   3.356 -0.0526  0.9394 -1.1338
   72MOL0     H 9910   0.676   6.655   3.099 -0.2631 -1.4833  2.2491
   72MOL0     H 9911   0.704   6.821   3.164  0.5078  0.9021 -1.3139
   72MOL0     H 9912   0.460   6.847   3.160 -1.5611 -0.0718 -0.3508
   72MOL0     H 9913   0.432   6.705   3.071 -0.7760  0.6878  1.4855
   72MOL0     H 9914   0.437   6.870   2.904  0.5493  1.3334 -1.2192
   72MOL0     H 9915   0.596   6.781   2.892 -1.6032 -0.4900 -0.3488
   72MOL0     H 9916   0.404   6.383   3.914  1.0469 -0.1662  0.3766
   72MOL0     H 9917   0.382   6.290   4.135  0.9250 -0.6566  1.0799
   72MOL0     H 9918   0.166   5.850   4.336  3.0329  0.8025 -1.3832
   72MOL0     H 9919   0.095   5.752   4.575  0.3740 -0.2243 -0.4826
   72MOL0     H 9920   0.379   6.067   5.945  0.7188  1.2410 -1.4974
   72MOL0     H 9921   0.305   6.034   6.158 -0.0215  0.2123  0.9236
   72MOL0     H 9922   0.351   6.053   6.625  1.1117 -0.0734  1.6535
   72MOL0     H 9923   0.216   6.020   6.816 -2.5992 -0.0414 -0.6200
   72MOL0     H 9924   0.219   5.856   7.083  0.8478  0.6778 -0.4699
   72MOL0     H 9925   0.108   5.955   6.974  0.0802  0.7354  1.0962
   72MOL0     H 9926   0.034   5.741   7.180  1.2458  2.1886  1.1038
   72MOL0     H 9927  -0.071   5.754   7.038 -0.5731 -2.2181  1.8417
   72MOL0     H 9928  -0.146   5.967   7.091 -0.6044 -0.1220  0.1739
   72MOL0     H 9929  -0.140   5.868   7.238 -2.9534  0.5390 -2.3470
   72MOL0     H 9930  -0.100   6.082   7.290  0.8131  1.8901 -0.6988
   72MOL0     H 9931   0.031   6.109   7.183 -2.6748  3.6312  3.3803
   72MOL0     H 9932   0.250   5.932   7.481  2.3049  2.0829 -3.0930
   72MOL0     H 9933   0.195   5.607   6.729  0.3623  0.5694  2.2147
   72MOL0     H 9934   0.435   5.575   6.489 -1.1398 -3.0982 -0.3046
   72MOL0     H 9935   0.283   5.505   6.552 -0.5999  0.6894  0.6457
   72MOL0     H 9936   0.274   5.597   6.412 -2.0789 -1.7795  0.8842
   73MOL0     O 9937  10.991   9.383   9.642 -0.1444 -0.1673 -0.2284
   73MOL0     C 9938  11.073   9.461   9.698  1.1161 -1.0764 -0.4286
   73MOL0     O 9939  11.039   9.584   9.758  0.4146  0.5771 -0.3859
   73MOL0     C 9940  10.919   9.607   9.794  0.6874 -0.9871 -0.0148
   73MOL0     C 9941  10.904   9.640   9.928 -0.4619 -0.5411 -0.4758
   73MOL0     C 9942  10.778   9.672   9.976 -0.4713  0.3461  0.0146
   73MOL0     C 9943  10.666   9.694   9.896  1.0506  0.4773 -0.7866
   73MOL0     O 9944  10.535   9.729   9.938 -0.3494 -0.0563 -0.5069
   73MOL0     C 9945  10.458   9.628   9.993  0.0295 -0.1686  0.4499
   73MOL0     C 9946  10.320   9.628   9.936  1.2012 -0.8267 -0.4912
   73MOL0     C 9947  10.315   9.574   9.795 -0.0848 -0.0042  0.2927
   73MOL0     C 9948  10.182   9.617   9.733 -0.0642  0.6743  1.0962
   73MOL0     C 9949  10.167   9.569   9.581  0.1431 -0.2420 -0.2216
   73MOL0     C 9950  10.273   9.631   9.490 -0.5712 -0.3231 -0.1391
   73MOL0     C 9951  10.249   9.597   9.340 -0.5642  0.9700  0.8956
   73MOL0     C 9952  10.348   9.687   9.256  0.3882 -0.0744  0.3596
   73MOL0     N 9953  10.484   9.652   9.298 -0.0832  0.9691 -0.2392
   73MOL0     C 9954  10.565   9.562   9.234 -0.5993  0.0884 -0.0976
   73MOL0     C 9955  10.693   9.598   9.290  0.1503 -0.5793 -0.2757
   73MOL0     C 9956  10.807   9.540   9.215 -0.5649  0.5462 -0.1462
   73MOL0     C 9957  10.901   9.461   9.303 -0.3895 -0.3448  0.2582
   73MOL0     C 9958  11.009   9.399   9.208 -0.4758 -0.3997  0.7625
   73MOL0     C 9959  11.145   9.375   9.283  0.8996 -0.3837 -0.7984
   73MOL0     O 9960  11.228   9.497   9.315  0.4164  0.3877  0.8190
   73MOL0     C 9961  11.340   9.514   9.238  0.1724 -0.1697 -0.8784
   73MOL0     C 9962  11.464   9.553   9.308  0.5868 -0.8974  0.2650
   73MOL0     C 9963  11.583   9.566   9.237  0.0596 -0.7422 -0.4208
   73MOL0     C 9964  11.696   9.625   9.316 -0.2234 -0.2069  0.2267
   73MOL0     C 9965  11.577   9.548   9.092  0.1361 -0.8071 -0.2513
   73MOL0     C 9966  11.697   9.572   9.006  0.2550 -0.7717  0.5566
   73MOL0     O 9967  11.669   9.620   8.878 -0.0961  0.2630 -0.3597
   73MOL0     C 9968  11.775   9.668   8.801  0.2278 -0.1016  0.1111
   73MOL0     C 9969  11.852   9.778   8.839  0.7276  0.9432  0.0403
   73MOL0     C 9970  11.965   9.817   8.767 -0.8225  0.0063  0.1435
   73MOL0     C 9971  12.002   9.745   8.651 -0.1692  0.3732 -0.0127
   73MOL0     O 9972  12.114   9.766   8.568  0.0440 -0.1247  0.6996
   73MOL0     C 9973  12.217   9.847   8.622  0.3368  0.1206  0.1188
   73MOL0     C 9974  12.348   9.827   8.547 -0.1741  0.3031  0.2306
   73MOL0     C 9975  12.326   9.831   8.393 -0.1712 -0.0321  0.1663
   73MOL0     C 9976  12.459   9.826   8.314  0.3703 -0.6069  0.7225
   73MOL0     C 9977  12.443   9.836   8.162 -0.1645  0.1417  0.0475
   73MOL0     C 9978  12.405   9.976   8.112 -0.3451  0.0994  0.3754
   73MOL0     C 9979  12.416   9.993   7.958 -0.0535 -0.1734 -0.2239
   73MOL0     C 9980  12.302   9.939   7.874 -0.5043 -0.1219  0.0552
   73MOL0    Cl 9981  12.308   9.767   7.830  0.0906  0.4581 -0.8377
   73MOL0     C 9982  11.921   9.645   8.609  0.1886 -0.3884 -0.0670
   73MOL0     C 9983  11.815   9.598   8.689 -0.1986 -0.1838  0.5652
   73MOL0     O 9984  11.813   9.566   9.058 -0.0666 -0.6423  0.6251
   73MOL0     C 9985  11.457   9.509   9.026  0.3366 -0.6022  0.0038
   73MOL0     C 9986  11.343   9.494   9.102 -0.0733  1.6449  0.8610
   73MOL0     N 9987  10.687   9.711   9.375  1.0490 -0.4155  0.0736
   73MOL0     N 9988  10.559   9.734   9.388  0.2037  0.2462  0.3172
   73MOL0     C 9989  10.683   9.663   9.764  1.0719  1.1705  0.2957
   73MOL0     C 9990  10.808   9.619   9.710  0.4213  0.2074 -0.2839
   73MOL0     C 9991  11.222   9.442   9.686 -0.3764 -0.3871 -0.1581
   73MOL0     C 9992  11.302   9.556   9.695  0.3808  0.4917 -0.4430
   73MOL0     C 9993  11.444   9.541   9.665  0.8156 -0.6722 -0.6606
   73MOL0     C 9994  11.497   9.421   9.632  0.4790  0.1416  0.4778
   73MOL0     O 9995  11.625   9.403   9.605 -0.4936 -0.2421  0.0316
   73MOL0     C 9996  11.725   9.445   9.700 -0.1672  0.2750 -0.5340
   73MOL0     C 9997  11.861   9.430   9.646  0.0548  0.4388  0.2281
   73MOL0     C 9998  11.983   9.476   9.734  0.0381  0.6347 -0.5376
   73MOL0     C 9999  11.994   9.392   9.870  0.5007  0.4394 -0.7610
   73MOL0     C10000  11.984   9.244   9.856 -0.7918 -1.0085 -0.0846
   73MOL0     C10001  11.979   9.129   9.857 -1.0431  0.6953  1.3820
   73MOL0     C10002  11.410   9.316   9.617 -0.0530  0.8513  0.4618
   73MOL0     C10003  11.281   9.319   9.660  0.2987 -0.3048 -0.8409
   73MOL0     C10004  11.218   9.185   9.696 -0.2816 -0.3918 -0.2296
   73MOL0     H10005  10.990   9.628   9.992  0.1919 -0.5172 -1.3285
   73MOL0     H10006  10.760   9.685  10.082 -3.1645  0.5031 -0.3928
   73MOL0     H10007  10.451   9.643  10.101 -1.3010 -2.4881  0.7591
   73MOL0     H10008  10.503   9.531   9.970  1.3596  0.6121 -0.3471
   73MOL0     H10009  10.249   9.568   9.993  0.4980  1.6389  1.3577
   73MOL0     H10010  10.265   9.720   9.951 -1.5898 -2.7895  2.5501
   73MOL0     H10011  10.390   9.613   9.726 -3.7121  1.8316 -3.0616
   73MOL0     H10012  10.318   9.465   9.802 -2.2995 -0.2610 -1.4599
   73MOL0     H10013  10.106   9.564   9.790  1.3899 -0.5660  1.9685
   73MOL0     H10014  10.169   9.725   9.734  1.4945  0.9278 -0.5569
   73MOL0     H10015  10.068   9.604   9.550 -1.3233 -2.3624  1.7908
   73MOL0     H10016  10.161   9.463   9.557 -3.0559  0.4102 -2.9565
   73MOL0     H10017  10.272   9.739   9.510  1.5340 -0.4131  0.7962
   73MOL0     H10018  10.371   9.595   9.523  0.3580  0.2241 -2.1380
   73MOL0     H10019  10.149   9.616   9.300  0.2982 -1.7045 -3.2016
   73MOL0     H10020  10.284   9.496   9.315  0.1728  0.4246  3.7478
   73MOL0     H10021  10.340   9.670   9.148 -1.0382  2.3744 -0.0073
   73MOL0     H10022  10.333   9.795   9.264  0.7692 -0.0101  0.2038
   73MOL0     H10023  10.539   9.499   9.150 -2.2958  0.4669  0.1021
   73MOL0     H10024  10.863   9.622   9.169 -0.1912  0.7611  0.6669
   73MOL0     H10025  10.771   9.463   9.147  2.2041 -0.8756 -0.1567
   73MOL0     H10026  10.937   9.534   9.376 -3.3671  2.4344 -0.8361
   73MOL0     H10027  10.863   9.377   9.362  0.9657 -0.1377  1.4911
   73MOL0     H10028  10.975   9.305   9.164 -2.0205  1.2536 -1.8431
   73MOL0     H10029  11.036   9.469   9.129 -0.2155 -1.7663 -0.4029
   73MOL0     H10030  11.117   9.324   9.375 -0.4773  1.7209  0.0147
   73MOL0     H10031  11.211   9.310   9.225  1.3490 -1.3576  0.7698
   73MOL0     H10032  11.448   9.576   9.413 -3.7086 -1.1702 -0.1412
   73MOL0     H10033  11.734   9.715   9.266 -1.2335 -0.0219 -0.2299
   73MOL0     H10034  11.773   9.547   9.307  1.5738  1.6443 -1.7264
   73MOL0     H10035  11.674   9.652   9.420  1.0857  0.7342  0.2978
   73MOL0     H10036  11.821   9.823   8.933  1.3116 -0.6806  1.0358
   73MOL0     H10037  12.029   9.885   8.822  0.6825 -1.0387 -0.2596
   73MOL0     H10038  12.196   9.953   8.606 -1.9026 -0.6543 -3.1748
   73MOL0     H10039  12.239   9.840   8.729 -1.9248  0.2336  0.6253
   73MOL0     H10040  12.422   9.895   8.591  0.1347 -0.1863  0.4803
   73MOL0     H10041  12.390   9.726   8.556 -1.7078 -0.5913 -1.8429
   73MOL0     H10042  12.266   9.920   8.369  1.4047  0.7907 -0.8737
   73MOL0     H10043  12.260   9.750   8.362  2.1733 -0.8993 -3.0394
   73MOL0     H10044  12.501   9.725   8.326  2.3671  0.0619 -0.3021
   73MOL0     H10045  12.527   9.903   8.348  0.0548 -0.1797  0.3969
   73MOL0     H10046  12.534   9.807   8.109  0.7182  1.1719  0.9547
   73MOL0     H10047  12.363   9.770   8.128  0.4124  0.2290 -1.5743
   73MOL0     H10048  12.477  10.045   8.156  1.2730 -1.5172  0.3499
   73MOL0     H10049  12.303  10.002   8.144  0.3193  1.3880  1.5143
   73MOL0     H10050  12.513   9.955   7.924  0.1761  1.8567 -2.0305
   73MOL0     H10051  12.426  10.099   7.932  0.1757 -0.5190 -1.5863
   73MOL0     H10052  12.315  10.001   7.785  3.1768 -0.8745 -0.0960
   73MOL0     H10053  12.206   9.961   7.923  0.7626  1.7423  1.8660
   73MOL0     H10054  11.956   9.587   8.524  1.5038 -0.4854  0.5046
   73MOL0     H10055  11.778   9.498   8.668  0.5550 -0.4433  0.4609
   73MOL0     H10056  11.462   9.491   8.919  0.1259  1.6261 -0.4186
   73MOL0     H10057  11.257   9.450   9.051  0.2598  1.1924  0.6836
   73MOL0     H10058  10.595   9.664   9.700 -0.2916 -4.4097  1.5340
   73MOL0     H10059  10.814   9.603   9.603  0.1504  1.2346 -0.4691
   73MOL0     H10060  11.267   9.656   9.715 -1.8153 -0.0830 -1.2018
   73MOL0     H10061  11.516   9.622   9.660  1.3263 -1.1892 -2.0592
   73MOL0     H10062  11.711   9.548   9.733 -1.2801  0.5668 -1.8190
   73MOL0     H10063  11.716   9.380   9.788 -1.7111 -2.3982 -2.5051
   73MOL0     H10064  11.844   9.489   9.556 -2.0398 -1.2930 -0.5873
   73MOL0     H10065  11.879   9.326   9.617  4.8701  1.3300 -0.7814
   73MOL0     H10066  12.070   9.466   9.668 -1.2985  2.9110 -2.8471
   73MOL0     H10067  11.974   9.579   9.772  4.9181  0.8386  0.7806
   73MOL0     H10068  11.914   9.428   9.936  0.8065 -1.1044  0.5124
   73MOL0     H10069  12.083   9.412   9.929 -2.7717  1.9232  4.3347
   73MOL0     H10070  11.965   9.023   9.855 -1.4192  0.7218  2.3819
   73MOL0     H10071  11.451   9.219   9.592  1.3624  1.3047  0.9138
   73MOL0     H10072  11.205   9.140   9.597  2.2823  0.9966 -1.2884
   73MOL0     H10073  11.289   9.115   9.741  0.8993  0.8126 -0.1444
   73MOL0     H10074  11.127   9.202   9.754 -0.4253  2.5951 -1.1370
   74MOL0     O10075   5.612  10.416   6.013  0.8546 -0.5883  0.3284
   74MOL0     C10076   5.587  10.307   6.043  0.8501  0.8902 -0.1555
   74MOL0     O10077   5.678  10.221   6.099 -0.0266 -0.0436  0.2755
   74MOL0     C10078   5.812  10.210   6.061  0.3427  0.5843  0.8535
   74MOL0     C10079   5.882  10.258   5.950  0.0856  0.5241  0.6973
   74MOL0     C10080   6.021  10.231   5.928 -0.2288 -0.6928  0.1103
   74MOL0     C10081   6.092  10.166   6.022 -0.2423  0.0595 -0.3925
   74MOL0     O10082   6.229  10.146   6.014 -0.0540 -0.0779  0.4115
   74MOL0     C10083   6.311  10.261   5.989 -0.4519  0.7293  0.7555
   74MOL0     C10084   6.293  10.369   6.105 -0.7749  0.5475  0.2919
   74MOL0     C10085   6.332  10.303   6.242 -0.0337  0.6164  0.2000
   74MOL0     C10086   6.339  10.409   6.353 -0.0057 -0.4311  1.0927
   74MOL0     C10087   6.406  10.343   6.478 -0.9043 -0.0686  0.3615
   74MOL0     C10088   6.440  10.443   6.591 -0.2375 -0.9571 -0.4852
   74MOL0     C10089   6.533  10.377   6.702  1.0710  0.5537  0.0022
   74MOL0     C10090   6.457  10.261   6.789  0.1583  0.1307  0.0390
   74MOL0     N10091   6.329  10.299   6.846 -0.4630  0.1977 -0.0607
   74MOL0     C10092   6.204  10.287   6.797  0.9485 -0.2876  0.2267
   74MOL0     C10093   6.118  10.320   6.903  0.2052  1.0479  0.7620
   74MOL0     C10094   5.977  10.286   6.910  0.2483 -0.5946  0.0721
   74MOL0     C10095   5.893  10.413   6.918 -0.3296  0.8842  0.1407
   74MOL0     C10096   5.741  10.381   6.940  0.8584 -0.2168 -0.1729
   74MOL0     C10097   5.657  10.500   6.941  0.1978  0.5773 -0.9789
   74MOL0     O10098   5.685  10.559   7.072 -0.2019 -0.3541  0.6330
   74MOL0     C10099   5.616  10.670   7.098 -0.9893 -0.4751  0.2484
   74MOL0     C10100   5.481  10.698   7.067 -0.8146  0.2952  0.5360
   74MOL0     C10101   5.418  10.814   7.106  0.0883 -0.3306  0.7625
   74MOL0     C10102   5.283  10.836   7.037  0.0242 -0.0331 -0.0669
   74MOL0     C10103   5.496  10.919   7.175  0.5338  0.3642  0.4460
   74MOL0     C10104   5.429  11.049   7.209  0.0011  0.1285  0.6099
   74MOL0     O10105   5.300  11.057   7.242  0.0071  0.4059  0.4587
   74MOL0     C10106   5.239  11.178   7.258  0.0503 -0.1285 -0.6786
   74MOL0     C10107   5.180  11.247   7.145 -0.4731  0.8033 -0.3527
   74MOL0     C10108   5.123  11.375   7.157 -0.2445  1.6987 -0.5303
   74MOL0     C10109   5.148  11.455   7.274  0.1383  1.0093 -0.3670
   74MOL0     O10110   5.119  11.586   7.293  0.1157  0.1958  0.0463
   74MOL0     C10111   5.089  11.674   7.190 -0.1303  0.2718  0.6621
   74MOL0     C10112   5.155  11.809   7.218 -0.3219 -0.0073 -0.2136
   74MOL0     C10113   5.095  11.890   7.328 -0.6725 -0.1976 -0.0319
   74MOL0     C10114   5.122  12.037   7.310 -0.6105  0.2296  0.1454
   74MOL0     C10115   5.067  12.128   7.422 -0.0470  0.0076  0.5406
   74MOL0     C10116   5.049  12.275   7.373 -0.2105  0.0963 -0.5372
   74MOL0     C10117   4.999  12.356   7.489  0.6024  0.6273  0.8778
   74MOL0     C10118   4.994  12.505   7.452  0.0936 -0.0869  0.5945
   74MOL0    Cl10119   5.158  12.578   7.455 -0.0690  0.1556  0.2199
   74MOL0     C10120   5.210  11.387   7.388  0.1126 -0.7398 -0.4362
   74MOL0     C10121   5.246  11.253   7.384 -0.2804  0.0628  0.5395
   74MOL0     O10122   5.506  11.143   7.201  1.2162  0.4573 -0.4311
   74MOL0     C10123   5.630  10.890   7.201  0.4337 -0.9025  0.4279
   74MOL0     C10124   5.688  10.772   7.158  0.1279 -0.0045  0.1210
   74MOL0     N10125   6.192  10.365   7.001 -0.0354 -0.4127 -0.1234
   74MOL0     N10126   6.316  10.353   6.971 -0.0124 -0.0516  0.4968
   74MOL0     C10127   6.019  10.109   6.128  0.3659 -0.3761 -0.1817
   74MOL0     C10128   5.879  10.128   6.152 -0.0385  0.7122  0.1089
   74MOL0     C10129   5.463  10.241   6.029  0.5444 -0.3413  0.1760
   74MOL0     C10130   5.365  10.325   5.980  0.7641 -0.0227  0.1633
   74MOL0     C10131   5.226  10.290   5.988 -0.9196 -0.7621  0.1014
   74MOL0     C10132   5.192  10.166   6.036  0.6511 -0.2606  0.2822
   74MOL0     O10133   5.058  10.132   6.034  0.7754 -0.3243 -0.1119
   74MOL0     C10134   5.015  10.034   6.129  0.0641  0.7133 -0.3476
   74MOL0     C10135   4.867  10.063   6.153 -1.3124  0.0670  0.0035
   74MOL0     C10136   4.808   9.974   6.269 -1.2899 -0.3504 -0.0603
   74MOL0     C10137   4.662   9.969   6.279  0.1976 -0.0167  0.2659
   74MOL0     C10138   4.603  10.097   6.344  0.1674 -0.3541  0.4967
   74MOL0     C10139   4.555  10.206   6.381 -0.3744 -0.0832  0.3462
   74MOL0     C10140   5.290  10.068   6.063 -0.6610  0.6555  0.3783
   74MOL0     C10141   5.431  10.098   6.061  0.0914 -0.5379  0.7333
   74MOL0     C10142   5.529   9.984   6.098 -0.2964 -0.2628  0.3029
   74MOL0     H10143   5.823  10.308   5.874  1.2968 -1.0327 -1.3757
   74MOL0     H10144   6.059  10.259   5.830 -1.5337 -0.5576 -0.3763
   74MOL0     H10145   6.289  10.300   5.889  1.5382  1.0967  0.4180
   74MOL0     H10146   6.413  10.221   5.992 -1.3258 -1.6311  0.9680
   74MOL0     H10147   6.361  10.453   6.085  1.7974 -0.9243  2.1896
   74MOL0     H10148   6.190  10.405   6.111 -1.8872 -2.0377 -1.6416
   74MOL0     H10149   6.281  10.211   6.271 -0.2228  0.6645  0.0247
   74MOL0     H10150   6.434  10.276   6.213 -0.7532 -1.7386 -0.3329
   74MOL0     H10151   6.406  10.492   6.327  1.1730 -1.7053 -0.1511
   74MOL0     H10152   6.240  10.447   6.379 -1.7222 -3.2937 -0.7805
   74MOL0     H10153   6.498  10.296   6.441  1.0062  2.3374  1.7802
   74MOL0     H10154   6.339  10.271   6.527 -1.7253  0.8047  0.5513
   74MOL0     H10155   6.499  10.526   6.552 -0.3308 -1.0440 -0.8135
   74MOL0     H10156   6.355  10.489   6.641  0.5002  1.5603 -1.3963
   74MOL0     H10157   6.567  10.452   6.774  2.1691 -2.5615  2.9679
   74MOL0     H10158   6.628  10.345   6.659 -0.1701 -0.6368 -2.0022
   74MOL0     H10159   6.440  10.175   6.723  0.8032  0.0296  0.0009
   74MOL0     H10160   6.528  10.231   6.867  1.1521  0.1857 -0.8290
   74MOL0     H10161   6.174  10.224   6.713  1.8382 -0.8924  0.3549
   74MOL0     H10162   5.957  10.228   7.001 -1.7114  1.1792  0.8690
   74MOL0     H10163   5.940  10.233   6.822  0.5678  2.1726 -1.8399
   74MOL0     H10164   5.936  10.475   6.997 -1.5531  1.9654  0.0066
   74MOL0     H10165   5.905  10.460   6.819 -3.8399 -1.7274 -1.7331
   74MOL0     H10166   5.704  10.311   6.865  1.3497  0.5773 -1.1825
   74MOL0     H10167   5.724  10.327   7.033 -0.3505  0.5775  0.0932
   74MOL0     H10168   5.687  10.572   6.864  1.0527  1.1067 -0.1715
   74MOL0     H10169   5.549  10.484   6.932 -0.5194  3.9345  0.0001
   74MOL0     H10170   5.429  10.637   6.993 -1.7412 -0.1728  1.5319
   74MOL0     H10171   5.267  10.942   7.015 -1.8438 -0.5645 -1.4972
   74MOL0     H10172   5.193  10.809   7.093 -0.8379  0.0980 -1.3475
   74MOL0     H10173   5.286  10.790   6.938  0.5304 -1.1929  0.4755
   74MOL0     H10174   5.189  11.208   7.044  2.5572  0.1514  0.0523
   74MOL0     H10175   5.082  11.416   7.065  1.1428  1.8894 -1.0948
   74MOL0     H10176   5.124  11.633   7.095  3.1240  2.9182  0.5558
   74MOL0     H10177   4.980  11.681   7.190 -0.1153  0.9828 -0.8754
   74MOL0     H10178   5.263  11.801   7.232 -0.3802  2.0153  1.9661
   74MOL0     H10179   5.128  11.870   7.131 -1.1405  1.8825  1.3066
   74MOL0     H10180   5.134  11.852   7.423  0.2172 -0.4214 -0.4782
   74MOL0     H10181   4.987  11.875   7.334 -1.0289 -0.1692 -3.8135
   74MOL0     H10182   5.066  12.063   7.220 -2.7688  0.1835  1.3964
   74MOL0     H10183   5.224  12.059   7.277 -1.0404 -0.3185 -1.6359
   74MOL0     H10184   4.970  12.087   7.455 -1.4629  2.5537 -0.1811
   74MOL0     H10185   5.140  12.125   7.503  0.4535 -0.2208  0.0855
   74MOL0     H10186   4.983  12.273   7.286 -1.0683 -2.4490  0.0676
   74MOL0     H10187   5.147  12.314   7.342  0.3322 -1.6631 -1.1725
   74MOL0     H10188   5.053  12.343   7.584  2.5073  0.6588 -0.1451
   74MOL0     H10189   4.902  12.317   7.519  0.1378  0.2226 -1.0667
   74MOL0     H10190   4.939  12.562   7.527 -0.0999  0.8012 -0.2009
   74MOL0     H10191   4.952  12.527   7.353 -1.9149  0.1313  1.4486
   74MOL0     H10192   5.220  11.446   7.478  0.4907  1.3766 -1.7939
   74MOL0     H10193   5.289  11.224   7.479  2.0441  1.7977  0.1000
   74MOL0     H10194   5.694  10.969   7.239 -0.2738  0.3206 -0.8571
   74MOL0     H10195   5.793  10.758   7.182  0.4970 -0.4736 -1.6407
   74MOL0     H10196   6.090  10.066   6.198 -2.3153 -1.2502  2.1865
   74MOL0     H10197   5.823  10.083   6.234  1.5274 -1.0381  0.2831
   74MOL0     H10198   5.379  10.427   5.947 -2.9769  0.5657 -0.0177
   74MOL0     H10199   5.144  10.357   5.961 -0.3695  0.0878  0.4853
   74MOL0     H10200   5.024   9.932   6.089  0.5688  1.0986 -1.2536
   74MOL0     H10201   5.068  10.050   6.223 -4.0987  0.3408  2.3242
   74MOL0     H10202   4.814  10.060   6.057  2.4850 -1.0424 -2.2539
   74MOL0     H10203   4.877  10.166   6.190  1.7890  1.6703 -4.4077
   74MOL0     H10204   4.841   9.873   6.242  3.7276  0.8899  0.4699
   74MOL0     H10205   4.855  10.003   6.363 -0.4730  1.2697 -0.9400
   74MOL0     H10206   4.621   9.881   6.330 -1.2584 -0.5083 -1.6573
   74MOL0     H10207   4.630   9.965   6.175  0.7676 -0.4612  0.1043
   74MOL0     H10208   4.529  10.300   6.425 -0.5170 -0.9076  2.0869
   74MOL0     H10209   5.255   9.967   6.084 -1.2964  0.9683  0.8723
   74MOL0     H10210   5.626   9.984   6.047  1.2693  0.2484  3.0519
   74MOL0     H10211   5.539   9.986   6.207  1.0901 -2.2597  0.2765
   74MOL0     H10212   5.481   9.888   6.075  0.8698 -0.9294  0.5268
   75MOL0     O10213   7.835   1.886   6.884  0.6599  0.1858  0.2727
   75MOL0     C10214   7.809   1.788   6.825  0.0542  0.6365  0.3964
   75MOL0     O10215   7.867   1.665   6.837 -0.3278 -0.4482 -0.1202
   75MOL0     C10216   8.002   1.658   6.874 -0.1612 -0.3239 -0.0875
   75MOL0     C10217   8.102   1.758   6.856  1.3953  0.2540  0.3038
   75MOL0     C10218   8.235   1.737   6.889  0.2346  0.9044 -1.3257
   75MOL0     C10219   8.277   1.609   6.936 -0.1723 -0.5238 -0.6589
   75MOL0     O10220   8.413   1.588   6.948 -0.2168  0.1780  1.3712
   75MOL0     C10221   8.463   1.481   6.865  0.5837 -0.1102 -0.9086
   75MOL0     C10222   8.588   1.516   6.782  0.3142  0.1404  0.2093
   75MOL0     C10223   8.636   1.387   6.712 -0.2741  0.4027  0.8023
   75MOL0     C10224   8.717   1.282   6.788 -0.1522  0.1029 -0.2619
   75MOL0     C10225   8.847   1.333   6.843  0.2077  0.0744 -0.3359
   75MOL0     C10226   8.939   1.386   6.736 -0.3930  0.6339  0.5284
   75MOL0     C10227   9.085   1.350   6.743  0.4593  0.1407  0.2632
   75MOL0     C10228   9.128   1.205   6.687  0.6253 -0.5197 -0.7459
   75MOL0     N10229   9.275   1.197   6.673  0.0675 -0.9659  0.4780
   75MOL0     C10230   9.351   1.251   6.569 -0.2887 -0.3247  0.4969
   75MOL0     C10231   9.483   1.208   6.603 -0.5036  0.0940 -1.1656
   75MOL0     C10232   9.617   1.229   6.545  0.3261  0.5152 -0.0033
   75MOL0     C10233   9.645   1.136   6.417  0.6437  0.4150 -0.2544
   75MOL0     C10234   9.655   0.986   6.458  1.7429 -0.6401 -0.5832
   75MOL0     C10235   9.670   0.908   6.323 -0.6055  0.8172 -0.4176
   75MOL0     O10236   9.643   0.766   6.347  0.2936  0.1597 -0.6815
   75MOL0     C10237   9.653   0.677   6.245 -0.6054  0.2862 -0.6025
   75MOL0     C10238   9.635   0.544   6.279  0.5672  0.0219 -0.4703
   75MOL0     C10239   9.651   0.445   6.188  0.0222 -0.4348 -0.3786
   75MOL0     C10240   9.608   0.310   6.237  0.0196  0.6930  0.2609
   75MOL0     C10241   9.701   0.477   6.061  1.1971 -0.0115  0.7854
   75MOL0     C10242   9.728   0.365   5.958  0.8928 -0.5372  1.3611
   75MOL0     O10243   9.815   0.402   5.861  0.7963  0.6472 -0.1593
   75MOL0     C10244   9.877   0.296   5.783  0.9648 -0.2937 -0.1612
   75MOL0     C10245   9.939   0.341   5.660 -0.9476  0.3821 -0.0070
   75MOL0     C10246  10.013   0.240   5.582 -0.0689  0.1075 -0.2786
   75MOL0     C10247  10.024   0.107   5.618  0.2359 -0.5589 -0.4851
   75MOL0     O10248  10.112   0.040   5.539 -0.5107  0.2599  0.5128
   75MOL0     C10249  10.127  -0.094   5.569 -0.8122  0.3819  0.4682
   75MOL0     C10250  10.189  -0.164   5.443  0.4380 -0.2324 -0.4149
   75MOL0     C10251  10.346  -0.128   5.433 -1.1226 -0.3818  0.0928
   75MOL0     C10252  10.385   0.002   5.364  0.5234 -0.5923 -0.4459
   75MOL0     C10253  10.536  -0.005   5.334  0.1636 -0.3232 -0.0651
   75MOL0     C10254  10.603   0.132   5.283  0.4031  0.5306  0.4657
   75MOL0     C10255  10.590   0.145   5.130  0.1242 -0.1254  0.1948
   75MOL0     C10256  10.659   0.264   5.072 -1.0938 -0.1298  0.2669
   75MOL0    Cl10257  10.824   0.266   5.127 -0.1246  0.0340 -0.1998
   75MOL0     C10258   9.964   0.067   5.739  0.3789  0.6198 -0.2960
   75MOL0     C10259   9.896   0.154   5.816  0.0013  0.4003 -0.1293
   75MOL0     O10260   9.676   0.258   5.973 -0.5766  0.3627  0.8437
   75MOL0     C10261   9.704   0.609   6.024  0.1279 -0.4313 -0.0477
   75MOL0     C10262   9.680   0.710   6.112  0.0235 -0.3226  0.0141
   75MOL0     N10263   9.475   1.147   6.723  0.0404 -0.4578 -0.4043
   75MOL0     N10264   9.354   1.130   6.761 -0.0752  0.2921  0.1491
   75MOL0     C10265   8.173   1.517   6.968 -0.3590 -1.1718  0.4712
   75MOL0     C10266   8.037   1.541   6.931  0.5220  0.2208  0.2025
   75MOL0     C10267   7.697   1.792   6.730  0.4362 -0.4118  0.1167
   75MOL0     C10268   7.630   1.669   6.705 -0.7964 -0.1843 -0.0168
   75MOL0     C10269   7.523   1.668   6.614  0.0907  0.0587  0.3620
   75MOL0     C10270   7.506   1.777   6.531  1.0702 -0.0553 -0.3076
   75MOL0     O10271   7.395   1.789   6.449  0.0291  0.5975  0.9630
   75MOL0     C10272   7.307   1.689   6.415  0.0047 -0.4213  0.0843
   75MOL0     C10273   7.198   1.667   6.520  0.6335 -0.9623 -0.3083
   75MOL0     C10274   7.068   1.609   6.470  1.2377  0.1463 -0.0970
   75MOL0     C10275   6.980   1.717   6.401 -1.0693 -0.5185  0.2221
   75MOL0     C10276   6.889   1.657   6.301 -0.3971 -0.6228 -0.3359
   75MOL0     C10277   6.826   1.620   6.203  0.2972  0.1991 -1.0293
   75MOL0     C10278   7.584   1.893   6.545  0.3808 -0.8942  0.1437
   75MOL0     C10279   7.679   1.905   6.645  0.2022  1.0292  0.0321
   75MOL0     C10280   7.765   2.029   6.634  0.2197 -0.5721 -0.0864
   75MOL0     H10281   8.074   1.857   6.821  4.9090  0.9217 -1.0559
   75MOL0     H10282   8.306   1.819   6.889  0.5595  0.7301  1.5503
   75MOL0     H10283   8.391   1.434   6.797  0.4222 -0.3356 -0.5862
   75MOL0     H10284   8.484   1.397   6.931 -0.4615 -2.0358 -2.9040
   75MOL0     H10285   8.567   1.601   6.717  2.4564  1.2408  0.8710
   75MOL0     H10286   8.663   1.558   6.849 -0.9784 -0.3329  2.0558
   75MOL0     H10287   8.547   1.337   6.671  0.5055 -1.5573  1.3958
   75MOL0     H10288   8.693   1.420   6.625 -1.6367  2.9218  0.7526
   75MOL0     H10289   8.650   1.250   6.868  0.3059  0.6823  0.3706
   75MOL0     H10290   8.746   1.199   6.723  2.2710  0.9946 -0.4360
   75MOL0     H10291   8.907   1.260   6.898  1.3661  2.0784  1.1741
   75MOL0     H10292   8.827   1.395   6.930  0.6133 -1.5096  0.9348
   75MOL0     H10293   8.904   1.341   6.642 -1.1410  0.3099  0.9485
   75MOL0     H10294   8.938   1.495   6.734  2.3319  0.7057 -0.2228
   75MOL0     H10295   9.111   1.356   6.849 -0.9007  2.4700  0.5426
   75MOL0     H10296   9.133   1.425   6.680 -0.5048 -1.9235 -3.1925
   75MOL0     H10297   9.098   1.127   6.758 -0.4980  0.3620 -0.2158
   75MOL0     H10298   9.080   1.183   6.590 -0.5341 -2.5993  0.2127
   75MOL0     H10299   9.308   1.305   6.486 -0.5220  0.6150  1.2136
   75MOL0     H10300   9.692   1.218   6.624  0.1593  4.1488  0.8360
   75MOL0     H10301   9.627   1.335   6.519 -1.5310  0.8234  0.4070
   75MOL0     H10302   9.565   1.145   6.344 -0.9739 -1.2189  1.2015
   75MOL0     H10303   9.745   1.157   6.377  0.3795  1.3974 -0.4089
   75MOL0     H10304   9.749   0.975   6.514  1.2054  1.1099  0.7612
   75MOL0     H10305   9.559   0.959   6.504  1.4762 -0.1535 -0.8454
   75MOL0     H10306   9.617   0.943   6.234  0.3894  4.0497  0.1278
   75MOL0     H10307   9.775   0.916   6.293 -0.3831 -1.3600 -0.3653
   75MOL0     H10308   9.618   0.537   6.386  0.6124  2.0185 -0.3081
   75MOL0     H10309   9.571   0.287   6.337  1.3284 -0.2945  0.5461
   75MOL0     H10310   9.690   0.239   6.225  0.9137  1.5326  1.2533
   75MOL0     H10311   9.521   0.281   6.176  2.3274 -1.5791 -2.2223
   75MOL0     H10312   9.951   0.445   5.633  0.4973  0.7612  1.8659
   75MOL0     H10313  10.090   0.279   5.516  1.7296  0.6078  1.9687
   75MOL0     H10314  10.198  -0.118   5.650 -2.4472  0.1006  1.8741
   75MOL0     H10315  10.034  -0.145   5.593 -1.1989  1.7855  2.2204
   75MOL0     H10316  10.177  -0.273   5.445  2.0983 -0.6790  5.4665
   75MOL0     H10317  10.137  -0.134   5.352 -0.1720 -2.0094 -0.6888
   75MOL0     H10318  10.392  -0.206   5.373 -1.7400 -2.3400  2.0195
   75MOL0     H10319  10.377  -0.134   5.538 -1.5336 -1.6141  0.1612
   75MOL0     H10320  10.355   0.086   5.428  3.6035  1.1079 -1.0444
   75MOL0     H10321  10.328   0.013   5.271  1.3365  0.8650 -0.7966
   75MOL0     H10322  10.583  -0.028   5.430 -2.4049  0.5767  1.5162
   75MOL0     H10323  10.562  -0.085   5.263 -1.2127 -0.3493 -0.5729
   75MOL0     H10324  10.708   0.139   5.314  0.1800  0.9372  1.1621
   75MOL0     H10325  10.550   0.212   5.336 -0.2842  0.7361 -0.5019
   75MOL0     H10326  10.487   0.142   5.092  0.1030 -3.9827  0.1443
   75MOL0     H10327  10.641   0.060   5.083  1.6050  1.4577 -1.2187
   75MOL0     H10328  10.604   0.357   5.093 -1.0759  0.5255 -2.2986
   75MOL0     H10329  10.655   0.250   4.964  0.5957  0.6990  0.0615
   75MOL0     H10330   9.962  -0.033   5.781 -3.7712  0.5644 -0.1688
   75MOL0     H10331   9.853   0.136   5.914 -1.0179  0.9325 -0.4693
   75MOL0     H10332   9.732   0.633   5.922 -0.1276  1.3347  0.2720
   75MOL0     H10333   9.716   0.807   6.079 -1.3512  0.1699 -0.0853
   75MOL0     H10334   8.191   1.421   7.015  0.9252 -0.2809  1.8818
   75MOL0     H10335   7.958   1.471   6.955  0.3680  0.8023  1.5238
   75MOL0     H10336   7.655   1.582   6.766  1.9033  0.8192  0.4671
   75MOL0     H10337   7.450   1.588   6.601 -0.8040  1.1226 -1.5440
   75MOL0     H10338   7.254   1.704   6.321  0.1696 -0.5927 -0.0359
   75MOL0     H10339   7.352   1.590   6.399  0.0520 -0.5639  1.0141
   75MOL0     H10340   7.183   1.762   6.571  2.6131 -0.3030 -0.8714
   75MOL0     H10341   7.235   1.602   6.601  1.9616  1.6455  1.3103
   75MOL0     H10342   7.088   1.525   6.404  0.2304  1.4257 -2.1207
   75MOL0     H10343   7.009   1.587   6.560  2.5821 -1.0773  0.5347
   75MOL0     H10344   7.043   1.791   6.352  1.2196 -1.0187  2.2550
   75MOL0     H10345   6.922   1.767   6.479 -0.8378  0.8253 -0.4446
   75MOL0     H10346   6.752   1.585   6.134  1.7150  0.5397 -2.7730
   75MOL0     H10347   7.567   1.975   6.477  0.2010  0.9770  2.3260
   75MOL0     H10348   7.809   2.016   6.534  0.9914 -0.4098  0.2242
   75MOL0     H10349   7.707   2.120   6.649  0.3032  0.0920 -3.0653
   75MOL0     H10350   7.843   2.032   6.711  2.2555  0.2843 -2.0510
   76MOL0     O10351   3.010  10.215   2.678 -0.5722 -0.2519 -0.6132
   76MOL0     C10352   2.961  10.100   2.657 -0.0215 -0.7110 -0.3196
   76MOL0     O10353   2.963  10.029   2.538 -0.4918 -0.8713  0.0364
   76MOL0     C10354   3.007  10.089   2.422  0.8333 -0.1368  0.0840
   76MOL0     C10355   2.963  10.217   2.382  1.3522  0.0153  0.1975
   76MOL0     C10356   2.988  10.264   2.261 -1.3802 -0.2638  0.2459
   76MOL0     C10357   3.083  10.202   2.180  0.8257 -0.2504 -0.8662
   76MOL0     O10358   3.129  10.256   2.066 -0.0022 -0.1557  0.2101
   76MOL0     C10359   3.188  10.389   2.076  0.5339 -0.4418  0.2817
   76MOL0     C10360   3.336  10.367   2.049  0.0698  0.2118 -0.4532
   76MOL0     C10361   3.420  10.493   2.081 -0.5470 -0.3552 -0.4042
   76MOL0     C10362   3.561  10.451   2.133  0.6922  0.5105 -0.5569
   76MOL0     C10363   3.547  10.393   2.285 -0.9498 -0.8761 -0.7127
   76MOL0     C10364   3.510  10.506   2.386 -0.6255 -0.0631  0.8217
   76MOL0     C10365   3.545  10.454   2.529  0.2981 -0.1234  0.6444
   76MOL0     C10366   3.514  10.573   2.632  0.5340 -0.0552 -0.2705
   76MOL0     N10367   3.550  10.554   2.780  0.6344 -1.0654  0.2903
   76MOL0     C10368   3.569  10.443   2.849  0.1830 -0.2525  0.1609
   76MOL0     C10369   3.615  10.478   2.975 -0.2578 -0.3230  0.0035
   76MOL0     C10370   3.633  10.386   3.091 -0.6607 -1.0899 -0.2718
   76MOL0     C10371   3.554  10.431   3.216 -0.2347 -0.6113 -0.5697
   76MOL0     C10372   3.544  10.314   3.314  0.0641  0.1277 -1.1778
   76MOL0     C10373   3.496  10.356   3.459  1.1221  0.8145  0.1131
   76MOL0     O10374   3.371  10.429   3.447  0.1202  0.0339  0.5076
   76MOL0     C10375   3.315  10.475   3.565  0.8793  0.9816  0.6650
   76MOL0     C10376   3.363  10.463   3.698  0.3398  0.2959 -0.0444
   76MOL0     C10377   3.295  10.514   3.809  0.1130  0.3857 -0.4616
   76MOL0     C10378   3.365  10.496   3.946  0.0916 -0.5957  0.3397
   76MOL0     C10379   3.161  10.565   3.786 -0.5213  0.7156 -0.0647
   76MOL0     C10380   3.065  10.594   3.895 -1.0240  0.1288  1.0831
   76MOL0     O10381   2.957  10.679   3.869 -0.2464 -0.0091  0.1546
   76MOL0     C10382   2.829  10.624   3.843  0.7742  0.6329  0.8117
   76MOL0     C10383   2.723  10.711   3.817  0.7181 -0.3930 -0.2897
   76MOL0     C10384   2.598  10.667   3.792  0.1464  0.2541  0.6313
   76MOL0     C10385   2.564  10.527   3.781 -0.3605  0.6169 -0.7599
   76MOL0     O10386   2.435  10.471   3.756 -0.3538  0.2730 -0.0215
   76MOL0     C10387   2.332  10.551   3.830  0.3783  0.1764  0.0882
   76MOL0     C10388   2.209  10.472   3.861 -0.1474  0.0804  0.1081
   76MOL0     C10389   2.238  10.342   3.942 -0.2899  0.0148 -0.2926
   76MOL0     C10390   2.106  10.263   3.960 -0.1452 -0.1898  0.2468
   76MOL0     C10391   2.136  10.124   4.008 -0.0066 -0.2680  0.2385
   76MOL0     C10392   2.152  10.138   4.156  0.1733 -0.0069  0.1965
   76MOL0     C10393   2.169  10.001   4.226  0.0889  0.2926  0.3734
   76MOL0     C10394   2.187  10.022   4.376 -0.0561 -0.3980 -0.2060
   76MOL0    Cl10395   2.326  10.123   4.430 -0.1230  0.1072 -0.1346
   76MOL0     C10396   2.673  10.438   3.782  0.1713  0.6690 -1.1810
   76MOL0     C10397   2.805  10.483   3.821  0.8751  0.4843 -0.1780
   76MOL0     O10398   3.091  10.545   4.004 -0.4765 -0.1216 -0.2143
   76MOL0     C10399   3.119  10.582   3.649  0.0924  0.1599  0.8097
   76MOL0     C10400   3.195  10.537   3.543  0.4275  0.5518 -0.4183
   76MOL0     N10401   3.632  10.619   2.974 -0.0889  0.5370 -0.4563
   76MOL0     N10402   3.600  10.656   2.858 -0.0713  0.1402 -0.2722
   76MOL0     C10403   3.132  10.083   2.221 -0.3711 -0.2869  0.2528
   76MOL0     C10404   3.094  10.019   2.338 -0.6943  0.7220 -0.8213
   76MOL0     C10405   2.894  10.025   2.768 -0.9405 -0.7911  0.4852
   76MOL0     C10406   2.817   9.912   2.737 -0.4545 -1.1614 -0.0220
   76MOL0     C10407   2.738   9.844   2.821 -0.1078  0.5408 -0.5553
   76MOL0     C10408   2.712   9.890   2.952  0.5375  0.5627  0.2357
   76MOL0     O10409   2.632   9.829   3.038 -0.1565  0.4978 -0.4094
   76MOL0     C10410   2.681   9.806   3.169 -0.5678 -0.6422 -0.7984
   76MOL0     C10411   2.590   9.694   3.223  0.2024  0.4942 -0.0338
   76MOL0     C10412   2.609   9.556   3.164 -0.0072 -0.0266 -0.6337
   76MOL0     C10413   2.524   9.452   3.240  0.1988 -0.9171  0.0442
   76MOL0     C10414   2.588   9.402   3.361 -0.1096 -0.1596  0.3362
   76MOL0     C10415   2.651   9.359   3.456 -0.6614 -0.0948 -0.2146
   76MOL0     C10416   2.791  10.000   2.989 -0.1512  0.4441 -0.2262
   76MOL0     C10417   2.875  10.067   2.904  0.7054  0.0462 -0.2983
   76MOL0     C10418   2.949  10.185   2.957 -0.3486 -0.0251 -0.5868
   76MOL0     H10419   2.894  10.281   2.435 -2.8017 -0.9944 -3.3901
   76MOL0     H10420   2.961  10.364   2.230  1.6929  0.4123 -0.6039
   76MOL0     H10421   3.184  10.435   2.176 -1.4283  0.0982  0.0123
   76MOL0     H10422   3.133  10.450   2.004  0.5802  0.5328  1.0586
   76MOL0     H10423   3.360  10.279   2.110 -2.0013  0.0539  0.2200
   76MOL0     H10424   3.345  10.356   1.941 -1.0505  0.1131 -0.5450
   76MOL0     H10425   3.420  10.558   1.993  1.4982  1.2198  0.6986
   76MOL0     H10426   3.376  10.547   2.165 -1.3363 -1.4100 -0.1085
   76MOL0     H10427   3.613  10.380   2.068 -0.0632  0.9152 -1.6197
   76MOL0     H10428   3.634  10.533   2.137  3.1723 -1.5835  2.3441
   76MOL0     H10429   3.641  10.347   2.316 -1.0123 -1.5896 -1.5247
   76MOL0     H10430   3.464  10.322   2.286 -1.7190 -0.1070 -3.0923
   76MOL0     H10431   3.571  10.593   2.359 -2.3414  1.1750  0.7747
   76MOL0     H10432   3.403  10.530   2.382 -1.5478 -3.5953  0.5638
   76MOL0     H10433   3.649  10.421   2.536  0.2043 -1.0499 -1.5534
   76MOL0     H10434   3.470  10.382   2.563 -2.5969  2.8170  0.9998
   76MOL0     H10435   3.578  10.657   2.606 -0.2179  0.9029  0.8766
   76MOL0     H10436   3.407  10.597   2.629  0.7266  0.6911 -2.2510
   76MOL0     H10437   3.535  10.341   2.831 -3.7519  0.6488  1.3594
   76MOL0     H10438   3.736  10.360   3.117 -1.1833 -1.3768  1.6390
   76MOL0     H10439   3.597  10.284   3.074  0.7979 -1.9912  1.6474
   76MOL0     H10440   3.613  10.513   3.259  1.3544  0.2630 -4.0146
   76MOL0     H10441   3.449  10.451   3.194 -0.9714 -1.8533  1.5278
   76MOL0     H10442   3.476  10.244   3.263  2.7106 -0.4013 -4.3737
   76MOL0     H10443   3.641  10.266   3.329 -0.7721 -1.9819 -2.1542
   76MOL0     H10444   3.483  10.266   3.519 -1.9759 -0.4568 -2.1971
   76MOL0     H10445   3.570  10.423   3.505  0.3459  0.1617  2.4877
   76MOL0     H10446   3.461  10.423   3.720  0.0139  0.5754  2.1463
   76MOL0     H10447   3.366  10.596   3.991  0.7710 -0.0981 -0.7378
   76MOL0     H10448   3.464  10.449   3.944  0.1243 -0.5069 -0.9515
   76MOL0     H10449   3.302  10.436   4.012 -1.1342  1.4954  1.1883
   76MOL0     H10450   2.741  10.818   3.819 -0.1490 -0.1534 -2.3314
   76MOL0     H10451   2.520  10.741   3.778 -0.6196 -0.8680 -1.4168
   76MOL0     H10452   2.378  10.588   3.923 -3.3593  2.3934  1.2702
   76MOL0     H10453   2.291  10.640   3.781 -1.0119 -0.2539  0.4478
   76MOL0     H10454   2.152  10.537   3.928  0.2571  0.9928 -0.4109
   76MOL0     H10455   2.161  10.446   3.766  2.6654  0.4222 -1.4966
   76MOL0     H10456   2.281  10.375   4.037  0.7094  1.7885 -1.2842
   76MOL0     H10457   2.303  10.272   3.888  1.7436  0.0428  1.9434
   76MOL0     H10458   2.053  10.258   3.864  0.6380  0.4999 -0.2409
   76MOL0     H10459   2.040  10.322   4.023  2.0962  1.3047  1.3437
   76MOL0     H10460   2.052  10.058   3.984 -0.2704  0.0548  0.2603
   76MOL0     H10461   2.226  10.076   3.970  0.1609 -0.4938  0.9048
   76MOL0     H10462   2.059  10.181   4.194  0.4718  0.0448  0.8687
   76MOL0     H10463   2.239  10.202   4.172 -0.5034  0.9687  0.0450
   76MOL0     H10464   2.256   9.949   4.184 -0.0036  0.3933  0.0520
   76MOL0     H10465   2.075   9.946   4.214 -0.9438  1.7263  1.4954
   76MOL0     H10466   2.185   9.928   4.430  0.7205  1.1556  2.7365
   76MOL0     H10467   2.110  10.086   4.419  0.5351 -0.0136  0.3101
   76MOL0     H10468   2.643  10.334   3.772 -0.0379  0.5810  0.1907
   76MOL0     H10469   2.873  10.403   3.849  2.1372  1.8824  0.9542
   76MOL0     H10470   3.026  10.634   3.629 -1.5900 -2.7671  0.5090
   76MOL0     H10471   3.176  10.573   3.443 -0.7401 -0.6547 -0.6547
   76MOL0     H10472   3.207  10.033   2.160 -1.0955 -0.0228 -0.8839
   76MOL0     H10473   3.122   9.916   2.358  0.0316  0.4345 -3.1134
   76MOL0     H10474   2.828   9.875   2.636  2.7557  1.8922 -0.9952
   76MOL0     H10475   2.686   9.753   2.794  0.9176 -0.4493  0.6116
   76MOL0     H10476   2.786   9.776   3.167 -0.4587 -0.5283  1.0091
   76MOL0     H10477   2.673   9.902   3.221  0.1387  0.6677 -2.9619
   76MOL0     H10478   2.482   9.713   3.214  0.0570 -0.5650 -0.6685
   76MOL0     H10479   2.600   9.681   3.331  0.6183  1.3792  0.0482
   76MOL0     H10480   2.568   9.553   3.063 -3.8745 -1.0591  0.7849
   76MOL0     H10481   2.712   9.520   3.152  0.0839  0.6471 -2.0333
   76MOL0     H10482   2.499   9.364   3.180  0.1369 -0.8691 -0.0014
   76MOL0     H10483   2.430   9.500   3.269  0.4047  1.5902 -2.9276
   76MOL0     H10484   2.698   9.309   3.538  3.3709  0.9387 -1.6701
   76MOL0     H10485   2.780  10.030   3.093  1.5156  1.6113 -0.3358
   76MOL0     H10486   2.935  10.186   3.065 -2.6132 -0.4801 -0.8228
   76MOL0     H10487   3.055  10.184   2.930 -0.8269 -1.0717 -2.6498
   76MOL0     H10488   2.912  10.275   2.907 -0.2139 -0.6459 -1.8534
   77MOL0     O10489   2.441   2.388   9.418 -0.2999  0.2806  0.2555
   77MOL0     C10490   2.482   2.330   9.518 -0.0763  0.1761  2.0698
   77MOL0     O10491   2.446   2.204   9.553  0.9950 -0.0174  0.2522
   77MOL0     C10492   2.366   2.129   9.461  0.4406 -0.2155 -0.4327
   77MOL0     C10493   2.229   2.167   9.440  0.3163  0.1306 -0.1987
   77MOL0     C10494   2.147   2.091   9.354  0.2294 -0.6187 -0.7794
   77MOL0     C10495   2.204   1.978   9.293 -0.3004 -0.0862 -0.0613
   77MOL0     O10496   2.110   1.903   9.222  0.2514 -0.0279 -0.6892
   77MOL0     C10497   2.159   1.844   9.106  0.2133  0.8924 -0.7398
   77MOL0     C10498   2.025   1.779   9.060 -0.0825 -0.2566  0.6412
   77MOL0     C10499   2.052   1.670   8.952  0.5062  1.0863  1.2117
   77MOL0     C10500   2.120   1.537   9.001  0.3596 -0.3709  0.9616
   77MOL0     C10501   2.218   1.494   8.898  0.2534 -0.1556  0.3703
   77MOL0     C10502   2.289   1.361   8.926  0.2481  0.1216  0.4234
   77MOL0     C10503   2.363   1.309   8.805 -0.2977  0.3146 -0.3441
   77MOL0     C10504   2.481   1.397   8.763 -0.5102 -0.4376 -0.8146
   77MOL0     N10505   2.566   1.325   8.671 -0.6417 -0.3661  0.6627
   77MOL0     C10506   2.634   1.200   8.694  0.2992 -0.3416 -0.1471
   77MOL0     C10507   2.688   1.166   8.573 -0.3051  0.4878 -0.0514
   77MOL0     C10508   2.771   1.042   8.552 -0.3220 -0.2646 -0.0901
   77MOL0     C10509   2.915   1.069   8.500  0.4670  0.4796 -0.1545
   77MOL0     C10510   2.931   1.140   8.363 -0.8745 -0.5810 -0.0709
   77MOL0     C10511   3.077   1.147   8.323 -0.8460  0.1929  0.4971
   77MOL0     O10512   3.105   1.072   8.205  0.1990  0.4312 -0.4920
   77MOL0     C10513   3.054   1.108   8.083  0.7964 -0.2680 -0.4285
   77MOL0     C10514   2.973   1.223   8.061 -0.0670 -0.7945  0.3771
   77MOL0     C10515   2.955   1.256   7.928  0.4301  0.0639 -0.7441
   77MOL0     C10516   2.867   1.374   7.905 -0.8952  0.1072 -0.5576
   77MOL0     C10517   3.012   1.179   7.821 -0.4873 -0.3341  0.0638
   77MOL0     C10518   2.997   1.215   7.675 -0.9118 -0.1793  0.4027
   77MOL0     O10519   3.114   1.247   7.618  0.0220 -0.2205  0.0518
   77MOL0     C10520   3.122   1.296   7.487  0.4479  0.4548  0.0497
   77MOL0     C10521   3.250   1.309   7.435 -1.3335 -0.4201  0.2979
   77MOL0     C10522   3.274   1.346   7.298  0.7846 -0.3382  0.2402
   77MOL0     C10523   3.167   1.365   7.217  0.1979  0.3566 -0.7345
   77MOL0     O10524   3.188   1.391   7.080  0.2186 -0.0697 -0.1161
   77MOL0     C10525   3.150   1.526   7.049 -0.5621 -0.5613  0.4572
   77MOL0     C10526   3.190   1.545   6.898 -0.6209  0.6526  0.4332
   77MOL0     C10527   3.345   1.558   6.891 -0.1830  0.5206  0.5114
   77MOL0     C10528   3.391   1.553   6.744  0.1486  0.6523 -0.0611
   77MOL0     C10529   3.547   1.567   6.726 -0.6820  0.2760 -0.2575
   77MOL0     C10530   3.622   1.441   6.748 -0.4307  0.2206  0.0781
   77MOL0     C10531   3.575   1.314   6.673 -0.0896  0.3701  0.1837
   77MOL0     C10532   3.674   1.191   6.689  0.8394 -0.2950 -0.0086
   77MOL0    Cl10533   3.670   1.116   6.855  0.2560  0.2506  0.0390
   77MOL0     C10534   3.037   1.361   7.272 -0.5681 -0.0934 -0.2223
   77MOL0     C10535   3.013   1.338   7.409  0.2175 -0.0614  0.3094
   77MOL0     O10536   2.887   1.196   7.623 -0.3993  0.4307  0.4089
   77MOL0     C10537   3.089   1.063   7.852  0.0511 -0.4261 -0.3188
   77MOL0     C10538   3.103   1.027   7.984 -0.6606  0.8666 -0.1274
   77MOL0     N10539   2.658   1.266   8.487 -0.0817  0.4295  0.1551
   77MOL0     N10540   2.583   1.353   8.542 -0.8266  0.1438 -0.3952
   77MOL0     C10541   2.342   1.946   9.311  0.8532 -0.1257  0.7912
   77MOL0     C10542   2.423   2.030   9.386  0.5605 -0.1597 -0.5253
   77MOL0     C10543   2.576   2.401   9.607 -0.0168 -0.0559  0.8993
   77MOL0     C10544   2.570   2.349   9.737  0.0132  0.9734  0.6030
   77MOL0     C10545   2.681   2.367   9.821 -0.4872 -0.3094  0.2933
   77MOL0     C10546   2.780   2.461   9.786  0.3450 -0.4960 -0.0753
   77MOL0     O10547   2.893   2.470   9.867 -0.0119 -0.3213  0.2485
   77MOL0     C10548   3.017   2.516   9.805  0.1665 -0.0357 -0.8132
   77MOL0     C10549   3.129   2.503   9.911 -0.6320 -0.7210  0.8620
   77MOL0     C10550   3.113   2.572  10.042  0.1664  0.1222 -0.7932
   77MOL0     C10551   3.106   2.727  10.022 -0.6157 -0.2862  0.3978
   77MOL0     C10552   3.243   2.781   9.992 -0.7212  0.9271  0.5388
   77MOL0     C10553   3.348   2.837   9.966 -0.2679  0.3183 -0.1316
   77MOL0     C10554   2.777   2.530   9.661 -0.4967  0.2925 -0.0185
   77MOL0     C10555   2.677   2.500   9.574 -0.6040  1.3142 -0.3384
   77MOL0     C10556   2.676   2.567   9.440 -0.0326 -0.2050  0.6661
   77MOL0     H10557   2.194   2.250   9.501  0.6233 -0.4429  0.7779
   77MOL0     H10558   2.041   2.112   9.349  0.3133  0.1214  0.1887
   77MOL0     H10559   2.233   1.766   9.127 -2.3235 -0.7653  3.4304
   77MOL0     H10560   2.202   1.915   9.035  3.4219 -0.5869 -0.4629
   77MOL0     H10561   1.988   1.729   9.150 -2.9760  2.5624  1.2131
   77MOL0     H10562   1.959   1.864   9.037 -0.6121 -1.1989 -1.6210
   77MOL0     H10563   1.953   1.650   8.910  1.9439 -0.1386 -1.8327
   77MOL0     H10564   2.104   1.724   8.872 -2.7199  0.9456 -1.1844
   77MOL0     H10565   2.179   1.561   9.090  1.5835 -1.1792  0.3930
   77MOL0     H10566   2.044   1.463   9.026  0.2152 -1.0104 -1.1877
   77MOL0     H10567   2.286   1.579   8.882  0.0344  0.4127  2.1970
   77MOL0     H10568   2.162   1.475   8.807 -1.6917 -0.7908  1.6329
   77MOL0     H10569   2.354   1.368   9.014  2.1951  1.0834 -0.9957
   77MOL0     H10570   2.221   1.285   8.964  1.3320 -0.6825  0.8092
   77MOL0     H10571   2.296   1.289   8.720  0.2639  2.5151 -1.3727
   77MOL0     H10572   2.407   1.216   8.842  0.9010  1.1928  0.4805
   77MOL0     H10573   2.440   1.493   8.729 -3.8491 -1.2711  0.4531
   77MOL0     H10574   2.541   1.406   8.854  0.1468  0.4857 -1.3270
   77MOL0     H10575   2.625   1.146   8.788  0.4929  4.1380  2.7858
   77MOL0     H10576   2.718   0.973   8.485 -0.2201  1.9430 -2.6278
   77MOL0     H10577   2.785   0.988   8.646  0.7921  1.1627  0.5949
   77MOL0     H10578   2.962   1.124   8.582  0.3059 -2.5236  2.1534
   77MOL0     H10579   2.973   0.978   8.480  0.6199  0.7833 -1.1533
   77MOL0     H10580   2.865   1.090   8.291  1.7701 -4.5630 -0.0303
   77MOL0     H10581   2.894   1.242   8.378 -0.3830 -0.5219  0.8060
   77MOL0     H10582   3.098   1.254   8.311 -2.4235  0.7357  2.0719
   77MOL0     H10583   3.138   1.109   8.405  1.7024 -0.8658 -1.7590
   77MOL0     H10584   2.945   1.293   8.139 -3.0327 -0.9862 -0.4006
   77MOL0     H10585   2.875   1.444   7.989  3.6586  0.7856 -1.3323
   77MOL0     H10586   2.770   1.331   7.877 -0.3132 -1.0900 -0.7714
   77MOL0     H10587   2.908   1.420   7.815  2.7856 -0.6125  0.5877
   77MOL0     H10588   3.327   1.287   7.508 -1.3022 -0.1681  0.3439
   77MOL0     H10589   3.374   1.347   7.254  0.2555  1.7537 -1.0920
   77MOL0     H10590   3.043   1.539   7.067 -0.5522  2.2381 -0.8948
   77MOL0     H10591   3.186   1.610   7.109 -1.2272 -0.0138  0.1020
   77MOL0     H10592   3.158   1.455   6.844  0.2029 -0.3539  1.5566
   77MOL0     H10593   3.158   1.640   6.856  0.7179 -0.2646 -2.9405
   77MOL0     H10594   3.392   1.476   6.947 -2.6595 -2.6121 -1.6682
   77MOL0     H10595   3.368   1.658   6.929 -2.5018  0.5675  2.0337
   77MOL0     H10596   3.359   1.645   6.694 -1.4719  0.3691  0.3889
   77MOL0     H10597   3.347   1.466   6.695 -3.0001  0.2996  3.0205
   77MOL0     H10598   3.551   1.599   6.622  0.9542  3.5671  0.6862
   77MOL0     H10599   3.585   1.643   6.795  0.1391 -0.4321  0.0925
   77MOL0     H10600   3.610   1.417   6.854 -0.7436 -2.9117 -0.5667
   77MOL0     H10601   3.729   1.446   6.724 -0.5800 -0.0980 -0.6861
   77MOL0     H10602   3.570   1.331   6.566  0.2148 -2.2180 -0.3088
   77MOL0     H10603   3.476   1.279   6.703 -0.4420  1.4560  0.3128
   77MOL0     H10604   3.775   1.226   6.668  0.7190 -0.2990 -0.6089
   77MOL0     H10605   3.666   1.111   6.615 -1.0974 -0.0697 -0.1050
   77MOL0     H10606   2.953   1.389   7.210  0.8076  0.1702 -2.0558
   77MOL0     H10607   2.913   1.347   7.450 -0.4472  1.1347 -1.4458
   77MOL0     H10608   3.129   0.998   7.775  0.4442 -1.0840  0.4317
   77MOL0     H10609   3.159   0.935   8.001 -0.2922  0.7156 -1.9719
   77MOL0     H10610   2.388   1.864   9.258  0.0052  0.2824 -0.6454
   77MOL0     H10611   2.526   2.000   9.372  0.1092 -1.9092 -0.3651
   77MOL0     H10612   2.498   2.271   9.757  0.3165  0.7729  0.9333
   77MOL0     H10613   2.683   2.322   9.920 -0.1674 -2.7707 -0.7816
   77MOL0     H10614   3.023   2.454   9.716 -2.3196 -0.2047 -0.9321
   77MOL0     H10615   3.019   2.621   9.776  0.3300 -0.2972 -1.7815
   77MOL0     H10616   3.215   2.542   9.855 -1.9688  1.7375  0.3762
   77MOL0     H10617   3.154   2.398   9.930 -0.1144 -0.4532  1.7106
   77MOL0     H10618   3.013   2.542  10.075  0.6721 -0.5671  0.1914
   77MOL0     H10619   3.183   2.543  10.122  1.2129 -0.0971 -1.7641
   77MOL0     H10620   3.076   2.771  10.117  0.3578 -0.7472  0.9369
   77MOL0     H10621   3.028   2.756   9.952 -1.3961  1.2026  1.8250
   77MOL0     H10622   3.445   2.879   9.950  0.6502 -1.8820 -0.7197
   77MOL0     H10623   2.858   2.593   9.626  0.3539 -0.5232  0.4239
   77MOL0     H10624   2.706   2.499   9.359 -1.9523 -1.0475  0.6071
   77MOL0     H10625   2.577   2.609   9.421  0.4789  0.7719  0.0126
   77MOL0     H10626   2.745   2.653   9.444  1.5640 -1.4525  1.1557
   78MOL0     O10627   6.432   5.694   3.872  0.1590  0.4657  0.2392
   78MOL0     C10628   6.420   5.613   3.967  0.4330  0.2933 -0.1710
   78MOL0     O10629   6.334   5.631   4.071  0.3662  0.2709 -0.4609
   78MOL0     C10630   6.250   5.740   4.064 -0.2861  0.9908 -0.6140
   78MOL0     C10631   6.297   5.874   4.039 -0.0276 -0.2919  0.3479
   78MOL0     C10632   6.215   5.982   4.068 -0.7644 -0.5410 -0.2274
   78MOL0     C10633   6.085   5.963   4.114 -0.2507 -0.1133 -0.7882
   78MOL0     O10634   6.001   6.066   4.147 -0.5764 -0.4282 -0.5371
   78MOL0     C10635   6.047   6.202   4.162  0.0514 -0.0124 -0.0583
   78MOL0     C10636   5.948   6.297   4.222 -0.1193  0.2988  0.3199
   78MOL0     C10637   6.010   6.417   4.289  0.7603 -0.1970  0.1727
   78MOL0     C10638   6.087   6.505   4.200  0.4150 -0.0075 -0.1665
   78MOL0     C10639   6.121   6.639   4.259  0.5424  0.9242 -0.5154
   78MOL0     C10640   6.208   6.641   4.390  0.8303  0.5822 -0.4812
   78MOL0     C10641   6.331   6.552   4.382  0.1147  0.7447  0.3214
   78MOL0     C10642   6.429   6.571   4.495 -0.1415  0.8792 -0.0788
   78MOL0     N10643   6.536   6.474   4.470  0.7453  0.0491 -0.2374
   78MOL0     C10644   6.666   6.504   4.424 -0.1638  0.0981  0.1210
   78MOL0     C10645   6.729   6.385   4.433 -0.4228  0.5185 -0.1185
   78MOL0     C10646   6.862   6.354   4.391  0.1491  0.0286 -0.0829
   78MOL0     C10647   6.968   6.369   4.497 -0.0941  0.4158  0.1661
   78MOL0     C10648   7.105   6.337   4.431  0.8480  0.3035 -0.3066
   78MOL0     C10649   7.211   6.348   4.539  0.6305 -0.2967  0.3704
   78MOL0     O10650   7.220   6.480   4.594  0.0640 -0.7430  0.4806
   78MOL0     C10651   7.203   6.496   4.731  0.0908 -0.1780  1.1996
   78MOL0     C10652   7.178   6.625   4.783 -0.6955 -0.1820  0.4627
   78MOL0     C10653   7.150   6.659   4.917  0.0469 -0.0798  0.4998
   78MOL0     C10654   7.142   6.804   4.949 -0.0958  0.5346 -0.1163
   78MOL0     C10655   7.142   6.556   5.006 -0.8733 -0.0983 -0.4095
   78MOL0     C10656   7.113   6.565   5.155 -0.5353  0.3179  0.1932
   78MOL0     O10657   7.075   6.688   5.195 -0.0341 -0.2874  0.0030
   78MOL0     C10658   6.968   6.688   5.276  0.3932 -0.0501  0.2797
   78MOL0     C10659   6.849   6.735   5.223 -0.4507  0.1469 -1.1890
   78MOL0     C10660   6.739   6.753   5.310  0.3912 -0.4351  0.4531
   78MOL0     C10661   6.749   6.744   5.446  0.5231 -0.0710 -0.1985
   78MOL0     O10662   6.658   6.769   5.545 -0.1852 -0.7388 -0.7340
   78MOL0     C10663   6.524   6.803   5.501  0.3695  0.4149  0.2526
   78MOL0     C10664   6.432   6.854   5.611 -0.7889  0.3445  0.3453
   78MOL0     C10665   6.383   6.743   5.704  0.2999  0.5271  0.6746
   78MOL0     C10666   6.489   6.696   5.800 -0.2590 -0.4823  0.4784
   78MOL0     C10667   6.424   6.585   5.893  0.3689  0.5476  1.2243
   78MOL0     C10668   6.372   6.636   6.022  0.0423 -0.3347 -0.4710
   78MOL0     C10669   6.303   6.535   6.109 -0.2838  0.2940 -0.6268
   78MOL0     C10670   6.402   6.487   6.210  0.6591 -0.3841  0.7248
   78MOL0    Cl10671   6.429   6.620   6.333  0.5492 -0.2933  0.1041
   78MOL0     C10672   6.871   6.718   5.495  0.3071 -0.5295 -0.8784
   78MOL0     C10673   6.980   6.687   5.412  0.2307  0.9340  0.0859
   78MOL0     O10674   7.113   6.469   5.230  0.8560 -0.4913 -0.2519
   78MOL0     C10675   7.172   6.425   4.960  0.2435  0.2074  0.5674
   78MOL0     C10676   7.214   6.401   4.830  0.2394  0.1501 -0.8836
   78MOL0     N10677   6.642   6.284   4.471 -1.1016  0.2337  0.1137
   78MOL0     N10678   6.525   6.342   4.489  0.5950  0.6471  0.4074
   78MOL0     C10679   6.034   5.830   4.140 -0.4598  0.2524 -0.4720
   78MOL0     C10680   6.124   5.721   4.115 -0.1100 -0.0950  0.1950
   78MOL0     C10681   6.525   5.506   3.972  0.4715  0.1061 -0.2072
   78MOL0     C10682   6.572   5.455   4.101  0.1300 -0.5279  0.3309
   78MOL0     C10683   6.672   5.359   4.112  0.6164 -0.1160  1.3145
   78MOL0     C10684   6.725   5.301   3.996  0.1078 -0.2898 -0.2658
   78MOL0     O10685   6.826   5.210   4.004  0.2959 -0.1677 -0.5978
   78MOL0     C10686   6.874   5.150   4.129 -0.2213  0.1651  0.2696
   78MOL0     C10687   7.002   5.063   4.107 -0.4531 -0.5110 -0.0178
   78MOL0     C10688   6.980   4.941   4.008 -0.0716 -0.0717  0.2825
   78MOL0     C10689   7.098   4.853   4.022 -0.0677  1.0846 -0.0867
   78MOL0     C10690   7.092   4.731   3.940  0.0893  0.3468  0.4115
   78MOL0     C10691   7.084   4.624   3.889 -1.0879  0.2581  0.3096
   78MOL0     C10692   6.673   5.340   3.876  0.2668 -0.2473 -0.1690
   78MOL0     C10693   6.579   5.447   3.857 -0.0903  0.9905  0.1797
   78MOL0     C10694   6.532   5.467   3.713 -0.6914 -0.3349 -0.4017
   78MOL0     H10695   6.398   5.886   4.001 -1.1965 -0.4882 -3.1938
   78MOL0     H10696   6.255   6.079   4.043  2.2452 -1.6538 -0.1526
   78MOL0     H10697   6.058   6.236   4.059 -1.7904 -0.0664 -0.2997
   78MOL0     H10698   6.143   6.195   4.215  1.0682 -4.6136 -2.0279
   78MOL0     H10699   5.861   6.328   4.165 -0.7486 -1.0524  0.4994
   78MOL0     H10700   5.904   6.236   4.301 -0.5730 -1.0521 -0.9348
   78MOL0     H10701   5.927   6.472   4.334 -0.1121 -0.8587 -0.5866
   78MOL0     H10702   6.067   6.387   4.377 -1.2080 -4.1492  0.3559
   78MOL0     H10703   6.180   6.452   4.178  1.8051  1.1078  2.4881
   78MOL0     H10704   6.041   6.523   4.103  0.6954  2.7782  0.1469
   78MOL0     H10705   6.030   6.693   4.287  1.2951  0.5617  3.1054
   78MOL0     H10706   6.163   6.698   4.177 -1.3716  0.4823 -1.8982
   78MOL0     H10707   6.235   6.744   4.413  0.8678  0.6450 -0.7988
   78MOL0     H10708   6.143   6.602   4.469  1.9125 -3.8336 -1.4981
   78MOL0     H10709   6.387   6.563   4.289 -0.2659 -1.7349 -0.2651
   78MOL0     H10710   6.298   6.448   4.379  0.0069  0.7996 -1.0559
   78MOL0     H10711   6.482   6.665   4.509 -3.1332  2.6523  0.3648
   78MOL0     H10712   6.374   6.563   4.590  0.4017  1.3546  0.2794
   78MOL0     H10713   6.703   6.601   4.395 -1.3797  0.0835 -1.6419
   78MOL0     H10714   6.890   6.413   4.303  2.2763 -2.2420 -1.0588
   78MOL0     H10715   6.868   6.256   4.343  0.3062 -1.0135  1.9735
   78MOL0     H10716   6.975   6.473   4.530  3.5487  0.4916 -0.4676
   78MOL0     H10717   6.944   6.296   4.574 -2.6385 -0.2008 -1.1119
   78MOL0     H10718   7.100   6.231   4.405  0.6646 -0.0508  1.0814
   78MOL0     H10719   7.131   6.404   4.349  3.4912  2.0105  1.7707
   78MOL0     H10720   7.203   6.268   4.613  1.7850 -2.6517 -1.8758
   78MOL0     H10721   7.299   6.331   4.476 -0.6761  0.8085 -1.8763
   78MOL0     H10722   7.186   6.714   4.721 -1.2973  1.5392  2.7158
   78MOL0     H10723   7.114   6.863   4.860  0.9633  0.2452 -0.6605
   78MOL0     H10724   7.242   6.839   4.975  1.4528 -1.6490 -2.5664
   78MOL0     H10725   7.067   6.824   5.026  0.8564  1.3444  0.6330
   78MOL0     H10726   6.844   6.754   5.116  2.1498 -0.7406 -1.5337
   78MOL0     H10727   6.642   6.779   5.268 -0.3673 -1.1276  1.7033
   78MOL0     H10728   6.531   6.883   5.427  0.5751 -1.2071 -1.5630
   78MOL0     H10729   6.480   6.713   5.456 -1.2663  2.3577 -2.2551
   78MOL0     H10730   6.488   6.925   5.672  1.0175 -1.0570  0.4314
   78MOL0     H10731   6.357   6.913   5.558  0.2934  2.7105  1.2846
   78MOL0     H10732   6.350   6.660   5.641 -0.2413  1.7005 -0.6279
   78MOL0     H10733   6.297   6.779   5.761 -1.1980  0.1769 -1.2684
   78MOL0     H10734   6.537   6.781   5.849  1.2076 -0.8806 -0.2010
   78MOL0     H10735   6.574   6.657   5.743  1.8027  1.8396  1.7803
   78MOL0     H10736   6.347   6.524   5.844 -0.7619  0.9964  2.3981
   78MOL0     H10737   6.506   6.524   5.932  1.8306  1.4532 -0.2932
   78MOL0     H10738   6.298   6.709   5.988 -2.4709 -0.4424  4.0211
   78MOL0     H10739   6.445   6.699   6.074  1.2016  0.6550 -3.1185
   78MOL0     H10740   6.262   6.453   6.048  0.0808 -0.2736 -0.1217
   78MOL0     H10741   6.217   6.584   6.155  0.2471 -0.1585  0.9113
   78MOL0     H10742   6.497   6.456   6.164  0.0359 -2.8662  0.9497
   78MOL0     H10743   6.356   6.397   6.253  0.0716 -0.3001  0.2762
   78MOL0     H10744   6.890   6.713   5.602 -3.0985  0.8604 -0.0807
   78MOL0     H10745   7.077   6.655   5.447  0.4370  1.6076  0.1322
   78MOL0     H10746   7.170   6.334   5.020 -3.5016 -0.2838 -0.0440
   78MOL0     H10747   7.253   6.301   4.823  0.6938 -0.1447  3.2425
   78MOL0     H10748   5.930   5.810   4.166 -0.5221 -0.0553 -0.9493
   78MOL0     H10749   6.090   5.624   4.150 -2.3315  0.5135 -0.1548
   78MOL0     H10750   6.532   5.511   4.185 -1.6260  0.3228 -1.0123
   78MOL0     H10751   6.704   5.353   4.215 -0.5813 -0.1016  1.7027
   78MOL0     H10752   6.899   5.228   4.201  0.2758 -2.3141  2.9489
   78MOL0     H10753   6.787   5.098   4.170 -2.0042  1.2682 -1.8268
   78MOL0     H10754   7.029   5.023   4.205 -0.8573 -0.0889  0.2709
   78MOL0     H10755   7.087   5.123   4.073 -1.3113  2.5928  2.7511
   78MOL0     H10756   6.897   4.887   4.053  0.1209  0.0382  0.7787
   78MOL0     H10757   6.969   4.978   3.906 -0.0891  1.4601  0.8099
   78MOL0     H10758   7.096   4.806   4.121 -0.1728 -0.2436 -0.6946
   78MOL0     H10759   7.193   4.904   4.002  2.4748 -2.0753  2.7583
   78MOL0     H10760   7.081   4.530   3.838 -0.0702 -0.5308  1.6369
   78MOL0     H10761   6.725   5.285   3.798  2.3786  0.9761  0.3174
   78MOL0     H10762   6.557   5.567   3.676  1.4282 -0.6978 -0.1018
   78MOL0     H10763   6.552   5.377   3.653 -1.4773 -0.2544 -0.7954
   78MOL0     H10764   6.423   5.465   3.718 -0.6288 -0.1132  2.2486
   79MOL0     O10765   2.294   8.915   1.373  0.5941 -0.2382 -0.4520
   79MOL0     C10766   2.286   8.830   1.288 -0.3637  0.1839 -0.2461
   79MOL0     O10767   2.387   8.807   1.194  0.2738 -0.6847 -0.3184
   79MOL0     C10768   2.511   8.865   1.211 -0.3627  1.6178 -0.0087
   79MOL0     C10769   2.565   8.913   1.096 -0.0039  0.1035  0.1392
   79MOL0     C10770   2.691   8.978   1.110  0.5955 -0.3876  0.2754
   79MOL0     C10771   2.759   8.980   1.222  0.0650  0.0356  0.2736
   79MOL0     O10772   2.881   9.047   1.221  0.2626  0.2969  0.2811
   79MOL0     C10773   2.956   9.044   1.340 -0.7475  1.1465  0.8280
   79MOL0     C10774   3.097   9.093   1.310  0.6797  0.3459 -0.1051
   79MOL0     C10775   3.180   9.050   1.428  0.6249 -0.6995 -0.5027
   79MOL0     C10776   3.328   9.068   1.386  0.1284 -0.1941 -0.3517
   79MOL0     C10777   3.429   9.026   1.500  0.3755 -0.0898 -0.4074
   79MOL0     C10778   3.557   8.957   1.443 -0.5815 -0.1766  0.0387
   79MOL0     C10779   3.657   8.931   1.567  0.4542 -0.1977  0.1848
   79MOL0     C10780   3.806   8.906   1.533  0.0085  0.0558 -0.5119
   79MOL0     N10781   3.822   8.805   1.428  0.1358  0.2984 -0.0398
   79MOL0     C10782   3.788   8.673   1.435  0.4961  0.0472 -0.5092
   79MOL0     C10783   3.820   8.621   1.310  0.0588 -0.2616  0.0464
   79MOL0     C10784   3.796   8.477   1.268 -0.6849 -0.0423  0.9035
   79MOL0     C10785   3.920   8.398   1.231 -1.4795 -0.2765 -0.1090
   79MOL0     C10786   4.038   8.411   1.329  0.5018 -0.4514 -0.1011
   79MOL0     C10787   4.143   8.304   1.312 -0.2749  0.2427  0.6604
   79MOL0     O10788   4.189   8.298   1.179  0.1213  0.2637 -0.7125
   79MOL0     C10789   4.284   8.397   1.153 -0.2233  0.0850  0.3847
   79MOL0     C10790   4.269   8.453   1.023  1.1323  0.7639 -0.3142
   79MOL0     C10791   4.338   8.567   0.985  0.7529 -0.1161  1.2417
   79MOL0     C10792   4.320   8.636   0.847 -0.2976  0.3531  0.3072
   79MOL0     C10793   4.450   8.602   1.066 -0.0253  0.8407  0.6890
   79MOL0     C10794   4.538   8.706   1.027 -0.0825  0.1324 -0.3873
   79MOL0     O10795   4.500   8.837   1.051 -0.3559  0.0237  0.1212
   79MOL0     C10796   4.582   8.934   1.006 -0.3728 -0.0687  0.2854
   79MOL0     C10797   4.650   9.019   1.087  0.4649  0.1554  0.5983
   79MOL0     C10798   4.747   9.106   1.034  1.4119 -0.1025  0.5386
   79MOL0     C10799   4.769   9.123   0.900 -0.9765  0.2908  0.3492
   79MOL0     O10800   4.854   9.221   0.864 -0.1912  0.1991 -0.0753
   79MOL0     C10801   4.846   9.283   0.735  0.7961  0.3061 -0.0046
   79MOL0     C10802   4.973   9.380   0.734 -0.0206  0.7543 -0.6501
   79MOL0     C10803   4.949   9.499   0.636 -0.4675  0.3725 -1.1950
   79MOL0     C10804   4.929   9.455   0.490 -0.5540  0.7519  0.5946
   79MOL0     C10805   4.900   9.555   0.387 -0.0209  0.3372  0.4490
   79MOL0     C10806   4.780   9.640   0.424  0.4815  0.6702 -0.4171
   79MOL0     C10807   4.713   9.696   0.303 -0.0029 -0.3355  0.1949
   79MOL0     C10808   4.570   9.757   0.325 -0.8198 -0.0241 -0.0505
   79MOL0    Cl10809   4.456   9.665   0.419  0.0204  0.3838 -0.4054
   79MOL0     C10810   4.699   9.039   0.817  0.1524 -0.3516  0.5973
   79MOL0     C10811   4.608   8.949   0.871 -0.1194  0.4343 -0.2434
   79MOL0     O10812   4.645   8.668   0.981 -0.4818 -0.2570 -0.2921
   79MOL0     C10813   4.475   8.541   1.193  0.2992  0.1499 -0.0908
   79MOL0     C10814   4.391   8.435   1.233 -0.1113 -0.3571 -0.7580
   79MOL0     N10815   3.859   8.722   1.225  0.1841  0.3665  0.3470
   79MOL0     N10816   3.847   8.830   1.295  0.0489 -0.4796  0.2196
   79MOL0     C10817   2.704   8.928   1.347  0.4891  0.8414  0.0013
   79MOL0     C10818   2.575   8.867   1.333 -0.1364 -0.1726  0.2404
   79MOL0     C10819   2.160   8.750   1.294  0.8814 -0.6965 -0.7059
   79MOL0     C10820   2.069   8.776   1.403 -0.1304  0.1201  0.4950
   79MOL0     C10821   1.957   8.693   1.429  0.0994 -0.1678 -0.3080
   79MOL0     C10822   1.918   8.589   1.345  0.3077 -0.2510 -0.3706
   79MOL0     O10823   1.810   8.514   1.383  0.6359 -0.0863  0.2701
   79MOL0     C10824   1.796   8.377   1.362 -0.0379  0.0480  0.0977
   79MOL0     C10825   1.714   8.312   1.479 -0.4813  0.1724  0.6675
   79MOL0     C10826   1.572   8.335   1.478 -0.2259  0.7937  0.2942
   79MOL0     C10827   1.490   8.207   1.508  0.1724 -0.2171  0.0631
   79MOL0     C10828   1.347   8.235   1.504 -0.7929  0.4442  0.9044
   79MOL0     C10829   1.227   8.241   1.529 -0.6793  0.2877  0.4241
   79MOL0     C10830   2.004   8.567   1.235 -0.2703  0.1563 -0.3159
   79MOL0     C10831   2.125   8.640   1.207  0.0222 -0.9812 -0.9158
   79MOL0     C10832   2.224   8.600   1.097  0.1076 -0.4001  0.2598
   79MOL0     H10833   2.503   8.920   1.007 -0.8897 -4.4062  0.1645
   79MOL0     H10834   2.721   9.037   1.024 -2.1872 -1.4471 -1.5789
   79MOL0     H10835   2.967   8.943   1.381  1.4923  0.4841 -1.1672
   79MOL0     H10836   2.907   9.108   1.415  0.2603  1.7565  0.9793
   79MOL0     H10837   3.135   9.052   1.216 -2.3474 -0.6620 -1.0093
   79MOL0     H10838   3.095   9.203   1.305  0.5484  0.3834  0.6735
   79MOL0     H10839   3.144   9.115   1.508 -1.4385 -0.7819 -1.3096
   79MOL0     H10840   3.159   8.946   1.455 -2.4724  0.4809  2.3566
   79MOL0     H10841   3.355   9.008   1.298  0.1182  1.1788 -1.3255
   79MOL0     H10842   3.353   9.172   1.361  1.0063  0.4171  2.6312
   79MOL0     H10843   3.375   8.951   1.560  2.3549 -0.0303  1.6033
   79MOL0     H10844   3.448   9.114   1.561 -3.4960  0.8625 -0.3413
   79MOL0     H10845   3.533   8.864   1.392 -1.9575 -1.5998  3.0713
   79MOL0     H10846   3.611   9.014   1.367  0.2659 -1.0118 -0.0054
   79MOL0     H10847   3.628   8.854   1.639  2.1111  1.0968  2.3839
   79MOL0     H10848   3.657   9.030   1.615  1.7421  0.5913 -1.3148
   79MOL0     H10849   3.856   8.996   1.496 -0.1862  0.4821  0.2470
   79MOL0     H10850   3.869   8.874   1.616 -1.3520 -3.1790 -0.5765
   79MOL0     H10851   3.742   8.627   1.521 -1.4721  1.5054 -0.7197
   79MOL0     H10852   3.746   8.477   1.171  0.5528  1.5652  0.2070
   79MOL0     H10853   3.738   8.418   1.339  0.6925 -0.6736  1.5518
   79MOL0     H10854   3.892   8.295   1.207  1.7362 -1.5791  1.2327
   79MOL0     H10855   3.952   8.442   1.136 -0.3814 -1.0072 -0.0901
   79MOL0     H10856   4.085   8.509   1.314 -0.6589 -0.0579 -1.3381
   79MOL0     H10857   3.992   8.409   1.429 -2.4945 -1.4975 -1.3840
   79MOL0     H10858   4.226   8.317   1.382  0.7807  0.3556 -0.5839
   79MOL0     H10859   4.076   8.219   1.329  0.8912 -0.4851  1.7511
   79MOL0     H10860   4.184   8.420   0.965 -0.9517  1.5411  2.0975
   79MOL0     H10861   4.253   8.577   0.782 -0.8415  1.3077 -0.0226
   79MOL0     H10862   4.415   8.633   0.793 -0.0986 -2.2721  0.6362
   79MOL0     H10863   4.279   8.737   0.853 -0.4813  0.4017 -1.2819
   79MOL0     H10864   4.639   9.012   1.195 -1.1248 -0.0036  0.4590
   79MOL0     H10865   4.801   9.166   1.107  2.1215  1.7454 -1.4175
   79MOL0     H10866   4.846   9.209   0.655  1.7384 -0.2277  0.4710
   79MOL0     H10867   4.759   9.349   0.734  1.4505  1.2546  1.4951
   79MOL0     H10868   4.996   9.427   0.830  0.9687  1.5113 -1.2301
   79MOL0     H10869   5.060   9.323   0.701  0.1684  1.2096 -0.9485
   79MOL0     H10870   5.039   9.562   0.632 -0.8984  1.0501 -0.4718
   79MOL0     H10871   4.865   9.562   0.664  1.4518  2.9413 -0.8417
   79MOL0     H10872   4.841   9.391   0.476 -0.6716  0.7931  1.1168
   79MOL0     H10873   5.022   9.404   0.461 -0.4003  1.8160 -0.9041
   79MOL0     H10874   4.990   9.614   0.374  0.3924 -0.3099  0.3148
   79MOL0     H10875   4.890   9.490   0.299  1.1317  1.1251 -0.2931
   79MOL0     H10876   4.789   9.721   0.497  0.7000  2.6888 -2.5936
   79MOL0     H10877   4.708   9.569   0.467  0.1631  0.9850 -0.4295
   79MOL0     H10878   4.702   9.616   0.228 -0.5981  0.3240 -0.4358
   79MOL0     H10879   4.778   9.766   0.252  0.3263 -1.6970 -1.3389
   79MOL0     H10880   4.516   9.787   0.235 -1.7176  1.6512  0.9989
   79MOL0     H10881   4.584   9.845   0.388 -1.9665 -1.5822  2.5396
   79MOL0     H10882   4.691   9.049   0.709 -0.3205  2.2326  0.7993
   79MOL0     H10883   4.562   8.888   0.794  1.9982 -0.4771 -0.8434
   79MOL0     H10884   4.558   8.571   1.255 -0.0626  4.4228 -1.2995
   79MOL0     H10885   4.413   8.383   1.326  1.1580  0.0827 -0.7915
   79MOL0     H10886   2.750   8.936   1.445 -0.4236 -1.2648  0.6754
   79MOL0     H10887   2.516   8.818   1.410  0.2696 -1.3736 -0.2012
   79MOL0     H10888   2.090   8.850   1.479 -3.0969  2.3564 -0.6834
   79MOL0     H10889   1.893   8.711   1.515 -1.8708  0.3611 -1.7948
   79MOL0     H10890   1.734   8.362   1.273 -1.0093 -0.6111  0.8657
   79MOL0     H10891   1.896   8.337   1.343 -0.1482 -1.0839  1.7372
   79MOL0     H10892   1.766   8.364   1.560  0.0107  2.0784 -0.8021
   79MOL0     H10893   1.735   8.205   1.492 -1.3494  0.1744  2.2862
   79MOL0     H10894   1.550   8.425   1.537 -2.4007  0.3152  0.2967
   79MOL0     H10895   1.551   8.371   1.377 -0.7864  0.2735  0.2200
   79MOL0     H10896   1.507   8.166   1.608 -1.5297  1.6374  1.1945
   79MOL0     H10897   1.520   8.133   1.434  2.2526  1.4319 -0.8439
   79MOL0     H10898   1.122   8.225   1.543 -0.8201  2.6551  3.2581
   79MOL0     H10899   1.979   8.500   1.154 -2.0706  0.1490  0.1854
   79MOL0     H10900   2.219   8.675   1.018 -0.4885  1.2567  1.8056
   79MOL0     H10901   2.330   8.590   1.123  0.7882  2.5804 -1.0485
   79MOL0     H10902   2.187   8.511   1.046 -1.3549 -0.8648  2.0165
   80MOL0     O10903  11.170   5.451   8.102  0.7991  0.7565 -0.2297
   80MOL0     C10904  11.135   5.564   8.120  0.6001 -0.0319 -0.1019
   80MOL0     O10905  11.019   5.603   8.154  0.6448  0.8109 -0.4926
   80MOL0     C10906  10.917   5.503   8.174  0.0553 -1.6341  0.6575
   80MOL0     C10907  10.817   5.492   8.082  0.8173  0.0100  0.0120
   80MOL0     C10908  10.705   5.409   8.119  0.2172  0.3779 -0.0880
   80MOL0     C10909  10.707   5.334   8.233 -0.0501 -0.1627 -0.5907
   80MOL0     O10910  10.606   5.256   8.288  0.2316 -0.6593  0.2105
   80MOL0     C10911  10.483   5.261   8.208 -0.3637  0.3772  0.4618
   80MOL0     C10912  10.390   5.162   8.282  0.1497  1.1527 -0.2015
   80MOL0     C10913  10.438   5.021   8.262  0.5165 -0.2098  0.7445
   80MOL0     C10914  10.436   4.965   8.112 -0.8048  0.0871 -0.5389
   80MOL0     C10915  10.321   5.003   8.030  0.6428 -0.1457  0.5695
   80MOL0     C10916  10.352   4.962   7.882 -0.1551  0.4843 -0.6891
   80MOL0     C10917  10.479   5.023   7.827  0.7866 -0.1548  1.0525
   80MOL0     C10918  10.475   5.020   7.673  0.5254 -0.0751 -0.7790
   80MOL0     N10919  10.498   4.876   7.640  0.0057 -0.3557 -0.1095
   80MOL0     C10920  10.614   4.809   7.632  0.0031  0.3919 -0.1892
   80MOL0     C10921  10.579   4.681   7.618 -0.1962  0.3705 -0.0188
   80MOL0     C10922  10.668   4.560   7.661  0.2791  0.7267 -0.3684
   80MOL0     C10923  10.714   4.555   7.809 -0.3956  0.3050  0.9609
   80MOL0     C10924  10.769   4.420   7.842 -0.5353 -0.0690 -0.0945
   80MOL0     C10925  10.916   4.401   7.782 -0.2413  0.5181 -0.4800
   80MOL0     O10926  10.945   4.264   7.727  0.1210 -0.8050  0.3443
   80MOL0     C10927  10.997   4.184   7.824  1.1947 -0.5860  0.8215
   80MOL0     C10928  10.938   4.068   7.858  0.3927 -0.0460  0.2472
   80MOL0     C10929  10.983   3.977   7.957  1.3416 -0.3711 -0.5522
   80MOL0     C10930  10.879   3.866   7.992 -0.1008  0.8427  0.0063
   80MOL0     C10931  11.103   4.013   8.027  0.0329  0.1690 -0.2701
   80MOL0     C10932  11.168   3.931   8.134 -0.0137  0.8283  0.3068
   80MOL0     O10933  11.285   3.973   8.187 -0.4965 -0.1033 -0.3353
   80MOL0     C10934  11.342   3.896   8.291 -0.3411  0.3520  0.7249
   80MOL0     C10935  11.465   3.826   8.265 -0.4374 -0.2525  0.9195
   80MOL0     C10936  11.537   3.756   8.364  0.1917  0.0881  0.1444
   80MOL0     C10937  11.480   3.750   8.499  0.7582 -0.6937 -0.1362
   80MOL0     O10938  11.531   3.667   8.597  0.2428  0.2825  0.3026
   80MOL0     C10939  11.664   3.611   8.592 -0.0126 -0.8815  0.3755
   80MOL0     C10940  11.755   3.732   8.618  0.0183  0.1266 -0.3656
   80MOL0     C10941  11.909   3.690   8.622  0.0883  0.9247 -0.5729
   80MOL0     C10942  11.934   3.600   8.749 -0.3230 -0.6568 -0.6112
   80MOL0     C10943  12.077   3.623   8.806  0.8271  0.3140 -0.0713
   80MOL0     C10944  12.094   3.752   8.893  0.9058 -0.1797  0.2599
   80MOL0     C10945  12.229   3.752   8.956 -0.0719 -0.8801  0.0039
   80MOL0     C10946  12.363   3.764   8.878 -0.2816 -1.6975 -0.6318
   80MOL0    Cl10947  12.481   3.816   9.012 -0.2674  0.1192  0.2672
   80MOL0     C10948  11.353   3.803   8.516 -0.2516 -0.4665  0.2611
   80MOL0     C10949  11.287   3.887   8.420  0.4618  0.8665  0.2018
   80MOL0     O10950  11.114   3.820   8.155  0.0456  0.4770  0.2200
   80MOL0     C10951  11.157   4.133   7.995  0.4906 -0.5653  0.2639
   80MOL0     C10952  11.113   4.220   7.891 -0.0314 -0.2083  0.5464
   80MOL0     N10953  10.442   4.687   7.595  0.8785  0.1133 -0.9117
   80MOL0     N10954  10.399   4.806   7.590 -0.0638  0.2295 -0.3450
   80MOL0     C10955  10.821   5.336   8.315 -0.3455 -0.1071  0.4749
   80MOL0     C10956  10.927   5.414   8.281 -0.0891 -0.8244  0.2505
   80MOL0     C10957  11.231   5.677   8.089 -0.2061  0.3922  0.5362
   80MOL0     C10958  11.353   5.641   8.031 -0.3084 -0.2727 -0.4218
   80MOL0     C10959  11.456   5.740   7.994  0.1261  0.4054  0.0170
   80MOL0     C10960  11.424   5.873   8.022 -0.0682 -0.1402 -0.1481
   80MOL0     O10961  11.506   5.971   7.981 -0.4462 -0.6333  1.2918
   80MOL0     C10962  11.643   5.968   7.998 -0.1837 -0.0731  0.2398
   80MOL0     C10963  11.719   5.924   7.877  0.5132 -0.6358 -0.3572
   80MOL0     C10964  11.862   5.965   7.866 -1.2259 -0.0209  0.2570
   80MOL0     C10965  11.930   5.947   7.729  0.1600 -0.9363  0.0066
   80MOL0     C10966  11.972   5.808   7.720  0.2919  0.1225 -0.3335
   80MOL0     C10967  12.008   5.691   7.695  0.7997 -0.3928 -0.4370
   80MOL0     C10968  11.306   5.903   8.084  0.2393 -0.1522 -0.3654
   80MOL0     C10969  11.204   5.812   8.123 -0.5638  0.0780 -0.2458
   80MOL0     C10970  11.094   5.855   8.206  0.8811  0.2699  0.5727
   80MOL0     H10971  10.801   5.561   8.000 -0.3778  1.0212  1.0360
   80MOL0     H10972  10.614   5.423   8.062 -0.0958  1.4994  0.6545
   80MOL0     H10973  10.496   5.236   8.103  4.3042 -1.3057  1.2193
   80MOL0     H10974  10.437   5.360   8.215 -2.1131 -0.3804  0.2059
   80MOL0     H10975  10.394   5.177   8.391 -2.6786 -0.9541  0.3038
   80MOL0     H10976  10.285   5.179   8.259 -0.1848  1.8669  1.6351
   80MOL0     H10977  10.542   5.012   8.293  0.8059  2.1275  0.6205
   80MOL0     H10978  10.374   4.951   8.317 -3.2316 -0.4688 -3.3686
   80MOL0     H10979  10.530   5.009   8.078 -0.4262  0.7551  1.2526
   80MOL0     H10980  10.445   4.856   8.123  1.2968  0.3002  0.5441
   80MOL0     H10981  10.316   5.112   8.030  1.2975 -0.0956  1.4247
   80MOL0     H10982  10.226   4.975   8.076  1.3692 -0.4543  1.9730
   80MOL0     H10983  10.365   4.853   7.885  0.5930  0.5831  0.0299
   80MOL0     H10984  10.258   4.984   7.832  0.0907 -1.5365 -2.2096
   80MOL0     H10985  10.570   4.970   7.855 -1.1269 -3.5830  1.3790
   80MOL0     H10986  10.496   5.127   7.855  1.4656  0.6392 -1.9131
   80MOL0     H10987  10.376   5.042   7.633  1.7406  0.5344 -3.6921
   80MOL0     H10988  10.547   5.081   7.617  0.2059  3.2880  2.1113
   80MOL0     H10989  10.708   4.856   7.656  1.1348 -1.4027 -0.9181
   80MOL0     H10990  10.749   4.566   7.588 -0.9538  1.2853 -1.7378
   80MOL0     H10991  10.615   4.470   7.630 -0.7690  1.8057 -1.8487
   80MOL0     H10992  10.783   4.635   7.839  1.3810 -1.0598  0.6859
   80MOL0     H10993  10.616   4.568   7.857 -1.0838 -1.0499 -0.0231
   80MOL0     H10994  10.773   4.420   7.951  1.1812 -4.7007  0.0506
   80MOL0     H10995  10.704   4.338   7.809  0.7265 -0.5777 -1.4117
   80MOL0     H10996  10.930   4.471   7.698 -0.6402 -0.8143 -1.7068
   80MOL0     H10997  10.985   4.435   7.859 -0.7380  1.1891 -0.3194
   80MOL0     H10998  10.838   4.051   7.818 -0.7579 -0.2592  2.9551
   80MOL0     H10999  10.921   3.765   7.998 -2.4323 -0.1290  0.7838
   80MOL0     H11000  10.796   3.862   7.921 -3.8478  1.6352  3.9476
   80MOL0     H11001  10.833   3.884   8.089  0.3038  1.8700  0.0207
   80MOL0     H11002  11.495   3.814   8.162  0.7865  0.2073  1.2024
   80MOL0     H11003  11.625   3.699   8.338  0.1932  0.2108 -0.1264
   80MOL0     H11004  11.674   3.542   8.676  5.1117 -0.8379  0.1354
   80MOL0     H11005  11.683   3.561   8.496  0.6274  1.0919 -0.5995
   80MOL0     H11006  11.733   3.825   8.564  0.7187  0.1811 -0.5684
   80MOL0     H11007  11.733   3.774   8.717  0.3912  0.7752 -0.5537
   80MOL0     H11008  11.982   3.771   8.616  2.3375 -1.0677 -1.5528
   80MOL0     H11009  11.916   3.636   8.527 -1.4342  1.9445 -1.3164
   80MOL0     H11010  11.934   3.493   8.726  0.2519 -0.2496 -2.7010
   80MOL0     H11011  11.864   3.620   8.831  1.5021  0.4578  0.7378
   80MOL0     H11012  12.092   3.533   8.867 -0.3047  0.2065  0.0737
   80MOL0     H11013  12.156   3.621   8.731  1.0280 -2.9441  0.0755
   80MOL0     H11014  12.017   3.760   8.969  2.0037 -0.4352  1.4313
   80MOL0     H11015  12.093   3.839   8.827  0.8966 -1.6491 -1.7711
   80MOL0     H11016  12.235   3.666   9.023 -1.5636  0.2488  1.6972
   80MOL0     H11017  12.228   3.838   9.025 -2.7812 -1.2720  0.5703
   80MOL0     H11018  12.359   3.854   8.817  1.1150  1.1641  3.1487
   80MOL0     H11019  12.392   3.669   8.832 -0.4044 -1.3656 -1.4171
   80MOL0     H11020  11.305   3.781   8.611 -1.0208  0.5335  0.1259
   80MOL0     H11021  11.191   3.938   8.428 -1.0776 -1.3938 -2.0005
   80MOL0     H11022  11.233   4.171   8.063 -1.9067  1.7146  1.8655
   80MOL0     H11023  11.164   4.313   7.869 -1.0356  1.2899  3.9564
   80MOL0     H11024  10.821   5.258   8.390 -3.3966  0.7297  1.4953
   80MOL0     H11025  11.018   5.404   8.339 -1.2434  0.7414  2.5160
   80MOL0     H11026  11.363   5.536   8.006 -1.0488 -1.3917  3.3196
   80MOL0     H11027  11.551   5.703   7.955  1.0796 -1.5414  3.6971
   80MOL0     H11028  11.675   6.071   8.012  2.0772 -1.1159  4.1986
   80MOL0     H11029  11.669   5.912   8.089 -0.0034 -1.2561 -0.5117
   80MOL0     H11030  11.662   5.963   7.793 -2.4623 -2.1758  0.7945
   80MOL0     H11031  11.721   5.815   7.866  4.3585 -0.4419 -4.0771
   80MOL0     H11032  11.873   6.073   7.879 -3.4175  0.0936  1.5561
   80MOL0     H11033  11.918   5.922   7.950  0.0322  1.0568  0.0173
   80MOL0     H11034  12.016   6.014   7.740 -0.1976 -0.8601  3.5863
   80MOL0     H11035  11.867   5.989   7.650 -1.9085  1.1336  2.5222
   80MOL0     H11036  12.053   5.596   7.674 -0.5420 -1.6518  1.8418
   80MOL0     H11037  11.302   6.011   8.087  1.6698  0.0090 -2.4039
   80MOL0     H11038  11.002   5.852   8.147  0.3507  0.5134  1.3812
   80MOL0     H11039  11.077   5.786   8.289 -2.2166 -1.6988 -1.4808
   80MOL0     H11040  11.107   5.953   8.253  0.0950 -0.5087  2.4880
   81MOL0     O11041  10.531   6.797   2.335  0.1065 -0.7906 -0.2210
   81MOL0     C11042  10.413   6.775   2.354 -0.2592  0.0114 -0.2388
   81MOL0     O11043  10.347   6.667   2.304 -0.6904  1.6051  1.0621
   81MOL0     C11044  10.400   6.576   2.202 -0.1847  0.1297  1.0184
   81MOL0     C11045  10.296   6.494   2.155 -0.2722  0.3304  0.3053
   81MOL0     C11046  10.327   6.390   2.060  0.3142 -0.1465 -0.2822
   81MOL0     C11047  10.458   6.384   2.005  0.5930  0.0336  0.6831
   81MOL0     O11048  10.489   6.303   1.896 -0.3626  0.1829 -0.0362
   81MOL0     C11049  10.438   6.171   1.911 -0.8365 -0.3947  0.2194
   81MOL0     C11050  10.507   6.103   2.035  0.4938  0.2021  0.8271
   81MOL0     C11051  10.656   6.082   2.020 -0.3690  0.8477 -0.1208
   81MOL0     C11052  10.730   6.044   2.154 -0.3145 -0.0420  0.2144
   81MOL0     C11053  10.728   5.892   2.198  0.2256 -0.7778  0.5013
   81MOL0     C11054  10.827   5.865   2.308 -1.2195 -0.8212 -0.7365
   81MOL0     C11055  10.819   5.714   2.343  0.0790  0.0170 -1.1033
   81MOL0     C11056  10.898   5.628   2.241  0.2095 -0.4199 -0.7272
   81MOL0     N11057  10.927   5.505   2.321  0.4372 -0.0515 -0.5858
   81MOL0     C11058  10.837   5.427   2.388 -0.3011 -0.6278 -0.4675
   81MOL0     C11059  10.912   5.347   2.472  0.1467  0.8907  0.6462
   81MOL0     C11060  10.851   5.253   2.571  0.0814 -1.0064 -0.1366
   81MOL0     C11061  10.870   5.290   2.720  0.6037  0.0384 -0.0159
   81MOL0     C11062  10.864   5.178   2.823  0.3994 -0.3014  0.8363
   81MOL0     C11063  10.823   5.235   2.958  0.1417 -0.6223 -0.2098
   81MOL0     O11064  10.690   5.302   2.971 -0.0590 -0.0485  0.4484
   81MOL0     C11065  10.674   5.401   3.061 -0.2663 -0.1977 -0.3712
   81MOL0     C11066  10.560   5.474   3.060  0.3162 -0.5810  0.6339
   81MOL0     C11067  10.528   5.570   3.158  0.2191  0.6529  0.4096
   81MOL0     C11068  10.396   5.629   3.143  0.2229  0.2869  0.1773
   81MOL0     C11069  10.625   5.598   3.259 -0.2498 -0.6499  0.4095
   81MOL0     C11070  10.611   5.703   3.365  0.0166  0.2470 -0.1134
   81MOL0     O11071  10.647   5.674   3.495 -0.3115 -0.8472 -0.1538
   81MOL0     C11072  10.613   5.765   3.592 -0.5643 -0.4781  0.1955
   81MOL0     C11073  10.709   5.856   3.632 -0.3624  0.9249 -0.6307
   81MOL0     C11074  10.673   5.947   3.735 -0.1013 -0.7118 -0.0674
   81MOL0     C11075  10.541   5.941   3.794  0.2239 -0.0033  0.1375
   81MOL0     O11076  10.506   6.043   3.878  0.0027  0.1599 -0.4288
   81MOL0     C11077  10.438   6.009   3.996  0.6594  0.4369 -0.4089
   81MOL0     C11078  10.513   6.074   4.117 -0.9886  0.1024  0.4639
   81MOL0     C11079  10.474   6.218   4.134  0.0149 -0.0512  0.8895
   81MOL0     C11080  10.542   6.292   4.246 -0.4773  0.0985 -0.3677
   81MOL0     C11081  10.687   6.333   4.213 -0.3694 -0.2474  0.3359
   81MOL0     C11082  10.699   6.466   4.139 -0.0569 -0.5438  0.3210
   81MOL0     C11083  10.685   6.471   3.987  0.4935 -0.0002  0.7817
   81MOL0     C11084  10.728   6.344   3.919 -0.7527  0.0879  0.5939
   81MOL0    Cl11085  10.776   6.382   3.751 -0.4547  0.0457 -0.2854
   81MOL0     C11086  10.447   5.852   3.753  0.1801  0.6108  0.2238
   81MOL0     C11087  10.481   5.761   3.648 -0.0767  0.3849  0.3932
   81MOL0     O11088  10.551   5.799   3.324  0.8816  0.0964  0.9093
   81MOL0     C11089  10.742   5.522   3.263  0.2289 -0.4282  0.6502
   81MOL0     C11090  10.759   5.417   3.172  0.3688 -0.0177  1.0183
   81MOL0     N11091  11.049   5.378   2.452  0.1737  0.4435 -0.3049
   81MOL0     N11092  11.050   5.477   2.370  0.2473  0.2941  0.2930
   81MOL0     C11093  10.554   6.472   2.046  0.2763 -0.6283 -0.0855
   81MOL0     C11094  10.526   6.567   2.145 -0.4024  0.6359  0.3779
   81MOL0     C11095  10.340   6.882   2.442 -0.2324  0.1397 -0.0641
   81MOL0     C11096  10.414   6.998   2.484  0.4278  0.1691 -0.4239
   81MOL0     C11097  10.374   7.070   2.591 -0.6550  0.1320  0.5900
   81MOL0     C11098  10.254   7.049   2.652  0.9891  1.7455  0.3453
   81MOL0     O11099  10.221   7.132   2.753  0.0298  0.3811 -0.1820
   81MOL0     C11100  10.099   7.111   2.831 -0.1650  0.3520  0.2581
   81MOL0     C11101  10.121   7.000   2.936  0.1434 -0.4266 -0.1315
   81MOL0     C11102  10.244   7.034   3.033  0.4159 -0.0822  0.1451
   81MOL0     C11103  10.252   6.947   3.150  0.9280  0.3735 -0.4824
   81MOL0     C11104  10.382   6.929   3.205  0.0174 -0.9534  0.1554
   81MOL0     C11105  10.496   6.910   3.242  0.2846  0.6309  0.2066
   81MOL0     C11106  10.173   6.945   2.606 -0.6986  0.2994 -0.6616
   81MOL0     C11107  10.209   6.864   2.500  1.2420  0.4836  0.1126
   81MOL0     C11108  10.124   6.753   2.467  0.1239 -0.2862 -0.4206
   81MOL0     H11109  10.196   6.518   2.190 -0.5664  1.5581 -1.2641
   81MOL0     H11110  10.249   6.329   2.015  1.8027 -0.6865 -2.2804
   81MOL0     H11111  10.470   6.116   1.823  1.0689  1.8559 -0.5846
   81MOL0     H11112  10.330   6.161   1.922 -0.5772 -0.9411  3.4621
   81MOL0     H11113  10.483   6.176   2.112 -2.4972  0.3771 -0.1483
   81MOL0     H11114  10.460   6.010   2.069 -1.1681  1.9642  3.8029
   81MOL0     H11115  10.663   5.997   1.951 -2.1735  1.1588 -0.7502
   81MOL0     H11116  10.706   6.162   1.965 -0.1913  0.2785 -0.8163
   81MOL0     H11117  10.836   6.067   2.136 -0.2054 -0.3781  0.4239
   81MOL0     H11118  10.697   6.103   2.240  0.9031  1.2757 -0.1810
   81MOL0     H11119  10.753   5.829   2.113 -2.5455 -0.5908 -0.5798
   81MOL0     H11120  10.624   5.876   2.229 -0.0475  0.3965  0.2408
   81MOL0     H11121  10.928   5.890   2.275  0.0105 -1.7609  2.0496
   81MOL0     H11122  10.803   5.931   2.392 -1.5900  0.0066 -1.4663
   81MOL0     H11123  10.714   5.688   2.356  0.7543 -1.7977  1.7688
   81MOL0     H11124  10.854   5.710   2.447 -1.5138  2.0630 -0.4214
   81MOL0     H11125  10.828   5.588   2.167 -0.6927 -3.8678  1.7497
   81MOL0     H11126  10.990   5.669   2.197 -0.0952 -0.2548 -1.2187
   81MOL0     H11127  10.729   5.438   2.391 -0.1883  2.3792 -2.5344
   81MOL0     H11128  10.886   5.152   2.548 -0.6203 -1.0109 -1.2757
   81MOL0     H11129  10.743   5.257   2.557 -0.5428  0.4358  3.7769
   81MOL0     H11130  10.971   5.331   2.729  0.2403  1.5477 -2.1828
   81MOL0     H11131  10.806   5.376   2.741  0.2714  0.1945 -1.5625
   81MOL0     H11132  10.797   5.104   2.780  2.9384 -1.1702 -1.9516
   81MOL0     H11133  10.965   5.135   2.822  1.3287  1.7110 -0.6321
   81MOL0     H11134  10.817   5.157   3.034 -1.3939 -0.2924  0.0543
   81MOL0     H11135  10.900   5.309   2.981  0.2093 -0.9374  0.6011
   81MOL0     H11136  10.497   5.450   2.975  0.6161  1.0777 -0.0856
   81MOL0     H11137  10.366   5.682   3.233  1.8570  1.8110 -0.1122
   81MOL0     H11138  10.323   5.551   3.118 -2.3555  2.9275 -1.2411
   81MOL0     H11139  10.397   5.706   3.065  0.7841 -0.5105 -0.6228
   81MOL0     H11140  10.801   5.865   3.576  0.2230 -2.2320 -0.3825
   81MOL0     H11141  10.736   6.029   3.767 -2.8913  1.4036  0.3543
   81MOL0     H11142  10.337   6.049   3.984 -0.4072 -2.0229 -0.1539
   81MOL0     H11143  10.441   5.903   4.023 -0.5336  0.2808 -0.8656
   81MOL0     H11144  10.484   6.037   4.216  1.1925  2.1156  1.9733
   81MOL0     H11145  10.621   6.059   4.107 -0.5588  1.5366  2.4012
   81MOL0     H11146  10.366   6.220   4.152 -0.4376 -1.4197 -1.2862
   81MOL0     H11147  10.488   6.275   4.041 -0.1791  3.2329  2.7111
   81MOL0     H11148  10.536   6.227   4.334  1.4178  0.2729 -0.0652
   81MOL0     H11149  10.473   6.377   4.257 -1.5502 -0.7927  0.0085
   81MOL0     H11150  10.740   6.350   4.307 -1.1217 -0.2815  0.7732
   81MOL0     H11151  10.741   6.253   4.162  2.3856  1.5545  0.2445
   81MOL0     H11152  10.804   6.491   4.161 -0.5805  2.2888  0.0392
   81MOL0     H11153  10.636   6.545   4.181  0.8383 -0.0022  0.6913
   81MOL0     H11154  10.733   6.556   3.938 -1.8673  0.2856 -1.2343
   81MOL0     H11155  10.579   6.473   3.959  0.6903 -1.4002 -0.1454
   81MOL0     H11156  10.648   6.270   3.913 -0.0947 -0.6161  0.4189
   81MOL0     H11157  10.815   6.301   3.970  1.8288  1.3637 -2.3895
   81MOL0     H11158  10.344   5.845   3.785 -0.2485  0.5930 -1.0888
   81MOL0     H11159  10.402   5.692   3.622  0.9809 -0.3122 -1.0931
   81MOL0     H11160  10.823   5.530   3.336 -0.8845 -0.6310  1.9561
   81MOL0     H11161  10.828   5.341   3.208  1.1689 -0.1246 -0.6351
   81MOL0     H11162  10.653   6.481   2.002 -0.0587 -1.5689 -1.0434
   81MOL0     H11163  10.600   6.645   2.162 -0.1572  0.8327 -1.3592
   81MOL0     H11164  10.519   7.012   2.460  1.9330 -1.7440  3.9783
   81MOL0     H11165  10.424   7.159   2.628 -2.8380  2.3035 -1.3623
   81MOL0     H11166  10.081   7.207   2.879  3.1973  1.7440 -1.0389
   81MOL0     H11167  10.004   7.101   2.777 -0.7438  0.0368  1.2853
   81MOL0     H11168  10.135   6.902   2.889 -1.5197 -1.2408  0.9749
   81MOL0     H11169  10.028   6.990   2.994 -1.2633 -0.8528 -2.3193
   81MOL0     H11170  10.338   7.031   2.976  0.6185 -2.1150  0.5361
   81MOL0     H11171  10.236   7.136   3.071 -0.6254  0.0301 -0.3381
   81MOL0     H11172  10.205   6.850   3.131 -1.0753  0.7528  1.9317
   81MOL0     H11173  10.175   6.985   3.218 -0.4430  0.0377 -1.7926
   81MOL0     H11174  10.596   6.900   3.281  1.0344 -1.1193 -1.9369
   81MOL0     H11175  10.074   6.930   2.649 -0.0220 -0.2512  0.7758
   81MOL0     H11176  10.162   6.658   2.506 -2.5546 -2.0193 -1.7213
   81MOL0     H11177  10.032   6.770   2.524 -1.1230  0.2050 -2.4973
   81MOL0     H11178  10.112   6.747   2.359  0.0331 -0.3215 -0.4089
   82MOL0     O11179  11.034   0.743   2.542  0.3504  0.2516  0.3300
   82MOL0     C11180  11.096   0.798   2.638 -0.3086 -0.4874  0.3860
   82MOL0     O11181  11.151   0.728   2.741 -0.4552  0.1043  0.8370
   82MOL0     C11182  11.147   0.589   2.750  0.7884 -0.2527  0.2640
   82MOL0     C11183  11.267   0.511   2.744  0.6199 -0.2228 -0.2708
   82MOL0     C11184  11.257   0.373   2.741  0.4094 -0.4130 -0.4650
   82MOL0     C11185  11.135   0.312   2.750  0.1618  0.3928 -0.4853
   82MOL0     O11186  11.124   0.170   2.771  0.2376 -0.4563  0.2685
   82MOL0     C11187  11.243   0.087   2.754  0.5751  0.3242  0.0547
   82MOL0     C11188  11.206  -0.063   2.779 -1.5994 -0.0563  0.2119
   82MOL0     C11189  11.120  -0.109   2.667  0.5423 -0.0515  0.0171
   82MOL0     C11190  11.105  -0.256   2.667 -0.5847  0.8170 -0.3130
   82MOL0     C11191  11.080  -0.327   2.798  0.4796  0.7678  0.4459
   82MOL0     C11192  10.959  -0.286   2.861  0.0872  0.1140  0.2165
   82MOL0     C11193  10.911  -0.377   2.971  1.0708 -0.5505 -0.3444
   82MOL0     C11194  10.756  -0.353   2.995  0.7410  0.7639  1.3217
   82MOL0     N11195  10.719  -0.403   3.126 -0.5258 -0.6242  0.7378
   82MOL0     C11196  10.701  -0.328   3.240  0.0067  0.6607 -0.0711
   82MOL0     C11197  10.671  -0.420   3.339  0.8028 -1.2991  0.3228
   82MOL0     C11198  10.660  -0.375   3.480  0.5306 -0.0225 -0.5807
   82MOL0     C11199  10.524  -0.406   3.544  0.4157  0.4981 -0.4183
   82MOL0     C11200  10.529  -0.370   3.694  0.1464  0.0805  0.1304
   82MOL0     C11201  10.398  -0.391   3.768  0.1260  0.1733  0.0225
   82MOL0     O11202  10.403  -0.355   3.899  0.2435 -0.4162  0.0150
   82MOL0     C11203  10.310  -0.403   3.989  0.6650 -0.4356 -0.1816
   82MOL0     C11204  10.206  -0.482   3.953  0.1548 -0.6637 -0.1460
   82MOL0     C11205  10.108  -0.527   4.042 -0.4977  0.7525  0.4926
   82MOL0     C11206  10.019  -0.634   3.980 -0.7603  0.7111  0.3881
   82MOL0     C11207  10.116  -0.504   4.175 -0.1942  0.7063 -0.3233
   82MOL0     C11208  10.010  -0.565   4.277 -0.4400 -0.4524  0.6609
   82MOL0     O11209  10.028  -0.522   4.399  0.1198  0.6837 -0.8212
   82MOL0     C11210   9.987  -0.586   4.517 -0.1624  0.5237  0.2347
   82MOL0     C11211   9.889  -0.692   4.519 -0.4938 -0.4751  0.0191
   82MOL0     C11212   9.853  -0.752   4.640  0.3210 -0.2636 -0.0305
   82MOL0     C11213   9.918  -0.722   4.763 -0.3201  0.5982  0.7312
   82MOL0     O11214   9.909  -0.808   4.869 -0.6906 -0.3874  0.3925
   82MOL0     C11215  10.017  -0.903   4.871  0.6806  0.2450  0.0528
   82MOL0     C11216   9.957  -1.016   4.949 -0.0253  0.7656 -0.3686
   82MOL0     C11217   9.857  -1.098   4.864 -0.2126  0.2251  0.3567
   82MOL0     C11218   9.828  -1.231   4.928 -0.6540  0.5599  0.2503
   82MOL0     C11219   9.720  -1.305   4.842 -0.3576 -0.7811  0.1840
   82MOL0     C11220   9.633  -1.380   4.938 -0.1680 -0.6902 -0.4116
   82MOL0     C11221   9.518  -1.468   4.885  1.4587  0.1382 -0.0806
   82MOL0     C11222   9.461  -1.568   4.983  0.1782  0.6578 -0.0253
   82MOL0    Cl11223   9.314  -1.647   4.925  0.0037  0.0747 -0.6683
   82MOL0     C11224  10.018  -0.618   4.768 -0.6371  0.1751 -0.2203
   82MOL0     C11225  10.049  -0.557   4.648  0.0908  0.0569  0.6946
   82MOL0     O11226   9.936  -0.658   4.244 -0.4830 -0.5519  0.0826
   82MOL0     C11227  10.222  -0.423   4.223  0.1866  0.4758 -0.3747
   82MOL0     C11228  10.311  -0.374   4.128  0.2645 -0.5599 -0.3173
   82MOL0     N11229  10.663  -0.545   3.282  0.4609 -0.6664  0.1123
   82MOL0     N11230  10.690  -0.535   3.155  0.2334 -0.6224 -0.9974
   82MOL0     C11231  11.021   0.391   2.756 -0.9042 -0.9756  0.8665
   82MOL0     C11232  11.022   0.533   2.764 -0.4231  0.2118  0.8479
   82MOL0     C11233  11.108   0.944   2.637 -1.1102 -1.2162  0.2331
   82MOL0     C11234  11.183   1.005   2.736 -0.8780  0.4691  0.0894
   82MOL0     C11235  11.190   1.136   2.749  0.0437 -0.8584  0.4032
   82MOL0     C11236  11.132   1.229   2.655 -0.5634 -0.0339 -0.5404
   82MOL0     O11237  11.128   1.365   2.692  0.6232 -0.0933 -0.0984
   82MOL0     C11238  11.066   1.452   2.595  0.0846  0.1052  0.2363
   82MOL0     C11239  11.105   1.592   2.625 -0.4531 -0.1379  0.0985
   82MOL0     C11240  11.020   1.702   2.558  0.1119  0.7096 -0.7466
   82MOL0     C11241  11.072   1.847   2.582 -0.0822 -0.2019 -0.1722
   82MOL0     C11242  11.055   1.901   2.715  0.2975 -0.4281 -0.3364
   82MOL0     C11243  11.038   1.942   2.828 -0.0454 -0.1946  0.0158
   82MOL0     C11244  11.079   1.172   2.534  0.4771  0.3495 -0.7530
   82MOL0     C11245  11.063   1.032   2.532  0.1463  0.0699  0.3813
   82MOL0     C11246  10.985   0.988   2.405  0.6549 -0.7380 -0.3634
   82MOL0     H11247  11.370   0.545   2.744  0.6590 -0.3187 -1.0176
   82MOL0     H11248  11.352   0.319   2.739 -0.5130 -2.1045 -0.1618
   82MOL0     H11249  11.320   0.112   2.827  1.2328 -1.8925  0.2028
   82MOL0     H11250  11.286   0.104   2.655 -0.3696 -0.2214 -0.4710
   82MOL0     H11251  11.299  -0.119   2.769  1.6026  4.2560  2.2662
   82MOL0     H11252  11.171  -0.077   2.881  1.2428 -0.7152  1.1793
   82MOL0     H11253  11.025  -0.055   2.670  1.5412  1.7119  1.5378
   82MOL0     H11254  11.156  -0.082   2.567  0.1850 -0.4724 -0.2343
   82MOL0     H11255  11.021  -0.287   2.604  1.5469 -0.9346 -2.5301
   82MOL0     H11256  11.191  -0.309   2.623 -1.0564  1.6004 -2.2924
   82MOL0     H11257  11.162  -0.325   2.871 -2.7180  1.4052  4.3999
   82MOL0     H11258  11.075  -0.434   2.777  0.0373  0.2910  2.6486
   82MOL0     H11259  10.963  -0.186   2.904 -1.4335  1.1349 -1.7888
   82MOL0     H11260  10.893  -0.279   2.774  3.4431 -0.4149 -2.6187
   82MOL0     H11261  10.955  -0.354   3.069 -1.2962 -0.9165  0.8646
   82MOL0     H11262  10.917  -0.482   2.941 -4.1828 -1.2551  0.1379
   82MOL0     H11263  10.729  -0.248   2.980  0.8076  0.3975 -2.3734
   82MOL0     H11264  10.701  -0.418   2.926 -1.6595 -0.7025  4.3789
   82MOL0     H11265  10.709  -0.222   3.260 -0.6034  0.5078  1.0677
   82MOL0     H11266  10.673  -0.266   3.479 -1.6095  0.2723 -1.4056
   82MOL0     H11267  10.740  -0.423   3.537  1.2432  1.3302 -0.4085
   82MOL0     H11268  10.441  -0.351   3.498 -2.4537 -2.1468  1.2318
   82MOL0     H11269  10.504  -0.511   3.522  0.2825  0.4453 -0.0514
   82MOL0     H11270  10.608  -0.431   3.740  0.0293  0.4415  0.8254
   82MOL0     H11271  10.559  -0.266   3.705  0.4588 -0.1231  1.2819
   82MOL0     H11272  10.327  -0.329   3.712 -0.4020  0.2629  0.7787
   82MOL0     H11273  10.363  -0.494   3.750 -0.2619 -0.2326  2.7247
   82MOL0     H11274  10.212  -0.530   3.856 -0.5561 -0.9460 -0.0542
   82MOL0     H11275  10.065  -0.730   4.006  2.5195  2.3792  1.2936
   82MOL0     H11276  10.015  -0.618   3.872 -2.3569 -0.2725  0.2580
   82MOL0     H11277   9.914  -0.628   4.011 -1.6156  1.9766 -2.3884
   82MOL0     H11278   9.827  -0.718   4.434  0.2849  2.6402 -1.6396
   82MOL0     H11279   9.773  -0.825   4.638 -1.5429  1.4900  2.8588
   82MOL0     H11280  10.032  -0.940   4.769 -0.8986  1.0213 -0.4953
   82MOL0     H11281  10.106  -0.866   4.921 -0.0909 -0.1178  1.7708
   82MOL0     H11282  10.025  -1.092   4.985 -2.1339 -1.1717 -0.2350
   82MOL0     H11283   9.906  -0.977   5.037 -0.9808  0.5736 -0.8165
   82MOL0     H11284   9.909  -1.130   4.774  0.9495  0.1403  1.0335
   82MOL0     H11285   9.768  -1.039   4.842 -0.3834  0.1195  0.7638
   82MOL0     H11286   9.796  -1.212   5.031  0.1140 -1.4754  0.9182
   82MOL0     H11287   9.920  -1.291   4.921  0.0353  1.6843 -0.6925
   82MOL0     H11288   9.666  -1.223   4.795  0.8748 -0.1543 -0.1831
   82MOL0     H11289   9.773  -1.354   4.760  1.0946  0.1068  0.5680
   82MOL0     H11290   9.610  -1.305   5.014  2.8563 -0.1228  0.0423
   82MOL0     H11291   9.691  -1.453   4.996 -2.2320 -0.5695  1.9849
   82MOL0     H11292   9.554  -1.519   4.794  2.1771  0.3808  0.0612
   82MOL0     H11293   9.431  -1.413   4.849  0.7678 -2.2113 -2.3426
   82MOL0     H11294   9.437  -1.519   5.078  1.5707  0.9585  0.1891
   82MOL0     H11295   9.531  -1.649   5.003 -0.4852 -0.0508 -0.5192
   82MOL0     H11296  10.083  -0.598   4.852  2.3102 -0.1390 -2.2722
   82MOL0     H11297  10.135  -0.491   4.648 -0.1261  0.4222  3.0146
   82MOL0     H11298  10.245  -0.381   4.320  1.8203  3.3828 -1.8995
   82MOL0     H11299  10.396  -0.313   4.156  0.3359 -0.6686 -0.2993
   82MOL0     H11300  10.920   0.354   2.752 -1.5771  0.8791 -2.0321
   82MOL0     H11301  10.936   0.597   2.784  0.2139  1.4097 -0.0377
   82MOL0     H11302  11.224   0.949   2.820 -0.3140  2.3239  1.1129
   82MOL0     H11303  11.239   1.174   2.838  0.7043  3.4814 -1.5495
   82MOL0     H11304  11.080   1.427   2.489  2.4129 -1.2055  0.7782
   82MOL0     H11305  10.959   1.441   2.614  0.5193  0.2675  3.3219
   82MOL0     H11306  11.209   1.611   2.599 -0.5032 -1.6760 -1.3925
   82MOL0     H11307  11.091   1.609   2.732 -1.5015 -0.1286 -0.0212
   82MOL0     H11308  11.020   1.688   2.449 -1.2513 -2.7297 -0.4098
   82MOL0     H11309  10.916   1.692   2.590  0.6204  2.0955  1.5646
   82MOL0     H11310  11.035   1.920   2.509 -2.3956 -0.2840  0.8529
   82MOL0     H11311  11.181   1.844   2.575 -0.1317  0.0199 -1.2472
   82MOL0     H11312  11.011   1.980   2.925 -2.6410  0.2574 -0.7823
   82MOL0     H11313  11.032   1.241   2.464  0.6118  3.7166  2.1670
   82MOL0     H11314  10.999   0.886   2.368  1.5869 -0.6038 -0.3976
   82MOL0     H11315  10.882   0.977   2.441 -0.7885  2.3815 -3.0367
   82MOL0     H11316  10.984   1.066   2.328 -1.3616 -0.3924 -0.0363
   83MOL0     O11317   9.314   2.577   7.522 -0.1090 -0.0540 -0.4273
   83MOL0     C11318   9.421   2.515   7.528 -0.2302  0.1558  0.1367
   83MOL0     O11319   9.524   2.543   7.615  0.4409  0.0827 -0.4871
   83MOL0     C11320   9.506   2.646   7.709 -0.4059 -0.0523 -0.5044
   83MOL0     C11321   9.620   2.733   7.724 -0.2631 -0.3804  0.1785
   83MOL0     C11322   9.613   2.850   7.791 -0.2316  0.6826  0.0372
   83MOL0     C11323   9.490   2.891   7.849 -0.0926 -0.8197 -0.3023
   83MOL0     O11324   9.479   3.011   7.926  0.0713  0.9595 -0.1101
   83MOL0     C11325   9.598   3.074   7.968  0.4278 -0.6861  0.8019
   83MOL0     C11326   9.576   3.228   8.020  0.2090  1.1315  0.0816
   83MOL0     C11327   9.496   3.319   7.936  0.7745 -0.2244  0.0832
   83MOL0     C11328   9.483   3.464   7.991 -0.2823  0.0106  0.1499
   83MOL0     C11329   9.344   3.518   7.958  0.3307  0.1382  0.4853
   83MOL0     C11330   9.307   3.523   7.810  0.3259 -0.4538  1.0971
   83MOL0     C11331   9.414   3.576   7.718  0.1169  0.7765 -0.1632
   83MOL0     C11332   9.469   3.715   7.758 -0.6832 -0.5627 -0.0132
   83MOL0     N11333   9.576   3.760   7.674  0.6532 -0.4419  1.0993
   83MOL0     C11334   9.567   3.845   7.568 -0.0291 -0.3359  0.6725
   83MOL0     C11335   9.692   3.838   7.512 -0.0950 -0.1137  0.1578
   83MOL0     C11336   9.764   3.920   7.405 -0.7422 -1.0916 -0.2994
   83MOL0     C11337   9.731   4.068   7.434 -0.0901 -0.6409 -0.0777
   83MOL0     C11338   9.769   4.165   7.322 -0.0373 -0.5172  1.3453
   83MOL0     C11339   9.921   4.164   7.289 -0.3704  0.3536  0.3524
   83MOL0     O11340   9.950   4.150   7.145  0.3100 -0.7981 -0.0268
   83MOL0     C11341   9.957   4.268   7.067 -0.9961 -0.2192  0.2782
   83MOL0     C11342  10.051   4.260   6.960  0.5004  0.0511 -0.2521
   83MOL0     C11343  10.068   4.359   6.870 -0.6335  0.2637 -0.7977
   83MOL0     C11344  10.169   4.334   6.761  0.2160 -0.1565 -0.6786
   83MOL0     C11345  10.005   4.481   6.890 -0.1847 -0.4944 -0.1309
   83MOL0     C11346  10.001   4.598   6.798 -0.2310  1.3813  0.1958
   83MOL0     O11347   9.974   4.725   6.835  0.1929  0.3438 -0.6397
   83MOL0     C11348   9.946   4.810   6.726 -0.1838 -0.9692  0.0806
   83MOL0     C11349  10.041   4.908   6.699  0.3004 -0.3199 -0.4489
   83MOL0     C11350  10.022   4.992   6.587 -0.0919  0.3215  0.4532
   83MOL0     C11351   9.917   4.985   6.497  0.7456 -1.1810 -1.2290
   83MOL0     O11352   9.912   5.068   6.385 -0.0558 -0.2907  0.7406
   83MOL0     C11353  10.021   5.157   6.355  0.3018  0.5741 -1.0106
   83MOL0     C11354   9.979   5.241   6.228 -0.2275  0.3587  0.4652
   83MOL0     C11355  10.021   5.161   6.107 -0.1886 -0.3920  0.4799
   83MOL0     C11356  10.173   5.184   6.064  1.1975  0.1763  0.0323
   83MOL0     C11357  10.186   5.324   6.020 -0.5682  0.1012  1.3569
   83MOL0     C11358  10.129   5.344   5.885 -0.8365 -0.2101  0.2317
   83MOL0     C11359  10.167   5.488   5.855 -0.0229  0.6098 -0.5139
   83MOL0     C11360  10.127   5.532   5.714 -0.1017  0.5157  0.5384
   83MOL0    Cl11361  10.235   5.425   5.612  0.3416  0.0799 -0.4572
   83MOL0     C11362   9.810   4.898   6.541 -0.4336  0.6925 -0.3752
   83MOL0     C11363   9.826   4.805   6.651 -0.6800 -0.4826  0.4539
   83MOL0     O11364  10.024   4.564   6.684 -0.0327 -0.2333  0.2153
   83MOL0     C11365   9.923   4.494   6.998  0.9357 -0.0277 -0.6849
   83MOL0     C11366   9.897   4.391   7.089  0.2331 -0.2976  0.4056
   83MOL0     N11367   9.759   3.737   7.570  0.0753  0.2148  0.0422
   83MOL0     N11368   9.695   3.694   7.677 -0.1554 -0.0529 -0.1132
   83MOL0     C11369   9.382   2.813   7.838  0.8033  1.0433 -0.2766
   83MOL0     C11370   9.386   2.699   7.764 -1.0535 -0.5895  0.7908
   83MOL0     C11371   9.440   2.393   7.458 -0.3019 -0.9344 -0.0537
   83MOL0     C11372   9.533   2.293   7.499 -0.7095 -1.3471  0.2292
   83MOL0     C11373   9.562   2.176   7.437 -0.3159  0.0736 -0.9000
   83MOL0     C11374   9.481   2.134   7.331 -0.9845  0.3957 -0.4319
   83MOL0     O11375   9.490   2.022   7.262  0.0185 -0.2564 -0.8082
   83MOL0     C11376   9.619   1.959   7.263 -0.4155  0.7207 -0.2868
   83MOL0     C11377   9.600   1.826   7.183 -1.1442  0.1215 -1.0436
   83MOL0     C11378   9.569   1.864   7.035 -0.2649  0.3939 -0.7659
   83MOL0     C11379   9.591   1.749   6.934 -0.1914  0.2770 -0.0235
   83MOL0     C11380   9.507   1.631   6.942  0.0646  0.7478 -0.1414
   83MOL0     C11381   9.436   1.524   6.948 -1.3580  0.0343  0.6455
   83MOL0     C11382   9.383   2.221   7.295  0.4539 -0.3017 -0.7737
   83MOL0     C11383   9.359   2.345   7.351 -0.0043  0.1225  0.0954
   83MOL0     C11384   9.241   2.419   7.298  0.8672  0.2100 -0.1322
   83MOL0     H11385   9.708   2.696   7.673  0.0233  0.2602  0.1977
   83MOL0     H11386   9.707   2.904   7.793  0.3968 -0.2916 -1.0991
   83MOL0     H11387   9.666   3.071   7.882  1.0083  1.4994  1.1250
   83MOL0     H11388   9.635   3.019   8.056 -0.9019 -0.2522  1.6606
   83MOL0     H11389   9.539   3.236   8.123 -0.8230  2.2106 -0.3495
   83MOL0     H11390   9.677   3.270   8.027  0.1119  1.2452  0.9310
   83MOL0     H11391   9.532   3.324   7.833 -2.6741  2.0608 -1.2163
   83MOL0     H11392   9.395   3.276   7.931 -0.1292  1.7785 -0.0185
   83MOL0     H11393   9.492   3.458   8.100 -0.7058  0.9254  0.2513
   83MOL0     H11394   9.563   3.533   7.961  0.5889  0.7091  3.5668
   83MOL0     H11395   9.328   3.619   7.996 -0.3483  0.2494 -0.0843
   83MOL0     H11396   9.276   3.447   8.006 -0.3127  0.3675 -0.0642
   83MOL0     H11397   9.293   3.424   7.767 -3.0568  1.1463 -2.0667
   83MOL0     H11398   9.213   3.579   7.799 -1.1447 -2.2707  3.4695
   83MOL0     H11399   9.367   3.589   7.620 -1.6504  1.5065  0.7511
   83MOL0     H11400   9.496   3.504   7.711 -0.1467  0.4578  0.0392
   83MOL0     H11401   9.390   3.789   7.751 -0.1896  0.1008  1.1631
   83MOL0     H11402   9.504   3.720   7.861  0.4329  1.9131 -0.4338
   83MOL0     H11403   9.476   3.903   7.559 -0.2094 -0.5292  1.1908
   83MOL0     H11404   9.734   3.885   7.306 -0.7016 -1.8513 -0.0499
   83MOL0     H11405   9.871   3.894   7.409 -0.7971 -1.1756  1.1880
   83MOL0     H11406   9.623   4.076   7.446  0.1209 -0.7360  2.4829
   83MOL0     H11407   9.780   4.115   7.520 -0.7745  0.0061 -0.0314
   83MOL0     H11408   9.713   4.150   7.229  0.6527 -1.1089  1.0251
   83MOL0     H11409   9.733   4.266   7.345 -0.8090  0.4346 -3.1712
   83MOL0     H11410   9.971   4.256   7.320  0.1196  0.2563 -0.1363
   83MOL0     H11411   9.965   4.082   7.346 -2.2916  1.4433  3.6420
   83MOL0     H11412  10.093   4.164   6.933 -0.8602 -0.3418 -1.0768
   83MOL0     H11413  10.253   4.404   6.753 -0.5585  1.0663  1.2422
   83MOL0     H11414  10.107   4.339   6.671 -2.8837 -2.2245  1.1480
   83MOL0     H11415  10.210   4.232   6.761  0.3246 -0.1249 -1.9699
   83MOL0     H11416  10.126   4.930   6.763  0.2562  2.0229 -1.0929
   83MOL0     H11417  10.092   5.074   6.582  0.5397 -0.2339 -0.0547
   83MOL0     H11418  10.031   5.222   6.442  1.9464  1.4871 -1.8273
   83MOL0     H11419  10.111   5.097   6.334 -0.3117 -0.2846 -1.2532
   83MOL0     H11420   9.870   5.248   6.223 -0.1167  2.1792 -0.1551
   83MOL0     H11421  10.026   5.339   6.238 -0.2646  0.3642  0.5843
   83MOL0     H11422   9.953   5.187   6.027  0.8991 -0.0677 -0.3686
   83MOL0     H11423  10.006   5.054   6.125 -0.9419 -0.0363  2.1288
   83MOL0     H11424  10.198   5.108   5.990 -1.2608 -2.8793  2.0704
   83MOL0     H11425  10.231   5.169   6.155 -0.4279 -0.0874  1.0677
   83MOL0     H11426  10.156   5.406   6.086  0.2228  4.0757 -2.7377
   83MOL0     H11427  10.292   5.338   6.001 -1.0110 -1.0463 -2.9714
   83MOL0     H11428  10.021   5.328   5.877 -0.7160 -0.8566 -0.2192
   83MOL0     H11429  10.176   5.271   5.818  1.1710 -1.2526  2.6277
   83MOL0     H11430  10.275   5.503   5.868  0.5562 -2.6498 -0.7197
   83MOL0     H11431  10.119   5.558   5.925 -1.4381 -0.8106 -0.0195
   83MOL0     H11432  10.150   5.638   5.696 -1.8245  1.1592  1.8973
   83MOL0     H11433  10.023   5.516   5.686  0.2286  1.6043 -1.4720
   83MOL0     H11434   9.720   4.893   6.480 -1.2649 -2.0526  0.9052
   83MOL0     H11435   9.756   4.728   6.682 -0.0815 -0.4945  1.8619
   83MOL0     H11436   9.866   4.585   7.013  0.6509 -0.4934  1.4093
   83MOL0     H11437   9.831   4.403   7.175  0.1279  0.0295  0.2817
   83MOL0     H11438   9.291   2.837   7.892  1.9081 -1.2841  2.9211
   83MOL0     H11439   9.295   2.648   7.734  0.6807 -4.2266  1.1288
   83MOL0     H11440   9.606   2.316   7.576 -1.6740  0.5376  0.6295
   83MOL0     H11441   9.649   2.126   7.477 -0.3791  0.9292  0.3601
   83MOL0     H11442   9.704   2.016   7.223  0.1249  0.7535  0.8844
   83MOL0     H11443   9.649   1.930   7.364 -1.5059  0.2379 -0.0878
   83MOL0     H11444   9.532   1.760   7.237  1.9627 -4.2490 -1.9088
   83MOL0     H11445   9.696   1.774   7.193 -1.7883 -0.5931  2.6259
   83MOL0     H11446   9.462   1.883   7.041 -0.9344 -3.0325  0.2508
   83MOL0     H11447   9.621   1.951   6.994  1.7323 -0.0363  0.6724
   83MOL0     H11448   9.691   1.706   6.939 -0.6827 -0.9140 -0.1834
   83MOL0     H11449   9.585   1.788   6.832  3.1611 -0.0360 -0.4315
   83MOL0     H11450   9.373   1.438   6.935 -0.9716  0.1337 -3.1438
   83MOL0     H11451   9.325   2.190   7.209  1.5640  0.8931 -1.9923
   83MOL0     H11452   9.271   2.518   7.263  1.4528  0.4550  1.0100
   83MOL0     H11453   9.189   2.370   7.215  1.4544 -0.0635 -0.3478
   83MOL0     H11454   9.177   2.426   7.386  1.0915 -0.2426  0.0707
   84MOL0     O11455   5.761   5.740   4.314 -0.5271 -0.0520 -0.4397
   84MOL0     C11456   5.781   5.706   4.432  0.0197 -0.4007 -0.2927
   84MOL0     O11457   5.795   5.579   4.480 -0.2174  0.0029  0.3372
   84MOL0     C11458   5.887   5.509   4.398 -0.0868 -0.0898 -0.6121
   84MOL0     C11459   6.025   5.533   4.409 -1.3236  0.0714  0.3502
   84MOL0     C11460   6.116   5.463   4.337  0.0140  0.1944  0.4394
   84MOL0     C11461   6.069   5.355   4.256 -0.8773 -0.7711  0.9273
   84MOL0     O11462   6.148   5.260   4.194  0.0822 -0.1248  0.7526
   84MOL0     C11463   6.292   5.273   4.205  0.4789  0.4527  0.3344
   84MOL0     C11464   6.358   5.151   4.136  0.4312 -0.4159 -0.6051
   84MOL0     C11465   6.339   5.022   4.215  0.4531 -0.2240 -0.8727
   84MOL0     C11466   6.210   4.951   4.186 -0.4386 -0.8444  0.4537
   84MOL0     C11467   6.212   4.809   4.258  1.1084  0.1443  0.0738
   84MOL0     C11468   6.141   4.697   4.179 -0.2555  0.3949  0.3840
   84MOL0     C11469   6.221   4.659   4.049  0.6164  0.2799  0.1997
   84MOL0     C11470   6.335   4.577   4.078  0.9242  0.4625  0.6410
   84MOL0     N11471   6.303   4.432   4.103  0.3330  0.1040  0.0443
   84MOL0     C11472   6.177   4.372   4.109 -0.5258  0.1978 -0.1265
   84MOL0     C11473   6.208   4.247   4.162  0.2198 -0.5042  0.2678
   84MOL0     C11474   6.098   4.139   4.174  0.8204  0.8400  0.3595
   84MOL0     C11475   6.126   4.002   4.248  0.5136 -0.4904 -0.0626
   84MOL0     C11476   6.005   3.907   4.241 -0.4588  0.8166  0.3841
   84MOL0     C11477   6.037   3.782   4.332 -0.0142 -0.7890  1.0330
   84MOL0     O11478   6.112   3.702   4.242  0.2573 -0.5047 -0.6543
   84MOL0     C11479   6.165   3.588   4.287 -0.4981  0.4838  0.0716
   84MOL0     C11480   6.214   3.504   4.178  0.7944 -0.1056 -0.9720
   84MOL0     C11481   6.255   3.368   4.198 -0.6240 -0.6177 -0.7234
   84MOL0     C11482   6.284   3.281   4.077  0.6109 -0.2148 -0.4615
   84MOL0     C11483   6.260   3.317   4.332 -0.4569  0.1776  0.0243
   84MOL0     C11484   6.308   3.180   4.379  0.3253  0.2570  0.8965
   84MOL0     O11485   6.298   3.080   4.286  0.3245  0.3372 -0.2336
   84MOL0     C11486   6.328   2.947   4.305 -0.5956  0.3588 -0.0466
   84MOL0     C11487   6.388   2.888   4.187  0.4267 -0.4784 -0.3485
   84MOL0     C11488   6.409   2.752   4.182 -0.3699  0.1155 -0.2925
   84MOL0     C11489   6.379   2.667   4.287 -0.1456 -0.5208 -0.2942
   84MOL0     O11490   6.426   2.539   4.263  0.8752  0.2239 -0.4115
   84MOL0     C11491   6.331   2.448   4.322 -1.1984  0.6777  0.3896
   84MOL0     C11492   6.402   2.308   4.315 -0.0217 -0.0074 -0.1999
   84MOL0     C11493   6.346   2.225   4.191 -0.5342 -0.3232 -0.0525
   84MOL0     C11494   6.233   2.131   4.217 -1.0500  0.0571  0.0246
   84MOL0     C11495   6.203   2.048   4.087 -0.3565  0.6662 -0.7843
   84MOL0     C11496   6.150   1.904   4.100 -0.0679 -0.7783 -0.4980
   84MOL0     C11497   6.005   1.913   4.127 -0.3154  0.4063 -0.3427
   84MOL0     C11498   5.936   1.785   4.135 -0.6774  0.2235 -0.3425
   84MOL0    Cl11499   5.912   1.694   3.982 -0.0690  0.1126 -0.1673
   84MOL0     C11500   6.331   2.726   4.412 -0.1540 -0.2570 -0.0595
   84MOL0     C11501   6.307   2.864   4.424  0.2574 -0.1771 -0.5932
   84MOL0     O11502   6.351   3.160   4.492  0.2018 -0.5430 -0.1924
   84MOL0     C11503   6.208   3.399   4.437 -0.1711 -0.3385  0.2158
   84MOL0     C11504   6.154   3.526   4.409 -0.4812 -0.1800  0.1086
   84MOL0     N11505   6.342   4.239   4.196  0.0301  0.4322  0.0650
   84MOL0     N11506   6.393   4.354   4.163  0.3521 -0.2347  0.1276
   84MOL0     C11507   5.936   5.324   4.245  0.1892 -0.0662  0.0605
   84MOL0     C11508   5.848   5.406   4.321 -0.3179 -0.6063 -0.4220
   84MOL0     C11509   5.731   5.807   4.531  0.0577 -0.5575 -0.7975
   84MOL0     C11510   5.706   5.755   4.666 -0.3283  0.1247  0.5626
   84MOL0     C11511   5.664   5.832   4.767  0.1094  0.0857 -0.1224
   84MOL0     C11512   5.643   5.968   4.743 -0.6469  0.2677 -0.8007
   84MOL0     O11513   5.587   6.051   4.837 -0.9721  0.3444  0.7997
   84MOL0     C11514   5.591   5.998   4.973 -0.4455 -1.4515 -0.9105
   84MOL0     C11515   5.571   6.123   5.061 -0.6275  0.0625 -0.0181
   84MOL0     C11516   5.430   6.165   5.069  0.3362 -0.9847  0.3238
   84MOL0     C11517   5.422   6.282   5.162  0.8450 -0.4042  0.5191
   84MOL0     C11518   5.397   6.241   5.297 -0.5574  0.5208  0.3645
   84MOL0     C11519   5.371   6.218   5.410 -0.1152 -0.1043  0.5572
   84MOL0     C11520   5.682   6.019   4.620  0.0355 -0.3075  0.6987
   84MOL0     C11521   5.718   5.948   4.505 -0.5777  0.2143 -0.3271
   84MOL0     C11522   5.740   6.022   4.373  0.6218  0.7210  0.1004
   84MOL0     H11523   6.063   5.600   4.486 -0.0620 -0.0028 -0.1937
   84MOL0     H11524   6.221   5.488   4.355 -0.0540  0.5302  0.3829
   84MOL0     H11525   6.314   5.265   4.312 -2.2674  1.2335  1.0291
   84MOL0     H11526   6.316   5.362   4.147 -1.8115  1.2457  0.5004
   84MOL0     H11527   6.332   5.140   4.030  1.8028  3.1439 -1.4802
   84MOL0     H11528   6.465   5.176   4.143  0.0804  1.3983 -1.0732
   84MOL0     H11529   6.427   4.965   4.184  1.8521 -0.0137  2.3099
   84MOL0     H11530   6.344   5.039   4.323 -0.1815  0.4572 -0.9420
   84MOL0     H11531   6.121   5.001   4.225 -0.7563 -1.8366  1.0402
   84MOL0     H11532   6.204   4.931   4.079  4.7244 -1.5811  0.0732
   84MOL0     H11533   6.163   4.824   4.355 -3.1493 -0.9118 -1.6891
   84MOL0     H11534   6.318   4.786   4.272  1.9897  2.0328 -2.7562
   84MOL0     H11535   6.143   4.613   4.249  3.2948  0.1905  0.2551
   84MOL0     H11536   6.041   4.732   4.154 -1.5745 -3.2310 -0.0385
   84MOL0     H11537   6.255   4.752   4.003  1.4071  0.2662  0.7451
   84MOL0     H11538   6.160   4.607   3.975 -0.2516 -0.0884  1.1509
   84MOL0     H11539   6.379   4.584   3.978 -2.1234  2.0208 -0.7194
   84MOL0     H11540   6.400   4.620   4.154  0.3867  0.2835  1.2118
   84MOL0     H11541   6.083   4.420   4.086 -0.5846  0.8320  1.3244
   84MOL0     H11542   6.065   4.126   4.070  4.2557 -0.0642 -0.7569
   84MOL0     H11543   6.015   4.185   4.229  1.2095  2.1827 -0.1522
   84MOL0     H11544   6.205   3.943   4.201 -0.1798 -2.2716  0.9114
   84MOL0     H11545   6.161   4.025   4.349 -3.0359 -1.3028  1.5062
   84MOL0     H11546   5.922   3.956   4.294 -1.3675 -2.1234  1.9045
   84MOL0     H11547   5.982   3.868   4.142  1.7830 -0.5899  0.3275
   84MOL0     H11548   6.080   3.811   4.428  1.3711 -0.0692  0.2330
   84MOL0     H11549   5.948   3.727   4.364  0.6188 -1.2491  2.0283
   84MOL0     H11550   6.204   3.545   4.078  3.0100  4.6389  0.5015
   84MOL0     H11551   6.327   3.345   4.000  0.0036  0.0933 -0.5547
   84MOL0     H11552   6.192   3.239   4.034  0.6490 -0.7698 -0.0184
   84MOL0     H11553   6.356   3.200   4.092  2.1393  1.3577  1.0942
   84MOL0     H11554   6.416   2.953   4.105 -1.8747  0.6772 -0.2978
   84MOL0     H11555   6.463   2.707   4.099  0.2205  1.7840 -0.8466
   84MOL0     H11556   6.318   2.471   4.428 -1.4766 -1.1978  0.8104
   84MOL0     H11557   6.233   2.456   4.274  0.3640  2.1598 -2.8648
   84MOL0     H11558   6.510   2.321   4.321 -0.2587  1.4128  1.7029
   84MOL0     H11559   6.380   2.257   4.410 -1.3875  1.5643  0.3781
   84MOL0     H11560   6.428   2.158   4.162  0.6893 -0.0698  2.5671
   84MOL0     H11561   6.317   2.299   4.115 -0.5643  1.5927  1.7271
   84MOL0     H11562   6.142   2.185   4.247  0.9366  4.1812 -0.7093
   84MOL0     H11563   6.268   2.049   4.281  1.7677  0.2675 -1.1407
   84MOL0     H11564   6.148   2.115   4.021 -0.1308  1.1351 -0.5004
   84MOL0     H11565   6.292   2.029   4.026 -0.9144 -1.6201 -0.9936
   84MOL0     H11566   6.199   1.838   4.171 -6.7144  0.6713  6.8744
   84MOL0     H11567   6.156   1.863   3.999  1.3281  0.8497 -1.1338
   84MOL0     H11568   5.946   1.969   4.053  0.6155  0.8663 -0.7613
   84MOL0     H11569   5.996   1.953   4.228  2.4108  1.6948 -0.5122
   84MOL0     H11570   5.833   1.802   4.170 -1.4678 -1.4062 -1.7284
   84MOL0     H11571   5.981   1.722   4.213  0.5919  0.6719 -0.6947
   84MOL0     H11572   6.313   2.663   4.498 -1.4460  0.6684  0.3797
   84MOL0     H11573   6.266   2.903   4.516 -1.3559 -2.8675 -0.0798
   84MOL0     H11574   6.179   3.339   4.522  0.9824 -3.3579 -1.3771
   84MOL0     H11575   6.111   3.585   4.489 -0.6982 -0.8927  0.5260
   84MOL0     H11576   5.906   5.239   4.184 -1.3643 -0.3448  1.1531
   84MOL0     H11577   5.741   5.386   4.330 -1.0682  3.1095  0.6866
   84MOL0     H11578   5.713   5.648   4.680 -2.2974 -0.1626 -0.2979
   84MOL0     H11579   5.621   5.792   4.859 -2.5041  0.6855 -0.9808
   84MOL0     H11580   5.503   5.936   4.996 -3.9808  3.5412  0.7288
   84MOL0     H11581   5.686   5.945   4.985  0.5821  0.2784 -1.0744
   84MOL0     H11582   5.640   6.199   5.022 -1.7447  0.8748 -0.4649
   84MOL0     H11583   5.608   6.095   5.160  0.3456 -1.7120 -0.8414
   84MOL0     H11584   5.404   6.205   4.970  2.7607  2.0552  0.7222
   84MOL0     H11585   5.370   6.081   5.104 -3.3657  1.3921  0.2362
   84MOL0     H11586   5.332   6.340   5.140  1.7571  2.3659  3.4454
   84MOL0     H11587   5.507   6.347   5.141  1.6996 -1.2004  1.4568
   84MOL0     H11588   5.341   6.189   5.509 -1.2322  0.1981  0.3222
   84MOL0     H11589   5.664   6.125   4.606 -2.7434 -0.5070  2.0309
   84MOL0     H11590   5.666   6.000   4.295  0.2631 -0.9405  0.8657
   84MOL0     H11591   5.736   6.130   4.387 -0.3482  0.6449  0.4355
   84MOL0     H11592   5.840   5.998   4.335 -0.6122 -2.7477 -1.4308
   85MOL0     O11593   8.399   1.090   6.498  0.0748  0.2870  0.1808
   85MOL0     C11594   8.385   1.038   6.388 -0.5117 -1.0412  1.2354
   85MOL0     O11595   8.458   0.937   6.333  0.6382 -0.7874 -0.7147
   85MOL0     C11596   8.592   0.938   6.372 -0.1368 -0.2998 -0.7262
   85MOL0     C11597   8.658   0.814   6.369 -0.0831  0.0317 -0.3537
   85MOL0     C11598   8.796   0.808   6.383 -0.0269 -0.4417 -0.4851
   85MOL0     C11599   8.876   0.922   6.410  0.4689  0.0845 -0.8783
   85MOL0     O11600   9.007   0.914   6.442 -0.2537  0.0209  0.1399
   85MOL0     C11601   9.114   0.834   6.374  0.8554 -0.1918  0.5465
   85MOL0     C11602   9.248   0.902   6.382 -0.8206 -0.5706  0.0339
   85MOL0     C11603   9.263   1.038   6.310 -0.0509 -0.0581  0.4589
   85MOL0     C11604   9.234   1.044   6.157  0.6103  0.2637 -0.1380
   85MOL0     C11605   9.359   1.003   6.079  0.0571 -1.0244 -0.0494
   85MOL0     C11606   9.353   1.026   5.923 -0.3612 -0.2836  0.1218
   85MOL0     C11607   9.453   0.941   5.847 -0.9701  0.4533 -0.8360
   85MOL0     C11608   9.464   0.981   5.704 -0.3907 -0.4113  0.2229
   85MOL0     N11609   9.554   0.888   5.634  0.5090  0.5248 -0.1740
   85MOL0     C11610   9.514   0.822   5.520 -0.4723 -0.2981  0.0663
   85MOL0     C11611   9.620   0.742   5.496  0.2751  0.1869 -0.0327
   85MOL0     C11612   9.607   0.628   5.397 -0.5915  0.5644 -0.6196
   85MOL0     C11613   9.739   0.538   5.384 -0.2755  0.1642  0.6477
   85MOL0     C11614   9.838   0.609   5.288 -0.3207  0.8102  0.4659
   85MOL0     C11615   9.981   0.548   5.281  0.3808 -0.0735 -0.4627
   85MOL0     O11616   9.983   0.403   5.279  0.1473  0.0696 -0.2148
   85MOL0     C11617   9.949   0.338   5.173 -0.5624 -0.1679 -0.5699
   85MOL0     C11618   9.923   0.206   5.194 -0.4264  0.0656  0.5392
   85MOL0     C11619   9.901   0.113   5.094 -1.0469  0.1126 -0.1141
   85MOL0     C11620   9.882  -0.032   5.137 -0.6501  0.1140  0.1274
   85MOL0     C11621   9.909   0.157   4.960 -1.0598 -0.3005 -0.3920
   85MOL0     C11622   9.907   0.074   4.836  0.4915 -0.5318 -1.5412
   85MOL0     O11623   9.843  -0.049   4.834 -0.0370  0.2802  0.4701
   85MOL0     C11624   9.816  -0.106   4.709 -1.2651  0.0499  0.4252
   85MOL0     C11625   9.911  -0.174   4.643  0.4049 -0.3190 -0.7943
   85MOL0     C11626   9.886  -0.225   4.514  0.1391 -0.2749  0.7677
   85MOL0     C11627   9.763  -0.209   4.448  0.2076 -0.3575  0.3067
   85MOL0     O11628   9.739  -0.259   4.322 -0.1043 -0.7197 -0.0866
   85MOL0     C11629   9.694  -0.395   4.326  0.5113 -0.3268 -0.1252
   85MOL0     C11630   9.591  -0.412   4.207 -0.4184  0.5274 -0.3778
   85MOL0     C11631   9.556  -0.566   4.182 -0.7911 -0.9989 -0.6821
   85MOL0     C11632   9.523  -0.648   4.317 -0.1447 -0.7973  0.0368
   85MOL0     C11633   9.465  -0.783   4.286 -0.6851  0.8615  0.1010
   85MOL0     C11634   9.442  -0.857   4.415 -0.4082  1.2669 -0.2368
   85MOL0     C11635   9.411  -0.999   4.380  0.2765 -0.3324 -0.6268
   85MOL0     C11636   9.336  -1.074   4.491  0.6287  0.9486 -0.1874
   85MOL0    Cl11637   9.436  -1.092   4.644 -0.1656  0.1675 -0.4622
   85MOL0     C11638   9.667  -0.133   4.520  0.8424  0.4211  0.9556
   85MOL0     C11639   9.689  -0.085   4.643 -1.0061  0.8933  0.2202
   85MOL0     O11640   9.961   0.116   4.741  0.1140 -0.7284  0.2540
   85MOL0     C11641   9.932   0.295   4.935  0.3567 -0.9533 -0.0975
   85MOL0     C11642   9.950   0.388   5.039  0.0468  0.1854 -0.1281
   85MOL0     N11643   9.708   0.748   5.603 -1.1523 -0.0244 -0.0830
   85MOL0     N11644   9.675   0.843   5.676  0.0352 -0.2719  0.1355
   85MOL0     C11645   8.801   1.043   6.431  0.3160  0.5494 -0.2778
   85MOL0     C11646   8.662   1.057   6.412  1.2774  0.0155  0.3529
   85MOL0     C11647   8.257   1.074   6.317  0.1820 -0.2501  0.5571
   85MOL0     C11648   8.147   1.081   6.397  0.3400  0.0040  0.1715
   85MOL0     C11649   8.025   1.110   6.342 -0.4720 -0.5294 -0.8872
   85MOL0     C11650   8.014   1.136   6.212  0.0052 -0.9610  0.0739
   85MOL0     O11651   7.887   1.153   6.174 -0.3202  0.6806  0.1070
   85MOL0     C11652   7.853   1.175   6.035 -0.9034  0.7787  0.6825
   85MOL0     C11653   7.700   1.176   6.018  0.3145  0.1558  0.2099
   85MOL0     C11654   7.640   1.030   6.027  1.1419  0.3596 -0.3159
   85MOL0     C11655   7.485   1.036   6.040  0.1832  0.0229 -0.1776
   85MOL0     C11656   7.430   0.921   6.112 -0.2629  0.5920  0.0707
   85MOL0     C11657   7.373   0.835   6.166 -0.5735  1.8910  0.2506
   85MOL0     C11658   8.126   1.130   6.126  0.0403  0.5461 -0.2084
   85MOL0     C11659   8.254   1.102   6.181  0.3857 -0.8605  0.1918
   85MOL0     C11660   8.375   1.107   6.097  0.0883 -0.0400 -0.2818
   85MOL0     H11661   8.602   0.722   6.349 -2.1155  0.9528  0.8331
   85MOL0     H11662   8.839   0.708   6.390 -1.5841 -1.1139 -0.0431
   85MOL0     H11663   9.089   0.842   6.268  1.2164  2.2310  0.5997
   85MOL0     H11664   9.126   0.728   6.397  1.9028 -0.9276 -2.7787
   85MOL0     H11665   9.277   0.915   6.486 -2.7559  0.6729  0.4754
   85MOL0     H11666   9.322   0.832   6.341 -0.1970 -0.2836  0.6543
   85MOL0     H11667   9.186   1.098   6.361  0.3976  0.8483  0.0794
   85MOL0     H11668   9.354   1.089   6.341  0.9932 -0.0949 -2.3599
   85MOL0     H11669   9.145   0.985   6.134 -0.0709  2.4532 -4.0979
   85MOL0     H11670   9.203   1.146   6.132 -0.3145  0.2467  0.8760
   85MOL0     H11671   9.382   0.901   6.110 -0.8140 -1.1958  0.0406
   85MOL0     H11672   9.435   1.075   6.112 -1.3756  0.5784 -0.1531
   85MOL0     H11673   9.249   1.013   5.892 -0.7673  1.8207  0.4407
   85MOL0     H11674   9.371   1.133   5.905 -1.9914 -0.4990 -3.7462
   85MOL0     H11675   9.414   0.840   5.856  0.4073 -0.1571 -1.5156
   85MOL0     H11676   9.555   0.943   5.886 -0.9893 -0.5360 -0.7320
   85MOL0     H11677   9.366   0.981   5.654  0.6777 -2.4167 -2.0089
   85MOL0     H11678   9.508   1.081   5.692  0.4624 -0.9239 -1.0434
   85MOL0     H11679   9.422   0.831   5.463  0.0684 -0.8504 -0.9246
   85MOL0     H11680   9.560   0.639   5.299  0.2640 -1.9800 -1.3942
   85MOL0     H11681   9.543   0.552   5.442  0.9367 -1.0243 -0.9912
   85MOL0     H11682   9.781   0.533   5.485 -0.5630  0.4693  0.7851
   85MOL0     H11683   9.724   0.435   5.351  1.5250  0.4758 -1.3968
   85MOL0     H11684   9.795   0.590   5.189  0.6992 -3.1333  0.6023
   85MOL0     H11685   9.852   0.714   5.314  2.9808 -0.0533  2.7744
   85MOL0     H11686  10.037   0.598   5.201 -0.8205  2.6184  0.2865
   85MOL0     H11687  10.025   0.575   5.377 -2.8633 -1.2187  1.5292
   85MOL0     H11688   9.944   0.158   5.289  0.2259  2.3177  1.5993
   85MOL0     H11689   9.881  -0.045   5.246 -0.3906  1.5970  0.3305
   85MOL0     H11690   9.963  -0.094   5.098 -2.3015 -1.8538 -0.3407
   85MOL0     H11691   9.793  -0.083   5.098  0.4338 -0.6531 -1.4304
   85MOL0     H11692  10.009  -0.186   4.688 -0.1761 -1.0899  0.3089
   85MOL0     H11693   9.969  -0.273   4.463 -0.1227  0.9473 -0.8621
   85MOL0     H11694   9.778  -0.464   4.319  1.9056  1.2547  0.3128
   85MOL0     H11695   9.637  -0.413   4.417 -2.3276  0.2756 -1.6644
   85MOL0     H11696   9.505  -0.348   4.229  1.1246  2.5610  0.0131
   85MOL0     H11697   9.636  -0.376   4.114 -0.6977 -1.3448 -1.2882
   85MOL0     H11698   9.651  -0.608   4.147  1.6217  1.5621  2.1388
   85MOL0     H11699   9.482  -0.557   4.102  0.6090 -0.0262 -1.9254
   85MOL0     H11700   9.442  -0.590   4.363 -0.8748 -0.5050 -1.5530
   85MOL0     H11701   9.616  -0.648   4.374  0.8385  0.8894 -1.4486
   85MOL0     H11702   9.377  -0.778   4.221  1.3143 -1.5866 -3.1324
   85MOL0     H11703   9.534  -0.838   4.222 -1.8057 -0.6108  0.1248
   85MOL0     H11704   9.354  -0.818   4.467  0.0383 -0.8806  2.3500
   85MOL0     H11705   9.523  -0.845   4.487  0.5386  2.3440 -1.4341
   85MOL0     H11706   9.498  -1.059   4.353 -2.7773 -3.5625 -4.6776
   85MOL0     H11707   9.351  -1.003   4.288  2.8957 -0.7965 -2.4392
   85MOL0     H11708   9.306  -1.170   4.447  3.7454  0.3164 -1.1658
   85MOL0     H11709   9.246  -1.019   4.522  1.4448  0.6809  3.0077
   85MOL0     H11710   9.577  -0.107   4.466  0.9313 -1.3257 -0.1169
   85MOL0     H11711   9.616  -0.031   4.702  0.1256 -0.8679  3.4507
   85MOL0     H11712   9.945   0.325   4.832 -0.1612  1.9671  0.6094
   85MOL0     H11713   9.976   0.492   5.024 -0.0828  0.6001  2.0696
   85MOL0     H11714   8.858   1.120   6.481 -2.6037  1.6172  1.6856
   85MOL0     H11715   8.614   1.154   6.419  0.8876 -0.2030  0.7757
   85MOL0     H11716   8.149   1.051   6.501  4.1175 -0.2938  0.1505
   85MOL0     H11717   7.941   1.113   6.412 -0.0594  0.4700 -0.4169
   85MOL0     H11718   7.907   1.262   5.997 -2.0256 -0.1018 -3.3342
   85MOL0     H11719   7.884   1.087   5.978 -0.9924  0.0185  1.7641
   85MOL0     H11720   7.681   1.211   5.916  2.3292  0.4707 -0.0831
   85MOL0     H11721   7.654   1.238   6.095  1.6941 -0.1099  1.2953
   85MOL0     H11722   7.655   0.983   5.930 -0.5141  2.6630 -1.7933
   85MOL0     H11723   7.678   0.965   6.106  0.6234 -0.4783 -0.7356
   85MOL0     H11724   7.428   1.058   5.949 -1.4095  2.0649  1.2326
   85MOL0     H11725   7.456   1.111   6.113 -2.6982 -1.4363  0.3228
   85MOL0     H11726   7.324   0.764   6.229  0.5936  1.0164  0.2168
   85MOL0     H11727   8.119   1.160   6.022 -0.1403  1.0770 -0.0497
   85MOL0     H11728   8.361   1.109   5.988 -2.5634  1.2162 -0.0027
   85MOL0     H11729   8.451   1.179   6.127 -1.0841 -0.0011  2.9370
   85MOL0     H11730   8.422   1.009   6.104  2.6449  1.1672  0.3129
   86MOL0     O11731   7.777   6.248   8.676  0.5147  0.9858 -0.1401
   86MOL0     C11732   7.821   6.231   8.791  0.4562  0.2876  0.9453
   86MOL0     O11733   7.930   6.290   8.837  0.2945 -0.3961  0.1798
   86MOL0     C11734   7.988   6.394   8.763  0.4902 -1.1197 -0.2217
   86MOL0     C11735   8.123   6.390   8.755  0.6136 -0.0852 -0.1339
   86MOL0     C11736   8.196   6.496   8.686 -0.2544 -0.1287  0.8261
   86MOL0     C11737   8.133   6.608   8.635 -0.2334 -0.1833 -0.6282
   86MOL0     O11738   8.213   6.706   8.588 -0.0692 -0.4712 -0.4484
   86MOL0     C11739   8.172   6.842   8.576 -0.6277  0.2591 -0.9035
   86MOL0     C11740   8.278   6.925   8.486  0.3496 -0.6158 -0.2333
   86MOL0     C11741   8.240   7.076   8.462  0.1118 -0.2821  0.2385
   86MOL0     C11742   8.246   7.166   8.583 -0.2925  0.8108  0.0187
   86MOL0     C11743   8.245   7.318   8.542 -0.2222  0.0293 -0.1092
   86MOL0     C11744   8.377   7.389   8.548 -0.6887 -0.2277  0.9070
   86MOL0     C11745   8.367   7.522   8.474  1.5392 -0.9066 -0.2341
   86MOL0     C11746   8.274   7.633   8.528 -0.6490 -1.3811 -0.3684
   86MOL0     N11747   8.317   7.685   8.659 -0.2732 -0.4095 -0.7396
   86MOL0     C11748   8.386   7.808   8.677  0.3323 -0.2310 -0.0376
   86MOL0     C11749   8.405   7.808   8.806  0.3543  0.0927 -0.3279
   86MOL0     C11750   8.501   7.904   8.876  0.2796  0.1759  0.5737
   86MOL0     C11751   8.647   7.871   8.878  0.4654  0.0165  0.2964
   86MOL0     C11752   8.708   7.861   8.732 -0.1445  0.1363  0.5490
   86MOL0     C11753   8.703   7.993   8.665 -0.1400 -0.5003 -0.1853
   86MOL0     O11754   8.801   8.071   8.725 -0.3106  0.2087 -0.9897
   86MOL0     C11755   8.780   8.211   8.716 -0.2514 -0.1396  0.5018
   86MOL0     C11756   8.862   8.289   8.798 -0.3432  0.5980  0.1962
   86MOL0     C11757   8.847   8.429   8.807 -0.5768 -0.3066 -0.6329
   86MOL0     C11758   8.942   8.500   8.899  0.6281 -0.6155  0.2927
   86MOL0     C11759   8.744   8.490   8.735 -0.1777 -0.2645  0.0817
   86MOL0     C11760   8.719   8.633   8.745 -0.4159 -0.5775  0.1196
   86MOL0     O11761   8.589   8.670   8.783 -0.4466  0.1784  0.0833
   86MOL0     C11762   8.554   8.801   8.801 -0.6408  1.0308  0.3448
   86MOL0     C11763   8.431   8.831   8.768  1.4235 -0.4029 -0.9673
   86MOL0     C11764   8.381   8.966   8.785  0.0462  0.8900 -0.4969
   86MOL0     C11765   8.461   9.064   8.822 -1.0227  0.0509 -0.6855
   86MOL0     O11766   8.424   9.193   8.818  0.6522  0.1305 -0.6441
   86MOL0     C11767   8.519   9.290   8.777 -0.2253 -0.0208 -0.8396
   86MOL0     C11768   8.463   9.433   8.761  0.5020  0.8265  0.0316
   86MOL0     C11769   8.373   9.462   8.648  0.8723 -0.2041  0.4358
   86MOL0     C11770   8.461   9.486   8.517 -0.2125  0.3885  0.1055
   86MOL0     C11771   8.548   9.612   8.518  0.3657  0.2475 -0.4882
   86MOL0     C11772   8.585   9.679   8.371 -0.5450  0.3466 -0.5604
   86MOL0     C11773   8.689   9.794   8.384  0.8037 -0.2219  0.3404
   86MOL0     C11774   8.625   9.937   8.425  0.4078  0.7457  1.4400
   86MOL0    Cl11775   8.563  10.000   8.260  0.0561 -0.5382  0.0247
   86MOL0     C11776   8.590   9.022   8.862  0.0587 -0.6128 -0.4092
   86MOL0     C11777   8.639   8.889   8.855 -0.2721  0.4390 -1.6141
   86MOL0     O11778   8.811   8.708   8.706 -0.0068  1.0339  0.1043
   86MOL0     C11779   8.661   8.417   8.648  0.2261 -0.3090  0.1793
   86MOL0     C11780   8.686   8.279   8.643  0.7172 -1.3757 -0.0719
   86MOL0     N11781   8.341   7.703   8.873 -0.2815 -0.4764 -0.5408
   86MOL0     N11782   8.278   7.637   8.776 -1.2013  0.0843 -0.9117
   86MOL0     C11783   7.995   6.612   8.651 -0.4954 -0.5083  0.3890
   86MOL0     C11784   7.924   6.510   8.700 -0.2685  0.4258 -0.7027
   86MOL0     C11785   7.775   6.123   8.868 -0.2161 -0.1775 -0.6860
   86MOL0     C11786   7.827   6.117   8.999  0.6509 -0.1575 -0.8257
   86MOL0     C11787   7.807   6.007   9.088 -0.2104 -0.6070 -0.0447
   86MOL0     C11788   7.723   5.900   9.051  0.6268  0.2480 -0.0081
   86MOL0     O11789   7.693   5.813   9.152  0.4833  0.0932 -0.1642
   86MOL0     C11790   7.572   5.742   9.151 -0.4008  0.5430  1.2610
   86MOL0     C11791   7.445   5.827   9.129 -0.3882  0.2642  0.4957
   86MOL0     C11792   7.328   5.784   9.229 -0.8476  0.1871 -0.4165
   86MOL0     C11793   7.215   5.886   9.211  0.7620  0.3085  0.0142
   86MOL0     C11794   7.123   5.850   9.094  0.0079  0.2134 -1.4862
   86MOL0     C11795   7.039   5.818   9.022  1.1247  0.2874  0.6131
   86MOL0     C11796   7.671   5.899   8.916 -0.1165  0.9018 -0.7074
   86MOL0     C11797   7.703   6.007   8.831  0.9307 -0.1213  0.9422
   86MOL0     C11798   7.648   5.985   8.691  0.7402 -0.1374  0.2915
   86MOL0     H11799   8.177   6.302   8.788 -1.8748 -3.0787 -3.2652
   86MOL0     H11800   8.302   6.482   8.674 -0.6062 -0.8798 -2.4775
   86MOL0     H11801   8.159   6.875   8.680 -3.2379  1.1443 -1.4366
   86MOL0     H11802   8.072   6.863   8.536 -0.7760  0.2350 -0.5461
   86MOL0     H11803   8.379   6.927   8.529  0.7716 -1.3541 -1.1731
   86MOL0     H11804   8.283   6.873   8.391  2.7688 -2.9449  1.0447
   86MOL0     H11805   8.306   7.123   8.389  1.2909  0.8409  1.9611
   86MOL0     H11806   8.137   7.084   8.424  0.1125  1.0577  0.4826
   86MOL0     H11807   8.153   7.144   8.638 -1.1525 -1.0628 -2.0184
   86MOL0     H11808   8.335   7.138   8.640  0.5410 -0.4320 -1.7866
   86MOL0     H11809   8.183   7.361   8.621  0.6885  1.6206 -0.2136
   86MOL0     H11810   8.192   7.331   8.447 -0.2729  1.5957  0.1135
   86MOL0     H11811   8.399   7.400   8.654 -3.7303 -0.5672  1.6515
   86MOL0     H11812   8.453   7.333   8.493 -2.0528 -2.3942  1.0991
   86MOL0     H11813   8.339   7.513   8.368 -1.9430 -1.1648  0.6002
   86MOL0     H11814   8.469   7.562   8.477  1.9527 -1.7481 -1.7678
   86MOL0     H11815   8.271   7.721   8.463  0.1541 -0.9906  0.0988
   86MOL0     H11816   8.171   7.601   8.543 -0.1400 -2.1814  1.7116
   86MOL0     H11817   8.424   7.882   8.607  0.5459  1.9696  2.2414
   86MOL0     H11818   8.471   7.917   8.980  0.4942 -0.1127  0.6724
   86MOL0     H11819   8.491   8.002   8.828 -2.2549 -0.7895 -1.0814
   86MOL0     H11820   8.693   7.964   8.910  1.9917  0.2859 -2.3934
   86MOL0     H11821   8.666   7.784   8.941 -2.4078 -2.1662 -1.5753
   86MOL0     H11822   8.813   7.833   8.747  0.1037  1.1674  0.8057
   86MOL0     H11823   8.660   7.783   8.672  0.0799  1.0253 -0.8251
   86MOL0     H11824   8.731   7.976   8.560 -0.6549  3.1192 -1.0381
   86MOL0     H11825   8.605   8.041   8.667  0.7192  1.4070 -1.0368
   86MOL0     H11826   8.947   8.246   8.849 -1.2624  0.6098  1.7889
   86MOL0     H11827   8.882   8.569   8.959 -0.1031  0.1012 -1.1821
   86MOL0     H11828   9.012   8.557   8.836 -0.7592 -0.4965 -1.2321
   86MOL0     H11829   9.007   8.436   8.958  3.0892 -0.2025 -1.8005
   86MOL0     H11830   8.355   8.761   8.737 -0.7819  1.8865 -1.0262
   86MOL0     H11831   8.278   8.986   8.756  0.2393 -1.6685 -3.5238
   86MOL0     H11832   8.614   9.294   8.832  0.1960  0.0713 -1.5563
   86MOL0     H11833   8.545   9.250   8.678 -2.2319 -0.7305 -1.1176
   86MOL0     H11834   8.411   9.448   8.857  0.4416  0.7895  0.0045
   86MOL0     H11835   8.544   9.507   8.761  1.5773 -0.3212  0.4049
   86MOL0     H11836   8.308   9.548   8.667  0.1272 -1.1098  2.1467
   86MOL0     H11837   8.300   9.385   8.624 -1.2889  1.5781  0.9164
   86MOL0     H11838   8.391   9.503   8.434  0.7207  1.6079 -0.4669
   86MOL0     H11839   8.521   9.399   8.490 -1.5096 -0.5382  0.1154
   86MOL0     H11840   8.487   9.690   8.565  3.0420  1.6419  0.8804
   86MOL0     H11841   8.641   9.607   8.575  1.8066  3.3838 -2.2443
   86MOL0     H11842   8.496   9.712   8.317 -1.7441  1.5937  2.0116
   86MOL0     H11843   8.630   9.595   8.318 -1.0145  0.0864 -0.5581
   86MOL0     H11844   8.748   9.804   8.292 -0.4087  1.4357 -0.2975
   86MOL0     H11845   8.753   9.762   8.467 -1.4196 -0.4395  2.0743
   86MOL0     H11846   8.698  10.017   8.446  1.7201 -0.6222  2.2949
   86MOL0     H11847   8.545   9.929   8.499 -0.6743  3.1488  0.6350
   86MOL0     H11848   8.646   9.100   8.911 -1.4371  0.1643  0.1399
   86MOL0     H11849   8.736   8.861   8.895 -0.2591 -0.1422 -2.0447
   86MOL0     H11850   8.583   8.460   8.586 -0.2792 -1.6542 -0.1371
   86MOL0     H11851   8.616   8.231   8.576 -1.3409  0.7524  0.4304
   86MOL0     H11852   7.935   6.701   8.639  0.6222  0.1331 -0.7328
   86MOL0     H11853   7.817   6.509   8.721  0.1113 -0.3483  1.5246
   86MOL0     H11854   7.895   6.189   9.043 -0.9279 -0.0405  1.6477
   86MOL0     H11855   7.842   6.023   9.190  0.1159  1.8368 -0.4778
   86MOL0     H11856   7.568   5.662   9.076 -2.5976  2.5103 -0.9086
   86MOL0     H11857   7.567   5.693   9.249  1.2193 -2.7053 -0.1077
   86MOL0     H11858   7.402   5.825   9.028 -0.9306  2.0813  0.6492
   86MOL0     H11859   7.455   5.935   9.141 -1.5499  0.2311  2.0241
   86MOL0     H11860   7.282   5.689   9.202  2.3213 -1.5951 -0.0040
   86MOL0     H11861   7.375   5.785   9.328 -0.9920  0.7789 -0.3462
   86MOL0     H11862   7.256   5.987   9.207 -0.2940  0.7523  0.0905
   86MOL0     H11863   7.156   5.896   9.303 -1.0949 -1.1632 -0.9481
   86MOL0     H11864   6.956   5.798   8.957  2.3841 -0.5479 -0.8217
   86MOL0     H11865   7.604   5.817   8.891 -0.3680  0.3947  1.4816
   86MOL0     H11866   7.614   6.070   8.630  0.6648 -0.3567  0.0283
   86MOL0     H11867   7.731   5.949   8.631  0.8826 -0.5610  0.7363
   86MOL0     H11868   7.569   5.909   8.695  1.8415 -1.2775  0.8948
   87MOL0     O11869   2.841   3.539   8.973  0.3554 -0.1986 -0.5702
   87MOL0     C11870   2.748   3.605   9.025 -0.4307  0.6293 -0.0264
   87MOL0     O11871   2.774   3.697   9.120 -0.0075 -0.1607 -0.1490
   87MOL0     C11872   2.902   3.708   9.168  0.3129  0.1748 -0.1726
   87MOL0     C11873   2.929   3.689   9.307 -0.1388  0.7578 -0.2478
   87MOL0     C11874   3.059   3.690   9.341 -0.1188 -0.2121  0.8163
   87MOL0     C11875   3.169   3.728   9.256  0.6334 -0.4869 -0.2358
   87MOL0     O11876   3.306   3.733   9.277 -0.1092  0.1877  0.5184
   87MOL0     C11877   3.352   3.663   9.399 -0.0634 -0.1013  0.0194
   87MOL0     C11878   3.505   3.650   9.388  0.5090  0.1830 -0.6179
   87MOL0     C11879   3.566   3.613   9.519 -0.6482 -0.1893 -1.2000
   87MOL0     C11880   3.633   3.726   9.593 -0.7226  0.2722  0.7817
   87MOL0     C11881   3.538   3.842   9.629 -0.3946 -0.5075 -1.1964
   87MOL0     C11882   3.614   3.919   9.749 -0.5772 -0.0672  0.8511
   87MOL0     C11883   3.550   4.041   9.806  0.6955 -0.2222  0.3225
   87MOL0     C11884   3.446   4.018   9.914 -0.0791  0.1605 -0.3053
   87MOL0     N11885   3.495   3.943  10.037 -0.4297  0.4398 -0.1206
   87MOL0     C11886   3.566   3.996  10.138 -0.6242 -0.1048  0.2321
   87MOL0     C11887   3.561   3.902  10.230 -0.7109  0.5309 -0.1637
   87MOL0     C11888   3.626   3.913  10.360  0.0090 -0.7985  1.0680
   87MOL0     C11889   3.687   3.780  10.389  1.5439  0.0432  1.1938
   87MOL0     C11890   3.799   3.804  10.483 -0.2233 -0.0038  0.5088
   87MOL0     C11891   3.929   3.866  10.415  0.6480  0.8864 -0.0426
   87MOL0     O11892   4.009   3.759  10.383 -0.2286  0.4334 -0.1330
   87MOL0     C11893   4.122   3.788  10.306  0.6709  0.0234 -0.6097
   87MOL0     C11894   4.156   3.694  10.207  0.4139  0.5835 -0.0425
   87MOL0     C11895   4.250   3.725  10.106  0.6381 -0.6519  0.4088
   87MOL0     C11896   4.263   3.635   9.986 -0.0384 -0.1076  0.4972
   87MOL0     C11897   4.316   3.848  10.108 -0.1625 -0.4248  0.5298
   87MOL0     C11898   4.418   3.887  10.010 -1.0768  0.7629 -0.2718
   87MOL0     O11899   4.460   4.018  10.023  0.2902 -0.3696  0.3525
   87MOL0     C11900   4.549   4.074   9.935  0.4252 -0.1072 -0.7349
   87MOL0     C11901   4.671   4.009   9.894 -0.1345 -0.4030 -0.0944
   87MOL0     C11902   4.759   4.077   9.816  0.2590 -0.4044  0.7763
   87MOL0     C11903   4.731   4.200   9.760 -0.1076 -0.2536  0.1739
   87MOL0     O11904   4.821   4.259   9.682 -0.0558 -0.2092  0.8023
   87MOL0     C11905   4.797   4.398   9.645  0.0744  0.5697  0.0664
   87MOL0     C11906   4.889   4.440   9.539 -0.7867 -0.4502  0.3923
   87MOL0     C11907   4.876   4.366   9.402  0.5691  0.2815  1.0493
   87MOL0     C11908   4.842   4.460   9.282 -0.0329  0.1732 -0.0146
   87MOL0     C11909   4.801   4.389   9.161 -0.7683 -0.1348  0.7336
   87MOL0     C11910   4.927   4.324   9.090  0.0734 -0.0721  0.1011
   87MOL0     C11911   4.889   4.265   8.958 -0.3154  0.6118  0.6550
   87MOL0     C11912   5.005   4.181   8.887  1.0946  0.2762  0.3478
   87MOL0    Cl11913   4.966   4.120   8.725  0.1367  0.2264 -0.0351
   87MOL0     C11914   4.603   4.255   9.785  0.3007  0.5678 -0.4511
   87MOL0     C11915   4.517   4.202   9.881 -0.0883  0.7972 -0.2962
   87MOL0     O11916   4.457   3.808   9.923  0.4936 -0.3410  0.1707
   87MOL0     C11917   4.287   3.939  10.215 -0.4285 -0.1759  0.0064
   87MOL0     C11918   4.193   3.909  10.314 -0.4916  0.2360  0.2184
   87MOL0     N11919   3.483   3.795  10.190 -0.5069 -0.2106  0.0735
   87MOL0     N11920   3.455   3.821  10.064 -0.1005  0.2282  0.8152
   87MOL0     C11921   3.129   3.778   9.130  0.6314 -0.2371  0.0955
   87MOL0     C11922   2.997   3.766   9.087 -0.5977 -0.1782 -0.8122
   87MOL0     C11923   2.602   3.573   8.996 -0.1006 -0.6357  0.3388
   87MOL0     C11924   2.508   3.572   9.097  0.6877  1.2093  0.1635
   87MOL0     C11925   2.375   3.551   9.081  0.0939  0.6473  0.5955
   87MOL0     C11926   2.322   3.530   8.952  0.0368 -0.5806 -0.4768
   87MOL0     O11927   2.189   3.511   8.914  0.2014 -0.2516  0.8596
   87MOL0     C11928   2.077   3.532   9.000 -0.7339 -0.4553  0.0492
   87MOL0     C11929   1.952   3.573   8.920 -0.6543  0.4971  0.6659
   87MOL0     C11930   1.898   3.450   8.834  0.1494  0.1679  0.4472
   87MOL0     C11931   1.789   3.487   8.731  0.3764 -0.2687  0.1240
   87MOL0     C11932   1.668   3.419   8.770  0.4127 -0.3469 -0.7822
   87MOL0     C11933   1.572   3.359   8.810 -0.2915 -1.0142 -0.6748
   87MOL0     C11934   2.412   3.551   8.845 -0.3323  0.3290 -0.3581
   87MOL0     C11935   2.547   3.575   8.864 -0.3543  1.1365 -0.1432
   87MOL0     C11936   2.635   3.610   8.744 -0.0037 -0.5595  0.8892
   87MOL0     H11937   2.859   3.657   9.383  2.2261 -1.9594  0.9902
   87MOL0     H11938   3.092   3.688   9.445 -1.2000  0.6145  1.1907
   87MOL0     H11939   3.312   3.562   9.412 -3.3882  0.5043 -3.6023
   87MOL0     H11940   3.326   3.729   9.482  1.4457  0.0971  0.3715
   87MOL0     H11941   3.533   3.567   9.321  1.0724  1.0765 -1.5250
   87MOL0     H11942   3.547   3.738   9.338  0.7146  0.2492 -0.3301
   87MOL0     H11943   3.484   3.574   9.580 -2.7596  1.0198 -3.0625
   87MOL0     H11944   3.643   3.540   9.492  1.6181  2.0094 -1.0566
   87MOL0     H11945   3.678   3.672   9.677  2.2804 -1.1128 -1.5297
   87MOL0     H11946   3.709   3.763   9.523 -1.6056 -0.0364 -0.3823
   87MOL0     H11947   3.443   3.811   9.674  0.6403 -0.5297  1.1019
   87MOL0     H11948   3.522   3.903   9.540  0.3164 -0.5209 -1.3386
   87MOL0     H11949   3.631   3.845   9.828 -1.2203  0.7003  1.7207
   87MOL0     H11950   3.706   3.947   9.697 -0.8136  0.2592  0.5998
   87MOL0     H11951   3.517   4.105   9.723 -1.2646  0.0554  1.2429
   87MOL0     H11952   3.639   4.085   9.852  0.0364  0.2737  1.1581
   87MOL0     H11953   3.418   4.119   9.945 -1.7565  0.5105 -2.7246
   87MOL0     H11954   3.356   3.972   9.873  0.7769 -3.2059  1.2909
   87MOL0     H11955   3.617   4.092  10.143  0.9237 -0.7880 -1.2160
   87MOL0     H11956   3.542   3.934  10.427 -1.8248 -0.1308 -1.2638
   87MOL0     H11957   3.695   3.998  10.359  0.2412 -0.9880  0.7837
   87MOL0     H11958   3.614   3.711  10.432  0.5789 -0.8582 -1.6192
   87MOL0     H11959   3.722   3.725  10.301  3.3700  0.0419  1.8624
   87MOL0     H11960   3.767   3.876  10.559  2.1699 -0.6849  2.2692
   87MOL0     H11961   3.820   3.708  10.532  0.0264 -0.4525 -0.4629
   87MOL0     H11962   3.911   3.922  10.322 -1.1239  2.1083  0.9831
   87MOL0     H11963   3.980   3.912  10.500  3.4178 -2.7167  0.4641
   87MOL0     H11964   4.099   3.603  10.197  1.5461  0.0171 -1.8705
   87MOL0     H11965   4.350   3.571  10.004 -1.4779 -1.5879  2.7409
   87MOL0     H11966   4.268   3.676   9.884  0.6699 -2.5046 -0.5113
   87MOL0     H11967   4.192   3.552   9.991  2.5388 -2.4956 -0.0021
   87MOL0     H11968   4.707   3.921   9.946 -0.8421 -0.3257  0.5626
   87MOL0     H11969   4.856   4.032   9.801  0.8740  0.9660  0.4836
   87MOL0     H11970   4.698   4.416   9.603 -0.4126 -0.1543  0.8746
   87MOL0     H11971   4.816   4.468   9.727  0.1661  0.9902 -0.3133
   87MOL0     H11972   4.893   4.547   9.515  2.0684 -0.8049 -1.1600
   87MOL0     H11973   4.981   4.415   9.592  0.9480 -0.1308 -2.2678
   87MOL0     H11974   4.816   4.275   9.414  1.8475 -0.4821  1.9454
   87MOL0     H11975   4.979   4.331   9.389  0.5524  1.1272 -2.0228
   87MOL0     H11976   4.925   4.531   9.271  0.1212  0.3255  1.7895
   87MOL0     H11977   4.759   4.515   9.326 -0.3960  0.4844 -1.0656
   87MOL0     H11978   4.739   4.300   9.172  1.9086 -2.5115 -1.5875
   87MOL0     H11979   4.744   4.455   9.095 -1.8715  1.0513  2.8018
   87MOL0     H11980   4.968   4.253   9.162  1.9301  3.5868  3.0019
   87MOL0     H11981   5.004   4.398   9.065  0.1965  0.2260  1.3021
   87MOL0     H11982   4.849   4.336   8.884  0.5023  1.8528  1.3541
   87MOL0     H11983   4.801   4.203   8.978 -1.0307  2.0166  2.1497
   87MOL0     H11984   5.035   4.104   8.958 -5.0442 -0.0554  3.1623
   87MOL0     H11985   5.086   4.255   8.878  1.3885  0.0731  1.1668
   87MOL0     H11986   4.571   4.346   9.735 -2.9731 -0.5402 -0.6503
   87MOL0     H11987   4.424   4.251   9.907  1.2745  1.6446  3.7426
   87MOL0     H11988   4.355   4.022  10.232 -0.0924 -0.7029  1.3458
   87MOL0     H11989   4.176   3.982  10.393 -0.3530 -1.0760  1.4970
   87MOL0     H11990   3.207   3.825   9.071  1.2482  0.2290  1.2576
   87MOL0     H11991   2.972   3.810   8.991  0.9879  1.0800 -0.6959
   87MOL0     H11992   2.546   3.574   9.199  0.8372 -2.9335  0.3551
   87MOL0     H11993   2.308   3.536   9.165  1.2474 -1.6248  1.2092
   87MOL0     H11994   2.061   3.444   9.063  0.9117  0.3328  1.6830
   87MOL0     H11995   2.092   3.611   9.075  1.6241 -1.2727  0.5350
   87MOL0     H11996   1.971   3.657   8.853 -2.9915  1.5774  1.2531
   87MOL0     H11997   1.872   3.609   8.986  1.7730  1.3566  3.3456
   87MOL0     H11998   1.987   3.406   8.789 -1.9427 -1.3362 -2.5933
   87MOL0     H11999   1.865   3.374   8.905  0.4712 -1.5590 -1.1596
   87MOL0     H12000   1.836   3.457   8.637 -0.4250  0.0937 -0.4052
   87MOL0     H12001   1.772   3.596   8.732  3.5940  0.3248  1.7895
   87MOL0     H12002   1.477   3.321   8.842  0.6660 -2.8479  0.1456
   87MOL0     H12003   2.371   3.553   8.745 -1.4670 -0.1788  0.0765
   87MOL0     H12004   2.577   3.629   8.652  0.5488  0.4219  0.7358
   87MOL0     H12005   2.688   3.703   8.763  3.1477 -1.9369 -0.5064
   87MOL0     H12006   2.707   3.532   8.718  0.7630 -0.1362  1.6880
   88MOL0     O12007  11.329   2.571   9.831  0.8427  0.3661  0.2642
   88MOL0     C12008  11.301   2.561   9.954  0.2764 -0.5060  0.4465
   88MOL0     O12009  11.378   2.506  10.050 -0.0482 -0.2278 -0.4349
   88MOL0     C12010  11.508   2.480  10.019  0.4333  0.7929  0.9478
   88MOL0     C12011  11.543   2.363   9.958  0.7719  0.5989  0.3330
   88MOL0     C12012  11.678   2.329   9.939 -0.3760 -0.2620  0.2414
   88MOL0     C12013  11.775   2.412   9.981  0.7970  0.5741 -0.6155
   88MOL0     O12014  11.905   2.364   9.974 -0.2311  0.8439 -0.6765
   88MOL0     C12015  11.962   2.318  10.095  0.9043 -0.6472 -0.4589
   88MOL0     C12016  12.052   2.194  10.081  0.2048  0.2143  0.4693
   88MOL0     C12017  12.165   2.196   9.976  0.3341 -0.9487 -0.2670
   88MOL0     C12018  12.248   2.075  10.013  0.0780 -1.2231  0.1778
   88MOL0     C12019  12.371   2.072   9.925  0.9972 -0.2329 -0.7456
   88MOL0     C12020  12.454   1.944   9.950  0.1118  0.3846  0.5366
   88MOL0     C12021  12.588   1.929   9.874  0.2726  0.0689  0.5989
   88MOL0     C12022  12.569   1.916   9.721 -0.2732  0.1498 -0.6799
   88MOL0     N12023  12.680   1.843   9.659  0.1190 -0.4697 -0.2814
   88MOL0     C12024  12.679   1.716   9.617 -0.2777  0.1434  0.4673
   88MOL0     C12025  12.802   1.706   9.553 -0.7847 -0.3727 -0.4171
   88MOL0     C12026  12.852   1.579   9.491  0.2525 -0.1806 -0.7266
   88MOL0     C12027  12.985   1.519   9.555  0.0382 -0.1398  0.3782
   88MOL0     C12028  12.969   1.489   9.708  0.7199 -0.3778  0.3490
   88MOL0     C12029  12.840   1.400   9.738  0.4010 -0.8016 -0.4880
   88MOL0     O12030  12.809   1.375   9.874 -0.2030  0.2640  0.0420
   88MOL0     C12031  12.908   1.332   9.965 -0.7648  0.5639  0.7562
   88MOL0     C12032  12.963   1.416  10.065 -0.2963  0.4411  0.0143
   88MOL0     C12033  13.059   1.375  10.154 -0.4237  0.0402 -0.0507
   88MOL0     C12034  13.108   1.477  10.258 -0.1718 -0.4484  0.1480
   88MOL0     C12035  13.112   1.249  10.136 -0.3267  0.0805  1.0287
   88MOL0     C12036  13.227   1.200  10.214  0.1242 -0.1943  0.5068
   88MOL0     O12037  13.336   1.157  10.152  0.1447 -0.7153 -0.2046
   88MOL0     C12038  13.443   1.125  10.231 -0.2829  0.1237  0.0324
   88MOL0     C12039  13.458   0.990  10.255 -0.1315  0.3172 -0.5069
   88MOL0     C12040  13.563   0.949  10.338  0.2145  0.6901  0.4929
   88MOL0     C12041  13.669   1.042  10.368 -0.1433  0.5044  0.3935
   88MOL0     O12042  13.769   0.996  10.454 -0.5277  0.0349 -0.3922
   88MOL0     C12043  13.833   1.097  10.536 -0.6105  0.3278 -0.2485
   88MOL0     C12044  13.954   1.158  10.463 -0.3194 -0.3032 -0.0014
   88MOL0     C12045  14.057   1.054  10.433  0.2479 -0.1067 -0.7312
   88MOL0     C12046  14.195   1.115  10.407  0.2780  0.0120  1.0598
   88MOL0     C12047  14.256   1.209  10.512  0.0756 -0.4634 -0.3488
   88MOL0     C12048  14.404   1.206  10.498 -1.0048  0.4528  0.6330
   88MOL0     C12049  14.501   1.277  10.602  0.3659 -0.3120 -0.2474
   88MOL0     C12050  14.656   1.279  10.574 -0.5464 -0.8077 -0.6545
   88MOL0    Cl12051  14.690   1.411  10.444 -0.1949 -0.0438 -0.3345
   88MOL0     C12052  13.658   1.175  10.325 -0.4624 -0.2468  0.8244
   88MOL0     C12053  13.541   1.215  10.262 -0.6574  0.0868  0.8938
   88MOL0     O12054  13.212   1.194  10.334  0.5100  0.2695  0.1696
   88MOL0     C12055  13.063   1.162  10.031 -0.1170 -0.2773  1.4653
   88MOL0     C12056  12.971   1.206   9.935 -0.7777  0.1636 -1.2218
   88MOL0     N12057  12.868   1.834   9.556 -0.6471  0.1504  0.5111
   88MOL0     N12058  12.792   1.915   9.624 -0.5201  0.3501  0.3884
   88MOL0     C12059  11.742   2.527  10.048  0.1022 -0.5481 -0.0448
   88MOL0     C12060  11.603   2.565  10.065  0.1534  0.3141 -0.2665
   88MOL0     C12061  11.180   2.616  10.010 -0.3395  1.6011  0.3466
   88MOL0     C12062  11.190   2.727  10.098 -0.1108 -0.2439  0.5711
   88MOL0     C12063  11.073   2.794  10.140  0.0751 -0.4709  0.5807
   88MOL0     C12064  10.947   2.747  10.099 -0.0789 -0.8583  0.5502
   88MOL0     O12065  10.826   2.805  10.134 -0.5556  0.9508 -0.1849
   88MOL0     C12066  10.832   2.890  10.247  0.2622  0.2681  0.5368
   88MOL0     C12067  10.691   2.932  10.294  0.3744 -1.3901 -0.1098
   88MOL0     C12068  10.586   2.939  10.181 -0.0345  0.6029 -0.0715
   88MOL0     C12069  10.461   3.015  10.217 -0.4753 -0.8216 -0.1341
   88MOL0     C12070  10.372   3.034  10.106  0.1371 -0.4080 -0.5603
   88MOL0     C12071  10.294   3.056  10.013 -0.9664  0.3417 -0.1162
   88MOL0     C12072  10.946   2.636  10.016  0.2063  0.2688 -0.3687
   88MOL0     C12073  11.055   2.567   9.978  0.1631  0.7697 -0.4323
   88MOL0     C12074  11.044   2.450   9.881  0.0817 -0.3612 -0.2948
   88MOL0     H12075  11.461   2.301   9.925 -0.2427  0.4122  2.9688
   88MOL0     H12076  11.707   2.234   9.896  0.9035 -0.3119  1.1532
   88MOL0     H12077  11.889   2.283  10.168  0.7745  0.4758 -0.0282
   88MOL0     H12078  12.022   2.405  10.126 -1.2624  0.1185  1.9384
   88MOL0     H12079  12.090   2.184  10.182 -0.7156 -2.4824  0.6208
   88MOL0     H12080  11.987   2.112  10.048  2.9050 -1.2425 -1.7261
   88MOL0     H12081  12.136   2.184   9.871  0.8286  1.4925 -0.7508
   88MOL0     H12082  12.221   2.288   9.996 -1.6064  0.1678  0.3486
   88MOL0     H12083  12.278   2.085  10.117  0.1954 -1.4927  0.1719
   88MOL0     H12084  12.188   1.985   9.994 -3.9557  0.9236  1.4594
   88MOL0     H12085  12.441   2.155   9.942  1.5033 -0.2360 -2.6476
   88MOL0     H12086  12.351   2.097   9.820 -1.7182  0.1995 -0.2019
   88MOL0     H12087  12.480   1.925  10.054  2.8828 -1.4262 -0.3668
   88MOL0     H12088  12.384   1.867   9.916  0.2206  0.8142 -0.7137
   88MOL0     H12089  12.640   1.837   9.906 -4.3006 -3.6250 -1.3647
   88MOL0     H12090  12.653   2.013   9.898 -0.9388  0.8599  1.1496
   88MOL0     H12091  12.470   1.875   9.699  0.0454 -0.4291 -1.0447
   88MOL0     H12092  12.573   2.017   9.680  1.2629  0.1148 -0.6723
   88MOL0     H12093  12.598   1.646   9.633 -1.0905  0.6853 -1.0355
   88MOL0     H12094  12.864   1.587   9.383 -1.4892  2.1956 -0.8337
   88MOL0     H12095  12.770   1.509   9.505  1.9179 -1.7275  2.3470
   88MOL0     H12096  13.007   1.430   9.496  0.5695  0.9831 -1.1749
   88MOL0     H12097  13.054   1.600   9.532  0.1221 -0.5338 -0.7850
   88MOL0     H12098  13.060   1.445   9.748  1.0736  3.6728  4.9084
   88MOL0     H12099  12.966   1.583   9.764 -1.1139  0.0253 -0.3504
   88MOL0     H12100  12.753   1.452   9.697  0.1612 -1.5012 -0.8830
   88MOL0     H12101  12.842   1.304   9.685 -0.5361 -0.9156 -0.3336
   88MOL0     H12102  12.923   1.515  10.079 -1.4073 -0.0763  0.6186
   88MOL0     H12103  13.067   1.576  10.240  0.9467 -0.3032 -1.8340
   88MOL0     H12104  13.217   1.484  10.246 -0.6013  2.6402 -3.6974
   88MOL0     H12105  13.096   1.441  10.361  2.1751 -1.7702  0.0484
   88MOL0     H12106  13.379   0.927  10.216 -3.5915  2.2025  2.7954
   88MOL0     H12107  13.566   0.843  10.363  0.4639 -0.1421 -2.6501
   88MOL0     H12108  13.773   1.186  10.552 -3.1070 -1.6273  2.1091
   88MOL0     H12109  13.858   1.044  10.628  0.3515  4.6487  2.2474
   88MOL0     H12110  13.930   1.198  10.364  0.6238  1.4046  0.4198
   88MOL0     H12111  14.002   1.235  10.524 -0.3752  1.5791 -2.1898
   88MOL0     H12112  14.013   1.002  10.347 -2.1150  0.5543 -0.0113
   88MOL0     H12113  14.055   0.988  10.520 -0.0484  1.7887  0.7868
   88MOL0     H12114  14.178   1.174  10.317  0.1498 -1.9870 -0.2941
   88MOL0     H12115  14.253   1.028  10.374  1.3960  1.0995  0.0738
   88MOL0     H12116  14.224   1.311  10.490  4.7883  1.3850  0.1615
   88MOL0     H12117  14.233   1.184  10.616 -0.0040  0.1761 -0.2101
   88MOL0     H12118  14.427   1.236  10.395 -0.0727 -0.2281  0.6320
   88MOL0     H12119  14.443   1.104  10.493 -1.0754  0.4351  0.4576
   88MOL0     H12120  14.481   1.221  10.694 -2.8189 -1.1250 -1.3175
   88MOL0     H12121  14.473   1.382  10.615  5.1585  0.8825  2.9548
   88MOL0     H12122  14.680   1.182  10.529  3.0297  0.1084 -1.0288
   88MOL0     H12123  14.707   1.306  10.666 -1.9992  2.8199 -0.7480
   88MOL0     H12124  13.738   1.247  10.338 -2.2089  2.7360 -2.9849
   88MOL0     H12125  13.529   1.320  10.236 -2.9219 -0.4646 -0.6411
   88MOL0     H12126  13.109   1.069  10.000 -2.9786 -1.1069 -0.7301
   88MOL0     H12127  12.930   1.152   9.850 -0.7426  0.3394 -1.3513
   88MOL0     H12128  11.833   2.576  10.082  0.1384  0.2438 -1.2267
   88MOL0     H12129  11.581   2.655  10.123 -0.0413 -1.7016  3.0775
   88MOL0     H12130  11.288   2.773  10.109 -0.3131  1.0871 -2.2109
   88MOL0     H12131  11.075   2.884  10.201 -1.1297  1.0174 -1.4296
   88MOL0     H12132  10.887   2.845  10.330  1.9062  0.0573 -0.6254
   88MOL0     H12133  10.881   2.982  10.212  0.4533 -0.0596 -0.0661
   88MOL0     H12134  10.699   3.025  10.350 -0.1259 -2.1893  1.3482
   88MOL0     H12135  10.641   2.865  10.365 -0.4609 -1.0148 -0.3283
   88MOL0     H12136  10.615   3.012  10.105 -1.9766  2.4073  0.8234
   88MOL0     H12137  10.562   2.846  10.129 -0.3233  0.7579 -0.2227
   88MOL0     H12138  10.478   3.105  10.277 -4.4245 -0.4721  0.7463
   88MOL0     H12139  10.408   2.944  10.281  0.9356 -1.3620  0.4708
   88MOL0     H12140  10.228   3.082   9.933  2.0778  0.9120 -2.6539
   88MOL0     H12141  10.848   2.597   9.989  0.5346 -0.0433 -1.1574
   88MOL0     H12142  11.052   2.490   9.779  0.1603  2.0874  0.5980
   88MOL0     H12143  11.124   2.381   9.905  1.3527  1.1789  0.0788
   88MOL0     H12144  10.952   2.391   9.892 -1.4334  1.4028 -2.4536
   89MOL0     O12145   7.058   0.546   7.120 -0.0887 -0.2765  0.4160
   89MOL0     C12146   6.969   0.495   7.186  0.6269  0.0369 -0.1139
   89MOL0     O12147   6.853   0.564   7.218  0.0468  0.0668  0.1511
   89MOL0     C12148   6.840   0.698   7.231  0.2843  0.8930  1.3844
   89MOL0     C12149   6.715   0.742   7.205  1.1787  0.4917 -0.6892
   89MOL0     C12150   6.676   0.874   7.239  0.3826  0.5933 -0.9669
   89MOL0     C12151   6.769   0.975   7.279  0.1134  0.4481 -0.0246
   89MOL0     O12152   6.729   1.104   7.289  0.6094 -0.9969  0.1209
   89MOL0     C12153   6.809   1.200   7.345 -0.2958 -1.0377 -0.1328
   89MOL0     C12154   6.740   1.336   7.323  0.7757 -0.3757  0.2667
   89MOL0     C12155   6.721   1.387   7.184  0.4030 -0.0051 -0.1772
   89MOL0     C12156   6.606   1.495   7.174  0.3602 -0.1973  0.0310
   89MOL0     C12157   6.600   1.581   7.044  0.8014  0.9880  0.8103
   89MOL0     C12158   6.569   1.502   6.915 -0.5583 -0.7652 -0.3106
   89MOL0     C12159   6.426   1.464   6.903  1.1114 -0.2693  0.4206
   89MOL0     C12160   6.384   1.407   6.770 -0.2272 -0.6097  0.3843
   89MOL0     N12161   6.238   1.398   6.775 -0.1130  0.1966  0.4025
   89MOL0     C12162   6.176   1.275   6.801  0.6082 -0.0885 -0.3875
   89MOL0     C12163   6.050   1.288   6.743 -0.7829 -0.3468  0.4799
   89MOL0     C12164   5.948   1.186   6.726 -0.3679  0.1071  1.2588
   89MOL0     C12165   5.818   1.233   6.785 -0.4222  0.1763 -0.4443
   89MOL0     C12166   5.705   1.150   6.729  0.9731  0.2024  0.0514
   89MOL0     C12167   5.563   1.155   6.801 -0.5950  0.4989 -0.4676
   89MOL0     O12168   5.576   1.152   6.947 -0.3358 -0.0736  0.2829
   89MOL0     C12169   5.595   1.025   6.996 -0.5567  0.6129 -0.0045
   89MOL0     C12170   5.716   0.959   7.016  0.0662  0.1245 -0.2234
   89MOL0     C12171   5.728   0.830   7.065  0.3111  0.1552 -0.0682
   89MOL0     C12172   5.866   0.790   7.101  0.5207  0.2917  0.2333
   89MOL0     C12173   5.608   0.747   7.077 -0.0418  0.9100  0.3364
   89MOL0     C12174   5.614   0.602   7.113  0.3894  0.2045 -1.4092
   89MOL0     O12175   5.712   0.528   7.053 -0.6727  0.5615 -0.3197
   89MOL0     C12176   5.756   0.404   7.110 -0.1466 -0.9433  0.5074
   89MOL0     C12177   5.812   0.311   7.023  0.3282 -0.8332  0.4891
   89MOL0     C12178   5.883   0.203   7.069  0.2883 -0.1482 -0.2686
   89MOL0     C12179   5.897   0.183   7.204 -0.5206 -0.1325  0.3582
   89MOL0     O12180   5.967   0.077   7.264  0.2408  0.3252 -0.2617
   89MOL0     C12181   6.063   0.096   7.357 -0.3570  0.2444 -0.1148
   89MOL0     C12182   6.107  -0.047   7.401  1.2681  0.2708 -0.2144
   89MOL0     C12183   6.206  -0.042   7.521 -0.7545 -0.1339 -0.1519
   89MOL0     C12184   6.279  -0.183   7.531 -0.9073  0.3796  0.6527
   89MOL0     C12185   6.387  -0.189   7.646  0.5916  0.4086  0.7375
   89MOL0     C12186   6.520  -0.116   7.603  0.1544 -0.0445 -0.1031
   89MOL0     C12187   6.572  -0.050   7.732 -0.0152  0.4716 -0.3572
   89MOL0     C12188   6.699  -0.117   7.778 -1.1975  0.2017 -0.6723
   89MOL0    Cl12189   6.752  -0.050   7.935 -0.4053  0.4286 -0.0740
   89MOL0     C12190   5.854   0.275   7.291  0.2238  0.4548 -0.0286
   89MOL0     C12191   5.781   0.388   7.250 -0.4143 -0.2372 -0.8090
   89MOL0     O12192   5.523   0.558   7.181 -0.7055 -0.5830 -0.0428
   89MOL0     C12193   5.485   0.810   7.053  0.6482 -0.0938 -0.5788
   89MOL0     C12194   5.479   0.949   7.014  0.8707  0.8484 -0.3256
   89MOL0     N12195   6.050   1.411   6.679  0.7703 -0.9478  0.2567
   89MOL0     N12196   6.159   1.476   6.704 -0.6097  0.5933 -0.9425
   89MOL0     C12197   6.902   0.928   7.287  0.1760  0.2439  0.0710
   89MOL0     C12198   6.940   0.793   7.265  0.3438 -0.8662  0.6290
   89MOL0     C12199   7.008   0.352   7.236 -0.5144  0.0123 -0.5524
   89MOL0     C12200   7.135   0.299   7.194  1.4074  0.5285 -1.4126
   89MOL0     C12201   7.172   0.167   7.245 -0.0142  0.2998 -0.4138
   89MOL0     C12202   7.094   0.094   7.318  0.4906 -0.7449 -0.0998
   89MOL0     O12203   7.137  -0.028   7.354  0.4498  0.1267 -0.5217
   89MOL0     C12204   7.049  -0.145   7.344  0.8876 -0.3110 -0.1374
   89MOL0     C12205   7.008  -0.198   7.477 -0.3590 -0.5159  0.2108
   89MOL0     C12206   7.128  -0.262   7.555 -1.2102 -0.0807 -0.7636
   89MOL0     C12207   7.084  -0.316   7.698 -0.9237  0.9266 -0.1172
   89MOL0     C12208   7.212  -0.347   7.766  0.2346 -0.4712 -0.4969
   89MOL0     C12209   7.327  -0.369   7.808  0.5409 -0.4469 -0.2006
   89MOL0     C12210   6.968   0.142   7.367 -0.9606 -0.0099  0.1206
   89MOL0     C12211   6.938   0.275   7.337  0.5818  0.8371 -0.0717
   89MOL0     C12212   6.820   0.324   7.410 -0.0793 -0.3566  0.0036
   89MOL0     H12213   6.636   0.672   7.182  0.0776  1.4184  0.1433
   89MOL0     H12214   6.575   0.910   7.219  0.4076  0.4253 -1.3982
   89MOL0     H12215   6.904   1.197   7.289 -0.1596 -0.6966  0.0707
   89MOL0     H12216   6.824   1.179   7.451  0.9768 -1.3519 -0.3474
   89MOL0     H12217   6.640   1.330   7.367  0.3004  2.8927 -0.1430
   89MOL0     H12218   6.792   1.416   7.376 -2.3604  3.0294 -1.3511
   89MOL0     H12219   6.818   1.428   7.153 -0.1441  1.8447  0.3820
   89MOL0     H12220   6.696   1.301   7.121 -0.2165 -1.8096  2.3866
   89MOL0     H12221   6.505   1.454   7.178  1.6704 -3.5878  1.1375
   89MOL0     H12222   6.623   1.561   7.260  3.2379 -1.2892  0.4110
   89MOL0     H12223   6.703   1.617   7.031  1.0405  1.5977  3.7502
   89MOL0     H12224   6.530   1.665   7.053 -0.2370  0.2340  0.0206
   89MOL0     H12225   6.591   1.572   6.834 -3.5022 -2.5354 -2.8831
   89MOL0     H12226   6.641   1.420   6.909  0.9689  0.5883 -0.8523
   89MOL0     H12227   6.361   1.550   6.923  1.3268  0.1292 -0.5349
   89MOL0     H12228   6.414   1.374   6.964  3.1696  0.1214  1.4796
   89MOL0     H12229   6.408   1.475   6.687 -2.0530 -0.8058 -0.3692
   89MOL0     H12230   6.437   1.316   6.742 -2.3547 -1.6147 -0.6224
   89MOL0     H12231   6.200   1.180   6.848 -0.0555  0.3928  0.9650
   89MOL0     H12232   5.977   1.099   6.786  0.7235  0.1138  0.7691
   89MOL0     H12233   5.946   1.141   6.627 -2.5903 -1.6824  2.0461
   89MOL0     H12234   5.834   1.224   6.893  0.4649 -0.3766 -0.6098
   89MOL0     H12235   5.798   1.338   6.765  2.1508  0.4821 -1.8324
   89MOL0     H12236   5.695   1.185   6.626 -5.2198 -2.7026 -0.8539
   89MOL0     H12237   5.725   1.042   6.730 -0.0374  0.0007  0.8397
   89MOL0     H12238   5.510   1.244   6.765 -0.4119  0.4817 -0.7868
   89MOL0     H12239   5.505   1.064   6.784  2.6282 -2.4570  2.7909
   89MOL0     H12240   5.801   1.016   6.981 -0.2982  2.0579  1.8112
   89MOL0     H12241   5.924   0.753   7.015 -0.4204 -2.4243  0.6494
   89MOL0     H12242   5.864   0.700   7.162 -1.1012  0.4348  0.4274
   89MOL0     H12243   5.914   0.884   7.130 -0.5686  1.4076 -1.3960
   89MOL0     H12244   5.803   0.332   6.917 -1.0405  1.7982  1.0210
   89MOL0     H12245   5.925   0.127   7.004  0.5209 -0.7328  0.5334
   89MOL0     H12246   6.147   0.155   7.319 -0.7352  2.1961  1.8731
   89MOL0     H12247   6.039   0.157   7.444 -0.1297  0.1303  0.0279
   89MOL0     H12248   6.015  -0.096   7.434  0.9851 -0.0185 -1.3740
   89MOL0     H12249   6.148  -0.097   7.312  2.9669  2.3760 -0.7157
   89MOL0     H12250   6.146  -0.024   7.612 -0.6551  0.8552 -0.2701
   89MOL0     H12251   6.279   0.038   7.509 -0.8200  0.0638  0.6839
   89MOL0     H12252   6.325  -0.216   7.438  0.6800  1.1365  1.1327
   89MOL0     H12253   6.199  -0.255   7.549 -1.4677  0.9075  0.3149
   89MOL0     H12254   6.333  -0.164   7.738 -1.8125 -1.1359 -0.1406
   89MOL0     H12255   6.409  -0.296   7.651 -2.4050 -0.5046 -1.7726
   89MOL0     H12256   6.483  -0.035   7.540  2.7343  1.3209  0.0300
   89MOL0     H12257   6.587  -0.180   7.544  1.0187  1.1479 -0.4409
   89MOL0     H12258   6.496  -0.040   7.809 -0.4555  1.1176 -0.8685
   89MOL0     H12259   6.605   0.051   7.706  1.5836  0.2961  0.8375
   89MOL0     H12260   6.770  -0.102   7.697  0.5043  2.6021  1.1200
   89MOL0     H12261   6.687  -0.224   7.794  1.6968  0.1263  1.8491
   89MOL0     H12262   5.854   0.247   7.396  1.3225 -2.5698 -0.7288
   89MOL0     H12263   5.726   0.465   7.304 -1.9413  0.2768 -2.9727
   89MOL0     H12264   5.398   0.744   7.054  0.2219  0.4287  1.6609
   89MOL0     H12265   5.377   0.981   6.998 -0.3124 -0.1795  3.8410
   89MOL0     H12266   6.977   1.000   7.319 -0.8021  1.9522 -1.3046
   89MOL0     H12267   7.045   0.767   7.266  0.1566 -1.9150 -1.1327
   89MOL0     H12268   7.209   0.335   7.123  0.2665  0.4602 -2.6791
   89MOL0     H12269   7.272   0.131   7.227  0.6430  2.4166 -1.3801
   89MOL0     H12270   6.951  -0.124   7.301  0.0472  1.8661  2.5409
   89MOL0     H12271   7.099  -0.226   7.290  0.8848 -2.3776  2.7383
   89MOL0     H12272   6.922  -0.265   7.464  0.1963 -1.2479  0.2088
   89MOL0     H12273   6.984  -0.108   7.533  1.8470 -0.6934  1.5601
   89MOL0     H12274   7.154  -0.350   7.496 -1.8723 -1.5826  1.0915
   89MOL0     H12275   7.213  -0.194   7.561  0.6033 -2.2653 -0.1422
   89MOL0     H12276   7.025  -0.406   7.679 -2.8365  2.2158 -0.6180
   89MOL0     H12277   7.027  -0.242   7.755 -1.4913  0.1961  0.2719
   89MOL0     H12278   7.434  -0.367   7.819  0.8225  1.0099 -2.4244
   89MOL0     H12279   6.907   0.079   7.431 -1.8748 -1.5639 -2.1768
   89MOL0     H12280   6.790   0.257   7.490 -2.4039 -0.1482 -0.6241
   89MOL0     H12281   6.848   0.420   7.454  2.1553 -1.4484  1.1538
   89MOL0     H12282   6.730   0.335   7.349  0.3809  1.9061 -0.3786
   90MOL0     O12283   2.018   1.415   6.042 -1.1882  0.2031  0.1668
   90MOL0     C12284   1.975   1.434   5.925  0.1177  0.1985  0.5853
   90MOL0     O12285   2.053   1.466   5.815 -0.2935 -0.0119  0.4793
   90MOL0     C12286   1.992   1.509   5.697  0.4757 -0.1111 -0.4912
   90MOL0     C12287   1.974   1.418   5.584 -0.6347 -0.7584  0.3582
   90MOL0     C12288   1.920   1.473   5.470 -1.2720 -0.1663  0.2861
   90MOL0     C12289   1.872   1.609   5.461 -0.8364  0.1495  0.2784
   90MOL0     O12290   1.838   1.655   5.345  0.9476 -0.3527  0.0779
   90MOL0     C12291   1.705   1.719   5.344 -0.0272 -0.1083 -0.4563
   90MOL0     C12292   1.656   1.769   5.204  0.2141 -0.6395 -0.4976
   90MOL0     C12293   1.723   1.896   5.146  0.1343 -0.3438 -0.0603
   90MOL0     C12294   1.668   1.907   4.998 -0.4590 -0.6755 -0.9125
   90MOL0     C12295   1.712   2.016   4.901  0.2955 -0.2035 -0.2309
   90MOL0     C12296   1.871   2.020   4.887  0.0788  0.4478 -0.5268
   90MOL0     C12297   1.906   2.110   4.773 -0.5222  0.4096 -0.5759
   90MOL0     C12298   2.065   2.137   4.765  0.2055 -0.1359  0.2025
   90MOL0     N12299   2.117   2.245   4.863 -0.1514  0.2200 -0.6747
   90MOL0     C12300   2.115   2.250   5.001 -0.8148  0.8437  0.5617
   90MOL0     C12301   2.180   2.360   5.029  0.7639 -0.6706 -0.4513
   90MOL0     C12302   2.213   2.412   5.170  0.1947 -0.0373 -0.2290
   90MOL0     C12303   2.332   2.334   5.220  0.0675 -0.6032 -0.5199
   90MOL0     C12304   2.355   2.347   5.372  0.4597 -0.6368 -0.1819
   90MOL0     C12305   2.490   2.278   5.406  0.8430  0.2824 -0.3730
   90MOL0     O12306   2.566   2.341   5.503 -0.1695  0.5524 -0.1232
   90MOL0     C12307   2.646   2.270   5.587 -0.1633  0.3941  0.2854
   90MOL0     C12308   2.698   2.144   5.554  0.3315 -0.4288  0.4174
   90MOL0     C12309   2.798   2.085   5.625 -0.1847 -1.1100 -0.4830
   90MOL0     C12310   2.855   1.962   5.567  1.1022  0.3269  0.4326
   90MOL0     C12311   2.849   2.141   5.742 -1.3873  0.4518 -0.0373
   90MOL0     C12312   2.970   2.088   5.827  0.2457 -0.3535 -0.9048
   90MOL0     O12313   3.025   1.964   5.798  0.2359 -0.0104  0.7740
   90MOL0     C12314   3.126   1.923   5.880 -0.1186  0.3528  0.0314
   90MOL0     C12315   3.253   1.978   5.866 -0.2127 -0.4680  0.6088
   90MOL0     C12316   3.350   1.955   5.959  0.3904 -0.5746  0.3116
   90MOL0     C12317   3.335   1.861   6.063 -0.0226  0.3036  0.6121
   90MOL0     O12318   3.431   1.833   6.150  0.0728  0.1380 -0.0891
   90MOL0     C12319   3.542   1.924   6.156  1.0137 -0.8074  0.7183
   90MOL0     C12320   3.605   1.924   6.291 -0.3416 -0.0378 -1.1342
   90MOL0     C12321   3.699   1.806   6.314 -0.3959 -0.1402 -0.3484
   90MOL0     C12322   3.782   1.837   6.439 -0.5289  0.7551 -0.4523
   90MOL0     C12323   3.865   1.720   6.484 -0.6141  0.3796  0.1154
   90MOL0     C12324   3.973   1.775   6.576 -0.5287 -0.0383  0.9478
   90MOL0     C12325   4.069   1.666   6.621 -0.0874 -0.7815 -0.5910
   90MOL0     C12326   4.160   1.692   6.749  0.4205 -0.3128 -1.1499
   90MOL0    Cl12327   4.320   1.740   6.688  0.0493 -0.1721  0.2643
   90MOL0     C12328   3.209   1.795   6.071 -0.5447 -0.6571 -0.0442
   90MOL0     C12329   3.108   1.825   5.975  0.6022 -0.0146  0.4919
   90MOL0     O12330   3.007   2.163   5.917 -0.0191  0.5141  1.1556
   90MOL0     C12331   2.798   2.263   5.776  0.4484 -1.4890 -0.7039
   90MOL0     C12332   2.701   2.335   5.700  0.2119  0.7142  0.1235
   90MOL0     N12333   2.204   2.439   4.909 -0.6934  1.3290 -0.0514
   90MOL0     N12334   2.169   2.359   4.810  0.3381 -0.2102 -0.0099
   90MOL0     C12335   1.885   1.689   5.568 -0.4789 -0.1546  0.1371
   90MOL0     C12336   1.957   1.645   5.684  0.1380  0.0141 -0.2871
   90MOL0     C12337   1.830   1.425   5.906 -0.2348  0.4405  0.3035
   90MOL0     C12338   1.785   1.325   5.823  1.0184  0.2218  0.4427
   90MOL0     C12339   1.646   1.295   5.812 -0.4413  0.1245 -0.7446
   90MOL0     C12340   1.555   1.358   5.893  1.0235 -0.4623  0.6426
   90MOL0     O12341   1.424   1.316   5.887  0.3567 -0.1092  0.2285
   90MOL0     C12342   1.328   1.350   5.992 -0.1168  0.1296  0.6437
   90MOL0     C12343   1.253   1.225   6.046  0.3195  0.3974 -0.0493
   90MOL0     C12344   1.129   1.193   5.967 -0.2510  0.1787 -0.2125
   90MOL0     C12345   1.004   1.279   5.988 -0.0052  0.1091 -0.4839
   90MOL0     C12346   0.913   1.246   5.882 -0.7514  0.3426  0.0777
   90MOL0     C12347   0.834   1.226   5.792  0.1865 -0.4318 -0.1278
   90MOL0     C12348   1.595   1.469   5.958 -0.3911  0.1766 -0.2123
   90MOL0     C12349   1.735   1.503   5.975  0.3846  0.1276  0.0833
   90MOL0     C12350   1.778   1.621   6.058  0.7824  0.2688 -0.7383
   90MOL0     H12351   2.002   1.314   5.579 -1.3193 -0.9161 -2.4161
   90MOL0     H12352   1.910   1.413   5.380 -0.5695 -0.2820  0.2849
   90MOL0     H12353   1.691   1.798   5.419 -1.4844  1.4378 -2.2674
   90MOL0     H12354   1.629   1.648   5.377 -1.2148  1.2903 -0.1044
   90MOL0     H12355   1.665   1.682   5.138  1.8348  0.1571 -1.3696
   90MOL0     H12356   1.548   1.786   5.212  0.1192 -2.1202  2.7066
   90MOL0     H12357   1.693   1.977   5.213 -0.1349  0.6932 -1.3821
   90MOL0     H12358   1.831   1.881   5.143  0.0223 -1.1971 -0.3702
   90MOL0     H12359   1.698   1.816   4.944  0.0874 -1.2764  0.3562
   90MOL0     H12360   1.559   1.910   5.000 -0.4581 -0.4276  1.3229
   90MOL0     H12361   1.691   2.118   4.934  0.4164  0.1202 -1.1287
   90MOL0     H12362   1.656   2.007   4.807  0.4600 -0.5023 -0.3057
   90MOL0     H12363   1.910   2.061   4.981 -1.0940  0.3200  0.0440
   90MOL0     H12364   1.911   1.919   4.872  2.0958  1.1756 -0.2470
   90MOL0     H12365   1.856   2.207   4.781 -1.5049 -0.2434  2.3164
   90MOL0     H12366   1.880   2.048   4.687 -2.8093 -0.4015  0.6259
   90MOL0     H12367   2.113   2.041   4.788  0.4308  0.4644  2.4846
   90MOL0     H12368   2.100   2.166   4.666 -0.1551  1.1877  0.4528
   90MOL0     H12369   2.079   2.177   5.072  1.1132  0.8869  1.6569
   90MOL0     H12370   2.126   2.398   5.235  0.7703  0.0299  0.5752
   90MOL0     H12371   2.239   2.517   5.161  0.2320 -0.1106 -1.0351
   90MOL0     H12372   2.321   2.226   5.208  1.6137 -0.9560  0.9389
   90MOL0     H12373   2.428   2.368   5.180  2.0514 -3.8102  1.1083
   90MOL0     H12374   2.360   2.450   5.409  5.3101 -0.3565 -0.9364
   90MOL0     H12375   2.274   2.306   5.433  0.9087  1.3490  1.9018
   90MOL0     H12376   2.463   2.176   5.432 -0.1565  0.6411  0.0273
   90MOL0     H12377   2.559   2.263   5.321  1.6898 -2.3215  0.6698
   90MOL0     H12378   2.669   2.099   5.460  0.0781  0.6501 -0.0336
   90MOL0     H12379   2.821   1.939   5.466  3.1284 -2.4064  0.2547
   90MOL0     H12380   2.843   1.874   5.631 -0.1760  0.8345  0.9225
   90MOL0     H12381   2.963   1.978   5.558  1.1323  0.7585  1.4546
   90MOL0     H12382   3.274   2.052   5.790 -3.0880 -2.2074 -2.1439
   90MOL0     H12383   3.448   1.996   5.940  0.5811 -0.9488  0.4696
   90MOL0     H12384   3.608   1.893   6.075 -1.1268 -1.1865 -0.9804
   90MOL0     H12385   3.514   2.028   6.133  0.8102 -1.1950 -0.8916
   90MOL0     H12386   3.667   2.011   6.314  0.5171 -0.0443 -3.2422
   90MOL0     H12387   3.526   1.921   6.366  1.5173  1.2401  0.9981
   90MOL0     H12388   3.771   1.793   6.234  0.2079  1.1857 -0.0444
   90MOL0     H12389   3.638   1.715   6.317  0.8017 -1.0205 -1.5955
   90MOL0     H12390   3.712   1.859   6.520 -1.2820  0.5185 -1.0385
   90MOL0     H12391   3.846   1.925   6.428  0.5140  0.0813 -0.0592
   90MOL0     H12392   3.804   1.637   6.519 -0.5956  0.3139 -0.0057
   90MOL0     H12393   3.915   1.673   6.399 -0.2378  1.6108 -0.3790
   90MOL0     H12394   3.940   1.831   6.664 -0.3881 -1.3408  1.8468
   90MOL0     H12395   4.039   1.841   6.518 -3.4495  0.0004 -2.7257
   90MOL0     H12396   4.141   1.652   6.540  4.0445 -1.0621  2.7859
   90MOL0     H12397   4.019   1.569   6.634  0.3450 -0.9979 -0.5347
   90MOL0     H12398   4.164   1.602   6.810  0.0149 -1.2111 -2.3979
   90MOL0     H12399   4.119   1.770   6.815 -2.2139 -1.8742 -0.8003
   90MOL0     H12400   3.192   1.727   6.155 -1.6434 -1.2986 -0.7569
   90MOL0     H12401   3.007   1.784   5.982 -0.5042  2.0862 -1.5888
   90MOL0     H12402   2.832   2.321   5.862  0.1265  0.6823 -1.9904
   90MOL0     H12403   2.661   2.433   5.722 -2.7799 -0.4498  0.2751
   90MOL0     H12404   1.852   1.792   5.556  0.6274  0.1142 -0.7601
   90MOL0     H12405   1.988   1.708   5.767  2.5455 -1.3724 -0.0377
   90MOL0     H12406   1.845   1.254   5.768 -2.0271 -1.7953 -0.5561
   90MOL0     H12407   1.606   1.217   5.748 -1.4679 -0.3505  0.4159
   90MOL0     H12408   1.383   1.388   6.079 -0.8430 -0.0588  1.1876
   90MOL0     H12409   1.267   1.432   5.953  2.2905  1.3671 -0.7298
   90MOL0     H12410   1.226   1.249   6.149  3.7741 -0.9523  1.3006
   90MOL0     H12411   1.298   1.126   6.056 -2.4144 -0.9375 -0.0337
   90MOL0     H12412   1.151   1.199   5.860 -1.8591  1.7768 -0.4993
   90MOL0     H12413   1.096   1.091   5.991  0.5254 -0.3336 -1.2644
   90MOL0     H12414   1.042   1.381   5.982  2.0386 -0.6594 -1.5227
   90MOL0     H12415   0.968   1.277   6.091  0.3718  1.8443 -0.2864
   90MOL0     H12416   0.771   1.212   5.706  0.7549 -0.3589 -0.5670
   90MOL0     H12417   1.525   1.543   5.994 -1.2718 -0.5411 -0.4133
   90MOL0     H12418   1.765   1.588   6.161 -0.4568  1.1313 -0.5959
   90MOL0     H12419   1.885   1.639   6.063  0.6913  0.4766  2.3363
   90MOL0     H12420   1.722   1.712   6.033 -0.3541 -0.4223 -0.7677
   91MOL0     O12421  10.857   7.531   2.099  0.0277  0.2090 -0.6169
   91MOL0     C12422  10.801   7.587   2.200  0.2579  0.3448 -0.4861
   91MOL0     O12423  10.777   7.719   2.218 -0.3061 -0.2085  1.1188
   91MOL0     C12424  10.862   7.804   2.149 -0.0327 -0.1821  0.5785
   91MOL0     C12425  10.826   7.865   2.028  0.5105  0.4413 -0.1366
   91MOL0     C12426  10.914   7.953   1.972 -0.3107 -0.2966 -0.2508
   91MOL0     C12427  11.038   7.977   2.026 -0.5623  0.0595  0.6902
   91MOL0     O12428  11.130   8.076   1.973 -0.7360  0.4634 -0.2352
   91MOL0     C12429  11.078   8.195   1.912  0.3456 -0.5050 -0.0736
   91MOL0     C12430  10.997   8.279   2.016  0.6711 -0.1234 -0.2243
   91MOL0     C12431  11.092   8.350   2.119 -0.1603 -0.0146 -0.3784
   91MOL0     C12432  10.997   8.428   2.209  0.8021 -0.3898 -0.4334
   91MOL0     C12433  11.057   8.473   2.347  0.3255  0.3383  0.2900
   91MOL0     C12434  11.060   8.357   2.443 -0.3454  0.8144  0.1450
   91MOL0     C12435  11.163   8.399   2.543  0.7398  0.3522  0.0930
   91MOL0     C12436  11.189   8.290   2.641 -0.1468  0.1513  0.2329
   91MOL0     N12437  11.233   8.347   2.777  0.2517 -0.4056  0.3523
   91MOL0     C12438  11.354   8.409   2.799 -0.5061 -0.0375 -0.0072
   91MOL0     C12439  11.331   8.468   2.923  0.5330 -0.5456  0.1887
   91MOL0     C12440  11.427   8.550   3.006  0.7120  0.2419 -0.0768
   91MOL0     C12441  11.419   8.537   3.158 -0.6285 -0.5699 -0.5791
   91MOL0     C12442  11.486   8.660   3.220 -0.2171 -0.4449  0.4181
   91MOL0     C12443  11.644   8.664   3.178 -0.2172 -0.4266 -0.8973
   91MOL0     O12444  11.710   8.765   3.250 -0.8706  0.3736 -0.7638
   91MOL0     C12445  11.822   8.811   3.191  0.7655 -0.1687  0.7601
   91MOL0     C12446  11.855   8.940   3.233  0.2252  0.3686  0.6326
   91MOL0     C12447  11.975   8.994   3.195  0.3329 -0.8614  0.2582
   91MOL0     C12448  12.004   9.131   3.246  0.1320 -0.3867 -0.3203
   91MOL0     C12449  12.064   8.924   3.110  0.4126 -0.5821  0.5539
   91MOL0     C12450  12.200   8.972   3.066 -0.0646 -0.2977  0.2941
   91MOL0     O12451  12.194   9.094   3.008 -0.1442  0.7027  0.0506
   91MOL0     C12452  12.303   9.152   2.942  0.3716 -0.2306 -0.3730
   91MOL0     C12453  12.328   9.284   2.988  0.8625  0.5049  0.5609
   91MOL0     C12454  12.439   9.349   2.948 -0.6213  0.0736 -0.3356
   91MOL0     C12455  12.536   9.286   2.871  0.8589 -0.5192  0.6266
   91MOL0     O12456  12.659   9.349   2.851  0.8324  0.2232 -0.7871
   91MOL0     C12457  12.754   9.306   2.759  0.2461 -0.6670 -0.0147
   91MOL0     C12458  12.876   9.392   2.771 -0.1612  0.2949 -0.3131
   91MOL0     C12459  12.990   9.343   2.704  0.4821  0.8141 -0.1496
   91MOL0     C12460  13.112   9.431   2.741  0.7195  0.0735 -0.2750
   91MOL0     C12461  13.228   9.406   2.643  0.4165 -0.2446  0.3708
   91MOL0     C12462  13.360   9.401   2.717 -0.2546  0.3898  0.3612
   91MOL0     C12463  13.470   9.383   2.616  0.6604  0.0835  0.8395
   91MOL0     C12464  13.609   9.379   2.692 -0.5976  0.9511 -0.2242
   91MOL0    Cl12465  13.737   9.374   2.564  0.2978  0.3741 -0.1635
   91MOL0     C12466  12.501   9.169   2.806 -0.1189  0.7798  0.2283
   91MOL0     C12467  12.385   9.095   2.841  0.3013 -0.9370 -0.2090
   91MOL0     O12468  12.294   8.902   3.063 -0.1135  0.5267 -0.2883
   91MOL0     C12469  12.023   8.799   3.057  0.0401 -0.0929 -0.0174
   91MOL0     C12470  11.898   8.742   3.103  0.0446  0.0919  0.4363
   91MOL0     N12471  11.198   8.455   2.967 -0.3085  0.6896  0.4334
   91MOL0     N12472  11.140   8.387   2.873  0.9715 -0.1884 -0.0379
   91MOL0     C12473  11.074   7.908   2.144 -0.7311 -0.5849  0.5633
   91MOL0     C12474  10.988   7.824   2.204  0.0283  0.5733  0.9438
   91MOL0     C12475  10.759   7.502   2.321 -0.6189 -0.3024  0.3864
   91MOL0     C12476  10.697   7.565   2.425  0.0165  0.3277 -0.4077
   91MOL0     C12477  10.667   7.497   2.550 -0.0714  0.0938  0.1090
   91MOL0     C12478  10.699   7.363   2.563 -0.2751 -0.2330 -0.3321
   91MOL0     O12479  10.671   7.273   2.661  0.1636 -0.0782  0.1957
   91MOL0     C12480  10.670   7.336   2.792 -0.4980 -0.3639  0.9728
   91MOL0     C12481  10.653   7.222   2.882 -0.7325  0.9337 -0.6034
   91MOL0     C12482  10.656   7.272   3.032  0.8436 -0.0104 -0.1910
   91MOL0     C12483  10.523   7.335   3.077 -1.2686  0.0581  0.6101
   91MOL0     C12484  10.477   7.294   3.208  0.0367 -0.1114  0.9357
   91MOL0     C12485  10.435   7.258   3.311 -1.0113  0.2053  0.0081
   91MOL0     C12486  10.759   7.297   2.454 -0.3611 -0.0913  0.1508
   91MOL0     C12487  10.788   7.359   2.335 -0.6063 -1.1519 -0.4861
   91MOL0     C12488  10.847   7.271   2.227  0.4930 -0.9383 -0.2858
   91MOL0     H12489  10.731   7.844   1.981 -0.2751  0.2810  1.4587
   91MOL0     H12490  10.898   8.001   1.876  0.3609 -1.2614 -0.8637
   91MOL0     H12491  11.017   8.167   1.826 -2.7554 -1.1523  2.1720
   91MOL0     H12492  11.154   8.267   1.880 -0.7477 -0.0721 -1.8514
   91MOL0     H12493  10.942   8.359   1.966 -1.6516 -2.8902 -2.4963
   91MOL0     H12494  10.920   8.214   2.060 -1.2666  1.0373 -1.7508
   91MOL0     H12495  11.147   8.275   2.178 -1.2390 -2.1723 -1.9598
   91MOL0     H12496  11.173   8.400   2.066 -0.0104 -2.7511 -3.0401
   91MOL0     H12497  10.942   8.510   2.161 -1.9241 -1.6626  0.2712
   91MOL0     H12498  10.909   8.367   2.233 -1.2008  1.7504 -1.8247
   91MOL0     H12499  10.997   8.552   2.393 -0.5814 -0.0610 -0.1818
   91MOL0     H12500  11.157   8.516   2.338  0.7390 -0.7616 -0.6784
   91MOL0     H12501  10.969   8.342   2.502 -2.5077  1.3873 -2.7710
   91MOL0     H12502  11.090   8.263   2.394 -1.2686 -1.1436  3.0852
   91MOL0     H12503  11.126   8.489   2.593  3.6998  0.7988  1.7101
   91MOL0     H12504  11.260   8.424   2.499  0.6100  4.9739  1.9116
   91MOL0     H12505  11.105   8.222   2.657  0.1755 -0.5094 -0.7624
   91MOL0     H12506  11.274   8.229   2.608 -1.9447 -2.7322  0.5477
   91MOL0     H12507  11.446   8.406   2.741 -0.6228 -0.5315 -0.1733
   91MOL0     H12508  11.393   8.652   2.988 -0.8610 -0.4731 -1.4363
   91MOL0     H12509  11.526   8.534   2.964  0.0471  1.0626 -2.0798
   91MOL0     H12510  11.313   8.539   3.184 -0.0033 -0.5348  2.3119
   91MOL0     H12511  11.466   8.442   3.187 -1.3429 -0.6716  0.2974
   91MOL0     H12512  11.440   8.757   3.195  1.4578 -0.0246 -1.2622
   91MOL0     H12513  11.476   8.651   3.329 -0.7391  3.2042  0.8080
   91MOL0     H12514  11.699   8.571   3.195  1.7538  0.7102 -0.8001
   91MOL0     H12515  11.646   8.677   3.070 -2.0711 -2.4442 -1.2621
   91MOL0     H12516  11.789   8.992   3.302  0.2498  1.1830  0.0610
   91MOL0     H12517  11.930   9.168   3.318 -0.8269 -0.6416 -1.1405
   91MOL0     H12518  12.013   9.212   3.173 -0.8075  0.5891  0.6097
   91MOL0     H12519  12.102   9.136   3.293  0.2027 -0.6238 -0.4411
   91MOL0     H12520  12.254   9.318   3.059 -1.9012  0.7649 -2.2607
   91MOL0     H12521  12.456   9.446   2.995 -0.8702 -0.2119  0.3640
   91MOL0     H12522  12.760   9.198   2.780 -2.5103 -0.9129 -0.0717
   91MOL0     H12523  12.729   9.313   2.653  1.5060 -0.0225 -0.2850
   91MOL0     H12524  12.849   9.495   2.748 -1.4454 -0.2375 -1.2745
   91MOL0     H12525  12.889   9.402   2.880 -2.4631 -0.5787  0.1113
   91MOL0     H12526  12.974   9.330   2.596 -1.4938 -1.8280  0.3860
   91MOL0     H12527  13.000   9.237   2.728  0.2963 -0.4225 -4.5790
   91MOL0     H12528  13.135   9.403   2.844 -2.7854  0.3320  0.6984
   91MOL0     H12529  13.090   9.538   2.733 -1.7373 -0.4839 -3.1948
   91MOL0     H12530  13.205   9.310   2.596  0.2455 -0.2236  0.4087
   91MOL0     H12531  13.226   9.485   2.568  2.2147 -0.6422 -0.1507
   91MOL0     H12532  13.364   9.319   2.789 -1.9103 -0.7144 -0.7549
   91MOL0     H12533  13.377   9.499   2.764 -4.0458  1.8444 -0.9253
   91MOL0     H12534  13.464   9.466   2.545 -1.2743 -0.1066  0.7417
   91MOL0     H12535  13.465   9.286   2.565 -1.5533  0.2307  0.6814
   91MOL0     H12536  13.626   9.286   2.747  0.1393 -0.0549 -2.0683
   91MOL0     H12537  13.619   9.463   2.762 -0.9147  1.0170 -0.2555
   91MOL0     H12538  12.565   9.127   2.729 -0.2085 -0.0341  0.5834
   91MOL0     H12539  12.361   8.997   2.800  0.0936 -0.6194 -0.8661
   91MOL0     H12540  12.091   8.741   2.996  1.4423  1.1653  0.3009
   91MOL0     H12541  11.875   8.646   3.059  0.8424  0.2602 -0.3701
   91MOL0     H12542  11.166   7.930   2.198  0.1533 -1.5529 -0.4843
   91MOL0     H12543  11.002   7.769   2.296 -0.4638 -1.8539 -0.3491
   91MOL0     H12544  10.663   7.668   2.424 -2.1729 -0.1202  3.8674
   91MOL0     H12545  10.629   7.559   2.631 -0.4973  0.8636 -0.6643
   91MOL0     H12546  10.769   7.379   2.807  0.1982 -1.3788 -0.4594
   91MOL0     H12547  10.590   7.410   2.797 -1.0260 -0.8464  0.1138
   91MOL0     H12548  10.740   7.156   2.871 -0.1745  0.8430  2.9599
   91MOL0     H12549  10.565   7.164   2.853  1.4750 -3.3854  0.4290
   91MOL0     H12550  10.677   7.181   3.090 -0.5094 -1.0401 -1.2731
   91MOL0     H12551  10.731   7.349   3.056 -0.2124  0.8898  0.3500
   91MOL0     H12552  10.455   7.318   2.993 -1.3290  0.7130  0.5211
   91MOL0     H12553  10.534   7.444   3.076  0.9612 -0.1109  0.4430
   91MOL0     H12554  10.398   7.207   3.398  1.9644 -0.9954  0.6897
   91MOL0     H12555  10.780   7.191   2.465  3.0102  0.6739  3.2315
   91MOL0     H12556  10.944   7.316   2.203  0.3519 -1.5549 -2.1996
   91MOL0     H12557  10.852   7.166   2.255 -1.4801 -1.6567 -2.2665
   91MOL0     H12558  10.779   7.291   2.144  1.2990 -1.0287 -0.9847
   92MOL0     O12559   0.399   8.604   6.199  0.2617  0.2793  0.5527
   92MOL0     C12560   0.401   8.710   6.243 -0.3816  0.2521 -0.6401
   92MOL0     O12561   0.368   8.829   6.181 -0.1246 -0.2153  0.6304
   92MOL0     C12562   0.405   8.850   6.050  0.5574 -0.0917 -0.6557
   92MOL0     C12563   0.509   8.785   5.995 -0.4842 -0.8646  0.3236
   92MOL0     C12564   0.568   8.816   5.868  0.5441 -0.3517 -0.8727
   92MOL0     C12565   0.509   8.930   5.804 -0.4481  0.5599  0.7933
   92MOL0     O12566   0.561   9.001   5.696 -0.2270 -0.3397 -0.6826
   92MOL0     C12567   0.699   8.974   5.671 -0.0677  0.1678  0.0845
   92MOL0     C12568   0.750   9.038   5.540 -0.1651  0.3368  0.4334
   92MOL0     C12569   0.671   8.978   5.426  0.0855  0.5506 -0.1339
   92MOL0     C12570   0.721   9.036   5.288 -0.7398  0.4721 -0.1381
   92MOL0     C12571   0.645   8.954   5.182  0.7859 -0.4305 -0.4138
   92MOL0     C12572   0.619   9.060   5.074 -0.5969  0.0840  0.4410
   92MOL0     C12573   0.583   9.001   4.940  0.5082  0.0891  0.3014
   92MOL0     C12574   0.458   8.928   4.937  0.8641 -0.6763  0.0775
   92MOL0     N12575   0.351   9.019   4.964 -0.2223 -0.2490 -1.1043
   92MOL0     C12576   0.257   9.015   5.069 -0.9054  0.4926  0.2891
   92MOL0     C12577   0.191   9.134   5.060  0.2143  0.2767  0.7218
   92MOL0     C12578   0.098   9.179   5.167 -0.9429 -0.7446 -0.0638
   92MOL0     C12579   0.153   9.186   5.317  0.5891 -0.1015  0.2953
   92MOL0     C12580   0.295   9.242   5.328  0.4755 -0.6073  0.2026
   92MOL0     C12581   0.295   9.391   5.377 -0.2450 -0.5436  0.1899
   92MOL0     O12582   0.255   9.468   5.266 -0.1587 -0.1106  0.0290
   92MOL0     C12583   0.276   9.604   5.260 -0.8353 -0.2364  0.5073
   92MOL0     C12584   0.320   9.680   5.369  0.1261 -0.1509 -0.0553
   92MOL0     C12585   0.336   9.820   5.366  0.3559  0.1783 -0.3457
   92MOL0     C12586   0.393   9.892   5.487  0.4057  0.1008 -0.6055
   92MOL0     C12587   0.290   9.885   5.244 -0.7052 -0.4413 -0.5666
   92MOL0     C12588   0.285  10.040   5.226 -0.1244  0.1934  0.1320
   92MOL0     O12589   0.193  10.092   5.142 -0.2264 -0.6471 -0.1163
   92MOL0     C12590   0.165  10.225   5.120 -1.4493 -0.9538 -0.6453
   92MOL0     C12591   0.055  10.249   5.047  0.5793  0.2684 -0.1713
   92MOL0     C12592   0.014  10.378   5.005 -0.2589  0.0337 -0.4197
   92MOL0     C12593   0.089  10.491   5.051 -0.3590 -0.4667  0.0873
   92MOL0     O12594   0.040  10.621   5.026 -0.2598  0.2797  0.1624
   92MOL0     C12595  -0.054  10.664   5.126 -0.6308  0.5397  0.7845
   92MOL0     C12596  -0.086  10.813   5.105 -0.2001  0.3992 -0.5641
   92MOL0     C12597  -0.149  10.859   4.971 -0.6310  0.0257 -0.3254
   92MOL0     C12598  -0.229  10.985   4.985 -0.7780  0.1108  0.7788
   92MOL0     C12599  -0.231  11.066   4.859  0.7694 -0.7261  0.5029
   92MOL0     C12600  -0.103  11.144   4.842 -0.8046 -0.5486 -0.3611
   92MOL0     C12601  -0.118  11.275   4.759  0.0848 -0.4382 -0.3960
   92MOL0     C12602   0.018  11.341   4.738 -0.1425  0.2250 -0.4878
   92MOL0    Cl12603   0.093  11.246   4.629 -0.1961 -0.4851 -0.4573
   92MOL0     C12604   0.199  10.472   5.138  0.7575  0.0104 -0.4800
   92MOL0     C12605   0.240  10.336   5.168 -0.6779 -0.6059  0.6670
   92MOL0     O12606   0.381  10.104   5.273  0.0228  0.6892 -0.2198
   92MOL0     C12607   0.222   9.814   5.145  0.6942 -0.6160  0.2450
   92MOL0     C12608   0.219   9.681   5.159 -0.2198 -0.1501 -0.1492
   92MOL0     N12609   0.255   9.212   4.963  0.4660  0.1377 -0.6784
   92MOL0     N12610   0.341   9.142   4.905  0.1209  0.1209  0.2596
   92MOL0     C12611   0.390   8.992   5.862 -0.5945  0.0906 -0.8133
   92MOL0     C12612   0.342   8.964   5.986  1.2803  0.6507 -1.0987
   92MOL0     C12613   0.487   8.724   6.356  0.8827  0.2229 -0.4302
   92MOL0     C12614   0.611   8.786   6.339  0.7952  0.6088  0.0810
   92MOL0     C12615   0.702   8.816   6.442  0.8096 -0.2857 -0.0334
   92MOL0     C12616   0.674   8.778   6.577  0.6920 -0.4617  0.0045
   92MOL0     O12617   0.764   8.803   6.681  0.3761 -0.0132 -0.0901
   92MOL0     C12618   0.890   8.748   6.662 -0.3318  0.3726 -0.0682
   92MOL0     C12619   0.917   8.613   6.735 -0.8365 -0.3403  0.3418
   92MOL0     C12620   0.875   8.624   6.882 -0.5031  0.2522 -0.0364
   92MOL0     C12621   0.886   8.476   6.945  0.1621 -1.5258 -0.0368
   92MOL0     C12622   1.016   8.410   6.940  0.1278  0.7445  0.9624
   92MOL0     C12623   1.129   8.364   6.932 -0.4348  0.1505 -0.3692
   92MOL0     C12624   0.553   8.699   6.586 -0.3818  1.0115 -0.0546
   92MOL0     C12625   0.458   8.677   6.488  0.8656 -0.0927  0.0840
   92MOL0     C12626   0.326   8.616   6.522 -0.5008  0.2276 -0.3046
   92MOL0     H12627   0.557   8.699   6.042 -1.3149 -1.2259  0.5346
   92MOL0     H12628   0.651   8.758   5.831 -0.8603 -1.5975 -2.2369
   92MOL0     H12629   0.718   8.867   5.661  1.0800  0.2447  1.1379
   92MOL0     H12630   0.763   8.999   5.756  1.2242  1.6846 -1.2621
   92MOL0     H12631   0.748   9.148   5.538  2.6577  0.4467 -1.0267
   92MOL0     H12632   0.853   9.006   5.522 -0.7254 -0.8353 -0.9109
   92MOL0     H12633   0.681   8.870   5.419  2.6513  0.8006 -1.9223
   92MOL0     H12634   0.566   9.008   5.431 -1.0308 -2.1311 -3.8943
   92MOL0     H12635   0.719   9.145   5.278 -2.8926  0.2722 -3.2836
   92MOL0     H12636   0.826   9.004   5.285 -1.6771 -2.9704 -0.6156
   92MOL0     H12637   0.543   8.926   5.212  0.2322  0.2831 -1.5174
   92MOL0     H12638   0.709   8.877   5.139  3.0996  1.9879 -1.5814
   92MOL0     H12639   0.538   9.126   5.109 -0.6184  0.5860 -0.5181
   92MOL0     H12640   0.712   9.116   5.066 -0.6278  0.5480  2.7517
   92MOL0     H12641   0.646   8.912   4.928 -0.1141 -0.5896  1.8102
   92MOL0     H12642   0.602   9.068   4.855 -0.7346 -0.8344 -0.7368
   92MOL0     H12643   0.443   8.897   4.833 -0.7630  0.8771 -0.2006
   92MOL0     H12644   0.455   8.835   4.995 -0.7254 -0.0584  1.0506
   92MOL0     H12645   0.242   8.943   5.149 -0.8401 -2.7837 -2.4179
   92MOL0     H12646   0.018   9.105   5.164  1.1735 -3.1678 -1.2805
   92MOL0     H12647   0.063   9.280   5.146 -1.5571 -0.9044  0.1756
   92MOL0     H12648   0.082   9.240   5.380  0.4392 -1.8753  1.7139
   92MOL0     H12649   0.161   9.083   5.353  2.9812 -0.0842 -0.0821
   92MOL0     H12650   0.352   9.186   5.403  3.2488  2.5483  0.7088
   92MOL0     H12651   0.354   9.231   5.236  0.8942  0.3549  0.3463
   92MOL0     H12652   0.214   9.404   5.449 -0.2313  2.0438 -0.1834
   92MOL0     H12653   0.392   9.418   5.420 -0.9428  0.9198  0.9185
   92MOL0     H12654   0.359   9.630   5.457 -0.1165 -0.0556  0.1067
   92MOL0     H12655   0.388   9.834   5.580  0.0879 -1.9237 -1.8057
   92MOL0     H12656   0.339   9.986   5.499  1.3349  0.4873  0.7941
   92MOL0     H12657   0.498   9.923   5.476  0.2685  0.5290 -0.7230
   92MOL0     H12658  -0.010  10.166   5.019 -1.1549  2.2330 -2.2647
   92MOL0     H12659  -0.069  10.395   4.938  0.2459  3.6730 -0.2941
   92MOL0     H12660  -0.140  10.597   5.120  0.4742 -0.9744  1.1354
   92MOL0     H12661  -0.003  10.643   5.220 -0.8582  0.4413  0.8864
   92MOL0     H12662  -0.157  10.835   5.185 -0.9389 -1.9527 -0.5028
   92MOL0     H12663   0.003  10.876   5.121 -1.7616  1.9792  3.0575
   92MOL0     H12664  -0.216  10.783   4.929 -1.4114  0.5670 -0.0920
   92MOL0     H12665  -0.061  10.876   4.908  0.2031  0.3420  0.8843
   92MOL0     H12666  -0.190  11.055   5.059 -0.4218 -0.0597  0.7581
   92MOL0     H12667  -0.329  10.966   5.025 -0.7360 -1.0901  0.3625
   92MOL0     H12668  -0.239  10.995   4.776  0.2023  0.4577 -0.5001
   92MOL0     H12669  -0.318  11.131   4.844 -1.0438 -3.4638 -2.1133
   92MOL0     H12670  -0.034  11.076   4.792  0.5587 -0.6468  1.5460
   92MOL0     H12671  -0.062  11.167   4.940  2.0051 -2.9223 -0.8370
   92MOL0     H12672  -0.184  11.338   4.820  0.3552 -0.3541 -0.1868
   92MOL0     H12673  -0.170  11.258   4.665  0.3012 -0.8797 -0.4362
   92MOL0     H12674   0.076  11.335   4.831 -0.2495 -0.9079 -0.4744
   92MOL0     H12675   0.002  11.443   4.703 -1.1927  1.7243  3.7238
   92MOL0     H12676   0.262  10.557   5.161  2.6911 -1.0141 -1.6565
   92MOL0     H12677   0.335  10.338   5.222  0.9739  1.4821 -2.0428
   92MOL0     H12678   0.186   9.866   5.056  0.8973 -0.7689  0.0717
   92MOL0     H12679   0.157   9.635   5.083 -2.0843  2.3633 -0.2749
   92MOL0     H12680   0.343   9.076   5.811 -0.2164 -0.3165 -1.8479
   92MOL0     H12681   0.264   9.032   6.020  0.5846  0.5889 -2.5239
   92MOL0     H12682   0.651   8.815   6.242  2.0464 -1.1502  0.0285
   92MOL0     H12683   0.795   8.867   6.417 -0.1455  1.7072  0.2563
   92MOL0     H12684   0.903   8.739   6.553  0.8057 -1.5497  0.1808
   92MOL0     H12685   0.970   8.812   6.701  1.9044  0.9127 -4.7589
   92MOL0     H12686   1.025   8.604   6.720 -1.3059 -0.3202 -5.9411
   92MOL0     H12687   0.867   8.533   6.679  0.7656 -1.1603  0.0293
   92MOL0     H12688   0.953   8.683   6.932  0.3679 -1.2293  0.4378
   92MOL0     H12689   0.774   8.658   6.904 -0.9998 -0.7531 -0.7252
   92MOL0     H12690   0.821   8.411   6.885 -0.3656 -0.0702 -1.1132
   92MOL0     H12691   0.854   8.495   7.047  0.1978  1.4424 -0.4779
   92MOL0     H12692   1.225   8.320   6.949 -1.4725 -0.8756  4.3427
   92MOL0     H12693   0.524   8.664   6.685  0.6602  1.2231  0.3369
   92MOL0     H12694   0.330   8.513   6.561  3.1588  0.0534 -0.7727
   92MOL0     H12695   0.289   8.683   6.600 -0.9463 -1.4395  0.9866
   92MOL0     H12696   0.252   8.617   6.441 -0.1014  3.2583 -0.7511
   93MOL0     O12697  10.409   3.760   8.935  0.0305  0.0653 -0.5384
   93MOL0     C12698  10.454   3.721   8.830  0.6141  0.3848  0.8738
   93MOL0     O12699  10.428   3.598   8.776  0.2597  0.1000 -0.5208
   93MOL0     C12700  10.374   3.502   8.865 -0.5640 -1.0621 -0.5104
   93MOL0     C12701  10.432   3.370   8.885  0.6764 -0.7193  0.3478
   93MOL0     C12702  10.375   3.279   8.970 -0.2669 -0.3026  0.4751
   93MOL0     C12703  10.254   3.297   9.026  0.0024  0.8850  0.2641
   93MOL0     O12704  10.185   3.201   9.105  0.3990 -0.8413  1.0486
   93MOL0     C12705  10.265   3.111   9.184  0.6859 -0.3025 -0.1535
   93MOL0     C12706  10.175   3.081   9.316 -0.7764 -0.0335 -0.0510
   93MOL0     C12707  10.241   2.961   9.397  0.2485  0.1373 -0.6239
   93MOL0     C12708  10.183   2.946   9.535 -0.9718 -0.5504  0.0168
   93MOL0     C12709  10.220   2.827   9.619  0.3029 -0.1883  0.3651
   93MOL0     C12710  10.353   2.854   9.698 -0.0741  0.0960  0.1742
   93MOL0     C12711  10.402   2.718   9.759  0.3959 -0.0178  0.6510
   93MOL0     C12712  10.513   2.732   9.858 -0.2245 -0.1774  0.1462
   93MOL0     N12713  10.554   2.596   9.916 -0.0161 -0.2237 -0.6836
   93MOL0     C12714  10.499   2.531  10.029 -0.3691  0.2113  0.0517
   93MOL0     C12715  10.564   2.409  10.030 -0.2473  0.4298  1.0384
   93MOL0     C12716  10.579   2.307  10.142 -0.9725 -0.1358 -0.0686
   93MOL0     C12717  10.677   2.357  10.257  0.3884  0.5392 -0.2460
   93MOL0     C12718  10.825   2.338  10.231 -0.3085  0.3617 -0.5299
   93MOL0     C12719  10.917   2.387  10.349  1.3406  0.5459  0.4417
   93MOL0     O12720  11.050   2.368  10.313 -0.6202 -0.6499  0.1728
   93MOL0     C12721  11.112   2.250  10.349  1.1625 -0.3482  0.4129
   93MOL0     C12722  11.156   2.174  10.243 -0.2360 -0.4581  1.0609
   93MOL0     C12723  11.247   2.071  10.259 -0.2002  0.5646 -0.2834
   93MOL0     C12724  11.274   1.978  10.142  0.3822  0.9790 -0.1568
   93MOL0     C12725  11.284   2.030  10.395  0.0296 -0.3555 -0.1706
   93MOL0     C12726  11.392   1.930  10.422 -0.2983 -0.6155  0.3765
   93MOL0     O12727  11.370   1.837  10.529 -0.3463  0.0972  0.8457
   93MOL0     C12728  11.478   1.759  10.556  0.7279  0.2326  0.6125
   93MOL0     C12729  11.539   1.776  10.676  0.4612 -0.6061 -0.3860
   93MOL0     C12730  11.655   1.697  10.717  0.6010 -0.5087  0.1362
   93MOL0     C12731  11.698   1.592  10.636  0.2535 -0.0114  0.0921
   93MOL0     O12732  11.785   1.493  10.669 -0.3861  0.3355 -0.0540
   93MOL0     C12733  11.891   1.516  10.762 -0.1480 -0.4092  0.0844
   93MOL0     C12734  11.998   1.605  10.702  0.4685 -0.2561 -0.1579
   93MOL0     C12735  12.124   1.594  10.779  0.6291 -0.8589  1.0169
   93MOL0     C12736  12.232   1.497  10.716  0.2184  0.2648  0.6172
   93MOL0     C12737  12.356   1.467  10.813 -0.2245 -0.2346  0.3164
   93MOL0     C12738  12.330   1.363  10.930 -0.1724  0.4593 -0.2511
   93MOL0     C12739  12.441   1.341  11.036  0.0527 -0.1870 -0.5487
   93MOL0     C12740  12.570   1.286  10.977  0.4395 -0.2737 -0.3256
   93MOL0    Cl12741  12.699   1.247  11.098 -0.1358  0.3448  0.2036
   93MOL0     C12742  11.618   1.568  10.517  0.5215  0.1304 -0.0608
   93MOL0     C12743  11.518   1.649  10.481  0.1092 -1.1758 -0.3599
   93MOL0     O12744  11.495   1.935  10.356 -0.2238 -0.2726 -0.0548
   93MOL0     C12745  11.234   2.107  10.503 -0.4117  0.2414  0.7127
   93MOL0     C12746  11.147   2.214  10.477 -0.1357 -0.3237 -0.4657
   93MOL0     N12747  10.634   2.404   9.906  0.1722  0.8444 -0.8669
   93MOL0     N12748  10.636   2.514   9.843  0.2037 -0.7066  0.0113
   93MOL0     C12749  10.181   3.412   8.992 -0.0433  0.0923 -1.5137
   93MOL0     C12750  10.235   3.515   8.915  0.1340  0.6015  0.4960
   93MOL0     C12751  10.539   3.828   8.762 -0.7188 -0.0365  0.3666
   93MOL0     C12752  10.612   3.783   8.649 -0.6014 -0.0484 -1.0170
   93MOL0     C12753  10.694   3.872   8.582  0.0656 -0.5658 -0.0342
   93MOL0     C12754  10.697   4.010   8.615 -0.1259  0.0570 -0.3627
   93MOL0     O12755  10.789   4.097   8.560  0.0390 -0.3411  0.2223
   93MOL0     C12756  10.867   4.061   8.444  1.0137  1.2775 -0.3099
   93MOL0     C12757  10.939   4.171   8.372 -0.1561  0.1378 -0.4453
   93MOL0     C12758  10.852   4.285   8.331 -0.0351 -0.1896 -0.1035
   93MOL0     C12759  10.746   4.254   8.225 -0.3362  0.2012 -0.4159
   93MOL0     C12760  10.682   4.376   8.190  0.1486 -0.5624  0.1224
   93MOL0     C12761  10.610   4.482   8.169  0.3217  1.4394  0.7308
   93MOL0     C12762  10.627   4.048   8.732 -0.2911 -0.6545  0.5548
   93MOL0     C12763  10.552   3.963   8.812 -0.2340 -0.2794 -0.2513
   93MOL0     C12764  10.480   4.021   8.928 -0.2960 -0.6008 -0.6646
   93MOL0     H12765  10.531   3.351   8.843  1.4312 -0.6699  2.0340
   93MOL0     H12766  10.421   3.183   8.994  0.7267  0.8555  3.8166
   93MOL0     H12767  10.364   3.150   9.207 -0.8902  3.6703  0.7052
   93MOL0     H12768  10.282   3.023   9.122  3.1512 -0.8729  1.1901
   93MOL0     H12769  10.185   3.171   9.377  2.8091 -1.0066  1.0317
   93MOL0     H12770  10.072   3.056   9.290 -0.7102  1.3541 -1.8187
   93MOL0     H12771  10.235   2.868   9.341  1.7257  0.4560 -1.3614
   93MOL0     H12772  10.347   2.984   9.407  0.3733 -0.6885  0.0206
   93MOL0     H12773  10.204   3.039   9.589 -2.3285 -0.9255  1.2537
   93MOL0     H12774  10.076   2.928   9.524 -1.0776  0.6969 -1.2503
   93MOL0     H12775  10.236   2.745   9.548  0.1704  0.2640 -0.2013
   93MOL0     H12776  10.132   2.812   9.682  0.1182 -1.5333 -0.1855
   93MOL0     H12777  10.433   2.883   9.629  2.9049 -0.4903  3.1188
   93MOL0     H12778  10.334   2.921   9.782 -1.2159 -2.5753  2.2015
   93MOL0     H12779  10.428   2.666   9.667 -0.9230  1.9030 -0.8942
   93MOL0     H12780  10.319   2.667   9.810  1.0785 -0.5119  1.2932
   93MOL0     H12781  10.601   2.781   9.818  0.9019 -1.2059  1.2854
   93MOL0     H12782  10.480   2.796   9.940 -0.7502 -0.6943  0.3534
   93MOL0     H12783  10.426   2.580  10.093 -0.2842  0.1422  0.2033
   93MOL0     H12784  10.621   2.216  10.099  0.8299 -0.4777  2.2407
   93MOL0     H12785  10.486   2.303  10.200  0.8296 -0.6571  2.9967
   93MOL0     H12786  10.658   2.464  10.265  0.6453  0.6394 -0.9483
   93MOL0     H12787  10.667   2.299  10.349  0.4987 -2.6209 -2.0798
   93MOL0     H12788  10.838   2.231  10.213 -2.4320 -0.3032  1.3560
   93MOL0     H12789  10.852   2.394  10.140  2.9216  1.1395  0.7779
   93MOL0     H12790  10.891   2.487  10.386  1.6114  0.5600  0.5990
   93MOL0     H12791  10.896   2.330  10.439  1.3522 -0.0026  0.1038
   93MOL0     H12792  11.135   2.202  10.140  3.1714 -0.1583  0.3279
   93MOL0     H12793  11.228   1.880  10.156 -1.1358  1.5970 -0.6699
   93MOL0     H12794  11.381   1.958  10.128  0.0622 -1.1739  0.0719
   93MOL0     H12795  11.228   2.015  10.050  0.3153 -1.3027 -1.1171
   93MOL0     H12796  11.522   1.861  10.740 -2.5736 -1.3081 -0.1237
   93MOL0     H12797  11.692   1.711  10.818 -3.3482 -2.1420  2.0180
   93MOL0     H12798  11.862   1.558  10.859  0.0032 -3.2805  1.4773
   93MOL0     H12799  11.937   1.418  10.779  3.2550  0.6740 -2.0492
   93MOL0     H12800  12.016   1.579  10.597  2.4515  1.1404 -0.2085
   93MOL0     H12801  11.961   1.708  10.709 -3.1379 -1.4253  0.1812
   93MOL0     H12802  12.102   1.562  10.881 -1.6419 -2.1214  0.1945
   93MOL0     H12803  12.174   1.692  10.781  1.0550 -1.0860  2.6161
   93MOL0     H12804  12.267   1.531  10.619  3.5584 -0.9646  1.2397
   93MOL0     H12805  12.178   1.404  10.697  2.3089 -0.7058 -1.0008
   93MOL0     H12806  12.445   1.432  10.761  0.0788 -0.5880  1.0492
   93MOL0     H12807  12.375   1.554  10.877 -2.1520 -0.4334  1.2415
   93MOL0     H12808  12.309   1.264  10.890  1.6760  0.3771 -1.0891
   93MOL0     H12809  12.241   1.395  10.986  0.0924  0.8341 -0.0332
   93MOL0     H12810  12.405   1.267  11.109  0.5720 -0.0372 -0.1385
   93MOL0     H12811  12.467   1.434  11.087 -2.1737 -0.8938  2.1071
   93MOL0     H12812  12.612   1.350  10.899  0.5255 -0.5373 -0.4950
   93MOL0     H12813  12.542   1.191  10.932 -2.3040 -0.8023  2.1316
   93MOL0     H12814  11.646   1.483  10.454 -0.1449  1.6376 -2.5318
   93MOL0     H12815  11.449   1.621  10.402 -1.8567  2.1747 -0.0474
   93MOL0     H12816  11.259   2.090  10.607 -0.6825 -0.0240  0.7365
   93MOL0     H12817  11.102   2.264  10.562 -1.1522 -0.0533 -1.1399
   93MOL0     H12818  10.078   3.413   9.028  0.1047  2.4128 -1.0238
   93MOL0     H12819  10.191   3.608   8.880  1.1607 -0.3661 -4.0622
   93MOL0     H12820  10.614   3.681   8.610  0.4414  0.0151 -1.1454
   93MOL0     H12821  10.753   3.829   8.502 -0.4026  1.4641 -1.5411
   93MOL0     H12822  10.940   3.986   8.474  0.4288  0.9981  0.4524
   93MOL0     H12823  10.800   4.014   8.371  0.3901  2.1945 -0.3562
   93MOL0     H12824  10.989   4.127   8.285  0.9581 -0.5809  0.5366
   93MOL0     H12825  11.012   4.206   8.446 -0.8369  0.8899 -0.1145
   93MOL0     H12826  10.784   4.315   8.411 -4.4739 -0.7781 -3.2536
   93MOL0     H12827  10.908   4.374   8.300 -2.8471  1.6175 -0.3674
   93MOL0     H12828  10.680   4.169   8.250  3.0390 -2.2461  0.9800
   93MOL0     H12829  10.811   4.221   8.144 -0.9871 -0.0613 -0.8463
   93MOL0     H12830  10.545   4.564   8.145 -2.2539 -0.8114 -0.4986
   93MOL0     H12831  10.657   4.140   8.780  1.9537 -2.9226  3.8709
   93MOL0     H12832  10.508   3.969   9.020  0.1183 -0.8384 -0.9216
   93MOL0     H12833  10.508   4.124   8.953 -2.0830 -0.5922  1.5999
   93MOL0     H12834  10.372   4.027   8.911 -0.3819  0.3208  0.0856
   94MOL0     O12835   3.420   3.623   7.896 -1.2000  0.4950  0.6488
   94MOL0     C12836   3.351   3.715   7.945  0.2969 -0.0323 -0.4665
   94MOL0     O12837   3.397   3.813   8.031  0.2392  0.6678 -0.3350
   94MOL0     C12838   3.532   3.823   8.056 -0.0317 -0.3318 -0.3965
   94MOL0     C12839   3.571   3.838   8.191  0.3171  0.6859 -0.0462
   94MOL0     C12840   3.698   3.870   8.220 -0.2967  0.1009 -0.4542
   94MOL0     C12841   3.794   3.871   8.117  0.0177  0.3672  0.1534
   94MOL0     O12842   3.920   3.878   8.173  0.1268  0.0534 -0.0783
   94MOL0     C12843   4.025   3.861   8.080 -0.9708 -0.4634 -0.4771
   94MOL0     C12844   4.153   3.831   8.157  0.0978  0.3831 -0.4968
   94MOL0     C12845   4.274   3.825   8.068  0.2553 -0.0325 -0.8622
   94MOL0     C12846   4.402   3.826   8.141 -0.3207  0.2091  0.5442
   94MOL0     C12847   4.526   3.874   8.056 -0.3254  0.2912  0.5896
   94MOL0     C12848   4.649   3.871   8.146  0.0957 -0.3166  0.3404
   94MOL0     C12849   4.759   3.966   8.077  0.5144  0.3912 -0.7523
   94MOL0     C12850   4.871   4.001   8.178  0.2552  0.4817  0.0361
   94MOL0     N12851   4.952   3.883   8.198 -0.3528  0.7067  0.4467
   94MOL0     C12852   5.050   3.845   8.100  0.4436 -0.2171  0.0852
   94MOL0     C12853   5.085   3.727   8.149  0.2128 -0.6138 -0.4669
   94MOL0     C12854   5.194   3.647   8.092 -0.0878  0.1759 -0.4553
   94MOL0     C12855   5.129   3.530   8.025 -0.1998  0.1006 -0.3397
   94MOL0     C12856   5.055   3.571   7.900  0.4206 -0.1838 -0.2728
   94MOL0     C12857   4.930   3.477   7.881  0.8843  0.1481 -0.0938
   94MOL0     O12858   4.960   3.341   7.900  0.4493  0.1073 -0.4600
   94MOL0     C12859   4.877   3.255   7.834 -0.6168  0.2361  0.1269
   94MOL0     C12860   4.738   3.251   7.835 -0.9557 -0.4149  1.5296
   94MOL0     C12861   4.660   3.156   7.776 -0.4656  0.3674  0.3784
   94MOL0     C12862   4.516   3.178   7.773 -0.0267 -0.2329 -0.2537
   94MOL0     C12863   4.720   3.049   7.708  0.8091 -0.8730 -0.4922
   94MOL0     C12864   4.638   2.953   7.636  0.3945 -0.9489 -0.4039
   94MOL0     O12865   4.553   3.005   7.537  0.8899 -0.2505 -0.4858
   94MOL0     C12866   4.470   2.921   7.472  1.0228  0.8776 -0.4725
   94MOL0     C12867   4.331   2.934   7.483 -0.4753 -0.7934 -0.1340
   94MOL0     C12868   4.248   2.842   7.422  0.2423  0.1574  0.9457
   94MOL0     C12869   4.298   2.741   7.333  0.4264  0.8192 -0.3775
   94MOL0     O12870   4.210   2.646   7.287 -0.5697 -0.4435  0.9667
   94MOL0     C12871   4.249   2.557   7.183  0.7716 -0.5186  0.2130
   94MOL0     C12872   4.128   2.489   7.108 -0.0305  0.5346 -0.3262
   94MOL0     C12873   4.007   2.430   7.198  0.3063 -0.0456 -0.3340
   94MOL0     C12874   3.882   2.390   7.109  0.0921 -0.0063  0.3247
   94MOL0     C12875   3.767   2.310   7.186 -1.5635  0.6867 -0.1303
   94MOL0     C12876   3.645   2.266   7.103 -1.4060 -0.0700  0.5162
   94MOL0     C12877   3.538   2.192   7.188  0.2302 -0.0671  0.8676
   94MOL0     C12878   3.432   2.144   7.083 -0.3563  0.5956 -0.0513
   94MOL0    Cl12879   3.335   2.010   7.149 -0.3878 -0.0630  0.2013
   94MOL0     C12880   4.439   2.734   7.320 -0.0367 -0.0749 -0.2605
   94MOL0     C12881   4.521   2.833   7.386 -0.0057  0.7617  0.5846
   94MOL0     O12882   4.632   2.837   7.674 -0.6698 -0.7642 -0.3156
   94MOL0     C12883   4.860   3.050   7.702 -0.4461 -0.0462  0.6237
   94MOL0     C12884   4.940   3.148   7.763 -0.0782 -0.7783  0.8908
   94MOL0     N12885   5.006   3.679   8.258  0.6737 -0.5941  0.4041
   94MOL0     N12886   4.939   3.783   8.289 -0.5245  0.0429 -1.1535
   94MOL0     C12887   3.757   3.851   7.984 -0.6267 -0.1367 -0.3536
   94MOL0     C12888   3.624   3.831   7.959  0.5725 -0.7304  0.1062
   94MOL0     C12889   3.209   3.723   7.907 -0.6833  0.8313 -0.4737
   94MOL0     C12890   3.118   3.741   8.010  0.0618  0.2389 -0.6082
   94MOL0     C12891   2.986   3.768   7.991  0.4881  0.4117  0.5340
   94MOL0     C12892   2.942   3.766   7.861  0.1785  0.2589  0.5469
   94MOL0     O12893   2.814   3.805   7.818  0.5880 -0.3860 -0.0133
   94MOL0     C12894   2.731   3.901   7.900 -0.0883 -0.7414 -1.1553
   94MOL0     C12895   2.722   4.046   7.858 -0.1336 -0.6761  0.4668
   94MOL0     C12896   2.643   4.062   7.727 -0.0665  0.5648  0.3659
   94MOL0     C12897   2.670   4.209   7.689  0.5155 -0.9733  0.4333
   94MOL0     C12898   2.608   4.235   7.564  0.7106  0.0138  0.3692
   94MOL0     C12899   2.562   4.265   7.456  1.4551 -0.1862  0.8572
   94MOL0     C12900   3.021   3.737   7.757 -1.1096 -0.6524 -0.3934
   94MOL0     C12901   3.157   3.707   7.775 -0.6537  0.2559 -0.9531
   94MOL0     C12902   3.237   3.684   7.653 -0.3827  0.7262 -0.8622
   94MOL0     H12903   3.493   3.827   8.265  1.5349 -1.6596  1.0144
   94MOL0     H12904   3.726   3.883   8.324 -0.7021 -4.3730  0.4081
   94MOL0     H12905   4.030   3.959   8.031  0.0652  1.1270  2.5439
   94MOL0     H12906   4.014   3.772   8.018 -2.3750 -1.6108  1.3165
   94MOL0     H12907   4.164   3.904   8.238  0.2355 -0.2398  0.0576
   94MOL0     H12908   4.144   3.729   8.198  3.6064  0.0248 -0.3080
   94MOL0     H12909   4.284   3.736   8.004  0.2022 -0.5787 -0.1222
   94MOL0     H12910   4.271   3.913   8.003  1.9471  1.2388  0.6694
   94MOL0     H12911   4.398   3.889   8.230 -3.3000  0.3046  0.4292
   94MOL0     H12912   4.417   3.728   8.189 -1.2051  1.0089  2.5656
   94MOL0     H12913   4.510   3.972   8.010  0.7455  0.7070  1.0827
   94MOL0     H12914   4.549   3.806   7.973  1.6351  1.3149  0.2547
   94MOL0     H12915   4.620   3.914   8.242 -1.1259  0.2772 -0.2702
   94MOL0     H12916   4.682   3.767   8.153  3.5857  0.4397 -2.1168
   94MOL0     H12917   4.715   4.062   8.049  0.3116  1.5864  3.0934
   94MOL0     H12918   4.811   3.926   7.990  2.6629  1.6010 -0.1123
   94MOL0     H12919   4.939   4.071   8.129 -0.7723  1.6551  0.2401
   94MOL0     H12920   4.849   4.045   8.276 -0.9268 -0.8355  0.3916
   94MOL0     H12921   5.090   3.883   8.007  2.5909 -1.2800  0.5140
   94MOL0     H12922   5.269   3.621   8.167 -1.1899  2.2969  1.4837
   94MOL0     H12923   5.246   3.705   8.015  2.3524 -2.4768 -0.9895
   94MOL0     H12924   5.204   3.456   7.993  0.1199  1.1672 -2.1971
   94MOL0     H12925   5.058   3.490   8.099 -0.0275  0.2988 -0.0647
   94MOL0     H12926   5.033   3.678   7.893  1.5170  0.1072  0.5240
   94MOL0     H12927   5.108   3.554   7.806 -3.6714 -2.8856 -2.4346
   94MOL0     H12928   4.848   3.506   7.948 -0.1497  2.1899 -2.0654
   94MOL0     H12929   4.890   3.485   7.779  0.0916 -1.2733  0.0828
   94MOL0     H12930   4.680   3.324   7.890  0.4218  1.2715  0.8465
   94MOL0     H12931   4.452   3.091   7.789  0.0969  0.3148  5.0730
   94MOL0     H12932   4.484   3.227   7.681 -1.0089 -0.2220  0.0809
   94MOL0     H12933   4.500   3.260   7.844  4.4734  1.2396 -0.5715
   94MOL0     H12934   4.279   3.009   7.541  0.4262  0.0501 -0.3814
   94MOL0     H12935   4.140   2.838   7.433  0.1821 -0.9229  0.2231
   94MOL0     H12936   4.310   2.602   7.104  0.9965 -1.1661  0.0085
   94MOL0     H12937   4.311   2.477   7.226 -1.3546 -2.0817  0.5533
   94MOL0     H12938   4.090   2.567   7.042 -1.0998  1.5899  1.4366
   94MOL0     H12939   4.167   2.405   7.050 -2.0086 -0.2666 -0.5907
   94MOL0     H12940   3.968   2.503   7.269 -3.3004 -0.1636 -1.9765
   94MOL0     H12941   4.035   2.346   7.261 -0.7468  0.7846  1.3121
   94MOL0     H12942   3.910   2.325   7.026 -0.3421  0.2716 -0.0433
   94MOL0     H12943   3.832   2.474   7.060  1.0804 -0.7987 -2.2040
   94MOL0     H12944   3.814   2.216   7.218 -1.0995  0.2700 -1.9017
   94MOL0     H12945   3.746   2.367   7.277  0.1296 -1.4182  1.7138
   94MOL0     H12946   3.678   2.204   7.019 -0.9672  0.1943  0.4848
   94MOL0     H12947   3.605   2.357   7.057 -0.3119  0.2748  0.1965
   94MOL0     H12948   3.491   2.259   7.261 -0.5745 -1.0451  1.2706
   94MOL0     H12949   3.573   2.105   7.243  1.2520 -2.6428 -3.3643
   94MOL0     H12950   3.485   2.114   6.992 -0.0301  1.0215 -0.0056
   94MOL0     H12951   3.356   2.221   7.071 -0.1487  0.4797 -2.8033
   94MOL0     H12952   4.482   2.653   7.261  1.2973 -1.4047  2.3517
   94MOL0     H12953   4.628   2.835   7.365 -0.2449 -1.5830 -1.1525
   94MOL0     H12954   4.912   2.971   7.649 -3.5307 -0.1699 -2.6000
   94MOL0     H12955   5.048   3.144   7.763 -0.0995 -1.6183  0.5349
   94MOL0     H12956   3.837   3.864   7.912  1.8299  0.5182  2.2833
   94MOL0     H12957   3.588   3.827   7.857  3.3025 -3.5175 -0.9117
   94MOL0     H12958   3.163   3.751   8.108 -2.9794 -1.4429  1.0819
   94MOL0     H12959   2.922   3.792   8.076  1.9297 -0.8373  2.0428
   94MOL0     H12960   2.635   3.865   7.937  1.1426 -0.3248  2.9829
   94MOL0     H12961   2.775   3.910   8.000  0.1288  3.1847 -1.4440
   94MOL0     H12962   2.819   4.096   7.850 -0.4706  0.3387  2.1875
   94MOL0     H12963   2.674   4.107   7.935  1.2071  1.2645 -0.1506
   94MOL0     H12964   2.679   3.997   7.647  0.5081  3.8517 -2.2758
   94MOL0     H12965   2.536   4.042   7.736  0.4665 -2.1080  1.8669
   94MOL0     H12966   2.774   4.232   7.668 -0.2398  2.2105 -0.3166
   94MOL0     H12967   2.627   4.276   7.764 -1.9485 -0.7031 -1.0864
   94MOL0     H12968   2.536   4.291   7.355 -0.6645  2.2345  1.9008
   94MOL0     H12969   2.971   3.729   7.662 -3.5127 -2.4594  0.9070
   94MOL0     H12970   3.257   3.786   7.619 -2.1472  1.6847  0.8046
   94MOL0     H12971   3.321   3.622   7.686 -1.3995  0.7346  2.0129
   94MOL0     H12972   3.171   3.625   7.588  1.2046 -3.3106  0.8604
   95MOL0     O12973   1.449   0.637   8.360  0.3106  0.1328 -0.1811
   95MOL0     C12974   1.456   0.756   8.392  0.7649 -0.4460 -0.3570
   95MOL0     O12975   1.534   0.808   8.498  0.4267 -0.3538  0.2623
   95MOL0     C12976   1.615   0.725   8.568 -0.5276 -0.2687  0.1883
   95MOL0     C12977   1.601   0.593   8.609 -0.3029  0.2932 -0.2493
   95MOL0     C12978   1.705   0.519   8.679  0.1465  0.4284  1.1943
   95MOL0     C12979   1.819   0.582   8.716 -0.0952 -0.7125  0.6811
   95MOL0     O12980   1.905   0.506   8.787  0.1279  0.0537  0.9699
   95MOL0     C12981   2.017   0.578   8.846  0.6393 -0.1550  0.5938
   95MOL0     C12982   2.081   0.480   8.936  0.0101 -0.0707 -1.3232
   95MOL0     C12983   2.116   0.347   8.874 -0.2158 -0.4073  0.4307
   95MOL0     C12984   2.206   0.261   8.969  0.7118 -0.3256 -1.2449
   95MOL0     C12985   2.198   0.120   8.914 -1.5577  0.3847 -0.2286
   95MOL0     C12986   2.275   0.019   8.999 -0.0197  0.0270  0.3702
   95MOL0     C12987   2.331  -0.104   8.921  0.7347 -0.3607 -1.1013
   95MOL0     C12988   2.240  -0.167   8.820 -0.0325 -0.7897  0.2927
   95MOL0     N12989   2.267  -0.309   8.815 -0.9305  0.1509 -0.4736
   95MOL0     C12990   2.346  -0.374   8.723 -0.3242 -0.2483 -0.9633
   95MOL0     C12991   2.353  -0.503   8.772 -0.1634  0.5775  1.1365
   95MOL0     C12992   2.430  -0.624   8.715  0.3851 -0.1869  0.0511
   95MOL0     C12993   2.501  -0.698   8.826 -0.8485  0.3577 -0.1423
   95MOL0     C12994   2.610  -0.620   8.913  0.4972  0.2024  1.0082
   95MOL0     C12995   2.727  -0.555   8.846  0.0312  0.1907 -1.0743
   95MOL0     O12996   2.815  -0.645   8.782 -0.6130 -0.7749  0.1267
   95MOL0     C12997   2.898  -0.731   8.851  0.0654 -1.0419  0.2154
   95MOL0     C12998   2.988  -0.808   8.770  0.1030  0.0008  0.1029
   95MOL0     C12999   3.084  -0.888   8.820 -0.6741  0.4561  0.1358
   95MOL0     C13000   3.162  -0.969   8.728  0.7244 -0.1968  0.4338
   95MOL0     C13001   3.095  -0.905   8.964 -0.0369  0.0262  0.4354
   95MOL0     C13002   3.195  -0.985   9.037  0.3924  0.1715 -0.1226
   95MOL0     O13003   3.310  -1.026   8.978 -0.0508 -0.0728  0.3101
   95MOL0     C13004   3.387  -1.122   9.043  0.4778  0.0089 -0.4263
   95MOL0     C13005   3.526  -1.112   9.018  0.5078  0.5629 -0.4845
   95MOL0     C13006   3.622  -1.204   9.078 -0.1217  0.3298  0.5717
   95MOL0     C13007   3.577  -1.303   9.164  0.3088  0.6798  0.0691
   95MOL0     O13008   3.656  -1.403   9.228 -0.3768 -0.4832 -0.7384
   95MOL0     C13009   3.799  -1.417   9.214 -0.7115  0.1628  0.0143
   95MOL0     C13010   3.845  -1.511   9.324  0.0258 -0.8631  0.3388
   95MOL0     C13011   3.792  -1.657   9.324 -0.1181 -0.7201  0.4802
   95MOL0     C13012   3.852  -1.728   9.194  1.2292 -0.0960  0.4300
   95MOL0     C13013   3.803  -1.873   9.186  0.1252  0.9870 -0.5929
   95MOL0     C13014   3.880  -1.966   9.277 -1.2272  0.4900 -0.1812
   95MOL0     C13015   3.816  -2.110   9.286  0.7473  0.6004 -0.0609
   95MOL0     C13016   3.900  -2.213   9.376  0.3728 -0.5416 -0.2324
   95MOL0    Cl13017   4.020  -2.279   9.256 -0.0066 -0.1942  0.2166
   95MOL0     C13018   3.443  -1.304   9.197  0.9660  0.4100 -0.1835
   95MOL0     C13019   3.344  -1.216   9.142 -1.5449  0.3886  0.3312
   95MOL0     O13020   3.154  -1.032   9.139  0.8965 -0.4603 -0.4768
   95MOL0     C13021   3.003  -0.831   9.047 -0.2157 -0.7246  0.5592
   95MOL0     C13022   2.900  -0.752   8.985 -0.4317  0.0376 -0.7734
   95MOL0     N13023   2.247  -0.520   8.861 -0.5321 -0.1005 -1.3030
   95MOL0     N13024   2.206  -0.398   8.895  0.2279  0.2045  0.5739
   95MOL0     C13025   1.829   0.721   8.691  0.3348 -0.0415 -1.1355
   95MOL0     C13026   1.726   0.792   8.620 -0.4549  0.0478 -0.3537
   95MOL0     C13027   1.372   0.846   8.309 -0.0827 -0.4490  0.6501
   95MOL0     C13028   1.310   0.799   8.191  0.2310 -0.7444 -0.5852
   95MOL0     C13029   1.220   0.870   8.122  0.4767 -0.4254 -0.2678
   95MOL0     C13030   1.190   1.006   8.161 -0.0251 -0.1581  0.2755
   95MOL0     O13031   1.102   1.078   8.085 -0.4844  0.2680  0.7991
   95MOL0     C13032   1.155   1.210   8.058  0.6911 -0.9267  0.4369
   95MOL0     C13033   1.049   1.294   7.974 -0.1809 -0.2470  0.1125
   95MOL0     C13034   1.053   1.257   7.828  0.3550  0.4050 -0.3790
   95MOL0     C13035   0.919   1.307   7.763  0.5105 -0.7409 -0.3559
   95MOL0     C13036   0.929   1.304   7.615  0.7978 -0.4855 -0.4832
   95MOL0     C13037   0.929   1.308   7.496 -0.0566 -0.8853  0.0057
   95MOL0     C13038   1.253   1.060   8.276  1.2205 -0.4228  0.1103
   95MOL0     C13039   1.342   0.981   8.350 -0.4713  0.9458 -0.3401
   95MOL0     C13040   1.391   1.045   8.475  0.2784 -0.0430 -0.4509
   95MOL0     H13041   1.507   0.549   8.578 -1.4547  3.9652 -2.6811
   95MOL0     H13042   1.676   0.418   8.706 -0.6407 -0.0068 -1.0240
   95MOL0     H13043   1.983   0.662   8.908 -1.4879 -1.1591  0.8757
   95MOL0     H13044   2.084   0.613   8.767 -0.9105 -0.9762 -1.1413
   95MOL0     H13045   2.163   0.520   8.996 -1.7782  2.6648 -0.4787
   95MOL0     H13046   2.005   0.448   9.008  1.9765 -3.1892 -0.4597
   95MOL0     H13047   2.029   0.289   8.844  0.2739 -0.1482 -1.6480
   95MOL0     H13048   2.178   0.361   8.785 -1.0344  0.3988 -0.0332
   95MOL0     H13049   2.309   0.295   8.978  0.2710  0.4377  2.0213
   95MOL0     H13050   2.159   0.265   9.068 -0.1393 -3.2141 -1.4376
   95MOL0     H13051   2.238   0.118   8.812  0.7760  2.0414  0.5648
   95MOL0     H13052   2.095   0.089   8.897 -1.1748 -1.6299  0.8379
   95MOL0     H13053   2.363   0.078   9.027  1.3840 -0.8654 -1.9087
   95MOL0     H13054   2.216  -0.027   9.079  1.3772 -2.7774 -0.0728
   95MOL0     H13055   2.359  -0.169   9.004 -0.0260  2.1804  1.3343
   95MOL0     H13056   2.424  -0.071   8.874  0.7030  0.4095 -0.6523
   95MOL0     H13057   2.136  -0.161   8.855 -0.1925  1.2443 -0.4443
   95MOL0     H13058   2.244  -0.123   8.720 -0.2084  0.0577  0.6510
   95MOL0     H13059   2.396  -0.330   8.638 -0.9910  0.8241 -0.8194
   95MOL0     H13060   2.492  -0.592   8.632 -0.9964 -3.4929 -2.4892
   95MOL0     H13061   2.349  -0.689   8.679 -1.7446  2.0578  0.5263
   95MOL0     H13062   2.438  -0.744   8.902  0.6823 -2.1424 -0.2818
   95MOL0     H13063   2.534  -0.786   8.771 -1.0328 -0.0627  0.4214
   95MOL0     H13064   2.548  -0.548   8.967  0.2824  2.8810 -2.4786
   95MOL0     H13065   2.650  -0.689   8.988  4.8214  2.3353  0.9147
   95MOL0     H13066   2.679  -0.489   8.774  2.7783  1.6149 -1.7259
   95MOL0     H13067   2.779  -0.494   8.921  0.3122 -1.3905  0.0844
   95MOL0     H13068   2.981  -0.807   8.662 -1.9094 -0.4129  0.1987
   95MOL0     H13069   3.162  -0.937   8.624  0.4281 -1.7439 -0.0626
   95MOL0     H13070   3.130  -1.073   8.718  3.0865 -0.8988 -0.5106
   95MOL0     H13071   3.266  -0.962   8.761  0.7915  1.2644 -0.0320
   95MOL0     H13072   3.556  -1.036   8.947 -0.3806  3.1844  1.7739
   95MOL0     H13073   3.728  -1.193   9.058 -0.0157 -0.4396  0.7006
   95MOL0     H13074   3.810  -1.461   9.114 -0.1114 -1.7748  0.8832
   95MOL0     H13075   3.848  -1.319   9.211 -2.9224  1.3916  1.1342
   95MOL0     H13076   3.955  -1.513   9.319  0.0748  1.8128 -2.6495
   95MOL0     H13077   3.810  -1.465   9.416  2.2525  2.8968 -0.4861
   95MOL0     H13078   3.682  -1.656   9.322 -0.2049 -2.9964  0.8296
   95MOL0     H13079   3.826  -1.713   9.412  0.8076  0.0851  0.6477
   95MOL0     H13080   3.961  -1.726   9.187  1.1166  2.2129 -2.2455
   95MOL0     H13081   3.816  -1.669   9.109  0.3781 -1.8312 -0.4536
   95MOL0     H13082   3.703  -1.885   9.231  1.2937 -1.8501  1.5938
   95MOL0     H13083   3.792  -1.911   9.084 -1.6865 -1.9229  0.5406
   95MOL0     H13084   3.885  -1.913   9.373 -0.7707 -0.1127  0.1332
   95MOL0     H13085   3.982  -1.975   9.239 -0.9953  1.4911  0.1739
   95MOL0     H13086   3.806  -2.150   9.185  1.1439  0.5961 -0.1016
   95MOL0     H13087   3.711  -2.108   9.317 -0.0356  0.6541 -2.5535
   95MOL0     H13088   3.823  -2.285   9.405 -2.4514  1.9506 -1.0335
   95MOL0     H13089   3.942  -2.171   9.468 -2.4152  0.5430  0.6586
   95MOL0     H13090   3.417  -1.392   9.255  3.1497 -1.5733 -2.0067
   95MOL0     H13091   3.242  -1.246   9.163 -1.6810 -0.2013 -1.1000
   95MOL0     H13092   2.988  -0.843   9.154 -0.6461  0.8595  0.6983
   95MOL0     H13093   2.837  -0.691   9.048 -1.1196  0.2780 -1.6809
   95MOL0     H13094   1.903   0.792   8.727  1.0142 -0.9065 -0.7986
   95MOL0     H13095   1.749   0.897   8.605  1.2843 -0.0697  1.1231
   95MOL0     H13096   1.322   0.696   8.160 -1.7172 -0.7676 -1.3932
   95MOL0     H13097   1.159   0.818   8.049 -2.6225 -0.1209  1.9009
   95MOL0     H13098   1.168   1.265   8.151 -0.0664 -0.2827  0.1811
   95MOL0     H13099   1.250   1.208   8.004 -0.0350 -0.5433 -0.9076
   95MOL0     H13100   1.092   1.395   7.973 -0.4046 -0.1446 -1.6676
   95MOL0     H13101   0.956   1.277   8.029  1.3697 -0.6860  2.7742
   95MOL0     H13102   1.136   1.308   7.778  1.0170 -0.5552 -0.3004
   95MOL0     H13103   1.050   1.148   7.821 -3.6502  0.2531  0.9143
   95MOL0     H13104   0.900   1.408   7.800  0.6382 -1.6587  2.4635
   95MOL0     H13105   0.830   1.253   7.797 -1.9917  3.2566  0.0434
   95MOL0     H13106   0.958   1.325   7.394  1.9089  4.9442  1.1974
   95MOL0     H13107   1.238   1.162   8.311  3.2596 -0.4469  1.2367
   95MOL0     H13108   1.309   1.112   8.504 -0.5586 -1.9579  1.9749
   95MOL0     H13109   1.392   0.971   8.555  0.8769  0.4214 -0.0240
   95MOL0     H13110   1.480   1.107   8.462 -0.7311  1.5702  0.0350
   96MOL0     O13111   8.994   0.367  10.296 -0.9729 -1.0040 -0.0699
   96MOL0     C13112   8.947   0.329  10.403  0.3932 -0.3735 -0.6345
   96MOL0     O13113   9.011   0.257  10.498  0.2383  0.0124 -0.2121
   96MOL0     C13114   9.150   0.248  10.508  0.3219 -0.0694  0.2977
   96MOL0     C13115   9.223   0.366  10.504  0.0298  0.0674  0.2902
   96MOL0     C13116   9.359   0.362  10.493 -0.2735 -0.8490 -0.4758
   96MOL0     C13117   9.428   0.236  10.482 -0.1588 -0.0317 -0.1808
   96MOL0     O13118   9.566   0.238  10.480 -0.0472  0.1367  0.9641
   96MOL0     C13119   9.633   0.126  10.458 -0.3758 -0.2033  0.1947
   96MOL0     C13120   9.783   0.149  10.443  0.0262 -0.6463  0.3313
   96MOL0     C13121   9.805   0.216  10.311 -0.6598 -0.0526  0.2061
   96MOL0     C13122   9.948   0.218  10.277 -0.4771  0.2730  0.6502
   96MOL0     C13123   9.988   0.322  10.170 -0.3904 -0.6502  0.8824
   96MOL0     C13124   9.914   0.292  10.035 -0.0952 -0.8570  0.3641
   96MOL0     C13125   9.998   0.333   9.915 -0.1118  0.0787 -0.3244
   96MOL0     C13126  10.035   0.477   9.909 -0.3197  0.0653  0.6339
   96MOL0     N13127  10.077   0.532   9.779  0.3312 -0.2482  0.1751
   96MOL0     C13128  10.208   0.537   9.745  0.2031  0.1492 -0.2046
   96MOL0     C13129  10.210   0.559   9.611 -0.5646  0.2563 -0.2108
   96MOL0     C13130  10.335   0.573   9.525  0.0269 -0.4998 -0.8355
   96MOL0     C13131  10.339   0.649   9.393 -0.1116  0.3763 -0.0873
   96MOL0     C13132  10.343   0.803   9.399 -0.5098  0.0200  0.9735
   96MOL0     C13133  10.341   0.857   9.258  0.0887 -0.1251 -0.0156
   96MOL0     O13134  10.279   0.984   9.264 -0.0620  0.3575 -0.1488
   96MOL0     C13135  10.152   0.995   9.221  0.0896 -0.6924 -0.7487
   96MOL0     C13136  10.051   0.893   9.235  0.0513 -0.4983 -0.2236
   96MOL0     C13137   9.917   0.908   9.205  0.3887 -0.3838 -0.2468
   96MOL0     C13138   9.815   0.802   9.258  0.7551  0.0681 -0.4813
   96MOL0     C13139   9.878   1.036   9.156 -0.0481  1.1443 -0.7864
   96MOL0     C13140   9.745   1.062   9.102  0.4713 -0.0388 -0.7874
   96MOL0     O13141   9.702   1.193   9.110  0.3537  0.7243  0.6611
   96MOL0     C13142   9.607   1.247   9.024 -0.3268  0.4991  0.3009
   96MOL0     C13143   9.500   1.178   8.979 -0.2171  1.1298  0.8700
   96MOL0     C13144   9.420   1.231   8.887  0.8036  0.4266  0.6838
   96MOL0     C13145   9.446   1.359   8.835  0.4792 -0.0656 -0.1938
   96MOL0     O13146   9.366   1.422   8.742  0.1837  0.1874  0.9043
   96MOL0     C13147   9.231   1.433   8.789  0.5491 -1.0092  0.1356
   96MOL0     C13148   9.210   1.518   8.914  0.3054 -0.6419  0.2229
   96MOL0     C13149   9.239   1.670   8.887 -0.3674  1.0009 -0.4943
   96MOL0     C13150   9.198   1.736   9.015 -0.8772 -0.2526 -0.3800
   96MOL0     C13151   9.230   1.889   9.019  0.7009  0.0237 -0.5606
   96MOL0     C13152   9.179   1.953   9.151  1.0093 -0.6207 -0.2710
   96MOL0     C13153   9.251   2.093   9.167 -0.1530 -0.6336 -0.6000
   96MOL0     C13154   9.239   2.137   9.322 -0.6397 -0.1758  0.3136
   96MOL0    Cl13155   9.070   2.177   9.361 -0.0440 -0.2458 -0.2750
   96MOL0     C13156   9.551   1.427   8.883 -0.2375 -0.0093  0.3945
   96MOL0     C13157   9.637   1.368   8.976  0.5288 -0.0672 -0.1064
   96MOL0     O13158   9.695   0.969   9.036 -0.4342 -0.3306 -0.5268
   96MOL0     C13159   9.975   1.138   9.147 -1.1684 -1.4137 -0.0849
   96MOL0     C13160  10.113   1.119   9.181  1.0400  0.4126 -0.0975
   96MOL0     N13161  10.078   0.581   9.565 -0.2229  0.1267  0.2719
   96MOL0     N13162  10.000   0.557   9.665  0.1581  0.7423 -0.2264
   96MOL0     C13163   9.351   0.119  10.484  0.7964  1.0028  0.2543
   96MOL0     C13164   9.211   0.123  10.511  0.9917 -0.1320 -0.1614
   96MOL0     C13165   8.796   0.353  10.418 -0.2306 -0.2746  0.0919
   96MOL0     C13166   8.728   0.251  10.483 -0.8154  0.7913  0.6741
   96MOL0     C13167   8.590   0.271  10.488 -0.7126  0.4905  0.6407
   96MOL0     C13168   8.524   0.379  10.450  0.5075 -0.1492 -0.3593
   96MOL0     O13169   8.391   0.360  10.455  1.0538 -0.3357 -0.1597
   96MOL0     C13170   8.307   0.477  10.449  1.2985  0.4912  0.5946
   96MOL0     C13171   8.165   0.436  10.457 -0.8688 -0.5479 -0.3249
   96MOL0     C13172   8.132   0.350  10.575 -1.1784  0.4096 -0.9522
   96MOL0     C13173   7.986   0.373  10.637  0.0845 -0.5671  0.4738
   96MOL0     C13174   7.887   0.316  10.551  0.0471  1.4629  0.1462
   96MOL0     C13175   7.805   0.259  10.479  1.1158  0.2461  0.7996
   96MOL0     C13176   8.588   0.479  10.380 -0.1392  0.0847 -0.0906
   96MOL0     C13177   8.729   0.466  10.369  1.2826 -0.7151  0.5725
   96MOL0     C13178   8.812   0.580  10.308  1.0446 -0.3705  0.5039
   96MOL0     H13179   9.176   0.463  10.509  0.0493  0.2925 -2.3121
   96MOL0     H13180   9.411   0.457  10.501 -0.2833 -1.0226  2.7530
   96MOL0     H13181   9.598   0.074  10.368 -0.2077 -0.4162  0.2497
   96MOL0     H13182   9.620   0.055  10.540 -1.7038 -0.1075  0.0813
   96MOL0     H13183   9.836   0.203  10.523 -0.6838  0.1730  0.2657
   96MOL0     H13184   9.830   0.050  10.450 -1.1100 -1.1670  0.7197
   96MOL0     H13185   9.743   0.163  10.239  0.5069 -2.0794  0.6076
   96MOL0     H13186   9.759   0.315  10.317  1.4298  1.1297 -1.7830
   96MOL0     H13187  10.001   0.234  10.371 -0.6106 -1.4811  1.0648
   96MOL0     H13188   9.982   0.121  10.239  1.7431  1.5000 -0.6334
   96MOL0     H13189  10.097   0.319  10.161 -0.3830 -2.5017  1.2304
   96MOL0     H13190   9.956   0.419  10.210 -2.3158 -0.4981 -0.8670
   96MOL0     H13191   9.904   0.183  10.026 -0.5073 -0.7968  0.0523
   96MOL0     H13192   9.819   0.345  10.042 -0.4796 -1.6973  2.5864
   96MOL0     H13193   9.943   0.301   9.826 -0.5381 -1.3624  0.4121
   96MOL0     H13194  10.092   0.278   9.915 -0.2153 -0.0991  0.2066
   96MOL0     H13195   9.951   0.539   9.940 -0.3537  1.2605 -1.6372
   96MOL0     H13196  10.117   0.489   9.980 -0.2924 -1.0634  0.8161
   96MOL0     H13197  10.296   0.513   9.803 -0.9779 -0.5250  1.3636
   96MOL0     H13198  10.359   0.469   9.503 -0.6430 -0.4410 -1.8668
   96MOL0     H13199  10.408   0.627   9.587 -0.6151  2.6974 -2.6574
   96MOL0     H13200  10.424   0.611   9.335  0.8207 -0.0882  1.5185
   96MOL0     H13201  10.249   0.614   9.342 -0.2321  2.8009 -1.7095
   96MOL0     H13202  10.259   0.846   9.453 -0.6072 -0.7812  1.4785
   96MOL0     H13203  10.439   0.827   9.445 -0.7666  2.7135  0.3066
   96MOL0     H13204  10.444   0.872   9.223 -0.9629  0.8307 -3.0848
   96MOL0     H13205  10.298   0.791   9.183 -0.6146 -1.0092  1.1393
   96MOL0     H13206  10.082   0.794   9.268  1.5581  0.4207  1.2136
   96MOL0     H13207   9.711   0.836   9.259  1.0817  1.0946  0.2634
   96MOL0     H13208   9.836   0.777   9.362  0.5753 -0.0418 -0.4732
   96MOL0     H13209   9.823   0.720   9.186  1.1575  0.4977 -0.9431
   96MOL0     H13210   9.482   1.077   9.014 -0.8863 -0.5983 -3.6942
   96MOL0     H13211   9.338   1.166   8.861  1.8655 -0.1871 -1.3706
   96MOL0     H13212   9.159   1.474   8.717 -0.4241  0.5575  1.8850
   96MOL0     H13213   9.187   1.336   8.815 -1.3617  0.1528  1.4717
   96MOL0     H13214   9.101   1.520   8.923  0.0174  2.6814 -2.2612
   96MOL0     H13215   9.255   1.475   9.005  2.6513  1.0332 -0.0860
   96MOL0     H13216   9.172   1.699   8.805 -2.3041 -1.7931 -0.0582
   96MOL0     H13217   9.346   1.682   8.868 -0.5221  0.8977 -1.5127
   96MOL0     H13218   9.256   1.702   9.102  0.8930  2.0209 -0.5654
   96MOL0     H13219   9.093   1.714   9.035 -0.7810 -0.9492 -0.6182
   96MOL0     H13220   9.336   1.906   8.999  0.7966  0.2916  0.1390
   96MOL0     H13221   9.179   1.939   8.937  1.7396  0.5225 -0.9159
   96MOL0     H13222   9.213   1.881   9.225  2.0499  0.5263  0.3930
   96MOL0     H13223   9.073   1.983   9.151  2.0752  3.9000 -1.8659
   96MOL0     H13224   9.208   2.176   9.110 -5.4943 -2.6606 -0.1096
   96MOL0     H13225   9.355   2.075   9.138 -0.3664  2.0430 -3.6603
   96MOL0     H13226   9.311   2.216   9.345  1.5979 -2.6318  2.4103
   96MOL0     H13227   9.275   2.060   9.392 -0.5476  0.3232  0.8268
   96MOL0     H13228   9.578   1.529   8.860  0.7611 -0.1583  0.8539
   96MOL0     H13229   9.720   1.428   9.012 -0.9931 -0.3483  4.5901
   96MOL0     H13230   9.951   1.232   9.097  1.8057 -0.0502  0.8469
   96MOL0     H13231  10.188   1.196   9.167  1.0031  0.6312  0.8180
   96MOL0     H13232   9.398   0.022  10.473  0.4171  1.1263 -4.1754
   96MOL0     H13233   9.141   0.043  10.533  0.1081  0.9193  0.9492
   96MOL0     H13234   8.781   0.168  10.528 -0.1085  1.0697  0.3678
   96MOL0     H13235   8.521   0.201  10.535 -1.2586  0.4955 -0.1312
   96MOL0     H13236   8.347   0.544  10.525 -0.5889 -0.1112  2.2036
   96MOL0     H13237   8.311   0.529  10.353 -0.6056  1.0874  0.7973
   96MOL0     H13238   8.141   0.385  10.363 -2.2271 -1.2033  0.3492
   96MOL0     H13239   8.099   0.523  10.461 -0.8515 -0.5554  2.3831
   96MOL0     H13240   8.138   0.242  10.563 -0.5888  0.0391  1.9586
   96MOL0     H13241   8.200   0.383  10.654  1.8734 -2.2745 -2.2482
   96MOL0     H13242   7.969   0.481  10.634  1.4901 -0.3189  0.3876
   96MOL0     H13243   7.973   0.328  10.736 -1.6031 -1.9466 -0.3252
   96MOL0     H13244   7.739   0.210  10.410 -0.0805 -0.3128  2.2817
   96MOL0     H13245   8.539   0.572  10.353 -1.3967  0.4352  2.9608
   96MOL0     H13246   8.768   0.679  10.326  1.9851 -0.1918  1.9605
   96MOL0     H13247   8.913   0.595  10.347  1.8183 -0.6664 -1.3219
   96MOL0     H13248   8.817   0.562  10.200  0.6584  1.9238  0.0495
   97MOL0     O13249   2.778  11.365   3.194  0.2901 -0.5682 -0.2295
   97MOL0     C13250   2.663  11.394   3.212  0.9435 -0.1816  0.4648
   97MOL0     O13251   2.555  11.338   3.144 -0.4695  0.9283  0.8894
   97MOL0     C13252   2.580  11.224   3.068 -0.3835  0.3335  0.0910
   97MOL0     C13253   2.635  11.218   2.928  0.3541  0.5820 -0.4090
   97MOL0     C13254   2.637  11.093   2.872  0.1120  0.7729 -0.1189
   97MOL0     C13255   2.604  10.976   2.936 -0.6446 -1.7082  0.9182
   97MOL0     O13256   2.621  10.852   2.874  0.2648 -0.0339  0.1794
   97MOL0     C13257   2.551  10.739   2.923  0.1799  0.5163  0.0625
   97MOL0     C13258   2.551  10.624   2.824 -0.1761  0.1428  0.3205
   97MOL0     C13259   2.697  10.569   2.820  0.6916  0.0096 -0.0761
   97MOL0     C13260   2.763  10.598   2.681 -0.2314 -0.1951  0.3122
   97MOL0     C13261   2.907  10.557   2.681 -0.0394 -0.1208  0.3996
   97MOL0     C13262   3.007  10.652   2.733  0.3044  0.0262  0.2289
   97MOL0     C13263   3.147  10.598   2.737  0.0587  0.1196  0.1224
   97MOL0     C13264   3.168  10.495   2.850 -0.6133 -0.0615 -0.2589
   97MOL0     N13265   3.177  10.567   2.976 -0.2251  0.2152  0.6315
   97MOL0     C13266   3.279  10.646   3.012 -0.6878  0.0961  0.5630
   97MOL0     C13267   3.264  10.688   3.140 -0.8890  0.3273  0.3728
   97MOL0     C13268   3.350  10.780   3.208 -0.0130 -0.3197  0.5447
   97MOL0     C13269   3.394  10.756   3.345 -0.1094 -0.1924 -0.4043
   97MOL0     C13270   3.514  10.847   3.383 -0.0268  0.2633 -0.4738
   97MOL0     C13271   3.654  10.768   3.384 -0.1668  0.5266 -0.4625
   97MOL0     O13272   3.664  10.681   3.495 -0.0103  0.2861 -0.2844
   97MOL0     C13273   3.694  10.737   3.619  0.4496  0.8222  0.0289
   97MOL0     C13274   3.589  10.754   3.705 -0.0762  0.0096 -0.1637
   97MOL0     C13275   3.608  10.792   3.836 -0.7524 -0.3799 -0.6244
   97MOL0     C13276   3.486  10.804   3.930 -0.0747 -0.9068  1.3538
   97MOL0     C13277   3.743  10.807   3.881 -0.4900  0.4713  0.0473
   97MOL0     C13278   3.788  10.845   4.020 -0.0949  0.6699  0.0816
   97MOL0     O13279   3.924  10.821   4.046  0.4543 -0.2698 -0.0223
   97MOL0     C13280   3.965  10.879   4.160 -0.3785  0.7538 -0.0026
   97MOL0     C13281   4.003  10.790   4.259  0.1208  0.8503  0.2035
   97MOL0     C13282   4.048  10.858   4.379  0.5387  0.0666  0.3813
   97MOL0     C13283   4.050  11.001   4.390 -0.0151  0.3749  1.4045
   97MOL0     O13284   4.092  11.050   4.516  0.4739  0.2365 -0.3170
   97MOL0     C13285   4.141  11.181   4.546 -0.2339 -0.1002  0.7313
   97MOL0     C13286   4.158  11.206   4.698 -0.1285 -0.1901  0.3882
   97MOL0     C13287   4.272  11.295   4.740  0.7903 -0.4268  0.2985
   97MOL0     C13288   4.239  11.337   4.880 -0.7312  0.0171  0.3457
   97MOL0     C13289   4.344  11.431   4.924 -0.9307 -0.2193  0.2578
   97MOL0     C13290   4.294  11.544   5.007 -0.2647 -0.3008 -1.0494
   97MOL0     C13291   4.235  11.492   5.129  0.6269 -1.4675 -0.8529
   97MOL0     C13292   4.189  11.606   5.224 -0.1269 -0.3899 -0.6718
   97MOL0    Cl13293   4.102  11.543   5.366 -0.1227 -0.4230 -0.0046
   97MOL0     C13294   4.034  11.085   4.280  0.0465 -0.5772  0.8659
   97MOL0     C13295   3.988  11.023   4.168  0.5360 -0.0535  0.2703
   97MOL0     O13296   3.713  10.892   4.101  0.1417 -0.8028  0.4934
   97MOL0     C13297   3.848  10.797   3.787  0.4416 -0.0780  1.0792
   97MOL0     C13298   3.824  10.757   3.660 -0.5708  0.0566  1.0190
   97MOL0     N13299   3.156  10.623   3.182  0.2661 -0.6956 -0.9827
   97MOL0     N13300   3.107  10.542   3.088  0.6514  0.3633 -0.1859
   97MOL0     C13301   2.563  10.983   3.067  1.6206 -0.3420  0.9116
   97MOL0     C13302   2.556  11.105   3.134  0.1366 -0.1982 -0.3414
   97MOL0     C13303   2.634  11.488   3.329 -0.3584  0.0509  0.1013
   97MOL0     C13304   2.522  11.567   3.319 -0.0615  0.4727  0.0298
   97MOL0     C13305   2.488  11.667   3.414  0.4088  0.4002  0.3046
   97MOL0     C13306   2.574  11.684   3.520  0.3023  0.6227  0.4173
   97MOL0     O13307   2.559  11.798   3.595  0.4278  0.7963 -0.0253
   97MOL0     C13308   2.533  11.925   3.533 -0.2549  0.0368  0.0596
   97MOL0     C13309   2.547  12.044   3.633 -0.7211 -0.0845  0.0395
   97MOL0     C13310   2.439  12.040   3.733  0.3829 -0.0652  0.3159
   97MOL0     C13311   2.444  12.154   3.838 -0.2630 -0.5862  1.2256
   97MOL0     C13312   2.360  12.115   3.947 -0.6654  0.5292  0.4453
   97MOL0     C13313   2.295  12.070   4.043  0.9217 -0.2434  0.2837
   97MOL0     C13314   2.678  11.601   3.544  0.0816 -0.4495  0.0178
   97MOL0     C13315   2.715  11.502   3.450  0.6357  0.7007  0.2929
   97MOL0     C13316   2.827  11.401   3.478 -0.4251 -0.6067  0.9567
   97MOL0     H13317   2.664  11.304   2.868 -0.5164  1.6260  0.6266
   97MOL0     H13318   2.666  11.082   2.768  2.7328  4.5975 -0.0193
   97MOL0     H13319   2.447  10.764   2.946 -0.7346 -4.1129  2.0934
   97MOL0     H13320   2.606  10.712   3.014 -1.9551 -2.0481  0.7093
   97MOL0     H13321   2.487  10.539   2.849 -0.3265 -0.8102 -2.8546
   97MOL0     H13322   2.520  10.661   2.725 -0.6241 -2.2829 -0.5088
   97MOL0     H13323   2.766  10.599   2.898  2.0717  1.8235 -1.8817
   97MOL0     H13324   2.685  10.462   2.840 -1.1595  0.0089 -0.9720
   97MOL0     H13325   2.698  10.556   2.604 -0.0859  0.8826 -0.4357
   97MOL0     H13326   2.760  10.706   2.664  0.7142 -0.1287  0.5368
   97MOL0     H13327   2.924  10.536   2.575  0.4994 -0.5572  0.5692
   97MOL0     H13328   2.910  10.463   2.736 -2.5436  0.2526  1.3458
   97MOL0     H13329   3.015  10.732   2.659  2.1878 -2.3135 -2.3226
   97MOL0     H13330   2.984  10.701   2.828  0.7223  2.8527 -1.0544
   97MOL0     H13331   3.216  10.680   2.758  1.6738 -1.6456  2.1230
   97MOL0     H13332   3.176  10.559   2.639  1.0904 -1.8725  1.1521
   97MOL0     H13333   3.092  10.419   2.869  1.4525 -2.1883  0.0218
   97MOL0     H13334   3.263  10.444   2.832 -1.7351 -1.6904 -1.8872
   97MOL0     H13335   3.356  10.696   2.955 -0.4469  1.0507  1.6873
   97MOL0     H13336   3.301  10.876   3.225  0.6215 -0.1599  1.5091
   97MOL0     H13337   3.435  10.804   3.143  0.6659 -2.1898  0.6802
   97MOL0     H13338   3.314  10.787   3.413  0.3054 -0.2502  0.1252
   97MOL0     H13339   3.407  10.652   3.375  1.0555  0.3200  1.0209
   97MOL0     H13340   3.531  10.923   3.306  0.4446 -1.0069 -1.6762
   97MOL0     H13341   3.499  10.890   3.482 -0.6779 -2.8659  0.8968
   97MOL0     H13342   3.656  10.718   3.287 -0.1991  3.5691 -2.1465
   97MOL0     H13343   3.746  10.824   3.397  0.0195 -0.1012  1.3577
   97MOL0     H13344   3.488  10.735   3.672  0.7658 -3.6392 -1.0224
   97MOL0     H13345   3.399  10.762   3.879  0.3153 -0.4638  0.2977
   97MOL0     H13346   3.471  10.912   3.937 -0.0564 -0.5412 -2.4076
   97MOL0     H13347   3.504  10.768   4.032  3.2492 -4.1559 -0.1445
   97MOL0     H13348   4.008  10.682   4.258 -1.3093  0.7296  1.7253
   97MOL0     H13349   4.059  10.794   4.466 -2.7887 -0.9507  0.1985
   97MOL0     H13350   4.243  11.184   4.505 -0.6144 -2.2452 -0.5202
   97MOL0     H13351   4.080  11.254   4.491 -1.1271 -0.5499  1.1153
   97MOL0     H13352   4.061  11.245   4.731 -1.5817 -0.2648 -3.2292
   97MOL0     H13353   4.172  11.107   4.742 -2.1843 -0.0201  1.5409
   97MOL0     H13354   4.271  11.386   4.679  0.0270 -0.2854  0.5109
   97MOL0     H13355   4.372  11.250   4.732  1.7781  1.5728  0.7048
   97MOL0     H13356   4.238  11.249   4.944  0.4639  0.9300  1.7123
   97MOL0     H13357   4.137  11.375   4.877 -0.8567 -0.3162  0.3699
   97MOL0     H13358   4.411  11.374   4.989 -1.0026 -2.4998 -1.5549
   97MOL0     H13359   4.398  11.469   4.837 -0.6501  1.0273  0.9532
   97MOL0     H13360   4.215  11.596   4.952  0.1738  2.7100  0.9001
   97MOL0     H13361   4.373  11.619   5.023  1.7294 -2.4736 -0.1116
   97MOL0     H13362   4.307  11.423   5.174  1.0267  1.7296  4.2716
   97MOL0     H13363   4.139  11.441   5.122 -1.1797  1.8332 -2.6356
   97MOL0     H13364   4.113  11.666   5.173 -0.0053  1.1038  0.8455
   97MOL0     H13365   4.272  11.668   5.259 -1.6973  1.1638  0.4471
   97MOL0     H13366   4.051  11.192   4.289 -1.6681 -0.2715  0.7984
   97MOL0     H13367   3.973  11.068   4.071  0.9834  0.5621  0.4838
   97MOL0     H13368   3.954  10.819   3.798  0.9630  0.0607 -2.9812
   97MOL0     H13369   3.916  10.737   3.606  0.7507  0.6803  2.9357
   97MOL0     H13370   2.540  10.895   3.126  2.3874 -2.9274 -2.3299
   97MOL0     H13371   2.538  11.103   3.241 -0.0316  0.8127 -0.3463
   97MOL0     H13372   2.465  11.554   3.227  0.6289  2.8152 -0.7945
   97MOL0     H13373   2.401  11.729   3.393 -0.8468 -0.4849  2.6097
   97MOL0     H13374   2.613  11.947   3.461 -0.7181 -1.5444 -0.9847
   97MOL0     H13375   2.439  11.933   3.478  0.2792  0.0562 -0.8794
   97MOL0     H13376   2.538  12.133   3.570  0.6778  2.1834  2.8108
   97MOL0     H13377   2.641  12.034   3.689  2.5883 -1.0167 -4.9752
   97MOL0     H13378   2.354  12.041   3.664  2.3067 -2.6073 -2.3826
   97MOL0     H13379   2.442  11.944   3.785 -0.2312 -1.9971 -2.9637
   97MOL0     H13380   2.412  12.248   3.792  2.4093 -1.0912 -2.1554
   97MOL0     H13381   2.546  12.170   3.875  0.0528  0.6345 -0.0712
   97MOL0     H13382   2.242  12.025   4.125 -1.0585  1.3633 -0.0261
   97MOL0     H13383   2.746  11.626   3.624 -1.8843  0.6802  1.4173
   97MOL0     H13384   2.850  11.398   3.585 -0.8805 -0.9573  1.0483
   97MOL0     H13385   2.808  11.300   3.441 -0.2270  0.2815 -1.7985
   97MOL0     H13386   2.913  11.423   3.413 -1.2598 -0.5417 -0.1511
   98MOL0     O13387   3.556  11.141   6.906  0.3479 -0.6770 -0.1555
   98MOL0     C13388   3.660  11.205   6.925  0.0057  0.1226 -0.2849
   98MOL0     O13389   3.709  11.306   6.845 -0.3265  0.4051  0.8696
   98MOL0     C13390   3.645  11.327   6.727  0.2925 -0.2115  0.0430
   98MOL0     C13391   3.699  11.284   6.606  0.3725 -0.3385  0.3579
   98MOL0     C13392   3.630  11.307   6.489 -0.9023  0.2859  0.1983
   98MOL0     C13393   3.510  11.372   6.488 -1.4005  0.3368 -0.7498
   98MOL0     O13394   3.437  11.390   6.378 -0.0408  0.0647 -0.3249
   98MOL0     C13395   3.395  11.267   6.322  0.7874 -0.1563  0.0689
   98MOL0     C13396   3.239  11.267   6.311 -0.6399  0.9084  0.3520
   98MOL0     C13397   3.192  11.375   6.224  0.1585 -0.0007 -0.7120
   98MOL0     C13398   3.041  11.357   6.197 -0.6000 -0.1110 -0.5857
   98MOL0     C13399   2.938  11.469   6.229  0.0399  0.9048 -0.6056
   98MOL0     C13400   2.957  11.580   6.126 -0.3078  0.4565 -0.1957
   98MOL0     C13401   2.899  11.715   6.164  0.2387  0.0551  0.6539
   98MOL0     C13402   2.999  11.801   6.248 -1.0506 -0.4422  0.4365
   98MOL0     N13403   3.120  11.831   6.176 -0.9072 -0.0564  0.0600
   98MOL0     C13404   3.121  11.918   6.073  0.0952  1.1405  0.3906
   98MOL0     C13405   3.246  11.933   6.025 -1.3606 -0.1465  0.5791
   98MOL0     C13406   3.303  12.030   5.926 -0.1933  0.4802 -0.4040
   98MOL0     C13407   3.299  11.959   5.787 -0.1889  0.0258 -0.9046
   98MOL0     C13408   3.418  11.873   5.779 -0.0943 -0.2902 -0.7489
   98MOL0     C13409   3.442  11.800   5.643 -0.3674 -0.7528 -0.1731
   98MOL0     O13410   3.575  11.744   5.644  0.1219 -0.1701 -0.0447
   98MOL0     C13411   3.600  11.640   5.561 -0.2985  0.0717 -0.2418
   98MOL0     C13412   3.517  11.591   5.463  0.8930  0.4177  0.5042
   98MOL0     C13413   3.548  11.489   5.373  0.0376  0.0553  0.2302
   98MOL0     C13414   3.445  11.455   5.257  0.5214  0.1021 -0.0999
   98MOL0     C13415   3.674  11.419   5.392  0.0912  0.3982  0.3215
   98MOL0     C13416   3.721  11.312   5.302 -0.1525 -0.3462  0.2948
   98MOL0     O13417   3.862  11.292   5.297 -0.1385  0.3799  0.8621
   98MOL0     C13418   3.922  11.196   5.200  0.6663 -0.1130  0.7461
   98MOL0     C13419   4.046  11.150   5.238 -0.7157 -0.3484 -0.1600
   98MOL0     C13420   4.112  11.048   5.163  0.0048  1.0585 -1.0491
   98MOL0     C13421   4.056  11.007   5.037 -0.6009 -0.6131 -1.2243
   98MOL0     O13422   4.102  10.919   4.949  0.0781 -0.9884  0.1532
   98MOL0     C13423   4.229  10.863   4.974 -0.6729  0.2827 -0.3129
   98MOL0     C13424   4.280  10.778   4.854 -0.1545  0.6404  1.3469
   98MOL0     C13425   4.181  10.663   4.802  0.3549  0.6533 -0.1885
   98MOL0     C13426   4.105  10.587   4.909 -0.0923  1.0234 -0.3763
   98MOL0     C13427   4.016  10.463   4.862 -0.1781 -0.7235  0.0161
   98MOL0     C13428   3.943  10.399   4.976  0.4978  0.4441  0.0050
   98MOL0     C13429   3.848  10.286   4.925 -0.0725 -0.2148  0.2445
   98MOL0     C13430   3.748  10.245   5.034 -0.8932 -0.4100 -0.6851
   98MOL0    Cl13431   3.827  10.158   5.179 -0.3345  0.1376 -0.3448
   98MOL0     C13432   3.931  11.065   4.995  0.7303  0.4476 -0.5859
   98MOL0     C13433   3.862  11.153   5.074  0.4555  0.2116 -0.3619
   98MOL0     O13434   3.633  11.246   5.241 -0.1243 -0.0149  0.0508
   98MOL0     C13435   3.760  11.473   5.496 -0.4150  0.2767 -0.3907
   98MOL0     C13436   3.722  11.574   5.586  0.5795  0.0797  0.0353
   98MOL0     N13437   3.330  11.853   6.103 -0.3124 -0.2054 -0.3472
   98MOL0     N13438   3.252  11.780   6.187 -0.1512 -0.9614  0.7193
   98MOL0     C13439   3.456  11.410   6.612  0.3054 -0.5039  0.3162
   98MOL0     C13440   3.520  11.382   6.730 -0.0034 -0.1749  0.4247
   98MOL0     C13441   3.739  11.164   7.047 -0.7520  0.0287 -0.4240
   98MOL0     C13442   3.719  11.037   7.114 -0.1435  0.5967 -0.0833
   98MOL0     C13443   3.786  11.000   7.230 -0.2762  0.0717 -0.0382
   98MOL0     C13444   3.878  11.085   7.290 -0.9874  0.4109 -0.8326
   98MOL0     O13445   3.934  11.039   7.406 -0.7744 -0.7395 -0.4883
   98MOL0     C13446   3.923  11.122   7.524  0.6339 -0.5523 -0.2299
   98MOL0     C13447   3.978  11.049   7.647  0.4558  0.0624 -0.4024
   98MOL0     C13448   4.109  10.971   7.629  0.0736  0.4775 -0.7092
   98MOL0     C13449   4.170  10.945   7.770  0.1860 -0.2940 -0.0182
   98MOL0     C13450   4.074  10.874   7.857 -0.4793  0.4926  0.8322
   98MOL0     C13451   3.990  10.808   7.909 -0.5775 -1.0010  0.0079
   98MOL0     C13452   3.898  11.207   7.229  0.2772  0.6190 -0.5516
   98MOL0     C13453   3.840  11.246   7.108  0.0262 -0.3847  0.5680
   98MOL0     C13454   3.891  11.374   7.048  0.6729 -0.8702 -0.3779
   98MOL0     H13455   3.793  11.231   6.592 -0.3226 -0.8328 -3.3666
   98MOL0     H13456   3.674  11.260   6.402 -1.4800 -1.1144  0.6304
   98MOL0     H13457   3.415  11.189   6.395  1.9021  1.2413  1.3090
   98MOL0     H13458   3.446  11.252   6.226  1.3266  3.4163 -0.3510
   98MOL0     H13459   3.215  11.167   6.273 -0.9466  2.5740 -4.5050
   98MOL0     H13460   3.194  11.273   6.410  1.7512 -0.5788  1.6123
   98MOL0     H13461   3.213  11.470   6.273  4.0416  0.6548 -3.2150
   98MOL0     H13462   3.247  11.395   6.132  0.8830 -1.6509 -0.6731
   98MOL0     H13463   3.025  11.342   6.089 -4.8251 -0.6188 -0.0913
   98MOL0     H13464   2.995  11.273   6.249 -2.3815  0.3890 -1.2624
   98MOL0     H13465   2.958  11.500   6.332 -2.1214  0.0936  0.1207
   98MOL0     H13466   2.837  11.429   6.212  0.8375 -1.1160 -0.9470
   98MOL0     H13467   3.063  11.591   6.100  0.8416 -1.3890  3.0780
   98MOL0     H13468   2.915  11.545   6.031  1.3924 -1.6127 -0.2722
   98MOL0     H13469   2.810  11.709   6.227  0.1631  0.8755  0.6381
   98MOL0     H13470   2.873  11.766   6.071 -1.7676 -1.4409  0.3038
   98MOL0     H13471   2.936  11.885   6.278 -1.5514  0.0722 -1.8330
   98MOL0     H13472   3.021  11.742   6.338 -2.8527 -1.2020  0.4088
   98MOL0     H13473   3.032  11.962   6.031  0.1587  3.3951  2.4419
   98MOL0     H13474   3.405  12.059   5.952  0.3712 -0.9875 -0.8677
   98MOL0     H13475   3.230  12.111   5.913 -3.8417 -2.1082  2.2384
   98MOL0     H13476   3.211  11.898   5.769 -0.7171  0.2050  0.8929
   98MOL0     H13477   3.312  12.039   5.713  1.7694 -2.7236 -3.8259
   98MOL0     H13478   3.512  11.927   5.791  0.7452 -1.9769  0.7867
   98MOL0     H13479   3.416  11.799   5.860  0.0515  1.2459  0.7283
   98MOL0     H13480   3.360  11.729   5.626 -0.3513 -0.7231 -0.3809
   98MOL0     H13481   3.431  11.871   5.561  0.0356 -1.5339 -0.9148
   98MOL0     H13482   3.425  11.639   5.432  1.1432  0.4554 -0.1889
   98MOL0     H13483   3.417  11.351   5.281 -0.3044  0.2553 -0.3456
   98MOL0     H13484   3.505  11.470   5.167 -0.9393  0.1864 -1.0987
   98MOL0     H13485   3.354  11.516   5.259  1.4806  1.5618  1.5666
   98MOL0     H13486   4.094  11.166   5.334  2.8745 -4.5119 -0.9320
   98MOL0     H13487   4.204  11.003   5.199 -1.2682 -1.1855 -0.4087
   98MOL0     H13488   4.305  10.934   5.006  0.1078  0.1621 -1.8346
   98MOL0     H13489   4.210  10.804   5.065 -0.5383  1.4727  0.5147
   98MOL0     H13490   4.297  10.837   4.763  0.3577 -4.4390 -2.3030
   98MOL0     H13491   4.374  10.728   4.881 -1.1755  0.0202  4.0021
   98MOL0     H13492   4.238  10.584   4.753  0.3503 -1.0131  2.2837
   98MOL0     H13493   4.107  10.704   4.733  3.6604  0.6063 -4.1365
   98MOL0     H13494   4.041  10.655   4.966 -1.2148 -1.3139  1.3079
   98MOL0     H13495   4.176  10.535   4.974 -2.0588 -1.5157 -0.0969
   98MOL0     H13496   3.947  10.492   4.782 -1.7265 -2.5416  0.6306
   98MOL0     H13497   4.070  10.377   4.821 -0.1364 -1.2105  1.0578
   98MOL0     H13498   3.883  10.480   5.020  3.2419  1.6994  1.6608
   98MOL0     H13499   4.014  10.366   5.052 -0.2609 -0.6026  0.2913
   98MOL0     H13500   3.895  10.192   4.896 -2.5371 -1.2415 -0.7171
   98MOL0     H13501   3.799  10.327   4.836 -2.7830 -1.5063  1.0512
   98MOL0     H13502   3.686  10.170   4.983  1.7436 -3.0985 -0.1731
   98MOL0     H13503   3.688  10.326   5.077  0.5779  1.9954 -2.9052
   98MOL0     H13504   3.885  11.039   4.900 -1.0574  1.3676 -0.0120
   98MOL0     H13505   3.761  11.179   5.042 -0.4785 -1.8291  0.7097
   98MOL0     H13506   3.864  11.448   5.518 -0.0698  2.3730  0.7200
   98MOL0     H13507   3.797  11.624   5.646  2.4754  1.2355 -3.0843
   98MOL0     H13508   3.359  11.458   6.604  0.4595 -0.3227 -0.5238
   98MOL0     H13509   3.470  11.404   6.824 -6.2724 -1.8112 -2.0177
   98MOL0     H13510   3.646  10.970   7.069  1.7589 -2.7465  1.4193
   98MOL0     H13511   3.764  10.905   7.279 -0.2693  0.1307  0.0781
   98MOL0     H13512   3.981  11.215   7.530 -0.3536  0.0298  4.2449
   98MOL0     H13513   3.816  11.135   7.541  0.8787 -0.3076  1.2833
   98MOL0     H13514   3.906  10.973   7.679  2.4022 -1.7853 -0.2151
   98MOL0     H13515   4.001  11.116   7.730  1.9181 -0.6787 -0.1893
   98MOL0     H13516   4.099  10.878   7.572 -0.6437  0.4427 -0.5429
   98MOL0     H13517   4.178  11.041   7.582 -1.1664  3.2987  1.3591
   98MOL0     H13518   4.205  11.036   7.820  0.3584 -1.5912  2.4111
   98MOL0     H13519   4.265  10.892   7.769  0.1060 -0.4644  0.6169
   98MOL0     H13520   3.919  10.757   7.969  2.5203 -1.3833  3.7505
   98MOL0     H13521   3.961  11.282   7.277 -0.1874 -1.1906  3.2654
   98MOL0     H13522   3.811  11.449   7.043  0.3553 -1.2278 -0.6995
   98MOL0     H13523   3.968  11.425   7.106 -0.5013  1.2846 -0.6196
   98MOL0     H13524   3.932  11.351   6.949  1.7287  2.0629 -0.7035
   99MOL0     O13525   7.911   2.780   5.172  0.1733  0.3738 -1.0170
   99MOL0     C13526   7.911   2.784   5.054 -0.0409  1.0999  0.0295
   99MOL0     O13527   7.962   2.677   4.976  0.0871 -1.1000 -0.8898
   99MOL0     C13528   7.986   2.555   5.016 -0.5079  0.8599  0.4036
   99MOL0     C13529   8.088   2.491   4.946 -0.9186  1.1230  0.4479
   99MOL0     C13530   8.113   2.357   4.979  0.4033 -0.2192  0.5575
   99MOL0     C13531   8.032   2.280   5.063  0.2628 -0.1624  0.0108
   99MOL0     O13532   8.077   2.149   5.084 -0.4396 -0.3094  0.3932
   99MOL0     C13533   8.041   2.097   5.211  0.3895  0.6245  0.5081
   99MOL0     C13534   8.124   2.149   5.323  0.1685  0.6475  0.1430
   99MOL0     C13535   8.072   2.098   5.460 -0.6689 -0.6099 -0.2004
   99MOL0     C13536   8.188   2.097   5.567  0.1187  0.0216 -0.8540
   99MOL0     C13537   8.257   2.237   5.596 -0.4763 -0.5226  0.1880
   99MOL0     C13538   8.375   2.229   5.692  0.6859  0.2599 -0.1588
   99MOL0     C13539   8.427   2.360   5.743 -0.5622  0.5823 -0.2044
   99MOL0     C13540   8.497   2.362   5.885  0.4199  1.2827  0.1193
   99MOL0     N13541   8.636   2.318   5.872 -0.3401 -0.3698  0.0989
   99MOL0     C13542   8.695   2.221   5.788 -0.3847 -0.3668  1.0154
   99MOL0     C13543   8.828   2.260   5.791 -0.3183 -0.1876  0.5503
   99MOL0     C13544   8.948   2.177   5.736  0.3657  0.0608  0.7401
   99MOL0     C13545   9.049   2.264   5.658  0.0221  0.1293 -0.5346
   99MOL0     C13546   8.990   2.334   5.538  0.2867 -0.7733  0.0932
   99MOL0     C13547   8.905   2.459   5.566 -0.1288  0.0977  0.6463
   99MOL0     O13548   8.940   2.570   5.471 -0.0055 -0.1532 -0.5228
   99MOL0     C13549   8.864   2.685   5.456  0.0996 -0.7537  0.9019
   99MOL0     C13550   8.910   2.786   5.372  0.6175 -0.4918  0.3258
   99MOL0     C13551   8.834   2.898   5.345  0.3232  0.0068  0.1907
   99MOL0     C13552   8.929   3.003   5.280  1.2616 -0.6259 -0.1943
   99MOL0     C13553   8.692   2.906   5.391 -0.1612  0.4565  0.2693
   99MOL0     C13554   8.606   3.014   5.332  0.3584  0.1577 -0.3728
   99MOL0     O13555   8.476   2.998   5.366 -0.1967  0.0022 -0.1331
   99MOL0     C13556   8.378   3.087   5.327 -0.7673 -0.1820 -0.5206
   99MOL0     C13557   8.285   3.061   5.218 -0.7915  0.8631 -0.4719
   99MOL0     C13558   8.202   3.161   5.164  0.3819  0.0200  0.4087
   99MOL0     C13559   8.207   3.287   5.220  0.6234  0.3921 -0.4806
   99MOL0     O13560   8.111   3.376   5.172 -0.8258  0.7339 -0.1461
   99MOL0     C13561   8.143   3.510   5.198 -0.8481  0.0194 -0.5231
   99MOL0     C13562   8.109   3.591   5.078  0.0754 -0.6278 -0.5155
   99MOL0     C13563   8.187   3.562   4.955 -1.0227 -0.4746 -0.3968
   99MOL0     C13564   8.121   3.636   4.836  0.8621 -0.5969 -0.2137
   99MOL0     C13565   8.214   3.657   4.706 -0.4513  0.3668 -0.8965
   99MOL0     C13566   8.148   3.709   4.576  0.0130 -0.3365 -0.0555
   99MOL0     C13567   8.185   3.612   4.462  0.5753  0.6532  0.0435
   99MOL0     C13568   8.124   3.471   4.468 -0.0265 -0.9132 -0.0057
   99MOL0    Cl13569   8.191   3.349   4.575  0.0766  0.1862  0.5765
   99MOL0     C13570   8.295   3.314   5.324 -0.4601  0.0670 -0.0767
   99MOL0     C13571   8.379   3.214   5.374  0.3305 -0.2082 -0.4717
   99MOL0     O13572   8.648   3.090   5.252 -0.3773 -0.0045  0.7276
   99MOL0     C13573   8.648   2.803   5.475 -0.2765  0.1586  1.1469
   99MOL0     C13574   8.730   2.691   5.505 -0.5600  0.1028 -0.4728
   99MOL0     N13575   8.855   2.364   5.880 -0.0115  0.5199 -0.0759
   99MOL0     N13576   8.737   2.396   5.928 -0.6824 -0.3990  0.3161
   99MOL0     C13577   7.926   2.342   5.124  0.1126 -0.6300 -0.2866
   99MOL0     C13578   7.906   2.475   5.100  0.4601 -0.4737 -0.0092
   99MOL0     C13579   7.863   2.908   4.984  0.0513  0.4746  0.3940
   99MOL0     C13580   7.894   3.026   5.053  0.2711  0.1440 -0.4411
   99MOL0     C13581   7.865   3.153   5.013 -0.6742  1.6619  0.2723
   99MOL0     C13582   7.807   3.167   4.889 -0.2198  0.4066 -0.1690
   99MOL0     O13583   7.790   3.296   4.847  0.0231  0.9699  0.2547
   99MOL0     C13584   7.702   3.316   4.740 -1.1402  0.0010  0.3713
   99MOL0     C13585   7.662   3.461   4.726  0.5341 -0.5496  0.6160
   99MOL0     C13586   7.759   3.546   4.652 -0.3568  0.0911 -0.2558
   99MOL0     C13587   7.722   3.686   4.604 -0.8510  0.3623 -0.5160
   99MOL0     C13588   7.762   3.789   4.706  1.4626  1.2794 -0.6144
   99MOL0     C13589   7.776   3.873   4.788 -0.9284  1.0239  0.4065
   99MOL0     C13590   7.772   3.051   4.813  0.7147 -0.0771 -0.6824
   99MOL0     C13591   7.788   2.927   4.865  0.6283 -0.4931  0.6701
   99MOL0     C13592   7.743   2.805   4.783  0.2853  0.1958 -0.1975
   99MOL0     H13593   8.140   2.541   4.865 -1.8613 -1.9334 -2.2910
   99MOL0     H13594   8.193   2.305   4.928 -0.5799 -2.6427  1.3318
   99MOL0     H13595   8.068   1.992   5.206 -0.2991  0.4017  1.2941
   99MOL0     H13596   7.936   2.100   5.242  0.1159  1.9069 -0.4572
   99MOL0     H13597   8.228   2.115   5.314 -0.5608 -2.0064  0.6561
   99MOL0     H13598   8.117   2.257   5.313  1.9733  0.6254 -2.2045
   99MOL0     H13599   7.988   2.159   5.495 -1.6411 -3.5303  3.0265
   99MOL0     H13600   8.028   1.998   5.454  0.3196 -1.0975  0.4557
   99MOL0     H13601   8.144   2.048   5.654  0.4557 -0.2827 -0.8553
   99MOL0     H13602   8.260   2.030   5.520 -0.7559 -1.2502 -0.4479
   99MOL0     H13603   8.179   2.306   5.629  0.3160 -0.0155  1.0456
   99MOL0     H13604   8.291   2.277   5.500 -2.8143 -1.4629 -1.1219
   99MOL0     H13605   8.333   2.168   5.772  0.1196 -2.9757 -2.7168
   99MOL0     H13606   8.451   2.170   5.641 -2.1557 -2.3848 -1.7253
   99MOL0     H13607   8.334   2.416   5.742 -2.6425 -2.5669 -2.4134
   99MOL0     H13608   8.485   2.413   5.666  0.3139 -1.0795 -0.7449
   99MOL0     H13609   8.495   2.463   5.926 -1.0274  1.0805  0.6018
   99MOL0     H13610   8.446   2.310   5.967  0.3909 -0.6778 -1.0950
   99MOL0     H13611   8.656   2.144   5.722 -2.3858  1.2285  0.2266
   99MOL0     H13612   8.911   2.095   5.674 -0.0979  0.0053  1.0847
   99MOL0     H13613   9.004   2.129   5.817  2.5802  0.6389 -0.3650
   99MOL0     H13614   9.085   2.333   5.735  1.9705 -0.4200 -0.9029
   99MOL0     H13615   9.138   2.208   5.628  1.4282  1.2324  1.3816
   99MOL0     H13616   9.081   2.364   5.485 -2.4785 -1.8358 -6.2391
   99MOL0     H13617   8.928   2.270   5.475 -0.6205 -0.1003  0.2995
   99MOL0     H13618   8.803   2.419   5.559  0.0127 -0.2573  0.6041
   99MOL0     H13619   8.915   2.486   5.671 -1.3511  2.0839  0.3081
   99MOL0     H13620   9.009   2.773   5.331  2.8530  3.0286  3.7895
   99MOL0     H13621   8.905   3.104   5.316 -2.5015 -1.2734 -0.5191
   99MOL0     H13622   8.931   2.998   5.170 -0.9733  1.7433 -0.4344
   99MOL0     H13623   9.035   3.001   5.306  1.8638  5.8093 -0.5225
   99MOL0     H13624   8.297   2.963   5.172  0.0768  0.7836 -0.0895
   99MOL0     H13625   8.146   3.133   5.076  1.4844  1.3230 -0.7483
   99MOL0     H13626   8.085   3.529   5.289  0.5505 -0.7208  0.5672
   99MOL0     H13627   8.248   3.529   5.219 -0.3516 -0.4258 -2.4356
   99MOL0     H13628   8.001   3.571   5.077 -0.1423 -0.6761  4.1798
   99MOL0     H13629   8.121   3.698   5.096  1.2687 -0.9327  0.6134
   99MOL0     H13630   8.189   3.456   4.930 -1.3162 -0.1243 -2.0127
   99MOL0     H13631   8.285   3.607   4.975 -2.3106  1.6846  1.7445
   99MOL0     H13632   8.090   3.733   4.875 -0.3619 -1.7204  1.7663
   99MOL0     H13633   8.030   3.588   4.798  0.4584 -0.4165  0.5194
   99MOL0     H13634   8.287   3.732   4.739  1.5313 -1.1736 -1.5993
   99MOL0     H13635   8.268   3.567   4.677 -0.7788  0.7944 -2.9894
   99MOL0     H13636   8.184   3.807   4.544 -0.8781 -0.5352 -1.7887
   99MOL0     H13637   8.039   3.717   4.588  0.1128  2.6289 -0.4787
   99MOL0     H13638   8.293   3.607   4.445  0.9920  1.1563  2.2806
   99MOL0     H13639   8.130   3.654   4.377 -1.9286 -0.4087  1.0628
   99MOL0     H13640   8.129   3.445   4.362 -1.0751 -2.2699  0.2644
   99MOL0     H13641   8.018   3.484   4.488  0.4453 -1.1364  3.2254
   99MOL0     H13642   8.298   3.411   5.373  2.1547  1.8516 -3.3278
   99MOL0     H13643   8.449   3.237   5.453 -1.0813 -0.2100  0.8288
   99MOL0     H13644   8.542   2.808   5.499 -0.8481 -0.2900 -0.9969
   99MOL0     H13645   8.684   2.621   5.573 -1.7022  0.7379 -0.5706
   99MOL0     H13646   7.860   2.278   5.183 -3.3380  0.2710 -2.8277
   99MOL0     H13647   7.824   2.531   5.143  0.6680  1.0375 -1.4883
   99MOL0     H13648   7.946   3.030   5.149  0.3533  0.0508 -0.4816
   99MOL0     H13649   7.902   3.235   5.073  1.9661 -0.3407  1.6197
   99MOL0     H13650   7.738   3.275   4.645 -3.7559 -1.2414 -0.1621
   99MOL0     H13651   7.607   3.275   4.775 -2.4133  3.4835  1.4102
   99MOL0     H13652   7.655   3.506   4.826 -1.8758  3.4750 -1.1028
   99MOL0     H13653   7.559   3.467   4.692 -0.6593 -1.3905  3.7429
   99MOL0     H13654   7.849   3.559   4.712  0.1803  1.9755 -1.3893
   99MOL0     H13655   7.805   3.482   4.576 -0.6052 -0.4794  0.0711
   99MOL0     H13656   7.615   3.698   4.585 -1.3830 -1.3011  1.1529
   99MOL0     H13657   7.778   3.706   4.512 -0.7826  3.4886  0.0832
   99MOL0     H13658   7.783   3.960   4.850 -0.8684  1.7389 -0.5871
   99MOL0     H13659   7.716   3.060   4.721  1.7880 -0.6242 -1.4054
   99MOL0     H13660   7.816   2.725   4.767  0.6648  0.2690  1.1050
   99MOL0     H13661   7.651   2.766   4.825 -1.0015  1.1201 -2.0029
   99MOL0     H13662   7.719   2.846   4.684  1.2749  3.8929  0.9234
  100MOL0     O13663   3.134   2.533   7.203 -0.0493  0.0019  0.2013
  100MOL0     C13664   3.014   2.496   7.193 -0.1725  0.4506  1.0528
  100MOL0     O13665   2.931   2.540   7.084 -0.4867 -0.2971 -0.2191
  100MOL0     C13666   2.984   2.621   6.985 -0.5899  0.5749 -0.8058
  100MOL0     C13667   2.993   2.566   6.856 -0.2244 -0.1839  0.2881
  100MOL0     C13668   3.055   2.635   6.748 -0.6007 -0.1542 -0.3951
  100MOL0     C13669   3.121   2.754   6.772  0.0029 -0.7605 -0.1000
  100MOL0     O13670   3.180   2.812   6.659 -0.3221 -0.3855  0.0709
  100MOL0     C13671   3.234   2.948   6.663 -0.9297  0.2770 -0.3514
  100MOL0     C13672   3.294   3.002   6.527 -0.6116  0.1107 -0.5908
  100MOL0     C13673   3.379   2.904   6.438 -0.3440 -0.0575  0.0326
  100MOL0     C13674   3.509   2.858   6.514 -0.0011  0.1492 -0.3502
  100MOL0     C13675   3.603   2.980   6.546 -0.1475  0.2959  0.0094
  100MOL0     C13676   3.745   2.935   6.581 -0.5231  1.1046  0.1557
  100MOL0     C13677   3.747   2.838   6.705  0.5734 -0.4658 -0.0760
  100MOL0     C13678   3.881   2.793   6.767  0.1190  0.3831 -0.5882
  100MOL0     N13679   3.938   2.903   6.837  0.4745  0.8922  0.1372
  100MOL0     C13680   3.974   2.890   6.971 -0.5788 -0.3137  0.3641
  100MOL0     C13681   4.009   3.012   7.010 -0.0843 -0.5124 -0.6354
  100MOL0     C13682   4.080   3.038   7.149 -0.3619 -0.6762  0.3651
  100MOL0     C13683   4.238   3.067   7.146  0.6750  0.2965  0.9333
  100MOL0     C13684   4.271   3.178   7.252 -0.0933  1.0432 -0.2685
  100MOL0     C13685   4.260   3.317   7.195  0.1871  0.1431 -1.4374
  100MOL0     O13686   4.277   3.413   7.302 -0.1357  0.2494  0.1687
  100MOL0     C13687   4.402   3.463   7.309  0.1166  0.2944  0.2734
  100MOL0     C13688   4.470   3.471   7.429 -0.0809  0.4927  0.1892
  100MOL0     C13689   4.605   3.519   7.444 -0.1143 -0.2508  0.1055
  100MOL0     C13690   4.672   3.488   7.583  0.4174 -0.5666  0.6244
  100MOL0     C13691   4.665   3.572   7.329  0.7201 -1.5441  0.2627
  100MOL0     C13692   4.794   3.654   7.335 -0.2948  0.1730  0.5628
  100MOL0     O13693   4.849   3.688   7.218  0.4258 -0.3844 -0.8494
  100MOL0     C13694   4.975   3.741   7.227  0.2302 -0.1088  0.0322
  100MOL0     C13695   5.006   3.871   7.262  0.0469 -0.1594 -0.1495
  100MOL0     C13696   5.135   3.919   7.264  0.2875 -0.0422 -0.0067
  100MOL0     C13697   5.242   3.841   7.243 -1.2301 -0.0264  0.6365
  100MOL0     O13698   5.375   3.883   7.229  0.2908 -0.0183 -0.3791
  100MOL0     C13699   5.411   3.964   7.340  0.2479 -0.7071  0.4230
  100MOL0     C13700   5.562   3.946   7.372  0.8795  0.1326  0.0864
  100MOL0     C13701   5.598   3.803   7.406 -0.4274 -1.0403  0.6182
  100MOL0     C13702   5.712   3.804   7.512 -1.3816  0.7588  0.3328
  100MOL0     C13703   5.752   3.670   7.583  0.1905 -0.5688 -0.1604
  100MOL0     C13704   5.645   3.622   7.690 -0.5988  0.1793  0.9211
  100MOL0     C13705   5.630   3.721   7.811  0.4109  0.5341 -0.7983
  100MOL0     C13706   5.548   3.644   7.919 -0.4176 -1.0274 -0.2765
  100MOL0    Cl13707   5.535   3.750   8.061  0.1387 -0.6142  0.2139
  100MOL0     C13708   5.215   3.709   7.219  1.0762  0.2441 -0.0326
  100MOL0     C13709   5.083   3.658   7.213 -0.4008 -0.6024  1.6461
  100MOL0     O13710   4.840   3.682   7.444  0.1247 -0.1803  0.3069
  100MOL0     C13711   4.597   3.567   7.204 -0.0125  0.2382 -0.7115
  100MOL0     C13712   4.470   3.518   7.198  0.0126  1.0984  0.1143
  100MOL0     N13713   3.998   3.100   6.898  0.4606  0.0899  0.5070
  100MOL0     N13714   3.969   3.024   6.794 -0.0847 -0.6447 -0.7407
  100MOL0     C13715   3.112   2.816   6.900 -1.1194 -0.1325  0.2166
  100MOL0     C13716   3.045   2.752   7.004 -0.8813 -0.1207  0.2372
  100MOL0     C13717   2.951   2.414   7.301  1.2127 -0.4547  0.3873
  100MOL0     C13718   2.806   2.407   7.313  0.1449 -0.4186  0.4046
  100MOL0     C13719   2.735   2.342   7.420 -0.0805  0.4028 -0.4582
  100MOL0     C13720   2.813   2.297   7.528 -0.9021  0.3744  0.4488
  100MOL0     O13721   2.760   2.239   7.641  0.3951  0.0473  0.4162
  100MOL0     C13722   2.733   2.335   7.742 -0.9509  0.5758  0.0979
  100MOL0     C13723   2.588   2.353   7.746 -0.1817 -0.2269 -0.2476
  100MOL0     C13724   2.522   2.223   7.767  0.8604 -0.6804  0.0086
  100MOL0     C13725   2.383   2.209   7.686 -0.3705 -0.4584 -0.5634
  100MOL0     C13726   2.281   2.296   7.736 -0.8555  0.5516  0.4684
  100MOL0     C13727   2.198   2.367   7.777  0.0453 -0.1999  0.1478
  100MOL0     C13728   2.954   2.307   7.514  0.7743 -0.1049  0.0788
  100MOL0     C13729   3.029   2.362   7.406  0.1569  0.1290 -0.3811
  100MOL0     C13730   3.175   2.346   7.403  0.2544  0.2544  1.1590
  100MOL0     H13731   2.949   2.470   6.830 -2.1817  0.9334 -0.8155
  100MOL0     H13732   3.062   2.595   6.648 -0.5087  0.3692 -0.5993
  100MOL0     H13733   3.317   2.951   6.735 -0.9322  2.1347 -0.3805
  100MOL0     H13734   3.161   3.020   6.700  2.5602  3.0115  1.9948
  100MOL0     H13735   3.209   3.037   6.468 -1.5694  0.5570  0.9997
  100MOL0     H13736   3.355   3.090   6.549  1.1882 -0.9245 -1.3089
  100MOL0     H13737   3.308   2.826   6.408 -1.0932  0.8528 -0.5820
  100MOL0     H13738   3.412   2.956   6.348 -0.9675  0.4087  0.0725
  100MOL0     H13739   3.482   2.803   6.604 -0.7426  0.7390 -0.2105
  100MOL0     H13740   3.564   2.792   6.445  2.5055 -0.0770  1.7367
  100MOL0     H13741   3.566   3.035   6.633  0.4770  0.1357  0.3783
  100MOL0     H13742   3.605   3.052   6.464 -3.2459  1.9093  1.1768
  100MOL0     H13743   3.786   2.882   6.494 -1.6231  0.2604  0.1257
  100MOL0     H13744   3.809   3.023   6.595  1.2337 -0.2394  0.9783
  100MOL0     H13745   3.696   2.746   6.676 -1.4955  1.2762 -2.3355
  100MOL0     H13746   3.696   2.895   6.784 -0.0169 -1.3309  0.1825
  100MOL0     H13747   3.872   2.705   6.830  3.0414  0.7606  0.5172
  100MOL0     H13748   3.940   2.762   6.680  0.1807 -0.0316 -0.3944
  100MOL0     H13749   3.963   2.799   7.028 -0.2764 -2.4245 -2.6812
  100MOL0     H13750   4.059   2.944   7.201  1.1098 -2.2718 -1.7092
  100MOL0     H13751   4.040   3.121   7.208 -0.5865 -1.7056  1.6979
  100MOL0     H13752   4.302   2.979   7.160  1.9419  1.5089  3.2715
  100MOL0     H13753   4.251   3.105   7.044  1.6288  2.2231  1.7307
  100MOL0     H13754   4.194   3.163   7.329  0.7773  0.2818  0.4726
  100MOL0     H13755   4.368   3.164   7.300 -1.0493 -0.2037  1.4088
  100MOL0     H13756   4.322   3.323   7.104  1.4350 -1.6786 -0.7641
  100MOL0     H13757   4.154   3.331   7.173 -0.1829  0.0429  0.1713
  100MOL0     H13758   4.434   3.412   7.512 -1.9069  2.0025  0.5503
  100MOL0     H13759   4.723   3.575   7.626 -0.9216  0.7450 -0.3550
  100MOL0     H13760   4.747   3.409   7.581  1.3826  0.2845  1.7102
  100MOL0     H13761   4.595   3.468   7.658 -0.5956  0.6658 -0.0516
  100MOL0     H13762   4.930   3.936   7.304 -0.9845 -1.6257  0.3331
  100MOL0     H13763   5.151   4.025   7.279 -4.2977  1.0334 -1.1037
  100MOL0     H13764   5.377   4.065   7.319  0.7924 -0.6708 -0.3221
  100MOL0     H13765   5.358   3.925   7.428 -0.2470 -1.0983 -0.0393
  100MOL0     H13766   5.620   3.974   7.283 -0.6357 -1.0112 -1.3301
  100MOL0     H13767   5.586   4.016   7.453  0.2015 -0.4495  0.8023
  100MOL0     H13768   5.627   3.761   7.309  0.6190  0.6119  0.1881
  100MOL0     H13769   5.509   3.752   7.444 -0.5315 -1.2941  0.0517
  100MOL0     H13770   5.691   3.872   7.595  0.4072 -1.3621  2.6688
  100MOL0     H13771   5.801   3.834   7.455 -0.0694 -2.9536  0.1426
  100MOL0     H13772   5.769   3.598   7.503 -0.1971  0.3613 -1.1018
  100MOL0     H13773   5.847   3.691   7.634  0.9903  1.9153 -2.4277
  100MOL0     H13774   5.676   3.523   7.725 -1.1168  0.2880  1.7207
  100MOL0     H13775   5.547   3.613   7.643 -1.4093  1.5676  2.2410
  100MOL0     H13776   5.563   3.802   7.778 -1.2424 -0.2364  0.5273
  100MOL0     H13777   5.730   3.752   7.842  0.1057  1.7987 -0.9947
  100MOL0     H13778   5.595   3.552   7.955  1.4755 -0.8995 -2.2753
  100MOL0     H13779   5.449   3.637   7.873 -0.7410 -0.5408  0.3276
  100MOL0     H13780   5.303   3.649   7.197  0.3925 -0.1963 -1.7292
  100MOL0     H13781   5.069   3.551   7.203 -0.9374 -0.3366 -1.6988
  100MOL0     H13782   4.645   3.597   7.112 -0.4346  1.7510 -0.4681
  100MOL0     H13783   4.428   3.516   7.098  3.3408 -3.8947 -1.5366
  100MOL0     H13784   3.150   2.915   6.919  2.5943 -1.4487  0.4929
  100MOL0     H13785   3.020   2.793   7.101 -0.2377 -2.3007  1.4050
  100MOL0     H13786   2.751   2.453   7.231  1.4600  0.5328  0.0144
  100MOL0     H13787   2.627   2.344   7.405  0.1177  0.3153 -2.0829
  100MOL0     H13788   2.775   2.310   7.840  0.4388  0.6311 -0.4511
  100MOL0     H13789   2.777   2.433   7.719 -0.9982  0.3282 -1.0738
  100MOL0     H13790   2.553   2.390   7.649 -1.3191 -2.1931 -0.6449
  100MOL0     H13791   2.565   2.425   7.826 -0.0820 -1.6136  1.0750
  100MOL0     H13792   2.569   2.137   7.718  1.5453  0.8555 -2.1779
  100MOL0     H13793   2.509   2.200   7.873 -3.2143  0.8790  0.0240
  100MOL0     H13794   2.356   2.105   7.708 -1.1077  0.1440  1.6883
  100MOL0     H13795   2.401   2.220   7.579  4.2575  1.8354  0.1860
  100MOL0     H13796   2.136   2.442   7.822 -0.2445  0.1410 -0.7941
  100MOL0     H13797   2.993   2.259   7.604  0.4979 -0.7881 -0.1656
  100MOL0     H13798   3.231   2.440   7.413  2.3252 -0.5710 -1.6691
  100MOL0     H13799   3.217   2.277   7.476  1.2250  2.9769  3.3665
  100MOL0     H13800   3.197   2.302   7.306  0.2871  2.5849  0.0501
  101MOL0     O13801   5.995   8.051   8.801  0.1482 -0.3073  0.5757
  101MOL0     C13802   5.906   8.074   8.727 -0.7935  0.4417 -0.0211
  101MOL0     O13803   5.917   8.165   8.625 -0.5301 -0.2572 -0.1295
  101MOL0     C13804   6.037   8.216   8.587  0.2097 -0.4001  0.0503
  101MOL0     C13805   6.074   8.329   8.654 -0.1822 -0.5953 -0.1232
  101MOL0     C13806   6.201   8.387   8.623 -0.3143 -0.4058  0.3132
  101MOL0     C13807   6.275   8.339   8.509 -0.3538  0.1968  0.6265
  101MOL0     O13808   6.390   8.403   8.473 -0.2163  0.3339  0.1693
  101MOL0     C13809   6.512   8.319   8.444  0.7962  0.0652 -0.4011
  101MOL0     C13810   6.623   8.417   8.475  0.3509 -0.5964  0.3853
  101MOL0     C13811   6.758   8.361   8.444  0.4342 -0.3705  0.2344
  101MOL0     C13812   6.867   8.446   8.508 -0.3039 -0.3322 -0.3031
  101MOL0     C13813   7.008   8.396   8.482  0.0175 -0.7988 -0.1796
  101MOL0     C13814   7.106   8.471   8.580 -0.1611 -0.4793  0.2522
  101MOL0     C13815   7.093   8.626   8.584 -0.6131  0.0561 -0.6631
  101MOL0     C13816   7.199   8.684   8.684  0.4919 -0.6846 -0.7098
  101MOL0     N13817   7.219   8.828   8.657 -0.1063  0.0034 -0.3176
  101MOL0     C13818   7.306   8.882   8.580 -0.7906  0.4815 -0.1760
  101MOL0     C13819   7.289   9.006   8.582  1.3359 -1.4349 -0.8632
  101MOL0     C13820   7.372   9.102   8.501 -0.2227 -0.0943 -0.3845
  101MOL0     C13821   7.299   9.136   8.377  0.1135  0.1632  0.0232
  101MOL0     C13822   7.184   9.228   8.396 -0.3457 -0.5871  0.1562
  101MOL0     C13823   7.164   9.313   8.277 -0.7142 -0.3192  0.0522
  101MOL0     O13824   7.145   9.215   8.174 -0.1521 -0.1781  0.0443
  101MOL0     C13825   7.138   9.268   8.050  0.0631  0.5799  0.6590
  101MOL0     C13826   7.048   9.207   7.965  0.2406 -0.2058 -0.1241
  101MOL0     C13827   7.022   9.243   7.832  0.2528 -1.1648 -0.1643
  101MOL0     C13828   6.913   9.182   7.754 -0.2766 -0.0290 -0.0381
  101MOL0     C13829   7.090   9.355   7.782 -0.0561  0.4950 -0.1227
  101MOL0     C13830   7.084   9.408   7.646  0.3092 -0.3392 -0.1691
  101MOL0     O13831   6.961   9.415   7.588 -0.0303 -0.2874  0.0344
  101MOL0     C13832   6.941   9.447   7.456 -0.5769 -0.8277  0.2469
  101MOL0     C13833   7.035   9.495   7.357  0.7324  0.2259  0.3708
  101MOL0     C13834   6.986   9.528   7.227 -0.1425  0.2480  0.5207
  101MOL0     C13835   6.861   9.515   7.186  1.1011  0.1860 -0.3859
  101MOL0     O13836   6.821   9.544   7.059 -0.7569 -0.8396  0.2453
  101MOL0     C13837   6.921   9.520   6.954 -0.7727  0.0725 -0.7942
  101MOL0     C13838   6.870   9.573   6.827  1.0378 -0.0925 -0.2953
  101MOL0     C13839   6.820   9.712   6.841 -0.3394 -0.7915 -0.1090
  101MOL0     C13840   6.772   9.758   6.709  0.7272 -0.6535 -0.5744
  101MOL0     C13841   6.711   9.899   6.700  0.1413  0.4184 -0.0306
  101MOL0     C13842   6.800  10.023   6.744 -0.2670  0.4723 -0.4064
  101MOL0     C13843   6.929  10.035   6.654  0.1626  0.2442 -0.5471
  101MOL0     C13844   7.044  10.088   6.739 -0.3313 -0.4167  0.7973
  101MOL0    Cl13845   7.178  10.113   6.627  0.1856  0.2992  0.0020
  101MOL0     C13846   6.769   9.483   7.286  0.3276  1.3968  0.6595
  101MOL0     C13847   6.812   9.437   7.412 -0.7409  0.8676  0.0220
  101MOL0     O13848   7.185   9.461   7.600 -0.0730 -0.1779 -0.2393
  101MOL0     C13849   7.182   9.416   7.867 -0.2751 -0.0675  1.0110
  101MOL0     C13850   7.206   9.380   7.998 -0.5338 -0.5214 -0.2808
  101MOL0     N13851   7.194   9.042   8.682 -0.7232  0.0893  0.6680
  101MOL0     N13852   7.144   8.925   8.706  0.2823 -0.2776  0.2388
  101MOL0     C13853   6.236   8.222   8.447  0.9075  0.9933  0.4278
  101MOL0     C13854   6.118   8.162   8.480  0.2395  0.4798 -0.1267
  101MOL0     C13855   5.780   7.991   8.725  0.0425 -0.1205 -0.7540
  101MOL0     C13856   5.707   7.991   8.610 -0.0391  0.0860 -0.3921
  101MOL0     C13857   5.596   7.913   8.595  0.8302  0.0414 -0.1264
  101MOL0     C13858   5.534   7.848   8.704 -0.2214 -0.6926  0.5461
  101MOL0     O13859   5.419   7.773   8.705  0.2922  0.3393 -0.6153
  101MOL0     C13860   5.298   7.820   8.625 -0.5473 -0.3374 -0.1596
  101MOL0     C13861   5.179   7.735   8.663 -0.2869 -0.3339  0.4406
  101MOL0     C13862   5.208   7.584   8.630 -0.4941  0.2243 -0.3697
  101MOL0     C13863   5.102   7.496   8.704  0.5394  0.3020 -0.5941
  101MOL0     C13864   4.973   7.506   8.642  0.5181 -0.1319 -0.4244
  101MOL0     C13865   4.868   7.525   8.589  0.1599  0.3049  0.7722
  101MOL0     C13866   5.606   7.845   8.816  0.3406  0.1722  0.8262
  101MOL0     C13867   5.728   7.912   8.833  0.6998 -0.6790 -0.5625
  101MOL0     C13868   5.776   7.912   8.978  0.7366  0.0703  1.2314
  101MOL0     H13869   6.001   8.371   8.722 -1.6119 -0.2150 -1.8399
  101MOL0     H13870   6.238   8.470   8.683 -2.2959  3.9012 -3.7410
  101MOL0     H13871   6.518   8.290   8.338 -1.2467 -1.3154 -0.1895
  101MOL0     H13872   6.517   8.231   8.509 -1.9631 -1.4839 -2.0857
  101MOL0     H13873   6.611   8.514   8.426  1.2739  0.0434  1.4031
  101MOL0     H13874   6.609   8.445   8.579 -1.5903 -3.1590  0.9065
  101MOL0     H13875   6.765   8.256   8.472  0.2502 -1.2035 -2.5166
  101MOL0     H13876   6.786   8.363   8.338  2.3209  0.6165  0.7152
  101MOL0     H13877   6.855   8.551   8.483 -1.0681  0.0266  1.4075
  101MOL0     H13878   6.848   8.438   8.616 -0.1140 -2.4821 -0.3835
  101MOL0     H13879   7.037   8.416   8.378 -0.2256  1.2856  0.1206
  101MOL0     H13880   7.015   8.289   8.505 -2.4687 -1.2652 -1.2452
  101MOL0     H13881   7.087   8.437   8.682 -0.5602  0.0438  0.3560
  101MOL0     H13882   7.211   8.448   8.561 -0.0973  0.0140 -0.0098
  101MOL0     H13883   6.998   8.661   8.625  0.5930  0.2640  2.1340
  101MOL0     H13884   7.096   8.664   8.481  1.2299 -1.5287 -1.2469
  101MOL0     H13885   7.154   8.677   8.783 -1.1574 -0.3474 -1.4148
  101MOL0     H13886   7.299   8.639   8.673  1.2050  0.9671 -1.3760
  101MOL0     H13887   7.377   8.835   8.513  1.1898  3.4123 -0.3080
  101MOL0     H13888   7.465   9.050   8.475 -0.9243 -0.9655 -1.2390
  101MOL0     H13889   7.400   9.186   8.565 -1.9595 -0.5889  1.1240
  101MOL0     H13890   7.366   9.184   8.304  0.4222 -0.5858 -0.1959
  101MOL0     H13891   7.280   9.052   8.310  2.2615  2.4343 -3.7982
  101MOL0     H13892   7.092   9.178   8.427 -0.2168 -1.1118 -0.3019
  101MOL0     H13893   7.212   9.293   8.480  5.9855 -2.0831 -0.3181
  101MOL0     H13894   7.076   9.377   8.285 -0.5267 -0.1457  0.7930
  101MOL0     H13895   7.252   9.378   8.270  0.9475 -2.2951  1.4543
  101MOL0     H13896   7.001   9.118   8.005  0.8054 -0.5316 -0.1738
  101MOL0     H13897   6.954   9.150   7.657  2.8850  3.6800 -0.1484
  101MOL0     H13898   6.841   9.263   7.742 -0.7328 -0.3571  0.4542
  101MOL0     H13899   6.869   9.093   7.800 -0.0333 -0.9819 -1.5525
  101MOL0     H13900   7.142   9.504   7.374  0.9239  1.6579 -1.3090
  101MOL0     H13901   7.063   9.555   7.155 -1.4484  1.3877 -0.5068
  101MOL0     H13902   7.018   9.564   6.978  1.0410 -2.7300 -2.4005
  101MOL0     H13903   6.942   9.415   6.931 -1.7854 -0.4044  0.3264
  101MOL0     H13904   6.944   9.572   6.746  2.4277 -2.4113  0.9188
  101MOL0     H13905   6.803   9.496   6.788 -0.6714  0.0287  2.1697
  101MOL0     H13906   6.891   9.781   6.888 -0.8567 -0.8065  0.7057
  101MOL0     H13907   6.734   9.719   6.909 -1.0768  0.0242 -1.1027
  101MOL0     H13908   6.693   9.692   6.674 -1.4405  1.7082 -0.3885
  101MOL0     H13909   6.863   9.750   6.648  1.6916 -0.5919  0.8061
  101MOL0     H13910   6.681   9.916   6.596 -1.8758  3.6509  0.9081
  101MOL0     H13911   6.615   9.894   6.753  0.6706 -0.7647  0.8654
  101MOL0     H13912   6.809  10.013   6.853 -2.0205  0.2922 -0.2409
  101MOL0     H13913   6.748  10.119   6.734  0.9221  0.9397 -2.5861
  101MOL0     H13914   6.910  10.105   6.572  0.2573  0.1007 -0.6906
  101MOL0     H13915   6.949   9.934   6.617 -0.3731  0.2112 -0.7572
  101MOL0     H13916   7.069  10.009   6.811  0.9861 -1.9894 -1.2363
  101MOL0     H13917   7.003  10.179   6.783  2.7213  1.9509 -0.7746
  101MOL0     H13918   6.663   9.481   7.261  0.9641  1.8818 -2.5656
  101MOL0     H13919   6.737   9.399   7.481 -2.5745  2.4893 -0.9616
  101MOL0     H13920   7.223   9.514   7.844  0.1258 -0.4807 -0.1130
  101MOL0     H13921   7.278   9.427   8.064 -0.8574  1.4944 -1.2568
  101MOL0     H13922   6.289   8.192   8.357  2.1075 -1.3108  1.7884
  101MOL0     H13923   6.109   8.071   8.422  0.6388 -0.1115  0.7222
  101MOL0     H13924   5.746   8.041   8.521 -0.4190  0.2735 -0.4565
  101MOL0     H13925   5.546   7.910   8.499  1.2346  1.0649 -0.3800
  101MOL0     H13926   5.264   7.923   8.636 -0.2938 -0.5337  4.1257
  101MOL0     H13927   5.316   7.803   8.518 -1.1618  2.2740 -0.7412
  101MOL0     H13928   5.095   7.765   8.599 -0.1622  1.8255  1.1953
  101MOL0     H13929   5.154   7.765   8.765  0.7907  0.0104  0.6150
  101MOL0     H13930   5.206   7.570   8.521  2.8223  0.8434 -0.6209
  101MOL0     H13931   5.307   7.560   8.667 -1.5899 -1.1139  1.8841
  101MOL0     H13932   5.088   7.521   8.809  4.0794  1.4010 -0.2705
  101MOL0     H13933   5.128   7.391   8.692 -3.1877 -0.6773 -1.6393
  101MOL0     H13934   4.774   7.537   8.539 -0.1431 -1.0662  0.9736
  101MOL0     H13935   5.552   7.790   8.892 -4.1850  0.1840 -2.0190
  101MOL0     H13936   5.884   7.907   8.991  0.6021 -1.7611  1.8395
  101MOL0     H13937   5.755   8.014   9.012  1.6739  0.9358 -0.6301
  101MOL0     H13938   5.724   7.833   9.034 -1.2807 -0.6269 -1.4309
  102MOL0     O13939   2.381   3.173   5.649 -0.1298 -0.1608  0.0395
  102MOL0     C13940   2.463   3.114   5.713 -0.1616 -0.1225  0.3161
  102MOL0     O13941   2.552   3.024   5.663  0.2633 -0.0650  0.0448
  102MOL0     C13942   2.526   2.981   5.526 -0.0926  0.7436 -0.0490
  102MOL0     C13943   2.548   3.070   5.422  0.2487  0.5832  0.1708
  102MOL0     C13944   2.521   3.034   5.286  0.4498  0.2801  0.2659
  102MOL0     C13945   2.472   2.909   5.259 -0.6281  0.0017 -0.9475
  102MOL0     O13946   2.459   2.875   5.137  0.7122  1.0852 -0.3725
  102MOL0     C13947   2.331   2.816   5.105  0.1622 -0.0942 -0.0292
  102MOL0     C13948   2.311   2.782   4.953  1.1497  0.1272 -0.0913
  102MOL0     C13949   2.317   2.905   4.863 -0.3198  0.2044  0.4529
  102MOL0     C13950   2.201   3.000   4.885 -0.9329  0.5100  0.1236
  102MOL0     C13951   2.179   3.077   4.754 -0.1339 -0.2800 -0.1821
  102MOL0     C13952   2.066   3.189   4.771 -0.6869  0.7372  0.2138
  102MOL0     C13953   2.092   3.311   4.689 -0.2990  0.2380  0.9680
  102MOL0     C13954   2.020   3.429   4.732 -0.2641 -0.3314 -0.0686
  102MOL0     N13955   1.877   3.429   4.684  0.6375  0.3666  0.1959
  102MOL0     C13956   1.832   3.459   4.557 -0.6489  0.5239  0.0914
  102MOL0     C13957   1.701   3.466   4.556 -0.7558  0.5539 -0.0885
  102MOL0     C13958   1.610   3.473   4.432 -0.1590  0.3618 -0.1411
  102MOL0     C13959   1.490   3.557   4.462  0.1519  0.1506 -0.4537
  102MOL0     C13960   1.434   3.629   4.335 -0.5053 -0.2065 -0.0759
  102MOL0     C13961   1.316   3.720   4.373  0.1480 -0.2119 -0.2237
  102MOL0     O13962   1.356   3.836   4.450  0.7107 -0.5628  0.0276
  102MOL0     C13963   1.250   3.919   4.481 -0.1881 -0.3558  0.0045
  102MOL0     C13964   1.288   4.029   4.560  0.1074 -0.7862  1.4006
  102MOL0     C13965   1.202   4.133   4.579  0.0329 -0.8344  0.0637
  102MOL0     C13966   1.261   4.264   4.634  0.5453  0.0539  0.7301
  102MOL0     C13967   1.072   4.122   4.538 -0.0537 -1.0916  0.5448
  102MOL0     C13968   0.966   4.229   4.554 -0.3937 -0.3385 -0.5198
  102MOL0     O13969   0.844   4.209   4.497 -0.1304  0.2503 -0.9745
  102MOL0     C13970   0.758   4.315   4.511  0.1750  0.2441 -0.2489
  102MOL0     C13971   0.751   4.418   4.418 -1.2123  0.2908 -0.2062
  102MOL0     C13972   0.654   4.513   4.426  0.2128  0.6532 -0.7142
  102MOL0     C13973   0.566   4.513   4.538 -0.0868 -0.3665  0.7938
  102MOL0     O13974   0.482   4.613   4.554 -0.0841  0.0489 -0.1375
  102MOL0     C13975   0.449   4.712   4.452 -0.4746  0.7838  0.5898
  102MOL0     C13976   0.317   4.773   4.509  0.4331 -0.6224  0.1747
  102MOL0     C13977   0.325   4.855   4.636  0.1197 -0.1688  0.1330
  102MOL0     C13978   0.399   4.991   4.604 -0.6050 -0.8316  0.0280
  102MOL0     C13979   0.324   5.086   4.519 -0.3540 -0.1495  0.0168
  102MOL0     C13980   0.363   5.236   4.536 -0.1100  0.1330  0.4167
  102MOL0     C13981   0.509   5.255   4.504  0.0298 -0.1915 -0.0248
  102MOL0     C13982   0.560   5.338   4.622 -0.7676 -0.4606  0.2758
  102MOL0    Cl13983   0.735   5.392   4.597 -0.1152  0.3667  0.0890
  102MOL0     C13984   0.574   4.414   4.638  0.3381  0.1144  0.1175
  102MOL0     C13985   0.665   4.312   4.622 -0.0342  0.0482 -0.1935
  102MOL0     O13986   1.007   4.336   4.602 -0.0847  0.2972 -0.7034
  102MOL0     C13987   1.027   4.013   4.466 -0.9533 -0.3427  0.4511
  102MOL0     C13988   1.122   3.908   4.445  0.6042 -0.5862 -0.1242
  102MOL0     N13989   1.663   3.459   4.685 -0.2269  0.8890 -0.2834
  102MOL0     N13990   1.766   3.438   4.759 -0.2649  0.3066 -0.1962
  102MOL0     C13991   2.471   2.816   5.362 -0.3357  0.9869  0.7883
  102MOL0     C13992   2.500   2.848   5.492  0.2235  0.8715  1.0932
  102MOL0     C13993   2.471   3.124   5.860  0.0311  0.0653 -0.6540
  102MOL0     C13994   2.531   3.019   5.944  0.2613 -1.1026 -0.2340
  102MOL0     C13995   2.514   3.012   6.084 -0.4416 -0.7253  1.0021
  102MOL0     C13996   2.462   3.124   6.155 -0.4612 -0.1395  0.8179
  102MOL0     O13997   2.469   3.109   6.291  0.6401  0.4327  0.0017
  102MOL0     C13998   2.386   3.200   6.375 -0.2834  0.7246  0.7824
  102MOL0     C13999   2.417   3.175   6.524  0.1065 -0.1300  0.5863
  102MOL0     C14000   2.364   3.041   6.568 -0.1739 -0.0209  0.2919
  102MOL0     C14001   2.395   3.023   6.718  0.4760  0.0543  0.0318
  102MOL0     C14002   2.320   3.117   6.812  0.1851  0.2079  0.0448
  102MOL0     C14003   2.262   3.203   6.872 -1.1590 -0.1171  0.0738
  102MOL0     C14004   2.408   3.232   6.080 -0.8188 -0.1639  0.5585
  102MOL0     C14005   2.411   3.238   5.935  0.8464  0.2923  0.3689
  102MOL0     C14006   2.333   3.357   5.872  0.0126  0.5666  0.2263
  102MOL0     H14007   2.582   3.169   5.450  0.0396  0.0005  2.6426
  102MOL0     H14008   2.545   3.101   5.204 -0.7447  0.8017  0.3298
  102MOL0     H14009   2.265   2.897   5.139 -0.1428 -0.8290  1.2164
  102MOL0     H14010   2.309   2.718   5.150 -1.5978 -1.0376 -2.7070
  102MOL0     H14011   2.388   2.707   4.929  1.9215  0.1049  2.1909
  102MOL0     H14012   2.216   2.731   4.935  0.4735  1.8070 -1.5223
  102MOL0     H14013   2.411   2.955   4.891  0.6492 -1.3115  0.0550
  102MOL0     H14014   2.328   2.870   4.760  1.9836  0.1275  0.6531
  102MOL0     H14015   2.117   2.933   4.908 -2.3793  1.8948 -0.8786
  102MOL0     H14016   2.212   3.072   4.966 -1.9846  0.5998  0.2051
  102MOL0     H14017   2.163   3.006   4.672  0.6155  0.6579 -1.1676
  102MOL0     H14018   2.274   3.129   4.741  1.3399 -2.1677  2.1534
  102MOL0     H14019   1.968   3.146   4.748 -0.0345 -0.7738  0.1233
  102MOL0     H14020   2.067   3.229   4.873  0.1299  1.4378 -0.0533
  102MOL0     H14021   2.072   3.292   4.583  1.1160  0.1904  0.6841
  102MOL0     H14022   2.197   3.343   4.695 -0.2058  0.3646 -0.6893
  102MOL0     H14023   2.024   3.439   4.841 -1.1033  1.4492 -0.1615
  102MOL0     H14024   2.072   3.509   4.679  0.1639 -2.2878 -2.7811
  102MOL0     H14025   1.897   3.464   4.470  2.7180 -2.5347  2.1601
  102MOL0     H14026   1.584   3.375   4.392  3.1431  0.3693 -2.7272
  102MOL0     H14027   1.674   3.525   4.361  0.5402  1.7516  1.4265
  102MOL0     H14028   1.410   3.489   4.494  0.2591 -0.9809 -2.3770
  102MOL0     H14029   1.511   3.627   4.543  0.6022 -0.6304  0.1264
  102MOL0     H14030   1.506   3.690   4.280  0.6945  0.2082  1.8772
  102MOL0     H14031   1.400   3.542   4.277 -0.0219 -0.7817  0.4790
  102MOL0     H14032   1.264   3.749   4.282  1.9321  2.3319 -0.5304
  102MOL0     H14033   1.248   3.653   4.428  0.8620 -2.6049 -2.0719
  102MOL0     H14034   1.391   4.040   4.591  1.1062  1.8745 -2.1924
  102MOL0     H14035   1.211   4.279   4.730  1.4146  4.0790  0.7291
  102MOL0     H14036   1.248   4.340   4.557  1.8568 -2.6704 -2.4434
  102MOL0     H14037   1.369   4.259   4.643  0.5374 -0.4986  0.5556
  102MOL0     H14038   0.815   4.417   4.331 -2.9644  0.9601 -1.5630
  102MOL0     H14039   0.656   4.600   4.361  0.8288 -0.7395 -2.6478
  102MOL0     H14040   0.525   4.789   4.439 -1.1151  1.8901  2.8903
  102MOL0     H14041   0.432   4.655   4.360 -1.4927 -0.8243  1.7210
  102MOL0     H14042   0.279   4.839   4.429  0.8939  3.2409  2.8591
  102MOL0     H14043   0.241   4.697   4.526  1.2149 -1.6272 -0.7204
  102MOL0     H14044   0.376   4.795   4.712  0.0562 -2.2873 -1.4209
  102MOL0     H14045   0.225   4.872   4.677  0.1360 -0.5529  0.3325
  102MOL0     H14046   0.497   4.955   4.572 -1.2222 -2.0724 -0.5371
  102MOL0     H14047   0.432   5.038   4.697  2.3275 -2.2787 -0.1567
  102MOL0     H14048   0.335   5.054   4.415  0.1682  2.0079 -0.6517
  102MOL0     H14049   0.221   5.085   4.554 -0.1678  4.1027  1.2063
  102MOL0     H14050   0.327   5.276   4.631  2.2348  0.1218  1.3727
  102MOL0     H14051   0.307   5.284   4.455  1.3309  0.9339 -0.1486
  102MOL0     H14052   0.519   5.325   4.421 -0.3187  1.2458  1.0978
  102MOL0     H14053   0.565   5.162   4.489 -1.3855 -1.1876  0.6819
  102MOL0     H14054   0.569   5.287   4.719  2.6552  0.0140  0.3555
  102MOL0     H14055   0.500   5.427   4.644 -0.5712 -0.4906  0.9874
  102MOL0     H14056   0.509   4.424   4.725  2.3672  0.4149  1.6562
  102MOL0     H14057   0.664   4.235   4.699 -1.7937 -0.6767 -0.8854
  102MOL0     H14058   0.933   3.998   4.413  0.2266 -1.0472 -1.5748
  102MOL0     H14059   1.088   3.818   4.397 -2.4915  0.4287 -0.0622
  102MOL0     H14060   2.446   2.713   5.340  0.0223  0.9824  0.3706
  102MOL0     H14061   2.492   2.767   5.564 -3.7064 -1.1496 -1.2719
  102MOL0     H14062   2.582   2.936   5.898  0.8502 -2.2000  2.2294
  102MOL0     H14063   2.549   2.930   6.147 -2.6225 -2.2270  0.3751
  102MOL0     H14064   2.406   3.304   6.347  0.2241  0.4654  0.1616
  102MOL0     H14065   2.280   3.179   6.365  0.2988 -3.7974  1.8524
  102MOL0     H14066   2.384   3.260   6.584 -0.0558 -0.8272  1.5083
  102MOL0     H14067   2.526   3.174   6.538  0.1196  0.7364  0.5758
  102MOL0     H14068   2.256   3.050   6.553 -0.3610 -0.0884  1.5526
  102MOL0     H14069   2.402   2.965   6.500 -1.2864  0.1341 -0.5393
  102MOL0     H14070   2.498   3.021   6.755  0.2993  0.9587  0.6130
  102MOL0     H14071   2.375   2.923   6.757 -1.0875  0.4070  0.1839
  102MOL0     H14072   2.220   3.279   6.934  1.0491  0.7038  0.6734
  102MOL0     H14073   2.362   3.314   6.133  3.2952  3.3841 -0.7694
  102MOL0     H14074   2.231   3.319   5.858  0.9028 -2.1736  0.7342
  102MOL0     H14075   2.340   3.447   5.934 -0.3790  0.0101  1.0880
  102MOL0     H14076   2.377   3.387   5.776  0.7347  0.5618  0.5488
  103MOL0     O14077   0.561  10.761   6.487 -0.3965 -0.2108 -0.4366
  103MOL0     C14078   0.639  10.841   6.544  0.0674 -0.0830  0.6261
  103MOL0     O14079   0.659  10.979   6.518 -0.0805  0.5965  0.3049
  103MOL0     C14080   0.585  11.041   6.423 -0.0666 -0.3929 -0.4345
  103MOL0     C14081   0.447  11.038   6.416  0.2387  0.4059  0.2349
  103MOL0     C14082   0.371  11.103   6.330  0.3100  0.7412  0.5381
  103MOL0     C14083   0.426  11.184   6.225  0.2978 -0.0312 -0.1704
  103MOL0     O14084   0.365  11.261   6.131  0.1299  0.8756  0.4966
  103MOL0     C14085   0.222  11.248   6.094  0.3201 -0.2482  0.3761
  103MOL0     C14086   0.159  11.119   6.031  0.5055 -0.8228  0.1491
  103MOL0     C14087   0.030  11.159   5.970  0.6458 -0.6853  0.3517
  103MOL0     C14088  -0.026  11.027   5.904  0.2508 -1.1733  0.5525
  103MOL0     C14089  -0.168  11.049   5.850 -0.1529 -0.0168 -0.1082
  103MOL0     C14090  -0.232  10.909   5.825  0.4059 -0.2705 -0.3899
  103MOL0     C14091  -0.368  10.927   5.754  0.5274 -0.0978  0.7508
  103MOL0     C14092  -0.440  10.785   5.750 -0.3769  0.3035  1.2397
  103MOL0     N14093  -0.574  10.778   5.691 -0.2843 -0.0536 -0.6015
  103MOL0     C14094  -0.666  10.690   5.741  0.5694 -0.0285  0.4678
  103MOL0     C14095  -0.741  10.653   5.636 -0.0617 -0.7192  0.5106
  103MOL0     C14096  -0.843  10.547   5.619  0.1399  0.1970 -0.5320
  103MOL0     C14097  -0.761  10.430   5.554  0.2182  0.3790  0.2602
  103MOL0     C14098  -0.791  10.414   5.404 -0.0301  0.3519  0.1124
  103MOL0     C14099  -0.720  10.289   5.343  0.1233 -0.2699  0.1439
  103MOL0     O14100  -0.811  10.235   5.240 -0.0262  0.8613 -0.7395
  103MOL0     C14101  -0.783  10.107   5.189 -0.0344  0.7712  0.1845
  103MOL0     C14102  -0.891  10.034   5.128 -0.3484  0.7797  0.0475
  103MOL0     C14103  -0.873   9.894   5.094  0.3543 -0.5811 -0.4443
  103MOL0     C14104  -0.993   9.821   5.037 -0.7594 -0.5615  0.3615
  103MOL0     C14105  -0.742   9.838   5.114  0.7471  0.5236 -0.4860
  103MOL0     C14106  -0.713   9.702   5.062  0.6072  0.4099  0.6068
  103MOL0     O14107  -0.587   9.677   5.002  0.9835 -0.5069  0.0646
  103MOL0     C14108  -0.561   9.543   5.003 -1.1991 -0.0872  0.6010
  103MOL0     C14109  -0.565   9.464   4.892  0.4993  0.2429  0.3109
  103MOL0     C14110  -0.545   9.329   4.889 -1.6015  0.1137  0.0694
  103MOL0     C14111  -0.515   9.266   5.009 -0.1274 -0.4497  0.9430
  103MOL0     O14112  -0.475   9.142   5.025 -0.5007  0.0042  0.0618
  103MOL0     C14113  -0.468   9.048   4.919 -0.9716  0.4942  0.1535
  103MOL0     C14114  -0.348   9.062   4.828  0.4921 -0.3052 -0.8630
  103MOL0     C14115  -0.215   9.039   4.897  0.4694 -1.1088 -0.7195
  103MOL0     C14116  -0.095   9.035   4.806  0.1864  0.3411 -0.4422
  103MOL0     C14117  -0.118   8.923   4.697  1.0170 -0.3937 -0.2697
  103MOL0     C14118   0.013   8.866   4.660 -0.3450  0.3873  0.5664
  103MOL0     C14119   0.126   8.970   4.625 -0.3991 -0.1946 -0.3879
  103MOL0     C14120   0.236   8.918   4.522  0.2817  0.3572  0.2758
  103MOL0    Cl14121   0.350   9.045   4.507 -0.5153  0.0263  0.2755
  103MOL0     C14122  -0.496   9.342   5.120 -0.1440 -0.3940  0.3141
  103MOL0     C14123  -0.525   9.474   5.114 -0.4111  0.4167 -0.4759
  103MOL0     O14124  -0.795   9.613   5.077  0.1179 -0.5791 -0.4027
  103MOL0     C14125  -0.635   9.910   5.159 -0.6384  0.0033 -0.2081
  103MOL0     C14126  -0.656  10.049   5.198 -0.1539 -0.5082 -0.2195
  103MOL0     N14127  -0.696  10.723   5.522  0.7867  0.9259  0.6793
  103MOL0     N14128  -0.598  10.795   5.558  0.5844  0.0767 -0.8481
  103MOL0     C14129   0.567  11.176   6.224 -0.5498 -0.6974 -0.0364
  103MOL0     C14130   0.648  11.112   6.318  0.6630 -0.0318  0.0246
  103MOL0     C14131   0.679  10.808   6.680 -0.0841  0.4099  0.2679
  103MOL0     C14132   0.616  10.699   6.744  0.5779 -0.4043  0.9923
  103MOL0     C14133   0.641  10.662   6.872 -0.9641 -0.0059  0.0446
  103MOL0     C14134   0.727  10.739   6.951 -0.1472  0.6218  0.1730
  103MOL0     O14135   0.724  10.701   7.085  0.4278 -0.2692  0.0444
  103MOL0     C14136   0.813  10.775   7.169 -0.0742 -0.2315 -0.5677
  103MOL0     C14137   0.772  10.909   7.228  0.6283  0.4713 -0.1464
  103MOL0     C14138   0.626  10.911   7.263 -0.0019  0.5715  0.5113
  103MOL0     C14139   0.588  10.812   7.375  0.9403  0.0316 -0.1098
  103MOL0     C14140   0.451  10.844   7.416  0.8716 -0.5654  0.1318
  103MOL0     C14141   0.342  10.876   7.469 -0.5326 -0.2978  1.1785
  103MOL0     C14142   0.806  10.839   6.891  0.3454  0.5920 -0.5034
  103MOL0     C14143   0.783  10.876   6.754 -0.6200  0.2253 -0.2275
  103MOL0     C14144   0.871  10.984   6.704  0.6053  0.0700 -0.1495
  103MOL0     H14145   0.389  10.985   6.491  1.1048  1.0731  1.4107
  103MOL0     H14146   0.263  11.099   6.326  0.3785 -0.7207 -0.9672
  103MOL0     H14147   0.212  11.321   6.013  0.0683  1.0307  1.5327
  103MOL0     H14148   0.162  11.291   6.174  0.2711  0.2435  0.0754
  103MOL0     H14149   0.216  11.079   5.946 -1.8388 -3.2490 -0.4041
  103MOL0     H14150   0.151  11.053   6.118 -0.2279  1.9036  2.2861
  103MOL0     H14151  -0.040  11.186   6.049  0.1836  2.3521 -0.9379
  103MOL0     H14152   0.038  11.243   5.900  1.6241  0.7754  2.1215
  103MOL0     H14153   0.048  10.998   5.829  0.0486  1.2801 -0.6916
  103MOL0     H14154  -0.032  10.956   5.987 -0.2839  0.7825  2.2578
  103MOL0     H14155  -0.155  11.117   5.766  1.4994 -0.8838 -0.6199
  103MOL0     H14156  -0.227  11.103   5.924  1.5660 -1.5057  2.5214
  103MOL0     H14157  -0.173  10.857   5.748 -2.4507 -2.4527 -1.2952
  103MOL0     H14158  -0.239  10.840   5.910  0.2463 -2.6994 -2.2526
  103MOL0     H14159  -0.365  10.979   5.658 -1.0530 -0.0686  0.6904
  103MOL0     H14160  -0.434  10.994   5.811 -0.4111 -0.7515  0.4587
  103MOL0     H14161  -0.381  10.702   5.711 -2.7527 -1.4360  1.1223
  103MOL0     H14162  -0.457  10.760   5.855 -1.9127 -0.0733  0.9402
  103MOL0     H14163  -0.667  10.630   5.832  1.3343 -0.2191  0.3569
  103MOL0     H14164  -0.914  10.588   5.546  1.1096  3.3179  0.1234
  103MOL0     H14165  -0.891  10.520   5.713  0.8630 -2.2530 -0.8023
  103MOL0     H14166  -0.658  10.401   5.575 -0.2964 -0.4058  1.8780
  103MOL0     H14167  -0.799  10.335   5.592  2.5894 -1.9562 -2.7063
  103MOL0     H14168  -0.899  10.401   5.389 -0.4937  1.4699  2.0211
  103MOL0     H14169  -0.753  10.501   5.351  1.7098 -0.3601  0.1312
  103MOL0     H14170  -0.636  10.324   5.282  0.1791 -2.5504 -1.2154
  103MOL0     H14171  -0.681  10.212   5.409 -0.6149 -0.7275  0.0581
  103MOL0     H14172  -0.989  10.076   5.112  0.6554  2.4172 -2.3232
  103MOL0     H14173  -1.017   9.736   5.102  0.5913 -1.0562  0.2320
  103MOL0     H14174  -0.976   9.796   4.932  0.7801 -2.7753  1.0633
  103MOL0     H14175  -1.083   9.884   5.038  0.3901  1.2241 -1.4741
  103MOL0     H14176  -0.574   9.520   4.800  3.8944 -1.8066 -1.4446
  103MOL0     H14177  -0.535   9.270   4.798  1.3865 -0.3788  0.6026
  103MOL0     H14178  -0.457   8.949   4.963  3.0241  0.1885 -1.1939
  103MOL0     H14179  -0.560   9.057   4.861  0.7932  3.5674 -2.5162
  103MOL0     H14180  -0.345   8.988   4.747  1.7540 -1.9119  0.5733
  103MOL0     H14181  -0.351   9.158   4.777  0.5727  1.4805  2.2210
  103MOL0     H14182  -0.226   8.944   4.951 -3.9071 -0.1237  0.5314
  103MOL0     H14183  -0.195   9.124   4.963  3.3422 -1.9713 -0.3297
  103MOL0     H14184  -0.016   9.004   4.875 -1.4401  2.5922  2.6304
  103MOL0     H14185  -0.075   9.135   4.765 -0.3043 -0.2199 -2.1345
  103MOL0     H14186  -0.177   8.840   4.736  2.4867 -1.1934  0.3319
  103MOL0     H14187  -0.177   8.966   4.615 -3.8716 -1.7284  2.1482
  103MOL0     H14188  -0.013   8.818   4.565  0.2281 -1.2968  1.2204
  103MOL0     H14189   0.042   8.785   4.728 -0.6291 -0.2933 -0.1075
  103MOL0     H14190   0.170   9.003   4.720 -1.1245  0.4281 -0.2643
  103MOL0     H14191   0.084   9.060   4.580 -0.0282 -0.7847 -1.9777
  103MOL0     H14192   0.182   8.884   4.434 -1.9484 -0.7980  2.0093
  103MOL0     H14193   0.289   8.829   4.556  1.9026  0.1911 -2.4318
  103MOL0     H14194  -0.463   9.286   5.207  0.4294 -2.4021 -1.1143
  103MOL0     H14195  -0.520   9.527   5.208 -1.3753 -1.0524  0.4410
  103MOL0     H14196  -0.542   9.855   5.170 -0.1339  0.1043 -3.1325
  103MOL0     H14197  -0.573  10.106   5.240 -0.5642  1.3666 -1.7894
  103MOL0     H14198   0.618  11.232   6.147  1.1022 -0.4210  1.2033
  103MOL0     H14199   0.749  11.138   6.287  0.0453  0.7891 -1.3850
  103MOL0     H14200   0.534  10.652   6.690  1.8043 -1.9190  0.3594
  103MOL0     H14201   0.589  10.572   6.904 -0.2821 -0.1521  0.7739
  103MOL0     H14202   0.837  10.714   7.256  1.0693  0.2387 -0.5380
  103MOL0     H14203   0.910  10.797   7.122 -0.1144 -1.1146 -1.0919
  103MOL0     H14204   0.795  10.986   7.154 -0.0372  0.7480 -0.0665
  103MOL0     H14205   0.836  10.937   7.312 -0.0273 -0.2284  0.6088
  103MOL0     H14206   0.597  11.012   7.294 -1.4901  0.1276  0.6342
  103MOL0     H14207   0.568  10.876   7.177 -0.7643  0.5254  1.0283
  103MOL0     H14208   0.653  10.801   7.462  0.0469 -1.7843  0.3729
  103MOL0     H14209   0.593  10.707   7.342  2.7340 -0.2996  1.0544
  103MOL0     H14210   0.253  10.925   7.502 -1.9059 -1.5223 -0.5330
  103MOL0     H14211   0.882  10.894   6.946  2.1650  0.1561 -2.4531
  103MOL0     H14212   0.961  10.990   6.766 -1.1739  0.5626  2.5509
  103MOL0     H14213   0.905  10.961   6.603  3.1651  1.1618  0.3873
  103MOL0     H14214   0.819  11.080   6.712  0.8826  0.0894  2.0120
  104MOL0     O14215   2.798   0.875   3.866  0.0808 -0.7869 -0.3412
  104MOL0     C14216   2.877   0.925   3.942  0.3765 -0.5060 -0.1014
  104MOL0     O14217   2.905   1.059   3.957  0.3565  0.1012 -0.0432
  104MOL0     C14218   2.835   1.153   3.884 -1.2538  0.2951  0.1321
  104MOL0     C14219   2.694   1.162   3.885  0.8481 -0.4503 -0.0289
  104MOL0     C14220   2.646   1.267   3.807  0.4683  0.9478  0.2921
  104MOL0     C14221   2.724   1.353   3.735  0.7274 -0.0735  0.1736
  104MOL0     O14222   2.664   1.455   3.655  0.2734  0.8584  0.3642
  104MOL0     C14223   2.628   1.579   3.721 -0.7095  0.0663  1.0957
  104MOL0     C14224   2.497   1.632   3.660 -0.5146 -0.4394  0.2820
  104MOL0     C14225   2.491   1.636   3.511 -0.5156 -0.3617  0.6696
  104MOL0     C14226   2.370   1.708   3.450 -0.2452 -0.0933  0.8865
  104MOL0     C14227   2.395   1.860   3.431 -0.0264 -0.5116 -0.2447
  104MOL0     C14228   2.270   1.934   3.390  0.2623  0.0251  0.2900
  104MOL0     C14229   2.307   2.080   3.346  0.2071  0.8472  0.3854
  104MOL0     C14230   2.207   2.140   3.251 -0.1645  0.5421 -0.0243
  104MOL0     N14231   2.227   2.283   3.271 -0.0987  0.6342  0.6181
  104MOL0     C14232   2.133   2.372   3.287 -0.0716 -0.3133  0.1292
  104MOL0     C14233   2.185   2.491   3.254 -0.1869 -0.3464  0.3144
  104MOL0     C14234   2.111   2.616   3.245  0.7370 -0.8091 -0.6659
  104MOL0     C14235   2.165   2.708   3.359  0.4558 -0.7783 -0.0004
  104MOL0     C14236   2.138   2.862   3.337 -0.5056  0.0230  0.2530
  104MOL0     C14237   1.990   2.917   3.355 -0.4204  0.3896 -0.0646
  104MOL0     O14238   1.976   3.047   3.295  0.9416 -0.5525 -0.2667
  104MOL0     C14239   2.061   3.148   3.333  0.7362 -0.3318  1.0328
  104MOL0     C14240   2.145   3.201   3.234 -0.5176 -0.3720  0.2678
  104MOL0     C14241   2.234   3.311   3.267 -0.1045 -0.1147 -0.3239
  104MOL0     C14242   2.332   3.351   3.158 -0.4678  0.4407 -0.6798
  104MOL0     C14243   2.237   3.363   3.396 -0.8160  0.4405  0.1065
  104MOL0     C14244   2.327   3.473   3.439  0.4613  0.1908  0.0663
  104MOL0     O14245   2.349   3.570   3.353 -0.1850 -0.1602 -0.0906
  104MOL0     C14246   2.401   3.683   3.412  0.1152 -0.3558  0.1537
  104MOL0     C14247   2.315   3.786   3.451 -0.0183  0.1581 -0.1738
  104MOL0     C14248   2.358   3.921   3.472  0.6302 -0.2439 -0.2784
  104MOL0     C14249   2.496   3.940   3.474  0.6636 -0.3477  0.1770
  104MOL0     O14250   2.532   4.070   3.499  0.0090  0.3106 -0.4141
  104MOL0     C14251   2.618   4.143   3.412 -0.4102 -0.3457 -0.8259
  104MOL0     C14252   2.626   4.291   3.445  0.1141  0.3271  0.1551
  104MOL0     C14253   2.643   4.378   3.321  0.5268  0.0707 -1.1773
  104MOL0     C14254   2.600   4.523   3.347 -0.1416 -0.8717 -0.5308
  104MOL0     C14255   2.682   4.599   3.455 -0.1446  0.4192  0.0996
  104MOL0     C14256   2.808   4.661   3.401 -0.4077 -0.2356  0.4863
  104MOL0     C14257   2.906   4.715   3.503 -0.2583  0.6223  0.9743
  104MOL0     C14258   2.972   4.830   3.441  0.3419 -0.8549  0.3979
  104MOL0    Cl14259   3.099   4.916   3.536 -0.1622 -0.1960 -0.1086
  104MOL0     C14260   2.577   3.841   3.423  0.1053  0.3223 -0.7871
  104MOL0     C14261   2.534   3.710   3.402 -0.5945 -0.2109 -0.2240
  104MOL0     O14262   2.362   3.462   3.557  0.2642 -0.3252 -0.8844
  104MOL0     C14263   2.151   3.305   3.489 -0.4655 -0.3072  0.2874
  104MOL0     C14264   2.054   3.204   3.464 -0.8176  0.3044 -0.2779
  104MOL0     N14265   2.306   2.473   3.203 -0.4504 -0.1375  0.0066
  104MOL0     N14266   2.339   2.352   3.221 -0.3058  1.0163  0.0409
  104MOL0     C14267   2.862   1.343   3.737 -0.1379  0.0969  1.2084
  104MOL0     C14268   2.914   1.236   3.806 -0.1763 -0.3366 -0.2023
  104MOL0     C14269   2.948   0.835   4.038  0.4667 -0.0190  0.0590
  104MOL0     C14270   3.071   0.883   4.079 -0.5767  0.0592 -1.0275
  104MOL0     C14271   3.144   0.807   4.175 -0.3310 -0.4089  0.2924
  104MOL0     C14272   3.096   0.689   4.220  0.1137  0.2436 -0.6985
  104MOL0     O14273   3.165   0.592   4.294 -0.7359 -0.4982 -0.2781
  104MOL0     C14274   3.283   0.636   4.359  0.1206 -0.2204 -0.5207
  104MOL0     C14275   3.334   0.522   4.447  0.2951 -0.4420 -0.4473
  104MOL0     C14276   3.467   0.556   4.531 -0.4920 -0.2015  0.7582
  104MOL0     C14277   3.517   0.439   4.610 -0.7288  0.2873 -0.4219
  104MOL0     C14278   3.637   0.483   4.686  0.4800 -0.1285  0.6928
  104MOL0     C14279   3.742   0.522   4.737 -0.4314 -0.8418  0.1016
  104MOL0     C14280   2.976   0.641   4.179 -0.9683  0.3642 -0.4537
  104MOL0     C14281   2.901   0.707   4.080 -0.1923 -0.5871 -0.3261
  104MOL0     C14282   2.765   0.645   4.053 -0.0784  0.9344  0.4901
  104MOL0     H14283   2.628   1.097   3.942 -0.6105 -0.0629 -1.2177
  104MOL0     H14284   2.538   1.267   3.796  0.3942 -1.9229  0.2563
  104MOL0     H14285   2.711   1.649   3.704 -1.6838  1.1271  0.5992
  104MOL0     H14286   2.618   1.560   3.828  3.2430 -1.4241  1.3698
  104MOL0     H14287   2.412   1.571   3.692 -0.3273  0.1588  2.0365
  104MOL0     H14288   2.498   1.736   3.695  0.2883 -0.3662  0.0523
  104MOL0     H14289   2.573   1.683   3.455 -2.1095  1.0297 -0.6413
  104MOL0     H14290   2.492   1.532   3.477 -0.4419 -0.0541 -0.3300
  104MOL0     H14291   2.336   1.647   3.366  0.3822 -0.3234  0.7942
  104MOL0     H14292   2.288   1.683   3.519  1.2523 -2.9278  1.7868
  104MOL0     H14293   2.474   1.882   3.358  0.8601 -1.1916  0.4881
  104MOL0     H14294   2.418   1.888   3.534  1.5390 -3.7520  0.4100
  104MOL0     H14295   2.223   1.879   3.308  0.3364 -1.7338  1.3813
  104MOL0     H14296   2.189   1.940   3.463  0.8708  0.8580  0.9132
  104MOL0     H14297   2.401   2.079   3.291 -0.5647 -1.0200 -0.9981
  104MOL0     H14298   2.309   2.151   3.430  0.7151  2.6523 -1.1018
  104MOL0     H14299   2.231   2.110   3.148  0.6098 -0.1318  0.3507
  104MOL0     H14300   2.106   2.105   3.276 -0.6479  0.4773 -1.8796
  104MOL0     H14301   2.030   2.341   3.302  0.3948 -1.5083  1.0553
  104MOL0     H14302   2.006   2.603   3.273  1.2905 -0.1613  2.0326
  104MOL0     H14303   2.127   2.669   3.151  1.0909  4.4387  1.9487
  104MOL0     H14304   2.130   2.676   3.457 -2.1421  1.1411 -0.2059
  104MOL0     H14305   2.275   2.709   3.353  0.6656  4.4276  0.2586
  104MOL0     H14306   2.212   2.911   3.401  1.4591 -2.6446  0.1936
  104MOL0     H14307   2.156   2.900   3.235  0.1398  3.0286  1.3593
  104MOL0     H14308   1.918   2.845   3.314  2.1635 -1.7457 -1.1647
  104MOL0     H14309   1.962   2.922   3.460  0.7295  1.8454  0.2074
  104MOL0     H14310   2.152   3.155   3.136 -0.4254  0.6447 -0.2106
  104MOL0     H14311   2.432   3.370   3.200 -1.1383  1.4966  0.5064
  104MOL0     H14312   2.294   3.444   3.114 -0.7925  1.9900  2.5622
  104MOL0     H14313   2.348   3.272   3.084  1.3800  1.1541 -1.1097
  104MOL0     H14314   2.211   3.755   3.457  0.1109 -0.9552 -2.6920
  104MOL0     H14315   2.284   3.994   3.503 -2.5026 -3.4072  0.4077
  104MOL0     H14316   2.710   4.086   3.428 -0.9682 -0.6301  1.8955
  104MOL0     H14317   2.578   4.125   3.312 -1.2244  0.8684 -0.7278
  104MOL0     H14318   2.529   4.308   3.493 -0.9083  0.0212 -1.6863
  104MOL0     H14319   2.710   4.302   3.514  3.1752  0.1594 -3.2611
  104MOL0     H14320   2.580   4.331   3.245 -0.9094  0.4739 -0.2811
  104MOL0     H14321   2.747   4.384   3.287  1.4772 -0.5676  1.3488
  104MOL0     H14322   2.496   4.538   3.376  0.2903  1.5625 -0.0482
  104MOL0     H14323   2.619   4.585   3.259 -1.8196 -2.6213 -2.2327
  104MOL0     H14324   2.611   4.677   3.483 -0.6574 -0.3024  0.8349
  104MOL0     H14325   2.708   4.530   3.535 -0.8325  0.7939  0.6557
  104MOL0     H14326   2.782   4.733   3.323 -0.2183  3.2061  3.3363
  104MOL0     H14327   2.862   4.582   3.347 -1.2713  0.2135 -1.0861
  104MOL0     H14328   2.972   4.639   3.544  0.7245  1.5550  1.1412
  104MOL0     H14329   2.857   4.754   3.592  0.2475 -1.4100  2.2050
  104MOL0     H14330   2.899   4.907   3.414  0.2957 -0.5862  1.2547
  104MOL0     H14331   3.013   4.810   3.341  0.1565 -0.2599  0.1976
  104MOL0     H14332   2.679   3.867   3.399  1.7208 -1.2759  3.3818
  104MOL0     H14333   2.599   3.637   3.356  0.1184  0.2977 -0.0440
  104MOL0     H14334   2.131   3.362   3.580 -0.5734 -0.5373  0.4101
  104MOL0     H14335   1.981   3.170   3.537  0.3416 -0.2504  0.6472
  104MOL0     H14336   2.920   1.408   3.673 -2.6971  1.0232 -0.3074
  104MOL0     H14337   3.018   1.206   3.793 -0.4388 -1.0230 -0.7676
  104MOL0     H14338   3.099   0.981   4.042  1.2889  0.1550  0.4809
  104MOL0     H14339   3.241   0.844   4.208  0.8146 -1.1512 -2.0511
  104MOL0     H14340   3.360   0.676   4.292  1.7035  0.3915  1.5553
  104MOL0     H14341   3.256   0.721   4.422 -2.8603  0.5347 -2.6121
  104MOL0     H14342   3.358   0.432   4.390  2.3328  0.1015 -0.5332
  104MOL0     H14343   3.248   0.495   4.508 -2.1969  3.5976 -1.7745
  104MOL0     H14344   3.542   0.597   4.463  0.0513 -0.8759  0.9436
  104MOL0     H14345   3.442   0.633   4.604  1.4450 -0.3593  1.6323
  104MOL0     H14346   3.543   0.356   4.545 -0.5320 -0.7470  0.9226
  104MOL0     H14347   3.448   0.392   4.681  0.2300  0.5160  0.6958
  104MOL0     H14348   3.813   0.559   4.808 -2.7620 -0.6321  2.4703
  104MOL0     H14349   2.952   0.539   4.208 -0.1123  0.5118  0.8589
  104MOL0     H14350   2.763   0.544   4.093 -0.6729  0.7623  0.0253
  104MOL0     H14351   2.684   0.705   4.096 -1.8707 -0.3616 -0.9411
  104MOL0     H14352   2.737   0.616   3.951  0.4956 -0.8277  0.7990
  105MOL0     O14353   8.928   5.467   1.235  0.4620 -0.0557 -0.1205
  105MOL0     C14354   9.044   5.470   1.199  0.3928 -0.4753 -0.7286
  105MOL0     O14355   9.075   5.494   1.074 -0.0199  0.5814 -0.5593
  105MOL0     C14356   8.987   5.530   0.973  0.0221  1.5339  0.8327
  105MOL0     C14357   9.030   5.512   0.844 -0.2613 -0.2594 -0.3191
  105MOL0     C14358   8.939   5.531   0.739 -0.0896 -0.2386 -0.3461
  105MOL0     C14359   8.815   5.587   0.756  0.0324 -0.4508  0.2840
  105MOL0     O14360   8.745   5.614   0.646  0.8076  1.1050  0.0527
  105MOL0     C14361   8.620   5.679   0.648 -0.3344  0.2889  0.7527
  105MOL0     C14362   8.565   5.723   0.506 -0.1644 -0.3197  0.2680
  105MOL0     C14363   8.646   5.840   0.440  0.7039 -0.7582  0.3136
  105MOL0     C14364   8.763   5.787   0.361  0.0481 -0.4688 -0.3649
  105MOL0     C14365   8.818   5.898   0.265  0.6884 -0.1436 -0.0407
  105MOL0     C14366   8.860   6.025   0.345 -0.3263 -0.4647  0.6816
  105MOL0     C14367   8.914   6.134   0.244  0.1676 -0.0162  0.1347
  105MOL0     C14368   8.802   6.206   0.157 -0.4062 -0.3016 -1.1506
  105MOL0     N14369   8.664   6.205   0.215  0.3520 -0.6659 -1.3324
  105MOL0     C14370   8.560   6.166   0.139  0.5755 -0.3252 -1.2034
  105MOL0     C14371   8.445   6.212   0.197 -0.0577 -0.5055 -0.1343
  105MOL0     C14372   8.310   6.193   0.145 -0.6957  0.0985 -0.3389
  105MOL0     C14373   8.260   6.049   0.161  0.5131 -0.8021  0.5799
  105MOL0     C14374   8.285   5.994   0.300 -0.1524  0.8427  0.7949
  105MOL0     C14375   8.256   5.842   0.317  0.0028  0.3808 -0.5531
  105MOL0     O14376   8.329   5.763   0.222 -0.4806 -0.4236  0.0912
  105MOL0     C14377   8.334   5.631   0.235 -0.1802  0.0299 -0.9059
  105MOL0     C14378   8.427   5.562   0.153 -1.1613 -0.1457 -0.6726
  105MOL0     C14379   8.437   5.426   0.156 -0.7512  0.0557  0.3041
  105MOL0     C14380   8.529   5.360   0.060 -0.6483 -0.3006 -0.1132
  105MOL0     C14381   8.350   5.349   0.250  0.5089 -0.3408  0.3722
  105MOL0     C14382   8.351   5.199   0.246 -0.7414 -0.1966 -0.0047
  105MOL0     O14383   8.371   5.129   0.130 -0.4480 -0.6847 -0.2489
  105MOL0     C14384   8.409   5.000   0.137 -0.0862  0.2341  0.0076
  105MOL0     C14385   8.347   4.912   0.052  0.2992  0.4618 -0.2026
  105MOL0     C14386   8.388   4.774   0.054  0.5604  0.4899  0.1367
  105MOL0     C14387   8.488   4.729   0.136  0.1821 -0.0506  1.1174
  105MOL0     O14388   8.533   4.600   0.141  0.0545  0.9208 -0.0348
  105MOL0     C14389   8.442   4.494   0.188  0.7467  0.4116  0.2279
  105MOL0     C14390   8.393   4.502   0.333  0.3175 -0.5130 -0.2611
  105MOL0     C14391   8.506   4.504   0.436 -0.3965 -0.0080  0.3484
  105MOL0     C14392   8.451   4.531   0.572 -0.5965 -0.3168 -0.8875
  105MOL0     C14393   8.557   4.571   0.674  0.4125  0.8080  0.2934
  105MOL0     C14394   8.665   4.470   0.697  0.9707  0.2470  0.9579
  105MOL0     C14395   8.756   4.518   0.812 -0.4181 -0.3366 -0.6462
  105MOL0     C14396   8.839   4.397   0.883 -0.0428 -0.7466  1.2040
  105MOL0    Cl14397   8.942   4.302   0.766 -0.3394 -0.1091 -0.1107
  105MOL0     C14398   8.565   4.821   0.200 -0.0894 -0.3152 -0.9661
  105MOL0     C14399   8.524   4.955   0.205 -0.6729 -0.5400  0.0578
  105MOL0     O14400   8.326   5.143   0.355  0.1249 -0.9100 -0.8662
  105MOL0     C14401   8.251   5.417   0.320  0.3128  0.4197  0.4801
  105MOL0     C14402   8.250   5.556   0.320 -0.1996 -0.1730 -1.5680
  105MOL0     N14403   8.474   6.298   0.300 -0.6123 -0.3251  0.1296
  105MOL0     N14404   8.608   6.294   0.309  0.2096  0.0787 -1.2192
  105MOL0     C14405   8.779   5.621   0.884  0.1375 -0.0127  0.8804
  105MOL0     C14406   8.866   5.592   0.987 -0.9398 -0.4368  0.1521
  105MOL0     C14407   9.159   5.474   1.298  0.6537  0.6188  0.2597
  105MOL0     C14408   9.292   5.455   1.245  0.4172  0.2402 -0.7499
  105MOL0     C14409   9.406   5.463   1.333  0.1158  0.2186  0.4490
  105MOL0     C14410   9.399   5.489   1.465  0.4210  0.6232  0.0109
  105MOL0     O14411   9.514   5.496   1.542 -0.0587 -0.4602  0.3763
  105MOL0     C14412   9.517   5.570   1.659 -0.4311  0.1964 -0.2163
  105MOL0     C14413   9.665   5.583   1.716  0.2593  1.4440  0.0316
  105MOL0     C14414   9.725   5.445   1.766  0.7419 -0.9844 -0.1437
  105MOL0     C14415   9.850   5.464   1.871 -0.0993  0.6814  1.0160
  105MOL0     C14416   9.802   5.533   1.988  0.1347 -0.4534 -0.7013
  105MOL0     C14417   9.747   5.584   2.091  0.3170  0.2561 -0.0002
  105MOL0     C14418   9.268   5.500   1.524 -0.2450 -0.2671  0.6069
  105MOL0     C14419   9.146   5.485   1.441 -1.0067 -0.7121 -0.2860
  105MOL0     C14420   9.015   5.496   1.500 -0.5038  0.0970  0.4327
  105MOL0     H14421   9.133   5.483   0.827 -0.4669 -0.6555 -0.9127
  105MOL0     H14422   8.976   5.504   0.640 -1.6420  0.6198 -1.1938
  105MOL0     H14423   8.631   5.767   0.713  0.9383  1.7209 -1.2598
  105MOL0     H14424   8.552   5.605   0.691 -1.0066 -0.4691 -1.4777
  105MOL0     H14425   8.554   5.633   0.445  2.2723 -0.1422 -0.5452
  105MOL0     H14426   8.471   5.765   0.544  1.0491  0.2172  2.9493
  105MOL0     H14427   8.582   5.907   0.382 -1.9733 -2.8909  0.6066
  105MOL0     H14428   8.687   5.900   0.522  0.4107 -0.8306  0.5119
  105MOL0     H14429   8.843   5.755   0.429  0.9958  3.9709  0.9343
  105MOL0     H14430   8.747   5.690   0.313 -1.0866 -1.6977  2.2451
  105MOL0     H14431   8.741   5.920   0.190  0.3426  0.4185  0.4739
  105MOL0     H14432   8.902   5.862   0.205  0.0437  1.0412 -1.7499
  105MOL0     H14433   8.776   6.061   0.406 -0.8558  0.0492 -0.3222
  105MOL0     H14434   8.946   6.001   0.408 -1.5301  0.7125  2.8922
  105MOL0     H14435   8.995   6.093   0.183  0.3358  0.2340  0.1885
  105MOL0     H14436   8.966   6.210   0.302 -1.6303  1.1525  0.3029
  105MOL0     H14437   8.812   6.315   0.153 -1.6655  0.0929  2.3189
  105MOL0     H14438   8.813   6.153   0.062  2.9262  0.4867 -1.3165
  105MOL0     H14439   8.558   6.094   0.058  0.6475  0.7467 -2.1888
  105MOL0     H14440   8.317   6.224   0.040  0.1122  0.4101 -0.2070
  105MOL0     H14441   8.233   6.257   0.189 -0.1754 -0.4699  1.4736
  105MOL0     H14442   8.158   6.038   0.123  1.5586 -1.1686 -2.3943
  105MOL0     H14443   8.326   5.987   0.099  1.9278 -0.2938  1.5293
  105MOL0     H14444   8.392   6.005   0.320  0.3072  2.5461 -2.0733
  105MOL0     H14445   8.233   6.052   0.377  1.3966  1.4109  1.4652
  105MOL0     H14446   8.275   5.824   0.423 -1.6592  2.3632  0.1533
  105MOL0     H14447   8.150   5.817   0.305  0.0843 -1.3549  1.6153
  105MOL0     H14448   8.485   5.631   0.092  0.4159 -1.0402 -0.2422
  105MOL0     H14449   8.579   5.272   0.100 -2.0576 -1.2163 -0.3138
  105MOL0     H14450   8.604   5.429   0.020  0.3082 -1.6658 -0.7256
  105MOL0     H14451   8.475   5.324  -0.028  0.4049 -0.0988 -0.8533
  105MOL0     H14452   8.263   4.938  -0.011 -0.1255 -0.4904 -0.0335
  105MOL0     H14453   8.328   4.713  -0.012 -0.5374 -0.4835  1.9311
  105MOL0     H14454   8.347   4.484   0.136 -1.1117 -2.3879  3.7378
  105MOL0     H14455   8.492   4.398   0.173  4.0830  2.1925 -1.3048
  105MOL0     H14456   8.341   4.597   0.344  3.1646  1.2140 -0.7719
  105MOL0     H14457   8.320   4.423   0.353 -0.5522  0.6103  1.1466
  105MOL0     H14458   8.573   4.590   0.423 -0.4823 -0.1185 -0.9840
  105MOL0     H14459   8.572   4.419   0.417  1.8836  1.8791 -0.6724
  105MOL0     H14460   8.392   4.444   0.602  1.3075 -1.8740 -1.4862
  105MOL0     H14461   8.380   4.615   0.568 -1.3996 -0.6144  3.0137
  105MOL0     H14462   8.608   4.652   0.621  1.1606  0.5839  0.6623
  105MOL0     H14463   8.499   4.601   0.762  0.2279  0.7184  0.2037
  105MOL0     H14464   8.718   4.451   0.603  0.0179 -1.4672  0.7131
  105MOL0     H14465   8.614   4.378   0.729 -2.1121  0.6567 -2.1274
  105MOL0     H14466   8.693   4.571   0.885 -0.7241 -3.0452  1.1811
  105MOL0     H14467   8.828   4.596   0.787 -2.3919  1.6837 -0.3840
  105MOL0     H14468   8.766   4.325   0.921  0.0236  0.2466  3.4127
  105MOL0     H14469   8.898   4.449   0.959  1.5237 -0.8111  0.0697
  105MOL0     H14470   8.662   4.802   0.247  0.3341  0.0033 -1.6999
  105MOL0     H14471   8.590   5.021   0.259 -0.0816  0.9367 -2.3333
  105MOL0     H14472   8.174   5.361   0.371 -0.8646  0.0704 -1.5781
  105MOL0     H14473   8.179   5.610   0.382 -1.5795  0.2581 -3.4446
  105MOL0     H14474   8.685   5.667   0.913 -1.0643 -1.9377  0.2186
  105MOL0     H14475   8.834   5.615   1.088  2.0810 -0.9336  1.3062
  105MOL0     H14476   9.304   5.441   1.138 -0.7625  1.1554 -1.0234
  105MOL0     H14477   9.501   5.442   1.285  0.1342  0.2967  0.4499
  105MOL0     H14478   9.481   5.672   1.645 -0.6332  0.9054  4.0399
  105MOL0     H14479   9.452   5.526   1.736  2.0638 -2.1439  0.7244
  105MOL0     H14480   9.648   5.648   1.803  3.7669  0.8364  1.3300
  105MOL0     H14481   9.735   5.618   1.640 -0.3140  0.7616 -0.8176
  105MOL0     H14482   9.653   5.384   1.821  0.6045 -0.7269 -0.0393
  105MOL0     H14483   9.759   5.388   1.679 -2.6051 -1.0165 -1.5860
  105MOL0     H14484   9.926   5.526   1.821  1.0742 -1.9217 -0.6757
  105MOL0     H14485   9.901   5.368   1.881  0.9137  1.0761 -0.1121
  105MOL0     H14486   9.699   5.609   2.184  1.5388  0.2003  0.6614
  105MOL0     H14487   9.247   5.500   1.630 -2.5397 -1.3923  0.2275
  105MOL0     H14488   8.972   5.595   1.480  0.9719  0.4083 -1.4640
  105MOL0     H14489   8.950   5.414   1.469 -0.0576 -0.5746  1.2100
  105MOL0     H14490   9.020   5.488   1.609 -0.5433 -1.5746  0.3368
  106MOL0     O14491   4.697   8.847   9.594  0.0366 -0.3179 -0.2967
  106MOL0     C14492   4.593   8.829   9.527  0.5253  0.5957 -0.1788
  106MOL0     O14493   4.588   8.815   9.390 -0.1368 -0.3269 -0.2773
  106MOL0     C14494   4.682   8.874   9.321 -0.4818 -0.2643  1.2715
  106MOL0     C14495   4.773   8.807   9.245 -0.1920 -0.0937  0.7289
  106MOL0     C14496   4.859   8.868   9.153  0.5252 -0.3420  0.1068
  106MOL0     C14497   4.865   9.005   9.137 -0.5847  0.5560  1.2282
  106MOL0     O14498   4.959   9.067   9.050  0.4960 -0.4940 -1.1539
  106MOL0     C14499   5.095   9.022   9.061  0.4027  0.1587 -0.2683
  106MOL0     C14500   5.199   9.133   9.051  0.3712 -1.3631  0.1864
  106MOL0     C14501   5.248   9.194   9.188 -0.8481  0.4672 -0.1193
  106MOL0     C14502   5.397   9.154   9.234  0.2546  0.3361 -0.2083
  106MOL0     C14503   5.405   9.214   9.381  0.5716  0.7907 -0.7426
  106MOL0     C14504   5.543   9.193   9.442 -0.6078  0.6714  0.2346
  106MOL0     C14505   5.546   9.245   9.589 -0.7953  0.7163 -0.0785
  106MOL0     C14506   5.693   9.233   9.630 -0.7591 -0.7692 -0.1795
  106MOL0     N14507   5.706   9.267   9.774  0.1198 -0.7814 -0.0216
  106MOL0     C14508   5.676   9.385   9.842  0.0616  0.6241  0.0927
  106MOL0     C14509   5.724   9.361   9.971 -0.1665 -0.6254  0.2356
  106MOL0     C14510   5.745   9.466  10.085 -0.0914  0.0903 -0.4785
  106MOL0     C14511   5.783   9.607  10.036 -0.2339  0.6920 -0.0617
  106MOL0     C14512   5.913   9.617   9.970  0.3727  0.6933  0.1804
  106MOL0     C14513   6.028   9.624  10.061 -0.6836  0.5341 -1.1420
  106MOL0     O14514   6.154   9.642   9.989  0.3242 -0.7671 -0.1928
  106MOL0     C14515   6.194   9.550   9.898 -0.3864  0.0260  0.8552
  106MOL0     C14516   6.143   9.418   9.883  0.0107  0.0869  0.5698
  106MOL0     C14517   6.194   9.333   9.794  0.2410 -0.6547  0.0759
  106MOL0     C14518   6.128   9.201   9.785  0.1741 -0.1930  0.3128
  106MOL0     C14519   6.300   9.375   9.711  0.2871 -0.1319  0.2769
  106MOL0     C14520   6.357   9.295   9.602 -0.1225  0.3761 -0.7163
  106MOL0     O14521   6.281   9.281   9.491 -0.0958 -0.3521  0.2067
  106MOL0     C14522   6.330   9.212   9.383  0.9188 -0.5703 -0.1491
  106MOL0     C14523   6.363   9.078   9.383  0.3253  1.0033  1.0280
  106MOL0     C14524   6.410   9.009   9.265  0.9122 -0.1214 -0.2598
  106MOL0     C14525   6.408   9.080   9.147 -0.2197 -0.2107  0.6004
  106MOL0     O14526   6.444   9.030   9.030 -0.2104 -0.3846 -0.3732
  106MOL0     C14527   6.531   8.917   9.029 -0.4965  0.1856  0.9055
  106MOL0     C14528   6.612   8.908   8.899  0.4140  0.7590  0.4938
  106MOL0     C14529   6.725   9.015   8.887 -0.3497 -0.6607 -0.4407
  106MOL0     C14530   6.820   8.975   8.768 -0.7244 -0.4202  0.2025
  106MOL0     C14531   6.757   9.001   8.630 -0.0748  0.1877  0.2364
  106MOL0     C14532   6.854   8.994   8.512  0.0007  0.3448 -0.1874
  106MOL0     C14533   6.767   9.014   8.387  0.1944  0.6320  0.2160
  106MOL0     C14534   6.854   9.025   8.256  0.9615 -0.2326 -0.2175
  106MOL0    Cl14535   6.721   9.033   8.124  0.1474  0.3017 -0.2680
  106MOL0     C14536   6.380   9.212   9.149  0.0696  0.3292  0.6277
  106MOL0     C14537   6.341   9.281   9.265 -0.2025  0.5930  0.4508
  106MOL0     O14538   6.477   9.260   9.612  0.3286 -0.0263 -0.1251
  106MOL0     C14539   6.360   9.502   9.736 -0.7129  0.3669 -0.6144
  106MOL0     C14540   6.315   9.590   9.831  0.4817  0.3149  0.5509
  106MOL0     N14541   5.795   9.243   9.971 -0.1822 -0.1844 -0.1430
  106MOL0     N14542   5.772   9.184   9.860 -0.0616  0.3815  0.3507
  106MOL0     C14543   4.771   9.078   9.207 -0.8786 -0.0410 -0.4546
  106MOL0     C14544   4.678   9.012   9.294  0.3011  0.8100 -0.6675
  106MOL0     C14545   4.483   8.777   9.606  0.1755  0.2524 -0.1767
  106MOL0     C14546   4.388   8.685   9.549 -0.9271  0.0014  0.0877
  106MOL0     C14547   4.275   8.646   9.607 -0.4376 -0.3452 -0.3746
  106MOL0     C14548   4.252   8.683   9.743 -1.0353  0.8950 -0.5081
  106MOL0     O14549   4.147   8.635   9.818  0.2228  0.3318 -0.1091
  106MOL0     C14550   4.049   8.542   9.773 -0.0425  0.8146 -0.3415
  106MOL0     C14551   3.924   8.582   9.851 -0.3382  0.1385 -0.1593
  106MOL0     C14552   3.873   8.720   9.807  0.9279 -0.1411 -0.2674
  106MOL0     C14553   3.742   8.767   9.872 -0.8389 -0.4316 -0.2883
  106MOL0     C14554   3.704   8.759  10.018  0.0134 -0.0851  0.6059
  106MOL0     C14555   3.677   8.766  10.134 -0.3418  0.5738 -0.7555
  106MOL0     C14556   4.351   8.756   9.812  0.2912 -1.0237 -0.0646
  106MOL0     C14557   4.459   8.817   9.741 -0.3128 -0.1492 -0.2149
  106MOL0     C14558   4.551   8.905   9.829  0.2226 -0.3291 -0.0010
  106MOL0     H14559   4.793   8.701   9.244  2.2894  0.2672  2.2128
  106MOL0     H14560   4.902   8.802   9.078 -0.4614 -0.3535 -0.4682
  106MOL0     H14561   5.109   8.950   8.980  1.3268 -0.5615  0.5108
  106MOL0     H14562   5.106   8.970   9.157  1.7509  0.1955 -0.3913
  106MOL0     H14563   5.285   9.097   8.995  0.7563 -0.4027  0.1508
  106MOL0     H14564   5.164   9.216   8.990  4.4350 -0.1690 -0.7947
  106MOL0     H14565   5.231   9.302   9.194  0.8178  0.8583 -1.6773
  106MOL0     H14566   5.182   9.141   9.257  1.6873 -3.6130 -0.5242
  106MOL0     H14567   5.419   9.047   9.238  1.0525  0.3867 -2.1663
  106MOL0     H14568   5.463   9.210   9.167  2.6044  0.6013  2.1509
  106MOL0     H14569   5.328   9.170   9.444  0.3147  0.1571 -1.4773
  106MOL0     H14570   5.405   9.324   9.375  2.9152  0.7894 -2.0570
  106MOL0     H14571   5.568   9.087   9.429 -0.9074  0.2723  2.5035
  106MOL0     H14572   5.618   9.241   9.380  0.1417 -2.6018 -1.6057
  106MOL0     H14573   5.477   9.186   9.650 -0.9780 -0.4567 -1.3868
  106MOL0     H14574   5.520   9.351   9.590  3.1066  1.8395  0.7449
  106MOL0     H14575   5.721   9.127   9.623  1.8700 -0.2325  1.0360
  106MOL0     H14576   5.746   9.301   9.564 -0.6754 -1.4326 -0.8022
  106MOL0     H14577   5.627   9.473   9.801  0.9115  0.5968 -1.0404
  106MOL0     H14578   5.827   9.415  10.136 -1.4214 -2.1946 -0.4897
  106MOL0     H14579   5.666   9.461  10.160 -0.9458 -2.1314 -1.4116
  106MOL0     H14580   5.708   9.633   9.961  1.2384 -1.4554 -2.4407
  106MOL0     H14581   5.792   9.676  10.120  1.7301 -1.4016  1.5854
  106MOL0     H14582   5.912   9.551   9.883 -3.6239 -1.2984  1.4675
  106MOL0     H14583   5.912   9.717   9.927 -2.4341  0.4649 -0.4771
  106MOL0     H14584   6.023   9.701  10.138  0.9119  0.9565 -1.4459
  106MOL0     H14585   6.029   9.530  10.118  1.3804 -0.1071 -2.1205
  106MOL0     H14586   6.056   9.391   9.941 -1.7945  0.5038 -1.7918
  106MOL0     H14587   6.086   9.167   9.880  0.9554 -1.2197  0.2996
  106MOL0     H14588   6.188   9.120   9.742  0.6109 -0.4102  1.3051
  106MOL0     H14589   6.048   9.215   9.711  0.3780 -1.4171 -0.1638
  106MOL0     H14590   6.359   9.023   9.477  2.2797 -2.2518 -0.6083
  106MOL0     H14591   6.409   8.901   9.268 -3.4672 -0.3780 -3.0056
  106MOL0     H14592   6.602   8.912   9.112 -1.1560 -0.4540  1.4360
  106MOL0     H14593   6.469   8.828   9.021 -2.9645  1.6712  2.3644
  106MOL0     H14594   6.652   8.806   8.893 -3.5990 -0.9146 -1.1130
  106MOL0     H14595   6.541   8.907   8.817  1.6048 -2.0722 -0.6406
  106MOL0     H14596   6.791   9.015   8.974 -2.3849  1.3675  1.2511
  106MOL0     H14597   6.683   9.116   8.880 -0.3702 -0.2382  3.3507
  106MOL0     H14598   6.838   8.868   8.784 -1.2249 -0.9610 -2.4024
  106MOL0     H14599   6.914   9.031   8.773 -1.1314  0.2315  0.8540
  106MOL0     H14600   6.679   8.926   8.621 -0.2039  0.1164  1.7188
  106MOL0     H14601   6.708   9.099   8.630  0.7168  0.6371 -1.3428
  106MOL0     H14602   6.904   8.897   8.513 -0.3273  0.1419 -1.6745
  106MOL0     H14603   6.932   9.071   8.517  1.2424 -0.5959 -3.1306
  106MOL0     H14604   6.704   9.102   8.399 -1.8695 -0.8175  0.6684
  106MOL0     H14605   6.704   8.925   8.375  0.2796  0.5140  0.6120
  106MOL0     H14606   6.927   8.948   8.232 -1.4439 -2.3114 -1.3922
  106MOL0     H14607   6.909   9.119   8.268 -0.1925  0.3488  0.7129
  106MOL0     H14608   6.410   9.270   9.062  3.6201 -0.5643  1.1174
  106MOL0     H14609   6.319   9.387   9.259 -1.9021  0.2972  0.8967
  106MOL0     H14610   6.452   9.511   9.679  0.0387 -3.8667 -0.3677
  106MOL0     H14611   6.363   9.685   9.855 -0.2383  0.1668  2.8183
  106MOL0     H14612   4.779   9.186   9.209  0.5483 -0.0686 -2.2759
  106MOL0     H14613   4.594   9.068   9.334 -0.4681  0.2979 -1.5360
  106MOL0     H14614   4.416   8.651   9.450  0.5932 -3.2951  1.4967
  106MOL0     H14615   4.204   8.585   9.552 -1.6193 -1.0238  1.7912
  106MOL0     H14616   4.033   8.539   9.665 -0.3462  1.9879 -0.3542
  106MOL0     H14617   4.086   8.442   9.794 -2.4379 -0.4103 -1.4846
  106MOL0     H14618   3.928   8.574   9.960 -4.7449 -0.5372  0.1437
  106MOL0     H14619   3.850   8.503   9.834 -2.5589  2.6705 -3.6883
  106MOL0     H14620   3.952   8.794   9.821  0.4426 -0.1460  3.4793
  106MOL0     H14621   3.845   8.708   9.702 -2.2008 -0.9647  0.5642
  106MOL0     H14622   3.658   8.717   9.825 -0.9747 -0.3212 -0.1666
  106MOL0     H14623   3.740   8.875   9.852 -0.1945 -0.3110  0.2418
  106MOL0     H14624   3.634   8.769  10.233 -0.9110  2.1710 -1.0162
  106MOL0     H14625   4.338   8.773   9.919 -2.2260  0.2676 -0.4977
  106MOL0     H14626   4.632   8.841   9.866  3.4965  1.2890 -3.6205
  106MOL0     H14627   4.615   8.980   9.780  2.2571 -0.5274  2.1163
  106MOL0     H14628   4.491   8.936   9.915  1.3864 -2.8492  1.8507
  107MOL0     O14629   4.739   4.329   7.032 -0.0668  1.0454 -0.0059
  107MOL0     C14630   4.739   4.207   7.067  1.1106 -1.0275  0.1662
  107MOL0     O14631   4.833   4.148   7.135  0.4926 -0.0052 -0.5194
  107MOL0     C14632   4.938   4.218   7.188  0.0715  0.2680  0.8500
  107MOL0     C14633   5.042   4.276   7.109 -0.6235 -1.3336 -0.5300
  107MOL0     C14634   5.146   4.354   7.170  0.0752 -0.4271 -0.8240
  107MOL0     C14635   5.146   4.374   7.309  0.2260 -0.1106  0.0082
  107MOL0     O14636   5.233   4.464   7.365  0.4840 -0.6098 -0.1203
  107MOL0     C14637   5.368   4.428   7.364 -0.6733  0.2157  0.3952
  107MOL0     C14638   5.413   4.486   7.501  0.1958  0.2334  0.4029
  107MOL0     C14639   5.563   4.497   7.507  0.3554 -0.1943  0.4505
  107MOL0     C14640   5.637   4.354   7.506 -0.6805 -0.4479  0.1446
  107MOL0     C14641   5.785   4.360   7.536 -0.0073  0.1669 -0.1551
  107MOL0     C14642   5.861   4.435   7.425  0.6648 -0.9584 -0.2344
  107MOL0     C14643   6.005   4.470   7.465  0.4796  0.4264 -0.1977
  107MOL0     C14644   6.103   4.465   7.349 -0.1231 -0.9785  0.7889
  107MOL0     N14645   6.102   4.610   7.316 -0.6111 -0.7441 -0.2227
  107MOL0     C14646   6.055   4.679   7.208 -0.7737 -0.0196  0.1879
  107MOL0     C14647   6.106   4.802   7.215 -0.5048 -0.5914 -0.1749
  107MOL0     C14648   6.080   4.906   7.119  0.5737  0.2007  0.6193
  107MOL0     C14649   6.037   4.868   6.974  0.1809  0.0107  0.1695
  107MOL0     C14650   6.152   4.830   6.879  0.4711  0.8049  0.2364
  107MOL0     C14651   6.196   4.687   6.888 -1.1929  0.4055  0.5887
  107MOL0     O14652   6.274   4.644   6.777 -0.0808  0.3330  0.4703
  107MOL0     C14653   6.330   4.518   6.777  0.2478  0.7540 -0.0841
  107MOL0     C14654   6.270   4.400   6.828  0.0486  0.0072 -0.3935
  107MOL0     C14655   6.333   4.275   6.819  0.5453  0.1726 -0.3249
  107MOL0     C14656   6.243   4.156   6.856 -0.0200  0.5307 -0.8337
  107MOL0     C14657   6.466   4.273   6.767  0.1992  0.8656 -0.4115
  107MOL0     C14658   6.546   4.152   6.780 -0.2131 -0.5707  0.6098
  107MOL0     O14659   6.677   4.176   6.749  1.0823 -0.9512 -1.1056
  107MOL0     C14660   6.772   4.077   6.764  0.5318  0.7617  0.0624
  107MOL0     C14661   6.861   4.073   6.652  0.3807 -0.0289 -0.2677
  107MOL0     C14662   6.967   3.991   6.659 -0.4855 -0.2993  0.3642
  107MOL0     C14663   6.990   3.908   6.766 -0.0793 -0.2708  0.9454
  107MOL0     O14664   7.089   3.813   6.756 -0.9106  0.0157 -0.3180
  107MOL0     C14665   7.142   3.780   6.628  0.3825  1.2743  0.0253
  107MOL0     C14666   7.259   3.681   6.633  0.0024  0.3450 -0.5609
  107MOL0     C14667   7.219   3.545   6.693 -0.2100 -0.0627 -0.3515
  107MOL0     C14668   7.328   3.481   6.775  0.2445 -0.0309 -0.0294
  107MOL0     C14669   7.300   3.335   6.817 -0.9831  0.2084 -0.1855
  107MOL0     C14670   7.410   3.268   6.898  0.1733 -0.4586 -0.3167
  107MOL0     C14671   7.379   3.115   6.920 -0.3161 -0.9605  0.1376
  107MOL0     C14672   7.504   3.032   6.968  0.2027 -0.1905 -0.2074
  107MOL0    Cl14673   7.647   3.057   6.862 -0.1251 -0.0111 -0.3639
  107MOL0     C14674   6.897   3.908   6.873 -0.1427  0.3674 -0.1223
  107MOL0     C14675   6.791   3.987   6.867 -0.2670 -0.3610 -0.0031
  107MOL0     O14676   6.502   4.048   6.820 -0.0746  0.2487 -0.6867
  107MOL0     C14677   6.521   4.395   6.720  0.0202 -0.3741  0.6386
  107MOL0     C14678   6.453   4.514   6.726 -0.0049  0.4179  0.3240
  107MOL0     N14679   6.189   4.816   7.324 -1.0006  0.4889 -0.9607
  107MOL0     N14680   6.177   4.702   7.385 -0.0736  0.1654 -0.2513
  107MOL0     C14681   5.046   4.317   7.387 -0.0532  0.2569  0.1165
  107MOL0     C14682   4.939   4.245   7.320 -0.2138 -1.4082  0.3060
  107MOL0     C14683   4.622   4.123   7.021  0.6994  0.3178 -0.6093
  107MOL0     C14684   4.582   4.019   7.103  0.0050  0.4530 -0.6197
  107MOL0     C14685   4.471   3.935   7.073  0.4934  0.0606  0.8324
  107MOL0     C14686   4.386   3.980   6.969 -0.5529  1.1596 -0.3341
  107MOL0     O14687   4.271   3.911   6.947 -0.4448 -0.2574  0.3029
  107MOL0     C14688   4.145   3.980   6.967 -0.0006  0.8242  0.8546
  107MOL0     C14689   4.039   3.911   7.039 -0.0990  0.4996 -0.7689
  107MOL0     C14690   3.904   3.944   6.983  0.1957 -0.3889 -1.0918
  107MOL0     C14691   3.870   3.859   6.857  0.3894 -0.9260 -0.1124
  107MOL0     C14692   3.733   3.895   6.822 -0.4306  0.8261  0.2515
  107MOL0     C14693   3.624   3.920   6.782  0.4228 -0.0547 -0.6699
  107MOL0     C14694   4.420   4.091   6.897  0.1167 -1.2515  0.0656
  107MOL0     C14695   4.535   4.159   6.917 -0.3508  0.6289 -0.0045
  107MOL0     C14696   4.560   4.271   6.819 -0.0168 -0.4300 -0.5874
  107MOL0     H14697   5.022   4.260   7.004 -2.1908  1.3810 -0.7242
  107MOL0     H14698   5.221   4.400   7.107 -1.3797  0.5211 -1.9387
  107MOL0     H14699   5.415   4.482   7.281 -3.2245  1.1858 -0.4994
  107MOL0     H14700   5.379   4.319   7.355 -2.2925  0.1395 -1.2544
  107MOL0     H14701   5.361   4.581   7.520 -1.2596 -0.7209  1.3798
  107MOL0     H14702   5.379   4.422   7.583  0.3375 -0.5199 -0.1193
  107MOL0     H14703   5.590   4.569   7.430 -1.3812  0.1089  0.0778
  107MOL0     H14704   5.586   4.547   7.601 -1.6477  1.1124  0.2839
  107MOL0     H14705   5.576   4.300   7.579 -2.6869  1.4244 -0.0625
  107MOL0     H14706   5.619   4.298   7.414  1.8314  1.6678 -1.7916
  107MOL0     H14707   5.821   4.257   7.530  0.2747  0.2901 -0.7100
  107MOL0     H14708   5.803   4.400   7.636 -3.2348 -0.4691  0.7853
  107MOL0     H14709   5.857   4.380   7.331  0.5533  0.9922 -1.4403
  107MOL0     H14710   5.814   4.529   7.393  1.4742 -0.6403 -0.5122
  107MOL0     H14711   6.032   4.395   7.540  0.1810  0.6906  0.1791
  107MOL0     H14712   6.004   4.564   7.521 -1.1790 -0.8560  2.1166
  107MOL0     H14713   6.201   4.428   7.382 -0.2616 -0.9194  1.2658
  107MOL0     H14714   6.066   4.403   7.266 -2.9168 -0.8634  1.8508
  107MOL0     H14715   6.010   4.631   7.122 -2.3781  2.3046 -0.3490
  107MOL0     H14716   6.174   4.962   7.109 -0.6146  3.0853  3.5400
  107MOL0     H14717   6.015   4.976   7.173  0.9631 -1.0812  2.8477
  107MOL0     H14718   5.960   4.790   6.977 -0.6526  0.8366  0.5096
  107MOL0     H14719   5.998   4.958   6.926  2.2658  2.8571  3.3214
  107MOL0     H14720   6.101   4.844   6.783 -3.2645 -0.3796  1.8667
  107MOL0     H14721   6.234   4.902   6.883 -0.5426  2.0399 -0.3850
  107MOL0     H14722   6.248   4.667   6.982 -3.2725 -1.4783  1.4267
  107MOL0     H14723   6.110   4.620   6.892  0.1362 -1.3602  1.3982
  107MOL0     H14724   6.166   4.412   6.857  0.3872  1.3582  0.3568
  107MOL0     H14725   6.276   4.132   6.957  0.4201  2.4459 -0.4793
  107MOL0     H14726   6.263   4.076   6.785  2.0241 -0.3688  0.6519
  107MOL0     H14727   6.135   4.173   6.847 -0.0544 -0.5668 -3.4211
  107MOL0     H14728   6.844   4.128   6.560  1.3703 -0.5871 -0.8017
  107MOL0     H14729   7.035   4.007   6.576 -2.8456 -0.2421 -1.6443
  107MOL0     H14730   7.064   3.730   6.569  0.0572  2.1937 -0.3370
  107MOL0     H14731   7.187   3.867   6.580 -0.8776  0.2925 -3.2510
  107MOL0     H14732   7.297   3.667   6.532 -0.9720  1.4876 -1.1239
  107MOL0     H14733   7.346   3.728   6.679 -0.4256  2.3928 -1.6870
  107MOL0     H14734   7.205   3.466   6.619 -0.3563 -1.9099  1.5325
  107MOL0     H14735   7.131   3.557   6.758 -1.0317 -1.1534 -1.2221
  107MOL0     H14736   7.347   3.540   6.865  0.4744 -0.0820 -0.0443
  107MOL0     H14737   7.418   3.487   6.713 -0.6749 -1.4929 -1.5853
  107MOL0     H14738   7.207   3.325   6.873 -1.4133  0.4236 -0.8577
  107MOL0     H14739   7.298   3.267   6.732  1.7108 -0.0701 -0.1116
  107MOL0     H14740   7.428   3.316   6.995 -0.1163 -0.1387 -0.4177
  107MOL0     H14741   7.497   3.289   6.836  2.2549 -0.1594  2.4896
  107MOL0     H14742   7.327   3.061   6.840 -0.1048 -2.2264  0.8285
  107MOL0     H14743   7.307   3.113   7.003  0.9401  0.6038  1.3177
  107MOL0     H14744   7.481   2.926   6.969 -2.4086  0.2963 -1.0473
  107MOL0     H14745   7.526   3.072   7.067  0.8780 -0.3545 -0.2875
  107MOL0     H14746   6.904   3.836   6.954  1.4533 -0.5326 -1.0086
  107MOL0     H14747   6.733   3.996   6.958  0.8234  5.3374  0.4804
  107MOL0     H14748   6.626   4.407   6.696  0.4440  1.0908  2.8674
  107MOL0     H14749   6.502   4.602   6.687  0.9523 -0.2333  0.0399
  107MOL0     H14750   5.046   4.336   7.494  1.1109 -0.8762  0.3481
  107MOL0     H14751   4.858   4.204   7.379 -0.3783  0.4431  1.4639
  107MOL0     H14752   4.647   4.006   7.189  1.1646 -2.5325 -1.8145
  107MOL0     H14753   4.431   3.858   7.138 -0.4022  1.1140  1.5792
  107MOL0     H14754   4.155   4.081   7.008 -2.9109  1.6028 -0.0944
  107MOL0     H14755   4.110   3.993   6.864  0.3232 -0.9140  0.4895
  107MOL0     H14756   4.037   3.929   7.147  0.9601 -1.5508 -0.3445
  107MOL0     H14757   4.053   3.802   7.034  1.7897  0.7288 -1.4876
  107MOL0     H14758   3.818   3.924   7.048 -0.5612  2.8973 -0.9119
  107MOL0     H14759   3.889   4.051   6.966 -2.2784 -0.0379  2.3148
  107MOL0     H14760   3.888   3.753   6.875  1.3407 -0.6197  0.8491
  107MOL0     H14761   3.930   3.889   6.771 -2.4279 -0.2412 -1.9811
  107MOL0     H14762   3.525   3.953   6.754 -0.6848 -1.7393  0.9935
  107MOL0     H14763   4.345   4.124   6.826 -0.4976 -0.8985  0.8756
  107MOL0     H14764   4.553   4.363   6.878  0.3583  0.6684 -2.1907
  107MOL0     H14765   4.658   4.257   6.772  0.4287 -2.3454  0.7993
  107MOL0     H14766   4.484   4.285   6.742  0.9704  1.4797 -1.2762
  108MOL0     O14767   6.642   3.787   7.463 -0.6195 -0.3927  0.1861
  108MOL0     C14768   6.732   3.704   7.469  0.5186  0.1272 -0.1073
  108MOL0     O14769   6.856   3.726   7.446  0.2479 -0.3981 -0.0198
  108MOL0     C14770   6.895   3.854   7.405  1.1508 -0.1058 -0.2203
  108MOL0     C14771   6.998   3.907   7.470  0.4343 -1.1580  0.7040
  108MOL0     C14772   7.058   4.026   7.430  0.1968  0.1315 -0.1784
  108MOL0     C14773   7.017   4.080   7.307  0.3254 -1.9503 -0.3742
  108MOL0     O14774   7.090   4.189   7.251 -0.3277 -0.3236  0.3480
  108MOL0     C14775   7.192   4.262   7.330 -0.0024  0.1863  0.3380
  108MOL0     C14776   7.225   4.412   7.278 -0.0101  0.2582  0.4129
  108MOL0     C14777   7.092   4.495   7.279 -0.0199 -0.1962  0.2400
  108MOL0     C14778   7.108   4.650   7.295 -0.1117 -0.8654 -0.7060
  108MOL0     C14779   6.987   4.731   7.266 -0.4636  0.4312 -0.4449
  108MOL0     C14780   7.001   4.884   7.274  0.5388  0.4739 -0.1982
  108MOL0     C14781   7.064   4.947   7.402 -0.2269 -0.1876  0.1263
  108MOL0     C14782   7.061   5.106   7.392 -0.3473 -0.3912 -0.7213
  108MOL0     N14783   7.110   5.172   7.520 -0.1078 -0.3430  0.3131
  108MOL0     C14784   7.032   5.191   7.630 -0.0648  0.0124  0.5135
  108MOL0     C14785   7.112   5.273   7.711 -0.3954 -0.5529  0.1353
  108MOL0     C14786   7.094   5.303   7.862  0.4008 -1.5939  0.1910
  108MOL0     C14787   7.150   5.450   7.895  0.2740 -0.6806  0.1836
  108MOL0     C14788   7.046   5.550   7.843  0.3695 -0.0044 -0.3357
  108MOL0     C14789   7.119   5.687   7.833  0.1696  0.3825 -0.9055
  108MOL0     O14790   7.027   5.785   7.797 -0.4962 -0.3780  0.0224
  108MOL0     C14791   7.064   5.914   7.829 -0.6025 -1.1768  0.9627
  108MOL0     C14792   6.967   6.007   7.792  0.3117  0.2210  0.4521
  108MOL0     C14793   6.980   6.146   7.817  0.8292  0.6016 -0.1974
  108MOL0     C14794   6.858   6.230   7.774 -0.5178 -0.2830  0.5738
  108MOL0     C14795   7.092   6.190   7.887  0.0047  0.7293  0.3788
  108MOL0     C14796   7.118   6.337   7.911  0.0472 -0.1039  0.3116
  108MOL0     O14797   7.222   6.370   7.988 -0.2691  0.2784  0.0148
  108MOL0     C14798   7.241   6.496   8.038 -0.6445  0.2715  0.6696
  108MOL0     C14799   7.372   6.528   8.085 -0.3800  0.2114 -0.0294
  108MOL0     C14800   7.407   6.650   8.141 -0.1003 -0.5916  0.0024
  108MOL0     C14801   7.307   6.746   8.143  0.1987  0.3892 -0.1210
  108MOL0     O14802   7.330   6.867   8.189 -0.2863 -1.0516  0.0388
  108MOL0     C14803   7.457   6.921   8.203  1.4336  0.3774  0.3785
  108MOL0     C14804   7.448   7.037   8.297 -0.3329 -0.5075  0.2174
  108MOL0     C14805   7.349   7.150   8.235 -0.0305  1.3003 -0.2404
  108MOL0     C14806   7.312   7.258   8.347 -0.0586  0.6801  0.3852
  108MOL0     C14807   7.215   7.356   8.301 -0.2602 -0.3344 -0.1319
  108MOL0     C14808   7.071   7.308   8.304 -0.2774  0.1220  0.3346
  108MOL0     C14809   6.988   7.411   8.244 -0.2578 -0.5185 -0.4714
  108MOL0     C14810   6.834   7.397   8.264 -0.4985 -0.5488  0.2991
  108MOL0    Cl14811   6.768   7.245   8.236  0.1602  0.5270 -0.5350
  108MOL0     C14812   7.178   6.720   8.095  0.5319  0.5678  0.2910
  108MOL0     C14813   7.141   6.594   8.049  0.0561  0.3116 -0.2450
  108MOL0     O14814   7.053   6.421   7.848 -0.1679 -0.3361  0.0301
  108MOL0     C14815   7.187   6.096   7.930  0.1397  0.3185 -0.1311
  108MOL0     C14816   7.180   5.959   7.891 -1.0570  0.4520  0.2601
  108MOL0     N14817   7.228   5.303   7.645 -0.3369 -0.1309 -0.3597
  108MOL0     N14818   7.225   5.246   7.528  0.3164 -0.4845 -0.4626
  108MOL0     C14819   6.919   4.022   7.238  0.0772 -0.5504  0.3869
  108MOL0     C14820   6.858   3.908   7.285  0.8279  0.4233  0.0767
  108MOL0     C14821   6.701   3.559   7.480 -0.2936  0.3041 -1.1229
  108MOL0     C14822   6.781   3.486   7.571 -0.9498 -0.1526 -0.1525
  108MOL0     C14823   6.751   3.348   7.596  0.0115 -0.4180  0.5785
  108MOL0     C14824   6.645   3.288   7.533  0.5281 -0.7088  0.2095
  108MOL0     O14825   6.619   3.153   7.536 -0.4327 -0.0887 -0.1149
  108MOL0     C14826   6.653   3.073   7.647 -0.8570  0.8227 -0.2601
  108MOL0     C14827   6.596   2.935   7.623  0.6558 -1.0391  0.2555
  108MOL0     C14828   6.645   2.837   7.724 -0.7404  0.7336  0.2536
  108MOL0     C14829   6.615   2.696   7.673 -0.7653 -0.1931 -0.1105
  108MOL0     C14830   6.481   2.656   7.702 -0.1147 -0.1313 -1.0081
  108MOL0     C14831   6.366   2.624   7.717 -0.2130 -0.3350  0.3827
  108MOL0     C14832   6.581   3.354   7.435  0.1275 -0.3328 -0.0593
  108MOL0     C14833   6.594   3.492   7.408  0.0682  0.6207  0.3482
  108MOL0     C14834   6.505   3.558   7.303  0.4973 -0.3141 -0.5221
  108MOL0     H14835   7.038   3.862   7.560 -2.1652 -0.3196  2.4133
  108MOL0     H14836   7.152   4.051   7.477 -0.3995 -1.0701  1.7884
  108MOL0     H14837   7.284   4.205   7.324 -0.1511  0.0257 -0.6014
  108MOL0     H14838   7.154   4.270   7.432 -0.5515  0.9179  0.0845
  108MOL0     H14839   7.309   4.456   7.333  0.2301  0.9927 -0.5254
  108MOL0     H14840   7.256   4.402   7.174 -3.0980  0.2191 -0.5953
  108MOL0     H14841   7.058   4.476   7.176 -1.2182  2.0997  0.1497
  108MOL0     H14842   7.014   4.472   7.352 -3.6612  2.1130 -2.5372
  108MOL0     H14843   7.136   4.672   7.398 -1.3499  0.9854 -0.7179
  108MOL0     H14844   7.190   4.680   7.229 -2.3729  3.5869 -1.8715
  108MOL0     H14845   6.918   4.700   7.345 -0.0815  0.2223 -0.1878
  108MOL0     H14846   6.944   4.702   7.170 -1.4976 -3.2992  0.9666
  108MOL0     H14847   7.057   4.924   7.189 -0.1284  1.1049 -0.3561
  108MOL0     H14848   6.895   4.910   7.280  0.8205  1.2553  3.2077
  108MOL0     H14849   7.170   4.920   7.407  0.6016  2.7809  1.0779
  108MOL0     H14850   7.020   4.897   7.489  0.3889  0.6343  0.9384
  108MOL0     H14851   7.119   5.127   7.303  0.2262 -0.9785 -0.4918
  108MOL0     H14852   6.960   5.145   7.376 -0.3190  1.0897  2.0256
  108MOL0     H14853   6.939   5.141   7.658  0.5277 -0.4190  1.7573
  108MOL0     H14854   7.137   5.222   7.921 -1.9641 -4.2559 -1.5143
  108MOL0     H14855   6.987   5.307   7.884  0.7679  2.0223  2.0577
  108MOL0     H14856   7.163   5.461   8.003  0.1966  3.0136 -0.0781
  108MOL0     H14857   7.247   5.466   7.848  0.4586  1.2495  1.1408
  108MOL0     H14858   7.005   5.524   7.745 -2.6073 -1.5050  1.1865
  108MOL0     H14859   6.966   5.558   7.917  0.7835  0.6193  0.0474
  108MOL0     H14860   7.180   5.706   7.922  1.3370 -0.0405 -1.5954
  108MOL0     H14861   7.195   5.671   7.755 -0.8434 -0.4373 -1.7528
  108MOL0     H14862   6.876   5.972   7.743  1.1583 -2.4158  0.5957
  108MOL0     H14863   6.847   6.317   7.840  1.9506  1.2165 -0.8149
  108MOL0     H14864   6.773   6.162   7.770  2.4727 -4.3062 -0.3272
  108MOL0     H14865   6.862   6.269   7.672 -0.0278 -4.1300 -1.0323
  108MOL0     H14866   7.457   6.462   8.065  1.1104  1.3763  2.0717
  108MOL0     H14867   7.507   6.664   8.181 -1.0550 -0.1993  2.4747
  108MOL0     H14868   7.518   6.850   8.261  1.8548 -0.3258 -0.8775
  108MOL0     H14869   7.507   6.943   8.108  1.6348  2.4624  0.9170
  108MOL0     H14870   7.411   7.006   8.395  0.3483  0.6067  0.8522
  108MOL0     H14871   7.552   7.069   8.309 -1.2591  2.6239  0.8895
  108MOL0     H14872   7.260   7.099   8.198  0.2919 -1.9623  2.9824
  108MOL0     H14873   7.400   7.213   8.162  0.0450  0.8714 -0.5614
  108MOL0     H14874   7.398   7.314   8.383  0.6480  1.4790 -2.3260
  108MOL0     H14875   7.259   7.211   8.431 -0.9922  0.4208 -0.3278
  108MOL0     H14876   7.221   7.444   8.366 -0.6817  1.4710 -2.3735
  108MOL0     H14877   7.251   7.396   8.205  3.2656  1.9792  1.8968
  108MOL0     H14878   7.046   7.284   8.408 -0.1816 -1.1452  0.0852
  108MOL0     H14879   7.062   7.219   8.241 -2.2268  0.4549  0.0900
  108MOL0     H14880   7.011   7.416   8.137 -1.2571  2.9832 -0.6531
  108MOL0     H14881   7.018   7.509   8.281  1.2494 -0.7872 -0.9152
  108MOL0     H14882   6.780   7.471   8.203 -0.8586 -0.0485  1.2035
  108MOL0     H14883   6.798   7.405   8.367 -0.2457  0.8631  0.3122
  108MOL0     H14884   7.127   6.815   8.081  2.0069  1.1490 -1.5655
  108MOL0     H14885   7.042   6.575   8.010 -0.0171 -1.3457  0.6577
  108MOL0     H14886   7.269   6.133   7.990  0.6596 -1.6973  0.5025
  108MOL0     H14887   7.257   5.884   7.910 -1.7109 -0.3997 -0.3657
  108MOL0     H14888   6.905   4.066   7.140 -0.2422 -2.0998 -0.2849
  108MOL0     H14889   6.774   3.881   7.221  0.4822 -0.5649  0.9311
  108MOL0     H14890   6.857   3.536   7.630 -0.9299 -2.7060  2.2353
  108MOL0     H14891   6.818   3.286   7.655  1.0838 -0.2738 -0.4361
  108MOL0     H14892   6.759   3.045   7.652 -0.9915  0.3604  0.1727
  108MOL0     H14893   6.625   3.114   7.744 -1.4259  2.2696 -1.0109
  108MOL0     H14894   6.626   2.897   7.525 -3.1198 -2.6293 -0.4661
  108MOL0     H14895   6.487   2.939   7.610  0.4752 -2.0585  1.2764
  108MOL0     H14896   6.752   2.856   7.731 -0.6361  1.2437 -1.8353
  108MOL0     H14897   6.597   2.853   7.821 -0.5395 -0.9734  0.6722
  108MOL0     H14898   6.687   2.626   7.717  1.4670  1.1255 -1.4933
  108MOL0     H14899   6.635   2.691   7.566  1.9517  2.1880  0.1837
  108MOL0     H14900   6.260   2.612   7.731 -0.1221 -0.6762  0.7891
  108MOL0     H14901   6.502   3.299   7.384 -0.3036  0.8731 -0.7287
  108MOL0     H14902   6.400   3.573   7.328  0.9764 -0.9390  2.2403
  108MOL0     H14903   6.537   3.649   7.252  0.7799 -1.2653 -2.1153
  108MOL0     H14904   6.497   3.491   7.217  0.4858  1.0797 -1.6492
  109MOL0     O14905   6.367   9.370   4.063 -0.0912 -0.0505  0.2303
  109MOL0     C14906   6.258   9.422   4.088 -0.1514  0.5559 -0.3996
  109MOL0     O14907   6.227   9.520   4.176 -0.2239  0.3337 -1.0986
  109MOL0     C14908   6.316   9.543   4.278  0.9188 -0.2169 -0.1256
  109MOL0     C14909   6.269   9.510   4.405  0.2282 -0.7691  0.6215
  109MOL0     C14910   6.343   9.535   4.517  1.3163 -0.4755 -0.4964
  109MOL0     C14911   6.466   9.595   4.507 -0.8514 -0.5288  0.3677
  109MOL0     O14912   6.555   9.617   4.608 -0.2583  0.0162 -0.3204
  109MOL0     C14913   6.520   9.607   4.747 -0.9316 -0.7588 -0.3521
  109MOL0     C14914   6.608   9.701   4.820  0.2333  0.7100 -0.3603
  109MOL0     C14915   6.763   9.677   4.808 -0.1006  0.7242  0.1858
  109MOL0     C14916   6.847   9.787   4.873 -0.2366 -0.4027 -0.0153
  109MOL0     C14917   7.002   9.777   4.853  0.0478 -0.4223  0.1414
  109MOL0     C14918   7.063   9.916   4.865  0.3002  0.3631  0.0517
  109MOL0     C14919   7.197   9.932   4.784 -0.1043 -0.1368 -0.5247
  109MOL0     C14920   7.162   9.962   4.639  0.0565 -0.2184 -0.4150
  109MOL0     N14921   7.275   9.929   4.554  1.2112  0.1266  1.4774
  109MOL0     C14922   7.301   9.999   4.436  1.2165  0.7076 -0.9291
  109MOL0     C14923   7.405   9.932   4.382  0.2850  1.3822  0.7799
  109MOL0     C14924   7.467   9.981   4.252 -0.9745  0.6324 -0.2451
  109MOL0     C14925   7.571  10.090   4.272 -0.7802  0.4336  0.0398
  109MOL0     C14926   7.715  10.040   4.312 -0.2194 -0.3759  0.0880
  109MOL0     C14927   7.824  10.146   4.298  0.5081 -0.8939 -0.2888
  109MOL0     O14928   7.836  10.195   4.163  0.2482  0.5215  0.3370
  109MOL0     C14929   7.951  10.154   4.097  0.5662 -0.0102  0.0264
  109MOL0     C14930   8.010  10.248   4.023  0.8703  0.2143  1.0324
  109MOL0     C14931   8.121  10.214   3.953 -0.7073  1.0621 -0.7407
  109MOL0     C14932   8.184  10.337   3.883 -0.0550  0.4757 -0.8418
  109MOL0     C14933   8.185  10.093   3.972  0.1661  1.4628 -0.3220
  109MOL0     C14934   8.328  10.075   3.940  0.0798  0.3453  0.3946
  109MOL0     O14935   8.348   9.952   3.875  0.0632 -0.1905 -0.1189
  109MOL0     C14936   8.470   9.898   3.870 -0.3572 -0.3003  0.5851
  109MOL0     C14937   8.495   9.817   3.761  0.5783  0.2179 -0.6960
  109MOL0     C14938   8.616   9.749   3.748 -0.2037  0.2245  0.2021
  109MOL0     C14939   8.715   9.767   3.838  0.6906 -0.2430  0.5449
  109MOL0     O14940   8.836   9.710   3.817  0.0172 -0.7307  0.0729
  109MOL0     C14941   8.880   9.646   3.691 -0.6167 -0.2698  0.6123
  109MOL0     C14942   9.026   9.588   3.703  0.7862  0.4181 -0.2845
  109MOL0     C14943   9.042   9.470   3.599  0.4572 -0.2606 -0.8351
  109MOL0     C14944   8.958   9.355   3.656 -0.1299 -0.7682  0.5797
  109MOL0     C14945   9.028   9.272   3.758  0.5126 -0.1740  0.0117
  109MOL0     C14946   9.052   9.130   3.721  0.2051 -0.0738  0.1884
  109MOL0     C14947   9.119   9.051   3.828  0.1196  0.3404 -0.4523
  109MOL0     C14948   9.143   8.911   3.784  0.9046 -0.1785 -0.0443
  109MOL0    Cl14949   9.242   8.811   3.894  0.0172 -0.2956  0.4181
  109MOL0     C14950   8.703   9.853   3.942 -0.0533  0.0553  0.4180
  109MOL0     C14951   8.578   9.917   3.962 -0.1555  0.4853 -0.1171
  109MOL0     O14952   8.408  10.170   3.943 -0.8557  0.0337  0.3904
  109MOL0     C14953   8.128   9.989   4.041  0.8883  0.1431  0.6046
  109MOL0     C14954   8.005  10.017   4.100 -0.0277  0.4330 -0.5943
  109MOL0     N14955   7.437   9.820   4.463 -0.5613 -0.4449 -0.0353
  109MOL0     N14956   7.359   9.822   4.565 -0.1230  1.1442  0.1274
  109MOL0     C14957   6.517   9.618   4.377 -0.0596 -0.4031  0.8142
  109MOL0     C14958   6.443   9.594   4.267  0.3536  0.2870  0.6398
  109MOL0     C14959   6.142   9.373   4.010  0.1582 -0.8746 -0.3238
  109MOL0     C14960   6.167   9.290   3.900  0.4118 -0.3743  0.0137
  109MOL0     C14961   6.073   9.264   3.808  0.1678  0.3959  0.8417
  109MOL0     C14962   5.939   9.314   3.824  0.2426 -0.4056  0.4036
  109MOL0     O14963   5.831   9.298   3.735 -0.3764 -0.8666 -0.0706
  109MOL0     C14964   5.859   9.299   3.591 -0.3998 -0.1235  0.4826
  109MOL0     C14965   5.883   9.158   3.525 -0.4447 -0.6032 -0.3849
  109MOL0     C14966   5.849   9.183   3.371 -0.1681  0.9624  0.1251
  109MOL0     C14967   5.846   9.050   3.285 -0.3625 -0.4529  0.1501
  109MOL0     C14968   5.731   8.965   3.323 -0.4003  0.6479 -0.0253
  109MOL0     C14969   5.634   8.897   3.339 -0.1232  0.8407 -0.0270
  109MOL0     C14970   5.910   9.377   3.941 -0.1010  0.3890 -0.2424
  109MOL0     C14971   6.008   9.411   4.035 -1.0772  1.3428 -0.0796
  109MOL0     C14972   5.962   9.476   4.155 -0.4897  0.6585 -0.3243
  109MOL0     H14973   6.166   9.476   4.414  0.5988 -1.7847  1.2051
  109MOL0     H14974   6.295   9.514   4.613 -1.0467  1.1170 -1.2167
  109MOL0     H14975   6.531   9.504   4.783 -2.6022 -1.0404 -0.5664
  109MOL0     H14976   6.418   9.645   4.752 -0.9199 -0.6977 -0.5623
  109MOL0     H14977   6.588   9.803   4.787  2.0093  2.5271  3.5817
  109MOL0     H14978   6.574   9.702   4.924 -3.6973  2.0426 -1.4910
  109MOL0     H14979   6.794   9.583   4.856 -1.1488  0.7236  0.8947
  109MOL0     H14980   6.785   9.663   4.702 -0.9902 -1.2301  0.1987
  109MOL0     H14981   6.813   9.885   4.839  1.5297 -0.4277 -2.0236
  109MOL0     H14982   6.825   9.775   4.980 -1.7711  0.1135 -0.2410
  109MOL0     H14983   7.014   9.737   4.752  0.7550 -0.0941  0.0923
  109MOL0     H14984   7.052   9.705   4.919  0.2656 -1.4137 -1.0692
  109MOL0     H14985   7.000   9.998   4.829  1.2998 -0.1369 -3.2578
  109MOL0     H14986   7.075   9.940   4.971 -1.5017  1.9491 -0.0447
  109MOL0     H14987   7.246   9.836   4.799  0.3465  0.4339  2.0461
  109MOL0     H14988   7.265  10.010   4.820 -1.8692  0.8866  0.7122
  109MOL0     H14989   7.073   9.904   4.613  0.8831 -1.5922 -0.2448
  109MOL0     H14990   7.141  10.069   4.631  2.6409  0.3054 -1.1980
  109MOL0     H14991   7.237  10.076   4.395 -2.7904 -1.4999  0.6276
  109MOL0     H14992   7.388  10.010   4.182 -0.1362 -0.2556 -1.6285
  109MOL0     H14993   7.523   9.899   4.206  0.8237 -1.8631  5.4573
  109MOL0     H14994   7.584  10.142   4.176  1.9672  3.3511  1.8107
  109MOL0     H14995   7.536  10.160   4.347 -1.5447  0.1598 -0.0565
  109MOL0     H14996   7.721  10.002   4.414  1.2177  1.0226  0.5662
  109MOL0     H14997   7.750   9.969   4.238  1.8783  1.0460 -0.3714
  109MOL0     H14998   7.787  10.234   4.350  0.7760 -0.8901 -0.1003
  109MOL0     H14999   7.921  10.110   4.334  1.1869 -1.4713 -2.4956
  109MOL0     H15000   7.964  10.346   4.023 -2.2168 -1.0833  3.1878
  109MOL0     H15001   8.257  10.384   3.951  0.8165 -1.4730 -0.3666
  109MOL0     H15002   8.114  10.420   3.873  0.0891  1.2690  2.9067
  109MOL0     H15003   8.243  10.316   3.794  0.6540 -0.0208 -0.2751
  109MOL0     H15004   8.418   9.796   3.688  0.6824 -0.9027 -0.4926
  109MOL0     H15005   8.632   9.687   3.660  0.2862 -1.3441  1.3526
  109MOL0     H15006   8.812   9.586   3.630  0.8507 -0.7424 -0.6085
  109MOL0     H15007   8.891   9.734   3.626 -0.2885 -2.0106 -1.8109
  109MOL0     H15008   9.099   9.668   3.684  2.4223 -0.6763  0.9919
  109MOL0     H15009   9.064   9.553   3.800  2.4649 -0.8842 -1.3351
  109MOL0     H15010   9.147   9.441   3.590  1.0722  1.3584  0.6712
  109MOL0     H15011   9.019   9.512   3.501 -0.4063  1.9526  0.2421
  109MOL0     H15012   8.914   9.295   3.575  1.9239 -0.2841 -0.9866
  109MOL0     H15013   8.876   9.389   3.720 -0.0204 -1.3825  1.0498
  109MOL0     H15014   9.111   9.332   3.797 -1.9954  1.3224  3.5598
  109MOL0     H15015   8.966   9.267   3.848  2.1758  0.4951  1.2477
  109MOL0     H15016   9.122   9.119   3.637 -1.3708  0.5983 -1.2572
  109MOL0     H15017   8.961   9.075   3.695 -0.1440  0.3904  0.4120
  109MOL0     H15018   9.065   9.064   3.922 -2.1132 -0.1889 -1.5964
  109MOL0     H15019   9.220   9.084   3.853  0.1933 -0.3344  0.1709
  109MOL0     H15020   9.190   8.914   3.685 -0.5380  2.6880 -0.7299
  109MOL0     H15021   9.045   8.865   3.771  0.7796  0.1083 -0.1105
  109MOL0     H15022   8.792   9.869   4.003 -1.5483  2.4080  2.1602
  109MOL0     H15023   8.577   9.982   4.048 -2.5020  0.9599 -0.4339
  109MOL0     H15024   8.171   9.889   4.047 -0.4960 -0.3888  3.1629
  109MOL0     H15025   7.953   9.943   4.159 -0.7575  2.2043  1.1161
  109MOL0     H15026   6.623   9.637   4.362 -0.1919 -0.7103 -0.6369
  109MOL0     H15027   6.485   9.623   4.171  0.2971  0.1280  0.5673
  109MOL0     H15028   6.268   9.259   3.877  0.9290  0.2844  1.3179
  109MOL0     H15029   6.109   9.214   3.718  1.9835  0.4667  1.4833
  109MOL0     H15030   5.765   9.339   3.551 -0.6913  0.5052  1.7251
  109MOL0     H15031   5.948   9.359   3.572 -1.5248  0.4953 -3.8848
  109MOL0     H15032   5.814   9.081   3.562 -0.2615 -1.1979 -1.2668
  109MOL0     H15033   5.988   9.134   3.544 -0.8497 -0.4812  2.5870
  109MOL0     H15034   5.760   9.245   3.364 -1.5306 -0.8278  0.8298
  109MOL0     H15035   5.932   9.243   3.332  2.6676 -1.0622  2.5359
  109MOL0     H15036   5.941   8.996   3.288 -1.7028 -3.2688 -2.6459
  109MOL0     H15037   5.836   9.083   3.181  2.2274  1.1823  0.3480
  109MOL0     H15038   5.550   8.840   3.373  0.3623  0.9178  1.3585
  109MOL0     H15039   5.807   9.402   3.963 -0.3001 -0.7640  0.1970
  109MOL0     H15040   6.006   9.576   4.155  1.0630  0.0341  2.1044
  109MOL0     H15041   5.856   9.493   4.180 -0.3613  0.8386  0.0972
  109MOL0     H15042   5.998   9.424   4.244 -0.9686 -0.4113 -0.7399
  110MOL0     O15043   0.959   6.811   1.814  0.4885 -1.2159  0.2143
  110MOL0     C15044   0.885   6.913   1.802 -0.2089  0.1771 -0.1578
  110MOL0     O15045   0.913   7.037   1.831 -0.0515 -0.2879  0.3692
  110MOL0     C15046   1.037   7.084   1.826  0.4417 -0.4772  0.2466
  110MOL0     C15047   1.068   7.180   1.727  0.1415 -0.6153 -0.4696
  110MOL0     C15048   1.195   7.244   1.733  0.4734 -0.2332 -0.7400
  110MOL0     C15049   1.292   7.220   1.829  1.2981 -0.1603 -0.0988
  110MOL0     O15050   1.398   7.293   1.850 -0.5961  0.1819 -0.0764
  110MOL0     C15051   1.458   7.335   1.730 -0.3900  0.3385  0.0868
  110MOL0     C15052   1.609   7.335   1.745  1.0730  1.2191 -1.5550
  110MOL0     C15053   1.683   7.417   1.637 -0.0269  1.3843 -0.1340
  110MOL0     C15054   1.836   7.409   1.666 -1.0324 -0.2380  0.4880
  110MOL0     C15055   1.903   7.520   1.581 -0.0571 -0.2730  0.0435
  110MOL0     C15056   2.051   7.540   1.613  0.8741 -0.1364  0.0595
  110MOL0     C15057   2.114   7.662   1.557  0.0928 -0.7403 -0.0631
  110MOL0     C15058   2.131   7.771   1.666  0.6073 -1.0759  0.7661
  110MOL0     N15059   2.188   7.894   1.605 -0.1817  0.1626 -0.7592
  110MOL0     C15060   2.122   8.008   1.556  0.4782 -0.6235  0.4411
  110MOL0     C15061   2.224   8.097   1.533  0.4971  0.3771 -0.6948
  110MOL0     C15062   2.210   8.234   1.475  0.6132 -0.0453 -0.6847
  110MOL0     C15063   2.287   8.349   1.536 -0.3755 -0.1123 -0.3073
  110MOL0     C15064   2.207   8.412   1.642 -0.1942  0.2182  0.3769
  110MOL0     C15065   2.290   8.505   1.720  0.5206  0.6766 -0.6278
  110MOL0     O15066   2.337   8.621   1.643 -0.2074  0.5779  0.1025
  110MOL0     C15067   2.475   8.650   1.652  0.2504  0.2562  0.2406
  110MOL0     C15068   2.566   8.575   1.578 -0.7195 -0.7713  1.1372
  110MOL0     C15069   2.709   8.593   1.579  0.2246  0.2580  0.1671
  110MOL0     C15070   2.812   8.484   1.532  0.2620 -0.3411 -0.8311
  110MOL0     C15071   2.756   8.703   1.654  0.2837 -0.1085  0.3387
  110MOL0     C15072   2.900   8.741   1.664  0.2570  1.1034 -0.1860
  110MOL0     O15073   2.928   8.819   1.773 -0.5329 -0.3313 -0.3407
  110MOL0     C15074   3.058   8.869   1.789 -1.2896 -0.2058  0.0686
  110MOL0     C15075   3.065   9.006   1.808  0.3020  0.4115  0.0170
  110MOL0     C15076   3.183   9.071   1.838  0.1237 -0.4484 -0.6411
  110MOL0     C15077   3.306   9.002   1.852  0.9297 -0.8975 -0.0871
  110MOL0     O15078   3.420   9.066   1.902 -0.0347  0.2944 -0.0846
  110MOL0     C15079   3.524   8.987   1.968 -0.2730  0.0304  0.2984
  110MOL0     C15080   3.629   9.087   2.018 -0.6886  0.0373 -0.6297
  110MOL0     C15081   3.709   9.152   1.896 -0.8198 -0.0004  0.3155
  110MOL0     C15082   3.782   9.275   1.946  0.8146 -0.5743  0.8137
  110MOL0     C15083   3.905   9.309   1.858  0.4262  0.0803  0.4972
  110MOL0     C15084   3.866   9.331   1.710  0.3921 -1.0312 -0.7793
  110MOL0     C15085   3.987   9.396   1.634 -1.0431  0.1370  0.5805
  110MOL0     C15086   3.965   9.393   1.481 -0.6406 -0.5881  0.3296
  110MOL0    Cl15087   4.084   9.499   1.402 -0.6176  0.3471 -0.0643
  110MOL0     C15088   3.295   8.863   1.829 -0.4053 -0.6995 -0.6647
  110MOL0     C15089   3.176   8.800   1.805  0.2930 -0.3123 -0.6678
  110MOL0     O15090   2.983   8.710   1.580  0.5601 -0.5983 -0.2208
  110MOL0     C15091   2.663   8.774   1.740 -0.3619 -0.0915 -0.4706
  110MOL0     C15092   2.523   8.748   1.736  0.2520 -0.5900 -0.2143
  110MOL0     N15093   2.342   8.031   1.553 -0.1813 -0.3699 -0.1447
  110MOL0     N15094   2.322   7.919   1.608  0.4582 -0.1791  0.0895
  110MOL0     C15095   1.271   7.119   1.919  0.8281  0.6731  0.4773
  110MOL0     C15096   1.145   7.045   1.905  0.2077  0.1486 -0.0387
  110MOL0     C15097   0.754   6.893   1.742  0.8073  0.6602 -0.6758
  110MOL0     C15098   0.717   6.985   1.651 -0.6095 -0.9550 -0.1473
  110MOL0     C15099   0.584   6.975   1.588 -0.8682  0.5784 -0.4123
  110MOL0     C15100   0.496   6.869   1.623 -0.1489 -1.0017  0.1219
  110MOL0     O15101   0.364   6.869   1.577  0.6328  0.1972  0.4959
  110MOL0     C15102   0.308   6.984   1.512 -0.8129  0.4403  0.1035
  110MOL0     C15103   0.152   6.969   1.534 -0.1097 -0.2627  0.5932
  110MOL0     C15104   0.120   6.965   1.681 -0.1768  0.7195 -0.6440
  110MOL0     C15105   0.102   6.825   1.743 -0.0880  0.2376 -0.4345
  110MOL0     C15106   0.034   6.833   1.879 -0.4427 -0.4687  0.3043
  110MOL0     C15107  -0.002   6.831   1.996  0.1537  0.2468  0.1807
  110MOL0     C15108   0.548   6.768   1.702 -0.5158  0.7591 -0.3160
  110MOL0     C15109   0.671   6.779   1.772  1.1035 -0.3533  0.4293
  110MOL0     C15110   0.702   6.675   1.883  0.4829 -0.0564  0.1114
  110MOL0     H15111   1.000   7.217   1.651  0.5429  0.2450 -0.4215
  110MOL0     H15112   1.208   7.337   1.678 -0.1551  1.1763  1.3925
  110MOL0     H15113   1.434   7.442   1.721  1.2471  0.6517 -1.0713
  110MOL0     H15114   1.438   7.282   1.637  2.3180  1.4306 -1.2255
  110MOL0     H15115   1.619   7.379   1.844 -4.5236 -0.2493  0.0067
  110MOL0     H15116   1.642   7.231   1.756 -0.5792  0.9453  2.2665
  110MOL0     H15117   1.651   7.387   1.537 -1.9866 -1.0548  1.1082
  110MOL0     H15118   1.653   7.522   1.643  0.8915  1.8359 -2.3504
  110MOL0     H15119   1.840   7.430   1.773 -1.0909 -2.5360  0.9879
  110MOL0     H15120   1.885   7.312   1.657  1.9459  1.2985 -1.5681
  110MOL0     H15121   1.858   7.619   1.596  1.9024  0.5530  0.7995
  110MOL0     H15122   1.887   7.509   1.473  0.2705  2.5122 -0.3794
  110MOL0     H15123   2.068   7.540   1.721 -3.8225  2.3051  1.0526
  110MOL0     H15124   2.112   7.460   1.568 -0.1235  1.0287 -3.7250
  110MOL0     H15125   2.054   7.703   1.475  0.8792  1.7189  0.4827
  110MOL0     H15126   2.208   7.624   1.515  1.8864 -0.3627  3.2757
  110MOL0     H15127   2.036   7.786   1.718 -0.1502 -1.1579 -0.5580
  110MOL0     H15128   2.198   7.729   1.742  0.6762  0.9566  1.9008
  110MOL0     H15129   2.018   8.032   1.538  1.3268  0.9261 -3.3195
  110MOL0     H15130   2.109   8.276   1.481  1.1739  1.1275  2.3313
  110MOL0     H15131   2.226   8.220   1.368  2.2668  1.4522 -0.6804
  110MOL0     H15132   2.379   8.308   1.580 -0.7649 -0.2478  0.3830
  110MOL0     H15133   2.314   8.437   1.477  0.1798  1.3752  2.0340
  110MOL0     H15134   2.128   8.472   1.597  0.0838 -0.7287 -1.4834
  110MOL0     H15135   2.144   8.343   1.699 -1.4331  0.7875 -0.2684
  110MOL0     H15136   2.230   8.538   1.805 -2.8713 -1.9870 -1.7448
  110MOL0     H15137   2.376   8.453   1.762 -0.4496 -0.4577  0.0224
  110MOL0     H15138   2.533   8.485   1.527  2.4624 -0.8252 -1.1199
  110MOL0     H15139   2.865   8.533   1.450  0.7863  3.6829  1.6351
  110MOL0     H15140   2.767   8.393   1.492 -0.2964 -0.0686 -0.8301
  110MOL0     H15141   2.880   8.451   1.611 -0.3276 -0.5421 -0.4045
  110MOL0     H15142   2.966   9.049   1.790  0.7445  0.8622 -1.4926
  110MOL0     H15143   3.177   9.179   1.840 -2.4866 -0.5309  0.3381
  110MOL0     H15144   3.483   8.932   2.054 -2.3393  2.6908  1.1773
  110MOL0     H15145   3.563   8.915   1.895 -0.5829  0.3687 -0.2031
  110MOL0     H15146   3.582   9.152   2.092 -2.8240 -3.0052  0.8884
  110MOL0     H15147   3.711   9.030   2.063 -1.2342 -0.1904  0.0964
  110MOL0     H15148   3.657   9.176   1.803 -0.1009  0.9507  0.1501
  110MOL0     H15149   3.780   9.073   1.870  0.0222  0.8365  0.0420
  110MOL0     H15150   3.810   9.263   2.051 -0.5461 -3.5786  0.9295
  110MOL0     H15151   3.706   9.353   1.933  0.3522 -1.4791 -3.3336
  110MOL0     H15152   3.946   9.402   1.897  2.0811 -0.4387  0.0507
  110MOL0     H15153   3.976   9.226   1.866 -0.3532 -0.6169  0.4492
  110MOL0     H15154   3.784   9.403   1.704 -1.2368 -2.9330 -2.6396
  110MOL0     H15155   3.839   9.243   1.650  0.6546  0.1881 -2.7765
  110MOL0     H15156   4.080   9.343   1.659 -1.4294  0.3980  2.7901
  110MOL0     H15157   4.012   9.498   1.666  2.0930  0.6379 -2.8481
  110MOL0     H15158   3.861   9.410   1.451 -1.2608  1.4265  3.2192
  110MOL0     H15159   3.984   9.289   1.452  0.7002 -0.6655  1.3787
  110MOL0     H15160   3.384   8.806   1.805 -0.3398 -0.2401 -1.5471
  110MOL0     H15161   3.171   8.691   1.805  1.3281 -0.3697 -0.2470
  110MOL0     H15162   2.700   8.853   1.805 -2.2474  1.8341 -1.5819
  110MOL0     H15163   2.466   8.816   1.798 -1.2642 -0.6160 -1.5241
  110MOL0     H15164   1.346   7.101   1.995 -1.1454 -1.5374  2.0349
  110MOL0     H15165   1.106   6.972   1.976  0.4492 -1.6580 -1.6847
  110MOL0     H15166   0.768   7.078   1.629  1.1323 -1.4487  1.4944
  110MOL0     H15167   0.542   7.049   1.521  0.5373  1.8433  0.0580
  110MOL0     H15168   0.330   7.078   1.565  1.2100 -0.3612  0.7769
  110MOL0     H15169   0.330   6.992   1.405 -0.2407 -1.4515  0.0432
  110MOL0     H15170   0.131   6.871   1.489  1.0061 -1.0391  1.7222
  110MOL0     H15171   0.096   7.048   1.482 -2.9630 -2.3181  0.3279
  110MOL0     H15172   0.195   7.010   1.746 -1.0126  2.0720 -0.5650
  110MOL0     H15173   0.027   7.016   1.709  0.2707  0.9339  0.5007
  110MOL0     H15174   0.197   6.775   1.765 -0.5004  0.2317  1.4790
  110MOL0     H15175   0.054   6.761   1.669 -1.3374  0.6870 -0.0366
  110MOL0     H15176  -0.048   6.823   2.093  0.5400  3.1147  0.6736
  110MOL0     H15177   0.471   6.699   1.734 -0.7978  1.6070  0.9111
  110MOL0     H15178   0.626   6.602   1.912  1.9915 -1.4627  0.6778
  110MOL0     H15179   0.781   6.613   1.839 -1.4872 -0.9393 -2.4552
  110MOL0     H15180   0.737   6.729   1.971 -0.9847  4.3417 -1.7259
  111MOL0     O15181   9.542   4.105   9.741 -0.1318  0.3282  0.5165
  111MOL0     C15182   9.437   4.039   9.768 -0.0276  0.1104  0.2754
  111MOL0     O15183   9.395   4.004   9.893  0.4766 -0.0589  0.3291
  111MOL0     C15184   9.419   4.072  10.009 -0.5637 -0.0911 -0.4025
  111MOL0     C15185   9.450   4.211  10.025  0.1573  0.1870  0.4611
  111MOL0     C15186   9.452   4.274  10.148  0.3944  0.2269 -0.9927
  111MOL0     C15187   9.420   4.194  10.260  0.9185 -0.6765  0.4144
  111MOL0     O15188   9.417   4.243  10.396  0.4760  0.6382  0.0582
  111MOL0     C15189   9.360   4.374  10.419 -0.9529  0.0676 -0.9684
  111MOL0     C15190   9.384   4.435  10.553  0.7742 -0.2011 -0.1991
  111MOL0     C15191   9.297   4.373  10.672 -0.2480 -0.7132 -0.0170
  111MOL0     C15192   9.268   4.472  10.788  0.1180 -0.1860  0.4589
  111MOL0     C15193   9.193   4.397  10.896  0.5713 -0.4785 -0.7051
  111MOL0     C15194   9.160   4.478  11.017  0.6623  0.7294 -0.9267
  111MOL0     C15195   9.102   4.380  11.123  0.8722 -0.2338 -0.0507
  111MOL0     C15196   9.035   4.452  11.243  0.1881  0.5509  0.0005
  111MOL0     N15197   8.923   4.541  11.212  0.8840  0.8027  0.4311
  111MOL0     C15198   8.792   4.521  11.245 -0.6473  1.1818 -0.1859
  111MOL0     C15199   8.741   4.643  11.229  0.1166  0.2961  0.3121
  111MOL0     C15200   8.599   4.673  11.269 -0.5670 -0.1088 -0.5593
  111MOL0     C15201   8.507   4.677  11.142 -0.3780 -0.6003 -0.8236
  111MOL0     C15202   8.460   4.528  11.104 -0.2502 -0.1122  1.5575
  111MOL0     C15203   8.563   4.462  11.012  0.4267 -0.0577  1.0424
  111MOL0     O15204   8.525   4.406  10.885 -0.4709 -0.5961  0.8136
  111MOL0     C15205   8.602   4.308  10.823 -0.8340  1.2298  0.1794
  111MOL0     C15206   8.531   4.208  10.766  0.4274 -0.1088  0.0268
  111MOL0     C15207   8.590   4.093  10.705 -0.1967 -0.0861  0.6653
  111MOL0     C15208   8.499   3.981  10.667 -0.8949  0.1971 -0.7448
  111MOL0     C15209   8.729   4.089  10.702 -0.0032  0.0822 -0.0739
  111MOL0     C15210   8.801   3.983  10.628 -0.3762  0.8683  0.6217
  111MOL0     O15211   8.940   3.987  10.636  0.9646 -0.1318  0.4266
  111MOL0     C15212   9.003   3.892  10.565  0.0189  0.7471 -0.6231
  111MOL0     C15213   9.017   3.759  10.601  1.0999  1.2216  0.6381
  111MOL0     C15214   9.089   3.664  10.524 -0.2839  0.3664  0.2509
  111MOL0     C15215   9.153   3.710  10.411 -0.1915 -0.0307  0.5860
  111MOL0     O15216   9.252   3.635  10.344  0.0929 -0.5775  0.2496
  111MOL0     C15217   9.296   3.502  10.382  0.7196 -0.5521  0.2511
  111MOL0     C15218   9.416   3.457  10.296 -0.2527  0.0864  0.4998
  111MOL0     C15219   9.533   3.559  10.302  0.2991 -0.9489  0.4708
  111MOL0     C15220   9.639   3.511  10.196  0.1720  0.2549 -1.0862
  111MOL0     C15221   9.766   3.594  10.196 -0.0470  0.9269  0.8620
  111MOL0     C15222   9.738   3.734  10.149  0.3479  0.4647 -0.2840
  111MOL0     C15223   9.860   3.808  10.117  0.3616  0.3805 -0.1478
  111MOL0     C15224   9.925   3.764   9.987 -0.5222 -0.1275  0.0464
  111MOL0    Cl15225   9.994   3.910   9.903  0.2399 -0.5185 -0.5356
  111MOL0     C15226   9.129   3.841  10.371 -0.0702 -0.1405  0.4591
  111MOL0     C15227   9.055   3.934  10.443 -0.4527  0.2337 -0.1909
  111MOL0     O15228   8.738   3.906  10.556 -0.3461  0.0208 -0.0345
  111MOL0     C15229   8.797   4.198  10.760 -0.1576 -0.1454  0.4962
  111MOL0     C15230   8.738   4.308  10.813 -0.8007  0.0707  0.1741
  111MOL0     N15231   8.826   4.735  11.179 -0.9551 -0.2054 -0.3705
  111MOL0     N15232   8.941   4.670  11.179  0.5572 -0.4588 -0.0183
  111MOL0     C15233   9.406   4.055  10.246  0.4234 -0.2540 -0.7445
  111MOL0     C15234   9.403   3.989  10.126  0.3742 -0.2617  0.2335
  111MOL0     C15235   9.370   3.967   9.652  0.1662  0.3491  0.1822
  111MOL0     C15236   9.273   3.874   9.680 -0.4857 -0.3780  0.4826
  111MOL0     C15237   9.209   3.809   9.578 -0.0191  0.7234  0.3230
  111MOL0     C15238   9.224   3.848   9.447 -0.4654 -0.4483  0.6596
  111MOL0     O15239   9.131   3.794   9.357  0.0151 -0.7379 -0.3468
  111MOL0     C15240   9.104   3.839   9.223 -0.1150  0.2133  1.0078
  111MOL0     C15241   9.023   3.727   9.136 -0.7177  0.0992 -1.2903
  111MOL0     C15242   8.873   3.728   9.163 -0.4332  0.2147 -0.0192
  111MOL0     C15243   8.840   3.719   9.313  0.0225  0.5721  0.4068
  111MOL0     C15244   8.697   3.697   9.336 -0.7748 -0.2402 -1.4953
  111MOL0     C15245   8.575   3.675   9.349 -0.2445  1.0019  0.5070
  111MOL0     C15246   9.320   3.947   9.413  0.4298  0.0682 -0.9138
  111MOL0     C15247   9.389   4.004   9.517  0.4483 -0.0649  0.1267
  111MOL0     C15248   9.485   4.105   9.472  1.2422 -0.5050 -0.2204
  111MOL0     H15249   9.471   4.273   9.939 -0.4247  2.8299  2.0937
  111MOL0     H15250   9.469   4.381  10.148 -0.7246  0.4288  0.1067
  111MOL0     H15251   9.254   4.368  10.393 -1.7296 -1.7203  2.1010
  111MOL0     H15252   9.411   4.446  10.355 -1.4563  0.8563 -0.4927
  111MOL0     H15253   9.491   4.430  10.574  0.3672 -4.0630  1.7220
  111MOL0     H15254   9.354   4.540  10.554  0.1830 -0.3519  1.5676
  111MOL0     H15255   9.197   4.352  10.631  0.5721  1.2572 -3.4448
  111MOL0     H15256   9.346   4.282  10.708  1.1828 -0.3736 -1.0176
  111MOL0     H15257   9.367   4.505  10.822 -0.3280  1.5834  0.1177
  111MOL0     H15258   9.213   4.564  10.763 -0.2796 -0.3701  0.6485
  111MOL0     H15259   9.240   4.302  10.922 -1.0914 -1.7751 -2.1832
  111MOL0     H15260   9.100   4.354  10.859 -0.1642 -2.0068  2.5308
  111MOL0     H15261   9.251   4.523  11.058  1.0592  0.0129 -1.0026
  111MOL0     H15262   9.086   4.550  10.981 -2.8839 -3.0331 -1.9130
  111MOL0     H15263   9.179   4.313  11.163  0.3429  1.4626  4.2892
  111MOL0     H15264   9.021   4.321  11.080  0.5085 -2.2807  3.1416
  111MOL0     H15265   9.004   4.380  11.320 -4.1977  2.2119  0.0753
  111MOL0     H15266   9.117   4.514  11.283  2.9747 -0.8679 -3.0436
  111MOL0     H15267   8.758   4.429  11.292  1.2769  0.8015  0.5522
  111MOL0     H15268   8.603   4.767  11.325 -1.9240 -1.9686  2.9404
  111MOL0     H15269   8.562   4.602  11.343 -0.5683  2.0603  1.6638
  111MOL0     H15270   8.412   4.721  11.176 -1.7126 -2.2834 -2.2112
  111MOL0     H15271   8.553   4.729  11.058  3.0801  0.5213  1.5670
  111MOL0     H15272   8.434   4.467  11.192  0.0058 -0.0229  1.6951
  111MOL0     H15273   8.368   4.540  11.046  1.7765 -0.5035 -2.0042
  111MOL0     H15274   8.636   4.540  10.988 -0.9964  0.5152 -1.9149
  111MOL0     H15275   8.616   4.381  11.063  2.4120 -0.8488 -1.9899
  111MOL0     H15276   8.426   4.236  10.769  1.2181  3.1486  1.3675
  111MOL0     H15277   8.400   4.019  10.694  0.0164  0.8975  2.0145
  111MOL0     H15278   8.524   3.905  10.741  0.7716  2.5699  1.3385
  111MOL0     H15279   8.505   3.950  10.562  2.7578 -0.5000 -0.4739
  111MOL0     H15280   8.976   3.743  10.700  0.5312  0.2277  0.2533
  111MOL0     H15281   9.108   3.560  10.548 -3.2879 -0.2680  0.2665
  111MOL0     H15282   9.315   3.487  10.488 -2.9258 -0.7381  0.9934
  111MOL0     H15283   9.209   3.447  10.344  0.1200  2.0675 -2.6705
  111MOL0     H15284   9.450   3.365  10.346 -0.8750 -0.9661 -0.9553
  111MOL0     H15285   9.376   3.449  10.195  2.3766  1.5650 -0.7293
  111MOL0     H15286   9.584   3.563  10.399  1.1053  3.4090  0.0806
  111MOL0     H15287   9.499   3.662  10.287 -3.7151 -1.9195  1.7690
  111MOL0     H15288   9.596   3.507  10.096  2.9084  1.3984 -2.3833
  111MOL0     H15289   9.666   3.410  10.225  3.0960  1.2317 -0.0951
  111MOL0     H15290   9.817   3.596  10.293  2.7168  0.9249 -0.4685
  111MOL0     H15291   9.833   3.555  10.118 -0.7913  2.6794 -0.7234
  111MOL0     H15292   9.685   3.789  10.227 -2.5955 -3.6056  0.9426
  111MOL0     H15293   9.680   3.733  10.057 -2.4633  1.5439  1.3742
  111MOL0     H15294   9.940   3.816  10.191  1.1047 -0.5924 -0.8131
  111MOL0     H15295   9.830   3.913  10.117  2.2454  1.0188  2.4231
  111MOL0     H15296   9.853   3.720   9.918 -0.3355  0.8252 -0.7774
  111MOL0     H15297  10.010   3.698  10.006  1.8883  3.1806  1.7298
  111MOL0     H15298   9.173   3.869  10.277 -0.6943 -1.9202 -0.4183
  111MOL0     H15299   9.040   4.039  10.417 -1.4236  0.1388 -0.0246
  111MOL0     H15300   8.905   4.190  10.772 -0.0575 -2.6249 -1.4193
  111MOL0     H15301   8.803   4.377  10.864  1.8646 -1.5199 -0.8620
  111MOL0     H15302   9.392   3.995  10.335 -3.0260 -1.6261 -2.0384
  111MOL0     H15303   9.382   3.882  10.118  0.7715 -0.2880 -0.6537
  111MOL0     H15304   9.257   3.844   9.783  0.5134 -1.7569  0.2676
  111MOL0     H15305   9.145   3.727   9.608  0.7136  0.5627  1.5154
  111MOL0     H15306   9.044   3.929   9.238 -1.8502 -1.0504  2.1104
  111MOL0     H15307   9.199   3.853   9.170 -1.3160  0.5607 -1.1728
  111MOL0     H15308   9.064   3.629   9.164  0.8073  0.7707 -1.0899
  111MOL0     H15309   9.042   3.741   9.029 -1.0975  0.2759 -1.3335
  111MOL0     H15310   8.840   3.825   9.127  2.6535  1.5112  0.3658
  111MOL0     H15311   8.827   3.640   9.115 -2.2240  1.4652 -0.7043
  111MOL0     H15312   8.864   3.819   9.351  0.0042  1.3869 -1.5830
  111MOL0     H15313   8.897   3.644   9.368  2.7108  0.6038 -2.1058
  111MOL0     H15314   8.471   3.651   9.354  0.0679 -0.1595  2.1361
  111MOL0     H15315   9.335   3.985   9.313 -4.4142  1.2791 -1.4251
  111MOL0     H15316   9.465   4.204   9.514  1.3447 -0.4615 -0.2748
  111MOL0     H15317   9.588   4.080   9.497  2.1353  3.1783  0.2538
  111MOL0     H15318   9.490   4.105   9.363  2.1227 -2.5026 -0.2155
  112MOL0     O15319  10.547  11.188  10.045 -0.3698 -0.2209 -0.8139
  112MOL0     C15320  10.512  11.214   9.928  0.3790  0.0778 -0.9033
  112MOL0     O15321  10.563  11.311   9.856 -0.5457 -0.2284  0.8946
  112MOL0     C15322  10.671  11.383   9.904 -0.3732 -0.2125 -0.2313
  112MOL0     C15323  10.782  11.316   9.950 -0.0123 -0.4603 -0.2510
  112MOL0     C15324  10.893  11.384  10.000  0.5430  0.1130  0.2352
  112MOL0     C15325  10.894  11.525  10.007  0.1573  1.2578  0.3031
  112MOL0     O15326  11.011  11.581  10.047  0.3329 -0.0809  0.0943
  112MOL0     C15327  11.005  11.672  10.157  0.5481  0.4586  0.0986
  112MOL0     C15328  11.144  11.729  10.181 -0.3817  0.1985  0.6777
  112MOL0     C15329  11.220  11.626  10.273  0.1436 -0.0889  0.4800
  112MOL0     C15330  11.238  11.477  10.236 -0.0579 -0.1778  0.2336
  112MOL0     C15331  11.337  11.458  10.116  0.3721 -0.4735  0.0096
  112MOL0     C15332  11.320  11.313  10.060 -0.2049  0.1750  0.3510
  112MOL0     C15333  11.384  11.207  10.148 -0.0139 -1.1994 -0.8120
  112MOL0     C15334  11.352  11.068  10.110 -0.0858 -0.4543 -0.4397
  112MOL0     N15335  11.448  10.972  10.166 -0.9482  1.1548 -0.1795
  112MOL0     C15336  11.521  10.981  10.281  0.1152  0.4501 -0.5162
  112MOL0     C15337  11.604  10.871  10.278 -0.8870  0.0572 -0.0055
  112MOL0     C15338  11.715  10.843  10.381 -0.0926 -0.6633  1.0462
  112MOL0     C15339  11.691  10.736  10.494 -0.8906 -0.6956  1.3612
  112MOL0     C15340  11.562  10.746  10.576  0.1211 -0.2816 -0.3576
  112MOL0     C15341  11.505  10.609  10.619 -0.0451  0.4865 -0.3227
  112MOL0     O15342  11.586  10.536  10.720 -0.8961 -0.3463 -0.0020
  112MOL0     C15343  11.596  10.598  10.844  0.1382  0.8114  0.1072
  112MOL0     C15344  11.718  10.591  10.912 -0.7361  0.8120 -0.6125
  112MOL0     C15345  11.740  10.655  11.040  0.5210  0.9005 -0.6186
  112MOL0     C15346  11.879  10.656  11.095 -0.3158 -0.3369  0.5484
  112MOL0     C15347  11.625  10.712  11.108  0.8461  0.0679 -0.1541
  112MOL0     C15348  11.623  10.775  11.234  0.6015  0.3381 -0.1164
  112MOL0     O15349  11.502  10.766  11.307  0.2665 -0.5797  0.7057
  112MOL0     C15350  11.516  10.793  11.441 -0.2177 -0.9914  0.8391
  112MOL0     C15351  11.545  10.686  11.536  0.4491 -0.6693  0.5834
  112MOL0     C15352  11.567  10.732  11.665 -0.2157 -0.2457  0.3973
  112MOL0     C15353  11.580  10.864  11.696  0.8007 -0.6665 -0.7026
  112MOL0     O15354  11.626  10.918  11.808  0.7719  0.0089  0.1707
  112MOL0     C15355  11.753  10.880  11.858  0.3710 -0.3466 -0.2133
  112MOL0     C15356  11.782  10.993  11.958  0.7736 -0.3433  0.5475
  112MOL0     C15357  11.797  11.126  11.879  0.6913  0.5634 -0.1755
  112MOL0     C15358  11.935  11.190  11.921  0.1194 -0.5236 -0.3906
  112MOL0     C15359  11.969  11.332  11.866 -0.4971  0.2251  0.7041
  112MOL0     C15360  12.116  11.376  11.904  0.4610  0.6845 -0.0750
  112MOL0     C15361  12.136  11.515  11.844  0.3584  0.9118 -0.2849
  112MOL0     C15362  12.282  11.551  11.838  0.3796  0.9288 -0.3409
  112MOL0    Cl15363  12.355  11.544  12.005  0.0284 -0.1024  0.4621
  112MOL0     C15364  11.549  10.958  11.603 -1.1606  0.1998  0.1717
  112MOL0     C15365  11.519  10.931  11.476  0.3110  0.4068 -0.5583
  112MOL0     O15366  11.719  10.839  11.263 -0.3304  0.6449 -0.4274
  112MOL0     C15367  11.502  10.704  11.036 -0.1993  0.6931 -0.0163
  112MOL0     C15368  11.486  10.648  10.913  0.0008 -0.1288 -0.6432
  112MOL0     N15369  11.578  10.790  10.177  0.1768 -0.2855  0.2637
  112MOL0     N15370  11.488  10.853  10.107 -0.5632 -0.1784  0.4995
  112MOL0     C15371  10.790  11.605   9.964  0.4740 -1.0981 -0.5294
  112MOL0     C15372  10.673  11.528   9.915 -0.1906  0.7639 -0.2151
  112MOL0     C15373  10.401  11.137   9.864  0.4439 -0.8395 -0.5305
  112MOL0     C15374  10.346  11.186   9.736 -0.6164 -0.1172  0.0074
  112MOL0     C15375  10.245  11.117   9.666 -0.0188  0.0223  0.3393
  112MOL0     C15376  10.186  11.005   9.720 -0.4098 -0.3244  0.1881
  112MOL0     O15377  10.088  10.930   9.657  0.9904  0.0499 -0.2172
  112MOL0     C15378   9.965  11.013   9.656  0.0800  0.0243  0.2596
  112MOL0     C15379   9.886  11.010   9.782 -0.3392 -0.4065  0.3943
  112MOL0     C15380   9.837  10.865   9.814 -0.5626 -0.3809  0.5611
  112MOL0     C15381   9.745  10.860   9.924 -0.0125  0.4217 -0.6501
  112MOL0     C15382   9.819  10.880  10.046 -0.2637  0.0875  0.2324
  112MOL0     C15383   9.890  10.876  10.145 -0.7637  0.1594 -0.8498
  112MOL0     C15384  10.233  10.954   9.844  1.7072  0.2404  0.3205
  112MOL0     C15385  10.334  11.019   9.920 -0.2721 -0.7496  1.3623
  112MOL0     C15386  10.366  10.940  10.052  0.4245  0.1553  0.4985
  112MOL0     H15387  10.794  11.209   9.941  2.4557 -0.2553 -0.0656
  112MOL0     H15388  10.975  11.319  10.028 -0.0671 -0.5710  0.4716
  112MOL0     H15389  10.963  11.628  10.248  0.3079 -0.2753 -0.3596
  112MOL0     H15390  10.942  11.757  10.128  2.5085  1.4476 -1.4809
  112MOL0     H15391  11.198  11.738  10.086 -0.0998 -1.2414  0.6792
  112MOL0     H15392  11.132  11.833  10.213  0.4808  0.4479  0.2084
  112MOL0     H15393  11.322  11.664  10.263  0.1701  0.1530  1.5406
  112MOL0     H15394  11.177  11.644  10.371 -2.1925  0.0923 -0.5107
  112MOL0     H15395  11.278  11.422  10.321  2.0523  1.2199  0.2223
  112MOL0     H15396  11.139  11.436  10.214 -1.1093  1.6543  1.2861
  112MOL0     H15397  11.439  11.474  10.153  0.4290 -1.1461  0.1481
  112MOL0     H15398  11.317  11.533  10.039  0.4796  0.5723  0.9815
  112MOL0     H15399  11.216  11.279  10.056  0.5449 -2.2273 -2.7704
  112MOL0     H15400  11.375  11.300   9.966 -2.3002  0.2985 -0.9489
  112MOL0     H15401  11.363  11.216  10.255  2.2226 -0.0216 -0.4253
  112MOL0     H15402  11.493  11.215  10.149 -0.1842  3.1231 -0.1057
  112MOL0     H15403  11.253  11.037  10.146  0.3443  0.1136  1.3245
  112MOL0     H15404  11.338  11.066  10.002 -1.0094  3.2829 -0.5079
  112MOL0     H15405  11.519  11.064  10.351 -0.3563  0.4010 -0.4720
  112MOL0     H15406  11.749  10.936  10.426 -0.4124  1.4667 -2.7556
  112MOL0     H15407  11.795  10.827  10.308 -1.0663  3.0700 -1.0601
  112MOL0     H15408  11.692  10.644  10.435  1.5060 -1.2377  2.1436
  112MOL0     H15409  11.776  10.735  10.562 -0.6116 -1.6972  1.0175
  112MOL0     H15410  11.594  10.801  10.665  4.0167  0.2512 -1.8691
  112MOL0     H15411  11.491  10.805  10.518  1.0133  0.3101 -0.8658
  112MOL0     H15412  11.397  10.614  10.633 -0.3767  3.1947 -2.8220
  112MOL0     H15413  11.517  10.548  10.529  3.8211  0.2978  0.1490
  112MOL0     H15414  11.794  10.528  10.867 -2.7520 -2.3957  0.1788
  112MOL0     H15415  11.928  10.559  11.088  0.9858  0.2831  0.8053
  112MOL0     H15416  11.898  10.687  11.199  3.0282  1.0493 -0.3335
  112MOL0     H15417  11.940  10.726  11.037 -1.0786  0.1737  0.3444
  112MOL0     H15418  11.538  10.582  11.507 -0.6141 -0.0758 -1.4870
  112MOL0     H15419  11.582  10.661  11.746  0.6156 -2.0446 -1.2518
  112MOL0     H15420  11.748  10.779  11.900  0.4056 -0.7365 -1.1103
  112MOL0     H15421  11.820  10.870  11.771 -1.0241 -2.7625 -1.1212
  112MOL0     H15422  11.691  11.000  12.018  0.1774 -1.3613 -0.1960
  112MOL0     H15423  11.867  10.969  12.023  1.2948  0.7630  0.2955
  112MOL0     H15424  11.714  11.192  11.904  0.1665 -0.7869  1.9264
  112MOL0     H15425  11.775  11.106  11.773  1.2173 -3.3107  0.3025
  112MOL0     H15426  12.012  11.116  11.902  0.7809 -0.5197  1.9116
  112MOL0     H15427  11.937  11.205  12.030  2.5750 -2.7010 -0.0673
  112MOL0     H15428  11.956  11.331  11.758 -1.9667 -0.2047  0.8698
  112MOL0     H15429  11.896  11.404  11.904 -1.1151 -1.3413  2.6407
  112MOL0     H15430  12.173  11.301  11.847 -4.1592 -1.1162 -2.9246
  112MOL0     H15431  12.133  11.372  12.012 -2.2902  0.8683  0.4254
  112MOL0     H15432  12.086  11.584  11.913 -0.1081 -0.9277  1.3022
  112MOL0     H15433  12.088  11.514  11.746  0.8201  0.4554 -0.5083
  112MOL0     H15434  12.306  11.647  11.792  2.8709  0.8155  0.5316
  112MOL0     H15435  12.339  11.481  11.774  2.4135  1.1988  1.0757
  112MOL0     H15436  11.555  11.064  11.623 -0.2605 -0.1157  1.7486
  112MOL0     H15437  11.501  11.000  11.394  1.2967 -0.4444 -1.5289
  112MOL0     H15438  11.405  10.735  11.074  0.4455  3.0674 -0.1485
  112MOL0     H15439  11.392  10.641  10.860  0.0159  0.8372 -0.8093
  112MOL0     H15440  10.788  11.713   9.953  2.4902 -0.9909 -0.2997
  112MOL0     H15441  10.581  11.582   9.893 -0.6066  0.9186  1.7426
  112MOL0     H15442  10.379  11.278   9.690 -2.3802  0.8601  0.6320
  112MOL0     H15443  10.203  11.165   9.578 -1.0713  1.2953  1.4827
  112MOL0     H15444   9.982  11.119   9.638 -0.4318  0.3631  1.6384
  112MOL0     H15445   9.898  10.977   9.577  0.4038  2.4037 -1.1946
  112MOL0     H15446   9.796  11.070   9.772 -0.2393 -0.6924 -4.1174
  112MOL0     H15447   9.936  11.047   9.872 -1.7148  1.6266  0.3920
  112MOL0     H15448   9.787  10.818   9.729  0.7737 -1.1397  0.1640
  112MOL0     H15449   9.927  10.803   9.814 -0.2082  0.0030 -2.3262
  112MOL0     H15450   9.707  10.757   9.927 -1.5701  0.9730 -0.7406
  112MOL0     H15451   9.665  10.926   9.891 -1.2035 -1.3328 -1.4382
  112MOL0     H15452   9.936  10.866  10.241 -3.2473 -1.2756  0.3150
  112MOL0     H15453  10.181  10.867   9.882 -2.3764  1.6375 -1.4351
  112MOL0     H15454  10.403  10.841  10.028  0.4267  0.4529 -0.8100
  112MOL0     H15455  10.443  10.990  10.112  1.5669  0.2157 -0.9563
  112MOL0     H15456  10.277  10.937  10.117 -0.7697 -0.2945 -1.0983
  113MOL0     O15457  10.417   8.992   2.463  0.6858  0.4925 -0.7822
  113MOL0     C15458  10.464   8.887   2.486 -1.3431  0.2164  1.1238
  113MOL0     O15459  10.491   8.828   2.601 -0.0771  0.0669 -0.0187
  113MOL0     C15460  10.484   8.902   2.722  0.2049  1.0646  0.1729
  113MOL0     C15461  10.536   9.039   2.735  1.3915  0.2563 -0.6094
  113MOL0     C15462  10.544   9.096   2.866 -1.0724  0.0875  0.4430
  113MOL0     C15463  10.500   9.028   2.979 -0.1943  0.0857  0.6078
  113MOL0     O15464  10.496   9.064   3.105 -0.3358 -0.5164  0.3675
  113MOL0     C15465  10.550   9.196   3.137  0.0176  0.6419  0.1807
  113MOL0     C15466  10.562   9.195   3.293 -0.4446  0.2467  0.1584
  113MOL0     C15467  10.424   9.229   3.366 -0.7485  0.1394  0.6040
  113MOL0     C15468  10.370   9.095   3.422  0.3392  0.2449  0.1144
  113MOL0     C15469  10.220   9.113   3.443 -0.4024  0.5115 -0.5788
  113MOL0     C15470  10.143   9.114   3.309  0.3593 -0.7552  1.1363
  113MOL0     C15471  10.009   9.035   3.308  0.5174 -0.4914  0.1132
  113MOL0     C15472   9.887   9.123   3.313  0.1186  0.5800 -0.1859
  113MOL0     N15473   9.780   9.040   3.377 -0.7467 -0.9460 -0.0079
  113MOL0     C15474   9.753   9.055   3.512  0.7110  1.0808  0.5400
  113MOL0     C15475   9.640   8.969   3.520  0.1418 -1.0548 -1.3745
  113MOL0     C15476   9.553   8.983   3.639  0.8669  0.4706 -0.6036
  113MOL0     C15477   9.599   8.880   3.750 -0.0546 -0.8237 -0.1536
  113MOL0     C15478   9.620   8.732   3.709 -0.4520  0.0991 -1.2748
  113MOL0     C15479   9.561   8.629   3.807 -0.2140 -0.2784  0.2984
  113MOL0     O15480   9.608   8.656   3.943 -0.2593 -0.3834 -0.4362
  113MOL0     C15481   9.595   8.552   4.031 -0.2450  0.7073 -0.9955
  113MOL0     C15482   9.507   8.437   4.022 -0.0272 -0.6754  0.1743
  113MOL0     C15483   9.515   8.333   4.109 -1.1855  0.4711 -0.1004
  113MOL0     C15484   9.429   8.217   4.060 -0.4252  0.4059  0.5641
  113MOL0     C15485   9.599   8.339   4.219  0.2542  0.0787  0.8575
  113MOL0     C15486   9.580   8.254   4.340 -0.0935 -0.4475  1.0489
  113MOL0     O15487   9.467   8.189   4.362 -0.7732 -0.2846 -0.2763
  113MOL0     C15488   9.443   8.100   4.466 -0.5165 -0.7129  0.1012
  113MOL0     C15489   9.343   8.012   4.441 -0.1370  0.2954 -0.2237
  113MOL0     C15490   9.313   7.901   4.515  0.6189  1.1052  0.0963
  113MOL0     C15491   9.380   7.887   4.633 -0.2275  0.0801 -0.3484
  113MOL0     O15492   9.368   7.775   4.716 -0.5531 -0.2633  0.7841
  113MOL0     C15493   9.431   7.660   4.662  0.1523  0.8428  0.4792
  113MOL0     C15494   9.590   7.659   4.690  0.3024  0.4319  0.0661
  113MOL0     C15495   9.679   7.728   4.588 -0.2670 -0.1019  0.0418
  113MOL0     C15496   9.829   7.733   4.633 -0.3869 -0.2573  1.1551
  113MOL0     C15497   9.929   7.752   4.523 -0.5041  0.2111  0.1766
  113MOL0     C15498   9.900   7.849   4.414  0.1944 -0.1763  0.3749
  113MOL0     C15499   9.956   7.988   4.450  0.9455 -0.4262 -0.8120
  113MOL0     C15500   9.932   8.078   4.327  0.0955  0.0645  0.0742
  113MOL0    Cl15501  10.057   8.029   4.203 -0.0013 -0.2800 -0.7000
  113MOL0     C15502   9.469   7.994   4.682  0.4059 -0.1653  1.1488
  113MOL0     C15503   9.505   8.096   4.591 -0.4227 -0.5736 -1.0924
  113MOL0     O15504   9.686   8.245   4.405  0.7722  0.0345  0.9781
  113MOL0     C15505   9.691   8.447   4.225  0.1477  0.2053  0.3446
  113MOL0     C15506   9.690   8.555   4.133 -0.0440  0.6261 -0.3287
  113MOL0     N15507   9.609   8.920   3.402 -0.0972  0.8886  0.3569
  113MOL0     N15508   9.694   8.958   3.314  0.8271  0.7285 -0.4141
  113MOL0     C15509  10.453   8.896   2.958 -0.5150 -1.2945  0.6271
  113MOL0     C15510  10.438   8.839   2.832 -0.6881  0.0239  0.3138
  113MOL0     C15511  10.495   8.812   2.366 -0.2937 -0.1715 -0.1945
  113MOL0     C15512  10.416   8.816   2.252  0.9389 -0.0837  0.0412
  113MOL0     C15513  10.449   8.765   2.127  0.5242 -0.2920 -0.4974
  113MOL0     C15514  10.572   8.708   2.108  0.5588 -0.1534 -0.7758
  113MOL0     O15515  10.604   8.668   1.987 -0.0748 -0.2359 -0.5321
  113MOL0     C15516  10.728   8.599   1.970  0.9416  0.7836  0.1083
  113MOL0     C15517  10.845   8.692   1.943  0.3656  0.5462  0.3345
  113MOL0     C15518  10.856   8.749   1.800 -0.3797  0.5874 -0.3026
  113MOL0     C15519  10.949   8.676   1.703  0.0400  0.4139 -0.4294
  113MOL0     C15520  10.919   8.529   1.695 -0.0346  0.3655  0.2680
  113MOL0     C15521  10.898   8.408   1.686  0.1238 -0.7592 -0.4546
  113MOL0     C15522  10.652   8.697   2.224 -0.3988 -0.3794 -0.7689
  113MOL0     C15523  10.618   8.743   2.352 -0.6145 -0.4397 -0.1629
  113MOL0     C15524  10.723   8.737   2.458  0.3825  0.0779  0.7641
  113MOL0     H15525  10.562   9.093   2.644 -3.7890  1.1650 -1.8586
  113MOL0     H15526  10.587   9.196   2.871 -1.4910  0.3309 -0.5513
  113MOL0     H15527  10.490   9.279   3.098  0.5815  0.2801 -1.5739
  113MOL0     H15528  10.650   9.209   3.093 -0.5596 -0.1024 -1.4278
  113MOL0     H15529  10.615   9.105   3.326  1.9412  1.6943  0.5138
  113MOL0     H15530  10.638   9.271   3.314  0.3098 -0.1931 -0.8877
  113MOL0     H15531  10.429   9.304   3.445 -1.6844  0.1894  0.6270
  113MOL0     H15532  10.357   9.273   3.291 -0.3061  1.4733  0.9635
  113MOL0     H15533  10.393   9.011   3.357  2.6096 -0.0843  1.2730
  113MOL0     H15534  10.419   9.066   3.515  3.9144 -1.3154 -2.0259
  113MOL0     H15535  10.204   9.214   3.484 -0.0604  0.3699 -0.0864
  113MOL0     H15536  10.184   9.043   3.519  2.6393 -1.2617 -0.6071
  113MOL0     H15537  10.121   9.215   3.272  1.7544  0.0318  2.3707
  113MOL0     H15538  10.205   9.067   3.232 -0.9176 -5.3386  2.5385
  113MOL0     H15539  10.018   8.978   3.401  4.2958 -1.5644 -0.7597
  113MOL0     H15540  10.008   8.962   3.226  1.1401 -1.5120  0.9840
  113MOL0     H15541   9.911   9.209   3.376  3.1206 -1.1742  1.2797
  113MOL0     H15542   9.880   9.141   3.206  2.5452 -1.3343 -0.7512
  113MOL0     H15543   9.813   9.107   3.586  0.3197  2.6534 -0.2035
  113MOL0     H15544   9.451   8.958   3.606  1.8515 -1.0450 -2.7017
  113MOL0     H15545   9.554   9.087   3.672  1.7522  0.7188 -1.3718
  113MOL0     H15546   9.684   8.931   3.798 -0.4349  0.8291 -1.1375
  113MOL0     H15547   9.522   8.882   3.829 -0.9530  1.0537 -0.9988
  113MOL0     H15548   9.579   8.731   3.607  0.5088  1.6857 -1.7133
  113MOL0     H15549   9.727   8.712   3.708  0.0530  1.6696  2.8575
  113MOL0     H15550   9.453   8.640   3.806 -0.3949 -0.8755  3.7212
  113MOL0     H15551   9.597   8.532   3.770  2.5645 -0.0207  2.0710
  113MOL0     H15552   9.436   8.442   3.940  2.6171  3.8238 -2.2552
  113MOL0     H15553   9.437   8.125   4.119  1.1028  1.9471  2.9624
  113MOL0     H15554   9.453   8.192   3.956  1.1198 -4.2482  1.8038
  113MOL0     H15555   9.323   8.244   4.070 -1.3953 -2.9559  0.4164
  113MOL0     H15556   9.287   8.014   4.348 -0.9748 -0.8735  0.2208
  113MOL0     H15557   9.241   7.828   4.479  0.7271  2.1023 -2.3202
  113MOL0     H15558   9.379   7.578   4.713 -1.2860 -0.1322 -2.3606
  113MOL0     H15559   9.417   7.642   4.555  0.4088  0.2213  0.5514
  113MOL0     H15560   9.596   7.707   4.789  1.0310  1.4648 -0.4608
  113MOL0     H15561   9.616   7.553   4.696  2.1774  0.8782  0.4782
  113MOL0     H15562   9.643   7.827   4.559 -0.5540 -0.6012 -1.4149
  113MOL0     H15563   9.679   7.668   4.496  0.6823 -3.9899  2.3485
  113MOL0     H15564   9.854   7.644   4.691 -1.3064 -0.1109  1.7883
  113MOL0     H15565   9.835   7.813   4.708  1.0275 -1.8645  2.8593
  113MOL0     H15566  10.029   7.766   4.565 -0.3588 -0.0611 -0.0768
  113MOL0     H15567   9.931   7.654   4.474 -0.2929  0.5188 -0.4418
  113MOL0     H15568   9.792   7.852   4.399  0.4186  0.0170 -1.4904
  113MOL0     H15569   9.944   7.815   4.320 -1.7933 -1.2637 -0.2209
  113MOL0     H15570  10.061   7.984   4.478  1.4509 -3.8992 -2.6246
  113MOL0     H15571   9.902   8.023   4.538  1.4265 -0.7353 -0.3892
  113MOL0     H15572   9.946   8.185   4.346  1.8478  0.0301 -0.7993
  113MOL0     H15573   9.830   8.073   4.290  0.0474  0.1060  0.2018
  113MOL0     H15574   9.523   7.976   4.775  1.4539  2.1501  1.0741
  113MOL0     H15575   9.572   8.179   4.609 -2.2448  0.8492 -0.5944
  113MOL0     H15576   9.772   8.448   4.297  0.8743  1.4134 -0.4457
  113MOL0     H15577   9.763   8.635   4.131  0.0329  0.6451 -3.6245
  113MOL0     H15578  10.419   8.846   3.049 -0.5109  3.6257  3.6826
  113MOL0     H15579  10.397   8.740   2.814 -1.9039 -0.0513  2.9223
  113MOL0     H15580  10.311   8.845   2.259  0.2090 -2.1771 -1.3047
  113MOL0     H15581  10.369   8.764   2.053  0.0620 -1.1784  0.0016
  113MOL0     H15582  10.742   8.529   2.052 -3.3404 -0.9771 -0.3986
  113MOL0     H15583  10.730   8.526   1.888  1.1000 -1.5163  2.0634
  113MOL0     H15584  10.933   8.626   1.946 -0.3965 -0.6901 -2.0715
  113MOL0     H15585  10.830   8.768   2.021 -0.9842 -1.1811  1.8376
  113MOL0     H15586  10.755   8.735   1.760 -0.0936 -1.8788 -0.3087
  113MOL0     H15587  10.892   8.852   1.798 -1.0655  0.8325 -1.9322
  113MOL0     H15588  11.054   8.691   1.731  0.1208 -2.2478  1.0489
  113MOL0     H15589  10.936   8.714   1.602  0.9660 -1.4352 -1.2930
  113MOL0     H15590  10.879   8.302   1.681  2.1057 -1.0857 -2.7556
  113MOL0     H15591  10.755   8.664   2.220 -0.7894 -1.6232 -0.9322
  113MOL0     H15592  10.692   8.654   2.521 -1.3219 -0.7157 -0.9928
  113MOL0     H15593  10.823   8.718   2.418  1.2527  5.7663 -0.7382
  113MOL0     H15594  10.722   8.835   2.506 -2.5260  0.3832  0.2686
  114MOL0     O15595   2.613   9.685   2.499 -0.6965  0.5464  0.4524
  114MOL0     C15596   2.550   9.694   2.401 -0.6209  0.2120 -0.0174
  114MOL0     O15597   2.417   9.709   2.391  0.5514 -0.1798 -0.2018
  114MOL0     C15598   2.337   9.725   2.505 -0.7094 -0.6009 -0.3075
  114MOL0     C15599   2.381   9.779   2.627  0.6306  0.0399  0.7273
  114MOL0     C15600   2.293   9.794   2.736 -0.7769  0.6335  0.2195
  114MOL0     C15601   2.162   9.749   2.733 -0.9571  0.4728 -0.0987
  114MOL0     O15602   2.072   9.767   2.834 -0.2410 -0.8141  0.3630
  114MOL0     C15603   2.116   9.777   2.969 -1.1043  0.4060  0.2549
  114MOL0     C15604   2.178   9.646   3.017  0.2750 -1.0589  0.0232
  114MOL0     C15605   2.068   9.532   3.022 -0.9366 -0.6289 -0.3805
  114MOL0     C15606   2.152   9.404   3.038  0.4384 -0.2824  0.1821
  114MOL0     C15607   2.051   9.291   3.052 -0.5808 -0.3650  0.6451
  114MOL0     C15608   2.125   9.156   3.065 -0.2581  1.2085 -0.7907
  114MOL0     C15609   2.185   9.130   3.197 -0.0752 -0.2766  0.6612
  114MOL0     C15610   2.220   8.986   3.215 -0.2160  0.9537  0.0850
  114MOL0     N15611   2.118   8.884   3.192  0.4092  0.1658 -0.2929
  114MOL0     C15612   1.981   8.904   3.207  0.0305  0.0687  0.5914
  114MOL0     C15613   1.936   8.775   3.210  0.2925  0.2706 -0.6570
  114MOL0     C15614   1.789   8.730   3.207 -1.0708  0.1720 -0.3615
  114MOL0     C15615   1.727   8.749   3.065  0.1271  0.1087 -0.1910
  114MOL0     C15616   1.816   8.705   2.948 -0.4271 -1.2377 -0.6121
  114MOL0     C15617   1.723   8.697   2.823 -0.1287  0.3163  0.7272
  114MOL0     O15618   1.667   8.565   2.814 -0.3465  0.0645 -0.1392
  114MOL0     C15619   1.557   8.543   2.738  0.4145 -0.1937 -1.0286
  114MOL0     C15620   1.544   8.411   2.691 -0.5766 -0.1266 -0.3727
  114MOL0     C15621   1.433   8.380   2.611  0.8176 -0.4485  0.2062
  114MOL0     C15622   1.436   8.240   2.558 -0.7764 -0.4032 -0.6669
  114MOL0     C15623   1.334   8.473   2.580  0.0729  0.3684 -0.6962
  114MOL0     C15624   1.211   8.441   2.499  0.1728 -1.2125 -0.0445
  114MOL0     O15625   1.177   8.545   2.414 -0.2254  0.0214  0.5720
  114MOL0     C15626   1.070   8.523   2.335 -0.6281 -0.5701 -0.2678
  114MOL0     C15627   1.093   8.518   2.200  0.6654  0.3926  0.7626
  114MOL0     C15628   0.979   8.505   2.117  0.4746  0.6770 -0.7751
  114MOL0     C15629   0.851   8.512   2.161 -0.0537  0.5927 -0.4149
  114MOL0     O15630   0.744   8.496   2.072 -0.7142 -0.5110 -0.4134
  114MOL0     C15631   0.619   8.502   2.132 -0.5301 -0.0912 -0.1780
  114MOL0     C15632   0.507   8.436   2.039 -0.2286  0.0139 -0.7430
  114MOL0     C15633   0.532   8.298   1.972  0.4130 -0.1660  0.5289
  114MOL0     C15634   0.422   8.278   1.867  0.8146 -0.2569  0.4981
  114MOL0     C15635   0.466   8.315   1.719  0.2820  0.3639  0.6450
  114MOL0     C15636   0.391   8.248   1.609  0.7604 -0.1801  0.0494
  114MOL0     C15637   0.417   8.322   1.480 -0.9731  0.4273  0.4100
  114MOL0     C15638   0.321   8.281   1.372 -0.1861 -0.6401  0.2037
  114MOL0    Cl15639   0.152   8.328   1.416  0.0329  0.4716  0.0636
  114MOL0     C15640   0.832   8.531   2.305  0.9314  0.0404 -1.2595
  114MOL0     C15641   0.938   8.550   2.388 -1.1745  0.9657 -0.0012
  114MOL0     O15642   1.139   8.349   2.538  0.7003 -0.1815  0.3220
  114MOL0     C15643   1.342   8.603   2.637  0.2239  0.2520 -0.6675
  114MOL0     C15644   1.451   8.641   2.708 -0.3261 -0.0404 -0.1616
  114MOL0     N15645   2.039   8.684   3.201  0.5874 -0.5996 -0.3558
  114MOL0     N15646   2.149   8.753   3.186 -0.0336  0.6874  0.2323
  114MOL0     C15647   2.116   9.698   2.607  0.1758  0.2044 -0.9696
  114MOL0     C15648   2.204   9.680   2.501  0.5463 -0.8240  0.1990
  114MOL0     C15649   2.625   9.693   2.273  0.2956  0.1677  0.3714
  114MOL0     C15650   2.552   9.731   2.155 -0.0281 -0.1936  0.3080
  114MOL0     C15651   2.612   9.745   2.032 -0.0455  0.4883 -0.3388
  114MOL0     C15652   2.740   9.708   2.016 -0.2923 -0.3397  0.5308
  114MOL0     O15653   2.796   9.692   1.887  0.1096  0.6808 -0.6801
  114MOL0     C15654   2.917   9.760   1.856  0.5945  0.3542  0.5346
  114MOL0     C15655   2.894   9.915   1.879 -0.6571 -0.1984  0.0837
  114MOL0     C15656   3.018   9.994   1.858  0.6187 -0.1345  0.4619
  114MOL0     C15657   3.073  10.006   1.706  0.3319  0.3761 -0.3475
  114MOL0     C15658   3.204  10.064   1.698 -0.3350 -0.0119 -0.1444
  114MOL0     C15659   3.313  10.117   1.720  0.0640 -0.4994  1.0475
  114MOL0     C15660   2.815   9.667   2.125  1.0252 -0.5298 -0.1570
  114MOL0     C15661   2.763   9.661   2.253  0.8201 -0.9061  0.3004
  114MOL0     C15662   2.850   9.611   2.361  0.7845  0.1517 -0.3420
  114MOL0     H15663   2.486   9.809   2.628  0.7983 -0.5416  1.0287
  114MOL0     H15664   2.337   9.844   2.822 -0.8844  2.7365 -0.8689
  114MOL0     H15665   2.033   9.795   3.038 -0.8072  0.7350  0.5309
  114MOL0     H15666   2.186   9.861   2.983  0.0601 -0.7735  1.9322
  114MOL0     H15667   2.274   9.631   2.967 -1.3103 -0.6650 -3.4016
  114MOL0     H15668   2.214   9.653   3.120  1.0627 -0.5939 -0.2658
  114MOL0     H15669   2.001   9.544   3.108  2.6692  0.2508  2.5555
  114MOL0     H15670   2.020   9.528   2.924 -0.6991 -1.4700 -0.4719
  114MOL0     H15671   2.220   9.389   2.953 -0.1644  3.8214 -1.2793
  114MOL0     H15672   2.219   9.407   3.125  0.5858 -1.6349  0.1253
  114MOL0     H15673   1.996   9.287   2.958  2.6119 -1.5475 -1.3352
  114MOL0     H15674   1.982   9.311   3.135 -1.0942  0.4480  0.0461
  114MOL0     H15675   2.052   9.080   3.038 -1.2913  2.2871 -1.1126
  114MOL0     H15676   2.209   9.152   2.994 -1.7578 -0.8678 -2.5960
  114MOL0     H15677   2.111   9.156   3.273 -1.0440 -0.2221 -0.2833
  114MOL0     H15678   2.285   9.175   3.196  0.6508 -1.8397  0.4829
  114MOL0     H15679   2.297   8.963   3.141 -3.3635  2.3124 -3.9503
  114MOL0     H15680   2.265   8.964   3.312  1.5241 -0.9364 -1.0638
  114MOL0     H15681   1.926   8.997   3.199  0.6047  0.5831  2.1981
  114MOL0     H15682   1.732   8.781   3.285 -2.0534 -4.2772  2.2323
  114MOL0     H15683   1.794   8.629   3.249 -1.2162 -0.3098 -1.4547
  114MOL0     H15684   1.634   8.691   3.065 -0.8915  1.6364  1.6355
  114MOL0     H15685   1.711   8.856   3.051  0.0046  0.0042 -0.8734
  114MOL0     H15686   1.898   8.775   2.933 -0.3625 -1.2176 -0.1762
  114MOL0     H15687   1.853   8.604   2.972  0.5573 -1.1270 -1.5853
  114MOL0     H15688   1.655   8.782   2.823 -1.0677 -0.3382 -2.1268
  114MOL0     H15689   1.786   8.706   2.734 -0.4235  2.9953  0.7126
  114MOL0     H15690   1.620   8.340   2.723 -2.0949 -1.2995  0.7779
  114MOL0     H15691   1.382   8.220   2.464 -0.3701 -1.5699 -0.6769
  114MOL0     H15692   1.405   8.165   2.631  0.0442 -1.7072 -1.6011
  114MOL0     H15693   1.536   8.205   2.529 -0.7052  0.1588 -1.1244
  114MOL0     H15694   1.197   8.498   2.175  0.7307 -0.6020  1.7179
  114MOL0     H15695   1.004   8.500   2.012  1.1160  0.6717 -0.6239
  114MOL0     H15696   0.604   8.430   2.213 -0.3979 -1.4698 -1.3387
  114MOL0     H15697   0.593   8.607   2.152 -1.3385 -0.6157  1.6784
  114MOL0     H15698   0.429   8.430   2.115 -0.7044 -1.4466 -1.3230
  114MOL0     H15699   0.474   8.497   1.955 -2.0630 -0.5295 -0.4501
  114MOL0     H15700   0.521   8.228   2.055  1.4573  2.3758  2.9690
  114MOL0     H15701   0.634   8.283   1.935 -0.4360  1.5861 -2.9230
  114MOL0     H15702   0.332   8.335   1.889  0.3944 -1.4411  2.0352
  114MOL0     H15703   0.385   8.177   1.849 -2.2327  0.9032 -0.3402
  114MOL0     H15704   0.465   8.423   1.702  1.7809  0.2388 -0.5794
  114MOL0     H15705   0.573   8.289   1.716  0.7949  1.5947  4.1627
  114MOL0     H15706   0.282   8.245   1.625  0.1253 -0.2737 -3.5785
  114MOL0     H15707   0.428   8.146   1.596 -2.9616 -1.7521  0.2746
  114MOL0     H15708   0.520   8.297   1.452 -0.9741  2.0751 -1.2734
  114MOL0     H15709   0.418   8.429   1.503  3.2772  0.3515  1.3992
  114MOL0     H15710   0.318   8.175   1.343  0.2431  0.2644 -3.5916
  114MOL0     H15711   0.353   8.317   1.274  0.8760 -1.6759  0.1443
  114MOL0     H15712   0.736   8.547   2.353  0.8708 -3.4193  0.0447
  114MOL0     H15713   0.941   8.564   2.495 -0.3074 -1.2352  0.3111
  114MOL0     H15714   1.272   8.681   2.610  1.1570  2.0717  1.7949
  114MOL0     H15715   1.455   8.740   2.754  0.3314 -0.0350 -0.2193
  114MOL0     H15716   2.009   9.681   2.599  0.2484  0.3054 -2.5814
  114MOL0     H15717   2.174   9.640   2.405  1.8752 -1.3030 -0.0458
  114MOL0     H15718   2.453   9.775   2.164 -0.0238 -0.0372 -0.3474
  114MOL0     H15719   2.555   9.762   1.941 -2.4682 -2.5430  0.4277
  114MOL0     H15720   2.995   9.730   1.926  0.4820  0.1608  0.5788
  114MOL0     H15721   2.947   9.730   1.755  1.1094  4.4879 -0.7239
  114MOL0     H15722   2.857   9.937   1.980  0.4523 -1.4579  0.7967
  114MOL0     H15723   2.811   9.948   1.815 -2.2100  0.9851  2.5506
  114MOL0     H15724   2.988  10.097   1.878  0.1675  0.1939 -1.6633
  114MOL0     H15725   3.105   9.966   1.919  0.8127  1.1144  0.7784
  114MOL0     H15726   3.004  10.061   1.641 -1.8983 -0.8401  0.9095
  114MOL0     H15727   3.083   9.909   1.657  0.6880  0.8338 -1.2238
  114MOL0     H15728   3.403  10.159   1.759  0.0009 -1.5053  2.3540
  114MOL0     H15729   2.920   9.640   2.121  1.3991  0.7096  0.5523
  114MOL0     H15730   2.931   9.546   2.330 -0.1089 -1.8260  1.2103
  114MOL0     H15731   2.891   9.694   2.419 -0.9428 -0.6125  2.1896
  114MOL0     H15732   2.789   9.552   2.430 -3.4612  2.0386 -2.1221
  115MOL0     O15733   9.970   6.365   4.815 -0.3809 -0.0931  0.0416
  115MOL0     C15734   9.874   6.441   4.775 -0.2876 -0.4713 -1.0018
  115MOL0     O15735   9.886   6.558   4.707 -0.0294 -0.6539 -0.7043
  115MOL0     C15736  10.013   6.612   4.687 -0.0775  0.0757  0.3278
  115MOL0     C15737  10.090   6.574   4.579 -0.8205 -0.0948 -0.0256
  115MOL0     C15738  10.215   6.630   4.552  0.1902  0.2945 -0.2732
  115MOL0     C15739  10.260   6.724   4.635 -0.2107  0.2598 -0.1223
  115MOL0     O15740  10.383   6.774   4.607 -0.4577 -0.1965 -0.0554
  115MOL0     C15741  10.390   6.911   4.567  0.5120  0.1885  0.0259
  115MOL0     C15742  10.537   6.967   4.569 -1.0480  1.0524 -0.0320
  115MOL0     C15743  10.584   6.977   4.719 -0.2768  0.2539 -0.6403
  115MOL0     C15744  10.745   6.982   4.726 -0.6728 -0.2251  0.3384
  115MOL0     C15745  10.788   7.010   4.872  0.8438 -0.4007  0.2951
  115MOL0     C15746  10.946   7.017   4.868 -0.1655  0.5385  0.2413
  115MOL0     C15747  11.004   6.894   4.929  1.0596  0.8567 -0.0635
  115MOL0     C15748  11.152   6.882   4.932  0.9724  0.0019 -0.5820
  115MOL0     N15749  11.214   7.002   4.987  0.8687  0.1552  0.2495
  115MOL0     C15750  11.259   7.104   4.911  0.7203  0.0229  0.0239
  115MOL0     C15751  11.307   7.197   5.001 -0.4866  0.4565  0.1784
  115MOL0     C15752  11.382   7.325   4.965 -0.2666  0.0681  0.5077
  115MOL0     C15753  11.317   7.406   4.855 -0.0432 -0.5443 -0.5672
  115MOL0     C15754  11.385   7.547   4.822  0.0534 -0.5342  0.3096
  115MOL0     C15755  11.309   7.638   4.716  0.6815 -0.3596  0.3658
  115MOL0     O15756  11.377   7.746   4.659 -0.6948 -0.3376  0.3997
  115MOL0     C15757  11.379   7.868   4.727 -0.1106 -0.0955  0.1383
  115MOL0     C15758  11.306   7.893   4.849  0.2743 -0.8685  0.1479
  115MOL0     C15759  11.283   8.024   4.889  0.3029  0.4284 -0.2152
  115MOL0     C15760  11.201   8.039   5.010 -0.0235  0.4714 -0.1778
  115MOL0     C15761  11.331   8.136   4.813 -0.0284 -0.7445  0.1641
  115MOL0     C15762  11.314   8.283   4.851  0.1294 -0.0032  0.6060
  115MOL0     O15763  11.382   8.318   4.958  0.0454 -0.6623 -0.1312
  115MOL0     C15764  11.355   8.445   5.011 -0.1955 -0.1934 -0.0659
  115MOL0     C15765  11.419   8.557   4.956  0.4027  1.1343 -0.1665
  115MOL0     C15766  11.404   8.683   5.018  0.3268  0.3992  0.6320
  115MOL0     C15767  11.333   8.709   5.135 -0.1908  0.7307  0.3341
  115MOL0     O15768  11.352   8.833   5.186  0.7897  0.3731 -0.0557
  115MOL0     C15769  11.248   8.861   5.280 -0.0348  0.6123 -0.6977
  115MOL0     C15770  11.261   8.997   5.330  1.3705  0.3233  0.1206
  115MOL0     C15771  11.143   9.042   5.420  0.0742 -0.3322 -0.0767
  115MOL0     C15772  11.164   9.190   5.461 -0.2848 -0.1587 -0.2689
  115MOL0     C15773  11.065   9.250   5.562  0.2699  0.1214 -0.4622
  115MOL0     C15774  11.082   9.397   5.572  0.6039  0.1949 -1.0068
  115MOL0     C15775  10.973   9.450   5.676  0.1351 -0.2923  0.2957
  115MOL0     C15776  10.974   9.603   5.679  0.1215 -1.0591  0.3879
  115MOL0    Cl15777  11.119   9.649   5.764  0.1506 -0.1581 -0.1834
  115MOL0     C15778  11.264   8.591   5.192  0.1876  0.6853  0.4140
  115MOL0     C15779  11.277   8.462   5.130 -0.2708 -0.7143 -0.2676
  115MOL0     O15780  11.249   8.360   4.780 -0.3600  0.6143 -0.3424
  115MOL0     C15781  11.393   8.108   4.688 -0.4047  0.3230  1.0526
  115MOL0     C15782  11.431   7.974   4.656  0.0620  0.3135 -0.3777
  115MOL0     N15783  11.286   7.149   5.132 -0.1404  0.1859 -0.2199
  115MOL0     N15784  11.229   7.034   5.118  0.1516  0.4322 -0.4833
  115MOL0     C15785  10.190   6.758   4.760 -0.0731 -0.1593  0.1417
  115MOL0     C15786  10.062   6.710   4.775 -0.6209 -0.5214  0.0382
  115MOL0     C15787   9.731   6.403   4.796 -0.2242 -0.1023  0.5944
  115MOL0     C15788   9.633   6.436   4.701  0.9976 -0.2745 -0.5464
  115MOL0     C15789   9.497   6.433   4.737  0.5415 -0.1579 -0.1073
  115MOL0     C15790   9.450   6.397   4.862  0.3465  0.6451  0.9463
  115MOL0     O15791   9.315   6.411   4.890 -0.3118 -0.1410  0.0842
  115MOL0     C15792   9.268   6.374   5.022 -1.0796  0.5282 -0.3208
  115MOL0     C15793   9.119   6.379   5.027  0.2869  0.4570 -0.2575
  115MOL0     C15794   9.060   6.364   5.177 -0.2123  0.9178 -0.8704
  115MOL0     C15795   8.926   6.287   5.165 -0.0904 -0.2959 -0.4435
  115MOL0     C15796   8.939   6.135   5.175  0.5169  0.3153  0.5674
  115MOL0     C15797   8.952   6.012   5.182  0.1462 -0.5011 -0.9413
  115MOL0     C15798   9.545   6.340   4.948 -0.3032 -0.2179 -0.2494
  115MOL0     C15799   9.685   6.354   4.926  0.7770 -0.2158  0.8833
  115MOL0     C15800   9.771   6.346   5.046 -0.4707  0.0733 -0.8267
  115MOL0     H15801  10.059   6.498   4.508 -0.3981  1.5176 -2.0649
  115MOL0     H15802  10.278   6.601   4.468 -1.4759 -1.7567 -0.9077
  115MOL0     H15803  10.329   6.972   4.634 -0.3211  0.0440 -0.5767
  115MOL0     H15804  10.347   6.914   4.466  1.1256  0.3609 -0.2379
  115MOL0     H15805  10.603   6.900   4.513 -0.9981  2.3127 -1.5321
  115MOL0     H15806  10.545   7.067   4.527  3.6580  1.4465  1.2277
  115MOL0     H15807  10.529   7.045   4.785 -2.2812 -2.7022  0.9187
  115MOL0     H15808  10.559   6.876   4.753  2.2122  0.5005  2.3714
  115MOL0     H15809  10.782   6.884   4.695 -2.7403 -1.1733  0.7208
  115MOL0     H15810  10.789   7.054   4.656  2.3166 -1.3624  0.8929
  115MOL0     H15811  10.759   6.931   4.941  0.7910  0.8482  1.7416
  115MOL0     H15812  10.748   7.108   4.897  0.6618 -1.0290  2.7065
  115MOL0     H15813  10.984   7.033   4.767  1.1692 -0.3903  0.5669
  115MOL0     H15814  10.973   7.110   4.919 -2.5161  1.5191 -0.1964
  115MOL0     H15815  10.953   6.815   4.872 -0.4172 -0.2410  2.5875
  115MOL0     H15816  10.975   6.888   5.035  1.5842  1.0577  0.0926
  115MOL0     H15817  11.181   6.800   4.997 -0.6327  0.1692  0.3940
  115MOL0     H15818  11.193   6.872   4.831  1.2249 -3.0576 -0.2627
  115MOL0     H15819  11.256   7.100   4.803 -2.2403 -5.2769 -0.0494
  115MOL0     H15820  11.480   7.297   4.925 -0.1620  3.4265 -2.1473
  115MOL0     H15821  11.393   7.390   5.053 -1.5858  3.4116 -1.5800
  115MOL0     H15822  11.327   7.347   4.763  1.5212  1.8675 -2.0639
  115MOL0     H15823  11.213   7.435   4.874 -0.0806 -0.4986 -0.8316
  115MOL0     H15824  11.389   7.608   4.913 -2.1180  1.4536 -0.8108
  115MOL0     H15825  11.487   7.525   4.790 -0.0113 -0.4968  0.0765
  115MOL0     H15826  11.293   7.572   4.630 -0.8566 -1.9394  1.7974
  115MOL0     H15827  11.212   7.664   4.758 -0.4839 -0.8233 -1.8734
  115MOL0     H15828  11.252   7.815   4.902 -0.8919 -1.6147 -2.0094
  115MOL0     H15829  11.104   7.990   4.995  1.3707 -2.7433  0.5288
  115MOL0     H15830  11.183   8.141   5.048 -0.0751  0.9210 -1.3617
  115MOL0     H15831  11.233   7.987   5.100  0.1278  1.8523  0.5990
  115MOL0     H15832  11.471   8.539   4.862  0.5963 -1.2368  0.3149
  115MOL0     H15833  11.467   8.762   4.978  2.4598 -0.8663  1.3526
  115MOL0     H15834  11.151   8.848   5.231  0.1750  0.3887 -1.0530
  115MOL0     H15835  11.256   8.797   5.368 -1.8237 -1.3447 -1.8585
  115MOL0     H15836  11.348   9.007   5.396  0.8105 -0.5922  1.0311
  115MOL0     H15837  11.272   9.068   5.248 -0.3133  1.5635  0.9079
  115MOL0     H15838  11.156   8.975   5.506 -0.4623  1.7975  1.7488
  115MOL0     H15839  11.042   9.036   5.378  0.1949  0.5371 -0.5102
  115MOL0     H15840  11.165   9.252   5.371  1.1668 -0.2704 -0.3564
  115MOL0     H15841  11.269   9.192   5.491  0.0534 -0.5894 -1.3532
  115MOL0     H15842  10.960   9.220   5.550  1.2957 -3.3953 -1.7405
  115MOL0     H15843  11.090   9.207   5.659  2.5656 -1.2723 -1.5870
  115MOL0     H15844  11.078   9.447   5.475 -0.4650 -1.4627 -1.8668
  115MOL0     H15845  11.187   9.404   5.602 -0.1432 -1.1671  2.3358
  115MOL0     H15846  10.992   9.415   5.778  1.9582 -1.6121 -0.4525
  115MOL0     H15847  10.871   9.422   5.650  0.2949 -0.9784  0.3968
  115MOL0     H15848  10.888   9.628   5.742  0.1134  0.2319 -0.0994
  115MOL0     H15849  10.969   9.649   5.580  1.7766  0.2664  0.8675
  115MOL0     H15850  11.209   8.587   5.285  0.7176  1.6185  0.7838
  115MOL0     H15851  11.223   8.380   5.177 -0.6369 -0.0768  0.4404
  115MOL0     H15852  11.447   8.186   4.635  1.6710  0.0302  2.6024
  115MOL0     H15853  11.498   7.953   4.573  4.1055  1.2785  2.2888
  115MOL0     H15854  10.221   6.845   4.818 -2.5505 -0.1713  1.6092
  115MOL0     H15855  10.000   6.760   4.848 -3.1911 -1.5486 -1.3382
  115MOL0     H15856   9.658   6.475   4.603 -3.7419 -1.0130 -2.2985
  115MOL0     H15857   9.444   6.470   4.649 -0.4756 -2.5293 -0.5551
  115MOL0     H15858   9.301   6.273   5.049 -1.0104 -1.1855 -5.6537
  115MOL0     H15859   9.301   6.456   5.086 -1.2101 -0.0779  0.5412
  115MOL0     H15860   9.081   6.303   4.958  1.0340 -1.0794  0.9607
  115MOL0     H15861   9.092   6.478   4.988 -2.8141 -0.7595 -1.5327
  115MOL0     H15862   9.129   6.317   5.248 -1.2949  2.1452  1.0716
  115MOL0     H15863   9.040   6.467   5.206  3.0399  1.3563  0.1150
  115MOL0     H15864   8.864   6.320   5.081  0.2200  2.4124  0.2974
  115MOL0     H15865   8.862   6.322   5.246 -1.7323  1.0877 -2.2268
  115MOL0     H15866   8.947   5.908   5.210  3.4054 -0.0811  1.8451
  115MOL0     H15867   9.512   6.310   5.047 -0.3876  3.7963  1.1128
  115MOL0     H15868   9.822   6.249   5.039  3.1341  1.7491 -0.1716
  115MOL0     H15869   9.850   6.419   5.065 -0.0757 -0.9582  1.9288
  115MOL0     H15870   9.711   6.357   5.137  3.0227  1.6497  1.4987
  116MOL0     O15871   5.321   7.352   4.483  0.1832 -0.3175 -0.0375
  116MOL0     C15872   5.239   7.270   4.532 -0.0176 -0.0064  0.6760
  116MOL0     O15873   5.110   7.291   4.558 -0.8853  0.4585 -0.1744
  116MOL0     C15874   5.056   7.414   4.542  0.3124  0.4559  1.0589
  116MOL0     C15875   5.050   7.482   4.416  0.4732  0.3202  0.0196
  116MOL0     C15876   4.972   7.597   4.406  0.3421 -0.2053  0.6792
  116MOL0     C15877   4.906   7.651   4.517  1.0129 -0.3340  0.1491
  116MOL0     O15878   4.831   7.769   4.503  0.5592  0.4148 -0.8753
  116MOL0     C15879   4.729   7.775   4.405  0.2098  0.8115 -0.7997
  116MOL0     C15880   4.759   7.885   4.296 -0.2190 -0.1784 -0.1253
  116MOL0     C15881   4.682   7.895   4.168  0.0788  0.3394 -1.3688
  116MOL0     C15882   4.537   7.953   4.201  0.1375 -0.4553  0.2426
  116MOL0     C15883   4.489   8.010   4.070 -0.6050 -0.3710 -0.1790
  116MOL0     C15884   4.344   8.064   4.085 -0.2721 -0.9258 -0.7993
  116MOL0     C15885   4.308   8.151   3.965  0.2754  0.3618  0.7609
  116MOL0     C15886   4.185   8.237   3.995  0.4891 -0.1527 -0.2992
  116MOL0     N15887   4.047   8.172   4.011 -0.3903 -1.0479 -0.0045
  116MOL0     C15888   3.989   8.140   4.131  0.7917  0.7937 -0.4690
  116MOL0     C15889   3.863   8.094   4.098  0.1333 -0.6950 -0.9349
  116MOL0     C15890   3.745   8.058   4.187  0.3490  0.0827 -0.1994
  116MOL0     C15891   3.693   7.920   4.160 -1.2885  0.2649 -0.9951
  116MOL0     C15892   3.804   7.818   4.190  0.8157 -0.2315  0.5909
  116MOL0     C15893   3.742   7.672   4.182  0.8199 -0.0315 -0.1987
  116MOL0     O15894   3.714   7.640   4.043  0.6820  0.2653 -0.5440
  116MOL0     C15895   3.809   7.588   3.961 -0.4052 -0.0519 -0.3236
  116MOL0     C15896   3.781   7.577   3.834  0.0207  1.0954 -0.0812
  116MOL0     C15897   3.874   7.529   3.740 -0.6135  0.0035 -0.0099
  116MOL0     C15898   3.839   7.540   3.597 -0.2969  0.3346 -0.6163
  116MOL0     C15899   3.999   7.481   3.783 -0.1472  0.6404 -0.0310
  116MOL0     C15900   4.097   7.396   3.696  0.0498 -0.0906 -1.0168
  116MOL0     O15901   4.208   7.352   3.759 -0.6672 -0.4251 -0.3484
  116MOL0     C15902   4.298   7.305   3.670 -0.1101 -0.3188 -0.6825
  116MOL0     C15903   4.315   7.173   3.655  0.0173  0.2372 -0.1135
  116MOL0     C15904   4.416   7.120   3.585 -0.7406  0.2027 -0.5826
  116MOL0     C15905   4.505   7.206   3.518  0.3600  0.1528 -0.3232
  116MOL0     O15906   4.615   7.179   3.442  0.1019  0.3736  0.2468
  116MOL0     C15907   4.609   7.060   3.364 -1.0635  0.8570  0.7476
  116MOL0     C15908   4.694   7.079   3.242  0.1561 -0.5784  0.9582
  116MOL0     C15909   4.820   6.995   3.232  0.2961 -0.5592 -0.3276
  116MOL0     C15910   4.902   7.023   3.106  0.4129 -0.5195 -0.2870
  116MOL0     C15911   5.049   6.974   3.127 -0.4339  0.5699  0.3491
  116MOL0     C15912   5.151   7.022   3.008  0.6343 -0.5988 -0.1544
  116MOL0     C15913   5.106   6.957   2.881 -0.5603  0.5699  0.5409
  116MOL0     C15914   5.182   6.995   2.759 -0.2232  0.2095  0.1539
  116MOL0    Cl15915   5.331   6.898   2.729  0.4282  0.2379  0.0978
  116MOL0     C15916   4.483   7.336   3.533  0.8109 -0.7619  0.6888
  116MOL0     C15917   4.381   7.394   3.606 -0.1773  0.0541 -0.2887
  116MOL0     O15918   4.061   7.359   3.585 -0.9117  0.9775 -0.1028
  116MOL0     C15919   4.028   7.496   3.923 -0.1948 -0.0775  0.2578
  116MOL0     C15920   3.934   7.550   4.005  0.3336  0.1642 -0.3069
  116MOL0     N15921   3.852   8.117   3.966 -0.0992 -1.1144 -0.4344
  116MOL0     N15922   3.953   8.171   3.913  0.1339  0.5646 -0.3730
  116MOL0     C15923   4.920   7.594   4.640 -0.4201 -0.4060  0.6172
  116MOL0     C15924   4.999   7.480   4.655 -0.0675 -0.0172  1.2465
  116MOL0     C15925   5.295   7.133   4.555  0.4790  0.3561 -0.3957
  116MOL0     C15926   5.384   7.090   4.456  0.1832  0.8293 -0.1667
  116MOL0     C15927   5.459   6.975   4.474  1.0951 -0.2294  0.1179
  116MOL0     C15928   5.426   6.890   4.590 -0.5290 -0.6432  0.3425
  116MOL0     O15929   5.489   6.766   4.585  0.2312 -1.4164  0.4883
  116MOL0     C15930   5.522   6.706   4.713 -0.2847  0.2361 -0.6108
  116MOL0     C15931   5.418   6.598   4.733  0.2766  0.2410 -0.1979
  116MOL0     C15932   5.416   6.493   4.612 -0.1751  0.2674  0.2393
  116MOL0     C15933   5.388   6.355   4.678 -0.2828  0.2646 -0.5564
  116MOL0     C15934   5.245   6.325   4.701 -0.4219 -0.3383  0.0197
  116MOL0     C15935   5.124   6.294   4.724 -0.0114 -0.1801 -0.5778
  116MOL0     C15936   5.339   6.931   4.684  0.4665 -0.0069 -0.0678
  116MOL0     C15937   5.273   7.056   4.666  0.3884  0.4740 -0.2939
  116MOL0     C15938   5.195   7.112   4.783  1.1009  0.3770 -0.7289
  116MOL0     H15939   5.088   7.433   4.327 -0.9002 -0.8418  0.0237
  116MOL0     H15940   4.957   7.641   4.308  1.5033 -0.3190  0.4353
  116MOL0     H15941   4.646   7.800   4.472  0.1517  3.5291 -1.7640
  116MOL0     H15942   4.721   7.674   4.363 -0.2408  0.5979 -0.2189
  116MOL0     H15943   4.753   7.985   4.340  2.6368  1.0416 -2.2665
  116MOL0     H15944   4.860   7.871   4.259 -1.0297  1.3951 -3.2858
  116MOL0     H15945   4.725   7.968   4.098 -1.5067  0.5466 -2.1873
  116MOL0     H15946   4.684   7.791   4.136  2.7455  1.0437 -3.8915
  116MOL0     H15947   4.472   7.873   4.237 -0.1999 -0.4478 -0.3271
  116MOL0     H15948   4.539   8.028   4.280  0.1649 -1.8641  1.6097
  116MOL0     H15949   4.503   7.934   3.992 -2.1284  1.1447 -2.0292
  116MOL0     H15950   4.551   8.099   4.059 -0.5856 -0.5173 -1.3888
  116MOL0     H15951   4.277   7.980   4.103 -0.4322 -0.7079 -0.3655
  116MOL0     H15952   4.333   8.130   4.171 -0.8519 -2.1216  0.0630
  116MOL0     H15953   4.302   8.092   3.873  1.5868  2.5758 -0.8638
  116MOL0     H15954   4.390   8.219   3.940  1.7312 -1.1803  1.1836
  116MOL0     H15955   4.210   8.278   4.093  1.2389 -2.0395  0.3335
  116MOL0     H15956   4.174   8.324   3.928 -1.8285  1.0926  1.5498
  116MOL0     H15957   4.040   8.152   4.226  0.5578  1.7660 -0.4483
  116MOL0     H15958   3.681   8.143   4.159  2.0608  1.6802  0.5144
  116MOL0     H15959   3.763   8.061   4.295 -2.2007 -3.2787  0.4813
  116MOL0     H15960   3.604   7.889   4.215 -0.2856  0.1808  0.6406
  116MOL0     H15961   3.692   7.922   4.050 -0.6194 -1.6452 -1.0777
  116MOL0     H15962   3.873   7.830   4.106  0.1248  2.3512  0.3078
  116MOL0     H15963   3.849   7.837   4.288 -1.6189 -0.5591  1.8532
  116MOL0     H15964   3.808   7.593   4.220  0.6989  0.4016  0.9534
  116MOL0     H15965   3.645   7.670   4.232  1.1614  1.3776  0.5527
  116MOL0     H15966   3.681   7.595   3.796 -0.5719  0.7197  1.2479
  116MOL0     H15967   3.761   7.617   3.595  0.4101  1.0451 -1.1607
  116MOL0     H15968   3.805   7.447   3.550  2.7992 -0.6881 -1.0190
  116MOL0     H15969   3.919   7.574   3.532  1.3748 -1.9936  0.0680
  116MOL0     H15970   4.249   7.113   3.717  2.5809 -0.9806  1.6482
  116MOL0     H15971   4.428   7.012   3.579 -0.2662  0.2860 -1.4014
  116MOL0     H15972   4.648   6.975   3.422 -2.3701  2.8367  4.9318
  116MOL0     H15973   4.510   7.041   3.322 -1.0274 -0.1765  1.0947
  116MOL0     H15974   4.638   7.062   3.150 -1.2747 -1.3773  1.9476
  116MOL0     H15975   4.719   7.185   3.231 -1.6238 -0.1340  0.9466
  116MOL0     H15976   4.810   6.888   3.253 -2.5140 -0.2227  0.4611
  116MOL0     H15977   4.885   7.037   3.309 -0.2129  1.1397 -0.7734
  116MOL0     H15978   4.893   7.130   3.082  1.0550 -0.2417  0.6625
  116MOL0     H15979   4.846   6.975   3.025 -1.2562  0.9017 -0.0584
  116MOL0     H15980   5.100   7.007   3.218 -0.5808 -1.5495  1.2413
  116MOL0     H15981   5.048   6.865   3.123 -0.5702  0.5536  0.8174
  116MOL0     H15982   5.245   6.986   3.053 -0.9315 -1.5367  2.6119
  116MOL0     H15983   5.156   7.131   3.006  1.7003 -0.5545  1.9620
  116MOL0     H15984   5.002   6.969   2.850 -0.2886  0.5258 -0.4462
  116MOL0     H15985   5.123   6.850   2.896  3.2476  1.0810  0.8901
  116MOL0     H15986   5.200   7.103   2.759  3.0228 -0.2307  1.0457
  116MOL0     H15987   5.123   6.975   2.669  0.2125  0.2149 -0.1334
  116MOL0     H15988   4.552   7.407   3.488  2.5960 -2.1680  1.0658
  116MOL0     H15989   4.377   7.501   3.624  2.0937  0.4790 -1.9752
  116MOL0     H15990   4.120   7.454   3.961  0.8793 -0.5716 -2.6418
  116MOL0     H15991   3.967   7.571   4.106  1.4875 -0.5026 -0.5388
  116MOL0     H15992   4.874   7.638   4.728 -0.8309 -0.7043  0.5563
  116MOL0     H15993   4.991   7.420   4.745  0.8047 -1.1558  0.6013
  116MOL0     H15994   5.399   7.160   4.374 -0.0324  4.1895  2.4240
  116MOL0     H15995   5.531   6.936   4.403  1.2109  0.4288 -0.1368
  116MOL0     H15996   5.621   6.661   4.701 -0.3542 -0.6071  1.4728
  116MOL0     H15997   5.531   6.770   4.802  2.4877  0.4705 -0.9548
  116MOL0     H15998   5.316   6.638   4.726  0.5608  0.7065 -2.9396
  116MOL0     H15999   5.431   6.548   4.829 -0.4181 -1.5706 -1.0078
  116MOL0     H16000   5.332   6.519   4.546 -1.1037  0.9221  1.6456
  116MOL0     H16001   5.507   6.487   4.551 -0.9061 -3.4731 -0.7604
  116MOL0     H16002   5.447   6.346   4.770  2.3020 -1.0495 -2.2217
  116MOL0     H16003   5.414   6.277   4.607  0.0132 -1.6319  1.5105
  116MOL0     H16004   5.027   6.265   4.760 -0.9547  2.5962 -0.6124
  116MOL0     H16005   5.312   6.875   4.773 -2.6942  1.8403  0.2830
  116MOL0     H16006   5.096   7.154   4.763 -0.0268 -0.4730  2.5300
  116MOL0     H16007   5.165   7.027   4.845  1.4171  0.4868 -0.4227
  116MOL0     H16008   5.268   7.171   4.840  2.6933  1.9480 -4.1007
  117MOL0     O16009   4.936   1.329   5.881 -0.0841  0.1848  0.7201
  117MOL0     C16010   4.848   1.412   5.875  0.1652  0.6147 -0.2699
  117MOL0     O16011   4.848   1.525   5.796 -0.8048 -0.1752  0.2411
  117MOL0     C16012   4.960   1.556   5.726  0.1607 -0.3244 -0.6686
  117MOL0     C16013   5.021   1.675   5.757 -0.2081  0.3901  0.1213
  117MOL0     C16014   5.137   1.716   5.690  0.1277  0.9033 -0.0924
  117MOL0     C16015   5.185   1.632   5.583  0.6116 -0.2325  0.2622
  117MOL0     O16016   5.299   1.668   5.517 -0.6365  0.0115  0.3684
  117MOL0     C16017   5.317   1.800   5.464  0.2393 -0.9358  0.6424
  117MOL0     C16018   5.373   1.808   5.323  0.2701 -0.0572  0.0593
  117MOL0     C16019   5.520   1.757   5.299  0.5237 -0.7375 -0.1670
  117MOL0     C16020   5.621   1.862   5.344  0.1056 -0.7703  0.2943
  117MOL0     C16021   5.752   1.773   5.391 -1.2719  0.2834 -0.4479
  117MOL0     C16022   5.864   1.843   5.474  0.5410 -0.1206  0.3134
  117MOL0     C16023   5.976   1.750   5.503  0.4059 -0.1474  0.6429
  117MOL0     C16024   6.071   1.810   5.611 -0.5214  0.1515 -0.4444
  117MOL0     N16025   6.143   1.726   5.703  0.1430 -0.1673  0.1874
  117MOL0     C16026   6.206   1.602   5.678 -0.3036 -0.4413  1.1212
  117MOL0     C16027   6.238   1.558   5.796 -0.5609 -0.4368  0.5708
  117MOL0     C16028   6.278   1.419   5.830 -0.1689  0.0377  0.4671
  117MOL0     C16029   6.407   1.374   5.761  0.3884 -0.0244 -0.3098
  117MOL0     C16030   6.522   1.463   5.788  0.3496 -0.2417  0.1703
  117MOL0     C16031   6.644   1.384   5.835 -0.5597 -0.3261  0.0681
  117MOL0     O16032   6.745   1.483   5.836  0.0388 -0.8228 -0.2277
  117MOL0     C16033   6.873   1.468   5.876  0.3629 -1.5721  1.1576
  117MOL0     C16034   6.929   1.355   5.917  0.3448  0.1569 -0.0498
  117MOL0     C16035   7.065   1.349   5.938 -0.7331 -0.6210  0.1017
  117MOL0     C16036   7.125   1.207   5.952  0.3573 -0.2457 -1.0443
  117MOL0     C16037   7.146   1.467   5.935 -0.7087  0.8627 -0.9800
  117MOL0     C16038   7.290   1.476   5.976 -0.4689 -0.5943 -0.3939
  117MOL0     O16039   7.373   1.576   5.927  0.1982 -0.7940  0.1179
  117MOL0     C16040   7.487   1.592   6.004 -0.8206 -0.8843  0.4641
  117MOL0     C16041   7.598   1.524   5.959  0.0294  0.0064 -0.4967
  117MOL0     C16042   7.712   1.538   6.046  0.0421 -1.1329  0.7858
  117MOL0     C16043   7.724   1.620   6.156 -0.6623 -0.0373 -0.1202
  117MOL0     O16044   7.844   1.641   6.226  0.3743 -0.6542  0.6717
  117MOL0     C16045   7.835   1.684   6.358 -0.2443 -0.5354 -0.2660
  117MOL0     C16046   7.969   1.677   6.423 -0.6829 -0.1119  0.6037
  117MOL0     C16047   7.979   1.563   6.517 -0.9620 -0.0434 -0.2197
  117MOL0     C16048   8.126   1.544   6.551 -0.9166  0.1666  0.0502
  117MOL0     C16049   8.191   1.461   6.440 -0.3984  0.4338  0.0218
  117MOL0     C16050   8.347   1.483   6.447 -0.4528  0.0241 -0.3899
  117MOL0     C16051   8.413   1.436   6.316 -0.3303 -0.7589  0.9653
  117MOL0     C16052   8.371   1.515   6.190 -0.2349 -0.3756 -0.7087
  117MOL0    Cl16053   8.434   1.440   6.036 -0.0800 -0.3911  0.1604
  117MOL0     C16054   7.612   1.692   6.183  0.7592 -1.4670 -0.4026
  117MOL0     C16055   7.492   1.681   6.112 -0.8888 -0.6143 -0.9761
  117MOL0     O16056   7.324   1.381   6.050  0.4071 -0.5932 -0.3131
  117MOL0     C16057   7.083   1.581   5.886  0.5041 -0.1131 -0.0473
  117MOL0     C16058   6.944   1.588   5.864  0.3653  0.0954  0.5935
  117MOL0     N16059   6.199   1.651   5.891  0.3309  0.1548 -0.5480
  117MOL0     N16060   6.145   1.750   5.833  0.6584 -0.0583 -0.1938
  117MOL0     C16061   5.113   1.516   5.545 -0.0432  0.1072 -0.4366
  117MOL0     C16062   5.005   1.477   5.622  0.3624 -0.0900 -0.9817
  117MOL0     C16063   4.721   1.402   5.951 -0.5940  0.3325  0.2746
  117MOL0     C16064   4.596   1.390   5.889  0.0071  0.5224  0.5637
  117MOL0     C16065   4.478   1.355   5.965  0.1458  0.4251 -0.2257
  117MOL0     C16066   4.482   1.340   6.105 -0.2236 -0.2568  0.0934
  117MOL0     O16067   4.355   1.318   6.159 -0.2153  0.3864  0.6701
  117MOL0     C16068   4.335   1.283   6.299 -0.5174 -0.4089  0.5864
  117MOL0     C16069   4.308   1.403   6.389 -0.4642  0.4776 -0.0663
  117MOL0     C16070   4.251   1.341   6.520  0.3423  0.0455 -0.5015
  117MOL0     C16071   4.118   1.254   6.518 -0.6027 -0.0463  0.6409
  117MOL0     C16072   4.008   1.313   6.445  0.0412 -0.6231 -0.5230
  117MOL0     C16073   3.926   1.378   6.378  0.4051  0.0012 -0.5127
  117MOL0     C16074   4.605   1.357   6.172 -0.3777  0.0868 -0.1918
  117MOL0     C16075   4.722   1.377   6.093 -0.3666  0.5982 -0.3266
  117MOL0     C16076   4.849   1.399   6.165  0.1176 -0.3757  0.0375
  117MOL0     H16077   4.993   1.744   5.835 -1.2759  1.0114 -0.7934
  117MOL0     H16078   5.195   1.799   5.730  0.4022  0.3213  0.7673
  117MOL0     H16079   5.387   1.849   5.532  1.9509 -1.0907 -0.9295
  117MOL0     H16080   5.222   1.853   5.467  0.6113  0.0363 -2.2269
  117MOL0     H16081   5.304   1.746   5.264 -0.2552 -0.2422  0.8622
  117MOL0     H16082   5.358   1.912   5.293  0.1292  0.1584  0.8739
  117MOL0     H16083   5.535   1.667   5.359  2.1894 -1.3845 -1.4526
  117MOL0     H16084   5.529   1.730   5.193 -0.9105 -4.1660  0.4391
  117MOL0     H16085   5.650   1.923   5.259  2.2314 -0.6905  1.0078
  117MOL0     H16086   5.584   1.919   5.430  0.1535  0.6602 -0.6046
  117MOL0     H16087   5.799   1.717   5.310 -0.5877 -0.5512  0.5011
  117MOL0     H16088   5.711   1.687   5.445 -0.4889 -2.0913 -3.4005
  117MOL0     H16089   5.897   1.934   5.424  0.8871 -0.0266  0.7100
  117MOL0     H16090   5.820   1.864   5.572  0.6345 -0.1050  0.3512
  117MOL0     H16091   6.031   1.733   5.410  2.3505  0.2645  1.6867
  117MOL0     H16092   5.946   1.650   5.536  2.4706 -1.1897 -0.4540
  117MOL0     H16093   6.141   1.871   5.553  0.9692 -0.5052  0.5945
  117MOL0     H16094   6.016   1.882   5.673  0.6736  2.6271 -2.0705
  117MOL0     H16095   6.224   1.561   5.579 -1.6957 -0.9308  1.0425
  117MOL0     H16096   6.196   1.349   5.816  1.1008 -1.4666  0.2792
  117MOL0     H16097   6.305   1.416   5.936  0.2817  1.2006  0.4100
  117MOL0     H16098   6.423   1.269   5.791 -0.8618  0.1693  1.1724
  117MOL0     H16099   6.398   1.373   5.652 -1.1444 -0.9288 -0.2080
  117MOL0     H16100   6.556   1.526   5.706  1.5708 -1.8347 -0.6055
  117MOL0     H16101   6.493   1.527   5.872 -2.6618  0.0191 -0.9418
  117MOL0     H16102   6.630   1.343   5.935 -0.0700  2.0074  1.1627
  117MOL0     H16103   6.665   1.306   5.761  0.0257  0.0264 -0.1445
  117MOL0     H16104   6.873   1.263   5.930  2.7185 -1.2222  1.0693
  117MOL0     H16105   7.131   1.202   6.061 -0.0056  3.3847 -0.7347
  117MOL0     H16106   7.221   1.190   5.903  0.2787  2.0018 -2.0845
  117MOL0     H16107   7.052   1.132   5.918  1.1846 -1.1269 -0.9226
  117MOL0     H16108   7.591   1.461   5.871 -4.6502 -4.7050  2.6057
  117MOL0     H16109   7.793   1.471   6.017  0.7870  0.4583 -1.1186
  117MOL0     H16110   7.810   1.790   6.367  1.8682 -0.1519  2.4907
  117MOL0     H16111   7.760   1.626   6.412  0.8336 -0.7141  1.1105
  117MOL0     H16112   8.044   1.675   6.343 -0.9422 -1.2144  0.3767
  117MOL0     H16113   7.976   1.771   6.478 -2.4669  0.6876 -0.4119
  117MOL0     H16114   7.942   1.472   6.469  2.0886 -0.2413 -2.5027
  117MOL0     H16115   7.909   1.565   6.601 -2.0182 -0.4618 -1.0674
  117MOL0     H16116   8.127   1.499   6.651 -0.8180  0.0507 -0.0024
  117MOL0     H16117   8.174   1.640   6.571 -1.6491  0.5287  0.0838
  117MOL0     H16118   8.168   1.355   6.456  0.6485  0.3129  0.8833
  117MOL0     H16119   8.166   1.499   6.341  4.2669  0.6925 -1.2820
  117MOL0     H16120   8.382   1.432   6.537 -2.5930  0.9042  1.0354
  117MOL0     H16121   8.369   1.588   6.472 -0.9523 -0.1808  1.0287
  117MOL0     H16122   8.414   1.327   6.303 -0.2008 -0.6923  0.4147
  117MOL0     H16123   8.519   1.461   6.322 -0.4641  0.1772 -0.2959
  117MOL0     H16124   8.419   1.613   6.201 -1.4968  0.0208  2.0853
  117MOL0     H16125   8.265   1.541   6.181  0.0873  0.6029 -2.1274
  117MOL0     H16126   7.618   1.753   6.273  2.1908 -0.9289 -0.8296
  117MOL0     H16127   7.407   1.737   6.150  0.7704  1.4936 -0.1097
  117MOL0     H16128   7.153   1.659   5.858 -0.8069  2.2954  2.7772
  117MOL0     H16129   6.903   1.687   5.847 -3.4380 -1.0049  2.1622
  117MOL0     H16130   5.152   1.458   5.462  3.1173 -0.5870  1.3279
  117MOL0     H16131   4.941   1.392   5.599 -1.7554  1.5563 -1.4465
  117MOL0     H16132   4.587   1.406   5.783  2.0445  2.2975  0.5866
  117MOL0     H16133   4.383   1.340   5.915  0.4307 -0.3900 -0.5542
  117MOL0     H16134   4.253   1.211   6.307 -1.1054  0.2112  0.2941
  117MOL0     H16135   4.432   1.240   6.325  1.3097  3.0254  0.1392
  117MOL0     H16136   4.240   1.482   6.354 -1.0987  0.6455  1.4428
  117MOL0     H16137   4.407   1.446   6.403 -0.5312  0.1556  1.6511
  117MOL0     H16138   4.333   1.294   6.576 -0.1381  3.1206  3.1681
  117MOL0     H16139   4.215   1.418   6.588 -3.6236 -1.1881 -0.9135
  117MOL0     H16140   4.094   1.229   6.622 -0.0199 -3.1939  0.1314
  117MOL0     H16141   4.147   1.157   6.476 -0.2176 -0.1938  1.2320
  117MOL0     H16142   3.867   1.441   6.315 -2.8548 -0.4846  1.7887
  117MOL0     H16143   4.604   1.365   6.280  0.7540  2.3075 -0.2743
  117MOL0     H16144   4.904   1.490   6.137  1.8550 -0.4679  2.7920
  117MOL0     H16145   4.849   1.399   6.274  1.4514  1.2570  0.0818
  117MOL0     H16146   4.916   1.316   6.142 -0.0024 -0.5331  0.2542
  118MOL0     O16147   1.773   2.599  10.060 -0.1776  0.0890  0.3896
  118MOL0     C16148   1.703   2.685  10.112 -0.7282  0.2183 -0.5336
  118MOL0     O16149   1.739   2.815  10.131  0.0170  0.7977  0.7927
  118MOL0     C16150   1.858   2.863  10.081  1.0435 -0.4372  0.4989
  118MOL0     C16151   1.905   2.847   9.946 -0.6666  0.8350  0.4949
  118MOL0     C16152   2.036   2.895   9.909 -0.0501  0.3638 -0.8454
  118MOL0     C16153   2.122   2.948  10.008  0.1075 -0.5570  1.3167
  118MOL0     O16154   2.246   2.986   9.960 -0.3746  0.9912 -0.2960
  118MOL0     C16155   2.314   3.093  10.032 -0.3099  0.4047 -0.0698
  118MOL0     C16156   2.462   3.109   9.972  0.3781 -0.1619  0.3590
  118MOL0     C16157   2.531   3.225  10.049 -0.0689  0.2371  0.1841
  118MOL0     C16158   2.483   3.370  10.032 -0.9851  1.0512 -0.6671
  118MOL0     C16159   2.511   3.469  10.135  0.3098  0.0155  0.7607
  118MOL0     C16160   2.485   3.423  10.281  0.0234  0.4190  0.5153
  118MOL0     C16161   2.482   3.544  10.385 -0.3572  0.8532  1.0435
  118MOL0     C16162   2.412   3.485  10.508  0.2782 -0.7520 -0.1117
  118MOL0     N16163   2.419   3.563  10.627 -0.4386 -0.1797  0.3038
  118MOL0     C16164   2.535   3.582  10.691  0.2849 -0.2525 -0.1556
  118MOL0     C16165   2.522   3.702  10.762  0.2269  0.7395  0.4549
  118MOL0     C16166   2.631   3.778  10.833  0.2804 -0.4983 -1.0852
  118MOL0     C16167   2.628   3.746  10.986  0.4512  0.1088 -0.3020
  118MOL0     C16168   2.735   3.815  11.069  0.8561  0.2825  0.3187
  118MOL0     C16169   2.872   3.753  11.078  0.5114 -0.2247  1.0124
  118MOL0     O16170   2.943   3.853  11.150  0.0007 -0.0114 -0.2452
  118MOL0     C16171   3.076   3.823  11.169 -0.2121  0.2248 -0.4551
  118MOL0     C16172   3.144   3.920  11.232 -0.2751  0.2616 -0.7145
  118MOL0     C16173   3.282   3.916  11.260  0.9466 -0.4902 -0.9252
  118MOL0     C16174   3.338   4.044  11.317 -0.5594  0.3086 -0.1252
  118MOL0     C16175   3.356   3.799  11.222 -1.3604  0.5109 -0.2974
  118MOL0     C16176   3.501   3.797  11.236  0.3927  1.3839 -0.5652
  118MOL0     O16177   3.570   3.907  11.291  0.5660  0.5015  0.6595
  118MOL0     C16178   3.711   3.911  11.287  0.2477  0.4249  0.4866
  118MOL0     C16179   3.779   4.035  11.282  0.6401  0.0930  0.3874
  118MOL0     C16180   3.917   4.045  11.282  0.5044 -0.7323 -0.6810
  118MOL0     C16181   4.003   3.939  11.295  0.3548  0.7042 -0.6480
  118MOL0     O16182   4.137   3.956  11.295  0.6381 -0.1788  0.1320
  118MOL0     C16183   4.197   4.087  11.296  0.0512  0.7746 -0.3356
  118MOL0     C16184   4.354   4.083  11.294  0.1760  0.0280  0.1058
  118MOL0     C16185   4.413   4.137  11.419  0.6216 -0.1879 -0.4401
  118MOL0     C16186   4.560   4.088  11.435 -0.0081 -0.7766  0.1224
  118MOL0     C16187   4.653   4.137  11.321  0.1164 -0.2753 -0.0694
  118MOL0     C16188   4.796   4.098  11.340 -0.2363  0.0918  0.7158
  118MOL0     C16189   4.865   4.074  11.209  0.1349 -0.0300 -0.4119
  118MOL0     C16190   4.871   4.189  11.110  1.2585 -0.8576  0.4666
  118MOL0    Cl16191   4.966   4.322  11.182 -0.1262 -0.3386 -0.1629
  118MOL0     C16192   3.941   3.810  11.287  0.2999 -0.1333 -0.0544
  118MOL0     C16193   3.797   3.798  11.286 -0.5016 -0.0013 -0.6381
  118MOL0     O16194   3.559   3.698  11.184  0.2460  0.7837 -0.0213
  118MOL0     C16195   3.280   3.703  11.155 -0.4445 -0.4373 -0.0829
  118MOL0     C16196   3.151   3.716  11.122  0.2957  0.7281 -0.0367
  118MOL0     N16197   2.393   3.745  10.736 -0.1552  0.3710  0.7659
  118MOL0     N16198   2.341   3.660  10.650  0.4452 -0.2714  0.4543
  118MOL0     C16199   2.062   2.967  10.135  0.1992 -0.1405  0.9001
  118MOL0     C16200   1.938   2.931  10.170 -0.1547 -0.1741  0.0646
  118MOL0     C16201   1.561   2.657  10.153  0.1592  0.0680 -0.5635
  118MOL0     C16202   1.472   2.768  10.183  0.5154  0.1029  0.0760
  118MOL0     C16203   1.342   2.749  10.218  0.4194  0.1239 -0.5926
  118MOL0     C16204   1.288   2.620  10.211  1.4264  0.4946  0.2333
  118MOL0     O16205   1.158   2.588  10.246  0.2586 -0.0730  0.0883
  118MOL0     C16206   1.132   2.616  10.385 -0.2542 -0.2910  0.3674
  118MOL0     C16207   0.982   2.671  10.423 -0.4494 -0.2435 -0.7424
  118MOL0     C16208   0.893   2.548  10.417  0.6036 -0.3540 -0.1778
  118MOL0     C16209   0.747   2.594  10.414  0.3474  0.1375  0.6093
  118MOL0     C16210   0.663   2.472  10.416  0.5336 -0.8347  0.1333
  118MOL0     C16211   0.577   2.388  10.430  0.5505 -0.6337  0.1266
  118MOL0     C16212   1.364   2.516  10.158  0.3314 -0.8079 -0.1259
  118MOL0     C16213   1.501   2.529  10.140  0.7131  0.1013  0.5995
  118MOL0     C16214   1.552   2.395  10.099 -0.3314  0.2442  0.7880
  118MOL0     H16215   1.845   2.792   9.874  0.3013  1.2081 -0.6304
  118MOL0     H16216   2.071   2.875   9.808  0.9059  0.7500 -0.6004
  118MOL0     H16217   2.335   3.056  10.133  0.9677  2.2445  0.3763
  118MOL0     H16218   2.245   3.177  10.038  0.4887  1.0534  0.2969
  118MOL0     H16219   2.520   3.018   9.987 -0.7524 -0.9251  0.1898
  118MOL0     H16220   2.450   3.132   9.866 -1.0232 -4.6400 -0.6875
  118MOL0     H16221   2.539   3.191  10.153 -1.7372  0.7728  0.5173
  118MOL0     H16222   2.634   3.221  10.014 -0.6843 -0.0317 -1.6963
  118MOL0     H16223   2.518   3.404   9.934 -0.0625 -0.4810 -0.8990
  118MOL0     H16224   2.375   3.373  10.014 -0.4711  0.9105 -4.6265
  118MOL0     H16225   2.444   3.555  10.126  0.8881  0.4916  0.9434
  118MOL0     H16226   2.619   3.489  10.133  0.7456 -1.6568 -3.1308
  118MOL0     H16227   2.389   3.371  10.282  0.7634 -0.9758  1.6180
  118MOL0     H16228   2.562   3.359  10.325  0.6278  0.0848 -0.9612
  118MOL0     H16229   2.414   3.625  10.355 -1.7143 -0.4768  0.4011
  118MOL0     H16230   2.583   3.581  10.403  0.5884 -0.0281 -1.9552
  118MOL0     H16231   2.307   3.479  10.480 -0.5108  2.2110  1.7291
  118MOL0     H16232   2.445   3.384  10.535 -2.7821 -1.6193  0.7822
  118MOL0     H16233   2.628   3.529  10.676 -0.3837 -1.4252 -0.2678
  118MOL0     H16234   2.606   3.883  10.816 -2.4992 -1.1124 -1.2020
  118MOL0     H16235   2.734   3.769  10.799  2.6568 -0.6781  4.9151
  118MOL0     H16236   2.527   3.781  11.011  1.1213  0.7793  1.6373
  118MOL0     H16237   2.632   3.638  11.005  0.7216 -0.2181 -2.0812
  118MOL0     H16238   2.737   3.912  11.020 -1.7274 -1.1604 -3.1006
  118MOL0     H16239   2.695   3.830  11.170  1.2359 -0.1545  0.5363
  118MOL0     H16240   2.862   3.658  11.131 -2.1616 -0.9730 -0.6501
  118MOL0     H16241   2.923   3.737  10.983  1.4020  0.3827  1.3771
  118MOL0     H16242   3.080   4.007  11.243  0.2818  0.6463 -0.4527
  118MOL0     H16243   3.418   4.080  11.250 -1.3520 -1.6978 -2.3118
  118MOL0     H16244   3.387   4.034  11.414 -0.2764 -0.9858 -0.3878
  118MOL0     H16245   3.265   4.125  11.322  1.8263  2.5662  0.6947
  118MOL0     H16246   3.719   4.125  11.277 -2.2542 -1.7576 -0.5722
  118MOL0     H16247   3.950   4.148  11.287  1.8226 -1.1897  2.5931
  118MOL0     H16248   4.159   4.141  11.209  0.4678  4.9661  1.7980
  118MOL0     H16249   4.162   4.156  11.374 -0.9026 -0.1758  0.0921
  118MOL0     H16250   4.384   3.979  11.279 -0.0133  0.1231 -1.0361
  118MOL0     H16251   4.386   4.137  11.204 -1.4841  0.1627 -0.4395
  118MOL0     H16252   4.359   4.092  11.503 -1.8677  2.1196 -0.6854
  118MOL0     H16253   4.403   4.246  11.419  0.4678 -0.1819  1.2444
  118MOL0     H16254   4.565   3.980  11.448  0.4877 -1.0495 -2.0016
  118MOL0     H16255   4.602   4.136  11.524 -1.2777 -2.0537  1.4805
  118MOL0     H16256   4.626   4.108  11.220  0.3477 -1.4916  0.2093
  118MOL0     H16257   4.649   4.247  11.316 -3.0078 -0.3374 -3.9301
  118MOL0     H16258   4.805   3.998  11.384  2.9027 -0.2856 -0.4767
  118MOL0     H16259   4.846   4.161  11.413 -1.0206  1.3949  0.1604
  118MOL0     H16260   4.814   3.995  11.152  0.1560  0.3145 -0.9194
  118MOL0     H16261   4.968   4.050  11.233 -0.0319  0.4435  0.8341
  118MOL0     H16262   4.771   4.228  11.092  2.0142  0.2046 -1.7854
  118MOL0     H16263   4.924   4.159  11.019  5.3904 -0.0410  2.3448
  118MOL0     H16264   4.010   3.726  11.291  0.8404  0.3314  1.1505
  118MOL0     H16265   3.749   3.704  11.309 -0.3159  0.2416  0.8347
  118MOL0     H16266   3.322   3.610  11.117 -0.5485 -0.3119 -0.5154
  118MOL0     H16267   3.100   3.639  11.065 -1.7191  1.3700  0.8028
  118MOL0     H16268   2.109   3.040  10.200 -1.6205  0.0150  2.1248
  118MOL0     H16269   1.904   2.949  10.271  2.8467  0.1336  1.1006
  118MOL0     H16270   1.515   2.867  10.173  1.6773 -0.4050 -0.1054
  118MOL0     H16271   1.288   2.840  10.240  0.1004  0.2068 -1.6623
  118MOL0     H16272   1.155   2.519  10.430  0.7512 -1.5436 -2.6058
  118MOL0     H16273   1.208   2.684  10.424  1.0828 -2.5203  1.9577
  118MOL0     H16274   0.953   2.757  10.363 -1.3739  0.5401  0.7753
  118MOL0     H16275   0.983   2.697  10.530  2.5586  1.5337 -1.1049
  118MOL0     H16276   0.920   2.485  10.331  2.8626  0.7847 -0.3714
  118MOL0     H16277   0.915   2.487  10.504  2.3329 -1.2234 -1.1830
  118MOL0     H16278   0.718   2.647  10.323  0.2144 -4.4563 -2.2922
  118MOL0     H16279   0.719   2.654  10.501  1.1997  0.6619  0.5300
  118MOL0     H16280   0.494   2.320  10.436 -0.1711  0.0100 -1.8027
  118MOL0     H16281   1.324   2.420  10.129  0.9023 -0.8602 -0.7660
  118MOL0     H16282   1.493   2.346  10.021  1.2421  1.7411 -1.4680
  118MOL0     H16283   1.658   2.399  10.069 -0.7373  2.4892 -0.5970
  118MOL0     H16284   1.552   2.341  10.194  2.4618 -1.4150 -0.0198
  119MOL0     O16285   9.906   7.098   3.480 -0.4900 -0.3746  0.0758
  119MOL0     C16286   9.924   7.030   3.577  0.0802  0.1385  0.7615
  119MOL0     O16287  10.001   7.059   3.690 -0.5978 -0.8764 -0.0867
  119MOL0     C16288  10.102   7.157   3.690  0.3972 -0.0273  0.1988
  119MOL0     C16289  10.136   7.256   3.595 -0.4744  0.7655  0.2542
  119MOL0     C16290  10.250   7.339   3.609  0.0246  0.0635  0.5675
  119MOL0     C16291  10.342   7.318   3.712  0.3705  0.2787 -0.2466
  119MOL0     O16292  10.455   7.388   3.701 -0.3147  0.5844 -0.0251
  119MOL0     C16293  10.559   7.386   3.802 -0.5426  0.5248 -1.2735
  119MOL0     C16294  10.644   7.259   3.813  0.3116  0.4132 -0.3232
  119MOL0     C16295  10.797   7.298   3.846  0.5266  0.0882  0.6009
  119MOL0     C16296  10.812   7.381   3.969  0.1035  0.3864 -0.2079
  119MOL0     C16297  10.955   7.374   4.022  1.0772  0.0799 -0.6654
  119MOL0     C16298  10.947   7.407   4.170 -0.6350  0.6563 -0.1107
  119MOL0     C16299  11.091   7.438   4.235 -0.8125 -0.6465  0.3292
  119MOL0     C16300  11.082   7.508   4.366 -0.0070  0.9894  0.3918
  119MOL0     N16301  11.041   7.422   4.475  0.1951  0.4063 -0.7435
  119MOL0     C16302  10.928   7.431   4.539 -0.3466 -0.2980 -0.3720
  119MOL0     C16303  10.952   7.371   4.663 -0.0891 -0.3420 -0.0337
  119MOL0     C16304  10.848   7.354   4.767  0.1550 -0.7259  0.3349
  119MOL0     C16305  10.838   7.487   4.860 -0.6207  0.9927  0.5822
  119MOL0     C16306  10.722   7.467   4.959  0.8358  0.5130 -0.7575
  119MOL0     C16307  10.588   7.468   4.887  0.5648  0.2171 -0.5581
  119MOL0     O16308  10.483   7.502   4.987  0.2242  0.3176  0.3025
  119MOL0     C16309  10.408   7.409   5.056 -1.0540 -0.6756  0.2699
  119MOL0     C16310  10.323   7.459   5.156  0.5239  0.5486 -0.1974
  119MOL0     C16311  10.255   7.369   5.243  0.6504  0.3657 -0.4596
  119MOL0     C16312  10.156   7.433   5.339  0.9388 -0.0294 -0.4621
  119MOL0     C16313  10.287   7.229   5.246  0.1831 -0.4340  0.0626
  119MOL0     C16314  10.250   7.132   5.360 -0.5228 -0.3568  0.0911
  119MOL0     O16315  10.309   7.009   5.349  0.4614 -0.0229 -0.4630
  119MOL0     C16316  10.301   6.907   5.448  0.0521  0.1334 -0.2237
  119MOL0     C16317  10.260   6.784   5.398 -0.3317  0.7155 -0.8538
  119MOL0     C16318  10.257   6.668   5.484 -0.8552 -0.9894 -0.0380
  119MOL0     C16319  10.266   6.694   5.626  0.0545  0.1291 -0.5675
  119MOL0     O16320  10.231   6.598   5.715 -0.7180 -0.0440  0.0252
  119MOL0     C16321  10.256   6.466   5.684 -0.9436 -0.1899  0.2074
  119MOL0     C16322  10.292   6.374   5.797  1.2588 -0.5421 -0.6530
  119MOL0     C16323  10.286   6.222   5.748  0.2573  0.1935 -0.4209
  119MOL0     C16324  10.361   6.128   5.853  0.0130 -0.7838 -0.2055
  119MOL0     C16325  10.357   5.995   5.795 -0.6435  0.4264 -0.8343
  119MOL0     C16326  10.414   5.889   5.891  0.3990  0.4418  0.1199
  119MOL0     C16327  10.418   5.742   5.842  0.2041  0.4523  0.1845
  119MOL0     C16328  10.512   5.668   5.936 -0.0124 -0.2696 -0.1048
  119MOL0    Cl16329  10.680   5.736   5.958 -0.1202 -0.4198 -0.3898
  119MOL0     C16330  10.297   6.824   5.670  0.5508 -0.7077 -0.3417
  119MOL0     C16331  10.309   6.932   5.589  0.1412  0.1098 -0.6235
  119MOL0     O16332  10.199   7.173   5.461  1.3689 -0.0217  0.9783
  119MOL0     C16333  10.369   7.185   5.139  0.4270 -0.4477  0.0730
  119MOL0     C16334  10.422   7.272   5.037 -1.4850  0.5398  0.1557
  119MOL0     N16335  11.074   7.304   4.657 -0.0315  1.2539  0.6569
  119MOL0     N16336  11.133   7.345   4.542  0.3456  0.4915  0.2682
  119MOL0     C16337  10.305   7.231   3.812 -0.2483  0.1336 -0.3715
  119MOL0     C16338  10.182   7.150   3.800 -0.8796 -0.5412 -0.5971
  119MOL0     C16339   9.859   6.900   3.568  0.0896  0.6410  0.3283
  119MOL0     C16340   9.924   6.790   3.642  0.8060  0.4627  0.1052
  119MOL0     C16341   9.866   6.660   3.625 -0.4088 -0.1492 -0.3974
  119MOL0     C16342   9.746   6.642   3.561 -0.3771  0.4729  0.8087
  119MOL0     O16343   9.697   6.518   3.569  0.8645 -0.1686 -0.2725
  119MOL0     C16344   9.563   6.485   3.523  0.0057 -0.3863  0.2650
  119MOL0     C16345   9.516   6.377   3.621 -0.3557 -0.5664  0.2445
  119MOL0     C16346   9.430   6.273   3.552  0.3377  0.5645 -0.9227
  119MOL0     C16347   9.393   6.158   3.651 -0.3548  0.4396  0.0697
  119MOL0     C16348   9.287   6.187   3.749  0.0309 -0.2189 -0.2658
  119MOL0     C16349   9.194   6.204   3.825  0.5034  0.0840 -0.1808
  119MOL0     C16350   9.686   6.740   3.494  0.1201  0.1686  0.1489
  119MOL0     C16351   9.737   6.874   3.501 -0.1366 -0.0225 -1.0305
  119MOL0     C16352   9.650   6.989   3.437 -0.1722  0.0526  0.0474
  119MOL0     H16353  10.070   7.265   3.510 -1.6479 -2.7299  0.6531
  119MOL0     H16354  10.261   7.406   3.524 -0.2700 -0.6135 -0.0188
  119MOL0     H16355  10.524   7.413   3.902  5.3959  1.0966  1.1072
  119MOL0     H16356  10.618   7.473   3.771 -0.5439  0.8600 -0.3747
  119MOL0     H16357  10.603   7.199   3.895 -0.3080  1.2941  0.0169
  119MOL0     H16358  10.635   7.208   3.717 -1.3282 -1.2503  0.6289
  119MOL0     H16359  10.853   7.207   3.867  1.9710  1.8970  6.5785
  119MOL0     H16360  10.840   7.344   3.757 -0.5441 -0.2474 -0.1128
  119MOL0     H16361  10.781   7.483   3.946 -2.7471 -0.3983 -0.2564
  119MOL0     H16362  10.753   7.336   4.049  2.2322 -2.1707  0.0574
  119MOL0     H16363  11.016   7.452   3.975  1.1789  1.6337  1.8133
  119MOL0     H16364  11.005   7.276   4.017 -0.7700 -1.2597  3.1179
  119MOL0     H16365  10.875   7.489   4.184 -0.0760  0.8887  1.4957
  119MOL0     H16366  10.915   7.314   4.218 -0.5393  0.8018  0.2288
  119MOL0     H16367  11.159   7.493   4.169 -1.5590  0.7528  0.6801
  119MOL0     H16368  11.138   7.340   4.243 -0.2355 -0.3904  0.1465
  119MOL0     H16369  11.183   7.543   4.390  1.0997 -1.5427 -0.2909
  119MOL0     H16370  11.008   7.588   4.356 -1.6148 -0.7539 -3.4067
  119MOL0     H16371  10.844   7.489   4.500  1.6745  2.1748 -1.3498
  119MOL0     H16372  10.873   7.266   4.828  3.9627 -0.3530 -0.4676
  119MOL0     H16373  10.751   7.329   4.723  0.1918 -0.5479  0.1521
  119MOL0     H16374  10.937   7.499   4.907 -0.3466 -1.0083  0.6097
  119MOL0     H16375  10.827   7.575   4.796 -1.9070 -1.9655 -3.7216
  119MOL0     H16376  10.739   7.375   5.015 -1.1241  2.2026  3.0317
  119MOL0     H16377  10.715   7.544   5.037  1.5239  1.8672 -1.9779
  119MOL0     H16378  10.588   7.543   4.807 -0.7671  1.3622  0.4758
  119MOL0     H16379  10.575   7.372   4.836 -1.3005  0.1198  0.0184
  119MOL0     H16380  10.302   7.565   5.169 -3.3440  0.0281 -1.0433
  119MOL0     H16381  10.153   7.387   5.438 -0.1946 -1.3722 -1.0924
  119MOL0     H16382  10.053   7.419   5.304 -0.5784  2.0116  2.6970
  119MOL0     H16383  10.172   7.541   5.353 -1.8243  0.4624 -0.4056
  119MOL0     H16384  10.247   6.779   5.291 -0.1479  0.2409 -0.8560
  119MOL0     H16385  10.237   6.575   5.431 -2.8818  0.8052 -2.6846
  119MOL0     H16386  10.177   6.415   5.628 -0.0317 -0.5354 -0.7970
  119MOL0     H16387  10.342   6.463   5.617 -1.9554 -1.5492 -1.1214
  119MOL0     H16388  10.383   6.410   5.845  1.0159  0.1869 -0.7197
  119MOL0     H16389  10.220   6.388   5.878  3.6222 -1.9407  1.8722
  119MOL0     H16390  10.340   6.219   5.653  1.9948 -1.9949  0.5481
  119MOL0     H16391  10.182   6.192   5.728  0.9432 -1.2299 -2.1347
  119MOL0     H16392  10.317   6.141   5.952  0.9742 -1.0576  0.2682
  119MOL0     H16393  10.466   6.158   5.859 -0.0363 -0.5150 -0.5918
  119MOL0     H16394  10.252   5.978   5.770 -1.4795  1.9700  1.2859
  119MOL0     H16395  10.400   5.990   5.695  0.3241 -0.9342 -0.3809
  119MOL0     H16396  10.348   5.882   5.978  3.8490  1.0267  3.0620
  119MOL0     H16397  10.515   5.920   5.920  0.6156 -1.9151  2.2469
  119MOL0     H16398  10.460   5.745   5.740  1.2837  0.4266  0.6123
  119MOL0     H16399  10.318   5.699   5.829  0.9048 -1.2963  0.2632
  119MOL0     H16400  10.505   5.563   5.907  1.1233 -0.6176  0.8155
  119MOL0     H16401  10.473   5.667   6.039  0.6545 -1.0146  0.1521
  119MOL0     H16402  10.312   6.832   5.777 -0.7856 -0.8812 -0.1310
  119MOL0     H16403  10.313   7.033   5.627 -2.5895 -0.0597  0.3312
  119MOL0     H16404  10.394   7.079   5.138 -0.5359 -0.6827 -0.4265
  119MOL0     H16405  10.502   7.220   4.984 -1.3241  0.3663  0.5622
  119MOL0     H16406  10.360   7.205   3.903 -1.7459 -1.1361  0.2157
  119MOL0     H16407  10.161   7.084   3.884 -1.2193  0.7832  0.4002
  119MOL0     H16408  10.012   6.804   3.705  2.3251 -0.6928 -1.6850
  119MOL0     H16409   9.911   6.578   3.681  0.1747  1.0376  0.9277
  119MOL0     H16410   9.497   6.572   3.517 -0.6410 -0.5478  3.2789
  119MOL0     H16411   9.574   6.435   3.427 -0.7762 -0.3164  0.1344
  119MOL0     H16412   9.476   6.433   3.706  1.8070  1.3348  0.0972
  119MOL0     H16413   9.608   6.332   3.660  0.0750 -0.7488 -0.9433
  119MOL0     H16414   9.335   6.319   3.525 -1.7741 -1.9558  1.6163
  119MOL0     H16415   9.489   6.228   3.471  2.9357 -0.6675  1.4583
  119MOL0     H16416   9.485   6.134   3.705 -1.0042  0.3573  1.1537
  119MOL0     H16417   9.363   6.061   3.612  0.6969 -1.4131  3.4609
  119MOL0     H16418   9.119   6.223   3.899  1.6720  1.5147  0.7018
  119MOL0     H16419   9.601   6.723   3.429  0.6094 -1.1884 -0.1700
  119MOL0     H16420   9.636   7.070   3.509  0.3215  0.0398  0.1625
  119MOL0     H16421   9.704   7.028   3.350  1.4337 -0.5323  0.7369
  119MOL0     H16422   9.555   6.950   3.400  1.2358 -3.5067 -0.1517
  120MOL0     O16423   1.807   0.049   8.818  0.7590 -0.2513  0.8611
  120MOL0     C16424   1.822   0.037   8.941 -0.1708 -0.2008  0.2148
  120MOL0     O16425   1.764   0.112   9.035  0.0070  0.8093 -0.9252
  120MOL0     C16426   1.664   0.193   8.992  0.8918 -0.1600  0.6897
  120MOL0     C16427   1.671   0.335   9.002 -0.1022  0.6365 -0.6819
  120MOL0     C16428   1.573   0.412   8.966  0.0418  0.5594  0.4215
  120MOL0     C16429   1.449   0.356   8.917  0.1705  2.6083 -1.3178
  120MOL0     O16430   1.332   0.428   8.884 -1.5097  0.2588 -0.0443
  120MOL0     C16431   1.308   0.562   8.932  0.4990  0.9641 -0.0745
  120MOL0     C16432   1.172   0.602   8.893  0.1263 -0.8382  0.3799
  120MOL0     C16433   1.176   0.652   8.743  1.1884  0.4759 -0.4501
  120MOL0     C16434   1.057   0.744   8.720  0.0980  0.1662 -0.6250
  120MOL0     C16435   1.062   0.795   8.576 -0.1883  0.0620 -0.0293
  120MOL0     C16436   0.930   0.879   8.545 -0.4925  1.0081  0.1487
  120MOL0     C16437   0.963   0.950   8.414 -0.0065 -0.1825 -0.1437
  120MOL0     C16438   0.851   1.039   8.367 -0.0368 -0.0963 -0.5754
  120MOL0     N16439   0.720   0.971   8.365 -0.3973  0.2758  0.2268
  120MOL0     C16440   0.614   1.010   8.429  0.1270 -0.0350 -0.7904
  120MOL0     C16441   0.514   0.925   8.409  0.4067 -0.7204  0.5362
  120MOL0     C16442   0.386   0.966   8.469 -0.8250 -0.1765  0.8053
  120MOL0     C16443   0.321   1.067   8.372  0.2860 -0.4833  0.6638
  120MOL0     C16444   0.183   1.106   8.427 -0.6113 -0.4531  0.2802
  120MOL0     C16445   0.091   0.983   8.423  0.0027 -0.0522 -0.0925
  120MOL0     O16446  -0.046   1.016   8.396 -0.6723  0.2777 -0.0157
  120MOL0     C16447  -0.118   1.098   8.483  0.1675  0.0957  1.1227
  120MOL0     C16448  -0.234   1.159   8.436  0.7765  0.0527  0.0219
  120MOL0     C16449  -0.307   1.245   8.519  0.2465  0.2089 -0.0573
  120MOL0     C16450  -0.426   1.315   8.452 -1.2198 -0.1126 -0.3553
  120MOL0     C16451  -0.271   1.274   8.651 -0.0529  0.1963 -0.1515
  120MOL0     C16452  -0.343   1.375   8.742 -0.0204 -0.3040 -0.2145
  120MOL0     O16453  -0.383   1.337   8.865 -0.0829 -0.0459  0.7078
  120MOL0     C16454  -0.402   1.443   8.950  0.4037  0.2412 -0.3562
  120MOL0     C16455  -0.535   1.492   8.977  0.9096  0.1977  0.5429
  120MOL0     C16456  -0.565   1.601   9.064 -0.6050  0.0666 -0.2705
  120MOL0     C16457  -0.457   1.664   9.133  0.3816 -0.0708 -0.0278
  120MOL0     O16458  -0.471   1.780   9.215 -0.2175  0.2116  0.1236
  120MOL0     C16459  -0.524   1.743   9.349  1.1190 -0.2290 -0.7803
  120MOL0     C16460  -0.619   1.857   9.388 -1.3007  0.3794  0.2719
  120MOL0     C16461  -0.649   1.852   9.533 -0.1525  0.1585  0.2970
  120MOL0     C16462  -0.743   1.972   9.568 -0.6595 -0.9344 -0.2050
  120MOL0     C16463  -0.663   2.096   9.601 -0.5396 -0.3670  0.0391
  120MOL0     C16464  -0.750   2.216   9.638  0.1791 -0.5766  1.1948
  120MOL0     C16465  -0.806   2.275   9.504  0.1211 -1.5154 -0.2197
  120MOL0     C16466  -0.846   2.419   9.507  0.2251 -0.0072 -0.1218
  120MOL0    Cl16467  -0.706   2.510   9.549 -0.1073 -0.4054  0.1865
  120MOL0     C16468  -0.320   1.622   9.099  0.1039  0.8755  0.3703
  120MOL0     C16469  -0.301   1.511   9.013 -0.1191  0.4386 -0.5382
  120MOL0     O16470  -0.347   1.495   8.711 -0.1278 -0.0468  0.1567
  120MOL0     C16471  -0.161   1.204   8.697 -1.1747 -0.8578  0.2756
  120MOL0     C16472  -0.080   1.122   8.614  0.8808 -0.8849  0.5416
  120MOL0     N16473   0.561   0.831   8.317 -0.2124  0.2261  0.8202
  120MOL0     N16474   0.688   0.850   8.300 -0.0126 -0.3124  1.0525
  120MOL0     C16475   1.438   0.217   8.903 -0.5054 -0.3950 -0.3307
  120MOL0     C16476   1.548   0.140   8.935 -0.2925 -0.5353 -0.5790
  120MOL0     C16477   1.886  -0.087   9.001 -0.0931  0.2920 -0.0994
  120MOL0     C16478   1.868  -0.211   8.935 -0.3621 -0.4477 -0.1405
  120MOL0     C16479   1.908  -0.337   8.990 -0.8727 -0.7066  0.2534
  120MOL0     C16480   1.977  -0.334   9.117  0.3544 -1.2547 -0.5118
  120MOL0     O16481   2.026  -0.438   9.186 -0.3173 -0.5198  0.8383
  120MOL0     C16482   2.006  -0.566   9.125  0.3848  0.2787 -0.3164
  120MOL0     C16483   2.074  -0.657   9.225 -0.5131 -0.5428 -0.0151
  120MOL0     C16484   2.071  -0.811   9.194 -0.6946 -0.0111  0.4215
  120MOL0     C16485   2.195  -0.872   9.132  0.0141  0.3256  1.1927
  120MOL0     C16486   2.185  -0.832   8.986  1.3340 -0.1822 -0.4328
  120MOL0     C16487   2.158  -0.813   8.869 -0.0146  0.3307 -1.2184
  120MOL0     C16488   2.007  -0.207   9.181  0.3677  0.4463 -0.3454
  120MOL0     C16489   1.954  -0.085   9.131 -0.4095 -0.3940 -0.7312
  120MOL0     C16490   1.987   0.040   9.215 -0.3898  0.4869 -0.4019
  120MOL0     H16491   1.754   0.391   9.044  0.2275 -1.0204  0.9833
  120MOL0     H16492   1.583   0.519   8.985  0.4248 -0.0849  4.7281
  120MOL0     H16493   1.382   0.627   8.885 -0.9823  2.6275 -0.1792
  120MOL0     H16494   1.326   0.563   9.040  1.5152 -2.6557 -0.0483
  120MOL0     H16495   1.097   0.526   8.913 -1.1789  0.7755  1.9995
  120MOL0     H16496   1.144   0.686   8.957 -0.2730  0.5896 -1.5839
  120MOL0     H16497   1.273   0.699   8.727  0.0636  3.9521  1.7820
  120MOL0     H16498   1.164   0.564   8.680 -0.3089 -0.2202  0.7340
  120MOL0     H16499   0.968   0.682   8.736  0.5160  0.0703  1.5587
  120MOL0     H16500   1.058   0.823   8.795 -2.6378 -1.6525  1.5118
  120MOL0     H16501   1.075   0.709   8.510 -0.0871 -1.0888  1.4440
  120MOL0     H16502   1.141   0.870   8.568 -1.5763  1.6125  0.0832
  120MOL0     H16503   0.848   0.807   8.538 -0.2123  0.6050  0.9026
  120MOL0     H16504   0.908   0.957   8.619  3.0104  1.9784  0.3506
  120MOL0     H16505   0.968   0.877   8.333  0.6639  2.5790 -2.7722
  120MOL0     H16506   1.053   1.012   8.413  1.1855 -1.8156 -1.8952
  120MOL0     H16507   0.843   1.115   8.445  1.2570 -2.4020  1.9903
  120MOL0     H16508   0.869   1.088   8.271  1.3477  0.7674  0.0943
  120MOL0     H16509   0.613   1.100   8.489 -1.3217 -1.6182  1.7290
  120MOL0     H16510   0.406   1.011   8.567 -0.3151 -4.3259  2.7882
  120MOL0     H16511   0.321   0.879   8.484 -1.5267  0.0897 -0.4843
  120MOL0     H16512   0.371   1.163   8.355 -1.9184  0.6088 -0.0901
  120MOL0     H16513   0.307   1.027   8.271  1.5650 -0.4989  0.4808
  120MOL0     H16514   0.204   1.135   8.530 -4.4570 -1.9569  1.6531
  120MOL0     H16515   0.147   1.195   8.374 -0.4731 -0.2422  0.5373
  120MOL0     H16516   0.115   0.923   8.335 -0.5317  1.3426 -1.2270
  120MOL0     H16517   0.091   0.924   8.515 -4.5605  0.9604  0.7697
  120MOL0     H16518  -0.250   1.123   8.335 -0.2379 -0.2062  0.2523
  120MOL0     H16519  -0.515   1.278   8.505 -2.1450 -1.3419 -2.6469
  120MOL0     H16520  -0.449   1.282   8.351 -0.9984 -0.9162 -0.1501
  120MOL0     H16521  -0.426   1.424   8.456 -1.7562 -0.1508  1.4152
  120MOL0     H16522  -0.618   1.441   8.928 -0.9074  0.5876  2.9764
  120MOL0     H16523  -0.666   1.638   9.083 -0.6733  0.5453 -1.4701
  120MOL0     H16524  -0.592   1.659   9.333  0.6245  0.8119 -5.5719
  120MOL0     H16525  -0.444   1.728   9.422 -0.5322 -1.1416  0.9079
  120MOL0     H16526  -0.559   1.944   9.360 -0.1153 -0.4792  0.0904
  120MOL0     H16527  -0.712   1.862   9.331 -1.0658  0.1447 -0.1385
  120MOL0     H16528  -0.550   1.855   9.581  1.0895  1.6775 -2.1577
  120MOL0     H16529  -0.697   1.754   9.544  2.3157 -1.3706 -1.3309
  120MOL0     H16530  -0.800   1.942   9.656 -0.9793 -1.9760 -0.7441
  120MOL0     H16531  -0.820   2.001   9.495 -0.5801  0.3563  0.2107
  120MOL0     H16532  -0.600   2.083   9.689 -1.2066  2.9385  1.1522
  120MOL0     H16533  -0.599   2.127   9.518 -0.7481  3.0731  1.0067
  120MOL0     H16534  -0.680   2.285   9.687 -0.9712  0.5590  1.2978
  120MOL0     H16535  -0.832   2.193   9.706 -1.5091  4.0660  1.1067
  120MOL0     H16536  -0.897   2.221   9.476 -1.7294  0.8303  0.9055
  120MOL0     H16537  -0.731   2.262   9.426 -0.3008 -0.7649 -0.7630
  120MOL0     H16538  -0.924   2.419   9.584 -0.0200 -1.2375 -0.3533
  120MOL0     H16539  -0.896   2.439   9.412  2.1584 -1.1847 -1.4572
  120MOL0     H16540  -0.227   1.670   9.128  1.3215 -0.9409 -0.3387
  120MOL0     H16541  -0.198   1.491   8.986  0.4607  0.6060  1.4345
  120MOL0     H16542  -0.123   1.223   8.797  1.7137  1.5025 -1.1197
  120MOL0     H16543   0.006   1.074   8.661  0.7442 -1.2321  0.4346
  120MOL0     H16544   1.348   0.157   8.890  0.3795 -1.9875  0.6064
  120MOL0     H16545   1.535   0.033   8.933  1.2071 -0.8887  2.6967
  120MOL0     H16546   1.812  -0.205   8.842 -2.6968 -4.2288  0.8242
  120MOL0     H16547   1.898  -0.418   8.919 -2.2811  0.1049 -0.5102
  120MOL0     H16548   1.898  -0.587   9.124  0.6059 -1.3853  2.3064
  120MOL0     H16549   2.043  -0.571   9.022  2.6053 -0.6527  0.4726
  120MOL0     H16550   2.016  -0.633   9.316 -1.9360  0.8649 -1.2283
  120MOL0     H16551   2.177  -0.626   9.245 -0.1382 -0.4717 -1.9110
  120MOL0     H16552   2.056  -0.859   9.291 -1.5686  1.0297  0.8256
  120MOL0     H16553   1.977  -0.833   9.142 -2.0468 -0.5186  2.9338
  120MOL0     H16554   2.203  -0.981   9.139  1.9566  0.5487  4.0615
  120MOL0     H16555   2.280  -0.826   9.182  0.1104  0.7946  0.6074
  120MOL0     H16556   2.139  -0.784   8.767  3.1250  0.0883 -1.9643
  120MOL0     H16557   2.049  -0.206   9.282 -1.4664  0.2785  0.4531
  120MOL0     H16558   1.922   0.047   9.303 -0.2047  0.0001 -0.2200
  120MOL0     H16559   2.087   0.036   9.260 -0.1278  4.3264 -0.3021
  120MOL0     H16560   1.993   0.131   9.155  4.5161 -0.5632 -1.9755
  121MOL0     O16561   2.798   5.336   3.576 -0.0228 -0.2720  0.7404
  121MOL0     C16562   2.819   5.447   3.611  0.2136  0.0248  0.0213
  121MOL0     O16563   2.920   5.525   3.574 -0.3334  0.1949  0.8029
  121MOL0     C16564   3.039   5.464   3.530  0.0374  0.3205 -0.7749
  121MOL0     C16565   3.107   5.532   3.426 -0.2427 -0.0375 -0.1094
  121MOL0     C16566   3.230   5.480   3.384 -0.3715  0.4801  0.2354
  121MOL0     C16567   3.286   5.357   3.428  0.0242 -0.7430  0.0835
  121MOL0     O16568   3.418   5.306   3.405  0.3531 -0.5260 -0.1765
  121MOL0     C16569   3.501   5.370   3.302  0.2374  0.3836  0.2877
  121MOL0     C16570   3.640   5.310   3.330  0.3968 -0.2940  0.7737
  121MOL0     C16571   3.741   5.400   3.247 -0.7617  0.7057  0.0833
  121MOL0     C16572   3.828   5.296   3.163 -0.5121 -0.8670  0.6944
  121MOL0     C16573   3.909   5.207   3.250  0.3582  0.0634  0.0860
  121MOL0     C16574   3.998   5.115   3.171  0.3891  0.4849 -0.0167
  121MOL0     C16575   3.917   5.012   3.084  0.4699 -1.1156  0.7897
  121MOL0     C16576   4.006   4.903   3.023  0.5119  0.2560 -0.4936
  121MOL0     N16577   4.060   4.932   2.886  0.2073  0.1071 -0.2820
  121MOL0     C16578   4.182   4.989   2.845  0.1955  0.8070 -0.5860
  121MOL0     C16579   4.186   4.977   2.711 -0.1046  0.5606  0.4230
  121MOL0     C16580   4.313   5.017   2.631  0.2561  0.0414 -0.4453
  121MOL0     C16581   4.278   5.117   2.522  0.0879  0.4284  0.2849
  121MOL0     C16582   4.176   5.061   2.418  0.0592 -1.0935 -0.1173
  121MOL0     C16583   4.232   4.954   2.323 -0.4940 -0.1773 -0.0338
  121MOL0     O16584   4.134   4.878   2.250  0.0743  0.1682 -0.5499
  121MOL0     C16585   4.084   4.760   2.297  0.5124 -0.6279  0.1195
  121MOL0     C16586   4.030   4.680   2.199 -0.2066 -0.1194 -0.1582
  121MOL0     C16587   3.993   4.543   2.216 -0.3055 -0.0226 -0.2269
  121MOL0     C16588   3.931   4.482   2.100  0.8565  0.3652  0.6554
  121MOL0     C16589   4.007   4.482   2.343 -0.5958  0.3524  0.6975
  121MOL0     C16590   3.959   4.349   2.386  0.1301 -0.2904  0.0200
  121MOL0     O16591   4.024   4.295   2.492  0.2949  0.5606  0.3359
  121MOL0     C16592   4.020   4.160   2.515 -0.1059  0.5721 -0.4389
  121MOL0     C16593   4.008   4.052   2.420  0.7534 -0.6115 -0.4626
  121MOL0     C16594   3.996   3.924   2.465 -0.5502 -0.4243 -0.4636
  121MOL0     C16595   3.996   3.888   2.598 -0.0467 -0.2774 -0.8815
  121MOL0     O16596   4.007   3.759   2.626 -0.6618  0.0489 -0.3905
  121MOL0     C16597   4.001   3.722   2.764  0.4219 -0.1118  0.2875
  121MOL0     C16598   4.014   3.568   2.786  0.6536  0.3091  0.1012
  121MOL0     C16599   3.917   3.474   2.701  0.4805 -0.2701  0.5200
  121MOL0     C16600   3.769   3.498   2.722  1.7794 -0.0303  0.4595
  121MOL0     C16601   3.688   3.393   2.644 -0.1256 -0.2882 -0.8226
  121MOL0     C16602   3.543   3.415   2.688  0.6956  1.0081 -0.2334
  121MOL0     C16603   3.464   3.305   2.622 -0.4819 -0.6525 -0.1528
  121MOL0     C16604   3.317   3.313   2.657 -0.0826 -0.0066 -0.1308
  121MOL0    Cl16605   3.261   3.346   2.831 -0.2980 -0.1208 -0.2727
  121MOL0     C16606   4.001   3.994   2.691  0.2484  0.2106 -0.5774
  121MOL0     C16607   4.027   4.130   2.651  0.4104  0.1922 -0.5365
  121MOL0     O16608   3.869   4.290   2.323 -0.3723  0.2376 -0.1375
  121MOL0     C16609   4.055   4.568   2.449 -0.5230  0.0179  0.0165
  121MOL0     C16610   4.108   4.696   2.426  0.4129  0.5559 -0.1979
  121MOL0     N16611   4.067   4.914   2.675  0.9099 -0.6725  0.1500
  121MOL0     N16612   4.013   4.876   2.782 -0.4833  0.2330  0.0652
  121MOL0     C16613   3.207   5.283   3.514  0.2633  0.0511  0.2526
  121MOL0     C16614   3.088   5.338   3.567 -0.7729  0.6239 -0.2612
  121MOL0     C16615   2.716   5.512   3.697  0.8026 -0.2558 -0.4887
  121MOL0     C16616   2.749   5.638   3.751  0.5564  0.8118 -0.9598
  121MOL0     C16617   2.673   5.701   3.846  0.2649  0.3880  0.0931
  121MOL0     C16618   2.551   5.647   3.888 -0.5972 -0.1397 -0.9805
  121MOL0     O16619   2.453   5.703   3.978 -0.5272  0.0357 -0.4695
  121MOL0     C16620   2.480   5.838   4.026 -0.4343  0.1747  0.7842
  121MOL0     C16621   2.542   5.838   4.169  0.1345  0.9553 -0.4018
  121MOL0     C16622   2.505   5.977   4.238  0.0096  0.2363  0.7602
  121MOL0     C16623   2.387   5.960   4.339  0.8626  0.0300  0.9478
  121MOL0     C16624   2.256   5.937   4.272 -0.1620 -0.2281  1.2383
  121MOL0     C16625   2.161   5.940   4.211  0.5110  0.4101  0.6082
  121MOL0     C16626   2.517   5.520   3.840  0.0689  0.0947  0.3258
  121MOL0     C16627   2.596   5.454   3.742  0.4937 -1.3271  0.2760
  121MOL0     C16628   2.545   5.322   3.718 -1.4931 -0.1762  0.8410
  121MOL0     H16629   3.075   5.622   3.375 -0.5694 -1.2558 -2.1642
  121MOL0     H16630   3.276   5.535   3.302 -2.4927  0.7598 -0.8301
  121MOL0     H16631   3.499   5.479   3.311  0.2572  0.5538 -1.4289
  121MOL0     H16632   3.475   5.349   3.197 -3.4884  0.7679  0.9783
  121MOL0     H16633   3.673   5.300   3.434  1.4558 -0.7130  0.4158
  121MOL0     H16634   3.636   5.207   3.294  2.8005 -0.1632 -0.0091
  121MOL0     H16635   3.694   5.467   3.174 -0.7803  1.4323  0.7508
  121MOL0     H16636   3.801   5.462   3.315 -0.4951  0.3221  0.2041
  121MOL0     H16637   3.759   5.238   3.101  2.9812 -1.9642 -2.5584
  121MOL0     H16638   3.892   5.353   3.096  0.9706 -1.1248  1.8496
  121MOL0     H16639   3.844   5.132   3.298 -0.6615  0.0362 -1.2797
  121MOL0     H16640   3.972   5.253   3.327  0.3312 -2.5561  1.8123
  121MOL0     H16641   4.047   5.179   3.097 -1.1532  1.1661 -0.4944
  121MOL0     H16642   4.070   5.065   3.236 -1.1260 -1.5315  0.1837
  121MOL0     H16643   3.862   5.067   3.008  1.0020 -4.3073 -2.1443
  121MOL0     H16644   3.842   4.976   3.155  0.1581  3.1988  3.0032
  121MOL0     H16645   4.092   4.885   3.089 -1.0534 -1.7266  1.1339
  121MOL0     H16646   3.944   4.812   3.024  0.0997  0.5390 -0.2925
  121MOL0     H16647   4.262   5.024   2.909  0.6295  2.2461 -1.8389
  121MOL0     H16648   4.366   4.928   2.596 -0.9482 -1.6593  1.7733
  121MOL0     H16649   4.378   5.061   2.707 -0.4484 -0.8001  0.6787
  121MOL0     H16650   4.224   5.203   2.562 -0.5788  0.5393 -0.8039
  121MOL0     H16651   4.376   5.144   2.480 -0.1207  1.0076  0.1586
  121MOL0     H16652   4.095   5.013   2.473  0.2452 -0.9133  0.3213
  121MOL0     H16653   4.131   5.144   2.364  0.6778 -1.1817 -0.7933
  121MOL0     H16654   4.297   4.998   2.247 -0.6855 -0.5012 -0.3868
  121MOL0     H16655   4.307   4.888   2.369  3.3597  2.1764 -2.3873
  121MOL0     H16656   4.018   4.728   2.102  1.1896  0.1900 -0.1906
  121MOL0     H16657   3.832   4.448   2.133  1.4171 -0.3738  1.6346
  121MOL0     H16658   3.987   4.394   2.068 -1.4910 -1.3123  0.8501
  121MOL0     H16659   3.914   4.556   2.021  0.6040  1.1134  1.3960
  121MOL0     H16660   4.011   4.066   2.312  0.0614  2.0755 -0.2097
  121MOL0     H16661   3.998   3.848   2.388 -3.5599 -1.3719  0.2390
  121MOL0     H16662   4.082   3.770   2.820 -1.3307 -1.1567  3.9781
  121MOL0     H16663   3.907   3.759   2.805  0.5566  0.5128  0.0485
  121MOL0     H16664   4.119   3.552   2.762 -0.2555 -3.5247 -2.1031
  121MOL0     H16665   4.010   3.548   2.894 -0.3943  0.4503  0.1020
  121MOL0     H16666   3.929   3.367   2.722  0.8240  0.0616  2.1681
  121MOL0     H16667   3.937   3.479   2.594  1.8151  0.3085  0.7699
  121MOL0     H16668   3.740   3.596   2.684  2.1799  0.2508  0.8613
  121MOL0     H16669   3.736   3.508   2.826  1.2534 -1.4398  0.4557
  121MOL0     H16670   3.699   3.396   2.535 -0.0476 -1.5024 -0.8605
  121MOL0     H16671   3.710   3.290   2.674 -2.4681  0.1585  3.1901
  121MOL0     H16672   3.519   3.519   2.662 -0.3447  0.9588  0.4611
  121MOL0     H16673   3.530   3.407   2.797 -1.5093  2.5689 -0.3006
  121MOL0     H16674   3.509   3.210   2.651 -4.1817 -2.2626  0.8378
  121MOL0     H16675   3.469   3.325   2.514  2.1944  0.8134  0.1491
  121MOL0     H16676   3.285   3.211   2.636  0.1843 -0.0067 -0.5349
  121MOL0     H16677   3.263   3.384   2.594 -2.5932 -0.9534  0.8321
  121MOL0     H16678   3.991   3.977   2.798 -1.6059  1.5474 -0.4907
  121MOL0     H16679   4.032   4.208   2.726 -0.3434 -1.2302  1.0736
  121MOL0     H16680   4.049   4.533   2.552 -3.9729  1.5820  0.4900
  121MOL0     H16681   4.146   4.755   2.508  0.0301 -0.9216  1.0826
  121MOL0     H16682   3.246   5.185   3.539  2.4926  0.6549 -0.5896
  121MOL0     H16683   3.034   5.290   3.648 -0.0854  0.0640 -0.1339
  121MOL0     H16684   2.845   5.684   3.733  0.3988  1.5460 -0.0375
  121MOL0     H16685   2.730   5.783   3.887  4.4807 -2.0023 -0.3619
  121MOL0     H16686   2.546   5.891   3.957 -0.9686 -0.7998 -0.5272
  121MOL0     H16687   2.390   5.900   4.023 -0.2766  0.5370 -4.0626
  121MOL0     H16688   2.649   5.816   4.173  0.3043  0.4390 -4.0585
  121MOL0     H16689   2.489   5.761   4.226 -0.9430  2.9286  1.4006
  121MOL0     H16690   2.595   6.006   4.292  0.8880 -0.9236 -0.0424
  121MOL0     H16691   2.496   6.047   4.154 -0.8527 -1.3190 -0.5179
  121MOL0     H16692   2.374   6.055   4.390 -0.0646 -0.9490  2.6206
  121MOL0     H16693   2.410   5.886   4.416  0.4202 -0.3380  0.7352
  121MOL0     H16694   2.072   5.936   4.151  0.4068  1.4225  0.6843
  121MOL0     H16695   2.425   5.473   3.875  0.2700 -0.4851  0.0823
  121MOL0     H16696   2.621   5.246   3.741 -0.1063  0.6286 -0.8411
  121MOL0     H16697   2.447   5.292   3.756 -1.1998 -2.3772  0.0277
  121MOL0     H16698   2.527   5.324   3.610 -2.2051  0.6401  0.9621
  122MOL0     O16699   1.076   3.157  10.550  0.5311  0.1655 -0.5689
  122MOL0     C16700   1.063   3.127  10.433 -0.6924 -0.3265 -0.6051
  122MOL0     O16701   1.166   3.133  10.350  0.6017  0.1166  0.0829
  122MOL0     C16702   1.298   3.119  10.383 -0.3439  0.1519  0.1740
  122MOL0     C16703   1.393   3.145  10.281  0.8404 -0.5489 -0.1009
  122MOL0     C16704   1.529   3.135  10.320 -0.2231  0.2761 -0.7146
  122MOL0     C16705   1.568   3.096  10.443 -0.4003  0.2544 -0.9042
  122MOL0     O16706   1.699   3.091  10.483  0.0603  0.0274  0.3722
  122MOL0     C16707   1.746   2.953  10.515 -0.0926  0.2622 -0.6987
  122MOL0     C16708   1.896   2.970  10.539 -1.0556 -0.3036 -0.8069
  122MOL0     C16709   1.965   2.835  10.551  0.2068  0.0357  0.9549
  122MOL0     C16710   2.108   2.851  10.594 -0.9247  0.2430 -0.3946
  122MOL0     C16711   2.181   2.718  10.581 -0.0149 -0.5094  0.0271
  122MOL0     C16712   2.294   2.716  10.674 -0.3568 -0.5563 -0.4757
  122MOL0     C16713   2.367   2.583  10.660  0.3560  0.8482 -0.3851
  122MOL0     C16714   2.463   2.555  10.777  0.0043 -0.2454  1.2449
  122MOL0     N16715   2.565   2.666  10.787 -0.2932  0.8491  0.2397
  122MOL0     C16716   2.699   2.651  10.753 -0.7546  0.3302  0.2086
  122MOL0     C16717   2.747   2.773  10.774  0.1704 -0.1312 -0.1855
  122MOL0     C16718   2.891   2.816  10.747 -0.9470  0.0407  0.3776
  122MOL0     C16719   2.955   2.741  10.625 -0.2715  0.0848  0.1254
  122MOL0     C16720   3.077   2.815  10.571  0.4623  0.2628  0.2949
  122MOL0     C16721   3.153   2.719  10.483  0.2117  0.2620 -0.5354
  122MOL0     O16722   3.229   2.622  10.562  0.0517  0.1725 -0.0028
  122MOL0     C16723   3.338   2.673  10.632  0.1276 -0.3398  0.3009
  122MOL0     C16724   3.390   2.591  10.735 -0.6167 -0.7355 -0.0156
  122MOL0     C16725   3.491   2.644  10.815  0.0618  0.1145  0.0287
  122MOL0     C16726   3.556   2.546  10.912 -0.0185  0.8969 -0.0621
  122MOL0     C16727   3.540   2.776  10.803  0.7430 -0.3368  1.1437
  122MOL0     C16728   3.650   2.830  10.889 -0.0087  0.1406  0.3737
  122MOL0     O16729   3.642   2.956  10.926  0.1249 -0.0788  0.1359
  122MOL0     C16730   3.724   3.005  11.029  0.5149  0.1288  0.2885
  122MOL0     C16731   3.719   2.967  11.164  0.0269  0.2271  0.4010
  122MOL0     C16732   3.820   3.012  11.250  0.1306  0.6118 -0.3469
  122MOL0     C16733   3.927   3.091  11.208 -0.3895 -0.2040  0.2251
  122MOL0     O16734   4.033   3.109  11.301 -0.0544 -0.2339  0.7954
  122MOL0     C16735   4.162   3.173  11.258 -0.4353 -0.0910  0.7602
  122MOL0     C16736   4.279   3.161  11.358 -1.0473 -0.0951  0.0367
  122MOL0     C16737   4.408   3.207  11.293  0.2960 -0.0429  0.0882
  122MOL0     C16738   4.515   3.192  11.387 -0.1279  0.2587  0.3346
  122MOL0     C16739   4.657   3.179  11.310  0.4473 -0.4689  0.6974
  122MOL0     C16740   4.766   3.235  11.399 -0.0008 -0.8148  0.0228
  122MOL0     C16741   4.909   3.194  11.369  0.1308 -0.4290 -0.2467
  122MOL0     C16742   5.012   3.293  11.401 -0.2003 -0.4870  1.0046
  122MOL0    Cl16743   5.024   3.297  11.573 -0.1375  0.2501 -0.0537
  122MOL0     C16744   3.919   3.145  11.079 -0.1036 -0.1514  0.0030
  122MOL0     C16745   3.826   3.101  10.990 -0.1816 -0.1180 -0.4414
  122MOL0     O16746   3.754   2.769  10.887 -0.4135 -0.2273 -0.2773
  122MOL0     C16747   3.493   2.850  10.694  0.2474  0.1448  0.5778
  122MOL0     C16748   3.395   2.802  10.608  0.1188  0.6459  0.3822
  122MOL0     N16749   2.659   2.867  10.824  0.3577  0.0003 -0.1461
  122MOL0     N16750   2.550   2.794  10.829 -0.0364  0.3289  0.0494
  122MOL0     C16751   1.474   3.071  10.537 -0.7327  0.3704 -0.2261
  122MOL0     C16752   1.349   3.090  10.512  0.4304  0.5004 -0.1377
  122MOL0     C16753   0.932   3.110  10.372 -1.2615  0.5539  0.5958
  122MOL0     C16754   0.825   3.159  10.437  0.6295  0.3420 -0.0511
  122MOL0     C16755   0.705   3.174  10.367  0.6725  0.2452  0.4905
  122MOL0     C16756   0.686   3.124  10.234 -0.1825 -0.4151  0.1958
  122MOL0     O16757   0.582   3.146  10.147 -0.5224  0.0068 -0.6201
  122MOL0     C16758   0.459   3.191  10.207  0.0639 -0.2284  0.0248
  122MOL0     C16759   0.403   3.301  10.120 -0.1300  0.2366  0.2802
  122MOL0     C16760   0.284   3.380  10.194 -1.1081  0.4432 -0.6023
  122MOL0     C16761   0.246   3.499  10.106 -0.6663  0.9124 -0.0411
  122MOL0     C16762   0.218   3.614  10.190  0.2843  0.1545  0.7042
  122MOL0     C16763   0.178   3.712  10.249  0.2633 -0.0354  0.1653
  122MOL0     C16764   0.801   3.068  10.179  0.5665  0.6333 -0.0403
  122MOL0     C16765   0.919   3.059  10.240 -0.4767  0.6659  0.2348
  122MOL0     C16766   1.025   2.988  10.152 -0.6889 -0.3938  0.3710
  122MOL0     H16767   1.359   3.170  10.181 -1.6501  0.8153  1.0019
  122MOL0     H16768   1.612   3.152  10.252  0.3594  0.4681  0.0343
  122MOL0     H16769   1.725   2.887  10.430 -1.1032 -1.7226  1.0067
  122MOL0     H16770   1.697   2.908  10.601 -0.6130 -1.0154 -1.6227
  122MOL0     H16771   1.946   3.042  10.474 -1.1579 -0.9117 -1.5802
  122MOL0     H16772   1.911   3.020  10.635  2.6262 -3.2905  0.4481
  122MOL0     H16773   1.908   2.775  10.623  2.3563 -1.1072  1.8248
  122MOL0     H16774   1.956   2.781  10.456  0.0841 -1.1545  1.6207
  122MOL0     H16775   2.157   2.923  10.529 -2.1385 -2.2449 -4.4159
  122MOL0     H16776   2.107   2.882  10.699  0.7054 -0.8542 -0.0221
  122MOL0     H16777   2.234   2.724  10.485  4.9043  1.2171  2.4854
  122MOL0     H16778   2.113   2.634  10.597  1.6436 -1.8879  0.0540
  122MOL0     H16779   2.344   2.808  10.644 -4.0767  1.3176 -1.5687
  122MOL0     H16780   2.272   2.719  10.781 -1.9382 -2.1545 -0.7038
  122MOL0     H16781   2.429   2.590  10.571  1.2507 -3.2488 -0.2621
  122MOL0     H16782   2.307   2.496  10.633  1.8409  0.0515 -1.2580
  122MOL0     H16783   2.402   2.558  10.868  0.6585  0.3577  1.6762
  122MOL0     H16784   2.503   2.453  10.781 -0.7752 -0.5808  0.8478
  122MOL0     H16785   2.752   2.564  10.718  0.7892  0.2711  2.4257
  122MOL0     H16786   2.952   2.810  10.837 -2.0329  1.8831  1.2804
  122MOL0     H16787   2.885   2.924  10.732  3.2405  0.4247  0.3016
  122MOL0     H16788   2.994   2.648  10.666 -1.7947 -0.1546  1.1241
  122MOL0     H16789   2.879   2.715  10.551 -0.4812 -1.0069  0.7125
  122MOL0     H16790   3.043   2.892  10.501 -1.5800 -1.9426 -1.3130
  122MOL0     H16791   3.136   2.858  10.652  2.0112 -1.6656  0.2586
  122MOL0     H16792   3.085   2.678  10.408  2.8070  0.1946 -3.0340
  122MOL0     H16793   3.222   2.770  10.415 -0.6025 -0.2319 -1.7734
  122MOL0     H16794   3.351   2.491  10.751  2.2316 -1.5909  2.5375
  122MOL0     H16795   3.544   2.593  11.011 -2.2914  1.4957 -0.5763
  122MOL0     H16796   3.659   2.524  10.882  0.1568  2.5958 -0.8231
  122MOL0     H16797   3.494   2.457  10.918 -0.5081  1.3001  1.3036
  122MOL0     H16798   3.638   2.902  11.196 -1.5552  0.9094 -1.9583
  122MOL0     H16799   3.815   2.980  11.353  0.0338 -0.7669 -0.7599
  122MOL0     H16800   4.204   3.114  11.175  2.8999  0.4370  1.9257
  122MOL0     H16801   4.149   3.277  11.226  1.1105 -0.0802  0.0615
  122MOL0     H16802   4.255   3.203  11.456 -1.0210  0.1334 -0.0542
  122MOL0     H16803   4.281   3.057  11.393 -2.0899 -0.1838 -0.1153
  122MOL0     H16804   4.404   3.312  11.264  0.6116 -0.2800 -0.8422
  122MOL0     H16805   4.427   3.149  11.202  1.9233 -1.4713  1.2686
  122MOL0     H16806   4.499   3.107  11.454  0.3142  1.5459  2.1622
  122MOL0     H16807   4.511   3.282  11.450 -1.9157  1.0424 -0.8200
  122MOL0     H16808   4.674   3.071  11.304 -1.2062 -0.8312  1.7170
  122MOL0     H16809   4.663   3.230  11.213  2.1106  0.7701  1.4099
  122MOL0     H16810   4.735   3.192  11.495 -0.9870 -0.7166 -0.2309
  122MOL0     H16811   4.763   3.345  11.403  0.6415 -0.8099  0.6433
  122MOL0     H16812   4.909   3.167  11.263 -4.7386  1.6474 -1.0682
  122MOL0     H16813   4.945   3.106  11.423  0.3720 -0.1675  0.0156
  122MOL0     H16814   4.988   3.389  11.354  2.4765 -0.7727 -1.1894
  122MOL0     H16815   5.112   3.263  11.367  0.7312  3.7006 -0.6190
  122MOL0     H16816   3.991   3.222  11.052 -1.7591  2.0886  1.5778
  122MOL0     H16817   3.814   3.133  10.887  2.2134  0.6200 -0.5592
  122MOL0     H16818   3.527   2.951  10.676  0.3267  0.2265  1.1655
  122MOL0     H16819   3.351   2.867  10.533  0.0148  0.7258  0.5127
  122MOL0     H16820   1.508   3.038  10.635 -1.1117 -2.4005 -0.9350
  122MOL0     H16821   1.280   3.071  10.594  0.9205 -1.0957 -0.0669
  122MOL0     H16822   0.819   3.185  10.542  2.1326  0.2513  0.0786
  122MOL0     H16823   0.632   3.228  10.426 -0.6393 -0.1445 -0.7450
  122MOL0     H16824   0.385   3.110  10.212 -2.4610  1.8552 -0.9194
  122MOL0     H16825   0.471   3.230  10.308 -0.1779 -0.6211  0.2070
  122MOL0     H16826   0.370   3.246  10.031  3.5869 -2.8016  0.5405
  122MOL0     H16827   0.487   3.365  10.093  0.7845 -0.9825  0.1862
  122MOL0     H16828   0.192   3.322  10.211  0.6071 -2.0253  0.9193
  122MOL0     H16829   0.323   3.413  10.290 -2.1462  3.0782 -1.0010
  122MOL0     H16830   0.156   3.471  10.050 -0.7216 -0.7162  0.7905
  122MOL0     H16831   0.321   3.528  10.032 -0.2895 -0.6132 -0.3062
  122MOL0     H16832   0.152   3.812  10.279  0.4646  0.5205 -1.3752
  122MOL0     H16833   0.790   3.011  10.088  0.2539  2.8091 -1.4355
  122MOL0     H16834   0.977   2.896  10.118  0.6913 -2.1957  2.9352
  122MOL0     H16835   1.061   3.044  10.065  0.6723 -0.6594  0.7255
  122MOL0     H16836   1.110   2.964  10.218  0.5044  0.5708 -0.7739
  123MOL0     O16837  10.537   1.751   4.592  0.5452  0.2054 -0.1673
  123MOL0     C16838  10.498   1.866   4.579 -0.0921 -0.5880 -0.2601
  123MOL0     O16839  10.541   1.977   4.665 -0.4630  0.3066  0.2787
  123MOL0     C16840  10.648   1.952   4.748  0.8169  0.0742 -0.1214
  123MOL0     C16841  10.617   1.996   4.876  0.4898  0.0921  0.4754
  123MOL0     C16842  10.702   1.980   4.987 -1.1386 -0.1495  0.8661
  123MOL0     C16843  10.835   1.941   4.960 -0.6667  0.2446 -0.0302
  123MOL0     O16844  10.910   1.915   5.069 -0.1043  0.3564 -0.5116
  123MOL0     C16845  11.053   1.909   5.055 -0.3137  0.3003 -0.1624
  123MOL0     C16846  11.117   1.892   5.204  0.3968  0.4809  0.2799
  123MOL0     C16847  11.144   1.738   5.225 -1.3558  0.8475  0.3289
  123MOL0     C16848  11.297   1.710   5.200  1.0343  0.6315 -0.5320
  123MOL0     C16849  11.329   1.562   5.216 -0.0487 -0.3895  0.0765
  123MOL0     C16850  11.474   1.541   5.199 -0.8919 -0.3096 -0.0244
  123MOL0     C16851  11.506   1.397   5.158 -0.4777 -0.6216  0.3547
  123MOL0     C16852  11.446   1.293   5.246 -0.7793 -0.5255 -0.1880
  123MOL0     N16853  11.508   1.299   5.380 -0.5952  0.1259 -0.2178
  123MOL0     C16854  11.643   1.303   5.400 -0.0288  0.3787 -0.2054
  123MOL0     C16855  11.662   1.271   5.531 -0.0278  0.5887  0.1928
  123MOL0     C16856  11.796   1.252   5.607 -0.6865  0.3038 -0.5977
  123MOL0     C16857  11.877   1.385   5.617  0.2842 -0.6614 -0.1834
  123MOL0     C16858  11.988   1.373   5.722  0.2539 -0.7994  0.4836
  123MOL0     C16859  12.083   1.490   5.710  0.3236 -0.2015 -0.0783
  123MOL0     O16860  12.007   1.614   5.735 -0.4261 -0.2494  0.3315
  123MOL0     C16861  12.078   1.726   5.775 -0.4395  0.1686 -0.1900
  123MOL0     C16862  12.216   1.752   5.750  0.2361  0.4444 -0.2937
  123MOL0     C16863  12.284   1.868   5.800  0.1288  0.3626  0.8698
  123MOL0     C16864  12.429   1.873   5.774  0.2229 -0.3489  0.2075
  123MOL0     C16865  12.216   1.952   5.894 -0.1229 -0.1315 -0.8779
  123MOL0     C16866  12.286   2.063   5.964  0.0747  0.1519 -0.4843
  123MOL0     O16867  12.216   2.189   5.964 -0.6665  0.1803  1.0830
  123MOL0     C16868  12.257   2.277   6.062  0.3507 -0.5791 -0.4637
  123MOL0     C16869  12.221   2.258   6.200  0.4564  0.2041  0.5249
  123MOL0     C16870  12.262   2.335   6.307  0.2061 -0.1957 -0.6974
  123MOL0     C16871  12.355   2.434   6.276 -0.1824  0.0683  0.0607
  123MOL0     O16872  12.397   2.504   6.384 -0.4605  0.4119 -0.2563
  123MOL0     C16873  12.481   2.627   6.383 -0.8939  0.2116  0.7832
  123MOL0     C16874  12.515   2.678   6.530  0.5254  0.3203  0.3562
  123MOL0     C16875  12.591   2.808   6.517 -0.1150 -0.8434  0.3526
  123MOL0     C16876  12.631   2.868   6.652 -0.1936 -0.2785  0.7347
  123MOL0     C16877  12.697   3.003   6.618 -0.1181  0.2754  0.7880
  123MOL0     C16878  12.695   3.097   6.738  0.6463  0.4649  0.3623
  123MOL0     C16879  12.554   3.155   6.766 -0.9027 -0.0061 -0.0009
  123MOL0     C16880  12.534   3.178   6.915 -0.1628  1.2481 -0.0885
  123MOL0    Cl16881  12.645   3.294   7.004  0.2635 -0.0328  0.0840
  123MOL0     C16882  12.400   2.452   6.147 -0.1562  0.5072  0.8762
  123MOL0     C16883  12.363   2.365   6.045  0.3428  0.7472 -0.1647
  123MOL0     O16884  12.406   2.052   5.999 -0.0700  0.6298 -0.1966
  123MOL0     C16885  12.080   1.924   5.921 -0.9341 -0.5028 -0.6580
  123MOL0     C16886  12.009   1.817   5.864  0.3190  0.3051  0.5409
  123MOL0     N16887  11.540   1.250   5.592  0.1959  0.4831  1.1895
  123MOL0     N16888  11.451   1.273   5.498  0.5663 -0.4479  0.3161
  123MOL0     C16889  10.870   1.900   4.831 -0.0475 -0.7095 -0.4100
  123MOL0     C16890  10.776   1.912   4.724 -0.0521  0.6869  0.2163
  123MOL0     C16891  10.385   1.885   4.488  0.0107 -0.0054  0.8446
  123MOL0     C16892  10.288   1.982   4.523 -0.8646 -0.0584  0.1413
  123MOL0     C16893  10.181   2.015   4.436 -0.3378 -0.7868  0.0873
  123MOL0     C16894  10.153   1.924   4.330 -0.5870 -0.2629 -0.3629
  123MOL0     O16895  10.047   1.948   4.243 -0.8821  0.1581 -0.1783
  123MOL0     C16896   9.964   2.061   4.250 -0.3460 -0.1254  0.4703
  123MOL0     C16897   9.842   2.030   4.169 -0.6458 -0.4974  0.3245
  123MOL0     C16898   9.736   2.128   4.189 -0.1096  0.9315  0.3819
  123MOL0     C16899   9.605   2.087   4.115  0.2616  0.2463  0.1342
  123MOL0     C16900   9.511   2.186   4.162  0.6592 -0.5660  0.6118
  123MOL0     C16901   9.435   2.285   4.168 -0.1160 -0.6923  0.0169
  123MOL0     C16902  10.243   1.818   4.303 -0.4565 -0.1265 -0.1252
  123MOL0     C16903  10.364   1.807   4.372  0.2991  0.1786 -0.5824
  123MOL0     C16904  10.450   1.698   4.321 -0.2081  0.7584 -0.5355
  123MOL0     H16905  10.520   2.037   4.905  0.5702 -1.2023  2.8273
  123MOL0     H16906  10.670   2.022   5.082  1.6963  0.6638  1.5541
  123MOL0     H16907  11.084   2.004   5.012  1.1604  0.2096  0.6241
  123MOL0     H16908  11.072   1.823   4.991 -2.0194 -0.3075  0.0915
  123MOL0     H16909  11.213   1.942   5.218  0.8934 -0.5245  0.6199
  123MOL0     H16910  11.040   1.930   5.271 -1.9565  1.1778 -2.6270
  123MOL0     H16911  11.110   1.699   5.321  1.3075 -2.7278  0.0432
  123MOL0     H16912  11.096   1.672   5.151  1.1487 -1.7254  0.8374
  123MOL0     H16913  11.317   1.748   5.100  0.0351  2.0750 -0.2050
  123MOL0     H16914  11.360   1.770   5.267 -1.2674  1.3126  1.1691
  123MOL0     H16915  11.279   1.498   5.143  2.4532  0.5522 -2.6536
  123MOL0     H16916  11.295   1.531   5.316 -1.6592  1.2067  0.0654
  123MOL0     H16917  11.523   1.600   5.121 -0.4045 -1.2860 -0.4778
  123MOL0     H16918  11.534   1.566   5.288  0.9996  0.9192 -1.5716
  123MOL0     H16919  11.614   1.385   5.148 -0.2388  0.8454  0.9234
  123MOL0     H16920  11.465   1.384   5.057  0.4751  1.8317 -0.4144
  123MOL0     H16921  11.337   1.298   5.248 -0.8556 -1.9950  1.4530
  123MOL0     H16922  11.469   1.195   5.204  2.0958 -0.1094  0.1695
  123MOL0     H16923  11.718   1.324   5.324  0.1849 -1.6476 -0.6138
  123MOL0     H16924  11.847   1.170   5.555 -1.1024 -1.1820  1.2198
  123MOL0     H16925  11.764   1.222   5.707  0.9473  1.4640  0.3158
  123MOL0     H16926  11.913   1.398   5.514  0.5751  0.3633  0.0372
  123MOL0     H16927  11.812   1.471   5.636 -0.1925 -0.8530 -0.9081
  123MOL0     H16928  11.943   1.357   5.820  0.5510 -1.4048  0.5312
  123MOL0     H16929  12.043   1.281   5.698  0.5682 -0.2639 -0.9061
  123MOL0     H16930  12.168   1.471   5.776 -0.7009  0.4514  1.4905
  123MOL0     H16931  12.129   1.479   5.611  0.1191 -3.1273  0.0655
  123MOL0     H16932  12.278   1.682   5.694 -0.4410 -2.1233  1.9794
  123MOL0     H16933  12.462   1.798   5.703 -1.7039 -0.6355 -0.4489
  123MOL0     H16934  12.483   1.855   5.868  0.1312 -0.9163  0.1545
  123MOL0     H16935  12.453   1.974   5.738  1.0891 -1.2393 -1.8018
  123MOL0     H16936  12.174   2.165   6.230  1.2865 -0.0571  1.0682
  123MOL0     H16937  12.227   2.312   6.407  2.3656 -1.4530 -0.1561
  123MOL0     H16938  12.583   2.616   6.344 -0.9714  0.5401  0.4801
  123MOL0     H16939  12.432   2.708   6.328  1.9532  1.3485 -0.2837
  123MOL0     H16940  12.426   2.695   6.592  1.7976  0.8464  2.1219
  123MOL0     H16941  12.578   2.601   6.574 -0.4281 -0.6600  0.0524
  123MOL0     H16942  12.528   2.875   6.458 -2.0875 -1.9851  1.0457
  123MOL0     H16943  12.681   2.791   6.458  0.0178  0.0484  0.2883
  123MOL0     H16944  12.697   2.800   6.707 -1.1979 -3.9467 -2.1518
  123MOL0     H16945  12.546   2.874   6.721 -1.5967  0.2312 -0.9479
  123MOL0     H16946  12.798   2.981   6.580 -0.0556 -1.1607  1.7176
  123MOL0     H16947  12.639   3.061   6.546  2.0724 -0.6291 -1.8824
  123MOL0     H16948  12.769   3.175   6.721  0.7626  0.3101  0.1591
  123MOL0     H16949  12.740   3.048   6.825  1.2405  2.3239  1.1571
  123MOL0     H16950  12.481   3.079   6.737 -0.8754  0.1387 -0.4506
  123MOL0     H16951  12.552   3.245   6.705  0.2355  0.8630  1.1818
  123MOL0     H16952  12.536   3.086   6.976 -0.8329 -0.0385 -1.9114
  123MOL0     H16953  12.433   3.221   6.922 -0.7829  0.1122 -1.5494
  123MOL0     H16954  12.480   2.524   6.139 -1.0315  1.4816  0.7570
  123MOL0     H16955  12.409   2.361   5.946  0.0300 -1.9866 -0.2765
  123MOL0     H16956  12.040   1.989   5.999 -0.3804  0.1617 -0.9215
  123MOL0     H16957  11.905   1.803   5.892 -0.1801 -2.9975 -2.2486
  123MOL0     H16958  10.966   1.852   4.817  0.1005 -1.2283  1.9332
  123MOL0     H16959  10.809   1.870   4.630  1.7967  0.3874  0.9297
  123MOL0     H16960  10.294   2.047   4.610  0.1275 -1.5115  1.2142
  123MOL0     H16961  10.121   2.105   4.450 -0.9975 -1.3993  1.3649
  123MOL0     H16962   9.953   2.099   4.353  0.9458 -2.7331  1.6489
  123MOL0     H16963  10.020   2.133   4.190  0.8599  0.0059  1.7062
  123MOL0     H16964   9.807   1.928   4.191  0.9187 -1.2267 -0.3720
  123MOL0     H16965   9.874   2.029   4.065  2.0000  2.5533  0.9465
  123MOL0     H16966   9.719   2.130   4.297  0.3483 -0.5722  0.5034
  123MOL0     H16967   9.769   2.220   4.141 -2.1217  0.5506 -1.9237
  123MOL0     H16968   9.581   1.980   4.116  2.0726 -0.2860 -2.3063
  123MOL0     H16969   9.618   2.115   4.010  0.5094  2.8907  0.8091
  123MOL0     H16970   9.371   2.371   4.166 -1.0677 -1.3687 -2.4815
  123MOL0     H16971  10.212   1.743   4.231 -3.1854  0.3802  0.4200
  123MOL0     H16972  10.443   1.667   4.217 -0.2899 -4.4415  0.7510
  123MOL0     H16973  10.556   1.722   4.340  0.4722 -1.3316 -1.3815
  123MOL0     H16974  10.437   1.609   4.383  1.6392 -0.7592 -2.1981
  124MOL0     O16975   4.884   1.649   6.447  0.7393  0.0193  0.0967
  124MOL0     C16976   4.856   1.692   6.559  0.3088 -0.2905  0.3741
  124MOL0     O16977   4.789   1.622   6.650 -0.2059  0.3789  0.6666
  124MOL0     C16978   4.769   1.485   6.623  0.5911  0.2568 -0.2791
  124MOL0     C16979   4.651   1.426   6.579  0.9930 -0.2408  0.2660
  124MOL0     C16980   4.639   1.291   6.543  0.1791  0.4606 -0.2065
  124MOL0     C16981   4.745   1.210   6.573 -0.0765  0.0423 -0.2366
  124MOL0     O16982   4.739   1.075   6.542 -0.2107  0.4439 -0.3497
  124MOL0     C16983   4.791   0.974   6.635  0.9767  0.2044 -0.3898
  124MOL0     C16984   4.724   0.847   6.591  1.1809  0.4153 -1.0113
  124MOL0     C16985   4.779   0.731   6.677 -0.9060 -0.0559  0.6575
  124MOL0     C16986   4.724   0.601   6.613  0.0936 -1.3423 -0.7962
  124MOL0     C16987   4.801   0.467   6.650 -0.1639 -0.5291 -0.4266
  124MOL0     C16988   4.774   0.410   6.785 -0.8884 -0.1137 -0.4197
  124MOL0     C16989   4.686   0.291   6.779  0.3516 -0.1583  0.3796
  124MOL0     C16990   4.555   0.317   6.704  1.0667 -0.1203  0.6701
  124MOL0     N16991   4.460   0.213   6.740  1.0423  0.3663 -0.1466
  124MOL0     C16992   4.439   0.086   6.709  0.1607  0.5225  0.4083
  124MOL0     C16993   4.353   0.028   6.788  0.6963  0.1070  0.1741
  124MOL0     C16994   4.292  -0.112   6.780 -0.6820  0.0959  0.5432
  124MOL0     C16995   4.280  -0.182   6.919  0.8359  0.9545  0.3104
  124MOL0     C16996   4.405  -0.191   6.996 -0.8214  0.8155 -0.4636
  124MOL0     C16997   4.526  -0.242   6.916 -0.3541 -0.5812  0.1024
  124MOL0     O16998   4.614  -0.138   6.869 -0.2804 -0.3576  0.0574
  124MOL0     C16999   4.743  -0.162   6.851 -0.3287  0.4076  0.1173
  124MOL0     C17000   4.806  -0.293   6.854  1.1866 -0.7630 -0.1590
  124MOL0     C17001   4.941  -0.299   6.821 -0.2765  0.1168 -0.0743
  124MOL0     C17002   5.007  -0.434   6.822  0.3427  0.8242  0.3393
  124MOL0     C17003   5.014  -0.181   6.797 -0.7403  0.2746  0.7549
  124MOL0     C17004   5.170  -0.195   6.773 -0.2159  0.6173  0.1981
  124MOL0     O17005   5.218  -0.297   6.696 -1.3843  0.7341 -0.2825
  124MOL0     C17006   5.345  -0.357   6.709 -0.7667  0.2629  0.2733
  124MOL0     C17007   5.422  -0.350   6.820  1.3270  0.2224  0.1761
  124MOL0     C17008   5.533  -0.426   6.839 -0.1405  0.1435  1.5305
  124MOL0     C17009   5.587  -0.503   6.727 -0.1720 -0.7983  0.2237
  124MOL0     O17010   5.706  -0.570   6.725 -0.0396 -0.3197 -0.0756
  124MOL0     C17011   5.795  -0.564   6.840  0.3262 -0.4488  0.3113
  124MOL0     C17012   5.905  -0.671   6.834  0.3134 -0.4152 -0.3895
  124MOL0     C17013   6.004  -0.653   6.715  0.8790 -0.2121 -0.6643
  124MOL0     C17014   6.108  -0.752   6.695  0.9959  0.2067  1.0910
  124MOL0     C17015   6.187  -0.791   6.820  0.0219 -0.4155 -0.6646
  124MOL0     C17016   6.299  -0.684   6.857  0.4857  0.0058 -0.3522
  124MOL0     C17017   6.418  -0.748   6.927 -0.6935  0.3792  1.1754
  124MOL0     C17018   6.503  -0.641   6.985  0.0917  0.2871  0.2689
  124MOL0    Cl17019   6.616  -0.586   6.866 -0.0933 -0.3240 -0.2853
  124MOL0     C17020   5.506  -0.510   6.612  0.2861  0.6949 -0.2759
  124MOL0     C17021   5.384  -0.440   6.606 -0.7003  0.2385  0.0614
  124MOL0     O17022   5.239  -0.111   6.822  0.6458  0.2413  0.5241
  124MOL0     C17023   4.957  -0.058   6.816  0.6976 -1.0621 -0.4541
  124MOL0     C17024   4.818  -0.046   6.833  0.1100 -0.4773 -0.4336
  124MOL0     N17025   4.308   0.126   6.878 -0.3168 -0.0501  0.6924
  124MOL0     N17026   4.388   0.236   6.856 -0.1779  1.0927  0.1137
  124MOL0     C17027   4.859   1.263   6.633  0.4469 -1.0367  0.3367
  124MOL0     C17028   4.868   1.400   6.658 -0.9245  0.0260  0.2053
  124MOL0     C17029   4.886   1.829   6.584  0.2746 -0.2588  0.5013
  124MOL0     C17030   4.877   1.917   6.473  0.7915 -0.4907 -0.6930
  124MOL0     C17031   4.909   2.058   6.483 -0.4028  0.8368 -0.0420
  124MOL0     C17032   4.952   2.105   6.610 -0.0961 -0.1323  0.2831
  124MOL0     O17033   4.987   2.237   6.625  0.1112 -0.5349 -0.5488
  124MOL0     C17034   4.893   2.327   6.686  1.2583 -0.0363  0.3016
  124MOL0     C17035   4.968   2.432   6.767  0.0531  0.2297 -0.1854
  124MOL0     C17036   5.015   2.371   6.910  0.6694  0.2286  0.2964
  124MOL0     C17037   5.098   2.479   6.973 -0.1589 -0.0856 -0.2293
  124MOL0     C17038   5.226   2.508   6.909  0.4687 -0.0599 -0.5040
  124MOL0     C17039   5.338   2.507   6.859 -0.1580  0.1195  0.2593
  124MOL0     C17040   4.970   2.017   6.719 -0.1115 -0.2372 -0.6579
  124MOL0     C17041   4.937   1.883   6.706  0.2938  0.9301 -0.3910
  124MOL0     C17042   4.962   1.802   6.820 -0.2248 -0.0073  0.2064
  124MOL0     H17043   4.564   1.491   6.576 -1.5810 -3.4100  0.4028
  124MOL0     H17044   4.557   1.241   6.493  1.0449 -0.3324 -0.8780
  124MOL0     H17045   4.755   1.008   6.732 -2.3540  1.6875 -1.9714
  124MOL0     H17046   4.900   0.963   6.634  0.8651 -1.1097 -1.6565
  124MOL0     H17047   4.617   0.855   6.615  1.5251  0.0215  0.7361
  124MOL0     H17048   4.731   0.833   6.482 -0.3703  3.5738 -1.6406
  124MOL0     H17049   4.886   0.745   6.667 -1.2084  1.6509 -0.5538
  124MOL0     H17050   4.738   0.754   6.776  0.2593  0.4905  1.0200
  124MOL0     H17051   4.619   0.590   6.641  0.2005 -0.6991 -0.1097
  124MOL0     H17052   4.733   0.612   6.505 -0.0913 -0.6568 -0.7520
  124MOL0     H17053   4.907   0.490   6.634 -0.2906  0.8243  0.5259
  124MOL0     H17054   4.781   0.390   6.574 -2.6854 -1.0542  0.6517
  124MOL0     H17055   4.867   0.372   6.829 -1.5987 -2.7556 -0.9883
  124MOL0     H17056   4.741   0.489   6.854  4.8377  3.4935 -1.1421
  124MOL0     H17057   4.668   0.260   6.882  0.3448 -1.5664 -0.0179
  124MOL0     H17058   4.749   0.219   6.726  0.7265 -0.0322  0.6471
  124MOL0     H17059   4.507   0.409   6.739  0.0652  0.2826 -1.5870
  124MOL0     H17060   4.577   0.329   6.598  1.9564 -1.1366  0.7195
  124MOL0     H17061   4.479   0.038   6.620 -2.5366 -1.0971 -0.0429
  124MOL0     H17062   4.353  -0.180   6.720 -1.6302 -2.6987  2.5395
  124MOL0     H17063   4.196  -0.108   6.729  0.2049  1.2987 -1.1329
  124MOL0     H17064   4.210  -0.134   6.988 -1.6262 -0.1043 -1.2713
  124MOL0     H17065   4.229  -0.279   6.912 -2.1087  2.4762 -1.8379
  124MOL0     H17066   4.439  -0.096   7.038  1.0230 -1.2667  3.3892
  124MOL0     H17067   4.381  -0.263   7.075  0.0987  0.0206 -0.8760
  124MOL0     H17068   4.578  -0.298   6.994  0.7491 -0.8673 -0.8126
  124MOL0     H17069   4.492  -0.314   6.841  1.2041 -0.8019 -0.4367
  124MOL0     H17070   4.742  -0.380   6.859  1.6613 -1.2275 -1.6790
  124MOL0     H17071   4.935  -0.507   6.861 -0.5027  2.4861  2.0560
  124MOL0     H17072   5.096  -0.457   6.881 -0.5124 -1.9853  0.6892
  124MOL0     H17073   5.022  -0.464   6.717 -1.0420  0.5868  0.1867
  124MOL0     H17074   5.387  -0.298   6.908  1.8330  1.5879 -0.4129
  124MOL0     H17075   5.592  -0.416   6.930  0.5471 -0.2682  1.1326
  124MOL0     H17076   5.851  -0.470   6.843  1.4391 -1.0401 -0.8170
  124MOL0     H17077   5.745  -0.578   6.937 -1.2501 -3.6374 -0.7956
  124MOL0     H17078   5.960  -0.661   6.928 -0.2005  0.6579 -0.1884
  124MOL0     H17079   5.860  -0.771   6.828  1.7602 -1.2224  1.2709
  124MOL0     H17080   6.060  -0.566   6.748  1.0343 -1.2862  2.2209
  124MOL0     H17081   5.956  -0.632   6.619  0.7842 -3.2655 -1.3972
  124MOL0     H17082   6.175  -0.713   6.617 -0.0909 -0.1882 -0.0591
  124MOL0     H17083   6.069  -0.850   6.666  1.6908  0.4435 -0.7462
  124MOL0     H17084   6.121  -0.806   6.906  1.2034  0.6458  0.4781
  124MOL0     H17085   6.231  -0.890   6.806  1.0273 -0.5766  2.6472
  124MOL0     H17086   6.264  -0.609   6.927  2.0894  0.1148  0.3648
  124MOL0     H17087   6.338  -0.625   6.774 -1.4320  1.5486 -0.2251
  124MOL0     H17088   6.480  -0.805   6.857 -2.8692 -1.8943  0.9434
  124MOL0     H17089   6.378  -0.808   7.009 -2.4532 -0.0488  0.0640
  124MOL0     H17090   6.554  -0.680   7.073 -2.2084  0.8046  1.9268
  124MOL0     H17091   6.438  -0.561   7.024 -0.6487  1.9305 -3.8121
  124MOL0     H17092   5.537  -0.576   6.532 -2.6312 -1.2350  0.0194
  124MOL0     H17093   5.325  -0.438   6.515  0.0917 -1.5461 -0.5565
  124MOL0     H17094   5.015   0.034   6.816  2.4098 -2.0300  1.8497
  124MOL0     H17095   4.771   0.052   6.845  2.0940  0.5888 -0.9260
  124MOL0     H17096   4.947   1.199   6.636  1.6937  0.6033  0.4161
  124MOL0     H17097   4.958   1.447   6.697  1.1734 -2.6155 -1.1253
  124MOL0     H17098   4.850   1.876   6.376 -0.3900  1.2556 -1.1378
  124MOL0     H17099   4.903   2.142   6.414  0.0136 -0.3914 -1.6151
  124MOL0     H17100   4.828   2.385   6.620  1.7192  0.6727  0.4658
  124MOL0     H17101   4.823   2.267   6.745 -0.9588  0.1577 -1.9700
  124MOL0     H17102   4.904   2.520   6.778  2.6431  2.1318  0.8568
  124MOL0     H17103   5.054   2.454   6.702  1.9833 -0.8562  1.8811
  124MOL0     H17104   4.929   2.349   6.974  1.2899 -4.3034 -0.1401
  124MOL0     H17105   5.064   2.274   6.895 -0.7509 -0.0012 -5.0595
  124MOL0     H17106   5.131   2.457   7.075  2.0357  2.1157 -0.3729
  124MOL0     H17107   5.033   2.567   6.978 -0.1797 -0.0013 -1.6013
  124MOL0     H17108   5.431   2.505   6.806  0.1730  1.8173  0.7262
  124MOL0     H17109   5.007   2.048   6.816 -1.0160 -1.1664  0.0058
  124MOL0     H17110   4.984   1.861   6.910  0.5165 -1.4071  0.9717
  124MOL0     H17111   4.877   1.739   6.849 -0.0730  0.6084  2.1238
  124MOL0     H17112   5.058   1.759   6.791  0.6645  2.8290 -1.3650
  125MOL0     O17113   2.472   7.177   0.419 -0.5361  0.1066  0.3567
  125MOL0     C17114   2.439   7.266   0.339 -0.6131 -0.2522  0.2115
  125MOL0     O17115   2.428   7.399   0.371  0.3468  0.0315  0.4990
  125MOL0     C17116   2.490   7.452   0.478  0.4290 -0.4939 -0.6253
  125MOL0     C17117   2.425   7.559   0.542 -0.8107  0.4328  0.1056
  125MOL0     C17118   2.480   7.603   0.666 -0.2266  0.8593  0.5852
  125MOL0     C17119   2.603   7.565   0.710 -0.6952  0.1379 -0.4910
  125MOL0     O17120   2.663   7.628   0.820  0.0470 -0.4807 -0.5942
  125MOL0     C17121   2.730   7.546   0.914  0.5348 -0.3648 -1.1306
  125MOL0     C17122   2.849   7.622   0.980 -0.5345 -0.5210  0.1447
  125MOL0     C17123   2.931   7.530   1.068 -0.8946 -0.7848 -0.5203
  125MOL0     C17124   3.049   7.604   1.124  0.0533  0.8786  0.5048
  125MOL0     C17125   3.140   7.514   1.204  0.2078 -0.2113  0.6748
  125MOL0     C17126   3.265   7.596   1.233  0.1741  1.3758 -1.0832
  125MOL0     C17127   3.353   7.599   1.106  0.1860  0.4653 -0.2039
  125MOL0     C17128   3.480   7.506   1.123 -0.9026  0.4566 -0.3131
  125MOL0     N17129   3.434   7.367   1.135 -0.1130 -0.3613 -0.0323
  125MOL0     C17130   3.403   7.293   1.248 -0.2658  0.4619  0.2123
  125MOL0     C17131   3.339   7.183   1.197 -0.1534 -0.0979  0.3458
  125MOL0     C17132   3.283   7.071   1.287  0.4548 -0.5550 -0.3336
  125MOL0     C17133   3.318   6.936   1.215  0.3074 -0.4702  0.6551
  125MOL0     C17134   3.260   6.804   1.281 -0.5023 -0.3297 -0.9938
  125MOL0     C17135   3.113   6.804   1.334  0.2994  0.3806  0.1509
  125MOL0     O17136   3.074   6.669   1.372  0.3861  0.0156  0.0706
  125MOL0     C17137   3.057   6.647   1.508 -0.8608  0.2380 -0.8110
  125MOL0     C17138   2.969   6.546   1.551  0.6736 -0.5841 -0.5987
  125MOL0     C17139   2.928   6.536   1.683 -0.1709 -0.7456 -0.9390
  125MOL0     C17140   2.809   6.453   1.709 -0.9615  0.4491  0.1502
  125MOL0     C17141   2.991   6.618   1.780  1.0963  0.2731 -0.4749
  125MOL0     C17142   2.960   6.601   1.929  0.2932 -0.0888  0.2124
  125MOL0     O17143   2.831   6.578   1.969 -0.2555 -0.4508  0.2457
  125MOL0     C17144   2.818   6.525   2.097 -0.4818 -0.5468 -0.2362
  125MOL0     C17145   2.870   6.398   2.132 -0.2249  0.5477 -0.4186
  125MOL0     C17146   2.877   6.358   2.274 -0.1889 -0.2882  0.2540
  125MOL0     C17147   2.806   6.431   2.370 -0.3522 -0.2314  0.8493
  125MOL0     O17148   2.790   6.389   2.501 -0.2143 -0.8427  1.0798
  125MOL0     C17149   2.857   6.271   2.549  0.8791 -0.1569 -0.4024
  125MOL0     C17150   2.856   6.258   2.701  0.5749 -0.0486  0.6748
  125MOL0     C17151   2.906   6.118   2.740  0.0535 -0.0536  0.5141
  125MOL0     C17152   2.852   6.061   2.876  0.1352 -0.3835  0.3650
  125MOL0     C17153   2.939   6.111   2.999 -0.1604 -0.4228  0.9691
  125MOL0     C17154   2.890   6.045   3.133  0.0747  0.2307 -0.0177
  125MOL0     C17155   2.989   6.090   3.243  0.2242 -0.3817 -0.6492
  125MOL0     C17156   2.973   6.008   3.367  0.5079 -0.2031  0.2540
  125MOL0    Cl17157   2.804   5.982   3.419 -0.3854  0.2676 -0.3735
  125MOL0     C17158   2.747   6.552   2.332  0.5248 -0.5910 -0.0666
  125MOL0     C17159   2.755   6.599   2.199 -0.3525 -0.0081  0.2154
  125MOL0     O17160   3.052   6.633   2.002  0.0446  0.4658  0.3055
  125MOL0     C17161   3.092   6.705   1.733 -0.1809 -0.0651  0.1348
  125MOL0     C17162   3.127   6.714   1.603 -0.1836 -1.2380 -0.0646
  125MOL0     N17163   3.351   7.190   1.055  0.7195 -0.2547  0.3628
  125MOL0     N17164   3.400   7.299   1.023  1.2144 -0.1881 -0.2643
  125MOL0     C17165   2.673   7.472   0.632  2.0209 -0.3880  0.2660
  125MOL0     C17166   2.618   7.417   0.518  0.1903  0.2236 -1.1584
  125MOL0     C17167   2.393   7.219   0.206  0.3773 -0.6554  0.2693
  125MOL0     C17168   2.383   7.084   0.180  0.3764  0.6163  0.3658
  125MOL0     C17169   2.337   7.032   0.057  0.3741 -0.3948  0.3511
  125MOL0     C17170   2.299   7.115  -0.050  0.6815 -0.2603  0.9116
  125MOL0     O17171   2.248   7.063  -0.167 -0.7708  0.5964  0.8085
  125MOL0     C17172   2.215   7.152  -0.276 -0.7259 -0.1770  0.1922
  125MOL0     C17173   2.152   7.070  -0.391  0.1065 -0.3154  0.5571
  125MOL0     C17174   2.003   7.021  -0.372 -0.4255  0.4985  0.4753
  125MOL0     C17175   1.939   6.967  -0.500  1.1284  0.5402 -0.6231
  125MOL0     C17176   1.969   6.824  -0.530  1.1341 -0.4284 -0.1678
  125MOL0     C17177   1.992   6.705  -0.551  0.2812 -0.5483 -0.0926
  125MOL0     C17178   2.301   7.256  -0.025 -0.0991 -0.5557  0.4609
  125MOL0     C17179   2.351   7.305   0.096  0.1851  0.1217 -0.5359
  125MOL0     C17180   2.354   7.458   0.115  0.0510  0.3425  0.0179
  125MOL0     H17181   2.324   7.594   0.522 -0.2827  2.0449  0.1314
  125MOL0     H17182   2.445   7.698   0.706  0.8299  1.3125  0.4925
  125MOL0     H17183   2.759   7.450   0.870 -3.3490 -2.2457 -0.0418
  125MOL0     H17184   2.653   7.523   0.988  1.4586 -0.4557 -0.1762
  125MOL0     H17185   2.910   7.678   0.908 -0.7704  0.6129  0.7923
  125MOL0     H17186   2.805   7.690   1.054  0.7553  1.9672 -1.2352
  125MOL0     H17187   2.875   7.477   1.145 -1.0260 -3.2710 -2.1823
  125MOL0     H17188   2.971   7.452   1.002  0.4907  0.6336 -1.4556
  125MOL0     H17189   3.101   7.633   1.033  0.7621  1.0078  0.9424
  125MOL0     H17190   3.019   7.695   1.177  0.7075  1.9444 -0.8807
  125MOL0     H17191   3.148   7.413   1.163 -1.7232 -0.1335 -0.0136
  125MOL0     H17192   3.096   7.478   1.298 -1.4735  0.4031  0.1626
  125MOL0     H17193   3.243   7.700   1.254  1.2984  1.2031  1.2661
  125MOL0     H17194   3.319   7.569   1.324  0.6933  5.3488 -0.0433
  125MOL0     H17195   3.359   7.707   1.096 -3.8517  0.9294  0.5584
  125MOL0     H17196   3.307   7.572   1.010 -0.8459 -2.6783  1.0248
  125MOL0     H17197   3.538   7.513   1.031  1.2757  1.2114  1.0530
  125MOL0     H17198   3.543   7.520   1.211 -1.3427 -3.3797  0.8221
  125MOL0     H17199   3.426   7.304   1.354 -0.2743  0.3876  0.2223
  125MOL0     H17200   3.175   7.082   1.298  0.5146 -1.2577  1.4262
  125MOL0     H17201   3.322   7.099   1.386 -1.1047  0.1123  0.1163
  125MOL0     H17202   3.285   6.941   1.110 -0.3681  0.2323  0.8895
  125MOL0     H17203   3.427   6.933   1.213  0.4431  1.9663  1.0900
  125MOL0     H17204   3.276   6.707   1.233 -1.9429 -1.3633  0.5119
  125MOL0     H17205   3.331   6.783   1.362 -0.3982 -0.6538 -1.1647
  125MOL0     H17206   3.102   6.877   1.415 -0.4327 -1.6698  1.9952
  125MOL0     H17207   3.043   6.849   1.262  0.7392  4.5197  2.0297
  125MOL0     H17208   2.911   6.503   1.471  1.2612 -0.9515 -0.8318
  125MOL0     H17209   2.796   6.385   1.624  1.0668 -1.4976  1.2926
  125MOL0     H17210   2.723   6.519   1.724 -0.6396  0.9619 -0.2237
  125MOL0     H17211   2.806   6.389   1.797  0.1796 -1.0862 -0.8711
  125MOL0     H17212   2.924   6.335   2.062  1.1438 -0.2358  1.2482
  125MOL0     H17213   2.930   6.271   2.312 -1.9178 -1.1093  0.9391
  125MOL0     H17214   2.791   6.194   2.508 -1.5658  2.5815 -2.0020
  125MOL0     H17215   2.958   6.261   2.508  0.7788 -2.3165 -0.2726
  125MOL0     H17216   2.927   6.328   2.746  0.3097 -1.1012  2.8547
  125MOL0     H17217   2.755   6.289   2.731  0.4495 -1.6093  1.9963
  125MOL0     H17218   3.016   6.116   2.742  0.2152  3.4169  0.5052
  125MOL0     H17219   2.871   6.051   2.660  0.9313  1.8621 -1.5793
  125MOL0     H17220   2.857   5.952   2.875 -2.4113 -0.5640 -1.5502
  125MOL0     H17221   2.749   6.096   2.889 -0.2435 -1.3415  0.0221
  125MOL0     H17222   3.045   6.094   2.978 -0.3624 -0.8568  0.2959
  125MOL0     H17223   2.932   6.220   3.001 -1.2986 -0.4691  0.0908
  125MOL0     H17224   2.883   5.936   3.130 -1.7132  0.3252  0.0545
  125MOL0     H17225   2.789   6.082   3.149  0.0098  2.2897 -3.8470
  125MOL0     H17226   2.964   6.189   3.284 -6.1518 -2.1286  0.9036
  125MOL0     H17227   3.089   6.081   3.202 -0.5471  2.2490 -3.5201
  125MOL0     H17228   3.029   6.059   3.446  1.1758  1.4951 -1.2353
  125MOL0     H17229   3.008   5.904   3.367 -0.9748 -0.7305 -0.0717
  125MOL0     H17230   2.701   6.605   2.414  1.9624 -1.1221  1.1254
  125MOL0     H17231   2.706   6.693   2.175  0.5004 -0.1094 -2.1066
  125MOL0     H17232   3.141   6.774   1.801  1.2533 -1.3113  0.4270
  125MOL0     H17233   3.196   6.790   1.568 -0.5290 -2.0115 -2.6918
  125MOL0     H17234   2.771   7.436   0.660  1.0248 -1.0277  3.3201
  125MOL0     H17235   2.681   7.342   0.470  3.0658  0.6875  1.5598
  125MOL0     H17236   2.410   7.013   0.257 -1.0542  0.9737  1.2273
  125MOL0     H17237   2.331   6.925   0.044 -0.2900 -0.2410 -0.7516
  125MOL0     H17238   2.148   7.233  -0.249  0.0039  0.1180  1.1993
  125MOL0     H17239   2.304   7.209  -0.304 -1.2770  0.7454  0.2955
  125MOL0     H17240   2.222   6.988  -0.407  2.7792  2.0171 -0.6956
  125MOL0     H17241   2.156   7.127  -0.484  0.4810 -3.7932 -1.7462
  125MOL0     H17242   1.994   6.947  -0.292 -1.1889 -1.2841 -1.1769
  125MOL0     H17243   1.941   7.108  -0.349  0.6337  1.4483 -0.1638
  125MOL0     H17244   1.962   7.032  -0.585 -0.1025  4.0311  1.5201
  125MOL0     H17245   1.829   6.968  -0.496  1.1319 -0.8337  0.5291
  125MOL0     H17246   2.007   6.599  -0.560  0.7475 -0.5450  0.6321
  125MOL0     H17247   2.271   7.323  -0.104 -1.9335 -1.1530  0.6107
  125MOL0     H17248   2.263   7.490   0.165  0.6843 -1.7976  2.7830
  125MOL0     H17249   2.436   7.501   0.174 -1.6124 -0.1750  2.8819
  125MOL0     H17250   2.358   7.497   0.012  2.9629 -0.7821 -0.4183
  126MOL0     O17251   4.748   9.725   7.183 -0.6464  0.4307  0.3095
  126MOL0     C17252   4.732   9.842   7.214  0.3630 -0.7342  0.5853
  126MOL0     O17253   4.804   9.910   7.310  0.0866 -0.0341 -0.3124
  126MOL0     C17254   4.910   9.841   7.368 -0.0974 -1.2528  0.5932
  126MOL0     C17255   4.881   9.741   7.459 -0.1727  0.4815 -0.1576
  126MOL0     C17256   4.989   9.681   7.529 -0.3656  0.1639  0.3982
  126MOL0     C17257   5.125   9.700   7.510  0.6530 -0.2150  0.5537
  126MOL0     O17258   5.211   9.624   7.581 -0.4411 -0.1350 -0.4218
  126MOL0     C17259   5.346   9.673   7.606  0.2164  0.4519 -0.0672
  126MOL0     C17260   5.416   9.543   7.637 -1.1397 -0.7137 -0.1038
  126MOL0     C17261   5.559   9.581   7.677 -0.2175  0.3381 -0.0544
  126MOL0     C17262   5.649   9.459   7.677  0.7946 -0.8949  0.1383
  126MOL0     C17263   5.795   9.497   7.688 -0.2775 -0.2580 -0.9516
  126MOL0     C17264   5.883   9.386   7.640 -1.2950 -0.4135 -0.3192
  126MOL0     C17265   6.030   9.433   7.654 -0.4256 -0.6854 -0.7391
  126MOL0     C17266   6.078   9.452   7.800  0.5652 -0.5094 -0.3476
  126MOL0     N17267   6.118   9.338   7.863 -0.1660  0.5926 -0.1959
  126MOL0     C17268   6.249   9.303   7.887 -0.1404  0.4401 -0.4876
  126MOL0     C17269   6.241   9.182   7.946  0.1556  0.3767 -0.2105
  126MOL0     C17270   6.356   9.104   7.962  0.0261  0.4972 -0.1503
  126MOL0     C17271   6.364   9.074   8.111 -0.1076  0.2261 -0.1858
  126MOL0     C17272   6.280   8.958   8.153  0.8433  0.0886 -0.8643
  126MOL0     C17273   6.340   8.886   8.276 -0.4346 -0.2240  0.7579
  126MOL0     O17274   6.307   8.960   8.395  0.0091 -0.7784 -0.1678
  126MOL0     C17275   6.296   8.885   8.509  0.3324 -0.1245  0.5961
  126MOL0     C17276   6.197   8.937   8.599 -0.5681 -0.9325  0.0479
  126MOL0     C17277   6.184   8.874   8.720  0.8610  1.1953 -0.4937
  126MOL0     C17278   6.092   8.941   8.818  0.9446 -0.8242 -1.0484
  126MOL0     C17279   6.260   8.757   8.755  0.7818  0.9345 -0.1699
  126MOL0     C17280   6.268   8.693   8.891  0.0069  0.7988  0.5240
  126MOL0     O17281   6.163   8.706   8.981  0.3777 -0.0511 -0.3456
  126MOL0     C17282   6.167   8.638   9.101  0.1132  0.6475 -0.0806
  126MOL0     C17283   6.059   8.551   9.148 -0.2002  0.3801  0.7862
  126MOL0     C17284   6.079   8.470   9.260 -0.0382  0.6454  0.7759
  126MOL0     C17285   6.193   8.472   9.335  0.1797  0.2121  0.1857
  126MOL0     O17286   6.210   8.391   9.440  0.9927 -0.6165 -0.4254
  126MOL0     C17287   6.223   8.255   9.404 -0.8809 -0.1254 -0.7670
  126MOL0     C17288   6.245   8.161   9.525  0.2097 -0.3350 -0.0298
  126MOL0     C17289   6.150   8.172   9.643  0.3503 -0.2106 -0.0892
  126MOL0     C17290   6.013   8.200   9.606  0.5778 -0.5735 -1.1729
  126MOL0     C17291   5.968   8.088   9.513  0.3453  0.2237 -0.4901
  126MOL0     C17292   5.824   8.090   9.472  0.2343 -0.5262 -0.9547
  126MOL0     C17293   5.784   7.962   9.391 -0.4566  0.0756  0.3053
  126MOL0     C17294   5.635   7.942   9.384  0.0454 -0.0046  0.9755
  126MOL0    Cl17295   5.612   7.781   9.301  0.1166  0.2317  0.4386
  126MOL0     C17296   6.286   8.563   9.298 -0.1336 -0.0063  0.1625
  126MOL0     C17297   6.268   8.644   9.189 -0.7556 -0.0104 -1.3442
  126MOL0     O17298   6.375   8.634   8.914  0.5782  0.1424 -0.2909
  126MOL0     C17299   6.363   8.724   8.671  0.0737 -0.2304  0.7226
  126MOL0     C17300   6.374   8.783   8.538  0.9793 -0.0697 -0.0352
  126MOL0     N17301   6.111   9.150   7.976 -0.1929 -0.2674 -0.7048
  126MOL0     N17302   6.045   9.243   7.924  0.2182 -0.2494 -0.0220
  126MOL0     C17303   5.146   9.817   7.424 -0.4692  0.9509 -0.1716
  126MOL0     C17304   5.041   9.890   7.361  0.2476  0.3791  0.7256
  126MOL0     C17305   4.609   9.908   7.175  0.5584  0.0816 -0.0721
  126MOL0     C17306   4.520   9.972   7.269 -0.0406  1.2067 -0.5185
  126MOL0     C17307   4.392  10.009   7.223  0.0611 -0.3213 -0.7011
  126MOL0     C17308   4.360  10.009   7.086  0.1119 -0.5389  0.0332
  126MOL0     O17309   4.249  10.062   7.037  0.4368 -0.0398  0.0184
  126MOL0     C17310   4.136  10.086   7.122 -0.7321 -0.2743  0.1954
  126MOL0     C17311   4.015  10.140   7.038  0.3493  0.3851 -0.4391
  126MOL0     C17312   3.958  10.030   6.940 -0.7296  0.5569 -0.6157
  126MOL0     C17313   3.843  10.084   6.862 -0.1188  0.2536 -0.0061
  126MOL0     C17314   3.787   9.971   6.786 -0.2107  0.0719 -0.0282
  126MOL0     C17315   3.751   9.879   6.720  1.2875  0.7566  0.0440
  126MOL0     C17316   4.451   9.962   6.991  0.0463  0.3394  0.5492
  126MOL0     C17317   4.574   9.914   7.040 -0.2409  0.8973 -0.3819
  126MOL0     C17318   4.665   9.853   6.937 -0.8498 -0.3181  0.4490
  126MOL0     H17319   4.778   9.729   7.491 -0.6240  2.0202 -0.9523
  126MOL0     H17320   4.971   9.608   7.607  1.1805 -1.3199 -0.5766
  126MOL0     H17321   5.354   9.743   7.690  0.9536  1.2437 -0.7823
  126MOL0     H17322   5.399   9.715   7.520  1.0617 -1.3897 -0.4897
  126MOL0     H17323   5.371   9.493   7.723  1.0340  1.1478  2.2575
  126MOL0     H17324   5.407   9.489   7.542  1.6136  0.9810 -1.4501
  126MOL0     H17325   5.607   9.636   7.596  3.4779 -1.5539  0.6354
  126MOL0     H17326   5.555   9.627   7.775 -0.3708 -0.3527  0.2718
  126MOL0     H17327   5.612   9.374   7.735 -0.8202 -0.2879  0.0337
  126MOL0     H17328   5.641   9.432   7.571  2.6904 -2.0934  0.2515
  126MOL0     H17329   5.810   9.533   7.790 -0.7213 -2.6948  0.0421
  126MOL0     H17330   5.811   9.588   7.629 -2.8527  1.8478  1.2759
  126MOL0     H17331   5.858   9.287   7.681  2.0400 -1.8191 -1.3229
  126MOL0     H17332   5.849   9.387   7.535 -1.9471 -1.4155 -0.1344
  126MOL0     H17333   6.046   9.529   7.605 -0.0161 -0.3945 -0.0440
  126MOL0     H17334   6.089   9.359   7.599 -1.3446 -2.6205  0.7816
  126MOL0     H17335   6.169   9.513   7.800  0.2046  0.0391  0.4202
  126MOL0     H17336   5.997   9.501   7.854 -0.5286 -2.6982  0.1298
  126MOL0     H17337   6.347   9.339   7.855  1.4515 -0.8762  2.5219
  126MOL0     H17338   6.445   9.157   7.926 -0.6017  2.6503  1.3169
  126MOL0     H17339   6.347   9.006   7.914  0.7228 -1.9298  4.1861
  126MOL0     H17340   6.467   9.059   8.144 -0.7497 -2.0400  1.0188
  126MOL0     H17341   6.319   9.155   8.170 -2.2687  0.1956 -1.6888
  126MOL0     H17342   6.173   8.979   8.162  0.7276 -1.2124  1.4618
  126MOL0     H17343   6.278   8.882   8.074  0.9558 -0.8153 -0.0133
  126MOL0     H17344   6.299   8.784   8.281  1.8420 -1.1939  1.0115
  126MOL0     H17345   6.443   8.875   8.241 -0.8813 -2.4583 -0.0648
  126MOL0     H17346   6.130   9.018   8.573  2.2310  1.3243 -0.5392
  126MOL0     H17347   6.155   8.984   8.897 -1.2076  1.8654 -0.6163
  126MOL0     H17348   6.019   8.882   8.874  1.0293 -0.2122 -0.2684
  126MOL0     H17349   6.030   9.019   8.771 -0.5497 -1.1704  0.2466
  126MOL0     H17350   5.976   8.553   9.078  1.7328 -0.1840 -1.6955
  126MOL0     H17351   5.998   8.404   9.290  0.7355 -0.7759 -0.1460
  126MOL0     H17352   6.145   8.222   9.336 -0.5900 -1.4465 -0.4859
  126MOL0     H17353   6.320   8.256   9.352  0.0848  0.1046  0.9519
  126MOL0     H17354   6.254   8.054   9.501 -0.1175 -1.0791  2.8399
  126MOL0     H17355   6.341   8.199   9.563 -1.1015  1.1560  1.9884
  126MOL0     H17356   6.170   8.262   9.702 -0.4641  1.1153 -1.7415
  126MOL0     H17357   6.154   8.085   9.708 -1.0581 -1.4592 -1.5804
  126MOL0     H17358   5.999   8.298   9.558 -0.1436 -0.8856 -1.6241
  126MOL0     H17359   5.946   8.196   9.692 -1.4900 -0.2973 -2.6760
  126MOL0     H17360   6.027   8.075   9.422  1.2683  1.1845 -0.0564
  126MOL0     H17361   5.991   7.998   9.572 -0.2013  0.6046  0.3232
  126MOL0     H17362   5.807   8.174   9.403  1.8524  1.0232  0.4274
  126MOL0     H17363   5.752   8.088   9.555 -0.0497 -2.6190 -1.1916
  126MOL0     H17364   5.814   7.875   9.450 -1.2672  2.3270  4.4145
  126MOL0     H17365   5.831   7.954   9.292 -0.0103 -0.7930  0.5689
  126MOL0     H17366   5.591   8.019   9.320 -0.3851  0.7269  2.1250
  126MOL0     H17367   5.594   7.937   9.485  2.6246 -0.6830  2.0538
  126MOL0     H17368   6.376   8.567   9.359 -0.0116  1.0261 -0.0566
  126MOL0     H17369   6.355   8.707   9.175 -0.0049 -0.6679  0.1573
  126MOL0     H17370   6.429   8.643   8.700 -0.0424 -0.8671 -0.6857
  126MOL0     H17371   6.451   8.760   8.465 -0.3194  3.2759 -2.7381
  126MOL0     H17372   5.246   9.859   7.417  0.2161  0.1989  3.1991
  126MOL0     H17373   5.063   9.973   7.295 -1.1961  1.8399  1.9952
  126MOL0     H17374   4.550   9.968   7.373 -1.1981 -1.2194 -0.1978
  126MOL0     H17375   4.320  10.040   7.297 -0.5565  2.5856 -2.3469
  126MOL0     H17376   4.099   9.998   7.174 -2.6048 -1.3614 -2.7259
  126MOL0     H17377   4.154  10.166   7.195 -0.8061 -0.9088  0.9163
  126MOL0     H17378   4.052  10.228   6.986  1.1457  0.5567  0.3895
  126MOL0     H17379   3.941  10.163   7.116  0.1336  1.6829 -1.0068
  126MOL0     H17380   4.028   9.993   6.864 -1.8135  0.7222 -1.7358
  126MOL0     H17381   3.933   9.942   7.000 -1.7489  1.4432  0.3002
  126MOL0     H17382   3.884  10.160   6.795  0.9596  1.6570  2.1114
  126MOL0     H17383   3.764  10.127   6.924 -0.9047 -2.1824  0.8141
  126MOL0     H17384   3.701   9.804   6.661  1.2044 -0.2837  1.3645
  126MOL0     H17385   4.432   9.965   6.884 -0.6056  1.3796  0.6762
  126MOL0     H17386   4.644   9.909   6.845 -0.8597  0.7320  1.0795
  126MOL0     H17387   4.768   9.874   6.965  0.2817 -0.4421 -3.1257
  126MOL0     H17388   4.671   9.745   6.918  5.3783 -0.4461  1.2788
  127MOL0     O17389  10.139   5.436   2.632  0.4937 -0.3444  0.1736
  127MOL0     C17390  10.115   5.322   2.599  0.3094 -0.7115 -0.0835
  127MOL0     O17391  10.080   5.227   2.688  0.3174  0.1728 -0.2414
  127MOL0     C17392  10.081   5.260   2.824  0.4115  0.5245 -0.6607
  127MOL0     C17393  10.188   5.281   2.903 -0.2603  0.5402 -0.2380
  127MOL0     C17394  10.175   5.309   3.033  0.1684  0.7619  0.5035
  127MOL0     C17395  10.057   5.299   3.104 -0.0478  0.4134  0.7466
  127MOL0     O17396  10.064   5.318   3.242  0.9434 -0.1106  0.2077
  127MOL0     C17397  10.145   5.217   3.306 -0.3429 -0.4335 -0.5267
  127MOL0     C17398  10.097   5.074   3.288 -0.6546  0.7856 -0.1481
  127MOL0     C17399   9.953   5.046   3.322  0.0988  0.3144 -0.1041
  127MOL0     C17400   9.916   4.904   3.282  0.3336 -0.0354  0.2621
  127MOL0     C17401   9.778   4.864   3.333  0.5545  0.1023 -0.3020
  127MOL0     C17402   9.656   4.895   3.244 -0.1875 -0.4564 -0.7376
  127MOL0     C17403   9.652   4.834   3.104  0.1264 -0.2570 -0.5581
  127MOL0     C17404   9.651   4.682   3.112  0.7675  0.5527 -0.2944
  127MOL0     N17405   9.531   4.625   3.177  0.5834 -0.7243 -0.4499
  127MOL0     C17406   9.401   4.591   3.124  0.2752  0.0488  0.4366
  127MOL0     C17407   9.340   4.525   3.220 -0.0839  0.4932 -0.4136
  127MOL0     C17408   9.202   4.469   3.226  0.4888  0.3660  0.0877
  127MOL0     C17409   9.186   4.318   3.234 -0.5703  0.6195 -0.3707
  127MOL0     C17410   9.181   4.270   3.380  0.2874  0.2857 -0.3045
  127MOL0     C17411   9.236   4.128   3.378  0.0274 -0.5809  0.0767
  127MOL0     O17412   9.153   4.043   3.298  0.6869  0.1430  0.1522
  127MOL0     C17413   9.034   3.996   3.337  0.2661 -0.0935  0.7717
  127MOL0     C17414   8.962   3.926   3.237  0.3285  0.2230 -0.2704
  127MOL0     C17415   8.835   3.879   3.270 -0.1223  0.4963 -0.1207
  127MOL0     C17416   8.768   3.807   3.157 -0.0745 -0.4979  0.0104
  127MOL0     C17417   8.784   3.890   3.404  0.5186  0.2075 -0.4097
  127MOL0     C17418   8.650   3.841   3.441  0.5570  0.3288 -0.5238
  127MOL0     O17419   8.603   3.895   3.557 -0.4827  0.1396 -0.4982
  127MOL0     C17420   8.474   3.886   3.605 -0.4318 -0.5361 -1.0974
  127MOL0     C17421   8.474   3.932   3.741  0.8385 -0.1244  0.7484
  127MOL0     C17422   8.349   3.924   3.805  0.5125 -0.2139 -0.2563
  127MOL0     C17423   8.227   3.881   3.738 -0.1857 -0.4401  0.4574
  127MOL0     O17424   8.111   3.887   3.815  0.2880  0.2888  0.2095
  127MOL0     C17425   7.995   3.940   3.750 -0.3184  0.0423 -0.1673
  127MOL0     C17426   7.995   4.093   3.729 -0.1405  0.0081 -0.8033
  127MOL0     C17427   8.030   4.175   3.855 -0.3154  0.4653  0.0062
  127MOL0     C17428   8.147   4.262   3.827  1.0961  0.5308  0.5520
  127MOL0     C17429   8.204   4.343   3.954 -0.5960  0.3437  0.0374
  127MOL0     C17430   8.102   4.440   4.015  0.5229 -0.1594 -0.4332
  127MOL0     C17431   8.154   4.554   4.094  0.1839  0.5158  0.1510
  127MOL0     C17432   8.059   4.601   4.204 -0.8509  0.2711 -0.4884
  127MOL0    Cl17433   8.056   4.492   4.356 -0.0558  0.0830  0.5199
  127MOL0     C17434   8.232   3.842   3.606 -0.8283  0.3058 -0.0757
  127MOL0     C17435   8.359   3.842   3.543  0.1952 -0.2128 -0.5263
  127MOL0     O17436   8.603   3.754   3.372  0.4305  0.3076 -0.4107
  127MOL0     C17437   8.865   3.961   3.500  0.3776  0.4607 -0.5794
  127MOL0     C17438   8.984   4.022   3.462 -0.7394 -0.5192  0.3058
  127MOL0     N17439   9.426   4.505   3.323  0.3669  0.6736  0.0153
  127MOL0     N17440   9.537   4.571   3.299  0.3190 -0.2747 -0.5502
  127MOL0     C17441   9.945   5.288   3.030 -0.4161 -0.2491 -0.1359
  127MOL0     C17442   9.955   5.265   2.887  0.1125  0.8109 -0.6941
  127MOL0     C17443  10.090   5.294   2.455  0.5133  0.9665  1.3789
  127MOL0     C17444  10.064   5.153   2.418  0.3650 -0.2541 -0.6538
  127MOL0     C17445  10.050   5.111   2.290 -0.4386 -0.3817  0.4510
  127MOL0     C17446  10.045   5.205   2.190 -1.3038  0.0503  1.0823
  127MOL0     O17447  10.023   5.166   2.057  0.3681  0.3095 -0.3571
  127MOL0     C17448   9.984   5.027   2.024  0.3156  0.1002  0.8164
  127MOL0     C17449  10.105   4.938   1.998  0.9684  0.2539  0.1751
  127MOL0     C17450  10.169   4.975   1.866  0.4759 -0.2579  0.9271
  127MOL0     C17451  10.306   4.914   1.846 -0.1915  0.2935 -0.5860
  127MOL0     C17452  10.379   4.970   1.728 -0.2564  0.3266  0.3212
  127MOL0     C17453  10.443   5.023   1.636  0.1920 -0.0574 -0.0556
  127MOL0     C17454  10.060   5.347   2.214  0.4553  0.2054  0.0109
  127MOL0     C17455  10.082   5.390   2.346 -0.2072 -0.2573  0.5987
  127MOL0     C17456  10.102   5.536   2.361  0.2531 -0.5934  0.3051
  127MOL0     H17457  10.284   5.294   2.854  0.3714 -0.8210  0.5741
  127MOL0     H17458  10.258   5.342   3.094 -0.0502 -1.0993  1.8978
  127MOL0     H17459  10.155   5.238   3.413  1.5779  2.1246 -1.1038
  127MOL0     H17460  10.250   5.226   3.275 -0.1675  3.6515  0.6373
  127MOL0     H17461  10.100   5.042   3.184 -4.3037 -2.0127  0.4120
  127MOL0     H17462  10.162   5.003   3.341  1.0665  0.8633 -2.0333
  127MOL0     H17463   9.923   5.076   3.422  1.9846 -2.0047  1.2493
  127MOL0     H17464   9.888   5.108   3.259  2.4234  2.9883 -0.1103
  127MOL0     H17465   9.909   4.890   3.173 -3.0956  1.8072  0.1091
  127MOL0     H17466   9.994   4.841   3.325  1.9875  1.1398 -0.9061
  127MOL0     H17467   9.776   4.911   3.432  2.4439  3.1213 -1.5440
  127MOL0     H17468   9.789   4.757   3.350  1.8560  0.2314 -0.2751
  127MOL0     H17469   9.566   4.870   3.302 -0.4236  0.5711 -0.6381
  127MOL0     H17470   9.653   5.004   3.228  2.0052  0.2469  2.6547
  127MOL0     H17471   9.735   4.880   3.050  0.5084  1.5595  1.4602
  127MOL0     H17472   9.559   4.868   3.057 -0.0898 -1.0356 -0.7054
  127MOL0     H17473   9.656   4.642   3.010  1.2239 -3.1890  1.0235
  127MOL0     H17474   9.740   4.645   3.163  0.2876 -1.1498 -0.6026
  127MOL0     H17475   9.354   4.624   3.031  0.1435 -4.9079 -1.5597
  127MOL0     H17476   9.158   4.496   3.129  2.3154  3.6425  0.0208
  127MOL0     H17477   9.139   4.516   3.302 -0.2822 -0.3815 -0.0756
  127MOL0     H17478   9.101   4.298   3.168 -2.6900  2.9857  1.4357
  127MOL0     H17479   9.275   4.273   3.189  1.5330  3.3880  0.6986
  127MOL0     H17480   9.246   4.331   3.444  0.7046  1.0700 -1.4392
  127MOL0     H17481   9.076   4.271   3.412 -0.2461 -2.2334 -1.7739
  127MOL0     H17482   9.339   4.131   3.340  1.3539  2.7682  3.2771
  127MOL0     H17483   9.235   4.088   3.479 -1.0252  2.0039  1.1764
  127MOL0     H17484   9.010   3.923   3.140  2.2079 -0.2334  0.6376
  127MOL0     H17485   8.675   3.859   3.134 -1.4019 -2.5496  0.4293
  127MOL0     H17486   8.748   3.703   3.184  0.0235  0.0304  2.3965
  127MOL0     H17487   8.835   3.798   3.071  0.6756 -0.9136  0.6175
  127MOL0     H17488   8.572   3.960   3.778 -0.1413 -0.3090  3.7471
  127MOL0     H17489   8.345   3.942   3.912  1.2473 -0.2679 -0.2097
  127MOL0     H17490   7.995   3.892   3.652  0.2402 -0.6831  0.1706
  127MOL0     H17491   7.916   3.912   3.820 -0.3554  1.9211  0.5758
  127MOL0     H17492   8.058   4.114   3.642 -1.7626 -1.2716 -2.3851
  127MOL0     H17493   7.898   4.129   3.693 -0.1872  2.7894  1.7005
  127MOL0     H17494   8.054   4.110   3.940  2.0923  0.2240 -0.7604
  127MOL0     H17495   7.948   4.240   3.886 -0.1387  1.1579 -0.9265
  127MOL0     H17496   8.110   4.320   3.742  0.8133  0.4215  0.5967
  127MOL0     H17497   8.229   4.204   3.785 -0.4249 -0.4785 -1.1929
  127MOL0     H17498   8.228   4.273   4.035  0.0776  1.8771  1.2265
  127MOL0     H17499   8.293   4.396   3.919 -0.5476 -0.7614 -1.6357
  127MOL0     H17500   8.045   4.389   4.093  1.0828  1.6742  1.2483
  127MOL0     H17501   8.025   4.482   3.949 -1.4027 -0.8156  1.3051
  127MOL0     H17502   8.161   4.639   4.025 -2.1071 -0.9769 -2.1103
  127MOL0     H17503   8.252   4.538   4.139 -0.2834 -0.2650  0.9270
  127MOL0     H17504   7.959   4.617   4.162 -0.9734  1.3569  0.1633
  127MOL0     H17505   8.087   4.702   4.236  0.2461 -0.2767  0.3298
  127MOL0     H17506   8.155   3.795   3.545  0.8836 -3.8818  0.6119
  127MOL0     H17507   8.371   3.809   3.440  1.5784  3.2192 -1.5951
  127MOL0     H17508   8.826   3.981   3.599 -0.0278  0.5032 -0.7461
  127MOL0     H17509   9.045   4.074   3.536  0.3625 -0.2044 -0.7974
  127MOL0     H17510   9.847   5.285   3.077 -1.2366 -1.8922 -1.7996
  127MOL0     H17511   9.863   5.231   2.841  0.8703  0.9431 -2.3514
  127MOL0     H17512  10.054   5.078   2.495 -0.9541  0.2629 -0.2921
  127MOL0     H17513  10.037   5.007   2.264 -2.1524 -0.0472 -0.1336
  127MOL0     H17514   9.914   4.983   2.096 -1.9080 -1.2034 -1.9304
  127MOL0     H17515   9.922   5.038   1.935  0.4618  1.0978  0.8285
  127MOL0     H17516  10.075   4.834   2.004 -0.3595  0.5558 -0.7708
  127MOL0     H17517  10.183   4.953   2.073  2.1825 -2.4019 -0.4425
  127MOL0     H17518  10.110   4.932   1.785 -1.1518 -0.1718  2.0252
  127MOL0     H17519  10.172   5.083   1.851 -1.3120 -0.2415  0.5170
  127MOL0     H17520  10.293   4.807   1.826  0.6240  0.3341 -1.4275
  127MOL0     H17521  10.376   4.938   1.926 -1.2304  2.5176 -0.2616
  127MOL0     H17522  10.492   5.061   1.549 -2.7325 -3.7300 -3.7275
  127MOL0     H17523  10.033   5.417   2.135  0.1957  0.6753  0.5155
  127MOL0     H17524  10.091   5.590   2.266 -0.7156  0.6549  1.0815
  127MOL0     H17525  10.017   5.574   2.419 -1.8631  1.2377 -3.5970
  127MOL0     H17526  10.199   5.562   2.405 -0.7252  2.1357  1.0847
  128MOL0     O17527   5.430  11.285  10.124 -0.3098  0.7920  0.4382
  128MOL0     C17528   5.331  11.214  10.146  0.4507 -0.0782 -0.7961
  128MOL0     O17529   5.333  11.082  10.192  0.0762  0.1574  0.9585
  128MOL0     C17530   5.456  11.027  10.183  0.2603  0.4573  0.6318
  128MOL0     C17531   5.561  11.044  10.272 -0.5508 -2.1092 -0.2663
  128MOL0     C17532   5.689  10.976  10.253 -0.6401  0.5565 -0.6956
  128MOL0     C17533   5.708  10.890  10.148 -0.0756 -0.6358  0.8623
  128MOL0     O17534   5.824  10.829  10.110 -0.3359  0.3199 -0.1289
  128MOL0     C17535   5.939  10.843  10.194  0.1610 -0.3756  0.0281
  128MOL0     C17536   6.059  10.812  10.105  0.1229 -0.0951 -0.2489
  128MOL0     C17537   6.200  10.790  10.164  0.1444 -0.5768 -0.4758
  128MOL0     C17538   6.313  10.763  10.067 -0.6523 -0.0366  0.0077
  128MOL0     C17539   6.296  10.643   9.973 -0.9565  0.0097 -0.3177
  128MOL0     C17540   6.274  10.507  10.045 -0.3087 -0.3880 -0.0057
  128MOL0     C17541   6.393  10.450  10.131  0.8860  0.2338  1.0501
  128MOL0     C17542   6.351  10.318  10.197  0.2659  0.5123 -0.7774
  128MOL0     N17543   6.457  10.277  10.297  0.7869  0.4874 -0.1825
  128MOL0     C17544   6.494  10.330  10.423 -0.6980 -0.2977 -0.6027
  128MOL0     C17545   6.575  10.242  10.480 -0.1933  0.3563  0.0999
  128MOL0     C17546   6.626  10.252  10.618  0.2164 -0.0373  0.5225
  128MOL0     C17547   6.779  10.242  10.637  0.4998  0.9083 -0.0781
  128MOL0     C17548   6.852  10.372  10.602 -0.1836  0.1448 -0.7608
  128MOL0     C17549   6.989  10.382  10.674 -0.3660 -0.3256 -0.5488
  128MOL0     O17550   6.958  10.411  10.813 -0.0115  0.4535 -0.5491
  128MOL0     C17551   7.036  10.363  10.912  0.2604  1.2010 -0.3427
  128MOL0     C17552   7.175  10.347  10.900 -0.7476  0.4111 -0.5834
  128MOL0     C17553   7.245  10.292  11.009  0.2627  0.8930  0.3758
  128MOL0     C17554   7.399  10.277  10.986  0.4789 -0.4986  1.0347
  128MOL0     C17555   7.180  10.242  11.127  0.3628 -0.1057  0.5156
  128MOL0     C17556   7.254  10.196  11.242 -0.0858 -0.2232 -0.6155
  128MOL0     O17557   7.379  10.130  11.225  0.7400  0.2743 -0.2822
  128MOL0     C17558   7.449  10.080  11.330  0.6195 -0.7960  0.0270
  128MOL0     C17559   7.545  10.153  11.395  0.1492  0.4400 -0.4708
  128MOL0     C17560   7.621  10.102  11.502  0.4140 -0.0214 -0.1830
  128MOL0     C17561   7.606   9.966  11.543  0.0671 -0.5845 -0.3445
  128MOL0     O17562   7.677   9.917  11.649  0.8040  0.8567  0.5878
  128MOL0     C17563   7.619   9.820  11.736  0.4133  0.5226  0.5059
  128MOL0     C17564   7.736   9.743  11.803 -0.2847  0.1994  0.1674
  128MOL0     C17565   7.757   9.598  11.747  0.3207 -0.4968  0.8639
  128MOL0     C17566   7.854   9.586  11.628  0.6896 -1.0760 -0.1016
  128MOL0     C17567   7.833   9.465  11.550 -0.2535  0.4024 -0.0290
  128MOL0     C17568   7.835   9.320  11.603  0.1056  0.4418  0.1847
  128MOL0     C17569   7.943   9.292  11.702 -0.1993  0.2120  0.3494
  128MOL0     C17570   7.951   9.144  11.735  0.8636  0.0783 -0.9554
  128MOL0    Cl17571   8.070   9.072  11.639 -0.4900 -0.1138  0.1555
  128MOL0     C17572   7.514   9.891  11.466 -0.6352  0.7688 -0.6764
  128MOL0     C17573   7.418   9.943  11.374 -0.1476  0.3666 -0.2300
  128MOL0     O17574   7.194  10.199  11.356  0.4567  0.1726  0.0430
  128MOL0     C17575   7.036  10.262  11.130  0.3917  0.9200 -0.3079
  128MOL0     C17576   6.974  10.318  11.025 -0.0337 -0.5615  0.4887
  128MOL0     N17577   6.585  10.135  10.397 -0.1552  0.5776  0.0188
  128MOL0     N17578   6.514  10.156  10.295  0.1987  0.8944 -1.0847
  128MOL0     C17579   5.599  10.865  10.061 -0.9373 -0.0537 -0.0429
  128MOL0     C17580   5.482  10.939  10.076  0.9492  0.5695  0.4205
  128MOL0     C17581   5.202  11.284  10.131  0.5018 -0.7011  0.1019
  128MOL0     C17582   5.206  11.416  10.078 -0.0252 -0.1124 -0.4417
  128MOL0     C17583   5.089  11.488  10.062 -0.2114  0.0225 -0.1489
  128MOL0     C17584   4.970  11.434  10.105 -0.6330  1.0392 -0.1238
  128MOL0     O17585   4.856  11.503  10.078  0.5807  0.1915 -0.5636
  128MOL0     C17586   4.726  11.454  10.106  0.4550 -0.3200 -1.2396
  128MOL0     C17587   4.621  11.540  10.037 -0.2231 -0.0700 -0.0317
  128MOL0     C17588   4.621  11.692  10.048  0.4221  1.0895  0.2377
  128MOL0     C17589   4.532  11.759  10.158  0.8915  0.3887  0.5280
  128MOL0     C17590   4.573  11.724  10.292  0.6841  0.0772 -0.9727
  128MOL0     C17591   4.619  11.717  10.405  0.0428  1.0984  0.0544
  128MOL0     C17592   4.966  11.308  10.161 -0.6041  0.7689  0.5407
  128MOL0     C17593   5.079  11.234  10.180 -0.6518 -0.6503  0.0268
  128MOL0     C17594   5.056  11.104  10.245 -0.5201 -0.5109  0.4432
  128MOL0     H17595   5.556  11.110  10.358  1.0978 -1.2869 -0.7601
  128MOL0     H17596   5.768  10.991  10.326 -0.4266 -1.5831 -0.4240
  128MOL0     H17597   5.950  10.778  10.281 -0.0846 -1.2893 -0.6069
  128MOL0     H17598   5.945  10.947  10.225  1.8738 -0.0339 -1.3167
  128MOL0     H17599   6.030  10.718  10.057  1.2924 -0.0754 -1.0720
  128MOL0     H17600   6.075  10.892  10.032  0.7670  0.7404  0.7774
  128MOL0     H17601   6.222  10.884  10.215 -4.1797  0.0229  0.6284
  128MOL0     H17602   6.201  10.713  10.241  1.9288 -0.2800 -0.1449
  128MOL0     H17603   6.343  10.849  10.006  0.3728 -0.9188 -0.7859
  128MOL0     H17604   6.400  10.745  10.131 -0.0481 -2.4702 -1.3872
  128MOL0     H17605   6.384  10.649   9.908  1.2881  2.7761  2.6417
  128MOL0     H17606   6.210  10.666   9.911 -1.7443 -0.6127  0.5144
  128MOL0     H17607   6.200  10.515  10.124 -2.4989 -2.4721 -1.6963
  128MOL0     H17608   6.242  10.427   9.977  1.7413  0.2923 -1.8820
  128MOL0     H17609   6.413  10.521  10.212 -0.8473 -0.7995  2.4649
  128MOL0     H17610   6.481  10.433  10.069 -0.4875  0.0892 -0.9495
  128MOL0     H17611   6.249  10.327  10.236  0.5221 -4.2445  1.7303
  128MOL0     H17612   6.336  10.239  10.123  0.1679 -1.7574  1.5250
  128MOL0     H17613   6.475  10.432  10.455  0.0280 -0.3820  0.1313
  128MOL0     H17614   6.586  10.176  10.686  1.6920  1.2644  3.0405
  128MOL0     H17615   6.599  10.351  10.659  2.8552  0.0494  2.3263
  128MOL0     H17616   6.787  10.223  10.744  3.4988  2.8905  0.1604
  128MOL0     H17617   6.821  10.158  10.582  0.4812  1.3090 -0.7097
  128MOL0     H17618   6.865  10.384  10.494  0.0421 -1.3228 -0.9189
  128MOL0     H17619   6.797  10.459  10.639 -0.5128 -0.4754  0.2447
  128MOL0     H17620   7.055  10.297  10.657  1.1358  0.5544  0.6087
  128MOL0     H17621   7.049  10.463  10.630 -0.3585 -0.3424 -0.5692
  128MOL0     H17622   7.229  10.371  10.809 -0.9590  0.3091 -0.7376
  128MOL0     H17623   7.467  10.334  11.050 -0.7284  1.4405  0.6709
  128MOL0     H17624   7.434  10.308  10.887 -1.3312  0.8116  0.7700
  128MOL0     H17625   7.412  10.169  10.989 -1.2210 -0.7173  1.4590
  128MOL0     H17626   7.566  10.258  11.373  1.8817  0.0895 -0.6135
  128MOL0     H17627   7.691  10.168  11.553 -1.0551  0.5248  1.2198
  128MOL0     H17628   7.579   9.885  11.814 -0.6718  2.1831 -1.3358
  128MOL0     H17629   7.550   9.750  11.687 -0.0752 -2.7044  5.1582
  128MOL0     H17630   7.830   9.798  11.807 -1.0530  1.5159  2.3136
  128MOL0     H17631   7.720   9.717  11.909  1.0499  0.6144  0.4944
  128MOL0     H17632   7.659   9.557  11.721  0.9734 -1.7618  0.3444
  128MOL0     H17633   7.807   9.549  11.831  0.1383 -0.9419  0.7124
  128MOL0     H17634   7.957   9.591  11.665  1.3520 -1.1697 -1.8512
  128MOL0     H17635   7.836   9.665  11.555 -2.2064 -3.1269 -1.8198
  128MOL0     H17636   7.738   9.477  11.498 -2.4548 -1.2541  3.2796
  128MOL0     H17637   7.917   9.463  11.480 -0.3688  1.1953 -0.2044
  128MOL0     H17638   7.844   9.248  11.521 -0.4706  0.8471 -0.2396
  128MOL0     H17639   7.738   9.300  11.649  0.6218  1.1280  1.6421
  128MOL0     H17640   7.916   9.351  11.790 -0.0722  1.0293 -0.1465
  128MOL0     H17641   8.035   9.341  11.669 -1.2717  1.8040 -0.4064
  128MOL0     H17642   7.852   9.104  11.712  1.6577 -0.4771 -3.8799
  128MOL0     H17643   7.963   9.131  11.843 -0.7642  2.4387 -0.4097
  128MOL0     H17644   7.498   9.786  11.486 -0.1439  0.5386 -1.4605
  128MOL0     H17645   7.350   9.883  11.314 -0.1076  3.1232 -3.3431
  128MOL0     H17646   6.973  10.223  11.209 -0.8549 -0.6375 -1.9634
  128MOL0     H17647   6.866  10.317  11.033 -0.0149  0.1874  1.0696
  128MOL0     H17648   5.611  10.798   9.976  0.9994 -0.9702  0.8915
  128MOL0     H17649   5.407  10.923   9.999 -0.5286 -0.5055  2.0201
  128MOL0     H17650   5.298  11.472  10.061  0.1381 -0.6042 -1.2391
  128MOL0     H17651   5.086  11.587  10.017 -1.1921  0.8294  1.6045
  128MOL0     H17652   4.727  11.347  10.084  3.2034 -1.2776  2.5512
  128MOL0     H17653   4.711  11.461  10.214 -2.2510  1.5283 -1.6215
  128MOL0     H17654   4.522  11.500  10.063  0.3997 -0.0431  2.6178
  128MOL0     H17655   4.642  11.527   9.930 -0.0748  0.0325 -0.0157
  128MOL0     H17656   4.724  11.725  10.062  0.6988  0.3102  0.1179
  128MOL0     H17657   4.587  11.729   9.951 -0.7197  0.2447  0.2875
  128MOL0     H17658   4.434  11.712  10.146  1.0439 -0.0092  0.8501
  128MOL0     H17659   4.513  11.867  10.150  2.4098  0.7572  1.5403
  128MOL0     H17660   4.677  11.702  10.494 -0.7314  0.6879  0.4964
  128MOL0     H17661   4.871  11.264  10.189  0.3426 -1.3316  0.6243
  128MOL0     H17662   4.949  11.085  10.232 -1.2107  2.8034  0.3036
  128MOL0     H17663   5.117  11.032  10.190  1.6665 -0.0645  2.1105
  128MOL0     H17664   5.102  11.111  10.345  3.1012  1.2909 -1.1517
  129MOL0     O17665   0.385   9.771   3.033  0.7502  0.4316 -0.0298
  129MOL0     C17666   0.487   9.698   3.025  0.0660 -0.6123 -0.0064
  129MOL0     O17667   0.494   9.563   3.067  0.1392 -0.2745  0.3441
  129MOL0     C17668   0.407   9.522   3.167 -0.2854  1.0187 -1.1295
  129MOL0     C17669   0.275   9.488   3.139  0.5918 -0.4126  0.2565
  129MOL0     C17670   0.197   9.442   3.237  0.0631  0.2211 -0.2755
  129MOL0     C17671   0.235   9.446   3.373  0.1522 -0.4225  0.1759
  129MOL0     O17672   0.146   9.395   3.474  0.2194  0.3344  0.7055
  129MOL0     C17673   0.179   9.436   3.610 -0.5590  0.0247  0.8609
  129MOL0     C17674   0.058   9.417   3.700  0.3346 -0.4073 -0.0969
  129MOL0     C17675   0.088   9.488   3.831  0.1890 -0.4471 -0.1226
  129MOL0     C17676  -0.029   9.453   3.929  0.2045 -0.2775  0.3493
  129MOL0     C17677  -0.023   9.519   4.067 -0.2483  0.2862  0.7707
  129MOL0     C17678  -0.062   9.670   4.069  0.2133  0.3491  0.5762
  129MOL0     C17679  -0.107   9.706   4.219 -0.0580  0.4323  1.1317
  129MOL0     C17680  -0.165   9.850   4.231  0.1552  0.5637  0.8672
  129MOL0     N17681  -0.080   9.966   4.196 -0.0981 -0.6843  0.6208
  129MOL0     C17682  -0.124  10.073   4.111 -0.7417  0.2838  0.2849
  129MOL0     C17683  -0.019  10.140   4.072 -1.0016 -0.5589 -1.0847
  129MOL0     C17684  -0.014  10.243   3.967 -0.7460 -0.0112  0.0452
  129MOL0     C17685   0.010  10.190   3.824 -0.0040 -0.4213  0.0251
  129MOL0     C17686   0.132  10.109   3.792 -0.6799  0.4491 -0.0607
  129MOL0     C17687   0.268  10.171   3.839  0.4832 -1.2804  1.0455
  129MOL0     O17688   0.381  10.102   3.797  0.4454 -0.3872  0.8396
  129MOL0     C17689   0.406   9.971   3.834  0.2819 -0.3198 -0.4402
  129MOL0     C17690   0.499   9.909   3.757  0.1310 -0.1940  0.4995
  129MOL0     C17691   0.526   9.775   3.757 -0.6257  0.5511  0.1504
  129MOL0     C17692   0.618   9.723   3.646 -0.2052  0.3542 -0.0576
  129MOL0     C17693   0.458   9.693   3.860 -0.6303 -0.5417  0.5727
  129MOL0     C17694   0.468   9.541   3.868 -0.2599  0.3754  0.7481
  129MOL0     O17695   0.438   9.493   3.981 -0.5322 -0.0669 -0.3930
  129MOL0     C17696   0.439   9.358   4.008 -0.3214  0.4556  0.3866
  129MOL0     C17697   0.336   9.297   4.078  0.0812  0.2367 -0.4175
  129MOL0     C17698   0.325   9.156   4.100  0.2414  1.2171  0.1419
  129MOL0     C17699   0.428   9.075   4.060 -0.8366  0.0808  0.1181
  129MOL0     O17700   0.409   8.942   4.094  0.8623 -0.1265  0.1132
  129MOL0     C17701   0.513   8.844   4.076 -0.2712 -0.0303  0.2689
  129MOL0     C17702   0.472   8.701   4.099 -0.3550  0.6969  0.5458
  129MOL0     C17703   0.385   8.687   4.222 -0.3010 -0.1410  0.4497
  129MOL0     C17704   0.379   8.538   4.249  1.1777 -0.3792  0.0352
  129MOL0     C17705   0.292   8.509   4.374  0.2874  0.2374 -0.1039
  129MOL0     C17706   0.354   8.561   4.505 -0.5251  0.0921 -0.2613
  129MOL0     C17707   0.270   8.542   4.630  0.5588 -0.0664  1.3445
  129MOL0     C17708   0.350   8.577   4.754 -0.1605 -0.2263  0.3590
  129MOL0    Cl17709   0.238   8.621   4.896 -0.2504 -0.0735 -0.2889
  129MOL0     C17710   0.538   9.136   3.996 -0.9787 -0.3458  1.1258
  129MOL0     C17711   0.543   9.275   3.978 -0.5893  0.0986 -0.3723
  129MOL0     O17712   0.481   9.483   3.764  0.4276 -0.1641  0.4601
  129MOL0     C17713   0.373   9.762   3.956 -0.5764 -0.0912  0.0690
  129MOL0     C17714   0.347   9.899   3.940 -0.8593  0.0089 -1.3566
  129MOL0     N17715   0.089  10.093   4.148 -0.2404  0.2589 -0.4123
  129MOL0     N17716   0.049   9.984   4.213 -1.0777 -0.5634  0.1580
  129MOL0     C17717   0.362   9.499   3.403 -0.7559 -0.3222 -0.3970
  129MOL0     C17718   0.451   9.531   3.297  0.9024  0.4660 -0.2511
  129MOL0     C17719   0.622   9.756   2.983  0.3515  0.0613  0.4623
  129MOL0     C17720   0.740   9.706   3.045  0.6642 -0.2368 -0.1222
  129MOL0     C17721   0.868   9.739   3.005  0.5991 -0.3875  0.6738
  129MOL0     C17722   0.872   9.835   2.896 -0.2291 -0.2166 -0.4849
  129MOL0     O17723   0.983   9.884   2.829  0.7181  0.5336 -0.6244
  129MOL0     C17724   1.117   9.865   2.870 -0.4202 -0.1167 -0.2907
  129MOL0     C17725   1.161   9.964   2.983 -0.3012  1.8163 -0.3824
  129MOL0     C17726   1.140  10.113   2.946  0.8102 -0.2127 -0.1979
  129MOL0     C17727   1.249  10.154   2.852  1.1874  0.7750  0.2151
  129MOL0     C17728   1.268  10.295   2.840  0.9129  0.0782 -0.2734
  129MOL0     C17729   1.284  10.411   2.812 -0.3400 -0.0730 -0.4059
  129MOL0     C17730   0.761   9.879   2.831 -0.2388  0.3314  0.4715
  129MOL0     C17731   0.633   9.842   2.874 -0.5575 -0.1836 -0.3791
  129MOL0     C17732   0.525   9.876   2.777  0.2634  1.0235 -0.1839
  129MOL0     H17733   0.244   9.494   3.035  1.7481  1.6140 -0.0211
  129MOL0     H17734   0.103   9.398   3.207 -0.3861  2.6504 -2.8494
  129MOL0     H17735   0.204   9.541   3.624 -3.7965  0.8624  1.3588
  129MOL0     H17736   0.262   9.372   3.641 -0.1063  0.5129  0.6695
  129MOL0     H17737  -0.036   9.459   3.662  1.0523  3.3348  1.7202
  129MOL0     H17738   0.052   9.309   3.714  1.5132 -0.2692  1.8074
  129MOL0     H17739   0.174   9.443   3.882 -1.8372 -3.1305  1.1762
  129MOL0     H17740   0.087   9.596   3.817 -3.2334 -0.6219 -2.2839
  129MOL0     H17741  -0.125   9.476   3.882  0.8787 -0.9639 -1.4831
  129MOL0     H17742  -0.026   9.344   3.938 -1.7811 -0.7510 -3.0535
  129MOL0     H17743   0.078   9.505   4.105 -0.5536 -2.6353  0.7044
  129MOL0     H17744  -0.094   9.470   4.134 -1.6229  0.0020 -0.8230
  129MOL0     H17745   0.018   9.729   4.023  1.4916 -0.5487  1.5565
  129MOL0     H17746  -0.159   9.680   4.021  0.0946 -1.3779  0.3942
  129MOL0     H17747  -0.025   9.697   4.291 -0.8840 -0.6302  1.9798
  129MOL0     H17748  -0.183   9.635   4.253 -0.2593  1.3731  2.7989
  129MOL0     H17749  -0.251   9.840   4.165 -0.2218  1.0123  1.2854
  129MOL0     H17750  -0.201   9.863   4.334  3.7143  1.7139  2.1122
  129MOL0     H17751  -0.226  10.088   4.076 -0.3323 -1.3291 -1.7867
  129MOL0     H17752   0.064  10.315   3.993  0.2145 -1.0121  0.0284
  129MOL0     H17753  -0.109  10.296   3.965 -0.6718  0.1307 -1.4956
  129MOL0     H17754  -0.080  10.132   3.801 -0.9618  0.9450  0.2007
  129MOL0     H17755   0.021  10.276   3.758  2.2538 -2.7572 -2.9515
  129MOL0     H17756   0.120  10.011   3.841  0.1341 -0.4385 -1.5466
  129MOL0     H17757   0.144  10.089   3.685 -1.5573  1.5218 -0.3742
  129MOL0     H17758   0.267  10.276   3.810 -0.1029 -0.9504  2.1885
  129MOL0     H17759   0.262  10.170   3.948  3.6829 -2.8385  1.3098
  129MOL0     H17760   0.543   9.973   3.681  3.1770 -1.9543  0.6150
  129MOL0     H17761   0.699   9.663   3.688 -1.9000 -0.5323  2.1695
  129MOL0     H17762   0.663   9.807   3.592  1.7364  1.2417  2.7161
  129MOL0     H17763   0.566   9.668   3.567 -0.1373  1.1302 -0.6658
  129MOL0     H17764   0.260   9.364   4.118  0.9947 -0.5566  2.9139
  129MOL0     H17765   0.246   9.115   4.162  0.0996 -0.5398 -1.1260
  129MOL0     H17766   0.557   8.840   3.975 -0.7450 -0.8385  0.0824
  129MOL0     H17767   0.593   8.864   4.148 -0.5144 -1.9579  1.1343
  129MOL0     H17768   0.409   8.663   4.018  0.8459 -0.1566 -0.0176
  129MOL0     H17769   0.559   8.636   4.109 -1.1007 -0.7066 -1.4614
  129MOL0     H17770   0.289   8.739   4.218  0.4140  1.3780  1.8599
  129MOL0     H17771   0.436   8.741   4.303  0.0735 -0.8775  0.7068
  129MOL0     H17772   0.476   8.492   4.267  0.5248 -1.1985  1.6294
  129MOL0     H17773   0.335   8.481   4.167  0.8076 -1.8038  1.1839
  129MOL0     H17774   0.188   8.540   4.371 -0.3638 -1.6604  1.0620
  129MOL0     H17775   0.281   8.401   4.379 -3.9245  0.5716  2.7428
  129MOL0     H17776   0.392   8.664   4.497  1.2002 -0.5174 -0.3810
  129MOL0     H17777   0.444   8.504   4.530 -0.2009  1.1608  1.1298
  129MOL0     H17778   0.228   8.441   4.631  2.8740 -1.1860 -1.1638
  129MOL0     H17779   0.187   8.612   4.625  1.8490  1.5867  1.9011
  129MOL0     H17780   0.419   8.661   4.744 -2.1667  2.0344  3.6772
  129MOL0     H17781   0.407   8.487   4.780  0.3209 -0.5278 -1.5293
  129MOL0     H17782   0.625   9.080   3.964  0.0601  2.5527 -1.5102
  129MOL0     H17783   0.624   9.317   3.919 -1.6728  1.2575 -1.1289
  129MOL0     H17784   0.333   9.702   4.038 -0.6694  1.4040  1.1550
  129MOL0     H17785   0.272   9.937   4.008  0.3094  1.2573 -0.7087
  129MOL0     H17786   0.399   9.506   3.505 -3.0191 -1.6527  0.5911
  129MOL0     H17787   0.548   9.580   3.308  1.7399 -0.9385 -1.0866
  129MOL0     H17788   0.728   9.632   3.124  0.1190 -0.2064 -0.1724
  129MOL0     H17789   0.960   9.696   3.044  1.2779 -0.1965 -0.6735
  129MOL0     H17790   1.132   9.765   2.914 -0.3114  1.0517  2.5413
  129MOL0     H17791   1.181   9.870   2.782  0.3478 -0.4834  0.2299
  129MOL0     H17792   1.261   9.947   3.023 -0.0435  1.4011 -1.1735
  129MOL0     H17793   1.089   9.949   3.063 -0.3579  1.2973 -0.5288
  129MOL0     H17794   1.038  10.123   2.907 -1.0385 -1.4169  3.8532
  129MOL0     H17795   1.146  10.174   3.037 -0.4385  0.9778 -0.8676
  129MOL0     H17796   1.212  10.114   2.757 -4.1381  2.3825  1.2643
  129MOL0     H17797   1.338  10.107   2.894 -0.7964 -3.6863  0.0158
  129MOL0     H17798   1.274  10.513   2.782  0.3891  0.5553  1.3417
  129MOL0     H17799   0.779   9.930   2.737 -0.5210  0.7443  0.6410
  129MOL0     H17800   0.565   9.830   2.686  1.4470  0.3533  0.6464
  129MOL0     H17801   0.422   9.842   2.790 -0.1994  0.7972 -3.4128
  129MOL0     H17802   0.514   9.982   2.752 -2.5972  0.7013 -0.6176
  130MOL0     O17803   7.519   9.995   8.619  0.5624 -0.3318  0.5933
  130MOL0     C17804   7.439  10.086   8.649 -0.0986 -0.4846  0.5735
  130MOL0     O17805   7.473  10.201   8.707 -0.4824  0.4773 -0.3061
  130MOL0     C17806   7.597  10.235   8.737 -0.5114 -0.6673  0.5331
  130MOL0     C17807   7.626  10.302   8.851 -0.2261 -0.0017 -0.2094
  130MOL0     C17808   7.752  10.357   8.880  0.0948  0.9169  1.1628
  130MOL0     C17809   7.862  10.321   8.793  0.7885 -0.3090 -0.5599
  130MOL0     O17810   7.981  10.379   8.839 -0.2898  0.3056 -0.3351
  130MOL0     C17811   8.106  10.322   8.789  0.0565  0.3912  0.4042
  130MOL0     C17812   8.218  10.409   8.846  0.0334 -0.2039  0.4030
  130MOL0     C17813   8.259  10.341   8.982  0.0458  0.3380  0.2121
  130MOL0     C17814   8.362  10.420   9.065  0.1053  0.2887  0.4735
  130MOL0     C17815   8.398  10.352   9.200 -0.0452  0.0214 -0.2601
  130MOL0     C17816   8.458  10.458   9.306  0.7681  0.0707 -0.9183
  130MOL0     C17817   8.524  10.383   9.414 -0.5805 -0.6531 -0.1363
  130MOL0     C17818   8.560  10.482   9.534  0.0978  0.2572  0.6166
  130MOL0     N17819   8.592  10.402   9.647 -0.0265 -0.2772  0.3739
  130MOL0     C17820   8.508  10.368   9.750  1.0989  0.4871 -0.3995
  130MOL0     C17821   8.581  10.278   9.819 -0.1128 -0.4075 -0.5093
  130MOL0     C17822   8.541  10.209   9.948 -0.6004  0.2117  0.2930
  130MOL0     C17823   8.666  10.208  10.046 -0.5178  0.3745 -0.7633
  130MOL0     C17824   8.619  10.187  10.186  0.1458  0.3815 -0.2153
  130MOL0     C17825   8.740  10.170  10.282  0.4946  0.2593  0.2505
  130MOL0     O17826   8.802  10.287  10.330  0.0271  0.5391  0.2127
  130MOL0     C17827   8.944  10.278  10.333  0.7747 -0.7762  0.0930
  130MOL0     C17828   9.016  10.246  10.446 -0.0953  0.9438 -0.5106
  130MOL0     C17829   9.161  10.231  10.445  0.2154 -1.4116  0.1838
  130MOL0     C17830   9.219  10.185  10.565 -0.0839 -0.4202 -0.6457
  130MOL0     C17831   9.232  10.270  10.329 -0.5046  0.5428  0.1083
  130MOL0     C17832   9.386  10.262  10.304  0.2808 -1.4046  0.5645
  130MOL0     O17833   9.432  10.291  10.180  0.6738  0.2439 -0.0448
  130MOL0     C17834   9.557  10.266  10.149 -0.7905 -0.1631  0.6317
  130MOL0     C17835   9.651  10.366  10.135 -0.5845  0.7543  0.2484
  130MOL0     C17836   9.787  10.334  10.113  0.0906 -0.0760  0.0014
  130MOL0     C17837   9.821  10.207  10.082 -0.0213  0.0598  0.0329
  130MOL0     O17838   9.953  10.192  10.052 -0.1269  0.5398 -0.0958
  130MOL0     C17839  10.003  10.076   9.993 -0.7719 -0.0966  0.1052
  130MOL0     C17840  10.162  10.068   9.995  0.0535 -0.0049 -0.2782
  130MOL0     C17841  10.201  10.026  10.139  0.2509 -0.7464  0.4936
  130MOL0     C17842  10.344   9.976  10.159  0.8457  0.7697 -0.3261
  130MOL0     C17843  10.369   9.950  10.315  0.6100  0.8006 -0.3129
  130MOL0     C17844  10.516   9.944  10.329 -0.7200  0.5192 -0.1310
  130MOL0     C17845  10.542   9.911  10.479 -0.4338 -0.0731 -0.5168
  130MOL0     C17846  10.689   9.883  10.517 -1.1568  0.5459 -0.0447
  130MOL0    Cl17847  10.764   9.739  10.428 -0.1035 -0.2028 -0.0438
  130MOL0     C17848   9.728  10.103  10.099  0.7824 -0.5889  0.6290
  130MOL0     C17849   9.593  10.131  10.135  0.1332  0.4070  0.5044
  130MOL0     O17850   9.458  10.251  10.400  0.1695 -0.6818 -0.4880
  130MOL0     C17851   9.159  10.313  10.223 -0.6877 -0.4665  0.0011
  130MOL0     C17852   9.018  10.305  10.217 -0.2430 -1.0305  0.4692
  130MOL0     N17853   8.701  10.259   9.755 -0.2143 -0.1421  0.0589
  130MOL0     N17854   8.699  10.317   9.649 -0.5809 -0.6862  0.5941
  130MOL0     C17855   7.831  10.264   8.672 -0.5466 -0.0045  0.4509
  130MOL0     C17856   7.698  10.224   8.640  0.1785  0.2114  0.6444
  130MOL0     C17857   7.296  10.079   8.608  0.1136 -0.6820 -0.9721
  130MOL0     C17858   7.253  10.011   8.494  0.5557  0.4196  0.4578
  130MOL0     C17859   7.121   9.994   8.448  0.0508  0.9373  0.2145
  130MOL0     C17860   7.017  10.048   8.523  0.3793 -0.4078  0.6134
  130MOL0     O17861   6.895  10.049   8.467  0.0037  1.4397  0.9025
  130MOL0     C17862   6.823  10.177   8.473 -0.3380  1.0742 -0.3211
  130MOL0     C17863   6.689  10.144   8.531  1.0389 -0.6251 -0.3125
  130MOL0     C17864   6.608  10.033   8.455 -0.6893  0.3127 -0.1350
  130MOL0     C17865   6.462  10.072   8.459  0.4479 -0.7594 -0.5089
  130MOL0     C17866   6.373   9.968   8.407  0.0389 -0.0108 -1.0147
  130MOL0     C17867   6.295   9.881   8.370 -1.4757 -0.6412  0.8803
  130MOL0     C17868   7.051  10.116   8.644 -0.1047 -0.2726  0.1813
  130MOL0     C17869   7.184  10.129   8.682 -0.5616 -0.2274  0.1963
  130MOL0     C17870   7.207  10.191   8.817 -0.2113 -0.8837 -0.7677
  130MOL0     H17871   7.544  10.320   8.920  2.0853 -0.9841  2.9893
  130MOL0     H17872   7.783  10.400   8.974 -0.5255 -0.8268  2.2189
  130MOL0     H17873   8.119  10.332   8.681  2.6624 -0.8023  0.5510
  130MOL0     H17874   8.115  10.215   8.810 -0.0517  0.1070 -0.9177
  130MOL0     H17875   8.298  10.422   8.773 -1.3646  0.2861 -1.0876
  130MOL0     H17876   8.181  10.508   8.872 -1.0400  0.4926 -3.2505
  130MOL0     H17877   8.166  10.327   9.038 -0.2264  0.0097 -0.3207
  130MOL0     H17878   8.304  10.244   8.960 -1.9965 -0.9840  1.5803
  130MOL0     H17879   8.455  10.425   9.008 -0.3937 -4.4077 -1.1606
  130MOL0     H17880   8.321  10.520   9.083 -0.7717 -0.4025  2.7065
  130MOL0     H17881   8.474  10.277   9.175 -0.1795  0.7815 -3.2705
  130MOL0     H17882   8.305  10.305   9.235 -0.0625 -0.0077 -0.3457
  130MOL0     H17883   8.532  10.524   9.262 -0.7889  1.4034 -1.6522
  130MOL0     H17884   8.377  10.522   9.343  1.2965 -0.3071  0.9814
  130MOL0     H17885   8.609  10.334   9.366 -0.2263  1.7824 -2.2104
  130MOL0     H17886   8.461  10.299   9.445 -0.8623  0.0496  1.2398
  130MOL0     H17887   8.636  10.557   9.512  3.6284 -2.7007  1.5747
  130MOL0     H17888   8.469  10.528   9.573  0.6227  0.0719  2.1065
  130MOL0     H17889   8.407  10.404   9.766  0.0453 -1.0465 -2.9220
  130MOL0     H17890   8.502  10.109   9.926 -2.2415  0.9799 -0.4510
  130MOL0     H17891   8.456  10.261   9.992 -1.7769 -0.8108 -0.6975
  130MOL0     H17892   8.728  10.124  10.016  0.7779  1.1074 -0.2340
  130MOL0     H17893   8.720  10.302  10.027 -2.2550  1.2380 -1.6809
  130MOL0     H17894   8.558  10.273  10.216 -0.7983 -0.7932  1.3867
  130MOL0     H17895   8.559  10.095  10.190 -2.5615  1.9883 -1.1292
  130MOL0     H17896   8.704  10.121  10.373 -2.5054  2.7990  0.5915
  130MOL0     H17897   8.805  10.092  10.241 -0.3705 -1.4328  1.9218
  130MOL0     H17898   8.968  10.219  10.539  1.8666 -0.0705  0.2852
  130MOL0     H17899   9.270  10.091  10.543  0.6351 -0.2877  0.3817
  130MOL0     H17900   9.158  10.179  10.655  3.4050  0.7325  2.0374
  130MOL0     H17901   9.300  10.255  10.589 -0.3592 -0.7872  1.5961
  130MOL0     H17902   9.603  10.462  10.120 -2.0652  0.1007  0.5891
  130MOL0     H17903   9.852  10.418  10.093 -0.3260 -0.0891 -1.5198
  130MOL0     H17904   9.969   9.985  10.043  3.1343 -2.3304 -0.8197
  130MOL0     H17905   9.966  10.067   9.890 -2.9508 -0.3463  0.8684
  130MOL0     H17906  10.197   9.990   9.927  2.3422  0.1797  0.6368
  130MOL0     H17907  10.211  10.165   9.980  0.2984  0.1638  1.4365
  130MOL0     H17908  10.134   9.946  10.172 -0.2884  0.2447  1.9030
  130MOL0     H17909  10.187  10.115  10.201  2.7314 -0.8286  1.3040
  130MOL0     H17910  10.415  10.053  10.127  1.6750  0.9601  1.7934
  130MOL0     H17911  10.370   9.886  10.102 -1.3756  0.3666 -0.8176
  130MOL0     H17912  10.325  10.021  10.386  0.2089 -1.9078  2.3507
  130MOL0     H17913  10.332   9.852  10.348 -2.3195  2.0822  0.5280
  130MOL0     H17914  10.556  10.042  10.302  1.9570 -1.2482 -3.2905
  130MOL0     H17915  10.560   9.865  10.268  2.5786  2.0056  0.1433
  130MOL0     H17916  10.492   9.821  10.514  0.8108 -0.1057  1.2863
  130MOL0     H17917  10.508  10.008  10.518 -0.1830  1.1247 -3.0214
  130MOL0     H17918  10.703   9.866  10.624  0.2605 -1.3195 -0.4652
  130MOL0     H17919  10.740   9.978  10.497 -2.5782  1.3343 -0.0557
  130MOL0     H17920   9.747  10.000  10.072 -0.9163 -1.0093  0.8950
  130MOL0     H17921   9.509  10.062  10.137 -3.9652  4.8904  0.6021
  130MOL0     H17922   9.209  10.347  10.133  1.1036 -0.0195  1.1276
  130MOL0     H17923   8.978  10.350  10.126  1.0501 -1.7409 -0.4660
  130MOL0     H17924   7.908  10.247   8.597  1.8589 -0.3051  2.8545
  130MOL0     H17925   7.693  10.173   8.544 -2.4386 -0.4201  1.0534
  130MOL0     H17926   7.331   9.970   8.431  1.0264 -0.5073  1.5947
  130MOL0     H17927   7.100   9.943   8.355  0.1035  2.3347 -0.6003
  130MOL0     H17928   6.874  10.252   8.534  2.4985 -2.7903  2.5383
  130MOL0     H17929   6.806  10.228   8.378 -1.4178 -0.2985 -0.9052
  130MOL0     H17930   6.626  10.233   8.539 -0.2653 -1.6768  1.7759
  130MOL0     H17931   6.705  10.098   8.629 -0.7659 -2.6028 -0.8853
  130MOL0     H17932   6.634  10.039   8.349 -2.8347 -2.3508 -0.9253
  130MOL0     H17933   6.622   9.936   8.503  0.7775 -0.2237 -1.5522
  130MOL0     H17934   6.441  10.162   8.400  2.3772  0.2208  0.2070
  130MOL0     H17935   6.422  10.090   8.559 -1.1006 -0.6349 -1.1270
  130MOL0     H17936   6.229   9.805   8.331 -3.3405  1.3805 -0.1098
  130MOL0     H17937   6.982  10.167   8.710  0.1169  0.2418  0.0262
  130MOL0     H17938   7.269  10.121   8.873  0.3295 -2.8097 -3.5637
  130MOL0     H17939   7.251  10.291   8.817 -2.5850  0.2609  1.1326
  130MOL0     H17940   7.113  10.205   8.872  0.8652 -0.5775  1.0957
  131MOL0     O17941  10.479   8.188  10.066 -0.1328 -0.2104  0.3398
  131MOL0     C17942  10.435   8.078  10.086 -0.6619 -0.4807  0.2750
  131MOL0     O17943  10.513   7.964  10.106  0.4282 -0.3890  0.7589
  131MOL0     C17944  10.646   7.977  10.095 -0.1391  0.5447  0.7422
  131MOL0     C17945  10.737   8.021  10.189 -0.4986 -0.3999 -0.8940
  131MOL0     C17946  10.879   8.030  10.160  0.9592  0.0098 -0.2156
  131MOL0     C17947  10.929   7.977  10.037 -1.0146 -0.5967  0.3446
  131MOL0     O17948  11.064   7.968  10.011 -0.5165  0.3406  0.2203
  131MOL0     C17949  11.165   8.019  10.100  0.4717 -0.0013  0.4716
  131MOL0     C17950  11.304   8.008  10.038 -0.8581 -0.9301 -0.5134
  131MOL0     C17951  11.344   7.862  10.023  0.5438 -0.4642  0.5187
  131MOL0     C17952  11.493   7.871   9.983 -0.4629 -0.2729  0.6367
  131MOL0     C17953  11.550   7.748   9.907 -0.2001 -0.1758 -0.6254
  131MOL0     C17954  11.559   7.625   9.997 -0.0132  0.4275  0.4508
  131MOL0     C17955  11.690   7.617  10.058  0.3304  0.4432 -1.0905
  131MOL0     C17956  11.684   7.517  10.178 -0.2377  0.2646 -0.7281
  131MOL0     N17957  11.808   7.495  10.253 -0.2806  0.1171  0.1848
  131MOL0     C17958  11.904   7.583  10.295  0.2581  1.4844 -0.2166
  131MOL0     C17959  11.997   7.497  10.347  0.2670  0.2498  0.8520
  131MOL0     C17960  12.132   7.544  10.388 -1.3159  0.2018  0.2014
  131MOL0     C17961  12.223   7.549  10.264 -0.6887  0.3465  0.2225
  131MOL0     C17962  12.368   7.496  10.307  0.1218 -0.1810  0.0708
  131MOL0     C17963  12.474   7.488  10.204  1.1980 -0.1517 -0.5954
  131MOL0     O17964  12.590   7.447  10.277  0.1432  0.2004  0.4153
  131MOL0     C17965  12.660   7.333  10.239 -0.8468 -0.4647  0.3357
  131MOL0     C17966  12.647   7.283  10.111 -1.0714  0.9354  0.2462
  131MOL0     C17967  12.729   7.159  10.074 -0.2044 -0.7363 -0.7464
  131MOL0     C17968  12.718   7.087   9.940  0.2028  0.0842 -0.0302
  131MOL0     C17969  12.832   7.113  10.172 -0.8243  0.6515 -0.2730
  131MOL0     C17970  12.922   6.995  10.156 -0.0575  0.7204 -0.4860
  131MOL0     O17971  12.989   6.957  10.273  0.0335 -0.7798  0.4124
  131MOL0     C17972  13.094   6.867  10.254 -0.2760 -0.4287  0.3313
  131MOL0     C17973  13.213   6.915  10.198 -0.1869 -0.3219 -0.6096
  131MOL0     C17974  13.327   6.829  10.174  0.5457 -0.6110  0.1678
  131MOL0     C17975  13.317   6.693  10.208 -0.4852  0.9194 -0.0303
  131MOL0     O17976  13.413   6.593  10.192 -0.5042 -0.4090 -1.2096
  131MOL0     C17977  13.540   6.625  10.253  0.2180 -0.2968 -0.3615
  131MOL0     C17978  13.654   6.553  10.185  0.3844 -0.2371 -0.3192
  131MOL0     C17979  13.635   6.418  10.164 -0.3226  0.3557  0.0167
  131MOL0     C17980  13.724   6.337  10.253  0.2621  0.6089  0.4540
  131MOL0     C17981  13.745   6.196  10.190  0.8495 -0.3507 -0.7472
  131MOL0     C17982  13.822   6.108  10.299  0.4696  0.2636 -0.2710
  131MOL0     C17983  13.850   5.968  10.253  0.3604  0.0075  0.7728
  131MOL0     C17984  13.891   5.887  10.364 -0.2247 -1.3908 -0.2281
  131MOL0    Cl17985  14.051   5.926  10.429  0.4314 -0.4510 -0.0812
  131MOL0     C17986  13.201   6.643  10.259  0.4446  0.4794 -1.3808
  131MOL0     C17987  13.093   6.729  10.283  0.0505 -0.8294 -0.6742
  131MOL0     O17988  12.947   6.948  10.044 -0.2393 -0.6197 -0.0540
  131MOL0     C17989  12.835   7.177  10.294 -0.5312  0.5188 -0.4122
  131MOL0     C17990  12.759   7.283  10.328 -0.0977 -0.6051 -1.0313
  131MOL0     N17991  11.965   7.363  10.339 -0.7143 -0.0144  0.1979
  131MOL0     N17992  11.843   7.373  10.296  0.4818  0.5895  0.1262
  131MOL0     C17993  10.835   7.925   9.944 -0.1175  0.3914 -0.9801
  131MOL0     C17994  10.701   7.929   9.973  0.9707 -0.8111  0.1858
  131MOL0     C17995  10.287   8.055  10.104 -0.6838 -0.2106 -0.1647
  131MOL0     C17996  10.248   7.929  10.157  0.0386  0.7422  0.0202
  131MOL0     C17997  10.115   7.894  10.185  0.5922 -0.2218  0.7515
  131MOL0     C17998  10.011   7.983  10.154  0.3508 -0.5994  0.5761
  131MOL0     O17999   9.893   7.932  10.194 -0.4691 -0.1898 -0.0066
  131MOL0     C18000   9.808   7.922  10.086  0.3396 -0.3434  0.8937
  131MOL0     C18001   9.681   7.847  10.139 -0.0230 -0.2443  0.3672
  131MOL0     C18002   9.710   7.697  10.158  0.4497 -0.5242 -0.1714
  131MOL0     C18003   9.684   7.615  10.031 -0.3832  0.4720 -0.1853
  131MOL0     C18004   9.544   7.609   9.991  0.3676 -0.0436  0.3520
  131MOL0     C18005   9.426   7.596   9.969  0.7917 -0.6343  0.3543
  131MOL0     C18006  10.037   8.101  10.090 -0.3030 -0.0595  0.1681
  131MOL0     C18007  10.175   8.140  10.065  0.2452  0.5607 -0.0849
  131MOL0     C18008  10.201   8.263   9.989  0.7669 -0.4020 -0.0449
  131MOL0     H18009  10.706   8.040  10.291  1.4339  0.0154 -0.3338
  131MOL0     H18010  10.947   8.080  10.230 -1.0214  0.8851  1.1796
  131MOL0     H18011  11.159   7.967  10.196 -0.7550  2.1221  1.6280
  131MOL0     H18012  11.142   8.123  10.126 -0.8029 -0.0653 -0.2874
  131MOL0     H18013  11.299   8.067   9.946  0.2620  1.0001  0.5790
  131MOL0     H18014  11.377   8.052  10.107  0.1593 -1.2855 -1.3414
  131MOL0     H18015  11.336   7.796  10.110  3.1030 -0.8664  0.5137
  131MOL0     H18016  11.284   7.824   9.939  1.3480 -2.1208  0.6487
  131MOL0     H18017  11.509   7.961   9.924 -3.2694 -0.0812  0.0338
  131MOL0     H18018  11.554   7.882  10.074 -3.1231 -1.9512  2.7907
  131MOL0     H18019  11.649   7.771   9.866  0.3934 -3.8892 -1.6137
  131MOL0     H18020  11.487   7.713   9.824  1.4375 -1.9172 -1.1832
  131MOL0     H18021  11.477   7.621  10.070 -0.3546 -0.8464  0.0077
  131MOL0     H18022  11.536   7.536   9.938 -0.7272  0.9455 -0.0645
  131MOL0     H18023  11.699   7.718  10.101 -1.1782  0.2416 -0.2169
  131MOL0     H18024  11.775   7.603   9.992  2.3471  2.1624  0.9578
  131MOL0     H18025  11.615   7.537  10.260  1.4943 -0.1593  0.8992
  131MOL0     H18026  11.653   7.419  10.140  0.3801 -0.1841 -0.1058
  131MOL0     H18027  11.915   7.691  10.285 -1.0624  1.6324 -0.2297
  131MOL0     H18028  12.170   7.474  10.463 -0.5185  0.3521 -0.0542
  131MOL0     H18029  12.120   7.643  10.432  0.5647  0.4975  0.1326
  131MOL0     H18030  12.175   7.501  10.178 -0.1132 -0.5799  0.4025
  131MOL0     H18031  12.236   7.655  10.239 -3.2894  0.8469  0.6387
  131MOL0     H18032  12.408   7.567  10.380  0.0819  0.7616 -0.8150
  131MOL0     H18033  12.349   7.392  10.333  1.2697 -0.7102 -1.1087
  131MOL0     H18034  12.437   7.412  10.136 -1.6293 -0.3040  0.9362
  131MOL0     H18035  12.479   7.580  10.145 -0.7486  0.9249  0.7997
  131MOL0     H18036  12.580   7.324  10.036  1.2270  2.0633 -1.3487
  131MOL0     H18037  12.643   7.141   9.882 -2.2248 -1.7886  1.2203
  131MOL0     H18038  12.682   6.984   9.937 -1.7382  0.7360 -1.3695
  131MOL0     H18039  12.806   7.093   9.874 -1.7357 -1.9986 -3.1271
  131MOL0     H18040  13.219   7.017  10.161  1.8123 -0.5112 -0.9415
  131MOL0     H18041  13.408   6.876  10.119 -0.8747 -1.0614 -2.4698
  131MOL0     H18042  13.557   6.733  10.252  0.6774 -0.2935 -3.7333
  131MOL0     H18043  13.549   6.580  10.353  3.6664  0.3421 -0.2749
  131MOL0     H18044  13.677   6.606  10.092 -4.1707 -0.3860 -1.7438
  131MOL0     H18045  13.739   6.569  10.253  2.1958 -0.8396 -2.3233
  131MOL0     H18046  13.658   6.397  10.059 -1.1863  0.9587 -0.3064
  131MOL0     H18047  13.535   6.374  10.164  0.1684 -0.9243 -2.5148
  131MOL0     H18048  13.668   6.342  10.347 -3.9449  1.7227 -1.8711
  131MOL0     H18049  13.826   6.377  10.255  0.4540  0.1235  1.3370
  131MOL0     H18050  13.648   6.153  10.163  0.3901  1.0057 -1.3728
  131MOL0     H18051  13.810   6.217  10.104  2.4877 -0.6281  0.3734
  131MOL0     H18052  13.752   6.095  10.383  0.3134  2.1807 -0.0715
  131MOL0     H18053  13.918   6.153  10.324  0.9796  0.8197 -2.9089
  131MOL0     H18054  13.919   5.963  10.168 -0.2801 -1.0117  0.2930
  131MOL0     H18055  13.752   5.933  10.220 -0.7662  1.4139  2.4425
  131MOL0     H18056  13.891   5.778  10.358 -5.0916 -1.7518  1.9831
  131MOL0     H18057  13.816   5.901  10.443  1.2173 -2.5114  1.4215
  131MOL0     H18058  13.199   6.536  10.274  0.4903  0.8085  1.5959
  131MOL0     H18059  12.999   6.680  10.305 -0.6235  0.4181 -0.6985
  131MOL0     H18060  12.914   7.151  10.363 -0.7643 -0.5925 -0.5575
  131MOL0     H18061  12.766   7.326  10.428 -1.5172  0.2321 -1.2697
  131MOL0     H18062  10.858   7.890   9.843 -1.9067 -0.8231 -1.0093
  131MOL0     H18063  10.618   7.906   9.907  0.3657 -1.5875  1.2017
  131MOL0     H18064  10.326   7.861  10.191 -0.3788  0.8491  1.2370
  131MOL0     H18065  10.096   7.794  10.223  0.0504 -1.4328 -2.4158
  131MOL0     H18066   9.773   8.022  10.060 -0.0238  0.0729  2.8508
  131MOL0     H18067   9.835   7.868   9.995 -3.9284  0.3580 -1.0451
  131MOL0     H18068   9.605   7.865  10.062  1.8037  2.5920 -0.9262
  131MOL0     H18069   9.643   7.902  10.226 -0.9352  1.2505 -0.9315
  131MOL0     H18070   9.814   7.693  10.190 -0.4589 -0.9503  3.1003
  131MOL0     H18071   9.651   7.657  10.241 -2.5041  2.9870 -0.3037
  131MOL0     H18072   9.697   7.507  10.046 -2.2390  0.3862  1.2198
  131MOL0     H18073   9.755   7.648   9.955 -2.1118  0.1311 -2.0319
  131MOL0     H18074   9.321   7.593   9.946  0.7666  2.1888 -0.1872
  131MOL0     H18075   9.959   8.172  10.062 -0.9752 -0.4609  0.9773
  131MOL0     H18076  10.263   8.327  10.052  0.5033 -0.0146 -0.1761
  131MOL0     H18077  10.238   8.246   9.887  0.1946  0.3852 -0.4074
  131MOL0     H18078  10.106   8.318   9.979  2.7959  3.3412 -0.7128
  132MOL0     O18079   1.298   2.178   1.858 -0.1252 -0.3297 -0.2988
  132MOL0     C18080   1.198   2.240   1.886  0.0222  0.5103 -0.7229
  132MOL0     O18081   1.069   2.200   1.843 -0.1395  0.1449  0.4715
  132MOL0     C18082   1.061   2.072   1.796  0.6654  0.1493  0.3798
  132MOL0     C18083   1.045   1.974   1.887  0.4678  0.6058  0.3078
  132MOL0     C18084   1.050   1.837   1.848  0.0452  0.4974 -0.2406
  132MOL0     C18085   1.041   1.806   1.711  0.1713 -0.4962  0.2887
  132MOL0     O18086   1.040   1.676   1.676  0.3135  0.2885  0.4279
  132MOL0     C18087   0.997   1.623   1.546 -0.1109  0.8148  1.0689
  132MOL0     C18088   0.845   1.593   1.557  0.6659 -0.0925 -0.4691
  132MOL0     C18089   0.817   1.516   1.686  0.0382  0.7047  0.1551
  132MOL0     C18090   0.899   1.395   1.728 -0.4159 -0.4059 -0.0668
  132MOL0     C18091   0.913   1.286   1.627 -0.6059 -1.0091  0.2885
  132MOL0     C18092   0.788   1.205   1.576 -0.2339 -0.6276 -0.6640
  132MOL0     C18093   0.702   1.136   1.681 -0.2086  0.5475 -0.1712
  132MOL0     C18094   0.773   1.034   1.775 -0.0824 -0.5588 -0.3129
  132MOL0     N18095   0.853   0.923   1.715  0.0882  0.3414 -0.2878
  132MOL0     C18096   0.977   0.922   1.659  0.1832 -0.7411  0.5610
  132MOL0     C18097   0.990   0.807   1.584  0.1885 -0.7800 -0.4188
  132MOL0     C18098   1.112   0.772   1.511 -0.3066 -0.3800  0.7532
  132MOL0     C18099   1.103   0.738   1.361  0.4278  0.1789  0.2838
  132MOL0     C18100   1.239   0.699   1.294  0.0051 -0.0868  0.0472
  132MOL0     C18101   1.324   0.831   1.267  0.1597 -0.0574 -0.4849
  132MOL0     O18102   1.299   0.880   1.132  0.0757  0.8138  0.2893
  132MOL0     C18103   1.377   0.984   1.085  0.2356  1.0254  0.3053
  132MOL0     C18104   1.447   1.065   1.174 -0.5169 -0.4752  0.6199
  132MOL0     C18105   1.500   1.186   1.140 -0.5720  0.1326  0.2223
  132MOL0     C18106   1.580   1.266   1.246  0.5833  0.1412 -0.1702
  132MOL0     C18107   1.492   1.229   1.003 -0.1878 -0.7376  1.0649
  132MOL0     C18108   1.551   1.353   0.939 -0.1886  0.3403 -0.5735
  132MOL0     O18109   1.494   1.399   0.830 -0.6652 -0.1056 -0.4938
  132MOL0     C18110   1.565   1.479   0.749  0.1344 -1.0620  0.7207
  132MOL0     C18111   1.513   1.609   0.719  0.3034  0.1741  0.4732
  132MOL0     C18112   1.588   1.691   0.636  0.3548 -0.5717  0.3227
  132MOL0     C18113   1.701   1.646   0.568  1.0339  0.4877  0.7892
  132MOL0     O18114   1.752   1.741   0.478 -0.1404  0.6588  0.7412
  132MOL0     C18115   1.823   1.691   0.367  0.3064  0.4717 -0.0308
  132MOL0     C18116   1.828   1.785   0.237  0.3220  0.6461 -0.8365
  132MOL0     C18117   1.871   1.927   0.258  0.0991 -0.4392  0.6657
  132MOL0     C18118   2.024   1.946   0.247 -0.0040  0.5307  0.1173
  132MOL0     C18119   2.057   2.082   0.206 -0.3184  0.5903  0.6760
  132MOL0     C18120   2.210   2.096   0.224 -0.9343 -0.0774  0.0627
  132MOL0     C18121   2.270   2.235   0.213 -0.0574 -0.3622 -0.4729
  132MOL0     C18122   2.185   2.336   0.288  0.5968  0.2445 -0.2748
  132MOL0    Cl18123   2.293   2.476   0.327  0.0192  0.5679  0.1865
  132MOL0     C18124   1.755   1.523   0.604 -0.5969  0.3470 -0.7743
  132MOL0     C18125   1.694   1.436   0.695 -0.7675 -0.1073  0.9819
  132MOL0     O18126   1.656   1.402   0.989 -0.2277 -0.4377  0.0699
  132MOL0     C18127   1.429   1.147   0.911  0.4530 -0.3730 -0.1101
  132MOL0     C18128   1.370   1.027   0.952 -0.4005  0.3539 -0.3177
  132MOL0     N18129   0.872   0.730   1.609  0.2160  0.0644  0.0204
  132MOL0     N18130   0.793   0.807   1.679 -0.9820 -0.3277  0.8000
  132MOL0     C18131   1.045   1.907   1.619  0.0724 -0.9490  0.0528
  132MOL0     C18132   1.066   2.036   1.660  0.6234 -0.5615 -0.1692
  132MOL0     C18133   1.210   2.369   1.956  0.3391 -0.6168  1.0217
  132MOL0     C18134   1.108   2.467   1.940  1.1008 -0.0097  0.7191
  132MOL0     C18135   1.104   2.591   2.001  0.6603  1.0052 -0.4062
  132MOL0     C18136   1.210   2.633   2.081  0.8557 -0.8163 -0.3367
  132MOL0     O18137   1.209   2.754   2.144 -0.3764  0.3890  0.1907
  132MOL0     C18138   1.272   2.868   2.087  0.0615  0.2201  0.4351
  132MOL0     C18139   1.163   2.972   2.072 -0.2672  0.6042  0.2173
  132MOL0     C18140   1.202   3.084   1.979  0.4269  0.6455 -0.2359
  132MOL0     C18141   1.215   3.044   1.830  0.2801 -0.5666 -0.2288
  132MOL0     C18142   1.242   3.166   1.750 -0.6172  0.2272 -0.1822
  132MOL0     C18143   1.254   3.270   1.696 -0.2812  0.0129  1.0771
  132MOL0     C18144   1.317   2.538   2.086  0.2775 -0.7943  0.0017
  132MOL0     C18145   1.324   2.414   2.029 -0.1896 -0.5048  0.1027
  132MOL0     C18146   1.441   2.323   2.040  0.2289  0.1690  0.0784
  132MOL0     H18147   1.046   2.002   1.992 -0.4880  1.1347  0.1905
  132MOL0     H18148   1.053   1.763   1.927 -1.5737  1.7766  1.1046
  132MOL0     H18149   1.057   1.534   1.522 -1.7896  0.5009 -2.4565
  132MOL0     H18150   1.023   1.698   1.472 -1.0321 -0.9261 -1.1189
  132MOL0     H18151   0.788   1.686   1.569 -2.7432 -2.3720  4.8167
  132MOL0     H18152   0.804   1.539   1.471  0.6133  0.1011 -0.5670
  132MOL0     H18153   0.821   1.584   1.772  0.7492 -1.1629  1.6671
  132MOL0     H18154   0.713   1.484   1.679 -0.7582  2.6473  1.8899
  132MOL0     H18155   1.002   1.428   1.745 -1.2291  0.7388  3.5950
  132MOL0     H18156   0.863   1.349   1.820  0.3113  1.0100  0.9742
  132MOL0     H18157   0.977   1.213   1.676  2.0583 -1.1418 -3.0228
  132MOL0     H18158   0.968   1.319   1.538  1.1352 -4.1402  0.0759
  132MOL0     H18159   0.723   1.275   1.523 -2.0781  0.2110  2.4154
  132MOL0     H18160   0.816   1.124   1.509 -3.1822 -1.2164 -1.3206
  132MOL0     H18161   0.624   1.085   1.624 -0.5109  1.9436 -1.0584
  132MOL0     H18162   0.651   1.210   1.742 -1.4688 -0.3402 -0.1174
  132MOL0     H18163   0.841   1.080   1.847  0.2757 -1.2877 -0.1773
  132MOL0     H18164   0.698   0.981   1.836  2.8119 -2.5589  1.7672
  132MOL0     H18165   1.049   1.003   1.662 -0.8976  0.4104 -1.6130
  132MOL0     H18166   1.140   0.682   1.565 -0.8159 -0.0772  1.5477
  132MOL0     H18167   1.194   0.842   1.530  0.3312 -0.7422 -0.5976
  132MOL0     H18168   1.039   0.650   1.352  1.3449 -0.5246  0.4695
  132MOL0     H18169   1.063   0.821   1.301  1.7656 -0.9691 -2.3601
  132MOL0     H18170   1.295   0.624   1.352  1.7833  1.0392 -0.1229
  132MOL0     H18171   1.227   0.650   1.197 -2.2132  2.2266 -0.9408
  132MOL0     H18172   1.306   0.908   1.343  2.2284  0.4931 -0.4719
  132MOL0     H18173   1.430   0.802   1.275  0.5563  1.0529 -1.4646
  132MOL0     H18174   1.480   1.030   1.271 -1.8812  0.4002  1.4468
  132MOL0     H18175   1.521   1.356   1.267 -0.7452 -0.8628  0.5477
  132MOL0     H18176   1.679   1.297   1.213  1.0740  0.1938  1.2975
  132MOL0     H18177   1.597   1.211   1.339  1.0664  2.6128  1.2992
  132MOL0     H18178   1.425   1.652   0.765 -1.4668 -2.7689  0.0914
  132MOL0     H18179   1.550   1.793   0.633 -1.3748 -0.9622  3.5430
  132MOL0     H18180   1.923   1.659   0.401 -0.8034 -1.7740  1.3567
  132MOL0     H18181   1.761   1.607   0.335  1.5250  0.9476 -4.2817
  132MOL0     H18182   1.879   1.737   0.153  1.1730  1.4852 -0.8207
  132MOL0     H18183   1.724   1.805   0.212 -0.0948  1.7256  1.4858
  132MOL0     H18184   1.827   1.969   0.348 -0.6977  1.3545 -0.5112
  132MOL0     H18185   1.833   1.978   0.169 -1.3385 -0.5034  1.2142
  132MOL0     H18186   2.058   1.881   0.166 -0.9932 -1.4312  1.2091
  132MOL0     H18187   2.066   1.924   0.345 -1.3181  1.5232  0.9437
  132MOL0     H18188   2.017   2.094   0.106  1.4528 -0.0665 -0.1606
  132MOL0     H18189   2.006   2.152   0.274 -0.6481  2.1004 -1.0451
  132MOL0     H18190   2.261   2.036   0.148  0.5288  1.0020  0.1575
  132MOL0     H18191   2.234   2.057   0.324  0.3246  1.0283  0.2170
  132MOL0     H18192   2.281   2.261   0.107  0.9471 -1.2336 -0.5934
  132MOL0     H18193   2.365   2.221   0.265 -0.8448  0.1066  1.1758
  132MOL0     H18194   2.149   2.307   0.387 -1.2814  1.0859 -0.6594
  132MOL0     H18195   2.099   2.369   0.228  0.9242  1.1708 -0.2463
  132MOL0     H18196   1.854   1.504   0.565  0.2975 -1.9500  2.2123
  132MOL0     H18197   1.733   1.335   0.708  0.8189  0.2707 -0.5247
  132MOL0     H18198   1.398   1.184   0.814  0.8820 -1.3052 -0.6165
  132MOL0     H18199   1.309   0.966   0.886  1.5121 -1.5047 -0.4815
  132MOL0     H18200   1.043   1.894   1.511 -1.4469  0.6040 -0.1484
  132MOL0     H18201   1.071   2.125   1.597  0.5585  0.5731  1.3654
  132MOL0     H18202   1.025   2.454   1.871  1.9318  2.4628 -0.8665
  132MOL0     H18203   1.027   2.663   1.975  1.2322  2.1381  0.9262
  132MOL0     H18204   1.340   2.907   2.163  0.3132 -0.4410  0.5486
  132MOL0     H18205   1.321   2.847   1.992  1.1814 -2.3368  1.4925
  132MOL0     H18206   1.141   3.012   2.172 -3.2202  1.0411 -0.5005
  132MOL0     H18207   1.081   2.913   2.030  0.8206 -1.1501  0.4457
  132MOL0     H18208   1.114   3.148   1.986  0.3715  0.4799  0.6109
  132MOL0     H18209   1.292   3.131   2.021  0.8346 -1.6191  1.5530
  132MOL0     H18210   1.130   2.985   1.795  1.0870 -1.7509 -0.2434
  132MOL0     H18211   1.306   2.984   1.833  0.4433 -0.5125  4.7075
  132MOL0     H18212   1.273   3.355   1.633 -0.0191 -0.6320  0.2763
  132MOL0     H18213   1.409   2.555   2.141 -0.6754  1.0456  1.1215
  132MOL0     H18214   1.514   2.370   2.106 -1.0560  1.6860  0.4612
  132MOL0     H18215   1.416   2.227   2.087  0.7284 -0.2264 -0.4486
  132MOL0     H18216   1.486   2.305   1.942  1.9034 -2.9482  1.2820
  133MOL0     O18217   6.637   7.798   8.658 -0.2302 -0.0261 -0.5806
  133MOL0     C18218   6.590   7.703   8.596 -0.8851 -0.1400 -0.8095
  133MOL0     O18219   6.664   7.606   8.544  0.4097 -0.6421  0.0245
  133MOL0     C18220   6.794   7.639   8.521 -0.5915 -0.5238  0.1268
  133MOL0     C18221   6.900   7.573   8.585 -0.2017 -0.0030 -0.0754
  133MOL0     C18222   7.030   7.610   8.567 -0.1084 -0.6413  0.4164
  133MOL0     C18223   7.058   7.720   8.481  0.0193 -0.0416 -0.0262
  133MOL0     O18224   7.196   7.755   8.466  0.3532 -0.1695  0.1171
  133MOL0     C18225   7.251   7.755   8.334 -0.1957 -0.1491 -0.0247
  133MOL0     C18226   7.405   7.748   8.342  0.0143  0.1947  0.6675
  133MOL0     C18227   7.465   7.858   8.426  0.3969  0.5129 -0.6244
  133MOL0     C18228   7.620   7.842   8.434 -0.3835  0.1355 -0.1522
  133MOL0     C18229   7.710   7.960   8.479  0.9484 -0.6572  0.2709
  133MOL0     C18230   7.847   7.925   8.530 -0.1895  0.6481  0.3224
  133MOL0     C18231   7.931   8.042   8.565 -0.6982  0.0418 -0.7455
  133MOL0     C18232   8.086   8.007   8.564  0.5612  1.0337  0.3221
  133MOL0     N18233   8.155   8.113   8.627 -0.2832  0.4359  0.2520
  133MOL0     C18234   8.211   8.099   8.754 -0.1618 -0.4215  0.5123
  133MOL0     C18235   8.291   8.207   8.770  0.4523  1.0751  0.2389
  133MOL0     C18236   8.377   8.232   8.889 -0.7435 -0.7952 -0.3755
  133MOL0     C18237   8.374   8.386   8.929 -0.7431 -0.0887  0.1345
  133MOL0     C18238   8.447   8.416   9.062  0.3053  0.1110  0.4362
  133MOL0     C18239   8.496   8.561   9.079 -0.2009 -0.3671 -0.1921
  133MOL0     O18240   8.567   8.572   9.207  0.3342 -0.2209  0.6853
  133MOL0     C18241   8.539   8.679   9.284  1.4273 -0.5998 -0.1045
  133MOL0     C18242   8.552   8.814   9.234 -0.9380  0.3062  0.0373
  133MOL0     C18243   8.516   8.935   9.298  0.5820 -0.6895 -0.2593
  133MOL0     C18244   8.526   9.055   9.217 -0.2820 -0.0182  0.6351
  133MOL0     C18245   8.466   8.925   9.433 -0.0810  1.1165 -0.2883
  133MOL0     C18246   8.442   9.036   9.516  0.5282 -0.3335  0.6178
  133MOL0     O18247   8.347   9.011   9.614  0.2710  0.2009 -0.6134
  133MOL0     C18248   8.282   9.120   9.659 -0.1186  0.7883  0.3145
  133MOL0     C18249   8.286   9.145   9.799  0.2944 -0.0966 -0.3150
  133MOL0     C18250   8.213   9.258   9.838  0.2470  0.7910  0.1576
  133MOL0     C18251   8.142   9.331   9.748  0.3234  0.4841 -0.1228
  133MOL0     O18252   8.059   9.433   9.786  0.5766  0.1403  0.1123
  133MOL0     C18253   8.107   9.523   9.891 -0.3605 -0.6080 -0.2036
  133MOL0     C18254   8.015   9.640   9.907 -0.3423 -0.3424  0.5168
  133MOL0     C18255   8.087   9.749   9.993 -0.1762 -1.4709  0.3457
  133MOL0     C18256   8.030   9.885   9.945  0.5983  0.8521  0.4799
  133MOL0     C18257   8.083  10.007  10.012  0.4014  0.1790 -0.1745
  133MOL0     C18258   8.095   9.992  10.163 -0.7243  0.4760 -0.3668
  133MOL0     C18259   8.241   9.986  10.216 -0.7871 -0.0932 -0.1211
  133MOL0     C18260   8.241   9.983  10.367  0.2087 -0.0564  0.0287
  133MOL0    Cl18261   8.398   9.969  10.432  0.2278 -0.1957  0.0426
  133MOL0     C18262   8.129   9.294   9.619  0.3199 -0.0936  0.1490
  133MOL0     C18263   8.198   9.179   9.569 -0.6662 -0.0263 -0.3196
  133MOL0     O18264   8.497   9.143   9.501 -0.3376  1.1157 -0.1205
  133MOL0     C18265   8.441   8.789   9.480 -0.6615 -0.8534  0.3549
  133MOL0     C18266   8.487   8.672   9.413 -0.7992 -0.4822 -0.1451
  133MOL0     N18267   8.287   8.288   8.659  0.3298  0.1510  0.1833
  133MOL0     N18268   8.212   8.223   8.573 -0.4587  0.4576  0.0839
  133MOL0     C18269   6.956   7.776   8.399 -0.2512 -0.0157 -0.0549
  133MOL0     C18270   6.826   7.739   8.426  0.2709 -0.6970  0.0300
  133MOL0     C18271   6.441   7.679   8.586  0.3265 -0.5207  0.3106
  133MOL0     C18272   6.396   7.554   8.535  0.0616  0.2073  0.5635
  133MOL0     C18273   6.263   7.526   8.514 -0.5626 -0.4332 -0.5337
  133MOL0     C18274   6.165   7.615   8.545 -0.3316  0.0608 -0.2269
  133MOL0     O18275   6.032   7.575   8.553 -0.6198  0.6329  0.0248
  133MOL0     C18276   5.937   7.657   8.623  0.1409  0.7234  0.3749
  133MOL0     C18277   5.806   7.581   8.636  0.5353  0.0054 -0.5493
  133MOL0     C18278   5.738   7.556   8.497  0.1812 -1.5099 -0.1559
  133MOL0     C18279   5.606   7.486   8.508  0.2711 -0.6520  0.6146
  133MOL0     C18280   5.571   7.432   8.372 -0.4149 -0.1143  0.4390
  133MOL0     C18281   5.553   7.378   8.266 -0.5756  0.0972  0.5542
  133MOL0     C18282   6.207   7.740   8.592 -0.0122  0.4386  0.7356
  133MOL0     C18283   6.339   7.772   8.617  0.2682 -0.0668  0.1161
  133MOL0     C18284   6.362   7.909   8.675 -1.0130  0.6592 -1.2276
  133MOL0     H18285   6.869   7.491   8.649 -1.1744 -0.9374 -1.6476
  133MOL0     H18286   7.116   7.565   8.616  0.5912 -0.1918 -0.3763
  133MOL0     H18287   7.229   7.843   8.272  2.0835  1.5004  1.3326
  133MOL0     H18288   7.208   7.680   8.268 -0.4195 -0.7239  0.7676
  133MOL0     H18289   7.425   7.652   8.392 -0.6260  0.1948  0.9461
  133MOL0     H18290   7.454   7.731   8.246 -0.0690  2.4606  0.1688
  133MOL0     H18291   7.432   7.954   8.385 -0.8230  0.6427  0.6178
  133MOL0     H18292   7.426   7.847   8.527 -2.7690  3.2993 -1.3322
  133MOL0     H18293   7.634   7.767   8.513  2.4359 -0.3220 -0.9603
  133MOL0     H18294   7.643   7.798   8.336 -2.9995  1.7448 -1.5981
  133MOL0     H18295   7.650   8.010   8.556 -1.8716 -1.7298 -1.0885
  133MOL0     H18296   7.711   8.025   8.392 -1.1724  0.8899  1.3163
  133MOL0     H18297   7.835   7.860   8.617 -0.7781  1.5287  0.9144
  133MOL0     H18298   7.903   7.867   8.456 -1.0856 -2.6024  1.9999
  133MOL0     H18299   7.905   8.073   8.667 -0.4139  1.5862 -1.1192
  133MOL0     H18300   7.897   8.122   8.498 -1.8418 -0.6440 -1.0198
  133MOL0     H18301   8.108   7.912   8.613 -0.8675  0.0517 -0.8219
  133MOL0     H18302   8.114   7.998   8.458  1.3011  3.8485  0.1819
  133MOL0     H18303   8.196   8.020   8.827  1.9807  0.4595  2.0241
  133MOL0     H18304   8.476   8.194   8.860 -0.1033  2.1636 -2.4875
  133MOL0     H18305   8.337   8.181   8.977 -1.7256 -0.4290 -0.5955
  133MOL0     H18306   8.420   8.447   8.851 -2.3494  0.7834 -0.1698
  133MOL0     H18307   8.268   8.412   8.932 -0.4945  0.9404  0.4332
  133MOL0     H18308   8.382   8.379   9.142 -1.5388 -1.1534 -1.5291
  133MOL0     H18309   8.543   8.364   9.069  0.6326  0.8773  1.9487
  133MOL0     H18310   8.563   8.590   8.997 -1.8386  1.4994 -0.9322
  133MOL0     H18311   8.408   8.624   9.070  0.0207 -0.3473 -3.1894
  133MOL0     H18312   8.589   8.832   9.133 -1.0236  0.9520  0.1220
  133MOL0     H18313   8.622   9.069   9.168 -2.2912  3.4166 -2.8829
  133MOL0     H18314   8.501   9.148   9.269  0.2585 -0.9849  2.7743
  133MOL0     H18315   8.460   9.050   9.130 -5.2959 -2.5137  4.0663
  133MOL0     H18316   8.338   9.081   9.869 -0.6243  0.0684  0.5524
  133MOL0     H18317   8.218   9.294   9.941 -1.8379 -0.8009  0.8798
  133MOL0     H18318   8.115   9.472   9.988 -2.7228  0.8025  0.8312
  133MOL0     H18319   8.207   9.557   9.863 -0.8919  1.2218  0.0020
  133MOL0     H18320   8.003   9.674   9.804  3.3128  4.4734  1.2887
  133MOL0     H18321   7.916   9.622   9.949 -0.6821  0.0579 -0.0994
  133MOL0     H18322   8.196   9.741   9.990 -0.1942 -1.7416  0.3400
  133MOL0     H18323   8.056   9.734  10.097  0.3414 -1.5194  0.4975
  133MOL0     H18324   7.926   9.876   9.977  0.3239 -3.6483 -0.9104
  133MOL0     H18325   8.028   9.902   9.837  0.1748 -2.0725 -0.0576
  133MOL0     H18326   8.185  10.013   9.973 -0.9065  0.2051 -4.0256
  133MOL0     H18327   8.026  10.095   9.981 -1.1983 -0.4586  0.8393
  133MOL0     H18328   8.037   9.915  10.215 -0.3614  1.2938  1.3061
  133MOL0     H18329   8.043  10.079  10.205 -0.3482 -0.0757  1.3134
  133MOL0     H18330   8.291  10.072  10.173  2.6042 -2.4990 -1.4156
  133MOL0     H18331   8.294   9.897  10.181  1.3595  0.7485  0.8555
  133MOL0     H18332   8.182   9.894  10.392  0.8846 -0.9892 -1.5801
  133MOL0     H18333   8.185  10.072  10.398 -0.7626 -0.9041  0.7765
  133MOL0     H18334   8.051   9.336   9.556  0.3402 -0.5824 -0.2111
  133MOL0     H18335   8.182   9.143   9.468  2.9744 -2.5595 -0.1538
  133MOL0     H18336   8.411   8.779   9.584 -3.3386  2.9223  0.1865
  133MOL0     H18337   8.467   8.570   9.446 -4.7337  0.6246  1.4753
  133MOL0     H18338   6.972   7.850   8.321 -0.2246  1.3946  1.2314
  133MOL0     H18339   6.749   7.788   8.368  1.8735  0.9118 -0.8414
  133MOL0     H18340   6.468   7.474   8.525 -0.1853 -0.0117  0.5328
  133MOL0     H18341   6.236   7.428   8.475 -1.7673 -0.2488 -0.2024
  133MOL0     H18342   5.972   7.681   8.724  0.5688  1.7520  0.0002
  133MOL0     H18343   5.908   7.751   8.574 -0.9170 -0.0992 -0.6184
  133MOL0     H18344   5.739   7.633   8.705  1.7488  1.4387 -0.4137
  133MOL0     H18345   5.812   7.482   8.682 -2.8586 -0.6054 -1.1405
  133MOL0     H18346   5.720   7.652   8.448  0.7102 -1.5998 -0.5317
  133MOL0     H18347   5.793   7.490   8.429 -1.4348 -0.4593 -2.6369
  133MOL0     H18348   5.537   7.559   8.553  0.1956 -2.0464  2.9423
  133MOL0     H18349   5.612   7.394   8.566  2.6655 -0.4206  0.8420
  133MOL0     H18350   5.532   7.321   8.177 -0.6482 -1.6092  1.6273
  133MOL0     H18351   6.134   7.815   8.622 -2.8980 -0.9291 -2.2895
  133MOL0     H18352   6.394   7.904   8.779 -2.9196  0.2764 -0.6302
  133MOL0     H18353   6.433   7.977   8.626  1.6760  1.0409  2.6898
  133MOL0     H18354   6.271   7.969   8.683 -0.7710  0.7425  3.5614
  134MOL0     O18355   7.009  11.172   5.903 -0.6299  0.3423 -0.8573
  134MOL0     C18356   6.931  11.144   5.995  0.1300 -0.4294 -0.0818
  134MOL0     O18357   6.802  11.098   5.976 -0.6406  0.4383 -1.0194
  134MOL0     C18358   6.763  11.065   5.850 -0.0449 -0.3484  1.3061
  134MOL0     C18359   6.837  10.965   5.779  0.5674 -0.2374 -0.2577
  134MOL0     C18360   6.789  10.936   5.650 -0.6639  0.4363 -0.3157
  134MOL0     C18361   6.679  10.992   5.585  0.6079  0.3381  0.0463
  134MOL0     O18362   6.633  10.964   5.459  0.8099  0.6989 -0.2059
  134MOL0     C18363   6.708  10.873   5.383  0.2498  0.4994  0.0743
  134MOL0     C18364   6.653  10.871   5.239 -0.2617 -0.0119  0.0252
  134MOL0     C18365   6.690  10.752   5.153 -0.4356 -0.5398 -1.4680
  134MOL0     C18366   6.621  10.759   5.021  0.0703  0.5100  0.3899
  134MOL0     C18367   6.671  10.656   4.929  0.1330 -0.3887 -0.1117
  134MOL0     C18368   6.604  10.669   4.791 -0.7548  0.2886  0.6596
  134MOL0     C18369   6.650  10.557   4.691 -0.4745 -0.8475  0.6579
  134MOL0     C18370   6.570  10.561   4.558  0.6819  0.9092 -0.2234
  134MOL0     N18371   6.604  10.670   4.468  0.6258  0.5149 -0.4736
  134MOL0     C18372   6.721  10.748   4.453  0.7223  0.2085  0.5659
  134MOL0     C18373   6.696  10.842   4.366 -1.1887 -0.5655 -0.2227
  134MOL0     C18374   6.783  10.969   4.342  1.0933 -0.4819  0.4591
  134MOL0     C18375   6.920  10.971   4.401 -0.5748  0.3734 -0.1730
  134MOL0     C18376   6.997  11.096   4.350  0.7606  0.2188 -0.2481
  134MOL0     C18377   7.033  11.082   4.200  0.5744 -0.0780 -0.9800
  134MOL0     O18378   7.166  11.111   4.196  0.3687  0.2166 -0.6255
  134MOL0     C18379   7.232  11.139   4.089 -0.4680 -0.0017  0.7958
  134MOL0     C18380   7.186  11.120   3.957  0.4597 -0.3119 -0.7807
  134MOL0     C18381   7.268  11.141   3.850 -0.3334 -0.6730  0.4334
  134MOL0     C18382   7.206  11.120   3.712 -0.0108  0.3924 -0.3106
  134MOL0     C18383   7.404  11.178   3.866 -0.6394  0.8533 -0.8030
  134MOL0     C18384   7.514  11.194   3.757  1.5180 -1.5532 -1.4653
  134MOL0     O18385   7.637  11.178   3.809 -0.0036  0.7342 -0.2874
  134MOL0     C18386   7.747  11.182   3.720  0.2272 -0.8010 -0.2007
  134MOL0     C18387   7.786  11.306   3.656  0.5199  0.3806 -0.7010
  134MOL0     C18388   7.908  11.315   3.589  0.3109  0.1538  0.1349
  134MOL0     C18389   8.005  11.209   3.576  1.2808 -0.4298 -1.0408
  134MOL0     O18390   8.121  11.235   3.508 -0.9729 -0.2289 -0.6525
  134MOL0     C18391   8.229  11.152   3.555 -0.3298 -1.1111 -0.1076
  134MOL0     C18392   8.363  11.220   3.519  0.1255  0.6348  0.3608
  134MOL0     C18393   8.379  11.195   3.365 -0.0836  0.1797 -0.1971
  134MOL0     C18394   8.511  11.242   3.314  0.0701  0.9142 -0.3729
  134MOL0     C18395   8.525  11.195   3.174 -0.0543 -0.3694 -0.2018
  134MOL0     C18396   8.409  11.240   3.088  0.7447  0.5604  0.7181
  134MOL0     C18397   8.434  11.237   2.935  0.0272 -0.8023  0.5650
  134MOL0     C18398   8.523  11.130   2.876  0.2225 -0.6851  1.3573
  134MOL0    Cl18399   8.442  10.979   2.929 -0.1894 -0.1747  0.2336
  134MOL0     C18400   7.958  11.092   3.625 -0.0659  0.1978 -0.5276
  134MOL0     C18401   7.831  11.071   3.696  0.3634 -0.8509  0.0056
  134MOL0     O18402   7.486  11.228   3.640  0.5095 -0.0199 -0.3876
  134MOL0     C18403   7.442  11.193   3.999  0.3565  0.2262  0.0465
  134MOL0     C18404   7.360  11.174   4.105 -0.7135 -0.8092  0.5110
  134MOL0     N18405   6.563  10.827   4.326  0.1971 -0.6746 -0.4703
  134MOL0     N18406   6.516  10.730   4.385  0.6102 -0.7001 -0.9220
  134MOL0     C18407   6.610  11.091   5.649  0.1558 -0.3175 -0.5663
  134MOL0     C18408   6.652  11.123   5.781 -0.6251 -1.0841  0.3322
  134MOL0     C18409   6.965  11.181   6.130 -0.1106  0.2103 -0.8870
  134MOL0     C18410   6.865  11.231   6.212  0.7333 -0.2514 -0.8826
  134MOL0     C18411   6.891  11.253   6.347  0.6737  0.2588 -0.0413
  134MOL0     C18412   7.014  11.234   6.408  0.0623  0.1826  0.2365
  134MOL0     O18413   7.043  11.265   6.541  0.1565  0.2041  0.4044
  134MOL0     C18414   6.941  11.295   6.639 -0.5900  0.4980  0.2143
  134MOL0     C18415   6.894  11.184   6.728 -0.3518  0.1297 -0.0112
  134MOL0     C18416   6.987  11.149   6.843 -0.2428 -0.6965 -1.5496
  134MOL0     C18417   6.963  11.240   6.979 -0.3938  0.0551  0.2031
  134MOL0     C18418   6.983  11.387   6.963  0.8813 -0.8846 -0.5851
  134MOL0     C18419   6.987  11.508   6.938  0.0010 -0.6401  0.2017
  134MOL0     C18420   7.114  11.182   6.327  0.5398  0.5449 -0.2056
  134MOL0     C18421   7.087  11.154   6.193 -0.5223 -1.2497  1.1100
  134MOL0     C18422   7.195  11.084   6.110 -0.9995 -1.1774 -0.1422
  134MOL0     H18423   6.929  10.910   5.795  0.0721 -0.9215  0.2979
  134MOL0     H18424   6.843  10.854   5.606  1.5137  1.1526  0.8655
  134MOL0     H18425   6.698  10.773   5.427 -0.2835 -0.0505 -1.2380
  134MOL0     H18426   6.814  10.898   5.374  0.7308 -1.4301 -0.2312
  134MOL0     H18427   6.544  10.867   5.243 -0.3165  0.9502 -0.2271
  134MOL0     H18428   6.677  10.962   5.182  0.3135 -0.7104 -0.8813
  134MOL0     H18429   6.799  10.745   5.144 -0.2855 -1.1954  0.4623
  134MOL0     H18430   6.659  10.658   5.200 -2.4870  0.2793 -1.0949
  134MOL0     H18431   6.513  10.747   5.033 -0.1707  0.1766 -1.6419
  134MOL0     H18432   6.643  10.856   4.976 -3.5545  1.2930 -0.0202
  134MOL0     H18433   6.659  10.556   4.970  1.3175 -0.0642  1.0930
  134MOL0     H18434   6.775  10.673   4.898  0.0288 -2.1979 -1.6392
  134MOL0     H18435   6.496  10.658   4.802 -0.7918  0.1935  0.2319
  134MOL0     H18436   6.620  10.768   4.748 -1.2098  0.3249  0.5682
  134MOL0     H18437   6.616  10.467   4.742  1.6927 -0.7753  2.3914
  134MOL0     H18438   6.757  10.540   4.682 -0.6163 -0.6421 -2.8291
  134MOL0     H18439   6.580  10.467   4.503  1.0376  1.0629 -0.4292
  134MOL0     H18440   6.463  10.569   4.579  1.2228  0.5032  3.3100
  134MOL0     H18441   6.810  10.748   4.515  1.5145  0.9991 -0.5315
  134MOL0     H18442   6.727  11.052   4.385 -4.0438 -2.0465 -2.2870
  134MOL0     H18443   6.800  10.973   4.234  2.2383 -0.6933  0.6167
  134MOL0     H18444   6.909  10.978   4.509 -0.4088 -0.8860 -0.0648
  134MOL0     H18445   6.981  10.887   4.366  1.6900  2.2967 -1.1307
  134MOL0     H18446   6.956  11.194   4.374 -1.7782 -0.7749 -0.2535
  134MOL0     H18447   7.089  11.104   4.410  1.7361  0.0127 -1.6600
  134MOL0     H18448   7.009  10.980   4.169 -0.0595 -0.1682 -0.2277
  134MOL0     H18449   6.984  11.147   4.127  3.0629  0.5679 -2.1750
  134MOL0     H18450   7.089  11.072   3.961  1.8129 -3.2452  0.4569
  134MOL0     H18451   7.096  11.125   3.712 -0.1436 -1.7010 -0.6913
  134MOL0     H18452   7.246  11.027   3.672  0.8661 -1.2740  3.8727
  134MOL0     H18453   7.230  11.203   3.645  0.6993  0.1050 -0.4152
  134MOL0     H18454   7.736  11.401   3.676  2.2510  0.9912  1.0853
  134MOL0     H18455   7.945  11.410   3.551 -0.0356  0.1589 -0.1892
  134MOL0     H18456   8.222  11.139   3.664  1.3206  2.1817  0.5103
  134MOL0     H18457   8.207  11.052   3.517 -0.2694 -0.3115 -2.3424
  134MOL0     H18458   8.364  11.325   3.549 -2.1255  1.1442 -1.0508
  134MOL0     H18459   8.437  11.161   3.574 -0.1972 -0.0220  0.1151
  134MOL0     H18460   8.291  11.245   3.324 -0.9642  0.4259  1.8654
  134MOL0     H18461   8.376  11.089   3.337  1.5214  0.9045 -3.6250
  134MOL0     H18462   8.588  11.196   3.377  0.8776 -0.6889 -2.4256
  134MOL0     H18463   8.512  11.351   3.319  2.4367  1.1107 -2.8281
  134MOL0     H18464   8.614  11.244   3.134 -1.7146  1.0914 -2.3267
  134MOL0     H18465   8.538  11.086   3.179 -1.1313 -0.4828  3.4006
  134MOL0     H18466   8.362  11.334   3.118  0.3791  0.7406 -0.3614
  134MOL0     H18467   8.327  11.171   3.111 -0.5249  2.3856  1.9046
  134MOL0     H18468   8.476  11.334   2.909 -1.9347 -0.5489 -2.0684
  134MOL0     H18469   8.332  11.245   2.895 -0.4739 -0.6291  1.8569
  134MOL0     H18470   8.624  11.134   2.919  0.0222 -0.3347  1.7976
  134MOL0     H18471   8.521  11.147   2.768 -1.1116 -0.6277  1.3835
  134MOL0     H18472   8.022  11.004   3.616  0.0080  0.4445 -3.3958
  134MOL0     H18473   7.816  10.970   3.732 -1.4995 -1.4800 -2.3176
  134MOL0     H18474   7.548  11.203   4.023  0.1349 -0.4791  1.3427
  134MOL0     H18475   7.399  11.177   4.206 -0.7958 -3.1096  0.6783
  134MOL0     H18476   6.523  11.137   5.602 -1.3415 -1.6349  0.8014
  134MOL0     H18477   6.602  11.206   5.831 -4.0817 -0.1064 -4.1487
  134MOL0     H18478   6.768  11.256   6.169  1.4891  3.8070 -0.6549
  134MOL0     H18479   6.804  11.274   6.408  1.8083  0.7247  1.4899
  134MOL0     H18480   6.973  11.378   6.702 -1.6109  1.7863 -0.9080
  134MOL0     H18481   6.850  11.331   6.590 -0.7432 -0.3852 -0.1724
  134MOL0     H18482   6.877  11.097   6.665 -0.8639  1.9980 -2.6007
  134MOL0     H18483   6.795  11.212   6.766 -0.5859  0.7902 -1.0708
  134MOL0     H18484   6.963  11.050   6.885  0.2111  0.2333  1.1319
  134MOL0     H18485   7.088  11.158   6.802 -0.2711 -2.3067 -2.0359
  134MOL0     H18486   7.026  11.204   7.061  1.2912  0.9278 -0.6368
  134MOL0     H18487   6.858  11.227   7.006 -0.2436 -2.0421 -0.0465
  134MOL0     H18488   6.992  11.610   6.905  0.6242 -0.7169  0.0528
  134MOL0     H18489   7.207  11.158   6.377  1.5852  2.7642 -0.9200
  134MOL0     H18490   7.270  11.162   6.096 -3.0194  0.4865 -2.4086
  134MOL0     H18491   7.241  11.002   6.167  2.7617  0.6635 -0.1779
  134MOL0     H18492   7.172  11.044   6.011 -5.1175 -1.4259  0.7375
  135MOL0     O18493   7.254   7.552   2.609  0.4810  0.2265 -0.4979
  135MOL0     C18494   7.274   7.443   2.667 -0.0556 -0.4000  0.9911
  135MOL0     O18495   7.394   7.380   2.665  0.2347  0.2533  1.1526
  135MOL0     C18496   7.492   7.415   2.571 -0.8916 -0.2374  0.0633
  135MOL0     C18497   7.618   7.470   2.613  0.2459 -0.7144  0.3267
  135MOL0     C18498   7.715   7.512   2.521  0.5529  0.6382 -0.5222
  135MOL0     C18499   7.698   7.488   2.381 -0.0230  0.6647 -0.2501
  135MOL0     O18500   7.787   7.532   2.284  0.5673 -0.1556 -0.9604
  135MOL0     C18501   7.890   7.628   2.320 -0.2616 -0.2465  0.0318
  135MOL0     C18502   7.991   7.638   2.210  0.5924  0.4739  0.0704
  135MOL0     C18503   8.134   7.671   2.256 -0.1936  0.5205 -0.7272
  135MOL0     C18504   8.260   7.642   2.160  0.1259  0.2688 -0.3676
  135MOL0     C18505   8.279   7.491   2.141  0.5543  0.2838 -0.0240
  135MOL0     C18506   8.384   7.453   2.038 -0.4755 -0.1245 -0.2607
  135MOL0     C18507   8.419   7.302   2.032  0.5347 -0.2231 -0.0429
  135MOL0     C18508   8.301   7.216   1.990 -0.5329  0.3431 -0.7716
  135MOL0     N18509   8.339   7.070   1.999  0.8069  0.4332  0.4519
  135MOL0     C18510   8.411   6.999   1.901 -0.4012 -0.4134 -0.0872
  135MOL0     C18511   8.438   6.887   1.972 -0.8864 -0.7998 -0.0303
  135MOL0     C18512   8.521   6.763   1.929  0.2176 -0.4494  0.1497
  135MOL0     C18513   8.664   6.809   1.923 -0.4039  0.1391  0.9175
  135MOL0     C18514   8.757   6.705   1.852 -0.0729  0.7795  0.0994
  135MOL0     C18515   8.894   6.765   1.834 -0.2614 -0.9766  0.2217
  135MOL0     O18516   8.985   6.665   1.785 -0.2633 -0.6853 -0.7462
  135MOL0     C18517   9.099   6.640   1.862  0.0881 -0.7838 -0.6410
  135MOL0     C18518   9.213   6.619   1.799 -0.5316 -0.1540 -0.4117
  135MOL0     C18519   9.337   6.587   1.861  0.5333 -0.7414 -0.0454
  135MOL0     C18520   9.460   6.574   1.769  0.3068  0.3266 -0.9649
  135MOL0     C18521   9.344   6.572   2.000 -0.0665 -0.0245 -1.1863
  135MOL0     C18522   9.469   6.513   2.068  0.5313  0.5031  0.5190
  135MOL0     O18523   9.475   6.541   2.196 -0.0824 -0.2948  0.0718
  135MOL0     C18524   9.590   6.516   2.261 -0.0951  0.0898  0.3007
  135MOL0     C18525   9.667   6.622   2.300 -0.7119  0.7345 -0.2444
  135MOL0     C18526   9.791   6.603   2.367  0.2290 -0.4074  0.2515
  135MOL0     C18527   9.835   6.475   2.403 -0.4226 -0.8320 -0.0177
  135MOL0     O18528   9.956   6.466   2.465 -0.4902 -1.0598 -1.2455
  135MOL0     C18529   9.982   6.351   2.554 -1.2595  0.6987 -0.8564
  135MOL0     C18530  10.104   6.361   2.649 -0.0076 -1.1334 -0.1886
  135MOL0     C18531  10.242   6.384   2.567 -0.5831 -0.7754  0.0562
  135MOL0     C18532  10.287   6.259   2.498 -0.8234  0.6735 -0.1073
  135MOL0     C18533  10.427   6.275   2.431 -0.0807 -0.0962  0.2020
  135MOL0     C18534  10.538   6.322   2.522 -0.2649  0.3530  0.1733
  135MOL0     C18535  10.679   6.318   2.457 -0.4501  0.3513 -0.6694
  135MOL0     C18536  10.767   6.421   2.533 -0.2285  0.8192 -0.0501
  135MOL0    Cl18537  10.932   6.412   2.448  0.1092 -0.3331  0.1974
  135MOL0     C18538   9.759   6.365   2.363  0.3571  0.1526  0.2006
  135MOL0     C18539   9.643   6.386   2.285 -0.0383 -0.5921 -0.2515
  135MOL0     O18540   9.546   6.439   2.011  0.1262  0.1177  0.9091
  135MOL0     C18541   9.223   6.610   2.074 -0.0594 -0.1958 -0.5404
  135MOL0     C18542   9.100   6.642   2.006 -0.3541 -0.1791  0.9516
  135MOL0     N18543   8.391   6.896   2.103  0.2592 -0.2475  0.8088
  135MOL0     N18544   8.332   7.007   2.113  0.4975 -0.1318 -0.2708
  135MOL0     C18545   7.578   7.435   2.335  0.0675 -0.0661  0.0780
  135MOL0     C18546   7.477   7.394   2.431 -0.3437 -0.5766  0.1298
  135MOL0     C18547   7.160   7.388   2.742  0.1670  0.9312  1.2392
  135MOL0     C18548   7.180   7.265   2.802 -0.5012 -0.1208  0.6955
  135MOL0     C18549   7.080   7.202   2.877  0.3544  0.2651  0.6402
  135MOL0     C18550   6.963   7.276   2.907  1.3252  0.6024 -0.7966
  135MOL0     O18551   6.873   7.202   2.973  0.1210 -0.0474 -0.7058
  135MOL0     C18552   6.766   7.257   3.052 -0.8514 -0.3862 -0.7999
  135MOL0     C18553   6.809   7.361   3.158  0.9021 -0.2102 -0.2231
  135MOL0     C18554   6.885   7.288   3.268  0.7444  0.7339  0.1841
  135MOL0     C18555   6.904   7.371   3.398  1.5566 -0.5034  0.2736
  135MOL0     C18556   6.953   7.504   3.370  0.6021  0.5862 -0.2412
  135MOL0     C18557   6.984   7.624   3.379 -0.6306  0.4781 -0.5577
  135MOL0     C18558   6.940   7.405   2.859  0.4770  0.4049  0.4684
  135MOL0     C18559   7.032   7.459   2.774 -0.4662  0.4673 -0.0681
  135MOL0     C18560   6.990   7.591   2.706 -0.4808  0.6119 -0.4917
  135MOL0     H18561   7.645   7.489   2.716 -0.3933 -2.0221  0.7599
  135MOL0     H18562   7.796   7.574   2.559 -0.6765  1.7118  0.4551
  135MOL0     H18563   7.945   7.596   2.409 -1.6762 -0.4005  0.8712
  135MOL0     H18564   7.850   7.722   2.359 -0.4342 -0.2006 -0.2565
  135MOL0     H18565   7.989   7.541   2.159 -1.1104  0.1547  0.6848
  135MOL0     H18566   7.952   7.720   2.149 -0.3115  0.3568  0.4748
  135MOL0     H18567   8.142   7.778   2.276  1.8570  0.3189 -0.1845
  135MOL0     H18568   8.161   7.618   2.347  3.0689  0.8987 -1.3151
  135MOL0     H18569   8.255   7.699   2.067  3.2104  3.6808  1.2855
  135MOL0     H18570   8.351   7.684   2.205  1.5442 -2.9113 -0.0077
  135MOL0     H18571   8.180   7.451   2.118  0.8618 -1.0723  0.8875
  135MOL0     H18572   8.314   7.443   2.233  0.0640  1.3547  0.7290
  135MOL0     H18573   8.355   7.488   1.938  3.9973 -0.1795 -1.7988
  135MOL0     H18574   8.476   7.511   2.049  0.4668 -0.5136 -4.2660
  135MOL0     H18575   8.460   7.281   2.131  0.3984 -0.3955 -0.0222
  135MOL0     H18576   8.500   7.281   1.962 -0.0227  1.1402 -1.1600
  135MOL0     H18577   8.218   7.234   2.058  1.5354  0.7953  1.7784
  135MOL0     H18578   8.287   7.239   1.884  1.7106  4.5038 -0.3735
  135MOL0     H18579   8.431   7.020   1.796 -0.8162  0.8565  0.0652
  135MOL0     H18580   8.493   6.727   1.829 -1.1710  1.4578 -0.2089
  135MOL0     H18581   8.514   6.680   1.999  3.6649  1.1541  2.6441
  135MOL0     H18582   8.666   6.900   1.863 -0.4129 -1.3588 -1.4957
  135MOL0     H18583   8.706   6.841   2.019 -0.2236  3.1561 -0.0693
  135MOL0     H18584   8.773   6.623   1.923  0.2865  2.6062  2.2413
  135MOL0     H18585   8.711   6.674   1.758  0.3097  0.0703  0.1324
  135MOL0     H18586   8.876   6.836   1.753 -1.1821 -2.1780 -0.6588
  135MOL0     H18587   8.938   6.813   1.922 -2.4973  1.9382 -0.0953
  135MOL0     H18588   9.221   6.626   1.691  2.0590  0.3463 -0.2442
  135MOL0     H18589   9.544   6.633   1.806  0.6923 -0.2113 -0.9729
  135MOL0     H18590   9.433   6.629   1.678 -1.3844  1.4759  0.1731
  135MOL0     H18591   9.485   6.468   1.758 -0.3032  0.0024  0.5875
  135MOL0     H18592   9.643   6.728   2.297  0.4220  0.9927 -0.4459
  135MOL0     H18593   9.846   6.684   2.414 -2.8517  0.9667  1.7036
  135MOL0     H18594   9.902   6.337   2.628  0.0862  0.7947  0.6719
  135MOL0     H18595   9.995   6.261   2.494  0.2217  1.6010 -1.9428
  135MOL0     H18596  10.082   6.451   2.707 -0.9313 -2.0632  0.9772
  135MOL0     H18597  10.116   6.283   2.725  0.9189 -1.5042 -0.7012
  135MOL0     H18598  10.321   6.428   2.628  0.0799 -2.6466  0.6107
  135MOL0     H18599  10.224   6.448   2.480 -1.1000 -2.5312 -1.2076
  135MOL0     H18600  10.205   6.232   2.431 -0.7537  0.3562 -0.0681
  135MOL0     H18601  10.288   6.188   2.581 -2.7622  2.2056  1.3151
  135MOL0     H18602  10.456   6.183   2.380  1.7298  1.0821 -0.9986
  135MOL0     H18603  10.418   6.352   2.354 -0.0941  2.0799  2.2749
  135MOL0     H18604  10.546   6.258   2.610  3.1875 -3.0770 -2.2859
  135MOL0     H18605  10.518   6.423   2.559 -2.6728 -0.3642  1.0422
  135MOL0     H18606  10.671   6.346   2.352  0.1911  1.9573 -0.3152
  135MOL0     H18607  10.720   6.217   2.454 -2.6109 -0.5751 -3.3515
  135MOL0     H18608  10.776   6.386   2.637 -0.8484 -0.4347 -0.4037
  135MOL0     H18609  10.727   6.523   2.532 -1.1901  0.4514 -1.2615
  135MOL0     H18610   9.798   6.264   2.366  0.5637  0.1039 -1.9849
  135MOL0     H18611   9.594   6.293   2.257 -0.7969 -0.5712  0.9244
  135MOL0     H18612   9.235   6.602   2.182 -0.0482  1.8794 -0.3403
  135MOL0     H18613   9.008   6.657   2.062 -0.6277 -0.5728  0.6199
  135MOL0     H18614   7.560   7.452   2.229  0.1569  2.1801  0.3853
  135MOL0     H18615   7.384   7.352   2.394 -0.5275  1.7308 -2.4003
  135MOL0     H18616   7.269   7.202   2.798 -0.5127 -0.1607  1.0080
  135MOL0     H18617   7.084   7.099   2.911 -0.9540 -0.1736 -0.4554
  135MOL0     H18618   6.695   7.309   2.988 -1.9993  0.0576  0.7565
  135MOL0     H18619   6.701   7.177   3.089 -0.4540 -0.2640  0.2019
  135MOL0     H18620   6.714   7.397   3.199  0.6957 -0.0210 -0.8458
  135MOL0     H18621   6.870   7.442   3.117  1.4976 -1.0312 -1.0165
  135MOL0     H18622   6.832   7.195   3.292 -0.8101  1.5133 -0.1236
  135MOL0     H18623   6.976   7.251   3.220 -0.0358 -1.2122  0.1035
  135MOL0     H18624   6.983   7.326   3.459  1.6432 -1.5828 -0.6066
  135MOL0     H18625   6.806   7.377   3.446  0.6285  0.0108 -1.5757
  135MOL0     H18626   7.025   7.721   3.399 -0.4401 -0.2245  3.1704
  135MOL0     H18627   6.850   7.460   2.885 -0.9317 -2.1515  1.3795
  135MOL0     H18628   6.974   7.564   2.601 -4.1094 -0.8517  0.2777
  135MOL0     H18629   6.891   7.622   2.741 -1.2179 -0.8279 -1.1861
  135MOL0     H18630   7.054   7.677   2.726  2.1711 -1.0032 -1.4875
  136MOL0     O18631   8.930  11.323   0.552 -0.7433  0.0240  0.1663
  136MOL0     C18632   8.821  11.284   0.581  0.6644 -1.1207  0.1422
  136MOL0     O18633   8.787  11.154   0.613  0.3634  0.0407  0.3610
  136MOL0     C18634   8.888  11.066   0.630 -0.5849  1.0067 -0.0908
  136MOL0     C18635   8.918  10.986   0.517 -0.6562 -0.0769  0.0067
  136MOL0     C18636   9.022  10.898   0.514 -0.0433 -0.2575 -0.0451
  136MOL0     C18637   9.110  10.894   0.615 -0.4567  0.0731  0.4559
  136MOL0     O18638   9.234  10.828   0.609  0.3258  0.3071  0.2271
  136MOL0     C18639   9.262  10.741   0.492 -0.6292  0.1398  0.5726
  136MOL0     C18640   9.410  10.714   0.494 -0.2875 -0.4871 -0.0712
  136MOL0     C18641   9.460  10.616   0.383 -0.2855  0.9883  0.1186
  136MOL0     C18642   9.604  10.577   0.428  1.4729  0.3449 -0.3763
  136MOL0     C18643   9.699  10.696   0.429 -0.1528 -0.3207 -0.3467
  136MOL0     C18644   9.847  10.664   0.436 -0.6465 -0.1197 -0.4375
  136MOL0     C18645   9.886  10.612   0.295  0.5270 -0.3393 -0.8840
  136MOL0     C18646  10.037  10.603   0.282  0.2349  0.3378  0.4320
  136MOL0     N18647  10.092  10.470   0.304  0.2978  0.4769 -0.5488
  136MOL0     C18648  10.133  10.374   0.216 -0.2028 -0.0818 -0.0826
  136MOL0     C18649  10.182  10.266   0.287  0.8157  0.0124  0.0272
  136MOL0     C18650  10.241  10.147   0.224 -0.0952  0.1798 -0.1054
  136MOL0     C18651  10.399  10.152   0.210  0.7337  0.0955  0.8313
  136MOL0     C18652  10.449  10.019   0.161 -0.3552  0.9681 -0.3869
  136MOL0     C18653  10.414   9.889   0.259 -0.8843 -0.3003  0.1261
  136MOL0     O18654  10.434   9.921   0.402  0.3346  0.1881 -0.5330
  136MOL0     C18655  10.559   9.961   0.442 -0.1573  0.0551 -0.0183
  136MOL0     C18656  10.578  10.068   0.525  0.2802 -0.6792 -0.1403
  136MOL0     C18657  10.713  10.100   0.565 -0.1838 -0.1088  0.0075
  136MOL0     C18658  10.713  10.213   0.655 -0.1239 -0.0489 -0.5378
  136MOL0     C18659  10.830  10.023   0.532  0.0339 -0.3702  0.6244
  136MOL0     C18660  10.972  10.048   0.581 -0.0918 -0.6449  0.2899
  136MOL0     O18661  11.071   9.969   0.538 -0.7808  0.0059 -0.2398
  136MOL0     C18662  11.197   9.971   0.589 -0.0371  0.1503  0.7861
  136MOL0     C18663  11.216   9.922   0.714 -0.6720  0.0650 -0.4403
  136MOL0     C18664  11.354   9.903   0.759 -0.0295 -0.3339  0.6975
  136MOL0     C18665  11.461   9.970   0.685  0.6419  0.5068 -0.6694
  136MOL0     O18666  11.594   9.957   0.723  0.2500  0.4497  0.3720
  136MOL0     C18667  11.630   9.860   0.818 -0.9413 -0.8590  0.2915
  136MOL0     C18668  11.775   9.818   0.799  0.0503  0.1264  0.1839
  136MOL0     C18669  11.885   9.884   0.884 -0.0496  0.2822 -0.1324
  136MOL0     C18670  12.026   9.823   0.871 -0.3234 -0.1337  0.5117
  136MOL0     C18671  12.078   9.843   0.731 -0.4808  0.0084  0.2644
  136MOL0     C18672  12.225   9.797   0.726 -0.2182 -0.2543  0.3384
  136MOL0     C18673  12.276   9.789   0.584 -0.4812 -0.0510  0.3034
  136MOL0     C18674  12.382   9.685   0.564 -0.0999  0.0260 -0.3494
  136MOL0    Cl18675  12.386   9.634   0.394 -0.1066  0.0972  0.0961
  136MOL0     C18676  11.430  10.028   0.563 -1.0365 -0.1929  1.3423
  136MOL0     C18677  11.297  10.031   0.517 -0.6083 -0.8504 -0.7751
  136MOL0     O18678  10.985  10.142   0.660  0.6934  0.0697  0.4913
  136MOL0     C18679  10.802   9.922   0.437  0.6712 -0.6006  0.1016
  136MOL0     C18680  10.673   9.885   0.399  0.8021 -0.3434  0.5807
  136MOL0     N18681  10.168  10.293   0.422  1.0613 -0.1298  0.2249
  136MOL0     N18682  10.115  10.417   0.428  0.1675 -0.4461 -0.2355
  136MOL0     C18683   9.083  10.977   0.730  0.1992 -0.6804  0.5233
  136MOL0     C18684   8.968  11.060   0.742  0.3047 -0.2733  0.0144
  136MOL0     C18685   8.709  11.381   0.571  0.2066  0.4985 -0.2700
  136MOL0     C18686   8.656  11.444   0.687 -0.9302  0.5199  0.3171
  136MOL0     C18687   8.539  11.525   0.675 -0.5599  0.5848  0.1259
  136MOL0     C18688   8.484  11.555   0.552 -0.0670 -0.4066  0.4104
  136MOL0     O18689   8.367  11.632   0.537  0.0989  0.0191  0.1449
  136MOL0     C18690   8.374  11.773   0.567 -0.5883  0.3725 -0.2191
  136MOL0     C18691   8.372  11.864   0.444  0.2613 -0.3026  0.3839
  136MOL0     C18692   8.375  12.015   0.489  0.9945  0.3157 -0.3023
  136MOL0     C18693   8.379  12.107   0.366  0.1710  0.8540  0.2738
  136MOL0     C18694   8.238  12.121   0.309  0.3101  1.1173  0.6062
  136MOL0     C18695   8.124  12.134   0.272  0.1399  0.1178 -0.0014
  136MOL0     C18696   8.524  11.481   0.441 -0.7114 -0.5267 -0.2016
  136MOL0     C18697   8.632  11.391   0.453  0.4131 -0.1304 -0.7427
  136MOL0     C18698   8.688  11.338   0.323  0.3280  1.7151  0.6375
  136MOL0     H18699   8.852  10.994   0.431  0.2928  4.1898 -0.5524
  136MOL0     H18700   9.034  10.844   0.421 -0.1561  2.0666 -1.4633
  136MOL0     H18701   9.240  10.791   0.397 -1.9116 -1.8821 -0.2593
  136MOL0     H18702   9.202  10.652   0.511 -0.0597 -0.4728 -0.4116
  136MOL0     H18703   9.451  10.815   0.499 -1.6698  0.0493  2.0903
  136MOL0     H18704   9.452  10.675   0.587  3.2686 -3.1058 -2.4978
  136MOL0     H18705   9.399  10.527   0.363  1.1588 -0.5181  1.9899
  136MOL0     H18706   9.465  10.671   0.289 -1.6286 -1.7950 -1.7129
  136MOL0     H18707   9.607  10.528   0.525  0.0606 -2.6783 -1.7352
  136MOL0     H18708   9.632  10.492   0.365 -2.1592  0.9495 -3.1989
  136MOL0     H18709   9.677  10.759   0.516  2.1877 -0.2040  0.2329
  136MOL0     H18710   9.672  10.760   0.344 -0.3878  2.1132  1.4337
  136MOL0     H18711   9.899  10.757   0.461 -1.6990  0.4736 -0.3815
  136MOL0     H18712   9.870  10.589   0.512  1.5956  1.5675  0.6589
  136MOL0     H18713   9.848  10.683   0.221 -1.4062  0.4158  0.7342
  136MOL0     H18714   9.836  10.518   0.269  0.7175  0.1539 -3.3081
  136MOL0     H18715  10.061  10.635   0.181 -1.2877 -0.6438 -0.2824
  136MOL0     H18716  10.082  10.670   0.356 -2.5882  2.6629  0.2159
  136MOL0     H18717  10.131  10.375   0.108  0.3003 -1.5600 -0.1261
  136MOL0     H18718  10.213  10.118   0.123  3.1403 -0.3420 -0.9778
  136MOL0     H18719  10.220  10.064   0.293 -0.1237 -0.9259 -1.4002
  136MOL0     H18720  10.424  10.218   0.126  5.0143 -3.5772 -1.2193
  136MOL0     H18721  10.461  10.188   0.293 -0.3233 -1.0831  2.1761
  136MOL0     H18722  10.412  10.000   0.059 -3.5392 -1.8323  1.0787
  136MOL0     H18723  10.558  10.019   0.155 -0.3592  2.2271 -0.6967
  136MOL0     H18724  10.313   9.848   0.260 -0.8750 -0.3112  0.8674
  136MOL0     H18725  10.474   9.805   0.221  1.3974  1.1110  0.4555
  136MOL0     H18726  10.497  10.132   0.558  1.2132 -1.5060  4.3921
  136MOL0     H18727  10.615  10.255   0.681 -0.8282 -2.6548  1.3898
  136MOL0     H18728  10.779  10.286   0.607  0.8126 -1.0234 -0.7557
  136MOL0     H18729  10.756  10.181   0.750  1.7208 -0.3871 -1.4431
  136MOL0     H18730  11.136   9.875   0.769 -0.9264  1.9806  0.9196
  136MOL0     H18731  11.374   9.837   0.842  0.6772  0.8843  1.5375
  136MOL0     H18732  11.621   9.897   0.920  5.2509 -0.7515  1.1605
  136MOL0     H18733  11.571   9.768   0.812 -0.0196 -1.7999  3.5284
  136MOL0     H18734  11.779   9.713   0.828  2.0613  0.1660  0.2168
  136MOL0     H18735  11.791   9.831   0.691 -1.0435  2.3377  0.2454
  136MOL0     H18736  11.857   9.875   0.989 -1.0634  0.1082 -0.4065
  136MOL0     H18737  11.887   9.988   0.849 -0.3250 -0.6777 -3.3605
  136MOL0     H18738  12.031   9.715   0.887 -1.9391 -0.3025 -0.0349
  136MOL0     H18739  12.091   9.877   0.941 -0.0489  2.4645 -1.5708
  136MOL0     H18740  12.016   9.788   0.660  0.6362  0.1173 -0.8248
  136MOL0     H18741  12.075   9.951   0.711  0.9656  0.1949  0.8928
  136MOL0     H18742  12.237   9.702   0.778  0.8655  0.9555  2.4819
  136MOL0     H18743  12.286   9.868   0.784 -1.4318  0.1818  1.1241
  136MOL0     H18744  12.320   9.885   0.555  2.5084 -1.8491 -1.7573
  136MOL0     H18745  12.186   9.760   0.529 -0.3858  1.6853 -0.8480
  136MOL0     H18746  12.357   9.593   0.618 -1.0994  0.6545  0.3076
  136MOL0     H18747  12.476   9.732   0.595 -0.2491  0.7878 -1.0086
  136MOL0     H18748  11.513  10.067   0.506  0.9183 -2.0905  2.6896
  136MOL0     H18749  11.258  10.064   0.422 -1.1792 -0.1795 -0.3208
  136MOL0     H18750  10.882   9.859   0.398 -1.4495 -0.9696 -4.3335
  136MOL0     H18751  10.668   9.801   0.331 -2.7655 -0.1113  0.3660
  136MOL0     H18752   9.171  10.988   0.793  2.5005 -3.1044 -1.9658
  136MOL0     H18753   8.958  11.136   0.819 -0.5220 -0.1526 -0.2057
  136MOL0     H18754   8.702  11.429   0.784  0.0266  2.3519  0.1867
  136MOL0     H18755   8.502  11.571   0.766  2.3864  2.2030  0.6381
  136MOL0     H18756   8.315  11.796   0.657  1.9013 -1.5404  2.0744
  136MOL0     H18757   8.478  11.792   0.596 -0.7565  2.0218 -0.6098
  136MOL0     H18758   8.287  11.843   0.379  2.2758  2.7351 -3.6754
  136MOL0     H18759   8.450  11.843   0.370 -0.6428 -0.5618 -0.5169
  136MOL0     H18760   8.280  12.028   0.541  1.3663 -2.0239  1.0908
  136MOL0     H18761   8.464  12.029   0.552 -0.5034  3.7625  1.2881
  136MOL0     H18762   8.440  12.069   0.284  1.1476 -0.2953  1.4752
  136MOL0     H18763   8.428  12.199   0.397  0.5831  0.4786  0.7654
  136MOL0     H18764   8.027  12.124   0.228  0.2882 -2.0104  0.0569
  136MOL0     H18765   8.484  11.473   0.341 -1.3472 -0.9090  0.0714
  136MOL0     H18766   8.779  11.278   0.329 -0.8766 -0.2424  0.2583
  136MOL0     H18767   8.613  11.265   0.291 -0.0070  1.7308  1.3558
  136MOL0     H18768   8.700  11.418   0.250  0.1478  0.7476 -0.4841
  137MOL0     O18769   9.375   1.845   9.642 -0.0091  0.9878  0.0556
  137MOL0     C18770   9.429   1.748   9.598  1.1152  0.4027 -0.8622
  137MOL0     O18771   9.426   1.632   9.658 -0.1091  0.3639 -0.2360
  137MOL0     C18772   9.451   1.617   9.797  0.9536 -0.6448 -0.4006
  137MOL0     C18773   9.526   1.713   9.874  0.8737  0.3966 -0.4097
  137MOL0     C18774   9.545   1.698  10.008 -0.1350 -0.7279  0.1276
  137MOL0     C18775   9.497   1.589  10.077  1.2429 -0.7568  0.1019
  137MOL0     O18776   9.521   1.563  10.211 -0.4884 -0.4455 -0.1033
  137MOL0     C18777   9.656   1.578  10.250  0.0347  0.4792  0.1730
  137MOL0     C18778   9.665   1.548  10.400 -0.0285 -0.8503  0.4397
  137MOL0     C18779   9.806   1.493  10.438  0.3199  0.1979 -0.2159
  137MOL0     C18780   9.899   1.613  10.442  0.3873  1.0004  0.3301
  137MOL0     C18781  10.035   1.563  10.484 -0.2896 -0.1839 -0.2289
  137MOL0     C18782  10.136   1.676  10.504  0.6250 -0.0463  0.3864
  137MOL0     C18783  10.281   1.622  10.543  0.0603  0.2145  0.3746
  137MOL0     C18784  10.283   1.557  10.687 -0.0247  0.1034 -0.3290
  137MOL0     N18785  10.425   1.552  10.722 -0.7839 -0.7142  0.3844
  137MOL0     C18786  10.519   1.454  10.698 -0.0227  0.4520 -0.0674
  137MOL0     C18787  10.624   1.483  10.785 -0.4447  0.3066  0.3018
  137MOL0     C18788  10.752   1.398  10.794 -0.8909 -0.2085 -0.2889
  137MOL0     C18789  10.769   1.332  10.931 -0.0208 -0.3092 -0.1476
  137MOL0     C18790  10.871   1.221  10.918 -0.6582 -0.2826  0.3771
  137MOL0     C18791  10.902   1.145  11.040  0.5523 -0.4537 -0.9670
  137MOL0     O18792  10.794   1.060  11.076  0.1807  0.0113 -0.0544
  137MOL0     C18793  10.817   0.985  11.195 -0.6986  0.0609 -0.6555
  137MOL0     C18794  10.935   1.001  11.272  0.7226 -0.7431 -0.5402
  137MOL0     C18795  10.947   0.925  11.393  0.0634 -0.1633  0.5626
  137MOL0     C18796  11.074   0.945  11.470  0.8555 -0.5227  0.0838
  137MOL0     C18797  10.848   0.841  11.433  0.4738 -0.1963  0.2224
  137MOL0     C18798  10.863   0.750  11.538 -0.3307  0.6654  0.7033
  137MOL0     O18799  10.941   0.642  11.507 -0.5829 -0.7440 -0.0527
  137MOL0     C18800  10.943   0.535  11.590  1.0093 -0.2609 -0.4102
  137MOL0     C18801  10.827   0.478  11.635  0.1878 -0.0004 -0.7860
  137MOL0     C18802  10.837   0.360  11.713  0.4554  0.0609  1.3530
  137MOL0     C18803  10.959   0.306  11.748  0.7430  0.5906  0.4093
  137MOL0     O18804  10.989   0.196  11.838  0.2775 -0.6487 -0.2897
  137MOL0     C18805  10.875   0.121  11.883 -0.3871 -0.6372  0.2213
  137MOL0     C18806  10.930  -0.008  11.941 -0.2730  1.2555  0.1165
  137MOL0     C18807  10.829  -0.086  12.015  0.3066 -0.2338 -0.1910
  137MOL0     C18808  10.889  -0.201  12.084  0.5670  0.2070  0.7948
  137MOL0     C18809  10.801  -0.304  12.150  1.0857 -0.4932 -0.3592
  137MOL0     C18810  10.880  -0.427  12.182 -0.8435  0.6824 -0.4296
  137MOL0     C18811  11.020  -0.415  12.243  0.8735  0.3559  0.4596
  137MOL0     C18812  11.071  -0.563  12.277  0.7957  0.3278 -0.4289
  137MOL0    Cl18813  11.099  -0.638  12.117 -0.2743  0.0192 -0.1436
  137MOL0     C18814  11.080   0.361  11.699  0.1757 -0.7599  0.8474
  137MOL0     C18815  11.065   0.476  11.613  0.3937 -0.8012  0.4482
  137MOL0     O18816  10.819   0.782  11.646  0.6208 -0.4397 -0.0430
  137MOL0     C18817  10.725   0.835  11.355 -0.6058 -0.0106  0.4694
  137MOL0     C18818  10.714   0.907  11.237  0.1492 -0.5470  0.3890
  137MOL0     N18819  10.606   1.608  10.840 -0.0481  0.0749  1.0404
  137MOL0     N18820  10.488   1.642  10.805  0.3620 -0.2847  1.3447
  137MOL0     C18821   9.421   1.496  10.008  0.4298 -0.1303  0.0048
  137MOL0     C18822   9.396   1.513   9.870  0.0301 -0.1786  0.2483
  137MOL0     C18823   9.479   1.758   9.466  0.1022 -0.0655  0.4675
  137MOL0     C18824   9.458   1.647   9.382  0.5689  0.5661 -0.3024
  137MOL0     C18825   9.509   1.650   9.256 -0.8965  0.2784 -0.3030
  137MOL0     C18826   9.577   1.760   9.199  0.6333 -0.0090  0.0228
  137MOL0     O18827   9.627   1.745   9.070  0.8379 -0.3134  0.5301
  137MOL0     C18828   9.644   1.863   8.991  0.1030  0.4478  0.6687
  137MOL0     C18829   9.800   1.894   8.984 -0.4083  0.1411  0.9654
  137MOL0     C18830   9.886   1.768   8.965 -0.5670  0.1528 -0.4201
  137MOL0     C18831  10.036   1.809   8.971 -0.6013 -0.6098 -0.5464
  137MOL0     C18832  10.085   1.887   8.860 -0.1842 -1.2286 -0.3069
  137MOL0     C18833  10.114   1.974   8.782 -0.1925  0.8262  0.3866
  137MOL0     C18834   9.585   1.873   9.285  0.0119  0.5020 -0.5068
  137MOL0     C18835   9.544   1.868   9.418 -0.4853 -0.2327  0.2124
  137MOL0     C18836   9.566   1.991   9.502 -0.8653 -0.3503 -0.6971
  137MOL0     H18837   9.567   1.800   9.824 -1.5225  1.5288 -0.5546
  137MOL0     H18838   9.609   1.764  10.064 -0.6317  1.5599 -1.8315
  137MOL0     H18839   9.691   1.679  10.228  0.7796  0.3836  0.8671
  137MOL0     H18840   9.722   1.515  10.189 -0.4501  2.3493 -2.4552
  137MOL0     H18841   9.637   1.629  10.468  0.3079 -1.2326  1.0401
  137MOL0     H18842   9.589   1.473  10.424 -0.1106 -0.8293  0.2540
  137MOL0     H18843   9.797   1.459  10.541 -1.4981  3.4119  0.8305
  137MOL0     H18844   9.830   1.413  10.367 -0.9007  1.7953 -2.5774
  137MOL0     H18845   9.901   1.668  10.348  1.2077  1.3976  0.5655
  137MOL0     H18846   9.862   1.677  10.523  1.3390  0.4735  1.2149
  137MOL0     H18847  10.067   1.501  10.400 -0.4248  1.0306 -1.2037
  137MOL0     H18848  10.022   1.503  10.575  2.0901 -0.2875  0.0835
  137MOL0     H18849  10.138   1.733  10.410 -3.8955  1.6348  1.0887
  137MOL0     H18850  10.107   1.752  10.576  2.1978  0.2209  0.7779
  137MOL0     H18851  10.360   1.698  10.545  3.3347 -2.8603 -0.5090
  137MOL0     H18852  10.320   1.554  10.467 -2.1514 -0.3346 -0.3567
  137MOL0     H18853  10.222   1.621  10.751 -1.7597 -1.4498 -0.3562
  137MOL0     H18854  10.230   1.461  10.685 -0.1550  0.1958 -1.7444
  137MOL0     H18855  10.519   1.372  10.627  0.9105  1.1704 -0.9233
  137MOL0     H18856  10.840   1.459  10.772 -2.3039  1.9508 -0.2421
  137MOL0     H18857  10.749   1.318  10.720  0.6713 -0.6333  0.0718
  137MOL0     H18858  10.788   1.409  11.006 -4.0222  0.8154 -0.0572
  137MOL0     H18859  10.673   1.290  10.961 -0.0559 -0.3277 -0.2824
  137MOL0     H18860  10.832   1.144  10.849 -1.1449 -2.8684  3.3131
  137MOL0     H18861  10.964   1.261  10.876 -0.1684 -2.2574 -0.5635
  137MOL0     H18862  10.996   1.091  11.019  0.4598 -1.6089  1.2881
  137MOL0     H18863  10.910   1.214  11.125 -0.4077  0.5134 -1.6455
  137MOL0     H18864  11.018   1.067  11.247 -0.8360  1.2869 -0.5572
  137MOL0     H18865  11.146   1.001  11.410  0.0411  1.3126  0.7758
  137MOL0     H18866  11.115   0.847  11.497 -0.7988 -1.7770 -1.6539
  137MOL0     H18867  11.048   1.007  11.556 -1.9892  1.0298 -1.7737
  137MOL0     H18868  10.727   0.509  11.609 -1.0929 -2.3078  0.9349
  137MOL0     H18869  10.743   0.328  11.757 -0.6811  0.9641 -0.2984
  137MOL0     H18870  10.832   0.187  11.958  1.0510 -1.8773  2.2579
  137MOL0     H18871  10.808   0.107  11.798  1.7572 -2.4977 -1.2833
  137MOL0     H18872  10.977  -0.073  11.867  0.8089  2.4306 -0.2680
  137MOL0     H18873  11.006   0.032  12.009  0.0266  0.5800  0.1812
  137MOL0     H18874  10.741  -0.111  11.956  0.4323  0.8264 -0.8585
  137MOL0     H18875  10.794  -0.027  12.100  1.5236 -0.8713  0.7992
  137MOL0     H18876  10.973  -0.174  12.148  1.9897 -0.2434 -0.8065
  137MOL0     H18877  10.948  -0.259  12.012  1.0747  1.0691  0.5040
  137MOL0     H18878  10.761  -0.255  12.240 -1.1998  3.5750 -3.2413
  137MOL0     H18879  10.719  -0.321  12.080  1.5242 -3.4290 -0.2939
  137MOL0     H18880  10.880  -0.485  12.089 -2.3753  0.0036 -0.0480
  137MOL0     H18881  10.821  -0.487  12.252  1.5424 -1.9925 -0.5123
  137MOL0     H18882  11.025  -0.343  12.326 -1.0124  0.2769  0.7031
  137MOL0     H18883  11.087  -0.367  12.171  2.5369  0.1710  1.8123
  137MOL0     H18884  10.992  -0.622  12.324  1.1325  0.9442  0.9454
  137MOL0     H18885  11.160  -0.561  12.341  0.9698  0.3773 -0.6705
  137MOL0     H18886  11.169   0.311  11.736  1.2719  2.2886  2.7151
  137MOL0     H18887  11.139   0.519  11.547 -0.3686  0.1654  0.2057
  137MOL0     H18888  10.647   0.777  11.403  0.7842 -2.0824  0.3732
  137MOL0     H18889  10.624   0.907  11.177 -1.4783  0.9299  2.6749
  137MOL0     H18890   9.391   1.405  10.060 -1.0342  0.4047  0.1366
  137MOL0     H18891   9.349   1.423   9.831  2.7206 -0.5513 -2.4609
  137MOL0     H18892   9.408   1.557   9.416  1.2504  0.7497  1.3271
  137MOL0     H18893   9.484   1.561   9.198 -0.1884 -2.0325  2.6683
  137MOL0     H18894   9.603   1.832   8.895  1.3366 -2.6551  1.0507
  137MOL0     H18895   9.586   1.947   9.030 -0.3671 -0.1005  1.1469
  137MOL0     H18896   9.819   1.951   9.075 -0.1362  0.6118  0.6213
  137MOL0     H18897   9.816   1.956   8.896  0.6886 -2.4299 -0.7815
  137MOL0     H18898   9.875   1.693   9.045  2.4288 -0.4792 -0.4686
  137MOL0     H18899   9.858   1.714   8.874  1.3483  0.1850 -1.0682
  137MOL0     H18900  10.092   1.716   8.954 -0.4657 -0.3716 -1.4125
  137MOL0     H18901  10.066   1.846   9.070 -1.3882  2.2816 -1.2913
  137MOL0     H18902  10.122   2.050   8.707 -1.5230  1.9535  1.3310
  137MOL0     H18903   9.628   1.959   9.237 -0.9204  1.2728 -0.0057
  137MOL0     H18904   9.466   2.032   9.518 -1.2342 -1.5107  0.0729
  137MOL0     H18905   9.611   1.968   9.599  1.3113  1.3212 -1.2277
  137MOL0     H18906   9.624   2.066   9.447 -0.1159 -2.2642 -2.6718
  138MOL0     O18907   0.479  10.193   6.559  0.3480 -0.8482  0.2452
  138MOL0     C18908   0.389  10.244   6.487 -0.2276  0.7802  0.2573
  138MOL0     O18909   0.416  10.350   6.408 -0.3323 -0.3291  0.2385
  138MOL0     C18910   0.548  10.383   6.372  0.1754  0.0934 -0.0024
  138MOL0     C18911   0.586  10.365   6.231 -0.1444 -0.3932  0.3751
  138MOL0     C18912   0.710  10.397   6.177 -0.1692 -0.3601 -0.3208
  138MOL0     C18913   0.804  10.446   6.265  0.4411 -0.3928  0.2934
  138MOL0     O18914   0.942  10.481   6.235 -0.3891 -0.7679 -0.2489
  138MOL0     C18915   0.982  10.467   6.103  0.2152 -0.1327 -0.2289
  138MOL0     C18916   1.086  10.350   6.085  0.6117 -0.3247 -0.0284
  138MOL0     C18917   1.214  10.383   6.164 -0.3860  0.2819  0.0130
  138MOL0     C18918   1.313  10.467   6.086 -0.0630  0.3492  0.3626
  138MOL0     C18919   1.447  10.490   6.159  0.2419 -0.1913  0.5883
  138MOL0     C18920   1.434  10.552   6.303  0.9123 -0.3164  0.2290
  138MOL0     C18921   1.572  10.601   6.345  0.9545 -0.9349 -0.3045
  138MOL0     C18922   1.581  10.636   6.495 -0.8147  0.1748  0.1382
  138MOL0     N18923   1.603  10.531   6.592  0.1186  0.0067  0.0770
  138MOL0     C18924   1.720  10.455   6.604 -0.5954 -0.6133  0.6186
  138MOL0     C18925   1.687  10.345   6.679  0.1664 -0.3626 -0.4422
  138MOL0     C18926   1.787  10.237   6.713  0.3174  0.9744 -0.2535
  138MOL0     C18927   1.867  10.182   6.588 -1.5988 -0.6087  0.5247
  138MOL0     C18928   1.785  10.069   6.509 -0.1152  0.6593 -0.0749
  138MOL0     C18929   1.808  10.074   6.361 -0.0469  0.6276 -0.0142
  138MOL0     O18930   1.732  10.173   6.298 -0.4551 -0.4225 -0.0574
  138MOL0     C18931   1.616  10.134   6.235  0.6067  1.2839 -0.5361
  138MOL0     C18932   1.612  10.131   6.094  0.6508 -0.8645  0.2210
  138MOL0     C18933   1.495  10.080   6.016 -0.0615 -1.1856 -0.4936
  138MOL0     C18934   1.511  10.074   5.867  1.0952 -0.1810 -0.0362
  138MOL0     C18935   1.380  10.040   6.092 -0.4294 -0.0431 -0.0827
  138MOL0     C18936   1.267   9.969   6.015  0.8554  0.2350  0.6768
  138MOL0     O18937   1.146  10.023   6.051 -0.3919 -0.0043  0.0918
  138MOL0     C18938   1.032  10.005   5.978  0.5742  0.4563  0.2276
  138MOL0     C18939   0.911  10.011   6.045 -0.7085  0.9556 -0.4702
  138MOL0     C18940   0.792   9.958   5.991  0.0621 -0.5383 -0.1305
  138MOL0     C18941   0.794   9.930   5.850  1.1849  0.2010 -0.2668
  138MOL0     O18942   0.673   9.899   5.787 -0.4701  0.1447  0.8751
  138MOL0     C18943   0.552   9.870   5.861  0.2235 -0.0141 -0.3879
  138MOL0     C18944   0.483  10.002   5.907 -1.4037  0.8712  0.6416
  138MOL0     C18945   0.393   9.969   6.021  0.7348  0.3767  0.1399
  138MOL0     C18946   0.274   9.888   5.989  0.3498 -0.2579  0.0066
  138MOL0     C18947   0.190   9.851   6.111 -0.1351  0.5575  0.2450
  138MOL0     C18948   0.116   9.963   6.183 -0.2865 -0.3600 -0.2658
  138MOL0     C18949   0.062  10.072   6.083  0.1247  0.3004 -0.7709
  138MOL0     C18950  -0.057  10.026   6.001 -0.0923 -0.4898  0.4079
  138MOL0    Cl18951  -0.205   9.983   6.108  0.3628 -0.0790 -0.4561
  138MOL0     C18952   0.911   9.931   5.781 -0.4406  0.2885  0.1150
  138MOL0     C18953   1.031   9.966   5.842 -0.5864 -0.1826 -0.6598
  138MOL0     O18954   1.290   9.868   5.949  0.0694 -0.6381  0.3161
  138MOL0     C18955   1.380  10.053   6.228  0.0353  0.4900 -0.2766
  138MOL0     C18956   1.492  10.096   6.296 -0.4155  0.3126  0.3460
  138MOL0     N18957   1.548  10.357   6.701 -0.4679  0.8641  0.6433
  138MOL0     N18958   1.497  10.471   6.650 -0.3030  0.2845 -0.4719
  138MOL0     C18959   0.769  10.466   6.395  0.6224  0.0179  0.0790
  138MOL0     C18960   0.647  10.424   6.456  0.6069  0.0601  1.5625
  138MOL0     C18961   0.258  10.176   6.493 -0.1810 -0.8017 -0.0972
  138MOL0     C18962   0.144  10.256   6.440  0.1587  1.2853 -0.2332
  138MOL0     C18963   0.013  10.202   6.433  1.1624 -0.2504 -0.1363
  138MOL0     C18964  -0.008  10.071   6.477 -0.2582 -0.3375 -0.4187
  138MOL0     O18965  -0.132  10.015   6.487 -0.8375  0.2214 -0.0545
  138MOL0     C18966  -0.250  10.093   6.464 -0.4447  0.0084  0.5735
  138MOL0     C18967  -0.364  10.017   6.520  0.7490  0.7926  0.1103
  138MOL0     C18968  -0.493  10.092   6.517 -0.3364 -0.3782 -0.1684
  138MOL0     C18969  -0.610  10.024   6.595  0.4140 -0.7175 -0.2820
  138MOL0     C18970  -0.729  10.124   6.588  0.0499  0.7314 -0.9322
  138MOL0     C18971  -0.823  10.201   6.578 -1.0215 -0.1966  0.4995
  138MOL0     C18972   0.106   9.993   6.516  0.5012  0.7778 -0.6325
  138MOL0     C18973   0.228  10.043   6.532 -0.3521 -0.6010 -0.0596
  138MOL0     C18974   0.333   9.951   6.589  0.2742  0.6557  0.1261
  138MOL0     H18975   0.519  10.315   6.161  1.4420 -1.1195 -0.6968
  138MOL0     H18976   0.724  10.366   6.074 -1.0051  0.0202 -0.5595
  138MOL0     H18977   1.037  10.559   6.080 -0.3937  0.3512  0.2258
  138MOL0     H18978   0.900  10.455   6.032 -0.3441 -3.3253  0.7917
  138MOL0     H18979   1.045  10.257   6.125  1.7698 -1.4635 -1.4098
  138MOL0     H18980   1.114  10.319   5.984  0.2903 -4.2274  0.9322
  138MOL0     H18981   1.198  10.422   6.266  0.8495 -2.5469  1.3914
  138MOL0     H18982   1.264  10.288   6.184 -0.3407  0.4257  0.6060
  138MOL0     H18983   1.327  10.414   5.992 -0.9507 -0.2510  0.5512
  138MOL0     H18984   1.268  10.562   6.058  0.5619  0.4374 -0.3751
  138MOL0     H18985   1.499  10.562   6.096 -0.0809 -2.4160 -2.4663
  138MOL0     H18986   1.504  10.396   6.159  0.5448 -0.0155 -0.0547
  138MOL0     H18987   1.381  10.647   6.291  2.8837  0.6949 -1.0341
  138MOL0     H18988   1.395  10.489   6.383 -2.2429 -0.1885 -1.0656
  138MOL0     H18989   1.580  10.694   6.289 -3.0743  0.8011  1.6211
  138MOL0     H18990   1.649  10.528   6.317  0.8716 -0.1121 -2.9886
  138MOL0     H18991   1.661  10.709   6.511 -0.6742  0.5838 -2.0248
  138MOL0     H18992   1.490  10.691   6.520 -2.0643 -1.2766 -0.9954
  138MOL0     H18993   1.811  10.483   6.553 -0.2013  0.7167  1.9935
  138MOL0     H18994   1.738  10.156   6.768  1.6502 -0.0646 -0.5512
  138MOL0     H18995   1.858  10.286   6.780 -0.4355 -1.0919  2.1930
  138MOL0     H18996   1.872  10.260   6.511 -3.1006 -2.6051 -1.7300
  138MOL0     H18997   1.963  10.153   6.632 -2.3364 -0.7786  2.0928
  138MOL0     H18998   1.826   9.972   6.538 -0.5002  0.8586  1.2146
  138MOL0     H18999   1.677  10.069   6.526 -0.1543  2.2167 -0.1180
  138MOL0     H19000   1.916  10.088   6.365  0.3373 -1.9689  0.6431
  138MOL0     H19001   1.806   9.974   6.316  4.4906  0.5317 -0.4729
  138MOL0     H19002   1.702  10.160   6.041 -0.3139  1.0202 -0.4470
  138MOL0     H19003   1.589  10.141   5.830 -1.4238  1.9507 -1.9232
  138MOL0     H19004   1.413  10.101   5.828  0.8070 -1.2103 -0.0707
  138MOL0     H19005   1.531   9.970   5.837 -0.2150 -0.7215  0.8543
  138MOL0     H19006   0.904  10.051   6.146 -1.4705  0.2628 -0.2401
  138MOL0     H19007   0.702   9.941   6.049 -1.5518 -0.0863 -2.3554
  138MOL0     H19008   0.484   9.806   5.805  1.3514 -1.8794  0.2796
  138MOL0     H19009   0.570   9.802   5.945 -2.8872 -1.9535 -1.1215
  138MOL0     H19010   0.552  10.076   5.947 -0.6064 -0.5311  1.9729
  138MOL0     H19011   0.419  10.034   5.824  1.0195  1.9407 -0.9061
  138MOL0     H19012   0.373  10.060   6.079  1.1419 -0.3739  1.4804
  138MOL0     H19013   0.452   9.918   6.098  1.2885  3.5611  2.0217
  138MOL0     H19014   0.316   9.804   5.933  0.4578 -0.7542  0.8274
  138MOL0     H19015   0.207   9.934   5.915 -0.2969 -1.5930 -0.2583
  138MOL0     H19016   0.117   9.779   6.075  0.9078 -0.1535 -0.5065
  138MOL0     H19017   0.258   9.814   6.189  0.3055 -0.2203 -0.4940
  138MOL0     H19018   0.176  10.022   6.253 -0.6618  0.2671 -0.4625
  138MOL0     H19019   0.035   9.914   6.239 -0.3012  0.6496  0.6291
  138MOL0     H19020   0.144  10.106   6.021  1.5734  0.8665  1.3396
  138MOL0     H19021   0.028  10.149   6.153  2.3968  1.2508 -0.6476
  138MOL0     H19022  -0.041   9.943   5.931  2.0257 -0.4648  0.8023
  138MOL0     H19023  -0.084  10.113   5.940  1.1889  0.7728  1.5766
  138MOL0     H19024   0.913   9.893   5.679  0.2859  1.8290 -0.4661
  138MOL0     H19025   1.129   9.972   5.794  0.8690  0.4184  2.1994
  138MOL0     H19026   1.291  10.043   6.289  0.1379  0.4186 -0.1370
  138MOL0     H19027   1.499  10.119   6.402 -0.4029  0.9340  0.2108
  138MOL0     H19028   0.844  10.520   6.453  0.2927  0.6986 -0.1215
  138MOL0     H19029   0.636  10.438   6.563 -2.4373  1.7108  1.1462
  138MOL0     H19030   0.153  10.361   6.412  3.7174  1.2046  0.0942
  138MOL0     H19031  -0.069  10.267   6.407  0.6996 -1.2612 -1.2928
  138MOL0     H19032  -0.253  10.184   6.526 -1.5784 -0.5460  1.3638
  138MOL0     H19033  -0.264  10.116   6.358 -2.3753 -0.1150  0.7785
  138MOL0     H19034  -0.340   9.991   6.624 -1.1499  0.0207  0.4125
  138MOL0     H19035  -0.367   9.922   6.466  1.1790  1.6252 -1.4433
  138MOL0     H19036  -0.462  10.188   6.560  0.7986 -0.6029 -0.4483
  138MOL0     H19037  -0.530  10.112   6.416  2.8343 -0.7678 -1.5310
  138MOL0     H19038  -0.597  10.007   6.702 -0.0678 -0.5294 -0.1874
  138MOL0     H19039  -0.629   9.929   6.545 -1.5263 -1.5836  1.8861
  138MOL0     H19040  -0.901  10.272   6.560 -1.7874 -1.4900 -1.6988
  138MOL0     H19041   0.071   9.896   6.549  0.9717  1.6814  2.9289
  138MOL0     H19042   0.406   9.924   6.512  1.9150  1.1927  1.4497
  138MOL0     H19043   0.384   9.998   6.673 -0.9474 -1.3075  2.0979
  138MOL0     H19044   0.279   9.861   6.622  1.0852 -0.4628 -1.4640
  139MOL0     O19045   9.915   9.815   9.378  0.1297  0.3620 -0.4138
  139MOL0     C19046   9.796   9.805   9.361 -0.6246 -0.8435 -0.1097
  139MOL0     O19047   9.737   9.732   9.263  0.3439  0.0533 -0.0749
  139MOL0     C19048   9.795   9.619   9.210  0.6328  0.4541 -0.0667
  139MOL0     C19049   9.865   9.536   9.303 -1.4086 -0.2638 -0.1597
  139MOL0     C19050   9.928   9.427   9.251 -0.0532 -0.3932  0.8426
  139MOL0     C19051   9.916   9.390   9.111 -0.1466 -1.3043  0.0695
  139MOL0     O19052   9.984   9.281   9.067  0.4077 -0.6585 -0.1435
  139MOL0     C19053  10.115   9.254   9.113 -0.8256  0.4497  0.2985
  139MOL0     C19054  10.201   9.157   9.029  0.1751 -0.0009  0.1305
  139MOL0     C19055  10.306   9.085   9.111  0.2563  0.1360 -0.3735
  139MOL0     C19056  10.420   9.176   9.168  0.6132  0.6375  0.6636
  139MOL0     C19057  10.530   9.093   9.224  1.0607  0.6868 -0.6141
  139MOL0     C19058  10.631   9.190   9.286  0.3504  0.1620  0.0191
  139MOL0     C19059  10.597   9.263   9.416  0.2348 -0.2772  0.6285
  139MOL0     C19060  10.557   9.172   9.533  0.2348 -0.3190 -0.0352
  139MOL0     N19061  10.645   9.053   9.551 -0.4588 -0.0893  0.3475
  139MOL0     C19062  10.742   9.058   9.640 -0.0885  0.4466 -0.5712
  139MOL0     C19063  10.759   8.936   9.697 -0.2419 -0.0070 -0.3965
  139MOL0     C19064  10.861   8.904   9.801 -0.3080 -0.3441 -0.3766
  139MOL0     C19065  10.965   8.800   9.766 -1.0073 -0.6502  0.1342
  139MOL0     C19066  11.060   8.849   9.657 -0.0607 -0.1411  0.2133
  139MOL0     C19067  11.185   8.766   9.637 -0.4444  0.2548  1.2116
  139MOL0     O19068  11.156   8.644   9.573  0.2313  0.4348  0.4576
  139MOL0     C19069  11.262   8.561   9.583 -0.1314 -0.4682  0.3324
  139MOL0     C19070  11.380   8.587   9.506 -0.4916  1.5914  1.1062
  139MOL0     C19071  11.481   8.490   9.511 -1.1427  0.3124 -0.5005
  139MOL0     C19072  11.601   8.527   9.435  0.6479  0.4495  0.8048
  139MOL0     C19073  11.470   8.375   9.597  0.0518 -0.8595  0.1667
  139MOL0     C19074  11.576   8.273   9.605  0.8442 -0.8727  0.0260
  139MOL0     O19075  11.525   8.154   9.636  0.5011 -0.0468  0.1141
  139MOL0     C19076  11.592   8.039   9.640  0.5316 -0.1818  0.8148
  139MOL0     C19077  11.726   8.041   9.668 -0.6994 -0.4625 -0.2176
  139MOL0     C19078  11.802   7.927   9.661  0.7543 -0.7244  0.0792
  139MOL0     C19079  11.739   7.805   9.613  0.2059 -1.2650 -0.3261
  139MOL0     O19080  11.821   7.692   9.607 -0.8266 -1.2447 -0.4015
  139MOL0     C19081  11.771   7.564   9.621 -0.3859 -0.1191 -0.1757
  139MOL0     C19082  11.880   7.459   9.604 -1.5271 -0.3877  0.9762
  139MOL0     C19083  11.948   7.457   9.464  1.2401  0.0998  0.2194
  139MOL0     C19084  11.877   7.366   9.360 -0.3766  0.3926  0.1634
  139MOL0     C19085  11.950   7.363   9.230 -1.0408  1.0198  0.6033
  139MOL0     C19086  11.977   7.503   9.174 -0.8442 -0.9245  0.9437
  139MOL0     C19087  12.030   7.495   9.035 -0.1092 -0.8714 -0.0179
  139MOL0     C19088  12.081   7.624   8.977 -0.4129  0.1270 -0.3022
  139MOL0    Cl19089  12.236   7.669   9.042  0.0838  0.1877 -0.1655
  139MOL0     C19090  11.606   7.810   9.573 -0.1195  0.2482 -0.0295
  139MOL0     C19091  11.531   7.922   9.591 -0.3101  0.5063  0.1052
  139MOL0     O19092  11.693   8.296   9.575  0.2655 -0.3748 -0.1103
  139MOL0     C19093  11.348   8.358   9.665 -0.2606  0.3660  0.0341
  139MOL0     C19094  11.251   8.451   9.668 -0.1749 -0.7987 -0.3935
  139MOL0     N19095  10.677   8.852   9.638 -0.6885  0.2786 -0.0415
  139MOL0     N19096  10.606   8.927   9.554  0.5982 -0.7311  0.2692
  139MOL0     C19097   9.835   9.467   9.025  0.1012 -0.8343 -0.2076
  139MOL0     C19098   9.779   9.579   9.071 -0.9247  0.2989 -0.8390
  139MOL0     C19099   9.710   9.901   9.438 -0.6617  0.7125  0.0857
  139MOL0     C19100   9.590   9.937   9.370 -1.0182  0.0991  0.5732
  139MOL0     C19101   9.497  10.011   9.447  0.0496 -0.1350  0.9379
  139MOL0     C19102   9.520  10.076   9.571 -0.1221 -0.2660  0.6881
  139MOL0     O19103   9.432  10.156   9.639  0.8112 -0.2509 -0.0848
  139MOL0     C19104   9.284  10.144   9.616 -0.0279 -0.0818 -1.0608
  139MOL0     C19105   9.210  10.244   9.723 -0.5178 -0.0306 -0.0076
  139MOL0     C19106   9.243  10.392   9.702 -0.1092 -0.5177  0.1747
  139MOL0     C19107   9.193  10.481   9.821 -0.8258 -0.9497  0.1809
  139MOL0     C19108   9.053  10.469   9.847  0.5141 -0.9191 -0.5700
  139MOL0     C19109   8.931  10.479   9.852  0.0825  0.2895  0.1184
  139MOL0     C19110   9.644  10.045   9.624  0.2457 -0.6431 -0.4093
  139MOL0     C19111   9.738   9.954   9.567 -0.2796 -0.6238  0.5861
  139MOL0     C19112   9.869   9.936   9.642  0.3074  0.8797 -1.0427
  139MOL0     H19113   9.872   9.551   9.410 -1.7960  1.1124 -0.3135
  139MOL0     H19114   9.994   9.363   9.310  0.5373 -1.8103 -1.2456
  139MOL0     H19115  10.113   9.228   9.219 -1.5976  1.2008  0.4836
  139MOL0     H19116  10.171   9.348   9.119 -2.4377  1.4439  0.7090
  139MOL0     H19117  10.133   9.093   8.972  0.4209  0.8256 -1.1169
  139MOL0     H19118  10.246   9.211   8.946  0.9705  1.8162  1.6722
  139MOL0     H19119  10.271   9.031   9.199  1.0734 -2.6958 -1.6762
  139MOL0     H19120  10.353   9.009   9.049 -0.2284  0.1504 -0.7693
  139MOL0     H19121  10.460   9.237   9.086 -0.7124 -1.2704 -1.5302
  139MOL0     H19122  10.378   9.247   9.240 -4.2832 -1.3349  0.1565
  139MOL0     H19123  10.576   9.034   9.144 -1.4797 -0.5383 -1.2772
  139MOL0     H19124  10.495   9.030   9.306 -0.1512  0.0880 -1.5563
  139MOL0     H19125  10.721   9.132   9.310 -0.6643 -0.9795  1.2238
  139MOL0     H19126  10.658   9.269   9.215 -1.4809 -1.0597 -2.1541
  139MOL0     H19127  10.510   9.328   9.403  2.3687  3.3770  3.0091
  139MOL0     H19128  10.676   9.331   9.446  0.9445 -0.4328 -0.7903
  139MOL0     H19129  10.563   9.227   9.628  0.5820  1.7312 -1.1727
  139MOL0     H19130  10.452   9.149   9.514 -0.1098  2.4622 -2.1891
  139MOL0     H19131  10.804   9.143   9.669  0.0022  0.4620 -0.8023
  139MOL0     H19132  10.799   8.861   9.880 -1.4996 -1.4234 -1.8408
  139MOL0     H19133  10.919   8.989   9.838  0.8022 -1.4129  0.4054
  139MOL0     H19134  11.022   8.780   9.858 -2.2600 -0.9220  0.8811
  139MOL0     H19135  10.919   8.704   9.738  0.4411 -2.0295  2.1479
  139MOL0     H19136  11.003   8.871   9.566  0.7632  0.1664 -0.2407
  139MOL0     H19137  11.104   8.947   9.678  1.6402 -0.2540 -2.2909
  139MOL0     H19138  11.247   8.826   9.571  0.2230 -0.0457  1.5529
  139MOL0     H19139  11.228   8.751   9.737 -0.3640 -1.3556  0.9689
  139MOL0     H19140  11.390   8.673   9.440  1.9253 -1.1106 -2.3862
  139MOL0     H19141  11.687   8.547   9.500  2.2005 -2.6343 -0.0914
  139MOL0     H19142  11.591   8.609   9.363  2.5152 -2.7264 -3.5123
  139MOL0     H19143  11.626   8.440   9.374  0.3012  3.0160 -3.4347
  139MOL0     H19144  11.774   8.124   9.719 -0.8948 -0.7695  0.4791
  139MOL0     H19145  11.909   7.915   9.677  0.9067  0.4663  0.0251
  139MOL0     H19146  11.739   7.553   9.725  0.3577  1.4056  0.2391
  139MOL0     H19147  11.677   7.552   9.567  0.0581 -0.2238 -0.9338
  139MOL0     H19148  11.963   7.468   9.675  0.4596 -1.4446 -1.0519
  139MOL0     H19149  11.838   7.360   9.626  1.6274 -2.8224 -2.6071
  139MOL0     H19150  12.048   7.414   9.472 -0.1440 -3.9533 -1.8315
  139MOL0     H19151  11.959   7.562   9.433 -0.7875  0.0865 -0.7284
  139MOL0     H19152  11.769   7.385   9.356 -0.5018 -0.3043  0.0159
  139MOL0     H19153  11.890   7.263   9.394  1.3200 -0.3797 -2.5002
  139MOL0     H19154  12.048   7.316   9.243 -0.9947  0.7785 -0.5336
  139MOL0     H19155  11.891   7.301   9.163  0.3774 -1.7659  1.7801
  139MOL0     H19156  12.043   7.563   9.238 -0.8655  0.0055  0.1264
  139MOL0     H19157  11.883   7.558   9.184  0.1643  0.5847  2.7689
  139MOL0     H19158  11.950   7.466   8.966  0.3360 -1.8287 -0.1484
  139MOL0     H19159  12.104   7.414   9.030 -1.1239 -1.7641 -1.8023
  139MOL0     H19160  12.011   7.701   9.009  1.9679  0.7509  4.1023
  139MOL0     H19161  12.082   7.622   8.867 -1.4386 -1.1927 -0.3156
  139MOL0     H19162  11.563   7.715   9.543 -0.6591 -0.2702  2.2162
  139MOL0     H19163  11.427   7.925   9.560 -0.8645 -0.3879  1.7405
  139MOL0     H19164  11.338   8.278   9.737  0.6654  0.1491 -0.0643
  139MOL0     H19165  11.154   8.449   9.716 -0.0028 -0.1473 -0.0095
  139MOL0     H19166   9.818   9.435   8.922  0.2074  1.1052 -0.8703
  139MOL0     H19167   9.717   9.644   9.011 -3.6317 -2.0990 -0.8272
  139MOL0     H19168   9.538   9.895   9.285 -0.6710 -2.6463  1.6246
  139MOL0     H19169   9.398  10.028   9.405 -0.7614 -0.8974  2.4604
  139MOL0     H19170   9.250  10.171   9.516  1.3370  0.7640 -1.3359
  139MOL0     H19171   9.260  10.041   9.643  1.7872 -0.2186  0.2250
  139MOL0     H19172   9.235  10.219   9.827  0.3637 -1.9323 -0.6296
  139MOL0     H19173   9.101  10.237   9.710 -0.2486  0.7642 -3.8685
  139MOL0     H19174   9.349  10.415   9.690  0.3925 -2.4225  0.6818
  139MOL0     H19175   9.189  10.415   9.610 -1.5874 -0.2905  1.0495
  139MOL0     H19176   9.220  10.584   9.795 -1.8880 -1.0984 -1.7269
  139MOL0     H19177   9.258  10.450   9.903  0.7389  4.2507  1.2736
  139MOL0     H19178   8.825  10.478   9.870 -0.0329 -2.1917 -0.3342
  139MOL0     H19179   9.659  10.093   9.720 -0.5821  0.6139 -0.8686
  139MOL0     H19180   9.854   9.966   9.746  0.6739  0.3382 -0.8288
  139MOL0     H19181   9.877   9.827   9.645 -1.1584  0.6899 -2.5767
  139MOL0     H19182   9.954   9.982   9.591  1.0426 -0.8009 -1.4033
  140MOL0     O19183   9.746   0.873   7.797  0.1714  0.8425  0.3403
  140MOL0     C19184   9.729   0.914   7.910 -0.0340 -0.2402 -0.4482
  140MOL0     O19185   9.820   0.997   7.985  0.4753 -0.4974  0.0799
  140MOL0     C19186   9.905   1.086   7.933 -1.1342  0.1876  0.2517
  140MOL0     C19187  10.009   1.121   8.023  0.6937  0.0948 -0.1486
  140MOL0     C19188  10.097   1.211   7.978  0.1713 -0.0468 -0.8619
  140MOL0     C19189  10.089   1.286   7.862 -0.0396 -0.4016 -0.4724
  140MOL0     O19190  10.172   1.390   7.852  0.4157  0.3242 -0.2519
  140MOL0     C19191  10.225   1.396   7.715  0.6048 -0.1474 -0.2216
  140MOL0     C19192  10.358   1.458   7.708  0.4605 -0.3962 -0.4100
  140MOL0     C19193  10.412   1.473   7.561 -0.2276 -0.8057  0.0350
  140MOL0     C19194  10.543   1.560   7.544  0.3314 -0.0647  0.2259
  140MOL0     C19195  10.507   1.711   7.530 -0.1452 -0.8551 -0.4059
  140MOL0     C19196  10.637   1.802   7.525 -0.0626 -0.8778 -0.3176
  140MOL0     C19197  10.614   1.953   7.560  0.2989 -0.2779 -0.9688
  140MOL0     C19198  10.554   2.040   7.442  0.8763  0.1483 -1.1522
  140MOL0     N19199  10.481   2.158   7.506  0.0197  0.5784  0.5402
  140MOL0     C19200  10.556   2.260   7.561  0.8999 -0.2675  0.4598
  140MOL0     C19201  10.465   2.339   7.611  0.3804 -0.3064 -0.1116
  140MOL0     C19202  10.498   2.472   7.680 -0.8352  0.5881 -0.5737
  140MOL0     C19203  10.499   2.587   7.577  0.5076 -0.3004 -0.4413
  140MOL0     C19204  10.367   2.614   7.513  0.4964 -0.3699  0.5685
  140MOL0     C19205  10.355   2.761   7.468  0.1036 -0.7937  0.4534
  140MOL0     O19206  10.327   2.834   7.590  0.3350  0.6876 -0.4551
  140MOL0     C19207  10.403   2.944   7.635 -0.0313  0.8326  0.0947
  140MOL0     C19208  10.480   3.014   7.553 -0.5327 -0.8863  0.5538
  140MOL0     C19209  10.546   3.130   7.599  0.9336 -0.3609  0.1617
  140MOL0     C19210  10.633   3.204   7.500  0.6393 -0.3824 -0.5101
  140MOL0     C19211  10.524   3.181   7.727  0.0218  0.4495  0.4147
  140MOL0     C19212  10.575   3.311   7.777 -0.5198 -0.5671  0.3922
  140MOL0     O19213  10.542   3.344   7.900 -0.8967 -0.1657  1.0522
  140MOL0     C19214  10.477   3.462   7.914 -0.4052 -0.1438 -0.4240
  140MOL0     C19215  10.541   3.587   7.891  0.4322  0.0908  0.5046
  140MOL0     C19216  10.472   3.705   7.926  0.9534 -0.0949 -0.2863
  140MOL0     C19217  10.340   3.700   7.977  0.0902 -0.1797  0.7858
  140MOL0     O19218  10.285   3.826   8.008  0.3260  0.3209 -0.5754
  140MOL0     C19219  10.187   3.835   8.112  1.0163  0.0945  0.8314
  140MOL0     C19220  10.174   3.980   8.127  0.9760  0.6483  0.3795
  140MOL0     C19221  10.072   4.024   8.233  0.1154  0.3864  0.1318
  140MOL0     C19222  10.060   4.171   8.238 -0.7533  0.6059 -0.1837
  140MOL0     C19223   9.968   4.220   8.353  0.1670 -0.7764  0.4004
  140MOL0     C19224   9.928   4.373   8.333 -0.4182  0.7478 -0.5176
  140MOL0     C19225   9.806   4.411   8.413 -0.7743 -0.3091  0.0156
  140MOL0     C19226   9.727   4.525   8.357  1.0396  0.5801 -0.7527
  140MOL0    Cl19227   9.601   4.568   8.471  0.1396  0.2930 -0.6000
  140MOL0     C19228  10.282   3.575   7.984  0.3212 -0.2513 -0.6681
  140MOL0     C19229  10.345   3.456   7.958  0.9328  0.1149  0.1014
  140MOL0     O19230  10.651   3.379   7.710 -0.0329 -0.3376  0.8877
  140MOL0     C19231  10.442   3.104   7.815 -0.1857  0.6338  0.3009
  140MOL0     C19232  10.383   2.981   7.775 -0.6226 -0.6451 -0.9319
  140MOL0     N19233  10.338   2.297   7.595 -0.1184  0.2577 -0.3145
  140MOL0     N19234  10.347   2.189   7.520  0.2531  0.0200 -0.0756
  140MOL0     C19235   9.981   1.258   7.775  0.2455 -0.0066  0.1049
  140MOL0     C19236   9.903   1.149   7.803  0.3039  0.6575  0.0816
  140MOL0     C19237   9.599   0.877   7.967 -0.4374  0.8787  0.6730
  140MOL0     C19238   9.484   0.865   7.891  0.2938  0.3300  1.0538
  140MOL0     C19239   9.364   0.816   7.949  0.2157 -0.5540  0.1107
  140MOL0     C19240   9.357   0.779   8.083  0.6301 -0.6956 -0.5879
  140MOL0     O19241   9.241   0.736   8.134  0.3143 -0.7333  0.7921
  140MOL0     C19242   9.210   0.776   8.273 -0.1540  0.6940  0.4950
  140MOL0     C19243   9.145   0.915   8.290 -0.0340 -0.6778 -0.2874
  140MOL0     C19244   9.006   0.924   8.220 -0.4522 -0.0094  0.4183
  140MOL0     C19245   8.925   1.055   8.230 -0.6378  0.0945 -0.3778
  140MOL0     C19246   8.837   1.049   8.344  0.2832 -0.1601  0.3691
  140MOL0     C19247   8.746   1.037   8.432  0.0140  0.6791  0.7109
  140MOL0     C19248   9.467   0.797   8.162 -0.8921 -0.5335 -0.8526
  140MOL0     C19249   9.589   0.849   8.105  0.1433 -0.2917  0.8654
  140MOL0     C19250   9.703   0.870   8.204 -0.4160  0.2206 -0.7841
  140MOL0     H19251  10.006   1.086   8.125 -0.1549 -0.8440 -0.4801
  140MOL0     H19252  10.181   1.241   8.041  0.5976 -0.1516 -1.3676
  140MOL0     H19253  10.149   1.448   7.655 -1.4840 -1.3700  1.2336
  140MOL0     H19254  10.245   1.296   7.676  2.4012 -0.1403  0.5782
  140MOL0     H19255  10.352   1.562   7.741 -0.0530 -0.5332 -0.0721
  140MOL0     H19256  10.429   1.412   7.777  3.1702 -0.2291 -2.8824
  140MOL0     H19257  10.437   1.371   7.530  0.6168 -0.6138  0.0701
  140MOL0     H19258  10.333   1.510   7.495 -0.2838 -1.9297 -0.5659
  140MOL0     H19259  10.622   1.551   7.618  0.9947 -1.9355 -0.6454
  140MOL0     H19260  10.592   1.522   7.453 -2.1430 -2.6902 -0.1620
  140MOL0     H19261  10.440   1.746   7.609 -1.8584 -1.0565 -1.7169
  140MOL0     H19262  10.450   1.716   7.437 -1.0908 -3.7298 -0.1061
  140MOL0     H19263  10.707   1.764   7.599  1.6428 -0.3233 -1.5767
  140MOL0     H19264  10.691   1.790   7.430  1.2457  0.6971  0.1831
  140MOL0     H19265  10.713   2.000   7.572  0.2994 -0.7743  1.4219
  140MOL0     H19266  10.563   1.963   7.656  0.7197 -1.7438 -0.5698
  140MOL0     H19267  10.636   2.089   7.389  0.0549  0.2383 -2.3786
  140MOL0     H19268  10.510   1.981   7.361 -0.1905 -0.5635 -0.0857
  140MOL0     H19269  10.662   2.276   7.576  0.8268  0.5621  0.1585
  140MOL0     H19270  10.598   2.473   7.723 -1.1953 -3.7017  0.8982
  140MOL0     H19271  10.426   2.484   7.761  0.7588 -0.6446  1.0984
  140MOL0     H19272  10.527   2.676   7.634 -1.3724  1.2267 -1.7675
  140MOL0     H19273  10.569   2.567   7.496 -0.6700  0.2698 -1.6440
  140MOL0     H19274  10.347   2.549   7.427  0.6478 -1.5032  1.3663
  140MOL0     H19275  10.287   2.591   7.584 -0.9528 -1.3772 -1.3057
  140MOL0     H19276  10.442   2.801   7.416 -0.0319 -2.2091 -0.9229
  140MOL0     H19277  10.271   2.773   7.399  1.0284 -0.6374 -0.6674
  140MOL0     H19278  10.508   2.986   7.452  2.9879  1.7893  0.5824
  140MOL0     H19279  10.728   3.226   7.550 -0.0405  0.2646  0.5322
  140MOL0     H19280  10.594   3.299   7.462 -0.8056 -0.8067 -0.1131
  140MOL0     H19281  10.652   3.140   7.413  2.3289 -0.5230 -0.0730
  140MOL0     H19282  10.644   3.603   7.858  0.4380  0.9345  0.8860
  140MOL0     H19283  10.517   3.803   7.918  1.5504 -0.3357 -0.0134
  140MOL0     H19284  10.098   3.791   8.066  2.4162 -1.0407 -0.9536
  140MOL0     H19285  10.214   3.786   8.206  3.0539 -1.6792 -0.5626
  140MOL0     H19286  10.268   4.021   8.166  0.5010  2.2249 -0.0433
  140MOL0     H19287  10.153   4.027   8.030 -0.7668 -0.1968  0.3165
  140MOL0     H19288  10.102   3.983   8.330  0.0626 -1.8538 -0.7260
  140MOL0     H19289   9.971   3.989   8.210  0.5504 -0.7230 -0.1457
  140MOL0     H19290  10.026   4.191   8.136  0.9179 -1.7520 -1.2711
  140MOL0     H19291  10.157   4.218   8.258 -1.2515  1.2702  0.7901
  140MOL0     H19292   9.874   4.164   8.352 -1.4602  1.7970  0.2089
  140MOL0     H19293  10.012   4.203   8.451 -1.8586 -0.3726  1.4235
  140MOL0     H19294   9.909   4.387   8.226 -2.0477 -1.2546 -0.5676
  140MOL0     H19295  10.010   4.438   8.364 -1.3087  2.5049 -1.7152
  140MOL0     H19296   9.838   4.452   8.509 -0.8469  0.5111 -0.3021
  140MOL0     H19297   9.740   4.325   8.427 -1.5935  0.3516  0.3118
  140MOL0     H19298   9.681   4.500   8.261 -0.2272 -1.2759  0.2732
  140MOL0     H19299   9.785   4.617   8.347 -0.3514  1.3960 -1.7371
  140MOL0     H19300  10.184   3.567   8.029  0.6895  0.4885  0.3016
  140MOL0     H19301  10.294   3.363   7.980 -2.0669  1.5191 -0.4222
  140MOL0     H19302  10.411   3.149   7.909  1.7989  1.2182  0.7187
  140MOL0     H19303  10.325   2.930   7.851 -1.1079  2.8580  1.2932
  140MOL0     H19304   9.953   1.322   7.692 -3.0913 -1.2469  0.1076
  140MOL0     H19305   9.820   1.132   7.735 -0.9253  5.4985  0.0444
  140MOL0     H19306   9.481   0.879   7.783  1.6344  1.8615  1.1903
  140MOL0     H19307   9.274   0.796   7.892  0.6795  1.0163 -1.2713
  140MOL0     H19308   9.136   0.702   8.305  1.5700 -1.9544 -1.2572
  140MOL0     H19309   9.294   0.767   8.343 -0.0893  0.8152  0.4325
  140MOL0     H19310   9.215   0.991   8.255 -0.2108 -1.4758 -2.5321
  140MOL0     H19311   9.123   0.938   8.395  0.1242 -2.6002  0.2101
  140MOL0     H19312   9.014   0.911   8.112  0.1257  1.5279  0.2559
  140MOL0     H19313   8.941   0.846   8.262  0.8569 -1.4879 -0.2396
  140MOL0     H19314   8.863   1.056   8.139 -1.5591  0.5324  0.2414
  140MOL0     H19315   8.988   1.144   8.234 -2.1924  1.3835 -2.5524
  140MOL0     H19316   8.659   1.037   8.495  0.2463 -0.2897  1.0591
  140MOL0     H19317   9.464   0.777   8.269 -1.1409  0.6857 -0.6249
  140MOL0     H19318   9.789   0.811   8.170 -1.0261 -1.3096  0.2752
  140MOL0     H19319   9.731   0.974   8.222 -0.0563 -0.0806  0.4507
  140MOL0     H19320   9.677   0.836   8.304  1.7229  1.9345  0.4684
  141MOL0     O19321   4.957   9.235   2.273 -0.3466 -0.4157  0.6148
  141MOL0     C19322   4.860   9.286   2.330  0.1696 -0.0433  0.8030
  141MOL0     O19323   4.735   9.246   2.314  0.8348 -0.2640  0.5222
  141MOL0     C19324   4.714   9.110   2.320 -0.2552  0.4899 -0.2019
  141MOL0     C19325   4.722   9.027   2.209  0.3705  0.3534  1.2178
  141MOL0     C19326   4.683   8.892   2.214 -0.4320 -1.2634 -0.8607
  141MOL0     C19327   4.646   8.842   2.342  0.3475 -0.0035  0.3750
  141MOL0     O19328   4.620   8.703   2.340  0.7774  0.0913  0.4454
  141MOL0     C19329   4.533   8.636   2.438 -0.1632 -0.2196  0.3378
  141MOL0     C19330   4.613   8.537   2.514  0.5968  0.4732 -1.2400
  141MOL0     C19331   4.699   8.586   2.636  0.4413  0.2573 -0.6902
  141MOL0     C19332   4.754   8.472   2.714  0.2861  0.6508  0.0359
  141MOL0     C19333   4.833   8.529   2.836  0.3806  0.5232 -0.0107
  141MOL0     C19334   4.970   8.584   2.804  0.4079 -0.4219  0.4779
  141MOL0     C19335   5.086   8.487   2.787 -1.1347  0.6568  0.2668
  141MOL0     C19336   5.112   8.412   2.918 -0.1767 -0.5572  0.3630
  141MOL0     N19337   5.251   8.369   2.927  0.2057  0.5886 -0.3266
  141MOL0     C19338   5.278   8.240   2.906 -0.3841  1.1958  0.4282
  141MOL0     C19339   5.416   8.226   2.906 -1.0704 -0.0175  0.4548
  141MOL0     C19340   5.495   8.103   2.854 -0.6583 -0.1900 -0.0840
  141MOL0     C19341   5.530   8.125   2.705  0.4946 -1.0503 -0.2079
  141MOL0     C19342   5.505   8.000   2.617 -0.3638 -0.4459 -0.2264
  141MOL0     C19343   5.361   7.941   2.598 -0.5663 -0.0646 -1.2335
  141MOL0     O19344   5.255   8.037   2.618 -0.5378  0.2351 -0.7015
  141MOL0     C19345   5.128   8.000   2.615 -0.1943 -0.6600 -0.3093
  141MOL0     C19346   5.084   7.874   2.589 -0.0817 -0.0806  0.1913
  141MOL0     C19347   4.946   7.838   2.586 -0.7089  0.7230 -0.0372
  141MOL0     C19348   4.909   7.688   2.580 -0.1816 -0.0652 -0.0969
  141MOL0     C19349   4.855   7.940   2.597 -0.2944  0.5549 -0.9400
  141MOL0     C19350   4.712   7.936   2.611  1.1931  1.0444  0.0326
  141MOL0     O19351   4.647   8.055   2.600  0.4100  0.2779 -0.7693
  141MOL0     C19352   4.506   8.067   2.596 -0.1841  0.1159  0.4087
  141MOL0     C19353   4.438   8.116   2.711  0.5235 -0.2417 -0.1897
  141MOL0     C19354   4.298   8.107   2.715  0.3193 -0.0295 -0.0874
  141MOL0     C19355   4.213   8.047   2.616 -0.4812  0.5364  0.6958
  141MOL0     O19356   4.075   8.059   2.622 -0.5965 -1.0594  0.4878
  141MOL0     C19357   3.999   7.967   2.545  0.6530  0.7245  0.3790
  141MOL0     C19358   3.846   7.994   2.577 -0.4280  0.9419  0.0670
  141MOL0     C19359   3.760   7.896   2.492  0.6688 -0.5671  0.4214
  141MOL0     C19360   3.610   7.924   2.505  0.5811  1.1835  0.5622
  141MOL0     C19361   3.532   7.798   2.445 -1.2101  0.0086 -0.0198
  141MOL0     C19362   3.383   7.795   2.480  0.3891 -0.3724  0.2463
  141MOL0     C19363   3.348   7.817   2.630 -0.3450  0.0770 -0.2347
  141MOL0     C19364   3.207   7.775   2.651 -0.9286  0.3894  0.3483
  141MOL0    Cl19365   3.167   7.763   2.824 -0.6702  0.1671 -0.0990
  141MOL0     C19366   4.288   7.991   2.508 -0.0830 -0.0244  0.1237
  141MOL0     C19367   4.429   7.994   2.507 -0.4881  0.2856 -0.0288
  141MOL0     O19368   4.653   7.827   2.615 -0.7077 -0.9671  0.1695
  141MOL0     C19369   4.900   8.073   2.616 -0.0437  0.4456  0.1919
  141MOL0     C19370   5.034   8.100   2.635  0.3744 -0.3928 -0.4011
  141MOL0     N19371   5.467   8.353   2.938  0.8000 -0.3279  0.1858
  141MOL0     N19372   5.363   8.436   2.935 -0.9568 -0.3963 -0.8343
  141MOL0     C19373   4.645   8.916   2.463  0.4317 -0.0287 -0.0548
  141MOL0     C19374   4.682   9.052   2.449  0.9984  0.1446 -0.4048
  141MOL0     C19375   4.880   9.419   2.384  0.1761  1.1741  0.6148
  141MOL0     C19376   4.783   9.509   2.363  0.0126  0.0851 -0.0240
  141MOL0     C19377   4.801   9.639   2.386  0.2363 -0.2271  0.8386
  141MOL0     C19378   4.919   9.697   2.433 -0.5686 -0.1037  0.5377
  141MOL0     O19379   4.936   9.834   2.437  0.4046 -0.0137  0.3738
  141MOL0     C19380   5.063   9.887   2.483  0.3106  0.5309 -0.1683
  141MOL0     C19381   5.079  10.036   2.455 -0.2881 -0.2857 -0.2208
  141MOL0     C19382   5.062  10.121   2.582  0.9624 -0.0015  0.4427
  141MOL0     C19383   5.103  10.267   2.561 -0.1602  0.1459 -0.7575
  141MOL0     C19384   5.013  10.330   2.468  1.2747 -0.8866  0.2158
  141MOL0     C19385   4.951  10.380   2.378  0.7587 -0.8616  1.0354
  141MOL0     C19386   5.015   9.596   2.462 -0.5592 -1.1796 -0.3308
  141MOL0     C19387   5.003   9.465   2.439  0.1947  0.2709  0.4263
  141MOL0     C19388   5.118   9.365   2.470  0.3472  0.0598  0.1552
  141MOL0     H19389   4.735   9.056   2.106 -0.2838  0.9544  1.3000
  141MOL0     H19390   4.698   8.832   2.125  0.1020 -0.6009 -1.2343
  141MOL0     H19391   4.459   8.580   2.381  1.3501  0.0821 -2.0708
  141MOL0     H19392   4.484   8.717   2.494  0.2028  1.0843 -1.1347
  141MOL0     H19393   4.544   8.466   2.560 -2.5588  3.7306 -0.4414
  141MOL0     H19394   4.675   8.476   2.448 -0.8473 -1.6846 -0.7139
  141MOL0     H19395   4.768   8.662   2.598 -0.8983  1.6152 -0.4833
  141MOL0     H19396   4.640   8.642   2.708  1.8726 -1.3703  1.9291
  141MOL0     H19397   4.669   8.415   2.753 -0.5257  0.3442 -2.0977
  141MOL0     H19398   4.815   8.419   2.641 -3.8152 -4.7684 -0.0445
  141MOL0     H19399   4.824   8.456   2.917 -0.7443  1.2444  0.5434
  141MOL0     H19400   4.784   8.619   2.875  0.2849  0.3789  0.2025
  141MOL0     H19401   4.950   8.641   2.713 -0.1190 -0.5085  0.5384
  141MOL0     H19402   5.000   8.651   2.886 -2.4308  0.7918  0.6399
  141MOL0     H19403   5.175   8.541   2.753 -0.9671  1.0400  1.2771
  141MOL0     H19404   5.074   8.419   2.703  1.1379  1.3572 -0.7010
  141MOL0     H19405   5.104   8.474   3.008 -1.7995  0.9826 -0.7680
  141MOL0     H19406   5.037   8.334   2.929 -3.5969  2.2813 -1.1245
  141MOL0     H19407   5.205   8.167   2.874 -0.8152  1.2585  1.2426
  141MOL0     H19408   5.428   8.016   2.856 -2.7090  1.3283  0.1811
  141MOL0     H19409   5.586   8.077   2.909 -0.1494 -0.4699 -1.0445
  141MOL0     H19410   5.478   8.211   2.662 -0.8789 -2.3886 -1.3175
  141MOL0     H19411   5.637   8.148   2.702  1.0359 -3.1187  0.9880
  141MOL0     H19412   5.535   8.030   2.516 -0.7137  3.4064  0.6442
  141MOL0     H19413   5.567   7.917   2.650  0.5936  0.4180  0.2004
  141MOL0     H19414   5.368   7.900   2.497 -0.3181 -0.1459 -1.1830
  141MOL0     H19415   5.344   7.858   2.668  1.5468  0.1587 -0.3921
  141MOL0     H19416   5.152   7.797   2.554 -0.0165 -0.2588  0.7043
  141MOL0     H19417   4.821   7.680   2.645  1.1821  0.8436  1.9644
  141MOL0     H19418   4.987   7.620   2.616 -1.0109 -1.4952 -0.9047
  141MOL0     H19419   4.894   7.663   2.475 -1.2241 -1.6801  0.3865
  141MOL0     H19420   4.478   8.174   2.794 -1.7217  0.0081  0.7761
  141MOL0     H19421   4.243   8.155   2.796  0.8293  0.2427  0.1010
  141MOL0     H19422   4.019   7.981   2.438 -3.0043  1.2069 -0.3775
  141MOL0     H19423   4.028   7.863   2.564  1.8493  0.2674 -3.0896
  141MOL0     H19424   3.812   7.987   2.681 -1.4385  1.1259 -0.2449
  141MOL0     H19425   3.818   8.093   2.540 -2.2888 -0.2426 -1.9328
  141MOL0     H19426   3.776   7.791   2.520 -2.2494 -0.9721  0.8785
  141MOL0     H19427   3.790   7.897   2.387  2.0145 -2.3678  0.7296
  141MOL0     H19428   3.582   8.011   2.444  0.7908  1.4725  0.8774
  141MOL0     H19429   3.604   7.948   2.612  3.7119 -0.1482  1.1288
  141MOL0     H19430   3.553   7.804   2.338  2.6551  0.3010  0.6084
  141MOL0     H19431   3.584   7.713   2.490  1.3256  1.6897  0.4454
  141MOL0     H19432   3.347   7.696   2.451 -1.6276  0.3400  0.1306
  141MOL0     H19433   3.336   7.877   2.424  1.6351  0.8919  0.9705
  141MOL0     H19434   3.357   7.921   2.663  2.8608 -1.2522  3.9169
  141MOL0     H19435   3.417   7.754   2.687  2.0265  0.0736 -2.8923
  141MOL0     H19436   3.186   7.677   2.606 -3.7487  1.4625 -0.8171
  141MOL0     H19437   3.139   7.844   2.602 -0.6199  0.1463 -0.4544
  141MOL0     H19438   4.222   7.937   2.440 -2.1998  0.6436  1.5584
  141MOL0     H19439   4.477   7.940   2.426  0.6388 -3.3047  2.7908
  141MOL0     H19440   4.853   8.170   2.629  2.4421  1.7167  0.2554
  141MOL0     H19441   5.063   8.204   2.644 -2.9199  0.6929 -0.6706
  141MOL0     H19442   4.622   8.871   2.559  0.8415 -3.3091 -1.3652
  141MOL0     H19443   4.679   9.118   2.535  3.1384  1.7711 -1.4798
  141MOL0     H19444   4.700   9.474   2.302 -0.1735 -0.4217  0.5046
  141MOL0     H19445   4.712   9.697   2.363  0.2430  0.0189  1.4182
  141MOL0     H19446   5.071   9.863   2.590  4.1846  0.5688 -0.3235
  141MOL0     H19447   5.147   9.838   2.434  1.1697  3.3425 -1.7234
  141MOL0     H19448   5.007  10.070   2.380  3.2236  4.8040 -1.8264
  141MOL0     H19449   5.175  10.064   2.412 -2.0148  1.0217 -3.6497
  141MOL0     H19450   4.954  10.112   2.598  1.1839 -0.7228  1.6527
  141MOL0     H19451   5.120  10.088   2.669  3.8316  2.4041 -0.3735
  141MOL0     H19452   5.204  10.269   2.518 -0.3760  1.9599 -1.2670
  141MOL0     H19453   5.111  10.321   2.656 -1.2771 -0.6784 -0.1835
  141MOL0     H19454   4.894  10.421   2.298 -0.1117  0.2206  2.1788
  141MOL0     H19455   5.109   9.617   2.512 -0.2443 -2.7605 -0.2164
  141MOL0     H19456   5.200   9.408   2.528  1.5943 -0.2594 -1.3143
  141MOL0     H19457   5.086   9.279   2.530  0.3067  0.8090  1.2289
  141MOL0     H19458   5.173   9.329   2.383  3.2209 -1.0796  2.2601
  142MOL0     O19459   9.122   8.554   2.381  0.3894  0.1377 -0.6047
  142MOL0     C19460   9.100   8.671   2.350 -0.6241  0.5610 -0.5412
  142MOL0     O19461   8.992   8.740   2.377  0.9635 -0.2324 -0.1967
  142MOL0     C19462   8.884   8.682   2.445 -0.0139 -0.4981 -0.6305
  142MOL0     C19463   8.853   8.740   2.568 -0.3691  1.0383 -0.3539
  142MOL0     C19464   8.738   8.699   2.639 -0.4090  0.0090 -0.4617
  142MOL0     C19465   8.656   8.602   2.580  0.2841 -0.2995 -0.1268
  142MOL0     O19466   8.544   8.545   2.643 -0.2112 -0.6039  1.3840
  142MOL0     C19467   8.528   8.572   2.783 -0.2214  0.3112 -1.1548
  142MOL0     C19468   8.410   8.491   2.850  0.7504 -0.0783 -0.1823
  142MOL0     C19469   8.272   8.543   2.801 -0.3361 -0.2284 -0.4803
  142MOL0     C19470   8.182   8.594   2.919  0.2838 -0.6257 -0.1670
  142MOL0     C19471   8.110   8.488   3.000 -0.2170  0.2457 -0.1278
  142MOL0     C19472   8.007   8.557   3.091  0.3894 -1.4647  1.0701
  142MOL0     C19473   7.936   8.463   3.191  0.4067 -0.8936  0.0547
  142MOL0     C19474   8.034   8.404   3.300  0.0926  1.1104  0.3719
  142MOL0     N19475   7.960   8.310   3.381 -0.5814  0.4328  0.8216
  142MOL0     C19476   7.859   8.339   3.474 -0.7749  0.9329  0.7800
  142MOL0     C19477   7.815   8.218   3.510  0.1484  0.4200  0.1374
  142MOL0     C19478   7.738   8.206   3.640 -0.1826  0.7638  0.3699
  142MOL0     C19479   7.597   8.173   3.620  0.8018  0.0936 -0.1754
  142MOL0     C19480   7.517   8.290   3.585 -0.0607 -0.6154 -0.5870
  142MOL0     C19481   7.378   8.252   3.533  1.1141  0.2760  0.3256
  142MOL0     O19482   7.331   8.388   3.504  0.2398 -0.3082  0.0946
  142MOL0     C19483   7.221   8.384   3.416  0.3942 -0.2018 -0.1557
  142MOL0     C19484   7.114   8.295   3.430  0.4448 -0.4398  0.9586
  142MOL0     C19485   7.012   8.276   3.334 -0.2853 -0.0365  0.4770
  142MOL0     C19486   6.901   8.179   3.367  0.0687 -0.0849 -0.3075
  142MOL0     C19487   7.015   8.354   3.218 -0.1952  0.1093 -0.1540
  142MOL0     C19488   6.928   8.322   3.096 -0.2466 -0.7608 -0.1847
  142MOL0     O19489   6.933   8.425   3.001  0.2348  0.7116  0.5900
  142MOL0     C19490   6.837   8.423   2.897  0.0494 -0.3595  0.6647
  142MOL0     C19491   6.701   8.384   2.903  0.7093  0.5333 -0.8346
  142MOL0     C19492   6.612   8.397   2.795  0.8076 -0.1972  0.1984
  142MOL0     C19493   6.665   8.438   2.673  0.1017  0.4994 -0.1256
  142MOL0     O19494   6.580   8.440   2.567  0.3771  0.4571  0.5035
  142MOL0     C19495   6.480   8.539   2.575  0.6956  0.3704  0.3225
  142MOL0     C19496   6.417   8.567   2.435 -0.7409 -0.8210 -0.1466
  142MOL0     C19497   6.300   8.668   2.449 -0.8098  1.2576 -0.3069
  142MOL0     C19498   6.220   8.705   2.326 -1.5379  0.7694 -0.2890
  142MOL0     C19499   6.135   8.820   2.365 -0.7016  0.5560  0.2938
  142MOL0     C19500   6.030   8.847   2.257  0.3959 -0.3549  0.6671
  142MOL0     C19501   5.909   8.925   2.308  1.1301  0.1268  0.5470
  142MOL0     C19502   5.947   9.070   2.321  0.0758  0.1929 -0.0410
  142MOL0    Cl19503   5.799   9.150   2.363 -0.7391 -0.3108 -0.2883
  142MOL0     C19504   6.795   8.476   2.662  0.0093 -0.0435 -0.9651
  142MOL0     C19505   6.878   8.487   2.776  0.7778 -0.2994 -0.3008
  142MOL0     O19506   6.856   8.225   3.092  0.7427 -0.0466  0.3447
  142MOL0     C19507   7.109   8.463   3.209 -0.0430  0.4885  0.4253
  142MOL0     C19508   7.210   8.471   3.309  0.1625  0.0912  0.5888
  142MOL0     N19509   7.877   8.119   3.428  0.4718  0.0597  0.2876
  142MOL0     N19510   7.966   8.178   3.356  0.8249 -0.0917  0.7361
  142MOL0     C19511   8.681   8.555   2.452  0.2334 -1.4003  0.1982
  142MOL0     C19512   8.793   8.593   2.383 -0.1189 -0.1361 -0.5203
  142MOL0     C19513   9.193   8.733   2.252  0.0966  0.0906  0.2536
  142MOL0     C19514   9.232   8.650   2.142  0.9739 -0.3097  0.5039
  142MOL0     C19515   9.314   8.705   2.039 -0.9010  0.2067  0.7929
  142MOL0     C19516   9.363   8.836   2.041 -0.5385  0.0623 -0.7049
  142MOL0     O19517   9.453   8.892   1.955  0.0265  0.2292  0.1831
  142MOL0     C19518   9.510   8.815   1.849  0.3862  0.2668 -0.5678
  142MOL0     C19519   9.634   8.883   1.795  0.2049 -0.4630 -0.0467
  142MOL0     C19520   9.746   8.884   1.890  0.2397 -0.4519 -0.0602
  142MOL0     C19521   9.858   8.970   1.826  0.1176  0.2069  0.2411
  142MOL0     C19522   9.971   8.967   1.922 -0.4397 -0.2639  0.2164
  142MOL0     C19523  10.083   8.960   1.967 -0.6426  0.8078 -0.0295
  142MOL0     C19524   9.320   8.917   2.145 -0.0329  0.4084  0.1985
  142MOL0     C19525   9.235   8.868   2.250 -0.5106  0.8954 -0.6298
  142MOL0     C19526   9.201   8.962   2.358 -0.3495  0.5213  0.6598
  142MOL0     H19527   8.924   8.811   2.610  2.1756 -1.7444  0.4424
  142MOL0     H19528   8.712   8.746   2.733 -2.6473 -1.1062 -0.4635
  142MOL0     H19529   8.507   8.679   2.790  1.7030  0.5992  1.4736
  142MOL0     H19530   8.614   8.551   2.847 -2.4161  2.1912  2.7232
  142MOL0     H19531   8.420   8.389   2.812  1.0416 -1.1050  2.4257
  142MOL0     H19532   8.425   8.500   2.958 -1.7665 -0.0273  0.2413
  142MOL0     H19533   8.289   8.635   2.745 -2.0153  0.2951 -0.1971
  142MOL0     H19534   8.225   8.466   2.739 -0.2754  1.5412 -2.8428
  142MOL0     H19535   8.247   8.647   2.990 -2.0037 -1.9025  3.1343
  142MOL0     H19536   8.099   8.652   2.878  0.3251 -1.2896 -1.2175
  142MOL0     H19537   8.188   8.434   3.055  1.9192  1.7409 -1.5747
  142MOL0     H19538   8.061   8.415   2.934  0.6384  0.2919 -0.8284
  142MOL0     H19539   8.058   8.641   3.139 -1.2770  1.2626 -1.6311
  142MOL0     H19540   7.938   8.603   3.021  0.6356  1.0753  2.3727
  142MOL0     H19541   7.884   8.383   3.137  0.1490 -0.8739  0.2738
  142MOL0     H19542   7.861   8.525   3.241 -0.3398  0.5252 -2.6074
  142MOL0     H19543   8.128   8.363   3.261  0.2081  1.8346 -0.1172
  142MOL0     H19544   8.076   8.488   3.356  0.7691  0.9051  0.1876
  142MOL0     H19545   7.844   8.439   3.515 -1.5612  2.4095 -2.7464
  142MOL0     H19546   7.759   8.291   3.705  0.6944 -1.1037  2.6609
  142MOL0     H19547   7.786   8.127   3.698 -1.9376 -1.2340 -0.7360
  142MOL0     H19548   7.585   8.098   3.541 -1.8597 -4.2548  3.8791
  142MOL0     H19549   7.550   8.127   3.707  0.8090 -0.1028 -0.2733
  142MOL0     H19550   7.517   8.359   3.670 -1.0568 -1.2654 -0.0447
  142MOL0     H19551   7.569   8.357   3.515  2.3638 -0.8071  0.9173
  142MOL0     H19552   7.376   8.185   3.447  0.1717  1.0772 -0.3085
  142MOL0     H19553   7.327   8.207   3.618  1.7657  0.5262  0.8512
  142MOL0     H19554   7.108   8.236   3.521 -2.4889 -1.7699  0.0211
  142MOL0     H19555   6.807   8.231   3.384  0.6886  1.0866 -0.3685
  142MOL0     H19556   6.933   8.131   3.460  1.3855  2.9944  0.9579
  142MOL0     H19557   6.874   8.101   3.295 -2.1822 -1.6277  2.0211
  142MOL0     H19558   6.661   8.345   2.996  3.4197  0.2533  0.2872
  142MOL0     H19559   6.511   8.359   2.802  0.2634  1.3230  1.2126
  142MOL0     H19560   6.406   8.509   2.650  0.8446 -0.3005  0.2050
  142MOL0     H19561   6.518   8.630   2.622 -2.7824  1.6549  0.9647
  142MOL0     H19562   6.498   8.615   2.379  1.9553  0.4973  4.3539
  142MOL0     H19563   6.385   8.473   2.389 -0.1620  0.5800 -3.7802
  142MOL0     H19564   6.329   8.751   2.513  1.1197 -2.7966  4.8601
  142MOL0     H19565   6.229   8.613   2.511 -0.8043 -0.5207 -1.7743
  142MOL0     H19566   6.165   8.617   2.291  1.1413 -0.3979 -1.9015
  142MOL0     H19567   6.281   8.744   2.244 -0.0357 -0.8565 -0.0052
  142MOL0     H19568   6.080   8.796   2.457 -0.7048 -0.4412  0.0481
  142MOL0     H19569   6.199   8.907   2.374  0.1512  0.1603 -1.5140
  142MOL0     H19570   5.992   8.758   2.207  0.4171  1.4676 -2.8875
  142MOL0     H19571   6.083   8.899   2.177  1.1558  0.1989  1.5085
  142MOL0     H19572   5.871   8.878   2.400  1.6557  1.2626  1.3745
  142MOL0     H19573   5.839   8.905   2.227  3.0425 -0.4552 -1.0232
  142MOL0     H19574   5.997   9.110   2.232 -1.8856 -1.1375 -1.8253
  142MOL0     H19575   6.023   9.077   2.399  1.5483 -4.7197 -0.7067
  142MOL0     H19576   6.841   8.502   2.567  1.1134 -1.0301 -0.7264
  142MOL0     H19577   6.974   8.536   2.760 -0.1055  1.3497 -0.8166
  142MOL0     H19578   7.117   8.519   3.117 -1.3580  0.0801  0.0432
  142MOL0     H19579   7.295   8.537   3.297  1.3672 -1.5816 -0.6451
  142MOL0     H19580   8.605   8.489   2.410 -2.2575  1.1446  0.3993
  142MOL0     H19581   8.812   8.558   2.282 -0.9322 -0.2014 -0.6546
  142MOL0     H19582   9.196   8.547   2.141 -2.4279  0.7722 -1.3040
  142MOL0     H19583   9.334   8.647   1.950 -0.2447  2.5273 -0.6572
  142MOL0     H19584   9.538   8.718   1.892 -2.3259 -0.3240  0.0725
  142MOL0     H19585   9.435   8.785   1.774 -0.0833 -4.2719  1.3625
  142MOL0     H19586   9.610   8.982   1.756  0.0724 -1.1353 -1.7877
  142MOL0     H19587   9.656   8.822   1.706 -0.4716 -0.7263 -0.0408
  142MOL0     H19588   9.714   8.930   1.984  1.2654 -2.5146  1.3684
  142MOL0     H19589   9.774   8.779   1.904 -0.3255 -0.4144  1.4558
  142MOL0     H19590   9.819   9.066   1.792  0.7247  1.0753  1.8827
  142MOL0     H19591   9.886   8.912   1.737  0.2052  0.9248 -0.2029
  142MOL0     H19592  10.181   8.961   2.010 -0.2019  0.3361 -1.0081
  142MOL0     H19593   9.356   9.019   2.142 -1.9745  1.1735  1.0832
  142MOL0     H19594   9.155   8.910   2.443 -1.1781 -1.2642 -0.8244
  142MOL0     H19595   9.290   9.010   2.399 -1.7170  1.4880  2.6630
  142MOL0     H19596   9.138   9.044   2.321 -0.5411  1.4122  2.7828
  143MOL0     O19597   6.508   0.345   5.356 -0.0847 -0.1775  0.4286
  143MOL0     C19598   6.499   0.411   5.247  0.3353  1.6022  0.8366
  143MOL0     O19599   6.500   0.345   5.122 -0.1400 -0.7761 -0.3068
  143MOL0     C19600   6.528   0.216   5.094 -0.8236  0.3217 -0.3216
  143MOL0     C19601   6.656   0.177   5.058  0.5519  0.2400  0.6880
  143MOL0     C19602   6.677   0.045   5.016  0.1566  0.8694  0.0458
  143MOL0     C19603   6.569  -0.055   5.009 -0.6255  0.9899  0.3353
  143MOL0     O19604   6.589  -0.181   4.968 -0.2051 -0.4966 -0.4072
  143MOL0     C19605   6.657  -0.209   4.845 -0.1318  0.4309 -0.4893
  143MOL0     C19606   6.603  -0.339   4.793  0.4062  0.2239 -0.3888
  143MOL0     C19607   6.459  -0.341   4.747 -0.5189 -0.4088 -0.1951
  143MOL0     C19608   6.411  -0.470   4.685  0.3667  0.0739 -1.2537
  143MOL0     C19609   6.265  -0.450   4.648  0.2876  0.3008  0.8276
  143MOL0     C19610   6.224  -0.565   4.557 -0.4408  0.4068 -0.3470
  143MOL0     C19611   6.250  -0.713   4.609 -0.7094 -0.6193  0.0311
  143MOL0     C19612   6.183  -0.798   4.500  0.1452  0.2606 -0.3751
  143MOL0     N19613   6.183  -0.938   4.543 -0.5430  0.1885  0.1388
  143MOL0     C19614   6.141  -0.974   4.669  0.7875 -0.4362  0.5184
  143MOL0     C19615   6.172  -1.108   4.673 -0.5240  0.3579 -0.2540
  143MOL0     C19616   6.148  -1.207   4.794  0.3567 -0.9502 -0.8102
  143MOL0     C19617   6.260  -1.209   4.902 -0.8324  0.5096 -0.0610
  143MOL0     C19618   6.403  -1.249   4.839 -0.7828 -0.5003  0.3192
  143MOL0     C19619   6.506  -1.250   4.945  1.0169 -0.5395 -0.1122
  143MOL0     O19620   6.631  -1.296   4.897 -1.1553 -0.1533 -0.0833
  143MOL0     C19621   6.749  -1.251   4.956  0.3147  0.2131  0.3180
  143MOL0     C19622   6.763  -1.210   5.087 -0.0786 -0.6536 -0.0443
  143MOL0     C19623   6.890  -1.163   5.141 -0.2335  0.5334 -0.1599
  143MOL0     C19624   6.898  -1.138   5.288  0.2240  1.1759 -0.4059
  143MOL0     C19625   7.006  -1.152   5.055 -0.3276  0.0064  0.4803
  143MOL0     C19626   7.138  -1.116   5.101 -0.6716  0.0657 -0.9817
  143MOL0     O19627   7.248  -1.163   5.044 -0.3762  0.2946 -0.4921
  143MOL0     C19628   7.358  -1.194   5.131  0.3379  0.4715 -0.1195
  143MOL0     C19629   7.475  -1.192   5.065  0.6673 -0.9234  0.6910
  143MOL0     C19630   7.592  -1.224   5.131 -0.1482  0.5778 -0.4633
  143MOL0     C19631   7.596  -1.264   5.267 -0.8797 -0.3475  0.7632
  143MOL0     O19632   7.719  -1.286   5.323  0.5071 -0.2258 -0.5448
  143MOL0     C19633   7.799  -1.381   5.269 -0.2292  0.0977  0.4628
  143MOL0     C19634   7.925  -1.407   5.357  0.0216 -0.4564  0.8552
  143MOL0     C19635   8.035  -1.469   5.268 -0.2437 -0.1191  0.3317
  143MOL0     C19636   8.137  -1.546   5.358 -0.0115 -0.1229 -0.2950
  143MOL0     C19637   8.220  -1.641   5.283 -0.8457  0.0264 -0.4813
  143MOL0     C19638   8.304  -1.722   5.387 -0.2602 -0.0940  0.0122
  143MOL0     C19639   8.231  -1.845   5.462  0.9017 -0.1745 -0.5042
  143MOL0     C19640   8.164  -1.956   5.390  0.6406 -0.2553  0.7718
  143MOL0    Cl19641   8.272  -2.025   5.252  0.2206  0.3689  0.6509
  143MOL0     C19642   7.480  -1.268   5.341  0.2781 -0.3569 -0.6609
  143MOL0     C19643   7.357  -1.231   5.273  0.3523 -0.1008 -0.3050
  143MOL0     O19644   7.139  -1.032   5.195 -0.4615 -0.4032  0.0887
  143MOL0     C19645   6.986  -1.201   4.923  0.6303 -0.0783 -0.5501
  143MOL0     C19646   6.866  -1.252   4.882 -0.3344  0.1868 -0.4341
  143MOL0     N19647   6.243  -1.147   4.563 -0.2964  0.1874 -0.0327
  143MOL0     N19648   6.239  -1.047   4.477  0.4593 -0.5505 -0.9569
  143MOL0     C19649   6.452  -0.015   5.062 -0.1500  0.3380  0.8725
  143MOL0     C19650   6.427   0.119   5.107 -0.3154  0.1181 -0.8283
  143MOL0     C19651   6.489   0.557   5.225  0.2028  0.2227 -0.6878
  143MOL0     C19652   6.551   0.605   5.104 -0.2014 -0.5640  0.4076
  143MOL0     C19653   6.536   0.740   5.073  0.8561  0.5937  0.1387
  143MOL0     C19654   6.466   0.824   5.160  0.5054  0.8569 -0.2915
  143MOL0     O19655   6.450   0.958   5.138  0.2741 -0.6636 -0.3480
  143MOL0     C19656   6.469   1.016   5.008 -0.1262  0.4006  0.4143
  143MOL0     C19657   6.436   1.169   5.017 -0.5127  0.7619  0.8378
  143MOL0     C19658   6.426   1.231   4.875 -1.0394 -0.0588 -0.3190
  143MOL0     C19659   6.332   1.347   4.885  0.2182 -0.2327 -0.1848
  143MOL0     C19660   6.334   1.433   4.761 -0.1002 -0.5161 -0.3281
  143MOL0     C19661   6.336   1.491   4.653  0.2832  0.1613  1.0050
  143MOL0     C19662   6.414   0.777   5.275  1.0576  0.3049 -0.8356
  143MOL0     C19663   6.410   0.646   5.308 -0.1723  0.4611  0.6551
  143MOL0     C19664   6.338   0.584   5.431  0.4848 -0.5953 -0.1652
  143MOL0     H19665   6.732   0.253   5.046  0.4679  1.2850  4.9413
  143MOL0     H19666   6.765   0.004   4.968  0.4308 -0.0947  1.3048
  143MOL0     H19667   6.766  -0.214   4.853 -0.0916 -0.1785 -1.2898
  143MOL0     H19668   6.633  -0.129   4.774 -0.1217  0.2506 -0.6961
  143MOL0     H19669   6.659  -0.360   4.702  2.4813  4.0031 -0.1836
  143MOL0     H19670   6.616  -0.411   4.875  0.3108  1.3122  0.6077
  143MOL0     H19671   6.393  -0.310   4.828  1.2812 -0.6494  1.4272
  143MOL0     H19672   6.451  -0.259   4.675 -2.3186  0.9729  1.4858
  143MOL0     H19673   6.475  -0.492   4.599  1.2326  2.0129 -1.1502
  143MOL0     H19674   6.416  -0.555   4.754 -0.7036  0.4602 -0.6688
  143MOL0     H19675   6.240  -0.351   4.608 -0.2968 -0.3265 -0.4211
  143MOL0     H19676   6.201  -0.462   4.736 -2.6864 -2.4075 -1.4710
  143MOL0     H19677   6.119  -0.545   4.533  0.4073  1.7229 -3.4305
  143MOL0     H19678   6.257  -0.550   4.454 -4.2370 -1.0277 -1.9341
  143MOL0     H19679   6.220  -0.728   4.713 -0.5390 -0.2545  0.1341
  143MOL0     H19680   6.358  -0.731   4.606 -0.4192  1.0839 -2.0511
  143MOL0     H19681   6.080  -0.764   4.482  0.1281  1.1947  1.2486
  143MOL0     H19682   6.230  -0.786   4.403  0.3473 -2.1847 -0.6516
  143MOL0     H19683   6.093  -0.913   4.745 -0.7453  0.4559 -1.0879
  143MOL0     H19684   6.121  -1.311   4.770 -3.1755 -0.3722  0.0831
  143MOL0     H19685   6.062  -1.166   4.846  1.5047 -1.1572  1.3651
  143MOL0     H19686   6.272  -1.116   4.957 -0.8142  1.4020 -1.5093
  143MOL0     H19687   6.233  -1.282   4.978 -1.8308 -0.0804 -0.9436
  143MOL0     H19688   6.382  -1.346   4.793  0.5532 -0.8900  0.5077
  143MOL0     H19689   6.429  -1.172   4.765 -0.6421  0.2234  1.1154
  143MOL0     H19690   6.515  -1.149   4.986 -1.3621  1.1737 -3.3293
  143MOL0     H19691   6.477  -1.319   5.026  0.3825 -0.6216 -0.4049
  143MOL0     H19692   6.680  -1.221   5.156  1.3275 -3.2333  1.4413
  143MOL0     H19693   6.894  -1.030   5.279 -0.2048  1.0034 -3.4500
  143MOL0     H19694   6.995  -1.172   5.324 -1.6006 -1.9866  2.0949
  143MOL0     H19695   6.821  -1.188   5.348  1.1031 -1.0234 -0.9896
  143MOL0     H19696   7.470  -1.154   4.963 -1.6878 -1.3399  0.5995
  143MOL0     H19697   7.682  -1.219   5.071 -0.3535  2.8937 -0.6885
  143MOL0     H19698   7.759  -1.483   5.263 -0.4670  0.2050  0.2169
  143MOL0     H19699   7.838  -1.354   5.170  2.6798  1.3705  1.8447
  143MOL0     H19700   7.964  -1.310   5.389  0.2726 -0.4715  0.5953
  143MOL0     H19701   7.897  -1.468   5.444  0.5761 -1.6082  0.2488
  143MOL0     H19702   8.084  -1.387   5.215  2.9502 -1.4802  0.9079
  143MOL0     H19703   7.993  -1.536   5.193  1.8894 -1.3769  0.1754
  143MOL0     H19704   8.085  -1.593   5.443 -0.5888 -1.4551 -1.3557
  143MOL0     H19705   8.203  -1.469   5.398 -1.4389  0.5870  0.8172
  143MOL0     H19706   8.156  -1.707   5.224 -0.7380 -2.7746  2.3172
  143MOL0     H19707   8.290  -1.595   5.212  1.4164  1.0970  2.2362
  143MOL0     H19708   8.333  -1.640   5.454 -1.2479  0.2229  0.0707
  143MOL0     H19709   8.391  -1.767   5.339 -0.5741  0.1115 -0.7655
  143MOL0     H19710   8.158  -1.808   5.535  1.1087  0.1613 -0.4696
  143MOL0     H19711   8.310  -1.886   5.526 -0.4471 -0.8380  0.7881
  143MOL0     H19712   8.079  -1.912   5.338 -1.3302 -0.6632  3.4366
  143MOL0     H19713   8.128  -2.029   5.462  2.7185 -1.9066  0.2620
  143MOL0     H19714   7.499  -1.293   5.445  1.5902 -0.6892 -0.9672
  143MOL0     H19715   7.259  -1.230   5.322  0.4587  3.5394  0.0575
  143MOL0     H19716   7.070  -1.212   4.855 -1.7691  0.8265 -3.9182
  143MOL0     H19717   6.881  -1.290   4.782  2.6593  2.0964 -0.8323
  143MOL0     H19718   6.382  -0.097   5.070  2.4875 -1.9939  1.4588
  143MOL0     H19719   6.334   0.163   5.140 -0.1954 -0.5909  0.5204
  143MOL0     H19720   6.613   0.550   5.034 -0.6929  0.0174 -0.5112
  143MOL0     H19721   6.562   0.788   4.979  0.4581  0.7648  0.1143
  143MOL0     H19722   6.572   1.008   4.971 -0.0864 -0.7384  0.7379
  143MOL0     H19723   6.406   0.968   4.933  0.8630  1.1399 -0.9352
  143MOL0     H19724   6.505   1.234   5.071  2.0820 -0.1438 -1.1787
  143MOL0     H19725   6.335   1.174   5.060 -0.9663  0.6092 -0.1764
  143MOL0     H19726   6.526   1.255   4.838 -1.3288 -0.6078 -1.5010
  143MOL0     H19727   6.380   1.154   4.813 -1.9069 -0.4440  0.7857
  143MOL0     H19728   6.348   1.409   4.974  0.3716  1.4980 -1.3677
  143MOL0     H19729   6.232   1.301   4.888  0.8092 -1.5276  0.0549
  143MOL0     H19730   6.370   1.538   4.562 -1.5462 -0.9568 -0.3391
  143MOL0     H19731   6.361   0.839   5.347 -1.5022 -5.2261  2.8579
  143MOL0     H19732   6.404   0.519   5.489  0.2081  1.8346  3.1263
  143MOL0     H19733   6.315   0.665   5.501 -0.1618 -1.0278  0.1331
  143MOL0     H19734   6.244   0.537   5.400  0.4471 -1.3767  1.0967
  144MOL0     O19735   0.870   2.860   2.363  0.8856  0.1777 -0.6023
  144MOL0     C19736   0.838   2.835   2.478  0.6543  0.0941 -0.0199
  144MOL0     O19737   0.825   2.707   2.533 -0.3121 -0.4229  0.1238
  144MOL0     C19738   0.856   2.588   2.470 -0.4348  0.1943 -0.5641
  144MOL0     C19739   0.954   2.582   2.374  0.2228  0.9750 -1.4833
  144MOL0     C19740   0.982   2.456   2.322  1.8391  0.3758 -0.1272
  144MOL0     C19741   0.908   2.341   2.355 -0.5490  0.1757  0.6185
  144MOL0     O19742   0.929   2.224   2.286  1.1903  0.3763  0.4146
  144MOL0     C19743   1.064   2.177   2.263  0.3301  0.2932 -0.1546
  144MOL0     C19744   1.144   2.154   2.396 -0.0983 -0.4151  0.3198
  144MOL0     C19745   1.077   2.048   2.481 -0.0318  0.5268 -0.7574
  144MOL0     C19746   1.084   1.912   2.402 -0.3957  1.0698  0.1854
  144MOL0     C19747   1.102   1.798   2.503 -0.1503 -0.6198  1.0639
  144MOL0     C19748   1.107   1.656   2.452 -0.7023  0.7434  0.5810
  144MOL0     C19749   0.992   1.623   2.354  0.7055 -0.0147  0.4449
  144MOL0     C19750   0.853   1.646   2.407  1.0722 -0.2693 -0.6160
  144MOL0     N19751   0.738   1.613   2.316 -0.7287  0.0100  0.6641
  144MOL0     C19752   0.742   1.655   2.188  0.1145  0.3979 -0.0136
  144MOL0     C19753   0.621   1.612   2.138  0.0046 -0.2543  0.4432
  144MOL0     C19754   0.549   1.663   2.015  0.3150 -0.1322 -0.8497
  144MOL0     C19755   0.515   1.557   1.914 -0.9266  0.0000  0.0901
  144MOL0     C19756   0.420   1.614   1.817  0.5689  0.2740  0.6358
  144MOL0     C19757   0.481   1.727   1.731 -0.5083 -0.0708 -0.5939
  144MOL0     O19758   0.431   1.856   1.784  0.5043  0.2417 -0.6831
  144MOL0     C19759   0.489   1.978   1.743  0.7158  0.1536  0.5584
  144MOL0     C19760   0.426   2.099   1.781 -0.8443 -0.9124  0.7224
  144MOL0     C19761   0.472   2.227   1.739 -0.3797  0.7396 -0.0602
  144MOL0     C19762   0.415   2.350   1.797 -0.2873 -0.3189 -0.5230
  144MOL0     C19763   0.583   2.235   1.649 -0.0149 -0.2331  0.5589
  144MOL0     C19764   0.641   2.357   1.597  1.0407  0.5246 -0.2410
  144MOL0     O19765   0.775   2.356   1.575  0.1026 -0.0418  0.4789
  144MOL0     C19766   0.833   2.473   1.551 -0.1710 -0.7649  0.2861
  144MOL0     C19767   0.969   2.461   1.568  0.4610  0.2277 -0.2014
  144MOL0     C19768   1.054   2.568   1.544  0.9216  0.2828  0.2150
  144MOL0     C19769   1.007   2.690   1.496  0.2941  0.6798  0.2269
  144MOL0     O19770   1.093   2.791   1.471  0.1027  0.0976  0.4851
  144MOL0     C19771   1.146   2.791   1.336 -0.1336 -0.6839  0.3070
  144MOL0     C19772   1.215   2.933   1.319 -0.0645 -0.4245 -0.1046
  144MOL0     C19773   1.355   2.943   1.389  0.4705  0.6977 -0.1212
  144MOL0     C19774   1.402   3.087   1.398 -0.3909 -0.0191  0.2767
  144MOL0     C19775   1.542   3.099   1.470 -0.7211 -0.5385  0.2840
  144MOL0     C19776   1.656   3.057   1.390  0.1546 -0.0114 -0.2749
  144MOL0     C19777   1.791   3.051   1.464  0.0857  0.4270 -0.0630
  144MOL0     C19778   1.853   3.195   1.461  0.5141  0.4856 -0.2066
  144MOL0    Cl19779   2.030   3.170   1.454 -0.4070 -0.0966  0.1741
  144MOL0     C19780   0.868   2.700   1.468 -0.9113  0.7646  0.4787
  144MOL0     C19781   0.785   2.588   1.488  1.1454  0.2652  0.1904
  144MOL0     O19782   0.556   2.445   1.576 -0.0406  0.5668  0.1873
  144MOL0     C19783   0.648   2.107   1.609  0.8415  0.2037 -0.0535
  144MOL0     C19784   0.602   1.990   1.658 -0.0142  0.9710 -0.1198
  144MOL0     N19785   0.561   1.529   2.234  0.0709 -0.1402  0.5301
  144MOL0     N19786   0.634   1.532   2.340 -0.0887  0.1485 -0.7528
  144MOL0     C19787   0.809   2.353   2.446  0.8629  0.1092 -0.0411
  144MOL0     C19788   0.780   2.476   2.514  0.1868  0.3062  0.5065
  144MOL0     C19789   0.811   2.953   2.563 -0.5558 -0.2489 -0.0326
  144MOL0     C19790   0.785   2.935   2.706 -0.5225  0.2688  0.2033
  144MOL0     C19791   0.757   3.046   2.797  0.5285 -0.9484 -0.4979
  144MOL0     C19792   0.760   3.178   2.750  0.2483  0.3103 -1.5024
  144MOL0     O19793   0.754   3.288   2.840 -0.2919 -0.1165  0.2021
  144MOL0     C19794   0.696   3.273   2.969  0.8494 -0.2530  1.1033
  144MOL0     C19795   0.546   3.232   2.975 -0.0436 -0.3393 -0.4118
  144MOL0     C19796   0.494   3.236   3.116 -0.3169  0.5007  0.3475
  144MOL0     C19797   0.490   3.381   3.175 -0.6828  0.4970  0.1719
  144MOL0     C19798   0.400   3.388   3.291 -0.2937  0.3477 -0.8692
  144MOL0     C19799   0.324   3.389   3.384 -0.2888 -0.0128  0.6789
  144MOL0     C19800   0.793   3.199   2.612  0.2704  0.2789 -0.4803
  144MOL0     C19801   0.809   3.091   2.519 -0.8831 -1.1681  0.1497
  144MOL0     C19802   0.812   3.139   2.374 -0.5668 -0.0254  0.4622
  144MOL0     H19803   1.012   2.669   2.346 -0.0073  1.0895 -1.6091
  144MOL0     H19804   1.064   2.454   2.251  2.0315 -1.1220  0.0927
  144MOL0     H19805   1.115   2.233   2.185  1.5792 -1.4987 -0.6940
  144MOL0     H19806   1.051   2.080   2.214  2.9457 -0.0912 -0.2080
  144MOL0     H19807   1.249   2.130   2.377  0.5767  2.2759  0.1909
  144MOL0     H19808   1.158   2.250   2.447  1.2278 -2.5936  4.5017
  144MOL0     H19809   1.137   2.033   2.572  1.0836  0.0453 -1.5490
  144MOL0     H19810   0.976   2.076   2.511 -1.2474  2.6840 -5.8295
  144MOL0     H19811   0.993   1.895   2.345 -0.1417  0.4644 -0.0428
  144MOL0     H19812   1.168   1.897   2.333 -0.2557  1.4721  0.2607
  144MOL0     H19813   1.021   1.825   2.571 -0.3045  0.0416  0.6197
  144MOL0     H19814   1.194   1.814   2.560  0.9063 -1.2790 -0.3882
  144MOL0     H19815   1.203   1.646   2.402 -1.1298  0.6759 -0.2500
  144MOL0     H19816   1.113   1.585   2.534 -0.1863 -0.2907 -0.3343
  144MOL0     H19817   0.993   1.518   2.323 -0.4885  0.7793 -2.6638
  144MOL0     H19818   1.011   1.678   2.261  0.9422  0.3132  0.6856
  144MOL0     H19819   0.841   1.597   2.504 -1.5146 -1.9513 -1.6455
  144MOL0     H19820   0.840   1.752   2.428  1.3703 -0.7660  2.4868
  144MOL0     H19821   0.821   1.711   2.140  0.6573 -1.3330 -1.2686
  144MOL0     H19822   0.609   1.747   1.979  2.5343 -1.2032  0.1276
  144MOL0     H19823   0.454   1.707   2.048 -0.3094 -2.2356  0.3613
  144MOL0     H19824   0.608   1.523   1.868  1.1518  1.0175  3.1946
  144MOL0     H19825   0.462   1.476   1.964  0.5011 -0.1850  1.3868
  144MOL0     H19826   0.398   1.525   1.757  1.6815 -0.4008  1.1972
  144MOL0     H19827   0.324   1.650   1.854 -0.0127  1.4055 -1.7787
  144MOL0     H19828   0.590   1.727   1.728 -0.4937  0.3074 -0.1600
  144MOL0     H19829   0.439   1.717   1.630 -2.4101 -0.5020  0.2005
  144MOL0     H19830   0.334   2.097   1.838 -2.4817  0.8092 -1.6404
  144MOL0     H19831   0.491   2.403   1.856 -2.4785 -0.3918  2.6028
  144MOL0     H19832   0.325   2.333   1.856  0.4505  0.1215  0.7733
  144MOL0     H19833   0.371   2.420   1.726 -1.7135 -2.4711 -1.8774
  144MOL0     H19834   1.009   2.368   1.605  1.2073  1.0235  1.0560
  144MOL0     H19835   1.156   2.562   1.583  0.5741  1.6970  1.4348
  144MOL0     H19836   1.218   2.709   1.322 -1.2925 -1.2873 -2.9235
  144MOL0     H19837   1.067   2.781   1.260 -0.0461  2.0359 -0.2195
  144MOL0     H19838   1.226   2.972   1.217  3.0135 -0.9382 -0.0827
  144MOL0     H19839   1.151   3.002   1.374 -0.4948  0.1111 -1.2492
  144MOL0     H19840   1.433   2.888   1.335  0.9942  2.2864 -1.0618
  144MOL0     H19841   1.341   2.898   1.487  0.3357 -1.5924 -1.1383
  144MOL0     H19842   1.331   3.147   1.456 -1.0066  0.0426 -0.5239
  144MOL0     H19843   1.408   3.140   1.302  2.3188 -2.2204 -0.9194
  144MOL0     H19844   1.562   3.200   1.506 -2.1649 -0.5926  1.2888
  144MOL0     H19845   1.530   3.029   1.554 -2.1940 -0.0942  0.4707
  144MOL0     H19846   1.660   3.127   1.306 -0.8514 -0.8585 -1.0593
  144MOL0     H19847   1.634   2.958   1.349 -1.4782  1.6078 -3.8181
  144MOL0     H19848   1.846   2.989   1.392 -1.8278  0.8500 -1.9966
  144MOL0     H19849   1.775   3.019   1.567  0.3067 -1.8049 -0.6644
  144MOL0     H19850   1.821   3.256   1.546  1.4060 -0.9541  1.2230
  144MOL0     H19851   1.837   3.243   1.363  1.5636 -2.2652 -1.8272
  144MOL0     H19852   0.841   2.798   1.432 -0.0950 -0.0305 -2.5532
  144MOL0     H19853   0.684   2.596   1.449  1.7282  0.8401 -1.2523
  144MOL0     H19854   0.735   2.099   1.545  0.4386  2.3465 -0.9469
  144MOL0     H19855   0.650   1.898   1.627 -1.9610  0.1732 -0.9118
  144MOL0     H19856   0.750   2.265   2.466  0.7632 -0.0279 -0.8987
  144MOL0     H19857   0.688   2.493   2.569 -0.0025  0.0393  0.2790
  144MOL0     H19858   0.790   2.832   2.740  2.1623 -0.2813 -1.5358
  144MOL0     H19859   0.738   3.025   2.902  2.6452 -0.5287  0.0162
  144MOL0     H19860   0.752   3.213   3.041 -0.4072 -0.1403  2.2092
  144MOL0     H19861   0.711   3.376   3.004  0.7967  0.4043 -0.6558
  144MOL0     H19862   0.526   3.127   2.950 -3.6758 -0.5042  2.4945
  144MOL0     H19863   0.482   3.295   2.913  0.7142  0.8441 -0.0286
  144MOL0     H19864   0.390   3.208   3.100  0.5658 -1.5677 -2.6817
  144MOL0     H19865   0.544   3.176   3.193  0.3914  0.5848 -0.0334
  144MOL0     H19866   0.450   3.454   3.104 -2.3854  0.9720  1.5620
  144MOL0     H19867   0.590   3.414   3.204 -0.5458  0.3002 -0.0716
  144MOL0     H19868   0.254   3.392   3.465 -1.3928 -1.7022 -0.1231
  144MOL0     H19869   0.814   3.296   2.566 -0.7555  0.4153 -0.6827
  144MOL0     H19870   0.805   3.248   2.363 -1.8756 -0.1813 -0.4981
  144MOL0     H19871   0.902   3.112   2.316  0.4246  0.3988  1.7660
  144MOL0     H19872   0.723   3.100   2.323 -1.7256 -1.4088  3.3305
  145MOL0     O19873   6.663   7.976   5.112 -0.4379  0.5904 -0.0746
  145MOL0     C19874   6.597   7.871   5.124 -0.3677 -0.4456 -1.6413
  145MOL0     O19875   6.616   7.768   5.214 -0.0529  0.1555  0.2062
  145MOL0     C19876   6.729   7.734   5.277 -0.3128  0.9426 -0.7377
  145MOL0     C19877   6.857   7.764   5.219  0.7211  0.3628 -0.0278
  145MOL0     C19878   6.980   7.729   5.286  0.0156 -0.0219  0.4701
  145MOL0     C19879   6.962   7.656   5.412 -0.0246 -0.1213  0.9353
  145MOL0     O19880   7.058   7.616   5.497  0.1015 -0.1545  0.0230
  145MOL0     C19881   7.188   7.676   5.480 -0.5215  0.2684  0.1709
  145MOL0     C19882   7.276   7.599   5.583 -0.9516  0.7011 -0.3887
  145MOL0     C19883   7.425   7.640   5.568  0.5943 -0.0093  0.0191
  145MOL0     C19884   7.519   7.539   5.631 -0.2426 -0.1448 -0.0339
  145MOL0     C19885   7.603   7.450   5.525  1.0319  0.2351 -0.4286
  145MOL0     C19886   7.719   7.522   5.463 -0.5831  1.0099  0.8857
  145MOL0     C19887   7.823   7.575   5.564  0.5797 -0.3362 -0.1605
  145MOL0     C19888   7.851   7.481   5.681  0.4155 -0.0792  0.6702
  145MOL0     N19889   7.930   7.359   5.648  0.0659  0.5283 -1.0181
  145MOL0     C19890   8.005   7.325   5.537  0.1978  0.3969 -0.4447
  145MOL0     C19891   8.043   7.199   5.559  0.6888 -0.1535 -0.1206
  145MOL0     C19892   8.111   7.122   5.451 -1.1127 -0.9861  0.3336
  145MOL0     C19893   8.061   6.975   5.430  1.1121  0.0449  1.2514
  145MOL0     C19894   8.121   6.874   5.529 -0.0218  0.3142  0.5192
  145MOL0     C19895   8.135   6.732   5.474  0.2885 -0.2328 -0.4855
  145MOL0     O19896   8.013   6.673   5.418  1.1321  0.2276  0.1316
  145MOL0     C19897   8.017   6.551   5.354  0.0839 -0.6376  0.3887
  145MOL0     C19898   7.896   6.504   5.300 -0.0070  0.2612 -0.5836
  145MOL0     C19899   7.884   6.373   5.237 -0.7740 -0.2290 -0.4286
  145MOL0     C19900   7.749   6.322   5.202  0.1753  0.2739 -0.2050
  145MOL0     C19901   8.001   6.297   5.221  0.1014  0.4196  0.4778
  145MOL0     C19902   8.009   6.147   5.179 -1.1334 -0.0141  0.1066
  145MOL0     O19903   8.127   6.088   5.176 -0.2736  0.0698  0.1908
  145MOL0     C19904   8.146   5.950   5.164 -0.3603  0.0547 -0.1826
  145MOL0     C19905   8.091   5.880   5.052  0.3572  0.3252  0.0331
  145MOL0     C19906   8.111   5.738   5.042 -0.7450 -1.1371  0.0441
  145MOL0     C19907   8.192   5.665   5.137  0.0511 -0.9620 -0.0912
  145MOL0     O19908   8.204   5.533   5.107 -0.2939 -0.2023 -0.3606
  145MOL0     C19909   8.269   5.445   5.205  0.7505  0.0923 -0.6404
  145MOL0     C19910   8.420   5.417   5.191 -0.8584 -0.3236 -0.0904
  145MOL0     C19911   8.467   5.351   5.061  0.4315  1.2542 -0.2831
  145MOL0     C19912   8.524   5.219   5.079 -0.0815  1.0966  0.9727
  145MOL0     C19913   8.417   5.115   5.120 -0.2274 -0.3836 -0.7599
  145MOL0     C19914   8.356   5.041   5.002 -0.0915  0.4049 -0.6565
  145MOL0     C19915   8.224   4.976   5.035  0.4605 -0.3312 -0.0669
  145MOL0     C19916   8.161   4.870   4.946 -0.7895  0.6514 -0.4747
  145MOL0    Cl19917   8.279   4.739   4.911 -0.1696  0.3577  0.6659
  145MOL0     C19918   8.248   5.745   5.245 -0.1181 -0.2562  0.2703
  145MOL0     C19919   8.218   5.885   5.262 -0.2244 -0.5794 -0.7198
  145MOL0     O19920   7.904   6.094   5.152  0.4709  0.7816  0.3511
  145MOL0     C19921   8.118   6.350   5.271  0.8510  0.1084  0.5486
  145MOL0     C19922   8.132   6.475   5.333 -0.3901  0.0632  0.0772
  145MOL0     N19923   7.994   7.160   5.684 -0.0206  0.4476 -0.0441
  145MOL0     N19924   7.934   7.256   5.739  0.4040  0.8010 -0.0684
  145MOL0     C19925   6.834   7.605   5.445  0.0277 -0.3495 -0.5657
  145MOL0     C19926   6.723   7.648   5.382  0.0513  0.6623 -0.1778
  145MOL0     C19927   6.472   7.870   5.048  0.5854  0.7510  0.7838
  145MOL0     C19928   6.428   7.737   5.005 -0.1494  0.3159  0.1760
  145MOL0     C19929   6.297   7.729   4.959  0.4366  0.3871 -0.2936
  145MOL0     C19930   6.213   7.839   4.954  0.2107  0.7617 -0.6000
  145MOL0     O19931   6.084   7.837   4.899 -0.5866  0.6684  0.2494
  145MOL0     C19932   6.034   7.730   4.813  0.0788 -0.3287  1.0941
  145MOL0     C19933   5.966   7.797   4.687 -0.1015  0.7787  0.9682
  145MOL0     C19934   5.908   7.705   4.578 -0.3462 -0.0485 -0.4397
  145MOL0     C19935   5.978   7.702   4.449  0.5700 -0.5124  0.2699
  145MOL0     C19936   5.913   7.614   4.346 -0.2062 -0.6222 -0.4098
  145MOL0     C19937   5.874   7.537   4.263  0.2580 -0.8596  1.4620
  145MOL0     C19938   6.260   7.965   4.996  0.5451 -0.1319  0.1841
  145MOL0     C19939   6.393   7.983   5.043  0.0223 -0.7604  0.3693
  145MOL0     C19940   6.425   8.117   5.098  0.1122 -1.1552  0.6815
  145MOL0     H19941   6.863   7.809   5.120  0.0890 -1.4065 -0.9248
  145MOL0     H19942   7.076   7.765   5.251 -0.0113 -1.6589 -1.5172
  145MOL0     H19943   7.193   7.784   5.499 -2.9526  0.5856 -0.5904
  145MOL0     H19944   7.226   7.660   5.379  0.0035 -0.3829  0.4606
  145MOL0     H19945   7.231   7.623   5.679  1.6727  2.0784  0.5837
  145MOL0     H19946   7.266   7.493   5.557 -3.2541  1.1464 -1.5189
  145MOL0     H19947   7.447   7.658   5.462 -0.0391  1.2156  0.0838
  145MOL0     H19948   7.426   7.737   5.619 -0.7502 -0.0124  0.0737
  145MOL0     H19949   7.587   7.597   5.694  1.1032 -0.8306 -0.8187
  145MOL0     H19950   7.461   7.478   5.701 -2.4877  0.6351 -1.1190
  145MOL0     H19951   7.542   7.399   5.449  0.5019 -1.3582  1.0043
  145MOL0     H19952   7.645   7.362   5.574  0.3781  0.2285  0.1417
  145MOL0     H19953   7.774   7.453   5.398  1.3027  2.2024  1.1424
  145MOL0     H19954   7.683   7.599   5.394 -0.5661 -0.1588 -0.4779
  145MOL0     H19955   7.781   7.667   5.605  0.7622 -0.9866  1.5631
  145MOL0     H19956   7.912   7.600   5.506 -0.9247  0.0212 -2.4411
  145MOL0     H19957   7.920   7.544   5.739  0.4127  1.9508 -1.3882
  145MOL0     H19958   7.768   7.447   5.744 -1.0018 -1.0942 -1.6394
  145MOL0     H19959   8.026   7.382   5.447  2.8601 -1.7126 -1.2943
  145MOL0     H19960   8.220   7.116   5.463 -1.2181 -2.6903  0.7042
  145MOL0     H19961   8.105   7.175   5.356  0.2802 -1.0252  0.2016
  145MOL0     H19962   7.952   6.981   5.439  0.8640 -0.6345 -0.7222
  145MOL0     H19963   8.089   6.948   5.328  1.2843  1.5895  0.8607
  145MOL0     H19964   8.223   6.905   5.553  0.2547 -0.7151  0.7421
  145MOL0     H19965   8.054   6.874   5.616 -0.0199  0.4311  0.5217
  145MOL0     H19966   8.218   6.740   5.403 -0.9374  1.9699 -1.8204
  145MOL0     H19967   8.171   6.664   5.551  1.0501 -0.9255 -1.4376
  145MOL0     H19968   7.810   6.569   5.307  1.2872  2.3449 -2.6022
  145MOL0     H19969   7.706   6.239   5.257 -0.1613 -0.7810 -2.0096
  145MOL0     H19970   7.745   6.281   5.101  1.4402  0.0571 -0.1882
  145MOL0     H19971   7.688   6.413   5.205 -0.7461 -0.1849 -2.8507
  145MOL0     H19972   8.032   5.927   4.975 -0.4741 -2.2351 -1.0167
  145MOL0     H19973   8.072   5.681   4.958  0.3625  0.6079 -1.7033
  145MOL0     H19974   8.237   5.474   5.305 -0.2956 -2.1741 -0.2589
  145MOL0     H19975   8.217   5.350   5.192  1.8954 -0.7270  0.5315
  145MOL0     H19976   8.465   5.517   5.190  0.8066 -1.0237  0.3385
  145MOL0     H19977   8.458   5.359   5.276  1.3268 -0.7043 -1.2370
  145MOL0     H19978   8.539   5.414   5.008  4.3636 -0.4201  2.5649
  145MOL0     H19979   8.373   5.348   5.006 -1.8474  1.2282  3.2768
  145MOL0     H19980   8.601   5.216   5.156 -0.2249  0.8097  1.1090
  145MOL0     H19981   8.553   5.188   4.978 -3.6474  0.0472  0.1333
  145MOL0     H19982   8.456   5.052   5.200 -0.2382 -1.0357 -1.2596
  145MOL0     H19983   8.335   5.168   5.170  0.3658  0.6995 -0.9147
  145MOL0     H19984   8.432   4.967   4.975  1.9374  1.4482  1.8001
  145MOL0     H19985   8.343   5.098   4.910 -2.4176  0.0927 -0.5770
  145MOL0     H19986   8.162   5.066   5.039  0.6887 -0.1753 -0.0579
  145MOL0     H19987   8.227   4.930   5.134  0.3457 -0.6762 -0.2224
  145MOL0     H19988   8.125   4.915   4.853 -3.5876  2.3054  1.2667
  145MOL0     H19989   8.074   4.821   4.991  0.6999 -2.8979 -1.1399
  145MOL0     H19990   8.309   5.688   5.315  1.0340 -1.0245 -1.2583
  145MOL0     H19991   8.250   5.948   5.344  0.4324 -0.3478 -1.1490
  145MOL0     H19992   8.208   6.296   5.243  1.1049 -0.1498  1.8053
  145MOL0     H19993   8.229   6.485   5.381  0.1493 -1.1523 -0.7363
  145MOL0     H19994   6.809   7.568   5.544  0.7709 -2.3828 -1.1056
  145MOL0     H19995   6.622   7.625   5.416 -0.2819 -0.2970 -1.7378
  145MOL0     H19996   6.498   7.653   4.999 -0.7467 -0.1561 -0.3301
  145MOL0     H19997   6.257   7.636   4.921  0.5300  0.1532  0.1730
  145MOL0     H19998   6.107   7.655   4.784 -1.0712 -1.1351  0.1713
  145MOL0     H19999   5.950   7.674   4.856 -0.9092 -0.7075 -1.2005
  145MOL0     H20000   6.039   7.864   4.642 -0.4434  0.7749  0.3925
  145MOL0     H20001   5.880   7.862   4.708 -0.2962  0.8435  0.0331
  145MOL0     H20002   5.895   7.607   4.623 -1.3578  0.8044  1.2496
  145MOL0     H20003   5.806   7.740   4.558 -1.1843 -0.8316  2.1222
  145MOL0     H20004   6.077   7.661   4.470  0.8610 -0.4693 -0.9467
  145MOL0     H20005   5.979   7.803   4.406 -2.1597 -0.2613  0.5764
  145MOL0     H20006   5.826   7.473   4.191 -1.3238  3.0231 -1.2978
  145MOL0     H20007   6.189   8.046   5.001  1.2006  0.5406 -0.9798
  145MOL0     H20008   6.359   8.194   5.056  0.9297 -1.7602 -1.9099
  145MOL0     H20009   6.429   8.118   5.207 -4.8413 -0.8039  1.0487
  145MOL0     H20010   6.522   8.152   5.060  1.0754 -2.9427  1.3693
  146MOL0     O20011  11.268   9.047   9.236  0.0894  0.0656  0.2183
  146MOL0     C20012  11.319   8.938   9.235  0.1335  0.6450 -0.2247
  146MOL0     O20013  11.454   8.910   9.234 -0.6327  0.0677 -0.1837
  146MOL0     C20014  11.552   9.005   9.254  0.0063  0.8166  0.1188
  146MOL0     C20015  11.539   9.134   9.305  0.1946 -0.1463  0.3298
  146MOL0     C20016  11.653   9.217   9.313  0.0277 -0.4606  0.8875
  146MOL0     C20017  11.777   9.183   9.274 -0.1071  0.6328  0.6219
  146MOL0     O20018  11.882   9.273   9.283  0.4321  0.1128 -0.3216
  146MOL0     C20019  12.004   9.243   9.210  1.5287 -0.0804 -0.4202
  146MOL0     C20020  12.086   9.374   9.235 -0.4827 -0.2260  0.1827
  146MOL0     C20021  12.234   9.338   9.268  1.3093 -0.1939  1.2753
  146MOL0     C20022  12.255   9.301   9.423 -0.8748 -0.3857 -0.7745
  146MOL0     C20023  12.375   9.221   9.445 -0.2799  0.3420 -0.4239
  146MOL0     C20024  12.498   9.294   9.399 -0.4834  0.4490 -0.2227
  146MOL0     C20025  12.526   9.430   9.462 -0.0392 -0.5163 -0.3950
  146MOL0     C20026  12.677   9.476   9.447 -0.2241  0.6835 -0.1068
  146MOL0     N20027  12.779   9.412   9.530  0.7273  0.0676  0.8288
  146MOL0     C20028  12.908   9.386   9.489  0.9459  0.1913  0.2012
  146MOL0     C20029  12.958   9.303   9.586 -0.5408  0.2243  1.0073
  146MOL0     C20030  13.110   9.258   9.595  0.8577 -0.5605  1.0714
  146MOL0     C20031  13.206   9.359   9.659  0.1944  0.8179  0.7234
  146MOL0     C20032  13.243   9.483   9.579  0.4918 -1.2138 -0.2147
  146MOL0     C20033  13.344   9.571   9.654  0.1485 -0.5988  0.1340
  146MOL0     O20034  13.315   9.709   9.614  0.3993  0.2961  0.0869
  146MOL0     C20035  13.374   9.755   9.495  1.0032  0.0956  0.3859
  146MOL0     C20036  13.344   9.887   9.460  0.4318 -0.7796 -0.5243
  146MOL0     C20037  13.403   9.958   9.351 -0.0108 -0.1872  0.4287
  146MOL0     C20038  13.334  10.089   9.310 -0.5853 -0.5192 -0.5460
  146MOL0     C20039  13.503   9.888   9.278  0.1720  1.0094  0.0670
  146MOL0     C20040  13.585   9.945   9.167 -0.9303 -0.2214 -0.1603
  146MOL0     O20041  13.718   9.907   9.160 -0.5001 -0.1595  0.2496
  146MOL0     C20042  13.786   9.929   9.036  0.4205 -0.0810 -0.7481
  146MOL0     C20043  13.720   9.920   8.911  0.0030 -0.3860 -0.6014
  146MOL0     C20044  13.798   9.918   8.794  0.1213 -0.2373  0.6062
  146MOL0     C20045  13.941   9.918   8.810  0.0282 -0.4294 -0.1440
  146MOL0     O20046  14.009   9.911   8.695 -0.2248  0.0120 -0.4777
  146MOL0     C20047  14.155   9.940   8.685 -0.4034 -0.3561  0.2260
  146MOL0     C20048  14.198   9.961   8.536  0.1489 -0.4951  0.5178
  146MOL0     C20049  14.103  10.068   8.475  0.5366 -0.3832  0.3519
  146MOL0     C20050  13.995   9.990   8.406  0.4568  0.2110 -0.0503
  146MOL0     C20051  13.874  10.073   8.373 -0.1397 -0.4975  0.0217
  146MOL0     C20052  13.752   9.988   8.320 -0.6269  0.0847 -0.5536
  146MOL0     C20053  13.649  10.092   8.272  0.9723 -0.6091 -0.3308
  146MOL0     C20054  13.511  10.033   8.274  0.3077  0.0427  0.2148
  146MOL0    Cl20055  13.466   9.978   8.442 -0.1671  0.1096  0.1894
  146MOL0     C20056  14.000   9.928   8.940 -0.2416 -0.1674 -0.9737
  146MOL0     C20057  13.917   9.937   9.047  0.1494  0.4119 -1.0203
  146MOL0     O20058  13.528  10.019   9.091 -0.2695 -0.0362  0.3430
  146MOL0     C20059  13.535   9.755   9.312  0.1782 -0.6979 -0.6697
  146MOL0     C20060  13.467   9.682   9.413 -0.6791 -0.3989 -0.8037
  146MOL0     N20061  12.862   9.277   9.676 -0.0259  0.0359  1.3284
  146MOL0     N20062  12.764   9.350   9.651 -0.0646 -0.0180  0.6752
  146MOL0     C20063  11.796   9.048   9.224 -0.3097  0.7217  0.4833
  146MOL0     C20064  11.684   8.958   9.225  0.0536  0.1026  0.0852
  146MOL0     C20065  11.236   8.821   9.230  0.4575  0.6980 -0.1836
  146MOL0     C20066  11.280   8.689   9.194 -0.3110  0.8479 -1.1453
  146MOL0     C20067  11.192   8.579   9.194 -0.1318  0.3472 -0.6532
  146MOL0     C20068  11.061   8.596   9.226  0.2196  1.0291  0.5157
  146MOL0     O20069  10.984   8.489   9.229  0.0306  0.7894  0.5455
  146MOL0     C20070  10.943   8.458   9.363  0.2071 -0.8642  0.3377
  146MOL0     C20071  11.027   8.346   9.424 -0.2946 -0.1197 -0.0027
  146MOL0     C20072  11.002   8.211   9.358  1.1835  0.0879 -0.2194
  146MOL0     C20073  11.092   8.097   9.409 -0.2416  0.2650 -0.7262
  146MOL0     C20074  11.089   8.085   9.552 -0.2278 -1.0657 -0.1273
  146MOL0     C20075  11.104   8.067   9.675  0.0811  0.8978 -0.1678
  146MOL0     C20076  11.011   8.716   9.252 -0.0247  0.4667  0.8529
  146MOL0     C20077  11.095   8.832   9.263 -0.9868 -0.2467 -0.0853
  146MOL0     C20078  11.019   8.954   9.316 -0.5884  0.3261 -0.2729
  146MOL0     H20079  11.448   9.179   9.344  0.2920  1.7597 -1.4606
  146MOL0     H20080  11.648   9.314   9.360 -0.8568  0.2424 -0.5924
  146MOL0     H20081  11.996   9.226   9.103  1.4946  0.3536 -0.4919
  146MOL0     H20082  12.034   9.150   9.258 -1.8711 -1.0436  0.0665
  146MOL0     H20083  12.086   9.437   9.146 -0.2765 -0.9266 -0.3235
  146MOL0     H20084  12.050   9.435   9.318 -0.9204 -0.5157  0.2086
  146MOL0     H20085  12.279   9.268   9.197 -0.1729  1.1016 -1.0813
  146MOL0     H20086  12.287   9.433   9.258 -1.9381  1.6002 -0.7369
  146MOL0     H20087  12.251   9.386   9.491 -2.4823 -1.0094 -0.0382
  146MOL0     H20088  12.164   9.244   9.444 -1.0148 -0.3134 -1.1584
  146MOL0     H20089  12.368   9.125   9.393  0.8651  0.8753 -1.6301
  146MOL0     H20090  12.385   9.200   9.552  2.8427 -3.2977 -1.2024
  146MOL0     H20091  12.579   9.222   9.419 -1.5690 -1.2178 -1.5707
  146MOL0     H20092  12.496   9.313   9.292 -0.5509  2.5656  0.1102
  146MOL0     H20093  12.505   9.421   9.569  1.0798  0.9102 -0.0134
  146MOL0     H20094  12.456   9.507   9.427  0.4308 -0.6667 -1.7088
  146MOL0     H20095  12.699   9.470   9.340  1.8550 -0.4095  0.3413
  146MOL0     H20096  12.682   9.585   9.455  0.1437  0.6921 -0.4286
  146MOL0     H20097  12.947   9.425   9.395  0.5734 -0.7379 -0.3596
  146MOL0     H20098  13.139   9.229   9.494  0.6396  1.0427  0.5262
  146MOL0     H20099  13.115   9.164   9.651 -0.9806 -0.3868  1.6030
  146MOL0     H20100  13.157   9.394   9.750 -0.3291  1.7028  0.1182
  146MOL0     H20101  13.293   9.298   9.685  0.4226  0.7884 -0.0787
  146MOL0     H20102  13.271   9.458   9.477  0.3908  2.0235 -1.1539
  146MOL0     H20103  13.155   9.549   9.578  2.9513  2.3449 -0.9244
  146MOL0     H20104  13.326   9.563   9.761 -1.3002 -4.3246 -0.2458
  146MOL0     H20105  13.449   9.555   9.629  0.1720  0.8523 -0.8270
  146MOL0     H20106  13.284   9.950   9.524  2.2343 -0.1185  0.5719
  146MOL0     H20107  13.259  10.130   9.378  0.5056  0.3359  0.1713
  146MOL0     H20108  13.279  10.070   9.217  0.3526  0.8744 -1.4281
  146MOL0     H20109  13.410  10.157   9.270  1.2613 -1.0209  1.8560
  146MOL0     H20110  13.613   9.907   8.901 -0.1331  0.5289 -0.4111
  146MOL0     H20111  13.757   9.909   8.694  1.9999 -3.7194 -0.0254
  146MOL0     H20112  14.172  10.036   8.735 -0.1774  0.1491 -0.7909
  146MOL0     H20113  14.216   9.863   8.732  0.3111  1.6771  2.8511
  146MOL0     H20114  14.303   9.992   8.540 -0.1337  0.8126 -1.1728
  146MOL0     H20115  14.194   9.872   8.472 -0.4924  1.6631 -2.6705
  146MOL0     H20116  14.165  10.122   8.403  0.6699 -2.1188 -0.9162
  146MOL0     H20117  14.064  10.138   8.549  0.2173 -2.5739  2.3792
  146MOL0     H20118  13.971   9.907   8.474  2.9462 -1.1904 -0.7196
  146MOL0     H20119  14.038   9.944   8.316 -0.6719  0.5675 -0.7872
  146MOL0     H20120  13.842  10.122   8.465  1.8858 -0.6192  0.8578
  146MOL0     H20121  13.897  10.150   8.298  0.0200 -1.0168 -0.4684
  146MOL0     H20122  13.711   9.931   8.404 -1.6420  1.0496 -0.3726
  146MOL0     H20123  13.775   9.911   8.246  1.3742 -0.4800  0.5744
  146MOL0     H20124  13.673  10.128   8.172  2.1410 -5.0641 -1.8991
  146MOL0     H20125  13.632  10.171   8.345  1.0335  1.7818 -2.7545
  146MOL0     H20126  13.514   9.938   8.220 -3.3109 -2.0071  3.1627
  146MOL0     H20127  13.445  10.111   8.234 -1.4600 -0.3560  2.2010
  146MOL0     H20128  14.107   9.942   8.956 -0.2882 -0.8134  0.0232
  146MOL0     H20129  13.963   9.956   9.143 -2.9584 -0.9926  0.8926
  146MOL0     H20130  13.615   9.701   9.263  1.8290 -2.5712  3.5309
  146MOL0     H20131  13.497   9.579   9.425 -0.1581 -0.1580  0.0728
  146MOL0     H20132  11.894   9.015   9.190 -0.6988 -1.4560  1.2736
  146MOL0     H20133  11.688   8.857   9.185  0.5095  0.0627  0.2247
  146MOL0     H20134  11.384   8.665   9.179  0.3175  1.9026  1.1023
  146MOL0     H20135  11.234   8.482   9.171  0.9429  0.3489  1.0895
  146MOL0     H20136  10.932   8.543   9.431 -1.3376 -0.9269  0.2110
  146MOL0     H20137  10.841   8.420   9.373 -0.3656  0.4773 -0.2170
  146MOL0     H20138  11.009   8.346   9.532 -2.6365  1.4412 -0.3154
  146MOL0     H20139  11.133   8.366   9.404 -0.5068 -1.3504 -2.8106
  146MOL0     H20140  10.899   8.179   9.374  1.8890 -1.9200  0.6007
  146MOL0     H20141  11.013   8.225   9.250  2.7296 -0.0777 -0.1078
  146MOL0     H20142  11.195   8.118   9.377 -1.3700  2.6206 -3.1788
  146MOL0     H20143  11.061   8.004   9.361  1.3764 -0.0180 -1.2983
  146MOL0     H20144  11.110   8.048   9.780 -0.5177  2.0338  0.0881
  146MOL0     H20145  10.902   8.720   9.260 -0.3295 -0.7302 -1.5421
  146MOL0     H20146  10.920   8.922   9.349 -0.2795  0.2754  0.6626
  146MOL0     H20147  11.080   9.006   9.391  2.5696  1.3521 -3.2684
  146MOL0     H20148  10.998   9.021   9.233  0.7588  0.1934 -0.7427
  147MOL0     O20149   3.838   6.486   9.383  0.0437 -0.5965 -1.1566
  147MOL0     C20150   3.717   6.497   9.374 -0.6301  0.5862 -0.0746
  147MOL0     O20151   3.636   6.495   9.257 -0.2331  0.6103  0.2456
  147MOL0     C20152   3.706   6.486   9.137 -0.3643 -0.0403 -1.4490
  147MOL0     C20153   3.792   6.583   9.094 -0.4107  0.2298  0.1215
  147MOL0     C20154   3.858   6.565   8.976  0.2766 -0.0817  0.4195
  147MOL0     C20155   3.855   6.451   8.898  0.3230  0.1981  1.0925
  147MOL0     O20156   3.944   6.439   8.793 -0.4752  0.7133  0.3946
  147MOL0     C20157   3.906   6.328   8.700 -0.4733  0.6025 -0.5114
  147MOL0     C20158   4.008   6.306   8.592 -0.4245  0.0055 -0.4244
  147MOL0     C20159   4.143   6.270   8.649 -0.1663 -0.9136  0.1309
  147MOL0     C20160   4.190   6.146   8.597 -1.3106  0.6881 -0.2519
  147MOL0     C20161   4.339   6.136   8.611 -0.1282 -0.4589 -0.1166
  147MOL0     C20162   4.369   6.003   8.531 -0.3960  0.0470 -0.0737
  147MOL0     C20163   4.519   5.960   8.544  0.0566 -0.2500 -0.2446
  147MOL0     C20164   4.614   6.069   8.490 -0.5481 -0.8880  0.3406
  147MOL0     N20165   4.763   6.032   8.494  0.9399 -0.0642  0.2118
  147MOL0     C20166   4.843   5.996   8.391 -0.6820  0.3637  0.0885
  147MOL0     C20167   4.968   5.990   8.453  0.1282  0.5866 -0.9022
  147MOL0     C20168   5.090   5.969   8.380 -0.7486 -0.0107 -0.6253
  147MOL0     C20169   5.112   5.818   8.365 -0.3025 -1.0902  0.2496
  147MOL0     C20170   5.152   5.789   8.221  0.4506 -0.0429 -0.6884
  147MOL0     C20171   5.282   5.848   8.170 -0.0510 -0.5904 -0.7364
  147MOL0     O20172   5.387   5.834   8.268  0.0123 -0.0787  0.4620
  147MOL0     C20173   5.516   5.828   8.231 -0.6859  0.3647  1.5611
  147MOL0     C20174   5.613   5.811   8.326  0.1667  0.3625  0.6063
  147MOL0     C20175   5.753   5.807   8.290  0.1224 -0.0053 -0.0080
  147MOL0     C20176   5.855   5.771   8.396 -0.6164  0.9043  0.0465
  147MOL0     C20177   5.792   5.826   8.155 -0.1166 -0.2598  0.0261
  147MOL0     C20178   5.929   5.834   8.106 -0.7535 -0.5124  0.6050
  147MOL0     O20179   5.942   5.908   7.988  0.4742  0.6521  0.4032
  147MOL0     C20180   6.064   5.909   7.924 -0.9506 -0.2218  0.0373
  147MOL0     C20181   6.172   5.979   7.981  0.3688  0.8167  0.8603
  147MOL0     C20182   6.294   5.995   7.915 -1.0083  0.4371  0.0490
  147MOL0     C20183   6.304   5.938   7.792 -0.1166  0.5333  0.2330
  147MOL0     O20184   6.428   5.949   7.737 -0.0440 -0.0585  0.1901
  147MOL0     C20185   6.460   5.864   7.624 -0.5132 -0.6189  0.1131
  147MOL0     C20186   6.607   5.888   7.584 -0.0745  0.2817 -0.1164
  147MOL0     C20187   6.666   5.779   7.490  0.2633  0.3101 -0.9333
  147MOL0     C20188   6.718   5.655   7.571 -0.2880 -0.1305 -0.7004
  147MOL0     C20189   6.776   5.548   7.466 -0.5870 -0.4930 -0.3351
  147MOL0     C20190   6.905   5.588   7.389 -0.0541  0.3524  0.1635
  147MOL0     C20191   6.941   5.490   7.274  0.3502 -0.5332 -0.2033
  147MOL0     C20192   7.081   5.513   7.218 -0.1029 -0.8377 -0.1261
  147MOL0    Cl20193   7.103   5.397   7.081 -0.0481 -0.0044 -0.1673
  147MOL0     C20194   6.201   5.868   7.738 -0.2978  0.1983  0.7164
  147MOL0     C20195   6.081   5.847   7.806 -1.4315  1.3214  0.0063
  147MOL0     O20196   6.025   5.799   8.167 -0.2585  0.7157 -0.7151
  147MOL0     C20197   5.688   5.847   8.063 -0.1405  0.1354  0.3762
  147MOL0     C20198   5.556   5.852   8.102 -0.3883  0.6749  0.0550
  147MOL0     N20199   4.958   6.009   8.589  0.6552 -1.1169 -0.2169
  147MOL0     N20200   4.836   6.047   8.612 -0.4201  0.7874 -0.8483
  147MOL0     C20201   3.766   6.348   8.941 -0.8501  0.2193 -0.5507
  147MOL0     C20202   3.690   6.367   9.059  0.1238  0.0474 -0.1774
  147MOL0     C20203   3.659   6.517   9.508  0.9468  1.1666 -0.0868
  147MOL0     C20204   3.738   6.478   9.623  0.1453 -0.1454 -1.1365
  147MOL0     C20205   3.689   6.489   9.753 -0.1383  0.5125 -0.2547
  147MOL0     C20206   3.557   6.541   9.769 -0.0167  0.4308  0.5179
  147MOL0     O20207   3.521   6.533   9.901  0.5362 -0.6545  0.1974
  147MOL0     C20208   3.421   6.620   9.950  0.2159 -0.7833 -0.5417
  147MOL0     C20209   3.422   6.635  10.104  0.3927 -0.5494 -0.9042
  147MOL0     C20210   3.390   6.511  10.188  0.1722  0.6459 -0.5758
  147MOL0     C20211   3.487   6.521  10.309 -0.4490  0.1305 -0.1436
  147MOL0     C20212   3.459   6.423  10.415  0.0668 -0.7881  0.4629
  147MOL0     C20213   3.416   6.349  10.493 -0.2312 -0.1144 -0.5186
  147MOL0     C20214   3.480   6.575   9.661 -1.4993 -0.1032  0.1491
  147MOL0     C20215   3.528   6.562   9.527 -0.5154 -0.4125  0.0228
  147MOL0     C20216   3.438   6.600   9.421  0.1589  0.3504  0.2591
  147MOL0     H20217   3.804   6.679   9.144 -1.3036  0.5110 -0.1763
  147MOL0     H20218   3.925   6.641   8.937  1.7975 -0.2886  2.4410
  147MOL0     H20219   3.810   6.363   8.660  0.0784 -0.1554 -2.6742
  147MOL0     H20220   3.895   6.231   8.748 -1.3321  0.9257 -0.0434
  147MOL0     H20221   3.975   6.217   8.537  0.8939 -0.9000  0.1909
  147MOL0     H20222   4.021   6.389   8.523 -0.4623 -0.3843 -0.9041
  147MOL0     H20223   4.210   6.356   8.638 -3.0255  1.3094 -1.1260
  147MOL0     H20224   4.143   6.265   8.759  2.1696 -0.8811  0.1846
  147MOL0     H20225   4.149   6.058   8.646  0.9337  0.0626  0.6052
  147MOL0     H20226   4.159   6.132   8.493  1.4679  0.9889 -1.2030
  147MOL0     H20227   4.358   6.130   8.719  0.0333  2.2493  0.0689
  147MOL0     H20228   4.382   6.230   8.576 -0.1654 -0.3239  0.1986
  147MOL0     H20229   4.295   5.924   8.547 -1.7339  1.2902  0.1279
  147MOL0     H20230   4.352   6.027   8.425  2.8312  0.7169 -0.5413
  147MOL0     H20231   4.543   5.861   8.505  3.2993  0.2795  0.1209
  147MOL0     H20232   4.544   5.956   8.650 -0.8539  1.2060  0.0551
  147MOL0     H20233   4.584   6.094   8.388  2.1895  1.1225 -0.1114
  147MOL0     H20234   4.606   6.158   8.552 -0.8478 -2.3864  2.5676
  147MOL0     H20235   4.829   5.985   8.284 -0.4381 -0.3898  0.1259
  147MOL0     H20236   5.178   6.009   8.431 -0.4993  0.3297 -1.3048
  147MOL0     H20237   5.090   6.032   8.290  3.0648  0.7235 -0.2762
  147MOL0     H20238   5.184   5.776   8.436  0.6585 -1.1858 -0.7433
  147MOL0     H20239   5.019   5.765   8.382 -1.1633  0.1360 -0.4128
  147MOL0     H20240   5.157   5.682   8.197  1.9747 -0.1810  0.1438
  147MOL0     H20241   5.079   5.843   8.160  0.2966 -1.5764 -1.9236
  147MOL0     H20242   5.300   5.793   8.078  0.5711  0.0745 -1.0210
  147MOL0     H20243   5.267   5.954   8.148  3.8257  0.3184  0.1759
  147MOL0     H20244   5.582   5.809   8.430  0.8537  0.0348  0.8167
  147MOL0     H20245   5.919   5.856   8.422  1.6096 -1.2040  1.9774
  147MOL0     H20246   5.925   5.692   8.366 -0.2038  1.5459 -0.7496
  147MOL0     H20247   5.804   5.754   8.491 -1.2920  0.8959 -0.3146
  147MOL0     H20248   6.133   6.026   8.070 -1.4404 -0.7723  0.9735
  147MOL0     H20249   6.367   6.063   7.958  1.4358  0.1605 -3.2791
  147MOL0     H20250   6.427   5.761   7.644 -3.5073  0.0551 -0.7709
  147MOL0     H20251   6.402   5.891   7.535 -1.6090 -1.5773  0.5066
  147MOL0     H20252   6.615   5.979   7.523 -0.9071 -0.1534 -0.8957
  147MOL0     H20253   6.671   5.902   7.672 -1.0250 -1.7206  0.9548
  147MOL0     H20254   6.744   5.819   7.425  0.6762  2.3292  0.7133
  147MOL0     H20255   6.582   5.752   7.425  0.3076 -2.2851 -0.0220
  147MOL0     H20256   6.630   5.613   7.621 -1.0351 -2.7686 -3.8801
  147MOL0     H20257   6.800   5.686   7.636 -1.2798  4.1306 -1.1649
  147MOL0     H20258   6.813   5.462   7.524 -4.5276 -0.7169  2.1988
  147MOL0     H20259   6.690   5.525   7.403 -2.7258  2.4467  1.2862
  147MOL0     H20260   6.990   5.604   7.457 -0.6804  0.5699  0.9060
  147MOL0     H20261   6.873   5.683   7.346 -0.3372  0.5882  0.8753
  147MOL0     H20262   6.867   5.499   7.194  2.2783 -4.0265 -2.6757
  147MOL0     H20263   6.938   5.387   7.313  0.3851 -0.6753 -0.5683
  147MOL0     H20264   7.159   5.492   7.291 -1.4967 -2.3564  1.0013
  147MOL0     H20265   7.104   5.614   7.184  2.4139 -0.5552  2.0873
  147MOL0     H20266   6.208   5.817   7.643  1.4027  3.3558 -1.0423
  147MOL0     H20267   6.002   5.784   7.766  0.3114 -1.4592  0.6734
  147MOL0     H20268   5.697   5.855   7.955  0.5835 -0.2972  0.4016
  147MOL0     H20269   5.486   5.875   8.023 -1.4990 -1.1820  0.4341
  147MOL0     H20270   3.759   6.249   8.897  0.9931 -1.8492  3.2473
  147MOL0     H20271   3.610   6.301   9.094 -2.4689  2.7121 -0.6745
  147MOL0     H20272   3.844   6.457   9.612  0.4131 -1.5465  2.5153
  147MOL0     H20273   3.756   6.468   9.835 -2.2942  0.8807  1.7110
  147MOL0     H20274   3.430   6.719   9.904  0.7015 -0.7140 -0.3028
  147MOL0     H20275   3.319   6.585   9.936  0.3539 -1.5010  0.1848
  147MOL0     H20276   3.356   6.716  10.139  2.0110  1.5890 -2.4944
  147MOL0     H20277   3.523   6.670  10.129  1.0360 -1.3129 -2.3447
  147MOL0     H20278   3.290   6.511  10.232  1.0845  0.8243  1.6026
  147MOL0     H20279   3.414   6.416  10.139 -3.1514  1.0157 -3.3263
  147MOL0     H20280   3.484   6.623  10.349 -2.5597 -0.5519  1.6183
  147MOL0     H20281   3.590   6.508  10.275 -0.4619 -0.7792  0.1490
  147MOL0     H20282   3.379   6.293  10.576 -1.7942  1.3280 -0.1812
  147MOL0     H20283   3.377   6.596   9.686 -1.0618  0.5205  1.5058
  147MOL0     H20284   3.481   6.667   9.346  0.2888 -1.3868 -1.2782
  147MOL0     H20285   3.410   6.510   9.367 -1.3339  1.3282 -0.6409
  147MOL0     H20286   3.348   6.646   9.462 -0.1978  0.4154 -0.5830
  148MOL0     O20287   1.061  11.427   7.402  0.6527 -0.2994 -0.1272
  148MOL0     C20288   1.102  11.442   7.285  0.9054 -0.5648  0.4689
  148MOL0     O20289   1.023  11.424   7.172 -0.5138 -0.7608 -0.5333
  148MOL0     C20290   0.895  11.375   7.157 -0.0225 -1.0346  0.5997
  148MOL0     C20291   0.816  11.320   7.262 -0.1732  0.0832 -0.4641
  148MOL0     C20292   0.696  11.263   7.241 -0.3432 -0.0804  0.6352
  148MOL0     C20293   0.631  11.263   7.114 -1.0875  0.6223 -0.9362
  148MOL0     O20294   0.497  11.232   7.098 -0.0812 -0.3074 -0.7525
  148MOL0     C20295   0.489  11.130   6.995 -0.6018  0.6730  0.2136
  148MOL0     C20296   0.362  11.039   6.998  0.1929 -0.2535  0.0655
  148MOL0     C20297   0.350  10.929   6.894  0.3588  0.5957 -0.0597
  148MOL0     C20298   0.236  10.836   6.917  0.4133 -0.3840  1.0188
  148MOL0     C20299   0.242  10.695   6.838 -0.2500 -0.3935  0.9327
  148MOL0     C20300   0.235  10.716   6.685 -0.5625 -1.6089 -0.4100
  148MOL0     C20301   0.193  10.592   6.601  0.9642  0.5952  0.5001
  148MOL0     C20302   0.107  10.619   6.479 -0.6862 -0.9731 -0.1185
  148MOL0     N20303   0.168  10.694   6.369 -0.0042 -0.8177  0.1879
  148MOL0     C20304   0.285  10.668   6.311 -1.2622 -0.2295 -0.0511
  148MOL0     C20305   0.282  10.741   6.192 -1.0898 -0.0515  0.3120
  148MOL0     C20306   0.381  10.743   6.083 -0.0867 -1.0441  0.8259
  148MOL0     C20307   0.525  10.767   6.144  0.0383  0.1872  0.1018
  148MOL0     C20308   0.637  10.775   6.046  0.1541 -0.2513 -0.2032
  148MOL0     C20309   0.776  10.758   6.117 -0.1444  0.0974 -0.2077
  148MOL0     O20310   0.882  10.775   6.026 -0.1569 -0.9972  0.2858
  148MOL0     C20311   1.012  10.800   6.074  0.9581 -0.0505  0.6333
  148MOL0     C20312   1.041  10.809   6.207 -0.0018 -0.3394 -1.2229
  148MOL0     C20313   1.165  10.836   6.253  0.2135  0.1040  0.5808
  148MOL0     C20314   1.190  10.817   6.405 -0.7451  0.4516 -0.5821
  148MOL0     C20315   1.265  10.882   6.154 -0.8915 -0.5165  0.6412
  148MOL0     C20316   1.389  10.931   6.199  0.3819  1.0491  0.4970
  148MOL0     O20317   1.386  11.026   6.298 -0.2185 -0.3218 -0.0287
  148MOL0     C20318   1.512  11.063   6.341  0.3330 -0.4706  0.3272
  148MOL0     C20319   1.580  10.981   6.430  0.1950 -0.1359  0.5757
  148MOL0     C20320   1.720  11.007   6.454 -0.4720 -0.0338 -0.9010
  148MOL0     C20321   1.791  11.113   6.394 -0.2450  0.2544 -0.0024
  148MOL0     O20322   1.927  11.149   6.424 -0.2216  0.0515 -0.3802
  148MOL0     C20323   2.003  11.212   6.318 -0.5222 -0.6946  0.7169
  148MOL0     C20324   2.031  11.123   6.199 -0.2155 -0.3060  0.6569
  148MOL0     C20325   2.134  11.022   6.245 -0.2459 -0.1456  0.6386
  148MOL0     C20326   2.182  10.949   6.124  0.8811 -0.3209  1.1261
  148MOL0     C20327   2.312  10.866   6.153 -0.3985 -0.3124 -0.6579
  148MOL0     C20328   2.345  10.764   6.047  0.3010 -0.6728  0.4681
  148MOL0     C20329   2.468  10.682   6.077 -0.7072  0.4868  0.2160
  148MOL0     C20330   2.487  10.572   5.985  0.2209  0.9571 -0.5655
  148MOL0    Cl20331   2.654  10.497   6.036  0.6093 -0.0788 -0.3467
  148MOL0     C20332   1.716  11.190   6.303  0.5557  0.2740  0.3145
  148MOL0     C20333   1.579  11.161   6.266 -0.8702 -0.1125  0.1544
  148MOL0     O20334   1.484  10.891   6.132  0.0950  0.0238 -0.7664
  148MOL0     C20335   1.240  10.860   6.010 -0.8430  0.4291 -1.3833
  148MOL0     C20336   1.111  10.821   5.983 -0.0045 -0.9144 -0.2423
  148MOL0     N20337   0.165  10.812   6.185  0.8028  0.0882 -0.3006
  148MOL0     N20338   0.098  10.784   6.297  0.2632 -0.1359  0.4552
  148MOL0     C20339   0.711  11.315   7.008 -0.2095  0.7681 -0.4423
  148MOL0     C20340   0.837  11.366   7.027 -0.2088 -0.0235 -0.4642
  148MOL0     C20341   1.245  11.469   7.265 -0.2793 -0.2470  0.5956
  148MOL0     C20342   1.345  11.407   7.335 -1.2085  0.5855  0.2311
  148MOL0     C20343   1.481  11.439   7.326 -0.4235  0.3911 -0.0542
  148MOL0     C20344   1.525  11.526   7.234  0.1153 -0.8659  0.3830
  148MOL0     O20345   1.650  11.571   7.214  0.4171 -0.9416 -0.3423
  148MOL0     C20346   1.741  11.546   7.318 -0.7617 -0.0075  0.5236
  148MOL0     C20347   1.869  11.626   7.267 -0.8092  0.5126  0.3231
  148MOL0     C20348   1.991  11.600   7.354 -0.7540 -0.1978 -0.4092
  148MOL0     C20349   2.065  11.468   7.332 -0.7988 -1.2509  0.0291
  148MOL0     C20350   1.994  11.353   7.357  0.8745 -0.1620  0.1929
  148MOL0     C20351   1.937  11.245   7.356 -0.3289 -0.4954 -0.1949
  148MOL0     C20352   1.425  11.606   7.175 -0.5378 -0.5519 -0.0119
  148MOL0     C20353   1.285  11.574   7.177 -0.6282 -0.7574 -0.7587
  148MOL0     C20354   1.191  11.653   7.078 -0.3939  0.2560 -0.3446
  148MOL0     H20355   0.855  11.326   7.363  2.2073  0.8064 -1.3460
  148MOL0     H20356   0.640  11.219   7.324  1.1145 -2.8999  0.2546
  148MOL0     H20357   0.573  11.060   6.990 -1.5063 -0.4009 -0.3792
  148MOL0     H20358   0.489  11.187   6.902  0.0178  2.1919  1.1139
  148MOL0     H20359   0.371  10.990   7.096 -0.9134  3.0908  1.9995
  148MOL0     H20360   0.269  11.097   6.988  0.8121  0.5302 -1.4490
  148MOL0     H20361   0.344  10.982   6.798 -0.5130 -0.8860 -0.8502
  148MOL0     H20362   0.446  10.877   6.882  0.1767  0.3022 -0.2534
  148MOL0     H20363   0.218  10.821   7.024 -2.5804  2.2004  1.0187
  148MOL0     H20364   0.147  10.889   6.880  0.0280 -0.3183  2.0064
  148MOL0     H20365   0.154  10.641   6.875 -1.4383  0.0378 -1.1208
  148MOL0     H20366   0.331  10.638   6.868  0.3588 -0.5381 -0.9943
  148MOL0     H20367   0.162  10.796   6.669 -1.5716 -1.7811  2.6608
  148MOL0     H20368   0.331  10.753   6.647 -1.4105 -0.5484 -1.6155
  148MOL0     H20369   0.139  10.518   6.661 -1.1096  1.5242 -0.0960
  148MOL0     H20370   0.286  10.545   6.571  1.0110  1.3456 -0.5884
  148MOL0     H20371   0.077  10.524   6.434  0.4146 -0.9312 -0.9809
  148MOL0     H20372   0.020  10.671   6.520 -0.9474 -0.1504 -1.6513
  148MOL0     H20373   0.362  10.593   6.321 -0.8795  0.3136  1.2655
  148MOL0     H20374   0.360  10.822   6.010  0.4145  0.0597  1.8419
  148MOL0     H20375   0.384  10.641   6.044  0.0430 -1.3816  1.6987
  148MOL0     H20376   0.520  10.847   6.218 -1.0553 -1.4177  1.8626
  148MOL0     H20377   0.555  10.683   6.208 -0.4959  0.1789  0.3463
  148MOL0     H20378   0.629  10.694   5.973 -1.0697 -0.7442  0.4625
  148MOL0     H20379   0.624  10.871   5.994 -1.0398 -0.3982 -0.2023
  148MOL0     H20380   0.773  10.819   6.208  1.9780  0.2736 -0.2225
  148MOL0     H20381   0.783  10.655   6.152  0.9008 -0.7976 -2.7942
  148MOL0     H20382   0.965  10.796   6.284 -0.8178  0.0946 -1.9391
  148MOL0     H20383   1.131  10.891   6.460  0.0305 -0.4153  1.5162
  148MOL0     H20384   1.295  10.811   6.436 -0.2700 -3.6315 -2.2948
  148MOL0     H20385   1.131  10.733   6.442 -3.5030  1.4214 -2.4150
  148MOL0     H20386   1.522  10.902   6.476  0.0991 -0.0089  0.6746
  148MOL0     H20387   1.775  10.954   6.531  3.0505  0.6931 -2.7158
  148MOL0     H20388   1.954  11.305   6.290  0.0849 -1.0902 -1.9520
  148MOL0     H20389   2.094  11.249   6.365 -0.2772 -2.1841  1.4676
  148MOL0     H20390   1.935  11.085   6.162 -0.3478  0.4958  0.1364
  148MOL0     H20391   2.071  11.185   6.117 -0.1964 -0.6073  0.4366
  148MOL0     H20392   2.094  10.940   6.305  0.0417 -2.1036 -1.6919
  148MOL0     H20393   2.214  11.071   6.302 -0.3536  0.6961  0.0869
  148MOL0     H20394   2.205  11.006   6.033  0.9358 -0.1317  1.2601
  148MOL0     H20395   2.104  10.880   6.093 -0.9735  1.3838  1.8243
  148MOL0     H20396   2.397  10.935   6.162 -1.4109  0.9363 -0.2811
  148MOL0     H20397   2.307  10.813   6.248  2.0756 -2.2833 -1.5103
  148MOL0     H20398   2.351  10.807   5.947 -0.2110 -1.4862  0.0703
  148MOL0     H20399   2.264  10.691   6.034 -0.6581  0.5566 -0.6169
  148MOL0     H20400   2.464  10.640   6.178  1.3772 -2.7596 -0.8698
  148MOL0     H20401   2.559  10.742   6.070  1.7228 -3.0622 -2.4555
  148MOL0     H20402   2.488  10.608   5.882 -0.7638  1.1657 -0.5082
  148MOL0     H20403   2.402  10.504   5.996 -0.2552  1.7382  0.8303
  148MOL0     H20404   1.748  11.275   6.244 -0.2312  1.3959  1.4486
  148MOL0     H20405   1.538  11.219   6.184  1.1199  0.8667 -0.2018
  148MOL0     H20406   1.322  10.887   5.944  1.4885 -0.2745  1.0626
  148MOL0     H20407   1.092  10.803   5.877 -2.9178 -1.1569  0.2341
  148MOL0     H20408   0.672  11.318   6.906 -1.4494  1.7066  0.0273
  148MOL0     H20409   0.882  11.419   6.943  1.7704  0.4130  0.8067
  148MOL0     H20410   1.303  11.328   7.397  1.2044 -1.2530 -0.3059
  148MOL0     H20411   1.549  11.401   7.402 -0.0865  2.9563  1.0428
  148MOL0     H20412   1.720  11.572   7.422 -0.3256 -2.0303  1.1516
  148MOL0     H20413   1.763  11.439   7.316  1.5455  0.3997 -1.6263
  148MOL0     H20414   1.856  11.734   7.274  2.0130  0.9128  0.9944
  148MOL0     H20415   1.889  11.594   7.164 -0.2998 -0.5196  0.7281
  148MOL0     H20416   2.056  11.687   7.342 -0.7663 -0.0286  0.6795
  148MOL0     H20417   1.969  11.609   7.460  1.5497  0.5424  0.0590
  148MOL0     H20418   2.149  11.461   7.401 -1.9022 -1.9540  1.3662
  148MOL0     H20419   2.099  11.459   7.229  1.1252  0.6022  0.4415
  148MOL0     H20420   1.888  11.150   7.346  0.7696 -1.0724 -0.2608
  148MOL0     H20421   1.454  11.683   7.104 -1.6518 -1.4669 -1.5136
  148MOL0     H20422   1.237  11.720   7.004 -0.6280  2.0896  1.0984
  148MOL0     H20423   1.128  11.576   7.033  0.5069  0.2248 -1.6035
  148MOL0     H20424   1.127  11.720   7.136 -0.0267  0.9033 -0.6670
  149MOL0     O20425   5.025   5.142   3.971  0.2249  0.1305 -0.2331
  149MOL0     C20426   5.139   5.172   4.006  0.0429 -0.1108  0.3661
  149MOL0     O20427   5.243   5.081   4.017 -0.8499 -0.1117  1.2248
  149MOL0     C20428   5.227   4.949   3.998 -0.0728 -0.1870 -0.2514
  149MOL0     C20429   5.336   4.867   3.959  0.1325  1.2125  0.3222
  149MOL0     C20430   5.328   4.722   3.957  0.0531  0.3833  0.5901
  149MOL0     C20431   5.216   4.661   4.001 -0.1918  0.0181 -0.1684
  149MOL0     O20432   5.191   4.526   3.992 -0.8918  0.3748  0.2156
  149MOL0     C20433   5.224   4.460   3.866  0.1680  0.5150 -0.0558
  149MOL0     C20434   5.175   4.320   3.874 -0.2542  0.7540  0.8396
  149MOL0     C20435   5.266   4.237   3.960 -0.9730  0.1904  0.2555
  149MOL0     C20436   5.403   4.199   3.886  0.1911  0.4982  0.2141
  149MOL0     C20437   5.398   4.078   3.792 -0.9292 -0.1627  0.0048
  149MOL0     C20438   5.526   4.052   3.716 -0.1940 -0.4738 -0.0516
  149MOL0     C20439   5.503   3.925   3.630  0.4393 -0.7044 -0.3333
  149MOL0     C20440   5.621   3.876   3.538 -0.5177 -0.4160  0.2497
  149MOL0     N20441   5.563   3.813   3.415 -0.8929  0.3708 -0.3011
  149MOL0     C20442   5.591   3.681   3.376  0.3509 -0.3545  0.1172
  149MOL0     C20443   5.515   3.668   3.265  0.6854 -0.0834  0.5435
  149MOL0     C20444   5.484   3.547   3.178 -0.3067 -0.1398 -0.7346
  149MOL0     C20445   5.608   3.466   3.140  0.7788  0.5666  0.7313
  149MOL0     C20446   5.647   3.489   2.993  0.0081  0.6436  0.2048
  149MOL0     C20447   5.781   3.409   2.962  0.1476 -0.4867 -0.3337
  149MOL0     O20448   5.776   3.355   2.830 -0.3468 -0.0303  0.5334
  149MOL0     C20449   5.880   3.360   2.735 -0.3156  0.0681 -0.5404
  149MOL0     C20450   6.007   3.414   2.763  0.0702 -0.0232  0.3384
  149MOL0     C20451   6.099   3.429   2.656 -0.1220 -0.2001 -0.2096
  149MOL0     C20452   6.240   3.480   2.686  0.0839  0.8236 -0.0635
  149MOL0     C20453   6.066   3.387   2.524 -0.1618  0.4300 -0.0573
  149MOL0     C20454   6.162   3.382   2.407  1.1747  0.6266 -0.4095
  149MOL0     O20455   6.101   3.394   2.282  0.5835 -0.0848 -0.0903
  149MOL0     C20456   6.170   3.418   2.160 -0.3572  0.0649 -0.2955
  149MOL0     C20457   6.279   3.503   2.154 -0.0626 -0.7224  0.6307
  149MOL0     C20458   6.354   3.516   2.040  0.7450  0.5235  0.7840
  149MOL0     C20459   6.305   3.452   1.923  0.0354 -0.5100 -0.0026
  149MOL0     O20460   6.366   3.455   1.802 -0.0012  0.2770  0.0637
  149MOL0     C20461   6.511   3.477   1.798  0.2255 -0.0532 -0.8147
  149MOL0     C20462   6.592   3.355   1.844 -0.9007 -0.6978  0.8120
  149MOL0     C20463   6.738   3.388   1.888  0.4358 -0.3663  0.0586
  149MOL0     C20464   6.827   3.403   1.764 -0.1716  0.1907  0.5616
  149MOL0     C20465   6.977   3.448   1.789 -0.8706 -0.9132 -0.1279
  149MOL0     C20466   7.052   3.444   1.649  1.2657  1.1694  0.4063
  149MOL0     C20467   7.198   3.489   1.636  0.3394 -0.5840 -0.0358
  149MOL0     C20468   7.297   3.434   1.742  0.4281  0.5946  0.7327
  149MOL0    Cl20469   7.308   3.260   1.701 -0.2089  0.1708  0.2311
  149MOL0     C20470   6.190   3.369   1.920  0.7379  0.1784 -0.1719
  149MOL0     C20471   6.129   3.347   2.048 -0.3629  0.3320  0.4854
  149MOL0     O20472   6.278   3.370   2.421 -0.3014  0.3306  0.0009
  149MOL0     C20473   5.932   3.340   2.495 -0.8245  0.4274 -0.5593
  149MOL0     C20474   5.843   3.325   2.605  0.4465 -0.4748  1.3076
  149MOL0     N20475   5.458   3.790   3.245  0.5012  0.1782  1.2383
  149MOL0     N20476   5.485   3.875   3.323  0.2466  0.5929  0.2135
  149MOL0     C20477   5.112   4.741   4.040  0.4219  0.8558  0.0602
  149MOL0     C20478   5.115   4.881   4.048  0.1761 -0.3110  0.1468
  149MOL0     C20479   5.165   5.314   4.053 -0.0817 -0.0081 -0.0141
  149MOL0     C20480   5.292   5.361   4.030 -0.5723 -0.7694 -0.1074
  149MOL0     C20481   5.322   5.491   4.066 -0.3266 -0.8980  0.3044
  149MOL0     C20482   5.232   5.570   4.137  0.0620 -1.1415  0.0340
  149MOL0     O20483   5.252   5.701   4.175 -0.4516  0.0057  0.7374
  149MOL0     C20484   5.385   5.764   4.155 -0.3002 -0.7073  0.4072
  149MOL0     C20485   5.384   5.924   4.165  0.1888  0.3642 -0.1169
  149MOL0     C20486   5.331   5.963   4.302  1.0162 -0.4942 -0.0472
  149MOL0     C20487   5.278   6.111   4.302 -0.1410 -0.1629 -0.2174
  149MOL0     C20488   5.394   6.199   4.299 -0.0636 -0.1100  0.1472
  149MOL0     C20489   5.487   6.280   4.293 -0.1187 -0.5591 -0.6457
  149MOL0     C20490   5.112   5.517   4.174 -0.0044 -0.2860 -0.5009
  149MOL0     C20491   5.077   5.390   4.132 -0.2124  0.6311 -0.4938
  149MOL0     C20492   4.940   5.337   4.168 -0.5155  0.3332  0.2980
  149MOL0     H20493   5.437   4.901   3.938  0.8033 -1.9406 -2.5044
  149MOL0     H20494   5.417   4.669   3.923 -0.3536 -0.0952  0.2636
  149MOL0     H20495   5.330   4.458   3.842  0.0262 -3.0434 -0.9762
  149MOL0     H20496   5.177   4.511   3.781  1.7783  2.0590 -0.0870
  149MOL0     H20497   5.072   4.324   3.913 -0.4153 -2.6719  1.0993
  149MOL0     H20498   5.168   4.267   3.778 -1.4991 -1.1569  1.9067
  149MOL0     H20499   5.296   4.284   4.054  1.0009 -0.1207 -0.1779
  149MOL0     H20500   5.211   4.146   3.986 -1.7391  1.2000  2.3725
  149MOL0     H20501   5.443   4.279   3.824 -1.0433  1.5550  0.7275
  149MOL0     H20502   5.470   4.185   3.971  0.5620  3.2553  0.4570
  149MOL0     H20503   5.318   4.091   3.718 -0.0894  2.1490 -0.5767
  149MOL0     H20504   5.363   3.994   3.852 -1.4316  0.0021 -0.0511
  149MOL0     H20505   5.553   4.130   3.644  1.2859 -0.7262  0.1929
  149MOL0     H20506   5.609   4.037   3.786  0.3774 -0.1228 -0.6392
  149MOL0     H20507   5.415   3.944   3.568  0.1727 -0.6118  0.0713
  149MOL0     H20508   5.489   3.838   3.695  1.4395 -2.1499 -1.9882
  149MOL0     H20509   5.686   3.958   3.509 -2.2571  1.1932  0.6662
  149MOL0     H20510   5.676   3.799   3.593  1.9969 -1.3491 -3.2399
  149MOL0     H20511   5.643   3.605   3.434  1.7356  2.2718  2.5624
  149MOL0     H20512   5.437   3.577   3.084 -0.0467  1.2098 -0.4614
  149MOL0     H20513   5.412   3.485   3.231  2.4405 -1.1468  2.1910
  149MOL0     H20514   5.694   3.497   3.201 -0.2225  1.9474  1.4788
  149MOL0     H20515   5.579   3.360   3.143 -2.4282  1.3349 -0.0160
  149MOL0     H20516   5.566   3.457   2.926  2.4241 -0.4097 -2.3924
  149MOL0     H20517   5.681   3.591   2.978  0.0423  1.2276  3.5180
  149MOL0     H20518   5.859   3.482   2.987 -1.0760  0.7686 -0.0600
  149MOL0     H20519   5.801   3.334   3.039 -0.2877 -0.3293 -0.0583
  149MOL0     H20520   6.021   3.435   2.868 -1.8451 -1.9243  1.0338
  149MOL0     H20521   6.301   3.393   2.661  0.8548 -0.1537  4.3673
  149MOL0     H20522   6.261   3.505   2.791  0.7684 -2.6137  0.7676
  149MOL0     H20523   6.262   3.566   2.622  0.3838  1.6738  1.1354
  149MOL0     H20524   6.308   3.569   2.235  0.2222  0.3829 -0.3261
  149MOL0     H20525   6.436   3.586   2.029 -1.5776  2.9946 -4.8387
  149MOL0     H20526   6.538   3.482   1.692  2.5514  0.1172 -0.2683
  149MOL0     H20527   6.538   3.576   1.835 -1.0954  0.1341 -0.2936
  149MOL0     H20528   6.540   3.322   1.935 -0.0933  0.5575  1.7602
  149MOL0     H20529   6.585   3.274   1.770  0.1086  1.0951 -1.3515
  149MOL0     H20530   6.780   3.320   1.963  0.2967 -0.7064 -0.1647
  149MOL0     H20531   6.727   3.486   1.935 -4.9964 -0.2286 -0.8570
  149MOL0     H20532   6.795   3.488   1.704  0.4282  0.0950  0.0994
  149MOL0     H20533   6.824   3.317   1.696 -1.7331  2.2067 -2.0966
  149MOL0     H20534   6.981   3.550   1.826 -0.8839 -0.6180 -0.9153
  149MOL0     H20535   7.028   3.387   1.865 -1.8985  1.7103  2.8703
  149MOL0     H20536   6.999   3.509   1.580  0.9940  0.5479  0.0238
  149MOL0     H20537   7.032   3.343   1.610 -0.3725  0.6517  2.4223
  149MOL0     H20538   7.202   3.598   1.647  0.1132 -0.7565  2.2249
  149MOL0     H20539   7.222   3.461   1.533 -1.7505  1.1211 -1.0658
  149MOL0     H20540   7.263   3.456   1.844 -1.1347  1.4510  0.0597
  149MOL0     H20541   7.394   3.482   1.721  1.1488 -0.2490  1.9681
  149MOL0     H20542   6.166   3.314   1.830 -1.0735 -2.1011  1.5781
  149MOL0     H20543   6.041   3.283   2.047 -0.9162  1.0786 -0.1064
  149MOL0     H20544   5.902   3.302   2.398  1.2788  1.2114 -1.5799
  149MOL0     H20545   5.741   3.295   2.581  0.0744  0.9365  1.0686
  149MOL0     H20546   5.032   4.688   4.090  1.2771  0.3164  0.9004
  149MOL0     H20547   5.027   4.928   4.092 -1.0565  0.6951 -3.1257
  149MOL0     H20548   5.340   5.303   3.952 -2.4241 -0.8865 -1.2297
  149MOL0     H20549   5.417   5.539   4.046 -0.4852 -0.6089  0.2412
  149MOL0     H20550   5.443   5.712   4.232  1.4314 -1.5067 -1.3318
  149MOL0     H20551   5.424   5.744   4.055  2.3081  1.8451  0.7732
  149MOL0     H20552   5.312   5.955   4.089  0.8078  1.9325 -0.0986
  149MOL0     H20553   5.480   5.972   4.143 -0.8026  1.0551 -3.4794
  149MOL0     H20554   5.246   5.904   4.336  0.5588  1.2480  2.0463
  149MOL0     H20555   5.401   5.955   4.385  1.1889  0.0777 -0.1380
  149MOL0     H20556   5.211   6.133   4.386  0.1185  3.5378 -0.8084
  149MOL0     H20557   5.203   6.120   4.222 -1.2145  0.1151  0.7986
  149MOL0     H20558   5.560   6.356   4.275 -1.3894  1.3707  1.7104
  149MOL0     H20559   5.039   5.587   4.213  0.1719  0.7877 -2.0238
  149MOL0     H20560   4.888   5.403   4.237  0.2269  3.6505 -2.0274
  149MOL0     H20561   4.870   5.325   4.085  1.2019  1.7231 -1.4574
  149MOL0     H20562   4.951   5.243   4.223 -1.5302  1.0525  1.7813
  150MOL0     O20563   2.579  10.080  11.296  0.4228  0.4092  0.1942
  150MOL0     C20564   2.524   9.979  11.348 -0.6287  0.4218 -1.1813
  150MOL0     O20565   2.597   9.886  11.419 -0.1296 -0.8692 -0.2287
  150MOL0     C20566   2.737   9.897  11.417  1.1920  0.3209 -0.3855
  150MOL0     C20567   2.795   9.943  11.535  0.7462 -0.7031 -0.3525
  150MOL0     C20568   2.934   9.962  11.543  0.4379  0.1327 -0.4003
  150MOL0     C20569   3.008   9.918  11.435 -0.5426  0.8862  0.3459
  150MOL0     O20570   3.144   9.910  11.437 -0.0336  0.6093  0.0672
  150MOL0     C20571   3.218   9.943  11.554  0.0296 -0.2815  0.0157
  150MOL0     C20572   3.363   9.898  11.535 -0.0591 -1.0071  0.4278
  150MOL0     C20573   3.422   9.903  11.679 -1.4191  0.3950  0.1570
  150MOL0     C20574   3.564   9.861  11.660  0.0158  0.5805 -0.3051
  150MOL0     C20575   3.652   9.969  11.598  0.1061 -0.8874  0.4169
  150MOL0     C20576   3.791   9.913  11.552  0.1286 -0.1279 -1.0688
  150MOL0     C20577   3.879  10.015  11.489  0.7639 -0.0945  0.0297
  150MOL0     C20578   3.993   9.968  11.405  0.2874 -0.3745  1.7916
  150MOL0     N20579   4.097   9.905  11.477  0.3305 -0.0380 -0.2298
  150MOL0     C20580   4.133   9.775  11.450 -0.7885 -0.5595  0.8011
  150MOL0     C20581   4.259   9.762  11.506 -0.3223 -0.3239 -0.5051
  150MOL0     C20582   4.358   9.650  11.486  0.5569 -0.0749 -0.9365
  150MOL0     C20583   4.334   9.543  11.597  0.3484 -0.3597 -0.5386
  150MOL0     C20584   4.431   9.427  11.603 -0.4444 -0.1660  0.1921
  150MOL0     C20585   4.389   9.314  11.692 -0.5429  0.8645 -0.4466
  150MOL0     O20586   4.334   9.195  11.623 -0.4571 -1.2816 -0.2594
  150MOL0     C20587   4.418   9.096  11.571  0.2459  0.0606  0.2048
  150MOL0     C20588   4.346   8.990  11.515  0.4295  0.2094  0.0575
  150MOL0     C20589   4.401   8.874  11.447 -1.1180  0.3172 -0.5096
  150MOL0     C20590   4.315   8.764  11.397  0.2218  0.1948 -0.2420
  150MOL0     C20591   4.546   8.878  11.417 -0.0117 -0.8112  0.8280
  150MOL0     C20592   4.624   8.777  11.334  0.1112 -0.3786  0.2599
  150MOL0     O20593   4.758   8.788  11.336 -0.9721 -0.2783  0.3932
  150MOL0     C20594   4.832   8.744  11.224 -0.1969  0.3429 -0.8348
  150MOL0     C20595   4.802   8.646  11.127 -0.1140 -0.9186 -0.2590
  150MOL0     C20596   4.896   8.624  11.019 -0.6624 -0.3116  0.4251
  150MOL0     C20597   5.016   8.702  11.027  0.6290  0.1122 -0.1988
  150MOL0     O20598   5.123   8.684  10.940 -0.0278  0.5951  0.0793
  150MOL0     C20599   5.085   8.666  10.805  0.5839  0.1204  0.4758
  150MOL0     C20600   5.194   8.727  10.720 -0.3044  0.7081 -0.5986
  150MOL0     C20601   5.208   8.879  10.741  0.6008 -1.0221 -0.0413
  150MOL0     C20602   5.332   8.943  10.676  0.2421  0.6427  0.0353
  150MOL0     C20603   5.300   8.985  10.535 -0.4951  0.1271 -0.2409
  150MOL0     C20604   5.411   9.084  10.503 -0.3392 -0.6046  0.7031
  150MOL0     C20605   5.403   9.112  10.347  0.3285 -0.4767 -0.1233
  150MOL0     C20606   5.478   9.232  10.302 -0.0329  0.1763  0.7767
  150MOL0    Cl20607   5.668   9.222  10.327  0.2287  0.4479  0.3260
  150MOL0     C20608   5.048   8.786  11.132 -0.5279  0.2704 -0.1846
  150MOL0     C20609   4.954   8.804  11.227  0.5090 -0.5215 -0.6123
  150MOL0     O20610   4.561   8.681  11.282  1.0810  0.4621 -0.6651
  150MOL0     C20611   4.622   8.986  11.477 -0.3438 -0.2379  0.1962
  150MOL0     C20612   4.557   9.091  11.555 -0.3399 -0.0176  0.6154
  150MOL0     N20613   4.296   9.888  11.555  0.4764  0.5832  0.0403
  150MOL0     N20614   4.197   9.972  11.545  0.1857  0.3858  1.2005
  150MOL0     C20615   2.950   9.873  11.314 -0.0274  0.6277  0.6764
  150MOL0     C20616   2.812   9.857  11.305  0.1389 -0.5028 -0.2385
  150MOL0     C20617   2.374   9.954  11.361 -0.0878 -0.0928  0.7594
  150MOL0     C20618   2.329   9.861  11.453  0.7086  0.2206  1.2186
  150MOL0     C20619   2.194   9.823  11.462 -0.0110  0.3543 -0.5833
  150MOL0     C20620   2.104   9.902  11.398 -0.4873  0.6767 -0.5215
  150MOL0     O20621   1.969   9.905  11.415 -0.6002 -0.1020 -0.4998
  150MOL0     C20622   1.906   9.779  11.454  0.1645 -1.6439 -0.1731
  150MOL0     C20623   1.757   9.804  11.428  0.0419 -0.0831  0.2925
  150MOL0     C20624   1.708   9.929  11.507 -0.3121  0.5379  0.3870
  150MOL0     C20625   1.562   9.927  11.508 -0.0347  0.1669 -0.0467
  150MOL0     C20626   1.518  10.052  11.564  0.6001 -0.4766  0.1026
  150MOL0     C20627   1.498  10.146  11.627 -0.4909 -0.4353 -0.7690
  150MOL0     C20628   2.147  10.002  11.307 -0.2761  0.0978  0.4604
  150MOL0     C20629   2.282  10.024  11.279 -0.8979  0.1585 -0.1455
  150MOL0     C20630   2.321  10.152  11.197  0.0363  0.0573  0.3716
  150MOL0     H20631   2.739   9.958  11.627  3.0064  2.0977  0.7191
  150MOL0     H20632   2.982  10.002  11.632  2.5864  1.5008 -2.0493
  150MOL0     H20633   3.170   9.890  11.637  0.0524 -0.6536 -0.2066
  150MOL0     H20634   3.208  10.050  11.577  0.0108 -0.5744  1.4670
  150MOL0     H20635   3.361   9.800  11.487 -5.7726 -1.6415  1.2996
  150MOL0     H20636   3.410   9.967  11.464  0.4583 -2.1220 -0.3488
  150MOL0     H20637   3.417   9.999  11.731 -0.7144 -0.5234  1.9919
  150MOL0     H20638   3.362   9.832  11.737 -0.9432  1.1951  1.6834
  150MOL0     H20639   3.605   9.826  11.755 -3.9120  0.3354  1.5012
  150MOL0     H20640   3.570   9.779  11.588 -0.1320  1.4533 -1.3318
  150MOL0     H20641   3.669  10.054  11.665  1.4823 -0.4027 -0.4872
  150MOL0     H20642   3.604  10.010  11.508  3.2479  3.8179  0.5149
  150MOL0     H20643   3.850   9.861  11.629 -0.8638  0.0426 -0.1745
  150MOL0     H20644   3.772   9.833  11.480 -1.4575  0.3364 -1.1954
  150MOL0     H20645   3.917  10.079  11.570  0.9148 -3.5028  2.9304
  150MOL0     H20646   3.821  10.077  11.421  1.9694  0.8777 -0.1381
  150MOL0     H20647   3.959   9.914  11.316  0.8763  0.9610  0.7025
  150MOL0     H20648   4.037  10.058  11.360 -1.2387 -1.1563 -1.6272
  150MOL0     H20649   4.087   9.697  11.389  2.7684 -0.9872 -1.7034
  150MOL0     H20650   4.457   9.696  11.497  0.8979 -0.5305 -2.0332
  150MOL0     H20651   4.356   9.608  11.385 -1.2498 -0.5385 -0.7482
  150MOL0     H20652   4.352   9.589  11.695 -0.2191  2.1398 -1.5042
  150MOL0     H20653   4.234   9.499  11.599 -0.2053  0.7296 -2.2496
  150MOL0     H20654   4.442   9.381  11.504  0.8053 -1.3074  0.8292
  150MOL0     H20655   4.521   9.466  11.651 -0.0130 -3.3807  2.3623
  150MOL0     H20656   4.479   9.280  11.744 -0.6421 -0.7765 -1.2770
  150MOL0     H20657   4.324   9.350  11.771  0.1740  2.6365 -0.6280
  150MOL0     H20658   4.241   8.985  11.538  1.0686 -0.3964  3.3663
  150MOL0     H20659   4.213   8.772  11.434  0.0138 -2.0556 -0.1700
  150MOL0     H20660   4.345   8.662  11.424 -1.6154 -0.0896  0.8473
  150MOL0     H20661   4.310   8.759  11.288 -0.9580 -1.7485 -0.1495
  150MOL0     H20662   4.714   8.584  11.125 -0.9117  0.1417  0.6278
  150MOL0     H20663   4.872   8.558  10.936 -2.2355  2.7399 -1.7127
  150MOL0     H20664   5.069   8.562  10.776  0.3461  0.0759  0.7648
  150MOL0     H20665   4.994   8.723  10.782 -0.3037 -0.5535  2.1555
  150MOL0     H20666   5.288   8.687  10.758 -0.4578  1.0317  0.1404
  150MOL0     H20667   5.169   8.699  10.617 -2.2985 -0.6584  0.2002
  150MOL0     H20668   5.194   8.901  10.847  3.4687 -1.6981  0.5627
  150MOL0     H20669   5.121   8.920  10.688  2.4472  4.2460  0.4085
  150MOL0     H20670   5.411   8.868  10.673 -0.6554 -0.3431  0.4774
  150MOL0     H20671   5.362   9.031  10.735  1.9213 -1.5660  2.7498
  150MOL0     H20672   5.313   8.893  10.479 -0.9491 -0.7144  0.9817
  150MOL0     H20673   5.203   9.030  10.514 -1.9411 -2.1823  1.1114
  150MOL0     H20674   5.512   9.048  10.524 -0.1795 -2.6472 -2.8218
  150MOL0     H20675   5.390   9.172  10.565  1.1317 -1.1779  2.0741
  150MOL0     H20676   5.297   9.115  10.319 -0.1247  0.9239  1.5570
  150MOL0     H20677   5.453   9.025  10.304 -0.4667 -1.5128  0.9698
  150MOL0     H20678   5.431   9.315  10.354 -3.6685 -0.5807 -0.9937
  150MOL0     H20679   5.467   9.250  10.195  5.3951  1.3795  0.1434
  150MOL0     H20680   5.151   8.820  11.128  0.6826 -2.4742  2.9522
  150MOL0     H20681   5.001   8.862  11.305  2.5642 -1.9555 -0.6974
  150MOL0     H20682   4.731   8.982  11.480 -0.3264 -2.6429  4.3465
  150MOL0     H20683   4.626   9.161  11.602  1.0384 -1.3310  0.6358
  150MOL0     H20684   3.008   9.856  11.224 -0.0473  2.1011  0.3608
  150MOL0     H20685   2.764   9.828  11.212  0.7911  0.9505 -1.0533
  150MOL0     H20686   2.399   9.805  11.514  1.8380 -1.6687 -1.5898
  150MOL0     H20687   2.161   9.746  11.532  2.4777  1.3267  1.8353
  150MOL0     H20688   1.943   9.704  11.383  1.3271  1.2210 -2.8618
  150MOL0     H20689   1.926   9.752  11.558 -3.2745 -4.1093 -0.0138
  150MOL0     H20690   1.710   9.711  11.460  1.1636 -0.1472  1.8573
  150MOL0     H20691   1.723   9.826  11.327 -0.2008  1.5586  0.6968
  150MOL0     H20692   1.759   9.932  11.604  0.5987  2.1344 -0.0996
  150MOL0     H20693   1.739  10.023  11.459  2.5996 -1.6132 -2.3665
  150MOL0     H20694   1.538   9.846  11.578  0.2696 -1.7347 -2.0473
  150MOL0     H20695   1.520   9.896  11.412  0.7194 -2.0273  0.2702
  150MOL0     H20696   1.477  10.236  11.682  1.4854 -0.0140 -0.6266
  150MOL0     H20697   2.078  10.074  11.264 -0.2996  1.1944  2.2527
  150MOL0     H20698   2.229  10.205  11.170  1.8988  3.0958 -0.4515
  150MOL0     H20699   2.386  10.217  11.256 -1.6656  3.1877 -1.0118
  150MOL0     H20700   2.374  10.122  11.105  2.8822 -0.9018  2.1763
  151MOL0     O20701   8.398   9.909   0.742  0.1048  0.4487 -0.3568
  151MOL0     C20702   8.470   9.906   0.644 -0.5863  0.1989  0.2376
  151MOL0     O20703   8.525  10.023   0.585  0.4880  0.4839 -0.5990
  151MOL0     C20704   8.468  10.136   0.612  1.1607 -0.2263  0.0291
  151MOL0     C20705   8.548  10.228   0.682 -0.1819  0.1906 -0.7983
  151MOL0     C20706   8.495  10.353   0.725 -0.3534 -0.0851  1.2932
  151MOL0     C20707   8.360  10.381   0.688 -0.4662  0.5876  0.1913
  151MOL0     O20708   8.310  10.499   0.726  0.6595 -0.3447 -0.1259
  151MOL0     C20709   8.176  10.543   0.683 -0.5617  0.8888  0.3505
  151MOL0     C20710   8.169  10.559   0.537  0.6291 -0.0035 -0.2071
  151MOL0     C20711   8.036  10.614   0.498  0.2322  0.8402 -0.0556
  151MOL0     C20712   8.035  10.654   0.349  0.6508 -0.2712 -1.0393
  151MOL0     C20713   7.892  10.700   0.318 -0.0172 -0.0847  0.1094
  151MOL0     C20714   7.900  10.725   0.167  1.0047 -0.5582  0.1748
  151MOL0     C20715   7.756  10.741   0.111 -0.0327 -0.2247 -0.2062
  151MOL0     C20716   7.678  10.864   0.158  0.0387  0.3526 -0.4678
  151MOL0     N20717   7.547  10.872   0.096  0.1998  0.2752 -0.4121
  151MOL0     C20718   7.521  10.862  -0.038 -0.7774 -0.0281 -1.2237
  151MOL0     C20719   7.403  10.926  -0.057 -0.2399  0.4191 -0.0224
  151MOL0     C20720   7.333  10.943  -0.184  0.7487 -0.5367  0.5385
  151MOL0     C20721   7.229  10.823  -0.203  0.1166 -0.1140  0.6610
  151MOL0     C20722   7.173  10.817  -0.351 -0.1134  0.0222 -0.0980
  151MOL0     C20723   7.053  10.912  -0.375 -0.3594 -0.5031 -0.7989
  151MOL0     O20724   6.939  10.862  -0.308 -0.6737  0.4030 -0.5663
  151MOL0     C20725   6.814  10.918  -0.334 -0.1951 -1.1308  0.6527
  151MOL0     C20726   6.783  11.018  -0.424  0.1050 -0.0547  0.1793
  151MOL0     C20727   6.645  11.038  -0.457 -0.1151 -0.2760  0.4918
  151MOL0     C20728   6.617  11.127  -0.578 -0.1035 -0.4949  1.2611
  151MOL0     C20729   6.538  10.982  -0.383 -0.8386 -0.4106  0.5809
  151MOL0     C20730   6.391  11.003  -0.416  0.6608  0.4398 -0.2059
  151MOL0     O20731   6.324  10.890  -0.383 -0.2722 -0.2351 -0.0223
  151MOL0     C20732   6.192  10.875  -0.386 -0.0826 -0.2655 -1.0623
  151MOL0     C20733   6.116  10.894  -0.501  0.7095 -0.0976  0.1225
  151MOL0     C20734   5.981  10.858  -0.506 -0.8458 -0.3538  0.3502
  151MOL0     C20735   5.913  10.821  -0.396 -0.6179 -0.4382  0.2294
  151MOL0     O20736   5.782  10.786  -0.388  0.6597  0.9386 -0.6596
  151MOL0     C20737   5.695  10.824  -0.492  0.2434 -0.0439  1.1217
  151MOL0     C20738   5.573  10.738  -0.481  1.3878 -0.1185  0.6195
  151MOL0     C20739   5.485  10.780  -0.368  0.2852  0.5655  0.6201
  151MOL0     C20740   5.344  10.709  -0.365 -0.0961  0.5941  0.5328
  151MOL0     C20741   5.247  10.785  -0.461 -0.1776 -0.3582 -0.4224
  151MOL0     C20742   5.096  10.746  -0.459 -0.4039 -0.3286  0.2303
  151MOL0     C20743   5.014  10.811  -0.338 -0.0594  0.4954 -0.0954
  151MOL0     C20744   4.866  10.818  -0.366  0.0028 -0.8772 -0.7813
  151MOL0    Cl20745   4.828  10.933  -0.483  0.4732 -0.2166 -0.1959
  151MOL0     C20746   5.984  10.813  -0.278 -0.0358  0.2504  0.0047
  151MOL0     C20747   6.123  10.829  -0.269  0.1871  0.8774  0.4204
  151MOL0     O20748   6.349  11.107  -0.459  0.3607  0.3897 -0.4286
  151MOL0     C20749   6.575  10.898  -0.283 -0.3315  0.2449 -0.5776
  151MOL0     C20750   6.708  10.855  -0.268  0.0618  0.1307  0.5713
  151MOL0     N20751   7.339  10.950   0.066  0.1138  0.5104 -0.5367
  151MOL0     N20752   7.431  10.914   0.154  0.4064  0.4903 -0.8900
  151MOL0     C20753   8.278  10.277   0.628 -0.0502  0.3948 -1.3921
  151MOL0     C20754   8.334  10.157   0.587 -0.1915  0.1725  0.8913
  151MOL0     C20755   8.520   9.776   0.614 -0.3699 -0.1857 -0.2472
  151MOL0     C20756   8.522   9.674   0.717 -0.2376  0.5918 -0.5059
  151MOL0     C20757   8.599   9.568   0.697  0.2050  0.0798 -0.4489
  151MOL0     C20758   8.679   9.542   0.584  0.6043 -1.1280 -0.0175
  151MOL0     O20759   8.756   9.431   0.592  0.5152  0.4998  0.1624
  151MOL0     C20760   8.767   9.343   0.476  0.0995 -1.1911 -0.3663
  151MOL0     C20761   8.644   9.256   0.444 -0.5310 -0.3294  0.8077
  151MOL0     C20762   8.618   9.150   0.551  0.7596 -0.0605  0.9436
  151MOL0     C20763   8.475   9.111   0.549  0.2193  0.2914  1.1197
  151MOL0     C20764   8.456   9.025   0.431  0.3430 -0.0813  0.1227
  151MOL0     C20765   8.422   8.949   0.338  0.7444 -0.4684  0.2244
  151MOL0     C20766   8.670   9.633   0.483 -0.8027  0.5617  0.2478
  151MOL0     C20767   8.601   9.754   0.496  0.1721  0.7679  0.3730
  151MOL0     C20768   8.581   9.841   0.374 -0.9112  0.3804  0.9750
  151MOL0     H20769   8.654  10.213   0.705 -0.2418 -0.0339 -0.6603
  151MOL0     H20770   8.552  10.433   0.769  1.0158  0.1659 -0.7898
  151MOL0     H20771   8.148  10.639   0.727  0.2629  2.0987 -1.6392
  151MOL0     H20772   8.094  10.475   0.709 -2.6393  3.9988  2.6384
  151MOL0     H20773   8.248  10.626   0.503 -1.1265  3.3786  1.8432
  151MOL0     H20774   8.151  10.459   0.496 -3.9823 -1.0292  3.4071
  151MOL0     H20775   7.958  10.540   0.521  1.6408  0.0455  2.5814
  151MOL0     H20776   8.012  10.697   0.565  0.6684 -1.5761  3.3192
  151MOL0     H20777   8.114  10.728   0.336  1.4386 -1.2992 -2.3252
  151MOL0     H20778   8.059  10.569   0.284  1.2864 -2.8538  2.2604
  151MOL0     H20779   7.870  10.792   0.372 -0.4400 -0.8243  1.2167
  151MOL0     H20780   7.820  10.623   0.346 -1.7612  0.5496 -2.3248
  151MOL0     H20781   7.956  10.818   0.150 -0.9654  1.2262  2.6050
  151MOL0     H20782   7.933  10.635   0.114 -2.3593 -2.6433  1.3293
  151MOL0     H20783   7.700  10.653   0.145 -0.1676 -0.7938 -1.8456
  151MOL0     H20784   7.773  10.739   0.003  1.1181  2.6810 -0.1613
  151MOL0     H20785   7.664  10.846   0.265 -2.0429 -3.2299 -1.1701
  151MOL0     H20786   7.735  10.954   0.136  1.4382 -0.1119  0.9971
  151MOL0     H20787   7.579  10.816  -0.117  0.0928  0.5840 -0.9617
  151MOL0     H20788   7.400  10.952  -0.270  2.7544  1.2595  2.1643
  151MOL0     H20789   7.283  11.040  -0.173  1.5896 -0.1668  1.1869
  151MOL0     H20790   7.283  10.728  -0.195  1.3806  0.6595  1.7424
  151MOL0     H20791   7.151  10.809  -0.128 -0.9950 -0.7540 -0.5690
  151MOL0     H20792   7.260  10.840  -0.413 -0.6813 -0.7953 -1.2361
  151MOL0     H20793   7.137  10.716  -0.373  0.1783 -1.0543  3.6989
  151MOL0     H20794   7.077  11.010  -0.333  2.4489 -2.1281  1.8155
  151MOL0     H20795   7.038  10.915  -0.483  1.0798 -0.6471 -1.0246
  151MOL0     H20796   6.863  11.078  -0.467 -2.4105  1.6185 -2.5217
  151MOL0     H20797   6.702  11.164  -0.636 -2.7779  1.7228 -1.5762
  151MOL0     H20798   6.564  11.221  -0.561 -2.8385 -1.1452 -2.3005
  151MOL0     H20799   6.573  11.073  -0.663  2.1566  0.5048 -0.6611
  151MOL0     H20800   6.161  10.924  -0.595  1.2917 -0.8388  0.1582
  151MOL0     H20801   5.922  10.870  -0.597 -1.8890  0.0892  1.0715
  151MOL0     H20802   5.668  10.930  -0.485 -1.3944 -0.4893  2.2260
  151MOL0     H20803   5.736  10.806  -0.591 -0.4738 -0.3983  0.8810
  151MOL0     H20804   5.509  10.744  -0.569  0.9684 -0.2647  0.9150
  151MOL0     H20805   5.595  10.633  -0.458 -1.8987 -1.7356 -2.7460
  151MOL0     H20806   5.471  10.888  -0.364  0.1211  0.5247  1.2969
  151MOL0     H20807   5.529  10.747  -0.274 -0.8611 -0.9434  0.6825
  151MOL0     H20808   5.298  10.707  -0.265 -0.3053 -5.2213  0.6743
  151MOL0     H20809   5.354  10.602  -0.381 -0.7420  0.5557  0.3602
  151MOL0     H20810   5.249  10.890  -0.429  0.5359 -1.4758  3.7666
  151MOL0     H20811   5.279  10.778  -0.565 -0.2603  0.6568 -0.5244
  151MOL0     H20812   5.086  10.638  -0.448  0.3787 -0.7263 -2.3675
  151MOL0     H20813   5.056  10.780  -0.554  1.8247  3.0323  0.2927
  151MOL0     H20814   5.046  10.915  -0.322 -2.9722  1.4074  0.4191
  151MOL0     H20815   5.040  10.754  -0.248  3.0819  1.4029 -0.3111
  151MOL0     H20816   4.810  10.857  -0.281 -0.0327  0.1539 -1.2534
  151MOL0     H20817   4.822  10.720  -0.385 -0.1997 -0.9874  0.2098
  151MOL0     H20818   5.939  10.785  -0.184  1.8647 -0.7232  0.6821
  151MOL0     H20819   6.180  10.815  -0.178  3.0252 -2.0417 -1.5741
  151MOL0     H20820   6.499  10.863  -0.215 -0.1364  1.3839  0.2689
  151MOL0     H20821   6.728  10.781  -0.190 -0.6453  0.0268  0.6613
  151MOL0     H20822   8.173  10.286   0.601 -0.2145 -1.4540 -1.4721
  151MOL0     H20823   8.266  10.086   0.542  1.7984 -0.5516 -1.1386
  151MOL0     H20824   8.469   9.686   0.811 -2.8409 -4.2265 -1.0279
  151MOL0     H20825   8.590   9.489   0.771 -0.9766 -0.1527 -0.8246
  151MOL0     H20826   8.771   9.416   0.394 -1.1070  0.2283  0.8051
  151MOL0     H20827   8.852   9.275   0.489  2.7455  2.3175  2.6296
  151MOL0     H20828   8.677   9.201   0.355 -0.9286 -0.3412  0.6666
  151MOL0     H20829   8.556   9.312   0.412 -1.1996 -3.0378 -2.7370
  151MOL0     H20830   8.675   9.059   0.529 -1.1081 -0.7961 -1.2995
  151MOL0     H20831   8.638   9.191   0.651  0.5149 -1.8560  1.7738
  151MOL0     H20832   8.402   9.192   0.555  0.6502  0.5415  4.4526
  151MOL0     H20833   8.455   9.059   0.643 -2.3023 -0.2383  0.3854
  151MOL0     H20834   8.396   8.882   0.258 -0.7313 -0.5505  0.7445
  151MOL0     H20835   8.723   9.611   0.391 -2.2435  0.9799 -0.7313
  151MOL0     H20836   8.609   9.799   0.277 -2.8627  0.7010  0.2092
  151MOL0     H20837   8.481   9.884   0.363 -0.4285  1.5378  0.9602
  151MOL0     H20838   8.650   9.925   0.390 -0.6454  0.1446  1.0701
  152MOL0     O20839   0.321   9.055   8.915 -0.6937  0.7923  0.8649
  152MOL0     C20840   0.261   9.131   8.836 -0.4701 -1.0709 -0.6416
  152MOL0     O20841   0.322   9.229   8.761  0.5858 -0.3691  0.1997
  152MOL0     C20842   0.463   9.231   8.761  0.1084 -0.6238 -0.4265
  152MOL0     C20843   0.531   9.347   8.812  1.0149 -0.5490  0.0601
  152MOL0     C20844   0.668   9.351   8.819 -0.3062 -0.4558  0.6994
  152MOL0     C20845   0.742   9.242   8.774 -0.7059 -0.1571  0.1015
  152MOL0     O20846   0.881   9.254   8.749 -0.8374 -0.0708  0.8552
  152MOL0     C20847   0.938   9.211   8.621  0.0725  0.1132 -0.9211
  152MOL0     C20848   0.981   9.325   8.550 -0.6712  0.1354 -0.0339
  152MOL0     C20849   0.876   9.398   8.473 -0.3523  0.0384  0.3496
  152MOL0     C20850   0.802   9.310   8.363 -0.9270 -0.7888 -0.8798
  152MOL0     C20851   0.700   9.379   8.294  0.1430 -0.1151  0.2981
  152MOL0     C20852   0.606   9.297   8.202  0.6591 -0.2487  0.4348
  152MOL0     C20853   0.543   9.374   8.084 -0.2337  0.0096  0.4704
  152MOL0     C20854   0.454   9.489   8.120  0.0563  0.2562  0.3765
  152MOL0     N20855   0.326   9.428   8.157 -0.4762 -0.1121  0.7561
  152MOL0     C20856   0.289   9.378   8.280 -0.3157  0.2128  0.2099
  152MOL0     C20857   0.151   9.374   8.270 -0.1782  0.0454  0.5832
  152MOL0     C20858   0.070   9.349   8.400 -0.1221  0.4703  0.6757
  152MOL0     C20859  -0.002   9.477   8.438 -0.2206 -0.9302 -0.2924
  152MOL0     C20860  -0.086   9.447   8.565 -0.3221  0.6042  0.3144
  152MOL0     C20861  -0.198   9.343   8.538 -0.8977  0.9351  0.1080
  152MOL0     O20862  -0.285   9.402   8.441 -0.4098  0.0931 -0.3008
  152MOL0     C20863  -0.419   9.368   8.443  0.3384 -0.7184  0.3042
  152MOL0     C20864  -0.509   9.471   8.427  0.3594 -0.8307  0.4771
  152MOL0     C20865  -0.648   9.441   8.446  0.3794 -0.5003 -0.0188
  152MOL0     C20866  -0.744   9.565   8.431  0.0512 -0.0904  0.0173
  152MOL0     C20867  -0.692   9.313   8.473  0.2206 -0.6034  0.7936
  152MOL0     C20868  -0.831   9.279   8.503 -0.1999  0.4935  0.8195
  152MOL0     O20869  -0.855   9.145   8.497 -0.0926 -0.2794 -0.3323
  152MOL0     C20870  -0.990   9.100   8.512 -0.5808  0.4436  0.4356
  152MOL0     C20871  -1.072   9.117   8.626  0.2951  0.7407  1.3191
  152MOL0     C20872  -1.192   9.046   8.637 -1.5139  0.2534 -0.0790
  152MOL0     C20873  -1.240   8.961   8.537 -0.7816 -0.7341 -0.3441
  152MOL0     O20874  -1.350   8.885   8.545  0.9933  0.0656 -0.0495
  152MOL0     C20875  -1.465   8.959   8.589  0.9164  0.5210  0.0286
  152MOL0     C20876  -1.575   8.943   8.490  0.7289  0.2548  0.0713
  152MOL0     C20877  -1.546   8.999   8.359  0.2226 -0.0597  0.3761
  152MOL0     C20878  -1.526   9.152   8.352  0.1569 -0.0106  0.2499
  152MOL0     C20879  -1.643   9.229   8.407 -0.3911  0.5094  0.3383
  152MOL0     C20880  -1.780   9.207   8.335 -0.4822 -0.0471 -0.1843
  152MOL0     C20881  -1.834   9.343   8.307  0.1417 -0.6487 -0.6592
  152MOL0     C20882  -1.966   9.296   8.235 -0.2130  0.3384  0.4643
  152MOL0    Cl20883  -2.076   9.425   8.194 -0.7091 -0.1519 -0.0005
  152MOL0     C20884  -1.159   8.937   8.432  0.5248 -0.5364  0.5281
  152MOL0     C20885  -1.032   9.005   8.417 -0.6535 -0.0780  0.6725
  152MOL0     O20886  -0.915   9.360   8.543 -1.0428 -0.1452  1.2650
  152MOL0     C20887  -0.597   9.211   8.488  0.5893  0.3802  0.1429
  152MOL0     C20888  -0.468   9.238   8.483 -0.5229 -1.5300  0.3523
  152MOL0     N20889   0.110   9.396   8.137  0.0139 -0.2799 -0.3219
  152MOL0     N20890   0.222   9.432   8.077  0.3791 -0.2397 -0.5551
  152MOL0     C20891   0.670   9.126   8.733 -0.5067  0.0176 -0.3010
  152MOL0     C20892   0.532   9.119   8.723  0.0389 -0.5692 -0.2735
  152MOL0     C20893   0.115   9.118   8.840 -0.8592  0.1253  0.5687
  152MOL0     C20894   0.040   9.165   8.946 -0.2154 -0.0581  0.8225
  152MOL0     C20895  -0.100   9.145   8.946  0.3363  0.4545  0.3973
  152MOL0     C20896  -0.166   9.077   8.841 -0.6824 -1.0152  0.2146
  152MOL0     O20897  -0.304   9.056   8.821 -0.0927 -0.4476 -0.1315
  152MOL0     C20898  -0.387   9.129   8.906 -0.6280  0.2097 -0.4335
  152MOL0     C20899  -0.525   9.117   8.841  0.0422 -0.9395  0.2827
  152MOL0     C20900  -0.634   9.188   8.923 -0.0844  0.2651  0.3956
  152MOL0     C20901  -0.759   9.181   8.841 -0.3130 -0.7062 -0.6875
  152MOL0     C20902  -0.822   9.046   8.847 -0.2919  0.6943  0.0848
  152MOL0     C20903  -0.881   8.941   8.858 -0.0688 -1.5564 -0.8223
  152MOL0     C20904  -0.081   9.033   8.739 -0.2571 -0.4622  0.0195
  152MOL0     C20905   0.060   9.042   8.735  1.0421 -0.3334  0.1852
  152MOL0     C20906   0.134   8.979   8.620 -0.0759  0.4795  0.2302
  152MOL0     H20907   0.459   9.420   8.849  0.4504 -2.8777  4.1744
  152MOL0     H20908   0.717   9.440   8.858 -1.6022  0.8403 -0.4682
  152MOL0     H20909   0.874   9.138   8.571 -0.9255  0.7260 -0.5686
  152MOL0     H20910   1.026   9.152   8.646  0.8403  1.6900  0.2687
  152MOL0     H20911   1.024   9.399   8.618  1.6568  0.8287 -2.1135
  152MOL0     H20912   1.054   9.293   8.475 -2.4217 -2.4015 -0.7857
  152MOL0     H20913   0.815   9.450   8.548  0.7921 -0.7449  1.8769
  152MOL0     H20914   0.921   9.478   8.413  0.3471 -1.5823 -1.3511
  152MOL0     H20915   0.870   9.267   8.289  1.1904 -2.5859  1.8897
  152MOL0     H20916   0.749   9.235   8.423 -1.7767  0.4753 -0.0239
  152MOL0     H20917   0.755   9.453   8.237  0.7271 -0.8837 -0.1590
  152MOL0     H20918   0.638   9.422   8.374  0.7274  0.6612  0.3408
  152MOL0     H20919   0.655   9.210   8.158  0.0993  0.2114 -1.1603
  152MOL0     H20920   0.527   9.261   8.269  1.2441  1.0800  1.9091
  152MOL0     H20921   0.484   9.302   8.027  0.8584  1.0103 -2.0793
  152MOL0     H20922   0.621   9.404   8.014 -1.4318 -1.0012 -1.3806
  152MOL0     H20923   0.485   9.545   8.208 -1.6259  1.1260  0.4709
  152MOL0     H20924   0.446   9.556   8.034  0.5491  0.6024  0.5974
  152MOL0     H20925   0.341   9.374   8.375  0.4135 -0.0814 -0.1918
  152MOL0     H20926   0.133   9.315   8.483  3.1331 -0.1649 -1.8492
  152MOL0     H20927   0.003   9.266   8.375  1.8955 -1.7448  2.1574
  152MOL0     H20928   0.069   9.558   8.456 -0.3325 -0.5575 -1.4395
  152MOL0     H20929  -0.061   9.513   8.354 -1.0458  0.9349  1.0327
  152MOL0     H20930  -0.022   9.407   8.644 -1.4683  0.5763  1.2540
  152MOL0     H20931  -0.126   9.543   8.600  1.5711  0.9073  1.8250
  152MOL0     H20932  -0.164   9.245   8.504 -0.0543  0.3729  2.4343
  152MOL0     H20933  -0.249   9.318   8.631  0.6282  0.1214  0.7597
  152MOL0     H20934  -0.477   9.573   8.407 -2.1697 -0.3387 -1.5504
  152MOL0     H20935  -0.776   9.608   8.526  0.7344 -0.7703  0.5621
  152MOL0     H20936  -0.828   9.539   8.367  0.2020  0.9409 -0.6409
  152MOL0     H20937  -0.695   9.651   8.382 -1.7618  2.0556  1.7712
  152MOL0     H20938  -1.045   9.189   8.702  1.3763  1.7315  0.0419
  152MOL0     H20939  -1.259   9.059   8.721 -1.8395 -1.4222 -0.0496
  152MOL0     H20940  -1.503   8.912   8.680  2.2005  1.0624  0.8721
  152MOL0     H20941  -1.436   9.063   8.606  3.7532 -0.2407  0.4405
  152MOL0     H20942  -1.590   8.836   8.472 -1.0388  0.2120  1.5606
  152MOL0     H20943  -1.668   8.990   8.523 -1.2731 -1.5388 -2.5428
  152MOL0     H20944  -1.637   8.979   8.301 -0.4557 -1.1810  1.7760
  152MOL0     H20945  -1.472   8.939   8.306 -2.1816 -0.3136 -3.1090
  152MOL0     H20946  -1.510   9.191   8.251  1.7989 -1.6711 -0.1843
  152MOL0     H20947  -1.435   9.174   8.409  2.0621 -1.9434 -1.8627
  152MOL0     H20948  -1.660   9.217   8.515  0.1585 -2.1635  0.1832
  152MOL0     H20949  -1.613   9.333   8.394 -0.5340  0.6622  1.1441
  152MOL0     H20950  -1.848   9.147   8.396 -3.2167  2.6099 -0.3728
  152MOL0     H20951  -1.767   9.149   8.243 -0.4123 -3.1711  1.6402
  152MOL0     H20952  -1.764   9.397   8.242  0.2304 -0.7946 -0.6892
  152MOL0     H20953  -1.858   9.406   8.393 -2.2135  0.5724 -2.0947
  152MOL0     H20954  -2.015   9.228   8.306  0.3947  0.4431  0.9908
  152MOL0     H20955  -1.944   9.246   8.140  3.8456  3.6933 -0.6350
  152MOL0     H20956  -1.194   8.862   8.362  3.4453 -0.9711 -0.5975
  152MOL0     H20957  -0.987   8.969   8.325 -0.2631  1.2788  0.2929
  152MOL0     H20958  -0.630   9.112   8.517 -0.6274  0.6403 -0.2991
  152MOL0     H20959  -0.395   9.168   8.523  0.6728 -0.5858 -0.1089
  152MOL0     H20960   0.727   9.036   8.713 -1.1197 -0.5948  0.6520
  152MOL0     H20961   0.475   9.034   8.686  0.4059 -0.0937 -2.0473
  152MOL0     H20962   0.088   9.208   9.034 -0.8444 -0.3201  1.3064
  152MOL0     H20963  -0.157   9.175   9.034  3.9874  1.3295  2.6824
  152MOL0     H20964  -0.386   9.082   9.005 -2.5454 -1.2008 -1.0377
  152MOL0     H20965  -0.352   9.232   8.906  2.5603 -0.7639 -0.7668
  152MOL0     H20966  -0.544   9.009   8.836  0.8374 -1.1275  0.9972
  152MOL0     H20967  -0.509   9.156   8.740  0.9276  0.1288  0.8180
  152MOL0     H20968  -0.653   9.136   9.018  1.6353 -2.3595 -0.5962
  152MOL0     H20969  -0.597   9.288   8.948 -0.6998  0.3574  0.9764
  152MOL0     H20970  -0.743   9.225   8.742 -1.3824  3.1930  0.6977
  152MOL0     H20971  -0.835   9.249   8.878 -1.2399 -1.9937 -0.1317
  152MOL0     H20972  -0.934   8.851   8.883  0.5115 -1.3730  1.2694
  152MOL0     H20973  -0.126   8.986   8.652  2.0785 -0.3666 -1.3399
  152MOL0     H20974   0.210   8.914   8.666  0.8182  2.6587  1.9970
  152MOL0     H20975   0.069   8.918   8.557  1.1939 -1.9152  1.0948
  152MOL0     H20976   0.191   9.041   8.550  0.8286 -2.0544 -1.4240
  153MOL0     O20977   0.888   3.561   3.687 -0.0031 -0.8084 -0.2035
  153MOL0     C20978   0.827   3.623   3.589 -0.2963  0.5653 -0.6527
  153MOL0     O20979   0.841   3.587   3.463 -0.6708 -0.0247  0.9254
  153MOL0     C20980   0.899   3.480   3.409 -0.3804  0.8369 -0.3657
  153MOL0     C20981   0.880   3.470   3.271  0.6003  0.4866  0.4644
  153MOL0     C20982   0.958   3.375   3.202 -0.2718 -0.9656  0.2861
  153MOL0     C20983   1.034   3.278   3.265 -1.3971 -0.7162  0.1106
  153MOL0     O20984   1.079   3.166   3.200 -1.0206  0.7481 -0.1061
  153MOL0     C20985   1.128   3.174   3.067  0.0625  0.8530  0.1218
  153MOL0     C20986   1.030   3.148   2.953 -0.7337  0.3045 -0.1689
  153MOL0     C20987   1.106   3.097   2.836  0.1563  0.3500  0.1447
  153MOL0     C20988   1.137   2.946   2.847 -0.7331 -0.4728  0.4703
  153MOL0     C20989   1.228   2.888   2.738 -0.4246 -0.3700 -0.3800
  153MOL0     C20990   1.249   2.738   2.763 -0.3760  0.1917  0.5538
  153MOL0     C20991   1.341   2.681   2.659 -0.8993  0.0641  0.2539
  153MOL0     C20992   1.410   2.555   2.696  0.7854 -0.0117  0.5064
  153MOL0     N20993   1.445   2.478   2.581  0.2224  0.3700  0.0515
  153MOL0     C20994   1.563   2.414   2.556  0.6609 -0.1195  0.2879
  153MOL0     C20995   1.549   2.329   2.445 -0.0049 -0.1921 -0.6925
  153MOL0     C20996   1.655   2.238   2.381  0.6269 -0.0045 -0.0730
  153MOL0     C20997   1.692   2.113   2.465  0.1023  0.3815 -0.5556
  153MOL0     C20998   1.579   2.009   2.452  0.0222 -0.1293  0.3668
  153MOL0     C20999   1.614   1.875   2.515  0.5574 -0.0005 -0.0119
  153MOL0     O21000   1.725   1.827   2.434 -0.4483 -0.1736 -0.3504
  153MOL0     C21001   1.709   1.708   2.375 -0.0247  0.3926 -0.3114
  153MOL0     C21002   1.740   1.696   2.235 -0.1325 -0.2945 -0.6377
  153MOL0     C21003   1.724   1.572   2.166  0.0272 -0.8194 -0.7740
  153MOL0     C21004   1.746   1.578   2.020 -0.1117  0.0799 -0.2489
  153MOL0     C21005   1.673   1.466   2.239 -0.1909 -0.0353  0.2962
  153MOL0     C21006   1.643   1.327   2.177 -0.0771 -0.4514  0.5286
  153MOL0     O21007   1.713   1.305   2.058  1.7796  0.5670  0.2412
  153MOL0     C21008   1.739   1.174   2.031 -0.0989 -0.1624 -0.1896
  153MOL0     C21009   1.635   1.074   2.016  0.1718 -0.3417  0.1589
  153MOL0     C21010   1.665   0.941   1.972 -0.0467  0.6754 -0.2452
  153MOL0     C21011   1.798   0.900   1.963 -0.1917 -0.9719 -0.2663
  153MOL0     O21012   1.829   0.775   1.931  0.4432  0.0363 -0.1004
  153MOL0     C21013   1.860   0.758   1.792 -0.2826  0.8938 -0.0164
  153MOL0     C21014   1.842   0.612   1.763 -1.0024  0.7054  0.5399
  153MOL0     C21015   1.969   0.551   1.697  0.1237 -0.6324  0.3092
  153MOL0     C21016   1.946   0.416   1.638 -0.3026 -0.2661  0.4768
  153MOL0     C21017   2.048   0.370   1.538  0.5807  1.0186 -0.3991
  153MOL0     C21018   2.084   0.220   1.562  0.5968 -0.0866  0.5018
  153MOL0     C21019   2.192   0.154   1.470  0.3643  0.3696  0.5512
  153MOL0     C21020   2.319   0.127   1.554  0.3446 -0.2736  0.9060
  153MOL0    Cl21021   2.371   0.272   1.645  0.0019  0.3104 -0.6035
  153MOL0     C21022   1.903   0.989   1.998  1.2695 -0.2939 -0.2871
  153MOL0     C21023   1.871   1.130   2.011 -0.6208 -0.3235  0.5205
  153MOL0     O21024   1.564   1.248   2.229  0.1785  0.1850  0.1041
  153MOL0     C21025   1.649   1.479   2.375 -0.0072 -0.7111  0.1981
  153MOL0     C21026   1.662   1.598   2.439 -0.6214 -0.4331 -0.8198
  153MOL0     N21027   1.420   2.344   2.409  0.1390 -0.3189  0.1463
  153MOL0     N21028   1.354   2.429   2.487  0.5016  0.4742  0.0509
  153MOL0     C21029   1.052   3.294   3.405 -0.5049  0.1585  1.0082
  153MOL0     C21030   0.987   3.390   3.474  0.1172 -0.2298 -0.3308
  153MOL0     C21031   0.753   3.742   3.627 -0.0209  0.1207  0.0870
  153MOL0     C21032   0.817   3.821   3.727  0.3335 -0.8913 -0.2579
  153MOL0     C21033   0.763   3.939   3.763  0.4623  0.2642 -0.5153
  153MOL0     C21034   0.666   4.007   3.689 -0.5174 -0.1355  1.0055
  153MOL0     O21035   0.630   4.132   3.730 -0.0361  0.0347  0.1989
  153MOL0     C21036   0.559   4.233   3.646  0.6594  0.5972  0.6420
  153MOL0     C21037   0.646   4.290   3.536  0.2329 -0.2394  0.2982
  153MOL0     C21038   0.556   4.372   3.444  0.2697 -0.4173  0.9566
  153MOL0     C21039   0.537   4.304   3.300  0.1844  0.1159  0.7859
  153MOL0     C21040   0.462   4.183   3.310 -0.0955 -0.4710 -0.8669
  153MOL0     C21041   0.396   4.086   3.319  0.5167 -0.3001  0.3851
  153MOL0     C21042   0.611   3.935   3.585 -0.7020 -0.8253  0.5283
  153MOL0     C21043   0.648   3.802   3.553 -0.0172  0.1206 -0.9830
  153MOL0     C21044   0.572   3.729   3.442 -0.8148 -0.1203  0.3001
  153MOL0     H21045   0.818   3.537   3.212 -0.2446 -1.2329 -0.6918
  153MOL0     H21046   0.935   3.377   3.096 -2.5336 -0.0121  0.7473
  153MOL0     H21047   1.216   3.109   3.068 -0.4207  0.1626  2.3497
  153MOL0     H21048   1.165   3.276   3.050 -1.1865  1.3749  0.3910
  153MOL0     H21049   0.955   3.076   2.987 -2.3466  1.6208 -0.8088
  153MOL0     H21050   0.991   3.247   2.927  1.3282  0.5527 -2.7810
  153MOL0     H21051   1.038   3.118   2.753  0.2006  0.5415  0.1573
  153MOL0     H21052   1.197   3.155   2.821  0.4782  0.2427  1.5672
  153MOL0     H21053   1.203   2.936   2.933 -0.0690  2.5520  0.4387
  153MOL0     H21054   1.046   2.887   2.860 -1.0214  0.5035  3.7415
  153MOL0     H21055   1.324   2.940   2.731  0.9900 -2.1396  3.0973
  153MOL0     H21056   1.175   2.888   2.643  0.4005 -1.0255 -0.8502
  153MOL0     H21057   1.294   2.724   2.862  0.2916  3.2296  0.7663
  153MOL0     H21058   1.159   2.676   2.768  0.5324 -1.1487  0.7027
  153MOL0     H21059   1.420   2.756   2.645  0.1007 -1.4818 -3.6922
  153MOL0     H21060   1.287   2.677   2.564 -2.5882  3.2170  0.9376
  153MOL0     H21061   1.506   2.571   2.746  0.6142  0.8727  0.5694
  153MOL0     H21062   1.352   2.492   2.765  3.4003  0.0916  2.9997
  153MOL0     H21063   1.658   2.423   2.608  0.1792 -0.8699  1.3342
  153MOL0     H21064   1.746   2.296   2.361 -0.1402  1.6349  0.9839
  153MOL0     H21065   1.615   2.196   2.288  1.5055 -0.2231 -0.3629
  153MOL0     H21066   1.791   2.077   2.437  0.2943 -0.7359  1.3182
  153MOL0     H21067   1.701   2.139   2.571  0.2668  1.4453 -0.8262
  153MOL0     H21068   1.494   2.056   2.502  0.1246 -0.9860  1.3648
  153MOL0     H21069   1.548   1.996   2.348 -0.8647  1.3065  0.4261
  153MOL0     H21070   1.652   1.875   2.618  1.2818  0.4537 -0.2741
  153MOL0     H21071   1.523   1.814   2.516 -0.1863  1.0809  0.0261
  153MOL0     H21072   1.768   1.781   2.174  0.4116 -0.6972 -0.9551
  153MOL0     H21073   1.649   1.549   1.977 -1.0524  2.0520  0.4027
  153MOL0     H21074   1.834   1.523   1.986  2.0815  3.0606  0.1615
  153MOL0     H21075   1.770   1.677   1.980  0.1567 -0.7692 -2.2968
  153MOL0     H21076   1.530   1.092   2.035  0.0520  1.0209 -1.5498
  153MOL0     H21077   1.590   0.865   1.954  0.3841  0.5359 -1.5778
  153MOL0     H21078   1.805   0.815   1.716 -0.3829  2.1672  0.9815
  153MOL0     H21079   1.963   0.794   1.788 -0.5655  2.4864  3.4782
  153MOL0     H21080   1.823   0.553   1.853  0.9501 -2.8394 -1.1685
  153MOL0     H21081   1.762   0.589   1.691  0.7309  0.0042 -1.2465
  153MOL0     H21082   2.049   0.536   1.770  1.6588 -0.9171 -1.3546
  153MOL0     H21083   2.024   0.609   1.622  3.7950 -2.3833  1.4164
  153MOL0     H21084   1.850   0.426   1.588 -0.1971 -1.2054  0.0623
  153MOL0     H21085   1.926   0.338   1.713 -1.9858  1.6545  2.1181
  153MOL0     H21086   1.994   0.383   1.444  1.4275 -2.2635 -1.4567
  153MOL0     H21087   2.139   0.432   1.535  1.9136 -0.7961  0.6205
  153MOL0     H21088   1.985   0.177   1.541  0.8477 -0.8838  0.8936
  153MOL0     H21089   2.111   0.204   1.667  3.5389 -1.4832 -0.3556
  153MOL0     H21090   2.216   0.233   1.398 -3.9161  1.0087 -0.4579
  153MOL0     H21091   2.165   0.057   1.427  1.4346  0.4021 -0.2358
  153MOL0     H21092   2.401   0.099   1.487 -0.2924 -0.6265  0.2584
  153MOL0     H21093   2.311   0.033   1.608 -0.9623 -0.9821 -0.4380
  153MOL0     H21094   2.003   0.946   1.999  1.5344  0.2495 -1.6366
  153MOL0     H21095   1.957   1.196   2.022  0.8850 -2.2118  0.4978
  153MOL0     H21096   1.602   1.395   2.424 -0.1099 -0.7192  0.0868
  153MOL0     H21097   1.652   1.587   2.546  2.1521 -2.1773 -0.6359
  153MOL0     H21098   1.114   3.220   3.454  0.1118 -1.2573 -1.7009
  153MOL0     H21099   1.010   3.399   3.580  1.5214 -0.8187 -0.5581
  153MOL0     H21100   0.904   3.789   3.785  1.3160 -1.3131 -1.9040
  153MOL0     H21101   0.805   3.985   3.852  1.0588 -0.7100 -0.2804
  153MOL0     H21102   0.464   4.192   3.611  1.6789 -1.0224 -0.3658
  153MOL0     H21103   0.529   4.322   3.703 -0.0777  1.2835 -0.7621
  153MOL0     H21104   0.686   4.201   3.487  1.5189  0.6691 -0.3646
  153MOL0     H21105   0.725   4.347   3.584 -0.8838 -0.5391  2.6092
  153MOL0     H21106   0.458   4.382   3.491  0.3368  0.5734  0.9069
  153MOL0     H21107   0.602   4.471   3.444  2.6720 -1.4398  0.0830
  153MOL0     H21108   0.634   4.284   3.253 -0.8146 -1.4458 -0.7245
  153MOL0     H21109   0.469   4.365   3.240 -2.5891 -0.2885  3.2733
  153MOL0     H21110   0.333   3.999   3.321 -0.8933  0.7017  0.4958
  153MOL0     H21111   0.530   3.981   3.528 -1.0294 -1.3832  0.5385
  153MOL0     H21112   0.567   3.622   3.462 -1.4853 -0.3028 -0.7336
  153MOL0     H21113   0.468   3.761   3.453 -0.3547  0.9632  1.7792
  153MOL0     H21114   0.614   3.755   3.344  2.0382  0.3881  1.5849
  154MOL0     O21115  11.389  10.457   6.606  0.1426 -0.0961  0.7962
  154MOL0     C21116  11.327  10.496   6.706 -0.9988 -0.0645 -0.5084
  154MOL0     O21117  11.315  10.423   6.825 -0.2512 -0.6406 -0.5509
  154MOL0     C21118  11.381  10.310   6.838  0.0933  0.2772 -0.1824
  154MOL0     C21119  11.311  10.190   6.821  0.3568 -0.5852  0.8864
  154MOL0     C21120  11.379  10.069   6.840  0.5014  0.1473 -0.7202
  154MOL0     C21121  11.509  10.064   6.887 -0.6951  0.5125  0.0346
  154MOL0     O21122  11.555   9.935   6.919  0.2831  0.1477  0.0236
  154MOL0     C21123  11.698   9.929   6.931 -0.1349  0.5754  0.2467
  154MOL0     C21124  11.720   9.787   6.991  0.5609  0.3836 -0.1751
  154MOL0     C21125  11.845   9.706   6.958 -0.5792 -0.2418 -0.1821
  154MOL0     C21126  11.946   9.703   7.076  0.4652 -0.5417 -0.3900
  154MOL0     C21127  12.017   9.833   7.115  0.7113  0.3302  0.0415
  154MOL0     C21128  12.049   9.848   7.266  0.3712 -1.0343  0.0804
  154MOL0     C21129  12.081   9.999   7.297 -1.0174 -0.6469  0.3694
  154MOL0     C21130  12.143  10.002   7.440 -0.6775 -0.4681 -0.2099
  154MOL0     N21131  12.197  10.131   7.480 -0.8858 -0.9578 -0.1921
  154MOL0     C21132  12.318  10.191   7.434  0.4139 -0.5400  0.5252
  154MOL0     C21133  12.307  10.316   7.485  0.6507  0.0084 -0.7636
  154MOL0     C21134  12.399  10.419   7.450 -0.5424 -0.3338 -0.1788
  154MOL0     C21135  12.437  10.508   7.575 -0.3023 -0.0991  0.5859
  154MOL0     C21136  12.534  10.432   7.670  0.1106  0.6383 -0.1870
  154MOL0     C21137  12.582  10.516   7.787 -0.1444  1.0076  0.6349
  154MOL0     O21138  12.652  10.446   7.887 -0.8585  0.1983  0.0958
  154MOL0     C21139  12.766  10.383   7.847 -0.0382 -0.0128  0.1228
  154MOL0     C21140  12.861  10.435   7.766  0.2407 -0.3532  0.1896
  154MOL0     C21141  12.987  10.383   7.749  0.2265  0.2962 -0.1036
  154MOL0     C21142  13.081  10.453   7.656  0.7775 -0.1123  0.2809
  154MOL0     C21143  13.020  10.263   7.813  0.9715  1.1070  0.0031
  154MOL0     C21144  13.152  10.197   7.800 -0.8548  0.8938  0.4955
  154MOL0     O21145  13.210  10.125   7.906  0.2316 -0.6545  0.2412
  154MOL0     C21146  13.335  10.078   7.885 -0.4998 -0.2860  0.1699
  154MOL0     C21147  13.451  10.160   7.882  0.0219  0.9021  0.9285
  154MOL0     C21148  13.579  10.098   7.902 -0.3395 -0.1138 -0.9225
  154MOL0     C21149  13.596   9.959   7.933  0.1941 -0.4175 -0.9022
  154MOL0     O21150  13.707   9.880   7.965  1.0605  0.3120 -0.5026
  154MOL0     C21151  13.831   9.951   7.941  0.2602 -0.0417 -0.4602
  154MOL0     C21152  13.946   9.870   7.999 -0.6083  0.2216 -0.6802
  154MOL0     C21153  14.078   9.894   7.922 -0.3694  0.1901 -0.4044
  154MOL0     C21154  14.195   9.825   7.999 -0.0409  0.1392 -0.3296
  154MOL0     C21155  14.330   9.848   7.935 -0.4931 -0.1404  0.4623
  154MOL0     C21156  14.455   9.799   8.017 -0.3726 -0.1969  0.2830
  154MOL0     C21157  14.580   9.836   7.935 -0.7477 -0.6761 -0.1255
  154MOL0     C21158  14.702   9.763   7.993 -0.7520 -0.0096  0.8696
  154MOL0    Cl21159  14.683   9.587   7.937  0.4216 -0.2256  0.1256
  154MOL0     C21160  13.473   9.878   7.932 -0.4018 -1.1071 -0.1102
  154MOL0     C21161  13.347   9.942   7.917  0.1775  0.4298  0.8662
  154MOL0     O21162  13.200  10.204   7.684 -0.2077 -0.0583 -0.6877
  154MOL0     C21163  12.927  10.209   7.900 -0.2265 -0.4740 -0.3794
  154MOL0     C21164  12.802  10.269   7.916  0.1545 -0.1258 -0.7053
  154MOL0     N21165  12.201  10.327   7.574 -0.3257 -0.8367 -0.4547
  154MOL0     N21166  12.135  10.225   7.559  0.6742  0.4380 -0.8233
  154MOL0     C21167  11.576  10.188   6.900 -0.1190 -0.0715 -0.5642
  154MOL0     C21168  11.517  10.306   6.874  0.3642 -0.2795 -0.1314
  154MOL0     C21169  11.272  10.637   6.704  0.4611 -0.3908 -0.1311
  154MOL0     C21170  11.263  10.707   6.828 -0.9455  0.0709 -0.9523
  154MOL0     C21171  11.200  10.826   6.840  0.3369 -1.3797  0.4500
  154MOL0     C21172  11.164  10.893   6.715 -0.8631 -0.5729  1.0080
  154MOL0     O21173  11.111  11.015   6.714  0.4390 -0.0928  0.3895
  154MOL0     C21174  10.966  11.029   6.712  0.0269 -0.4272 -0.6186
  154MOL0     C21175  10.912  11.151   6.645  0.4276 -0.5383  1.1011
  154MOL0     C21176  11.009  11.267   6.625  0.6938  0.5691 -1.1138
  154MOL0     C21177  10.933  11.392   6.604  0.6325 -0.1413 -0.0857
  154MOL0     C21178  10.863  11.400   6.468 -0.9454 -0.4343 -1.2230
  154MOL0     C21179  10.806  11.417   6.364  0.3176 -0.0057 -0.3348
  154MOL0     C21180  11.172  10.823   6.593  0.0753 -0.0968  0.1864
  154MOL0     C21181  11.220  10.704   6.586  0.0402  0.2198 -0.1321
  154MOL0     C21182  11.184  10.625   6.456 -0.2501  0.3112 -0.5861
  154MOL0     H21183  11.206  10.189   6.792 -0.2944 -1.8621  3.0363
  154MOL0     H21184  11.322   9.980   6.814 -2.7730  1.9467 -0.2376
  154MOL0     H21185  11.746  10.015   6.977  1.2900 -0.3231  0.4965
  154MOL0     H21186  11.738   9.921   6.829 -0.1247 -0.8959  0.3389
  154MOL0     H21187  11.720   9.793   7.100  2.7315  2.0587 -0.2043
  154MOL0     H21188  11.638   9.718   6.969 -0.7115  0.0492  4.6649
  154MOL0     H21189  11.811   9.603   6.943  1.6902 -0.9372 -0.8944
  154MOL0     H21190  11.883   9.741   6.862 -3.8680 -1.9119 -2.3009
  154MOL0     H21191  11.895   9.665   7.165  1.3006 -4.0453 -1.2700
  154MOL0     H21192  12.027   9.633   7.052  1.6135  0.4670  0.3501
  154MOL0     H21193  11.960   9.920   7.081  0.8181  1.7393  3.0699
  154MOL0     H21194  12.105   9.832   7.050  1.0279 -4.5876  0.2063
  154MOL0     H21195  11.964   9.818   7.328 -0.4211  0.0295 -0.4493
  154MOL0     H21196  12.129   9.779   7.292  0.4527  0.0219  3.1367
  154MOL0     H21197  11.991  10.060   7.304  0.3044  1.3915  0.2674
  154MOL0     H21198  12.155  10.027   7.221  0.3132  0.6603  2.0573
  154MOL0     H21199  12.060   9.975   7.507 -0.0328 -0.1981  0.7210
  154MOL0     H21200  12.224   9.930   7.451  0.5590  0.8048 -0.7770
  154MOL0     H21201  12.383  10.149   7.357 -1.2825  1.0820 -1.9753
  154MOL0     H21202  12.357  10.482   7.371  2.1949  1.8019 -0.1015
  154MOL0     H21203  12.490  10.362   7.426 -0.0538  0.4225 -0.1610
  154MOL0     H21204  12.494  10.597   7.547  0.6593 -0.4917  1.2412
  154MOL0     H21205  12.346  10.538   7.627  0.1271  0.4171  1.0536
  154MOL0     H21206  12.476  10.352   7.715 -1.3905  2.4524  1.2806
  154MOL0     H21207  12.622  10.403   7.611 -0.6845 -0.5088 -0.8380
  154MOL0     H21208  12.643  10.598   7.746  2.8751 -0.8186  1.2083
  154MOL0     H21209  12.493  10.553   7.838  0.8127 -0.7091  3.8480
  154MOL0     H21210  12.843  10.526   7.709  2.2186 -0.8825 -1.4136
  154MOL0     H21211  13.040  10.551   7.629  1.7947 -0.0310 -1.1030
  154MOL0     H21212  13.086  10.391   7.566 -0.3205  0.1376  0.0275
  154MOL0     H21213  13.179  10.468   7.701 -0.0292  0.9933  1.7437
  154MOL0     H21214  13.459  10.267   7.870  2.4256  0.6100 -0.8573
  154MOL0     H21215  13.654  10.176   7.898 -0.4921 -0.0111 -2.3923
  154MOL0     H21216  13.855   9.954   7.834 -0.8133  0.7348 -0.6993
  154MOL0     H21217  13.836  10.052   7.981  1.3148  0.6475 -2.2172
  154MOL0     H21218  13.954   9.897   8.105 -4.2485 -0.9823  0.0256
  154MOL0     H21219  13.928   9.762   8.003  1.3766 -0.1094  1.3170
  154MOL0     H21220  14.086  10.002   7.908 -1.3108  0.1945 -1.0003
  154MOL0     H21221  14.085   9.858   7.818  4.7910  1.2499 -0.6946
  154MOL0     H21222  14.177   9.720   8.022  1.3050 -0.2264 -0.8783
  154MOL0     H21223  14.187   9.855   8.104 -2.5645 -2.3685  0.3212
  154MOL0     H21224  14.336   9.806   7.834  3.1218  3.1839 -0.9465
  154MOL0     H21225  14.346   9.952   7.905  1.1061 -0.9914 -1.9018
  154MOL0     H21226  14.456   9.693   8.047  2.9307 -1.0342 -2.2345
  154MOL0     H21227  14.456   9.852   8.113 -0.7939 -1.4467  1.0029
  154MOL0     H21228  14.589   9.945   7.944  0.5923 -0.9332  2.5030
  154MOL0     H21229  14.567   9.799   7.833 -0.2706  1.0808 -0.8564
  154MOL0     H21230  14.725   9.777   8.099  1.5285  0.4808  0.3780
  154MOL0     H21231  14.785   9.803   7.933  1.5330  0.6606  4.1698
  154MOL0     H21232  13.461   9.772   7.953 -0.1825 -0.6913  2.5603
  154MOL0     H21233  13.257   9.882   7.909  1.0534 -1.0780  1.8513
  154MOL0     H21234  12.951  10.119   7.956 -0.9086  0.3236  1.2637
  154MOL0     H21235  12.734  10.220   7.985 -0.6081  2.4530  0.5163
  154MOL0     H21236  11.683  10.197   6.917 -0.4404  0.4732  1.3476
  154MOL0     H21237  11.581  10.394   6.870  1.8084 -1.3286 -0.9821
  154MOL0     H21238  11.298  10.653   6.915 -2.2572 -0.0429 -0.4715
  154MOL0     H21239  11.183  10.878   6.933 -4.5075  2.6572 -2.1582
  154MOL0     H21240  10.929  10.950   6.645  0.0814 -2.0342  1.1599
  154MOL0     H21241  10.923  11.018   6.812 -0.9783  1.4186 -0.8192
  154MOL0     H21242  10.834  11.182   6.716 -1.5262 -3.1888  0.2822
  154MOL0     H21243  10.864  11.132   6.549 -2.1412 -0.5453  2.2734
  154MOL0     H21244  11.080  11.288   6.707 -0.8484  2.9452 -0.2849
  154MOL0     H21245  11.069  11.245   6.537  0.2760  2.3234 -1.8736
  154MOL0     H21246  10.997  11.478   6.629 -0.2219 -0.0619  2.0605
  154MOL0     H21247  10.849  11.404   6.673 -1.1855  0.8075 -2.3521
  154MOL0     H21248  10.758  11.411   6.268  1.1243  2.8744 -1.0417
  154MOL0     H21249  11.143  10.872   6.501  3.6277  0.3902 -0.8080
  154MOL0     H21250  11.231  10.527   6.440  0.1978  0.6439 -1.3213
  154MOL0     H21251  11.075  10.618   6.450 -0.2457  0.2183 -0.5814
  154MOL0     H21252  11.211  10.681   6.366 -1.5048  1.8069 -0.0752
  155MOL0     O21253   7.427   3.204   7.243  0.7145  0.0469 -0.4875
  155MOL0     C21254   7.528   3.189   7.305  1.1902  0.0905  0.1839
  155MOL0     O21255   7.651   3.248   7.269  0.2894  0.0697 -0.3039
  155MOL0     C21256   7.652   3.355   7.183 -0.5868 -0.0948  0.6155
  155MOL0     C21257   7.753   3.349   7.090  0.6066  0.2473 -0.2139
  155MOL0     C21258   7.765   3.452   6.997 -0.0275  0.3358  0.6417
  155MOL0     C21259   7.686   3.573   7.000  0.1634  0.2600 -0.4663
  155MOL0     O21260   7.690   3.681   6.916  0.1712 -0.2130 -0.6207
  155MOL0     C21261   7.777   3.677   6.799 -0.0004  0.4005 -0.0388
  155MOL0     C21262   7.710   3.625   6.669 -0.5796  0.3370  0.9437
  155MOL0     C21263   7.822   3.595   6.565 -0.3715 -0.1555  1.2519
  155MOL0     C21264   7.914   3.464   6.596 -1.2281 -0.9850  0.2234
  155MOL0     C21265   8.033   3.440   6.497 -1.6771 -0.7914 -0.9648
  155MOL0     C21266   8.171   3.410   6.569 -0.0895 -0.0410  0.2311
  155MOL0     C21267   8.171   3.289   6.668  0.3065 -0.2694  0.0480
  155MOL0     C21268   8.318   3.259   6.704  0.1528 -0.1807  0.1880
  155MOL0     N21269   8.356   3.125   6.659 -0.1576 -0.3758  0.4679
  155MOL0     C21270   8.402   3.098   6.538  0.1033  0.0253  0.2734
  155MOL0     C21271   8.422   2.963   6.549 -0.8346 -0.0535  0.2949
  155MOL0     C21272   8.445   2.873   6.435  0.0131 -1.2757  1.0207
  155MOL0     C21273   8.586   2.823   6.429 -0.3061 -0.9267  0.2361
  155MOL0     C21274   8.598   2.721   6.310 -0.8374 -0.8101 -0.2765
  155MOL0     C21275   8.589   2.792   6.178  0.8425  0.5968 -0.2349
  155MOL0     O21276   8.655   2.910   6.171  0.3738 -0.3135  0.2235
  155MOL0     C21277   8.795   2.911   6.144  0.5956 -0.2991  0.2876
  155MOL0     C21278   8.850   3.037   6.143 -0.1608  0.5511  0.9202
  155MOL0     C21279   8.991   3.058   6.125  0.7249  0.5442 -0.0028
  155MOL0     C21280   9.026   3.200   6.156 -0.3087 -0.3563 -0.9669
  155MOL0     C21281   9.069   2.949   6.092  0.3270 -0.1791 -0.1394
  155MOL0     C21282   9.217   2.961   6.061 -0.4580  1.0645  0.5981
  155MOL0     O21283   9.262   3.087   6.041  0.5825 -0.0728  0.3597
  155MOL0     C21284   9.384   3.113   5.981 -0.2839  0.8194 -0.1654
  155MOL0     C21285   9.460   3.029   5.892 -0.3049 -0.2129 -0.3512
  155MOL0     C21286   9.581   3.066   5.841 -0.6115 -0.8398 -0.3116
  155MOL0     C21287   9.637   3.193   5.862 -0.1105  1.0210 -0.6528
  155MOL0     O21288   9.750   3.237   5.807 -0.0967 -0.0008  0.2309
  155MOL0     C21289   9.828   3.145   5.741 -0.0630  0.4215  1.1251
  155MOL0     C21290   9.956   3.214   5.697  0.1342 -0.7334  0.1667
  155MOL0     C21291  10.038   3.300   5.793 -0.2477 -0.2592  0.8136
  155MOL0     C21292  10.165   3.351   5.718  0.5237 -0.5092 -0.0437
  155MOL0     C21293  10.266   3.413   5.820 -0.3633 -0.0709 -0.0490
  155MOL0     C21294  10.391   3.463   5.753 -0.6135  0.6688 -0.1029
  155MOL0     C21295  10.496   3.527   5.857 -0.3191  0.0386  0.2370
  155MOL0     C21296  10.613   3.602   5.787  1.1194 -0.2670  0.3327
  155MOL0    Cl21297  10.582   3.740   5.672 -0.2496 -0.1805  0.1117
  155MOL0     C21298   9.560   3.286   5.944  0.2722  0.4450  0.4034
  155MOL0     C21299   9.430   3.247   5.993 -0.6058 -0.9133  0.2527
  155MOL0     O21300   9.286   2.859   6.063  0.2484 -0.2288  0.0060
  155MOL0     C21301   9.010   2.815   6.088 -0.7055 -1.2919  0.2090
  155MOL0     C21302   8.878   2.806   6.127 -1.7262 -0.2120 -0.0682
  155MOL0     N21303   8.385   2.921   6.672  0.2307 -0.4350  0.5898
  155MOL0     N21304   8.346   3.018   6.742  0.3068  0.0788 -0.4280
  155MOL0     C21305   7.596   3.589   7.102  0.2107  0.7699 -0.4322
  155MOL0     C21306   7.575   3.475   7.184  0.4192  0.1164 -0.4224
  155MOL0     C21307   7.528   3.074   7.410  0.1611  0.2703 -0.3251
  155MOL0     C21308   7.628   3.076   7.508 -0.1467  0.9452  0.3778
  155MOL0     C21309   7.631   2.989   7.617  0.9257 -0.1452 -0.6173
  155MOL0     C21310   7.532   2.894   7.634 -0.4067 -0.0223 -0.0477
  155MOL0     O21311   7.529   2.818   7.743 -0.3559  0.8162 -0.2020
  155MOL0     C21312   7.518   2.675   7.723  0.6384  0.4697 -0.8124
  155MOL0     C21313   7.635   2.602   7.798  0.3317 -0.6197 -0.1388
  155MOL0     C21314   7.638   2.611   7.949  0.5202  0.2123  0.3608
  155MOL0     C21315   7.778   2.568   8.001  0.1562  0.3000  0.0175
  155MOL0     C21316   7.808   2.611   8.138 -0.6732 -0.4307 -0.2243
  155MOL0     C21317   7.847   2.647   8.250  0.3346 -0.0552 -0.3823
  155MOL0     C21318   7.430   2.887   7.535  0.1017  0.2811 -0.1017
  155MOL0     C21319   7.424   2.977   7.431  0.6467 -1.0015 -0.3569
  155MOL0     C21320   7.319   2.966   7.334 -0.4957 -0.2267 -0.8838
  155MOL0     H21321   7.824   3.267   7.082 -0.5723 -0.6632 -2.2200
  155MOL0     H21322   7.841   3.450   6.920 -1.8581  2.1853 -1.3277
  155MOL0     H21323   7.872   3.628   6.824  1.5925  2.8829 -0.7404
  155MOL0     H21324   7.816   3.779   6.786 -0.0852  0.9080  2.9024
  155MOL0     H21325   7.657   3.531   6.688 -2.2035  1.2142  0.8911
  155MOL0     H21326   7.629   3.683   6.624 -2.7358 -0.7943  3.1232
  155MOL0     H21327   7.780   3.575   6.466  2.5596 -0.6443  0.0141
  155MOL0     H21328   7.878   3.688   6.562 -2.8994  1.4389 -1.5132
  155MOL0     H21329   7.967   3.466   6.692  0.1458  0.6785 -0.5148
  155MOL0     H21330   7.847   3.378   6.604 -0.2427 -1.6384  2.1543
  155MOL0     H21331   8.036   3.511   6.415 -2.3896 -0.8564 -1.0567
  155MOL0     H21332   8.000   3.348   6.447 -2.6426 -2.1361  1.8777
  155MOL0     H21333   8.242   3.387   6.489  0.3713  0.0369  0.6071
  155MOL0     H21334   8.211   3.491   6.631 -1.5003 -0.7541  2.1838
  155MOL0     H21335   8.119   3.203   6.624  1.0565  0.7151 -2.9553
  155MOL0     H21336   8.130   3.317   6.766  1.6472  0.8233  0.3220
  155MOL0     H21337   8.379   3.335   6.655 -2.6590  0.0748 -3.4104
  155MOL0     H21338   8.337   3.275   6.810 -0.4015  1.2797  0.0919
  155MOL0     H21339   8.416   3.160   6.451  0.1947 -1.1852 -0.6041
  155MOL0     H21340   8.408   2.914   6.341  1.6985  2.2504  1.7360
  155MOL0     H21341   8.375   2.790   6.449 -1.3706 -0.1996  0.7101
  155MOL0     H21342   8.650   2.909   6.410 -1.9516 -0.2167 -2.7371
  155MOL0     H21343   8.590   2.768   6.524 -0.8392  0.0691  0.8548
  155MOL0     H21344   8.696   2.674   6.305 -1.2273 -1.5405 -2.3042
  155MOL0     H21345   8.522   2.643   6.301 -1.6132  0.0331 -1.3465
  155MOL0     H21346   8.619   2.716   6.105  2.7125  0.8304  0.2513
  155MOL0     H21347   8.485   2.809   6.148  1.0443 -0.9130 -1.9093
  155MOL0     H21348   8.780   3.116   6.168 -1.4745 -0.9838  2.3643
  155MOL0     H21349   9.123   3.207   6.205  0.3387 -1.4801 -2.0429
  155MOL0     H21350   8.951   3.245   6.222  0.0709 -3.2984  1.7286
  155MOL0     H21351   9.035   3.263   6.068 -2.7004 -1.1864 -1.9010
  155MOL0     H21352   9.430   2.927   5.872 -0.0727 -0.4292  0.3780
  155MOL0     H21353   9.628   2.993   5.776 -0.4001 -0.4784 -0.5674
  155MOL0     H21354   9.851   3.049   5.789  0.0980  0.4876  1.1814
  155MOL0     H21355   9.768   3.119   5.654  1.3854  0.2714  0.1402
  155MOL0     H21356  10.014   3.139   5.643 -1.1127 -0.9817 -0.8700
  155MOL0     H21357   9.927   3.283   5.617 -0.4054  1.2436  1.9771
  155MOL0     H21358  10.065   3.239   5.879 -0.6453 -1.4899  0.0887
  155MOL0     H21359   9.974   3.381   5.827 -2.0531 -1.3799  0.1971
  155MOL0     H21360  10.124   3.421   5.645 -2.8070 -2.1326  0.1243
  155MOL0     H21361  10.204   3.272   5.653  0.4823  1.4928 -2.6679
  155MOL0     H21362  10.212   3.493   5.873  1.3070  1.7415 -0.9407
  155MOL0     H21363  10.293   3.345   5.900  0.3794 -0.2520 -0.4492
  155MOL0     H21364  10.369   3.538   5.676  1.8500  0.1365 -1.4296
  155MOL0     H21365  10.440   3.373   5.713 -2.8247 -1.1482  1.0061
  155MOL0     H21366  10.540   3.451   5.921  1.6533  1.6105  0.8403
  155MOL0     H21367  10.438   3.595   5.920 -1.4249  1.7596 -2.4628
  155MOL0     H21368  10.678   3.532   5.733 -0.7041 -1.0605 -0.9054
  155MOL0     H21369  10.670   3.632   5.876 -1.5030  0.1799  1.9604
  155MOL0     H21370   9.598   3.387   5.945  1.6986 -0.0652  1.0365
  155MOL0     H21371   9.369   3.324   6.038 -0.3649  0.9652 -2.3768
  155MOL0     H21372   9.069   2.727   6.065 -1.4424 -1.6191 -0.4800
  155MOL0     H21373   8.843   2.703   6.128 -0.6405 -0.5934  1.4598
  155MOL0     H21374   7.534   3.676   7.120 -2.6790 -1.0542 -1.0358
  155MOL0     H21375   7.491   3.481   7.253  0.0811 -0.9371 -0.7215
  155MOL0     H21376   7.716   3.138   7.496  2.8149 -2.5823  1.8604
  155MOL0     H21377   7.710   3.002   7.690  0.6264  2.1593 -0.6137
  155MOL0     H21378   7.424   2.621   7.738 -0.4294  1.8735 -2.2272
  155MOL0     H21379   7.524   2.662   7.615 -2.6211 -0.3339 -0.9918
  155MOL0     H21380   7.728   2.647   7.763  0.8859  1.3347  3.3841
  155MOL0     H21381   7.640   2.497   7.770  2.3272 -0.9003  1.0982
  155MOL0     H21382   7.620   2.715   7.976  0.8660 -0.0818  1.8067
  155MOL0     H21383   7.552   2.558   7.993 -0.7454  1.7634 -0.1587
  155MOL0     H21384   7.859   2.588   7.930  0.8591  0.0918  0.7408
  155MOL0     H21385   7.780   2.459   8.016  2.0285  0.0916 -1.3485
  155MOL0     H21386   7.886   2.677   8.346 -1.3266  3.2043 -0.5900
  155MOL0     H21387   7.351   2.815   7.550 -1.1731  1.3040 -1.5760
  155MOL0     H21388   7.253   3.053   7.334 -1.2032 -0.6337 -4.2367
  155MOL0     H21389   7.366   2.941   7.239 -0.0387 -2.8810 -0.0541
  155MOL0     H21390   7.256   2.883   7.368  1.5050 -1.9801 -1.2086
  156MOL0     O21391   1.538   7.504  10.391 -0.0816  0.5335 -0.0669
  156MOL0     C21392   1.558   7.432  10.487 -0.0037  0.1817  0.1171
  156MOL0     O21393   1.472   7.418  10.595 -0.2814 -0.1255 -0.3812
  156MOL0     C21394   1.394   7.525  10.636 -0.5591  0.3372 -0.3259
  156MOL0     C21395   1.264   7.514  10.680  0.9453 -0.7186  0.8329
  156MOL0     C21396   1.198   7.622  10.730  0.0400  0.2495  0.2532
  156MOL0     C21397   1.250   7.749  10.723 -0.7432 -0.6974  0.2875
  156MOL0     O21398   1.193   7.864  10.770  0.0215  0.1688  0.0230
  156MOL0     C21399   1.052   7.875  10.762 -0.4703  0.4421  0.1129
  156MOL0     C21400   1.014   7.998  10.675 -0.5538 -0.3057  1.0621
  156MOL0     C21401   0.995   7.959  10.524  0.0609 -0.2776 -0.0014
  156MOL0     C21402   1.119   7.935  10.429 -0.0347  0.3666  0.3390
  156MOL0     C21403   1.071   7.900  10.282 -0.3700 -0.8983  0.4466
  156MOL0     C21404   1.171   7.801  10.211  0.3355 -0.1320  0.4294
  156MOL0     C21405   1.309   7.867  10.178  1.4126  0.5615  0.3938
  156MOL0     C21406   1.407   7.752  10.139  0.0145  0.8975 -0.3043
  156MOL0     N21407   1.525   7.806  10.073  0.2900  0.5686 -0.1523
  156MOL0     C21408   1.651   7.770  10.096  0.3895  0.1560 -0.0132
  156MOL0     C21409   1.729   7.840  10.010  0.1301  0.2656 -0.9578
  156MOL0     C21410   1.874   7.834   9.994  0.3816  0.1963  0.1594
  156MOL0     C21411   1.929   7.716   9.902  0.0610 -0.0767 -0.2994
  156MOL0     C21412   1.859   7.583   9.933 -0.1161  0.9306 -0.2718
  156MOL0     C21413   1.948   7.468   9.891 -0.1094 -0.5940 -0.4714
  156MOL0     O21414   1.897   7.340   9.940 -0.0737  0.2399 -0.3410
  156MOL0     C21415   1.996   7.258   9.990  0.7620 -0.6625 -0.3414
  156MOL0     C21416   2.057   7.275  10.116 -0.0645  0.3173  0.4958
  156MOL0     C21417   2.147   7.180  10.162  0.3969 -0.8692  0.4309
  156MOL0     C21418   2.213   7.201  10.295 -0.5064  0.2125 -0.0573
  156MOL0     C21419   2.175   7.074  10.076 -0.1565 -0.6953  0.5124
  156MOL0     C21420   2.271   6.959  10.108 -0.0053  0.2318  0.4529
  156MOL0     O21421   2.407   6.982  10.130  0.7848  0.5076 -0.7503
  156MOL0     C21422   2.455   6.880  10.200  0.4915 -0.3964  0.0762
  156MOL0     C21423   2.512   6.770  10.138  0.7115 -0.4917  0.7701
  156MOL0     C21424   2.554   6.650  10.204 -0.9335 -0.6172  0.1421
  156MOL0     C21425   2.565   6.649  10.346  0.3982 -0.2903 -0.2325
  156MOL0     O21426   2.614   6.553  10.428 -0.0222 -0.4111  0.0685
  156MOL0     C21427   2.645   6.421  10.375 -0.0503 -1.2852  1.0420
  156MOL0     C21428   2.708   6.317  10.463  0.0690 -0.1266  0.2635
  156MOL0     C21429   2.838   6.355  10.548 -0.7338 -0.6037 -0.2354
  156MOL0     C21430   2.915   6.242  10.601 -0.1884  0.5094 -0.3088
  156MOL0     C21431   3.046   6.275  10.660 -0.1410 -0.1170 -0.6271
  156MOL0     C21432   3.113   6.160  10.743  0.3614 -0.4093  0.3513
  156MOL0     C21433   3.141   6.037  10.656  0.0695  0.2888  0.6704
  156MOL0     C21434   3.224   5.932  10.729  0.0224 -0.0263 -0.1478
  156MOL0    Cl21435   3.148   5.874  10.883  0.4529  0.0573  0.4679
  156MOL0     C21436   2.515   6.767  10.404  0.0775  1.0212  0.3868
  156MOL0     C21437   2.461   6.880  10.340 -0.7332 -1.0004  0.4956
  156MOL0     O21438   2.227   6.847  10.092  0.3772 -0.4155  0.2046
  156MOL0     C21439   2.115   7.066   9.953 -0.3706 -0.6801 -0.3027
  156MOL0     C21440   2.017   7.148   9.916  0.1489  0.8477  0.5548
  156MOL0     N21441   1.640   7.923   9.932  0.3754  0.5294 -0.3548
  156MOL0     N21442   1.525   7.899   9.977  0.4977  0.0201  0.1301
  156MOL0     C21443   1.380   7.767  10.671  1.3667 -0.0914 -0.0222
  156MOL0     C21444   1.455   7.650  10.632  0.0431 -0.2908 -0.2364
  156MOL0     C21445   1.674   7.341  10.476 -0.2470  0.0382 -0.4482
  156MOL0     C21446   1.719   7.318  10.601  0.5355  0.6972  0.4307
  156MOL0     C21447   1.831   7.235  10.626  0.7392 -0.2153  0.2193
  156MOL0     C21448   1.890   7.171  10.517  0.5902 -0.4114 -0.4709
  156MOL0     O21449   1.990   7.076  10.521 -0.5033  0.7793  0.2728
  156MOL0     C21450   2.067   7.079  10.642  0.7733  1.0650 -0.6810
  156MOL0     C21451   2.178   6.983  10.629 -0.3638  0.4790 -0.4274
  156MOL0     C21452   2.133   6.831  10.623  0.8391 -0.9147 -0.3250
  156MOL0     C21453   2.239   6.736  10.679  0.4821 -0.8197 -0.1613
  156MOL0     C21454   2.215   6.597  10.637  0.9807  1.2879  0.4799
  156MOL0     C21455   2.202   6.484  10.594  0.3061  0.3981  0.0250
  156MOL0     C21456   1.847   7.203  10.384  0.1851  0.5381 -0.4137
  156MOL0     C21457   1.743   7.288  10.362  0.1141 -0.2352 -0.6438
  156MOL0     C21458   1.707   7.320  10.221 -0.3737  0.4351  0.3240
  156MOL0     H21459   1.211   7.421  10.668 -0.0103 -0.0279 -0.6674
  156MOL0     H21460   1.099   7.604  10.772  0.8210  0.9556  2.5048
  156MOL0     H21461   1.017   7.895  10.864  1.0997 -3.0590  1.4857
  156MOL0     H21462   0.996   7.787  10.730 -1.0037  0.4430  0.9982
  156MOL0     H21463   0.923   8.046  10.713 -0.4080  0.6296  0.2651
  156MOL0     H21464   1.091   8.075  10.672 -0.1776 -0.7194 -0.0215
  156MOL0     H21465   0.932   7.870  10.527 -0.5682  0.1438 -0.4626
  156MOL0     H21466   0.937   8.040  10.480  2.8916  1.2990 -1.0783
  156MOL0     H21467   1.180   8.026  10.437  2.0004 -0.9133 -0.0581
  156MOL0     H21468   1.184   7.857  10.468  2.0112  2.6568  1.8425
  156MOL0     H21469   1.066   7.994  10.226  1.2399  1.7076  4.2279
  156MOL0     H21470   0.975   7.849  10.272  0.9901 -3.5436  0.0178
  156MOL0     H21471   1.191   7.721  10.283  0.7647 -1.3539 -0.9889
  156MOL0     H21472   1.123   7.757  10.123 -0.3180  2.1698 -0.4194
  156MOL0     H21473   1.337   7.922  10.268  0.5447 -2.0440  2.4033
  156MOL0     H21474   1.311   7.942  10.098  1.1759 -1.5202 -1.6676
  156MOL0     H21475   1.436   7.702  10.232 -0.4003  0.1747 -0.5549
  156MOL0     H21476   1.363   7.681  10.068  3.2807 -0.3954 -1.2026
  156MOL0     H21477   1.688   7.702  10.172  0.9494 -0.1108 -0.5126
  156MOL0     H21478   1.922   7.826  10.092  3.7705 -1.6644 -1.4765
  156MOL0     H21479   1.908   7.933   9.963  0.7439 -0.0413 -0.2213
  156MOL0     H21480   1.915   7.741   9.797  0.2959  0.2885 -0.2450
  156MOL0     H21481   2.034   7.701   9.927 -0.1840 -0.9467  0.2579
  156MOL0     H21482   1.840   7.571  10.040  1.2307 -0.2998 -0.1359
  156MOL0     H21483   1.766   7.571   9.877 -0.4753  0.2267  0.4555
  156MOL0     H21484   1.947   7.464   9.782 -1.1435 -2.2529 -0.4289
  156MOL0     H21485   2.051   7.473   9.927  1.0463 -1.3037 -3.4137
  156MOL0     H21486   2.024   7.360  10.175  0.1754  0.6028  0.2203
  156MOL0     H21487   2.194   7.299  10.339  2.8300 -0.2955  2.9721
  156MOL0     H21488   2.321   7.211  10.277 -0.0886 -2.3728  0.5633
  156MOL0     H21489   2.197   7.121  10.367  0.6255 -0.1170 -0.1485
  156MOL0     H21490   2.521   6.769  10.030 -1.7952  2.1942  0.4158
  156MOL0     H21491   2.576   6.561  10.146  1.9722  0.9128 -1.3260
  156MOL0     H21492   2.555   6.381  10.327  0.7371 -1.3782 -0.4245
  156MOL0     H21493   2.722   6.444  10.300 -2.6062  0.8820 -1.1386
  156MOL0     H21494   2.626   6.288  10.529 -0.3781 -2.5383 -1.2035
  156MOL0     H21495   2.732   6.229  10.402  1.6599 -1.1816  2.2900
  156MOL0     H21496   2.816   6.419  10.634 -1.8303  2.0199 -2.3321
  156MOL0     H21497   2.895   6.424  10.485  0.9268 -2.1869 -0.5427
  156MOL0     H21498   2.921   6.179  10.512 -1.6444  2.4535 -1.8707
  156MOL0     H21499   2.857   6.191  10.678  2.6908 -0.2987  1.5239
  156MOL0     H21500   3.110   6.305  10.576 -1.2715  0.4967 -1.2893
  156MOL0     H21501   3.029   6.356  10.731 -0.1441 -1.3686  0.8488
  156MOL0     H21502   3.049   6.131  10.826  0.4586 -4.3720 -0.7528
  156MOL0     H21503   3.213   6.196  10.768  1.0299 -1.2464 -0.9699
  156MOL0     H21504   3.177   6.058  10.554 -0.7202  0.3008  0.3912
  156MOL0     H21505   3.045   5.988  10.636  0.3042 -0.2389  0.8025
  156MOL0     H21506   3.309   5.987  10.770 -2.8616  5.8365 -0.9685
  156MOL0     H21507   3.246   5.848  10.662  0.2704  2.5698 -3.5891
  156MOL0     H21508   2.526   6.764  10.512  0.2927 -2.3200  0.3832
  156MOL0     H21509   2.436   6.962  10.407  0.5618  0.7903 -1.1098
  156MOL0     H21510   2.138   6.979   9.892 -0.1360 -2.8597  2.6536
  156MOL0     H21511   1.964   7.133   9.822  0.8677  2.7663 -0.2227
  156MOL0     H21512   1.413   7.867  10.646  1.2045 -0.3599 -1.4166
  156MOL0     H21513   1.557   7.664  10.596 -0.1215 -2.9010 -1.9423
  156MOL0     H21514   1.689   7.368  10.693  0.1054 -1.1314  1.3347
  156MOL0     H21515   1.869   7.210  10.724  1.7177 -1.9678 -0.5662
  156MOL0     H21516   2.097   7.182  10.665  1.6987  1.2070 -2.3862
  156MOL0     H21517   1.995   7.041  10.716 -1.3527  1.6511 -2.3256
  156MOL0     H21518   2.242   6.996  10.717  1.2216 -2.9729 -0.9121
  156MOL0     H21519   2.244   7.011  10.546  0.2465  0.7771  0.1458
  156MOL0     H21520   2.042   6.826  10.684  1.1030  1.0464  0.2853
  156MOL0     H21521   2.110   6.807  10.518 -2.5488  0.8503 -0.0908
  156MOL0     H21522   2.232   6.738  10.788 -1.3967 -2.7079 -0.1878
  156MOL0     H21523   2.342   6.764  10.652  0.7396 -0.6603  0.9300
  156MOL0     H21524   2.212   6.381  10.566  0.9892  0.0513  1.4827
  156MOL0     H21525   1.894   7.156  10.298 -1.9029 -1.4225 -0.5761
  156MOL0     H21526   1.771   7.399  10.179  0.3197  0.0377  0.6094
  156MOL0     H21527   1.724   7.231  10.160  2.4368  1.7559 -1.0171
  156MOL0     H21528   1.600   7.341  10.219 -0.6339 -0.7856  1.0776
  157MOL0     O21529   8.273   3.814   5.634  0.5699 -0.6064  0.0553
  157MOL0     C21530   8.187   3.747   5.572  0.9611  0.7289  0.1283
  157MOL0     O21531   8.174   3.742   5.429  0.0444 -0.3882 -0.6209
  157MOL0     C21532   8.252   3.826   5.357 -0.0626  0.6334 -0.3033
  157MOL0     C21533   8.196   3.939   5.294 -0.1459  0.8914  0.3027
  157MOL0     C21534   8.283   4.019   5.223 -1.1172  0.0072  0.0906
  157MOL0     C21535   8.418   3.991   5.202 -0.2855 -0.4206  0.1099
  157MOL0     O21536   8.506   4.067   5.121 -0.1688  0.1890 -0.3451
  157MOL0     C21537   8.459   4.148   5.010 -0.2499  0.4058  1.3893
  157MOL0     C21538   8.567   4.146   4.909  0.5351  0.5995 -0.7422
  157MOL0     C21539   8.516   4.193   4.769 -0.1192 -0.8764 -0.0755
  157MOL0     C21540   8.475   4.341   4.770 -0.0687  0.4472  0.3228
  157MOL0     C21541   8.612   4.416   4.785  0.2653  0.0657 -0.3028
  157MOL0     C21542   8.588   4.568   4.773 -0.1289 -0.2234  0.3400
  157MOL0     C21543   8.695   4.659   4.832 -0.1960 -0.8875 -0.2924
  157MOL0     C21544   8.640   4.781   4.898  0.5007 -0.1028 -0.4814
  157MOL0     N21545   8.743   4.884   4.935 -0.1264 -0.0720  0.6210
  157MOL0     C21546   8.827   4.869   5.042  0.2044 -0.1951 -0.1239
  157MOL0     C21547   8.900   4.983   5.039  0.4213  0.7444  0.2833
  157MOL0     C21548   9.015   5.006   5.138  0.4600 -0.1963  0.8108
  157MOL0     C21549   9.151   4.982   5.074 -0.6571  0.3049 -0.2395
  157MOL0     C21550   9.198   5.102   4.985  0.3983  0.1925  0.1881
  157MOL0     C21551   9.332   5.071   4.925  0.0294  0.4103 -0.4137
  157MOL0     O21552   9.321   5.003   4.802 -0.0645 -0.2455  0.1813
  157MOL0     C21553   9.427   5.003   4.712 -0.3195 -0.2871  0.0160
  157MOL0     C21554   9.554   5.053   4.751 -0.0495 -0.7426  0.2705
  157MOL0     C21555   9.664   5.046   4.658  0.9882 -0.2132 -0.4360
  157MOL0     C21556   9.787   5.114   4.707 -0.4566  0.8934  0.7672
  157MOL0     C21557   9.647   4.999   4.529  1.4903  0.8965 -0.2169
  157MOL0     C21558   9.752   4.999   4.423 -0.5917 -1.0109 -0.2392
  157MOL0     O21559   9.710   5.040   4.303  0.1827  0.1983  0.9382
  157MOL0     C21560   9.768   5.007   4.180  0.3374 -0.1074 -0.0424
  157MOL0     C21561   9.761   5.093   4.071  0.4222  0.1750  0.9078
  157MOL0     C21562   9.836   5.072   3.957 -0.1980  0.7981 -0.1929
  157MOL0     C21563   9.908   4.954   3.937 -0.3953 -0.4616  0.1518
  157MOL0     O21564   9.972   4.949   3.812  0.7367  0.0223 -0.0663
  157MOL0     C21565  10.041   4.830   3.759  0.3016 -0.2518  0.5044
  157MOL0     C21566  10.119   4.850   3.629 -0.4280 -0.0110 -0.1674
  157MOL0     C21567  10.258   4.900   3.657 -0.0179 -0.9573 -0.7202
  157MOL0     C21568  10.348   4.779   3.674 -0.8690  0.0476  0.2502
  157MOL0     C21569  10.409   4.743   3.533  0.3058 -0.0934 -0.3927
  157MOL0     C21570  10.478   4.605   3.526 -0.3567 -0.1627 -0.8442
  157MOL0     C21571  10.548   4.569   3.392  0.6948 -0.2993  0.5156
  157MOL0     C21572  10.666   4.661   3.353 -0.4261  0.0413  0.7118
  157MOL0    Cl21573  10.735   4.598   3.202 -0.0047 -0.0275  0.3393
  157MOL0     C21574   9.898   4.853   4.033  0.4171 -0.5175  0.0487
  157MOL0     C21575   9.837   4.879   4.159  1.0866 -0.3279 -0.1274
  157MOL0     O21576   9.862   4.955   4.450 -0.0575 -0.0924 -1.2555
  157MOL0     C21577   9.514   4.964   4.492 -0.1421 -0.1768 -0.6523
  157MOL0     C21578   9.410   4.962   4.587 -0.4122  0.3016 -0.2006
  157MOL0     N21579   8.854   5.068   4.934 -0.1771 -1.0577  0.5399
  157MOL0     N21580   8.765   5.001   4.874  0.2300  0.1254  0.7761
  157MOL0     C21581   8.478   3.875   5.262 -0.5243  0.4851  0.3825
  157MOL0     C21582   8.390   3.794   5.336 -0.0988 -0.4963 -0.0501
  157MOL0     C21583   8.087   3.664   5.640  1.6119  0.3229 -0.8608
  157MOL0     C21584   7.975   3.595   5.574 -0.3180  0.0203  0.2409
  157MOL0     C21585   7.877   3.524   5.640  0.2712  0.1786 -0.1038
  157MOL0     C21586   7.875   3.510   5.777 -0.7171 -0.1301 -0.9613
  157MOL0     O21587   7.768   3.469   5.854  0.5585 -0.0023  0.1453
  157MOL0     C21588   7.673   3.379   5.798 -0.2138  0.8628  0.3019
  157MOL0     C21589   7.659   3.270   5.896 -0.3126 -1.5591  0.9505
  157MOL0     C21590   7.800   3.206   5.924  0.5323 -0.7678  0.5231
  157MOL0     C21591   7.796   3.092   6.024 -0.1186  0.4754 -0.0304
  157MOL0     C21592   7.776   3.137   6.157  0.3827  0.0592 -0.1942
  157MOL0     C21593   7.766   3.178   6.276  0.0183  0.7428 -0.2289
  157MOL0     C21594   7.988   3.564   5.848 -0.4654 -0.2179 -0.3681
  157MOL0     C21595   8.088   3.641   5.788 -0.1046  0.1653  0.8614
  157MOL0     C21596   8.192   3.703   5.882 -0.2109  0.7369  0.2445
  157MOL0     H21597   8.092   3.964   5.311  0.4323  2.2776  2.1331
  157MOL0     H21598   8.238   4.109   5.182 -1.4936  0.3478  1.2082
  157MOL0     H21599   8.453   4.252   5.044  2.9251  0.1605  3.0998
  157MOL0     H21600   8.365   4.112   4.967  0.2760  2.2266 -1.5993
  157MOL0     H21601   8.657   4.201   4.940  0.1479  0.8191  0.0197
  157MOL0     H21602   8.592   4.040   4.895 -2.7008  0.0456 -3.5777
  157MOL0     H21603   8.587   4.181   4.686 -1.5107  0.4111 -1.5224
  157MOL0     H21604   8.425   4.141   4.740 -1.6034  2.1962 -1.3723
  157MOL0     H21605   8.422   4.360   4.676  2.3491 -1.4456 -1.5606
  157MOL0     H21606   8.414   4.380   4.853 -1.2742  0.3687 -0.5056
  157MOL0     H21607   8.685   4.373   4.715  0.1491 -0.2546 -0.2271
  157MOL0     H21608   8.654   4.397   4.885  1.8834 -2.9554 -1.4078
  157MOL0     H21609   8.576   4.597   4.669  1.0793 -1.5400 -0.1883
  157MOL0     H21610   8.498   4.587   4.834  1.1968  1.9621  1.7482
  157MOL0     H21611   8.766   4.675   4.751 -0.4405 -1.3192 -0.5990
  157MOL0     H21612   8.749   4.606   4.912 -1.2392 -0.2991  0.8280
  157MOL0     H21613   8.574   4.827   4.824  0.1653 -0.2647 -0.2861
  157MOL0     H21614   8.584   4.756   4.989  0.9850 -2.8824 -0.8303
  157MOL0     H21615   8.831   4.795   5.122  1.4515  2.0585  2.0162
  157MOL0     H21616   8.994   4.952   5.230 -3.2891  3.5882  2.5138
  157MOL0     H21617   9.002   5.108   5.175  0.0983  0.2371 -0.4356
  157MOL0     H21618   9.219   4.968   5.158  1.7607 -0.2299 -2.1857
  157MOL0     H21619   9.153   4.883   5.027  2.2709  1.8894 -3.8791
  157MOL0     H21620   9.122   5.134   4.913  0.5643  2.4824  0.9587
  157MOL0     H21621   9.212   5.188   5.052 -0.6287 -1.2659  2.3988
  157MOL0     H21622   9.375   5.172   4.931  0.7809  0.0632  0.2332
  157MOL0     H21623   9.394   4.999   4.979  0.9596  2.2053  1.0407
  157MOL0     H21624   9.563   5.108   4.844  3.4774 -1.0026  0.2218
  157MOL0     H21625   9.849   5.037   4.755 -0.2470  0.6144  0.0616
  157MOL0     H21626   9.761   5.209   4.755  0.1433  2.6332 -2.1219
  157MOL0     H21627   9.854   5.133   4.623  0.6050 -0.2016  1.3271
  157MOL0     H21628   9.706   5.185   4.085 -3.9298 -2.0377  0.0917
  157MOL0     H21629   9.852   5.139   3.874  0.9685  0.6464 -0.1119
  157MOL0     H21630  10.094   4.778   3.839 -2.0605 -0.3571  2.1233
  157MOL0     H21631   9.952   4.773   3.729 -0.4710  1.5015 -0.7198
  157MOL0     H21632  10.115   4.757   3.573  2.0664  0.1297 -0.6928
  157MOL0     H21633  10.062   4.924   3.572  2.5481  1.9372 -0.8207
  157MOL0     H21634  10.258   4.958   3.749 -1.2304 -3.9065  1.2793
  157MOL0     H21635  10.285   4.960   3.569 -0.9161 -0.0279 -0.3774
  157MOL0     H21636  10.304   4.688   3.713  4.8835 -2.8843  1.0127
  157MOL0     H21637  10.427   4.811   3.742  0.1082 -1.7904  0.0427
  157MOL0     H21638  10.328   4.735   3.460 -0.8516 -1.1449  0.9461
  157MOL0     H21639  10.477   4.819   3.493  1.5084 -1.8090 -1.8199
  157MOL0     H21640  10.416   4.525   3.569 -0.7980  1.4963  1.8334
  157MOL0     H21641  10.567   4.616   3.588  1.9254 -1.5917 -3.6193
  157MOL0     H21642  10.469   4.562   3.317  2.4739 -0.8985 -1.3915
  157MOL0     H21643  10.576   4.463   3.396 -2.6027 -1.3132 -0.0057
  157MOL0     H21644  10.746   4.655   3.427  0.6430  0.6938 -0.3564
  157MOL0     H21645  10.644   4.767   3.340  3.9507  1.0306 -0.0826
  157MOL0     H21646   9.942   4.755   4.014 -1.7515 -1.3889 -0.7544
  157MOL0     H21647   9.861   4.810   4.240  1.9310 -0.5399 -0.5466
  157MOL0     H21648   9.494   4.945   4.388 -0.8506 -1.8492 -0.2349
  157MOL0     H21649   9.309   4.929   4.567 -1.5445  0.4662  4.2218
  157MOL0     H21650   8.581   3.853   5.237 -0.5752  0.1237  0.4927
  157MOL0     H21651   8.427   3.698   5.369  1.4184 -0.4630 -1.5753
  157MOL0     H21652   7.953   3.616   5.470  0.2639  2.4287  0.5486
  157MOL0     H21653   7.793   3.490   5.581  0.5092  0.8019 -0.8189
  157MOL0     H21654   7.574   3.418   5.777 -2.1102 -2.6372  1.8393
  157MOL0     H21655   7.711   3.338   5.704 -1.8376 -1.0375  0.4147
  157MOL0     H21656   7.592   3.200   5.846  1.1154 -0.0013 -3.6597
  157MOL0     H21657   7.627   3.314   5.991  0.2262  0.6623  0.1638
  157MOL0     H21658   7.836   3.158   5.832  1.7402 -0.7500  0.9684
  157MOL0     H21659   7.869   3.281   5.964 -0.7044  1.5634 -1.4157
  157MOL0     H21660   7.893   3.043   6.014 -0.2588  0.6577 -3.1102
  157MOL0     H21661   7.724   3.013   5.999  2.1058 -1.4242 -0.8987
  157MOL0     H21662   7.751   3.239   6.363  0.7334  0.2312  0.2690
  157MOL0     H21663   7.986   3.555   5.956  0.1538 -0.8476 -0.4020
  157MOL0     H21664   8.170   3.810   5.879 -0.1213  0.7534  0.1900
  157MOL0     H21665   8.178   3.660   5.982 -1.1508 -3.5694 -1.4937
  157MOL0     H21666   8.295   3.681   5.853  0.2237  2.3264  0.5084
  158MOL0     O21667   2.275   9.885   4.643 -0.0224  0.6384  0.0979
  158MOL0     C21668   2.255   9.830   4.752  0.4811  0.0387 -0.9294
  158MOL0     O21669   2.337   9.732   4.812 -0.1027 -1.6040  0.6729
  158MOL0     C21670   2.463   9.702   4.766  0.1648  0.5990 -0.4503
  158MOL0     C21671   2.523   9.711   4.642  0.7516  0.6184  0.3577
  158MOL0     C21672   2.664   9.684   4.625 -0.2294 -0.6375 -0.9063
  158MOL0     C21673   2.744   9.629   4.731  0.0008  0.7035 -0.3921
  158MOL0     O21674   2.871   9.587   4.723 -0.0073 -0.2378 -0.2878
  158MOL0     C21675   2.964   9.673   4.656 -0.0480 -0.7197 -0.1492
  158MOL0     C21676   3.100   9.696   4.724  0.7271 -1.3706 -0.3381
  158MOL0     C21677   3.089   9.783   4.848 -0.1439 -0.5927 -0.3595
  158MOL0     C21678   3.225   9.789   4.909 -0.3232  0.0776  0.9037
  158MOL0     C21679   3.223   9.851   5.047 -0.1852 -0.5371  0.2616
  158MOL0     C21680   3.365   9.892   5.086 -0.7817  0.8063  0.5611
  158MOL0     C21681   3.380   9.986   5.205 -0.0428 -0.2584  0.0853
  158MOL0     C21682   3.327  10.117   5.162 -0.5165 -1.1570  0.3430
  158MOL0     N21683   3.361  10.210   5.273 -0.9518  0.2504 -0.3784
  158MOL0     C21684   3.488  10.253   5.319  0.6344  0.4000 -0.4744
  158MOL0     C21685   3.464  10.330   5.426 -0.8216 -0.0810  0.1240
  158MOL0     C21686   3.576  10.397   5.495 -0.2685  0.3645 -0.9855
  158MOL0     C21687   3.670  10.301   5.576 -0.5413 -0.2893  0.7049
  158MOL0     C21688   3.778  10.380   5.651  0.3306  0.3990 -0.1186
  158MOL0     C21689   3.768  10.350   5.797 -0.3865 -0.7479  0.4643
  158MOL0     O21690   3.852  10.447   5.865 -0.2364 -0.3193  0.1340
  158MOL0     C21691   3.987  10.458   5.822  0.0192  0.4840 -0.7857
  158MOL0     C21692   4.073  10.354   5.788 -0.7801  0.9477  0.3198
  158MOL0     C21693   4.210  10.382   5.767  0.1010  0.3405 -0.5000
  158MOL0     C21694   4.318  10.276   5.741  0.7022  0.1438 -0.2615
  158MOL0     C21695   4.259  10.522   5.773  0.3445 -0.1817  0.8061
  158MOL0     C21696   4.404  10.555   5.763 -0.2218  0.0744  0.2407
  158MOL0     O21697   4.431  10.677   5.711 -0.4531  0.2549 -0.0276
  158MOL0     C21698   4.549  10.737   5.749 -0.5281 -0.0854 -0.4340
  158MOL0     C21699   4.598  10.721   5.877  0.1568 -0.0313  0.2187
  158MOL0     C21700   4.724  10.781   5.900  0.5891  1.1763 -0.1657
  158MOL0     C21701   4.799  10.861   5.819  0.3848 -0.3687  1.0997
  158MOL0     O21702   4.905  10.931   5.868  0.3339 -0.1892 -0.1099
  158MOL0     C21703   4.977  11.022   5.782 -0.6007 -0.3435  0.3669
  158MOL0     C21704   5.109  11.066   5.860  0.2877  0.0729  0.1899
  158MOL0     C21705   5.237  11.057   5.773 -1.1589 -0.2862  0.2992
  158MOL0     C21706   5.368  11.094   5.838 -0.4354  0.1022  0.5991
  158MOL0     C21707   5.492  11.073   5.750  0.2090  0.6388 -0.4090
  158MOL0     C21708   5.606  11.162   5.802 -0.6071 -0.3309 -0.8886
  158MOL0     C21709   5.744  11.127   5.738  0.3407 -0.4889 -0.4387
  158MOL0     C21710   5.855  11.209   5.803 -1.1064  0.7846 -0.4923
  158MOL0    Cl21711   6.017  11.143   5.758  0.0496 -0.0241 -0.3591
  158MOL0     C21712   4.761  10.856   5.683 -0.6528 -0.2085  0.1464
  158MOL0     C21713   4.636  10.797   5.645  0.2081  0.3188 -0.2019
  158MOL0     O21714   4.483  10.482   5.811  0.2503  1.1496  0.0553
  158MOL0     C21715   4.160  10.627   5.790  0.6409  1.5893 -0.2188
  158MOL0     C21716   4.028  10.591   5.825  0.0021  0.5083  0.4655
  158MOL0     N21717   3.331  10.333   5.450 -0.2373  0.2903  0.1551
  158MOL0     N21718   3.269  10.267   5.360 -0.2565 -0.1999  0.0236
  158MOL0     C21719   2.685   9.615   4.852  1.0026 -0.3577  0.2928
  158MOL0     C21720   2.548   9.638   4.868 -0.5450 -0.0109  0.0798
  158MOL0     C21721   2.119   9.839   4.816  0.5399  0.2180  0.7135
  158MOL0     C21722   2.105   9.789   4.943  0.5717  0.0345 -1.4271
  158MOL0     C21723   1.992   9.791   5.009  0.9278  0.1772  0.2211
  158MOL0     C21724   1.869   9.836   4.957  0.2807  0.2027  0.4565
  158MOL0     O21725   1.756   9.817   5.028  0.8789 -0.0241  0.3861
  158MOL0     C21726   1.634   9.865   4.979 -0.3565 -0.8632 -0.8367
  158MOL0     C21727   1.521   9.809   5.068  0.0378 -0.3943  0.8984
  158MOL0     C21728   1.544   9.826   5.214  0.6944  0.5550 -0.0710
  158MOL0     C21729   1.565   9.969   5.268  0.7071  0.5061  0.3482
  158MOL0     C21730   1.506   9.986   5.400 -0.2729  0.4289  0.0864
  158MOL0     C21731   1.475  10.007   5.515  0.4021  0.7967 -0.4745
  158MOL0     C21732   1.870   9.881   4.828 -0.8026 -0.9917 -0.5534
  158MOL0     C21733   1.993   9.888   4.757 -1.5240  0.0210  0.7796
  158MOL0     C21734   1.979   9.942   4.612 -0.2193 -1.0843  0.4285
  158MOL0     H21735   2.480   9.753   4.551  1.0060 -0.8698 -0.4906
  158MOL0     H21736   2.705   9.706   4.527  2.0503  2.7516  0.6093
  158MOL0     H21737   2.914   9.768   4.638 -2.5834 -1.7917  0.7828
  158MOL0     H21738   2.989   9.627   4.560 -3.3897 -1.4275 -0.8163
  158MOL0     H21739   3.138   9.601   4.762  0.8362 -0.5166  1.8364
  158MOL0     H21740   3.175   9.732   4.652 -0.6933  1.9572 -0.3226
  158MOL0     H21741   3.055   9.883   4.820 -0.8422 -0.9519 -0.8154
  158MOL0     H21742   3.023   9.733   4.919  2.9725 -0.7322  2.7215
  158MOL0     H21743   3.282   9.696   4.908  0.8859  0.8030 -0.3090
  158MOL0     H21744   3.273   9.860   4.841  0.6752 -0.2493  1.2432
  158MOL0     H21745   3.180   9.782   5.121 -0.4586 -0.5173  0.1243
  158MOL0     H21746   3.157   9.938   5.036  0.2174  0.1004  2.3928
  158MOL0     H21747   3.411   9.798   5.117 -1.1693  1.0373  1.9165
  158MOL0     H21748   3.434   9.921   5.006 -1.2776 -1.0326 -0.6042
  158MOL0     H21749   3.486   9.998   5.231  0.1761 -0.8514 -0.5040
  158MOL0     H21750   3.339   9.956   5.302 -0.4970  3.6520  1.2828
  158MOL0     H21751   3.384  10.143   5.072 -1.9028 -2.9545 -1.1419
  158MOL0     H21752   3.220  10.127   5.146 -0.4642  2.3432  1.4127
  158MOL0     H21753   3.584  10.239   5.270 -1.0942  1.6122 -4.6678
  158MOL0     H21754   3.543  10.470   5.569  0.3646 -0.0241 -0.3076
  158MOL0     H21755   3.644  10.456   5.433  2.0808 -0.3087  0.8069
  158MOL0     H21756   3.610  10.237   5.641  0.1566  0.2381  1.8895
  158MOL0     H21757   3.720  10.234   5.506  0.4660  0.9409  0.2245
  158MOL0     H21758   3.873  10.359   5.601  1.2069  0.1741  1.5786
  158MOL0     H21759   3.758  10.487   5.640 -0.1148  0.1163 -2.7298
  158MOL0     H21760   3.667  10.355   5.838  1.2423  1.1061  4.7751
  158MOL0     H21761   3.797  10.246   5.813 -0.1935 -0.6033  1.0801
  158MOL0     H21762   4.030  10.254   5.791 -1.3104  0.9906 -2.7855
  158MOL0     H21763   4.377  10.312   5.657  1.9887  0.6864  0.8454
  158MOL0     H21764   4.277  10.178   5.712  3.6793 -0.8582 -1.4347
  158MOL0     H21765   4.372  10.252   5.833  1.9150 -2.3594 -1.5050
  158MOL0     H21766   4.557  10.680   5.968  1.6239 -0.7226  0.6055
  158MOL0     H21767   4.766  10.776   6.000  1.7105  1.6536 -0.5960
  158MOL0     H21768   5.003  10.957   5.698 -0.0538  0.0585  0.2224
  158MOL0     H21769   4.910  11.102   5.749 -1.7858 -0.2289  2.8377
  158MOL0     H21770   5.098  11.168   5.898 -0.8771  0.5041 -1.2173
  158MOL0     H21771   5.121  10.995   5.942  0.9127 -0.7804 -0.6253
  158MOL0     H21772   5.230  11.123   5.685 -0.4358 -0.0370  0.4228
  158MOL0     H21773   5.244  10.953   5.742 -1.4011 -0.4085  0.6651
  158MOL0     H21774   5.374  11.025   5.922  0.9733  0.3462  0.7317
  158MOL0     H21775   5.363  11.198   5.873  0.9850 -0.4121  2.5238
  158MOL0     H21776   5.506  10.965   5.761  1.0387  0.5838 -1.8489
  158MOL0     H21777   5.467  11.098   5.647 -0.0159  2.0700 -0.0282
  158MOL0     H21778   5.611  11.146   5.910  0.2761  2.2406 -0.4696
  158MOL0     H21779   5.586  11.268   5.784 -3.2027 -0.5744  0.0977
  158MOL0     H21780   5.744  11.156   5.633  1.8072 -2.9630 -1.2021
  158MOL0     H21781   5.767  11.021   5.750  0.3752 -0.4640 -0.2898
  158MOL0     H21782   5.835  11.197   5.910  2.2855  2.7519  0.5349
  158MOL0     H21783   5.860  11.315   5.776 -0.1204  0.3765 -2.0201
  158MOL0     H21784   4.822  10.904   5.608 -1.0746  1.0621  0.5912
  158MOL0     H21785   4.598  10.800   5.543 -4.6361  1.7580  1.3753
  158MOL0     H21786   4.185  10.732   5.787 -1.7095  2.2121 -3.5177
  158MOL0     H21787   3.952  10.668   5.839 -0.6914 -0.2706  1.0835
  158MOL0     H21788   2.735   9.552   4.925  0.7549 -0.3253  0.4924
  158MOL0     H21789   2.507   9.615   4.966 -0.6987  1.4415  0.3748
  158MOL0     H21790   2.188   9.754   5.003  1.8332  1.5757 -2.2215
  158MOL0     H21791   1.990   9.758   5.112  1.0888  1.8848  0.8113
  158MOL0     H21792   1.635   9.974   4.989  2.7088 -0.7520 -1.5812
  158MOL0     H21793   1.609   9.846   4.874 -0.7914  1.3655 -1.1719
  158MOL0     H21794   1.507   9.705   5.039 -0.4033  0.3239 -1.6323
  158MOL0     H21795   1.425   9.854   5.043 -1.3238 -3.3710  0.4182
  158MOL0     H21796   1.456   9.780   5.258  3.0035 -0.1826  4.2934
  158MOL0     H21797   1.624   9.767   5.260 -0.0726 -0.9691 -0.6294
  158MOL0     H21798   1.522  10.047   5.203  1.9349  0.9682  0.0561
  158MOL0     H21799   1.674   9.976   5.260  1.0152 -2.5634  0.8650
  158MOL0     H21800   1.449  10.026   5.618 -2.0265  1.2909 -1.1227
  158MOL0     H21801   1.787   9.932   4.780 -0.4229  1.9323  1.6122
  158MOL0     H21802   2.039  10.033   4.601 -0.3374 -1.0331  0.2216
  158MOL0     H21803   2.019   9.868   4.543  1.9121 -2.3739  2.8686
  158MOL0     H21804   1.877   9.972   4.587 -1.1153 -0.4453  4.2266
  159MOL0     O21805   9.987   3.252   7.082  0.5770 -0.6394  0.2347
  159MOL0     C21806   9.975   3.230   7.201  0.6179  1.2801 -0.2596
  159MOL0     O21807  10.060   3.156   7.278  0.7332 -0.8767 -0.5615
  159MOL0     C21808  10.170   3.101   7.219  0.6739 -0.0409 -0.2447
  159MOL0     C21809  10.290   3.160   7.248 -0.3881 -0.2175  0.2210
  159MOL0     C21810  10.404   3.095   7.202  0.5503 -0.0871  0.4522
  159MOL0     C21811  10.397   2.978   7.130  0.3152  0.2147 -0.2271
  159MOL0     O21812  10.512   2.911   7.102 -0.4483  0.5613  1.1372
  159MOL0     C21813  10.622   2.899   7.197  0.3952  1.0223  0.0928
  159MOL0     C21814  10.733   2.820   7.120  0.2894 -0.0668  1.1007
  159MOL0     C21815  10.857   2.801   7.209  0.0950 -0.6212  0.5605
  159MOL0     C21816  10.950   2.925   7.227  0.1760  0.9277 -0.0267
  159MOL0     C21817  11.095   2.883   7.271  0.1272 -1.7251  0.4855
  159MOL0     C21818  11.180   3.015   7.303  0.5929  0.4136 -0.6954
  159MOL0     C21819  11.185   3.044   7.457  0.9248 -0.3571  0.0543
  159MOL0     C21820  11.065   3.109   7.511  0.3718 -0.9339 -0.2928
  159MOL0     N21821  11.079   3.125   7.657  0.4761 -0.3662  0.3903
  159MOL0     C21822  10.977   3.094   7.742 -0.0184 -0.3595 -0.3854
  159MOL0     C21823  11.030   3.123   7.861 -0.3633  0.5227  0.2544
  159MOL0     C21824  10.959   3.112   8.000  0.5671 -0.0661 -0.2237
  159MOL0     C21825  10.900   3.260   8.026 -0.8357  0.0589  0.1874
  159MOL0     C21826  10.848   3.269   8.178 -0.1087 -0.4291 -0.2388
  159MOL0     C21827  10.761   3.403   8.189 -0.3745  0.3326  0.1124
  159MOL0     O21828  10.734   3.424   8.323 -0.1567  0.2259  0.5129
  159MOL0     C21829  10.815   3.491   8.407  0.6988 -0.9396 -0.0526
  159MOL0     C21830  10.793   3.483   8.544  0.6278  0.0541 -1.1041
  159MOL0     C21831  10.861   3.551   8.644  0.6333 -0.4711  0.2096
  159MOL0     C21832  10.817   3.532   8.796 -0.8161 -1.0580 -0.2605
  159MOL0     C21833  10.963   3.640   8.611  0.3983 -0.2087  0.0763
  159MOL0     C21834  11.044   3.707   8.705 -0.1069 -0.5999  0.2134
  159MOL0     O21835  11.099   3.645   8.823  0.2269  0.0850  0.2113
  159MOL0     C21836  11.207   3.703   8.888 -0.1754 -0.1609 -0.2071
  159MOL0     C21837  11.337   3.665   8.856 -0.4326  0.3129 -0.1672
  159MOL0     C21838  11.441   3.741   8.911  0.9399 -0.0492 -1.2535
  159MOL0     C21839  11.417   3.843   9.005  0.2122 -0.2300  0.5244
  159MOL0     O21840  11.525   3.909   9.069 -1.0781 -0.0662 -0.3249
  159MOL0     C21841  11.599   4.015   8.998  0.5710 -0.6072  1.0373
  159MOL0     C21842  11.729   3.949   8.966 -0.3325 -0.5251  0.9602
  159MOL0     C21843  11.837   4.054   8.949 -0.6323 -1.1403  0.1605
  159MOL0     C21844  11.834   4.119   8.811  0.6045  0.1803 -1.0504
  159MOL0     C21845  11.935   4.231   8.807  0.8538 -0.0649 -0.3606
  159MOL0     C21846  11.907   4.347   8.709 -0.2549  0.3196  0.6105
  159MOL0     C21847  12.025   4.442   8.682  0.2693 -0.2660 -0.5675
  159MOL0     C21848  12.153   4.384   8.628  0.3047  0.0256  0.3015
  159MOL0    Cl21849  12.140   4.251   8.511  0.0421  0.4253 -0.1169
  159MOL0     C21850  11.290   3.876   9.043  0.2840  0.7195 -0.3868
  159MOL0     C21851  11.186   3.809   8.982  0.5578  0.6152 -0.7317
  159MOL0     O21852  11.056   3.827   8.676  0.4785  0.2431 -0.1406
  159MOL0     C21853  10.975   3.659   8.472 -0.0339 -0.5328  0.4631
  159MOL0     C21854  10.919   3.580   8.371  0.4191 -0.1714  0.2749
  159MOL0     N21855  11.159   3.164   7.843  0.1267 -0.0144  0.8257
  159MOL0     N21856  11.192   3.165   7.721  0.0246  0.4219  0.1694
  159MOL0     C21857  10.274   2.923   7.093  0.4677 -0.0337 -0.1825
  159MOL0     C21858  10.160   2.996   7.132  0.5567 -0.0564  0.1151
  159MOL0     C21859   9.839   3.261   7.266  0.2262 -0.8752 -0.0202
  159MOL0     C21860   9.840   3.320   7.405 -0.4368  1.0129  0.0436
  159MOL0     C21861   9.721   3.336   7.481  1.4722 -0.2485  0.7006
  159MOL0     C21862   9.599   3.316   7.413 -0.7434 -0.6331 -0.1933
  159MOL0     O21863   9.478   3.333   7.481 -0.3475  0.5252 -0.1824
  159MOL0     C21864   9.352   3.312   7.418 -0.5457 -0.4667 -0.2653
  159MOL0     C21865   9.238   3.321   7.522 -0.1373 -0.1903  0.0688
  159MOL0     C21866   9.104   3.303   7.467 -0.6218  0.4568  0.3120
  159MOL0     C21867   9.073   3.165   7.414  0.2017  1.4708 -0.2406
  159MOL0     C21868   8.927   3.135   7.399 -0.1351  0.0745 -0.3725
  159MOL0     C21869   8.809   3.124   7.379  0.1751  0.4719  0.7845
  159MOL0     C21870   9.597   3.274   7.280  0.5867  0.2539  0.0940
  159MOL0     C21871   9.710   3.251   7.205  0.2713  0.8123 -0.0313
  159MOL0     C21872   9.676   3.206   7.061 -0.5007  0.0046 -0.5699
  159MOL0     H21873  10.297   3.241   7.321 -1.4679  1.6714 -1.6439
  159MOL0     H21874  10.501   3.122   7.241 -0.6035  1.8375  2.1576
  159MOL0     H21875  10.595   2.853   7.292 -0.0735 -0.5460 -0.7618
  159MOL0     H21876  10.653   3.003   7.212 -1.8237  1.7278  0.1512
  159MOL0     H21877  10.704   2.720   7.088 -1.4840 -0.2512  3.0905
  159MOL0     H21878  10.756   2.874   7.027 -1.2349 -0.3922  0.4972
  159MOL0     H21879  10.832   2.769   7.310  0.2297 -0.4870  0.6362
  159MOL0     H21880  10.917   2.723   7.162  1.8248  1.5488 -1.1094
  159MOL0     H21881  10.958   2.988   7.139  0.4626  0.8811 -0.0339
  159MOL0     H21882  10.899   2.986   7.303  0.4198 -1.8825  2.6239
  159MOL0     H21883  11.134   2.837   7.180  0.2497  0.3700 -0.5839
  159MOL0     H21884  11.096   2.813   7.356 -0.9247 -0.9483  1.1686
  159MOL0     H21885  11.280   2.979   7.274  0.7402 -1.3403  1.6455
  159MOL0     H21886  11.130   3.085   7.236  0.2451 -0.2432 -1.1346
  159MOL0     H21887  11.265   3.118   7.468  0.1520  0.7658 -1.4948
  159MOL0     H21888  11.199   2.950   7.511  1.3703 -0.1962  0.2261
  159MOL0     H21889  11.049   3.207   7.466  1.6886 -0.8888 -0.7108
  159MOL0     H21890  10.981   3.040   7.498  0.0966 -0.7616  0.5231
  159MOL0     H21891  10.870   3.074   7.738 -0.7225  1.6156  3.6963
  159MOL0     H21892  11.033   3.078   8.074  0.7122  0.4725 -0.1137
  159MOL0     H21893  10.884   3.033   8.001  2.2688 -1.8841 -3.0596
  159MOL0     H21894  10.980   3.334   8.015 -1.6228  0.7525 -1.1464
  159MOL0     H21895  10.820   3.278   7.953  1.8456 -0.9410 -3.2871
  159MOL0     H21896  10.784   3.185   8.205  0.8314 -0.4768  2.0476
  159MOL0     H21897  10.932   3.271   8.248 -1.2194  0.9659  1.1051
  159MOL0     H21898  10.810   3.486   8.137  1.8576 -1.6724 -1.1771
  159MOL0     H21899  10.660   3.386   8.152 -0.6655 -0.4128  1.1984
  159MOL0     H21900  10.724   3.404   8.571  1.8949 -0.7235 -0.0193
  159MOL0     H21901  10.734   3.463   8.810 -2.7843  0.9095 -1.5704
  159MOL0     H21902  10.793   3.623   8.853  0.0089 -1.6745  1.1501
  159MOL0     H21903  10.906   3.508   8.855 -0.0298  3.8807  1.0575
  159MOL0     H21904  11.375   3.596   8.781  3.3529  2.8380 -0.8067
  159MOL0     H21905  11.547   3.734   8.889  1.6524  6.0660 -1.7719
  159MOL0     H21906  11.545   4.054   8.911  2.2091  0.4361  0.4513
  159MOL0     H21907  11.619   4.097   9.067  0.0225  0.5085 -0.0988
  159MOL0     H21908  11.762   3.882   9.046  2.4679  0.3863  0.6614
  159MOL0     H21909  11.742   3.887   8.877  1.7296  0.3274  0.6112
  159MOL0     H21910  11.934   4.006   8.961 -0.1607 -0.3148 -0.2531
  159MOL0     H21911  11.830   4.127   9.030  0.1471 -3.3360  2.3141
  159MOL0     H21912  11.737   4.160   8.780  1.0714  2.1150 -0.1017
  159MOL0     H21913  11.865   4.042   8.740  3.9001 -1.9800  2.3664
  159MOL0     H21914  11.938   4.280   8.905  0.9815 -2.8752  1.1354
  159MOL0     H21915  12.030   4.187   8.776  1.3360 -0.3963  1.4262
  159MOL0     H21916  11.826   4.413   8.742  0.3636  1.2182  0.3703
  159MOL0     H21917  11.890   4.303   8.611 -1.1726  1.4214  0.2490
  159MOL0     H21918  12.048   4.511   8.764  0.8699 -0.4094 -0.6069
  159MOL0     H21919  11.989   4.499   8.596  2.4493  0.0796 -1.3303
  159MOL0     H21920  12.209   4.348   8.715 -1.9872 -0.4739  1.6416
  159MOL0     H21921  12.215   4.467   8.593  1.3433 -0.5812  0.6578
  159MOL0     H21922  11.280   3.961   9.110  1.9770  3.0013 -2.8240
  159MOL0     H21923  11.087   3.839   9.015  0.5890 -3.0755  3.7054
  159MOL0     H21924  11.063   3.711   8.435  0.5585 -1.1089  1.0374
  159MOL0     H21925  10.950   3.593   8.268  0.2278  2.6654  0.4912
  159MOL0     H21926  10.263   2.832   7.036  0.5898  0.9516 -1.8332
  159MOL0     H21927  10.059   2.969   7.103  1.0888 -0.7175 -1.1770
  159MOL0     H21928   9.940   3.330   7.447  0.0246  2.2003 -1.2535
  159MOL0     H21929   9.722   3.355   7.588  2.2149 -3.3574  1.3528
  159MOL0     H21930   9.336   3.392   7.345  0.5027  0.1154  0.1199
  159MOL0     H21931   9.344   3.224   7.353 -0.0916  0.3618 -1.4651
  159MOL0     H21932   9.233   3.425   7.555 -0.9453  0.3964 -1.7915
  159MOL0     H21933   9.254   3.260   7.611 -0.7904  1.2479  1.2124
  159MOL0     H21934   9.027   3.324   7.542  2.8582 -1.9495  5.1622
  159MOL0     H21935   9.113   3.376   7.387  1.9242  0.5258  0.5820
  159MOL0     H21936   9.113   3.087   7.480  0.3221 -1.7944 -3.7935
  159MOL0     H21937   9.126   3.145   7.320  0.3612 -1.9337  0.4518
  159MOL0     H21938   8.709   3.130   7.341  0.1737 -0.2887  0.6441
  159MOL0     H21939   9.505   3.251   7.226  1.2208 -0.0498 -0.8784
  159MOL0     H21940   9.657   3.099   7.050 -2.6660  0.4147 -1.2952
  159MOL0     H21941   9.586   3.257   7.026 -0.0458 -1.6959 -4.8453
  159MOL0     H21942   9.759   3.238   6.997  0.2213 -0.5367  0.0821
  160MOL0     O21943   1.942   5.972   5.898  0.0397  0.5648 -0.2366
  160MOL0     C21944   1.826   6.011   5.912  0.2130  0.3487 -0.2417
  160MOL0     O21945   1.792   6.134   5.957 -0.0583 -0.4237 -0.1610
  160MOL0     C21946   1.887   6.233   5.992  0.6076 -0.0125 -0.4006
  160MOL0     C21947   1.923   6.331   5.900  1.2199  0.5005  0.1290
  160MOL0     C21948   2.001   6.441   5.945  0.0103 -0.1330  0.0191
  160MOL0     C21949   2.059   6.443   6.074  0.4422  0.5878 -0.6664
  160MOL0     O21950   2.140   6.548   6.113  0.0090  0.1218 -0.0626
  160MOL0     C21951   2.144   6.573   6.256  0.1076  0.2780 -0.6842
  160MOL0     C21952   2.188   6.722   6.271 -0.0185  0.5103 -0.2972
  160MOL0     C21953   2.244   6.735   6.413  0.4969  0.6820 -0.8741
  160MOL0     C21954   2.131   6.728   6.522 -0.5352  0.8790  0.1648
  160MOL0     C21955   2.199   6.731   6.666 -0.5214  0.0944  0.0751
  160MOL0     C21956   2.100   6.719   6.776 -0.3881 -0.1064 -0.3091
  160MOL0     C21957   2.171   6.739   6.912  0.1619  1.1010  0.4405
  160MOL0     C21958   2.194   6.889   6.947  0.8949  0.9802  0.3484
  160MOL0     N21959   2.236   6.920   7.088  0.8464 -0.4048 -0.7766
  160MOL0     C21960   2.351   6.872   7.153 -0.5567  0.3574 -0.0296
  160MOL0     C21961   2.369   6.953   7.262  0.5759 -0.4772 -0.0476
  160MOL0     C21962   2.467   6.941   7.376 -0.4314  0.2911  0.3804
  160MOL0     C21963   2.615   6.963   7.324  0.0314  0.3842 -0.4991
  160MOL0     C21964   2.671   6.832   7.268  0.0983 -0.2027  0.1646
  160MOL0     C21965   2.806   6.848   7.196  0.4633 -0.7948  0.4764
  160MOL0     O21966   2.800   6.963   7.113 -0.2216 -0.4386  0.5876
  160MOL0     C21967   2.736   6.957   6.988  0.1103 -0.6508 -0.4477
  160MOL0     C21968   2.699   7.084   6.943 -0.4584 -0.5661 -0.6919
  160MOL0     C21969   2.608   7.098   6.837  0.9808 -0.0884  0.0366
  160MOL0     C21970   2.532   7.229   6.815  0.5811 -0.9398 -0.0423
  160MOL0     C21971   2.570   6.981   6.766  0.1489 -1.0019 -0.3127
  160MOL0     C21972   2.461   6.985   6.660 -0.5563  0.0755 -0.1880
  160MOL0     O21973   2.339   7.046   6.679 -0.0836  0.4734  0.5143
  160MOL0     C21974   2.257   7.094   6.577  0.3113 -0.4953 -0.4011
  160MOL0     C21975   2.314   7.143   6.460 -0.5398  0.1479  0.5265
  160MOL0     C21976   2.235   7.218   6.372  0.5156  1.3654 -0.4407
  160MOL0     C21977   2.094   7.207   6.389 -0.1344  0.4797  0.8599
  160MOL0     O21978   2.023   7.275   6.294  0.1376  0.2503  0.1031
  160MOL0     C21979   1.927   7.196   6.222  0.2948 -0.3543  0.3498
  160MOL0     C21980   1.869   7.277   6.106 -0.2545  0.3666  0.0087
  160MOL0     C21981   1.967   7.282   5.987 -0.2364 -0.4954  0.4986
  160MOL0     C21982   1.896   7.356   5.866  0.6460 -0.4794 -0.0059
  160MOL0     C21983   1.997   7.387   5.756  0.5682 -0.1700 -0.4386
  160MOL0     C21984   2.094   7.273   5.720  1.1756 -0.4892 -0.2558
  160MOL0     C21985   2.037   7.141   5.672 -0.1144  0.4307  0.3392
  160MOL0     C21986   2.121   7.022   5.693 -1.4696  0.1242  0.0644
  160MOL0    Cl21987   2.081   6.954   5.859 -0.2755  0.1547  0.1437
  160MOL0     C21988   2.030   7.145   6.491  0.1387 -0.0247  0.1409
  160MOL0     C21989   2.112   7.097   6.594 -0.0778  0.6204  0.7889
  160MOL0     O21990   2.499   6.919   6.558  0.7623  0.2724 -0.3086
  160MOL0     C21991   2.627   6.858   6.809 -0.1360 -1.0753  0.6165
  160MOL0     C21992   2.702   6.844   6.926 -0.5292 -0.8662 -0.2235
  160MOL0     N21993   2.264   7.043   7.255 -0.1815  0.1144 -0.1677
  160MOL0     N21994   2.200   7.038   7.145 -0.9392 -0.5183  0.3538
  160MOL0     C21995   2.036   6.330   6.156 -0.5659 -0.0333  0.1956
  160MOL0     C21996   1.954   6.232   6.118 -0.4422  0.8932  0.3382
  160MOL0     C21997   1.716   5.920   5.866  0.3453 -0.0943 -0.4377
  160MOL0     C21998   1.730   5.782   5.868  0.0128  0.1571 -0.2180
  160MOL0     C21999   1.637   5.697   5.816 -0.6168  0.5906  0.3999
  160MOL0     C22000   1.524   5.744   5.759 -0.0353 -0.4563 -0.5748
  160MOL0     O22001   1.427   5.650   5.723  0.1787 -0.4568 -0.1070
  160MOL0     C22002   1.315   5.696   5.650  0.2345  0.0739 -0.6724
  160MOL0     C22003   1.244   5.590   5.563 -0.6225 -0.2768 -0.6686
  160MOL0     C22004   1.148   5.497   5.638 -0.4687 -0.0862  0.2756
  160MOL0     C22005   1.178   5.351   5.590 -0.1037 -0.0477  0.4513
  160MOL0     C22006   1.160   5.335   5.444 -0.2939  0.4854 -0.0402
  160MOL0     C22007   1.146   5.305   5.323  0.1499  0.7378 -0.4659
  160MOL0     C22008   1.500   5.885   5.747 -0.7682  0.8011 -0.1710
  160MOL0     C22009   1.598   5.970   5.802 -0.3764 -0.0203  0.4548
  160MOL0     C22010   1.583   6.118   5.769 -0.8575  0.6548  0.4185
  160MOL0     H22011   1.867   6.335   5.807  2.0519  0.9838 -0.3679
  160MOL0     H22012   2.022   6.522   5.875  1.8749  0.7142  1.4905
  160MOL0     H22013   2.223   6.510   6.298 -0.3815 -0.5326 -0.9710
  160MOL0     H22014   2.048   6.560   6.307 -1.5524 -0.7068 -3.7793
  160MOL0     H22015   2.268   6.752   6.203  1.8777  1.4974  2.2052
  160MOL0     H22016   2.104   6.790   6.251 -0.2908  1.9227  4.3031
  160MOL0     H22017   2.320   6.658   6.428  2.3372  1.3874 -5.2208
  160MOL0     H22018   2.288   6.834   6.430  0.4951  0.5373  0.0176
  160MOL0     H22019   2.056   6.806   6.508 -0.9746  0.1759 -1.7681
  160MOL0     H22020   2.088   6.627   6.520  0.0980  0.5758 -2.4057
  160MOL0     H22021   2.247   6.827   6.687  0.6083 -0.6119  0.8612
  160MOL0     H22022   2.277   6.654   6.671 -0.3292  0.1319 -1.7934
  160MOL0     H22023   2.013   6.786   6.770  1.2517  2.2129  0.2101
  160MOL0     H22024   2.067   6.615   6.772  1.7475 -0.8153 -0.9415
  160MOL0     H22025   2.266   6.686   6.906 -0.0262 -0.3523  5.5241
  160MOL0     H22026   2.115   6.694   6.995  0.3506 -0.9404 -0.4967
  160MOL0     H22027   2.280   6.929   6.893  1.4370  3.4684  2.8236
  160MOL0     H22028   2.097   6.936   6.930 -1.1040 -1.3392  3.8681
  160MOL0     H22029   2.412   6.791   7.114 -0.5331  1.6658 -3.0051
  160MOL0     H22030   2.459   6.843   7.425 -1.3743  0.6307  0.9170
  160MOL0     H22031   2.449   7.027   7.441  0.8826  0.8442  0.0549
  160MOL0     H22032   2.613   7.048   7.255  0.6012 -1.2241 -2.6030
  160MOL0     H22033   2.674   6.995   7.410  1.1087  4.2607 -2.4241
  160MOL0     H22034   2.671   6.756   7.346 -1.9732  2.1037  2.6054
  160MOL0     H22035   2.608   6.791   7.188  0.2965  2.0245 -1.2215
  160MOL0     H22036   2.891   6.869   7.260  1.3188 -2.8661  0.0846
  160MOL0     H22037   2.827   6.754   7.144  2.0637 -0.2098  0.0260
  160MOL0     H22038   2.743   7.170   6.992  0.0992 -1.0580 -0.3119
  160MOL0     H22039   2.515   7.266   6.713 -0.0162  1.0072  0.7165
  160MOL0     H22040   2.576   7.306   6.879  0.8117 -3.0295  2.4602
  160MOL0     H22041   2.432   7.218   6.859  1.2770 -0.4258  1.7373
  160MOL0     H22042   2.421   7.131   6.446 -0.8749 -2.7224 -0.2494
  160MOL0     H22043   2.272   7.282   6.293  0.0577  1.5681 -0.4919
  160MOL0     H22044   1.978   7.105   6.189 -2.8762 -3.0225  2.1748
  160MOL0     H22045   1.852   7.158   6.293  1.5164 -4.3409 -0.2359
  160MOL0     H22046   1.778   7.231   6.067  0.7280 -1.0541 -0.7198
  160MOL0     H22047   1.842   7.373   6.149 -1.1287  0.5186 -0.8532
  160MOL0     H22048   2.007   7.188   5.950 -1.3280  0.3453 -3.2820
  160MOL0     H22049   2.053   7.344   6.015 -0.4732 -0.2379  0.6605
  160MOL0     H22050   1.854   7.449   5.904  1.8379 -0.2658  0.8346
  160MOL0     H22051   1.815   7.291   5.830  0.3268 -0.1618  0.1382
  160MOL0     H22052   1.933   7.418   5.673  0.5191 -0.5997 -0.5604
  160MOL0     H22053   2.066   7.465   5.790 -0.7026  0.5142  0.6648
  160MOL0     H22054   2.155   7.264   5.810  2.0897 -1.2276 -0.9305
  160MOL0     H22055   2.157   7.310   5.639  0.2919 -1.4154 -1.4155
  160MOL0     H22056   2.011   7.148   5.566  1.2802  1.7871  0.0481
  160MOL0     H22057   1.944   7.120   5.726 -2.2296  1.2957 -2.7046
  160MOL0     H22058   2.225   7.054   5.695 -1.7085  0.9046  0.6664
  160MOL0     H22059   2.096   6.935   5.632 -1.7018 -0.7906  1.4299
  160MOL0     H22060   1.924   7.155   6.509  0.2135  1.1709 -0.0054
  160MOL0     H22061   2.088   7.065   6.695  0.5492  0.2237  0.8191
  160MOL0     H22062   2.613   6.765   6.754  3.5433 -2.3808  1.5821
  160MOL0     H22063   2.743   6.753   6.969 -0.8121  0.4000  3.0165
  160MOL0     H22064   2.085   6.319   6.253  2.8359 -0.9820 -1.4659
  160MOL0     H22065   1.947   6.142   6.178 -0.3646  1.0338  0.5594
  160MOL0     H22066   1.819   5.732   5.904 -2.8654 -4.6886  1.0554
  160MOL0     H22067   1.655   5.590   5.814 -4.3379 -0.1667 -1.5423
  160MOL0     H22068   1.237   5.745   5.710 -2.3193 -2.0366 -2.0392
  160MOL0     H22069   1.358   5.764   5.576  1.8852  1.0698  1.1226
  160MOL0     H22070   1.324   5.535   5.512  0.5830 -0.4570  1.3307
  160MOL0     H22071   1.178   5.653   5.503  0.4307  0.5771 -0.9669
  160MOL0     H22072   1.172   5.501   5.745 -1.8375  2.0575  0.5352
  160MOL0     H22073   1.044   5.526   5.622 -0.5389  2.4629  4.1451
  160MOL0     H22074   1.123   5.281   5.653 -0.5934  1.6096  1.9707
  160MOL0     H22075   1.285   5.339   5.605  0.5103  3.5572 -0.1593
  160MOL0     H22076   1.156   5.278   5.220 -3.2344  0.4687 -0.8457
  160MOL0     H22077   1.413   5.928   5.699 -1.1578  1.6805  1.2775
  160MOL0     H22078   1.556   6.179   5.855 -1.2753  0.1822  0.6305
  160MOL0     H22079   1.677   6.154   5.727  0.0447 -0.1214  1.7183
  160MOL0     H22080   1.507   6.127   5.690  0.2658  0.7136 -0.6921
  161MOL0     O22081  10.736   2.642   1.970  0.1798  0.2868  0.2085
  161MOL0     C22082  10.820   2.603   1.888  0.8175 -1.0692  0.2263
  161MOL0     O22083  10.787   2.526   1.783 -0.2366  0.0909  0.5830
  161MOL0     C22084  10.659   2.490   1.763  0.7070 -0.0690 -0.3649
  161MOL0     C22085  10.579   2.428   1.861 -0.0051  0.3355 -0.1321
  161MOL0     C22086  10.455   2.384   1.823 -0.8710 -0.5410 -0.2345
  161MOL0     C22087  10.401   2.402   1.698 -0.4046 -0.1769  0.9196
  161MOL0     O22088  10.278   2.353   1.664  0.3749  0.2712 -0.0120
  161MOL0     C22089  10.173   2.381   1.760  0.1293 -0.5568 -1.0519
  161MOL0     C22090  10.045   2.396   1.675  0.1708  0.3146  0.1493
  161MOL0     C22091   9.991   2.283   1.582  0.0648  0.1139 -0.4671
  161MOL0     C22092   9.907   2.326   1.460  0.3285 -0.4868 -0.4976
  161MOL0     C22093   9.893   2.210   1.358  0.2457 -0.5231  0.1235
  161MOL0     C22094   9.824   2.257   1.236  0.1408 -0.0203  0.1334
  161MOL0     C22095   9.814   2.141   1.134 -0.3036 -0.2201 -0.5021
  161MOL0     C22096   9.664   2.106   1.115  0.4303  0.5409  0.2839
  161MOL0     N22097   9.614   2.016   1.221  0.0879 -0.1946  0.7064
  161MOL0     C22098   9.563   2.053   1.343 -0.0749 -0.2436 -0.3931
  161MOL0     C22099   9.486   1.943   1.374 -0.2740 -0.3950 -0.0837
  161MOL0     C22100   9.401   1.909   1.490  0.0450  0.5360 -0.5136
  161MOL0     C22101   9.482   1.888   1.614  0.6176  0.3906 -0.2502
  161MOL0     C22102   9.407   1.851   1.748 -0.6162  0.2288  1.2085
  161MOL0     C22103   9.284   1.763   1.736  0.5406 -0.4245 -0.1058
  161MOL0     O22104   9.168   1.826   1.680 -0.0975  0.7256 -0.5936
  161MOL0     C22105   9.104   1.759   1.580 -0.4707 -0.7584  1.0121
  161MOL0     C22106   9.040   1.831   1.480  0.8780  0.9545 -0.8292
  161MOL0     C22107   8.957   1.761   1.392  0.3709  0.2425 -0.0698
  161MOL0     C22108   8.889   1.836   1.278  0.5031  0.5525  0.8915
  161MOL0     C22109   8.919   1.625   1.407  1.2629 -1.0394  0.5033
  161MOL0     C22110   8.827   1.548   1.315  0.0696 -0.4909  0.3082
  161MOL0     O22111   8.769   1.442   1.372  0.3487 -0.6195 -0.6206
  161MOL0     C22112   8.762   1.327   1.302 -0.3658  0.9522 -0.4091
  161MOL0     C22113   8.855   1.265   1.214 -0.3287  0.0791 -0.1756
  161MOL0     C22114   8.818   1.143   1.157 -0.4377 -0.3891 -0.0431
  161MOL0     C22115   8.694   1.082   1.178  0.0892  0.0004 -1.0325
  161MOL0     O22116   8.647   0.963   1.140 -0.5421 -0.6549  0.0460
  161MOL0     C22117   8.730   0.861   1.089 -0.3717 -1.1908 -0.1019
  161MOL0     C22118   8.819   0.805   1.204 -0.6195 -0.1546 -0.1719
  161MOL0     C22119   8.764   0.672   1.271 -0.4837  0.4794 -0.1407
  161MOL0     C22120   8.874   0.593   1.344 -0.3056 -0.4455 -0.6582
  161MOL0     C22121   8.817   0.460   1.403  0.1033 -0.0202 -0.8339
  161MOL0     C22122   8.925   0.355   1.440  0.0145 -0.0205 -0.0807
  161MOL0     C22123   9.045   0.408   1.526  0.3727 -0.4526  0.3517
  161MOL0     C22124   9.139   0.304   1.584  0.3582  0.7775  0.0150
  161MOL0    Cl22125   9.052   0.193   1.686 -0.0701 -0.5332 -0.3208
  161MOL0     C22126   8.599   1.159   1.248  0.0331  0.3117  0.2426
  161MOL0     C22127   8.638   1.275   1.307 -0.1925 -0.4322  1.0147
  161MOL0     O22128   8.823   1.579   1.197 -0.1311  0.2799  0.2733
  161MOL0     C22129   8.972   1.565   1.524 -0.8731  1.0704  1.0665
  161MOL0     C22130   9.054   1.632   1.609  0.0605 -0.4769  0.1886
  161MOL0     N22131   9.505   1.840   1.283 -0.5272  0.2701 -0.3752
  161MOL0     N22132   9.584   1.885   1.198 -0.2199  1.1203 -1.2318
  161MOL0     C22133  10.475   2.459   1.601 -0.0005  0.2581  0.1123
  161MOL0     C22134  10.614   2.503   1.632  0.9345 -0.6110  0.2276
  161MOL0     C22135  10.966   2.640   1.905 -0.4031 -0.3661 -0.8303
  161MOL0     C22136  11.007   2.688   2.031 -0.3126  0.4588  0.8313
  161MOL0     C22137  11.139   2.739   2.046  0.4728  0.9012 -0.2353
  161MOL0     C22138  11.234   2.731   1.945  0.4639  0.6650 -0.8402
  161MOL0     O22139  11.359   2.786   1.961 -0.4980 -0.5259  0.1900
  161MOL0     C22140  11.422   2.842   1.849  0.7564 -0.1729 -0.4393
  161MOL0     C22141  11.523   2.946   1.887  0.1928  0.1917  0.5851
  161MOL0     C22142  11.583   3.019   1.760 -0.3659  0.4023  0.6381
  161MOL0     C22143  11.685   3.125   1.801  0.5370  0.1750  0.0632
  161MOL0     C22144  11.812   3.066   1.845 -0.2055  0.3164  0.5747
  161MOL0     C22145  11.909   2.999   1.884 -0.0788 -0.0022  0.4517
  161MOL0     C22146  11.192   2.680   1.821  0.4699  1.2100 -0.0273
  161MOL0     C22147  11.061   2.633   1.796  0.4066  0.2690  0.6602
  161MOL0     C22148  11.035   2.584   1.654  0.2597  0.5426  0.3782
  161MOL0     H22149  10.612   2.396   1.960  1.0710  1.3549 -0.1540
  161MOL0     H22150  10.405   2.326   1.900 -1.0744  0.4642  0.4080
  161MOL0     H22151  10.186   2.469   1.824 -2.0808 -1.8392  1.3691
  161MOL0     H22152  10.168   2.292   1.824  1.0880  0.5966  0.7327
  161MOL0     H22153   9.969   2.424   1.748 -0.5289 -0.0010 -0.4458
  161MOL0     H22154  10.060   2.483   1.611  0.0663 -0.9103 -1.6363
  161MOL0     H22155  10.077   2.227   1.544  0.2908  1.0889 -1.4406
  161MOL0     H22156   9.922   2.222   1.642 -0.8676  1.1048 -0.4989
  161MOL0     H22157   9.806   2.347   1.495  0.4528  1.1460 -1.0602
  161MOL0     H22158   9.946   2.419   1.417  0.9589 -1.4958 -2.2424
  161MOL0     H22159   9.830   2.135   1.406  1.0425 -0.6609  0.9912
  161MOL0     H22160   9.991   2.162   1.344  0.5538 -0.6406  2.3732
  161MOL0     H22161   9.726   2.295   1.265  1.3726  2.9780  0.7697
  161MOL0     H22162   9.866   2.345   1.186 -1.2536  1.2003  1.0557
  161MOL0     H22163   9.872   2.051   1.159 -1.0472 -0.2573  1.2312
  161MOL0     H22164   9.843   2.176   1.035 -1.3477  0.1653 -0.6806
  161MOL0     H22165   9.597   2.192   1.116  0.0509  0.2751 -1.1102
  161MOL0     H22166   9.653   2.058   1.018  1.0615 -0.2226  0.5763
  161MOL0     H22167   9.564   2.149   1.393  1.2822 -0.5230  0.1708
  161MOL0     H22168   9.357   1.813   1.461 -1.1112  0.4102  1.4693
  161MOL0     H22169   9.319   1.974   1.519  0.0810  0.6357 -0.6350
  161MOL0     H22170   9.546   1.809   1.572 -0.2984  0.9766 -2.8901
  161MOL0     H22171   9.545   1.977   1.627  0.9913  0.5727 -2.7961
  161MOL0     H22172   9.492   1.799   1.792  2.9731  3.2053 -1.6367
  161MOL0     H22173   9.382   1.935   1.813 -0.9088 -1.4580  3.3969
  161MOL0     H22174   9.326   1.678   1.681  2.1959 -2.5744  3.9932
  161MOL0     H22175   9.253   1.711   1.828 -0.3218  1.3489  0.6511
  161MOL0     H22176   9.051   1.939   1.477  0.3722  0.9931 -1.8883
  161MOL0     H22177   8.919   1.942   1.279 -1.2117  1.1221 -1.0932
  161MOL0     H22178   8.781   1.824   1.289  0.6404 -0.2691  1.4234
  161MOL0     H22179   8.916   1.789   1.183  2.2162 -0.6791  1.9290
  161MOL0     H22180   8.952   1.307   1.191 -1.1748  1.0661 -2.2767
  161MOL0     H22181   8.893   1.090   1.100 -1.1447  0.0162 -1.3977
  161MOL0     H22182   8.668   0.781   1.050 -2.6202 -0.0624  1.0059
  161MOL0     H22183   8.802   0.896   1.013  2.1545 -1.2175  2.1107
  161MOL0     H22184   8.919   0.793   1.163 -0.9116  0.5255 -1.1077
  161MOL0     H22185   8.832   0.881   1.282  1.2348  1.4184 -1.9287
  161MOL0     H22186   8.725   0.604   1.195 -1.1556  1.7978 -0.9978
  161MOL0     H22187   8.675   0.698   1.328 -1.8063  0.8183 -2.2644
  161MOL0     H22188   8.917   0.656   1.422 -2.4250  0.6187 -0.2815
  161MOL0     H22189   8.961   0.561   1.285  0.9443 -1.4860  1.5951
  161MOL0     H22190   8.755   0.483   1.490  0.4625  0.4399 -0.6979
  161MOL0     H22191   8.745   0.412   1.336  2.5596 -1.6962 -2.4766
  161MOL0     H22192   8.970   0.324   1.345 -2.9997 -0.9012 -1.3693
  161MOL0     H22193   8.886   0.261   1.480  2.0926 -1.6321 -1.6053
  161MOL0     H22194   9.006   0.453   1.618  2.4963 -1.8633  2.0429
  161MOL0     H22195   9.108   0.480   1.472 -2.2194  0.8513 -1.1625
  161MOL0     H22196   9.221   0.346   1.643 -0.1893 -2.0307  3.0402
  161MOL0     H22197   9.190   0.252   1.502  1.2025  1.4319  0.1150
  161MOL0     H22198   8.498   1.125   1.269 -0.1607 -0.0090 -1.1040
  161MOL0     H22199   8.560   1.331   1.357  0.3776 -0.6931  2.2387
  161MOL0     H22200   8.944   1.462   1.538  0.2994  0.8684  2.1123
  161MOL0     H22201   9.096   1.584   1.697  1.5686 -0.7379 -0.6488
  161MOL0     H22202  10.434   2.484   1.503  0.9765 -0.0498 -0.3876
  161MOL0     H22203  10.678   2.546   1.556  0.6531 -0.4012  0.1053
  161MOL0     H22204  10.934   2.704   2.110 -2.5444  0.2094 -1.0758
  161MOL0     H22205  11.169   2.795   2.134  1.0724 -4.0422  3.1170
  161MOL0     H22206  11.458   2.751   1.800 -1.2405 -0.7913 -0.8378
  161MOL0     H22207  11.356   2.897   1.782  0.5795  1.4106  0.9721
  161MOL0     H22208  11.609   2.898   1.935 -0.8067 -0.2759  1.9785
  161MOL0     H22209  11.482   3.018   1.958 -0.0181  0.7166 -0.0642
  161MOL0     H22210  11.619   2.959   1.677 -0.1559  1.6348 -0.1822
  161MOL0     H22211  11.508   3.089   1.722  0.8014  0.9773 -0.6479
  161MOL0     H22212  11.642   3.186   1.881 -4.9118 -1.5943 -1.1144
  161MOL0     H22213  11.710   3.190   1.716  1.3820 -0.2006  0.0112
  161MOL0     H22214  11.989   2.932   1.908  0.1441  0.7488  1.8907
  161MOL0     H22215  11.262   2.680   1.738 -0.4084 -0.6580 -0.8227
  161MOL0     H22216  10.960   2.640   1.596  0.8212 -0.3128 -1.2534
  161MOL0     H22217  11.130   2.586   1.601 -0.8079  0.8551 -1.6615
  161MOL0     H22218  10.993   2.483   1.647  0.1113  0.6953 -1.4690
  162MOL0     O22219   1.577   3.115   8.229  1.4245 -0.0722  0.0732
  162MOL0     C22220   1.475   3.178   8.193 -0.4929  0.3494  0.4344
  162MOL0     O22221   1.453   3.238   8.071  0.5414 -0.5508 -0.2332
  162MOL0     C22222   1.555   3.249   7.980 -0.6476 -0.6073 -0.7222
  162MOL0     C22223   1.549   3.367   7.903 -0.4006 -0.3878 -0.2996
  162MOL0     C22224   1.656   3.401   7.813  0.9509 -0.2747  0.8150
  162MOL0     C22225   1.751   3.304   7.786  0.3247  0.6673 -0.0391
  162MOL0     O22226   1.848   3.309   7.692 -0.4434 -0.4233  0.4757
  162MOL0     C22227   1.886   3.444   7.650  0.2757  0.5797 -0.5800
  162MOL0     C22228   1.995   3.436   7.538 -0.6068 -0.5864  0.4494
  162MOL0     C22229   2.009   3.566   7.449 -0.0329 -0.5230 -0.0247
  162MOL0     C22230   2.113   3.540   7.344 -0.4103  0.8079 -0.7564
  162MOL0     C22231   2.138   3.667   7.257 -0.4180  0.1571 -0.1599
  162MOL0     C22232   2.221   3.642   7.125  0.0934 -0.4868  0.0417
  162MOL0     C22233   2.365   3.576   7.143 -1.1100  0.0601  0.1569
  162MOL0     C22234   2.434   3.542   7.008  0.0302  0.4417  0.1576
  162MOL0     N22235   2.432   3.640   6.906  0.6684 -0.0508 -0.2297
  162MOL0     C22236   2.530   3.739   6.909 -0.5398  0.2237  1.0584
  162MOL0     C22237   2.534   3.773   6.780 -0.9597  0.4884 -0.1909
  162MOL0     C22238   2.609   3.894   6.715  1.0936 -1.0579  0.4393
  162MOL0     C22239   2.519   4.018   6.718  0.1943 -0.6766 -0.0704
  162MOL0     C22240   2.492   4.088   6.854 -0.1781  0.3050 -0.2275
  162MOL0     C22241   2.625   4.125   6.927  0.0000  0.0698 -0.5386
  162MOL0     O22242   2.655   4.011   7.014  0.0107 -0.1953 -0.0869
  162MOL0     C22243   2.745   4.020   7.126  0.9596 -0.0230 -0.1673
  162MOL0     C22244   2.798   3.897   7.169 -0.3591 -0.9940 -0.3598
  162MOL0     C22245   2.889   3.892   7.275  0.4996 -0.9525 -1.0542
  162MOL0     C22246   2.920   3.754   7.339 -0.2608 -0.8726  0.2659
  162MOL0     C22247   2.932   4.023   7.339 -0.0597  0.4073 -0.3562
  162MOL0     C22248   3.026   4.032   7.451  0.4198 -0.3830  0.5767
  162MOL0     O22249   3.029   4.143   7.539 -0.4758  0.5974 -0.7110
  162MOL0     C22250   3.151   4.150   7.600 -0.6543 -0.0843 -0.0278
  162MOL0     C22251   3.276   4.180   7.545  0.0198 -0.2275 -1.3198
  162MOL0     C22252   3.399   4.166   7.605  0.2778  0.3793 -0.0122
  162MOL0     C22253   3.404   4.096   7.729 -1.0910  1.0327  0.3738
  162MOL0     O22254   3.519   4.069   7.803  0.2146 -1.1864 -0.5755
  162MOL0     C22255   3.638   4.157   7.786 -0.1414 -0.0028 -0.8900
  162MOL0     C22256   3.634   4.241   7.909 -0.6891 -0.6970 -0.4615
  162MOL0     C22257   3.767   4.315   7.934 -0.9023 -0.5749  0.4984
  162MOL0     C22258   3.771   4.440   8.034 -0.1651 -1.0137  0.2987
  162MOL0     C22259   3.697   4.414   8.164  0.1437  0.0218 -0.2946
  162MOL0     C22260   3.767   4.283   8.237  0.4881 -0.0271  0.1662
  162MOL0     C22261   3.920   4.287   8.254 -0.1503 -0.3838  1.1835
  162MOL0     C22262   3.966   4.190   8.363 -0.4217 -0.5601 -0.2071
  162MOL0    Cl22263   4.145   4.217   8.369  0.1976 -0.0002  0.0810
  162MOL0     C22264   3.279   4.045   7.785 -0.4503 -0.5204 -0.4516
  162MOL0     C22265   3.158   4.079   7.722 -0.8562 -0.2969 -0.5135
  162MOL0     O22266   3.106   3.942   7.451  0.6024  0.1871 -0.5575
  162MOL0     C22267   2.875   4.139   7.289  0.0370  0.0917  0.9939
  162MOL0     C22268   2.780   4.141   7.182  0.1093 -0.3226  0.0973
  162MOL0     N22269   2.441   3.696   6.709 -0.5914  0.2806  0.4499
  162MOL0     N22270   2.375   3.614   6.788  0.5618 -0.4169  0.1492
  162MOL0     C22271   1.743   3.185   7.859 -0.0423  0.0721 -1.0104
  162MOL0     C22272   1.654   3.154   7.954  0.2519  0.3172 -0.5560
  162MOL0     C22273   1.364   3.186   8.289 -0.3243 -0.0881  0.4871
  162MOL0     C22274   1.238   3.128   8.259  0.1187 -0.0392  0.4308
  162MOL0     C22275   1.140   3.122   8.359  1.0870  0.0305  0.1461
  162MOL0     C22276   1.162   3.164   8.489 -0.2222  0.8868 -0.0672
  162MOL0     O22277   1.063   3.146   8.579  0.3780  0.3976  0.1257
  162MOL0     C22278   1.032   3.011   8.610 -0.1330  0.7069 -0.3532
  162MOL0     C22279   1.115   2.959   8.728 -0.1887 -0.2783 -0.6885
  162MOL0     C22280   1.084   2.811   8.762 -0.0447 -0.4096  0.1774
  162MOL0     C22281   1.137   2.704   8.668  0.5455 -0.4595  0.7789
  162MOL0     C22282   1.089   2.569   8.714 -0.5205 -0.2393  0.1673
  162MOL0     C22283   1.054   2.452   8.732  1.0328 -0.5625 -0.6005
  162MOL0     C22284   1.281   3.222   8.516 -0.8417 -0.3898 -0.2850
  162MOL0     C22285   1.385   3.240   8.417 -0.3042 -0.2285  0.1725
  162MOL0     C22286   1.510   3.325   8.461  0.3547 -0.1394  0.2985
  162MOL0     H22287   1.485   3.449   7.933 -0.3574 -0.8524  1.1498
  162MOL0     H22288   1.674   3.497   7.765  2.5353 -0.8310  0.2293
  162MOL0     H22289   1.922   3.492   7.742 -2.2464 -0.8287  1.2866
  162MOL0     H22290   1.802   3.507   7.619 -1.0087 -0.8054 -0.0063
  162MOL0     H22291   2.095   3.412   7.574 -0.1794  1.6125  0.9036
  162MOL0     H22292   1.963   3.358   7.468  1.1402  0.5036 -1.6703
  162MOL0     H22293   1.915   3.588   7.397  0.6196 -1.6816 -1.8052
  162MOL0     H22294   2.045   3.650   7.509  0.2676  0.5857 -1.6834
  162MOL0     H22295   2.205   3.513   7.397 -1.1922  0.4437  0.4316
  162MOL0     H22296   2.090   3.453   7.281  0.0150  1.2691 -1.5790
  162MOL0     H22297   2.195   3.738   7.317 -1.7767  2.4876 -1.4830
  162MOL0     H22298   2.046   3.720   7.232 -0.4096 -1.0450 -3.1819
  162MOL0     H22299   2.174   3.581   7.047  1.0300  0.2087 -1.1085
  162MOL0     H22300   2.246   3.733   7.069  1.3608 -0.1049  1.1663
  162MOL0     H22301   2.372   3.484   7.202 -2.0968  0.0603  0.2809
  162MOL0     H22302   2.424   3.655   7.193 -1.1344  0.0581  0.1890
  162MOL0     H22303   2.537   3.507   7.021  0.4887  1.5454 -0.3403
  162MOL0     H22304   2.368   3.457   6.989 -3.5273  1.6200  5.1647
  162MOL0     H22305   2.593   3.782   6.986 -0.9225  3.2329 -0.1681
  162MOL0     H22306   2.611   3.864   6.610 -1.6841 -0.9927  0.2964
  162MOL0     H22307   2.706   3.918   6.759 -1.0440  2.7284  3.7835
  162MOL0     H22308   2.560   4.093   6.650 -1.1498 -0.3896 -0.6097
  162MOL0     H22309   2.420   3.998   6.674 -0.1371  0.0768  0.3209
  162MOL0     H22310   2.451   4.189   6.841  2.5783  1.4804 -0.6336
  162MOL0     H22311   2.428   4.021   6.912  1.0399 -3.7933 -3.1690
  162MOL0     H22312   2.701   4.137   6.849  1.2774 -1.7830  0.3563
  162MOL0     H22313   2.618   4.226   6.969  0.8802 -0.5027  1.0863
  162MOL0     H22314   2.778   3.803   7.119 -0.3868  0.2834 -2.8940
  162MOL0     H22315   3.012   3.708   7.302  0.3506 -0.8356  1.6781
  162MOL0     H22316   2.839   3.685   7.311  1.1209 -2.0289 -1.0870
  162MOL0     H22317   2.940   3.755   7.447  2.3216  0.6761 -0.1504
  162MOL0     H22318   3.264   4.227   7.448 -0.5984  2.4579 -0.0453
  162MOL0     H22319   3.496   4.187   7.561  0.9626 -0.7617  0.9107
  162MOL0     H22320   3.724   4.089   7.786 -0.5360 -0.5099 -0.3206
  162MOL0     H22321   3.641   4.217   7.694  0.5571  0.5097 -0.5507
  162MOL0     H22322   3.546   4.304   7.889  0.1490  0.2866 -1.2003
  162MOL0     H22323   3.624   4.169   7.991  2.0334 -3.9082 -2.6874
  162MOL0     H22324   3.810   4.358   7.843  0.0848 -3.0116 -0.2633
  162MOL0     H22325   3.843   4.247   7.974  0.9562  0.7278 -0.6551
  162MOL0     H22326   3.748   4.540   7.994 -3.2889 -2.2239 -1.2720
  162MOL0     H22327   3.875   4.463   8.059  0.1507  0.1691 -1.8763
  162MOL0     H22328   3.725   4.496   8.231 -1.0562  1.1088 -1.0849
  162MOL0     H22329   3.588   4.420   8.154 -0.2346 -1.2046  2.4776
  162MOL0     H22330   3.741   4.190   8.186  1.3375  0.5142 -1.3026
  162MOL0     H22331   3.722   4.259   8.334  3.3482 -1.4384  1.2679
  162MOL0     H22332   3.957   4.387   8.279  2.8477 -0.8687 -0.8088
  162MOL0     H22333   3.964   4.248   8.162  0.1060  1.2117  0.6160
  162MOL0     H22334   3.938   4.086   8.348 -3.6225  0.2003 -0.2748
  162MOL0     H22335   3.925   4.226   8.458 -1.6753  2.6701 -1.8112
  162MOL0     H22336   3.284   3.990   7.879  1.5430 -0.2575 -0.3589
  162MOL0     H22337   3.062   4.036   7.750 -1.0572 -1.4249 -2.7094
  162MOL0     H22338   2.899   4.236   7.330  5.6883 -1.8314  3.1448
  162MOL0     H22339   2.736   4.236   7.151  2.2099  1.3313  1.8786
  162MOL0     H22340   1.821   3.110   7.857 -0.0200  0.1011 -1.3685
  162MOL0     H22341   1.659   3.062   8.011  1.2781 -0.8120 -2.3680
  162MOL0     H22342   1.215   3.081   8.164 -2.6804 -0.2477  1.1401
  162MOL0     H22343   1.047   3.073   8.330  1.0596  0.3197 -0.2651
  162MOL0     H22344   0.926   2.996   8.636 -0.2129 -2.8378 -2.1411
  162MOL0     H22345   1.046   2.952   8.519  1.2948  4.1052 -2.5108
  162MOL0     H22346   1.095   3.023   8.814  1.3929 -0.8086  0.1205
  162MOL0     H22347   1.222   2.964   8.706 -0.0062  1.2706  0.3708
  162MOL0     H22348   1.126   2.778   8.857 -0.7553 -0.4580  0.4821
  162MOL0     H22349   0.975   2.797   8.762  0.1062 -1.6927  0.4480
  162MOL0     H22350   1.246   2.710   8.664  0.5408 -0.7945 -0.5240
  162MOL0     H22351   1.089   2.718   8.570 -1.8200  1.7591  2.1508
  162MOL0     H22352   1.025   2.351   8.752 -2.5837  0.7441  1.7327
  162MOL0     H22353   1.288   3.254   8.619 -1.1443 -3.1981  0.6631
  162MOL0     H22354   1.487   3.401   8.536  0.5771  2.5658 -2.2047
  162MOL0     H22355   1.592   3.262   8.496 -0.7779 -0.1702  3.0893
  162MOL0     H22356   1.541   3.386   8.375  1.8445 -1.6375 -0.2887
  163MOL0     O22357   4.140   6.276  11.183 -0.4075 -0.8287  0.3131
  163MOL0     C22358   4.019   6.269  11.163 -0.1528  0.2730  0.4692
  163MOL0     O22359   3.930   6.224  11.246  0.0135 -0.0395 -0.7568
  163MOL0     C22360   3.951   6.197  11.379 -0.8234 -1.1238 -0.6023
  163MOL0     C22361   3.826   6.181  11.447 -0.4639  0.4261  0.2444
  163MOL0     C22362   3.825   6.143  11.583 -0.1752  0.0041 -0.2109
  163MOL0     C22363   3.943   6.124  11.660  0.1224 -0.0597 -0.3711
  163MOL0     O22364   3.940   6.081  11.789  0.6747 -0.3224  0.0034
  163MOL0     C22365   4.049   6.095  11.879 -0.2176 -0.2161 -0.0501
  163MOL0     C22366   4.003   6.103  12.026 -0.2217  0.1346 -0.7993
  163MOL0     C22367   3.920   5.978  12.057 -0.0411  0.1492  0.7476
  163MOL0     C22368   3.771   6.026  12.049  0.6662  0.4082 -0.4612
  163MOL0     C22369   3.684   5.909  12.064  0.0909 -0.2757  0.4678
  163MOL0     C22370   3.696   5.840  12.210  0.4993 -0.0119  0.5025
  163MOL0     C22371   3.569   5.762  12.246  0.8300 -0.2103 -0.5188
  163MOL0     C22372   3.453   5.850  12.304 -0.6594  0.3896  0.1372
  163MOL0     N22373   3.329   5.780  12.315  0.3034 -0.1349  0.4954
  163MOL0     C22374   3.230   5.753  12.223 -0.6341 -0.1945 -0.5717
  163MOL0     C22375   3.126   5.704  12.300 -0.0724 -0.5030 -1.1063
  163MOL0     C22376   2.993   5.652  12.263  0.1912  0.9539 -0.5007
  163MOL0     C22377   2.960   5.616  12.114 -0.9092  0.2319  0.1817
  163MOL0     C22378   3.004   5.476  12.075 -0.1012  0.4284  0.0232
  163MOL0     C22379   3.158   5.452  12.092  0.2201  0.6728 -0.5869
  163MOL0     O22380   3.203   5.554  12.007  0.0531  0.3552  0.1690
  163MOL0     C22381   3.328   5.552  11.960  0.1121  0.0637  0.1115
  163MOL0     C22382   3.428   5.467  12.012 -0.2832  1.2102  0.2998
  163MOL0     C22383   3.562   5.473  11.971 -0.0490 -0.2070  1.1009
  163MOL0     C22384   3.666   5.379  12.035  0.2374 -0.3683 -0.2939
  163MOL0     C22385   3.590   5.559  11.865  0.3582  0.0711  0.1447
  163MOL0     C22386   3.725   5.562  11.797 -0.8274 -0.2939  0.3538
  163MOL0     O22387   3.773   5.688  11.754  0.0460 -0.0482  0.0695
  163MOL0     C22388   3.891   5.695  11.689  0.2890  0.3027  0.8143
  163MOL0     C22389   3.886   5.693  11.548 -0.0420 -0.2277  0.4353
  163MOL0     C22390   4.000   5.686  11.474 -0.9258  0.1814  0.6957
  163MOL0     C22391   4.129   5.701  11.539  0.9387 -0.2011  1.2144
  163MOL0     O22392   4.251   5.725  11.470  0.0868 -0.6493 -0.3650
  163MOL0     C22393   4.243   5.752  11.329  0.0540  0.7092  0.0218
  163MOL0     C22394   4.377   5.791  11.270  0.3572 -0.0536  0.0884
  163MOL0     C22395   4.476   5.869  11.357  1.0821 -0.7244 -0.0395
  163MOL0     C22396   4.443   6.017  11.355 -0.0007 -0.4184  0.3972
  163MOL0     C22397   4.508   6.091  11.468 -1.3651 -0.9346 -0.1958
  163MOL0     C22398   4.468   6.242  11.460 -0.5082  0.1647  0.1357
  163MOL0     C22399   4.517   6.321  11.583 -0.3828  0.0116 -0.3184
  163MOL0     C22400   4.451   6.297  11.718  0.4199  0.7441  0.0375
  163MOL0    Cl22401   4.522   6.420  11.830  0.0521 -0.1978  0.3866
  163MOL0     C22402   4.125   5.715  11.677  0.3883 -0.1842  0.6392
  163MOL0     C22403   4.012   5.718  11.754 -0.4045 -0.1475  0.2873
  163MOL0     O22404   3.774   5.446  11.768 -0.3142 -1.2189 -0.5933
  163MOL0     C22405   3.492   5.649  11.817 -0.3017 -0.8973 -0.0330
  163MOL0     C22406   3.362   5.635  11.854  0.4591 -0.2137 -0.1342
  163MOL0     N22407   3.165   5.699  12.425  0.0797 -0.9144  0.0521
  163MOL0     N22408   3.288   5.740  12.437  0.1918  0.2909 -1.2670
  163MOL0     C22409   4.065   6.139  11.591  0.1162 -0.7341 -0.5973
  163MOL0     C22410   4.068   6.180  11.455 -0.1178 -0.3238  0.1672
  163MOL0     C22411   3.972   6.307  11.027 -0.1902 -0.8193  0.6534
  163MOL0     C22412   3.842   6.256  10.985 -1.0092  0.5479  0.2908
  163MOL0     C22413   3.813   6.236  10.847  1.2235 -0.8434  0.5255
  163MOL0     C22414   3.895   6.310  10.757  0.5333  1.3936 -0.7765
  163MOL0     O22415   3.863   6.324  10.626 -0.3479  0.2345  0.0869
  163MOL0     C22416   3.927   6.234  10.537 -0.0266 -0.0392  0.4333
  163MOL0     C22417   3.835   6.214  10.420 -0.0670 -0.7723  0.1806
  163MOL0     C22418   3.864   6.333  10.321  0.2163 -0.0340  0.1505
  163MOL0     C22419   3.984   6.297  10.224  1.4943 -0.7838  0.7929
  163MOL0     C22420   4.012   6.421  10.150  0.2606 -0.4375 -0.1358
  163MOL0     C22421   4.037   6.527  10.102 -0.9567  0.3107  1.0207
  163MOL0     C22422   4.015   6.369  10.794 -0.4070  0.2025  0.1902
  163MOL0     C22423   4.060   6.362  10.926  0.5456  0.1967  0.5131
  163MOL0     C22424   4.201   6.423  10.962 -0.0758  0.4147  0.2311
  163MOL0     H22425   3.735   6.179  11.389 -0.7565 -0.1026  0.7053
  163MOL0     H22426   3.732   6.134  11.637  0.5354 -0.4219  0.9952
  163MOL0     H22427   4.113   6.179  11.851  1.3507 -1.9644 -2.0380
  163MOL0     H22428   4.123   6.015  11.874 -0.9422 -1.0073  1.2353
  163MOL0     H22429   4.089   6.095  12.093 -0.6205 -0.7990 -0.3824
  163MOL0     H22430   3.950   6.193  12.057 -1.9516 -1.5492  1.4588
  163MOL0     H22431   3.937   5.898  11.984 -0.5451  1.4235 -0.8270
  163MOL0     H22432   3.943   5.948  12.160  0.2021 -1.7934  0.1588
  163MOL0     H22433   3.744   6.095  12.129  1.3965 -0.8798  0.9510
  163MOL0     H22434   3.748   6.081  11.957 -1.0136 -0.2567 -0.4822
  163MOL0     H22435   3.678   5.844  11.977 -2.7022  0.2436  0.1712
  163MOL0     H22436   3.585   5.955  12.054  0.2333 -0.3013 -1.2457
  163MOL0     H22437   3.777   5.767  12.214  0.4882  0.0234  2.0645
  163MOL0     H22438   3.715   5.920  12.283  0.4793  2.0716 -1.6587
  163MOL0     H22439   3.608   5.685  12.313  2.4695  0.6010 -0.4975
  163MOL0     H22440   3.541   5.725  12.147 -0.9696  0.4859 -0.2969
  163MOL0     H22441   3.477   5.886  12.404 -2.9408 -1.3530  1.3869
  163MOL0     H22442   3.442   5.937  12.239  1.3980  0.6568  0.0709
  163MOL0     H22443   3.213   5.766  12.117 -2.9757  2.8623  0.0069
  163MOL0     H22444   2.932   5.737  12.293  0.3211  0.9923 -0.3444
  163MOL0     H22445   2.966   5.565  12.323 -0.5780  0.9232 -0.8849
  163MOL0     H22446   2.851   5.620  12.106 -1.2573 -2.4551  2.3928
  163MOL0     H22447   3.008   5.685  12.044  1.6136  0.2399  1.7808
  163MOL0     H22448   2.958   5.397  12.135  4.4100 -3.0534 -0.5209
  163MOL0     H22449   2.969   5.454  11.973  1.3523  3.3002 -1.2206
  163MOL0     H22450   3.186   5.452  12.198  0.9293 -2.8460 -0.6563
  163MOL0     H22451   3.184   5.356  12.046  3.0156  2.0380 -2.1800
  163MOL0     H22452   3.402   5.387  12.081  3.0523  0.0441  0.4112
  163MOL0     H22453   3.628   5.326  12.123  3.0193 -1.5825  0.3022
  163MOL0     H22454   3.757   5.425  12.073 -0.4946 -0.0436  1.1275
  163MOL0     H22455   3.703   5.301  11.967 -0.0852  0.4359 -1.4144
  163MOL0     H22456   3.791   5.676  11.500  0.1951 -1.2565  0.3094
  163MOL0     H22457   3.982   5.669  11.368  0.7346 -1.0563  0.5818
  163MOL0     H22458   4.196   5.669  11.275  2.9847 -0.7785 -0.4413
  163MOL0     H22459   4.175   5.836  11.313  0.1371  0.9016  0.6559
  163MOL0     H22460   4.427   5.695  11.254 -1.6952 -1.9455  3.7955
  163MOL0     H22461   4.362   5.844  11.175  2.4069  1.4704  0.5240
  163MOL0     H22462   4.579   5.855  11.322  1.1708 -0.5124  0.1396
  163MOL0     H22463   4.469   5.839  11.462  0.9581 -0.0176  0.1591
  163MOL0     H22464   4.335   6.030  11.363 -0.0521 -1.2977  1.3111
  163MOL0     H22465   4.467   6.066  11.260 -0.4970 -0.9031  0.0160
  163MOL0     H22466   4.484   6.047  11.565  0.6496 -0.7390  0.4394
  163MOL0     H22467   4.615   6.073  11.459 -1.3476 -1.1571  0.4180
  163MOL0     H22468   4.359   6.253  11.467 -0.6927  0.6330 -2.5834
  163MOL0     H22469   4.506   6.288  11.368  1.4072  0.3133  0.9468
  163MOL0     H22470   4.496   6.426  11.558 -2.9447  0.0625  1.5926
  163MOL0     H22471   4.625   6.308  11.587 -0.4510 -1.0962 -1.5330
  163MOL0     H22472   4.477   6.199  11.758 -0.3842  1.4954  2.5453
  163MOL0     H22473   4.342   6.304  11.706  0.0076 -0.0699  2.6976
  163MOL0     H22474   4.220   5.726  11.729  1.2699 -0.0797 -0.9207
  163MOL0     H22475   4.026   5.703  11.861  0.9883 -2.2511 -0.1106
  163MOL0     H22476   3.517   5.719  11.738 -2.6666 -3.3428 -3.1967
  163MOL0     H22477   3.289   5.699  11.806  1.5448  0.2979 -1.1459
  163MOL0     H22478   4.156   6.116  11.646 -0.2471 -0.4039  0.1504
  163MOL0     H22479   4.166   6.186  11.410  0.3968 -0.1009  1.2792
  163MOL0     H22480   3.780   6.208  11.060 -0.9950 -2.7965 -1.6490
  163MOL0     H22481   3.717   6.193  10.820  0.3212  1.9307 -1.0809
  163MOL0     H22482   4.022   6.272  10.497 -0.9081  1.5642 -0.2444
  163MOL0     H22483   3.944   6.144  10.597  0.9745  0.7989  1.4620
  163MOL0     H22484   3.732   6.228  10.454 -0.4524  0.8894 -1.5021
  163MOL0     H22485   3.853   6.117  10.373  1.1236 -0.0262 -0.9740
  163MOL0     H22486   3.770   6.338  10.266 -0.5373 -1.9280  1.1731
  163MOL0     H22487   3.877   6.428  10.373  0.4077 -0.6978  1.3586
  163MOL0     H22488   3.952   6.219  10.155  0.0893 -0.4899  1.0711
  163MOL0     H22489   4.071   6.258  10.277  1.7096  0.6110  1.5164
  163MOL0     H22490   4.049   6.617  10.045  4.9788 -1.1223 -0.7308
  163MOL0     H22491   4.080   6.425  10.728  0.6756 -1.0574  0.1419
  163MOL0     H22492   4.228   6.504  10.894 -0.6386  1.0564  0.7639
  163MOL0     H22493   4.201   6.466  11.063 -0.3999 -0.6533  0.7024
  163MOL0     H22494   4.276   6.343  10.959  1.2625  1.6230  0.3638
  164MOL0     O22495   4.479  10.466   7.652  0.4546  0.0023  0.4236
  164MOL0     C22496   4.490  10.419   7.539 -0.1201  0.1267 -0.3930
  164MOL0     O22497   4.574  10.313   7.508 -0.1278  0.6018 -0.1569
  164MOL0     C22498   4.655  10.252   7.603  0.1166  0.7019  0.1555
  164MOL0     C22499   4.618  10.223   7.734 -0.4149  0.4707 -0.0581
  164MOL0     C22500   4.700  10.146   7.819 -0.0557 -0.1874  0.0318
  164MOL0     C22501   4.830  10.117   7.784  0.7979  0.4031  0.3475
  164MOL0     O22502   4.910  10.054   7.879 -0.0944 -0.0673  1.0616
  164MOL0     C22503   5.035   9.994   7.839  0.0853  0.9590 -0.6229
  164MOL0     C22504   5.146  10.099   7.834 -0.5067  0.5354 -0.6254
  164MOL0     C22505   5.290  10.041   7.857  0.2093  0.2566  0.5116
  164MOL0     C22506   5.410  10.132   7.896 -0.1730  0.3408  0.8527
  164MOL0     C22507   5.542  10.049   7.870 -0.1370  0.3527 -0.2623
  164MOL0     C22508   5.663  10.141   7.896  0.4744  0.1441 -0.3818
  164MOL0     C22509   5.790  10.081   7.829  0.2470 -0.1922  0.4651
  164MOL0     C22510   5.809   9.928   7.856 -0.8186 -1.5067  0.1776
  164MOL0     N22511   5.952   9.895   7.860 -0.2616  1.2635 -0.6817
  164MOL0     C22512   6.034   9.944   7.956 -0.3955  0.5328 -0.0443
  164MOL0     C22513   6.164   9.924   7.908 -0.0615  0.5346 -0.1674
  164MOL0     C22514   6.291   9.970   7.974  0.1358  0.0879 -0.2231
  164MOL0     C22515   6.418   9.889   7.942 -1.1487 -0.4717  0.8290
  164MOL0     C22516   6.535   9.936   8.037  0.4113 -0.3019  0.6757
  164MOL0     C22517   6.603  10.054   7.967  0.3846  0.1755 -0.1054
  164MOL0     O22518   6.728  10.067   8.042 -0.3459  0.2703  0.0522
  164MOL0     C22519   6.822  10.153   7.998  0.1019 -0.9417 -0.1541
  164MOL0     C22520   6.793  10.281   7.935 -0.7358 -0.2388  0.3534
  164MOL0     C22521   6.897  10.367   7.903  0.5650 -0.1782  0.0615
  164MOL0     C22522   6.875  10.501   7.840 -0.5965  0.3611  0.6711
  164MOL0     C22523   7.028  10.344   7.952  0.6249  0.0347 -0.5065
  164MOL0     C22524   7.144  10.430   7.927  0.5594  0.0154 -0.7890
  164MOL0     O22525   7.226  10.468   8.028  0.0409  0.4968  0.3084
  164MOL0     C22526   7.337  10.539   8.002 -0.7483  0.0733 -0.4344
  164MOL0     C22527   7.462  10.479   8.008  0.2352  0.9938  0.5606
  164MOL0     C22528   7.575  10.557   8.016 -0.5951 -0.3810 -0.1123
  164MOL0     C22529   7.569  10.699   8.021  0.8202  0.0087  0.0769
  164MOL0     O22530   7.682  10.777   8.047 -0.0862  0.3080  0.5073
  164MOL0     C22531   7.684  10.918   8.053  0.5135  0.4283 -0.0517
  164MOL0     C22532   7.811  10.970   8.120  0.0536  0.1270 -0.2117
  164MOL0     C22533   7.940  10.930   8.047 -0.0795 -0.2119  0.8223
  164MOL0     C22534   8.059  11.018   8.102  0.2769  0.2272 -0.3706
  164MOL0     C22535   8.192  10.994   8.026 -0.4357  0.1562  0.4139
  164MOL0     C22536   8.258  10.862   8.081  0.1882  0.6934 -1.1421
  164MOL0     C22537   8.371  10.805   7.990  0.1466  0.4510 -0.3019
  164MOL0     C22538   8.438  10.683   8.054 -0.0799  0.4296 -0.6222
  164MOL0    Cl22539   8.306  10.559   8.088 -0.4170  0.0293 -0.2931
  164MOL0     C22540   7.443  10.757   7.978  0.3169 -0.1314  0.7725
  164MOL0     C22541   7.330  10.676   7.981  0.4829  0.0466  0.1293
  164MOL0     O22542   7.177  10.419   7.807  0.4390 -0.5918  0.2307
  164MOL0     C22543   7.055  10.225   8.028  0.5867  1.7438  0.4645
  164MOL0     C22544   6.949  10.130   8.043  0.4130  0.0074  0.6896
  164MOL0     N22545   6.153   9.849   7.789  0.3822 -0.7901  0.0983
  164MOL0     N22546   6.021   9.839   7.767  0.1739  0.3127  0.2074
  164MOL0     C22547   4.863  10.141   7.652 -0.1455 -0.0818  0.2779
  164MOL0     C22548   4.778  10.206   7.562 -0.5368  1.1272  0.0765
  164MOL0     C22549   4.387  10.465   7.439  0.0195  0.5304  0.3758
  164MOL0     C22550   4.356  10.379   7.334  0.3800  0.1545  0.1324
  164MOL0     C22551   4.253  10.413   7.240  0.3977  0.0448 -0.1855
  164MOL0     C22552   4.184  10.530   7.248  0.3430  0.7414 -0.1077
  164MOL0     O22553   4.100  10.577   7.149  0.0773 -0.2152 -0.2693
  164MOL0     C22554   4.023  10.477   7.086  0.0685 -0.9278 -0.8364
  164MOL0     C22555   3.889  10.540   7.026 -0.0168  0.6241 -0.3112
  164MOL0     C22556   3.806  10.598   7.149  0.9852 -0.2124  0.4998
  164MOL0     C22557   3.662  10.650   7.128  0.1423 -0.3947  0.3117
  164MOL0     C22558   3.588  10.653   7.255  0.2177 -0.6171 -0.1707
  164MOL0     C22559   3.511  10.648   7.349  0.2069 -0.0243 -0.7353
  164MOL0     C22560   4.216  10.616   7.347  0.9891  0.4264 -0.2354
  164MOL0     C22561   4.312  10.586   7.448 -0.2202  0.0994 -0.6976
  164MOL0     C22562   4.346  10.694   7.551  0.9854  1.3374  0.0251
  164MOL0     H22563   4.522  10.258   7.770 -0.7040  0.4787 -0.8155
  164MOL0     H22564   4.655  10.118   7.913 -1.4616  2.3085  0.1733
  164MOL0     H22565   5.015   9.937   7.748 -1.9030 -0.1611  0.4406
  164MOL0     H22566   5.068   9.914   7.905 -1.2643  1.0822  0.2460
  164MOL0     H22567   5.146  10.140   7.733  1.7907  0.6788 -0.6404
  164MOL0     H22568   5.137  10.176   7.912  2.9342  0.1158  0.3844
  164MOL0     H22569   5.281   9.971   7.941 -2.1954  2.3383  2.1473
  164MOL0     H22570   5.309   9.977   7.770 -2.7258 -0.6055  0.3845
  164MOL0     H22571   5.423  10.213   7.824  2.0847  0.5987  1.4589
  164MOL0     H22572   5.406  10.176   7.996 -0.5210 -1.3025  1.5858
  164MOL0     H22573   5.548  10.016   7.766 -0.5611 -0.8036  0.0645
  164MOL0     H22574   5.534   9.957   7.927 -2.8145  1.3685  1.1509
  164MOL0     H22575   5.635  10.234   7.846 -0.2736 -0.1753 -0.5650
  164MOL0     H22576   5.680  10.155   8.003 -1.2008  2.0876 -0.3058
  164MOL0     H22577   5.876  10.140   7.862  1.5587 -1.3058 -0.8176
  164MOL0     H22578   5.772  10.097   7.722 -0.8588  0.0134  0.6627
  164MOL0     H22579   5.755   9.899   7.947  0.9676 -1.8152  1.1717
  164MOL0     H22580   5.762   9.890   7.764 -1.0313 -0.5726 -0.1100
  164MOL0     H22581   6.007  10.003   8.043  1.8913 -0.4606  1.4382
  164MOL0     H22582   6.279   9.978   8.082  0.4401  1.6380 -0.2858
  164MOL0     H22583   6.298  10.074   7.942  2.8638 -0.1284 -0.5644
  164MOL0     H22584   6.399   9.782   7.951  0.0954 -0.9136 -1.1259
  164MOL0     H22585   6.457   9.899   7.840  3.4032 -0.9405  2.2980
  164MOL0     H22586   6.502   9.968   8.136 -0.3134  0.0381  0.3274
  164MOL0     H22587   6.610   9.856   8.047  3.5101  2.0783 -1.3443
  164MOL0     H22588   6.635  10.036   7.864  1.1398  0.8719 -0.0051
  164MOL0     H22589   6.532  10.137   7.970 -2.7543 -2.3179 -0.1823
  164MOL0     H22590   6.692  10.288   7.897 -0.7977 -1.8907  0.1422
  164MOL0     H22591   6.891  10.502   7.732 -0.4650  1.7206  0.6836
  164MOL0     H22592   6.937  10.581   7.880 -2.7784  0.8189  3.4108
  164MOL0     H22593   6.771  10.535   7.852 -1.5190 -1.5426 -1.1675
  164MOL0     H22594   7.483  10.372   8.009 -3.0540  0.1906 -1.0746
  164MOL0     H22595   7.666  10.502   8.036 -0.6395 -0.7962 -0.9748
  164MOL0     H22596   7.680  10.939   7.946 -0.0438 -0.2039 -0.1656
  164MOL0     H22597   7.595  10.953   8.106  0.1828  1.2300 -1.0909
  164MOL0     H22598   7.819  11.077   8.139  0.6726  0.0408  0.0511
  164MOL0     H22599   7.812  10.924   8.220  1.6456 -3.6306 -1.7846
  164MOL0     H22600   7.938  10.950   7.940  1.2822  2.4399  1.1927
  164MOL0     H22601   7.951  10.822   8.059 -1.5251 -0.6171 -1.1248
  164MOL0     H22602   8.074  10.995   8.208 -1.9248 -0.5697 -0.1757
  164MOL0     H22603   8.032  11.122   8.082 -3.0783 -0.5842 -0.6787
  164MOL0     H22604   8.170  10.978   7.920  0.6482 -2.0166  0.4528
  164MOL0     H22605   8.258  11.080   8.030  0.5035 -0.2045 -3.5317
  164MOL0     H22606   8.177  10.790   8.095 -1.0824  1.6581 -3.0505
  164MOL0     H22607   8.313  10.892   8.170  2.7013 -1.8705 -1.7066
  164MOL0     H22608   8.450  10.880   7.974  3.3090 -2.0838  1.9586
  164MOL0     H22609   8.330  10.772   7.894  0.3858 -2.3541  0.4781
  164MOL0     H22610   8.496  10.707   8.144 -0.0043 -2.7061  0.2677
  164MOL0     H22611   8.515  10.627   8.000 -0.0651  0.8596 -1.0526
  164MOL0     H22612   7.431  10.865   7.975  0.7275 -0.0790  0.9535
  164MOL0     H22613   7.230  10.713   7.958  0.2853 -0.6629 -0.1914
  164MOL0     H22614   7.146  10.199   8.082  0.2604  1.1635  0.7436
  164MOL0     H22615   6.975  10.033   8.086  1.5843 -1.2411 -2.5352
  164MOL0     H22616   4.956  10.111   7.604 -0.4807  0.2963 -0.6439
  164MOL0     H22617   4.805  10.220   7.458 -1.5320  1.6075 -0.1316
  164MOL0     H22618   4.416  10.289   7.327 -0.0152 -0.2016  1.1502
  164MOL0     H22619   4.236  10.350   7.154  3.1002 -1.8855  0.5469
  164MOL0     H22620   4.077  10.434   7.001  1.4263 -0.7625 -0.0983
  164MOL0     H22621   3.997  10.403   7.163 -0.9677 -0.7482 -1.0079
  164MOL0     H22622   3.834  10.464   6.970 -2.2563  1.5732  0.4736
  164MOL0     H22623   3.887  10.622   6.954  0.1237 -1.1609 -2.4619
  164MOL0     H22624   3.794  10.509   7.211 -0.9885 -1.6021 -1.6892
  164MOL0     H22625   3.867  10.668   7.208 -0.4247  1.5537 -0.0522
  164MOL0     H22626   3.610  10.580   7.062  1.1926 -1.8808  1.0175
  164MOL0     H22627   3.653  10.751   7.087  1.2524 -0.2826  0.3184
  164MOL0     H22628   3.446  10.658   7.434  1.3107  3.8116 -0.1671
  164MOL0     H22629   4.155  10.706   7.353 -0.3911 -0.5519  2.2178
  164MOL0     H22630   4.291  10.673   7.643 -1.5524  0.0304 -1.6466
  164MOL0     H22631   4.451  10.691   7.580  1.2742  0.8227 -1.0326
  164MOL0     H22632   4.317  10.794   7.519  0.9209  0.2681 -3.7477
  165MOL0     O22633   2.060   4.459   2.154 -0.0437 -0.5580 -0.3874
  165MOL0     C22634   1.955   4.395   2.187 -0.9967 -0.3318 -0.7149
  165MOL0     O22635   1.948   4.329   2.308 -0.1587  0.2969 -1.0618
  165MOL0     C22636   2.048   4.337   2.393 -0.2771  0.1267  0.6757
  165MOL0     C22637   2.056   4.457   2.457 -0.6245  0.8415 -0.6556
  165MOL0     C22638   2.147   4.470   2.566 -0.0381  1.0450  0.0282
  165MOL0     C22639   2.234   4.370   2.597 -0.3122  1.1089  0.9231
  165MOL0     O22640   2.320   4.380   2.704 -0.0287 -0.3281  0.6718
  165MOL0     C22641   2.276   4.318   2.817  0.4611  0.7373 -0.4367
  165MOL0     C22642   2.366   4.215   2.879 -0.9089  0.0177  0.0264
  165MOL0     C22643   2.507   4.251   2.924  0.7248  0.5354 -0.4292
  165MOL0     C22644   2.615   4.141   2.892  0.6099  0.2429 -1.1166
  165MOL0     C22645   2.617   4.014   2.982 -0.5126  0.3646 -0.8645
  165MOL0     C22646   2.499   3.927   2.970  0.1419  0.0005 -0.3690
  165MOL0     C22647   2.531   3.795   3.038 -0.0804  0.6149  0.1255
  165MOL0     C22648   2.434   3.679   3.013  0.4351 -0.7704  0.3722
  165MOL0     N22649   2.511   3.565   2.965  0.0947 -0.1736 -0.5020
  165MOL0     C22650   2.615   3.499   3.038 -0.0120 -0.5620  0.2852
  165MOL0     C22651   2.639   3.393   2.955  0.4577  1.3459 -0.4154
  165MOL0     C22652   2.732   3.277   2.999  0.1904  0.1270  0.6270
  165MOL0     C22653   2.661   3.171   3.079 -0.1400 -0.0133  0.1929
  165MOL0     C22654   2.763   3.054   3.094  0.5632  0.6660  0.1182
  165MOL0     C22655   2.700   2.918   3.162 -0.6922 -0.3284  0.3126
  165MOL0     O22656   2.632   2.946   3.284  0.0313  0.1240 -0.2832
  165MOL0     C22657   2.583   2.839   3.355 -0.5202  0.2007 -0.8165
  165MOL0     C22658   2.546   2.859   3.488 -0.3051 -0.0829  0.7889
  165MOL0     C22659   2.491   2.763   3.567 -0.1617  0.3479 -0.7367
  165MOL0     C22660   2.460   2.806   3.713 -0.7471  0.2047 -0.4333
  165MOL0     C22661   2.497   2.631   3.530 -0.0169  1.0891  0.0838
  165MOL0     C22662   2.438   2.515   3.601  0.1878 -0.3514 -0.2270
  165MOL0     O22663   2.488   2.391   3.570 -0.0636 -0.3751 -0.2994
  165MOL0     C22664   2.453   2.283   3.645 -0.7779  0.0386 -0.3150
  165MOL0     C22665   2.550   2.188   3.690  0.0375 -0.5224  0.1982
  165MOL0     C22666   2.517   2.086   3.772  0.4338  0.7693 -0.6332
  165MOL0     C22667   2.381   2.058   3.802 -0.1226  0.0394 -0.0642
  165MOL0     O22668   2.330   1.955   3.876 -0.3482  0.2389 -0.2601
  165MOL0     C22669   2.427   1.883   3.958  0.6375  0.1694 -1.0416
  165MOL0     C22670   2.356   1.777   4.027  0.6043  0.0391 -0.7006
  165MOL0     C22671   2.443   1.708   4.129  0.0724 -0.4949  0.0957
  165MOL0     C22672   2.354   1.593   4.187 -0.3332 -0.3023 -1.3937
  165MOL0     C22673   2.286   1.492   4.091 -0.5826  0.3907  0.5016
  165MOL0     C22674   2.194   1.401   4.170 -0.9369 -0.6749  0.0829
  165MOL0     C22675   2.262   1.317   4.274  0.0490  0.1913  0.2215
  165MOL0     C22676   2.173   1.199   4.296  0.3023  0.1194 -0.1296
  165MOL0    Cl22677   2.212   1.136   4.469  0.2129 -0.0544  0.0498
  165MOL0     C22678   2.289   2.151   3.753  1.5004  0.0607 -0.9418
  165MOL0     C22679   2.318   2.261   3.678  0.1804 -0.1033  0.4585
  165MOL0     O22680   2.341   2.539   3.682  0.5942 -0.2493  0.7597
  165MOL0     C22681   2.542   2.611   3.394 -0.7144 -0.3389 -0.1437
  165MOL0     C22682   2.581   2.708   3.305 -0.3958 -0.5311 -0.3170
  165MOL0     N22683   2.549   3.389   2.848  0.3325 -0.0767  0.0080
  165MOL0     N22684   2.476   3.496   2.853 -0.0008  0.0039 -0.3841
  165MOL0     C22685   2.240   4.255   2.516  0.0959 -0.4020 -0.7960
  165MOL0     C22686   2.152   4.235   2.415 -0.0818  0.2370  0.0911
  165MOL0     C22687   1.847   4.398   2.089 -0.5386 -0.6023 -1.0653
  165MOL0     C22688   1.840   4.496   1.991 -0.2423 -0.3310 -0.0873
  165MOL0     C22689   1.733   4.510   1.902  0.2549 -0.6750 -0.6192
  165MOL0     C22690   1.631   4.419   1.897  0.4545  0.0646 -0.5632
  165MOL0     O22691   1.526   4.435   1.818  0.8592  0.1589 -0.9835
  165MOL0     C22692   1.397   4.378   1.870  0.4310  0.7194  0.0877
  165MOL0     C22693   1.286   4.449   1.791  0.6306  0.4328 -0.4847
  165MOL0     C22694   1.222   4.565   1.874 -0.1746 -0.0744 -0.1811
  165MOL0     C22695   1.079   4.600   1.829  1.1703 -0.0604 -0.8518
  165MOL0     C22696   1.076   4.637   1.691 -0.7899 -0.4250 -0.3836
  165MOL0     C22697   1.086   4.653   1.570  0.2336 -0.4468  0.8347
  165MOL0     C22698   1.640   4.309   1.996  0.1574  0.2285 -0.5196
  165MOL0     C22699   1.736   4.307   2.102  0.7231 -0.6852  0.1241
  165MOL0     C22700   1.734   4.182   2.197 -0.2399  0.3632 -0.0536
  165MOL0     H22701   1.981   4.531   2.435 -0.6101  1.2056  0.4438
  165MOL0     H22702   2.149   4.547   2.643 -1.7063  0.3484  0.8193
  165MOL0     H22703   2.179   4.269   2.802 -0.3442  0.8815  3.2325
  165MOL0     H22704   2.268   4.393   2.896 -0.6923  2.1489 -1.8193
  165MOL0     H22705   2.320   4.167   2.966 -0.5394  4.3680  2.9767
  165MOL0     H22706   2.383   4.147   2.796  3.1260  2.5575 -1.5402
  165MOL0     H22707   2.531   4.338   2.862 -2.0545  1.5021 -0.2979
  165MOL0     H22708   2.510   4.263   3.032 -1.7010 -1.6418 -0.0009
  165MOL0     H22709   2.588   4.113   2.790 -1.0803 -0.1651 -0.5940
  165MOL0     H22710   2.718   4.179   2.891  1.3625 -1.6934 -2.2186
  165MOL0     H22711   2.628   4.045   3.087 -1.5096  1.6129 -1.0995
  165MOL0     H22712   2.713   3.969   2.954  0.8396  2.3855  0.2220
  165MOL0     H22713   2.422   3.980   3.027 -0.8368 -0.5777 -1.1173
  165MOL0     H22714   2.457   3.919   2.869 -1.0971  0.8461  0.0446
  165MOL0     H22715   2.546   3.803   3.146 -2.4939  0.6739  0.4966
  165MOL0     H22716   2.629   3.762   3.001  0.3761  0.3770  1.5026
  165MOL0     H22717   2.383   3.643   3.102  2.1909  2.3367  2.8307
  165MOL0     H22718   2.376   3.709   2.925  1.4957  0.9580  0.1999
  165MOL0     H22719   2.657   3.522   3.135  0.3631  1.1076 -0.2552
  165MOL0     H22720   2.813   3.316   3.061 -2.4802  2.9007  2.7261
  165MOL0     H22721   2.755   3.245   2.897 -0.4713 -1.0289  0.8171
  165MOL0     H22722   2.623   3.210   3.174  2.2939 -0.4033  1.4094
  165MOL0     H22723   2.572   3.134   3.028 -0.6444 -1.5201  2.0325
  165MOL0     H22724   2.812   3.039   2.997 -1.7498 -0.1890 -1.0111
  165MOL0     H22725   2.844   3.098   3.152 -0.1342  2.5126 -0.2588
  165MOL0     H22726   2.637   2.868   3.088  0.6230  0.2842 -1.2857
  165MOL0     H22727   2.782   2.848   3.180  0.9663  0.5259 -3.0760
  165MOL0     H22728   2.542   2.960   3.527  0.7224  0.3509 -0.1790
  165MOL0     H22729   2.359   2.846   3.721 -0.0493  2.0352 -0.0591
  165MOL0     H22730   2.521   2.887   3.754 -2.0973  0.8752  0.3283
  165MOL0     H22731   2.476   2.726   3.787 -0.6243  1.2971  0.7722
  165MOL0     H22732   2.659   2.190   3.688  0.0861 -1.0444  1.4317
  165MOL0     H22733   2.600   2.024   3.805  1.3649  2.1475 -0.3098
  165MOL0     H22734   2.513   1.850   3.899  1.7785 -0.4861  0.8977
  165MOL0     H22735   2.475   1.945   4.034  1.6377 -1.2218 -0.5037
  165MOL0     H22736   2.265   1.826   4.064  0.9282  0.5886 -0.6183
  165MOL0     H22737   2.332   1.710   3.943  4.5540 -0.7984 -1.3373
  165MOL0     H22738   2.462   1.778   4.211 -1.3954 -0.4259  0.4079
  165MOL0     H22739   2.538   1.664   4.096 -0.4499 -1.4405 -0.1884
  165MOL0     H22740   2.278   1.636   4.253  0.8949  1.8434 -1.3062
  165MOL0     H22741   2.410   1.523   4.248 -0.5207 -0.7295 -1.7020
  165MOL0     H22742   2.229   1.546   4.015  0.4160  2.4944  1.1514
  165MOL0     H22743   2.366   1.435   4.041  1.2139  0.0551  3.5069
  165MOL0     H22744   2.144   1.336   4.097 -1.2094  1.0141 -1.2914
  165MOL0     H22745   2.116   1.461   4.218 -2.5254 -1.8713 -0.9045
  165MOL0     H22746   2.270   1.380   4.362  2.6201  0.2071  0.0417
  165MOL0     H22747   2.363   1.293   4.239 -0.6679 -2.1215 -0.4679
  165MOL0     H22748   2.184   1.122   4.219 -3.6854 -2.8164  1.8903
  165MOL0     H22749   2.067   1.229   4.295 -1.1064 -4.1956  0.2826
  165MOL0     H22750   2.187   2.126   3.780  1.6495 -1.3169 -1.5435
  165MOL0     H22751   2.239   2.322   3.636 -1.2586 -0.6627  2.2390
  165MOL0     H22752   2.545   2.514   3.344  4.4485 -1.1375  1.2072
  165MOL0     H22753   2.625   2.686   3.209  2.9782 -0.7260  1.1209
  165MOL0     H22754   2.321   4.190   2.546  2.8076  3.5274  1.2347
  165MOL0     H22755   2.155   4.139   2.363  0.4119  0.7431 -0.8369
  165MOL0     H22756   1.917   4.572   1.998  0.4548 -0.6702 -2.7622
  165MOL0     H22757   1.734   4.596   1.836 -0.9672 -0.0650  0.1144
  165MOL0     H22758   1.386   4.272   1.843 -1.8793  1.0618 -0.5791
  165MOL0     H22759   1.387   4.371   1.979 -1.0804 -1.7727 -0.1295
  165MOL0     H22760   1.206   4.375   1.781  1.3448 -0.6179  1.2204
  165MOL0     H22761   1.323   4.476   1.691  3.8391  0.3044  0.5653
  165MOL0     H22762   1.221   4.536   1.980 -0.8043 -1.8793 -0.6454
  165MOL0     H22763   1.296   4.646   1.870  1.8521 -1.8174  0.0581
  165MOL0     H22764   1.024   4.676   1.885 -1.2023 -0.1387 -2.9428
  165MOL0     H22765   1.020   4.509   1.846  4.1242 -1.9271  0.1950
  165MOL0     H22766   1.118   4.659   1.468  1.8585  2.7704  1.3870
  165MOL0     H22767   1.576   4.224   1.980  1.0447 -0.4143 -0.7529
  165MOL0     H22768   1.728   4.219   2.300 -0.5646 -0.4829  0.2452
  165MOL0     H22769   1.650   4.115   2.180  0.3317 -0.6027  0.8250
  165MOL0     H22770   1.825   4.121   2.187  0.1581  1.0621 -0.8519
  166MOL0     O22771   2.654   0.120   2.761  0.6078  0.1598 -0.2248
  166MOL0     C22772   2.569   0.100   2.844  0.5720  0.3486 -0.6589
  166MOL0     O22773   2.559   0.157   2.974  0.1242  0.9889  0.8070
  166MOL0     C22774   2.681   0.188   3.034  1.0934  0.4678  0.0345
  166MOL0     C22775   2.802   0.131   3.003  1.1265 -1.8428 -0.5228
  166MOL0     C22776   2.908   0.162   3.089  0.4771  0.8776  0.0411
  166MOL0     C22777   2.903   0.250   3.195 -0.4572 -0.4515 -1.0029
  166MOL0     O22778   3.009   0.274   3.282  0.1437  0.0178 -0.1162
  166MOL0     C22779   3.132   0.197   3.262  0.5728  1.4900 -0.1009
  166MOL0     C22780   3.232   0.206   3.372 -0.2524  0.0637  0.5677
  166MOL0     C22781   3.265   0.348   3.414 -0.5535 -0.4684  0.2868
  166MOL0     C22782   3.404   0.363   3.488  0.0707  0.3045  0.0273
  166MOL0     C22783   3.419   0.500   3.557 -0.8923 -0.2851  0.1193
  166MOL0     C22784   3.353   0.501   3.698  0.1682 -0.5969 -0.8769
  166MOL0     C22785   3.400   0.640   3.762  0.0386  0.2865  0.4961
  166MOL0     C22786   3.332   0.678   3.896  0.5063 -1.0072  0.1946
  166MOL0     N22787   3.430   0.721   3.996  0.2025 -0.0430  0.4229
  166MOL0     C22788   3.467   0.848   4.025  0.1050 -1.3775 -0.2196
  166MOL0     C22789   3.553   0.836   4.120  0.4654 -0.6309 -0.7805
  166MOL0     C22790   3.622   0.951   4.191 -0.0872  0.4922  0.8683
  166MOL0     C22791   3.530   1.023   4.292  0.7181 -0.3294  0.1324
  166MOL0     C22792   3.475   0.932   4.398  0.1778  0.2199 -0.3099
  166MOL0     C22793   3.412   1.001   4.518  0.1761  0.4604  0.1033
  166MOL0     O22794   3.349   0.905   4.603 -0.1296 -0.6789  0.7789
  166MOL0     C22795   3.294   0.934   4.722  0.9733 -0.2856  0.0853
  166MOL0     C22796   3.236   1.056   4.749  0.7623 -0.1483  0.5862
  166MOL0     C22797   3.158   1.084   4.862  0.4613 -0.2437 -0.4023
  166MOL0     C22798   3.104   1.225   4.870  0.0221  0.0860 -0.0429
  166MOL0     C22799   3.149   0.982   4.956 -0.8203  0.2348  0.1102
  166MOL0     C22800   3.070   1.007   5.078  0.2343  0.5026 -0.1822
  166MOL0     O22801   3.067   1.126   5.138 -0.3136 -0.5250  0.3303
  166MOL0     C22802   2.965   1.153   5.234 -0.7116 -0.9756 -0.7517
  166MOL0     C22803   2.832   1.112   5.219 -0.1907 -0.1885 -0.9076
  166MOL0     C22804   2.742   1.142   5.319 -0.5221 -0.4738  0.2086
  166MOL0     C22805   2.766   1.207   5.438 -1.0447 -0.0844  0.4697
  166MOL0     O22806   2.664   1.204   5.532 -0.2672  0.4059  0.8150
  166MOL0     C22807   2.702   1.268   5.655  1.5412 -0.5571  0.2746
  166MOL0     C22808   2.604   1.267   5.775  0.2428  0.1281 -2.0344
  166MOL0     C22809   2.461   1.318   5.751  0.6924 -0.4065 -0.4990
  166MOL0     C22810   2.360   1.240   5.822  0.6115  0.1327 -0.5725
  166MOL0     C22811   2.356   1.266   5.974  0.1331 -0.0555 -0.4005
  166MOL0     C22812   2.269   1.163   6.051 -0.3067  0.2293 -0.5000
  166MOL0     C22813   2.248   1.197   6.200 -0.4171  0.4362 -0.3624
  166MOL0     C22814   2.353   1.131   6.287  1.5373 -0.8138 -0.7092
  166MOL0    Cl22815   2.348   0.944   6.299 -0.1623  0.0436 -1.0001
  166MOL0     C22816   2.901   1.250   5.460  0.6788  0.7316  0.2641
  166MOL0     C22817   2.996   1.227   5.356 -0.3550  0.4554  0.4283
  166MOL0     O22818   3.000   0.909   5.117 -0.1629 -0.0873  0.0322
  166MOL0     C22819   3.192   0.851   4.924 -0.5470  0.4588 -0.5115
  166MOL0     C22820   3.268   0.833   4.812 -0.1396 -0.2273  0.2817
  166MOL0     N22821   3.573   0.701   4.148  0.4018 -0.6487 -0.0291
  166MOL0     N22822   3.496   0.632   4.069  0.7134  0.1805 -0.2354
  166MOL0     C22823   2.779   0.308   3.220 -0.1972  1.1309  0.0513
  166MOL0     C22824   2.672   0.286   3.134 -0.1277 -0.0152  0.2917
  166MOL0     C22825   2.449   0.020   2.801 -0.7829  0.0380  0.4653
  166MOL0     C22826   2.333   0.013   2.882 -0.4099 -0.5585 -0.6661
  166MOL0     C22827   2.213  -0.032   2.843  0.7378  0.3119  0.3870
  166MOL0     C22828   2.203  -0.089   2.714  0.4247  0.3008  0.4660
  166MOL0     O22829   2.087  -0.152   2.677 -0.4997 -0.1103  0.3594
  166MOL0     C22830   2.109  -0.289   2.689  0.8490  1.0805 -0.6298
  166MOL0     C22831   2.115  -0.366   2.557  0.5362 -0.3713 -0.4289
  166MOL0     C22832   1.988  -0.352   2.475  0.3241  0.5654  0.0856
  166MOL0     C22833   1.860  -0.417   2.543 -0.3608 -0.3394  0.0130
  166MOL0     C22834   1.883  -0.573   2.529 -1.0902  0.5432 -0.4281
  166MOL0     C22835   1.897  -0.696   2.525  0.4522 -0.5422  0.4290
  166MOL0     C22836   2.319  -0.104   2.640  0.1948  0.1672  0.3488
  166MOL0     C22837   2.442  -0.062   2.687  0.4579  0.8846 -0.1833
  166MOL0     C22838   2.554  -0.103   2.600 -0.0532  0.0197  0.2388
  166MOL0     H22839   2.823   0.059   2.925  2.2901  1.0136 -3.0429
  166MOL0     H22840   3.000   0.108   3.071  0.4767  1.0355 -0.4572
  166MOL0     H22841   3.187   0.233   3.175  0.1960  3.4524  0.4260
  166MOL0     H22842   3.112   0.091   3.243  1.4412  1.2378  0.3422
  166MOL0     H22843   3.193   0.146   3.455 -0.7081 -1.1904 -0.5280
  166MOL0     H22844   3.317   0.149   3.334 -1.0072 -0.9769  0.3884
  166MOL0     H22845   3.269   0.419   3.331  0.8288 -0.5742  0.2371
  166MOL0     H22846   3.188   0.369   3.489 -0.1594  2.5330 -0.0096
  166MOL0     H22847   3.406   0.292   3.571  0.1188  1.5768  1.1343
  166MOL0     H22848   3.491   0.349   3.424 -0.5772 -3.0337 -0.3354
  166MOL0     H22849   3.373   0.585   3.506  0.8269  1.1420  0.8548
  166MOL0     H22850   3.526   0.521   3.561 -1.1440  0.9654  0.9685
  166MOL0     H22851   3.246   0.495   3.679  0.3050  1.5179 -2.8378
  166MOL0     H22852   3.392   0.423   3.765  2.8943 -2.3123 -4.1402
  166MOL0     H22853   3.376   0.708   3.681  1.9775  1.8577  1.1694
  166MOL0     H22854   3.505   0.635   3.793 -0.5964 -0.7611  2.7529
  166MOL0     H22855   3.266   0.763   3.873 -1.3626 -1.9223  1.9120
  166MOL0     H22856   3.269   0.597   3.933 -1.5257  0.2770 -0.2699
  166MOL0     H22857   3.436   0.946   3.990 -1.5819 -1.7294  0.2065
  166MOL0     H22858   3.643   1.014   4.105 -0.2509 -2.2760 -1.3341
  166MOL0     H22859   3.716   0.921   4.239  0.1808 -3.2400 -1.6204
  166MOL0     H22860   3.594   1.097   4.341  2.9923 -1.4534 -0.9955
  166MOL0     H22861   3.446   1.069   4.239  1.9633 -0.2405 -1.8759
  166MOL0     H22862   3.405   0.861   4.354 -0.6937 -0.1426  1.5802
  166MOL0     H22863   3.563   0.881   4.438 -0.3378  1.0086  1.9575
  166MOL0     H22864   3.478   1.063   4.580 -0.6226  0.5920  0.8408
  166MOL0     H22865   3.341   1.072   4.475  0.2869 -0.0699 -1.0013
  166MOL0     H22866   3.259   1.139   4.683  1.2616  0.4695  1.5100
  166MOL0     H22867   3.065   1.261   4.775  1.8464  1.1124 -0.4576
  166MOL0     H22868   3.187   1.294   4.885  0.3338 -0.1613 -0.6046
  166MOL0     H22869   3.028   1.235   4.948 -0.4018 -1.5855 -0.1951
  166MOL0     H22870   2.800   1.060   5.130 -2.2517  0.8846 -0.8495
  166MOL0     H22871   2.638   1.113   5.306 -0.0434 -0.9039 -4.1736
  166MOL0     H22872   2.795   1.229   5.696  1.6824  0.4794  0.9807
  166MOL0     H22873   2.701   1.373   5.622 -1.6167 -1.0497 -1.6300
  166MOL0     H22874   2.615   1.165   5.814  2.0667  0.9073 -0.3303
  166MOL0     H22875   2.634   1.321   5.865 -1.3417 -1.9898 -0.1133
  166MOL0     H22876   2.458   1.308   5.643  1.0199  1.2561 -0.6930
  166MOL0     H22877   2.445   1.420   5.788 -2.7616 -1.0757  0.1800
  166MOL0     H22878   2.377   1.133   5.806 -2.3376 -0.2196 -2.1442
  166MOL0     H22879   2.261   1.260   5.779  0.3176 -1.1701 -0.5519
  166MOL0     H22880   2.448   1.253   6.030 -0.1123  3.0070  0.9146
  166MOL0     H22881   2.317   1.365   5.998  1.6097  0.6397 -0.7725
  166MOL0     H22882   2.330   1.073   6.045 -0.2298  0.3655 -2.6601
  166MOL0     H22883   2.172   1.147   6.003  0.2525 -3.1824 -0.7443
  166MOL0     H22884   2.149   1.158   6.228 -0.8629 -0.1229 -2.5139
  166MOL0     H22885   2.244   1.305   6.217 -2.3093  0.2511  0.6858
  166MOL0     H22886   2.343   1.169   6.389 -2.9245  0.3982 -1.4017
  166MOL0     H22887   2.453   1.167   6.259  0.2865  3.9774  0.1580
  166MOL0     H22888   2.938   1.296   5.552 -1.6027  3.5485 -0.0969
  166MOL0     H22889   3.096   1.268   5.371 -0.8572  2.1463 -0.5387
  166MOL0     H22890   3.173   0.766   4.989 -2.0859  1.7170  0.7802
  166MOL0     H22891   3.289   0.729   4.790 -2.7597 -0.8926  0.5962
  166MOL0     H22892   2.770   0.363   3.312  0.3243 -2.0062  2.1318
  166MOL0     H22893   2.573   0.327   3.153 -0.5482  1.1489 -3.4316
  166MOL0     H22894   2.345   0.057   2.981 -0.2307  2.0061 -1.7410
  166MOL0     H22895   2.131  -0.023   2.913  0.5210 -1.5282  0.4168
  166MOL0     H22896   2.205  -0.322   2.731  0.2313 -2.0302 -1.4005
  166MOL0     H22897   2.031  -0.325   2.757 -0.7811  3.0477 -1.3810
  166MOL0     H22898   2.146  -0.467   2.584  1.8082  0.5119  1.7307
  166MOL0     H22899   2.196  -0.335   2.491  0.0763  2.6358  0.2524
  166MOL0     H22900   1.973  -0.248   2.443  1.0351  0.4154 -0.8006
  166MOL0     H22901   2.003  -0.406   2.381  2.9065  0.5160  0.4285
  166MOL0     H22902   1.772  -0.387   2.486  0.0140  2.5938  0.8330
  166MOL0     H22903   1.857  -0.387   2.648  4.9866  2.8581 -0.3428
  166MOL0     H22904   1.912  -0.802   2.514 -0.1990 -0.6083  0.1297
  166MOL0     H22905   2.320  -0.171   2.554 -3.6084 -0.1761  0.4069
  166MOL0     H22906   2.530  -0.181   2.528 -1.8739 -0.3476  1.1913
  166MOL0     H22907   2.586  -0.014   2.544 -0.8927  0.8769  1.0882
  166MOL0     H22908   2.642  -0.134   2.658  0.0330  3.2233  2.0275
  167MOL0     O22909   2.295   8.122   8.954 -0.3036  0.6955  0.4558
  167MOL0     C22910   2.224   8.046   8.883  0.5031  0.0735  0.2387
  167MOL0     O22911   2.242   7.911   8.878 -0.2081 -0.5442 -0.0230
  167MOL0     C22912   2.343   7.850   8.949 -0.3879 -0.3938  0.4586
  167MOL0     C22913   2.465   7.894   9.002  0.1881 -0.1387  0.3418
  167MOL0     C22914   2.554   7.804   9.065  0.3053  0.4587 -0.5636
  167MOL0     C22915   2.519   7.673   9.078  0.3764  0.1812 -0.2962
  167MOL0     O22916   2.615   7.597   9.153  0.0411 -0.1404 -0.9735
  167MOL0     C22917   2.579   7.458   9.168 -0.1971 -0.2263  0.2978
  167MOL0     C22918   2.671   7.379   9.249  0.3780  0.4392 -0.2210
  167MOL0     C22919   2.634   7.222   9.254 -0.6542 -0.2002 -0.2481
  167MOL0     C22920   2.703   7.160   9.133  0.0196 -1.0502 -0.3055
  167MOL0     C22921   2.714   7.017   9.149 -0.1730 -0.9503  0.1038
  167MOL0     C22922   2.773   6.951   9.020  0.5963  0.7933 -0.1635
  167MOL0     C22923   2.667   6.942   8.906  0.2907 -0.3132 -0.0909
  167MOL0     C22924   2.745   6.956   8.773 -0.4733  1.4599  0.0758
  167MOL0     N22925   2.773   7.082   8.722  0.0428 -0.7992 -0.2151
  167MOL0     C22926   2.893   7.137   8.695  0.4246  0.4582  0.1027
  167MOL0     C22927   2.869   7.262   8.654 -0.0096 -0.4923  0.0705
  167MOL0     C22928   2.972   7.352   8.609  0.1388 -0.4553 -0.0232
  167MOL0     C22929   3.095   7.375   8.719  1.0526 -0.3924  0.0900
  167MOL0     C22930   3.211   7.416   8.628 -0.4236  0.3288 -0.3674
  167MOL0     C22931   3.328   7.447   8.727  0.2461  0.3457 -0.3048
  167MOL0     O22932   3.382   7.312   8.760 -0.4251  0.7763 -0.4492
  167MOL0     C22933   3.495   7.287   8.830  0.2358 -0.5421  0.9932
  167MOL0     C22934   3.551   7.372   8.928  0.8403  0.0586  0.6084
  167MOL0     C22935   3.677   7.348   8.987 -0.0973  0.2301  0.1576
  167MOL0     C22936   3.732   7.447   9.091  0.7972 -0.0046  0.7304
  167MOL0     C22937   3.742   7.217   8.958 -0.2599  0.0616  1.0069
  167MOL0     C22938   3.857   7.159   9.026 -0.9004  0.3597 -0.6277
  167MOL0     O22939   3.954   7.254   9.076  0.0531  0.0255 -0.0386
  167MOL0     C22940   4.069   7.223   9.151  0.1969  1.3785  0.3687
  167MOL0     C22941   4.189   7.278   9.111  0.1897 -1.0288 -0.0745
  167MOL0     C22942   4.313   7.258   9.169 -1.1700  0.0630 -0.4443
  167MOL0     C22943   4.314   7.189   9.294  0.2265 -0.7728  0.1928
  167MOL0     O22944   4.435   7.180   9.356 -0.1983  0.1311  0.1601
  167MOL0     C22945   4.471   7.059   9.421  0.5798  0.0281  0.2199
  167MOL0     C22946   4.624   7.041   9.431 -0.1808  1.0345  0.8761
  167MOL0     C22947   4.644   6.909   9.491 -0.3788 -0.2492 -0.3171
  167MOL0     C22948   4.794   6.889   9.509 -0.1778 -0.0795  0.2871
  167MOL0     C22949   4.836   6.740   9.519 -0.1013 -0.0566  0.0990
  167MOL0     C22950   4.979   6.731   9.559 -0.5974  0.6916 -0.3292
  167MOL0     C22951   5.032   6.587   9.589  0.1707 -0.2910 -0.3802
  167MOL0     C22952   5.187   6.580   9.560  0.4158 -0.7067  0.2603
  167MOL0    Cl22953   5.202   6.590   9.383 -0.3441  0.1602 -0.3321
  167MOL0     C22954   4.192   7.126   9.340 -0.7508  0.4464 -0.3997
  167MOL0     C22955   4.066   7.149   9.269  0.3666 -0.4109 -0.4142
  167MOL0     O22956   3.869   7.038   9.039 -0.3805  0.4547  0.1185
  167MOL0     C22957   3.685   7.133   8.849  0.0647  0.1182 -0.2150
  167MOL0     C22958   3.559   7.167   8.796 -0.3203  0.5259 -0.1174
  167MOL0     N22959   2.736   7.286   8.666  0.5767  0.1665 -0.3213
  167MOL0     N22960   2.676   7.180   8.703  0.5151  0.0128 -0.4149
  167MOL0     C22961   2.394   7.628   9.032 -0.0722  0.3497  0.3081
  167MOL0     C22962   2.310   7.713   8.966  1.3304  0.9615 -1.0067
  167MOL0     C22963   2.106   8.111   8.806 -0.2801  0.3095  0.2251
  167MOL0     C22964   2.110   8.250   8.787 -0.6070 -0.3307  0.1133
  167MOL0     C22965   2.006   8.311   8.722  1.1471  0.9748 -0.5657
  167MOL0     C22966   1.888   8.237   8.682  0.1842 -0.2062 -1.1012
  167MOL0     O22967   1.785   8.309   8.626  0.2012  0.1761 -0.1125
  167MOL0     C22968   1.663   8.256   8.569  0.6741 -0.5729  0.5401
  167MOL0     C22969   1.699   8.188   8.442 -1.0070  0.3826 -0.2474
  167MOL0     C22970   1.580   8.169   8.369  0.1994  0.1307  1.0443
  167MOL0     C22971   1.613   8.114   8.229  1.6735  0.7960 -0.6835
  167MOL0     C22972   1.494   8.117   8.150 -0.0861  0.2624  0.2582
  167MOL0     C22973   1.389   8.135   8.089  0.2666 -0.1478  0.3225
  167MOL0     C22974   1.878   8.100   8.714 -0.2333  0.3252  0.7369
  167MOL0     C22975   1.987   8.037   8.774  0.3374 -0.6023  0.3119
  167MOL0     C22976   1.973   7.895   8.787  0.1612 -0.6599  0.5736
  167MOL0     H22977   2.484   7.998   8.975 -2.3843 -0.2348 -2.3156
  167MOL0     H22978   2.645   7.837   9.114  0.4092 -1.2300  0.4696
  167MOL0     H22979   2.600   7.424   9.066 -0.9070 -0.1418  0.1192
  167MOL0     H22980   2.476   7.433   9.195 -1.4766  0.8490 -3.1030
  167MOL0     H22981   2.774   7.400   9.219  0.5385  1.8953  1.1792
  167MOL0     H22982   2.673   7.419   9.351  0.4088  0.6910 -0.3217
  167MOL0     H22983   2.675   7.187   9.349  2.6087  3.1895 -0.1759
  167MOL0     H22984   2.525   7.213   9.263 -0.6501 -0.4901 -0.4754
  167MOL0     H22985   2.658   7.189   9.038  0.9998 -1.3789 -0.8813
  167MOL0     H22986   2.806   7.195   9.126  0.1243 -1.3409 -0.2463
  167MOL0     H22987   2.618   6.970   9.171 -0.1472 -1.1652 -0.2362
  167MOL0     H22988   2.778   6.986   9.233 -2.0584 -2.9731  0.8677
  167MOL0     H22989   2.863   7.008   8.997  1.3172 -0.9198 -1.8347
  167MOL0     H22990   2.808   6.851   9.044  0.3634  1.2299  2.2194
  167MOL0     H22991   2.589   7.018   8.907  1.3432  0.9294 -2.4343
  167MOL0     H22992   2.614   6.847   8.917  2.0182 -1.2180  0.8251
  167MOL0     H22993   2.835   6.894   8.778 -1.7354 -0.7204 -2.1580
  167MOL0     H22994   2.677   6.915   8.698  2.1834 -2.3014 -0.5778
  167MOL0     H22995   2.991   7.090   8.693  0.8031  1.1561  1.2413
  167MOL0     H22996   2.929   7.449   8.583  0.6111 -0.7625 -2.0521
  167MOL0     H22997   3.015   7.305   8.521  1.8751 -0.1222  0.6036
  167MOL0     H22998   3.065   7.455   8.787  0.2149 -1.2816  0.8076
  167MOL0     H22999   3.121   7.284   8.773 -0.4812 -2.4789 -2.4259
  167MOL0     H23000   3.256   7.341   8.562  1.4749  1.9353 -1.0036
  167MOL0     H23001   3.184   7.502   8.566 -0.1154 -0.2488 -1.3279
  167MOL0     H23002   3.400   7.507   8.671 -1.5483  0.6317 -2.4534
  167MOL0     H23003   3.291   7.495   8.818 -4.1993 -2.0840 -0.5270
  167MOL0     H23004   3.501   7.464   8.958 -0.4458 -0.8932  1.4600
  167MOL0     H23005   3.834   7.477   9.065  0.2961  0.7396 -0.4592
  167MOL0     H23006   3.733   7.411   9.194 -2.2727  0.7707  1.1421
  167MOL0     H23007   3.666   7.534   9.085 -3.9040 -3.1413  1.1481
  167MOL0     H23008   4.201   7.325   9.014 -1.8468 -1.2828 -0.4908
  167MOL0     H23009   4.410   7.297   9.141  1.5388 -3.6433  2.6505
  167MOL0     H23010   4.423   7.061   9.519  0.2587  1.8277  0.0675
  167MOL0     H23011   4.433   6.979   9.357 -1.7373  1.6465 -0.5844
  167MOL0     H23012   4.678   7.037   9.336 -3.1233  0.5627 -0.9439
  167MOL0     H23013   4.666   7.126   9.484  3.4996 -0.6272  0.9156
  167MOL0     H23014   4.600   6.831   9.427  0.0991 -0.9349  0.1771
  167MOL0     H23015   4.595   6.901   9.588  0.3589  1.5582  0.2521
  167MOL0     H23016   4.827   6.937   9.602 -0.8602 -0.0456  0.5199
  167MOL0     H23017   4.856   6.932   9.430 -0.9219  2.6639  1.0831
  167MOL0     H23018   4.773   6.690   9.593  1.1467 -1.8652  0.0110
  167MOL0     H23019   4.829   6.695   9.419 -1.5280  0.3996 -0.0389
  167MOL0     H23020   5.000   6.792   9.647  1.2102 -0.5136  0.1369
  167MOL0     H23021   5.034   6.783   9.481  0.3281 -1.1314 -0.9601
  167MOL0     H23022   4.982   6.514   9.525 -1.8153  1.6024 -1.0962
  167MOL0     H23023   5.012   6.549   9.690 -3.3466 -0.8138 -1.1539
  167MOL0     H23024   5.216   6.482   9.599 -3.2585 -1.7530  0.7420
  167MOL0     H23025   5.238   6.665   9.606 -0.8641 -0.9064  2.1766
  167MOL0     H23026   4.200   7.062   9.428  1.4055  1.4314  0.2053
  167MOL0     H23027   3.973   7.101   9.298 -0.0862  0.0649 -1.0606
  167MOL0     H23028   3.730   7.039   8.820  2.0965  2.2003 -4.7294
  167MOL0     H23029   3.502   7.117   8.718 -0.7446 -1.7634  1.5800
  167MOL0     H23030   2.358   7.525   9.034 -0.8941  0.4176 -3.5209
  167MOL0     H23031   2.212   7.677   8.937  1.8596 -1.0307 -0.5181
  167MOL0     H23032   2.194   8.313   8.815 -0.3209 -0.8531  0.4468
  167MOL0     H23033   2.003   8.418   8.704 -0.6825  0.9854 -0.3847
  167MOL0     H23034   1.614   8.183   8.634  0.2433  0.0047  0.8744
  167MOL0     H23035   1.589   8.333   8.544  2.2105  0.8619  0.2463
  167MOL0     H23036   1.758   8.098   8.460  1.0530  1.5917 -0.6396
  167MOL0     H23037   1.766   8.255   8.387  1.7321 -1.7305  0.3212
  167MOL0     H23038   1.517   8.088   8.409 -1.9859  0.8146 -0.7613
  167MOL0     H23039   1.527   8.264   8.358 -0.4142 -0.4200 -1.6594
  167MOL0     H23040   1.660   8.015   8.229  0.7174  0.2829 -2.4068
  167MOL0     H23041   1.687   8.179   8.180 -0.1391  4.4567  1.0583
  167MOL0     H23042   1.298   8.156   8.038  0.8316  0.9041 -0.2918
  167MOL0     H23043   1.786   8.044   8.700  0.1158 -0.6495  2.1443
  167MOL0     H23044   1.984   7.861   8.891 -1.5288  0.5199  1.1829
  167MOL0     H23045   1.871   7.860   8.765 -1.3212  2.9687  0.9379
  167MOL0     H23046   2.044   7.835   8.729  0.4701 -1.0436  1.3376
  168MOL0     O23047   0.998  10.106   1.073  0.6143  0.3698  0.3885
  168MOL0     C23048   0.894  10.106   1.011 -0.8806  0.1699  0.4539
  168MOL0     O23049   0.882  10.124   0.873 -0.8266  1.0846 -0.0706
  168MOL0     C23050   0.996  10.150   0.802  0.2544  0.3429 -0.8282
  168MOL0     C23051   1.035  10.278   0.768 -0.9931  0.7191 -0.7147
  168MOL0     C23052   1.145  10.308   0.689 -0.0963 -0.0311 -0.1365
  168MOL0     C23053   1.222  10.196   0.640  0.0986 -0.7520 -0.4160
  168MOL0     O23054   1.331  10.210   0.563 -0.9230 -0.5586  0.0036
  168MOL0     C23055   1.444  10.285   0.624  0.1382 -0.5280 -1.2823
  168MOL0     C23056   1.546  10.282   0.513  0.0922 -0.1665  1.0251
  168MOL0     C23057   1.690  10.320   0.535  1.2680  0.3244 -0.8338
  168MOL0     C23058   1.772  10.217   0.618 -0.6401 -0.7854 -0.2795
  168MOL0     C23059   1.917  10.271   0.615  0.0235  0.2174  0.2653
  168MOL0     C23060   2.001  10.203   0.729  0.1761 -1.4346  1.4612
  168MOL0     C23061   2.145  10.263   0.731  0.6055  0.0386 -0.4007
  168MOL0     C23062   2.235  10.207   0.611  0.1362  0.6770 -0.6982
  168MOL0     N23063   2.260  10.064   0.643  0.0684  0.3833  0.2915
  168MOL0     C23064   2.317  10.018   0.756  0.4882  0.5477 -0.1231
  168MOL0     C23065   2.277   9.885   0.757  0.8362  0.0418  0.1187
  168MOL0     C23066   2.318   9.774   0.850  0.3498 -0.0355 -0.3948
  168MOL0     C23067   2.398   9.663   0.788  1.3900 -0.5375 -0.1327
  168MOL0     C23068   2.429   9.574   0.906 -0.3770 -0.2657  0.1311
  168MOL0     C23069   2.483   9.440   0.858  0.5168 -0.6758 -0.6062
  168MOL0     O23070   2.592   9.456   0.775  0.1739  0.1644  0.4323
  168MOL0     C23071   2.718   9.449   0.833 -0.6789  0.1479  0.5364
  168MOL0     C23072   2.782   9.330   0.836  0.9797 -0.8328 -0.0011
  168MOL0     C23073   2.914   9.323   0.877  0.5478 -0.0091  0.9927
  168MOL0     C23074   2.971   9.187   0.864  1.3112  1.1628 -0.4092
  168MOL0     C23075   2.990   9.440   0.915 -0.1160  1.0083 -0.4653
  168MOL0     C23076   3.132   9.437   0.964 -0.0803  0.6124  0.0854
  168MOL0     O23077   3.194   9.314   0.995  0.8468  0.1891 -0.4825
  168MOL0     C23078   3.317   9.291   1.039 -1.2345 -0.7980 -1.3451
  168MOL0     C23079   3.367   9.164   1.029  0.3792  1.2393  0.5696
  168MOL0     C23080   3.491   9.124   1.077  0.3613 -0.7582  0.1254
  168MOL0     C23081   3.572   9.218   1.133  0.2403 -1.3546 -0.1579
  168MOL0     O23082   3.699   9.184   1.179  0.5314 -1.0433 -0.1360
  168MOL0     C23083   3.760   9.085   1.105  1.0023  0.2601  0.3971
  168MOL0     C23084   3.911   9.099   1.119  0.9231  0.0403  0.0445
  168MOL0     C23085   3.969   9.191   1.014  0.1509 -0.1205 -1.0333
  168MOL0     C23086   4.123   9.215   1.021  0.8765 -0.2606 -0.7025
  168MOL0     C23087   4.163   9.257   0.883  0.0405 -0.8972  0.4452
  168MOL0     C23088   4.315   9.299   0.881  0.6351 -1.0777  0.8100
  168MOL0     C23089   4.370   9.300   0.733  0.4752 -0.3349 -0.0305
  168MOL0     C23090   4.403   9.165   0.661  0.7316  0.1141  0.6465
  168MOL0    Cl23091   4.501   9.189   0.508  0.4412  0.0369  0.0300
  168MOL0     C23092   3.528   9.355   1.146 -0.4990  0.2598 -0.4031
  168MOL0     C23093   3.407   9.392   1.096  0.9525  0.0489  0.2892
  168MOL0     O23094   3.177   9.545   0.976 -0.7823 -0.2527 -0.3778
  168MOL0     C23095   2.920   9.564   0.911 -1.0490 -0.0180 -0.4516
  168MOL0     C23096   2.786   9.569   0.873 -0.2769 -0.2485 -0.1167
  168MOL0     N23097   2.204   9.855   0.635  0.0580 -1.1333  0.7500
  168MOL0     N23098   2.191   9.968   0.573 -0.0322 -0.2122  0.1328
  168MOL0     C23099   1.172  10.071   0.661  0.3836  0.2843 -0.6899
  168MOL0     C23100   1.067  10.047   0.753 -0.7343  1.0510 -0.4005
  168MOL0     C23101   0.768  10.084   1.098  0.7689  0.6944 -0.1781
  168MOL0     C23102   0.775  10.022   1.224 -1.5571 -0.1467  0.5323
  168MOL0     C23103   0.666   9.992   1.301  0.3823 -0.0441  0.1946
  168MOL0     C23104   0.541  10.035   1.257  1.5751 -0.5992 -0.4373
  168MOL0     O23105   0.440  10.008   1.347 -0.6591 -0.7733 -0.1310
  168MOL0     C23106   0.302  10.047   1.326  0.8681 -0.4070  0.3238
  168MOL0     C23107   0.221   9.963   1.429 -0.1634 -1.0996  0.4652
  168MOL0     C23108   0.066   9.972   1.411  0.7598 -0.2058  0.4913
  168MOL0     C23109  -0.018   9.898   1.511 -0.3017  1.2419  0.0077
  168MOL0     C23110  -0.159   9.926   1.493  0.0889 -0.3523  0.9128
  168MOL0     C23111  -0.276   9.949   1.473 -0.0079 -0.2280  0.0477
  168MOL0     C23112   0.534  10.111   1.146  0.5123 -0.4608  0.5073
  168MOL0     C23113   0.640  10.136   1.068 -0.8359  0.3853  0.7326
  168MOL0     C23114   0.622  10.229   0.952  1.0728 -0.8812  0.4149
  168MOL0     H23115   0.987  10.362   0.818 -0.6246 -1.6602  4.2345
  168MOL0     H23116   1.181  10.407   0.664 -0.6810 -0.5033 -3.2633
  168MOL0     H23117   1.479  10.233   0.714 -2.6670  0.5252  0.5549
  168MOL0     H23118   1.407  10.386   0.641 -0.3808 -0.9525  0.3003
  168MOL0     H23119   1.558  10.185   0.464 -0.1576  1.5965 -2.8843
  168MOL0     H23120   1.512  10.344   0.430  1.9682 -0.5304 -0.0794
  168MOL0     H23121   1.738  10.337   0.438 -0.5346 -0.3269 -1.8912
  168MOL0     H23122   1.689  10.411   0.595  2.6511 -0.3895  0.3131
  168MOL0     H23123   1.734  10.207   0.720  0.2682  2.6189  0.5032
  168MOL0     H23124   1.763  10.119   0.569  1.0539 -2.1267  1.8822
  168MOL0     H23125   1.918  10.379   0.633  0.1337  0.0530  1.3047
  168MOL0     H23126   1.956  10.259   0.514 -0.6905  0.6383 -0.0702
  168MOL0     H23127   1.953  10.234   0.822 -0.3981  0.4522  0.5923
  168MOL0     H23128   2.011  10.095   0.720  1.5635 -1.1380 -2.9222
  168MOL0     H23129   2.184  10.245   0.832 -1.2595  0.4128  0.4365
  168MOL0     H23130   2.138  10.372   0.728  2.9234  0.2600  0.3002
  168MOL0     H23131   2.191  10.220   0.512 -2.5620  1.2379  0.4985
  168MOL0     H23132   2.329  10.263   0.609 -0.4828  1.8173  0.6427
  168MOL0     H23133   2.385  10.075   0.819  1.0013  2.8809 -2.5839
  168MOL0     H23134   2.224   9.742   0.896 -0.4485  1.4446 -0.9398
  168MOL0     H23135   2.372   9.819   0.934 -1.0445 -3.6689  2.7732
  168MOL0     H23136   2.342   9.614   0.707 -1.1236 -1.6828  2.1437
  168MOL0     H23137   2.495   9.702   0.758  1.4998  0.2594  1.1946
  168MOL0     H23138   2.512   9.606   0.969  0.5959 -2.2056 -0.0905
  168MOL0     H23139   2.345   9.554   0.974 -1.2390  1.7784 -0.2575
  168MOL0     H23140   2.510   9.385   0.949  0.0087  1.8311  1.1684
  168MOL0     H23141   2.396   9.386   0.818  1.0114 -0.6389 -1.7849
  168MOL0     H23142   2.725   9.244   0.802 -1.0641  1.1640 -2.0078
  168MOL0     H23143   3.022   9.157   0.956  1.8881  3.0185 -0.0819
  168MOL0     H23144   3.053   9.183   0.792  2.9109 -2.2729  1.3457
  168MOL0     H23145   2.893   9.114   0.842  1.2174  0.4928  1.8399
  168MOL0     H23146   3.298   9.096   0.980  1.2665  1.6734 -1.3916
  168MOL0     H23147   3.508   9.018   1.089  1.3067 -0.8577 -1.6715
  168MOL0     H23148   3.727   8.989   1.147  0.2985  0.6574  0.7654
  168MOL0     H23149   3.735   9.072   1.000 -2.1664  1.0924  0.9443
  168MOL0     H23150   3.937   9.127   1.222  4.0213 -2.1610 -0.0177
  168MOL0     H23151   3.965   9.004   1.112  1.1470  0.2479 -1.1956
  168MOL0     H23152   3.903   9.278   1.017 -1.5299 -1.3608 -0.1165
  168MOL0     H23153   3.940   9.149   0.917 -3.7268  0.6642 -0.3746
  168MOL0     H23154   4.181   9.129   1.057 -0.4742 -1.4809 -1.3391
  168MOL0     H23155   4.140   9.298   1.089  1.4281 -1.0964  0.2110
  168MOL0     H23156   4.149   9.184   0.803  3.6336 -0.1363 -1.0823
  168MOL0     H23157   4.098   9.339   0.851 -0.8330 -1.6361  0.3005
  168MOL0     H23158   4.384   9.254   0.953  0.0182  1.0816  2.8882
  168MOL0     H23159   4.321   9.405   0.907 -2.2900 -0.6871  0.2841
  168MOL0     H23160   4.465   9.354   0.738  0.8300 -0.2631 -4.1302
  168MOL0     H23161   4.311   9.360   0.664  0.8648 -0.0483 -0.1215
  168MOL0     H23162   4.312   9.106   0.650  2.4974 -2.7844  0.4980
  168MOL0     H23163   4.458   9.106   0.735 -2.4005 -5.3335 -0.7959
  168MOL0     H23164   3.597   9.414   1.207  1.4125 -2.4446  0.2358
  168MOL0     H23165   3.366   9.492   1.106 -0.2285 -0.6313  4.5619
  168MOL0     H23166   2.963   9.663   0.928  0.4694 -0.2849 -2.3766
  168MOL0     H23167   2.735   9.664   0.866 -1.0275 -0.7277 -1.5474
  168MOL0     H23168   1.215   9.988   0.605  0.1028  0.6884 -1.5105
  168MOL0     H23169   1.031   9.946   0.766 -0.2108  0.8862 -0.2311
  168MOL0     H23170   0.871   9.978   1.251 -2.0489 -1.6755 -0.0796
  168MOL0     H23171   0.664   9.943   1.398  0.4049 -2.3731 -0.9253
  168MOL0     H23172   0.283  10.154   1.332 -3.3545 -0.9724 -0.0964
  168MOL0     H23173   0.270  10.026   1.223  2.2608  1.7855 -0.6380
  168MOL0     H23174   0.252   9.998   1.528  3.3562 -2.2223 -0.1001
  168MOL0     H23175   0.249   9.858   1.428 -3.7587 -2.2159  2.2086
  168MOL0     H23176   0.038  10.078   1.413  0.9706 -0.1445  0.1238
  168MOL0     H23177   0.036   9.926   1.316  0.5427 -0.1271  0.5201
  168MOL0     H23178   0.007   9.931   1.612 -0.2111 -3.5542  1.8171
  168MOL0     H23179   0.006   9.793   1.494 -0.9563  0.4364  3.4709
  168MOL0     H23180  -0.380   9.972   1.462 -0.3353  0.8680  3.7620
  168MOL0     H23181   0.439  10.156   1.121  0.5243 -0.7754 -0.1408
  168MOL0     H23182   0.699  10.306   0.941 -3.1292  3.5806 -2.5257
  168MOL0     H23183   0.605  10.166   0.864 -0.5218  0.7625 -0.5462
  168MOL0     H23184   0.537  10.295   0.974  0.4689 -1.3950 -0.3159
  169MOL0     O23185   1.509  10.400   2.209 -0.5910 -0.2451 -0.2520
  169MOL0     C23186   1.586  10.414   2.115  0.1814  0.2503 -0.0993
  169MOL0     O23187   1.560  10.371   1.984  0.2829 -0.0965 -0.3481
  169MOL0     C23188   1.450  10.280   1.962  0.0609 -0.5000 -0.6896
  169MOL0     C23189   1.475  10.158   1.900 -0.6032 -0.0620  0.3320
  169MOL0     C23190   1.386  10.052   1.911  0.4912 -0.3563 -0.3333
  169MOL0     C23191   1.257  10.071   1.959  0.4649  0.2068 -0.0426
  169MOL0     O23192   1.171   9.968   1.976  0.2658  0.5306 -0.7892
  169MOL0     C23193   1.210   9.831   1.963 -0.8923 -0.4129 -0.3636
  169MOL0     C23194   1.105   9.751   2.040  0.7840  0.1720 -0.0380
  169MOL0     C23195   0.952   9.764   2.001 -0.7278  0.2199 -0.4852
  169MOL0     C23196   0.880   9.628   2.012  0.0984 -0.5702  0.0697
  169MOL0     C23197   0.727   9.604   1.969 -1.1359  0.1421 -0.2577
  169MOL0     C23198   0.672   9.697   1.859 -0.2312  0.4528  0.1570
  169MOL0     C23199   0.525   9.674   1.830  0.2277 -0.4068  0.1502
  169MOL0     C23200   0.424   9.699   1.941  0.1613  0.1998  0.4244
  169MOL0     N23201   0.287   9.722   1.899 -0.0014  0.1397  0.5392
  169MOL0     C23202   0.184   9.635   1.908 -0.1236 -0.2335  1.0228
  169MOL0     C23203   0.075   9.694   1.864 -0.3829  0.6840 -0.2479
  169MOL0     C23204  -0.062   9.642   1.842  0.5038 -0.2136  0.7210
  169MOL0     C23205  -0.169   9.695   1.935 -0.4196  0.0479 -0.7161
  169MOL0     C23206  -0.188   9.842   1.935 -0.3470 -0.4928 -0.4322
  169MOL0     C23207  -0.294   9.877   2.030 -1.1890 -0.0004 -0.6691
  169MOL0     O23208  -0.289  10.016   2.057 -0.7470 -0.2328  0.3182
  169MOL0     C23209  -0.373  10.060   2.154  0.2634 -0.6225 -1.2626
  169MOL0     C23210  -0.312  10.151   2.241 -0.0079  0.2611  0.3428
  169MOL0     C23211  -0.376  10.217   2.344  1.3702 -0.0531 -0.7535
  169MOL0     C23212  -0.295  10.306   2.424 -0.5923  0.5629  0.1330
  169MOL0     C23213  -0.512  10.174   2.368  0.3405 -0.0671 -0.3585
  169MOL0     C23214  -0.601  10.224   2.480  0.7773  0.7894 -0.3777
  169MOL0     O23215  -0.591  10.361   2.501 -0.5018  0.2916  0.3489
  169MOL0     C23216  -0.635  10.416   2.611  0.9164  0.1929  0.3410
  169MOL0     C23217  -0.636  10.560   2.628  0.4357  0.6121  0.3140
  169MOL0     C23218  -0.653  10.617   2.754  1.1340 -0.1500  0.6804
  169MOL0     C23219  -0.688  10.543   2.868 -0.5635 -0.8009 -1.1100
  169MOL0     O23220  -0.721  10.601   2.991  0.2644 -1.2098  0.4858
  169MOL0     C23221  -0.843  10.673   2.994 -0.6700 -0.3072  0.0333
  169MOL0     C23222  -0.957  10.573   3.009 -0.1562 -0.4406  0.1384
  169MOL0     C23223  -1.074  10.638   3.084 -0.3646  0.1452 -0.0663
  169MOL0     C23224  -1.157  10.742   3.000  0.3315  0.7097  0.0684
  169MOL0     C23225  -1.223  10.848   3.080  0.1861  0.8175 -0.3325
  169MOL0     C23226  -1.297  10.934   2.974 -0.1838  0.2898  0.2384
  169MOL0     C23227  -1.343  11.065   3.026  1.2958  0.0688  1.0357
  169MOL0     C23228  -1.454  11.042   3.129 -0.1687 -0.2282  0.1021
  169MOL0    Cl23229  -1.557  11.184   3.136 -0.1430  0.1807 -0.6096
  169MOL0     C23230  -0.701  10.408   2.851 -0.4989  0.8474 -0.5825
  169MOL0     C23231  -0.661  10.343   2.735  0.8114  0.1239 -0.2032
  169MOL0     O23232  -0.690  10.147   2.530  0.5667 -0.3283 -0.2715
  169MOL0     C23233  -0.568  10.079   2.286 -0.7539  0.0898 -0.6606
  169MOL0     C23234  -0.506  10.025   2.182  0.0722  0.1887 -0.1724
  169MOL0     N23235   0.112   9.820   1.822 -1.0576 -1.1827  0.7671
  169MOL0     N23236   0.244   9.834   1.846  0.1586 -0.9165  0.5546
  169MOL0     C23237   1.219  10.202   2.003  0.0953 -0.2112  0.2942
  169MOL0     C23238   1.321  10.301   2.011 -0.1700 -0.6612 -0.1765
  169MOL0     C23239   1.706  10.506   2.124 -0.2083  0.3570  0.4570
  169MOL0     C23240   1.827  10.466   2.053 -0.8977 -0.0651  0.3354
  169MOL0     C23241   1.947  10.543   2.071 -0.6781  0.8949 -0.0978
  169MOL0     C23242   1.952  10.653   2.154 -0.5738  0.1893  1.1158
  169MOL0     O23243   2.064  10.724   2.187  0.0343 -0.3923 -1.1541
  169MOL0     C23244   2.196  10.683   2.128  0.5504  0.4784  0.1225
  169MOL0     C23245   2.297  10.777   2.174 -0.3694 -0.6657 -1.3308
  169MOL0     C23246   2.299  10.765   2.332 -0.7832  0.0079  0.1772
  169MOL0     C23247   2.379  10.888   2.388  0.3018 -0.0150  0.3113
  169MOL0     C23248   2.389  10.896   2.535 -0.5814  0.1907  0.3093
  169MOL0     C23249   2.400  10.920   2.651  0.8790 -0.6995  0.1855
  169MOL0     C23250   1.834  10.681   2.215 -0.0640  0.6214 -0.8407
  169MOL0     C23251   1.713  10.619   2.200  0.2961  0.0394 -0.4446
  169MOL0     C23252   1.586  10.690   2.262  0.7752 -0.3638 -0.4444
  169MOL0     H23253   1.579  10.146   1.874 -0.3651  1.0907  0.6793
  169MOL0     H23254   1.427   9.960   1.871 -1.2950 -2.3821  2.1461
  169MOL0     H23255   1.303   9.810   2.018 -1.5091 -1.3307  0.3495
  169MOL0     H23256   1.210   9.808   1.856  1.4554 -0.4313 -0.4097
  169MOL0     H23257   1.122   9.644   2.025 -0.1824  0.0877 -0.5985
  169MOL0     H23258   1.108   9.781   2.145 -1.5896 -0.1316  0.1901
  169MOL0     H23259   0.903   9.830   2.073 -2.0384 -1.9962  0.7662
  169MOL0     H23260   0.930   9.786   1.896 -1.1012 -3.0454 -1.1954
  169MOL0     H23261   0.945   9.560   1.956  0.6501  1.0924 -1.4412
  169MOL0     H23262   0.888   9.607   2.119 -1.1671  2.7526  0.9680
  169MOL0     H23263   0.670   9.624   2.061  0.0401  2.2426  0.0782
  169MOL0     H23264   0.717   9.496   1.950  2.8771 -0.1766 -1.5009
  169MOL0     H23265   0.689   9.794   1.905 -2.0341 -0.4971  3.1431
  169MOL0     H23266   0.740   9.674   1.777 -0.0675 -2.8165  1.0676
  169MOL0     H23267   0.507   9.573   1.792 -0.3355 -0.5900  0.8669
  169MOL0     H23268   0.492   9.749   1.757 -0.3206  0.9684  1.7531
  169MOL0     H23269   0.434   9.611   2.006  2.3282  0.1495  0.0918
  169MOL0     H23270   0.466   9.782   1.998  2.0829 -0.2277 -0.3025
  169MOL0     H23271   0.181   9.529   1.931  3.5395 -0.4510  1.0608
  169MOL0     H23272  -0.059   9.534   1.857 -0.6450 -0.0703  2.3037
  169MOL0     H23273  -0.090   9.666   1.739 -0.8464  0.3594  1.1961
  169MOL0     H23274  -0.271   9.656   1.921 -1.8230  1.8358  3.0690
  169MOL0     H23275  -0.137   9.666   2.035  1.8496  1.6437 -0.9065
  169MOL0     H23276  -0.094   9.881   1.975 -1.4027  0.0025  1.7291
  169MOL0     H23277  -0.207   9.883   1.836  0.6713 -0.7079 -0.7309
  169MOL0     H23278  -0.392   9.849   1.990 -0.9395 -0.6899 -0.8156
  169MOL0     H23279  -0.273   9.818   2.120 -0.8321 -0.3732 -0.9971
  169MOL0     H23280  -0.207  10.177   2.233 -0.4427  1.8837 -0.5768
  169MOL0     H23281  -0.267  10.395   2.368  0.4209  0.9381  1.1892
  169MOL0     H23282  -0.206  10.251   2.456 -2.2271 -1.9876  0.6275
  169MOL0     H23283  -0.349  10.336   2.515  0.6837  3.0253  0.1536
  169MOL0     H23284  -0.607  10.625   2.546 -1.2167  1.2116  0.1723
  169MOL0     H23285  -0.659  10.725   2.763 -2.9445  0.0540 -1.8212
  169MOL0     H23286  -0.848  10.737   3.083 -1.6618  2.2314 -1.7239
  169MOL0     H23287  -0.851  10.751   2.917  4.8115  1.2860  0.6715
  169MOL0     H23288  -0.991  10.537   2.911 -0.3177 -0.5643  0.2393
  169MOL0     H23289  -0.920  10.489   3.069  1.0200  0.5163  0.7973
  169MOL0     H23290  -1.048  10.686   3.178 -2.0656 -1.4645  1.3312
  169MOL0     H23291  -1.125  10.545   3.112  3.0838 -2.1909 -0.8651
  169MOL0     H23292  -1.228  10.676   2.950  2.1062 -0.5987 -0.8702
  169MOL0     H23293  -1.094  10.790   2.924  1.4212  1.0893  1.1751
  169MOL0     H23294  -1.284  10.805   3.161  1.6906  0.0094  0.4027
  169MOL0     H23295  -1.154  10.920   3.126 -0.7589 -0.3778  3.3007
  169MOL0     H23296  -1.382  10.872   2.944  0.2995 -0.5341  0.5389
  169MOL0     H23297  -1.233  10.954   2.888  1.0298 -1.4422  0.6748
  169MOL0     H23298  -1.376  11.122   2.938  0.0552 -3.0557 -0.6911
  169MOL0     H23299  -1.260  11.117   3.074  3.1035 -1.2851 -0.4665
  169MOL0     H23300  -1.392  11.021   3.218  0.4867 -0.0602 -0.3094
  169MOL0     H23301  -1.521  10.959   3.104  1.6469 -1.6333 -0.3812
  169MOL0     H23302  -0.716  10.349   2.941  1.2446  1.4808  0.1797
  169MOL0     H23303  -0.644  10.236   2.747  0.6421  0.3461  2.7593
  169MOL0     H23304  -0.670  10.056   2.316  0.5882 -0.8811  4.1667
  169MOL0     H23305  -0.559   9.965   2.109 -1.2003 -1.1900  1.7863
  169MOL0     H23306   1.117  10.221   2.036 -0.4101 -0.6898 -0.9540
  169MOL0     H23307   1.305  10.401   2.052 -2.5647 -1.1007  0.1068
  169MOL0     H23308   1.824  10.375   1.994 -2.2007 -0.3164  0.7659
  169MOL0     H23309   2.022  10.511   1.999 -0.7924  1.7366 -0.6011
  169MOL0     H23310   2.222  10.583   2.166 -2.1500  0.2907  1.7539
  169MOL0     H23311   2.195  10.680   2.019 -2.5817 -2.1438  0.0636
  169MOL0     H23312   2.276  10.879   2.144  0.2471 -0.6796 -1.8283
  169MOL0     H23313   2.394  10.751   2.131  0.6037  1.8759 -0.8360
  169MOL0     H23314   2.201  10.759   2.380 -0.5297  1.0003  0.8687
  169MOL0     H23315   2.349  10.670   2.350 -0.3293  0.5155  1.7681
  169MOL0     H23316   2.336  10.981   2.350 -0.8725  0.5254  2.7780
  169MOL0     H23317   2.479  10.871   2.346  0.9410  0.9366  1.3956
  169MOL0     H23318   2.409  10.941   2.756 -0.2075 -2.0621  0.5777
  169MOL0     H23319   1.832  10.756   2.293 -1.6689  0.5421 -0.7778
  169MOL0     H23320   1.528  10.624   2.327  0.5152  0.4792  0.1926
  169MOL0     H23321   1.602  10.785   2.312  0.5013  1.2658 -3.2641
  169MOL0     H23322   1.519  10.708   2.177  0.1632 -1.0122 -0.1108
  170MOL0     O23323   0.029   1.681   4.353 -0.2363  0.5030 -0.0401
  170MOL0     C23324  -0.034   1.718   4.254 -0.5365 -0.6135  0.3313
  170MOL0     O23325  -0.114   1.645   4.175  0.5447 -0.2399 -0.4151
  170MOL0     C23326  -0.140   1.522   4.218 -0.3329  0.8213  0.9487
  170MOL0     C23327  -0.203   1.498   4.341  0.2964 -0.5276  0.4312
  170MOL0     C23328  -0.260   1.367   4.356 -0.4810 -0.4656  0.3290
  170MOL0     C23329  -0.258   1.262   4.263  0.2279 -0.0083  0.4273
  170MOL0     O23330  -0.310   1.138   4.275  0.2124  0.0598  0.1454
  170MOL0     C23331  -0.367   1.093   4.402  0.0067 -1.0739 -1.0100
  170MOL0     C23332  -0.451   0.976   4.376  0.0913 -1.1694  0.4199
  170MOL0     C23333  -0.475   0.884   4.492 -0.4656 -0.9838 -1.2850
  170MOL0     C23334  -0.593   0.801   4.459 -0.4877  1.3009 -0.3263
  170MOL0     C23335  -0.726   0.872   4.474 -0.4844 -0.5023 -0.7549
  170MOL0     C23336  -0.843   0.767   4.444  0.6502 -0.2576  0.3638
  170MOL0     C23337  -0.984   0.810   4.494  0.2530  0.2673 -0.4056
  170MOL0     C23338  -1.096   0.726   4.446 -0.3519 -0.5218  0.4702
  170MOL0     N23339  -1.216   0.752   4.518 -0.2321 -0.0992  0.5429
  170MOL0     C23340  -1.287   0.866   4.513 -0.6315  0.0015 -0.0578
  170MOL0     C23341  -1.404   0.843   4.587 -0.3420 -0.7755  0.6035
  170MOL0     C23342  -1.521   0.941   4.625  0.0892 -0.2552  0.9702
  170MOL0     C23343  -1.653   0.866   4.619 -0.1881 -0.3036  0.5294
  170MOL0     C23344  -1.675   0.798   4.485  0.3462 -0.6408  0.6662
  170MOL0     C23345  -1.796   0.698   4.499 -0.0158  0.2684  0.9212
  170MOL0     O23346  -1.910   0.748   4.573  0.0087 -0.0517 -0.9161
  170MOL0     C23347  -1.986   0.844   4.520 -0.1065 -0.4002 -1.0200
  170MOL0     C23348  -2.015   0.933   4.619 -0.2522  0.2357 -0.2741
  170MOL0     C23349  -2.101   1.035   4.588  0.2641 -0.6259  0.5895
  170MOL0     C23350  -2.124   1.130   4.693  0.1537 -0.7837  0.4807
  170MOL0     C23351  -2.153   1.050   4.450  0.5762  0.0134 -1.1193
  170MOL0     C23352  -2.261   1.144   4.405  0.3129  0.2956  0.1013
  170MOL0     O23353  -2.308   1.141   4.278  0.5520 -0.1216  0.0889
  170MOL0     C23354  -2.413   1.229   4.250 -0.3087 -0.6804  0.7811
  170MOL0     C23355  -2.384   1.365   4.210  0.1281  0.1661  0.0337
  170MOL0     C23356  -2.491   1.442   4.174  0.0330 -0.8783 -0.6443
  170MOL0     C23357  -2.629   1.406   4.184 -0.0023  0.3035  0.5059
  170MOL0     O23358  -2.722   1.499   4.170 -0.3662  0.2451  0.4966
  170MOL0     C23359  -2.858   1.475   4.186 -0.8568 -0.2510  0.0441
  170MOL0     C23360  -2.946   1.576   4.128 -0.7658 -0.2176  0.1491
  170MOL0     C23361  -2.933   1.718   4.185  0.2191  0.3918  0.0271
  170MOL0     C23362  -2.992   1.820   4.086 -0.6740  0.1147 -0.4492
  170MOL0     C23363  -3.141   1.833   4.107 -0.1340  0.9852  0.7251
  170MOL0     C23364  -3.198   1.926   3.995  0.6291  0.5824  0.2714
  170MOL0     C23365  -3.343   1.916   3.991 -0.1212  0.7530 -0.0805
  170MOL0     C23366  -3.418   2.009   3.894  0.1007 -0.7372 -0.2912
  170MOL0    Cl23367  -3.596   1.999   3.921  0.3067 -0.2920  0.1864
  170MOL0     C23368  -2.652   1.274   4.228  0.4458 -0.8046 -0.9780
  170MOL0     C23369  -2.546   1.181   4.248  0.8067  0.5620  0.9881
  170MOL0     O23370  -2.289   1.230   4.489 -0.0979  0.5565 -0.4810
  170MOL0     C23371  -2.109   0.964   4.356  0.3271  0.8034 -0.3256
  170MOL0     C23372  -2.025   0.860   4.390 -0.6250  0.5101  0.7332
  170MOL0     N23373  -1.391   0.722   4.646  0.2700  0.4350 -0.4264
  170MOL0     N23374  -1.277   0.667   4.605  0.0276  0.6087  0.2165
  170MOL0     C23375  -0.181   1.291   4.149  1.5677 -0.2259 -1.0860
  170MOL0     C23376  -0.129   1.414   4.123 -0.8772 -0.2680  0.4488
  170MOL0     C23377  -0.009   1.854   4.209  0.8047 -0.2359  0.3949
  170MOL0     C23378  -0.069   1.959   4.276  1.1124 -0.0913 -0.6802
  170MOL0     C23379  -0.065   2.092   4.231 -0.1276  0.4414 -0.8411
  170MOL0     C23380   0.003   2.113   4.108 -0.3246 -0.6905  0.8923
  170MOL0     O23381  -0.011   2.229   4.047 -0.7543 -0.2786 -0.3339
  170MOL0     C23382   0.097   2.309   4.036  0.4525  0.4192 -0.4413
  170MOL0     C23383   0.109   2.360   3.889  0.5789 -0.8631  0.0942
  170MOL0     C23384   0.244   2.422   3.851  0.0901 -0.0395 -0.1894
  170MOL0     C23385   0.257   2.445   3.705 -0.4554 -1.2076  0.0047
  170MOL0     C23386   0.373   2.537   3.681 -0.2773  0.1301 -0.8265
  170MOL0     C23387   0.481   2.601   3.665  0.4068  0.1846 -0.1026
  170MOL0     C23388   0.073   2.003   4.050 -0.1294 -0.4492  0.7681
  170MOL0     C23389   0.059   1.873   4.089 -0.3161 -0.4880 -0.6519
  170MOL0     C23390   0.149   1.772   4.029 -0.0994  0.1980 -0.5157
  170MOL0     H23391  -0.211   1.580   4.412 -0.6620  0.9503 -1.2809
  170MOL0     H23392  -0.319   1.349   4.445 -0.5536  1.2533  0.6683
  170MOL0     H23393  -0.417   1.174   4.456  1.9191  0.6261 -1.6563
  170MOL0     H23394  -0.286   1.063   4.469 -0.2271  1.9473  0.8239
  170MOL0     H23395  -0.545   1.014   4.334  2.4087  1.4735 -2.9547
  170MOL0     H23396  -0.404   0.922   4.294 -0.9348 -0.4482 -0.6812
  170MOL0     H23397  -0.379   0.835   4.515  1.2407  1.4641 -2.6896
  170MOL0     H23398  -0.504   0.943   4.579 -1.3828 -2.1824 -0.7422
  170MOL0     H23399  -0.573   0.747   4.366 -2.5601  0.7913 -0.5238
  170MOL0     H23400  -0.600   0.717   4.528  0.0685  1.7406  0.2789
  170MOL0     H23401  -0.749   0.941   4.393  0.7325 -1.1986 -1.7345
  170MOL0     H23402  -0.733   0.925   4.569  1.3572 -1.6557  0.0863
  170MOL0     H23403  -0.862   0.762   4.337 -3.2993  0.4138  0.8797
  170MOL0     H23404  -0.816   0.664   4.466  0.3815 -0.8456 -1.8236
  170MOL0     H23405  -1.008   0.910   4.457 -1.8510 -0.0962 -0.1978
  170MOL0     H23406  -0.991   0.804   4.604 -0.5220 -1.3126 -0.5007
  170MOL0     H23407  -1.115   0.747   4.340  1.7183 -0.8453 -0.0047
  170MOL0     H23408  -1.061   0.622   4.452 -0.3219 -0.5979 -0.7846
  170MOL0     H23409  -1.251   0.955   4.462  1.7737  0.4259  2.1386
  170MOL0     H23410  -1.521   1.019   4.549 -2.2923 -0.1397  1.0178
  170MOL0     H23411  -1.496   0.986   4.722 -0.6950  0.6346  0.7631
  170MOL0     H23412  -1.654   0.786   4.693 -2.6027 -2.6165 -1.8039
  170MOL0     H23413  -1.727   0.944   4.640 -0.1770  0.1662 -1.0510
  170MOL0     H23414  -1.690   0.882   4.416 -0.3797 -0.9912  0.3862
  170MOL0     H23415  -1.585   0.744   4.454 -0.2381  0.0400 -2.6182
  170MOL0     H23416  -1.840   0.660   4.406 -1.4028  3.6603  0.0294
  170MOL0     H23417  -1.768   0.606   4.551 -0.7262 -1.1246 -1.0135
  170MOL0     H23418  -1.977   0.917   4.720 -4.7888  0.8311  1.7515
  170MOL0     H23419  -2.117   1.236   4.670  3.3077 -0.7538  1.1083
  170MOL0     H23420  -2.054   1.127   4.778  0.0923  1.7268  0.6847
  170MOL0     H23421  -2.228   1.119   4.726  0.8414 -0.7960  2.8197
  170MOL0     H23422  -2.286   1.411   4.207 -1.3077  3.5223 -0.9142
  170MOL0     H23423  -2.479   1.545   4.142 -2.3134  0.9557  3.4573
  170MOL0     H23424  -2.890   1.377   4.148 -0.9324  0.4400 -1.7248
  170MOL0     H23425  -2.868   1.478   4.295 -1.0219  0.0688  0.0215
  170MOL0     H23426  -2.928   1.590   4.020 -0.7106 -0.1504  0.1665
  170MOL0     H23427  -3.044   1.529   4.133 -0.9070  0.0859  0.1973
  170MOL0     H23428  -2.827   1.744   4.188  0.3279  0.8007 -3.1477
  170MOL0     H23429  -2.980   1.718   4.283  0.0637 -3.0649  0.0991
  170MOL0     H23430  -2.971   1.793   3.982 -3.5355 -0.4057 -0.9776
  170MOL0     H23431  -2.940   1.916   4.098 -2.5930  1.1644 -0.1420
  170MOL0     H23432  -3.197   1.741   4.089 -0.8130  1.3719  0.8361
  170MOL0     H23433  -3.158   1.865   4.210  5.0005  0.4364  2.0445
  170MOL0     H23434  -3.163   1.897   3.895  1.0871 -0.3060  0.6813
  170MOL0     H23435  -3.169   2.030   4.016 -0.2060  0.8643  0.0917
  170MOL0     H23436  -3.380   1.935   4.092  3.3213 -1.2545  1.7420
  170MOL0     H23437  -3.373   1.814   3.965 -1.9721  1.5619 -1.3388
  170MOL0     H23438  -3.383   2.001   3.790 -1.0796 -2.1947 -0.6018
  170MOL0     H23439  -3.401   2.110   3.934 -0.4959 -0.1798 -1.3881
  170MOL0     H23440  -2.755   1.242   4.240  1.1218 -2.8597 -0.2047
  170MOL0     H23441  -2.562   1.079   4.282  0.0136  1.0530  2.1740
  170MOL0     H23442  -2.127   0.962   4.249 -1.7469 -1.5052 -0.0418
  170MOL0     H23443  -1.989   0.789   4.317  0.3412 -0.3339  1.9924
  170MOL0     H23444  -0.167   1.230   4.060  3.7049  0.4855 -1.2951
  170MOL0     H23445  -0.088   1.430   4.023 -1.3992 -0.0874  0.2572
  170MOL0     H23446  -0.128   1.945   4.366  0.9076  1.1276 -0.6022
  170MOL0     H23447  -0.132   2.169   4.268  0.7435  2.4812 -3.2299
  170MOL0     H23448   0.077   2.400   4.094 -2.5918  0.1567 -0.9329
  170MOL0     H23449   0.194   2.266   4.062  0.5623 -0.5150 -2.2498
  170MOL0     H23450   0.026   2.429   3.869 -0.5004 -1.4895  2.1159
  170MOL0     H23451   0.086   2.273   3.826  4.8365 -0.6123 -2.1547
  170MOL0     H23452   0.237   2.518   3.903 -0.4515  0.1420 -0.5914
  170MOL0     H23453   0.331   2.371   3.895 -0.0564  0.9965  1.3729
  170MOL0     H23454   0.169   2.489   3.657 -2.1200 -3.2048  1.0594
  170MOL0     H23455   0.269   2.346   3.661 -0.0100 -1.8973  1.5883
  170MOL0     H23456   0.583   2.635   3.661  0.5677 -0.3382 -0.5569
  170MOL0     H23457   0.130   2.038   3.966 -0.4315  0.7892  1.0552
  170MOL0     H23458   0.094   1.692   3.978 -1.4292 -0.9425  2.4472
  170MOL0     H23459   0.217   1.820   3.958 -1.3394  0.9859 -1.2253
  170MOL0     H23460   0.211   1.715   4.098  1.2005 -0.1120 -1.8974
  171MOL0     O23461   1.113  11.135   1.482 -0.2021 -0.5663 -0.0667
  171MOL0     C23462   1.041  11.057   1.532 -0.5621  0.6402 -0.4377
  171MOL0     O23463   1.049  11.018   1.665  0.2558  0.0452  0.0739
  171MOL0     C23464   1.121  11.103   1.740 -0.1562  0.4398  0.8731
  171MOL0     C23465   1.054  11.211   1.789 -0.0191  0.4129 -0.5428
  171MOL0     C23466   1.114  11.307   1.869 -0.5988 -0.1470  0.5600
  171MOL0     C23467   1.257  11.305   1.890  0.0714 -0.1929 -0.7605
  171MOL0     O23468   1.337  11.392   1.961  1.0891 -0.3220 -0.6664
  171MOL0     C23469   1.320  11.527   1.930  0.0117 -0.5079 -0.3626
  171MOL0     C23470   1.450  11.602   1.974 -0.0204 -1.0043  0.5377
  171MOL0     C23471   1.579  11.545   1.921  0.0085 -0.1110  0.3293
  171MOL0     C23472   1.700  11.635   1.943 -0.4736 -0.6122  0.7046
  171MOL0     C23473   1.836  11.556   1.938  0.6500  0.2847  0.1018
  171MOL0     C23474   1.952  11.628   1.992  0.0538 -0.3743 -1.0672
  171MOL0     C23475   1.938  11.647   2.140  0.3350  0.3852 -0.3601
  171MOL0     C23476   2.065  11.655   2.229  0.3622 -0.4157 -0.0234
  171MOL0     N23477   2.149  11.535   2.220 -0.5114  0.2551  0.0038
  171MOL0     C23478   2.258  11.515   2.139 -0.5213  0.4371 -0.5141
  171MOL0     C23479   2.279  11.381   2.141  0.9514 -0.1076 -0.8103
  171MOL0     C23480   2.392  11.322   2.056 -0.0143  0.4377 -0.5045
  171MOL0     C23481   2.535  11.332   2.107  0.5105  0.0015  0.1087
  171MOL0     C23482   2.564  11.344   2.262 -0.3089  0.4414  1.1400
  171MOL0     C23483   2.720  11.329   2.285  0.0887  1.1131  0.6815
  171MOL0     O23484   2.760  11.204   2.342 -0.7591  0.7273 -0.2171
  171MOL0     C23485   2.841  11.116   2.268  0.0783 -0.7341 -0.1038
  171MOL0     C23486   2.838  10.981   2.321  0.3488  0.4688  0.2385
  171MOL0     C23487   2.902  10.871   2.253  0.3612 -0.4511 -0.4771
  171MOL0     C23488   2.909  10.739   2.313 -0.0969 -0.0175  0.1339
  171MOL0     C23489   2.962  10.904   2.123 -0.6257  0.2901  0.4154
  171MOL0     C23490   3.030  10.803   2.043  0.4855 -0.2828  1.0878
  171MOL0     O23491   3.043  10.829   1.914 -0.6844  0.5919  0.1042
  171MOL0     C23492   3.061  10.723   1.822  0.3320 -0.7063 -0.0628
  171MOL0     C23493   3.179  10.656   1.820 -0.0801 -0.5525 -0.4296
  171MOL0     C23494   3.185  10.544   1.737 -1.0180 -0.4342 -0.9388
  171MOL0     C23495   3.078  10.510   1.654 -0.0800 -0.1148  1.3165
  171MOL0     O23496   3.089  10.399   1.572  0.0391  0.0487 -0.2083
  171MOL0     C23497   2.996  10.377   1.469  0.6770 -0.0353 -0.1903
  171MOL0     C23498   3.051  10.294   1.365 -0.6465  0.8737  0.4415
  171MOL0     C23499   2.950  10.217   1.273 -0.5303  0.0051  0.6661
  171MOL0     C23500   3.014  10.126   1.161 -0.0398 -0.1921 -0.9339
  171MOL0     C23501   3.108  10.184   1.063 -1.3220  0.0571  0.7544
  171MOL0     C23502   3.040  10.269   0.963  0.1981 -0.5261  0.3760
  171MOL0     C23503   3.143  10.316   0.860 -1.2776 -0.3137 -0.7083
  171MOL0     C23504   3.092  10.440   0.782  0.5124 -0.2832  0.0978
  171MOL0    Cl23505   2.932  10.412   0.701  0.0032  0.4405 -0.1346
  171MOL0     C23506   2.957  10.572   1.669 -0.1522 -0.2056 -0.2632
  171MOL0     C23507   2.949  10.687   1.745 -0.3058  1.2012  1.6865
  171MOL0     O23508   3.061  10.695   2.090 -0.6385 -0.1869 -0.4310
  171MOL0     C23509   2.969  11.034   2.074 -0.2685 -0.1936 -0.1128
  171MOL0     C23510   2.910  11.141   2.151 -1.1137 -0.0844 -0.3357
  171MOL0     N23511   2.189  11.326   2.230  0.0959 -0.0130 -0.0048
  171MOL0     N23512   2.111  11.417   2.275  0.1720  0.5637 -1.2008
  171MOL0     C23513   1.330  11.203   1.834  0.0852 -0.1588  0.6274
  171MOL0     C23514   1.263  11.114   1.745  0.4040  0.1026  0.1247
  171MOL0     C23515   0.932  10.997   1.456  0.2242  0.4707 -0.7354
  171MOL0     C23516   0.860  10.890   1.510 -0.7225 -0.4860  0.4509
  171MOL0     C23517   0.741  10.849   1.456 -0.2931 -0.5956  0.1500
  171MOL0     C23518   0.695  10.898   1.346  0.4476 -0.3603 -0.6159
  171MOL0     O23519   0.570  10.868   1.300  0.2124 -0.7566 -0.0284
  171MOL0     C23520   0.461  10.891   1.389  0.1745 -0.0874  0.8859
  171MOL0     C23521   0.352  10.968   1.306 -1.1404  0.5978  0.3996
  171MOL0     C23522   0.314  10.861   1.194 -0.3987  0.3172 -0.7078
  171MOL0     C23523   0.173  10.802   1.230 -0.5331 -0.4356 -0.8221
  171MOL0     C23524   0.177  10.718   1.351  0.5123 -0.5591 -0.6521
  171MOL0     C23525   0.166  10.658   1.451 -0.5636  0.1118  0.0060
  171MOL0     C23526   0.775  10.991   1.277  0.8173 -0.8354  0.2796
  171MOL0     C23527   0.892  11.048   1.334 -0.9097  0.2468  0.5601
  171MOL0     C23528   0.966  11.150   1.241 -0.0281 -0.8038 -0.7860
  171MOL0     H23529   0.948  11.219   1.768 -0.4281  1.6268  1.6630
  171MOL0     H23530   1.063  11.391   1.914  1.5483  1.3022  0.4370
  171MOL0     H23531   1.227  11.563   1.975  0.9766  0.8576  0.5997
  171MOL0     H23532   1.310  11.540   1.822 -2.7017  3.0309  0.1323
  171MOL0     H23533   1.438  11.707   1.947  2.1395 -0.9547 -0.4594
  171MOL0     H23534   1.452  11.599   2.083  0.2741 -1.3604  0.5247
  171MOL0     H23535   1.604  11.461   1.986 -0.0716  1.4289  2.4586
  171MOL0     H23536   1.570  11.519   1.815  0.1749  2.8855 -0.5153
  171MOL0     H23537   1.698  11.708   1.863 -1.4925  1.3271  2.3901
  171MOL0     H23538   1.690  11.689   2.038  0.1671 -0.5943  0.7614
  171MOL0     H23539   1.856  11.519   1.837  0.8525 -0.6410  0.4701
  171MOL0     H23540   1.828  11.472   2.007  3.3285 -0.9953 -0.9986
  171MOL0     H23541   2.041  11.569   1.970  0.0667 -1.7131  2.0335
  171MOL0     H23542   1.953  11.726   1.943 -2.2052 -0.5928 -1.6698
  171MOL0     H23543   1.872  11.571   2.184 -0.2321  1.2410  0.3037
  171MOL0     H23544   1.888  11.743   2.158  1.2157  0.3497  2.9039
  171MOL0     H23545   2.124  11.744   2.207  0.8021 -0.4302  1.0192
  171MOL0     H23546   2.031  11.670   2.332  1.4027  0.4476  0.2085
  171MOL0     H23547   2.305  11.590   2.075 -1.7638  1.8539  0.1771
  171MOL0     H23548   2.384  11.380   1.963  0.1231  1.9196  0.3785
  171MOL0     H23549   2.367  11.219   2.030  0.8524 -1.2186  4.2810
  171MOL0     H23550   2.587  11.247   2.062  2.0872  1.2966 -0.6321
  171MOL0     H23551   2.569  11.430   2.071 -3.2180  1.7948  0.9912
  171MOL0     H23552   2.537  11.445   2.297  3.5391  1.8938  0.4679
  171MOL0     H23553   2.512  11.267   2.319 -0.9718 -1.6643 -2.0399
  171MOL0     H23554   2.779  11.364   2.200 -0.8167  1.0720  0.0172
  171MOL0     H23555   2.735  11.416   2.350  1.0507  1.2002  0.3500
  171MOL0     H23556   2.777  10.960   2.409 -1.0164 -1.9581 -1.1791
  171MOL0     H23557   2.837  10.748   2.395  1.0857  0.2008  1.1701
  171MOL0     H23558   3.012  10.719   2.345  0.3470  2.0470  0.1474
  171MOL0     H23559   2.878  10.656   2.248 -3.4431  0.1491  1.3452
  171MOL0     H23560   3.262  10.694   1.880  0.4706 -1.9360 -0.2722
  171MOL0     H23561   3.270  10.477   1.732 -1.9703 -1.5822 -2.9356
  171MOL0     H23562   2.906  10.337   1.516 -1.1877  3.0061 -0.8595
  171MOL0     H23563   2.967  10.468   1.416 -0.3865 -0.3950 -0.2622
  171MOL0     H23564   3.125  10.345   1.303  0.5826 -0.7854  0.4594
  171MOL0     H23565   3.096  10.212   1.422  2.0391  0.4562 -2.0221
  171MOL0     H23566   2.876  10.286   1.231 -2.4447 -2.7403 -0.8497
  171MOL0     H23567   2.896  10.144   1.334  1.1737 -1.8652  0.0469
  171MOL0     H23568   2.930  10.072   1.116 -1.1776 -1.9818  2.8929
  171MOL0     H23569   3.063  10.041   1.208 -0.5210  0.2520  0.4259
  171MOL0     H23570   3.190  10.237   1.113 -0.9996 -0.5511  0.8808
  171MOL0     H23571   3.151  10.103   1.004  3.4432  3.3013 -0.8231
  171MOL0     H23572   2.991  10.359   1.000 -0.0863 -0.8043  0.6802
  171MOL0     H23573   2.963  10.213   0.909  2.4659 -2.2174 -1.3350
  171MOL0     H23574   3.158  10.230   0.794 -1.2544 -0.2449 -0.7941
  171MOL0     H23575   3.231  10.359   0.910 -0.5779 -2.4946  0.0582
  171MOL0     H23576   3.162  10.467   0.702 -1.2874 -1.2474 -1.8996
  171MOL0     H23577   3.081  10.524   0.851  0.5025 -0.0594 -0.1752
  171MOL0     H23578   2.868  10.553   1.610  0.5912  0.9352 -1.8322
  171MOL0     H23579   2.854  10.736   1.767 -1.4513 -0.2095  0.1424
  171MOL0     H23580   3.001  11.066   1.976  0.5743  2.2600  0.8895
  171MOL0     H23581   2.929  11.239   2.108 -0.1754 -0.6662 -1.2961
  171MOL0     H23582   1.434  11.194   1.862 -0.0712  2.4545  2.4211
  171MOL0     H23583   1.331  11.045   1.697 -0.2878 -0.2272 -0.3960
  171MOL0     H23584   0.877  10.855   1.611 -1.3310  1.7623  1.3927
  171MOL0     H23585   0.681  10.769   1.498  0.1416  0.3028  2.6849
  171MOL0     H23586   0.414  10.799   1.424 -0.9449 -1.0060 -2.6209
  171MOL0     H23587   0.485  10.944   1.481  4.1284  0.5992 -0.3516
  171MOL0     H23588   0.388  11.062   1.264 -1.6109  0.8644  0.5831
  171MOL0     H23589   0.263  10.980   1.368 -0.4693 -0.8542  1.7322
  171MOL0     H23590   0.314  10.895   1.090 -1.1789 -2.2977 -1.6513
  171MOL0     H23591   0.382  10.776   1.187  1.3016  1.6758 -1.5093
  171MOL0     H23592   0.135  10.737   1.151 -1.8404  0.7555 -1.2108
  171MOL0     H23593   0.110  10.889   1.251  2.7191  1.3160  2.8964
  171MOL0     H23594   0.163  10.600   1.541 -1.4349 -2.0916 -1.3496
  171MOL0     H23595   0.736  11.006   1.177  1.8802  0.9968  0.1048
  171MOL0     H23596   1.071  11.134   1.217  0.3942 -0.0271  0.4550
  171MOL0     H23597   0.915  11.152   1.144  0.0451  0.8302 -0.8147
  171MOL0     H23598   0.961  11.249   1.288 -2.1067  0.2557 -2.9864
  172MOL0     O23599  10.494   1.145   0.995  0.3782  0.1618  0.2139
  172MOL0     C23600  10.449   1.037   1.007 -0.4674  0.9554 -0.1881
  172MOL0     O23601  10.332   0.996   0.961 -0.8055 -0.6033  0.1886
  172MOL0     C23602  10.240   1.083   0.904  1.1140  0.0136 -0.0810
  172MOL0     C23603  10.111   1.089   0.953 -0.0221  0.3800  0.4395
  172MOL0     C23604  10.004   1.166   0.906  0.0617 -0.2054 -0.2378
  172MOL0     C23605  10.027   1.242   0.786 -1.3588  0.4321 -0.1551
  172MOL0     O23606   9.937   1.327   0.717 -0.2835 -0.0578 -0.7875
  172MOL0     C23607   9.810   1.345   0.782  0.8816  0.0108  0.3348
  172MOL0     C23608   9.714   1.431   0.691 -0.9735  0.6940  0.0317
  172MOL0     C23609   9.562   1.416   0.722  0.2737 -0.3916 -0.1633
  172MOL0     C23610   9.468   1.484   0.618  0.1638 -0.2460  0.5527
  172MOL0     C23611   9.330   1.513   0.662  0.4023 -0.1092  0.0350
  172MOL0     C23612   9.239   1.532   0.538  0.6950 -0.4886 -0.5086
  172MOL0     C23613   9.095   1.575   0.585  0.0045 -0.0230 -0.3787
  172MOL0     C23614   8.999   1.594   0.470  0.4182 -0.2387 -0.9403
  172MOL0     N23615   8.867   1.623   0.530 -0.1655 -0.0696  0.0284
  172MOL0     C23616   8.772   1.523   0.563 -0.2161 -0.4220 -0.2363
  172MOL0     C23617   8.653   1.585   0.572 -0.1007 -0.9907 -0.0946
  172MOL0     C23618   8.523   1.532   0.611 -0.0520  0.0865  0.4666
  172MOL0     C23619   8.516   1.488   0.758 -0.2410 -0.6734  0.2236
  172MOL0     C23620   8.547   1.339   0.779  0.0846 -0.1854  0.0781
  172MOL0     C23621   8.535   1.298   0.921  0.3416 -0.2017 -0.2714
  172MOL0     O23622   8.400   1.261   0.949  0.0837  0.5251  0.3359
  172MOL0     C23623   8.342   1.149   0.887  0.1394  0.4428 -0.7404
  172MOL0     C23624   8.414   1.028   0.876 -0.0366 -0.6218 -0.4866
  172MOL0     C23625   8.362   0.911   0.823 -0.1476  0.0550  0.3380
  172MOL0     C23626   8.437   0.795   0.792  0.3707  1.0733  0.7378
  172MOL0     C23627   8.214   0.907   0.806 -0.0123  0.3760 -0.9797
  172MOL0     C23628   8.154   0.787   0.739 -0.1681  0.0889 -0.8252
  172MOL0     O23629   8.055   0.729   0.812 -0.0956  0.9560 -0.4227
  172MOL0     C23630   7.957   0.647   0.757  0.9860 -0.0011  0.0839
  172MOL0     C23631   7.901   0.664   0.628 -0.5993  0.5858 -0.1537
  172MOL0     C23632   7.791   0.586   0.588 -0.6015 -0.2766  0.7621
  172MOL0     C23633   7.732   0.496   0.661  0.3760  0.7732  0.4290
  172MOL0     O23634   7.616   0.429   0.627  0.7270  0.7187 -0.5036
  172MOL0     C23635   7.594   0.402   0.483  0.2695  0.2517 -0.0201
  172MOL0     C23636   7.500   0.282   0.448 -1.1873 -0.5023 -0.8125
  172MOL0     C23637   7.575   0.148   0.452  0.3910  0.6810  0.8322
  172MOL0     C23638   7.479   0.032   0.406 -0.2691 -0.2419  0.1339
  172MOL0     C23639   7.537  -0.099   0.469  0.5047  0.1583 -0.1921
  172MOL0     C23640   7.444  -0.214   0.446  0.9494  0.0370 -0.6975
  172MOL0     C23641   7.505  -0.340   0.515  0.3562  0.9400 -0.8682
  172MOL0     C23642   7.402  -0.449   0.513  0.5064  0.0676  0.3148
  172MOL0    Cl23643   7.478  -0.585   0.607  0.4314  0.6510  0.1803
  172MOL0     C23644   7.773   0.483   0.794 -0.0800  0.1514  0.2251
  172MOL0     C23645   7.877   0.561   0.843 -0.3427  0.1553  0.3342
  172MOL0     O23646   8.185   0.758   0.621  0.0456 -0.4574 -0.4560
  172MOL0     C23647   8.135   1.022   0.816  0.3874 -0.1458  0.6158
  172MOL0     C23648   8.207   1.138   0.867 -0.3465 -0.5393  0.2944
  172MOL0     N23649   8.683   1.720   0.549 -0.0805  0.1868  0.0060
  172MOL0     N23650   8.806   1.741   0.518  0.1540 -0.0345  0.0326
  172MOL0     C23651  10.158   1.244   0.736 -0.1297  0.0170  0.0532
  172MOL0     C23652  10.270   1.172   0.797 -0.0216  0.6105  0.1263
  172MOL0     C23653  10.532   0.923   1.067 -0.1691 -0.3774  0.4188
  172MOL0     C23654  10.495   0.798   1.015  0.3037 -0.5299  0.9217
  172MOL0     C23655  10.537   0.693   1.088 -1.0262 -0.3986  0.6303
  172MOL0     C23656  10.630   0.698   1.192  0.3841  0.3873 -0.2501
  172MOL0     O23657  10.668   0.580   1.255 -0.2285 -0.2850 -0.6751
  172MOL0     C23658  10.729   0.579   1.384  0.0060  0.7474  0.0472
  172MOL0     C23659  10.646   0.633   1.497 -0.4191 -0.1542  0.1418
  172MOL0     C23660  10.746   0.670   1.612  0.4446 -0.5331  0.1397
  172MOL0     C23661  10.677   0.761   1.714  1.3298  0.1507  0.5870
  172MOL0     C23662  10.637   0.880   1.647  0.5826 -0.2754  0.1986
  172MOL0     C23663  10.595   0.985   1.597 -0.3438 -0.2196 -1.5145
  172MOL0     C23664  10.682   0.822   1.230  0.1319 -0.4983 -0.0394
  172MOL0     C23665  10.631   0.937   1.172 -1.2225 -0.2206  0.1869
  172MOL0     C23666  10.675   1.073   1.219 -0.4627 -1.1051  0.3872
  172MOL0     H23667  10.082   1.029   1.039 -0.9932 -0.4233 -0.4306
  172MOL0     H23668   9.912   1.172   0.964  0.8740  2.2633  0.9201
  172MOL0     H23669   9.820   1.407   0.872 -0.0897  2.9545 -1.4601
  172MOL0     H23670   9.767   1.246   0.802 -1.1658  0.6986 -0.4180
  172MOL0     H23671   9.745   1.535   0.704 -3.7967  1.9422 -2.0548
  172MOL0     H23672   9.729   1.404   0.586 -0.5469  0.0225  0.2638
  172MOL0     H23673   9.548   1.308   0.727  1.6032 -0.5450  0.9460
  172MOL0     H23674   9.551   1.466   0.818  0.8658  0.4029 -0.4999
  172MOL0     H23675   9.504   1.582   0.584 -4.0016  1.4273  0.4257
  172MOL0     H23676   9.485   1.418   0.532  2.5467 -1.2401  1.6943
  172MOL0     H23677   9.336   1.609   0.714  0.7809  1.4133 -2.5945
  172MOL0     H23678   9.283   1.435   0.721 -0.1221 -0.4155 -0.7788
  172MOL0     H23679   9.277   1.619   0.485 -0.4990 -0.2197 -0.9277
  172MOL0     H23680   9.239   1.442   0.475  0.2389 -1.2974  0.5988
  172MOL0     H23681   9.118   1.664   0.644 -0.2841  0.3862 -0.8761
  172MOL0     H23682   9.053   1.501   0.653 -0.5714 -0.4962 -1.2312
  172MOL0     H23683   9.033   1.677   0.406 -0.4799  1.0050  0.1553
  172MOL0     H23684   8.989   1.498   0.418  3.0329 -1.5596  0.7697
  172MOL0     H23685   8.804   1.422   0.588  0.7254 -0.1252 -0.2029
  172MOL0     H23686   8.497   1.447   0.548 -0.7423 -0.3443  1.3015
  172MOL0     H23687   8.447   1.609   0.593  0.5024  0.9096  1.4700
  172MOL0     H23688   8.590   1.534   0.825  0.4171 -2.9694  1.1737
  172MOL0     H23689   8.417   1.510   0.798 -0.4380  2.0482 -1.4927
  172MOL0     H23690   8.479   1.290   0.709  0.2043  1.5102 -1.2980
  172MOL0     H23691   8.652   1.324   0.752  0.3402 -0.7733  1.3432
  172MOL0     H23692   8.615   1.228   0.946  0.4511  0.1493  0.3919
  172MOL0     H23693   8.557   1.385   0.983 -1.3083  2.4441 -3.1062
  172MOL0     H23694   8.521   1.036   0.896  0.7290  0.4882 -4.2130
  172MOL0     H23695   8.401   0.705   0.842  1.0378 -0.7616 -1.9062
  172MOL0     H23696   8.538   0.828   0.818  0.0159  2.6938  0.1799
  172MOL0     H23697   8.428   0.785   0.684  0.4374  1.5187  0.6879
  172MOL0     H23698   7.935   0.740   0.559  0.5421 -0.3659 -0.6791
  172MOL0     H23699   7.762   0.612   0.487  1.3108  2.0094  0.7112
  172MOL0     H23700   7.552   0.499   0.455 -1.0505  0.8369  3.4788
  172MOL0     H23701   7.695   0.380   0.449  0.6317 -0.8465  1.6616
  172MOL0     H23702   7.407   0.276   0.505  0.9473 -0.8740  2.9331
  172MOL0     H23703   7.480   0.312   0.344  1.0572 -1.8877 -1.7086
  172MOL0     H23704   7.599   0.133   0.557  0.2201  0.6755  0.8706
  172MOL0     H23705   7.669   0.158   0.396  1.6564 -4.3786  1.5970
  172MOL0     H23706   7.467   0.031   0.297  1.8199 -0.4297 -0.1432
  172MOL0     H23707   7.382   0.053   0.451 -0.4776 -0.5470 -0.1640
  172MOL0     H23708   7.638  -0.122   0.434  0.0784 -0.2636 -1.1790
  172MOL0     H23709   7.545  -0.074   0.575 -0.9381  0.7878 -0.2030
  172MOL0     H23710   7.432  -0.236   0.340 -0.9310 -0.5369 -0.3934
  172MOL0     H23711   7.345  -0.196   0.487 -0.1494 -4.1883 -1.0002
  172MOL0     H23712   7.521  -0.314   0.620 -1.6258  0.2345 -0.3448
  172MOL0     H23713   7.598  -0.375   0.470 -0.3387 -3.0276  0.3390
  172MOL0     H23714   7.372  -0.467   0.409  1.3642 -0.2487  0.1077
  172MOL0     H23715   7.310  -0.410   0.557  0.1297 -0.1455 -0.2733
  172MOL0     H23716   7.736   0.410   0.866 -0.6296 -0.7095 -0.8996
  172MOL0     H23717   7.908   0.543   0.945 -0.1276 -0.2256  0.2035
  172MOL0     H23718   8.027   1.025   0.806  0.2671  0.5076  1.8364
  172MOL0     H23719   8.162   1.237   0.863 -0.5343 -0.6258  0.2797
  172MOL0     H23720  10.164   1.307   0.647 -1.6075  1.5749  0.9905
  172MOL0     H23721  10.371   1.174   0.757 -1.0344  0.9565 -2.6574
  172MOL0     H23722  10.422   0.779   0.937  0.9990 -1.8468  0.5523
  172MOL0     H23723  10.501   0.595   1.057 -0.1619 -0.5118 -0.0553
  172MOL0     H23724  10.775   0.481   1.400  0.5560  1.0506  0.3431
  172MOL0     H23725  10.814   0.648   1.379 -1.0619  2.2736  1.8100
  172MOL0     H23726  10.588   0.550   1.537  1.5239 -1.6327  0.0340
  172MOL0     H23727  10.589   0.722   1.467  1.8575  2.4150  2.8076
  172MOL0     H23728  10.783   0.579   1.659  2.1164 -0.5908 -1.1880
  172MOL0     H23729  10.834   0.728   1.585 -0.2069  1.9370  2.8319
  172MOL0     H23730  10.748   0.787   1.793  2.0154  0.1335 -0.0103
  172MOL0     H23731  10.582   0.719   1.748  1.1637 -1.8739 -2.0250
  172MOL0     H23732  10.559   1.078   1.558 -4.2540  0.1287  2.2244
  172MOL0     H23733  10.748   0.836   1.314  2.0062 -4.2542 -0.6413
  172MOL0     H23734  10.590   1.132   1.254  0.1357 -0.3297  0.5716
  172MOL0     H23735  10.740   1.078   1.307 -0.0428  4.5673  0.1046
  172MOL0     H23736  10.707   1.140   1.138 -2.3333  2.0990  2.1013
  173MOL0     O23737  10.848   1.412   9.435  0.5144  0.1501  0.7607
  173MOL0     C23738  10.881   1.388   9.322  0.8926  0.3006 -0.2782
  173MOL0     O23739  10.795   1.368   9.211  0.1697  0.1294  0.3217
  173MOL0     C23740  10.665   1.390   9.224 -0.0880 -0.3132 -0.1892
  173MOL0     C23741  10.611   1.501   9.281  0.0962 -0.5131 -0.5843
  173MOL0     C23742  10.471   1.513   9.292  0.2771 -0.0640  0.3325
  173MOL0     C23743  10.389   1.414   9.235  0.6885 -0.0082 -1.4208
  173MOL0     O23744  10.251   1.415   9.247  0.2149  0.6664 -0.6800
  173MOL0     C23745  10.189   1.526   9.195 -0.0908 -0.4621  0.5762
  173MOL0     C23746  10.039   1.522   9.205  0.1638  0.2970 -0.5069
  173MOL0     C23747  10.004   1.448   9.344 -0.5635 -0.4120  0.6137
  173MOL0     C23748   9.848   1.438   9.358 -0.1643  0.7205 -0.5094
  173MOL0     C23749   9.814   1.398   9.504 -0.1592  0.3636  0.1496
  173MOL0     C23750   9.693   1.305   9.528 -0.1405 -0.5978  0.6956
  173MOL0     C23751   9.651   1.310   9.679  0.4574 -0.1670  0.3630
  173MOL0     C23752   9.752   1.264   9.780 -0.4790 -0.5287 -0.1868
  173MOL0     N23753   9.700   1.238   9.917 -0.0062  0.5980  0.4416
  173MOL0     C23754   9.574   1.191   9.949  0.0704  0.9933 -0.2187
  173MOL0     C23755   9.580   1.168  10.081 -0.5951  0.8200  0.3155
  173MOL0     C23756   9.484   1.080  10.155 -0.6551  0.5417  0.6967
  173MOL0     C23757   9.395   1.168  10.258  0.4859  0.2363 -0.2253
  173MOL0     C23758   9.460   1.200  10.399  0.7649 -0.0824 -0.1127
  173MOL0     C23759   9.479   1.070  10.474  0.0809 -0.2503  0.0154
  173MOL0     O23760   9.561   1.091  10.584  0.0785 -0.0076 -0.2815
  173MOL0     C23761   9.701   1.094  10.592  0.3847  0.1094 -0.5102
  173MOL0     C23762   9.785   1.077  10.485 -0.0284 -0.4370 -0.9302
  173MOL0     C23763   9.920   1.080  10.504  0.2640  0.1285 -0.7824
  173MOL0     C23764  10.000   1.052  10.377 -0.6349  1.1065  0.4137
  173MOL0     C23765   9.977   1.089  10.641  0.5094 -0.3111 -1.1269
  173MOL0     C23766  10.117   1.115  10.668 -0.6943  0.4454  0.7579
  173MOL0     O23767  10.212   1.036  10.597 -0.1112  0.9903 -0.1276
  173MOL0     C23768  10.346   1.036  10.631 -0.4660 -0.0414 -0.2781
  173MOL0     C23769  10.428   0.982  10.532  0.1405  0.3326  0.6785
  173MOL0     C23770  10.567   0.967  10.538 -0.2475 -0.0263  0.4748
  173MOL0     C23771  10.623   0.968  10.666  0.8950  0.1363  0.4746
  173MOL0     O23772  10.751   0.954  10.689 -0.6551 -0.8024  0.3209
  173MOL0     C23773  10.776   0.855  10.793  0.5234 -0.4994 -0.5660
  173MOL0     C23774  10.931   0.833  10.787  0.7159 -0.5106 -0.3092
  173MOL0     C23775  10.978   0.768  10.913  0.2372  0.0345  1.1713
  173MOL0     C23776  11.129   0.747  10.906 -0.1348  0.2597  0.6257
  173MOL0     C23777  11.184   0.633  10.990 -0.1961 -0.3993  0.9029
  173MOL0     C23778  11.157   0.639  11.138 -0.3519  0.4012  0.3754
  173MOL0     C23779  11.257   0.550  11.212 -0.5862  0.1808 -0.0831
  173MOL0     C23780  11.255   0.403  11.169  0.5853  0.0230 -0.1049
  173MOL0    Cl23781  11.380   0.359  11.048 -0.2431 -0.5033 -0.1671
  173MOL0     C23782  10.537   1.020  10.776 -0.2059 -0.5320 -0.6821
  173MOL0     C23783  10.404   1.063  10.753 -0.4377  0.7182 -0.5540
  173MOL0     O23784  10.149   1.220  10.722 -0.5503 -0.2573 -0.1818
  173MOL0     C23785   9.883   1.098  10.747  0.1815 -0.4855  0.5256
  173MOL0     C23786   9.752   1.098  10.722 -0.8910 -1.0629 -0.5329
  173MOL0     N23787   9.695   1.210  10.126 -0.2674 -0.0083 -0.4682
  173MOL0     N23788   9.779   1.254  10.031  0.2757 -0.5190  0.1246
  173MOL0     C23789  10.453   1.305   9.173  0.3092  0.0127 -0.6884
  173MOL0     C23790  10.588   1.286   9.179  0.1557 -0.1475 -0.0264
  173MOL0     C23791  11.022   1.344   9.319  0.4602 -0.2008  0.8485
  173MOL0     C23792  11.110   1.419   9.393  0.3393 -0.2240  0.3313
  173MOL0     C23793  11.248   1.415   9.386 -0.1717 -0.9387  0.7617
  173MOL0     C23794  11.306   1.322   9.297  0.4431 -0.0249 -0.0766
  173MOL0     O23795  11.441   1.297   9.293 -0.0317 -0.5184 -0.1754
  173MOL0     C23796  11.527   1.375   9.380 -0.2843  0.2545  0.3731
  173MOL0     C23797  11.680   1.339   9.343  0.7381  0.3983 -0.4513
  173MOL0     C23798  11.709   1.204   9.423 -0.3066  0.1060  0.6218
  173MOL0     C23799  11.847   1.145   9.387 -0.3089 -0.3222  1.0554
  173MOL0     C23800  11.949   1.234   9.430 -0.1010 -1.1501  0.1832
  173MOL0     C23801  12.022   1.327   9.473  0.2035 -0.2194 -0.2531
  173MOL0     C23802  11.225   1.237   9.225  0.9822 -0.0161  0.3789
  173MOL0     C23803  11.083   1.243   9.240 -1.1299 -0.0232  0.3824
  173MOL0     C23804  10.996   1.155   9.155  0.1502 -0.3028 -0.7730
  173MOL0     H23805  10.671   1.580   9.325  0.1221  0.6646 -2.6170
  173MOL0     H23806  10.430   1.600   9.342 -1.6513  0.2190 -1.5769
  173MOL0     H23807  10.223   1.542   9.092 -1.6663  3.4174  0.4706
  173MOL0     H23808  10.233   1.611   9.249  0.6505 -0.0657 -0.5899
  173MOL0     H23809  10.005   1.626   9.214 -5.2692 -1.1747 -0.5695
  173MOL0     H23810   9.994   1.471   9.120  2.5647 -1.6604 -0.7189
  173MOL0     H23811  10.051   1.350   9.351  2.3003  0.9038  1.4441
  173MOL0     H23812  10.041   1.517   9.421 -1.9668 -0.6186  1.5063
  173MOL0     H23813   9.803   1.532   9.324  2.1811  2.0206 -0.2243
  173MOL0     H23814   9.814   1.361   9.288  0.0657 -1.0843  1.2907
  173MOL0     H23815   9.797   1.490   9.560 -2.2386  1.5237 -2.1506
  173MOL0     H23816   9.899   1.343   9.544 -0.3705  0.7056  1.0894
  173MOL0     H23817   9.612   1.330   9.460  1.4997  0.1257 -1.0917
  173MOL0     H23818   9.724   1.201   9.517 -2.4170 -1.3627  1.0719
  173MOL0     H23819   9.572   1.235   9.677 -0.0878  0.4185 -1.1348
  173MOL0     H23820   9.612   1.410   9.704  0.8450  0.3572 -1.0641
  173MOL0     H23821   9.802   1.175   9.741  0.3632  0.8389 -2.4613
  173MOL0     H23822   9.832   1.339   9.780  2.4704 -3.4078  0.9268
  173MOL0     H23823   9.510   1.147   9.874  0.4535  0.7921 -0.4319
  173MOL0     H23824   9.542   1.001  10.204 -2.3219  0.3345  2.4342
  173MOL0     H23825   9.424   1.036  10.074  1.3183  0.3128 -0.7297
  173MOL0     H23826   9.358   1.262  10.217 -0.9126 -0.7000 -1.2101
  173MOL0     H23827   9.305   1.111  10.281  1.2867 -0.5042  1.2936
  173MOL0     H23828   9.547   1.266  10.389 -2.6645  5.6005  2.5109
  173MOL0     H23829   9.387   1.258  10.456  0.1131 -0.0138 -0.9993
  173MOL0     H23830   9.389   1.013  10.500 -0.3042 -0.7232 -2.1340
  173MOL0     H23831   9.527   1.003  10.402 -2.5446  0.6185 -2.7302
  173MOL0     H23832   9.741   1.066  10.387 -0.5651 -1.0551 -0.6249
  173MOL0     H23833  10.083   1.121  10.359 -0.4753  0.5487 -1.1368
  173MOL0     H23834   9.931   1.063  10.294 -0.9381 -0.4068  0.4403
  173MOL0     H23835  10.047   0.953  10.371 -2.3516  0.3187 -0.6689
  173MOL0     H23836  10.376   0.941  10.446 -0.1867 -1.9004  1.8618
  173MOL0     H23837  10.624   0.939  10.450 -0.4295  2.6776 -0.6178
  173MOL0     H23838  10.732   0.881  10.890 -0.9205  2.1191 -1.8138
  173MOL0     H23839  10.728   0.761  10.763 -3.6227  1.6205 -1.3765
  173MOL0     H23840  10.955   0.775  10.697  0.8683  4.2887 -3.7462
  173MOL0     H23841  10.987   0.925  10.764  3.9480 -2.3991 -0.6093
  173MOL0     H23842  10.930   0.670  10.915  1.5395 -0.6158  1.8924
  173MOL0     H23843  10.948   0.819  11.004  0.7402 -0.3935  1.5852
  173MOL0     H23844  11.176   0.841  10.933  0.5393  0.6576 -1.7360
  173MOL0     H23845  11.162   0.725  10.804 -0.0915 -1.2325  0.9348
  173MOL0     H23846  11.133   0.541  10.960  1.4623 -1.0357 -0.1430
  173MOL0     H23847  11.288   0.628  10.956 -0.3286  1.3839  0.1408
  173MOL0     H23848  11.057   0.608  11.168 -0.6131 -1.0077 -1.7660
  173MOL0     H23849  11.157   0.743  11.173  0.4895  0.2724  0.7880
  173MOL0     H23850  11.233   0.543  11.318  1.0934  1.6938  0.4641
  173MOL0     H23851  11.359   0.589  11.204 -0.8619  0.8199 -0.6020
  173MOL0     H23852  11.156   0.376  11.131  0.4719 -2.1601  1.5787
  173MOL0     H23853  11.292   0.345  11.254  1.3766 -1.5461 -1.4684
  173MOL0     H23854  10.575   1.031  10.877  0.9759 -1.3973 -1.0202
  173MOL0     H23855  10.342   1.097  10.835  2.3136  1.5776  1.3085
  173MOL0     H23856   9.927   1.086  10.845  2.7541  1.2766 -0.3170
  173MOL0     H23857   9.682   1.110  10.805 -1.5400  0.0777 -1.2180
  173MOL0     H23858  10.386   1.235   9.123  1.3215 -0.0616 -2.0068
  173MOL0     H23859  10.632   1.203   9.123 -3.5790 -1.6379 -1.0407
  173MOL0     H23860  11.075   1.495   9.461 -2.1919 -2.2317  1.4578
  173MOL0     H23861  11.299   1.481   9.456  0.6985 -0.7275 -0.0593
  173MOL0     H23862  11.519   1.483   9.363  2.2297  0.2176 -1.5584
  173MOL0     H23863  11.504   1.359   9.486 -2.7006 -0.1990 -0.1689
  173MOL0     H23864  11.760   1.412   9.359 -1.2071  2.4912  0.0956
  173MOL0     H23865  11.691   1.309   9.238  1.4169  1.6351 -0.7563
  173MOL0     H23866  11.697   1.224   9.530 -1.5347  2.9772  0.0415
  173MOL0     H23867  11.632   1.136   9.385 -1.3121  3.0871 -3.3586
  173MOL0     H23868  11.855   1.131   9.278 -0.0211 -0.3348  1.0780
  173MOL0     H23869  11.881   1.057   9.443  0.9387  1.1263  2.6863
  173MOL0     H23870  12.087   1.403   9.512  1.8563 -1.8491  0.3030
  173MOL0     H23871  11.270   1.161   9.161  3.1978  2.0799 -0.6783
  173MOL0     H23872  11.050   1.062   9.135 -2.5582 -2.1299 -0.0956
  173MOL0     H23873  10.902   1.128   9.203 -0.4439  0.0179 -1.7203
  173MOL0     H23874  10.962   1.199   9.061 -3.1772  1.5402  1.1069
  174MOL0     O23875   1.105   1.427   3.114  0.1197 -0.3446  0.0728
  174MOL0     C23876   1.155   1.525   3.063 -0.1114 -1.1856 -0.8186
  174MOL0     O23877   1.276   1.524   2.998  0.2218 -0.1398 -0.4921
  174MOL0     C23878   1.334   1.401   3.006  0.3843 -0.2022  0.2903
  174MOL0     C23879   1.442   1.368   3.089  0.0336 -0.7309  0.7070
  174MOL0     C23880   1.503   1.245   3.080 -1.1935  1.0298  0.6104
  174MOL0     C23881   1.460   1.147   2.988  0.0768 -0.1844 -0.0123
  174MOL0     O23882   1.510   1.026   2.961  0.2868 -0.1437 -0.4865
  174MOL0     C23883   1.645   1.006   2.999  0.6565  0.0538  0.9703
  174MOL0     C23884   1.692   0.873   2.940  0.2472 -0.1872 -0.5752
  174MOL0     C23885   1.609   0.762   2.991  0.0458 -0.0479  0.3339
  174MOL0     C23886   1.626   0.617   2.929  0.0786  0.2145  0.5580
  174MOL0     C23887   1.527   0.515   2.960  0.6779 -0.4018 -0.2301
  174MOL0     C23888   1.400   0.540   2.873 -0.3377  0.4431  0.3471
  174MOL0     C23889   1.279   0.467   2.913  0.0087  0.5340  0.6728
  174MOL0     C23890   1.206   0.517   3.036  0.5543 -0.4045 -0.3386
  174MOL0     N23891   1.108   0.416   3.069 -0.1524  0.1548  1.2091
  174MOL0     C23892   0.982   0.420   3.023 -0.5698  0.7063  0.6723
  174MOL0     C23893   0.925   0.300   3.060  0.5521  0.4654  0.0163
  174MOL0     C23894   0.788   0.246   3.029 -0.1484 -0.2493  0.1835
  174MOL0     C23895   0.794   0.114   2.953 -0.2649  0.0255 -0.8936
  174MOL0     C23896   0.866   0.115   2.813 -0.5832 -0.1157 -1.1006
  174MOL0     C23897   0.841  -0.016   2.741 -0.7205 -0.1001  0.2337
  174MOL0     O23898   0.707  -0.031   2.690 -0.0554 -0.6517 -0.3576
  174MOL0     C23899   0.661  -0.159   2.674  0.3133  0.2289  0.5364
  174MOL0     C23900   0.741  -0.269   2.659 -0.3767 -0.2237 -1.2002
  174MOL0     C23901   0.691  -0.397   2.636 -0.2636 -0.4474  0.6245
  174MOL0     C23902   0.767  -0.523   2.616 -0.0669  1.0647 -0.1705
  174MOL0     C23903   0.547  -0.412   2.624  0.6161  0.1886 -0.5074
  174MOL0     C23904   0.480  -0.546   2.591 -0.6954 -0.5220 -0.5970
  174MOL0     O23905   0.368  -0.576   2.668 -0.2829 -0.8826  0.0517
  174MOL0     C23906   0.308  -0.702   2.655  0.1421  0.0843  0.0798
  174MOL0     C23907   0.203  -0.709   2.571  0.0175  0.1982 -0.1195
  174MOL0     C23908   0.135  -0.836   2.552 -0.4095 -0.2221  0.3016
  174MOL0     C23909   0.186  -0.946   2.616 -1.0532  0.7551 -1.3198
  174MOL0     O23910   0.114  -1.065   2.619  0.0216  0.3423  0.6677
  174MOL0     C23911   0.032  -1.084   2.738  0.4200  1.3549 -0.2998
  174MOL0     C23912  -0.119  -1.080   2.699 -0.3793 -0.3356  0.8104
  174MOL0     C23913  -0.206  -1.102   2.817  0.4812  0.7392  0.0938
  174MOL0     C23914  -0.204  -1.257   2.855 -0.0330  0.4220 -0.2607
  174MOL0     C23915  -0.351  -1.301   2.897  0.3027  0.6145  0.9326
  174MOL0     C23916  -0.345  -1.439   2.960 -0.1841 -0.6435  0.7372
  174MOL0     C23917  -0.484  -1.489   2.991  0.2177  0.6881  0.1557
  174MOL0     C23918  -0.490  -1.634   3.037 -0.4364 -0.8292 -0.3902
  174MOL0    Cl23919  -0.450  -1.732   2.890  0.1043 -0.2798 -0.1670
  174MOL0     C23920   0.290  -0.932   2.708 -0.1553  0.0652 -0.3343
  174MOL0     C23921   0.354  -0.812   2.731 -0.6603 -0.2969 -0.1812
  174MOL0     O23922   0.521  -0.623   2.501 -0.1910  0.1425 -0.1251
  174MOL0     C23923   0.463  -0.300   2.655  0.9437 -0.3915  0.2400
  174MOL0     C23924   0.516  -0.175   2.679  1.0024 -0.3691  0.0239
  174MOL0     N23925   1.022   0.230   3.136 -0.2317 -0.4949  0.2134
  174MOL0     N23926   1.127   0.294   3.129 -0.0575 -0.6843 -0.3538
  174MOL0     C23927   1.347   1.175   2.907  0.2439 -0.0411 -1.5159
  174MOL0     C23928   1.289   1.305   2.910  0.1195  0.5443  0.0326
  174MOL0     C23929   1.079   1.657   3.066 -0.6322 -0.4278  0.7660
  174MOL0     C23930   1.111   1.743   2.959  0.7196  0.8140  0.8198
  174MOL0     C23931   1.039   1.858   2.936 -0.6375  0.2069 -0.3727
  174MOL0     C23932   0.946   1.905   3.034 -1.0479  0.4859 -0.5874
  174MOL0     O23933   0.892   2.027   3.023  0.3439 -0.2463  0.3527
  174MOL0     C23934   0.929   2.129   2.930 -0.3011 -0.0208 -0.4970
  174MOL0     C23935   0.844   2.250   2.942  0.2512  0.2954 -0.0208
  174MOL0     C23936   0.863   2.353   2.828 -0.6633  0.1915  0.3617
  174MOL0     C23937   0.972   2.459   2.859 -0.0364  0.8282 -0.2650
  174MOL0     C23938   0.944   2.538   2.984  0.1706 -0.3411 -0.2158
  174MOL0     C23939   0.907   2.605   3.078  0.4950 -0.4371  0.1956
  174MOL0     C23940   0.921   1.813   3.142 -0.3215 -0.0517  0.5250
  174MOL0     C23941   0.981   1.691   3.161  0.5565 -0.2692  0.7861
  174MOL0     C23942   0.934   1.608   3.281 -0.1282 -0.4806  0.9105
  174MOL0     H23943   1.474   1.441   3.161  2.5357 -1.1974  0.1652
  174MOL0     H23944   1.579   1.232   3.157 -0.0529 -1.9636 -0.8594
  174MOL0     H23945   1.650   1.001   3.108  1.5968 -1.7714  0.8752
  174MOL0     H23946   1.712   1.084   2.962 -0.8645  0.9119 -0.0953
  174MOL0     H23947   1.672   0.884   2.833  2.0594 -0.1967 -0.9453
  174MOL0     H23948   1.798   0.850   2.950  0.5196  0.0925 -2.4030
  174MOL0     H23949   1.626   0.764   3.099  1.5677  3.1844  0.1494
  174MOL0     H23950   1.502   0.786   2.997  0.5016  1.6532  2.8717
  174MOL0     H23951   1.628   0.612   2.819 -3.8049 -2.5150  0.4017
  174MOL0     H23952   1.717   0.568   2.965 -0.0925 -0.5501 -0.0314
  174MOL0     H23953   1.495   0.533   3.064  1.7764  0.9405 -0.1044
  174MOL0     H23954   1.569   0.416   2.940 -0.8539 -0.9276 -1.0028
  174MOL0     H23955   1.376   0.646   2.861  0.0241  0.4345 -0.5659
  174MOL0     H23956   1.433   0.503   2.775  1.0315  2.1049  0.1264
  174MOL0     H23957   1.296   0.360   2.930 -1.7398 -0.2125 -1.7625
  174MOL0     H23958   1.206   0.476   2.832 -2.1300 -1.0014  2.2943
  174MOL0     H23959   1.280   0.516   3.117 -0.4844  3.2231  0.8068
  174MOL0     H23960   1.161   0.616   3.030 -1.8873 -1.4337  0.1184
  174MOL0     H23961   0.940   0.489   2.950 -2.0160  0.2900  1.0811
  174MOL0     H23962   0.739   0.321   2.966  2.3929  1.6582  0.3330
  174MOL0     H23963   0.732   0.254   3.123 -0.3875  3.1428 -0.1241
  174MOL0     H23964   0.838   0.037   3.017 -1.3478  1.7532  2.1526
  174MOL0     H23965   0.695   0.083   2.921 -0.2987 -0.7721 -0.0738
  174MOL0     H23966   0.823   0.194   2.750 -0.7628  1.1755  0.5865
  174MOL0     H23967   0.974   0.128   2.827 -0.3583 -1.9771 -0.8893
  174MOL0     H23968   0.923  -0.030   2.669  3.4776  0.8372  4.3308
  174MOL0     H23969   0.857  -0.094   2.816  0.7837  2.4011  2.7025
  174MOL0     H23970   0.849  -0.268   2.661 -0.3420 -2.0410  0.1924
  174MOL0     H23971   0.733  -0.599   2.686 -1.3822  3.7010  2.2600
  174MOL0     H23972   0.872  -0.513   2.645  0.9030 -2.2009 -2.1167
  174MOL0     H23973   0.778  -0.546   2.509 -2.5551  3.4769 -1.0701
  174MOL0     H23974   0.154  -0.633   2.511  0.7157 -0.4722 -1.5714
  174MOL0     H23975   0.059  -0.842   2.476  0.6488 -0.2213 -0.7947
  174MOL0     H23976   0.049  -1.177   2.791 -1.4742  0.5534 -1.0142
  174MOL0     H23977   0.059  -1.009   2.813  0.5769 -0.3917  1.4365
  174MOL0     H23978  -0.139  -0.977   2.668 -0.4596 -0.5409  0.1544
  174MOL0     H23979  -0.143  -1.150   2.618  1.3064  1.5211 -1.4152
  174MOL0     H23980  -0.310  -1.078   2.794 -0.3401 -0.3846  2.3336
  174MOL0     H23981  -0.161  -1.039   2.895  1.7084  1.2013 -0.9563
  174MOL0     H23982  -0.131  -1.279   2.933 -1.8546 -4.1164  0.4638
  174MOL0     H23983  -0.178  -1.327   2.775 -0.4768 -1.4157  1.1401
  174MOL0     H23984  -0.384  -1.227   2.971  1.2713 -0.2740  2.2909
  174MOL0     H23985  -0.430  -1.301   2.821 -2.0889  1.2730  3.2175
  174MOL0     H23986  -0.283  -1.436   3.050  0.9166 -1.5261  0.0262
  174MOL0     H23987  -0.298  -1.503   2.886  2.4391  0.5224  1.2906
  174MOL0     H23988  -0.552  -1.475   2.906  0.1123 -2.9098 -0.5145
  174MOL0     H23989  -0.522  -1.419   3.066 -1.5636  1.3546 -1.2914
  174MOL0     H23990  -0.588  -1.649   3.085 -0.3163 -0.2134  0.0598
  174MOL0     H23991  -0.420  -1.651   3.120 -1.3626 -1.3643  0.3089
  174MOL0     H23992   0.321  -1.022   2.761  0.7818  0.6075  0.0690
  174MOL0     H23993   0.434  -0.804   2.804 -2.7356 -1.1516  2.3129
  174MOL0     H23994   0.355  -0.298   2.644  1.0007 -0.7378 -0.4101
  174MOL0     H23995   0.457  -0.084   2.689 -0.8845 -1.4885 -0.4224
  174MOL0     H23996   1.316   1.098   2.837  0.4914  1.0725 -2.9070
  174MOL0     H23997   1.204   1.330   2.847  0.9095  2.1076 -0.4943
  174MOL0     H23998   1.174   1.709   2.878  0.7069  1.5145  0.5132
  174MOL0     H23999   1.060   1.916   2.847  4.1436 -0.2529  0.1880
  174MOL0     H24000   1.030   2.165   2.952  0.3648 -1.2996 -1.3402
  174MOL0     H24001   0.925   2.093   2.827 -1.8479  1.2375 -0.9160
  174MOL0     H24002   0.868   2.296   3.038  0.3838  0.4026 -0.1049
  174MOL0     H24003   0.738   2.221   2.948  0.1668  0.8760  2.1513
  174MOL0     H24004   0.882   2.300   2.735  0.9979  0.8461  0.3092
  174MOL0     H24005   0.768   2.404   2.808 -1.6636 -1.2918  1.1345
  174MOL0     H24006   0.994   2.537   2.786  1.3747  3.0882  2.4228
  174MOL0     H24007   1.062   2.398   2.874 -0.6317  0.0871  0.3656
  174MOL0     H24008   0.881   2.675   3.155 -3.5502  0.6486 -1.8912
  174MOL0     H24009   0.842   1.858   3.201  1.3508  1.1182  2.0074
  174MOL0     H24010   0.827   1.590   3.272  0.0895 -1.5228  0.2340
  174MOL0     H24011   0.983   1.510   3.288  1.0849  0.0945  0.8000
  174MOL0     H24012   0.964   1.652   3.376  1.1781  1.2831 -0.2483
  175MOL0     O24013   4.648   1.112   5.684 -0.0299  0.4470 -0.2976
  175MOL0     C24014   4.623   1.065   5.575 -0.1894  0.0508 -0.3395
  175MOL0     O24015   4.723   1.040   5.486  0.0765 -0.1030  0.0777
  175MOL0     C24016   4.850   1.085   5.499 -0.4458  0.1656  0.5097
  175MOL0     C24017   4.925   1.121   5.385  0.4885 -0.7949  0.5547
  175MOL0     C24018   5.054   1.165   5.389 -0.0192  0.0070 -0.5505
  175MOL0     C24019   5.122   1.172   5.512 -0.4275 -0.1841  0.0025
  175MOL0     O24020   5.254   1.216   5.496  0.4206 -0.3851  0.1435
  175MOL0     C24021   5.338   1.173   5.606 -0.7282 -0.2852 -0.2976
  175MOL0     C24022   5.488   1.178   5.575 -0.5106 -0.1933  0.3507
  175MOL0     C24023   5.529   1.325   5.563  1.3149 -0.2841  0.5394
  175MOL0     C24024   5.524   1.401   5.700 -0.7244  0.3731 -0.4253
  175MOL0     C24025   5.591   1.535   5.693  0.1366 -0.3834  0.1190
  175MOL0     C24026   5.559   1.617   5.819 -0.4740 -0.2450  0.4179
  175MOL0     C24027   5.630   1.754   5.810  0.2752  0.5256 -0.6171
  175MOL0     C24028   5.561   1.848   5.911  0.3902 -0.0966  0.9036
  175MOL0     N24029   5.631   1.977   5.907  0.4266 -0.1332 -0.3335
  175MOL0     C24030   5.722   2.009   5.999 -0.8233 -0.0964 -0.4831
  175MOL0     C24031   5.760   2.143   5.978 -0.1313  0.3631 -0.4014
  175MOL0     C24032   5.859   2.227   6.047  0.2737 -0.2079  0.2236
  175MOL0     C24033   5.995   2.167   6.044  0.7111 -1.7599 -0.6498
  175MOL0     C24034   6.096   2.256   6.122  1.0228  0.0897 -0.7435
  175MOL0     C24035   6.239   2.251   6.079 -1.4959  1.0274  0.3345
  175MOL0     O24036   6.299   2.119   6.094 -0.5351 -0.5394 -0.4270
  175MOL0     C24037   6.431   2.103   6.046 -0.1223 -0.6336  0.0134
  175MOL0     C24038   6.489   1.973   6.039 -0.3196 -0.1447  0.0678
  175MOL0     C24039   6.615   1.955   5.973  0.2299  0.5975 -0.1872
  175MOL0     C24040   6.648   1.815   5.956 -0.2369  0.1229 -0.0972
  175MOL0     C24041   6.687   2.063   5.917 -0.1150  0.3272 -0.8590
  175MOL0     C24042   6.806   2.051   5.825 -0.1714 -0.2868  0.5963
  175MOL0     O24043   6.893   2.161   5.815 -0.7993 -0.5594 -0.1052
  175MOL0     C24044   7.008   2.187   5.739  1.2702  0.0692  0.6466
  175MOL0     C24045   7.083   2.086   5.675 -0.6397  0.6199 -0.6352
  175MOL0     C24046   7.197   2.118   5.590  0.2322 -0.2467 -0.0815
  175MOL0     C24047   7.236   2.251   5.571 -0.7196  0.5004 -0.7460
  175MOL0     O24048   7.351   2.260   5.498 -0.1901 -0.3875  0.5866
  175MOL0     C24049   7.419   2.386   5.515 -1.1311  0.4171 -0.2566
  175MOL0     C24050   7.556   2.369   5.457 -0.2214  0.4822 -0.1248
  175MOL0     C24051   7.645   2.484   5.495  0.7713 -0.4229  0.0674
  175MOL0     C24052   7.788   2.468   5.444 -0.0679  0.8444 -0.4215
  175MOL0     C24053   7.872   2.592   5.478 -0.5125  0.3723  0.3986
  175MOL0     C24054   8.011   2.590   5.433 -1.1275 -0.5039 -0.0872
  175MOL0     C24055   8.085   2.725   5.448  0.5397  0.4917  0.4289
  175MOL0     C24056   8.235   2.714   5.420 -0.2720 -0.0479  0.4495
  175MOL0    Cl24057   8.332   2.619   5.545  0.4307  0.2062  0.1449
  175MOL0     C24058   7.169   2.348   5.648 -0.8331  0.1661  0.5565
  175MOL0     C24059   7.061   2.313   5.726  0.2280  0.3023  0.3306
  175MOL0     O24060   6.830   1.950   5.758 -0.1941 -0.3749  0.2810
  175MOL0     C24061   6.641   2.192   5.943  0.8728 -0.0341  0.5844
  175MOL0     C24062   6.516   2.204   5.996  0.2941  0.1605  0.9439
  175MOL0     N24063   5.696   2.174   5.856 -0.3791  0.7501  0.4421
  175MOL0     N24064   5.625   2.070   5.813 -0.5601  0.6055 -0.8092
  175MOL0     C24065   5.053   1.139   5.631 -0.9664  0.4191  0.6429
  175MOL0     C24066   4.918   1.096   5.624 -0.0220  0.7356  0.0781
  175MOL0     C24067   4.486   1.011   5.550 -0.4107 -0.1359 -0.8271
  175MOL0     C24068   4.488   0.912   5.453 -0.0612 -0.2377  0.0145
  175MOL0     C24069   4.370   0.866   5.393  0.6326 -0.2568 -0.4440
  175MOL0     C24070   4.254   0.907   5.451 -0.6037 -0.4842  0.0246
  175MOL0     O24071   4.137   0.850   5.413 -0.7911  0.1917 -0.3323
  175MOL0     C24072   4.068   0.769   5.516  0.8350 -0.5892  1.1069
  175MOL0     C24073   3.977   0.669   5.448 -0.3449 -0.3133  0.0524
  175MOL0     C24074   3.863   0.607   5.543 -0.6641  0.4337  0.0905
  175MOL0     C24075   3.764   0.520   5.458 -0.8974 -0.0224  0.5613
  175MOL0     C24076   3.827   0.404   5.393  0.1802 -0.2454  0.4244
  175MOL0     C24077   3.856   0.298   5.341 -0.3046 -0.1049  0.9337
  175MOL0     C24078   4.251   0.999   5.557 -0.0403  0.4969 -1.0639
  175MOL0     C24079   4.374   1.051   5.609  0.0675 -0.1015  0.0466
  175MOL0     C24080   4.367   1.156   5.719 -0.1469  0.9647 -0.0815
  175MOL0     H24081   4.882   1.086   5.291 -0.1966 -1.1898  1.0071
  175MOL0     H24082   5.119   1.171   5.302  1.7958  1.6423  0.8062
  175MOL0     H24083   5.325   1.066   5.626 -2.4587  0.4817  3.4699
  175MOL0     H24084   5.319   1.230   5.697 -0.2496  0.5335 -0.6977
  175MOL0     H24085   5.553   1.132   5.650  0.9741  2.0568  0.5453
  175MOL0     H24086   5.508   1.125   5.482 -0.7069  1.2864 -0.5837
  175MOL0     H24087   5.626   1.322   5.512  1.3248 -0.3818  0.5642
  175MOL0     H24088   5.468   1.384   5.494  1.4664  0.6799  1.2056
  175MOL0     H24089   5.420   1.412   5.730 -0.6604 -1.2934  0.5731
  175MOL0     H24090   5.580   1.348   5.777  2.0438  1.7769 -1.3455
  175MOL0     H24091   5.562   1.589   5.602 -1.2925 -0.8540  0.2702
  175MOL0     H24092   5.699   1.530   5.679  0.2065  0.5994  0.2161
  175MOL0     H24093   5.450   1.624   5.814 -0.3216  1.7093 -2.7808
  175MOL0     H24094   5.581   1.564   5.912  0.7509  1.6346  1.2489
  175MOL0     H24095   5.615   1.791   5.708  1.0852 -0.9603 -1.2987
  175MOL0     H24096   5.738   1.744   5.823  0.5474  2.2124 -1.2673
  175MOL0     H24097   5.453   1.859   5.895  0.9204  0.7450 -3.0486
  175MOL0     H24098   5.569   1.809   6.013 -0.6310  0.0639  1.0530
  175MOL0     H24099   5.768   1.942   6.071 -1.5033  2.5155  2.5933
  175MOL0     H24100   5.815   2.243   6.146 -2.2998 -1.1124 -0.6793
  175MOL0     H24101   5.869   2.318   5.987 -1.6868 -1.0129 -1.4702
  175MOL0     H24102   5.995   2.070   6.096 -1.5049 -2.0285 -1.0753
  175MOL0     H24103   6.044   2.166   5.946  1.8133 -2.5204 -0.1146
  175MOL0     H24104   6.061   2.359   6.107  1.2138  0.3680  0.5951
  175MOL0     H24105   6.096   2.235   6.229 -2.3501 -3.1467 -1.1614
  175MOL0     H24106   6.252   2.282   5.975 -0.2483  2.7958  0.9648
  175MOL0     H24107   6.296   2.316   6.146  0.7326 -0.0736 -0.4032
  175MOL0     H24108   6.439   1.897   6.099  0.4403 -0.7345 -0.0337
  175MOL0     H24109   6.628   1.778   5.855  1.9929 -0.9351 -0.2050
  175MOL0     H24110   6.602   1.752   6.032  1.1674  1.1569  1.7144
  175MOL0     H24111   6.756   1.800   5.962 -0.1208  1.3647  1.6852
  175MOL0     H24112   7.046   1.984   5.673 -4.4318  1.8492 -3.1941
  175MOL0     H24113   7.247   2.030   5.552  3.5332  0.7505  1.5805
  175MOL0     H24114   7.361   2.470   5.478  1.5573  1.2030 -3.0744
  175MOL0     H24115   7.430   2.414   5.621 -1.1438 -0.0733 -0.1200
  175MOL0     H24116   7.600   2.272   5.482  0.2579  0.5190 -0.7919
  175MOL0     H24117   7.546   2.344   5.351  2.7280 -1.6946 -0.0169
  175MOL0     H24118   7.637   2.474   5.603 -1.3057 -0.5345 -0.0618
  175MOL0     H24119   7.604   2.584   5.476 -1.1078 -1.4470 -1.6935
  175MOL0     H24120   7.797   2.446   5.337 -1.3003 -1.0278 -0.1851
  175MOL0     H24121   7.824   2.377   5.494 -2.4482  0.2125  0.2629
  175MOL0     H24122   7.824   2.678   5.430  0.4035  1.7766  1.9080
  175MOL0     H24123   7.878   2.613   5.585  3.9132 -1.1146  0.6766
  175MOL0     H24124   8.024   2.554   5.331 -0.6823 -1.1677  0.1941
  175MOL0     H24125   8.068   2.516   5.490 -2.1558 -0.9694  0.3768
  175MOL0     H24126   8.066   2.766   5.548  1.1051 -1.7553  1.5290
  175MOL0     H24127   8.043   2.799   5.379  0.8491  2.1512  1.9471
  175MOL0     H24128   8.279   2.814   5.412  1.9982 -0.8768  1.6358
  175MOL0     H24129   8.268   2.672   5.324  3.9575  4.5720 -0.5129
  175MOL0     H24130   7.203   2.450   5.659 -0.2759 -0.0291  0.6766
  175MOL0     H24131   7.013   2.399   5.772  1.6767  1.3069  0.0255
  175MOL0     H24132   6.690   2.277   5.898 -2.2674  0.6021 -2.0197
  175MOL0     H24133   6.486   2.308   6.000  0.8635  0.3100  2.9556
  175MOL0     H24134   5.095   1.153   5.730  0.4129 -0.2183  0.1856
  175MOL0     H24135   4.876   1.062   5.719 -0.3994  0.9687 -0.0042
  175MOL0     H24136   4.582   0.879   5.410 -0.3431 -0.1767 -0.6619
  175MOL0     H24137   4.359   0.787   5.321 -0.6915  0.5925 -1.2085
  175MOL0     H24138   4.137   0.721   5.585  1.1672 -1.9858 -0.1398
  175MOL0     H24139   4.008   0.838   5.577 -0.8776  3.0429 -3.9961
  175MOL0     H24140   4.036   0.590   5.403 -0.9195 -1.2188  0.8350
  175MOL0     H24141   3.927   0.726   5.369  0.9508  1.5340  0.4879
  175MOL0     H24142   3.905   0.538   5.616 -0.3023 -1.2976 -1.6917
  175MOL0     H24143   3.795   0.675   5.597  1.1267 -0.0451  3.1625
  175MOL0     H24144   3.728   0.589   5.380  1.6507  2.5467  1.5054
  175MOL0     H24145   3.689   0.486   5.530 -2.8579  0.0589 -1.3131
  175MOL0     H24146   3.861   0.203   5.293 -1.1965 -0.2083  1.0306
  175MOL0     H24147   4.163   1.040   5.604  0.0690  0.5543 -0.9081
  175MOL0     H24148   4.269   1.204   5.713 -0.6051  0.5253  2.4691
  175MOL0     H24149   4.371   1.121   5.823 -2.7202  1.6431  0.3207
  175MOL0     H24150   4.455   1.220   5.708  1.8691 -1.6660 -0.3071
  176MOL0     O24151   7.710   4.376   0.509  0.6768  0.4100  0.2810
  176MOL0     C24152   7.678   4.424   0.615 -0.5263  0.0642 -0.0493
  176MOL0     O24153   7.749   4.416   0.727 -0.4463 -0.0272 -0.4588
  176MOL0     C24154   7.870   4.348   0.723 -0.3561 -0.7142  0.4777
  176MOL0     C24155   7.888   4.235   0.798 -0.8593 -0.3131 -0.3151
  176MOL0     C24156   8.016   4.173   0.805  0.2388  0.4131  0.4883
  176MOL0     C24157   8.130   4.230   0.734  0.2197  0.4701 -0.9197
  176MOL0     O24158   8.255   4.192   0.733 -0.9423 -0.3605 -0.6609
  176MOL0     C24159   8.287   4.054   0.719  0.0167  0.7346 -0.2466
  176MOL0     C24160   8.410   4.017   0.647 -0.6090 -0.1127 -0.6446
  176MOL0     C24161   8.396   4.033   0.492  0.4886  0.3455 -0.2373
  176MOL0     C24162   8.520   4.022   0.409  1.0471  0.6191  0.1024
  176MOL0     C24163   8.636   4.107   0.464  0.8101  0.3643 -0.1873
  176MOL0     C24164   8.748   4.123   0.360 -0.3100  0.2383  0.0785
  176MOL0     C24165   8.815   4.004   0.303  0.3300  0.2741 -0.0447
  176MOL0     C24166   8.897   4.035   0.172 -0.7791 -0.1877  0.6425
  176MOL0     N24167   8.810   4.070   0.064  0.5044  0.0312  0.8476
  176MOL0     C24168   8.781   3.992  -0.055  0.7214  0.9239  0.0186
  176MOL0     C24169   8.754   4.070  -0.156 -1.1162 -0.8469 -0.2587
  176MOL0     C24170   8.723   4.025  -0.298 -0.1873  0.9857 -0.2510
  176MOL0     C24171   8.841   4.015  -0.394 -0.2151  0.1594 -0.6851
  176MOL0     C24172   8.929   3.891  -0.364 -0.8218 -0.5623  1.0708
  176MOL0     C24173   9.033   3.881  -0.479  1.1272  0.2758  0.1795
  176MOL0     O24174   9.125   3.776  -0.455 -0.3597  0.3863 -0.1923
  176MOL0     C24175   9.237   3.784  -0.532 -1.7349  0.3928  0.2779
  176MOL0     C24176   9.258   3.849  -0.652 -0.2702  0.7695  0.0250
  176MOL0     C24177   9.375   3.839  -0.721 -0.5404 -0.1396  0.0769
  176MOL0     C24178   9.386   3.910  -0.860 -0.8498  0.4931 -1.1319
  176MOL0     C24179   9.482   3.765  -0.670 -0.0621 -0.6075 -0.2318
  176MOL0     C24180   9.615   3.767  -0.731 -0.0885  0.0918  0.7071
  176MOL0     O24181   9.696   3.663  -0.708 -0.4817  0.4040 -0.5339
  176MOL0     C24182   9.811   3.647  -0.784 -1.3506 -0.2473 -1.0506
  176MOL0     C24183   9.921   3.619  -0.706 -0.2608  0.5661  0.0903
  176MOL0     C24184  10.047   3.588  -0.764  0.7039 -0.5202 -0.2418
  176MOL0     C24185  10.062   3.600  -0.903 -0.2595  1.1329  0.9869
  176MOL0     O24186  10.179   3.550  -0.964 -0.0781  0.0088 -0.1329
  176MOL0     C24187  10.250   3.645  -1.033 -0.2236  0.2760  0.0558
  176MOL0     C24188  10.390   3.599  -1.079  0.3697  0.1722  0.2600
  176MOL0     C24189  10.395   3.486  -1.180  0.1219  0.8452 -0.0691
  176MOL0     C24190  10.320   3.522  -1.314 -0.6903  0.2308 -0.6723
  176MOL0     C24191  10.362   3.419  -1.411  0.5437 -0.3644  0.1312
  176MOL0     C24192  10.309   3.438  -1.549  0.6620  0.6579 -0.1203
  176MOL0     C24193  10.160   3.417  -1.553 -0.4509  0.2545 -0.3751
  176MOL0     C24194  10.092   3.445  -1.685  0.4783 -0.1560  0.5687
  176MOL0    Cl24195   9.946   3.358  -1.693  0.0078 -0.0529  0.0775
  176MOL0     C24196   9.955   3.653  -0.982 -1.0774 -0.4915 -0.6804
  176MOL0     C24197   9.827   3.662  -0.925 -0.3937  0.3292 -0.5240
  176MOL0     O24198   9.658   3.868  -0.788 -0.3345 -0.4245  0.8688
  176MOL0     C24199   9.472   3.696  -0.545 -0.2408 -0.4659  0.1109
  176MOL0     C24200   9.349   3.713  -0.475 -0.6093 -0.5845  0.9429
  176MOL0     N24201   8.745   4.196  -0.100  0.4615 -0.6277 -0.2150
  176MOL0     N24202   8.772   4.197   0.028 -0.7293  0.2571  0.4740
  176MOL0     C24203   8.111   4.347   0.651 -0.2405 -0.0996 -0.0854
  176MOL0     C24204   7.982   4.403   0.644  0.2868  0.3100  0.2827
  176MOL0     C24205   7.556   4.508   0.623  0.3780 -0.0949  0.6371
  176MOL0     C24206   7.496   4.537   0.749  0.4035  0.5491  0.0754
  176MOL0     C24207   7.374   4.609   0.767  0.1687 -0.6523  0.5417
  176MOL0     C24208   7.305   4.649   0.660 -0.4112  0.1328 -0.1933
  176MOL0     O24209   7.184   4.716   0.682 -0.1891  0.0986  0.5454
  176MOL0     C24210   7.114   4.794   0.585 -0.9412  0.0449  1.3258
  176MOL0     C24211   6.993   4.866   0.639  0.7596  0.1888  0.6137
  176MOL0     C24212   6.872   4.779   0.659 -1.0030 -0.3793  0.0289
  176MOL0     C24213   6.748   4.841   0.729 -0.4626  0.8185 -0.2955
  176MOL0     C24214   6.673   4.927   0.634  0.2596  1.8340 -0.2802
  176MOL0     C24215   6.613   4.987   0.554 -0.2863 -0.7878  0.1526
  176MOL0     C24216   7.361   4.634   0.531 -1.0018  0.4596 -0.6151
  176MOL0     C24217   7.484   4.562   0.512  0.1387 -0.5191  0.6925
  176MOL0     C24218   7.531   4.541   0.364 -0.3774  0.4313 -0.3488
  176MOL0     H24219   7.807   4.202   0.863  0.2945  1.6027  2.3161
  176MOL0     H24220   8.031   4.091   0.874  0.3626 -0.7665 -0.9064
  176MOL0     H24221   8.205   4.007   0.664 -0.0564 -2.2923  2.2013
  176MOL0     H24222   8.288   4.001   0.814 -0.9967  1.6616  0.2980
  176MOL0     H24223   8.496   4.070   0.689 -0.7059 -0.5072  0.0629
  176MOL0     H24224   8.432   3.910   0.658  0.1040  0.0607 -0.3435
  176MOL0     H24225   8.323   3.956   0.465  0.4755 -0.7271  2.5016
  176MOL0     H24226   8.351   4.133   0.481  4.3914  2.2848 -0.1787
  176MOL0     H24227   8.559   3.921   0.392 -0.0366 -0.0346  1.3704
  176MOL0     H24228   8.487   4.055   0.310 -1.9221 -1.5567  0.2158
  176MOL0     H24229   8.679   4.064   0.555  3.6602 -0.8447 -1.9796
  176MOL0     H24230   8.595   4.205   0.491  1.3378  0.6185 -0.3007
  176MOL0     H24231   8.703   4.186   0.283  0.4909  1.1560  0.3347
  176MOL0     H24232   8.834   4.169   0.409  0.6343 -0.9589 -0.3955
  176MOL0     H24233   8.734   3.939   0.269 -1.6773  2.3135  0.5649
  176MOL0     H24234   8.870   3.951   0.381  1.2342  0.6564 -0.4119
  176MOL0     H24235   8.959   4.124   0.186 -0.8411 -0.1002  0.3725
  176MOL0     H24236   8.968   3.956   0.146  0.1454  0.5669  0.7885
  176MOL0     H24237   8.802   3.886  -0.054  0.2682  0.8224 -0.7054
  176MOL0     H24238   8.652   4.101  -0.330  0.5062  1.5135 -0.5710
  176MOL0     H24239   8.669   3.930  -0.301  1.0513  0.2738 -2.7587
  176MOL0     H24240   8.806   4.022  -0.497 -2.5925  0.7179  0.0825
  176MOL0     H24241   8.897   4.108  -0.377 -0.5040  0.2265 -0.0836
  176MOL0     H24242   8.982   3.894  -0.269 -0.7202  1.4946  0.9930
  176MOL0     H24243   8.871   3.798  -0.373 -0.6975 -0.5273 -0.3686
  176MOL0     H24244   8.974   3.846  -0.565  0.8328 -2.4873  1.4166
  176MOL0     H24245   9.084   3.977  -0.493  2.3567  0.2737  3.7092
  176MOL0     H24246   9.176   3.898  -0.703 -2.7220 -2.5205  0.4777
  176MOL0     H24247   9.284   3.939  -0.887 -1.5373  0.3497  1.0937
  176MOL0     H24248   9.422   3.843  -0.939  2.0193  3.0178 -2.1602
  176MOL0     H24249   9.461   3.989  -0.852 -0.7865  0.4462 -1.2603
  176MOL0     H24250   9.894   3.606  -0.602 -0.4619 -0.1594 -0.0443
  176MOL0     H24251  10.119   3.547  -0.694  1.7351  0.2423 -0.8171
  176MOL0     H24252  10.189   3.693  -1.110  0.1726  0.5652 -0.0858
  176MOL0     H24253  10.276   3.730  -0.969 -1.3484  0.7851 -0.1380
  176MOL0     H24254  10.437   3.684  -1.128  2.2283 -0.4827  0.8318
  176MOL0     H24255  10.445   3.579  -0.986 -0.6595  0.9261  1.0566
  176MOL0     H24256  10.351   3.398  -1.132 -0.3873  0.7909 -0.6179
  176MOL0     H24257  10.500   3.458  -1.197 -0.4450 -0.8968 -0.9762
  176MOL0     H24258  10.353   3.624  -1.337 -2.4774  0.8120 -0.8168
  176MOL0     H24259  10.211   3.520  -1.301 -1.0991  0.2329 -3.4204
  176MOL0     H24260  10.471   3.412  -1.422  0.5518  1.5248 -1.6100
  176MOL0     H24261  10.328   3.327  -1.364 -0.9147  0.8267  1.5232
  176MOL0     H24262  10.359   3.363  -1.610 -2.2841 -1.4397 -0.1462
  176MOL0     H24263  10.329   3.537  -1.592  1.7412  1.7445  2.6678
  176MOL0     H24264  10.107   3.467  -1.472  0.4585 -0.3514  0.6228
  176MOL0     H24265  10.149   3.313  -1.521  1.2497  1.2664  4.2953
  176MOL0     H24266  10.150   3.425  -1.776 -0.7394  3.1307 -1.0911
  176MOL0     H24267  10.077   3.554  -1.681  1.3819 -0.0059  0.2629
  176MOL0     H24268   9.965   3.671  -1.088  2.0863  1.7298 -0.1513
  176MOL0     H24269   9.744   3.676  -0.994  0.0454 -0.0792 -1.1400
  176MOL0     H24270   9.559   3.645  -0.506  0.4627  0.2353 -0.4964
  176MOL0     H24271   9.340   3.665  -0.378  0.8880 -1.4875  0.6716
  176MOL0     H24272   8.197   4.387   0.598  1.7389 -0.7915  2.3644
  176MOL0     H24273   7.976   4.496   0.588  0.6034 -0.1759 -0.5760
  176MOL0     H24274   7.550   4.503   0.836 -0.8319  1.4885  1.2564
  176MOL0     H24275   7.339   4.617   0.869  2.3278 -4.4397  1.7906
  176MOL0     H24276   7.180   4.870   0.542  1.9246 -3.3235 -0.7892
  176MOL0     H24277   7.094   4.729   0.500  0.6074 -1.5054  2.0877
  176MOL0     H24278   6.968   4.957   0.584 -3.2139  0.0960  1.9476
  176MOL0     H24279   7.023   4.889   0.742  2.0043  0.5458  0.1901
  176MOL0     H24280   6.834   4.749   0.561 -1.8974  0.4867  0.0916
  176MOL0     H24281   6.902   4.690   0.716 -2.3657 -0.4732  0.6362
  176MOL0     H24282   6.779   4.915   0.804  3.6653  2.0758 -2.9115
  176MOL0     H24283   6.684   4.765   0.776 -0.3119  1.1038  0.3899
  176MOL0     H24284   6.555   5.039   0.481 -0.2657  3.0062  2.5425
  176MOL0     H24285   7.313   4.682   0.446  1.6812  2.2178 -1.2247
  176MOL0     H24286   7.610   4.612   0.339 -0.4066  0.5001 -0.2487
  176MOL0     H24287   7.562   4.442   0.330 -0.3571  0.7622 -1.3360
  176MOL0     H24288   7.441   4.550   0.303 -1.4537  2.0778  1.3519
  177MOL0     O24289   9.200   4.995   5.551  0.3828 -0.4647 -0.7005
  177MOL0     C24290   9.240   4.894   5.505 -0.5372  0.0295 -0.4297
  177MOL0     O24291   9.341   4.890   5.408  0.0941 -0.4597 -0.0172
  177MOL0     C24292   9.396   5.001   5.350 -0.3122  0.0935  0.5300
  177MOL0     C24293   9.368   5.138   5.349  0.0028 -0.9695 -0.5479
  177MOL0     C24294   9.435   5.239   5.277  0.1542 -0.7071 -0.0566
  177MOL0     C24295   9.535   5.196   5.191  0.2615  0.1638 -0.1226
  177MOL0     O24296   9.611   5.276   5.103  0.2701  0.0278 -0.2690
  177MOL0     C24297   9.583   5.410   5.087  0.1244  1.0935 -0.6823
  177MOL0     C24298   9.646   5.425   4.948  0.1330  0.3825 -0.4305
  177MOL0     C24299   9.796   5.462   4.957 -0.0189 -0.1850  0.7923
  177MOL0     C24300   9.845   5.484   4.820 -0.2226  0.0848  0.4295
  177MOL0     C24301   9.995   5.487   4.811  0.7582  0.1810  0.0557
  177MOL0     C24302  10.041   5.467   4.668 -0.3963  0.5725  0.5996
  177MOL0     C24303  10.195   5.483   4.653 -0.8274 -0.0553  1.3850
  177MOL0     C24304  10.233   5.467   4.503  0.5644 -0.5616 -0.6832
  177MOL0     N24305  10.373   5.502   4.481 -0.2941 -0.2172  0.1303
  177MOL0     C24306  10.473   5.402   4.485  0.4723 -1.0814 -0.2221
  177MOL0     C24307  10.579   5.478   4.448 -0.5156  0.2050 -0.5479
  177MOL0     C24308  10.718   5.408   4.436 -1.1220  0.2590 -0.3937
  177MOL0     C24309  10.822   5.491   4.359  1.1799  0.7584 -1.3367
  177MOL0     C24310  10.943   5.410   4.326 -0.2898 -0.6727  0.6670
  177MOL0     C24311  11.003   5.482   4.200  0.6159 -0.6750 -0.3757
  177MOL0     O24312  11.110   5.402   4.148  0.1224 -0.0922 -0.1711
  177MOL0     C24313  11.192   5.460   4.056 -0.8041 -0.3152 -0.4415
  177MOL0     C24314  11.306   5.384   4.028 -0.5364  0.2513 -1.7936
  177MOL0     C24315  11.394   5.421   3.925 -0.1783  0.1784 -0.4643
  177MOL0     C24316  11.499   5.313   3.897  0.1934  0.0837  0.5682
  177MOL0     C24317  11.373   5.536   3.851 -0.0965 -0.2829  0.3292
  177MOL0     C24318  11.477   5.590   3.752  0.5350 -0.1787 -0.8300
  177MOL0     O24319  11.440   5.711   3.697  0.0715 -0.5034 -0.5645
  177MOL0     C24320  11.519   5.773   3.614  0.0615 -0.5021  0.4987
  177MOL0     C24321  11.510   5.743   3.476 -0.6009 -0.5700  0.1698
  177MOL0     C24322  11.604   5.806   3.385 -0.3455  0.5481 -0.0703
  177MOL0     C24323  11.706   5.896   3.429  0.2097 -0.1205  0.7742
  177MOL0     O24324  11.790   5.956   3.335 -0.0957  0.5681  0.3294
  177MOL0     C24325  11.843   6.088   3.365  0.0699  0.3655  0.7784
  177MOL0     C24326  11.875   6.135   3.219  0.1433 -0.1502 -1.5453
  177MOL0     C24327  12.012   6.096   3.185 -0.5435  0.5467 -0.1384
  177MOL0     C24328  12.026   6.119   3.030 -1.1050 -0.6225  0.2334
  177MOL0     C24329  12.180   6.121   2.998  0.1421  0.4846 -0.0713
  177MOL0     C24330  12.213   6.135   2.854  0.4993 -0.8862 -0.7704
  177MOL0     C24331  12.138   6.042   2.761  0.3243  0.4080  0.2313
  177MOL0     C24332  12.194   6.046   2.615 -0.3696 -0.3898  0.0218
  177MOL0    Cl24333  12.112   6.173   2.527 -0.1937 -0.0275  0.4793
  177MOL0     C24334  11.705   5.931   3.564  0.3813 -0.2841  0.4154
  177MOL0     C24335  11.620   5.864   3.653 -0.6115 -0.9236 -0.8994
  177MOL0     O24336  11.574   5.525   3.716 -0.7089 -0.1276 -0.9774
  177MOL0     C24337  11.254   5.606   3.878  0.3061 -0.8868  0.1261
  177MOL0     C24338  11.169   5.577   3.979 -0.8370  1.1860  0.8158
  177MOL0     N24339  10.551   5.610   4.417  0.5687  0.0752  0.1987
  177MOL0     N24340  10.424   5.620   4.440 -0.0881 -0.6132  0.3931
  177MOL0     C24341   9.572   5.068   5.190 -0.8473 -0.3235 -0.0063
  177MOL0     C24342   9.503   4.967   5.259  0.4147  0.7212  0.3556
  177MOL0     C24343   9.183   4.767   5.549  0.2704  0.2799 -0.4147
  177MOL0     C24344   9.230   4.651   5.479  0.3332 -0.9938  0.6748
  177MOL0     C24345   9.156   4.528   5.493 -0.0129  0.0356 -0.0990
  177MOL0     C24346   9.050   4.515   5.578 -0.3759  0.6777  0.4776
  177MOL0     O24347   8.974   4.401   5.573  0.1111 -0.0481  0.0655
  177MOL0     C24348   8.891   4.355   5.682  0.0060 -0.5531 -0.8713
  177MOL0     C24349   8.759   4.419   5.676  0.0179 -0.6504 -0.6551
  177MOL0     C24350   8.652   4.375   5.780  0.5134  0.6201  0.0022
  177MOL0     C24351   8.691   4.383   5.931  0.0972 -0.4995 -0.3902
  177MOL0     C24352   8.578   4.352   6.013 -0.1426  0.4490  0.4622
  177MOL0     C24353   8.487   4.313   6.087  0.0778 -0.2794 -0.0496
  177MOL0     C24354   9.038   4.616   5.666 -0.4991 -0.0325 -0.0966
  177MOL0     C24355   9.086   4.745   5.649 -0.5646  0.1288  0.9361
  177MOL0     C24356   9.042   4.854   5.742  0.6612 -0.1535 -0.1734
  177MOL0     H24357   9.284   5.167   5.411 -0.1961 -1.7201 -0.4571
  177MOL0     H24358   9.405   5.343   5.278 -2.5951 -1.4270  0.7938
  177MOL0     H24359   9.615   5.480   5.165  1.1310  0.8131 -0.8294
  177MOL0     H24360   9.475   5.427   5.081  0.0658  0.7099 -0.6996
  177MOL0     H24361   9.628   5.338   4.884 -0.5976  1.0634 -1.1507
  177MOL0     H24362   9.597   5.509   4.899 -0.2592  0.3408 -0.1184
  177MOL0     H24363   9.824   5.550   5.015  1.5090  0.0331 -0.2023
  177MOL0     H24364   9.839   5.370   4.998  0.9230 -0.3200 -0.4303
  177MOL0     H24365   9.814   5.409   4.747 -1.2885  0.2059  0.7320
  177MOL0     H24366   9.797   5.576   4.785 -2.3628 -1.6395 -1.4933
  177MOL0     H24367  10.043   5.421   4.884 -0.3746 -0.5334  0.1823
  177MOL0     H24368  10.037   5.584   4.838  0.1287  1.0648 -1.9754
  177MOL0     H24369  10.028   5.362   4.640  3.8961  0.4636 -1.7489
  177MOL0     H24370   9.986   5.536   4.604 -1.2583  0.2111  0.9344
  177MOL0     H24371  10.260   5.405   4.696  1.4906  0.9284 -0.1309
  177MOL0     H24372  10.234   5.577   4.692 -0.0402 -0.8270  2.5590
  177MOL0     H24373  10.218   5.364   4.471  0.4882 -0.4296 -1.0710
  177MOL0     H24374  10.168   5.527   4.439  0.8115 -0.9121 -1.2688
  177MOL0     H24375  10.478   5.303   4.529  0.5191 -1.0264 -0.1060
  177MOL0     H24376  10.694   5.318   4.380  0.3452 -1.2256  1.2660
  177MOL0     H24377  10.757   5.387   4.536 -0.2989  0.8582 -0.5765
  177MOL0     H24378  10.772   5.521   4.266  1.5723  1.6984 -1.2553
  177MOL0     H24379  10.847   5.578   4.420  1.2443  0.0127 -0.2676
  177MOL0     H24380  11.010   5.418   4.411 -2.8353 -1.0694  2.8555
  177MOL0     H24381  10.923   5.305   4.304 -0.4056 -0.6674  0.7489
  177MOL0     H24382  10.924   5.486   4.125  2.5333 -1.3590 -2.5500
  177MOL0     H24383  11.043   5.580   4.231  1.4468 -0.9343 -0.5951
  177MOL0     H24384  11.307   5.292   4.086  0.6320  1.6982  0.6739
  177MOL0     H24385  11.491   5.242   3.980 -2.0416  0.2696  0.5610
  177MOL0     H24386  11.598   5.359   3.905  1.3639 -2.0680 -0.6847
  177MOL0     H24387  11.485   5.264   3.801 -0.8836  0.1048  0.7029
  177MOL0     H24388  11.435   5.668   3.454  2.2495 -4.0522  1.3670
  177MOL0     H24389  11.604   5.781   3.280  2.1768  1.1974 -0.2697
  177MOL0     H24390  11.788   6.164   3.421  0.9330  4.0059 -2.8366
  177MOL0     H24391  11.937   6.078   3.420 -0.2687  3.2001  2.0755
  177MOL0     H24392  11.798   6.092   3.153 -2.4051  0.1737  0.9883
  177MOL0     H24393  11.860   6.243   3.220  2.8754  0.2886 -0.0919
  177MOL0     H24394  12.021   5.988   3.200 -2.8719 -0.0251 -2.1556
  177MOL0     H24395  12.086   6.143   3.250 -2.1182  3.0105 -0.0163
  177MOL0     H24396  11.976   6.210   2.995  2.9515  1.6875 -0.1988
  177MOL0     H24397  11.977   6.033   2.984 -1.1529  0.3067 -1.5249
  177MOL0     H24398  12.224   6.201   3.058 -1.1379  2.0762 -1.1696
  177MOL0     H24399  12.226   6.026   3.029  1.9412  1.7210  1.2604
  177MOL0     H24400  12.322   6.130   2.844  1.3083 -0.4425  4.8467
  177MOL0     H24401  12.195   6.240   2.829 -2.5453 -0.1833  3.3256
  177MOL0     H24402  12.032   6.071   2.762  0.1322 -0.2805  0.4724
  177MOL0     H24403  12.143   5.945   2.810 -0.2075  1.3243  2.2160
  177MOL0     H24404  12.198   5.953   2.558 -0.4655 -0.6104  0.3670
  177MOL0     H24405  12.299   6.076   2.627 -0.7955  0.7224  1.2831
  177MOL0     H24406  11.786   5.997   3.592 -0.0157  0.6429 -0.5278
  177MOL0     H24407  11.630   5.864   3.761  0.6632 -6.1123 -0.7456
  177MOL0     H24408  11.236   5.698   3.822  2.0090  0.1042  1.1180
  177MOL0     H24409  11.090   5.643   4.014 -2.2947 -0.6234  1.0834
  177MOL0     H24410   9.650   5.029   5.125 -0.5794 -0.4034  0.3611
  177MOL0     H24411   9.523   4.862   5.240  1.8145  0.1954  3.9892
  177MOL0     H24412   9.311   4.656   5.407  0.4739 -1.4618  0.7981
  177MOL0     H24413   9.176   4.449   5.421 -0.1169  0.5313 -0.6818
  177MOL0     H24414   8.880   4.248   5.662  0.4800 -0.5103 -1.3456
  177MOL0     H24415   8.952   4.375   5.771 -0.6899  0.4790 -0.6067
  177MOL0     H24416   8.721   4.405   5.575  0.9854 -0.8600 -1.0038
  177MOL0     H24417   8.780   4.526   5.691  1.9348 -0.8641 -1.4892
  177MOL0     H24418   8.567   4.442   5.767 -0.3098 -0.4563 -0.2684
  177MOL0     H24419   8.627   4.269   5.764 -1.2868  1.2790 -2.0199
  177MOL0     H24420   8.743   4.476   5.953  0.4850 -1.2192  2.0537
  177MOL0     H24421   8.772   4.317   5.963 -0.3392 -0.0829  1.7272
  177MOL0     H24422   8.402   4.275   6.140  0.3891 -1.3048 -0.2469
  177MOL0     H24423   8.964   4.604   5.744 -2.2615  0.0931 -1.6756
  177MOL0     H24424   8.981   4.929   5.691 -0.0098  2.1529  3.6451
  177MOL0     H24425   8.978   4.820   5.824  0.7954  0.8726  0.3691
  177MOL0     H24426   9.125   4.902   5.795  2.3755  0.3416 -3.0942
  178MOL0     O24427   6.951   0.704   1.029  0.3624  0.2366 -0.7015
  178MOL0     C24428   6.844   0.666   1.081 -0.1817 -0.1022 -0.4360
  178MOL0     O24429   6.789   0.722   1.191  0.1232 -0.5016  0.6340
  178MOL0     C24430   6.847   0.822   1.274  0.9151  0.0369  1.3285
  178MOL0     C24431   6.842   0.805   1.419  0.2228 -1.3920 -0.5609
  178MOL0     C24432   6.906   0.896   1.504 -0.2615 -0.2829  0.7090
  178MOL0     C24433   6.966   1.004   1.446 -0.1369 -0.2952  0.7635
  178MOL0     O24434   7.042   1.080   1.529  0.4125  0.3814  0.0962
  178MOL0     C24435   7.177   1.102   1.483  0.6274 -0.1859  0.1671
  178MOL0     C24436   7.267   1.147   1.610  0.0489 -0.1253  0.8712
  178MOL0     C24437   7.265   1.301   1.634 -0.0917 -0.6304 -0.1161
  178MOL0     C24438   7.376   1.329   1.736 -0.6661 -0.8214  0.0442
  178MOL0     C24439   7.427   1.474   1.716 -0.7242  1.0158 -1.2414
  178MOL0     C24440   7.539   1.506   1.821  0.3990 -0.3052  0.3633
  178MOL0     C24441   7.572   1.652   1.823 -0.5213 -0.2242  0.2201
  178MOL0     C24442   7.654   1.686   1.700  0.2181 -1.3121 -0.1734
  178MOL0     N24443   7.662   1.842   1.677 -0.6255 -0.0026 -0.5164
  178MOL0     C24444   7.637   1.910   1.554 -0.1780  0.2284  0.2304
  178MOL0     C24445   7.660   2.039   1.588 -0.2631 -0.4995  0.1760
  178MOL0     C24446   7.619   2.161   1.512  0.0992  0.1258  1.0313
  178MOL0     C24447   7.737   2.235   1.467 -1.2731 -1.2674 -0.1148
  178MOL0     C24448   7.680   2.359   1.391  0.0290  0.0391  0.1692
  178MOL0     C24449   7.731   2.388   1.253 -0.4803 -0.3051 -0.5585
  178MOL0     O24450   7.875   2.353   1.231  0.5046 -0.3879 -0.1509
  178MOL0     C24451   7.973   2.433   1.279 -0.3112 -0.5420  0.7469
  178MOL0     C24452   7.958   2.570   1.316 -0.1728  0.0020  0.6557
  178MOL0     C24453   8.055   2.659   1.358  0.4288  0.9567 -0.7122
  178MOL0     C24454   8.019   2.798   1.396  0.3237 -0.0699 -0.3170
  178MOL0     C24455   8.187   2.607   1.366  0.4895  0.9054  0.1518
  178MOL0     C24456   8.318   2.684   1.404 -0.1386  0.1666  0.8175
  178MOL0     O24457   8.433   2.618   1.436  0.1157  0.0160 -0.0143
  178MOL0     C24458   8.539   2.697   1.463 -0.7765  0.2780 -0.3062
  178MOL0     C24459   8.635   2.720   1.362  0.0600 -0.9000 -0.4925
  178MOL0     C24460   8.751   2.801   1.389  0.1859  0.1111 -0.2516
  178MOL0     C24461   8.779   2.848   1.517 -0.4248  0.4402 -1.2086
  178MOL0     O24462   8.884   2.934   1.527 -0.9496  0.2251 -0.4229
  178MOL0     C24463   8.965   2.923   1.647  0.3668 -0.2488 -0.7240
  178MOL0     C24464   9.051   2.806   1.637 -0.3694 -0.8861  0.6092
  178MOL0     C24465   9.140   2.787   1.770 -0.0106  0.1870 -0.0369
  178MOL0     C24466   9.188   2.644   1.776 -0.2179 -0.7385 -0.1115
  178MOL0     C24467   9.295   2.610   1.878 -0.6492  0.6975 -0.3496
  178MOL0     C24468   9.235   2.636   2.024 -0.4581 -0.4977 -0.0701
  178MOL0     C24469   9.339   2.616   2.133 -0.3223 -0.2470  0.2158
  178MOL0     C24470   9.287   2.653   2.271 -0.4294 -0.4944 -0.6484
  178MOL0    Cl24471   9.316   2.828   2.290 -0.1049  0.1760 -0.1697
  178MOL0     C24472   8.694   2.812   1.620 -0.5971  0.4120 -0.8975
  178MOL0     C24473   8.577   2.739   1.593 -0.7112  0.4789  0.0919
  178MOL0     O24474   8.309   2.798   1.384  0.3235 -0.3203  0.4651
  178MOL0     C24475   8.205   2.470   1.344  0.4526 -0.8160  0.0241
  178MOL0     C24476   8.101   2.388   1.291  0.0421 -0.0671  0.1712
  178MOL0     N24477   7.697   2.051   1.721 -0.4510 -0.8031  0.2569
  178MOL0     N24478   7.698   1.933   1.771  0.2702 -0.6765 -0.3625
  178MOL0     C24479   6.943   1.039   1.312 -0.3338 -0.5528 -0.3373
  178MOL0     C24480   6.897   0.943   1.225  0.3880  0.4957  0.7982
  178MOL0     C24481   6.759   0.557   1.018 -0.6687 -0.3912  0.3019
  178MOL0     C24482   6.693   0.468   1.100 -0.2686  1.2845 -0.2310
  178MOL0     C24483   6.620   0.354   1.058 -0.0204 -0.0809 -0.0167
  178MOL0     C24484   6.603   0.333   0.923  0.5570 -0.4248 -0.0216
  178MOL0     O24485   6.530   0.239   0.862 -0.5987 -0.3453  0.0238
  178MOL0     C24486   6.423   0.163   0.926  0.0059  0.3180  0.0929
  178MOL0     C24487   6.294   0.245   0.935  0.3594 -0.8484 -0.1641
  178MOL0     C24488   6.233   0.282   0.798  0.2071  0.5214 -0.3043
  178MOL0     C24489   6.151   0.173   0.731  0.9598 -0.6953  1.5223
  178MOL0     C24490   6.026   0.147   0.806 -0.3505  0.8773  0.8244
  178MOL0     C24491   5.943   0.126   0.891 -0.7528 -0.1989  0.0540
  178MOL0     C24492   6.672   0.416   0.837 -0.1432 -0.4554  0.6600
  178MOL0     C24493   6.749   0.524   0.881 -0.2150  0.4243 -0.3041
  178MOL0     C24494   6.815   0.603   0.779 -1.0528 -0.1659  0.4139
  178MOL0     H24495   6.804   0.710   1.453 -0.5282 -0.7833  0.3556
  178MOL0     H24496   6.935   0.876   1.607 -1.2164  0.1267  1.0720
  178MOL0     H24497   7.169   1.166   1.395  1.5159 -1.9022 -1.2139
  178MOL0     H24498   7.209   1.010   1.434  2.2847  1.1503 -1.3764
  178MOL0     H24499   7.234   1.106   1.706 -0.4234 -3.3265 -0.5127
  178MOL0     H24500   7.372   1.123   1.591 -0.0419  1.1061 -1.5403
  178MOL0     H24501   7.265   1.357   1.540  2.7265  2.7033  1.6315
  178MOL0     H24502   7.168   1.333   1.672  0.1212  0.2906 -0.3144
  178MOL0     H24503   7.336   1.315   1.837 -3.5137 -1.9974 -1.1418
  178MOL0     H24504   7.461   1.263   1.720  0.0871 -0.2770  1.6004
  178MOL0     H24505   7.342   1.541   1.730 -1.3463  0.4187 -2.1107
  178MOL0     H24506   7.458   1.486   1.612  0.3472  2.8058 -0.7678
  178MOL0     H24507   7.489   1.490   1.917  0.7233  1.0276  0.7773
  178MOL0     H24508   7.623   1.436   1.822 -0.2063 -1.0446  0.0343
  178MOL0     H24509   7.628   1.689   1.910 -2.7334  0.6713  1.3377
  178MOL0     H24510   7.478   1.708   1.826 -1.5048 -1.8254  0.4380
  178MOL0     H24511   7.761   1.665   1.710  1.0568  1.7514 -1.4118
  178MOL0     H24512   7.615   1.627   1.617  0.3912 -0.0307 -1.1919
  178MOL0     H24513   7.606   1.862   1.462 -0.2859 -0.5791  0.6793
  178MOL0     H24514   7.553   2.226   1.569  0.9068  1.0506  0.9237
  178MOL0     H24515   7.568   2.125   1.422  3.1327 -0.7886 -0.4681
  178MOL0     H24516   7.816   2.263   1.536 -2.4235 -0.3789  0.8897
  178MOL0     H24517   7.793   2.178   1.392  1.9841  3.2776 -1.5378
  178MOL0     H24518   7.572   2.365   1.378 -0.1153 -1.7911  0.2557
  178MOL0     H24519   7.707   2.446   1.451  2.3186  1.1466 -2.2470
  178MOL0     H24520   7.667   2.331   1.184 -0.1986 -1.1713 -0.1204
  178MOL0     H24521   7.714   2.494   1.234 -1.9505 -0.2195  1.0298
  178MOL0     H24522   7.860   2.616   1.308  0.4761  1.2963 -0.0501
  178MOL0     H24523   8.081   2.832   1.480 -2.2348  0.8350  1.3519
  178MOL0     H24524   7.914   2.797   1.429  1.2041 -0.7439  2.8816
  178MOL0     H24525   8.035   2.876   1.322 -2.0007  0.4218 -0.3875
  178MOL0     H24526   8.629   2.667   1.267 -1.2838 -2.6127  0.4905
  178MOL0     H24527   8.813   2.816   1.301 -2.0394 -0.7705 -2.0620
  178MOL0     H24528   9.034   3.008   1.650 -0.1348  0.1668 -0.9139
  178MOL0     H24529   8.916   2.923   1.745  2.6349  1.6562  0.5380
  178MOL0     H24530   8.998   2.715   1.607  1.1263 -0.4297 -4.3581
  178MOL0     H24531   9.121   2.837   1.559 -1.3846 -0.6200 -0.2072
  178MOL0     H24532   9.086   2.806   1.863  0.7580 -0.6614  0.6022
  178MOL0     H24533   9.232   2.846   1.776  1.2628 -1.4568 -1.7864
  178MOL0     H24534   9.247   2.630   1.685  2.7673 -1.3196  1.7862
  178MOL0     H24535   9.104   2.575   1.774  1.7180 -3.2312 -0.9558
  178MOL0     H24536   9.310   2.504   1.860  1.7322  0.9470 -0.1069
  178MOL0     H24537   9.382   2.671   1.853  0.1707  0.0608  0.8715
  178MOL0     H24538   9.154   2.565   2.042 -1.4199  0.2660 -1.2126
  178MOL0     H24539   9.193   2.737   2.033  1.3621  0.5267 -2.1040
  178MOL0     H24540   9.431   2.673   2.114 -0.2089  0.0780  1.6346
  178MOL0     H24541   9.356   2.508   2.137  0.3687 -0.0988  2.0758
  178MOL0     H24542   9.328   2.598   2.356  0.0382 -0.4390 -0.8344
  178MOL0     H24543   9.180   2.641   2.286  0.0426 -1.9339  2.2749
  178MOL0     H24544   8.717   2.838   1.723  4.4584  0.0303 -1.6525
  178MOL0     H24545   8.522   2.698   1.678  0.4595 -0.3675  0.4600
  178MOL0     H24546   8.300   2.421   1.364 -0.3239 -1.8347  1.3914
  178MOL0     H24547   8.124   2.283   1.276  0.9127 -0.2140  2.2065
  178MOL0     H24548   6.990   1.133   1.286 -0.2155  0.6617  3.5477
  178MOL0     H24549   6.891   0.962   1.118  4.0090 -0.4980  0.2705
  178MOL0     H24550   6.697   0.486   1.207  1.5184 -1.0436  0.1823
  178MOL0     H24551   6.560   0.301   1.131  1.2104 -0.8901  0.4486
  178MOL0     H24552   6.413   0.081   0.854 -0.1857  0.9675 -0.6285
  178MOL0     H24553   6.453   0.127   1.025  2.3606  2.2848  0.2112
  178MOL0     H24554   6.310   0.335   0.995 -1.3428 -0.1405 -0.7202
  178MOL0     H24555   6.224   0.181   0.990  1.3157 -0.0396  2.1354
  178MOL0     H24556   6.167   0.368   0.809 -1.4650 -0.7184 -0.4002
  178MOL0     H24557   6.320   0.316   0.740  1.2987 -2.4418 -0.6065
  178MOL0     H24558   6.214   0.084   0.722 -0.5625 -1.6892  0.1210
  178MOL0     H24559   6.133   0.205   0.628  3.4112  2.7884  1.9902
  178MOL0     H24560   5.871   0.098   0.965 -2.4271  4.1553  0.3911
  178MOL0     H24561   6.671   0.390   0.731  1.1271  0.0611  0.5073
  178MOL0     H24562   6.848   0.696   0.826  0.6284 -0.8652  0.6638
  178MOL0     H24563   6.903   0.552   0.739 -0.0963  0.7760  1.2500
  178MOL0     H24564   6.743   0.613   0.698 -2.2329  1.6955  1.6137
  179MOL0     O24565   5.335   7.865   7.792 -0.2315  1.2274 -0.0884
  179MOL0     C24566   5.398   7.969   7.777  0.2600  0.1477 -0.3776
  179MOL0     O24567   5.339   8.092   7.783  0.2021  0.5089  0.4598
  179MOL0     C24568   5.210   8.107   7.826 -0.2994 -0.5134 -0.8323
  179MOL0     C24569   5.097   8.044   7.768 -0.0844  0.6744  1.1112
  179MOL0     C24570   4.974   8.057   7.829 -0.1579  0.7503 -0.0431
  179MOL0     C24571   4.954   8.117   7.953 -0.1362 -0.1545  0.4845
  179MOL0     O24572   4.823   8.110   7.998  0.7517 -0.0603 -0.4209
  179MOL0     C24573   4.795   8.144   8.132  0.2917  0.1649  0.2328
  179MOL0     C24574   4.649   8.184   8.141 -0.0929 -0.9494  0.1028
  179MOL0     C24575   4.597   8.300   8.051  0.7596 -0.1611  0.2257
  179MOL0     C24576   4.535   8.244   7.922  0.8241 -0.3433  0.2292
  179MOL0     C24577   4.466   8.358   7.846 -0.2301 -0.2570 -0.1421
  179MOL0     C24578   4.432   8.319   7.708 -0.5918  0.2115 -0.8173
  179MOL0     C24579   4.320   8.219   7.707 -0.1011 -0.1971  0.0388
  179MOL0     C24580   4.312   8.167   7.555 -0.4480 -0.6004 -0.7626
  179MOL0     N24581   4.234   8.270   7.478 -0.2619 -0.1394 -0.0089
  179MOL0     C24582   4.095   8.290   7.466 -0.2538 -0.4142 -1.2878
  179MOL0     C24583   4.080   8.395   7.388  0.4115  0.1052  0.1079
  179MOL0     C24584   3.949   8.446   7.350 -0.5681 -0.7085 -0.1072
  179MOL0     C24585   3.962   8.560   7.258  0.6657 -0.1922 -1.1298
  179MOL0     C24586   3.837   8.633   7.218 -0.4899  0.0148 -0.7432
  179MOL0     C24587   3.838   8.790   7.221 -0.0939  0.1334  0.5014
  179MOL0     O24588   3.806   8.847   7.349  1.2973 -0.0345 -0.2965
  179MOL0     C24589   3.680   8.888   7.383 -0.3505  0.0759 -0.6536
  179MOL0     C24590   3.669   8.998   7.474 -0.4176  1.2214  0.4138
  179MOL0     C24591   3.538   9.046   7.508  0.5046  0.5078 -0.0315
  179MOL0     C24592   3.541   9.169   7.602 -0.4081 -0.5903  0.7545
  179MOL0     C24593   3.425   8.993   7.447  0.6627 -0.3029 -0.3432
  179MOL0     C24594   3.294   9.055   7.464 -0.3815  0.3844  0.9971
  179MOL0     O24595   3.212   9.038   7.356 -0.1821  0.5260  0.2426
  179MOL0     C24596   3.083   9.076   7.359  0.1595  0.5674  0.7208
  179MOL0     C24597   2.998   9.047   7.469 -0.5448 -0.5455  1.0001
  179MOL0     C24598   2.859   9.067   7.464 -0.1926  0.3607 -0.0482
  179MOL0     C24599   2.797   9.109   7.343  0.5495  0.6595  0.8498
  179MOL0     O24600   2.665   9.140   7.338  0.5546  0.0781 -0.2519
  179MOL0     C24601   2.633   9.262   7.402  1.0811 -0.6639 -1.2271
  179MOL0     C24602   2.491   9.255   7.457  0.2500 -0.4769 -0.7477
  179MOL0     C24603   2.486   9.132   7.554 -0.4377 -0.3850  0.3591
  179MOL0     C24604   2.342   9.092   7.582  0.4433 -0.5373 -0.0870
  179MOL0     C24605   2.321   8.954   7.654 -0.8266 -0.4166 -0.4747
  179MOL0     C24606   2.167   8.921   7.673 -1.2297 -0.1123  0.8036
  179MOL0     C24607   2.147   8.841   7.800  0.3067 -0.1760  0.2645
  179MOL0     C24608   1.998   8.845   7.834 -0.4198  0.2849  0.1143
  179MOL0    Cl24609   1.940   9.014   7.862 -0.4041  0.1915 -0.1049
  179MOL0     C24610   2.882   9.130   7.231 -0.0475 -1.1134  0.1691
  179MOL0     C24611   3.018   9.123   7.245  0.1577  0.5170  0.6729
  179MOL0     O24612   3.269   9.093   7.577  0.2580  0.2595  0.1953
  179MOL0     C24613   3.438   8.891   7.355  0.1832  2.1793 -0.7161
  179MOL0     C24614   3.564   8.834   7.322  0.7285  0.1410 -0.4550
  179MOL0     N24615   4.209   8.438   7.352  0.3111  0.3901  0.2217
  179MOL0     N24616   4.302   8.363   7.409 -0.5770  0.1732 -0.0647
  179MOL0     C24617   5.076   8.172   8.010 -0.4838  0.9432  0.4559
  179MOL0     C24618   5.193   8.185   7.934  0.2725  0.9680 -0.6347
  179MOL0     C24619   5.546   7.964   7.741  0.6894 -0.2647 -0.5508
  179MOL0     C24620   5.612   8.095   7.739 -1.1644  0.9982 -0.5561
  179MOL0     C24621   5.748   8.114   7.704 -0.2876  0.3912  0.7574
  179MOL0     C24622   5.814   8.005   7.665 -0.0943 -0.0747 -0.7357
  179MOL0     O24623   5.951   8.017   7.626 -0.0553  1.2750 -1.2843
  179MOL0     C24624   6.017   7.905   7.580  0.9363 -0.4229  0.3364
  179MOL0     C24625   6.158   7.942   7.578  0.0067  0.2549 -1.0263
  179MOL0     C24626   6.249   7.814   7.605 -0.9996  0.5752 -0.7481
  179MOL0     C24627   6.251   7.722   7.487  0.2689 -0.3681  1.2913
  179MOL0     C24628   6.316   7.601   7.534  0.2610 -0.4477 -0.1491
  179MOL0     C24629   6.351   7.504   7.595 -0.2991  0.1048  0.8863
  179MOL0     C24630   5.754   7.875   7.679 -0.0581 -0.2978  0.2019
  179MOL0     C24631   5.617   7.858   7.707  0.5522 -0.2435  1.4183
  179MOL0     C24632   5.560   7.718   7.698  0.3193  0.6703  0.2321
  179MOL0     H24633   5.098   7.998   7.670  0.4701 -0.1667  1.4964
  179MOL0     H24634   4.898   8.007   7.771 -1.0043  1.7431  0.1653
  179MOL0     H24635   4.862   8.226   8.160  3.5842 -1.0959 -3.1226
  179MOL0     H24636   4.821   8.062   8.199 -0.4654  1.7784  2.6574
  179MOL0     H24637   4.589   8.095   8.125  1.6772 -2.1196 -0.2741
  179MOL0     H24638   4.630   8.212   8.245 -0.5747 -1.0282  0.0352
  179MOL0     H24639   4.509   8.345   8.097 -2.4463 -1.6014 -3.7977
  179MOL0     H24640   4.665   8.379   8.018  1.2748 -0.8422 -0.3931
  179MOL0     H24641   4.610   8.205   7.853  0.6200 -0.0431 -0.1645
  179MOL0     H24642   4.461   8.166   7.944  0.2888  0.1237  0.1382
  179MOL0     H24643   4.540   8.438   7.847  0.1161 -0.5704 -0.3628
  179MOL0     H24644   4.385   8.399   7.907  1.6473  1.5086  1.2738
  179MOL0     H24645   4.412   8.409   7.648 -0.5137  1.1342  0.5022
  179MOL0     H24646   4.523   8.273   7.667 -0.3291 -1.0712  1.1106
  179MOL0     H24647   4.222   8.256   7.740  0.1772 -0.2845  0.9961
  179MOL0     H24648   4.329   8.130   7.768  1.1125  0.1702  0.4143
  179MOL0     H24649   4.410   8.153   7.509  0.6274  3.8289 -0.2856
  179MOL0     H24650   4.260   8.071   7.550  1.3966 -1.6092 -1.3430
  179MOL0     H24651   4.022   8.235   7.523  0.4105 -0.7911 -0.7809
  179MOL0     H24652   3.900   8.498   7.432  2.1041  2.6375 -0.4447
  179MOL0     H24653   3.882   8.361   7.327 -1.0826 -1.6913  4.2262
  179MOL0     H24654   4.029   8.628   7.312 -0.0567 -1.3757  1.4348
  179MOL0     H24655   4.016   8.518   7.173  1.1054 -2.7950  0.3251
  179MOL0     H24656   3.818   8.601   7.116  1.2629 -0.1711 -1.0387
  179MOL0     H24657   3.753   8.590   7.273  0.3389 -3.8199 -2.1827
  179MOL0     H24658   3.932   8.829   7.180  0.5952 -1.5875  0.3433
  179MOL0     H24659   3.758   8.817   7.152 -0.1986  1.2861  1.0413
  179MOL0     H24660   3.762   9.029   7.521 -1.1654  2.4571  1.1503
  179MOL0     H24661   3.645   9.201   7.613 -0.3930 -0.2435 -0.2746
  179MOL0     H24662   3.494   9.158   7.700  0.7704  3.6605  2.0208
  179MOL0     H24663   3.491   9.250   7.547 -3.2157 -1.8104  1.3598
  179MOL0     H24664   3.040   9.015   7.564  0.7716 -1.2586  0.2158
  179MOL0     H24665   2.788   9.046   7.543  0.0262 -1.9847 -0.4151
  179MOL0     H24666   2.690   9.278   7.494  1.6457  0.4213 -1.7487
  179MOL0     H24667   2.642   9.348   7.335  1.1159  1.0831  0.9262
  179MOL0     H24668   2.496   9.346   7.516  3.5996  0.9946 -2.9864
  179MOL0     H24669   2.406   9.269   7.389 -0.2874  1.8985  0.3360
  179MOL0     H24670   2.537   9.145   7.650 -1.3951  0.8478  0.7164
  179MOL0     H24671   2.527   9.048   7.496  0.7204  1.3222 -1.3962
  179MOL0     H24672   2.287   9.088   7.488  1.5801  1.2654 -0.8851
  179MOL0     H24673   2.288   9.157   7.652  1.6969  0.4857 -0.0259
  179MOL0     H24674   2.378   8.890   7.586 -0.0396  0.7742 -0.9673
  179MOL0     H24675   2.384   8.957   7.744 -0.1163  0.9737 -0.9882
  179MOL0     H24676   2.145   8.850   7.593  0.2549  0.1400  0.1355
  179MOL0     H24677   2.106   9.010   7.659  0.5375  0.9392 -0.8702
  179MOL0     H24678   2.215   8.875   7.879  1.3655 -1.0289 -0.2707
  179MOL0     H24679   2.168   8.734   7.791  1.8078  0.2927 -5.0416
  179MOL0     H24680   1.979   8.778   7.919  2.1019 -0.2079  0.3549
  179MOL0     H24681   1.953   8.810   7.740 -0.6507  0.8341  0.0203
  179MOL0     H24682   2.827   9.154   7.141  0.6892 -0.1650 -0.0381
  179MOL0     H24683   3.089   9.148   7.167  1.1919  1.0681  1.7641
  179MOL0     H24684   3.348   8.850   7.309  0.1259  0.6473  0.6887
  179MOL0     H24685   3.571   8.748   7.256 -0.4756 -0.8242  0.6315
  179MOL0     H24686   5.073   8.217   8.108  1.5800  1.7150  0.2189
  179MOL0     H24687   5.275   8.249   7.965  1.8765 -0.7952 -1.0463
  179MOL0     H24688   5.568   8.191   7.764 -3.2329 -0.2263  0.9220
  179MOL0     H24689   5.796   8.211   7.703 -0.9135  0.7777  3.0568
  179MOL0     H24690   6.006   7.818   7.645  1.3281 -1.7297 -1.2645
  179MOL0     H24691   5.990   7.882   7.476 -1.5760  0.4828  0.7434
  179MOL0     H24692   6.180   8.016   7.656  0.6590  3.4299 -3.9456
  179MOL0     H24693   6.194   7.994   7.488  0.0393  3.5247  0.7109
  179MOL0     H24694   6.351   7.847   7.627 -0.9748  0.0055  0.0274
  179MOL0     H24695   6.215   7.767   7.697 -1.3510 -0.5100 -1.4182
  179MOL0     H24696   6.310   7.758   7.402 -0.9628  1.1134  1.0284
  179MOL0     H24697   6.151   7.700   7.450 -0.1142  1.0180  1.4430
  179MOL0     H24698   6.381   7.422   7.657  0.3145 -0.3586 -0.0136
  179MOL0     H24699   5.800   7.779   7.656 -1.0068 -0.7882  0.3172
  179MOL0     H24700   5.518   7.685   7.793 -1.9634  0.4644 -0.7894
  179MOL0     H24701   5.479   7.720   7.625  0.2367 -1.2394  0.1974
  179MOL0     H24702   5.627   7.638   7.663 -0.1213  0.4906 -0.2158
  180MOL0     O24703  10.337   1.839   9.354 -0.1281  0.1236 -0.2626
  180MOL0     C24704  10.372   1.913   9.448 -0.1989 -0.7202  0.5757
  180MOL0     O24705  10.393   1.876   9.576 -0.8388  0.3146  0.4168
  180MOL0     C24706  10.384   1.743   9.590  1.1521  0.4924  0.1590
  180MOL0     C24707  10.259   1.673   9.591 -0.3815  0.0407  0.0418
  180MOL0     C24708  10.258   1.533   9.606  0.2432  0.5273 -0.2192
  180MOL0     C24709  10.372   1.462   9.636 -0.4048 -0.2472  0.2779
  180MOL0     O24710  10.373   1.330   9.656  0.0725 -0.0877  0.6605
  180MOL0     C24711  10.414   1.258   9.538  0.5713 -0.0110  0.2566
  180MOL0     C24712  10.434   1.107   9.572 -0.6056 -0.2913  0.0677
  180MOL0     C24713  10.520   1.065   9.695  0.7840 -0.9162 -0.2821
  180MOL0     C24714  10.521   0.919   9.716  0.7051  0.9052 -0.1166
  180MOL0     C24715  10.604   0.867   9.837  0.3598  0.0739  0.2184
  180MOL0     C24716  10.573   0.720   9.830  0.2357  0.0840 -0.6733
  180MOL0     C24717  10.671   0.652   9.933  0.1024 -1.1494  0.4245
  180MOL0     C24718  10.668   0.505   9.901 -0.6111  0.5276  0.9370
  180MOL0     N24719  10.538   0.441   9.928  0.5190  0.2171  0.4901
  180MOL0     C24720  10.501   0.409  10.052  0.2994  0.3560  0.7626
  180MOL0     C24721  10.416   0.302  10.033 -0.1326 -1.0513  0.3443
  180MOL0     C24722  10.347   0.222  10.131  0.0371  0.2628 -0.1930
  180MOL0     C24723  10.426   0.094  10.173 -0.4133  0.5189  0.4086
  180MOL0     C24724  10.559   0.132  10.238  0.1381  0.0110  0.3313
  180MOL0     C24725  10.639   0.005  10.285  0.4175 -0.4131  0.3651
  180MOL0     O24726  10.750   0.038  10.364 -0.4223 -0.0997  0.0944
  180MOL0     C24727  10.830  -0.064  10.396  0.2621  0.0905  0.7459
  180MOL0     C24728  10.845  -0.191  10.329  0.8291 -0.0072 -0.6080
  180MOL0     C24729  10.957  -0.279  10.363 -0.7585  0.6120 -0.5394
  180MOL0     C24730  10.958  -0.410  10.277  0.5906 -0.6734 -0.0978
  180MOL0     C24731  11.046  -0.234  10.471  0.2271 -0.6456  0.5746
  180MOL0     C24732  11.159  -0.309  10.528 -0.0250 -0.7372 -1.0950
  180MOL0     O24733  11.226  -0.260  10.636 -0.2060  0.2716 -0.0743
  180MOL0     C24734  11.343  -0.325  10.665 -0.0618  0.5242  0.7682
  180MOL0     C24735  11.364  -0.364  10.796 -0.3740 -0.5224 -0.9597
  180MOL0     C24736  11.486  -0.411  10.850 -1.0439  0.7354 -0.2382
  180MOL0     C24737  11.602  -0.414  10.765  0.5945  0.1353 -1.0556
  180MOL0     O24738  11.720  -0.455  10.824  0.1971  0.1527  0.5318
  180MOL0     C24739  11.837  -0.494  10.743 -0.3363 -0.6703  0.3248
  180MOL0     C24740  11.951  -0.542  10.833 -0.0648  0.4982  0.1209
  180MOL0     C24741  11.961  -0.470  10.975 -1.0776 -0.1746 -0.3690
  180MOL0     C24742  12.089  -0.500  11.055  0.5417 -0.3014  0.7249
  180MOL0     C24743  12.103  -0.420  11.186 -0.3294 -0.7939  0.3275
  180MOL0     C24744  11.984  -0.444  11.275 -1.1442 -0.3407 -0.2200
  180MOL0     C24745  12.009  -0.374  11.398 -0.4628 -0.4493 -0.6284
  180MOL0     C24746  11.867  -0.376  11.471  0.0457 -0.2983  0.3271
  180MOL0    Cl24747  11.829  -0.218  11.533 -0.1817 -0.4011 -0.4967
  180MOL0     C24748  11.581  -0.378  10.632 -0.5147  0.0665 -0.1935
  180MOL0     C24749  11.457  -0.324  10.590 -0.4563 -0.2627 -0.3012
  180MOL0     O24750  11.199  -0.404  10.457  0.3007  0.8220  1.1072
  180MOL0     C24751  11.020  -0.111  10.534 -0.9278  0.4749  0.5840
  180MOL0     C24752  10.918  -0.025  10.489 -1.1141  0.0825 -0.1349
  180MOL0     N24753  10.397   0.270   9.896  0.2076  0.0744 -0.3441
  180MOL0     N24754  10.483   0.350   9.839 -0.3840 -0.1476 -0.1951
  180MOL0     C24755  10.492   1.533   9.647 -0.3404  0.5898  0.0763
  180MOL0     C24756  10.498   1.675   9.628  0.5681  1.4050 -1.4652
  180MOL0     C24757  10.366   2.066   9.433  0.2682 -0.7793 -0.2610
  180MOL0     C24758  10.354   2.147   9.552 -0.7556  0.8935 -0.1164
  180MOL0     C24759  10.336   2.283   9.547 -0.4700 -0.3355  0.0409
  180MOL0     C24760  10.332   2.347   9.415  0.0959  0.4458  0.5136
  180MOL0     O24761  10.316   2.483   9.416  0.1304  0.3511  0.2801
  180MOL0     C24762  10.308   2.563   9.302  1.0483 -0.0006  0.7805
  180MOL0     C24763  10.449   2.613   9.257 -0.2141 -0.1890 -0.8926
  180MOL0     C24764  10.505   2.708   9.367 -0.4375 -0.0015  0.1586
  180MOL0     C24765  10.645   2.760   9.318  1.0930  0.3157 -0.1685
  180MOL0     C24766  10.632   2.828   9.189  0.3414 -0.0108  0.6082
  180MOL0     C24767  10.629   2.894   9.088  0.5680 -0.0466  0.0033
  180MOL0     C24768  10.336   2.271   9.298  0.4756  0.3364 -0.4217
  180MOL0     C24769  10.353   2.131   9.308  0.3913  0.3035 -0.5547
  180MOL0     C24770  10.370   2.055   9.175  0.1727 -0.1584 -0.1137
  180MOL0     H24771  10.170   1.732   9.573 -0.2591 -0.0898 -1.0440
  180MOL0     H24772  10.165   1.477   9.608  0.3509  0.3600  0.1427
  180MOL0     H24773  10.508   1.296   9.498  1.2744 -0.4082  1.4964
  180MOL0     H24774  10.342   1.263   9.455 -0.9792  0.2856  1.5649
  180MOL0     H24775  10.332   1.066   9.576 -0.3925 -1.0983 -1.8058
  180MOL0     H24776  10.480   1.055   9.488 -1.2853 -2.4078  0.9284
  180MOL0     H24777  10.620   1.108   9.683 -0.8470  3.4213 -0.2089
  180MOL0     H24778  10.487   1.115   9.787  2.5335  0.9119 -0.5878
  180MOL0     H24779  10.417   0.887   9.733  1.6009 -2.4051 -0.0690
  180MOL0     H24780  10.566   0.868   9.630  1.4610  1.0878  0.1699
  180MOL0     H24781  10.552   0.911   9.923  0.6788  1.4891 -0.2935
  180MOL0     H24782  10.707   0.904   9.835  0.5177 -0.3849 -0.0800
  180MOL0     H24783  10.467   0.695   9.844 -0.1524  1.2705 -1.3280
  180MOL0     H24784  10.609   0.673   9.738  3.8225 -1.7804  1.4817
  180MOL0     H24785  10.664   0.686  10.036  3.2146  1.1628  0.0336
  180MOL0     H24786  10.772   0.677   9.900 -0.8807  1.8314 -0.6269
  180MOL0     H24787  10.705   0.492   9.799 -1.0159 -0.1041  0.8684
  180MOL0     H24788  10.748   0.451   9.953 -1.3130  0.9250  2.5037
  180MOL0     H24789  10.529   0.456  10.146 -0.8312 -0.9043  1.7798
  180MOL0     H24790  10.253   0.185  10.090 -0.1730  1.5999 -0.9790
  180MOL0     H24791  10.305   0.279  10.215 -3.6038 -3.0183  0.5342
  180MOL0     H24792  10.368   0.032  10.243  2.5325 -3.8727 -0.6051
  180MOL0     H24793  10.450   0.035  10.084  1.2197  3.3320 -1.1699
  180MOL0     H24794  10.618   0.183  10.161  0.4974 -1.8175 -0.6564
  180MOL0     H24795  10.545   0.198  10.325 -0.4466 -0.1539  0.3614
  180MOL0     H24796  10.566  -0.060  10.333  1.4269 -2.2185 -0.4313
  180MOL0     H24797  10.663  -0.051  10.194 -0.4218  1.8367 -1.3384
  180MOL0     H24798  10.778  -0.229  10.253 -3.6547  1.1602  2.3129
  180MOL0     H24799  11.015  -0.384  10.187  2.2895 -1.4603  0.7069
  180MOL0     H24800  10.861  -0.432  10.232  1.8344  1.6183 -4.5252
  180MOL0     H24801  10.985  -0.500  10.333 -4.1449 -3.1533 -1.2722
  180MOL0     H24802  11.284  -0.376  10.869 -0.4872 -1.1358 -1.1846
  180MOL0     H24803  11.483  -0.444  10.954 -0.2961 -2.1948 -1.0555
  180MOL0     H24804  11.799  -0.582  10.691 -3.9310  0.5729  0.5923
  180MOL0     H24805  11.875  -0.413  10.680 -1.4200 -1.1036 -0.9476
  180MOL0     H24806  11.942  -0.651  10.832 -1.6203  0.6072 -0.0017
  180MOL0     H24807  12.054  -0.531  10.799  0.3661  0.8844  1.4844
  180MOL0     H24808  11.868  -0.494  11.028  0.0867 -2.4299  0.8060
  180MOL0     H24809  11.968  -0.365  10.944  0.5981 -0.4156 -0.9185
  180MOL0     H24810  12.171  -0.483  10.985  2.2621  1.4688  2.9918
  180MOL0     H24811  12.085  -0.608  11.066  0.7940 -0.4228 -0.2759
  180MOL0     H24812  12.199  -0.441  11.234  1.8451  4.4177 -1.0225
  180MOL0     H24813  12.108  -0.314  11.159  1.2510 -0.3647  2.0729
  180MOL0     H24814  11.985  -0.553  11.286  0.4996 -0.5775 -1.9626
  180MOL0     H24815  11.891  -0.416  11.224 -2.2303 -1.0899  1.2871
  180MOL0     H24816  12.051  -0.275  11.381 -1.6908  0.5213  1.5659
  180MOL0     H24817  12.081  -0.417  11.468 -1.2332  3.3818  2.9100
  180MOL0     H24818  11.874  -0.435  11.563  0.2414  0.1525  0.6056
  180MOL0     H24819  11.792  -0.424  11.407  1.5299 -2.2801 -0.0277
  180MOL0     H24820  11.672  -0.374  10.573 -1.0672  0.4719 -1.0271
  180MOL0     H24821  11.450  -0.272  10.495 -0.8671 -0.8380 -0.5904
  180MOL0     H24822  11.074  -0.082  10.624 -1.5968  0.8993  0.8590
  180MOL0     H24823  10.918   0.072  10.539 -1.7130 -0.4233  0.8882
  180MOL0     H24824  10.581   1.482   9.683  1.1356  2.0734 -1.3086
  180MOL0     H24825  10.598   1.713   9.645  1.0156 -0.2204 -0.2183
  180MOL0     H24826  10.363   2.104   9.651  0.1420 -0.8527 -0.9098
  180MOL0     H24827  10.331   2.340   9.639 -1.8605 -0.3267 -0.0077
  180MOL0     H24828  10.265   2.517   9.212  1.5390  1.1038 -0.0355
  180MOL0     H24829  10.248   2.654   9.313  0.8906 -0.0189  0.1206
  180MOL0     H24830  10.447   2.671   9.164 -0.8167  1.4004  0.0667
  180MOL0     H24831  10.510   2.526   9.233  2.2110  1.0501  0.3740
  180MOL0     H24832  10.437   2.789   9.393  1.6586  0.9636  3.1795
  180MOL0     H24833  10.523   2.644   9.454  0.3717 -2.2780 -1.5893
  180MOL0     H24834  10.713   2.677   9.293 -0.7373 -1.5114  0.5964
  180MOL0     H24835  10.688   2.820   9.398 -0.6435  0.5511  0.6196
  180MOL0     H24836  10.633   2.958   9.002 -2.3659  0.6802  0.3119
  180MOL0     H24837  10.342   2.311   9.198 -1.9366 -0.5853 -0.9963
  180MOL0     H24838  10.456   1.987   9.179  2.3703  2.1811 -2.8695
  180MOL0     H24839  10.284   1.991   9.158 -0.3557 -0.1106  2.1045
  180MOL0     H24840  10.397   2.120   9.091 -3.6703 -1.2361 -2.4021
  181MOL0     O24841   1.520   2.533   8.055  0.1405 -0.6929 -0.6244
  181MOL0     C24842   1.608   2.611   8.012  0.3710  1.3266 -0.4806
  181MOL0     O24843   1.585   2.742   7.972  0.9003  0.1104 -0.7654
  181MOL0     C24844   1.473   2.770   7.895 -0.7069 -0.2910 -0.2897
  181MOL0     C24845   1.431   2.710   7.781  0.6204  0.9332  0.5874
  181MOL0     C24846   1.321   2.768   7.720  0.6355  0.3960  0.1600
  181MOL0     C24847   1.258   2.883   7.759 -0.1524 -0.0614 -0.6083
  181MOL0     O24848   1.142   2.908   7.692  0.7803 -0.5256  0.6545
  181MOL0     C24849   1.060   3.019   7.724  0.3740  0.5856 -0.0329
  181MOL0     C24850   1.103   3.157   7.669 -0.0175 -0.0979  0.0652
  181MOL0     C24851   1.038   3.272   7.750  0.2476  0.2471 -0.1136
  181MOL0     C24852   1.085   3.267   7.903  1.6937 -0.8271 -0.2104
  181MOL0     C24853   1.013   3.365   7.974 -0.0023  0.5117  0.1291
  181MOL0     C24854   1.053   3.359   8.126 -0.0163 -0.3394 -0.2234
  181MOL0     C24855   0.962   3.457   8.206  0.3698 -0.4958 -0.0310
  181MOL0     C24856   1.018   3.500   8.341  0.8484  0.8115  0.2114
  181MOL0     N24857   0.960   3.626   8.395 -0.5006 -0.2474 -0.3142
  181MOL0     C24858   0.947   3.745   8.330  0.4702 -0.8255 -0.0747
  181MOL0     C24859   0.901   3.831   8.417  0.2613 -0.8680 -0.6141
  181MOL0     C24860   0.856   3.969   8.366  0.3763  0.2131 -1.1187
  181MOL0     C24861   0.945   4.091   8.403  0.2190 -0.3022  0.1018
  181MOL0     C24862   0.954   4.113   8.550  0.4499 -0.2150 -0.1383
  181MOL0     C24863   1.054   4.225   8.573  0.3694 -0.5231  0.1270
  181MOL0     O24864   1.050   4.274   8.710 -0.5667  0.3218 -0.6939
  181MOL0     C24865   1.160   4.223   8.777 -0.9347 -0.4156  0.2484
  181MOL0     C24866   1.280   4.295   8.769  0.5857  0.0502  0.4616
  181MOL0     C24867   1.391   4.261   8.856 -0.3017  0.3433  0.3228
  181MOL0     C24868   1.508   4.346   8.857 -1.1622  0.6838  0.0063
  181MOL0     C24869   1.372   4.157   8.948 -0.1488 -0.1004 -0.5984
  181MOL0     C24870   1.465   4.123   9.057 -0.0923  0.0006  0.6942
  181MOL0     O24871   1.491   4.228   9.140 -0.4287 -0.3199  1.0766
  181MOL0     C24872   1.572   4.197   9.249  0.0946  0.9488 -0.7633
  181MOL0     C24873   1.518   4.141   9.368  0.1462 -0.4278 -1.9033
  181MOL0     C24874   1.599   4.106   9.479 -0.2142 -0.5698 -0.2034
  181MOL0     C24875   1.733   4.156   9.484  0.0003 -0.0101  0.7087
  181MOL0     O24876   1.817   4.115   9.587 -0.7571  0.3002  0.7657
  181MOL0     C24877   1.953   4.163   9.586  0.2211 -0.6020  0.6193
  181MOL0     C24878   2.010   4.184   9.726  0.3680 -0.0934 -0.4008
  181MOL0     C24879   2.074   4.065   9.787 -0.7944 -0.4352  0.3709
  181MOL0     C24880   2.119   4.093   9.926 -0.1139 -0.3537  0.5908
  181MOL0     C24881   2.200   3.985   9.995  1.4722 -0.0386 -0.0736
  181MOL0     C24882   2.341   3.954   9.927  0.5467  0.3865 -0.7903
  181MOL0     C24883   2.399   3.822   9.986 -0.1509 -0.2988  0.5269
  181MOL0     C24884   2.527   3.803   9.913  0.7498  0.0440 -0.1165
  181MOL0    Cl24885   2.650   3.721  10.006  0.0177 -0.1515  0.3664
  181MOL0     C24886   1.786   4.207   9.359  0.4999 -0.3077 -0.6736
  181MOL0     C24887   1.700   4.226   9.247 -0.1062  0.1527  0.3485
  181MOL0     O24888   1.507   4.007   9.060  0.2562  0.3816 -0.0617
  181MOL0     C24889   1.253   4.083   8.952 -0.2514 -0.3609  0.1311
  181MOL0     C24890   1.144   4.117   8.862  0.8555 -0.2319 -0.3447
  181MOL0     N24891   0.884   3.772   8.536  0.2476 -0.0090  0.5288
  181MOL0     N24892   0.926   3.640   8.528 -0.2684 -0.1826 -0.7561
  181MOL0     C24893   1.324   2.953   7.866 -0.4627 -0.1065 -0.3553
  181MOL0     C24894   1.430   2.896   7.934  0.1806  0.7984  0.4647
  181MOL0     C24895   1.745   2.571   8.051 -0.7586 -0.1323 -0.3576
  181MOL0     C24896   1.834   2.670   8.093 -0.2585  0.0645  0.3297
  181MOL0     C24897   1.949   2.631   8.154 -0.5336  0.3531 -0.5013
  181MOL0     C24898   1.990   2.498   8.163  0.1194  0.0943  0.6628
  181MOL0     O24899   2.120   2.462   8.195 -0.9437 -0.1152  0.1712
  181MOL0     C24900   2.227   2.557   8.188 -0.9120 -0.3789 -0.6913
  181MOL0     C24901   2.356   2.478   8.226  0.5806 -0.0239 -0.5865
  181MOL0     C24902   2.484   2.563   8.223  0.3344  0.7035 -0.2998
  181MOL0     C24903   2.606   2.498   8.275  0.0776  0.7327  0.4037
  181MOL0     C24904   2.649   2.386   8.186  0.2046 -0.0274 -0.5889
  181MOL0     C24905   2.680   2.290   8.118 -0.2731  0.4303 -1.2333
  181MOL0     C24906   1.907   2.401   8.116 -0.4550  0.7921  0.8364
  181MOL0     C24907   1.785   2.437   8.064  0.2304  0.6067  0.6042
  181MOL0     C24908   1.699   2.325   8.009 -0.3232 -0.3911  0.5341
  181MOL0     H24909   1.468   2.613   7.748  0.2833  2.0216 -3.5178
  181MOL0     H24910   1.272   2.719   7.637 -0.5485  2.5008 -0.4590
  181MOL0     H24911   1.058   3.003   7.832  2.3435 -3.3827 -0.4120
  181MOL0     H24912   0.959   3.002   7.687  0.4857  0.4226 -0.2606
  181MOL0     H24913   1.212   3.170   7.674 -0.0975  0.8633 -0.3826
  181MOL0     H24914   1.079   3.158   7.562  1.0032 -2.2162 -0.2402
  181MOL0     H24915   1.058   3.375   7.719 -1.0855  1.0338  1.4663
  181MOL0     H24916   0.933   3.242   7.754  0.4105 -0.5317 -1.2342
  181MOL0     H24917   1.060   3.170   7.947 -0.7220 -1.3550 -2.5253
  181MOL0     H24918   1.193   3.281   7.911  1.2795  1.9473  2.2143
  181MOL0     H24919   0.906   3.350   7.961 -0.2343  0.9031  1.4475
  181MOL0     H24920   1.036   3.465   7.935  1.2204  0.0899 -0.2764
  181MOL0     H24921   1.049   3.261   8.176 -0.9785  0.4175  1.2735
  181MOL0     H24922   1.157   3.393   8.127  0.7359 -2.4726 -0.0680
  181MOL0     H24923   0.860   3.419   8.203  0.8319 -1.7487 -0.4191
  181MOL0     H24924   0.958   3.553   8.154  1.0478 -0.8033 -0.6641
  181MOL0     H24925   1.001   3.421   8.415  0.9718  1.2499  0.7099
  181MOL0     H24926   1.126   3.509   8.327  1.0805  1.8496  2.2872
  181MOL0     H24927   0.994   3.761   8.234  2.5724  2.9340  1.3759
  181MOL0     H24928   0.753   3.987   8.399 -0.8189 -0.9248 -3.9475
  181MOL0     H24929   0.846   3.957   8.258  1.8553 -2.6812 -1.0292
  181MOL0     H24930   1.044   4.089   8.356  0.4757  1.6986  0.4647
  181MOL0     H24931   0.896   4.178   8.357  0.5501 -1.1021 -1.8651
  181MOL0     H24932   0.856   4.140   8.592 -0.0741 -0.1148 -1.3828
  181MOL0     H24933   0.981   4.023   8.608  1.4774  1.6827  2.5294
  181MOL0     H24934   1.154   4.201   8.537  1.1356  2.1477  0.2655
  181MOL0     H24935   1.024   4.304   8.504 -1.9229 -1.9361 -0.5989
  181MOL0     H24936   1.289   4.385   8.710 -1.6552  0.1868  0.2328
  181MOL0     H24937   1.504   4.411   8.945  0.6046  1.3087 -0.3343
  181MOL0     H24938   1.504   4.405   8.764 -0.2799  0.9636  0.1442
  181MOL0     H24939   1.605   4.296   8.856 -0.7389  1.1345 -4.5477
  181MOL0     H24940   1.411   4.124   9.372  0.2655 -1.5811  3.0934
  181MOL0     H24941   1.552   4.048   9.558 -1.4600 -1.8873 -1.8347
  181MOL0     H24942   2.003   4.083   9.532 -0.6210 -3.3724  3.6493
  181MOL0     H24943   1.957   4.261   9.537  1.1674 -1.1479 -0.4523
  181MOL0     H24944   2.089   4.257   9.710  0.3086 -0.0500 -0.4996
  181MOL0     H24945   1.933   4.233   9.787 -0.7557  4.5376 -4.8150
  181MOL0     H24946   2.154   4.022   9.725 -0.0783 -1.2586  1.8283
  181MOL0     H24947   1.994   3.991   9.801 -0.8902 -0.3734  0.1583
  181MOL0     H24948   2.036   4.122   9.991 -0.4314  0.3509 -0.0994
  181MOL0     H24949   2.182   4.182   9.913 -1.5841  0.3896 -2.7618
  181MOL0     H24950   2.212   4.015  10.100 -1.5326  0.3557  0.2567
  181MOL0     H24951   2.143   3.892   9.991  1.9466 -0.4501  1.9028
  181MOL0     H24952   2.412   4.036   9.938  2.5729 -1.2273 -1.1516
  181MOL0     H24953   2.334   3.942   9.818 -0.6188  0.6020 -0.7455
  181MOL0     H24954   2.324   3.749   9.956 -2.2045  1.7100  0.5076
  181MOL0     H24955   2.413   3.827  10.094 -0.9850 -4.4822  1.0010
  181MOL0     H24956   2.566   3.903   9.890  0.5848  0.4210  1.1282
  181MOL0     H24957   2.502   3.737   9.830 -1.3481 -0.0929  0.5637
  181MOL0     H24958   1.891   4.230   9.340  0.8781  0.5709  2.0842
  181MOL0     H24959   1.734   4.276   9.157  0.8214 -0.2177  0.4753
  181MOL0     H24960   1.244   4.006   9.028 -1.4472 -0.6143 -0.2397
  181MOL0     H24961   1.042   4.078   8.854  0.5936  0.5946 -1.2986
  181MOL0     H24962   1.271   3.037   7.910 -1.2801  0.1082 -1.6765
  181MOL0     H24963   1.462   2.950   8.022 -0.1051  3.1004 -0.7651
  181MOL0     H24964   1.807   2.775   8.084 -1.6452 -0.2529  0.4991
  181MOL0     H24965   2.014   2.706   8.199 -2.1438  0.3544  2.0542
  181MOL0     H24966   2.246   2.599   8.089 -1.4946  1.3882 -0.0763
  181MOL0     H24967   2.213   2.632   8.266 -3.4720 -0.0291 -1.3870
  181MOL0     H24968   2.360   2.391   8.160  1.7523 -0.5472  0.1301
  181MOL0     H24969   2.336   2.436   8.325 -3.4044  0.7585 -0.8901
  181MOL0     H24970   2.504   2.589   8.118  0.5662 -1.7758 -0.9376
  181MOL0     H24971   2.454   2.654   8.275 -1.7838 -1.1820  2.0337
  181MOL0     H24972   2.596   2.462   8.377 -0.0430  4.7983  2.0138
  181MOL0     H24973   2.687   2.572   8.278  0.7191  0.0847 -0.3804
  181MOL0     H24974   2.707   2.206   8.059 -0.8982 -1.5183  1.1059
  181MOL0     H24975   1.932   2.296   8.127  2.4809  1.2638 -0.4723
  181MOL0     H24976   1.652   2.347   7.912 -1.4781 -2.6398  0.5251
  181MOL0     H24977   1.762   2.237   7.989  0.5211 -0.3684  2.7953
  181MOL0     H24978   1.619   2.287   8.074 -0.5289 -2.1611 -0.6686
  182MOL0     O24979   9.676  10.819   6.045 -0.2879 -0.2794  0.9118
  182MOL0     C24980   9.717  10.771   6.149 -1.4588  0.5669  0.8434
  182MOL0     O24981   9.660  10.801   6.265  0.5934  0.1357  0.3729
  182MOL0     C24982   9.745  10.797   6.372  0.5222  0.2334  0.8302
  182MOL0     C24983   9.716  10.711   6.481 -0.3597 -0.1299  0.0744
  182MOL0     C24984   9.774  10.731   6.613 -0.5372  0.8478  0.3499
  182MOL0     C24985   9.861  10.839   6.628 -0.6145  0.3599 -1.4039
  182MOL0     O24986   9.936  10.853   6.743 -0.1540 -0.0601 -0.0706
  182MOL0     C24987  10.077  10.810   6.736 -0.3011  0.0074 -0.2817
  182MOL0     C24988  10.167  10.891   6.836  1.0170  0.2160  1.2348
  182MOL0     C24989  10.315  10.877   6.813 -0.4628  0.4063  0.8259
  182MOL0     C24990  10.392  10.945   6.923 -0.2506 -0.9889 -0.4291
  182MOL0     C24991  10.538  10.987   6.888 -0.5252 -0.5413 -0.2735
  182MOL0     C24992  10.637  11.007   7.003 -0.5365 -0.0710 -0.7893
  182MOL0     C24993  10.683  10.863   7.051 -0.3494 -0.1232  0.8057
  182MOL0     C24994  10.753  10.862   7.190 -0.6834 -0.0359  0.1540
  182MOL0     N24995  10.874  10.951   7.179  0.9701  0.5092  0.3611
  182MOL0     C24996  10.909  11.043   7.280  0.3826  0.9141  0.4003
  182MOL0     C24997  11.023  11.094   7.227 -0.0864  1.1013  0.0998
  182MOL0     C24998  11.110  11.197   7.291  0.5036  0.2050  0.3424
  182MOL0     C24999  11.254  11.176   7.256  0.4977  0.1318 -0.2540
  182MOL0     C25000  11.336  11.296   7.287  0.6899 -0.0223  0.1779
  182MOL0     C25001  11.332  11.342   7.439  0.2397 -0.5794 -0.5039
  182MOL0     O25002  11.375  11.481   7.456  0.2985  0.0868 -0.4030
  182MOL0     C25003  11.509  11.511   7.437  2.0548 -0.5490 -0.6321
  182MOL0     C25004  11.611  11.418   7.440 -0.3885 -0.6661 -0.1101
  182MOL0     C25005  11.743  11.451   7.425 -0.0112  0.2218 -0.4139
  182MOL0     C25006  11.835  11.335   7.414  0.0214 -0.7051  0.7184
  182MOL0     C25007  11.786  11.587   7.405 -0.3031  0.4096 -0.7335
  182MOL0     C25008  11.926  11.628   7.398 -0.7996  0.7891  0.3368
  182MOL0     O25009  11.947  11.726   7.304  0.1311  0.3446 -0.2176
  182MOL0     C25010  12.077  11.761   7.292 -0.7660 -0.8170  0.0844
  182MOL0     C25011  12.171  11.691   7.224  0.0545  0.1391 -0.8953
  182MOL0     C25012  12.302  11.739   7.215  0.3549  0.6239  0.3453
  182MOL0     C25013  12.345  11.862   7.270 -0.2596  1.1297  0.0953
  182MOL0     O25014  12.475  11.898   7.236 -0.4220 -0.1961  0.5306
  182MOL0     C25015  12.485  12.033   7.192  0.0708 -0.7221 -0.0374
  182MOL0     C25016  12.630  12.095   7.209 -0.1838 -0.7571 -0.0198
  182MOL0     C25017  12.681  12.090   7.350 -0.2141 -0.1695  0.3272
  182MOL0     C25018  12.794  12.196   7.364 -0.1311  0.0958  0.4096
  182MOL0     C25019  12.845  12.199   7.502  0.0506  0.0207  0.3057
  182MOL0     C25020  12.735  12.184   7.615 -0.9219  0.6629  0.2083
  182MOL0     C25021  12.794  12.223   7.750 -0.3145 -0.7590  0.2946
  182MOL0     C25022  12.879  12.098   7.798  0.9520  0.0917 -0.7295
  182MOL0    Cl25023  12.959  12.102   7.950  0.1534  0.0223 -0.1753
  182MOL0     C25024  12.250  11.933   7.344 -0.0715  0.7190  0.5108
  182MOL0     C25025  12.121  11.885   7.347  0.1094 -0.7480 -0.2664
  182MOL0     O25026  12.017  11.567   7.466  0.9488  0.1025 -0.2524
  182MOL0     C25027  11.679  11.681   7.410 -0.9710 -0.4608 -0.1117
  182MOL0     C25028  11.549  11.642   7.416  0.2140 -0.5937 -0.1527
  182MOL0     N25029  11.055  11.029   7.110 -0.4474 -0.0169 -0.2297
  182MOL0     N25030  10.966  10.946   7.086  0.6780 -0.1535  0.1397
  182MOL0     C25031   9.891  10.924   6.521 -0.2557  0.3024 -0.1472
  182MOL0     C25032   9.833  10.903   6.394  0.5325  0.3866 -0.1597
  182MOL0     C25033   9.825  10.669   6.132  1.0584 -0.8417  0.1496
  182MOL0     C25034   9.806  10.533   6.167  0.1440 -0.2481 -0.3394
  182MOL0     C25035   9.901  10.429   6.156 -1.2392 -1.2723 -0.6520
  182MOL0     C25036  10.026  10.461   6.103 -0.2998  0.3931  0.9074
  182MOL0     O25037  10.106  10.346   6.093  0.3007 -0.3011 -0.3547
  182MOL0     C25038  10.244  10.385   6.075 -0.2650 -0.8144 -0.1312
  182MOL0     C25039  10.339  10.266   6.073  0.5570 -0.4086 -0.2505
  182MOL0     C25040  10.489  10.292   6.019 -0.2085  0.2441 -0.3787
  182MOL0     C25041  10.583  10.223   6.125 -0.1079 -0.4856 -0.4623
  182MOL0     C25042  10.634  10.311   6.234 -0.2034  0.2776 -0.2504
  182MOL0     C25043  10.666  10.405   6.302 -0.8551 -0.1106 -1.1817
  182MOL0     C25044  10.055  10.597   6.069  0.3081 -0.3950 -0.8208
  182MOL0     C25045   9.951  10.701   6.078  0.3880 -0.1889 -0.7159
  182MOL0     C25046   9.987  10.841   6.047  0.2990 -0.0729  0.0337
  182MOL0     H25047   9.652  10.625   6.470  1.0807 -1.3727  0.9407
  182MOL0     H25048   9.757  10.672   6.702  0.0427 -0.0347 -0.1126
  182MOL0     H25049  10.108  10.836   6.634  0.0935 -0.0054 -0.1650
  182MOL0     H25050  10.083  10.702   6.750 -0.9581 -0.0037 -0.0558
  182MOL0     H25051  10.143  10.996   6.817  0.0531 -0.1265  0.4856
  182MOL0     H25052  10.142  10.866   6.940 -1.0648 -0.7502  0.5598
  182MOL0     H25053  10.349  10.773   6.812  1.2403  0.7034 -4.6130
  182MOL0     H25054  10.348  10.920   6.718  2.5679 -2.3116  0.4936
  182MOL0     H25055  10.336  11.038   6.938  2.1813  0.4573  0.3938
  182MOL0     H25056  10.388  10.871   7.003 -1.1947 -1.2084 -0.6661
  182MOL0     H25057  10.528  11.087   6.846  0.2597 -0.7117 -0.8735
  182MOL0     H25058  10.581  10.928   6.807 -1.0772  0.6202 -1.4349
  182MOL0     H25059  10.718  11.078   6.984 -1.9111  2.2560  1.4099
  182MOL0     H25060  10.582  11.047   7.089 -0.8363 -0.5959 -0.7319
  182MOL0     H25061  10.752  10.822   6.976  0.1305 -0.2078  1.2851
  182MOL0     H25062  10.594  10.800   7.062  1.6710 -3.4515 -0.3219
  182MOL0     H25063  10.680  10.904   7.260 -1.1951 -1.4807  0.5200
  182MOL0     H25064  10.789  10.766   7.229  0.8309  0.6148  0.4640
  182MOL0     H25065  10.861  11.071   7.373  0.3651 -0.6162  0.8818
  182MOL0     H25066  11.095  11.183   7.398  1.8047 -0.4637  0.4621
  182MOL0     H25067  11.084  11.297   7.254 -2.1772 -1.2902 -2.1289
  182MOL0     H25068  11.290  11.084   7.303 -2.9034 -1.0239  0.3464
  182MOL0     H25069  11.258  11.155   7.148 -1.2882  1.7387 -0.6897
  182MOL0     H25070  11.435  11.301   7.241  0.7513 -2.1048 -0.0179
  182MOL0     H25071  11.287  11.375   7.229  1.1573  0.1189 -0.0313
  182MOL0     H25072  11.228  11.323   7.467  0.5730 -1.8592 -0.0750
  182MOL0     H25073  11.390  11.283   7.511 -0.7919 -0.3923  0.5119
  182MOL0     H25074  11.580  11.314   7.434 -3.7607  0.3378 -2.7747
  182MOL0     H25075  11.911  11.366   7.342 -1.0686  0.4914  0.0462
  182MOL0     H25076  11.785  11.248   7.371  3.1309 -2.7193  0.8897
  182MOL0     H25077  11.882  11.305   7.509  4.1987 -1.7135 -1.4365
  182MOL0     H25078  12.152  11.595   7.177 -2.5037 -0.4329  1.0458
  182MOL0     H25079  12.372  11.672   7.166  0.5200 -1.1029  2.7645
  182MOL0     H25080  12.461  12.053   7.087  2.2428 -1.3350 -0.7105
  182MOL0     H25081  12.432  12.100   7.260 -0.0322  1.8894 -2.4884
  182MOL0     H25082  12.714  12.046   7.159  2.4852  0.3353  3.0186
  182MOL0     H25083  12.617  12.198   7.173 -2.3540 -1.3391 -1.0334
  182MOL0     H25084  12.720  11.991   7.374 -0.1313 -0.4605 -0.9693
  182MOL0     H25085  12.591  12.116   7.408 -0.3764  1.4625 -0.6029
  182MOL0     H25086  12.758  12.296   7.338  0.0098 -0.5368 -2.5992
  182MOL0     H25087  12.866  12.165   7.288 -0.4081  1.8762 -0.6188
  182MOL0     H25088  12.916  12.116   7.513  0.2952  0.1172 -0.5526
  182MOL0     H25089  12.904  12.289   7.524 -1.1839  0.3187  2.8385
  182MOL0     H25090  12.703  12.080   7.627  3.1400 -0.9576 -1.0532
  182MOL0     H25091  12.656  12.248   7.576  0.1023  0.7119 -1.9046
  182MOL0     H25092  12.705  12.242   7.810 -0.5774  0.8204 -0.5483
  182MOL0     H25093  12.850  12.316   7.736  0.9628 -1.7729 -1.6610
  182MOL0     H25094  12.947  12.057   7.723  1.1886 -2.1431  0.6145
  182MOL0     H25095  12.802  12.022   7.806 -1.7552  2.7287  0.0140
  182MOL0     H25096  12.270  12.035   7.377 -0.1369  0.2798  1.9625
  182MOL0     H25097  12.059  11.945   7.413  2.6916  0.0561  1.5742
  182MOL0     H25098  11.709  11.784   7.395 -2.8167  0.4809  2.0347
  182MOL0     H25099  11.475  11.720   7.400 -0.0410 -0.8605 -0.2831
  182MOL0     H25100   9.963  11.004   6.517  0.6553 -0.5374 -2.4221
  182MOL0     H25101   9.849  10.965   6.306 -2.8856  0.1234 -1.1185
  182MOL0     H25102   9.705  10.515   6.203  0.8186  0.5175  2.1605
  182MOL0     H25103   9.887  10.325   6.184  1.2870 -1.2984  0.8662
  182MOL0     H25104  10.261  10.434   5.978  0.2772 -0.6023  0.0665
  182MOL0     H25105  10.273  10.456   6.153  2.5722 -0.8106 -1.0718
  182MOL0     H25106  10.297  10.197   5.999 -0.2483  1.8457 -2.0286
  182MOL0     H25107  10.342  10.239   6.179  1.7578 -0.0316 -0.1764
  182MOL0     H25108  10.506  10.253   5.919  1.8919 -2.1511  0.8022
  182MOL0     H25109  10.513  10.399   6.017 -1.8724  0.6360 -0.7310
  182MOL0     H25110  10.671  10.199   6.065  0.7224  3.1833 -1.0058
  182MOL0     H25111  10.533  10.141   6.176  1.1564 -0.4383  0.9381
  182MOL0     H25112  10.704  10.487   6.359 -0.7953 -1.8450  1.4313
  182MOL0     H25113  10.154  10.627   6.035 -0.4456  6.0787  1.3727
  182MOL0     H25114  10.095  10.847   6.028  0.8995  1.3978  3.2958
  182MOL0     H25115   9.927  10.867   5.960 -0.2964 -0.9096  0.1742
  182MOL0     H25116   9.965  10.910   6.129  1.7367 -2.6733  2.8520
  183MOL0     O25117   2.185  11.420  11.013 -0.7013  0.8398  0.5388
  183MOL0     C25118   2.193  11.503  10.918 -0.1110 -0.8346 -0.1683
  183MOL0     O25119   2.281  11.503  10.811 -0.4490  0.4713 -0.3664
  183MOL0     C25120   2.380  11.400  10.803 -0.0160 -0.6610  0.1122
  183MOL0     C25121   2.448  11.335  10.912 -0.4868 -0.7872  0.4578
  183MOL0     C25122   2.539  11.237  10.877  0.0150  1.6660  0.4498
  183MOL0     C25123   2.569  11.183  10.754  0.4117  1.0952 -0.7559
  183MOL0     O25124   2.658  11.084  10.742  0.4194  0.5493  0.1223
  183MOL0     C25125   2.720  11.068  10.609  0.4387 -0.0350 -0.7851
  183MOL0     C25126   2.839  10.974  10.619  0.1818 -0.0130  0.1238
  183MOL0     C25127   2.794  10.831  10.651  0.6697 -0.9082 -0.0527
  183MOL0     C25128   2.905  10.751  10.719 -0.0931  0.2513  0.8274
  183MOL0     C25129   2.840  10.638  10.800  0.5830  0.1624 -0.1386
  183MOL0     C25130   2.777  10.534  10.704  0.1314 -0.8474  0.0174
  183MOL0     C25131   2.731  10.407  10.778  0.7030  1.0171  0.7645
  183MOL0     C25132   2.685  10.315  10.666  0.3927  1.0259  0.3173
  183MOL0     N25133   2.773  10.303  10.548 -0.4182  0.1412 -0.1049
  183MOL0     C25134   2.901  10.250  10.552 -0.3345  0.4382 -0.5586
  183MOL0     C25135   2.943  10.249  10.423 -0.1617 -0.3998  1.1154
  183MOL0     C25136   3.067  10.193  10.361  0.3563  0.6011  0.6600
  183MOL0     C25137   3.050  10.037  10.376 -0.3770  0.7945 -1.2153
  183MOL0     C25138   3.159   9.970  10.289 -0.4056  0.0996  0.2273
  183MOL0     C25139   3.157   9.808  10.294 -0.0434 -0.1117 -0.1035
  183MOL0     O25140   3.257   9.754  10.210 -0.1163  0.4363 -0.3701
  183MOL0     C25141   3.270   9.618  10.195 -0.1045  0.3687  0.4387
  183MOL0     C25142   3.373   9.570  10.114 -0.7337 -0.1961 -0.5570
  183MOL0     C25143   3.385   9.433  10.095  0.3541 -0.5507  0.3324
  183MOL0     C25144   3.512   9.382  10.023  0.2548 -0.5441 -0.1733
  183MOL0     C25145   3.304   9.338  10.156  1.2769  0.5303 -0.0177
  183MOL0     C25146   3.313   9.186  10.160 -0.9800 -0.0517 -0.0087
  183MOL0     O25147   3.202   9.108  10.158  0.0797 -0.3995 -0.3960
  183MOL0     C25148   3.228   8.979  10.184  0.4676  0.0329  0.0184
  183MOL0     C25149   3.292   8.896  10.092 -0.9211 -0.4158  0.4531
  183MOL0     C25150   3.317   8.765  10.121 -0.2646  0.2753  0.1445
  183MOL0     C25151   3.284   8.710  10.243  0.1818  0.4971 -0.0368
  183MOL0     O25152   3.314   8.578  10.248  0.0053  0.1207  0.4299
  183MOL0     C25153   3.403   8.527  10.354  0.2551 -0.5630  0.2100
  183MOL0     C25154   3.411   8.379  10.342 -0.1873 -0.5165  0.2550
  183MOL0     C25155   3.491   8.355  10.211 -0.1545  1.1035  0.5066
  183MOL0     C25156   3.527   8.210  10.181  0.0282 -0.3762 -0.7024
  183MOL0     C25157   3.610   8.183  10.057 -0.2600  0.2200 -0.7477
  183MOL0     C25158   3.768   8.174  10.093  0.1740  0.1206  0.8297
  183MOL0     C25159   3.845   8.108   9.976  0.8828 -0.2550  0.4778
  183MOL0     C25160   3.830   8.183   9.838 -0.1758  0.2806  0.2877
  183MOL0    Cl25161   3.908   8.085   9.701  0.0771  0.2928 -0.0786
  183MOL0     C25162   3.215   8.794  10.335 -0.4301  0.1979  0.6623
  183MOL0     C25163   3.188   8.928  10.309 -0.2052  0.3875  0.4319
  183MOL0     O25164   3.430   9.146  10.178  0.3695  0.5339 -0.2041
  183MOL0     C25165   3.205   9.391  10.236 -0.0158 -0.9720 -0.4445
  183MOL0     C25166   3.186   9.521  10.252 -0.7161 -0.5042  0.2710
  183MOL0     N25167   2.837  10.298  10.346  0.1981  0.1188 -0.1603
  183MOL0     N25168   2.741  10.324  10.420 -0.2649 -0.6441  0.4489
  183MOL0     C25169   2.492  11.242  10.649 -0.3199 -0.0668  0.1624
  183MOL0     C25170   2.401  11.346  10.670 -0.4186 -0.4787  0.5277
  183MOL0     C25171   2.098  11.612  10.943 -0.0142  0.3736  0.2593
  183MOL0     C25172   1.994  11.577  11.029  0.5863 -0.1896 -0.4081
  183MOL0     C25173   1.886  11.665  11.039  0.1873  1.3283 -0.0261
  183MOL0     C25174   1.890  11.790  10.974 -0.2496  0.3516  0.2310
  183MOL0     O25175   1.787  11.873  10.977 -0.9151  0.3574 -0.2695
  183MOL0     C25176   1.717  11.875  11.098  0.0954  0.0364  0.6730
  183MOL0     C25177   1.610  11.990  11.115 -0.6733 -0.1471 -0.1355
  183MOL0     C25178   1.658  12.131  11.089  0.0852  0.0554  0.0359
  183MOL0     C25179   1.693  12.175  10.946  0.0535  0.2914  0.1144
  183MOL0     C25180   1.765  12.306  10.940  1.0009  0.1676  0.9249
  183MOL0     C25181   1.817  12.417  10.935  0.1859  0.4454 -0.4609
  183MOL0     C25182   1.994  11.833  10.895 -0.3182  0.4810  0.3462
  183MOL0     C25183   2.098  11.733  10.874 -0.0072  0.4253  0.0044
  183MOL0     C25184   2.209  11.772  10.782 -0.2687 -0.3030  0.9368
  183MOL0     H25185   2.424  11.361  11.015 -2.5155 -1.9682  0.3399
  183MOL0     H25186   2.597  11.205  10.963 -0.6997  0.5344  0.5298
  183MOL0     H25187   2.751  11.166  10.570 -0.5875  0.4717 -0.3528
  183MOL0     H25188   2.644  11.034  10.538  1.4061  3.3931 -3.8097
  183MOL0     H25189   2.896  10.973  10.526  1.4819  3.6623  0.6966
  183MOL0     H25190   2.904  11.013  10.699  2.1411 -2.4115 -0.1852
  183MOL0     H25191   2.711  10.831  10.723  2.1524  0.2637  1.7390
  183MOL0     H25192   2.754  10.794  10.557 -2.8689  3.7831 -0.7934
  183MOL0     H25193   2.977  10.703  10.652  4.5167  2.2387  3.8206
  183MOL0     H25194   2.971  10.813  10.780 -0.5847  1.2660  0.3627
  183MOL0     H25195   2.760  10.678  10.864  0.9572 -2.1449  1.9467
  183MOL0     H25196   2.908  10.586  10.868 -2.0852 -2.1031  1.0328
  183MOL0     H25197   2.699  10.585  10.647  1.8901  0.7665 -1.0424
  183MOL0     H25198   2.856  10.510  10.632  1.9522 -1.0341  1.9729
  183MOL0     H25199   2.652  10.428  10.852  2.3751 -0.6658  3.2011
  183MOL0     H25200   2.812  10.358  10.832 -0.1828 -0.7738  0.5438
  183MOL0     H25201   2.664  10.214  10.701 -1.8751  0.3807 -2.5536
  183MOL0     H25202   2.583  10.341  10.638 -0.4390  1.3713  3.3861
  183MOL0     H25203   2.952  10.192  10.628  0.5595  3.3843  1.2787
  183MOL0     H25204   3.148  10.222  10.429 -0.4008  0.7519  1.5199
  183MOL0     H25205   3.094  10.228  10.261 -1.2688 -0.0483 -0.0485
  183MOL0     H25206   3.062   9.997  10.477  2.6943 -0.6953 -2.0603
  183MOL0     H25207   2.951  10.000  10.349 -0.0585 -3.1597  2.1492
  183MOL0     H25208   3.123   9.996  10.189  1.6636  0.5812 -0.4273
  183MOL0     H25209   3.258  10.013  10.307 -0.9405  1.1665  0.7141
  183MOL0     H25210   3.164   9.771  10.397 -0.6078 -0.2914 -0.1239
  183MOL0     H25211   3.058   9.772  10.264 -0.1813 -2.7161  2.9359
  183MOL0     H25212   3.451   9.635  10.077 -0.2936  0.8646  2.0353
  183MOL0     H25213   3.483   9.298   9.960 -2.8491  1.2888 -1.4348
  183MOL0     H25214   3.586   9.349  10.096  0.8765 -0.3791 -0.7156
  183MOL0     H25215   3.549   9.456   9.950 -2.4571 -1.5836 -2.7852
  183MOL0     H25216   3.308   8.935   9.992  0.5389  0.1657  0.8817
  183MOL0     H25217   3.367   8.701  10.049  0.9128 -0.5422  1.6370
  183MOL0     H25218   3.496   8.585  10.349 -2.0783  3.7836  2.0288
  183MOL0     H25219   3.356   8.539  10.452  0.0321 -0.2694  0.0661
  183MOL0     H25220   3.454   8.331  10.430 -2.1463  1.9073  2.7371
  183MOL0     H25221   3.309   8.342  10.331 -0.5410  0.8895 -1.8712
  183MOL0     H25222   3.592   8.398  10.213 -0.1239  1.0326  0.4916
  183MOL0     H25223   3.432   8.396  10.129 -1.2573  0.2111  0.8353
  183MOL0     H25224   3.435   8.150  10.178 -1.0309  1.2230 -1.7554
  183MOL0     H25225   3.584   8.172  10.266  1.5254  0.1405 -1.4401
  183MOL0     H25226   3.587   8.081  10.024 -0.8109  0.1787 -0.2415
  183MOL0     H25227   3.585   8.248   9.972 -1.8051  1.3093  0.4949
  183MOL0     H25228   3.786   8.116  10.185 -1.8161  1.1591  1.9467
  183MOL0     H25229   3.811   8.270  10.120 -0.5573  1.0157 -1.0166
  183MOL0     H25230   3.798   8.009   9.963  0.6228  0.1658 -2.4850
  183MOL0     H25231   3.951   8.099   9.999  1.1259  1.4978  0.1646
  183MOL0     H25232   3.883   8.279   9.844  0.0184  0.1049  4.3758
  183MOL0     H25233   3.726   8.202   9.813  0.0830 -1.6718 -2.6520
  183MOL0     H25234   3.181   8.752  10.429 -2.5975  0.8213  0.2298
  183MOL0     H25235   3.154   8.999  10.384 -0.6330 -0.0038  0.6178
  183MOL0     H25236   3.126   9.331  10.281 -0.4548 -1.8341 -2.2509
  183MOL0     H25237   3.116   9.549  10.331  1.0333  2.5219  0.8977
  183MOL0     H25238   2.503  11.206  10.547  0.9103 -1.1907  0.6698
  183MOL0     H25239   2.331  11.370  10.591  0.1594 -3.2233 -0.9366
  183MOL0     H25240   1.980  11.487  11.087 -0.2715  0.6285  0.7111
  183MOL0     H25241   1.793  11.632  11.084  1.2299 -1.1940  0.4566
  183MOL0     H25242   1.660  11.782  11.108  2.0668 -1.4805 -1.1014
  183MOL0     H25243   1.790  11.877  11.179  1.1226  0.2335 -0.2235
  183MOL0     H25244   1.585  11.984  11.221  0.0728  1.4640  0.1511
  183MOL0     H25245   1.523  11.954  11.059  0.1491 -1.0023 -0.9015
  183MOL0     H25246   1.595  12.205  11.139  0.2109  0.1907 -0.0053
  183MOL0     H25247   1.758  12.135  11.133  0.0313  2.5015  0.0395
  183MOL0     H25248   1.606  12.179  10.880 -1.8460 -1.5029  2.3272
  183MOL0     H25249   1.753  12.096  10.901 -0.5444  0.4424 -0.9635
  183MOL0     H25250   1.850  12.519  10.938  0.1267  0.4958  2.9576
  183MOL0     H25251   1.980  11.929  10.846 -0.8546  0.6356  0.8000
  183MOL0     H25252   2.207  11.741  10.677  1.2898 -1.2516  1.1639
  183MOL0     H25253   2.208  11.881  10.772  3.7883 -0.1742  0.0075
  183MOL0     H25254   2.309  11.755  10.824 -0.1048  0.4165  0.8584
  184MOL0     O25255   6.429   2.148   8.077  0.3592  0.0061  0.1128
  184MOL0     C25256   6.419   2.249   8.134 -0.8617 -0.0134  0.6645
  184MOL0     O25257   6.500   2.365   8.115  1.1362  0.7580  0.8455
  184MOL0     C25258   6.615   2.365   8.043 -0.7953  0.4707 -0.1647
  184MOL0     C25259   6.617   2.349   7.900 -0.5778 -0.2472  0.0734
  184MOL0     C25260   6.739   2.342   7.830 -0.1793 -0.7599  0.1058
  184MOL0     C25261   6.862   2.348   7.903  0.0067  0.3651 -0.6301
  184MOL0     O25262   6.986   2.347   7.850 -0.5718 -1.0234  0.2726
  184MOL0     C25263   7.001   2.327   7.710 -0.6560 -0.1385  0.7375
  184MOL0     C25264   7.148   2.343   7.677  1.0854  0.0202  0.9162
  184MOL0     C25265   7.232   2.234   7.727 -0.1392 -0.5049  0.0716
  184MOL0     C25266   7.373   2.269   7.686  0.4915  0.7944 -0.0401
  184MOL0     C25267   7.470   2.179   7.763 -0.1956 -0.2161  0.0731
  184MOL0     C25268   7.482   2.230   7.910 -0.0169 -0.0823 -0.6181
  184MOL0     C25269   7.546   2.133   8.018  0.0346 -0.1664 -0.1571
  184MOL0     C25270   7.461   2.014   8.053  0.1763  0.0434 -0.1677
  184MOL0     N25271   7.335   2.053   8.114 -0.2256 -0.8796  0.1091
  184MOL0     C25272   7.207   2.044   8.068  0.0632 -0.5010 -0.6732
  184MOL0     C25273   7.133   2.081   8.172 -0.1931  0.5205 -0.6598
  184MOL0     C25274   6.988   2.057   8.168 -0.8723  0.2032 -0.4930
  184MOL0     C25275   6.970   1.907   8.209  0.4003  0.0425  0.1568
  184MOL0     C25276   6.827   1.851   8.176 -0.1302 -0.5176  0.4698
  184MOL0     C25277   6.715   1.923   8.255 -0.6625 -0.4737  0.2088
  184MOL0     O25278   6.654   1.846   8.358  0.1323  0.6848  0.3432
  184MOL0     C25279   6.558   1.749   8.320  0.7556 -0.3205 -0.4413
  184MOL0     C25280   6.540   1.647   8.412  0.5146 -0.8290  0.4486
  184MOL0     C25281   6.470   1.527   8.390  0.1250  0.0379 -0.3903
  184MOL0     C25282   6.454   1.430   8.510 -0.3281 -0.4331 -0.4700
  184MOL0     C25283   6.417   1.508   8.260 -0.2649  1.1980  0.1785
  184MOL0     C25284   6.341   1.387   8.217  0.1085  0.8383 -0.5968
  184MOL0     O25285   6.300   1.380   8.090 -0.3118  0.0659 -0.6148
  184MOL0     C25286   6.274   1.268   8.019  0.1357 -0.1221  1.2582
  184MOL0     C25287   6.189   1.288   7.906 -1.2977  0.3467 -0.2306
  184MOL0     C25288   6.144   1.174   7.839  0.2571  0.8627  1.0949
  184MOL0     C25289   6.198   1.044   7.866 -0.0728  0.8611  0.5336
  184MOL0     O25290   6.169   0.916   7.818 -0.2923  0.2847  0.1409
  184MOL0     C25291   6.053   0.923   7.729 -0.3359  0.3711 -0.3689
  184MOL0     C25292   5.997   0.781   7.692 -0.1260  0.2336  0.1115
  184MOL0     C25293   6.009   0.771   7.539 -0.4434  0.0225 -0.1771
  184MOL0     C25294   6.153   0.754   7.496  0.5837  0.1174 -0.0609
  184MOL0     C25295   6.171   0.717   7.349 -0.9480  0.2562  0.2248
  184MOL0     C25296   6.169   0.569   7.309  0.2873 -0.5812 -0.0246
  184MOL0     C25297   6.224   0.563   7.170  0.4992 -0.3132  0.0239
  184MOL0     C25298   6.265   0.419   7.127 -0.5565 -0.8083  1.0407
  184MOL0    Cl25299   6.357   0.410   6.971  0.2271  0.6144  0.1714
  184MOL0     C25300   6.296   1.035   7.962  0.4281 -0.2849 -1.2764
  184MOL0     C25301   6.331   1.146   8.046  0.4340 -0.1174  0.4210
  184MOL0     O25302   6.332   1.289   8.298  0.2150 -0.9927 -0.1461
  184MOL0     C25303   6.420   1.617   8.167  0.2178  0.3982  0.2347
  184MOL0     C25304   6.495   1.729   8.198 -0.0845 -0.7440 -1.6505
  184MOL0     N25305   7.203   2.150   8.265  0.1005  0.5394  0.5254
  184MOL0     N25306   7.329   2.129   8.226  0.2999 -0.9093 -0.8102
  184MOL0     C25307   6.868   2.369   8.043  0.2702  0.0858  0.4844
  184MOL0     C25308   6.739   2.380   8.108  0.0262 -0.3220 -0.6899
  184MOL0     C25309   6.298   2.265   8.215  0.3946 -0.0980  0.2714
  184MOL0     C25310   6.271   2.392   8.264 -0.7337 -0.2580 -0.4068
  184MOL0     C25311   6.165   2.424   8.348  0.3027  0.2132 -0.0612
  184MOL0     C25312   6.071   2.332   8.369 -0.4088 -0.3241 -1.0228
  184MOL0     O25313   5.969   2.358   8.445  0.5093  0.0078  0.9904
  184MOL0     C25314   5.864   2.425   8.376  0.0850  0.4697  0.3339
  184MOL0     C25315   5.738   2.463   8.456  0.3098 -0.0783  0.3212
  184MOL0     C25316   5.627   2.515   8.366  0.4561 -0.4694  1.0595
  184MOL0     C25317   5.516   2.587   8.445  0.2244  0.2851 -0.8388
  184MOL0     C25318   5.411   2.499   8.507 -0.8193  0.3922  0.9662
  184MOL0     C25319   5.344   2.434   8.584  0.1608 -1.0729  0.6630
  184MOL0     C25320   6.091   2.198   8.325 -1.0216  0.7840 -0.9968
  184MOL0     C25321   6.206   2.158   8.255 -0.3981  0.6613 -0.7805
  184MOL0     C25322   6.226   2.014   8.218  0.3318  0.2010  0.3489
  184MOL0     H25323   6.515   2.329   7.866 -1.5808  0.7356  2.3052
  184MOL0     H25324   6.728   2.332   7.723  0.9451 -2.3450  0.1016
  184MOL0     H25325   6.948   2.409   7.660 -1.0524  0.5381  2.1981
  184MOL0     H25326   6.964   2.229   7.681  0.9287 -0.5134 -0.0931
  184MOL0     H25327   7.141   2.342   7.567 -2.3040 -0.3476  1.0277
  184MOL0     H25328   7.173   2.437   7.727  0.2921  0.8507 -0.2023
  184MOL0     H25329   7.214   2.234   7.835 -2.4410  0.3603 -0.2476
  184MOL0     H25330   7.202   2.134   7.696 -0.2625 -0.7985  1.0801
  184MOL0     H25331   7.382   2.251   7.579  0.1754  0.6339 -0.0415
  184MOL0     H25332   7.392   2.374   7.708  1.2352  0.1626  2.8770
  184MOL0     H25333   7.569   2.163   7.718  0.5878 -1.3479  2.0722
  184MOL0     H25334   7.428   2.078   7.759  1.4074 -0.9589  0.8281
  184MOL0     H25335   7.531   2.327   7.911  2.0536 -1.0267 -2.3399
  184MOL0     H25336   7.383   2.264   7.944 -0.6203  3.4479 -4.9728
  184MOL0     H25337   7.565   2.177   8.116 -2.4754  1.5350 -0.3346
  184MOL0     H25338   7.638   2.095   7.971  0.1431  0.3559 -0.3821
  184MOL0     H25339   7.440   1.958   7.961  0.6943  0.6624 -0.6703
  184MOL0     H25340   7.502   1.936   8.118  0.4760 -0.2972 -0.7563
  184MOL0     H25341   7.171   1.990   7.981 -0.0678 -2.8267  0.7596
  184MOL0     H25342   6.962   2.077   8.064  2.7310 -2.7887 -2.2273
  184MOL0     H25343   6.935   2.118   8.241 -2.5110 -1.2894 -0.3601
  184MOL0     H25344   7.048   1.847   8.162  2.6299  2.9086 -0.0902
  184MOL0     H25345   6.988   1.910   8.317  2.0354 -3.5682  0.1243
  184MOL0     H25346   6.820   1.844   8.067  0.8025 -0.4398  0.3958
  184MOL0     H25347   6.816   1.747   8.210  0.9581 -0.5857  0.6598
  184MOL0     H25348   6.756   2.009   8.308  1.3647 -1.1939 -0.1086
  184MOL0     H25349   6.642   1.975   8.193 -0.2595  2.1460  1.7988
  184MOL0     H25350   6.589   1.665   8.508  0.2038 -0.8480  0.6131
  184MOL0     H25351   6.473   1.324   8.488 -0.8099 -1.3303  2.8692
  184MOL0     H25352   6.351   1.432   8.545  0.4451  1.8598  2.0264
  184MOL0     H25353   6.523   1.453   8.592  0.1180  0.8623 -1.1929
  184MOL0     H25354   6.156   1.390   7.886 -1.6866  0.7414  2.1582
  184MOL0     H25355   6.067   1.190   7.764 -0.1476  3.5485  1.9734
  184MOL0     H25356   5.970   0.982   7.769  0.3408  0.5525  0.8197
  184MOL0     H25357   6.082   0.978   7.639  0.9273 -1.6506 -1.2664
  184MOL0     H25358   6.057   0.700   7.736  4.9110  3.4985  0.1076
  184MOL0     H25359   5.893   0.783   7.726  0.3730  2.7179  1.7568
  184MOL0     H25360   5.974   0.867   7.500 -0.2017 -0.3679 -1.4211
  184MOL0     H25361   5.947   0.693   7.493 -0.1342  1.8445 -4.1597
  184MOL0     H25362   6.205   0.681   7.559  0.7231 -0.4763 -0.8576
  184MOL0     H25363   6.199   0.854   7.506 -0.1578  0.5947 -1.2075
  184MOL0     H25364   6.105   0.770   7.280  2.6585  2.2151 -2.0543
  184MOL0     H25365   6.270   0.762   7.339 -0.5966 -0.0467  2.0491
  184MOL0     H25366   6.070   0.523   7.314  0.3446 -0.7448 -0.3698
  184MOL0     H25367   6.241   0.514   7.371  1.8830  0.8242 -0.5526
  184MOL0     H25368   6.308   0.632   7.157 -0.8108  1.2862 -0.3068
  184MOL0     H25369   6.150   0.587   7.093 -1.0394 -3.6872  0.3020
  184MOL0     H25370   6.172   0.363   7.115 -0.7728 -0.8106  2.5252
  184MOL0     H25371   6.326   0.365   7.199  0.2749  2.3440  2.9208
  184MOL0     H25372   6.335   0.935   7.978 -0.1255 -0.1548  1.4752
  184MOL0     H25373   6.401   1.138   8.128  1.2524 -2.5338 -0.4359
  184MOL0     H25374   6.360   1.606   8.077 -1.3520  0.1915  1.2536
  184MOL0     H25375   6.499   1.810   8.126  1.4782  0.6553 -0.0911
  184MOL0     H25376   6.956   2.387   8.104 -1.1317  0.4753  2.4793
  184MOL0     H25377   6.735   2.396   8.215 -0.2121 -1.5795 -0.4992
  184MOL0     H25378   6.326   2.474   8.218  0.2633 -1.4376 -1.3970
  184MOL0     H25379   6.142   2.524   8.384  0.2722  1.6002 -3.4968
  184MOL0     H25380   5.903   2.522   8.342  0.2715 -0.0974 -1.1259
  184MOL0     H25381   5.844   2.375   8.281  2.7408  0.8299 -0.4901
  184MOL0     H25382   5.768   2.544   8.523 -2.0994  0.0923  1.2830
  184MOL0     H25383   5.697   2.377   8.509  0.4911 -0.3887 -0.0349
  184MOL0     H25384   5.675   2.581   8.293  2.0365  0.1512  2.5725
  184MOL0     H25385   5.589   2.429   8.311 -0.4959  0.8530 -0.4517
  184MOL0     H25386   5.454   2.644   8.375 -0.4946 -1.5126 -1.7366
  184MOL0     H25387   5.559   2.656   8.518  0.7405  0.9641 -1.7658
  184MOL0     H25388   5.273   2.379   8.643 -1.2117  0.5943  0.6493
  184MOL0     H25389   6.025   2.122   8.365  0.4098  0.0200  0.0144
  184MOL0     H25390   6.325   1.980   8.248 -0.0206  1.1865  2.9282
  184MOL0     H25391   6.148   1.948   8.256  0.7075 -0.3203  0.2223
  184MOL0     H25392   6.215   2.008   8.109 -2.3111  1.0059  0.4973
  185MOL0     O25393   3.397   8.983   8.514  0.1922 -0.1592  0.2125
  185MOL0     C25394   3.301   9.040   8.460  1.0420 -0.1318 -0.3649
  185MOL0     O25395   3.278   9.176   8.460  0.6492 -0.1007  0.2151
  185MOL0     C25396   3.347   9.258   8.538 -0.2876 -0.5903 -0.2985
  185MOL0     C25397   3.274   9.341   8.639  0.3213  0.3056 -0.3034
  185MOL0     C25398   3.349   9.444   8.710 -1.0252  0.3432 -0.2327
  185MOL0     C25399   3.490   9.447   8.705 -0.1838 -0.0729  0.2138
  185MOL0     O25400   3.548   9.530   8.802 -0.5260 -0.3296  0.5480
  185MOL0     C25401   3.687   9.563   8.799  1.2848  0.3350  0.1617
  185MOL0     C25402   3.710   9.633   8.662 -0.1188  0.0509  0.2798
  185MOL0     C25403   3.806   9.743   8.667 -0.3319  0.1515 -0.9226
  185MOL0     C25404   3.737   9.881   8.704  0.7862 -0.2025 -0.6089
  185MOL0     C25405   3.833  10.007   8.700 -0.0455  0.3355  0.2062
  185MOL0     C25406   3.763  10.119   8.634  0.6293 -0.6698 -0.3077
  185MOL0     C25407   3.649  10.192   8.714 -0.1001  0.5126  0.2415
  185MOL0     C25408   3.574  10.291   8.631  0.8307  0.6107 -0.4388
  185MOL0     N25409   3.650  10.381   8.555  0.5527  0.0138  0.4107
  185MOL0     C25410   3.702  10.360   8.432  0.1716 -0.3096 -0.1108
  185MOL0     C25411   3.761  10.483   8.410  0.0621 -1.2622  0.1288
  185MOL0     C25412   3.839  10.528   8.287  0.1229  0.2168  1.0464
  185MOL0     C25413   3.994  10.516   8.295  0.9347 -0.2034 -0.0791
  185MOL0     C25414   4.052  10.634   8.375  0.2584  0.8136  0.5523
  185MOL0     C25415   4.200  10.611   8.407  0.2695  0.9268 -0.7613
  185MOL0     O25416   4.283  10.586   8.294  0.1161  0.1520 -0.4892
  185MOL0     C25417   4.330  10.685   8.222  1.0803  0.7372  0.5628
  185MOL0     C25418   4.383  10.656   8.099  0.1203  0.0115  0.0795
  185MOL0     C25419   4.442  10.754   8.012 -0.2015 -0.2270  0.0714
  185MOL0     C25420   4.493  10.705   7.879 -0.2446 -0.4491  0.3807
  185MOL0     C25421   4.425  10.885   8.047  1.2076 -0.6886 -0.1851
  185MOL0     C25422   4.471  11.007   7.975 -0.2353  0.0742  0.7482
  185MOL0     O25423   4.414  11.136   8.008 -0.3599  0.5337 -0.2555
  185MOL0     C25424   4.448  11.245   7.936  0.4324 -0.6526 -1.3935
  185MOL0     C25425   4.342  11.334   7.888 -0.8111  0.0631 -0.2678
  185MOL0     C25426   4.370  11.462   7.823 -0.0520 -1.1838  0.4162
  185MOL0     C25427   4.505  11.505   7.813  0.1093 -0.0789 -0.7521
  185MOL0     O25428   4.548  11.628   7.761  0.0064  0.3722  0.5487
  185MOL0     C25429   4.456  11.705   7.682 -0.2579 -0.2711 -0.5660
  185MOL0     C25430   4.537  11.822   7.629  1.1388 -0.4835 -1.5876
  185MOL0     C25431   4.432  11.919   7.570 -1.1014 -0.1602  0.0413
  185MOL0     C25432   4.505  12.042   7.503  0.8330  0.7863  0.2893
  185MOL0     C25433   4.404  12.152   7.476  0.4621  0.6940  0.2022
  185MOL0     C25434   4.322  12.127   7.344 -0.5378 -0.0402 -1.5206
  185MOL0     C25435   4.407  12.174   7.230  0.0810  0.2868 -0.3993
  185MOL0     C25436   4.351  12.097   7.116 -0.0212  0.7133  0.3980
  185MOL0    Cl25437   4.427  12.144   6.965  0.5100 -0.6092  0.3074
  185MOL0     C25438   4.607  11.424   7.872  0.6760  0.2239  0.4118
  185MOL0     C25439   4.580  11.299   7.927  0.1700  1.0430 -0.0991
  185MOL0     O25440   4.557  10.994   7.895  0.1425 -0.2472 -0.8650
  185MOL0     C25441   4.359  10.915   8.164  0.1820 -0.1315 -0.0869
  185MOL0     C25442   4.301  10.817   8.250 -0.2025  0.0500  0.4742
  185MOL0     N25443   3.746  10.563   8.522  0.0848 -0.3370  0.6370
  185MOL0     N25444   3.670  10.506   8.607  0.3287  0.3576  0.0956
  185MOL0     C25445   3.560   9.358   8.619 -0.0898  0.3717 -0.1863
  185MOL0     C25446   3.489   9.260   8.542 -0.6672 -0.1984  0.0712
  185MOL0     C25447   3.193   8.958   8.396 -0.8723 -0.9003  0.1286
  185MOL0     C25448   3.073   8.977   8.457 -0.1832  0.8283  0.5917
  185MOL0     C25449   2.958   8.914   8.403 -0.3751  0.7038 -0.7945
  185MOL0     C25450   2.964   8.832   8.289 -0.1193  0.5167 -0.7562
  185MOL0     O25451   2.865   8.764   8.226  0.3774  0.0731 -0.5241
  185MOL0     C25452   2.724   8.804   8.242  0.3628  0.3063  0.3348
  185MOL0     C25453   2.622   8.729   8.156  0.5454  0.2502  0.8909
  185MOL0     C25454   2.633   8.791   8.018  0.2009  0.3332  0.6206
  185MOL0     C25455   2.602   8.691   7.906  0.0263  0.8795  0.1117
  185MOL0     C25456   2.471   8.623   7.925  1.3294  0.5396 -0.4331
  185MOL0     C25457   2.362   8.564   7.942 -0.5116 -0.6145  0.6664
  185MOL0     C25458   3.097   8.808   8.232  0.2959 -0.0718 -0.7748
  185MOL0     C25459   3.211   8.869   8.288  0.5777 -1.3289 -0.0002
  185MOL0     C25460   3.341   8.862   8.213 -0.1532 -0.4848  0.0921
  185MOL0     H25461   3.165   9.335   8.640  0.1517  2.0819 -2.1596
  185MOL0     H25462   3.305   9.498   8.794 -0.3259 -0.9609  1.0122
  185MOL0     H25463   3.753   9.476   8.810 -2.7526 -3.2608 -0.9059
  185MOL0     H25464   3.699   9.628   8.885 -0.0847 -1.3366  1.6973
  185MOL0     H25465   3.757   9.569   8.587  2.3986  2.2977 -0.2013
  185MOL0     H25466   3.615   9.671   8.622 -0.4867  0.8170  1.8076
  185MOL0     H25467   3.871   9.730   8.754  0.1578  0.2666 -1.2712
  185MOL0     H25468   3.871   9.758   8.580  1.7099 -0.4708  0.4388
  185MOL0     H25469   3.653   9.895   8.636 -2.5354 -0.0184  3.1208
  185MOL0     H25470   3.695   9.869   8.804  1.6055 -0.2977 -0.2607
  185MOL0     H25471   3.926   9.981   8.650 -0.6792  0.4636 -1.0729
  185MOL0     H25472   3.868  10.037   8.799  2.3859 -3.3227  0.6522
  185MOL0     H25473   3.840  10.193   8.609  0.4057 -0.2993  0.0700
  185MOL0     H25474   3.714  10.074   8.547 -0.1626 -2.0511  0.8098
  185MOL0     H25475   3.695  10.246   8.797  0.9265  0.8919 -0.5391
  185MOL0     H25476   3.578  10.120   8.753 -0.4563  1.2655  1.0100
  185MOL0     H25477   3.511  10.238   8.558 -1.0054 -0.6907  1.9610
  185MOL0     H25478   3.508  10.350   8.694  0.2582 -2.9623  2.6806
  185MOL0     H25479   3.686  10.273   8.368  1.8350 -2.3245  2.0173
  185MOL0     H25480   3.806  10.631   8.269 -1.6516 -0.2356  1.4544
  185MOL0     H25481   3.809  10.465   8.202  1.2363  1.5584 -0.3976
  185MOL0     H25482   4.024  10.425   8.348 -0.8947 -0.3187  0.8330
  185MOL0     H25483   4.037  10.505   8.194  1.4901  1.8946 -0.1210
  185MOL0     H25484   4.038  10.721   8.311 -0.2838 -1.3810 -2.5195
  185MOL0     H25485   3.991  10.650   8.465 -0.2626  1.9400  0.0161
  185MOL0     H25486   4.239  10.688   8.474 -3.0674  0.7870  1.5276
  185MOL0     H25487   4.207  10.518   8.462 -1.3539 -0.2606 -2.4224
  185MOL0     H25488   4.392  10.551   8.074 -0.8042  0.1569 -1.0026
  185MOL0     H25489   4.476  10.781   7.802  1.1622  0.0679  0.5515
  185MOL0     H25490   4.447  10.611   7.847 -1.8005 -0.1750  1.6741
  185MOL0     H25491   4.597  10.674   7.892 -0.4906 -2.2387 -1.4627
  185MOL0     H25492   4.236  11.317   7.899 -1.6002  0.6036 -4.9028
  185MOL0     H25493   4.294  11.517   7.769  1.6704  0.2301 -0.7156
  185MOL0     H25494   4.401  11.648   7.607  0.1636 -0.2516 -0.8946
  185MOL0     H25495   4.379  11.736   7.753  2.4886 -1.4752  3.2720
  185MOL0     H25496   4.594  11.865   7.712 -0.2709 -1.5527  0.0162
  185MOL0     H25497   4.611  11.790   7.555 -0.0002 -2.4368 -1.9431
  185MOL0     H25498   4.365  11.949   7.651  1.3635  0.1139  2.1144
  185MOL0     H25499   4.373  11.870   7.492 -0.4586  1.6607 -1.6825
  185MOL0     H25500   4.552  12.005   7.411 -1.0468 -0.0258 -0.3935
  185MOL0     H25501   4.589  12.073   7.567 -0.0854  1.2930  1.2861
  185MOL0     H25502   4.341  12.155   7.566  1.4225 -3.2877  1.2448
  185MOL0     H25503   4.461  12.242   7.453 -0.0396  0.7885 -0.6880
  185MOL0     H25504   4.230  12.185   7.356 -0.4006 -0.1354  0.1780
  185MOL0     H25505   4.305  12.019   7.345  0.8621 -0.2996  0.9611
  185MOL0     H25506   4.514  12.155   7.243 -0.0923 -0.2869  0.2674
  185MOL0     H25507   4.393  12.282   7.222 -0.7295  0.2081 -0.1172
  185MOL0     H25508   4.244  12.116   7.118  0.0066  1.0696 -0.9850
  185MOL0     H25509   4.383  11.994   7.134  0.4926  0.4732 -1.6443
  185MOL0     H25510   4.707  11.453   7.842 -0.1941  0.8594 -2.0629
  185MOL0     H25511   4.663  11.240   7.962 -0.7839 -0.9416 -1.0347
  185MOL0     H25512   4.344  11.018   8.196 -0.7040 -0.6042  1.0644
  185MOL0     H25513   4.237  10.845   8.333  1.1059  3.8193  0.4103
  185MOL0     H25514   3.668   9.347   8.621 -0.0362  0.3471 -1.9679
  185MOL0     H25515   3.545   9.198   8.473  1.3379  2.0680 -0.4722
  185MOL0     H25516   3.058   9.046   8.540 -1.4993 -0.2664  1.3038
  185MOL0     H25517   2.866   8.928   8.458  1.5469  1.7214  2.4633
  185MOL0     H25518   2.687   8.781   8.343  2.5976 -1.1419  0.8922
  185MOL0     H25519   2.715   8.912   8.228  1.5799  0.2302 -1.3173
  185MOL0     H25520   2.519   8.745   8.189  0.6939  1.0966  0.9642
  185MOL0     H25521   2.641   8.622   8.145 -0.4934  0.2417 -1.4594
  185MOL0     H25522   2.588   8.891   8.014  0.2560  0.3288 -2.1613
  185MOL0     H25523   2.739   8.812   8.000  0.6200 -0.6911  1.7839
  185MOL0     H25524   2.689   8.625   7.910  0.5670  1.3940 -1.8917
  185MOL0     H25525   2.607   8.738   7.807 -2.2893  2.2302  0.5694
  185MOL0     H25526   2.279   8.499   7.963 -1.9291  0.3581 -1.5885
  185MOL0     H25527   3.090   8.741   8.147 -3.8553  1.0291 -1.5336
  185MOL0     H25528   3.434   8.861   8.271  1.4108 -1.2118 -2.2513
  185MOL0     H25529   3.348   8.769   8.157  1.8582 -0.8999  0.9383
  185MOL0     H25530   3.342   8.947   8.144 -1.2821  0.4975  1.2383
  186MOL0     O25531   8.813   6.601   7.314 -0.2164 -0.6880  0.3422
  186MOL0     C25532   8.849   6.578   7.430 -1.0259  0.5096  0.9179
  186MOL0     O25533   8.813   6.471   7.504 -0.0883 -0.4304 -0.5744
  186MOL0     C25534   8.722   6.375   7.462 -0.3852  0.3996 -0.0841
  186MOL0     C25535   8.740   6.283   7.362 -0.1090  0.4617  0.0008
  186MOL0     C25536   8.634   6.200   7.310  0.8996 -1.1349  0.1141
  186MOL0     C25537   8.504   6.219   7.365  0.0929 -0.4495  0.4537
  186MOL0     O25538   8.384   6.159   7.315 -0.0473 -0.1899 -0.2228
  186MOL0     C25539   8.395   6.027   7.259 -0.1399  0.2493  0.1947
  186MOL0     C25540   8.255   5.978   7.244 -0.3457 -0.0715  0.2162
  186MOL0     C25541   8.195   5.951   7.382  0.9977 -0.0269  0.5623
  186MOL0     C25542   8.055   5.893   7.373  0.5133  0.0911  0.7606
  186MOL0     C25543   7.976   5.901   7.503  0.2857  0.3597  0.1611
  186MOL0     C25544   7.831   5.855   7.493 -0.0411 -0.1812  0.5146
  186MOL0     C25545   7.782   5.830   7.634 -0.5021  0.0424  0.4733
  186MOL0     C25546   7.650   5.753   7.640  0.0547 -0.4794  0.2527
  186MOL0     N25547   7.592   5.742   7.772  0.1976  0.3088 -0.0113
  186MOL0     C25548   7.566   5.837   7.862 -0.5097 -0.6175 -0.2250
  186MOL0     C25549   7.523   5.783   7.978 -0.1329  0.1553 -0.5338
  186MOL0     C25550   7.498   5.848   8.108 -0.4978 -0.5162 -0.3362
  186MOL0     C25551   7.637   5.890   8.161  0.3802  0.1967 -0.8768
  186MOL0     C25552   7.627   5.992   8.273  0.7041  0.4769 -0.2235
  186MOL0     C25553   7.754   6.050   8.336 -0.6260  0.5721 -0.0771
  186MOL0     O25554   7.859   5.948   8.353  0.9808 -0.0327  0.0145
  186MOL0     C25555   7.986   6.006   8.386 -0.0262 -0.3503  0.1539
  186MOL0     C25556   8.089   5.924   8.397  1.0705  0.1295  0.2308
  186MOL0     C25557   8.219   5.961   8.423  1.0744  0.0847  0.0612
  186MOL0     C25558   8.315   5.852   8.418 -0.4681 -0.9259 -0.3080
  186MOL0     C25559   8.250   6.101   8.447  0.6939 -0.8143  0.2889
  186MOL0     C25560   8.382   6.158   8.462 -0.0136 -0.4336  0.2016
  186MOL0     O25561   8.388   6.279   8.525 -0.1279 -1.3706 -0.2238
  186MOL0     C25562   8.500   6.356   8.502 -0.0058 -0.3204  0.1010
  186MOL0     C25563   8.626   6.319   8.541 -0.0624  0.2732 -0.0681
  186MOL0     C25564   8.747   6.389   8.506 -0.1359  0.6842 -0.6414
  186MOL0     C25565   8.734   6.509   8.438 -0.4401  0.5585 -0.2488
  186MOL0     O25566   8.849   6.588   8.433  0.3505 -0.4762  0.8030
  186MOL0     C25567   8.832   6.729   8.417  0.2135  0.5301  0.1653
  186MOL0     C25568   8.963   6.797   8.446 -0.4067 -0.2618 -0.0724
  186MOL0     C25569   8.949   6.937   8.501  0.4767  0.8245 -1.1349
  186MOL0     C25570   9.075   7.004   8.501 -0.4873 -0.3036 -0.0959
  186MOL0     C25571   9.070   7.154   8.546  0.1014 -0.3271 -0.6271
  186MOL0     C25572   9.217   7.204   8.561 -1.2248 -0.4796  0.1630
  186MOL0     C25573   9.216   7.341   8.623  0.4063 -0.8913  0.3102
  186MOL0     C25574   9.358   7.385   8.646 -1.2628  0.2473 -0.0430
  186MOL0    Cl25575   9.453   7.303   8.778  0.4649 -0.1438  0.0296
  186MOL0     C25576   8.604   6.554   8.404 -0.3560  0.3463  0.2864
  186MOL0     C25577   8.487   6.478   8.438 -1.3057 -0.0492  0.8279
  186MOL0     O25578   8.477   6.094   8.413  0.4184 -0.0515  0.3218
  186MOL0     C25579   8.138   6.191   8.446 -0.0275 -1.5601  0.5010
  186MOL0     C25580   8.007   6.143   8.415 -0.4353  0.4952  0.0541
  186MOL0     N25581   7.526   5.650   7.955  0.0837  0.1624  0.0275
  186MOL0     N25582   7.567   5.620   7.836  0.1644 -0.4422  0.5309
  186MOL0     C25583   8.485   6.308   7.469  0.6833 -0.5777 -0.5546
  186MOL0     C25584   8.596   6.384   7.505  1.2841 -0.0957 -0.0760
  186MOL0     C25585   8.941   6.672   7.500  0.3951  0.0660  0.8844
  186MOL0     C25586   9.024   6.620   7.599 -0.2926 -0.8563 -0.1773
  186MOL0     C25587   9.135   6.692   7.642  0.6922  0.2506 -0.6089
  186MOL0     C25588   9.155   6.826   7.605 -1.1881  0.5789  0.7363
  186MOL0     O25589   9.266   6.902   7.638  0.0614  0.6535 -0.2791
  186MOL0     C25590   9.330   6.873   7.770  0.0060  0.0809  0.0009
  186MOL0     C25591   9.446   6.973   7.813 -0.2906  0.0429  0.6183
  186MOL0     C25592   9.544   6.983   7.701  0.0564  0.7823 -1.2353
  186MOL0     C25593   9.632   7.106   7.718 -0.1208 -0.6429 -0.3485
  186MOL0     C25594   9.709   7.097   7.844 -0.3907  0.3188 -0.0590
  186MOL0     C25595   9.786   7.088   7.937  0.5834  0.6240 -0.4886
  186MOL0     C25596   9.075   6.877   7.504 -0.5213  0.0637 -0.2275
  186MOL0     C25597   8.975   6.803   7.444 -0.6725  0.2777 -0.4308
  186MOL0     C25598   8.905   6.878   7.330  0.8676 -0.0066  0.7379
  186MOL0     H25599   8.842   6.271   7.326  0.6561  3.8354  0.7033
  186MOL0     H25600   8.643   6.140   7.220  1.9183  1.7890 -1.9082
  186MOL0     H25601   8.463   5.965   7.317  1.9759  0.5248 -1.8504
  186MOL0     H25602   8.445   6.033   7.162 -1.7879  1.1817 -0.6573
  186MOL0     H25603   8.191   6.044   7.184 -2.5284  0.6778  3.1044
  186MOL0     H25604   8.256   5.890   7.179  1.6000  0.1287 -0.0631
  186MOL0     H25605   8.253   5.873   7.432 -1.4353 -1.6672  0.9877
  186MOL0     H25606   8.183   6.047   7.433  1.6843  0.7481 -0.6875
  186MOL0     H25607   7.999   5.937   7.291  2.4703  0.4615 -0.4393
  186MOL0     H25608   8.071   5.786   7.359  2.0721  0.3680  0.2136
  186MOL0     H25609   7.957   6.004   7.535 -1.0811 -0.1256  1.0118
  186MOL0     H25610   8.034   5.845   7.577 -0.1329 -1.7764 -1.0405
  186MOL0     H25611   7.770   5.939   7.459  0.1593 -0.5241 -0.7234
  186MOL0     H25612   7.817   5.767   7.429  0.1714 -1.4177  2.0998
  186MOL0     H25613   7.763   5.932   7.669  0.6093  0.2841  0.4108
  186MOL0     H25614   7.848   5.774   7.700 -2.6700 -2.4352  0.6892
  186MOL0     H25615   7.573   5.806   7.583  1.9166  1.4414 -0.5969
  186MOL0     H25616   7.669   5.656   7.594  0.7260 -1.5699  2.6656
  186MOL0     H25617   7.584   5.944   7.858  1.8702 -0.9200  0.5664
  186MOL0     H25618   7.449   5.770   8.167 -0.0910 -1.9352 -1.7988
  186MOL0     H25619   7.436   5.934   8.082  0.1750  0.8472  2.1774
  186MOL0     H25620   7.680   5.798   8.202 -1.1171 -0.6059 -1.0482
  186MOL0     H25621   7.706   5.943   8.095  1.3727  2.9366  2.0823
  186MOL0     H25622   7.559   6.074   8.249 -2.9150 -2.7205 -1.9270
  186MOL0     H25623   7.579   5.947   8.360  1.7206  1.9074  1.1509
  186MOL0     H25624   7.793   6.128   8.270 -1.0296  1.5794  0.8383
  186MOL0     H25625   7.716   6.100   8.425  1.3766  1.3994  0.3529
  186MOL0     H25626   8.054   5.825   8.370 -1.2516  1.3038 -1.3232
  186MOL0     H25627   8.276   5.753   8.441  1.0756 -0.9735  2.7193
  186MOL0     H25628   8.399   5.866   8.488 -1.0216 -2.0897  0.6274
  186MOL0     H25629   8.351   5.858   8.315  4.4603 -0.2743  1.1496
  186MOL0     H25630   8.632   6.228   8.599  2.3230  0.7305  0.5365
  186MOL0     H25631   8.844   6.348   8.532 -1.2677 -2.7569 -1.3027
  186MOL0     H25632   8.812   6.756   8.312 -1.1808 -1.2759 -0.0745
  186MOL0     H25633   8.756   6.767   8.485  0.9782  0.3417  1.1462
  186MOL0     H25634   9.021   6.732   8.513  0.3932 -1.5490 -1.9261
  186MOL0     H25635   9.017   6.792   8.351  2.1928  0.4505  1.2673
  186MOL0     H25636   8.910   6.940   8.603 -1.0242 -0.3887 -1.6431
  186MOL0     H25637   8.867   6.984   8.447 -1.6269 -1.2299  0.0947
  186MOL0     H25638   9.112   7.001   8.398  0.0565 -1.1636  0.1096
  186MOL0     H25639   9.143   6.948   8.567  0.0245 -0.3120 -0.6219
  186MOL0     H25640   9.007   7.201   8.471 -1.9763 -3.4304 -1.0136
  186MOL0     H25641   9.009   7.161   8.637 -2.9438  1.0970 -2.6311
  186MOL0     H25642   9.262   7.211   8.461  1.7152 -2.0365  1.2782
  186MOL0     H25643   9.276   7.141   8.628  0.1037  0.2034 -0.3335
  186MOL0     H25644   9.164   7.335   8.720  0.0016  1.0372  0.2498
  186MOL0     H25645   9.162   7.407   8.556 -1.8012 -2.9310 -0.0582
  186MOL0     H25646   9.352   7.493   8.665 -1.3213  0.4950 -1.3992
  186MOL0     H25647   9.410   7.382   8.550  3.7917 -0.9816  2.3884
  186MOL0     H25648   8.583   6.645   8.348 -0.5026 -0.1260 -0.4338
  186MOL0     H25649   8.390   6.509   8.401  0.8192  2.6904 -3.1419
  186MOL0     H25650   8.157   6.296   8.467 -1.2377 -0.9760 -1.1605
  186MOL0     H25651   7.932   6.221   8.403  0.3228  1.3234  0.5478
  186MOL0     H25652   8.384   6.331   7.503  1.2949  0.6236  0.5385
  186MOL0     H25653   8.579   6.458   7.583 -4.0736  0.5071 -1.4153
  186MOL0     H25654   9.011   6.521   7.640  0.4562 -0.6920  0.4861
  186MOL0     H25655   9.189   6.649   7.726 -2.3445 -0.7085  1.0006
  186MOL0     H25656   9.252   6.876   7.845 -3.5545 -1.9462 -3.2746
  186MOL0     H25657   9.384   6.777   7.770  1.2004  0.7315 -0.4605
  186MOL0     H25658   9.496   6.933   7.903  1.8987  2.1667  0.4568
  186MOL0     H25659   9.406   7.073   7.832 -0.9293 -0.2031  0.5744
  186MOL0     H25660   9.607   6.894   7.707 -1.8014 -0.5121  0.7494
  186MOL0     H25661   9.501   6.982   7.601  0.6277  0.9809 -1.4909
  186MOL0     H25662   9.582   7.203   7.709 -0.6085 -0.9780 -1.6065
  186MOL0     H25663   9.704   7.114   7.636 -0.9933  1.7181 -0.9614
  186MOL0     H25664   9.836   7.069   8.029 -1.4353 -1.0143  0.3526
  186MOL0     H25665   9.082   6.979   7.468  2.0630 -0.3570 -1.0945
  186MOL0     H25666   8.935   6.983   7.321  1.6743 -0.0235  2.6036
  186MOL0     H25667   8.922   6.816   7.241  4.5920  1.2500  0.3958
  186MOL0     H25668   8.799   6.891   7.353  1.4297  4.8579  1.6624
  187MOL0     O25669   6.051   6.440   9.120 -0.0792 -0.1223 -1.6236
  187MOL0     C25670   6.051   6.524   9.030 -0.5678 -0.6882 -0.1588
  187MOL0     O25671   5.961   6.529   8.917 -0.8512  1.0276 -0.8435
  187MOL0     C25672   5.884   6.423   8.893 -0.0495  0.3659  0.2682
  187MOL0     C25673   5.762   6.451   8.843  0.2803  0.5986 -0.1395
  187MOL0     C25674   5.675   6.345   8.816 -0.8621 -0.5374  0.1869
  187MOL0     C25675   5.707   6.213   8.823  0.5940 -0.1893  0.1511
  187MOL0     O25676   5.606   6.130   8.780  0.0064 -0.6187 -0.1793
  187MOL0     C25677   5.607   6.006   8.851 -0.0016 -0.3713 -0.0717
  187MOL0     C25678   5.484   5.913   8.821  0.2274 -0.4963 -0.5215
  187MOL0     C25679   5.355   5.980   8.874 -0.5726 -0.5844  0.2250
  187MOL0     C25680   5.293   6.103   8.804  0.5197 -0.1169 -0.4962
  187MOL0     C25681   5.155   6.146   8.863  0.2479  0.6312 -0.4531
  187MOL0     C25682   5.164   6.214   9.005  0.1066 -0.8088 -0.1325
  187MOL0     C25683   5.024   6.263   9.042 -0.4625  0.2855  0.6363
  187MOL0     C25684   5.022   6.334   9.179 -0.0964 -0.0436  0.0786
  187MOL0     N25685   4.887   6.367   9.227  0.2055 -0.0952  0.2300
  187MOL0     C25686   4.799   6.283   9.302  0.1671 -0.2810 -0.2047
  187MOL0     C25687   4.686   6.350   9.296 -0.5540 -0.2385  0.1474
  187MOL0     C25688   4.557   6.304   9.357  0.1932 -0.9779 -1.2021
  187MOL0     C25689   4.554   6.312   9.506  0.8233 -0.0267 -0.9601
  187MOL0     C25690   4.576   6.452   9.560 -0.5718 -0.3682  0.8087
  187MOL0     C25691   4.588   6.457   9.713  0.3089  0.3942  0.1288
  187MOL0     O25692   4.624   6.590   9.755  1.1061  0.3490 -0.1735
  187MOL0     C25693   4.633   6.624   9.885  0.3529 -0.3524 -0.2389
  187MOL0     C25694   4.556   6.565   9.989  1.2534 -0.1853 -0.8279
  187MOL0     C25695   4.558   6.612  10.119 -0.6247 -0.6504 -0.3964
  187MOL0     C25696   4.484   6.545  10.226 -0.3106 -0.2970 -0.3419
  187MOL0     C25697   4.657   6.718  10.157 -0.1030  0.2138 -0.6123
  187MOL0     C25698   4.675   6.773  10.293  0.4613  0.8864 -0.6552
  187MOL0     O25699   4.807   6.799  10.326  0.1040 -0.0950  0.6829
  187MOL0     C25700   4.841   6.856  10.449  0.1683 -0.3050 -0.0644
  187MOL0     C25701   4.785   6.984  10.480 -0.0708 -0.1237  1.1390
  187MOL0     C25702   4.800   7.034  10.610  0.0636 -0.6113  0.0014
  187MOL0     C25703   4.878   6.963  10.705 -0.2693  0.2417 -0.1328
  187MOL0     O25704   4.887   7.011  10.832 -0.6325  0.1581  0.1708
  187MOL0     C25705   4.801   6.940  10.914 -0.3315  0.1018 -0.2199
  187MOL0     C25706   4.788   7.006  11.058 -0.0892  0.2752 -0.2289
  187MOL0     C25707   4.719   7.138  11.054 -0.0712 -0.4934  0.3185
  187MOL0     C25708   4.573   7.109  11.008  0.0204  0.8963 -0.3238
  187MOL0     C25709   4.494   7.240  11.016  0.0381 -0.3997  0.0522
  187MOL0     C25710   4.546   7.372  10.936 -0.0317  0.5147  0.7981
  187MOL0     C25711   4.585   7.349  10.781  0.3133 -0.7638  0.2996
  187MOL0     C25712   4.460   7.295  10.698 -0.0478  0.2927  0.2910
  187MOL0    Cl25713   4.335   7.422  10.704 -0.2663  0.2435  0.4689
  187MOL0     C25714   4.943   6.847  10.668 -0.2743 -1.5944  0.2602
  187MOL0     C25715   4.920   6.790  10.541 -0.1060 -0.9163 -0.6282
  187MOL0     O25716   4.572   6.799  10.357  0.5284 -0.0297  0.3808
  187MOL0     C25717   4.738   6.768  10.048  0.0563 -0.0731 -0.3458
  187MOL0     C25718   4.722   6.725   9.917  0.4255  0.6890  0.3009
  187MOL0     N25719   4.700   6.473   9.243  0.2296 -0.8443 -0.3154
  187MOL0     N25720   4.822   6.483   9.199 -0.5442  0.1195  0.8055
  187MOL0     C25721   5.834   6.180   8.868  0.0171  1.4543  0.2664
  187MOL0     C25722   5.920   6.286   8.909  0.7086  0.0092 -0.5845
  187MOL0     C25723   6.130   6.654   9.046 -0.0675 -0.3116 -0.5136
  187MOL0     C25724   6.186   6.724   8.934 -0.5222 -0.2444 -0.5599
  187MOL0     C25725   6.256   6.847   8.948 -0.9401  0.3876  0.0387
  187MOL0     C25726   6.283   6.894   9.082  0.3767  0.1538  0.0418
  187MOL0     O25727   6.336   7.012   9.086 -0.3436 -0.4640  0.7496
  187MOL0     C25728   6.375   7.071   9.208 -0.8322 -0.5572 -0.3285
  187MOL0     C25729   6.463   7.189   9.181 -0.9846 -0.0410  0.4494
  187MOL0     C25730   6.610   7.156   9.149 -0.4612 -1.2904  0.1805
  187MOL0     C25731   6.673   7.020   9.201  0.3220  0.6774  0.2562
  187MOL0     C25732   6.789   6.989   9.127  0.4041 -0.2970  0.4608
  187MOL0     C25733   6.885   6.944   9.079  0.3099  0.2324  0.0505
  187MOL0     C25734   6.246   6.812   9.189 -0.3877 -0.4268 -0.0948
  187MOL0     C25735   6.164   6.696   9.180  0.1195  0.5855  0.6388
  187MOL0     C25736   6.117   6.629   9.306 -0.2879 -0.6199  0.1475
  187MOL0     H25737   5.725   6.552   8.827  0.7548  0.5571 -1.6160
  187MOL0     H25738   5.574   6.375   8.786 -0.2815  0.9094 -0.4385
  187MOL0     H25739   5.625   6.009   8.958 -0.9434  0.5344  0.0736
  187MOL0     H25740   5.690   5.943   8.816  0.5974  0.5872 -0.4566
  187MOL0     H25741   5.482   5.892   8.713  0.8862 -1.2587 -0.3937
  187MOL0     H25742   5.503   5.826   8.884 -0.2764 -0.7935 -0.7699
  187MOL0     H25743   5.287   5.894   8.869  0.7663 -1.7116  0.5908
  187MOL0     H25744   5.378   6.011   8.976  1.0710 -0.7231 -0.0749
  187MOL0     H25745   5.360   6.189   8.809  4.0260 -2.7030  0.3864
  187MOL0     H25746   5.278   6.081   8.698 -1.3035  1.1349 -0.5428
  187MOL0     H25747   5.087   6.061   8.860  0.6368  0.3358 -1.3308
  187MOL0     H25748   5.127   6.224   8.791 -1.1308 -1.2512 -2.0671
  187MOL0     H25749   5.213   6.147   9.076  0.1624  0.7807  1.3874
  187MOL0     H25750   5.230   6.301   8.993 -0.9556 -0.0676 -0.8479
  187MOL0     H25751   4.969   6.169   9.049  1.6719 -1.4625 -3.1542
  187MOL0     H25752   4.976   6.311   8.956 -0.7062  0.4167  0.8401
  187MOL0     H25753   5.073   6.275   9.255 -0.8545  0.3363  0.9075
  187MOL0     H25754   5.088   6.418   9.158  0.4136 -1.0055 -2.7687
  187MOL0     H25755   4.824   6.189   9.350  0.9426 -1.1926 -2.2872
  187MOL0     H25756   4.522   6.204   9.329 -0.4011 -0.2074 -3.4685
  187MOL0     H25757   4.478   6.370   9.320  0.7635  1.0531  0.9874
  187MOL0     H25758   4.459   6.276   9.547  0.5255  0.6340 -1.0523
  187MOL0     H25759   4.635   6.248   9.541 -0.6231 -0.6966  1.3958
  187MOL0     H25760   4.669   6.494   9.520 -1.7016  2.1264  0.6469
  187MOL0     H25761   4.502   6.518   9.515 -0.3781 -0.7896 -0.1612
  187MOL0     H25762   4.492   6.419   9.748  2.0073 -1.9677  2.6710
  187MOL0     H25763   4.665   6.389   9.751  1.4328  0.2568 -2.2012
  187MOL0     H25764   4.482   6.490   9.964 -1.1846  1.3855  1.1440
  187MOL0     H25765   4.459   6.440  10.210 -5.0283  0.7039 -0.9978
  187MOL0     H25766   4.391   6.601  10.239 -0.0074  0.4683 -1.3008
  187MOL0     H25767   4.541   6.530  10.318 -1.6043 -0.0831  0.5221
  187MOL0     H25768   4.729   7.043  10.408 -2.3574 -2.9429  0.4331
  187MOL0     H25769   4.748   7.124  10.640 -1.0592 -0.9865 -0.7526
  187MOL0     H25770   4.700   6.930  10.873 -0.1427  2.1865 -1.3379
  187MOL0     H25771   4.841   6.839  10.928  0.3565  0.5823  1.4238
  187MOL0     H25772   4.732   6.942  11.127 -3.9139  2.0263 -1.4227
  187MOL0     H25773   4.887   7.027  11.097  0.4236 -0.2000 -1.2189
  187MOL0     H25774   4.771   7.198  10.979  0.7464  1.0314  2.0234
  187MOL0     H25775   4.717   7.185  11.153 -0.7944  2.5071 -0.9834
  187MOL0     H25776   4.521   7.038  11.074 -0.7304  2.4765  0.8321
  187MOL0     H25777   4.571   7.070  10.906 -2.3968  0.4723 -0.1755
  187MOL0     H25778   4.397   7.217  10.972 -0.5235  0.0318  1.0312
  187MOL0     H25779   4.479   7.257  11.123  0.3670  3.0125 -0.3175
  187MOL0     H25780   4.632   7.415  10.987 -0.2074  2.8514 -0.7139
  187MOL0     H25781   4.466   7.447  10.943 -0.9908 -0.4309  0.1768
  187MOL0     H25782   4.678   7.291  10.778  2.0895  1.9273 -1.9220
  187MOL0     H25783   4.619   7.440  10.732 -1.9822 -0.7268 -1.3523
  187MOL0     H25784   4.424   7.205  10.750  0.9674  1.0389  2.4081
  187MOL0     H25785   4.479   7.267  10.594 -0.7621 -2.9590  0.9314
  187MOL0     H25786   5.009   6.806  10.743  1.4073 -0.8789 -0.7821
  187MOL0     H25787   4.969   6.694  10.523 -0.7621 -1.3873  0.0242
  187MOL0     H25788   4.808   6.847  10.073  1.3132 -0.8381 -1.3687
  187MOL0     H25789   4.791   6.757   9.839  2.2244  1.6201  2.2000
  187MOL0     H25790   5.866   6.076   8.871 -2.8562  0.4908  0.6360
  187MOL0     H25791   6.023   6.268   8.937  0.9062  0.9789 -0.6832
  187MOL0     H25792   6.159   6.703   8.831 -1.1678  1.0666 -0.6684
  187MOL0     H25793   6.286   6.905   8.863  1.0184 -1.8410 -0.8950
  187MOL0     H25794   6.288   7.113   9.260 -0.7825  0.8151 -1.2977
  187MOL0     H25795   6.414   7.002   9.284  0.4659  0.0352 -0.4299
  187MOL0     H25796   6.473   7.243   9.275 -0.5977 -1.9769  1.5932
  187MOL0     H25797   6.417   7.254   9.106 -0.3252 -0.1020 -0.0134
  187MOL0     H25798   6.616   7.158   9.040 -1.3960 -1.2608  0.1194
  187MOL0     H25799   6.662   7.248   9.176 -3.0224  0.9846 -2.0304
  187MOL0     H25800   6.600   6.939   9.194 -1.0243  1.8467  0.4093
  187MOL0     H25801   6.704   7.032   9.305  1.7226  2.2103 -0.2912
  187MOL0     H25802   6.967   6.893   9.033  0.0999 -0.0345 -0.0264
  187MOL0     H25803   6.280   6.839   9.289 -0.8922  0.1820 -0.0776
  187MOL0     H25804   6.184   6.546   9.328  0.1415 -1.0683 -2.4935
  187MOL0     H25805   6.109   6.702   9.388  0.3259 -0.7458  0.3236
  187MOL0     H25806   6.015   6.592   9.295 -0.6120  0.7564 -1.8648
  188MOL0     O25807   7.794   6.208   1.634  0.0404 -0.1682  0.0757
  188MOL0     C25808   7.676   6.208   1.653 -0.2768  0.7119  0.2239
  188MOL0     O25809   7.621   6.188   1.775 -0.1450  0.6638 -0.6023
  188MOL0     C25810   7.695   6.149   1.879  0.3084  0.1859 -0.4243
  188MOL0     C25811   7.728   6.019   1.900 -0.7179  0.0464  0.2381
  188MOL0     C25812   7.811   5.983   2.011  0.6164 -0.5277 -0.2811
  188MOL0     C25813   7.852   6.082   2.107  0.0060  0.2253 -0.3613
  188MOL0     O25814   7.921   6.045   2.221  0.9280 -1.1645  0.2333
  188MOL0     C25815   7.860   6.101   2.343  1.2304 -0.2646 -0.5366
  188MOL0     C25816   7.873   6.004   2.462  0.1380  0.4765 -0.3225
  188MOL0     C25817   8.027   5.974   2.498 -0.2570 -0.1173 -0.4191
  188MOL0     C25818   8.074   5.847   2.415 -0.4546 -0.2804  0.2825
  188MOL0     C25819   8.196   5.787   2.489 -0.4904  0.8164 -0.3410
  188MOL0     C25820   8.322   5.874   2.498  0.4124  0.1497  0.7608
  188MOL0     C25821   8.449   5.789   2.542  0.8377  1.2305  0.0352
  188MOL0     C25822   8.487   5.830   2.689 -0.3426  0.0424 -0.0709
  188MOL0     N25823   8.586   5.730   2.738 -0.0754  0.3596  0.1441
  188MOL0     C25824   8.713   5.760   2.769 -0.4006  0.1711 -0.3936
  188MOL0     C25825   8.756   5.655   2.833 -0.2445  0.1187 -0.0573
  188MOL0     C25826   8.897   5.617   2.873 -0.2217  0.0259  0.4500
  188MOL0     C25827   8.973   5.542   2.766 -0.7211  0.4100  0.0488
  188MOL0     C25828   9.118   5.496   2.791  0.0951  0.1484 -0.2587
  188MOL0     C25829   9.173   5.408   2.680  0.8714  0.1991 -0.1799
  188MOL0     O25830   9.197   5.496   2.564  0.2512  0.1639 -0.2986
  188MOL0     C25831   9.173   5.447   2.435 -1.0130  0.4619  0.3697
  188MOL0     C25832   9.262   5.493   2.338  0.4370 -0.2788  0.3749
  188MOL0     C25833   9.261   5.457   2.192  0.3825 -1.1374 -0.0183
  188MOL0     C25834   9.373   5.519   2.105 -0.4003  0.3246 -0.0051
  188MOL0     C25835   9.145   5.392   2.154 -0.8380 -0.1624 -0.3735
  188MOL0     C25836   9.101   5.363   2.015 -1.4344 -0.2075 -0.3214
  188MOL0     O25837   8.987   5.296   1.992  0.1514  0.1033  0.3328
  188MOL0     C25838   8.946   5.262   1.865 -0.5248 -0.9477  0.6137
  188MOL0     C25839   9.000   5.158   1.795  0.6207 -0.2537 -0.3011
  188MOL0     C25840   8.935   5.126   1.677  0.3700 -0.4394 -0.7573
  188MOL0     C25841   8.825   5.201   1.618 -0.1855  0.5785 -0.6181
  188MOL0     O25842   8.771   5.141   1.511  0.7033  0.0947  0.3706
  188MOL0     C25843   8.713   5.239   1.424  0.4720  0.0936 -0.0993
  188MOL0     C25844   8.678   5.172   1.287  0.1112  0.3790 -0.0421
  188MOL0     C25845   8.666   5.286   1.190 -0.2274  0.2423  0.8142
  188MOL0     C25846   8.570   5.237   1.079 -0.5285  0.1033 -0.0550
  188MOL0     C25847   8.535   5.354   0.989 -0.3006  0.8313 -0.4185
  188MOL0     C25848   8.434   5.311   0.874 -0.6081 -0.0292  0.2667
  188MOL0     C25849   8.345   5.421   0.818 -0.4487 -0.5627  0.9733
  188MOL0     C25850   8.284   5.379   0.686  0.6120 -0.3106 -0.1861
  188MOL0    Cl25851   8.171   5.499   0.630  0.5632 -0.1353 -0.4609
  188MOL0     C25852   8.775   5.305   1.693 -0.5133  0.1505  0.1594
  188MOL0     C25853   8.836   5.337   1.816 -0.6760  0.0347  1.0679
  188MOL0     O25854   9.182   5.389   1.931 -0.1814  0.8935  0.4969
  188MOL0     C25855   9.057   5.343   2.256 -0.5376 -0.0115  0.2661
  188MOL0     C25856   9.072   5.367   2.395 -0.2940 -0.0098  0.1702
  188MOL0     N25857   8.653   5.555   2.840 -0.5817 -0.0828 -0.6670
  188MOL0     N25858   8.553   5.599   2.781 -0.2438  0.6713 -0.3423
  188MOL0     C25859   7.816   6.220   2.091 -0.1462  0.9543 -1.2718
  188MOL0     C25860   7.740   6.250   1.974  0.3406 -0.3390  0.3872
  188MOL0     C25861   7.590   6.239   1.532  0.0505 -0.2179 -0.5408
  188MOL0     C25862   7.446   6.209   1.544 -0.1983  0.1043 -0.0622
  188MOL0     C25863   7.359   6.239   1.441  0.7183 -0.1283  0.7171
  188MOL0     C25864   7.403   6.306   1.324 -0.0691 -0.4537 -0.9813
  188MOL0     O25865   7.303   6.320   1.232 -0.0798 -0.7451 -0.0239
  188MOL0     C25866   7.348   6.351   1.098 -0.7912  0.5367 -0.1208
  188MOL0     C25867   7.225   6.340   1.004  0.7677  0.0250  0.1937
  188MOL0     C25868   7.259   6.357   0.855 -0.5264 -0.1532  0.4901
  188MOL0     C25869   7.359   6.258   0.798  0.3653 -0.1393  0.1159
  188MOL0     C25870   7.499   6.301   0.814 -0.7709  0.6782 -0.8921
  188MOL0     C25871   7.613   6.332   0.841  0.3966  0.3096  0.1641
  188MOL0     C25872   7.539   6.349   1.312 -0.0967  0.1525  0.7182
  188MOL0     C25873   7.626   6.304   1.414  0.6305  1.0028  1.4086
  188MOL0     C25874   7.766   6.340   1.386  0.3076 -0.6492  0.5290
  188MOL0     H25875   7.681   5.939   1.844  2.4994 -3.9503  2.6496
  188MOL0     H25876   7.830   5.877   2.029 -2.8654 -1.1740  0.4211
  188MOL0     H25877   7.752   6.110   2.329  0.7007  1.5606  3.4701
  188MOL0     H25878   7.904   6.200   2.363 -0.8154  0.1038  2.8186
  188MOL0     H25879   7.831   6.061   2.545 -0.3837 -2.1116  1.3125
  188MOL0     H25880   7.818   5.911   2.440  1.5805  0.0787 -2.6343
  188MOL0     H25881   8.081   6.065   2.469 -1.0704  0.1045 -1.2704
  188MOL0     H25882   8.032   5.942   2.603  0.7849 -0.5579 -0.5903
  188MOL0     H25883   7.997   5.771   2.432 -0.6526 -0.3469 -0.8782
  188MOL0     H25884   8.096   5.860   2.309 -1.0621 -1.8385 -0.0654
  188MOL0     H25885   8.208   5.695   2.430  0.4658 -1.3402  2.9443
  188MOL0     H25886   8.178   5.753   2.591 -0.4170 -0.5932 -0.7765
  188MOL0     H25887   8.341   5.899   2.393 -0.8770  1.0782  0.7311
  188MOL0     H25888   8.306   5.969   2.550 -1.0216  0.2337  0.2091
  188MOL0     H25889   8.533   5.816   2.477  0.2405  2.6518 -0.1663
  188MOL0     H25890   8.436   5.681   2.530 -0.6852  1.3550  0.3638
  188MOL0     H25891   8.531   5.931   2.693  1.3567 -0.6739  0.2000
  188MOL0     H25892   8.391   5.828   2.741 -2.2123  1.1405 -3.2509
  188MOL0     H25893   8.765   5.850   2.737 -0.6189  0.6000  0.4179
  188MOL0     H25894   8.880   5.560   2.964 -1.0770 -2.3867 -1.1151
  188MOL0     H25895   8.946   5.712   2.896  1.3850 -1.3488  3.1053
  188MOL0     H25896   8.914   5.450   2.758 -0.9308  0.4448  1.0971
  188MOL0     H25897   8.959   5.595   2.672 -0.7392  2.1745  1.0141
  188MOL0     H25898   9.182   5.583   2.809  0.0309 -0.0691  1.1381
  188MOL0     H25899   9.114   5.441   2.886 -1.4300 -2.2490 -1.6117
  188MOL0     H25900   9.267   5.363   2.712  0.5419 -0.0141  0.5078
  188MOL0     H25901   9.107   5.324   2.655 -0.0361  1.3311 -1.7843
  188MOL0     H25902   9.342   5.556   2.376  2.4105 -1.1652 -2.0187
  188MOL0     H25903   9.464   5.539   2.163 -0.7798  0.2189  0.6313
  188MOL0     H25904   9.340   5.594   2.033  3.6653  0.7271 -1.7324
  188MOL0     H25905   9.405   5.432   2.047 -0.7639  0.6984 -0.7837
  188MOL0     H25906   9.085   5.113   1.846 -1.3784  0.4501  4.0989
  188MOL0     H25907   8.961   5.034   1.627 -1.5595 -0.9036 -0.9951
  188MOL0     H25908   8.617   5.279   1.457 -0.4534  0.7179 -3.1584
  188MOL0     H25909   8.772   5.327   1.397 -0.6469  0.5498 -1.1945
  188MOL0     H25910   8.761   5.111   1.251 -0.6640 -0.1009 -1.0165
  188MOL0     H25911   8.585   5.116   1.287  0.1607  0.2367 -1.9124
  188MOL0     H25912   8.758   5.313   1.136 -1.7365 -0.5322 -2.3279
  188MOL0     H25913   8.625   5.375   1.239 -1.2048  0.2962 -0.0614
  188MOL0     H25914   8.477   5.202   1.125 -0.7778  0.9335  0.0859
  188MOL0     H25915   8.626   5.163   1.021 -1.1693 -0.3791 -0.0603
  188MOL0     H25916   8.487   5.436   1.043 -2.2376 -1.4442  1.5717
  188MOL0     H25917   8.629   5.381   0.940 -0.8554  0.1560 -1.9384
  188MOL0     H25918   8.372   5.225   0.899 -0.3598 -1.4566 -3.3812
  188MOL0     H25919   8.480   5.276   0.782 -1.8373 -0.5381 -0.1778
  188MOL0     H25920   8.395   5.519   0.813 -1.2124 -0.2201 -0.8339
  188MOL0     H25921   8.262   5.444   0.884 -0.6763  1.0974  0.1637
  188MOL0     H25922   8.231   5.285   0.700  3.2402 -2.0677 -1.3521
  188MOL0     H25923   8.366   5.372   0.614  2.5165  3.6421  1.2914
  188MOL0     H25924   8.693   5.364   1.654  0.2764  0.9610 -0.3190
  188MOL0     H25925   8.807   5.427   1.870  2.4991  2.2632 -0.6436
  188MOL0     H25926   8.958   5.304   2.234 -0.6514  1.0120 -1.1723
  188MOL0     H25927   9.005   5.334   2.474 -2.6674  3.9821  0.1287
  188MOL0     H25928   7.853   6.302   2.152  1.6239 -2.3198  2.4904
  188MOL0     H25929   7.717   6.353   1.949 -1.4439 -0.8743 -0.3317
  188MOL0     H25930   7.411   6.171   1.639  0.1091  1.4384  0.6221
  188MOL0     H25931   7.264   6.190   1.457  0.6891 -1.5531 -2.9674
  188MOL0     H25932   7.395   6.449   1.085  0.1249  0.0499 -0.4915
  188MOL0     H25933   7.426   6.283   1.065  1.3105  4.1123 -3.2165
  188MOL0     H25934   7.162   6.426   1.028 -1.3070 -1.6253  0.9813
  188MOL0     H25935   7.179   6.244   1.027 -0.3785  0.2285 -1.1756
  188MOL0     H25936   7.166   6.341   0.800 -0.1381  5.1526 -2.2990
  188MOL0     H25937   7.285   6.459   0.826  0.0323 -0.6070 -0.6508
  188MOL0     H25938   7.338   6.258   0.690 -0.9933  0.7848  0.3655
  188MOL0     H25939   7.339   6.153   0.824  0.5102  0.0950  1.1977
  188MOL0     H25940   7.713   6.358   0.870  0.7665 -1.0327  0.1866
  188MOL0     H25941   7.578   6.405   1.227 -2.0171 -1.3246 -1.2459
  188MOL0     H25942   7.787   6.375   1.285 -1.1684 -0.0574  0.4042
  188MOL0     H25943   7.806   6.417   1.452 -1.2816  1.4389 -0.8489
  188MOL0     H25944   7.822   6.247   1.406 -2.5534 -2.3425  1.1918
  189MOL0     O25945   1.169   2.834  11.079  0.3996 -0.0528 -0.1657
  189MOL0     C25946   1.197   2.715  11.067  0.2831 -0.9985  0.4088
  189MOL0     O25947   1.173   2.620  11.157  0.4006 -0.2215  0.4568
  189MOL0     C25948   1.178   2.647  11.282 -0.1277 -0.1447  0.3590
  189MOL0     C25949   1.083   2.728  11.350 -0.5113 -0.5814  0.8210
  189MOL0     C25950   1.093   2.744  11.487  1.2917 -0.4628  0.1713
  189MOL0     C25951   1.192   2.682  11.559 -0.0687 -1.0569 -0.5335
  189MOL0     O25952   1.217   2.689  11.691 -0.1758 -0.0220  0.4335
  189MOL0     C25953   1.187   2.818  11.751 -0.3933 -0.3346  1.0343
  189MOL0     C25954   1.291   2.838  11.876  0.1986 -0.1826 -0.4610
  189MOL0     C25955   1.281   2.724  11.981 -0.4784  0.1194  0.5475
  189MOL0     C25956   1.355   2.761  12.103  0.5736 -0.4725 -1.5144
  189MOL0     C25957   1.345   2.650  12.216  0.3407 -0.2919  0.3261
  189MOL0     C25958   1.400   2.508  12.175 -0.2643 -0.7886 -0.8096
  189MOL0     C25959   1.476   2.437  12.286  0.7412  0.7717 -0.0929
  189MOL0     C25960   1.624   2.476  12.270  0.5093  0.8379  0.0582
  189MOL0     N25961   1.722   2.372  12.207  0.3321 -0.9836 -0.4910
  189MOL0     C25962   1.818   2.290  12.261  0.0650 -0.0845  0.3970
  189MOL0     C25963   1.871   2.221  12.159  0.2027 -0.4124 -0.1006
  189MOL0     C25964   1.998   2.143  12.178 -0.2789 -0.7438  0.3003
  189MOL0     C25965   1.971   1.995  12.169  0.0095 -0.1490  0.5927
  189MOL0     C25966   2.095   1.909  12.169 -0.8355 -0.1456  0.2078
  189MOL0     C25967   2.167   1.914  12.302 -0.7084  0.1869 -0.1957
  189MOL0     O25968   2.088   1.859  12.417 -0.0399  0.0968  0.3008
  189MOL0     C25969   2.137   1.869  12.544  0.2734 -0.0480  0.2767
  189MOL0     C25970   2.073   1.787  12.630  0.1318 -0.9362 -0.1083
  189MOL0     C25971   2.113   1.765  12.768  0.1463 -0.4693 -0.0548
  189MOL0     C25972   2.028   1.662  12.837  0.7591  1.4800  0.7541
  189MOL0     C25973   2.231   1.827  12.819  0.9236  0.1075  0.1934
  189MOL0     C25974   2.297   1.794  12.953 -0.5936 -0.2194 -0.1876
  189MOL0     O25975   2.425   1.827  12.972 -0.1703 -0.3899  0.2235
  189MOL0     C25976   2.482   1.834  13.099 -0.0492 -1.2040 -0.4545
  189MOL0     C25977   2.617   1.801  13.109 -0.0439 -0.4364  0.3360
  189MOL0     C25978   2.672   1.789  13.240 -0.8503 -0.6889  0.4424
  189MOL0     C25979   2.608   1.821  13.358 -1.0526  0.4101 -0.3773
  189MOL0     O25980   2.681   1.806  13.466  0.0174  0.5940 -0.7373
  189MOL0     C25981   2.648   1.684  13.541 -0.1611 -0.3363 -0.0894
  189MOL0     C25982   2.735   1.642  13.661 -0.6384  0.0505  0.0321
  189MOL0     C25983   2.890   1.623  13.636  1.0312  0.0084  0.1305
  189MOL0     C25984   2.974   1.602  13.769  0.0615  0.4231  0.2239
  189MOL0     C25985   3.095   1.523  13.760  0.3195  0.4868 -0.4098
  189MOL0     C25986   3.174   1.505  13.888 -0.1894 -0.3049 -0.3911
  189MOL0     C25987   3.293   1.401  13.890 -0.2066  0.0984  0.2673
  189MOL0     C25988   3.416   1.460  13.965 -0.2447 -0.4103  0.2296
  189MOL0    Cl25989   3.378   1.541  14.122 -0.2847  0.3819  0.6648
  189MOL0     C25990   2.491   1.895  13.350 -0.2916  0.2777  0.0852
  189MOL0     C25991   2.425   1.891  13.217 -0.3741 -0.2350 -0.3296
  189MOL0     O25992   2.221   1.754  13.042 -0.5438  0.2972  0.0031
  189MOL0     C25993   2.286   1.916  12.727  0.4571 -0.2571 -0.8612
  189MOL0     C25994   2.237   1.944  12.601 -0.6233 -0.0153 -0.1319
  189MOL0     N25995   1.800   2.254  12.044 -0.4617 -0.2309  0.4606
  189MOL0     N25996   1.715   2.347  12.081  0.2629 -0.0946  0.3833
  189MOL0     C25997   1.276   2.594  11.492  0.8067 -0.5372 -0.0868
  189MOL0     C25998   1.276   2.581  11.356 -0.7957  0.6585  0.3232
  189MOL0     C25999   1.274   2.669  10.942 -0.2066  0.3233  0.3904
  189MOL0     C26000   1.367   2.556  10.946  0.1422 -1.0344  0.1776
  189MOL0     C26001   1.442   2.511  10.838 -1.0436 -0.5156 -1.1046
  189MOL0     C26002   1.427   2.582  10.720 -0.5356 -0.4992  0.1824
  189MOL0     O26003   1.504   2.527  10.614  0.4837 -0.6030 -0.0811
  189MOL0     C26004   1.596   2.626  10.572 -0.2755 -0.1350  0.5399
  189MOL0     C26005   1.718   2.551  10.534  0.2933 -0.1820  0.4025
  189MOL0     C26006   1.691   2.431  10.445 -0.5681  0.2015 -0.4335
  189MOL0     C26007   1.693   2.286  10.511 -0.4923 -0.8135 -0.0675
  189MOL0     C26008   1.828   2.235  10.535  0.2548 -0.4894 -0.2406
  189MOL0     C26009   1.937   2.177  10.536 -0.2281 -0.1678 -0.7562
  189MOL0     C26010   1.334   2.688  10.709  0.1105 -0.0114 -0.6939
  189MOL0     C26011   1.257   2.726  10.817  0.4298 -1.1334 -0.4832
  189MOL0     C26012   1.143   2.830  10.791  0.4864  0.2748 -0.0585
  189MOL0     H26013   1.002   2.775  11.294 -0.4330 -2.8221 -1.3753
  189MOL0     H26014   1.016   2.794  11.545  1.6241 -0.4764  0.6297
  189MOL0     H26015   1.086   2.825  11.791 -0.8416 -0.8216  0.0123
  189MOL0     H26016   1.204   2.907  11.689  0.1329  1.4475  3.5417
  189MOL0     H26017   1.392   2.837  11.833  1.9749 -0.9225  3.2816
  189MOL0     H26018   1.273   2.936  11.921  1.7768  1.4261 -3.0822
  189MOL0     H26019   1.181   2.690  12.009 -0.0443 -0.9761  0.7973
  189MOL0     H26020   1.318   2.634  11.932  1.0308  0.3922  1.1592
  189MOL0     H26021   1.460   2.785  12.085  1.0015 -2.1470 -1.4527
  189MOL0     H26022   1.306   2.849  12.146 -3.5609 -2.9951 -0.4781
  189MOL0     H26023   1.241   2.642  12.249 -1.2090  2.6993 -3.1151
  189MOL0     H26024   1.397   2.684  12.306 -1.3617  2.7737  0.2824
  189MOL0     H26025   1.308   2.454  12.154 -2.1164  1.4588  1.0252
  189MOL0     H26026   1.457   2.511  12.081 -0.4346  0.6198 -0.8817
  189MOL0     H26027   1.464   2.330  12.265 -1.4593  0.2032  3.3688
  189MOL0     H26028   1.436   2.463  12.384 -0.9827 -2.0807  0.0821
  189MOL0     H26029   1.635   2.573  12.220 -3.6041  0.9313 -1.0545
  189MOL0     H26030   1.661   2.485  12.373  0.8028 -0.7401  0.1139
  189MOL0     H26031   1.853   2.294  12.364  0.2901 -0.4928  0.3390
  189MOL0     H26032   2.039   2.165  12.277 -1.7443  0.8618  0.6107
  189MOL0     H26033   2.067   2.172  12.099 -0.9133  1.5749  0.5374
  189MOL0     H26034   1.915   1.961  12.257 -0.3588 -2.1292 -0.3476
  189MOL0     H26035   1.919   1.970  12.076  3.2176 -0.5328 -1.2201
  189MOL0     H26036   2.068   1.804  12.151  0.1101 -0.3945  0.1758
  189MOL0     H26037   2.160   1.947  12.090 -1.0067 -2.4177 -1.1277
  189MOL0     H26038   2.252   1.845  12.297 -1.8434 -1.4055  1.1188
  189MOL0     H26039   2.207   2.015  12.313  1.2990 -0.7032  1.4934
  189MOL0     H26040   1.993   1.724  12.593 -3.0690  1.4947  2.1554
  189MOL0     H26041   1.952   1.710  12.900 -1.4395 -0.7747 -0.0063
  189MOL0     H26042   2.083   1.585  12.892  1.6765 -0.3663 -2.5059
  189MOL0     H26043   1.983   1.604  12.757 -2.3644  0.4735  3.0349
  189MOL0     H26044   2.669   1.767  13.020 -2.9702 -5.7071  0.1654
  189MOL0     H26045   2.773   1.751  13.255 -0.6506  0.2115  1.5446
  189MOL0     H26046   2.544   1.698  13.572 -0.1266 -1.3758  0.5475
  189MOL0     H26047   2.641   1.597  13.474 -3.0877 -2.6925  2.8994
  189MOL0     H26048   2.723   1.714  13.742  0.6415 -0.8148  1.0304
  189MOL0     H26049   2.687   1.548  13.691 -2.8959  0.0754 -3.1023
  189MOL0     H26050   2.927   1.701  13.570 -0.0640 -0.2305 -0.8021
  189MOL0     H26051   2.899   1.525  13.589  3.9227 -0.6831  1.8474
  189MOL0     H26052   2.914   1.557  13.848  1.5281  1.5783  2.0739
  189MOL0     H26053   2.992   1.705  13.798  3.0811  0.1576 -0.3608
  189MOL0     H26054   3.048   1.428  13.732 -0.3567  1.1451 -1.6347
  189MOL0     H26055   3.164   1.561  13.684 -0.9363 -0.1391 -1.9461
  189MOL0     H26056   3.105   1.465  13.963 -1.0649  0.7074 -0.6383
  189MOL0     H26057   3.202   1.607  13.918 -0.0253 -0.0089 -1.5163
  189MOL0     H26058   3.318   1.378  13.786  0.2462  2.0547 -0.1061
  189MOL0     H26059   3.260   1.308  13.937 -0.3051 -0.5712 -1.0818
  189MOL0     H26060   3.457   1.541  13.904 -0.3879  2.4758  3.6161
  189MOL0     H26061   3.486   1.377  13.976 -0.1189 -0.3394 -0.0484
  189MOL0     H26062   2.448   1.936  13.440 -0.6200 -0.4242  0.2533
  189MOL0     H26063   2.329   1.942  13.211 -0.9532 -1.0418  1.3198
  189MOL0     H26064   2.381   1.961  12.756 -0.4798  1.1396  0.1700
  189MOL0     H26065   2.282   2.014  12.531 -1.2192 -0.4527 -0.9780
  189MOL0     H26066   1.354   2.541  11.546  2.1166  2.0566  0.7107
  189MOL0     H26067   1.357   2.526  11.308  1.1042 -0.9336  4.7568
  189MOL0     H26068   1.372   2.503  11.041  2.7451  0.2681  0.8560
  189MOL0     H26069   1.505   2.423  10.848  1.4570  1.2551 -0.3298
  189MOL0     H26070   1.555   2.678  10.485  1.6415 -2.9791 -2.2927
  189MOL0     H26071   1.615   2.708  10.641  0.3203  1.2080 -1.1586
  189MOL0     H26072   1.773   2.532  10.626  0.5327 -2.6287 -0.1759
  189MOL0     H26073   1.781   2.620  10.476 -2.0881 -0.4328 -2.7492
  189MOL0     H26074   1.598   2.452  10.391  0.5557  1.3830 -2.0316
  189MOL0     H26075   1.770   2.425  10.368 -1.1118  2.7193 -1.3010
  189MOL0     H26076   1.634   2.222  10.446 -0.6551  0.9095 -1.7211
  189MOL0     H26077   1.633   2.298  10.602  1.2176  0.8865  0.9176
  189MOL0     H26078   2.036   2.138  10.523 -1.2300 -2.4323 -2.2729
  189MOL0     H26079   1.307   2.732  10.614 -3.3557 -1.6384 -0.5913
  189MOL0     H26080   1.050   2.795  10.836 -0.1899  2.2033  0.1245
  189MOL0     H26081   1.164   2.931  10.828  1.9844 -0.4825  1.2850
  189MOL0     H26082   1.114   2.846  10.686 -2.6728  1.1174  0.8457
  190MOL0     O26083   5.429   4.505   6.661  0.6496 -0.1898 -0.2859
  190MOL0     C26084   5.362   4.597   6.697  1.4912  0.3101  0.0834
  190MOL0     O26085   5.226   4.606   6.694  1.1695  0.1370 -0.2381
  190MOL0     C26086   5.146   4.500   6.664 -0.6495 -1.0522 -0.7212
  190MOL0     C26087   5.019   4.542   6.649  0.4972 -0.1414 -0.2285
  190MOL0     C26088   4.917   4.445   6.621  0.0929  0.4281  0.4682
  190MOL0     C26089   4.946   4.312   6.624 -0.2628  0.0382  0.0792
  190MOL0     O26090   4.848   4.225   6.625  1.0134  0.0916  0.0611
  190MOL0     C26091   4.850   4.120   6.523 -0.6146  0.7305 -0.3679
  190MOL0     C26092   4.720   4.131   6.439  0.1176  0.0951  0.2935
  190MOL0     C26093   4.718   4.263   6.371  0.2971 -0.3500 -0.0662
  190MOL0     C26094   4.800   4.258   6.246 -0.0925  0.1408  0.4764
  190MOL0     C26095   4.832   4.393   6.179 -0.5146 -0.2348 -0.2976
  190MOL0     C26096   4.709   4.481   6.154  0.9201 -0.3133  0.3951
  190MOL0     C26097   4.743   4.607   6.070 -0.2824  0.0700 -0.6134
  190MOL0     C26098   4.618   4.680   6.049  0.4827  0.3219 -1.0001
  190MOL0     N26099   4.621   4.816   5.999  0.0480 -1.3081 -0.1149
  190MOL0     C26100   4.709   4.858   5.906 -0.1090 -0.5452 -0.2319
  190MOL0     C26101   4.707   4.994   5.910  0.2361 -1.1302 -0.3729
  190MOL0     C26102   4.796   5.099   5.848  0.4261  0.3402  0.6249
  190MOL0     C26103   4.899   5.160   5.943 -0.1949 -0.2046  0.1843
  190MOL0     C26104   4.999   5.060   6.007 -0.1662 -0.7077 -0.4108
  190MOL0     C26105   5.122   5.041   5.917 -0.1825  0.8086 -0.3517
  190MOL0     O26106   5.088   5.025   5.780 -0.3362  0.0479  0.3870
  190MOL0     C26107   5.178   4.936   5.719  0.1238 -0.1831  0.9197
  190MOL0     C26108   5.320   4.953   5.733  0.8850 -0.2622  0.0932
  190MOL0     C26109   5.416   4.864   5.677  0.5305  0.4546  0.4886
  190MOL0     C26110   5.556   4.874   5.705  0.3606  0.1840 -0.7335
  190MOL0     C26111   5.366   4.761   5.592 -0.4951  0.6484 -0.3131
  190MOL0     C26112   5.444   4.655   5.518 -0.3257 -0.2348  0.2960
  190MOL0     O26113   5.379   4.582   5.422  0.6298 -0.2298  0.2659
  190MOL0     C26114   5.426   4.460   5.386 -0.4974 -0.0140  0.0440
  190MOL0     C26115   5.408   4.425   5.252 -0.7337  0.5483 -0.3016
  190MOL0     C26116   5.451   4.297   5.200  0.3424  0.5815 -0.5173
  190MOL0     C26117   5.496   4.202   5.289  0.5804 -0.4278  0.3324
  190MOL0     O26118   5.531   4.076   5.245  0.7849 -0.2897  0.7878
  190MOL0     C26119   5.445   3.971   5.284  0.1577 -0.6874  0.6345
  190MOL0     C26120   5.503   3.896   5.403  0.4597 -0.6581 -0.2929
  190MOL0     C26121   5.448   3.765   5.437 -0.0794  1.1740  0.5611
  190MOL0     C26122   5.520   3.679   5.540 -0.1935  1.2604 -0.3147
  190MOL0     C26123   5.441   3.545   5.575  0.4435  0.5667  0.2012
  190MOL0     C26124   5.434   3.437   5.470 -0.0582  0.8073  0.2024
  190MOL0     C26125   5.389   3.298   5.519  0.8389  0.1266  0.5243
  190MOL0     C26126   5.384   3.186   5.412 -0.2211  0.8293 -0.0018
  190MOL0    Cl26127   5.265   3.224   5.287  0.0502  0.1030 -0.2374
  190MOL0     C26128   5.513   4.244   5.425  0.1929 -0.2595 -1.0723
  190MOL0     C26129   5.469   4.365   5.472 -0.4722 -0.5800 -0.2385
  190MOL0     O26130   5.560   4.649   5.543 -0.6152  0.5119  0.1587
  190MOL0     C26131   5.227   4.757   5.568  0.4926 -0.0407 -0.2937
  190MOL0     C26132   5.141   4.847   5.635  0.4348  0.0422 -0.0509
  190MOL0     N26133   4.607   5.029   5.997  0.3800  0.4671 -0.2965
  190MOL0     N26134   4.561   4.920   6.058 -0.0835 -0.3059  0.0366
  190MOL0     C26135   5.076   4.277   6.642  0.1496  0.5692 -0.3432
  190MOL0     C26136   5.178   4.364   6.667  0.0874 -0.3824  0.2367
  190MOL0     C26137   5.438   4.714   6.742  0.8663  0.4429  0.3109
  190MOL0     C26138   5.365   4.829   6.784 -1.0769 -0.5120  0.6561
  190MOL0     C26139   5.425   4.943   6.832  0.2465  0.7201  0.0491
  190MOL0     C26140   5.564   4.956   6.832  0.9176 -0.2632  0.8630
  190MOL0     O26141   5.612   5.069   6.898  0.0842 -0.6193 -0.4155
  190MOL0     C26142   5.693   5.036   7.013 -0.4183  0.0603  0.3399
  190MOL0     C26143   5.598   5.031   7.135 -0.0326  0.0061  0.8107
  190MOL0     C26144   5.684   4.976   7.251  0.0375  0.2740  1.2285
  190MOL0     C26145   5.651   4.824   7.283 -0.0130 -0.9066  0.8811
  190MOL0     C26146   5.706   4.724   7.187  0.8916  0.4317 -0.2779
  190MOL0     C26147   5.757   4.657   7.099 -0.4034 -0.2277 -0.4549
  190MOL0     C26148   5.642   4.845   6.797  0.1922 -0.3932 -0.0026
  190MOL0     C26149   5.582   4.724   6.750  0.0240 -0.3568 -0.0820
  190MOL0     C26150   5.680   4.610   6.720  0.3623  0.6061  0.3650
  190MOL0     H26151   4.990   4.647   6.646 -0.3312 -0.3723 -0.5242
  190MOL0     H26152   4.816   4.480   6.601 -0.0247 -0.3460 -0.3147
  190MOL0     H26153   4.858   4.021   6.568  0.1568 -0.7192 -3.4128
  190MOL0     H26154   4.940   4.123   6.460  0.7859  3.3787  1.5416
  190MOL0     H26155   4.711   4.052   6.364  0.3878 -0.5237  0.9056
  190MOL0     H26156   4.631   4.126   6.503 -1.8492  3.9647 -1.7404
  190MOL0     H26157   4.615   4.291   6.347  0.6385  0.7057 -0.3737
  190MOL0     H26158   4.748   4.343   6.440 -3.1897  0.5002  0.6789
  190MOL0     H26159   4.897   4.211   6.267 -0.2272  0.6106  2.3354
  190MOL0     H26160   4.738   4.195   6.181 -2.3374  1.0346  1.6237
  190MOL0     H26161   4.893   4.368   6.092  2.3482  1.3980  1.1110
  190MOL0     H26162   4.906   4.439   6.244  1.6853 -1.6014 -1.7071
  190MOL0     H26163   4.638   4.424   6.093  1.4185 -1.9992  1.3211
  190MOL0     H26164   4.655   4.500   6.248 -0.7983  0.4790 -0.6971
  190MOL0     H26165   4.800   4.581   5.980  2.4936  3.5631 -0.1037
  190MOL0     H26166   4.800   4.673   6.135 -0.7348 -0.7390  0.6480
  190MOL0     H26167   4.560   4.614   5.984 -0.6614 -0.0767  0.3840
  190MOL0     H26168   4.569   4.677   6.146 -1.6746 -1.5226 -2.0647
  190MOL0     H26169   4.771   4.795   5.842 -0.9498 -2.4261  0.7384
  190MOL0     H26170   4.726   5.175   5.811  0.5743  0.0115 -0.3664
  190MOL0     H26171   4.848   5.074   5.755 -0.7914  3.2348 -0.9524
  190MOL0     H26172   4.949   5.248   5.902 -3.4894  2.6580  1.8077
  190MOL0     H26173   4.842   5.205   6.025 -0.7002  1.9570 -1.2897
  190MOL0     H26174   5.029   5.099   6.105  1.9679  1.1555 -1.6910
  190MOL0     H26175   4.951   4.964   6.025  1.0355 -0.7045  3.7863
  190MOL0     H26176   5.195   5.122   5.922  0.3865  0.3818 -1.5307
  190MOL0     H26177   5.171   4.951   5.953 -0.4900  1.4775  1.8610
  190MOL0     H26178   5.359   5.041   5.783 -0.2692 -0.0534  0.6568
  190MOL0     H26179   5.626   4.882   5.621  1.6485  2.2861  0.4331
  190MOL0     H26180   5.578   4.787   5.768 -2.1259  1.7982  2.7187
  190MOL0     H26181   5.573   4.955   5.776  0.5223 -2.0201  1.9333
  190MOL0     H26182   5.392   4.507   5.182  1.8597  2.0544  0.7319
  190MOL0     H26183   5.440   4.281   5.094 -0.1269 -0.3363 -0.3383
  190MOL0     H26184   5.346   4.009   5.312 -0.2540 -0.8936 -0.4676
  190MOL0     H26185   5.426   3.890   5.213 -3.5503  0.2075  0.3851
  190MOL0     H26186   5.611   3.889   5.387  0.1879 -1.2788 -2.1689
  190MOL0     H26187   5.478   3.961   5.487 -2.8450 -0.7046 -1.0874
  190MOL0     H26188   5.464   3.701   5.349  0.1158 -0.2225  1.5830
  190MOL0     H26189   5.339   3.770   5.448  0.1020  0.9725  2.7200
  190MOL0     H26190   5.540   3.738   5.630 -0.0378  1.8775 -0.7434
  190MOL0     H26191   5.619   3.645   5.507 -1.3735 -0.0892 -2.7813
  190MOL0     H26192   5.507   3.509   5.656  2.1555 -0.4916 -1.5747
  190MOL0     H26193   5.341   3.570   5.611  0.5739  2.2202 -0.5049
  190MOL0     H26194   5.539   3.429   5.441  0.2673  1.5297  1.1220
  190MOL0     H26195   5.364   3.462   5.389 -2.0319 -4.6826 -0.2244
  190MOL0     H26196   5.295   3.333   5.562  1.0742  1.3242  0.0906
  190MOL0     H26197   5.454   3.274   5.604 -0.9801 -1.2724  1.5958
  190MOL0     H26198   5.345   3.097   5.461 -1.4047 -0.2506 -2.7660
  190MOL0     H26199   5.482   3.172   5.366 -2.1624 -2.9863 -3.5186
  190MOL0     H26200   5.540   4.180   5.509 -0.6496  0.8699  0.1010
  190MOL0     H26201   5.472   4.380   5.579 -1.8287  0.3503 -0.3135
  190MOL0     H26202   5.180   4.676   5.513 -0.6572  0.0118  0.5933
  190MOL0     H26203   5.036   4.829   5.620  0.1406  1.2760  0.3934
  190MOL0     H26204   5.109   4.174   6.653 -0.2043  0.6688  2.2419
  190MOL0     H26205   5.274   4.313   6.677  0.1032 -0.2697  0.6797
  190MOL0     H26206   5.257   4.825   6.790 -1.0825 -1.9480  0.0895
  190MOL0     H26207   5.364   5.023   6.873 -0.3578  0.4959 -0.3944
  190MOL0     H26208   5.756   4.947   7.008 -0.1954  0.2160  0.3621
  190MOL0     H26209   5.767   5.114   7.032 -0.0937 -0.3176  0.6205
  190MOL0     H26210   5.521   4.960   7.103  1.7441 -0.5464 -2.7219
  190MOL0     H26211   5.557   5.129   7.158  0.8879 -0.2128  4.0261
  190MOL0     H26212   5.793   4.976   7.242  0.0478 -0.8797  1.1184
  190MOL0     H26213   5.662   5.042   7.336  0.3201  1.9482  0.0405
  190MOL0     H26214   5.544   4.821   7.305 -0.4204 -0.6606 -0.9149
  190MOL0     H26215   5.709   4.810   7.375  2.3850  3.4276  0.3046
  190MOL0     H26216   5.808   4.613   7.016  2.0955  4.7183 -1.9738
  190MOL0     H26217   5.749   4.851   6.813  0.0027  1.9046  0.8843
  190MOL0     H26218   5.695   4.601   6.612 -0.6458 -3.5644  0.3703
  190MOL0     H26219   5.783   4.622   6.752  1.1571 -0.9822 -1.4021
  190MOL0     H26220   5.652   4.512   6.760  1.8160 -0.6254 -1.4601
  191MOL0     O26221   3.989   3.284   3.603 -0.1255 -0.2873 -0.8104
  191MOL0     C26222   4.107   3.311   3.595 -0.3161 -0.5363 -0.6470
  191MOL0     O26223   4.207   3.250   3.529 -0.0906  0.0138 -0.5477
  191MOL0     C26224   4.168   3.135   3.471  0.5072  0.5507  0.4716
  191MOL0     C26225   4.063   3.144   3.370 -0.2345  0.7763  0.2467
  191MOL0     C26226   4.012   3.032   3.307  0.7224  0.2952  0.0365
  191MOL0     C26227   4.056   2.905   3.342 -0.2969 -0.0957  0.5410
  191MOL0     O26228   4.008   2.785   3.281  0.0679  0.1602 -0.6676
  191MOL0     C26229   3.889   2.770   3.210  0.6816  0.6313  0.8144
  191MOL0     C26230   3.887   2.650   3.121 -0.0985  0.7489 -0.3447
  191MOL0     C26231   3.991   2.653   2.994  0.0625 -0.1226  0.5373
  191MOL0     C26232   4.019   2.514   2.928 -0.8386 -0.4451  0.0902
  191MOL0     C26233   4.104   2.528   2.802 -0.0184 -0.2425  0.7739
  191MOL0     C26234   4.253   2.517   2.832  0.0397  0.4060 -0.2668
  191MOL0     C26235   4.300   2.376   2.813  0.7173  0.0754 -0.9247
  191MOL0     C26236   4.446   2.375   2.853 -0.2084  0.4587  0.4957
  191MOL0     N26237   4.539   2.423   2.748  0.9740 -0.3003 -0.4689
  191MOL0     C26238   4.573   2.558   2.720 -0.3724  1.0301 -0.0960
  191MOL0     C26239   4.694   2.542   2.654  0.5146  0.3093 -0.4375
  191MOL0     C26240   4.767   2.665   2.614 -0.5530 -0.8271  0.4548
  191MOL0     C26241   4.831   2.742   2.732  1.5579  0.4530  0.3254
  191MOL0     C26242   4.929   2.853   2.690  0.0672  0.5136  0.2504
  191MOL0     C26243   5.026   2.873   2.810 -0.4428  0.9934  0.1184
  191MOL0     O26244   5.114   2.758   2.834  0.6913 -0.4195 -0.5531
  191MOL0     C26245   5.194   2.701   2.739  0.7685 -0.7958  0.0996
  191MOL0     C26246   5.289   2.782   2.680 -0.7718  0.1663 -0.6063
  191MOL0     C26247   5.387   2.720   2.598  0.5459  0.0246  0.2631
  191MOL0     C26248   5.494   2.809   2.543  0.6757 -0.5647  0.2025
  191MOL0     C26249   5.368   2.581   2.562 -0.6082 -0.8760  0.2348
  191MOL0     C26250   5.459   2.517   2.472 -0.2699  0.0611  0.0094
  191MOL0     O26251   5.591   2.558   2.464  0.5642 -0.4279  0.2329
  191MOL0     C26252   5.676   2.489   2.379  0.4032 -0.3038 -0.5404
  191MOL0     C26253   5.725   2.354   2.424  0.0766 -0.9923 -1.1201
  191MOL0     C26254   5.795   2.280   2.335  0.0691 -0.6697 -0.0509
  191MOL0     C26255   5.842   2.323   2.209 -0.0219 -0.4880 -0.4882
  191MOL0     O26256   5.912   2.240   2.122  0.0138 -0.9837 -0.1078
  191MOL0     C26257   5.915   2.097   2.147  1.6667 -0.4008 -0.9727
  191MOL0     C26258   6.016   2.048   2.049 -0.1015  0.8553  0.3356
  191MOL0     C26259   6.039   1.900   2.076  0.5889  0.0815 -0.2478
  191MOL0     C26260   6.125   1.831   1.973 -0.2444 -0.6947 -0.2649
  191MOL0     C26261   6.174   1.700   2.045  0.9120 -0.2876  0.0799
  191MOL0     C26262   6.245   1.602   1.956 -0.1346 -0.2186  0.1744
  191MOL0     C26263   6.375   1.656   1.895  1.0450 -0.1520 -0.3821
  191MOL0     C26264   6.439   1.538   1.827 -0.2576 -0.5166 -0.6255
  191MOL0    Cl26265   6.603   1.580   1.794  0.0847 -0.1126  0.0085
  191MOL0     C26266   5.801   2.450   2.171 -0.9359  0.0931  1.1704
  191MOL0     C26267   5.708   2.527   2.243  0.7186  0.1309 -1.1975
  191MOL0     O26268   5.418   2.414   2.416  0.3590  0.1408  0.2808
  191MOL0     C26269   5.278   2.507   2.632 -0.9244 -0.1416 -0.8899
  191MOL0     C26270   5.186   2.572   2.714 -0.4666  0.4491 -0.4865
  191MOL0     N26271   4.729   2.408   2.639  0.0167  0.1404  0.1853
  191MOL0     N26272   4.637   2.346   2.697 -0.6634 -0.4114 -0.2733
  191MOL0     C26273   4.159   2.893   3.439 -0.4582 -1.0445  0.3021
  191MOL0     C26274   4.217   3.008   3.507 -0.6946 -0.2120  0.3690
  191MOL0     C26275   4.136   3.436   3.677 -0.6190  1.6158  0.2250
  191MOL0     C26276   4.042   3.481   3.771  0.2323 -0.0645  0.1143
  191MOL0     C26277   4.063   3.593   3.847 -0.4824  0.3630 -0.1324
  191MOL0     C26278   4.176   3.670   3.829 -0.4409  0.4758  0.0437
  191MOL0     O26279   4.205   3.772   3.909  0.8216  0.0778 -0.6255
  191MOL0     C26280   4.096   3.825   3.986 -0.4999  0.6022 -0.6769
  191MOL0     C26281   4.141   3.958   4.044 -0.5235  0.1702 -0.2741
  191MOL0     C26282   4.207   3.953   4.188  0.6096  0.3126  0.2128
  191MOL0     C26283   4.317   4.057   4.204  0.5289  0.0570 -0.5557
  191MOL0     C26284   4.378   4.023   4.337 -0.6075  0.7269  0.9646
  191MOL0     C26285   4.421   4.002   4.448  0.6662  0.0632 -0.0991
  191MOL0     C26286   4.271   3.631   3.736 -0.6487  0.7091  0.5066
  191MOL0     C26287   4.250   3.513   3.648  0.6313  0.0694  0.0040
  191MOL0     C26288   4.370   3.490   3.551  0.8685  0.0471  0.3147
  191MOL0     H26289   4.032   3.241   3.333  3.1967  1.8729 -0.1056
  191MOL0     H26290   3.940   3.038   3.227  1.4781  0.4549 -0.6415
  191MOL0     H26291   3.867   2.856   3.146 -2.2946 -1.9985 -2.0496
  191MOL0     H26292   3.807   2.758   3.281  0.1196 -0.2990  0.0294
  191MOL0     H26293   3.922   2.573   3.191 -2.9363  1.1095  1.6145
  191MOL0     H26294   3.785   2.621   3.096  0.5957 -2.5372  0.1182
  191MOL0     H26295   3.948   2.724   2.922  1.3729  1.5541  1.3436
  191MOL0     H26296   4.080   2.695   3.040  0.6831  0.8054 -1.3991
  191MOL0     H26297   4.077   2.449   2.993 -1.0376 -1.0941 -0.3735
  191MOL0     H26298   3.923   2.469   2.902 -1.6973  1.4600 -0.1943
  191MOL0     H26299   4.069   2.607   2.734  3.9049 -0.2179 -1.5230
  191MOL0     H26300   4.088   2.437   2.744 -0.5510  1.6054 -2.2003
  191MOL0     H26301   4.306   2.586   2.767  2.0853 -0.3953  0.4726
  191MOL0     H26302   4.274   2.557   2.932  1.0666 -1.8114  0.4760
  191MOL0     H26303   4.292   2.324   2.717  0.7286 -4.0896  1.0895
  191MOL0     H26304   4.246   2.319   2.889  2.4925 -0.5426 -0.0781
  191MOL0     H26305   4.462   2.428   2.947 -1.4794 -1.5371  1.9016
  191MOL0     H26306   4.474   2.271   2.872  2.4733  0.7178 -1.4619
  191MOL0     H26307   4.524   2.649   2.750 -1.5278 -0.1048  1.6227
  191MOL0     H26308   4.709   2.727   2.546  1.2647 -0.0137 -0.4297
  191MOL0     H26309   4.855   2.632   2.558  0.9982  1.2461  1.5083
  191MOL0     H26310   4.747   2.794   2.779  0.3945 -1.9259  1.0740
  191MOL0     H26311   4.884   2.669   2.794  2.8943 -1.7059 -3.0148
  191MOL0     H26312   4.984   2.817   2.602  1.8545  0.1494  1.4635
  191MOL0     H26313   4.878   2.947   2.666 -1.2826 -0.0304  0.9344
  191MOL0     H26314   5.097   2.950   2.780  2.0855 -0.8514  1.0217
  191MOL0     H26315   4.973   2.892   2.903 -1.5212 -0.3481 -0.1881
  191MOL0     H26316   5.304   2.883   2.716  3.3104 -0.3068 -0.5118
  191MOL0     H26317   5.588   2.791   2.596  1.0424  1.2890  0.2448
  191MOL0     H26318   5.472   2.916   2.553  0.9706 -0.7018  3.3498
  191MOL0     H26319   5.505   2.803   2.434 -0.5550  0.1797  0.0263
  191MOL0     H26320   5.712   2.331   2.529 -1.6067  3.4477 -0.1306
  191MOL0     H26321   5.814   2.179   2.371  1.7524 -0.5296 -0.4238
  191MOL0     H26322   5.947   2.075   2.249  0.5677 -2.4055 -1.0116
  191MOL0     H26323   5.817   2.050   2.136  1.6428 -0.3121 -1.1399
  191MOL0     H26324   5.994   2.080   1.946  3.1089 -2.0772 -1.4434
  191MOL0     H26325   6.114   2.091   2.071 -1.1670  3.5852  0.1530
  191MOL0     H26326   5.945   1.845   2.069  1.5110 -1.8531  1.1869
  191MOL0     H26327   6.066   1.881   2.180  6.2806 -0.8507 -1.5329
  191MOL0     H26328   6.208   1.902   1.961  2.2786 -2.7909  2.9296
  191MOL0     H26329   6.073   1.825   1.878  1.6506 -0.7785 -1.3512
  191MOL0     H26330   6.251   1.736   2.115  3.6671  2.6403 -3.9773
  191MOL0     H26331   6.095   1.653   2.104  0.0798  1.3560  0.3401
  191MOL0     H26332   6.174   1.568   1.880 -2.1588  4.3342 -0.3020
  191MOL0     H26333   6.277   1.518   2.019  0.9177 -0.7528 -1.0246
  191MOL0     H26334   6.426   1.698   1.982  0.2151 -2.0879  1.1412
  191MOL0     H26335   6.354   1.738   1.826 -2.5776 -0.2436  0.4371
  191MOL0     H26336   6.387   1.511   1.735 -3.2042 -2.8522  1.5086
  191MOL0     H26337   6.423   1.449   1.888 -1.8095 -0.6583 -1.1913
  191MOL0     H26338   5.831   2.481   2.072 -2.0247 -1.0127  0.4588
  191MOL0     H26339   5.675   2.614   2.188  4.2911  1.4071 -1.5843
  191MOL0     H26340   5.297   2.401   2.634  0.1863 -0.0363  3.0084
  191MOL0     H26341   5.114   2.516   2.773  0.8044  0.0748  0.7687
  191MOL0     H26342   4.202   2.796   3.461  1.6679 -0.5230 -1.2527
  191MOL0     H26343   4.297   3.011   3.581 -0.8609  0.3821  0.5346
  191MOL0     H26344   3.976   3.403   3.807 -0.2875  0.0584 -0.5679
  191MOL0     H26345   3.990   3.600   3.928 -2.6254 -0.1557 -1.9158
  191MOL0     H26346   4.014   3.846   3.917  0.0873 -1.7668 -2.2109
  191MOL0     H26347   4.055   3.760   4.064 -1.4674 -1.2875 -2.6597
  191MOL0     H26348   4.050   4.019   4.051 -0.2600  0.6508 -1.0156
  191MOL0     H26349   4.204   4.012   3.974 -2.7760  1.7985 -1.1481
  191MOL0     H26350   4.133   3.975   4.266  1.1835 -0.0596  0.8730
  191MOL0     H26351   4.243   3.850   4.192  0.5398  0.3136  1.3922
  191MOL0     H26352   4.273   4.157   4.206 -0.3248 -0.2833 -1.4793
  191MOL0     H26353   4.384   4.040   4.120 -0.7665  0.6363 -1.7498
  191MOL0     H26354   4.458   4.007   4.548 -2.1221  0.2426  0.9999
  191MOL0     H26355   4.357   3.696   3.723 -1.0705  0.9513 -1.5172
  191MOL0     H26356   4.432   3.576   3.523 -1.5835  0.7396 -3.8495
  191MOL0     H26357   4.431   3.409   3.592 -1.5725 -1.6216  0.8491
  191MOL0     H26358   4.329   3.445   3.460  0.2903 -0.3964  0.7883
  192MOL0     O26359  10.388   3.629   1.498 -0.4494 -0.0137 -1.2102
  192MOL0     C26360  10.503   3.659   1.463  0.0630  0.8891  0.9477
  192MOL0     O26361  10.592   3.579   1.381  0.0065  0.0043  0.3168
  192MOL0     C26362  10.532   3.490   1.290 -0.5317 -0.3970 -0.8498
  192MOL0     C26363  10.595   3.494   1.165 -0.0682  0.2283 -0.3970
  192MOL0     C26364  10.565   3.404   1.062  0.3515 -0.1548  1.4778
  192MOL0     C26365  10.469   3.302   1.094 -0.3254 -0.2490  0.9359
  192MOL0     O26366  10.441   3.208   0.995  0.4552  0.0508 -0.0106
  192MOL0     C26367  10.434   3.071   1.023 -0.8054 -0.7811 -0.1059
  192MOL0     C26368  10.562   3.015   1.086  0.1282 -0.2655  0.4926
  192MOL0     C26369  10.563   2.863   1.093  0.8294  0.4575  0.8872
  192MOL0     C26370  10.689   2.800   1.132 -0.4456 -0.2136  0.5788
  192MOL0     C26371  10.646   2.656   1.170  0.4485 -0.3874 -0.2591
  192MOL0     C26372  10.780   2.577   1.195 -0.6519  0.0591 -0.6153
  192MOL0     C26373  10.729   2.443   1.253 -0.5987  0.2550  0.2290
  192MOL0     C26374  10.853   2.355   1.291  0.8797 -0.3601  0.1857
  192MOL0     N26375  10.809   2.229   1.348 -0.0948 -0.7586  0.9829
  192MOL0     C26376  10.773   2.198   1.482 -0.5131  0.3584 -0.2136
  192MOL0     C26377  10.744   2.063   1.475  0.1109  0.0728  0.5327
  192MOL0     C26378  10.688   1.980   1.589 -0.8759  0.0281  0.0036
  192MOL0     C26379  10.542   1.941   1.569  0.2160  0.0948  0.2069
  192MOL0     C26380  10.452   2.047   1.622  0.0655  0.5644  0.1739
  192MOL0     C26381  10.304   1.997   1.634  0.0834 -0.0701 -0.3072
  192MOL0     O26382  10.271   1.929   1.754  0.2677 -0.6382 -0.6547
  192MOL0     C26383  10.146   1.889   1.780  0.5150 -0.2966  0.1714
  192MOL0     C26384  10.126   1.818   1.895 -1.2261  0.4841  0.6188
  192MOL0     C26385  10.014   1.768   1.945  0.2340  0.4053  0.3707
  192MOL0     C26386  10.013   1.673   2.070  0.0448 -0.8800 -0.2503
  192MOL0     C26387   9.903   1.782   1.860  0.4062  0.3557 -0.8142
  192MOL0     C26388   9.781   1.713   1.895  0.1331 -0.6663 -0.2045
  192MOL0     O26389   9.778   1.580   1.877  0.1106 -0.1542  0.3185
  192MOL0     C26390   9.657   1.518   1.883  1.0266  0.3991 -0.5234
  192MOL0     C26391   9.594   1.494   2.002  0.7750  0.1895  0.2484
  192MOL0     C26392   9.471   1.432   2.000  0.0678  0.2662  0.1871
  192MOL0     C26393   9.401   1.396   1.884 -0.5675  0.3427  0.0490
  192MOL0     O26394   9.275   1.349   1.875  0.2554 -0.6253  0.5859
  192MOL0     C26395   9.184   1.336   1.988  0.1442 -0.9622  1.9165
  192MOL0     C26396   9.076   1.233   1.947 -0.8184  0.6054 -0.2843
  192MOL0     C26397   9.009   1.272   1.814  0.3508 -0.2490  0.7445
  192MOL0     C26398   8.891   1.181   1.779  0.8359  0.5127  0.1715
  192MOL0     C26399   8.852   1.191   1.630  0.1762  0.2086 -0.0685
  192MOL0     C26400   8.747   1.079   1.596  0.5582 -0.7710  0.3524
  192MOL0     C26401   8.618   1.087   1.672 -1.1748 -0.5230 -0.5793
  192MOL0     C26402   8.510   1.006   1.619  1.1978 -0.1924  0.1524
  192MOL0    Cl26403   8.385   0.983   1.742  0.2840  0.2251  0.1486
  192MOL0     C26404   9.461   1.422   1.761  0.3902  0.7258  0.3141
  192MOL0     C26405   9.589   1.481   1.760  0.2229  0.9228  0.5883
  192MOL0     O26406   9.696   1.780   1.953  0.3075  0.9428 -0.4077
  192MOL0     C26407   9.910   1.857   1.751 -0.8623 -0.4177  0.2871
  192MOL0     C26408  10.030   1.912   1.703 -0.4702  0.7274 -0.1305
  192MOL0     N26409  10.766   2.022   1.340 -0.5261 -0.8903  0.1266
  192MOL0     N26410  10.805   2.124   1.269 -0.6617 -0.2902  0.2643
  192MOL0     C26411  10.401   3.306   1.210 -0.2405  1.1508  0.1514
  192MOL0     C26412  10.427   3.392   1.314 -0.8946  0.0327 -0.1198
  192MOL0     C26413  10.568   3.785   1.508  0.3804 -0.2194 -0.4249
  192MOL0     C26414  10.702   3.782   1.547 -0.1110  0.2409  0.4570
  192MOL0     C26415  10.770   3.884   1.604 -0.2460  0.2296 -0.5206
  192MOL0     C26416  10.694   4.002   1.625  0.4734 -0.6132  0.4565
  192MOL0     O26417  10.735   4.128   1.676  0.0165 -0.2976  0.3253
  192MOL0     C26418  10.875   4.149   1.678  0.9237 -0.5380 -0.1023
  192MOL0     C26419  10.884   4.229   1.810 -0.0018 -0.3560  0.8927
  192MOL0     C26420  10.865   4.144   1.935 -0.4348 -0.6332  0.6899
  192MOL0     C26421  10.976   4.032   1.944  0.1386  0.3727 -0.1780
  192MOL0     C26422  11.006   3.958   2.069 -0.2172  0.2650 -1.2210
  192MOL0     C26423  11.019   3.881   2.165 -0.1379 -0.0230  0.2442
  192MOL0     C26424  10.565   4.015   1.574 -0.2810 -0.1181 -0.0243
  192MOL0     C26425  10.498   3.907   1.517  0.5483  0.1668 -0.7543
  192MOL0     C26426  10.353   3.914   1.480 -0.0797  1.3006 -0.5634
  192MOL0     H26427  10.670   3.572   1.158 -0.5628  0.8832  1.1404
  192MOL0     H26428  10.619   3.429   0.971  0.5743 -0.0697  1.6323
  192MOL0     H26429  10.415   3.024   0.926 -1.2635 -0.3566 -0.2268
  192MOL0     H26430  10.354   3.056   1.096  0.1526  1.7702  1.6333
  192MOL0     H26431  10.646   3.053   1.027 -1.7610 -0.1855 -2.3864
  192MOL0     H26432  10.564   3.054   1.188 -3.3899 -0.3921  0.7446
  192MOL0     H26433  10.486   2.841   1.168  1.6140  2.6906  2.4594
  192MOL0     H26434  10.532   2.824   0.996 -0.1814  0.4461  1.2089
  192MOL0     H26435  10.758   2.805   1.047  0.5314  0.9079  1.4027
  192MOL0     H26436  10.744   2.857   1.207  1.1759  0.8026 -1.2677
  192MOL0     H26437  10.591   2.605   1.090  1.3550 -1.6875 -0.0899
  192MOL0     H26438  10.576   2.657   1.254  1.5360 -0.7114  0.6815
  192MOL0     H26439  10.838   2.558   1.104 -2.3209  1.7606 -2.0971
  192MOL0     H26440  10.846   2.621   1.271 -0.2690 -1.2905 -0.1256
  192MOL0     H26441  10.676   2.400   1.168  1.8890 -2.5742 -0.0594
  192MOL0     H26442  10.665   2.457   1.341  1.5211  0.8657  1.7644
  192MOL0     H26443  10.928   2.339   1.214  2.3932  1.6260  1.1660
  192MOL0     H26444  10.915   2.401   1.369  1.9082 -3.6366  1.4936
  192MOL0     H26445  10.763   2.270   1.562 -0.2452  1.0145 -0.7577
  192MOL0     H26446  10.693   2.036   1.683 -0.4773  1.3989 -0.8055
  192MOL0     H26447  10.741   1.884   1.594  0.0911  0.4068 -1.9176
  192MOL0     H26448  10.523   1.921   1.463 -2.1177  3.1887 -0.0817
  192MOL0     H26449  10.533   1.854   1.635 -0.4701  0.6640  0.8833
  192MOL0     H26450  10.474   2.070   1.727  0.8287  2.1802 -0.3187
  192MOL0     H26451  10.452   2.142   1.568 -0.6892 -0.9637 -2.7362
  192MOL0     H26452  10.241   2.084   1.613  1.7460  0.9851 -1.1335
  192MOL0     H26453  10.293   1.931   1.548 -1.4717  1.2716 -1.1793
  192MOL0     H26454  10.219   1.811   1.951  0.3795 -1.6831 -2.0429
  192MOL0     H26455  10.095   1.710   2.133  0.8133  1.7908 -2.5875
  192MOL0     H26456  10.024   1.568   2.041 -0.5290 -0.7023 -1.1658
  192MOL0     H26457   9.924   1.669   2.132  2.1228 -0.6632  2.9867
  192MOL0     H26458   9.642   1.533   2.091 -1.0287  1.5307  0.6973
  192MOL0     H26459   9.413   1.419   2.091 -2.1796 -1.1381 -1.3402
  192MOL0     H26460   9.236   1.308   2.080  1.9354  0.9269  1.5690
  192MOL0     H26461   9.140   1.435   2.006 -0.5443 -0.3669 -2.0713
  192MOL0     H26462   9.113   1.131   1.929 -1.4780  0.1156  0.9909
  192MOL0     H26463   9.006   1.227   2.031 -0.8903 -0.9722 -0.4316
  192MOL0     H26464   9.085   1.253   1.738 -0.3425  0.6999 -0.2269
  192MOL0     H26465   8.985   1.378   1.804 -0.1059 -0.5540 -3.2386
  192MOL0     H26466   8.805   1.208   1.841  0.1607 -0.5722 -0.2644
  192MOL0     H26467   8.917   1.078   1.803  1.5390  0.8121  0.7301
  192MOL0     H26468   8.809   1.288   1.608  1.1166  0.2602 -1.8774
  192MOL0     H26469   8.934   1.163   1.563 -0.9078 -0.8035 -1.0235
  192MOL0     H26470   8.793   0.981   1.603  3.0638  0.1908 -1.4384
  192MOL0     H26471   8.722   1.100   1.492  0.0323  2.0087  0.9350
  192MOL0     H26472   8.591   1.193   1.661  0.1932 -0.0161  0.6424
  192MOL0     H26473   8.638   1.079   1.779 -0.5839  2.8012 -0.3181
  192MOL0     H26474   8.544   0.914   1.571  0.1823  0.1970 -1.3548
  192MOL0     H26475   8.460   1.055   1.536 -0.2998  0.9799  1.6763
  192MOL0     H26476   9.399   1.405   1.674 -0.6774 -0.0818  1.2049
  192MOL0     H26477   9.628   1.511   1.663 -2.4928 -0.2147 -0.9752
  192MOL0     H26478   9.828   1.881   1.683 -0.4199 -0.2472 -0.1938
  192MOL0     H26479  10.030   1.968   1.610 -1.4976 -0.6688 -0.9897
  192MOL0     H26480  10.328   3.226   1.219  0.2121  0.5376 -1.2919
  192MOL0     H26481  10.394   3.383   1.417 -0.2916  1.4785  0.2286
  192MOL0     H26482  10.762   3.693   1.532 -0.7605 -0.1825  0.3585
  192MOL0     H26483  10.876   3.875   1.626  0.4510 -1.8665 -3.9486
  192MOL0     H26484  10.943   4.064   1.667  1.9042  0.5343 -3.2644
  192MOL0     H26485  10.893   4.216   1.594  1.1340 -1.0452 -0.4675
  192MOL0     H26486  10.810   4.310   1.814  0.2687 -0.1523  2.9358
  192MOL0     H26487  10.982   4.273   1.829  0.2677 -1.2578  1.6562
  192MOL0     H26488  10.860   4.205   2.026  0.8375 -0.6006  0.7554
  192MOL0     H26489  10.769   4.092   1.928  1.2660 -3.7945 -1.5417
  192MOL0     H26490  11.073   4.080   1.925  1.2080 -0.1347  3.2778
  192MOL0     H26491  10.950   3.953   1.873 -1.2536 -2.1676  2.9202
  192MOL0     H26492  11.024   3.814   2.248  1.6955  1.6443  1.5949
  192MOL0     H26493  10.504   4.105   1.577  0.8793  0.6695  0.8945
  192MOL0     H26494  10.295   3.842   1.537 -0.4256  0.7782 -1.5543
  192MOL0     H26495  10.303   4.011   1.488 -1.2894  0.5855  0.9398
  192MOL0     H26496  10.351   3.886   1.374  0.7809  0.5177 -0.3833
  193MOL0     O26497   3.641   7.225   0.208 -0.0595 -0.3048 -0.0171
  193MOL0     C26498   3.640   7.215   0.333 -0.4340 -0.6157 -0.2610
  193MOL0     O26499   3.743   7.274   0.411 -1.2624  0.4670 -0.1598
  193MOL0     C26500   3.840   7.362   0.347  0.6517  0.4942  0.9775
  193MOL0     C26501   3.898   7.342   0.216 -0.8389 -0.0597  0.0956
  193MOL0     C26502   3.988   7.439   0.163  0.5868  0.5474 -0.4072
  193MOL0     C26503   4.038   7.545   0.242 -0.2982  0.8387  0.2172
  193MOL0     O26504   4.125   7.644   0.195 -0.4603  0.4544 -0.2290
  193MOL0     C26505   4.164   7.636   0.058  0.3655 -0.2215  0.3597
  193MOL0     C26506   4.235   7.769   0.031  0.2466  0.2918 -0.4851
  193MOL0     C26507   4.327   7.774  -0.093 -0.5881 -0.4647 -0.0578
  193MOL0     C26508   4.266   7.695  -0.209 -0.3220 -0.3208  0.1175
  193MOL0     C26509   4.133   7.768  -0.249 -0.4807  0.2739 -0.0311
  193MOL0     C26510   4.070   7.718  -0.376  0.3248 -0.0548  0.4780
  193MOL0     C26511   4.148   7.718  -0.506  0.0252  0.0658  0.2835
  193MOL0     C26512   4.219   7.858  -0.523 -0.4446  0.0884  1.0408
  193MOL0     N26513   4.290   7.860  -0.658  0.4518 -0.5006 -0.0170
  193MOL0     C26514   4.397   7.782  -0.703 -0.9717  0.7559  0.1719
  193MOL0     C26515   4.408   7.810  -0.837  0.9428 -0.1565  0.1004
  193MOL0     C26516   4.488   7.732  -0.936  0.0177  0.1923 -0.4578
  193MOL0     C26517   4.424   7.673  -1.060 -0.0823 -0.6966  0.8075
  193MOL0     C26518   4.444   7.759  -1.181  0.3682 -0.4441 -0.4251
  193MOL0     C26519   4.581   7.726  -1.234  0.3717  0.0726  0.9183
  193MOL0     O26520   4.583   7.746  -1.369  0.0490 -0.5700 -0.2465
  193MOL0     C26521   4.683   7.681  -1.438 -0.9707  0.0213  0.6139
  193MOL0     C26522   4.814   7.654  -1.390 -0.0650 -0.1702 -0.5314
  193MOL0     C26523   4.917   7.589  -1.464 -1.5765  0.2431  0.0027
  193MOL0     C26524   5.050   7.587  -1.405 -1.0774 -0.4271 -0.4549
  193MOL0     C26525   4.879   7.544  -1.592 -0.5745 -0.2846 -0.4089
  193MOL0     C26526   4.969   7.460  -1.683  0.0288  0.2212  0.1078
  193MOL0     O26527   4.954   7.471  -1.819  0.0608  0.2740 -0.1389
  193MOL0     C26528   5.027   7.383  -1.898 -0.2559  0.0109  0.2201
  193MOL0     C26529   5.126   7.444  -1.983 -1.1806 -0.2020  0.2190
  193MOL0     C26530   5.205   7.365  -2.074 -0.0328 -0.8254 -0.3080
  193MOL0     C26531   5.184   7.230  -2.068  0.2230  0.1434  0.6233
  193MOL0     O26532   5.287   7.172  -2.142  0.7548  0.0162  0.0325
  193MOL0     C26533   5.247   7.058  -2.225  0.6494 -0.0632 -0.0513
  193MOL0     C26534   5.278   6.926  -2.159  0.0765  0.2612 -0.8082
  193MOL0     C26535   5.417   6.884  -2.125 -0.6906 -0.8773 -0.3801
  193MOL0     C26536   5.491   6.842  -2.251  0.6989  0.1215 -0.3559
  193MOL0     C26537   5.637   6.841  -2.233 -0.1852  0.7832 -0.5252
  193MOL0     C26538   5.708   6.759  -2.345  0.2980  0.8526  0.1911
  193MOL0     C26539   5.676   6.813  -2.490 -0.4134  0.8934  0.4458
  193MOL0     C26540   5.728   6.962  -2.501 -0.1410  0.2395  0.4392
  193MOL0    Cl26541   5.903   6.971  -2.464 -0.0915 -0.3013  0.3594
  193MOL0     C26542   5.094   7.172  -1.982 -0.5783  0.7734 -0.0437
  193MOL0     C26543   5.009   7.245  -1.899 -0.4042  0.5280 -0.1547
  193MOL0     O26544   5.045   7.383  -1.627  0.9055  0.2949 -0.5317
  193MOL0     C26545   4.748   7.578  -1.643  0.0438  1.1238 -0.7606
  193MOL0     C26546   4.660   7.641  -1.567  0.5947  0.6405 -0.5461
  193MOL0     N26547   4.319   7.913  -0.866 -0.3102  0.2241  0.0818
  193MOL0     N26548   4.254   7.949  -0.764  0.2964  0.4296 -1.4392
  193MOL0     C26549   3.974   7.564   0.367 -0.0648 -0.4617  0.1551
  193MOL0     C26550   3.873   7.479   0.418 -0.1050 -0.1070  0.3977
  193MOL0     C26551   3.527   7.148   0.414  0.4139 -0.1413  0.0802
  193MOL0     C26552   3.550   7.132   0.549 -0.5635  0.6177 -0.3338
  193MOL0     C26553   3.471   7.051   0.622  0.8533  0.6467  0.3036
  193MOL0     C26554   3.356   6.991   0.571  0.1109 -0.5323 -0.2803
  193MOL0     O26555   3.262   6.907   0.627  0.2591  0.2782  0.4165
  193MOL0     C26556   3.276   6.888   0.769 -0.2630  0.8111  0.2497
  193MOL0     C26557   3.173   6.782   0.809  0.6620  0.8553  0.5866
  193MOL0     C26558   3.167   6.646   0.727  0.3494  0.8429  0.0112
  193MOL0     C26559   3.035   6.625   0.654  0.4324 -0.3192 -0.3922
  193MOL0     C26560   3.023   6.722   0.543  0.3671  0.5295 -0.7116
  193MOL0     C26561   3.003   6.791   0.442 -0.3160 -0.4887 -0.0922
  193MOL0     C26562   3.321   7.030   0.449  0.1031 -0.7474  0.3892
  193MOL0     C26563   3.409   7.103   0.366 -0.3630 -1.3750 -0.2394
  193MOL0     C26564   3.374   7.129   0.221  0.2629  0.1168 -0.1432
  193MOL0     H26565   3.869   7.254   0.161 -0.2236 -1.6017  2.1094
  193MOL0     H26566   4.028   7.416   0.065  2.7109  2.1140  0.0258
  193MOL0     H26567   4.083   7.618  -0.013  0.3965 -1.2444  0.5616
  193MOL0     H26568   4.238   7.555   0.058  0.3274 -0.2603 -0.2731
  193MOL0     H26569   4.155   7.842   0.018  0.3706  0.1447 -2.2541
  193MOL0     H26570   4.287   7.807   0.119  1.2976  1.3015 -1.5145
  193MOL0     H26571   4.352   7.878  -0.118  1.5195 -1.2753 -1.6925
  193MOL0     H26572   4.426   7.732  -0.073  0.6476  2.2320 -0.1385
  193MOL0     H26573   4.336   7.699  -0.293 -2.3444 -2.4365 -1.8067
  193MOL0     H26574   4.250   7.593  -0.172  2.9180 -1.7887 -2.0507
  193MOL0     H26575   4.143   7.877  -0.258  0.9552  0.0806 -1.1548
  193MOL0     H26576   4.059   7.746  -0.171  0.6466 -1.6496  0.5524
  193MOL0     H26577   4.021   7.624  -0.349  1.4817 -1.0162 -0.7041
  193MOL0     H26578   3.992   7.794  -0.389  3.1642  3.0347  0.2666
  193MOL0     H26579   4.081   7.711  -0.592 -1.3754  2.4245  1.0704
  193MOL0     H26580   4.221   7.637  -0.514 -1.1273 -0.8646 -1.5311
  193MOL0     H26581   4.166   7.954  -0.520 -0.4094  0.1104  0.9732
  193MOL0     H26582   4.303   7.874  -0.455  0.4816  0.9735 -0.2541
  193MOL0     H26583   4.444   7.700  -0.651 -0.8403  0.1832 -0.8210
  193MOL0     H26584   4.536   7.643  -0.894 -0.3299 -0.9931 -2.4601
  193MOL0     H26585   4.565   7.807  -0.957  0.6082 -0.4458 -0.5816
  193MOL0     H26586   4.462   7.574  -1.087  1.5275 -0.1560  1.0275
  193MOL0     H26587   4.316   7.664  -1.040  0.2072 -2.0023  1.9471
  193MOL0     H26588   4.364   7.730  -1.249  0.8172  0.2857 -1.2871
  193MOL0     H26589   4.433   7.867  -1.164 -1.6145 -0.8973  1.6174
  193MOL0     H26590   4.652   7.787  -1.178 -0.2953  0.8313  0.9722
  193MOL0     H26591   4.610   7.623  -1.214  2.9184  0.9645  2.2148
  193MOL0     H26592   4.837   7.697  -1.293  1.0633 -1.2626 -0.2971
  193MOL0     H26593   5.120   7.644  -1.466  0.2728  0.0398  1.4251
  193MOL0     H26594   5.078   7.484  -1.382  0.3168 -0.1172 -0.6892
  193MOL0     H26595   5.052   7.638  -1.308  0.8251 -0.0284 -0.6705
  193MOL0     H26596   5.146   7.550  -1.990 -1.5708 -0.2015 -1.2208
  193MOL0     H26597   5.284   7.425  -2.118 -0.6017 -0.8050 -1.3347
  193MOL0     H26598   5.141   7.067  -2.252  0.3940 -2.4884 -0.0357
  193MOL0     H26599   5.309   7.067  -2.316  0.8911 -1.4048 -0.0387
  193MOL0     H26600   5.212   6.933  -2.072  1.2726  3.3066 -0.0320
  193MOL0     H26601   5.235   6.852  -2.227  0.1622  0.5830 -1.2159
  193MOL0     H26602   5.410   6.793  -2.065 -0.8025 -0.1734  0.7030
  193MOL0     H26603   5.478   6.956  -2.069 -0.5609 -0.4743 -1.0262
  193MOL0     H26604   5.472   6.911  -2.334 -1.8929 -2.2194 -1.8772
  193MOL0     H26605   5.456   6.743  -2.283  0.0794  0.2605 -0.1219
  193MOL0     H26606   5.683   6.940  -2.226  1.1858  0.0906  4.4374
  193MOL0     H26607   5.664   6.791  -2.139  1.9618 -0.8077 -1.8751
  193MOL0     H26608   5.683   6.653  -2.338 -0.9806  1.2325  2.0795
  193MOL0     H26609   5.817   6.763  -2.334  0.5310  2.5800 -2.0229
  193MOL0     H26610   5.570   6.796  -2.507 -0.1143  0.2015 -0.8883
  193MOL0     H26611   5.738   6.748  -2.552  1.6554  1.2777  1.9639
  193MOL0     H26612   5.659   7.033  -2.454 -0.9576  0.7871 -1.4561
  193MOL0     H26613   5.733   6.998  -2.605  0.8072  0.7473  0.6504
  193MOL0     H26614   5.096   7.064  -1.972  2.3920  0.6734 -0.9568
  193MOL0     H26615   4.929   7.199  -1.842 -4.7102  3.6950 -2.9708
  193MOL0     H26616   4.710   7.557  -1.742 -3.0755 -1.4338  0.7945
  193MOL0     H26617   4.566   7.666  -1.616  1.6976  1.4326 -2.3331
  193MOL0     H26618   4.004   7.649   0.427 -1.0515  0.0528 -0.0557
  193MOL0     H26619   3.825   7.506   0.511  0.1845 -0.9820  0.8230
  193MOL0     H26620   3.634   7.188   0.590 -1.3823  1.7218 -0.1187
  193MOL0     H26621   3.495   7.055   0.728 -2.2392  3.8226  1.0649
  193MOL0     H26622   3.376   6.854   0.796 -0.6285  0.5502  1.3381
  193MOL0     H26623   3.249   6.972   0.834  1.6309  1.1530  0.6510
  193MOL0     H26624   3.070   6.818   0.809 -0.7222 -2.6445  2.0426
  193MOL0     H26625   3.195   6.750   0.912 -0.5536 -0.1085  0.5733
  193MOL0     H26626   3.245   6.648   0.650  1.5511  2.4522  1.1905
  193MOL0     H26627   3.189   6.563   0.795 -2.0221  2.4587  2.9920
  193MOL0     H26628   2.954   6.643   0.725  1.1287  0.2584  0.2846
  193MOL0     H26629   3.030   6.520   0.623  2.8676 -0.5822 -0.1467
  193MOL0     H26630   2.977   6.850   0.357 -2.8135 -2.1301 -0.5685
  193MOL0     H26631   3.243   6.965   0.411  4.0625 -4.5725 -2.1845
  193MOL0     H26632   3.266   7.115   0.211  0.4776 -0.7066 -1.7871
  193MOL0     H26633   3.390   7.224   0.170 -0.2786  0.1227 -0.3078
  193MOL0     H26634   3.426   7.055   0.158 -0.0648 -1.8109  1.7271
  194MOL0     O26635   6.322  11.193   2.799 -0.0590  0.0053  0.8997
  194MOL0     C26636   6.426  11.219   2.856  0.6809  0.3968 -0.0063
  194MOL0     O26637   6.505  11.130   2.927  0.0823  0.5742  0.2001
  194MOL0     C26638   6.481  10.995   2.916  0.5836 -0.7856 -0.4625
  194MOL0     C26639   6.354  10.947   2.972 -0.3307  0.0761 -0.8077
  194MOL0     C26640   6.330  10.813   2.958  0.7574  0.4713  0.4747
  194MOL0     C26641   6.429  10.721   2.922  0.8553  0.3794 -0.7529
  194MOL0     O26642   6.397  10.588   2.928 -0.2811 -0.8708  0.3890
  194MOL0     C26643   6.469  10.491   2.849 -0.7350  0.4130 -1.2074
  194MOL0     C26644   6.406  10.349   2.858  0.1900 -0.9253 -0.4855
  194MOL0     C26645   6.455  10.272   2.739  0.7438  0.2919 -0.2032
  194MOL0     C26646   6.400  10.117   2.725  0.5381 -0.1262 -0.5453
  194MOL0     C26647   6.432  10.051   2.591 -0.2892  0.1018  0.6423
  194MOL0     C26648   6.396   9.908   2.603  0.8154  0.2301  0.4104
  194MOL0     C26649   6.420   9.833   2.468  1.8414 -0.1521 -1.0952
  194MOL0     C26650   6.350   9.696   2.465  0.2698 -0.2100  0.8234
  194MOL0     N26651   6.205   9.708   2.421  0.1467 -0.2743 -0.3370
  194MOL0     C26652   6.088   9.709   2.499  0.2586 -0.6697  0.0668
  194MOL0     C26653   5.982   9.692   2.416 -0.4858 -1.1478  0.0486
  194MOL0     C26654   5.836   9.712   2.450  0.7450  0.4530  0.2969
  194MOL0     C26655   5.794   9.617   2.559  0.1437 -0.0606  0.1910
  194MOL0     C26656   5.638   9.604   2.585  0.3836  0.5633 -0.5657
  194MOL0     C26657   5.598   9.499   2.692  0.1608 -0.1729  0.6830
  194MOL0     O26658   5.660   9.530   2.820  0.5787 -0.4169 -0.2168
  194MOL0     C26659   5.616   9.464   2.934 -0.5401 -0.0582 -1.1415
  194MOL0     C26660   5.521   9.369   2.946 -0.0129 -0.4127  0.8378
  194MOL0     C26661   5.476   9.307   3.068 -0.1430 -0.1436 -0.1489
  194MOL0     C26662   5.398   9.177   3.058  0.0269  0.3731 -0.7112
  194MOL0     C26663   5.510   9.363   3.189  0.1638  0.3133  0.5305
  194MOL0     C26664   5.449   9.331   3.320 -0.7521 -0.5325  1.0237
  194MOL0     O26665   5.402   9.210   3.340  0.4578  0.0446  1.2000
  194MOL0     C26666   5.397   9.160   3.464  0.1841 -0.4654  0.4657
  194MOL0     C26667   5.509   9.147   3.547 -0.8975 -1.3159  0.0424
  194MOL0     C26668   5.515   9.076   3.664 -0.1674 -0.0523 -0.3188
  194MOL0     C26669   5.397   9.014   3.707  0.5496 -0.6003 -0.1002
  194MOL0     O26670   5.397   8.959   3.829  0.2671 -1.2095  0.0371
  194MOL0     C26671   5.389   8.823   3.802 -0.2000  0.6378 -0.5743
  194MOL0     C26672   5.428   8.754   3.933 -0.4040 -0.1173 -0.3466
  194MOL0     C26673   5.332   8.777   4.063  0.1165 -0.1246  0.5266
  194MOL0     C26674   5.210   8.684   4.044  0.9019  0.6055 -0.3816
  194MOL0     C26675   5.113   8.693   4.166 -0.5674  0.5323  0.3814
  194MOL0     C26676   5.062   8.827   4.189  0.7625 -0.6275  0.3293
  194MOL0     C26677   4.952   8.835   4.291 -0.5016  0.6842  0.6908
  194MOL0     C26678   4.915   8.977   4.336 -0.6556  0.0842 -0.5177
  194MOL0    Cl26679   4.979   9.031   4.489 -0.4303 -0.2793 -0.5568
  194MOL0     C26680   5.279   9.026   3.636  0.0788 -0.3497  0.4955
  194MOL0     C26681   5.275   9.098   3.511  0.3282  0.5147 -0.2823
  194MOL0     O26682   5.444   9.423   3.403 -0.2564 -0.5893  0.2453
  194MOL0     C26683   5.605   9.469   3.179 -0.0445  0.2609 -0.0872
  194MOL0     C26684   5.648   9.525   3.058 -0.0267 -0.5815 -0.7789
  194MOL0     N26685   6.039   9.685   2.290  0.4361 -0.6552 -0.5579
  194MOL0     N26686   6.170   9.686   2.289 -0.4067 -0.1742  0.0262
  194MOL0     C26687   6.553  10.770   2.874  0.3636 -0.0203 -0.3319
  194MOL0     C26688   6.576  10.909   2.867 -0.3189  0.2029 -0.2212
  194MOL0     C26689   6.463  11.365   2.863 -0.5867 -0.1806  0.0083
  194MOL0     C26690   6.608  11.391   2.870 -0.0122 -0.8070 -0.6492
  194MOL0     C26691   6.658  11.526   2.883  0.4393  0.3153  0.1915
  194MOL0     C26692   6.574  11.635   2.889 -0.0616  0.7000  0.3489
  194MOL0     O26693   6.609  11.765   2.903  0.8302 -0.7572  0.1320
  194MOL0     C26694   6.640  11.815   3.032  0.8760 -0.0234 -0.3979
  194MOL0     C26695   6.602  11.966   3.033  0.4682 -0.0911  0.4202
  194MOL0     C26696   6.676  12.048   2.924 -0.5071  0.0307 -0.6337
  194MOL0     C26697   6.624  12.192   2.927  0.0484 -0.3634 -0.3267
  194MOL0     C26698   6.668  12.259   2.807 -0.5402 -0.1581  0.1589
  194MOL0     C26699   6.714  12.302   2.701 -0.3515 -0.2003 -0.3849
  194MOL0     C26700   6.442  11.607   2.879 -0.3261  0.9493  0.3066
  194MOL0     C26701   6.379  11.475   2.860  0.2619 -0.6466 -1.3588
  194MOL0     C26702   6.228  11.466   2.839 -0.3613  0.8055  0.2411
  194MOL0     H26703   6.287  11.013   3.026 -1.8519  0.1391 -2.7067
  194MOL0     H26704   6.235  10.772   2.992  0.3732 -0.6729 -1.8252
  194MOL0     H26705   6.571  10.479   2.888 -0.7787  0.3022 -1.1264
  194MOL0     H26706   6.485  10.521   2.745 -1.7897  1.2627 -1.1404
  194MOL0     H26707   6.434  10.298   2.951  1.3004  0.4466 -0.0223
  194MOL0     H26708   6.299  10.351   2.838  0.2470 -0.1282 -0.7367
  194MOL0     H26709   6.436  10.324   2.645  2.0349  0.1914 -0.5343
  194MOL0     H26710   6.564  10.264   2.743  0.9463  2.3368 -0.6607
  194MOL0     H26711   6.445  10.052   2.801  2.8913 -2.1201 -3.3880
  194MOL0     H26712   6.293  10.106   2.748  0.1907  1.5889 -1.1986
  194MOL0     H26713   6.537  10.066   2.565 -0.7596  1.1526 -0.7653
  194MOL0     H26714   6.375  10.095   2.509 -0.3576  0.0125  0.6416
  194MOL0     H26715   6.458   9.866   2.683 -0.6769  0.4054  1.6977
  194MOL0     H26716   6.295   9.896   2.641  0.3979  0.4385 -0.6120
  194MOL0     H26717   6.523   9.810   2.442  1.5900 -0.4233 -1.8992
  194MOL0     H26718   6.385   9.893   2.383  2.1694 -0.1835 -1.2553
  194MOL0     H26719   6.398   9.634   2.388 -1.1355 -2.9121  1.9674
  194MOL0     H26720   6.353   9.647   2.563 -2.1155 -0.1167  0.9949
  194MOL0     H26721   6.068   9.717   2.606 -0.1502 -2.0166  0.1132
  194MOL0     H26722   5.771   9.707   2.363  2.6029  0.4698 -1.1611
  194MOL0     H26723   5.814   9.810   2.493 -0.1024  0.5938 -0.4330
  194MOL0     H26724   5.832   9.518   2.532  2.1454  0.7054  0.0060
  194MOL0     H26725   5.849   9.638   2.652  4.4557  1.4314 -2.4277
  194MOL0     H26726   5.601   9.698   2.628 -0.0855  0.8561 -1.5873
  194MOL0     H26727   5.582   9.588   2.493  0.3510  0.3684 -0.5123
  194MOL0     H26728   5.489   9.495   2.706  0.2552 -3.7101  1.4423
  194MOL0     H26729   5.630   9.400   2.659 -0.7884  0.3814 -2.2408
  194MOL0     H26730   5.502   9.327   2.848  1.6171  0.4193  0.1203
  194MOL0     H26731   5.460   9.094   3.090 -1.4756  0.4328  2.7737
  194MOL0     H26732   5.381   9.168   2.950  2.4493  0.9811 -1.1945
  194MOL0     H26733   5.312   9.170   3.126  1.5030 -1.0187  1.0947
  194MOL0     H26734   5.608   9.181   3.517 -1.7949 -1.1423 -3.1700
  194MOL0     H26735   5.602   9.075   3.728 -1.5351  2.2295  1.7675
  194MOL0     H26736   5.288   8.796   3.773 -0.1811  1.1915 -1.1967
  194MOL0     H26737   5.456   8.791   3.722 -0.5389  0.6192 -0.8525
  194MOL0     H26738   5.437   8.648   3.910  0.7273  0.0144 -0.5618
  194MOL0     H26739   5.526   8.780   3.974 -1.1683  1.0241  0.8549
  194MOL0     H26740   5.305   8.883   4.058 -1.6243 -0.5609 -3.7003
  194MOL0     H26741   5.389   8.751   4.152  3.2067  0.2336 -1.2221
  194MOL0     H26742   5.249   8.583   4.031  1.3020  0.6944  0.1205
  194MOL0     H26743   5.153   8.708   3.953  1.0838  1.3221 -0.3152
  194MOL0     H26744   5.029   8.625   4.149  0.0936  0.1659 -1.6574
  194MOL0     H26745   5.170   8.666   4.256  1.2843  2.4789 -0.1401
  194MOL0     H26746   5.020   8.870   4.098 -3.1201 -2.2635  1.1360
  194MOL0     H26747   5.147   8.887   4.222  2.0976 -0.5100 -2.9621
  194MOL0     H26748   4.985   8.768   4.371  0.1502  1.0636  0.7431
  194MOL0     H26749   4.859   8.786   4.260 -0.4292  1.3756 -0.6665
  194MOL0     H26750   4.808   8.981   4.357 -0.5805  0.1508 -0.1318
  194MOL0     H26751   4.946   9.042   4.253  0.2690  2.1517  1.3328
  194MOL0     H26752   5.189   8.974   3.668  0.2048 -0.0819  1.3188
  194MOL0     H26753   5.180   9.095   3.459 -0.2724 -1.6372  0.8140
  194MOL0     H26754   5.636   9.500   3.278  0.8917 -2.0833  0.4025
  194MOL0     H26755   5.706   9.617   3.061  0.6088 -0.9875 -0.3141
  194MOL0     H26756   6.627  10.700   2.839  2.5405  2.3800 -0.8372
  194MOL0     H26757   6.673  10.953   2.844 -1.1446  2.3170  0.0961
  194MOL0     H26758   6.684  11.313   2.863 -0.6891 -1.4087 -1.4331
  194MOL0     H26759   6.764  11.548   2.889  1.1375 -2.1837 -1.3296
  194MOL0     H26760   6.579  11.762   3.106  2.6373 -1.0581  0.3727
  194MOL0     H26761   6.744  11.796   3.057 -0.2291 -2.8572  2.8465
  194MOL0     H26762   6.631  11.995   3.134  2.9043 -0.5561 -0.0828
  194MOL0     H26763   6.495  11.969   3.011 -0.0635 -2.3053  2.2987
  194MOL0     H26764   6.783  12.057   2.948 -0.0777 -1.3526 -1.9255
  194MOL0     H26765   6.663  11.999   2.827 -0.2665  1.6865 -1.5378
  194MOL0     H26766   6.665  12.245   3.013  0.8703 -1.1540 -0.2226
  194MOL0     H26767   6.515  12.199   2.918 -0.0179  3.2640  1.6253
  194MOL0     H26768   6.742  12.346   2.608 -0.0880 -4.6853 -2.6659
  194MOL0     H26769   6.379  11.695   2.880  1.8190  2.6021 -1.2189
  194MOL0     H26770   6.188  11.400   2.916  3.4839 -1.7526  0.3273
  194MOL0     H26771   6.179  11.561   2.859  1.8187  1.9353  0.4819
  194MOL0     H26772   6.183  11.427   2.747 -3.0851  2.3902  0.8082
  195MOL0     O26773   4.679   6.172   6.926  0.6551  0.4679 -0.4473
  195MOL0     C26774   4.744   6.097   7.009  0.6482 -1.1159  0.9000
  195MOL0     O26775   4.863   6.038   6.973  0.5319  0.1864 -0.0530
  195MOL0     C26776   4.922   6.036   6.843  0.6226 -0.1691 -0.0664
  195MOL0     C26777   4.856   6.027   6.722 -0.3079 -0.7120 -0.4743
  195MOL0     C26778   4.925   6.015   6.604 -0.3989  0.1178 -0.3897
  195MOL0     C26779   5.059   5.995   6.598  0.0943 -0.6595 -0.1930
  195MOL0     O26780   5.126   5.971   6.480 -0.7077  0.0446  0.2470
  195MOL0     C26781   5.051   5.986   6.357 -0.5121 -0.3982 -0.0585
  195MOL0     C26782   5.146   5.960   6.247 -0.8780 -0.1698 -0.4072
  195MOL0     C26783   5.250   6.065   6.209 -0.2114  0.4342  0.5109
  195MOL0     C26784   5.362   6.077   6.312 -0.6477 -1.4112  0.0931
  195MOL0     C26785   5.462   6.190   6.273  0.5648  0.1667 -0.6073
  195MOL0     C26786   5.554   6.149   6.159 -0.5895 -0.7050  0.7030
  195MOL0     C26787   5.653   6.256   6.130  0.3999 -0.1892 -0.4835
  195MOL0     C26788   5.762   6.201   6.039  0.1860  0.2382 -0.0587
  195MOL0     N26789   5.871   6.302   6.014 -0.7810  0.0066 -0.0841
  195MOL0     C26790   5.849   6.441   5.995  0.2133  0.5761  0.1411
  195MOL0     C26791   5.957   6.472   5.922 -0.0013  0.2000 -0.1227
  195MOL0     C26792   5.985   6.616   5.869  1.1560  0.7320 -0.4614
  195MOL0     C26793   5.896   6.629   5.748  1.2727  0.1098 -0.2986
  195MOL0     C26794   5.937   6.747   5.666 -0.1998 -1.3575  0.6611
  195MOL0     C26795   5.860   6.873   5.708 -0.6096 -0.4168 -0.2873
  195MOL0     O26796   5.879   6.925   5.842  0.0181 -0.2377  0.3792
  195MOL0     C26797   6.004   6.981   5.877 -0.1197  0.4037 -0.7440
  195MOL0     C26798   6.027   7.013   6.014  0.7761 -1.2203 -0.9831
  195MOL0     C26799   6.157   7.039   6.071  0.3619  0.7193  0.2606
  195MOL0     C26800   6.178   7.041   6.218 -0.2425  0.5377  0.5307
  195MOL0     C26801   6.268   7.054   5.984 -0.0402 -0.1707 -0.7868
  195MOL0     C26802   6.412   7.098   6.022  0.2459  0.1577 -0.3233
  195MOL0     O26803   6.438   7.111   6.159  0.1738 -0.9831 -0.1813
  195MOL0     C26804   6.556   7.164   6.205  1.1223  0.0246  0.5153
  195MOL0     C26805   6.605   7.288   6.155 -0.2113 -0.0865 -0.9248
  195MOL0     C26806   6.739   7.314   6.191 -0.1303 -0.4264 -0.3888
  195MOL0     C26807   6.813   7.241   6.281 -0.4714 -0.4003  0.1243
  195MOL0     O26808   6.949   7.251   6.303  0.1291 -0.1968  0.4385
  195MOL0     C26809   7.034   7.344   6.243 -0.5126 -0.3447 -0.5395
  195MOL0     C26810   7.181   7.310   6.232 -1.2452  0.0654  0.0483
  195MOL0     C26811   7.237   7.259   6.362  0.8283 -0.1470  0.2246
  195MOL0     C26812   7.379   7.246   6.353 -0.3369  0.1521 -0.1069
  195MOL0     C26813   7.449   7.199   6.478  0.5598 -0.2194  1.1883
  195MOL0     C26814   7.596   7.201   6.457 -0.2690 -0.1332  0.2866
  195MOL0     C26815   7.669   7.144   6.578  0.7073 -0.3048  0.1952
  195MOL0     C26816   7.643   6.992   6.593 -0.2107  1.0221  0.2283
  195MOL0    Cl26817   7.779   6.928   6.704 -0.2210 -0.3796 -0.3068
  195MOL0     C26818   6.747   7.131   6.348  1.0598 -0.0252 -0.3346
  195MOL0     C26819   6.621   7.090   6.306 -0.4435 -0.0209  0.7057
  195MOL0     O26820   6.499   7.090   5.933  0.0862 -0.0284  0.1484
  195MOL0     C26821   6.242   7.034   5.851  0.7069  0.1403  0.4820
  195MOL0     C26822   6.118   6.998   5.799  0.5469  0.2487  0.0972
  195MOL0     N26823   6.047   6.358   5.916  0.6271 -0.1108 -0.4734
  195MOL0     N26824   5.982   6.262   5.956 -0.5677  0.0503  0.1164
  195MOL0     C26825   5.133   6.018   6.719  0.4245  1.3568 -0.0181
  195MOL0     C26826   5.064   6.030   6.841  0.0742 -0.6961  0.9832
  195MOL0     C26827   4.713   6.100   7.158 -0.4047 -0.6011  0.1338
  195MOL0     C26828   4.820   6.080   7.251  0.9072 -0.4644 -0.3169
  195MOL0     C26829   4.796   6.066   7.387  0.2326 -0.5448 -1.2743
  195MOL0     C26830   4.668   6.073   7.440 -0.6074  0.7971  0.4678
  195MOL0     O26831   4.651   6.060   7.575 -0.3104 -0.3951 -0.4360
  195MOL0     C26832   4.522   6.066   7.637  0.2546 -0.0175 -0.5343
  195MOL0     C26833   4.450   5.933   7.608 -0.5119  0.3204 -0.1515
  195MOL0     C26834   4.337   5.902   7.699 -0.2785  0.6678 -0.2855
  195MOL0     C26835   4.219   5.994   7.695 -0.8240  0.4213  0.7668
  195MOL0     C26836   4.118   5.951   7.792  0.2478  0.2615  0.4500
  195MOL0     C26837   4.036   5.898   7.867  0.7600 -0.2164 -0.3968
  195MOL0     C26838   4.566   6.107   7.347 -0.3890  0.4887 -0.7569
  195MOL0     C26839   4.583   6.105   7.208  0.2248 -0.3043 -0.2408
  195MOL0     C26840   4.467   6.099   7.114  0.2337  0.5790 -0.8571
  195MOL0     H26841   4.747   6.025   6.716 -0.5305  2.1560  0.6975
  195MOL0     H26842   4.870   5.994   6.513  0.4547 -1.5830 -0.5430
  195MOL0     H26843   5.016   6.088   6.338 -1.4035 -1.0868 -2.4593
  195MOL0     H26844   4.972   5.911   6.358 -0.7168 -0.2560  2.8966
  195MOL0     H26845   5.187   5.865   6.284 -0.6217  0.4041  0.8317
  195MOL0     H26846   5.090   5.940   6.155  1.4471 -1.2514 -1.6869
  195MOL0     H26847   5.305   6.037   6.118  0.7311  0.1120  1.1697
  195MOL0     H26848   5.196   6.157   6.186 -1.0187 -0.2836 -0.6043
  195MOL0     H26849   5.304   6.128   6.389 -1.1803 -0.9731 -0.5992
  195MOL0     H26850   5.408   5.986   6.352  2.4034  0.2040  0.5798
  195MOL0     H26851   5.520   6.215   6.362  1.4416  0.7713 -1.3280
  195MOL0     H26852   5.402   6.278   6.247  1.3970  0.7752 -0.4961
  195MOL0     H26853   5.612   6.065   6.198  0.3394 -1.8906 -2.8807
  195MOL0     H26854   5.503   6.129   6.065  0.3872 -1.8067  0.3837
  195MOL0     H26855   5.708   6.275   6.223 -1.5354  0.7124  0.5395
  195MOL0     H26856   5.606   6.351   6.102  0.0233 -0.8522 -2.2222
  195MOL0     H26857   5.795   6.102   6.072 -0.9588 -0.5403 -1.1686
  195MOL0     H26858   5.713   6.182   5.943  1.0677  1.4116 -0.7672
  195MOL0     H26859   5.760   6.502   6.000 -1.3092 -1.3696 -1.5751
  195MOL0     H26860   6.092   6.628   5.852  1.0967  0.1621 -1.2834
  195MOL0     H26861   5.943   6.686   5.942 -1.9650  1.0525 -2.3910
  195MOL0     H26862   5.887   6.543   5.680 -0.9721  0.7426 -0.9026
  195MOL0     H26863   5.793   6.633   5.785  1.0064 -3.6445 -0.2773
  195MOL0     H26864   6.045   6.767   5.674 -0.8417  2.6489  1.5756
  195MOL0     H26865   5.909   6.723   5.563 -0.3880 -2.3379  0.9345
  195MOL0     H26866   5.887   6.957   5.642 -3.9106  1.3576  0.3596
  195MOL0     H26867   5.755   6.853   5.686 -0.3658 -1.1812 -0.7864
  195MOL0     H26868   5.940   7.007   6.080  2.6873  0.7574  1.9815
  195MOL0     H26869   6.081   7.031   6.269 -0.2261 -1.7441  0.1914
  195MOL0     H26870   6.223   7.131   6.262 -0.0156 -0.1035  1.6666
  195MOL0     H26871   6.236   6.952   6.245  2.8053  2.8288  2.2014
  195MOL0     H26872   6.559   7.348   6.078  0.1506  1.7347  0.2215
  195MOL0     H26873   6.796   7.391   6.140 -2.5026  1.7426  0.0371
  195MOL0     H26874   7.001   7.358   6.139  1.1654 -0.7832 -1.1599
  195MOL0     H26875   7.017   7.436   6.300  0.1551 -0.5752  0.0373
  195MOL0     H26876   7.202   7.236   6.155  1.2164  1.4769 -0.7500
  195MOL0     H26877   7.241   7.397   6.204  0.6136 -0.3899  2.3593
  195MOL0     H26878   7.189   7.162   6.383  1.9952 -0.6108  0.8533
  195MOL0     H26879   7.216   7.326   6.446  0.0003  1.4329 -1.1844
  195MOL0     H26880   7.416   7.345   6.326  1.2886 -0.9602 -2.3132
  195MOL0     H26881   7.401   7.182   6.267  2.9198  0.5168  0.3442
  195MOL0     H26882   7.428   7.236   6.579  0.9203  1.7983  0.5590
  195MOL0     H26883   7.417   7.095   6.487 -2.6756  0.8520  3.8755
  195MOL0     H26884   7.628   7.303   6.437  0.9925 -1.1355 -3.6671
  195MOL0     H26885   7.609   7.141   6.367 -0.0640 -0.5840  0.6151
  195MOL0     H26886   7.643   7.202   6.667  1.2168  1.0846 -0.5308
  195MOL0     H26887   7.776   7.164   6.563  0.9752 -2.0307 -0.5139
  195MOL0     H26888   7.662   6.950   6.493 -0.1555 -1.0963  1.0859
  195MOL0     H26889   7.543   6.965   6.626  0.3288  0.2086  1.2799
  195MOL0     H26890   6.795   7.067   6.422  2.7702  1.7360  0.1570
  195MOL0     H26891   6.582   6.999   6.350  1.1109 -1.5514 -0.9236
  195MOL0     H26892   6.328   7.048   5.786 -1.6442 -1.6870 -3.3822
  195MOL0     H26893   6.099   6.989   5.693  2.4686 -1.9137 -0.1383
  195MOL0     H26894   5.241   6.004   6.714  0.5840 -0.6966  4.3361
  195MOL0     H26895   5.123   6.023   6.932 -2.2288 -1.6291  2.5174
  195MOL0     H26896   4.924   6.088   7.219  1.2948  1.8890  1.3036
  195MOL0     H26897   4.875   6.062   7.462  1.7133  0.2749 -2.7237
  195MOL0     H26898   4.529   6.084   7.745  0.8102  0.5036 -0.6469
  195MOL0     H26899   4.459   6.145   7.597 -2.8297 -4.1156 -4.8392
  195MOL0     H26900   4.522   5.851   7.616 -0.8129  0.0752  0.0933
  195MOL0     H26901   4.410   5.932   7.505  0.1477 -1.3901 -0.4340
  195MOL0     H26902   4.303   5.802   7.670  3.8234 -0.4110 -2.1643
  195MOL0     H26903   4.377   5.900   7.801 -0.3809 -0.2882 -0.2489
  195MOL0     H26904   4.179   5.994   7.593  0.1306 -0.0871  0.3797
  195MOL0     H26905   4.252   6.090   7.736 -2.1124  1.6062 -0.8531
  195MOL0     H26906   3.978   5.835   7.931 -0.0975  0.4259 -0.5317
  195MOL0     H26907   4.467   6.115   7.392  1.0234 -0.4989  2.9673
  195MOL0     H26908   4.367   6.093   7.157 -0.6410  2.2205 -2.5109
  195MOL0     H26909   4.472   6.192   7.056  1.0214 -0.3232 -2.3072
  195MOL0     H26910   4.476   6.020   7.039 -1.1402  0.6995 -1.1753
  196MOL0     O26911   9.772   5.920  10.427  0.4120 -0.5265  0.6488
  196MOL0     C26912   9.720   5.935  10.533 -0.5468 -0.4354  0.4796
  196MOL0     O26913   9.771   5.892  10.656 -0.4314  1.0077  0.7328
  196MOL0     C26914   9.897   5.831  10.667  0.2184 -0.3793  0.2004
  196MOL0     C26915   9.945   5.734  10.579 -1.0672  0.2468  0.3809
  196MOL0     C26916  10.079   5.686  10.586 -0.3183 -0.1861 -1.3396
  196MOL0     C26917  10.167   5.746  10.685  0.6028  0.0326  0.3517
  196MOL0     O26918  10.303   5.723  10.689  0.2333  0.0970 -0.1924
  196MOL0     C26919  10.323   5.580  10.712  0.2041  0.7620 -0.0621
  196MOL0     C26920  10.462   5.551  10.771 -0.8155 -0.4138 -0.0158
  196MOL0     C26921  10.482   5.641  10.897 -0.7209 -0.3904 -0.1404
  196MOL0     C26922  10.623   5.616  10.959  0.5132  0.3684 -0.3850
  196MOL0     C26923  10.629   5.663  11.104 -0.2947  0.2358 -0.3899
  196MOL0     C26924  10.764   5.618  11.164 -1.4199  0.1894  0.1802
  196MOL0     C26925  10.796   5.687  11.301  1.0448 -0.1766 -0.1097
  196MOL0     C26926  10.682   5.671  11.402  0.4476 -1.1651 -1.4401
  196MOL0     N26927  10.684   5.752  11.522  0.4455 -0.1117 -0.5251
  196MOL0     C26928  10.794   5.743  11.617  0.0126 -0.2596  0.4320
  196MOL0     C26929  10.747   5.807  11.728  0.0149  0.0564 -0.0281
  196MOL0     C26930  10.805   5.840  11.857  0.5193  0.1599 -0.9716
  196MOL0     C26931  10.918   5.950  11.849 -0.4921  0.0531  0.1367
  196MOL0     C26932  10.957   5.988  11.991  0.7352  0.2369  0.4241
  196MOL0     C26933  11.060   6.096  11.990 -0.3542 -0.0087  0.4818
  196MOL0     O26934  11.176   6.047  11.933 -0.1178 -0.5223 -0.2278
  196MOL0     C26935  11.297   6.097  11.957 -0.7042 -0.4710 -0.2615
  196MOL0     C26936  11.399   6.065  11.867  1.5066  0.0875 -0.4101
  196MOL0     C26937  11.528   6.116  11.877 -0.6599 -0.4097  0.2833
  196MOL0     C26938  11.621   6.071  11.768 -0.1065 -0.2295 -0.4612
  196MOL0     C26939  11.566   6.191  11.993  0.4173 -0.0854 -0.2695
  196MOL0     C26940  11.706   6.228  12.020  1.0385 -0.2736 -0.8415
  196MOL0     O26941  11.733   6.329  12.100 -0.2943  0.1417  0.2448
  196MOL0     C26942  11.851   6.401  12.086 -0.1398  0.0292 -0.0608
  196MOL0     C26943  11.983   6.357  12.058 -1.6128 -0.2949 -0.1662
  196MOL0     C26944  12.085   6.450  12.070 -0.5794 -1.0038  0.1776
  196MOL0     C26945  12.060   6.587  12.085 -0.8190 -0.3478  0.2356
  196MOL0     O26946  12.161   6.685  12.101  0.3013  0.8334 -0.5800
  196MOL0     C26947  12.272   6.678  12.013  0.2684  0.0573 -0.8196
  196MOL0     C26948  12.327   6.819  11.988  0.0954 -0.2189  0.6817
  196MOL0     C26949  12.483   6.829  11.988  0.1411  0.2651  1.2177
  196MOL0     C26950  12.552   6.773  11.864  0.1736 -0.1563  0.1714
  196MOL0     C26951  12.701   6.817  11.844 -0.5300  0.1268 -0.6451
  196MOL0     C26952  12.748   6.781  11.707  0.7909 -0.1997 -0.2523
  196MOL0     C26953  12.891   6.823  11.681  1.2107 -0.8162  1.0686
  196MOL0     C26954  12.957   6.784  11.539  0.5712 -0.4009  0.2623
  196MOL0    Cl26955  12.880   6.861  11.390  0.4737  0.2745  0.7555
  196MOL0     C26956  11.929   6.627  12.103  0.0254 -0.6017 -0.1824
  196MOL0     C26957  11.819   6.536  12.108 -0.1297  0.3535 -0.0230
  196MOL0     O26958  11.790   6.170  11.956 -0.1975  0.8013  0.3565
  196MOL0     C26959  11.465   6.221  12.086 -0.2876 -0.4132  1.3439
  196MOL0     C26960  11.335   6.169  12.071 -0.2203 -0.5109  0.6984
  196MOL0     N26961  10.620   5.854  11.703 -0.9890 -0.3819  0.5835
  196MOL0     N26962  10.579   5.823  11.578 -0.2675 -0.3835 -1.0560
  196MOL0     C26963  10.111   5.842  10.765  0.7055 -0.5190 -0.1896
  196MOL0     C26964   9.977   5.882  10.765  0.8152 -0.0879  0.1042
  196MOL0     C26965   9.609   6.036  10.537  0.4026  0.2231 -0.1429
  196MOL0     C26966   9.581   6.100  10.658 -0.3879  0.1596  0.5308
  196MOL0     C26967   9.477   6.193  10.678 -0.7069  0.0702  0.2530
  196MOL0     C26968   9.395   6.224  10.576 -0.2924  0.0133  1.0721
  196MOL0     O26969   9.286   6.302  10.601  0.0175 -0.3660 -0.1379
  196MOL0     C26970   9.256   6.411  10.511  0.5519 -0.3759  0.7304
  196MOL0     C26971   9.335   6.536  10.552 -0.2540  1.6778 -0.2122
  196MOL0     C26972   9.338   6.644  10.441  0.1794 -0.4864  0.6711
  196MOL0     C26973   9.427   6.771  10.480 -0.5244 -0.2110  0.3558
  196MOL0     C26974   9.413   6.864  10.367 -0.2874 -1.0125 -0.1882
  196MOL0     C26975   9.387   6.945  10.278  0.0926  0.4730 -0.3526
  196MOL0     C26976   9.425   6.159  10.455  0.2701 -0.4382  0.7230
  196MOL0     C26977   9.523   6.062  10.431 -0.9784 -0.3495  0.8683
  196MOL0     C26978   9.536   5.991  10.300 -0.1075 -0.0801  0.8415
  196MOL0     H26979   9.872   5.702  10.505 -0.0186  0.1446 -0.6291
  196MOL0     H26980  10.124   5.605  10.530  0.1109 -2.3261  1.8019
  196MOL0     H26981  10.318   5.546  10.609 -0.3034  0.9081 -0.0885
  196MOL0     H26982  10.243   5.543  10.777  1.6447  0.3774  1.5567
  196MOL0     H26983  10.471   5.445  10.797 -1.3248  0.2241  3.1247
  196MOL0     H26984  10.542   5.579  10.702 -0.7866 -0.7697 -0.1311
  196MOL0     H26985  10.459   5.746  10.876  2.1277  0.3117 -0.2717
  196MOL0     H26986  10.408   5.614  10.973 -0.8120 -0.2642 -0.1853
  196MOL0     H26987  10.643   5.509  10.953 -1.9259 -0.1850  0.3689
  196MOL0     H26988  10.699   5.683  10.918 -0.2502  3.1644  2.3847
  196MOL0     H26989  10.540   5.619  11.150 -0.5756  0.0035 -1.1360
  196MOL0     H26990  10.623   5.772  11.109 -0.0733  0.1930  1.5301
  196MOL0     H26991  10.759   5.509  11.171  3.1561 -0.1733  1.0735
  196MOL0     H26992  10.847   5.629  11.093 -1.9871 -1.5780 -0.8126
  196MOL0     H26993  10.802   5.795  11.284 -3.4475  0.1654 -0.8414
  196MOL0     H26994  10.886   5.641  11.342 -0.8278 -1.7962  2.5329
  196MOL0     H26995  10.591   5.700  11.349 -1.6671 -0.2048  2.3617
  196MOL0     H26996  10.684   5.564  11.426 -0.4424 -0.6185  1.4812
  196MOL0     H26997  10.886   5.689  11.598  1.0612  0.6748  2.4657
  196MOL0     H26998  10.848   5.754  11.909  2.0095  2.7156  2.3848
  196MOL0     H26999  10.733   5.871  11.934 -0.4540 -0.6205 -1.5471
  196MOL0     H27000  11.001   5.907  11.793  0.2701  1.3872  0.1841
  196MOL0     H27001  10.875   6.031  11.789 -4.0651 -2.6843 -1.3257
  196MOL0     H27002  10.873   6.029  12.048  0.3792  0.1731 -0.0513
  196MOL0     H27003  11.001   5.905  12.047 -1.0064 -1.0011  0.0458
  196MOL0     H27004  11.034   6.188  11.936  3.4332  0.8971 -0.1321
  196MOL0     H27005  11.078   6.117  12.096  2.4435  4.3585 -0.6041
  196MOL0     H27006  11.371   5.990  11.794  0.7180  1.7297 -1.8416
  196MOL0     H27007  11.671   6.146  11.706 -1.9583  0.6822 -0.9360
  196MOL0     H27008  11.567   6.018  11.689  0.1498 -0.8043 -0.2504
  196MOL0     H27009  11.696   6.003  11.809  0.8014  1.6322  1.1358
  196MOL0     H27010  12.003   6.250  12.055  0.9612  0.0624  1.2860
  196MOL0     H27011  12.189   6.423  12.055 -1.0077 -1.6618 -2.0872
  196MOL0     H27012  12.345   6.604  12.046 -2.5753 -3.0074 -0.9335
  196MOL0     H27013  12.237   6.652  11.913 -0.7571 -1.2211 -0.1539
  196MOL0     H27014  12.281   6.845  11.892  0.6359 -0.1985  0.4243
  196MOL0     H27015  12.290   6.893  12.060  2.2393  1.3984  0.2056
  196MOL0     H27016  12.533   6.792  12.078  0.2753  1.4817  1.6556
  196MOL0     H27017  12.507   6.935  11.987  1.6262  0.0239 -2.1042
  196MOL0     H27018  12.506   6.812  11.773  0.8263  0.2115 -0.0090
  196MOL0     H27019  12.552   6.664  11.863 -0.0819 -0.1573  0.2190
  196MOL0     H27020  12.711   6.925  11.856  2.0972 -0.2609  1.7016
  196MOL0     H27021  12.765   6.767  11.917 -2.2383  1.3797  1.8880
  196MOL0     H27022  12.688   6.839  11.635 -3.3391  0.1850  3.1151
  196MOL0     H27023  12.733   6.673  11.699  0.6803 -0.1703 -0.4459
  196MOL0     H27024  12.951   6.778  11.761  1.1945 -0.5837  1.2122
  196MOL0     H27025  12.884   6.932  11.688 -1.6980 -0.8431  0.0736
  196MOL0     H27026  12.947   6.676  11.525 -0.2988 -0.3967  0.7608
  196MOL0     H27027  13.060   6.821  11.537  0.2691  0.4300 -0.2885
  196MOL0     H27028  11.911   6.723  12.150 -1.6199 -1.6385  1.4814
  196MOL0     H27029  11.719   6.573  12.128  0.1144  1.4660 -0.7170
  196MOL0     H27030  11.483   6.270  12.181 -0.2095  0.9101  0.6728
  196MOL0     H27031  11.263   6.184  12.151  0.9789 -1.0160  1.9003
  196MOL0     H27032  10.181   5.905  10.819  1.8406  1.0408 -3.2241
  196MOL0     H27033   9.943   5.961  10.832  2.2559  0.0164  0.7508
  196MOL0     H27034   9.644   6.079  10.744  0.0297  1.3085  0.5183
  196MOL0     H27035   9.449   6.234  10.775 -0.2596  3.8250 -1.0530
  196MOL0     H27036   9.276   6.386  10.406 -3.1449  1.2043 -0.5343
  196MOL0     H27037   9.150   6.439  10.516  0.9242  1.0556  1.0970
  196MOL0     H27038   9.432   6.490  10.574  2.4302  4.4957 -4.5109
  196MOL0     H27039   9.300   6.575  10.648  2.7732 -3.6817  3.5709
  196MOL0     H27040   9.367   6.601  10.345 -2.6155  2.6034 -1.7745
  196MOL0     H27041   9.242   6.689  10.417  0.3095 -1.5384 -2.2432
  196MOL0     H27042   9.534   6.750  10.491 -0.1648  1.9725  1.3787
  196MOL0     H27043   9.393   6.811  10.575  1.1791 -0.9054  1.3123
  196MOL0     H27044   9.363   7.005  10.192  1.7715 -1.0563 -1.9840
  196MOL0     H27045   9.342   6.183  10.388 -1.5496  1.6700  3.5399
  196MOL0     H27046   9.524   5.882  10.311  0.4193 -0.2524 -0.1712
  196MOL0     H27047   9.466   6.042  10.233  0.3135  1.1386  1.3039
  196MOL0     H27048   9.634   6.009  10.256  0.1994  3.3709  2.6163
  197MOL0     O27049   4.321   3.758   1.100  0.5426  0.3803 -0.4694
  197MOL0     C27050   4.250   3.662   1.089  0.0333  0.7833  1.1838
  197MOL0     O27051   4.293   3.539   1.051  0.3672 -0.3330 -0.2824
  197MOL0     C27052   4.425   3.528   1.040 -0.6006  0.1106 -1.0687
  197MOL0     C27053   4.476   3.495   0.914 -0.2309 -1.0305 -0.7337
  197MOL0     C27054   4.617   3.498   0.902 -0.3869 -0.7652  0.6358
  197MOL0     C27055   4.708   3.498   1.007  0.0748 -0.0468 -0.5145
  197MOL0     O27056   4.843   3.475   0.975  0.7675  0.0269  0.4633
  197MOL0     C27057   4.920   3.437   1.092  1.0174 -0.3179  0.7060
  197MOL0     C27058   5.057   3.423   1.049 -0.8684 -0.5988  0.1153
  197MOL0     C27059   5.155   3.411   1.171  0.6705  0.5995  0.4593
  197MOL0     C27060   5.296   3.449   1.126 -1.1074 -0.8465 -0.2949
  197MOL0     C27061   5.401   3.384   1.218 -0.0567  0.2482 -0.1143
  197MOL0     C27062   5.415   3.228   1.212 -0.1928 -0.5439  0.4859
  197MOL0     C27063   5.487   3.170   1.088 -0.2571  0.4695 -0.5870
  197MOL0     C27064   5.458   3.026   1.060 -0.8321 -0.5336 -0.3704
  197MOL0     N27065   5.317   2.996   1.033  0.0537 -0.0952 -0.0277
  197MOL0     C27066   5.220   3.075   0.968  0.3738 -0.5608  0.6345
  197MOL0     C27067   5.101   3.024   1.003  0.9779  0.2056 -0.0590
  197MOL0     C27068   4.962   3.066   0.965  0.0708  1.1404  0.3908
  197MOL0     C27069   4.850   2.968   0.930  0.4420 -0.0052  0.3325
  197MOL0     C27070   4.723   3.035   0.876  0.2739  0.0358  0.1181
  197MOL0     C27071   4.669   3.131   0.983 -0.7486  0.3326  0.0532
  197MOL0     O27072   4.662   3.087   1.115 -0.5709  0.3093 -0.7787
  197MOL0     C27073   4.595   3.167   1.204  0.1294 -0.6880  0.1842
  197MOL0     C27074   4.659   3.224   1.316  0.4033 -0.4325 -0.1529
  197MOL0     C27075   4.594   3.305   1.397  0.4404 -0.6014 -0.4876
  197MOL0     C27076   4.668   3.362   1.508  0.7169  0.1276  0.7407
  197MOL0     C27077   4.460   3.328   1.390 -0.7098 -0.4607 -0.1267
  197MOL0     C27078   4.377   3.405   1.493  0.2791  0.6934  0.2318
  197MOL0     O27079   4.258   3.440   1.447 -0.0986 -0.1547  0.3720
  197MOL0     C27080   4.167   3.512   1.517  1.7844 -0.5608 -0.6193
  197MOL0     C27081   4.190   3.612   1.614 -0.2612  0.7099  0.0623
  197MOL0     C27082   4.084   3.691   1.667  0.1642  0.6613 -0.0202
  197MOL0     C27083   3.950   3.666   1.637 -0.4635  0.1675  0.1166
  197MOL0     O27084   3.865   3.742   1.697 -0.5455 -0.1233  0.0819
  197MOL0     C27085   3.724   3.702   1.688  0.2372 -0.4961  0.9561
  197MOL0     C27086   3.640   3.787   1.784 -0.0144 -0.2417  0.0385
  197MOL0     C27087   3.513   3.700   1.812 -0.7041  0.5578 -0.0606
  197MOL0     C27088   3.401   3.777   1.884  0.2183  0.8904  0.0576
  197MOL0     C27089   3.299   3.679   1.966  0.6333 -0.4015  1.0914
  197MOL0     C27090   3.182   3.752   2.044  1.0154  0.6362  0.2020
  197MOL0     C27091   3.115   3.660   2.144 -0.2795  1.0467 -0.4519
  197MOL0     C27092   3.038   3.741   2.254 -0.2275  0.0641  0.4582
  197MOL0    Cl27093   2.947   3.865   2.166 -0.1104  0.2198 -0.2659
  197MOL0     C27094   3.924   3.564   1.541 -0.1364  0.1622 -0.4740
  197MOL0     C27095   4.033   3.499   1.477 -0.6210  0.0747 -0.2672
  197MOL0     O27096   4.416   3.426   1.608  0.2144 -0.6954 -0.3038
  197MOL0     C27097   4.390   3.262   1.290 -0.3728 -0.8875  0.5727
  197MOL0     C27098   4.457   3.186   1.196  0.7407  0.2031  0.2621
  197MOL0     N27099   5.121   2.902   1.066 -0.7328  0.3994  0.9241
  197MOL0     N27100   5.252   2.881   1.071 -0.3006 -0.0440 -0.6889
  197MOL0     C27101   4.654   3.524   1.139 -0.5527  0.2575 -0.0578
  197MOL0     C27102   4.513   3.537   1.149 -0.7659 -0.2311  0.2266
  197MOL0     C27103   4.108   3.675   1.115 -0.4485  0.4474  0.0490
  197MOL0     C27104   4.033   3.549   1.136  0.6183 -0.3938  0.2112
  197MOL0     C27105   3.899   3.559   1.155  0.8682 -0.6033  0.7047
  197MOL0     C27106   3.835   3.684   1.159  0.6385 -0.0905 -0.0760
  197MOL0     O27107   3.699   3.685   1.177  1.0382 -0.3940 -0.0346
  197MOL0     C27108   3.616   3.804   1.166  0.0334  0.2214 -0.0268
  197MOL0     C27109   3.601   3.848   1.310 -0.0397 -0.6338 -0.7101
  197MOL0     C27110   3.506   3.962   1.317 -0.7856  0.6474  0.5019
  197MOL0     C27111   3.513   4.044   1.448 -0.3527  0.8429  0.2576
  197MOL0     C27112   3.380   4.083   1.499  0.5418  0.3774  0.0203
  197MOL0     C27113   3.272   4.117   1.531  0.1899 -0.0821  0.1907
  197MOL0     C27114   3.904   3.797   1.130  0.0564 -0.0042 -0.4347
  197MOL0     C27115   4.035   3.799   1.115 -0.5104 -0.6088 -0.1579
  197MOL0     C27116   4.105   3.922   1.072 -1.0340  0.1775 -0.6627
  197MOL0     H27117   4.422   3.492   0.819 -3.1693 -1.9451  0.8503
  197MOL0     H27118   4.669   3.490   0.807  1.1913 -1.6256  1.5233
  197MOL0     H27119   4.884   3.353   1.153  0.4502  1.6460  3.2854
  197MOL0     H27120   4.927   3.514   1.169 -0.9389 -0.1864  0.7986
  197MOL0     H27121   5.075   3.347   0.972  3.4745  0.2073  0.0530
  197MOL0     H27122   5.087   3.510   0.990  2.5679 -0.9464  1.1401
  197MOL0     H27123   5.124   3.478   1.251  0.6474 -0.0129  0.9753
  197MOL0     H27124   5.138   3.309   1.207 -0.0419  0.4692 -0.2372
  197MOL0     H27125   5.310   3.427   1.020 -0.8931 -5.0652  0.4310
  197MOL0     H27126   5.296   3.555   1.152 -0.7712 -0.7987 -0.4893
  197MOL0     H27127   5.371   3.418   1.317 -2.2855  1.1704 -1.0438
  197MOL0     H27128   5.499   3.428   1.198 -0.1413  0.6437  0.3301
  197MOL0     H27129   5.482   3.191   1.291  3.9158  4.1521 -0.2925
  197MOL0     H27130   5.314   3.192   1.234 -0.7200  1.3434  1.3947
  197MOL0     H27131   5.592   3.189   1.109 -0.4252 -0.3772  1.1998
  197MOL0     H27132   5.457   3.230   1.002  0.1246  1.0182 -0.3432
  197MOL0     H27133   5.526   3.003   0.978 -0.4297 -1.9183  0.3193
  197MOL0     H27134   5.493   2.952   1.133  1.9583 -0.1961 -1.2467
  197MOL0     H27135   5.229   3.174   0.923 -3.0444  0.1288  1.1739
  197MOL0     H27136   4.973   3.122   0.872 -0.0911  0.9750  0.2738
  197MOL0     H27137   4.937   3.136   1.045 -0.5347  1.6534 -0.2343
  197MOL0     H27138   4.890   2.902   0.852 -1.0456  0.0988 -0.5498
  197MOL0     H27139   4.826   2.915   1.023 -0.4019  1.3865  0.9347
  197MOL0     H27140   4.737   3.090   0.783 -1.4213 -0.4641 -0.4592
  197MOL0     H27141   4.645   2.959   0.864  1.3321 -1.3150  1.4398
  197MOL0     H27142   4.739   3.215   0.991 -1.2893  0.6016  3.6199
  197MOL0     H27143   4.577   3.176   0.947 -0.4838  1.8881  1.2116
  197MOL0     H27144   4.764   3.200   1.328  0.5037  0.0821  0.0395
  197MOL0     H27145   4.770   3.369   1.470  0.0432  1.1078 -1.0533
  197MOL0     H27146   4.650   3.296   1.593 -1.1712 -0.8392 -0.3236
  197MOL0     H27147   4.652   3.468   1.529  2.7178  0.1664  2.3335
  197MOL0     H27148   4.294   3.622   1.643  0.3427 -0.7749 -1.4350
  197MOL0     H27149   4.103   3.761   1.747  3.1137  2.8159 -2.3884
  197MOL0     H27150   3.685   3.729   1.589  1.5888  2.4283  1.1279
  197MOL0     H27151   3.714   3.595   1.708  1.1167 -0.6362  0.6901
  197MOL0     H27152   3.703   3.799   1.872  1.0327 -3.7251 -0.0668
  197MOL0     H27153   3.608   3.883   1.742 -4.1660 -2.1119 -1.6018
  197MOL0     H27154   3.556   3.616   1.867 -0.7941  1.9500  2.2283
  197MOL0     H27155   3.466   3.677   1.716  0.3273  0.3660 -0.5345
  197MOL0     H27156   3.341   3.851   1.831 -0.8744 -0.2915 -0.4013
  197MOL0     H27157   3.444   3.829   1.970 -1.8214  2.0157  0.4631
  197MOL0     H27158   3.251   3.609   1.897 -0.1056  0.6730  0.4833
  197MOL0     H27159   3.350   3.618   2.041  2.0438 -0.8040 -0.1286
  197MOL0     H27160   3.110   3.792   1.972  1.6433  0.9236 -0.2738
  197MOL0     H27161   3.222   3.839   2.097 -1.9724  0.6419  2.7799
  197MOL0     H27162   3.186   3.592   2.193 -0.9156 -0.6284 -1.7527
  197MOL0     H27163   3.047   3.596   2.087  2.2797 -1.4503 -0.9560
  197MOL0     H27164   3.106   3.800   2.316  0.0773  1.4057 -1.0768
  197MOL0     H27165   2.965   3.681   2.310 -1.2212 -0.2873 -1.1567
  197MOL0     H27166   3.822   3.541   1.510  0.0418 -1.2686 -0.0539
  197MOL0     H27167   4.011   3.429   1.397  0.3807 -1.8019  1.0212
  197MOL0     H27168   4.283   3.278   1.281  0.3274  4.0703 -2.9779
  197MOL0     H27169   4.391   3.157   1.115 -0.1799  2.7584 -0.0027
  197MOL0     H27170   4.712   3.537   1.230 -0.1484 -0.3744 -0.2189
  197MOL0     H27171   4.470   3.558   1.246 -3.0206  1.6580 -1.0690
  197MOL0     H27172   4.083   3.454   1.117  1.8125  0.5412 -1.6840
  197MOL0     H27173   3.839   3.468   1.161  3.0318 -2.1293  0.4375
  197MOL0     H27174   3.659   3.877   1.097 -2.2950  1.6483 -0.0937
  197MOL0     H27175   3.515   3.774   1.135 -0.0697 -0.3635  0.8486
  197MOL0     H27176   3.690   3.891   1.357 -2.3494 -0.7153  4.3357
  197MOL0     H27177   3.574   3.758   1.367 -0.4326  0.1710  0.3931
  197MOL0     H27178   3.526   4.023   1.229  1.1524  0.7748  0.9984
  197MOL0     H27179   3.400   3.936   1.308 -0.7716  1.2864 -2.6408
  197MOL0     H27180   3.571   4.133   1.422  1.3710 -0.8740 -2.1420
  197MOL0     H27181   3.560   3.988   1.530  0.1573  0.5490 -0.2343
  197MOL0     H27182   3.180   4.162   1.562  0.9778  0.8350  1.2701
  197MOL0     H27183   3.859   3.895   1.132  0.3000  0.2488 -3.2926
  197MOL0     H27184   4.177   3.959   1.146  0.9010  0.6636 -2.6583
  197MOL0     H27185   4.161   3.904   0.979 -0.1537  5.0697 -1.3317
  197MOL0     H27186   4.042   4.008   1.051  2.3037  2.7588 -0.9763
  198MOL0     O27187   7.671  10.462   8.345  0.2021 -0.1987  0.2231
  198MOL0     C27188   7.616  10.572   8.366 -1.0955  0.6330 -0.1724
  198MOL0     O27189   7.692  10.679   8.416  0.4993 -0.1925  0.2648
  198MOL0     C27190   7.821  10.666   8.459 -0.7633  0.2313  1.0831
  198MOL0     C27191   7.932  10.689   8.370 -0.6645  0.7591  0.3617
  198MOL0     C27192   8.066  10.686   8.412 -0.4955  0.9748  0.4814
  198MOL0     C27193   8.092  10.652   8.546  0.0478 -0.1667 -0.0461
  198MOL0     O27194   8.218  10.623   8.591  0.4778  0.1929 -0.3467
  198MOL0     C27195   8.327  10.645   8.511 -0.0889  0.6833  0.9002
  198MOL0     C27196   8.454  10.605   8.598  0.0033  0.2142 -0.7808
  198MOL0     C27197   8.502  10.716   8.681  1.1902 -0.4070  0.1760
  198MOL0     C27198   8.558  10.828   8.606 -0.2000  0.4992  0.4217
  198MOL0     C27199   8.619  10.935   8.695 -0.3028  0.4954 -0.5277
  198MOL0     C27200   8.690  11.051   8.618  0.3018  0.1549  0.4891
  198MOL0     C27201   8.777  11.149   8.691  0.0330  1.2482 -1.1243
  198MOL0     C27202   8.696  11.248   8.771  0.4561 -0.1183 -0.5916
  198MOL0     N27203   8.669  11.207   8.910  0.2793 -0.0134 -0.6288
  198MOL0     C27204   8.761  11.173   9.000  0.8300 -0.0938  0.3152
  198MOL0     C27205   8.687  11.128   9.105  0.3442 -0.7710  0.0896
  198MOL0     C27206   8.744  11.081   9.228  0.5068  0.1061 -0.5322
  198MOL0     C27207   8.797  10.932   9.211 -0.3441  0.3686  0.5355
  198MOL0     C27208   8.901  10.919   9.102  0.0398 -0.6128  0.8148
  198MOL0     C27209   8.950  10.769   9.104 -0.1756 -0.1050 -0.8590
  198MOL0     O27210   8.835  10.675   9.093  0.3506 -0.2156 -0.2095
  198MOL0     C27211   8.865  10.543   9.109  0.3042 -0.6470 -0.0047
  198MOL0     C27212   8.870  10.496   9.240 -0.0004 -1.2370 -0.5441
  198MOL0     C27213   8.909  10.366   9.263  0.1585 -0.3793  0.0011
  198MOL0     C27214   8.935  10.334   9.405 -0.2121 -0.3913  0.3456
  198MOL0     C27215   8.922  10.277   9.151 -0.5737  0.5958 -1.2744
  198MOL0     C27216   8.970  10.136   9.177  0.4744 -0.5171  1.9251
  198MOL0     O27217   8.957  10.061   9.063  0.0551 -0.4421  0.5489
  198MOL0     C27218   9.021   9.938   9.054 -0.8373 -0.0344 -0.5362
  198MOL0     C27219   9.145   9.922   9.007  0.4067 -0.2486 -1.2182
  198MOL0     C27220   9.214   9.798   9.026  0.1847 -0.3935  0.2642
  198MOL0     C27221   9.144   9.691   9.086 -0.0524  0.7354  0.1725
  198MOL0     O27222   9.206   9.570   9.101 -0.1874 -0.0898  0.1863
  198MOL0     C27223   9.322   9.550   9.017 -0.6092  0.5177  0.1716
  198MOL0     C27224   9.368   9.405   9.037 -0.7231 -0.0502 -0.4140
  198MOL0     C27225   9.419   9.381   9.188 -0.7506  1.0523 -0.0868
  198MOL0     C27226   9.440   9.228   9.213 -0.4122  0.1370 -0.6402
  198MOL0     C27227   9.462   9.195   9.360  0.3471  0.1904 -0.2741
  198MOL0     C27228   9.592   9.244   9.418 -0.7810  0.2754  0.1376
  198MOL0     C27229   9.606   9.215   9.557  1.0557  0.1446  0.3581
  198MOL0     C27230   9.733   9.292   9.608 -0.6908 -0.1004 -0.4584
  198MOL0    Cl27231   9.787   9.272   9.772  0.3148  0.3534  0.3153
  198MOL0     C27232   9.014   9.710   9.123  0.5098 -0.1857 -0.0570
  198MOL0     C27233   8.954   9.830   9.118  0.1183 -1.0603  0.5643
  198MOL0     O27234   9.016  10.086   9.275 -0.4789  0.6803  0.0608
  198MOL0     C27235   8.895  10.322   9.016 -0.0546 -0.1738 -0.0369
  198MOL0     C27236   8.874  10.458   9.000  1.0199 -0.6683 -0.2504
  198MOL0     N27237   8.552  11.152   9.081 -0.4538  0.2778 -0.6878
  198MOL0     N27238   8.545  11.210   8.967 -0.2062 -0.5931 -0.5089
  198MOL0     C27239   7.989  10.630   8.634 -0.4555  0.8965 -0.3050
  198MOL0     C27240   7.855  10.640   8.594 -0.4995  1.0442 -0.3995
  198MOL0     C27241   7.472  10.598   8.357 -0.9550 -0.0995  0.5354
  198MOL0     C27242   7.431  10.726   8.311 -1.0352 -0.6826 -0.3675
  198MOL0     C27243   7.299  10.748   8.276 -0.7208 -0.3746  0.4099
  198MOL0     C27244   7.197  10.654   8.307 -0.7945 -0.1391  0.8135
  198MOL0     O27245   7.068  10.691   8.296  0.2489  0.0842  0.2955
  198MOL0     C27246   6.985  10.616   8.202 -1.2896  0.3670  0.0965
  198MOL0     C27247   6.838  10.620   8.252 -0.0404  1.3379  0.5735
  198MOL0     C27248   6.809  10.538   8.379  0.2104 -0.2026 -0.0308
  198MOL0     C27249   6.657  10.509   8.422  0.0352 -0.6045 -0.0386
  198MOL0     C27250   6.589  10.433   8.314  0.5128  0.4459  0.4731
  198MOL0     C27251   6.546  10.381   8.211 -0.8589  0.6196  0.4294
  198MOL0     C27252   7.242  10.531   8.356  0.6190 -0.2139  0.9064
  198MOL0     C27253   7.376  10.496   8.390  0.4519  0.1472  0.1681
  198MOL0     C27254   7.397  10.350   8.410  0.1738  0.4738 -0.7712
  198MOL0     H27255   7.907  10.708   8.266 -0.4843  1.6680  0.4755
  198MOL0     H27256   8.151  10.687   8.345  0.2575 -0.8503  1.3324
  198MOL0     H27257   8.328  10.750   8.481 -1.9919  0.3033 -0.7203
  198MOL0     H27258   8.314  10.572   8.431  2.0600  0.4508  0.7122
  198MOL0     H27259   8.428  10.522   8.665 -2.7238  1.8064  0.3082
  198MOL0     H27260   8.535  10.571   8.533 -0.5186 -0.1930 -1.2285
  198MOL0     H27261   8.418  10.758   8.737 -1.6929 -2.5882 -2.1514
  198MOL0     H27262   8.575  10.687   8.756  0.0252 -0.2963  1.3928
  198MOL0     H27263   8.639  10.799   8.538  1.7457  2.4649  1.7450
  198MOL0     H27264   8.479  10.880   8.551  1.2064  0.7807 -1.4203
  198MOL0     H27265   8.688  10.893   8.769  0.1652  0.9037 -0.7326
  198MOL0     H27266   8.540  10.969   8.763  0.2761  2.8561 -0.9618
  198MOL0     H27267   8.753  11.002   8.544 -0.8219 -0.8148  0.1343
  198MOL0     H27268   8.616  11.111   8.564  2.4212  1.1216 -1.4696
  198MOL0     H27269   8.827  11.205   8.611 -0.5158  1.4387 -1.3346
  198MOL0     H27270   8.853  11.105   8.756 -1.1117  0.3030 -0.3829
  198MOL0     H27271   8.756  11.340   8.768 -0.0202  0.1715 -2.1246
  198MOL0     H27272   8.603  11.265   8.717 -0.2451 -1.7279  0.0702
  198MOL0     H27273   8.869  11.180   9.000  0.7232  2.8032 -0.5918
  198MOL0     H27274   8.678  11.092   9.314 -0.0523  1.7807 -1.1386
  198MOL0     H27275   8.832  11.143   9.246 -0.9766  1.5631  2.2569
  198MOL0     H27276   8.839  10.901   9.307 -0.0067 -0.2809  0.1769
  198MOL0     H27277   8.703  10.882   9.184 -0.7774  1.1537  0.5388
  198MOL0     H27278   8.857  10.938   9.004  1.3728 -1.1467  0.0954
  198MOL0     H27279   8.991  10.980   9.115 -0.2386  0.8343 -2.8855
  198MOL0     H27280   9.036  10.746   9.039  1.7186  0.2116  1.3921
  198MOL0     H27281   9.001  10.754   9.200  0.6176  1.6851 -0.9643
  198MOL0     H27282   8.863  10.569   9.320  0.2871 -0.4336 -1.2424
  198MOL0     H27283   8.905  10.422   9.463  1.2182  2.3578 -2.6953
  198MOL0     H27284   9.043  10.317   9.413  0.0651  0.6878 -0.7472
  198MOL0     H27285   8.878  10.244   9.427  0.2369 -0.7811 -0.0685
  198MOL0     H27286   9.207  10.010   8.995 -0.5776  0.3911 -1.8080
  198MOL0     H27287   9.318   9.819   9.006  0.2242 -0.1716  0.6749
  198MOL0     H27288   9.313   9.561   8.908 -1.6557  1.3799  0.3286
  198MOL0     H27289   9.404   9.622   9.032 -1.4840  1.6948 -0.4904
  198MOL0     H27290   9.282   9.341   9.019 -2.0340  1.2317  0.9983
  198MOL0     H27291   9.452   9.378   8.972  0.1178  2.1413 -0.3455
  198MOL0     H27292   9.343   9.420   9.256 -2.1164  0.0435 -0.9971
  198MOL0     H27293   9.513   9.434   9.203  0.8276 -1.7268  0.7338
  198MOL0     H27294   9.518   9.188   9.148 -0.5428 -3.2159  1.0487
  198MOL0     H27295   9.352   9.167   9.191 -1.1119 -0.8029  3.7570
  198MOL0     H27296   9.377   9.236   9.416  0.8754  1.9406 -0.7004
  198MOL0     H27297   9.473   9.088   9.379 -0.2935  0.1111 -0.3512
  198MOL0     H27298   9.613   9.349   9.401  3.6082 -0.1435  1.8051
  198MOL0     H27299   9.669   9.188   9.365 -1.2709 -0.5948  0.3132
  198MOL0     H27300   9.625   9.108   9.565 -1.4040 -0.2458  1.6735
  198MOL0     H27301   9.515   9.234   9.615 -1.1407  0.5691 -2.9589
  198MOL0     H27302   9.726   9.401   9.601  1.4166  0.1368  0.2684
  198MOL0     H27303   9.814   9.260   9.542 -1.8130  0.6332 -2.2593
  198MOL0     H27304   8.951   9.642   9.179 -1.7638  2.3383  0.6615
  198MOL0     H27305   8.860   9.834   9.174 -1.3139  0.2784 -1.7627
  198MOL0     H27306   8.892  10.260   8.928  1.6053  1.3888 -1.2627
  198MOL0     H27307   8.875  10.505   8.902 -0.9201  1.8080  0.8076
  198MOL0     H27308   8.024  10.627   8.737 -3.0950  3.3317  0.8175
  198MOL0     H27309   7.765  10.626   8.653 -0.5686  1.4817 -0.3997
  198MOL0     H27310   7.507  10.801   8.289 -1.6265 -0.4837 -1.8437
  198MOL0     H27311   7.254  10.843   8.248 -4.3017 -2.5827 -2.2574
  198MOL0     H27312   6.991  10.675   8.110  3.2250  0.8916  0.5128
  198MOL0     H27313   7.019  10.513   8.184 -2.2827  0.2952 -1.5817
  198MOL0     H27314   6.789  10.564   8.172  0.6611 -1.5409  2.0035
  198MOL0     H27315   6.802  10.722   8.263 -1.7451  0.8595 -0.2111
  198MOL0     H27316   6.867  10.445   8.378  2.8779  1.3395 -0.2555
  198MOL0     H27317   6.856  10.602   8.454  1.0098  0.0537 -0.7339
  198MOL0     H27318   6.616  10.602   8.462 -0.3641 -0.2659 -1.1995
  198MOL0     H27319   6.669  10.442   8.508  1.2059  0.9896  1.1006
  198MOL0     H27320   6.524  10.336   8.117 -0.3022 -1.2613  1.1699
  198MOL0     H27321   7.170  10.450   8.361  0.0292  0.3446  2.0095
  198MOL0     H27322   7.401  10.295   8.316 -1.5884  4.3799 -3.3876
  198MOL0     H27323   7.491  10.327   8.461 -2.3090 -0.3544  4.0443
  198MOL0     H27324   7.313  10.309   8.468 -1.1753  0.4382 -2.6659
  199MOL0     O27325   9.879   3.855   0.007  0.3922  0.2784 -0.3762
  199MOL0     C27326   9.780   3.824  -0.052  0.8080  0.6593 -0.0685
  199MOL0     O27327   9.734   3.868  -0.171 -0.5264  0.1212  0.1661
  199MOL0     C27328   9.814   3.926  -0.269  0.2236  0.5753  0.3490
  199MOL0     C27329   9.908   4.028  -0.258  0.1699  0.2768 -0.2923
  199MOL0     C27330  10.000   4.063  -0.363 -0.1165 -1.3714  0.0724
  199MOL0     C27331   9.992   3.992  -0.484  0.0123  0.0919 -0.5775
  199MOL0     O27332  10.078   4.036  -0.579 -0.4310  0.1858  0.0211
  199MOL0     C27333  10.069   3.982  -0.714  1.3908 -0.6160 -0.2688
  199MOL0     C27334  10.191   4.029  -0.798 -0.1553  0.3896 -0.0316
  199MOL0     C27335  10.322   3.947  -0.782 -0.3082 -0.6090 -0.3961
  199MOL0     C27336  10.424   3.965  -0.904  0.1910  0.4917  0.6660
  199MOL0     C27337  10.468   4.111  -0.921 -0.0249  0.2867  0.6190
  199MOL0     C27338  10.545   4.164  -0.796 -0.4069 -0.0613 -0.3440
  199MOL0     C27339  10.559   4.317  -0.818 -0.3008  1.0104  0.2048
  199MOL0     C27340  10.628   4.379  -0.691 -0.0053 -0.1360 -0.9417
  199MOL0     N27341  10.683   4.510  -0.737  0.6990 -0.3805  0.0132
  199MOL0     C27342  10.619   4.620  -0.783 -0.6980  0.5862  1.1168
  199MOL0     C27343  10.722   4.697  -0.839  0.2293  0.0543  1.1380
  199MOL0     C27344  10.700   4.839  -0.892 -0.1668 -0.3610  0.4222
  199MOL0     C27345  10.818   4.933  -0.882 -0.5108  0.0313  0.8884
  199MOL0     C27346  10.778   5.079  -0.834 -0.3856  0.4392 -0.2019
  199MOL0     C27347  10.734   5.155  -0.963 -0.7558 -0.0400  0.7128
  199MOL0     O27348  10.847   5.216  -1.019  0.7123  0.2565  0.1194
  199MOL0     C27349  10.910   5.315  -0.947  0.1651  0.0509 -0.7797
  199MOL0     C27350  11.044   5.333  -0.988 -0.6876 -0.3147 -0.3847
  199MOL0     C27351  11.138   5.416  -0.925 -0.1321  0.2124  0.2280
  199MOL0     C27352  11.280   5.409  -0.978 -0.1547  0.3300 -0.5536
  199MOL0     C27353  11.087   5.493  -0.813 -0.0793  0.1396 -1.0774
  199MOL0     C27354  11.173   5.597  -0.762  0.2601  0.6188  0.4333
  199MOL0     O27355  11.166   5.609  -0.626  0.2396  0.7545  0.3952
  199MOL0     C27356  11.217   5.698  -0.538  0.6955  0.3992  1.1028
  199MOL0     C27357  11.201   5.684  -0.400 -0.7238 -0.8145  1.0777
  199MOL0     C27358  11.252   5.767  -0.302 -0.2972  0.7199  0.2176
  199MOL0     C27359  11.292   5.891  -0.345  0.0161  0.0999  0.2522
  199MOL0     O27360  11.325   5.989  -0.260 -0.7860 -0.3357 -0.3132
  199MOL0     C27361  11.361   5.966  -0.123 -0.0155  0.2343  0.2245
  199MOL0     C27362  11.381   6.100  -0.042 -0.2174  0.3238  0.0892
  199MOL0     C27363  11.507   6.169  -0.100 -0.0579 -0.3329 -0.1603
  199MOL0     C27364  11.516   6.301  -0.020  0.1278 -0.8090 -0.4617
  199MOL0     C27365  11.622   6.384  -0.085 -1.0578 -0.2912  0.1115
  199MOL0     C27366  11.767   6.344  -0.046 -0.7628  0.3085 -0.1263
  199MOL0     C27367  11.802   6.385   0.102  0.8988 -0.5849  1.5297
  199MOL0     C27368  11.911   6.309   0.164 -0.2360 -0.1409  0.5007
  199MOL0    Cl27369  12.068   6.332   0.092  0.0715 -0.2929 -0.5428
  199MOL0     C27370  11.316   5.915  -0.480 -0.3583  0.8106  0.4742
  199MOL0     C27371  11.269   5.826  -0.570  0.6435  0.2093  0.8759
  199MOL0     O27372  11.228   5.672  -0.842 -0.5414 -0.1907 -0.3084
  199MOL0     C27373  10.947   5.483  -0.778  0.0294 -0.5246  0.0324
  199MOL0     C27374  10.858   5.394  -0.837  0.7140  0.5413  0.6689
  199MOL0     N27375  10.840   4.626  -0.827 -0.1274  0.4837 -0.1577
  199MOL0     N27376  10.818   4.519  -0.770  0.3733  0.2223 -0.6136
  199MOL0     C27377   9.903   3.885  -0.500  0.0702 -0.5608 -1.0916
  199MOL0     C27378   9.816   3.856  -0.391 -0.1310 -0.0973  1.0043
  199MOL0     C27379   9.682   3.753   0.041 -0.8119  0.5844 -0.8284
  199MOL0     C27380   9.542   3.787   0.039  0.4360  0.0975 -0.6429
  199MOL0     C27381   9.446   3.721   0.107  0.0089 -0.6730 -0.5003
  199MOL0     C27382   9.485   3.615   0.192 -0.0091  0.1015 -0.0156
  199MOL0     O27383   9.399   3.551   0.285  0.2510 -0.1244  0.0885
  199MOL0     C27384   9.264   3.595   0.295  0.1444 -0.3200  0.8597
  199MOL0     C27385   9.213   3.593   0.438  0.4894  0.4401 -0.3776
  199MOL0     C27386   9.060   3.603   0.458  1.4085 -0.2661 -0.3451
  199MOL0     C27387   9.026   3.580   0.610 -0.2556  0.3269 -0.2384
  199MOL0     C27388   9.059   3.705   0.680 -0.5576  0.4132 -0.1011
  199MOL0     C27389   9.092   3.809   0.737 -0.2610  0.1104 -0.1004
  199MOL0     C27390   9.623   3.579   0.203  0.1292  0.0539 -0.3360
  199MOL0     C27391   9.724   3.641   0.122  0.0602  0.5228 -0.1822
  199MOL0     C27392   9.862   3.581   0.123  0.4874  0.0535 -0.3454
  199MOL0     H27393   9.914   4.095  -0.172  1.7542 -0.0431 -0.1319
  199MOL0     H27394  10.066   4.148  -0.353  0.0409 -0.9950 -3.2059
  199MOL0     H27395   9.980   4.021  -0.764  0.6194  0.4880  1.8436
  199MOL0     H27396  10.081   3.873  -0.715  1.8764 -0.6327  2.1788
  199MOL0     H27397  10.164   4.022  -0.904  0.9296 -1.0139 -0.2563
  199MOL0     H27398  10.206   4.134  -0.771  1.1919  0.0058  0.7937
  199MOL0     H27399  10.367   3.979  -0.687  1.9677  0.0243 -1.6125
  199MOL0     H27400  10.305   3.840  -0.772  2.6554 -1.3338 -1.8820
  199MOL0     H27401  10.510   3.899  -0.884 -0.7790 -0.9200  0.3369
  199MOL0     H27402  10.371   3.932  -0.994 -0.5619  0.5895  1.0662
  199MOL0     H27403  10.378   4.164  -0.954  1.1633  1.3725 -1.0454
  199MOL0     H27404  10.530   4.117  -1.011 -2.2905 -2.8058 -1.3425
  199MOL0     H27405  10.505   4.139  -0.698  1.5062 -0.1376  0.4749
  199MOL0     H27406  10.648   4.127  -0.786  0.4061  2.3003  0.6402
  199MOL0     H27407  10.463   4.360  -0.848 -1.3222 -0.4290  1.2972
  199MOL0     H27408  10.616   4.322  -0.912  0.8899  0.5537  0.8866
  199MOL0     H27409  10.560   4.385  -0.606  1.8602  0.2305  0.6023
  199MOL0     H27410  10.710   4.316  -0.656 -1.2570 -1.9097 -1.0797
  199MOL0     H27411  10.512   4.639  -0.785 -0.8046  0.6969 -3.1074
  199MOL0     H27412  10.618   4.887  -0.839 -0.1770  0.6750 -0.4979
  199MOL0     H27413  10.670   4.830  -0.997  1.6534 -0.1648 -0.1544
  199MOL0     H27414  10.881   4.897  -0.799  0.5483 -0.1150  0.0429
  199MOL0     H27415  10.878   4.943  -0.972 -1.8012  0.3857  0.0465
  199MOL0     H27416  10.691   5.079  -0.767 -1.3835 -0.8669 -1.4442
  199MOL0     H27417  10.863   5.126  -0.784  1.9524 -3.5375 -0.0142
  199MOL0     H27418  10.688   5.100  -1.045 -3.6803  2.5378  0.4486
  199MOL0     H27419  10.663   5.231  -0.929 -1.6967 -1.6966  2.6318
  199MOL0     H27420  11.076   5.270  -1.071  4.0377  2.2410 -0.8511
  199MOL0     H27421  11.351   5.428  -0.896 -2.0154  1.4101  0.8818
  199MOL0     H27422  11.296   5.485  -1.055 -2.0846 -0.3697 -1.7205
  199MOL0     H27423  11.304   5.318  -1.034  0.1888 -0.5535  0.9689
  199MOL0     H27424  11.150   5.599  -0.356  0.2521 -0.1213  3.7036
  199MOL0     H27425  11.250   5.722  -0.203 -0.0772 -3.4540 -1.4619
  199MOL0     H27426  11.287   5.904  -0.071 -0.4219 -0.3036 -0.9578
  199MOL0     H27427  11.453   5.907  -0.120 -0.1685 -0.0392 -0.3277
  199MOL0     H27428  11.288   6.158  -0.053 -1.4342 -1.2409  1.5026
  199MOL0     H27429  11.379   6.061   0.060  0.0038 -2.8141 -0.9981
  199MOL0     H27430  11.496   6.181  -0.208  2.3189 -0.5424 -0.4844
  199MOL0     H27431  11.593   6.102  -0.089  1.1666  1.0091 -1.1761
  199MOL0     H27432  11.521   6.288   0.089 -1.7790  3.5358  0.3467
  199MOL0     H27433  11.421   6.354  -0.035  0.2646  0.4774  2.3934
  199MOL0     H27434  11.599   6.381  -0.192  1.2411 -0.8316 -0.4227
  199MOL0     H27435  11.606   6.486  -0.051 -1.3031 -0.0407 -0.7469
  199MOL0     H27436  11.830   6.405  -0.111 -1.1964  0.7922 -0.0989
  199MOL0     H27437  11.790   6.240  -0.070  1.9840  1.1110 -1.3079
  199MOL0     H27438  11.719   6.376   0.174 -1.9752 -0.5980 -1.5487
  199MOL0     H27439  11.827   6.491   0.104  0.1152 -0.2668 -1.3185
  199MOL0     H27440  11.884   6.206   0.138  2.1169 -1.3471  2.4988
  199MOL0     H27441  11.903   6.328   0.271 -0.7225  2.6663  0.0713
  199MOL0     H27442  11.358   6.009  -0.515 -0.2011  1.2638  1.8213
  199MOL0     H27443  11.275   5.848  -0.676 -0.8421 -1.0970  0.4743
  199MOL0     H27444  10.906   5.564  -0.720  0.3918  0.0906 -0.5586
  199MOL0     H27445  10.754   5.391  -0.808  1.2366 -0.8304  2.6349
  199MOL0     H27446   9.889   3.832  -0.594 -0.2309  1.0887 -2.0154
  199MOL0     H27447   9.737   3.782  -0.405 -0.6524  0.5582  0.3431
  199MOL0     H27448   9.498   3.869  -0.017 -0.2917  0.9835  1.1444
  199MOL0     H27449   9.340   3.740   0.097 -0.0444 -0.4619  0.3973
  199MOL0     H27450   9.258   3.699   0.263  1.9504 -0.3347  0.3615
  199MOL0     H27451   9.201   3.536   0.228  3.2170 -0.8237 -1.8072
  199MOL0     H27452   9.270   3.675   0.483  2.0504  0.1054 -1.6545
  199MOL0     H27453   9.234   3.502   0.496  3.3673  2.5769  2.3060
  199MOL0     H27454   9.026   3.702   0.427  2.5439  0.3942  0.4707
  199MOL0     H27455   9.014   3.519   0.405 -0.9043 -0.2240  1.4283
  199MOL0     H27456   9.081   3.494   0.652 -2.7494 -0.9804  0.5367
  199MOL0     H27457   8.920   3.556   0.613 -0.2624  0.4058  1.8843
  199MOL0     H27458   9.116   3.899   0.789  1.2580 -1.7729  2.7284
  199MOL0     H27459   9.642   3.487   0.256  1.3411  1.5455  1.9956
  199MOL0     H27460   9.859   3.472   0.113 -0.2602  0.1698 -1.4671
  199MOL0     H27461   9.944   3.623   0.063  1.1344 -0.5505  0.0936
  199MOL0     H27462   9.901   3.607   0.222 -0.9444 -1.4243  0.6593
  200MOL0     O27463   0.086   6.840   8.896 -0.6100  0.4649 -0.0320
  200MOL0     C27464   0.200   6.833   8.907  0.1655  0.6599  0.1280
  200MOL0     O27465   0.291   6.804   8.806  0.0245  0.0458  0.2833
  200MOL0     C27466   0.262   6.727   8.702  0.9355 -0.6281  0.6100
  200MOL0     C27467   0.287   6.782   8.577  0.1648 -0.7430  0.3244
  200MOL0     C27468   0.259   6.711   8.462 -0.6541  0.4746 -0.0337
  200MOL0     C27469   0.202   6.581   8.468 -0.1385 -0.2098 -1.5805
  200MOL0     O27470   0.167   6.513   8.353  0.1715 -0.4219  0.4288
  200MOL0     C27471   0.175   6.373   8.352  0.5840 -0.5913  0.0054
  200MOL0     C27472   0.291   6.324   8.270  1.0426 -0.2042  0.3025
  200MOL0     C27473   0.308   6.177   8.295 -0.7118  0.5659  0.6988
  200MOL0     C27474   0.424   6.110   8.223 -0.0210  0.5490  0.8555
  200MOL0     C27475   0.557   6.142   8.301  1.3833  0.4889  0.8346
  200MOL0     C27476   0.678   6.054   8.254 -1.1316 -0.5863 -0.6309
  200MOL0     C27477   0.701   5.935   8.357 -0.1749  0.0332  0.2592
  200MOL0     C27478   0.767   5.964   8.493 -0.1556  0.2346 -0.1298
  200MOL0     N27479   0.905   6.006   8.487 -0.4857 -0.1921 -0.1530
  200MOL0     C27480   0.951   6.137   8.464  0.6950  0.6872 -0.1717
  200MOL0     C27481   1.084   6.133   8.468  0.7458  0.2666 -0.3983
  200MOL0     C27482   1.180   6.257   8.445 -0.2472  0.1568  0.0302
  200MOL0     C27483   1.263   6.298   8.577 -0.5856 -0.2223  0.0606
  200MOL0     C27484   1.371   6.402   8.564  0.6882  0.5474 -0.3241
  200MOL0     C27485   1.432   6.427   8.426  0.1483 -0.0662  1.3910
  200MOL0     O27486   1.340   6.529   8.380 -0.6422  0.2414  0.2585
  200MOL0     C27487   1.366   6.586   8.261 -0.0476  0.2144 -0.2172
  200MOL0     C27488   1.471   6.545   8.177  0.1306 -0.2022  0.2501
  200MOL0     C27489   1.492   6.618   8.052  0.0935  0.1283 -0.4109
  200MOL0     C27490   1.604   6.559   7.961 -0.0762  0.1626 -0.4055
  200MOL0     C27491   1.420   6.739   8.034 -0.3742  0.8826 -0.1940
  200MOL0     C27492   1.434   6.819   7.912 -0.2890 -0.8078 -0.3284
  200MOL0     O27493   1.543   6.816   7.833  0.1428  0.3173 -0.3352
  200MOL0     C27494   1.532   6.848   7.702 -0.6064  0.4020  0.2655
  200MOL0     C27495   1.643   6.909   7.630  0.1592 -0.5724  0.6778
  200MOL0     C27496   1.625   6.941   7.495  0.1090  0.9367 -0.9055
  200MOL0     C27497   1.515   6.885   7.424  0.9883  0.9290  0.0784
  200MOL0     O27498   1.507   6.902   7.284  0.1601  0.2609  0.0580
  200MOL0     C27499   1.378   6.943   7.232  1.1250 -0.3372 -0.2255
  200MOL0     C27500   1.378   6.994   7.084  0.1216  0.2996 -0.7600
  200MOL0     C27501   1.250   7.032   7.022  0.8588  0.2465  0.0176
  200MOL0     C27502   1.259   7.038   6.870  0.2202  1.1318  0.9334
  200MOL0     C27503   1.128   7.069   6.804  0.6839  0.0643 -0.2867
  200MOL0     C27504   1.138   7.099   6.648 -0.3969  0.0649  0.1799
  200MOL0     C27505   1.191   6.971   6.568 -0.4321 -0.3647 -0.5147
  200MOL0     C27506   1.154   6.986   6.428  0.0534 -0.8996  0.4722
  200MOL0    Cl27507   1.271   7.094   6.363 -0.1551  0.3722 -0.8724
  200MOL0     C27508   1.403   6.835   7.495  0.6533 -0.1759  0.2217
  200MOL0     C27509   1.412   6.820   7.631  0.5430  0.2735  0.7724
  200MOL0     O27510   1.333   6.884   7.891  0.2054 -0.0635  0.5186
  200MOL0     C27511   1.314   6.772   8.125  0.9691 -0.5488  0.1759
  200MOL0     C27512   1.296   6.699   8.239 -0.5104 -0.2844  0.3997
  200MOL0     N27513   1.115   6.005   8.508 -0.3096 -0.9827 -0.7923
  200MOL0     N27514   1.016   5.932   8.525  0.0655 -0.3163  0.1853
  200MOL0     C27515   0.190   6.527   8.600 -0.1543  0.6360 -0.1507
  200MOL0     C27516   0.229   6.597   8.713  0.0669 -0.3192 -0.1281
  200MOL0     C27517   0.266   6.874   9.034  0.1294 -0.7212 -0.3661
  200MOL0     C27518   0.387   6.959   9.043 -0.0664  0.9049 -1.0111
  200MOL0     C27519   0.438   6.991   9.162  0.5226 -0.4837  0.0267
  200MOL0     C27520   0.371   6.970   9.285  0.0784  0.9122  0.5016
  200MOL0     O27521   0.429   7.003   9.408 -0.4283  0.1725 -1.0076
  200MOL0     C27522   0.351   7.012   9.528 -0.9716 -0.1832  0.4147
  200MOL0     C27523   0.448   7.049   9.637 -0.7703 -0.9369  0.3716
  200MOL0     C27524   0.498   6.937   9.724 -0.3337 -0.7574 -0.7337
  200MOL0     C27525   0.584   6.992   9.843 -0.8215  0.0004  0.4924
  200MOL0     C27526   0.720   7.017   9.797  0.2682  0.0201  0.0462
  200MOL0     C27527   0.837   7.035   9.774 -0.5177 -0.1722  0.4400
  200MOL0     C27528   0.243   6.917   9.273  0.6224  0.8668  0.3406
  200MOL0     C27529   0.191   6.858   9.153 -0.2400  0.7308 -0.5959
  200MOL0     C27530   0.071   6.781   9.171  1.3331  0.5887  0.1483
  200MOL0     H27531   0.322   6.885   8.569  0.6466 -0.8146  1.3928
  200MOL0     H27532   0.262   6.750   8.360  0.1268  1.0004  0.1855
  200MOL0     H27533   0.082   6.348   8.301  1.1013  0.1198 -1.3265
  200MOL0     H27534   0.168   6.328   8.452  2.1953 -1.0712 -0.0765
  200MOL0     H27535   0.266   6.351   8.167 -2.5191 -0.6127  0.9100
  200MOL0     H27536   0.380   6.379   8.303  1.2854 -0.9519  0.9060
  200MOL0     H27537   0.325   6.173   8.403  0.9003 -1.0409  0.4282
  200MOL0     H27538   0.218   6.122   8.266  0.4793 -0.9407 -0.2623
  200MOL0     H27539   0.408   6.003   8.207  2.3126  0.3108 -0.2977
  200MOL0     H27540   0.432   6.152   8.123  2.2453 -0.5655  0.5032
  200MOL0     H27541   0.526   6.153   8.405 -3.9275  1.3207 -0.5327
  200MOL0     H27542   0.592   6.244   8.283  3.2878 -0.4853 -1.6365
  200MOL0     H27543   0.669   6.012   8.153 -1.1047 -3.5076  0.4769
  200MOL0     H27544   0.762   6.123   8.248 -4.2691  3.5233 -2.8074
  200MOL0     H27545   0.767   5.861   8.311  0.5546  1.8965 -1.8430
  200MOL0     H27546   0.604   5.886   8.375 -0.3445  0.2408 -0.0708
  200MOL0     H27547   0.706   6.042   8.540  0.0111  1.1863 -1.4466
  200MOL0     H27548   0.764   5.876   8.559  0.2255  0.0183 -0.3962
  200MOL0     H27549   0.893   6.227   8.445  0.9297  1.0289  0.6886
  200MOL0     H27550   1.128   6.349   8.417  1.5553  1.4789  0.8696
  200MOL0     H27551   1.245   6.236   8.360 -2.2666  1.3147 -1.8986
  200MOL0     H27552   1.193   6.342   8.649  1.1664  2.9904 -0.0245
  200MOL0     H27553   1.299   6.204   8.621 -1.0292 -1.6219 -2.3681
  200MOL0     H27554   1.332   6.489   8.618  0.4273 -0.3827  1.0563
  200MOL0     H27555   1.456   6.365   8.623 -1.2958 -6.1068 -0.7630
  200MOL0     H27556   1.536   6.458   8.426  0.3406 -0.6855  2.0835
  200MOL0     H27557   1.418   6.331   8.375 -0.5433 -0.1479  1.7163
  200MOL0     H27558   1.524   6.452   8.194 -1.3582 -0.6911  2.7567
  200MOL0     H27559   1.576   6.552   7.855  3.1185  0.3254 -1.3603
  200MOL0     H27560   1.625   6.458   7.998  2.9735  0.7687 -0.2359
  200MOL0     H27561   1.693   6.621   7.969  0.0767  0.0788 -1.3519
  200MOL0     H27562   1.734   6.925   7.687 -1.0154  0.0805  2.4639
  200MOL0     H27563   1.710   6.986   7.444 -0.1152 -0.3699 -2.5447
  200MOL0     H27564   1.304   6.862   7.232 -1.2958  1.4874 -4.7919
  200MOL0     H27565   1.332   7.019   7.296  0.0730 -0.4170 -0.8643
  200MOL0     H27566   1.452   7.072   7.067  1.3576 -0.4136  0.9824
  200MOL0     H27567   1.415   6.905   7.032 -3.1846 -1.4756 -0.3837
  200MOL0     H27568   1.205   7.120   7.068 -0.5770 -0.4416 -0.0001
  200MOL0     H27569   1.173   6.958   7.049  0.0658  1.8074  2.3131
  200MOL0     H27570   1.282   6.936   6.837  1.2214  0.9246  2.1869
  200MOL0     H27571   1.331   7.111   6.833 -1.0126  1.5008 -0.8874
  200MOL0     H27572   1.057   6.990   6.834  1.0019  0.8746  2.8747
  200MOL0     H27573   1.104   7.163   6.854 -2.4793 -1.4347  1.3210
  200MOL0     H27574   1.208   7.183   6.649 -0.4112  0.3902  6.0319
  200MOL0     H27575   1.037   7.130   6.621  0.0321  0.7555 -0.6625
  200MOL0     H27576   1.144   6.881   6.608  2.0406 -0.6680  2.1049
  200MOL0     H27577   1.299   6.957   6.580 -0.6073 -0.1971  1.7198
  200MOL0     H27578   1.062   7.043   6.417  1.2519  1.8254  3.3012
  200MOL0     H27579   1.154   6.895   6.367  0.1903  1.5031 -3.4555
  200MOL0     H27580   1.313   6.804   7.442 -0.0117  1.3214  0.4091
  200MOL0     H27581   1.316   6.801   7.679 -0.4555  2.7916 -0.0510
  200MOL0     H27582   1.251   6.856   8.098  1.7929 -0.7590 -2.7700
  200MOL0     H27583   1.214   6.729   8.304 -0.7026  1.9303 -0.7806
  200MOL0     H27584   0.155   6.427   8.624 -0.8285  0.3819 -2.0243
  200MOL0     H27585   0.222   6.560   8.814  0.5278  1.0317  0.4267
  200MOL0     H27586   0.449   6.985   8.958  0.6353  1.5777 -0.3009
  200MOL0     H27587   0.535   7.040   9.167  0.3365 -0.1950  0.9204
  200MOL0     H27588   0.276   7.091   9.521  0.2333  0.8685 -3.1672
  200MOL0     H27589   0.287   6.925   9.546 -2.4531  1.1172  1.7480
  200MOL0     H27590   0.396   7.129   9.691  0.0309  1.4828 -2.1961
  200MOL0     H27591   0.529   7.111   9.598 -2.3042  1.5442  0.9327
  200MOL0     H27592   0.414   6.881   9.766 -1.4100  0.1722 -1.5766
  200MOL0     H27593   0.553   6.863   9.665  0.2853 -0.2206 -0.8441
  200MOL0     H27594   0.590   6.910   9.915 -0.0261  0.4301  0.9233
  200MOL0     H27595   0.540   7.085   9.879 -1.4710  0.2570 -0.9003
  200MOL0     H27596   0.939   7.068   9.769 -0.0416 -1.6225  0.0974
  200MOL0     H27597   0.185   6.897   9.363  1.0633 -0.0603  0.4274
  200MOL0     H27598   0.075   6.685   9.119 -2.1368 -0.4254  1.4745
  200MOL0     H27599   0.039   6.754   9.272  0.0187  2.2487  0.2184
  200MOL0     H27600  -0.015   6.839   9.137 -0.3603 -0.1021  2.8686
  201MOL0     O27601   2.356   9.079   8.606  0.1574  0.3429 -0.0486
  201MOL0     C27602   2.403   9.173   8.674  0.8469  0.2759 -0.2238
  201MOL0     O27603   2.325   9.259   8.753  0.1938 -0.4139  0.7291
  201MOL0     C27604   2.180   9.259   8.744 -0.1871  0.2854  0.8064
  201MOL0     C27605   2.119   9.317   8.635  0.6717 -0.0042  0.0432
  201MOL0     C27606   1.981   9.316   8.628 -0.7028 -0.1970  0.5408
  201MOL0     C27607   1.897   9.261   8.728  0.1697  0.3868 -0.0392
  201MOL0     O27608   1.761   9.295   8.735  0.3486 -0.2939 -0.1770
  201MOL0     C27609   1.672   9.213   8.811 -0.4747  0.0775  0.3722
  201MOL0     C27610   1.668   9.061   8.776 -0.3913 -0.6648  0.3140
  201MOL0     C27611   1.573   9.041   8.655  0.2536 -0.5950 -0.7424
  201MOL0     C27612   1.516   8.902   8.636 -0.1048 -1.3101  0.3484
  201MOL0     C27613   1.406   8.875   8.736 -0.5221  0.4414  0.1516
  201MOL0     C27614   1.374   8.728   8.759 -0.8947 -0.7869  1.0778
  201MOL0     C27615   1.245   8.707   8.849 -0.3175 -0.1808 -0.5262
  201MOL0     C27616   1.203   8.562   8.830  0.5834  0.1600  0.1668
  201MOL0     N27617   1.312   8.466   8.860  0.1519  0.4844 -0.4466
  201MOL0     C27618   1.358   8.441   8.984 -0.0596  0.1597  0.0888
  201MOL0     C27619   1.448   8.337   8.971 -0.3182 -0.7325  1.0168
  201MOL0     C27620   1.519   8.264   9.077 -0.1873  0.5551 -0.2509
  201MOL0     C27621   1.649   8.190   9.042  0.2732  0.5580 -0.6936
  201MOL0     C27622   1.653   8.072   8.948 -0.3300  0.2992 -1.0729
  201MOL0     C27623   1.550   7.961   8.983 -0.1177 -0.6104 -0.2072
  201MOL0     O27624   1.576   7.848   8.901  0.5192 -0.7008 -0.1595
  201MOL0     C27625   1.662   7.751   8.944 -0.4609 -1.0298  0.6952
  201MOL0     C27626   1.674   7.635   8.867  0.0470 -0.6330  0.1119
  201MOL0     C27627   1.759   7.533   8.899 -0.5990 -0.0870 -0.4393
  201MOL0     C27628   1.757   7.418   8.804  0.1248  0.6397  0.4663
  201MOL0     C27629   1.847   7.540   9.007  0.0963 -0.4509 -0.8571
  201MOL0     C27630   1.945   7.432   9.040 -0.6208 -0.2164  0.3588
  201MOL0     O27631   2.049   7.469   9.123  0.3404  0.4343  0.5595
  201MOL0     C27632   2.122   7.381   9.203  0.3178 -0.5720 -0.5660
  201MOL0     C27633   2.215   7.288   9.156 -0.0028  0.1504 -0.6707
  201MOL0     C27634   2.266   7.200   9.258 -0.2956  0.1954  0.8161
  201MOL0     C27635   2.228   7.196   9.391  0.2940  0.9866  1.1890
  201MOL0     O27636   2.300   7.100   9.458 -0.5583  0.1702 -0.3885
  201MOL0     C27637   2.279   7.095   9.595  0.7963 -0.6518  0.4774
  201MOL0     C27638   2.365   7.179   9.685  0.5791 -0.7236 -0.8800
  201MOL0     C27639   2.521   7.165   9.666 -0.3838  1.3096 -0.8655
  201MOL0     C27640   2.578   7.025   9.688  0.0660 -0.1662 -0.9352
  201MOL0     C27641   2.733   7.020   9.714 -0.5189  0.6099 -0.2555
  201MOL0     C27642   2.779   6.879   9.768 -0.5861 -0.2202  0.3488
  201MOL0     C27643   2.918   6.903   9.839 -0.4782  0.1846  1.3150
  201MOL0     C27644   2.964   6.784   9.912 -0.0799  0.7959 -0.9563
  201MOL0    Cl27645   3.125   6.828   9.977 -0.3843  0.3333  0.1919
  201MOL0     C27646   2.138   7.293   9.429  0.4112  0.1781 -0.0861
  201MOL0     C27647   2.081   7.380   9.334 -0.1900 -0.3758 -0.7544
  201MOL0     O27648   1.918   7.317   9.010 -0.2216  0.4128 -0.1997
  201MOL0     C27649   1.836   7.665   9.086 -0.1052  0.3110 -0.1702
  201MOL0     C27650   1.749   7.771   9.050  0.7962 -0.5876 -0.3083
  201MOL0     N27651   1.456   8.315   8.833 -0.0872 -0.2704 -0.0176
  201MOL0     N27652   1.383   8.396   8.770  0.1737  0.8385  0.5619
  201MOL0     C27653   1.966   9.195   8.837  0.3655  0.0844 -0.5328
  201MOL0     C27654   2.106   9.187   8.836  0.3430 -0.2103 -0.5750
  201MOL0     C27655   2.549   9.192   8.686 -0.1348  0.4225  0.1909
  201MOL0     C27656   2.604   9.187   8.818  0.1481 -0.2445  0.4847
  201MOL0     C27657   2.747   9.194   8.839  0.3984  0.5402 -0.0784
  201MOL0     C27658   2.832   9.210   8.735 -0.7892  0.4346  0.5893
  201MOL0     O27659   2.973   9.224   8.744 -0.1291 -0.0315 -0.5196
  201MOL0     C27660   3.029   9.223   8.878  0.7632 -0.1379  1.1324
  201MOL0     C27661   3.002   9.354   8.949 -0.7843  0.3900  0.3040
  201MOL0     C27662   2.995   9.481   8.856  0.0545  0.0936 -0.0179
  201MOL0     C27663   2.957   9.620   8.924 -0.4501 -0.0854 -0.4019
  201MOL0     C27664   2.811   9.637   8.944 -0.1843  0.4675 -0.2024
  201MOL0     C27665   2.694   9.656   8.961  0.0324 -1.3609  0.0324
  201MOL0     C27666   2.777   9.225   8.608  0.2357  0.3705 -0.0606
  201MOL0     C27667   2.639   9.211   8.579 -0.3771  1.3851  0.6521
  201MOL0     C27668   2.610   9.214   8.435 -0.6441 -0.4239  0.4541
  201MOL0     H27669   2.166   9.361   8.548 -0.1415 -0.8217 -0.8326
  201MOL0     H27670   1.938   9.370   8.544  2.2856 -1.4205 -1.9565
  201MOL0     H27671   1.571   9.249   8.789 -0.9020 -1.2020  0.1276
  201MOL0     H27672   1.701   9.225   8.915 -4.0303  0.6855  1.4272
  201MOL0     H27673   1.768   9.022   8.753 -0.3691 -0.1817 -0.4280
  201MOL0     H27674   1.634   9.010   8.866  2.1167 -1.5596  0.8543
  201MOL0     H27675   1.491   9.112   8.671  1.5029  1.1004 -1.5396
  201MOL0     H27676   1.633   9.059   8.565  1.3416 -3.3434 -0.6646
  201MOL0     H27677   1.462   8.898   8.540 -4.6025 -0.0088  2.5422
  201MOL0     H27678   1.604   8.839   8.631 -0.4183 -1.6761 -1.3387
  201MOL0     H27679   1.316   8.917   8.690  0.2591  1.7024 -0.3049
  201MOL0     H27680   1.427   8.922   8.832 -1.8388 -2.2386  1.8750
  201MOL0     H27681   1.353   8.690   8.659  0.2041 -0.3870  0.6810
  201MOL0     H27682   1.462   8.683   8.805  0.0721  1.0732  1.1508
  201MOL0     H27683   1.167   8.778   8.821 -0.1882 -0.0515 -0.5641
  201MOL0     H27684   1.268   8.735   8.953 -0.4872  2.7218 -1.1640
  201MOL0     H27685   1.109   8.540   8.880  0.5506  0.5505  0.2825
  201MOL0     H27686   1.189   8.556   8.722 -1.2198  0.6332  0.3520
  201MOL0     H27687   1.322   8.480   9.079 -0.1515  0.0799  0.0871
  201MOL0     H27688   1.454   8.190   9.124 -0.1110  0.7189  0.1141
  201MOL0     H27689   1.548   8.331   9.158  0.9504 -0.8970  0.5911
  201MOL0     H27690   1.719   8.267   9.006  0.9317  1.2550  1.9176
  201MOL0     H27691   1.700   8.157   9.132 -1.4260 -2.4032 -0.6922
  201MOL0     H27692   1.616   8.102   8.850 -0.4001  0.4037 -1.0150
  201MOL0     H27693   1.757   8.038   8.949  0.4123  2.2659  1.7081
  201MOL0     H27694   1.544   7.941   9.091 -2.8602  0.1469 -0.1522
  201MOL0     H27695   1.453   8.006   8.961  0.2692  0.1528 -0.3782
  201MOL0     H27696   1.611   7.625   8.779  1.9226  0.9043 -1.5152
  201MOL0     H27697   1.688   7.440   8.722 -0.2089 -0.4966  0.4270
  201MOL0     H27698   1.724   7.331   8.862  3.0667  0.3448  1.8985
  201MOL0     H27699   1.859   7.395   8.770  0.3589  2.0798  0.1272
  201MOL0     H27700   2.250   7.276   9.054 -2.1027  3.2626 -1.8667
  201MOL0     H27701   2.326   7.115   9.228 -0.3083 -0.9027  3.5788
  201MOL0     H27702   2.178   7.120   9.630  1.1611  0.3756  0.8296
  201MOL0     H27703   2.302   6.993   9.630  1.7337 -1.2864 -1.8568
  201MOL0     H27704   2.345   7.284   9.663  3.5584 -0.3791 -2.4629
  201MOL0     H27705   2.327   7.151   9.783  0.1440  1.7977 -0.2602
  201MOL0     H27706   2.577   7.234   9.729  1.8422 -0.9982 -0.1543
  201MOL0     H27707   2.551   7.195   9.565  2.1089 -0.9587 -0.8980
  201MOL0     H27708   2.559   6.967   9.597  1.5078 -2.3624  0.0879
  201MOL0     H27709   2.534   6.978   9.776  2.7050 -1.0383 -0.0095
  201MOL0     H27710   2.784   7.057   9.625  0.9577  0.5132  0.5046
  201MOL0     H27711   2.757   7.086   9.798  1.9174 -0.0434 -0.3553
  201MOL0     H27712   2.790   6.805   9.688  0.8570  0.5247 -0.1741
  201MOL0     H27713   2.711   6.841   9.844 -0.6250 -3.1145 -0.9816
  201MOL0     H27714   2.895   6.989   9.903 -0.2132  2.2441 -1.1532
  201MOL0     H27715   2.993   6.938   9.766 -1.3497  0.1715  0.3942
  201MOL0     H27716   2.962   6.691   9.855  0.1848 -2.6754  4.0354
  201MOL0     H27717   2.888   6.769   9.990  0.4317  3.6439  0.2340
  201MOL0     H27718   2.117   7.309   9.535  0.9629  1.6867 -0.1886
  201MOL0     H27719   2.007   7.453   9.365  0.5678  1.2223 -2.5292
  201MOL0     H27720   1.901   7.675   9.173  1.8675 -1.6753 -1.3018
  201MOL0     H27721   1.760   7.869   9.097  4.4887 -1.2028  0.3903
  201MOL0     H27722   1.910   9.132   8.906 -2.1707  0.9046 -1.7149
  201MOL0     H27723   2.149   9.130   8.917 -1.8623 -0.1576  0.7348
  201MOL0     H27724   2.534   9.175   8.900  2.1280  0.9622  2.4328
  201MOL0     H27725   2.791   9.200   8.938  1.8546 -0.0457 -0.6633
  201MOL0     H27726   2.989   9.140   8.935 -0.1000  0.5085  1.4830
  201MOL0     H27727   3.138   9.232   8.874  0.7195  0.0397  0.0538
  201MOL0     H27728   3.079   9.370   9.025  0.1314 -2.3044  0.0746
  201MOL0     H27729   2.905   9.360   8.999 -1.0501 -0.3503 -0.1115
  201MOL0     H27730   3.095   9.491   8.813  0.6842  0.0148  1.3618
  201MOL0     H27731   2.917   9.474   8.780  0.7491  2.9757 -1.1077
  201MOL0     H27732   3.005   9.695   8.861  2.1996 -1.6269 -0.3690
  201MOL0     H27733   3.009   9.624   9.020  1.0494  0.9338 -1.2293
  201MOL0     H27734   2.593   9.684   8.985 -1.0938 -1.9096 -3.5191
  201MOL0     H27735   2.840   9.242   8.522 -2.7360 -0.7849 -2.6554
  201MOL0     H27736   2.690   9.268   8.383 -2.3100  0.6513 -1.1330
  201MOL0     H27737   2.607   9.111   8.397  0.2657 -0.4670  0.4683
  201MOL0     H27738   2.515   9.265   8.420 -1.1189 -1.3343  0.2725
  202MOL0     O27739  10.949   3.162  11.038  0.0981 -0.0211  0.9295
  202MOL0     C27740  10.972   3.275  11.013 -0.2536 -0.5769  0.5509
  202MOL0     O27741  11.089   3.320  10.958 -0.8614  0.5529  0.0585
  202MOL0     C27742  11.181   3.223  10.931 -0.1134  0.3147  0.0456
  202MOL0     C27743  11.275   3.184  11.028  0.1498  0.1933  0.0924
  202MOL0     C27744  11.363   3.086  10.993  0.1120  0.1447  0.3937
  202MOL0     C27745  11.364   3.010  10.875  0.5992 -0.3837 -0.0114
  202MOL0     O27746  11.460   2.920  10.869  0.4727 -0.6960  0.5478
  202MOL0     C27747  11.489   2.848  10.747 -0.0450 -0.4740  0.0663
  202MOL0     C27748  11.612   2.769  10.773 -0.4175  0.3710 -0.5670
  202MOL0     C27749  11.575   2.621  10.781 -0.1118 -0.6453  0.4585
  202MOL0     C27750  11.689   2.538  10.830 -1.2019 -0.2516  0.4927
  202MOL0     C27751  11.669   2.391  10.820  0.1298  0.6936  0.4582
  202MOL0     C27752  11.799   2.310  10.855  0.4517  0.1030  0.4101
  202MOL0     C27753  11.771   2.160  10.838  0.1385  0.3690 -0.0346
  202MOL0     C27754  11.749   2.085  10.957  0.0860  0.1136 -1.1154
  202MOL0     N27755  11.871   2.007  10.987 -0.0772  0.2869 -0.2388
  202MOL0     C27756  11.988   2.069  11.046  0.8605  0.1075  0.5052
  202MOL0     C27757  12.081   1.967  11.050 -0.2793 -0.4365 -0.6523
  202MOL0     C27758  12.222   1.978  11.109  0.3917 -0.7275 -0.5423
  202MOL0     C27759  12.242   1.871  11.222 -0.2414  0.1170  0.4469
  202MOL0     C27760  12.230   1.923  11.368  0.5501 -0.0288  0.1484
  202MOL0     C27761  12.088   1.883  11.419 -0.6188  0.0537 -0.0305
  202MOL0     O27762  12.025   1.981  11.506  0.1511  0.2417 -0.3094
  202MOL0     C27763  11.951   2.072  11.437  0.7284  1.1912 -1.0071
  202MOL0     C27764  11.982   2.206  11.409 -1.0815 -0.9626  0.4204
  202MOL0     C27765  11.901   2.297  11.358  0.3921 -0.2494  0.0206
  202MOL0     C27766  11.943   2.437  11.326 -0.1585  0.9004  0.3206
  202MOL0     C27767  11.768   2.262  11.330  0.3309  0.6757 -0.8990
  202MOL0     C27768  11.674   2.360  11.270  0.4303  0.0959 -0.0472
  202MOL0     O27769  11.561   2.395  11.347  0.3694 -0.1917  0.1198
  202MOL0     C27770  11.461   2.475  11.301  0.6670 -0.5018  0.0051
  202MOL0     C27771  11.334   2.466  11.358 -0.0949 -0.1196 -0.6574
  202MOL0     C27772  11.223   2.536  11.309 -0.0644 -0.3613  0.2425
  202MOL0     C27773  11.232   2.631  11.217 -0.5703  0.1393  0.2968
  202MOL0     O27774  11.114   2.692  11.164  0.4307  0.5705 -0.1055
  202MOL0     C27775  11.126   2.834  11.130 -0.1628  0.2049  0.2328
  202MOL0     C27776  11.082   2.937  11.238  1.0627  0.3811 -0.5314
  202MOL0     C27777  11.152   2.907  11.370 -0.0834  0.3778 -0.0635
  202MOL0     C27778  11.140   3.020  11.471 -0.6947 -0.0082 -0.6931
  202MOL0     C27779  11.218   2.977  11.596 -1.3708 -0.8080  0.8778
  202MOL0     C27780  11.186   3.067  11.717 -0.3656  0.3705 -0.0696
  202MOL0     C27781  11.278   3.029  11.838 -0.7375 -0.5657 -0.1569
  202MOL0     C27782  11.251   3.110  11.964  0.3050  0.0814  0.0930
  202MOL0    Cl27783  11.315   3.014  12.102 -0.9116 -0.0148  0.1592
  202MOL0     C27784  11.357   2.654  11.168 -0.8001  1.0238 -0.1215
  202MOL0     C27785  11.467   2.578  11.204 -0.7921  0.5502 -0.0810
  202MOL0     O27786  11.692   2.392  11.160 -0.0790 -0.1411  0.6122
  202MOL0     C27787  11.735   2.128  11.357  0.7693  0.1895 -0.5621
  202MOL0     C27788  11.822   2.033  11.399  1.3367 -0.0826 -0.1485
  202MOL0     N27789  12.023   1.861  11.000 -0.2564 -0.2534  0.4809
  202MOL0     N27790  11.902   1.876  10.954  0.1450  0.5485 -0.9154
  202MOL0     C27791  11.267   3.041  10.782  0.5813 -0.6578 -0.4016
  202MOL0     C27792  11.184   3.152  10.803 -0.2115 -0.0631  0.5220
  202MOL0     C27793  10.866   3.371  11.055 -0.7566 -0.7369 -1.1152
  202MOL0     C27794  10.763   3.316  11.138 -0.9759 -0.5352  0.1232
  202MOL0     C27795  10.667   3.403  11.196 -0.1141  0.5385  0.4665
  202MOL0     C27796  10.666   3.541  11.162 -1.5516  1.0486 -0.3741
  202MOL0     O27797  10.565   3.621  11.213 -0.6384 -0.2625 -0.0041
  202MOL0     C27798  10.507   3.711  11.120 -0.1928  0.3166 -0.3074
  202MOL0     C27799  10.366   3.741  11.166 -0.3407 -0.3675  0.6852
  202MOL0     C27800  10.365   3.836  11.287 -0.3464 -0.4460  0.5645
  202MOL0     C27801  10.221   3.826  11.352  0.6555  0.0704  0.2941
  202MOL0     C27802  10.199   3.698  11.425 -0.1310 -0.7035 -0.2045
  202MOL0     C27803  10.209   3.594  11.484 -0.6224  0.0674  0.1827
  202MOL0     C27804  10.765   3.588  11.077  0.1708 -0.0240  0.7242
  202MOL0     C27805  10.864   3.511  11.021  0.4220 -0.0974 -0.1073
  202MOL0     C27806  10.958   3.582  10.922 -0.2931 -0.4487  0.2846
  202MOL0     H27807  11.281   3.223  11.129 -0.8128  2.1930 -0.5820
  202MOL0     H27808  11.439   3.041  11.056 -0.0959 -2.0591 -0.8258
  202MOL0     H27809  11.517   2.924  10.674  2.8839  1.7770  3.1871
  202MOL0     H27810  11.409   2.787  10.706 -0.6746  0.6575 -0.4496
  202MOL0     H27811  11.675   2.781  10.684  0.6207  1.0158  0.2385
  202MOL0     H27812  11.663   2.807  10.862 -1.2492 -2.0290  1.0633
  202MOL0     H27813  11.502   2.621  10.863 -2.2030 -0.3863 -1.3185
  202MOL0     H27814  11.534   2.584  10.687 -0.4610  0.5622  0.1099
  202MOL0     H27815  11.775   2.558  10.764 -1.4916 -0.3116  0.0924
  202MOL0     H27816  11.726   2.560  10.931 -1.0582  2.3678 -0.0406
  202MOL0     H27817  11.639   2.371  10.716  0.6685  1.9401  0.0516
  202MOL0     H27818  11.589   2.355  10.886  0.0748  0.7633  0.4294
  202MOL0     H27819  11.866   2.341  10.775 -1.3229 -1.7837 -1.9584
  202MOL0     H27820  11.832   2.343  10.954 -1.9888  2.3995  0.5474
  202MOL0     H27821  11.852   2.112  10.782 -0.6697 -0.6674 -0.3339
  202MOL0     H27822  11.682   2.163  10.775  0.0956 -0.2394 -0.0014
  202MOL0     H27823  11.709   2.147  11.037  0.8532 -1.1953  0.3234
  202MOL0     H27824  11.671   2.010  10.939  0.1732  0.1848 -1.8177
  202MOL0     H27825  12.005   2.174  11.068 -0.4398 -0.1212  2.8780
  202MOL0     H27826  12.232   2.081  11.145 -0.6508  0.2894 -2.9614
  202MOL0     H27827  12.296   1.968  11.029 -0.8355 -0.4154 -1.7547
  202MOL0     H27828  12.178   1.783  11.219  1.7658 -1.5805  3.2519
  202MOL0     H27829  12.341   1.826  11.211  0.5735  1.7071  0.9628
  202MOL0     H27830  12.307   1.880  11.433 -0.3839  0.1637  1.4168
  202MOL0     H27831  12.251   2.030  11.372  0.9584  0.0333 -2.0257
  202MOL0     H27832  12.026   1.867  11.331  2.7118 -1.1885 -2.3565
  202MOL0     H27833  12.098   1.784  11.465  0.4526  0.5399  0.8271
  202MOL0     H27834  12.078   2.247  11.438 -0.6957 -1.3243 -0.3055
  202MOL0     H27835  11.867   2.513  11.343  1.2687  2.2314  0.9430
  202MOL0     H27836  11.972   2.436  11.220 -0.8804  1.8272  0.0981
  202MOL0     H27837  12.031   2.471  11.381  1.4124 -0.4074 -1.2356
  202MOL0     H27838  11.319   2.387  11.431 -2.3744  0.7934 -0.0708
  202MOL0     H27839  11.128   2.512  11.354 -0.0393 -1.3622 -0.2154
  202MOL0     H27840  11.229   2.865  11.110 -1.3338  3.5337 -1.5894
  202MOL0     H27841  11.073   2.851  11.035 -0.2414 -1.3154 -0.0205
  202MOL0     H27842  11.102   3.037  11.199  1.7483  1.2037  1.7537
  202MOL0     H27843  10.975   2.930  11.259  1.4191  1.0356  1.7002
  202MOL0     H27844  11.254   2.903  11.332 -0.4712 -0.7721 -1.0252
  202MOL0     H27845  11.138   2.804  11.403  3.6123 -0.3913 -0.5052
  202MOL0     H27846  11.038   3.049  11.498  0.0560  1.1063  1.1283
  202MOL0     H27847  11.190   3.099  11.413 -0.7841  0.2441 -0.4304
  202MOL0     H27848  11.190   2.874  11.617  1.3439 -1.0039  4.3685
  202MOL0     H27849  11.324   2.982  11.568 -1.0344 -4.8682  0.8787
  202MOL0     H27850  11.084   3.046  11.749 -0.8720  2.2992 -0.3029
  202MOL0     H27851  11.192   3.173  11.693 -1.6496  0.3249 -0.6915
  202MOL0     H27852  11.381   3.051  11.812 -0.3395 -3.8157 -1.8994
  202MOL0     H27853  11.274   2.921  11.854 -1.8290 -0.6837 -1.0505
  202MOL0     H27854  11.144   3.128  11.977  0.7471  0.3568  5.2713
  202MOL0     H27855  11.296   3.210  11.959  0.8302 -0.0812  1.3677
  202MOL0     H27856  11.372   2.719  11.082  2.3242 -1.0877 -1.3693
  202MOL0     H27857  11.566   2.584  11.159 -0.3558 -1.2494  0.5512
  202MOL0     H27858  11.632   2.100  11.333 -0.0566 -1.0487  3.7102
  202MOL0     H27859  11.796   1.929  11.408  1.6643 -0.2344 -0.8761
  202MOL0     H27860  11.254   2.991  10.687 -1.0749 -1.8348  0.3995
  202MOL0     H27861  11.106   3.176  10.731 -1.0119 -1.6161  0.8382
  202MOL0     H27862  10.750   3.211  11.159  1.4705 -1.1607 -1.1508
  202MOL0     H27863  10.582   3.376  11.257  0.6802  2.0512  2.3324
  202MOL0     H27864  10.564   3.803  11.107  0.1189  0.3992  1.3523
  202MOL0     H27865  10.507   3.654  11.027 -0.4186 -3.6602  1.8916
  202MOL0     H27866  10.312   3.648  11.189  0.9599 -1.4702 -0.5668
  202MOL0     H27867  10.306   3.779  11.083  1.6620  1.3715 -0.0439
  202MOL0     H27868  10.444   3.808  11.357  0.5676  1.4318  0.3484
  202MOL0     H27869  10.372   3.938  11.247  1.1676 -1.0045 -0.6814
  202MOL0     H27870  10.144   3.823  11.274  1.6895  0.1439 -0.7684
  202MOL0     H27871  10.196   3.910  11.417  0.2799  0.4795 -0.3659
  202MOL0     H27872  10.218   3.499  11.533 -1.4463 -1.0190 -1.6626
  202MOL0     H27873  10.766   3.695  11.059  1.3012  0.4983  3.5431
  202MOL0     H27874  10.987   3.527  10.832 -1.6380 -0.7265  0.0057
  202MOL0     H27875  10.932   3.686  10.902  0.9013 -0.3821 -1.0144
  202MOL0     H27876  11.061   3.586  10.959 -0.0783  0.2200 -0.3638
  203MOL0     O27877   0.568   7.151   2.550 -0.1443  0.3252 -0.2327
  203MOL0     C27878   0.507   7.161   2.655 -1.2575 -0.8893 -0.6248
  203MOL0     O27879   0.535   7.253   2.758  0.0924 -0.2172  1.0031
  203MOL0     C27880   0.652   7.324   2.740  0.2395  0.4131  0.6889
  203MOL0     C27881   0.775   7.267   2.776  0.3510 -0.2998 -1.2476
  203MOL0     C27882   0.895   7.338   2.754  0.1494 -0.4667  0.9547
  203MOL0     C27883   0.893   7.461   2.693  0.8528 -0.2704  0.2799
  203MOL0     O27884   1.015   7.523   2.682 -0.1979  1.3955  0.5845
  203MOL0     C27885   1.052   7.581   2.555  0.3629  0.1379  0.0468
  203MOL0     C27886   1.143   7.486   2.468  0.9104 -0.2869 -0.3951
  203MOL0     C27887   1.274   7.449   2.531 -0.4160 -1.0618 -0.4133
  203MOL0     C27888   1.370   7.404   2.419 -0.2051 -0.5592 -0.2256
  203MOL0     C27889   1.329   7.271   2.354  0.2674  0.1712  0.1313
  203MOL0     C27890   1.391   7.151   2.426 -0.2049  0.2429 -0.5995
  203MOL0     C27891   1.343   7.017   2.378 -0.1108 -0.3000  0.8232
  203MOL0     C27892   1.383   6.890   2.450  1.0401  0.1154 -0.3769
  203MOL0     N27893   1.353   6.888   2.596 -0.0176 -0.2537  0.9355
  203MOL0     C27894   1.238   6.940   2.651 -0.8853  0.1250  1.1392
  203MOL0     C27895   1.199   6.854   2.754 -0.5132 -1.3425 -0.4728
  203MOL0     C27896   1.070   6.881   2.845  0.5781 -0.4869 -0.2825
  203MOL0     C27897   1.053   7.018   2.909  0.1335  0.5509  0.0927
  203MOL0     C27898   1.057   7.009   3.061  0.4949  0.0964 -0.0300
  203MOL0     C27899   1.039   7.150   3.121  0.7714  0.3824  0.6615
  203MOL0     O27900   1.152   7.233   3.089 -0.0924 -0.1343 -0.7177
  203MOL0     C27901   1.223   7.278   3.201  0.8621  0.0101 -0.0415
  203MOL0     C27902   1.356   7.281   3.199  0.4322 -0.3924  0.2705
  203MOL0     C27903   1.440   7.328   3.300 -0.0208 -0.4347 -0.5746
  203MOL0     C27904   1.581   7.347   3.274  0.6441  0.1620  0.7744
  203MOL0     C27905   1.373   7.374   3.414  0.5948  0.1465 -0.6675
  203MOL0     C27906   1.438   7.433   3.540 -0.4941 -0.4525 -0.3833
  203MOL0     O27907   1.571   7.405   3.573  0.2304 -0.0695 -0.0831
  203MOL0     C27908   1.640   7.435   3.693  0.3415  0.2635  0.4190
  203MOL0     C27909   1.756   7.365   3.714  0.3961 -0.7725  0.2011
  203MOL0     C27910   1.834   7.379   3.825 -0.1363 -0.0955  0.6095
  203MOL0     C27911   1.800   7.471   3.924  0.0210 -0.7657 -0.4456
  203MOL0     O27912   1.878   7.521   4.028 -0.5058  0.4944  0.4498
  203MOL0     C27913   2.011   7.466   4.032  0.2316  0.1719 -0.1997
  203MOL0     C27914   2.102   7.549   4.115 -0.0220  0.1674  0.4863
  203MOL0     C27915   2.253   7.493   4.118 -0.8663 -0.0019 -0.5466
  203MOL0     C27916   2.259   7.378   4.225  0.0738 -0.2116  0.1886
  203MOL0     C27917   2.395   7.312   4.229  0.2185 -0.0225 -1.0775
  203MOL0     C27918   2.408   7.200   4.321 -0.9409  0.5681 -0.3621
  203MOL0     C27919   2.548   7.131   4.322 -0.3641 -0.3270  0.0290
  203MOL0     C27920   2.546   7.013   4.416 -0.2251  0.0941  0.1098
  203MOL0    Cl27921   2.540   7.079   4.578 -0.6542 -0.0526  0.0648
  203MOL0     C27922   1.678   7.549   3.900 -0.9345  0.2598 -0.3577
  203MOL0     C27923   1.605   7.532   3.785  0.6417 -0.2170 -0.6636
  203MOL0     O27924   1.362   7.502   3.611 -0.5368  0.6305  0.0333
  203MOL0     C27925   1.232   7.366   3.423  0.8534  0.4820 -0.2316
  203MOL0     C27926   1.160   7.332   3.309 -0.1002 -0.1054 -0.2895
  203MOL0     N27927   1.291   6.749   2.758 -0.0654  0.1091 -0.5974
  203MOL0     N27928   1.385   6.778   2.667  0.1110  0.4884  0.8157
  203MOL0     C27929   0.772   7.513   2.650 -0.0972  1.0370 -0.2781
  203MOL0     C27930   0.652   7.445   2.674 -0.4887  0.3221  0.2276
  203MOL0     C27931   0.383   7.084   2.682 -0.7518  0.1531 -0.0003
  203MOL0     C27932   0.281   7.154   2.750 -0.3724  0.8588 -0.0408
  203MOL0     C27933   0.164   7.087   2.778 -0.0632 -0.0110  0.4464
  203MOL0     C27934   0.140   6.961   2.736  0.2843 -0.8371 -0.7476
  203MOL0     O27935   0.018   6.911   2.762 -0.3154  0.2588 -0.5506
  203MOL0     C27936  -0.022   6.767   2.744  0.4037 -0.3627  0.5249
  203MOL0     C27937   0.056   6.674   2.836 -1.0353  0.4413  0.1194
  203MOL0     C27938  -0.003   6.535   2.837 -0.4718  0.4873  0.1694
  203MOL0     C27939   0.095   6.421   2.854 -1.1522 -0.3631 -0.1637
  203MOL0     C27940   0.193   6.406   2.749  0.6189 -0.0990  0.1384
  203MOL0     C27941   0.274   6.385   2.653  0.0766 -0.2602  0.3067
  203MOL0     C27942   0.240   6.898   2.665 -1.0826  0.5637  0.1499
  203MOL0     C27943   0.363   6.952   2.628 -0.2043 -0.1032  0.1172
  203MOL0     C27944   0.453   6.865   2.546  0.2010  1.2414  1.1425
  203MOL0     H27945   0.777   7.170   2.824  4.2165  0.6908  1.0170
  203MOL0     H27946   0.997   7.312   2.780 -0.3866 -3.9879  0.0828
  203MOL0     H27947   1.107   7.674   2.567 -2.0269  1.6890 -0.4827
  203MOL0     H27948   0.964   7.615   2.500 -1.0299 -0.4752  1.7833
  203MOL0     H27949   1.096   7.390   2.445  1.6832 -0.4280 -1.4753
  203MOL0     H27950   1.149   7.539   2.373  1.5877  0.2043 -0.0848
  203MOL0     H27951   1.322   7.543   2.558 -0.6294  0.1763 -3.8020
  203MOL0     H27952   1.262   7.395   2.625 -0.5800  2.0065  1.4483
  203MOL0     H27953   1.358   7.466   2.330 -4.6137 -0.7272  0.0460
  203MOL0     H27954   1.472   7.404   2.460 -0.2935 -1.6310  0.0277
  203MOL0     H27955   1.374   7.270   2.255 -1.7199  1.2349 -0.8408
  203MOL0     H27956   1.224   7.253   2.332  0.2162 -0.9015  1.1638
  203MOL0     H27957   1.500   7.151   2.420 -0.2348  2.4283 -1.8342
  203MOL0     H27958   1.375   7.166   2.533  3.7899  4.4766 -0.2557
  203MOL0     H27959   1.369   7.013   2.272 -0.5939  0.2266  0.6794
  203MOL0     H27960   1.234   7.022   2.385 -0.1040 -0.8343  1.4086
  203MOL0     H27961   1.344   6.803   2.396  0.4047  0.6340 -0.7773
  203MOL0     H27962   1.491   6.880   2.435  0.8506 -2.3077 -0.4650
  203MOL0     H27963   1.189   7.033   2.624 -0.2621 -0.2473 -1.5001
  203MOL0     H27964   1.065   6.795   2.912  0.8332  2.7157  4.2848
  203MOL0     H27965   0.981   6.873   2.782 -0.4920 -0.2881  1.1573
  203MOL0     H27966   1.138   7.078   2.873  0.4992 -1.2052 -2.2129
  203MOL0     H27967   0.961   7.074   2.892  1.1885  1.8980 -1.5884
  203MOL0     H27968   0.984   6.945   3.111 -2.4876  3.7078  0.6755
  203MOL0     H27969   1.161   6.982   3.081  1.5834  2.5851 -1.8528
  203MOL0     H27970   0.954   7.202   3.077  1.6313  1.2083 -0.0553
  203MOL0     H27971   1.032   7.144   3.230 -2.2897  0.4517  0.5578
  203MOL0     H27972   1.399   7.223   3.118 -3.7342 -1.9009 -1.0844
  203MOL0     H27973   1.637   7.262   3.313 -0.8346 -1.8316 -1.2553
  203MOL0     H27974   1.628   7.431   3.327 -0.1714  0.2171  1.4264
  203MOL0     H27975   1.599   7.367   3.168  1.4574  2.4356  1.2659
  203MOL0     H27976   1.784   7.288   3.643 -1.7630 -2.1221  0.7250
  203MOL0     H27977   1.930   7.328   3.823  0.8105  1.5994  1.0839
  203MOL0     H27978   1.995   7.366   4.073  0.0099 -0.4431 -1.7273
  203MOL0     H27979   2.055   7.454   3.933 -1.4347  0.3671 -0.9947
  203MOL0     H27980   2.107   7.654   4.085  0.5591 -0.5946 -2.3662
  203MOL0     H27981   2.061   7.543   4.216  0.0171  1.4491  0.5872
  203MOL0     H27982   2.328   7.568   4.148 -0.6248 -1.3468  2.6960
  203MOL0     H27983   2.287   7.458   4.020 -0.2365  0.0352 -0.3509
  203MOL0     H27984   2.182   7.306   4.197  1.6805 -1.1973 -2.0625
  203MOL0     H27985   2.246   7.402   4.331  1.9391 -2.0482  0.9249
  203MOL0     H27986   2.418   7.274   4.129  0.5786  0.6776 -1.2682
  203MOL0     H27987   2.469   7.390   4.250 -0.7555  1.2165 -2.0691
  203MOL0     H27988   2.335   7.123   4.294 -2.1714  1.0436  1.4510
  203MOL0     H27989   2.386   7.226   4.425 -3.1080  0.4515 -0.7562
  203MOL0     H27990   2.628   7.198   4.353 -0.7497 -0.5608  1.6050
  203MOL0     H27991   2.567   7.099   4.219 -3.6123  2.3220 -1.6016
  203MOL0     H27992   2.637   6.953   4.399  0.5344  0.9410  1.1000
  203MOL0     H27993   2.461   6.945   4.418 -0.6121  0.5846  2.0926
  203MOL0     H27994   1.649   7.620   3.977  0.4439 -1.4193  1.8318
  203MOL0     H27995   1.516   7.593   3.771  0.7056 -0.3116 -1.5836
  203MOL0     H27996   1.176   7.401   3.509  1.2959 -3.0127  1.6695
  203MOL0     H27997   1.052   7.337   3.307 -0.0895 -0.1153 -1.8400
  203MOL0     H27998   0.766   7.606   2.594  0.0358 -0.2912 -2.6406
  203MOL0     H27999   0.557   7.488   2.646  0.4288  0.7132 -2.5813
  203MOL0     H28000   0.294   7.251   2.797 -1.0492  0.9749 -0.0866
  203MOL0     H28001   0.082   7.130   2.833  0.2655  1.1238  0.0884
  203MOL0     H28002  -0.128   6.745   2.762  0.4726 -1.4231 -0.2764
  203MOL0     H28003   0.007   6.737   2.643  2.0571 -1.3460  1.2491
  203MOL0     H28004   0.053   6.713   2.938 -1.9705  2.1498 -0.5120
  203MOL0     H28005   0.159   6.668   2.801 -0.4311 -0.7664  1.9758
  203MOL0     H28006  -0.068   6.533   2.924  0.7435 -3.0812  1.1554
  203MOL0     H28007  -0.061   6.517   2.746  2.1805  2.5519 -2.1181
  203MOL0     H28008   0.044   6.325   2.863 -0.1175 -1.0223 -1.0480
  203MOL0     H28009   0.140   6.430   2.954 -3.0516  0.5640  0.6702
  203MOL0     H28010   0.338   6.384   2.567 -0.7355 -0.6548 -0.3173
  203MOL0     H28011   0.226   6.793   2.641  0.3582  0.3168  0.3188
  203MOL0     H28012   0.445   6.767   2.595 -0.3210  0.3337 -0.6919
  203MOL0     H28013   0.420   6.833   2.447  2.9113  1.4184  0.1188
  203MOL0     H28014   0.551   6.912   2.537  1.6801 -2.0452 -3.7051
  204MOL0     O28015   8.738   8.207   2.248  0.5693  0.1677  0.3570
  204MOL0     C28016   8.704   8.289   2.172 -0.5686 -0.6571  0.6802
  204MOL0     O28017   8.578   8.326   2.144  0.0524  0.1179 -0.7813
  204MOL0     C28018   8.463   8.272   2.202 -1.0777 -0.1195 -0.5695
  204MOL0     C28019   8.352   8.344   2.194  1.0778 -0.6527 -0.8919
  204MOL0     C28020   8.237   8.295   2.257 -0.0029 -0.6422  0.8070
  204MOL0     C28021   8.225   8.167   2.315 -0.1000  0.6031  0.4510
  204MOL0     O28022   8.100   8.130   2.367 -0.2101  0.0616 -0.4473
  204MOL0     C28023   8.105   8.046   2.488  1.3958 -0.2710  0.6042
  204MOL0     C28024   8.190   8.112   2.588  0.3452  0.2100  0.0812
  204MOL0     C28025   8.166   8.070   2.727  0.0131  0.0693 -0.4915
  204MOL0     C28026   8.029   8.126   2.779 -0.2173  0.0445  0.0765
  204MOL0     C28027   8.022   8.105   2.934 -0.0781  0.4335  0.6375
  204MOL0     C28028   8.038   7.967   2.987  0.8757  0.2881 -0.8340
  204MOL0     C28029   7.902   7.883   2.990  0.2432 -0.2601 -0.3038
  204MOL0     C28030   7.849   7.827   2.859  0.2226 -0.2926 -0.0709
  204MOL0     N28031   7.944   7.725   2.790  0.2079  0.1521  0.0720
  204MOL0     C28032   7.989   7.603   2.838 -0.9302 -0.6573 -0.1165
  204MOL0     C28033   8.084   7.570   2.749  0.5485  0.1574 -0.2021
  204MOL0     C28034   8.174   7.451   2.749 -0.3514 -0.4721  0.6801
  204MOL0     C28035   8.312   7.479   2.811 -0.1964  0.1089  0.4817
  204MOL0     C28036   8.397   7.353   2.845  0.4780  0.7534  0.5932
  204MOL0     C28037   8.533   7.387   2.905 -0.6154  0.3058  0.2792
  204MOL0     O28038   8.588   7.493   2.818 -0.1378  0.0228 -1.4329
  204MOL0     C28039   8.701   7.468   2.746 -0.0748  0.4495 -0.4224
  204MOL0     C28040   8.788   7.571   2.709 -0.6008 -0.4001 -0.0338
  204MOL0     C28041   8.898   7.552   2.624 -0.1917  0.6664  0.4270
  204MOL0     C28042   8.992   7.674   2.597 -0.4735 -0.5255  0.1947
  204MOL0     C28043   8.922   7.429   2.563 -0.3176  0.3219 -0.1791
  204MOL0     C28044   9.026   7.393   2.466 -0.4757 -0.4006  0.3986
  204MOL0     O28045   9.011   7.272   2.407 -0.0582 -0.4944 -0.2673
  204MOL0     C28046   9.096   7.232   2.300  0.7436 -0.0027 -1.3335
  204MOL0     C28047   9.042   7.206   2.174 -0.1072  1.2778  0.0305
  204MOL0     C28048   9.131   7.168   2.077  0.0492  0.2491  0.5501
  204MOL0     C28049   9.264   7.168   2.087  0.2492 -0.0409 -0.6436
  204MOL0     O28050   9.340   7.125   1.985  0.6126 -0.4756  0.2425
  204MOL0     C28051   9.463   7.052   2.012 -1.1597  1.0667  0.7676
  204MOL0     C28052   9.542   7.041   1.881 -0.0554 -0.2625 -0.1568
  204MOL0     C28053   9.458   7.008   1.759 -0.4337  0.2986 -0.7814
  204MOL0     C28054   9.557   7.017   1.638 -0.0235 -0.3834 -0.0593
  204MOL0     C28055   9.498   6.994   1.502  0.2275 -0.5931 -0.8587
  204MOL0     C28056   9.448   6.855   1.491 -0.0853  0.5019 -0.2771
  204MOL0     C28057   9.349   6.826   1.378  1.1372 -0.2669  0.5222
  204MOL0     C28058   9.282   6.696   1.372  0.4653  0.4360  0.6734
  204MOL0    Cl28059   9.153   6.690   1.253 -0.2195 -0.1236  0.2925
  204MOL0     C28060   9.318   7.203   2.213  0.5017 -0.2020 -0.2522
  204MOL0     C28061   9.236   7.233   2.318  0.5129 -1.1501  0.1386
  204MOL0     O28062   9.109   7.479   2.441 -0.7814 -0.4410  0.2356
  204MOL0     C28063   8.832   7.327   2.601 -0.4854 -0.0806  0.5534
  204MOL0     C28064   8.733   7.342   2.693  0.2554 -0.2025 -0.4728
  204MOL0     N28065   8.100   7.672   2.658  0.1243 -0.0341 -0.5860
  204MOL0     N28066   8.018   7.766   2.682  0.3832 -0.6785 -0.0315
  204MOL0     C28067   8.336   8.081   2.305 -0.3725  0.2880  0.0009
  204MOL0     C28068   8.454   8.138   2.254  0.0495 -1.1373 -0.6895
  204MOL0     C28069   8.800   8.336   2.065  0.6212  0.0687 -0.9354
  204MOL0     C28070   8.746   8.402   1.955  0.3078  0.0324  0.0074
  204MOL0     C28071   8.817   8.452   1.854  0.0825 -0.1151  0.0442
  204MOL0     C28072   8.959   8.442   1.858 -0.0192  0.1024  0.1168
  204MOL0     O28073   9.043   8.471   1.753  1.0208 -0.1109  0.7003
  204MOL0     C28074   9.032   8.596   1.685  0.6452 -0.5320 -1.0725
  204MOL0     C28075   9.160   8.668   1.694 -0.4412  0.1501  0.4340
  204MOL0     C28076   9.189   8.765   1.578 -0.4561 -0.5186 -0.4118
  204MOL0     C28077   9.071   8.847   1.535 -0.0021  0.3557  0.2577
  204MOL0     C28078   9.048   8.945   1.631 -0.2279  0.2295 -0.0445
  204MOL0     C28079   9.021   9.037   1.702  1.0253  0.3069  1.0346
  204MOL0     C28080   9.014   8.382   1.971  0.2432  0.1093  0.7344
  204MOL0     C28081   8.938   8.320   2.067 -0.0411  0.1083  0.0757
  204MOL0     C28082   8.998   8.244   2.181  0.2338  1.0915  0.0765
  204MOL0     H28083   8.357   8.441   2.146 -0.1279  0.4435  1.0703
  204MOL0     H28084   8.155   8.366   2.263  1.6170  2.0474 -3.9404
  204MOL0     H28085   8.147   7.953   2.449 -0.1327  0.7295 -4.0733
  204MOL0     H28086   8.004   8.023   2.523  1.2995  0.1283  0.5955
  204MOL0     H28087   8.294   8.106   2.553 -0.7653  1.3992 -3.9804
  204MOL0     H28088   8.170   8.219   2.593 -1.0758 -0.0603  0.4969
  204MOL0     H28089   8.166   7.961   2.736 -0.8624  0.2314  3.3780
  204MOL0     H28090   8.237   8.117   2.796  1.3339 -2.0006 -0.3534
  204MOL0     H28091   8.024   8.234   2.762 -0.2962  0.5572  2.9200
  204MOL0     H28092   7.949   8.070   2.729  2.1512 -1.7976 -1.8320
  204MOL0     H28093   7.921   8.136   2.963  0.0848 -0.0270  1.7471
  204MOL0     H28094   8.096   8.172   2.980  0.2501  0.1564  0.5128
  204MOL0     H28095   8.119   7.909   2.943  1.1032  0.2839 -0.4179
  204MOL0     H28096   8.062   7.990   3.092 -2.0664  0.9407 -0.2015
  204MOL0     H28097   7.819   7.943   3.029 -0.3779 -1.6265  0.5626
  204MOL0     H28098   7.921   7.798   3.056  1.4287 -0.7766 -1.2839
  204MOL0     H28099   7.749   7.786   2.878 -0.2538  1.2303  0.8291
  204MOL0     H28100   7.828   7.906   2.786  1.2264 -1.5248 -1.7783
  204MOL0     H28101   7.955   7.568   2.935  1.3554 -2.6497  0.0665
  204MOL0     H28102   8.194   7.418   2.646  2.2951  0.9672  0.6520
  204MOL0     H28103   8.122   7.374   2.807 -3.4684  3.0999  3.1048
  204MOL0     H28104   8.363   7.542   2.737  0.1027 -0.3644  0.2778
  204MOL0     H28105   8.298   7.540   2.901  0.9115  0.4437  0.4408
  204MOL0     H28106   8.335   7.299   2.917 -0.7047  2.5844  1.0180
  204MOL0     H28107   8.411   7.288   2.758  1.0419  2.2678 -0.4910
  204MOL0     H28108   8.520   7.428   3.006 -3.3819  0.5612 -0.0989
  204MOL0     H28109   8.603   7.303   2.914 -0.4954  0.5791  2.3616
  204MOL0     H28110   8.753   7.669   2.739 -0.2947 -0.9784  2.3412
  204MOL0     H28111   9.096   7.667   2.630 -0.2975 -0.8343 -0.4089
  204MOL0     H28112   8.940   7.762   2.637 -1.9155 -0.3056 -1.9948
  204MOL0     H28113   8.997   7.702   2.492 -4.4213 -1.2121 -0.3459
  204MOL0     H28114   8.937   7.182   2.160  0.3709  0.2108 -2.2121
  204MOL0     H28115   9.079   7.142   1.986 -0.4628  0.0168  0.9016
  204MOL0     H28116   9.529   7.087   2.092 -0.8728  1.1172  0.5096
  204MOL0     H28117   9.431   6.953   2.045 -1.1334  1.4164  1.8751
  204MOL0     H28118   9.592   7.138   1.872 -0.1160  0.1499  2.9466
  204MOL0     H28119   9.618   6.964   1.895  0.1481  0.4726  4.0809
  204MOL0     H28120   9.379   7.083   1.748 -0.4462  0.7811  1.8238
  204MOL0     H28121   9.412   6.910   1.775 -0.2682  0.0686 -1.6811
  204MOL0     H28122   9.640   6.948   1.652 -0.9631 -2.0225 -2.0791
  204MOL0     H28123   9.599   7.118   1.641 -3.7956  1.3182  1.2081
  204MOL0     H28124   9.411   7.058   1.483 -1.5946 -3.2139 -2.0730
  204MOL0     H28125   9.578   7.014   1.430 -0.8407 -0.1040 -1.9568
  204MOL0     H28126   9.413   6.820   1.589 -0.0056  2.1893  0.3910
  204MOL0     H28127   9.539   6.798   1.473 -1.0677 -0.3891 -2.8962
  204MOL0     H28128   9.403   6.841   1.284 -1.4341 -0.5655 -1.1016
  204MOL0     H28129   9.266   6.895   1.391  0.2528 -1.2611  0.2673
  204MOL0     H28130   9.247   6.668   1.471 -2.8735 -0.4078 -0.6113
  204MOL0     H28131   9.354   6.614   1.361  2.2909  1.5321  3.4428
  204MOL0     H28132   9.425   7.219   2.219  0.5310  0.0388 -1.2377
  204MOL0     H28133   9.281   7.256   2.414 -1.0125 -2.3104  1.1715
  204MOL0     H28134   8.840   7.230   2.553 -2.1989  0.0104 -0.0108
  204MOL0     H28135   8.667   7.258   2.711  0.7660 -0.6964 -0.8720
  204MOL0     H28136   8.327   7.975   2.327  2.6698  0.0848  0.6413
  204MOL0     H28137   8.538   8.071   2.242 -0.6417 -1.9810 -0.9567
  204MOL0     H28138   8.640   8.413   1.940  0.5493 -0.1616 -2.1741
  204MOL0     H28139   8.768   8.500   1.770 -1.6323  0.6680  1.4554
  204MOL0     H28140   8.998   8.574   1.583  1.8176 -0.3910 -1.5121
  204MOL0     H28141   8.961   8.657   1.741  1.6228 -1.0036  0.7563
  204MOL0     H28142   9.247   8.601   1.704 -0.8935 -0.2834  1.6717
  204MOL0     H28143   9.170   8.721   1.789  0.5848  1.6914 -0.4949
  204MOL0     H28144   9.269   8.836   1.604 -2.8194  2.0893  0.1928
  204MOL0     H28145   9.222   8.701   1.495  1.1865  1.7351 -1.6223
  204MOL0     H28146   8.987   8.779   1.521 -0.5175  0.9060  0.6240
  204MOL0     H28147   9.096   8.893   1.438  0.5746  1.7144  1.0256
  204MOL0     H28148   8.998   9.127   1.757 -2.7619 -0.2891  0.6992
  204MOL0     H28149   9.122   8.366   1.975  0.0565 -1.3907  0.3109
  204MOL0     H28150   8.951   8.146   2.196  3.0050 -0.4731 -0.7852
  204MOL0     H28151   9.104   8.224   2.164 -0.1353  0.9043 -2.3605
  204MOL0     H28152   8.983   8.303   2.271  0.0102 -0.7008  1.2708
  205MOL0     O28153   3.609   9.795   7.148 -0.8799  0.0238  0.6643
  205MOL0     C28154   3.661   9.898   7.182 -0.7478  0.9394  0.6813
  205MOL0     O28155   3.785   9.904   7.245  0.0962 -0.6779 -0.4278
  205MOL0     C28156   3.851   9.779   7.267 -1.0962 -0.7881 -0.0761
  205MOL0     C28157   3.866   9.723   7.401 -0.3704 -0.1449 -0.0836
  205MOL0     C28158   3.914   9.598   7.412  0.8426 -0.4024 -0.3700
  205MOL0     C28159   3.954   9.515   7.305  0.4633 -0.0433 -0.1210
  205MOL0     O28160   3.992   9.385   7.322  0.1556  0.7490  0.5308
  205MOL0     C28161   3.898   9.296   7.269 -0.1566 -0.5240 -0.9336
  205MOL0     C28162   3.949   9.146   7.261 -0.0800 -0.7285  1.0493
  205MOL0     C28163   4.093   9.170   7.210 -0.3613  0.3487  0.7066
  205MOL0     C28164   4.142   9.021   7.176  0.4441 -0.5082 -0.5936
  205MOL0     C28165   4.286   9.015   7.132  0.3244  0.0863 -0.5629
  205MOL0     C28166   4.347   8.872   7.134  0.6428  0.2673  0.8872
  205MOL0     C28167   4.478   8.876   7.055 -0.4766 -0.3335  0.5174
  205MOL0     C28168   4.559   8.744   7.066 -0.1765 -0.6349 -0.5608
  205MOL0     N28169   4.487   8.647   6.987 -0.7999  1.5468  0.6360
  205MOL0     C28170   4.510   8.612   6.856  0.8103 -0.2297 -1.1587
  205MOL0     C28171   4.417   8.515   6.830 -0.0985  0.4461 -0.0050
  205MOL0     C28172   4.422   8.446   6.697  0.5177  0.3517 -0.0421
  205MOL0     C28173   4.336   8.531   6.604  0.0207  0.8025 -0.1844
  205MOL0     C28174   4.205   8.566   6.659 -0.2868  0.3836 -0.2204
  205MOL0     C28175   4.119   8.635   6.545 -0.5580  0.1495 -0.1729
  205MOL0     O28176   4.163   8.771   6.530 -0.5763  0.1676 -0.0342
  205MOL0     C28177   4.082   8.863   6.582  0.7159 -0.2957 -1.2106
  205MOL0     C28178   4.139   8.969   6.652 -0.4258  0.2118  1.0594
  205MOL0     C28179   4.061   9.058   6.711  0.7430 -0.4138  0.3242
  205MOL0     C28180   4.139   9.150   6.803 -0.0515  1.0752 -0.4340
  205MOL0     C28181   3.917   9.062   6.687 -0.6653 -0.3847 -0.0683
  205MOL0     C28182   3.838   9.166   6.759  0.1757  0.0608  0.3738
  205MOL0     O28183   3.709   9.118   6.789  0.6101 -0.8450  0.6767
  205MOL0     C28184   3.649   9.185   6.898 -0.5724 -0.1852 -0.4322
  205MOL0     C28185   3.607   9.326   6.893 -0.3891  0.7728  0.0978
  205MOL0     C28186   3.550   9.381   7.014  0.8511  0.0842 -0.7574
  205MOL0     C28187   3.523   9.300   7.130  0.6322 -0.6768 -0.0322
  205MOL0     O28188   3.470   9.341   7.254  0.1679 -0.2558  0.7237
  205MOL0     C28189   3.443   9.475   7.259  0.5656 -1.5354 -0.1025
  205MOL0     C28190   3.370   9.496   7.386 -0.6311  0.4124  0.3185
  205MOL0     C28191   3.473   9.538   7.499  0.1058  0.2513 -0.6528
  205MOL0     C28192   3.417   9.529   7.642  0.0187  0.9647  0.0931
  205MOL0     C28193   3.506   9.593   7.750  0.4662  0.3189 -0.9853
  205MOL0     C28194   3.655   9.558   7.727 -0.2707 -0.9830  0.7061
  205MOL0     C28195   3.733   9.626   7.837 -0.5799  0.6151  0.1213
  205MOL0     C28196   3.875   9.608   7.820  0.5980 -0.8717 -0.3043
  205MOL0    Cl28197   3.951   9.736   7.715 -0.1239  0.0806 -0.1624
  205MOL0     C28198   3.557   9.169   7.121 -0.9524  0.1297 -0.1505
  205MOL0     C28199   3.625   9.115   7.018  0.2291 -0.1308  0.6656
  205MOL0     O28200   3.890   9.281   6.774 -0.0881 -0.1897  0.4341
  205MOL0     C28201   3.862   8.960   6.605 -0.8178  0.0795  0.3968
  205MOL0     C28202   3.945   8.858   6.564 -0.2512  0.4055  0.2788
  205MOL0     N28203   4.325   8.504   6.932 -0.4914 -0.3092  0.0580
  205MOL0     N28204   4.363   8.589   7.022 -0.5618 -0.2769  0.6731
  205MOL0     C28205   3.961   9.577   7.187 -0.7007  0.0027 -0.1523
  205MOL0     C28206   3.917   9.710   7.165 -0.5767  0.4817 -1.1017
  205MOL0     C28207   3.602  10.029   7.152 -0.4056  0.5872  0.0532
  205MOL0     C28208   3.641  10.149   7.224 -0.1225  0.2998  0.6155
  205MOL0     C28209   3.594  10.274   7.184 -0.2319  0.1203  0.2372
  205MOL0     C28210   3.497  10.283   7.077 -0.2916 -0.0708  0.5619
  205MOL0     O28211   3.430  10.396   7.034 -0.9574  0.2227  0.4376
  205MOL0     C28212   3.299  10.416   7.094  0.0991  0.0002 -0.4444
  205MOL0     C28213   3.230  10.536   7.027 -1.0443  0.1681  0.0475
  205MOL0     C28214   3.204  10.500   6.869 -0.1884  0.2031  0.7861
  205MOL0     C28215   3.086  10.396   6.854  0.2395 -0.0945  0.2231
  205MOL0     C28216   2.960  10.451   6.920 -0.3485 -0.3171  0.1089
  205MOL0     C28217   2.847  10.481   6.960  0.4306 -1.0251  0.9597
  205MOL0     C28218   3.459  10.168   7.009  0.9835 -1.2475  0.5131
  205MOL0     C28219   3.507  10.042   7.047 -0.2146 -0.9548 -0.1448
  205MOL0     C28220   3.466   9.931   6.956 -0.1923  0.3900  0.2009
  205MOL0     H28221   3.814   9.775   7.481 -0.5103  0.6676 -0.6881
  205MOL0     H28222   3.915   9.562   7.514  2.6560  2.2852  0.6565
  205MOL0     H28223   3.880   9.313   7.162  1.4611 -0.2000 -1.1773
  205MOL0     H28224   3.811   9.300   7.335  1.0703  1.8022  0.6624
  205MOL0     H28225   3.956   9.103   7.362  0.0530  0.8112  1.7254
  205MOL0     H28226   3.873   9.092   7.204 -0.2197 -1.8942  2.2773
  205MOL0     H28227   4.092   9.241   7.128 -2.5459  1.2842  1.4529
  205MOL0     H28228   4.155   9.215   7.288 -0.9887  0.0630  1.3945
  205MOL0     H28229   4.136   8.954   7.263 -0.7410  2.5032  1.8402
  205MOL0     H28230   4.072   8.982   7.102  0.0120 -1.1886  0.1492
  205MOL0     H28231   4.335   9.087   7.198  1.8523  0.0593 -1.6002
  205MOL0     H28232   4.280   9.059   7.032 -3.4330  1.6367  0.1908
  205MOL0     H28233   4.342   8.827   7.234 -0.1227  0.9590  1.1774
  205MOL0     H28234   4.271   8.815   7.081  0.0084  0.5379  1.4804
  205MOL0     H28235   4.544   8.962   7.076 -1.3993 -0.0949  2.6990
  205MOL0     H28236   4.458   8.899   6.950 -0.2347  0.2828  0.5976
  205MOL0     H28237   4.661   8.763   7.032  0.0115  0.6729  0.6696
  205MOL0     H28238   4.568   8.714   7.171  1.8495 -2.5862 -1.2110
  205MOL0     H28239   4.590   8.635   6.786  0.0188  0.6750 -1.7847
  205MOL0     H28240   4.394   8.341   6.712 -2.9823  0.9094 -1.7820
  205MOL0     H28241   4.519   8.434   6.646 -0.1175  3.3079 -2.2448
  205MOL0     H28242   4.395   8.621   6.584 -1.4734  1.3393 -2.5842
  205MOL0     H28243   4.329   8.480   6.507 -2.0449  1.3488 -0.3773
  205MOL0     H28244   4.157   8.479   6.704 -1.3026  0.0579 -1.8716
  205MOL0     H28245   4.202   8.644   6.737  0.9889 -0.0595  0.3035
  205MOL0     H28246   4.126   8.583   6.449  4.0988  0.9746 -0.5037
  205MOL0     H28247   4.016   8.626   6.581  0.0226 -0.4077  1.4321
  205MOL0     H28248   4.243   8.957   6.679  0.3384  3.4916  0.0594
  205MOL0     H28249   4.086   9.180   6.894 -1.2903  2.8608 -1.6667
  205MOL0     H28250   4.171   9.248   6.767 -1.2635  1.4062 -0.6563
  205MOL0     H28251   4.225   9.094   6.840 -1.9305 -1.2387  0.7529
  205MOL0     H28252   3.634   9.398   6.816  0.7753 -0.0108 -0.2475
  205MOL0     H28253   3.537   9.488   7.009  1.6528  0.1439 -2.0204
  205MOL0     H28254   3.535   9.530   7.240 -0.8024  0.5011 -1.1570
  205MOL0     H28255   3.382   9.512   7.176  4.4854  3.0014 -1.4199
  205MOL0     H28256   3.306   9.582   7.364  2.7586  3.0770  0.0549
  205MOL0     H28257   3.324   9.401   7.416  0.9809 -0.5318 -0.0611
  205MOL0     H28258   3.525   9.633   7.491  0.1223  0.5797  2.3041
  205MOL0     H28259   3.558   9.470   7.511 -1.0759 -1.0360  1.0423
  205MOL0     H28260   3.402   9.423   7.666  1.1145  0.5913 -0.8223
  205MOL0     H28261   3.323   9.583   7.662 -0.3251 -0.4089  2.6534
  205MOL0     H28262   3.487   9.700   7.759  2.0538  0.5800 -0.3933
  205MOL0     H28263   3.474   9.545   7.843 -2.2709  1.0758 -1.4521
  205MOL0     H28264   3.693   9.603   7.635  0.0313 -1.2517  0.7007
  205MOL0     H28265   3.667   9.450   7.728  0.8896 -0.8569  1.0543
  205MOL0     H28266   3.696   9.587   7.932 -1.3665 -0.4040 -0.5863
  205MOL0     H28267   3.708   9.733   7.838 -0.3083  0.7426 -2.2855
  205MOL0     H28268   3.900   9.509   7.782 -1.9572 -2.0631  0.8759
  205MOL0     H28269   3.913   9.621   7.922  1.3926  0.6357 -0.7594
  205MOL0     H28270   3.526   9.112   7.208  0.3743 -0.6883 -0.1893
  205MOL0     H28271   3.658   9.011   7.020 -2.4283 -1.0907 -0.1394
  205MOL0     H28272   3.757   8.958   6.578 -1.9162 -0.4369  4.1048
  205MOL0     H28273   3.896   8.782   6.504 -0.1556  0.0498  0.6490
  205MOL0     H28274   3.992   9.525   7.098 -1.3160  1.2591 -1.1304
  205MOL0     H28275   3.906   9.751   7.065  0.6752 -1.3048 -2.0219
  205MOL0     H28276   3.708  10.138   7.309  1.5255  1.0842 -0.5293
  205MOL0     H28277   3.620  10.366   7.236  0.1173  1.8622 -2.7852
  205MOL0     H28278   3.231  10.331   7.079  0.0740 -0.2564  0.9936
  205MOL0     H28279   3.313  10.430   7.201  3.2461 -3.1793 -0.2597
  205MOL0     H28280   3.301  10.618   7.042 -0.7137  0.0901 -1.0050
  205MOL0     H28281   3.137  10.567   7.077 -1.6534 -0.8965 -0.4049
  205MOL0     H28282   3.167  10.593   6.827 -0.1229 -1.1692 -2.5928
  205MOL0     H28283   3.293  10.471   6.812 -0.7245 -0.8679  0.4652
  205MOL0     H28284   3.105  10.299   6.901  0.7248 -1.1911 -2.1055
  205MOL0     H28285   3.071  10.367   6.749  5.1738 -0.5740 -0.5814
  205MOL0     H28286   2.745  10.501   6.986 -0.1154  0.1334 -1.7282
  205MOL0     H28287   3.389  10.187   6.927 -0.4799 -0.3362  1.9125
  205MOL0     H28288   3.409   9.855   7.009 -1.6958 -2.2362 -4.5578
  205MOL0     H28289   3.411   9.973   6.871 -0.2104 -2.6876 -1.4324
  205MOL0     H28290   3.556   9.881   6.919 -0.9797 -0.3806 -0.7189
  206MOL0     O28291   0.143   8.248   5.778  0.1359 -0.4980 -0.1581
  206MOL0     C28292   0.168   8.367   5.776  0.0106  0.8267  0.5660
  206MOL0     O28293   0.259   8.421   5.689  0.9790 -0.3724 -0.2371
  206MOL0     C28294   0.356   8.342   5.625 -0.3156 -0.8633  0.1326
  206MOL0     C28295   0.483   8.383   5.638 -0.7582 -0.0625 -0.0413
  206MOL0     C28296   0.591   8.323   5.567  0.3932 -0.3485  0.8580
  206MOL0     C28297   0.564   8.226   5.470  0.1430 -0.6038  0.1027
  206MOL0     O28298   0.656   8.154   5.397 -0.7893  0.2842 -0.3945
  206MOL0     C28299   0.756   8.238   5.332  1.0005 -0.2825 -0.5205
  206MOL0     C28300   0.828   8.176   5.208  0.1090  0.1173 -0.8176
  206MOL0     C28301   0.962   8.239   5.178  0.0951  0.5176 -0.0623
  206MOL0     C28302   1.012   8.189   5.039 -0.0490 -0.5360 -0.2565
  206MOL0     C28303   1.044   8.039   5.019  0.1491 -0.5169  0.2237
  206MOL0     C28304   1.175   8.001   5.088  0.4322  0.3573  0.3735
  206MOL0     C28305   1.181   7.851   5.130  0.5498 -0.6725  0.1140
  206MOL0     C28306   1.103   7.805   5.260 -0.6363 -0.0389 -1.1200
  206MOL0     N28307   1.110   7.904   5.373 -0.0097 -0.5265  0.5181
  206MOL0     C28308   1.216   7.920   5.455 -0.4593 -1.0750 -0.3184
  206MOL0     C28309   1.174   8.020   5.533  0.0193  0.6440 -0.2890
  206MOL0     C28310   1.262   8.102   5.626 -0.3621 -0.0178  0.5819
  206MOL0     C28311   1.245   8.078   5.777 -0.5904  0.1886  0.7348
  206MOL0     C28312   1.110   8.144   5.823  0.3022 -0.2953 -0.2030
  206MOL0     C28313   1.089   8.115   5.971 -1.2272  0.2046  0.0161
  206MOL0     O28314   0.990   8.011   5.994  0.9231  0.2392 -0.0348
  206MOL0     C28315   0.969   7.989   6.126  0.4682 -0.6855  0.9268
  206MOL0     C28316   1.065   7.938   6.209 -0.3419  0.5991 -0.2434
  206MOL0     C28317   1.043   7.921   6.344 -0.1304  0.5671 -0.0380
  206MOL0     C28318   1.165   7.884   6.427  0.8640 -0.9173 -0.1810
  206MOL0     C28319   0.909   7.940   6.395  0.0309  0.4966  0.0961
  206MOL0     C28320   0.863   7.914   6.536  0.3290 -0.2149  1.0615
  206MOL0     O28321   0.957   7.954   6.627 -0.0293  0.3611  0.1433
  206MOL0     C28322   0.914   7.951   6.753 -0.1480  0.3571 -0.5250
  206MOL0     C28323   0.922   7.823   6.811  0.3555 -0.0546 -0.2418
  206MOL0     C28324   0.893   7.813   6.951  0.9024 -0.1303 -0.5540
  206MOL0     C28325   0.871   7.924   7.037 -0.1911 -0.9369 -0.1187
  206MOL0     O28326   0.833   7.900   7.170  0.2002  0.4154 -0.6109
  206MOL0     C28327   0.808   8.015   7.251 -0.7801 -0.2977  0.9434
  206MOL0     C28328   0.797   7.983   7.400 -0.4117 -0.4074  0.0835
  206MOL0     C28329   0.681   7.886   7.442 -0.3121 -0.8271 -0.0865
  206MOL0     C28330   0.671   7.848   7.593  0.3199 -0.2132 -0.2379
  206MOL0     C28331   0.527   7.783   7.606 -1.0952  1.4375  0.5507
  206MOL0     C28332   0.492   7.737   7.745 -0.1775  0.1773  0.0304
  206MOL0     C28333   0.579   7.626   7.803  0.4399 -0.0653 -0.1469
  206MOL0     C28334   0.606   7.632   7.950 -0.1849 -0.4194 -0.2552
  206MOL0    Cl28335   0.469   7.579   8.052  0.1343 -0.4049  0.4124
  206MOL0     C28336   0.861   8.052   6.972 -0.7927 -0.7138  0.6975
  206MOL0     C28337   0.893   8.066   6.833 -1.0713 -0.4647 -0.4569
  206MOL0     O28338   0.754   7.863   6.564  0.2094  0.2432  0.2861
  206MOL0     C28339   0.814   7.982   6.307  0.2902  0.3560 -0.4794
  206MOL0     C28340   0.841   8.003   6.172  0.8192  0.4080  0.2283
  206MOL0     N28341   1.043   8.055   5.501  0.5062 -0.3389  0.1215
  206MOL0     N28342   1.004   7.982   5.403 -0.0431 -0.0161 -0.9865
  206MOL0     C28343   0.427   8.184   5.460 -0.1439  1.1366  0.3936
  206MOL0     C28344   0.328   8.242   5.536 -0.3244  0.4099 -0.1411
  206MOL0     C28345   0.096   8.448   5.872 -1.1092 -0.3270  0.2274
  206MOL0     C28346   0.164   8.568   5.904  0.4592  0.0021 -0.3959
  206MOL0     C28347   0.104   8.666   5.987  0.2561  0.3540  1.0834
  206MOL0     C28348  -0.023   8.647   6.032  0.7179  0.0278 -0.3498
  206MOL0     O28349  -0.090   8.745   6.105  0.5585 -0.1181  0.2930
  206MOL0     C28350  -0.019   8.809   6.216  0.3183 -0.7130 -0.2273
  206MOL0     C28351   0.019   8.711   6.324 -0.2534  0.1756 -0.0607
  206MOL0     C28352  -0.103   8.660   6.396 -0.0248 -0.4267  0.2106
  206MOL0     C28353  -0.137   8.753   6.522 -0.1362 -0.2769  0.5506
  206MOL0     C28354  -0.244   8.684   6.591  0.6275  0.0312 -0.1889
  206MOL0     C28355  -0.337   8.624   6.638 -0.6305  0.7296 -0.6128
  206MOL0     C28356  -0.084   8.527   6.004 -0.4260 -0.8052  0.4347
  206MOL0     C28357  -0.027   8.420   5.931  0.2746 -0.2189  0.4638
  206MOL0     C28358  -0.112   8.301   5.904 -0.4728  1.1409 -1.1447
  206MOL0     H28359   0.489   8.470   5.702 -0.9424 -1.3254  1.7706
  206MOL0     H28360   0.692   8.363   5.579  0.2421 -0.0846  1.2626
  206MOL0     H28361   0.832   8.267   5.405  2.7353 -1.1569 -1.8827
  206MOL0     H28362   0.701   8.325   5.296  0.8166  0.6878  1.9616
  206MOL0     H28363   0.838   8.069   5.229  0.1228 -0.0070 -1.4469
  206MOL0     H28364   0.764   8.194   5.121 -0.7211  0.3980 -0.1699
  206MOL0     H28365   0.956   8.348   5.177  1.9630  0.6520 -0.8827
  206MOL0     H28366   1.033   8.203   5.254  0.0096 -1.0285 -0.6785
  206MOL0     H28367   0.932   8.218   4.970  1.2327 -0.6448 -1.8348
  206MOL0     H28368   1.101   8.242   5.004 -1.7795  0.5446 -3.5085
  206MOL0     H28369   1.049   8.020   4.911 -3.0093  2.1298 -0.5449
  206MOL0     H28370   0.958   7.979   5.049 -1.7637  0.2123 -3.2293
  206MOL0     H28371   1.264   8.022   5.029  0.2655  0.1312  0.0409
  206MOL0     H28372   1.179   8.055   5.183  0.1880 -2.1023  1.8763
  206MOL0     H28373   1.286   7.831   5.155  0.7358 -1.4090 -1.1760
  206MOL0     H28374   1.157   7.792   5.041  1.3329 -0.5101 -0.2089
  206MOL0     H28375   0.996   7.791   5.239 -0.6143  0.4012 -1.5666
  206MOL0     H28376   1.146   7.714   5.302 -1.0644  0.0922 -0.3800
  206MOL0     H28377   1.312   7.869   5.454  0.3875  0.4564 -1.3887
  206MOL0     H28378   1.243   8.207   5.602 -2.8893 -0.2305  1.4150
  206MOL0     H28379   1.363   8.064   5.608 -0.8765 -0.3619 -1.9139
  206MOL0     H28380   1.244   7.971   5.797  1.9315  0.2867  1.7720
  206MOL0     H28381   1.326   8.134   5.824 -1.4863  2.4993 -0.3176
  206MOL0     H28382   1.123   8.252   5.807  1.3553 -0.2460  0.8467
  206MOL0     H28383   1.020   8.111   5.771 -0.6370  1.2532  0.3814
  206MOL0     H28384   1.192   8.086   5.998 -0.1026  2.4250 -1.5417
  206MOL0     H28385   1.065   8.205   6.029 -3.3051  0.5963 -1.3690
  206MOL0     H28386   1.158   7.908   6.162 -1.2346 -3.8611  0.4193
  206MOL0     H28387   1.244   7.847   6.362  0.6207  1.1318 -1.7643
  206MOL0     H28388   1.138   7.815   6.507  1.0425 -1.0563 -0.2425
  206MOL0     H28389   1.210   7.970   6.479 -0.0683 -0.1403 -0.6276
  206MOL0     H28390   0.951   7.742   6.744  2.0222  1.1723 -1.0927
  206MOL0     H28391   0.893   7.711   6.988 -4.0463 -0.3457 -0.4183
  206MOL0     H28392   0.898   8.076   7.235 -1.3565  0.0625 -1.2040
  206MOL0     H28393   0.714   8.059   7.217  0.0282 -0.4815 -1.8329
  206MOL0     H28394   0.892   7.937   7.430 -0.2414 -0.3127 -0.3027
  206MOL0     H28395   0.795   8.074   7.461 -1.2665 -0.1616 -0.3004
  206MOL0     H28396   0.699   7.796   7.382 -4.1963 -0.8565 -1.5130
  206MOL0     H28397   0.587   7.931   7.407 -0.1603 -0.2459  0.2375
  206MOL0     H28398   0.696   7.929   7.662 -0.5427 -0.0855 -0.0649
  206MOL0     H28399   0.748   7.770   7.599  1.2473  0.7009  0.0530
  206MOL0     H28400   0.451   7.853   7.572 -0.3043  1.6535 -0.8307
  206MOL0     H28401   0.506   7.706   7.531  2.7925 -0.2384  0.9364
  206MOL0     H28402   0.394   7.690   7.742 -0.5054  0.8048  0.7788
  206MOL0     H28403   0.494   7.823   7.812  1.2731 -0.1137  0.3973
  206MOL0     H28404   0.675   7.620   7.750  1.4933 -0.7043  1.7314
  206MOL0     H28405   0.526   7.532   7.785  0.1054  0.2771 -0.9903
  206MOL0     H28406   0.644   7.730   7.978  3.7660 -0.9022 -3.1568
  206MOL0     H28407   0.699   7.580   7.976  0.0563  1.3734  3.0134
  206MOL0     H28408   0.845   8.135   7.040  2.2955 -1.0314  2.0001
  206MOL0     H28409   0.886   8.165   6.789 -0.6711  0.2197  0.9475
  206MOL0     H28410   0.713   7.999   6.342 -0.1234  0.0288 -1.4678
  206MOL0     H28411   0.760   8.034   6.108  0.0908 -3.1555 -0.7908
  206MOL0     H28412   0.405   8.104   5.390  0.1322  1.7764 -0.4414
  206MOL0     H28413   0.227   8.205   5.521 -2.3522  4.9414  0.6652
  206MOL0     H28414   0.262   8.585   5.861  0.5442 -1.1916 -0.6925
  206MOL0     H28415   0.168   8.747   6.020  0.3371  0.9584 -0.4745
  206MOL0     H28416   0.076   8.858   6.190  0.7471 -1.1207  0.5243
  206MOL0     H28417  -0.079   8.893   6.253  1.2186 -0.4024  0.5761
  206MOL0     H28418   0.097   8.761   6.382  0.1037 -1.5427  1.0065
  206MOL0     H28419   0.075   8.635   6.268 -0.3813  0.6178 -0.8171
  206MOL0     H28420  -0.193   8.655   6.334 -1.9039 -2.7615  2.8821
  206MOL0     H28421  -0.083   8.562   6.440 -1.3034 -0.0785  1.6498
  206MOL0     H28422  -0.168   8.855   6.496  0.6080 -0.0783  0.4014
  206MOL0     H28423  -0.045   8.747   6.580  1.3470  1.1439 -1.5073
  206MOL0     H28424  -0.424   8.568   6.666 -0.0221 -0.0737 -0.2803
  206MOL0     H28425  -0.184   8.512   6.042  0.2546 -0.6759  2.4223
  206MOL0     H28426  -0.127   8.274   5.799 -0.7343  2.0969 -1.3701
  206MOL0     H28427  -0.055   8.218   5.946 -1.2082  0.8601 -0.6810
  206MOL0     H28428  -0.210   8.303   5.952  0.3050 -2.5087  0.9535
  207MOL0     O28429   0.015   4.760   2.851  0.4373 -0.2432 -0.4963
  207MOL0     C28430   0.023   4.881   2.885  0.2261  0.2886  0.0540
  207MOL0     O28431  -0.076   4.980   2.875 -0.1415 -0.3848 -0.5598
  207MOL0     C28432  -0.184   4.947   2.792  0.8605 -0.8385  0.5325
  207MOL0     C28433  -0.212   5.029   2.679  0.5697 -0.4149  1.0679
  207MOL0     C28434  -0.331   5.009   2.610 -1.0237 -0.2430  0.7704
  207MOL0     C28435  -0.419   4.904   2.631 -0.1225 -0.8007  0.0164
  207MOL0     O28436  -0.536   4.899   2.557  0.0095  0.0043 -0.3607
  207MOL0     C28437  -0.647   4.822   2.601  1.1365 -0.1024 -0.2506
  207MOL0     C28438  -0.615   4.672   2.573 -0.6728 -0.2840  0.5963
  207MOL0     C28439  -0.715   4.588   2.645 -0.4778 -0.3313 -0.1711
  207MOL0     C28440  -0.853   4.617   2.599  0.4436 -0.0350  0.0585
  207MOL0     C28441  -0.927   4.485   2.584 -0.7541 -0.5883  0.3558
  207MOL0     C28442  -1.076   4.502   2.551  0.6005 -0.0251 -0.5635
  207MOL0     C28443  -1.139   4.371   2.497 -0.1560 -0.4785 -0.4198
  207MOL0     C28444  -1.292   4.368   2.511 -0.3628  0.2027  0.4627
  207MOL0     N28445  -1.338   4.228   2.509 -0.0801 -0.7761 -0.2387
  207MOL0     C28446  -1.387   4.148   2.611  0.9849 -0.8268  0.3510
  207MOL0     C28447  -1.413   4.031   2.554 -0.3581 -0.3746 -0.2975
  207MOL0     C28448  -1.441   3.897   2.620  0.0758  0.2545 -0.1643
  207MOL0     C28449  -1.577   3.900   2.680  0.4057  0.3925 -0.0122
  207MOL0     C28450  -1.622   3.770   2.750  0.2931  0.1088 -0.3206
  207MOL0     C28451  -1.768   3.788   2.781 -0.5539  0.4777  0.2219
  207MOL0     O28452  -1.833   3.766   2.661 -0.2640 -0.6011  0.1093
  207MOL0     C28453  -1.970   3.785   2.664 -0.4446 -1.2119 -0.5023
  207MOL0     C28454  -2.048   3.865   2.747 -1.0234 -0.5299 -1.1238
  207MOL0     C28455  -2.192   3.877   2.727 -0.7289 -0.2054 -0.1201
  207MOL0     C28456  -2.260   3.975   2.819 -0.3058  0.8117 -0.5427
  207MOL0     C28457  -2.255   3.810   2.618 -0.1596  0.6707 -0.7670
  207MOL0     C28458  -2.395   3.805   2.587 -0.1646 -0.9832  0.5562
  207MOL0     O28459  -2.419   3.793   2.455 -0.2680  0.0905 -0.1531
  207MOL0     C28460  -2.536   3.766   2.398  0.3594  0.7842 -0.1596
  207MOL0     C28461  -2.563   3.810   2.265 -0.8065 -0.5235 -0.1335
  207MOL0     C28462  -2.694   3.813   2.218  0.4181 -1.1655  0.1245
  207MOL0     C28463  -2.808   3.772   2.284 -0.2274  0.3670  1.5439
  207MOL0     O28464  -2.927   3.786   2.216  0.1255 -0.7937  0.0584
  207MOL0     C28465  -3.038   3.787   2.305 -1.2174  0.1467 -1.1324
  207MOL0     C28466  -3.161   3.806   2.232  0.8434 -0.7017  0.1702
  207MOL0     C28467  -3.291   3.782   2.319  0.5984 -0.5887 -0.3644
  207MOL0     C28468  -3.291   3.850   2.452 -0.5558  0.0325 -0.4442
  207MOL0     C28469  -3.420   3.827   2.526  0.0903 -0.2898  0.0887
  207MOL0     C28470  -3.442   3.929   2.637  0.0144  0.0603  0.8515
  207MOL0     C28471  -3.554   3.894   2.733 -0.4119 -1.1179 -0.3278
  207MOL0     C28472  -3.628   4.020   2.786 -0.1891 -0.7440 -1.2701
  207MOL0    Cl28473  -3.515   4.129   2.887  0.5738  0.0197  0.4077
  207MOL0     C28474  -2.782   3.710   2.409 -0.2740  0.1665  0.2753
  207MOL0     C28475  -2.650   3.709   2.458  0.1595  0.0557  0.0557
  207MOL0     O28476  -2.477   3.811   2.676 -0.2653 -0.5066 -0.0483
  207MOL0     C28477  -2.170   3.732   2.543  0.3977  0.1622  0.8149
  207MOL0     C28478  -2.037   3.726   2.557 -0.3946 -0.1801 -0.1712
  207MOL0     N28479  -1.386   4.041   2.419 -0.3477  0.1089 -0.6717
  207MOL0     N28480  -1.333   4.160   2.393 -0.2222 -0.3701 -0.0700
  207MOL0     C28481  -0.380   4.815   2.735 -0.0655 -0.6649  0.9296
  207MOL0     C28482  -0.269   4.840   2.823 -0.5057 -0.0883  0.1684
  207MOL0     C28483   0.158   4.928   2.944 -0.3625  0.2767  0.2870
  207MOL0     C28484   0.158   5.061   3.008  0.0522  0.3140  0.2606
  207MOL0     C28485   0.273   5.128   3.054  0.5060  0.6271 -0.0483
  207MOL0     C28486   0.396   5.054   3.053  0.6371  1.7330  0.2728
  207MOL0     O28487   0.526   5.094   3.081 -0.7583  0.0534  0.1964
  207MOL0     C28488   0.543   5.233   3.105 -0.5523  0.7953  0.5826
  207MOL0     C28489   0.535   5.263   3.254 -0.3924  1.1122  0.4414
  207MOL0     C28490   0.640   5.185   3.341 -0.5304  0.0909 -0.2587
  207MOL0     C28491   0.785   5.225   3.324  0.0938 -0.1074  0.2487
  207MOL0     C28492   0.809   5.353   3.395 -0.2736  0.1736  0.4482
  207MOL0     C28493   0.814   5.454   3.460  0.8295 -0.2439 -0.4087
  207MOL0     C28494   0.399   4.919   3.011  0.6463 -0.1915  0.5481
  207MOL0     C28495   0.286   4.856   2.949  0.5449 -0.0186 -1.0040
  207MOL0     C28496   0.316   4.724   2.885  0.5230  0.9320 -0.4893
  207MOL0     H28497  -0.147   5.113   2.654 -1.4879  0.5664 -1.5511
  207MOL0     H28498  -0.365   5.087   2.542  0.4965 -0.5590 -0.4087
  207MOL0     H28499  -0.731   4.851   2.536  0.4738 -1.2666  0.0553
  207MOL0     H28500  -0.665   4.833   2.708  2.6103 -2.8982  0.3969
  207MOL0     H28501  -0.622   4.651   2.466 -0.2589 -2.9544  1.0101
  207MOL0     H28502  -0.511   4.649   2.597 -0.9285 -0.0807  1.9581
  207MOL0     H28503  -0.681   4.486   2.624  3.2759  0.4011  1.4998
  207MOL0     H28504  -0.696   4.602   2.752  0.4832  1.0371 -0.4907
  207MOL0     H28505  -0.904   4.689   2.663 -2.2626 -0.8415 -1.0410
  207MOL0     H28506  -0.859   4.662   2.499  1.5977  1.3509  0.5811
  207MOL0     H28507  -0.918   4.421   2.673  2.0266  0.0609  0.6107
  207MOL0     H28508  -0.876   4.430   2.504  0.3087 -1.6435  1.6985
  207MOL0     H28509  -1.123   4.530   2.645 -0.6709 -0.7674 -0.9512
  207MOL0     H28510  -1.090   4.586   2.482  3.2053 -0.0076 -1.1961
  207MOL0     H28511  -1.095   4.288   2.553  5.0166  2.4722  0.5956
  207MOL0     H28512  -1.102   4.361   2.395  2.1728  1.0314  0.2013
  207MOL0     H28513  -1.321   4.420   2.602  0.1891 -0.5111  1.0576
  207MOL0     H28514  -1.344   4.416   2.427 -0.4155 -1.4954 -0.5194
  207MOL0     H28515  -1.400   4.175   2.715  2.7238  1.5940  0.0097
  207MOL0     H28516  -1.364   3.881   2.696 -1.3596  3.5724  2.2334
  207MOL0     H28517  -1.441   3.820   2.543 -1.8761 -1.7570  1.6965
  207MOL0     H28518  -1.584   3.976   2.759 -2.3792 -1.2417  1.4449
  207MOL0     H28519  -1.647   3.922   2.599  0.1252  0.9144  0.3633
  207MOL0     H28520  -1.603   3.679   2.693  2.4568  0.3506 -0.0783
  207MOL0     H28521  -1.564   3.757   2.842 -0.2932  1.6275  0.2983
  207MOL0     H28522  -1.798   3.713   2.855 -0.0439  0.5780  0.5323
  207MOL0     H28523  -1.790   3.887   2.822  3.4159  0.4181  2.9391
  207MOL0     H28524  -2.005   3.912   2.834 -1.9409  1.5336 -1.7365
  207MOL0     H28525  -2.189   4.026   2.886  0.4477 -1.5917  0.5884
  207MOL0     H28526  -2.323   3.910   2.880 -0.3809 -0.3248 -1.7955
  207MOL0     H28527  -2.318   4.045   2.758 -1.0858  1.2568  0.6675
  207MOL0     H28528  -2.471   3.840   2.215 -1.5340 -1.0077 -1.8299
  207MOL0     H28529  -2.704   3.854   2.118 -0.4424 -0.1740  0.5910
  207MOL0     H28530  -3.038   3.687   2.349 -1.8562  1.1420  1.3438
  207MOL0     H28531  -3.025   3.857   2.389 -1.4994 -0.5672 -0.4785
  207MOL0     H28532  -3.163   3.904   2.183 -3.6723  0.0012  1.3187
  207MOL0     H28533  -3.158   3.730   2.153 -0.2036 -2.5002  1.7887
  207MOL0     H28534  -3.298   3.675   2.342  2.9143 -0.3081  2.1761
  207MOL0     H28535  -3.380   3.809   2.260 -0.3406 -2.7927 -0.0651
  207MOL0     H28536  -3.268   3.957   2.448 -0.2827 -0.0132 -0.2240
  207MOL0     H28537  -3.206   3.821   2.516 -0.6156 -0.6118 -0.6490
  207MOL0     H28538  -3.505   3.841   2.458  1.5941  0.7681 -1.6845
  207MOL0     H28539  -3.422   3.728   2.572  0.2389 -1.0594 -1.4848
  207MOL0     H28540  -3.463   4.029   2.600  1.4217  1.1197  2.7605
  207MOL0     H28541  -3.351   3.929   2.697  2.5703  0.7349 -2.7183
  207MOL0     H28542  -3.497   3.859   2.820  4.9535 -0.7287 -3.2940
  207MOL0     H28543  -3.627   3.818   2.703 -2.9496  0.4191  1.5498
  207MOL0     H28544  -3.711   3.990   2.850 -0.6940  3.4960  0.3622
  207MOL0     H28545  -3.662   4.074   2.697  1.0805  3.3206  0.5032
  207MOL0     H28546  -2.860   3.657   2.462 -0.9520  2.2913  1.5388
  207MOL0     H28547  -2.633   3.666   2.556  0.7135  2.0410  0.8599
  207MOL0     H28548  -2.203   3.680   2.454  0.0724  4.1894 -1.6499
  207MOL0     H28549  -1.967   3.663   2.503  0.0909  0.7310 -0.6183
  207MOL0     H28550  -0.450   4.744   2.780 -2.3936  0.0243 -1.3407
  207MOL0     H28551  -0.245   4.772   2.903 -1.4322  0.3399  0.8257
  207MOL0     H28552   0.068   5.121   3.015 -0.3190 -0.3989  2.1770
  207MOL0     H28553   0.277   5.226   3.100  0.0734  0.0017  1.3744
  207MOL0     H28554   0.643   5.262   3.070 -0.0160  0.7147  1.9747
  207MOL0     H28555   0.480   5.299   3.045 -1.0912 -0.1475  0.0853
  207MOL0     H28556   0.440   5.225   3.294  0.8917 -3.5275 -0.3493
  207MOL0     H28557   0.559   5.369   3.269 -0.0453  1.0394  0.3865
  207MOL0     H28558   0.595   5.186   3.440 -2.5163 -2.7469 -1.0214
  207MOL0     H28559   0.642   5.078   3.319 -1.4451  0.5923 -3.2259
  207MOL0     H28560   0.814   5.231   3.218  0.5026 -1.3930  0.2690
  207MOL0     H28561   0.845   5.145   3.369  0.7673 -1.0084 -2.0907
  207MOL0     H28562   0.825   5.534   3.531 -0.7839  0.1946 -0.6016
  207MOL0     H28563   0.490   4.860   3.013  1.3250  0.6910  5.3127
  207MOL0     H28564   0.291   4.724   2.778  1.1642  1.2431 -0.6455
  207MOL0     H28565   0.419   4.690   2.899 -0.6711 -2.9978  0.0312
  207MOL0     H28566   0.253   4.643   2.924  0.9375  1.0765  0.5176
  208MOL0     O28567   5.259   8.499   9.987 -0.1524 -0.5223 -0.4324
  208MOL0     C28568   5.216   8.518   9.876 -1.2281  0.0393  0.0992
  208MOL0     O28569   5.106   8.593   9.833  0.9557 -0.1616  0.5968
  208MOL0     C28570   5.021   8.655   9.922  0.3412  1.2545 -0.6949
  208MOL0     C28571   4.978   8.605  10.044 -0.6553 -0.6616  0.4556
  208MOL0     C28572   4.876   8.671  10.106  0.1876 -0.0674 -0.1968
  208MOL0     C28573   4.821   8.795  10.055 -0.1231  0.1751  0.2377
  208MOL0     O28574   4.720   8.865  10.111  0.5016 -0.3486 -0.4862
  208MOL0     C28575   4.670   8.827  10.235  0.0592 -0.9322 -0.0613
  208MOL0     C28576   4.556   8.932  10.258  0.4072 -0.3839  0.3494
  208MOL0     C28577   4.434   8.902  10.352  0.4756 -0.0204 -0.3609
  208MOL0     C28578   4.324   8.826  10.276 -0.5526  0.2912  0.0512
  208MOL0     C28579   4.228   8.777  10.377  0.2959  0.1366 -0.4582
  208MOL0     C28580   4.136   8.680  10.315  0.6796  0.3593 -0.3158
  208MOL0     C28581   4.032   8.645  10.420 -0.5130 -0.3107 -0.0803
  208MOL0     C28582   3.929   8.754  10.442 -0.5185 -0.4443 -0.5730
  208MOL0     N28583   3.825   8.702  10.531 -0.7423  0.4921 -0.2557
  208MOL0     C28584   3.819   8.705  10.671 -0.2708 -0.3989 -0.4131
  208MOL0     C28585   3.709   8.627  10.702  0.8441  0.0677  1.1793
  208MOL0     C28586   3.637   8.601  10.835 -0.9114  0.3002 -0.1020
  208MOL0     C28587   3.585   8.719  10.918 -0.3570 -0.3334 -0.9639
  208MOL0     C28588   3.458   8.764  10.851  0.2350 -0.3503  0.1956
  208MOL0     C28589   3.479   8.841  10.715 -0.5230  0.1998  0.1069
  208MOL0     O28590   3.577   8.944  10.731 -0.8780  0.5656 -0.8569
  208MOL0     C28591   3.650   8.995  10.628 -0.9511 -0.1465  0.1837
  208MOL0     C28592   3.773   9.071  10.649  0.1264  0.1354  0.7340
  208MOL0     C28593   3.857   9.124  10.545  0.1572  0.7025  0.7241
  208MOL0     C28594   3.981   9.195  10.581 -1.1181 -0.2203 -0.1502
  208MOL0     C28595   3.807   9.104  10.409 -0.0483 -0.0248 -0.0728
  208MOL0     C28596   3.882   9.137  10.289 -0.0473 -0.2866  0.3281
  208MOL0     O28597   3.861   9.046  10.180  0.0875 -0.9338 -0.0066
  208MOL0     C28598   3.918   9.075  10.057 -0.8038  0.4732  0.2064
  208MOL0     C28599   4.030   8.996  10.014 -0.1112 -0.3534 -0.5870
  208MOL0     C28600   4.075   9.017   9.887  0.0584 -0.1563 -0.4314
  208MOL0     C28601   4.034   9.115   9.802  0.3092 -1.3638  0.6015
  208MOL0     O28602   4.092   9.153   9.680  0.7567 -0.2288 -0.1518
  208MOL0     C28603   4.214   9.088   9.642 -0.4820 -0.6282 -0.4712
  208MOL0     C28604   4.269   9.165   9.520 -0.0722 -0.4335 -0.5184
  208MOL0     C28605   4.324   9.296   9.573 -0.1085 -0.6710  0.6269
  208MOL0     C28606   4.426   9.362   9.481  0.5660  0.4247  0.1639
  208MOL0     C28607   4.387   9.388   9.333 -0.9576 -0.8109  0.0043
  208MOL0     C28608   4.507   9.449   9.248  0.0216 -0.9009 -0.3165
  208MOL0     C28609   4.547   9.603   9.267 -1.2846 -0.6998  0.0143
  208MOL0     C28610   4.628   9.663   9.155 -0.2768 -0.8077  1.0325
  208MOL0    Cl28611   4.808   9.616   9.163 -0.1204  0.0974  0.4068
  208MOL0     C28612   3.931   9.196   9.849 -0.5903  0.4146 -0.4205
  208MOL0     C28613   3.867   9.171   9.974  0.3289 -0.8192 -0.2856
  208MOL0     O28614   3.960   9.235  10.293  0.0903 -0.0927  0.4120
  208MOL0     C28615   3.682   9.037  10.387 -0.0780 -0.9038  0.2080
  208MOL0     C28616   3.615   8.973  10.492 -0.3690 -0.0898 -0.7255
  208MOL0     N28617   3.654   8.574  10.584 -0.5995 -0.5072  0.4956
  208MOL0     N28618   3.730   8.614  10.491  0.4884  0.7270 -0.4155
  208MOL0     C28619   4.882   8.848   9.935 -0.5510 -0.5692  0.1042
  208MOL0     C28620   4.975   8.775   9.870 -0.5487  0.3287 -0.0557
  208MOL0     C28621   5.306   8.468   9.764  0.5862 -0.0377  0.8472
  208MOL0     C28622   5.340   8.556   9.661  0.1857 -0.0392  0.1000
  208MOL0     C28623   5.420   8.516   9.555 -0.3413 -0.0156 -0.3772
  208MOL0     C28624   5.476   8.387   9.548  0.2670  0.6360 -0.0565
  208MOL0     O28625   5.545   8.342   9.445 -0.4624  0.5097  0.1257
  208MOL0     C28626   5.557   8.412   9.322 -0.0570 -0.1147 -0.1256
  208MOL0     C28627   5.620   8.326   9.218  0.1955 -0.8940 -0.4901
  208MOL0     C28628   5.595   8.390   9.079  0.3642  0.4703  0.2522
  208MOL0     C28629   5.663   8.321   8.963  0.6130  0.2848  0.1850
  208MOL0     C28630   5.805   8.313   8.978 -0.8278  0.6042 -0.0561
  208MOL0     C28631   5.923   8.307   8.970  0.4005 -0.7114 -0.3074
  208MOL0     C28632   5.442   8.295   9.662 -0.1421 -1.1461 -0.0251
  208MOL0     C28633   5.352   8.338   9.767 -0.0907  0.1835 -0.2195
  208MOL0     C28634   5.318   8.228   9.876  0.5256 -0.3151  0.4585
  208MOL0     H28635   5.020   8.513  10.084 -1.0837 -1.3276 -0.5947
  208MOL0     H28636   4.830   8.618  10.189 -0.6562 -0.8142 -1.1063
  208MOL0     H28637   4.741   8.841  10.316  1.7778 -0.1755 -1.6299
  208MOL0     H28638   4.615   8.732  10.228 -1.6483  0.0550 -0.8422
  208MOL0     H28639   4.609   9.025  10.278 -1.8369  0.3903  3.5109
  208MOL0     H28640   4.516   8.963  10.161  2.6433  4.5806  0.6923
  208MOL0     H28641   4.453   8.847  10.444 -0.7117 -0.0580 -0.1160
  208MOL0     H28642   4.392   8.999  10.382 -1.0201 -0.1196 -1.9521
  208MOL0     H28643   4.276   8.893  10.204 -1.2811 -1.7675 -1.4751
  208MOL0     H28644   4.364   8.742  10.219 -2.4519  0.2912 -1.3404
  208MOL0     H28645   4.170   8.864  10.409  1.3556  1.3218 -1.6610
  208MOL0     H28646   4.284   8.739  10.463  0.2666  1.8634  0.3517
  208MOL0     H28647   4.084   8.713  10.224 -1.4730  2.6401  1.5840
  208MOL0     H28648   4.196   8.593  10.287 -1.0022 -0.6568 -0.8907
  208MOL0     H28649   4.066   8.615  10.520 -0.0042 -1.6691 -0.6392
  208MOL0     H28650   3.980   8.554  10.388 -0.7592  0.4075 -1.8268
  208MOL0     H28651   3.968   8.839  10.498  2.1557 -0.3978 -2.3343
  208MOL0     H28652   3.878   8.789  10.351 -1.4490 -1.9477 -0.6572
  208MOL0     H28653   3.879   8.774  10.730 -1.1870  0.2627 -0.2469
  208MOL0     H28654   3.719   8.555  10.890 -0.6468  0.2818 -0.5044
  208MOL0     H28655   3.558   8.527  10.818  0.0351 -1.8382  3.7214
  208MOL0     H28656   3.557   8.683  11.017 -1.5995  4.3182  0.6252
  208MOL0     H28657   3.666   8.792  10.932  0.8062 -1.7860  0.2423
  208MOL0     H28658   3.392   8.678  10.830  1.6148 -1.1333 -1.1647
  208MOL0     H28659   3.402   8.836  10.911  0.0434 -0.0057 -0.3835
  208MOL0     H28660   3.511   8.780  10.630  0.3140 -0.6690  1.0097
  208MOL0     H28661   3.382   8.878  10.680 -0.7388 -1.5774 -1.3172
  208MOL0     H28662   3.798   9.079  10.754 -1.0393 -0.5419  1.0831
  208MOL0     H28663   4.067   9.149  10.531 -2.4440 -4.1830  0.8440
  208MOL0     H28664   4.002   9.179  10.687 -0.7909  0.5755 -0.0895
  208MOL0     H28665   3.979   9.304  10.573  0.7583 -0.1643 -0.4165
  208MOL0     H28666   4.074   8.910  10.063  0.8039 -0.4581 -1.5735
  208MOL0     H28667   4.146   8.940   9.857  0.6435 -0.8436  2.3687
  208MOL0     H28668   4.290   9.100   9.720 -0.9030  0.1218 -0.1687
  208MOL0     H28669   4.193   8.983   9.617 -2.2571 -1.2626  3.0493
  208MOL0     H28670   4.347   9.104   9.473  2.0771 -0.2744  2.4986
  208MOL0     H28671   4.196   9.175   9.440  0.0559 -0.9701 -0.7059
  208MOL0     H28672   4.374   9.294   9.670 -1.5435 -0.6915  1.3795
  208MOL0     H28673   4.245   9.369   9.591 -1.5114 -1.3531 -2.2256
  208MOL0     H28674   4.509   9.293   9.466  1.1243  1.4717 -2.0151
  208MOL0     H28675   4.461   9.459   9.518  1.0795  1.4733 -2.7908
  208MOL0     H28676   4.356   9.294   9.287 -4.3433  0.5728 -0.9567
  208MOL0     H28677   4.306   9.462   9.333 -0.5026 -0.2951  0.8278
  208MOL0     H28678   4.487   9.419   9.145 -0.2329 -2.2412  0.0911
  208MOL0     H28679   4.590   9.388   9.286  0.7420  0.3688  0.2097
  208MOL0     H28680   4.594   9.625   9.363  4.0560  0.4558 -2.4624
  208MOL0     H28681   4.453   9.659   9.274 -0.3384  0.7612  2.1541
  208MOL0     H28682   4.628   9.772   9.161 -1.0479 -0.7070 -0.3337
  208MOL0     H28683   4.599   9.632   9.055  1.1311 -0.3815  0.4656
  208MOL0     H28684   3.921   9.294   9.802  0.8592  0.1658 -1.2907
  208MOL0     H28685   3.790   9.241  10.005  2.1704  0.3437  1.9833
  208MOL0     H28686   3.627   9.010  10.298  1.3956 -0.8465 -0.7455
  208MOL0     H28687   3.527   8.911  10.479 -0.2655 -0.9566  2.0415
  208MOL0     H28688   4.834   8.932   9.884  1.9365  0.0397 -1.4177
  208MOL0     H28689   5.019   8.807   9.776  0.9968 -1.8516 -0.1532
  208MOL0     H28690   5.304   8.658   9.667  0.6196  0.0288  3.4694
  208MOL0     H28691   5.438   8.592   9.480 -0.7750 -0.7562 -1.2502
  208MOL0     H28692   5.459   8.438   9.281  1.8929  1.1668 -4.4890
  208MOL0     H28693   5.615   8.504   9.329 -0.0556  0.0864 -2.2592
  208MOL0     H28694   5.567   8.231   9.227  1.2191 -1.3641  0.7610
  208MOL0     H28695   5.724   8.315   9.250 -1.2888 -2.8427  4.6604
  208MOL0     H28696   5.487   8.398   9.067  0.2375  2.1904  2.0109
  208MOL0     H28697   5.613   8.498   9.080 -1.7624  0.8877 -0.5152
  208MOL0     H28698   5.649   8.366   8.864 -1.9777 -1.0046 -0.1114
  208MOL0     H28699   5.623   8.219   8.962 -0.3123  0.5661 -3.3589
  208MOL0     H28700   6.030   8.313   8.967  0.3980  1.4985  1.1576
  208MOL0     H28701   5.472   8.191   9.652 -1.8050 -1.4066 -5.0927
  208MOL0     H28702   5.380   8.223   9.966 -1.4126  2.0313  2.0490
  208MOL0     H28703   5.215   8.242   9.910  0.2127 -1.2605 -0.0520
  208MOL0     H28704   5.319   8.129   9.828  2.5525  0.4259 -1.1538
  209MOL0     O28705   5.710   6.563   0.247 -0.1712  0.7483 -0.4054
  209MOL0     C28706   5.777   6.586   0.148 -0.0078 -0.0680  0.1843
  209MOL0     O28707   5.883   6.511   0.107 -0.7728  0.4249  0.3813
  209MOL0     C28708   5.902   6.382   0.155  0.7569  1.1161  0.0483
  209MOL0     C28709   5.908   6.344   0.291  0.3390 -0.6864  0.5806
  209MOL0     C28710   5.938   6.226   0.336 -0.7793  0.4093  0.3044
  209MOL0     C28711   5.971   6.121   0.241 -0.3454  0.6105 -0.0486
  209MOL0     O28712   5.995   5.993   0.285 -0.4995 -0.1924 -0.1052
  209MOL0     C28713   6.065   5.907   0.205 -0.2343 -0.6106  0.4663
  209MOL0     C28714   6.097   5.779   0.267 -0.9951  0.3107 -0.0179
  209MOL0     C28715   6.175   5.791   0.402 -0.2993  0.2498 -0.2404
  209MOL0     C28716   6.178   5.649   0.473 -0.6309  0.2829  1.4028
  209MOL0     C28717   6.264   5.652   0.608 -1.0501  0.4172 -0.6498
  209MOL0     C28718   6.250   5.525   0.694 -0.8932 -1.2395 -0.5432
  209MOL0     C28719   6.310   5.398   0.633 -0.4847  0.6015  0.4643
  209MOL0     C28720   6.306   5.266   0.713  0.2805 -0.0925 -0.2939
  209MOL0     N28721   6.414   5.267   0.812  0.1976  0.5689  0.2713
  209MOL0     C28722   6.390   5.312   0.942  0.9712  0.2094 -0.4574
  209MOL0     C28723   6.503   5.277   1.009 -0.1287  0.3830 -0.1532
  209MOL0     C28724   6.537   5.314   1.152  1.4183 -0.4028  0.6089
  209MOL0     C28725   6.419   5.328   1.246 -1.0720 -0.0410 -0.3015
  209MOL0     C28726   6.334   5.204   1.260  0.0595  0.3056 -0.2040
  209MOL0     C28727   6.306   5.183   1.406 -0.2718 -0.6473  0.1693
  209MOL0     O28728   6.414   5.116   1.487 -0.3989  0.2815  0.6835
  209MOL0     C28729   6.430   4.981   1.470  0.3777 -0.0286 -0.3513
  209MOL0     C28730   6.335   4.882   1.509 -0.9022 -0.5385 -0.2883
  209MOL0     C28731   6.361   4.740   1.494 -0.0549 -0.3514  0.6621
  209MOL0     C28732   6.237   4.648   1.533  0.2570 -0.8509  0.3857
  209MOL0     C28733   6.492   4.696   1.445 -0.0999 -0.8016 -0.4889
  209MOL0     C28734   6.530   4.555   1.425  0.4936  0.1028  0.2006
  209MOL0     O28735   6.632   4.538   1.333  0.0565 -1.0742  0.0768
  209MOL0     C28736   6.677   4.417   1.301  0.0163 -0.4051 -0.2867
  209MOL0     C28737   6.700   4.397   1.168 -0.3525  0.0835 -0.7457
  209MOL0     C28738   6.736   4.269   1.122 -0.3390 -1.2801 -0.2118
  209MOL0     C28739   6.762   4.162   1.212  0.7131  0.4145 -0.1512
  209MOL0     O28740   6.830   4.054   1.154  0.1645 -0.5699 -0.2718
  209MOL0     C28741   6.856   3.945   1.251 -0.1210 -0.2321  0.7072
  209MOL0     C28742   6.919   3.815   1.185 -0.8478 -0.2980 -1.2586
  209MOL0     C28743   6.907   3.688   1.272 -0.1048 -0.0127  0.4256
  209MOL0     C28744   6.953   3.562   1.197 -0.0571 -0.3178 -0.3562
  209MOL0     C28745   6.951   3.436   1.284  0.2928  0.4316 -0.2464
  209MOL0     C28746   6.812   3.415   1.372 -0.8570 -0.2227 -0.0345
  209MOL0     C28747   6.684   3.394   1.289 -0.0887  0.1486  0.1738
  209MOL0     C28748   6.564   3.399   1.380 -0.3977  0.6160 -0.0428
  209MOL0    Cl28749   6.574   3.269   1.499  0.3749 -0.5067  0.1393
  209MOL0     C28750   6.736   4.184   1.347 -0.1276 -0.3659 -0.6456
  209MOL0     C28751   6.693   4.309   1.392  0.3858 -0.4220 -0.4000
  209MOL0     O28752   6.462   4.465   1.487 -0.2846 -0.4253  0.2852
  209MOL0     C28753   6.592   4.798   1.423 -0.1805 -0.4286  0.8331
  209MOL0     C28754   6.556   4.937   1.429  1.2548 -0.1238  1.4723
  209MOL0     N28755   6.596   5.217   0.923  0.2047 -0.2248  0.9156
  209MOL0     N28756   6.535   5.207   0.807  0.4159  0.3538 -0.2553
  209MOL0     C28757   5.967   6.152   0.106  1.0985 -0.0592  0.7161
  209MOL0     C28758   5.930   6.283   0.058 -0.5387  0.0750 -0.0704
  209MOL0     C28759   5.745   6.705   0.065 -0.0876 -0.7121  0.0315
  209MOL0     C28760   5.818   6.727  -0.054  0.0995  0.3995 -0.5203
  209MOL0     C28761   5.786   6.839  -0.136  0.9868 -0.8134 -0.1233
  209MOL0     C28762   5.682   6.930  -0.095  0.1198 -0.0763  0.0874
  209MOL0     O28763   5.646   7.039  -0.172 -0.0505 -0.1506  0.3988
  209MOL0     C28764   5.676   7.046  -0.308 -0.1162  0.3611  0.0535
  209MOL0     C28765   5.636   7.186  -0.359  0.4907 -0.4436  0.0206
  209MOL0     C28766   5.750   7.277  -0.326 -0.6005 -0.4479 -0.1595
  209MOL0     C28767   5.723   7.413  -0.390  0.6527 -0.2574 -0.0202
  209MOL0     C28768   5.606   7.478  -0.334  0.0782 -0.0897 -0.2645
  209MOL0     C28769   5.511   7.522  -0.270  0.5071 -0.5915  0.4734
  209MOL0     C28770   5.616   6.908   0.023  0.0431  0.1696 -0.3456
  209MOL0     C28771   5.654   6.808   0.107  0.5086 -1.0021 -0.1882
  209MOL0     C28772   5.602   6.827   0.244  1.1375 -0.5344 -0.1965
  209MOL0     H28773   5.905   6.427   0.360  2.0939  0.8521 -1.0840
  209MOL0     H28774   5.943   6.221   0.445 -2.4396 -2.6849  0.3602
  209MOL0     H28775   6.150   5.954   0.155 -0.5039 -1.9332 -1.3379
  209MOL0     H28776   5.994   5.869   0.130 -0.6395 -0.3390  0.7060
  209MOL0     H28777   5.997   5.737   0.282 -1.5011  1.3379 -0.4181
  209MOL0     H28778   6.144   5.711   0.195  0.8784  2.2922 -0.7997
  209MOL0     H28779   6.270   5.843   0.395  0.7209 -1.4268  0.5826
  209MOL0     H28780   6.109   5.851   0.466 -1.0813 -2.5393  1.7571
  209MOL0     H28781   6.075   5.615   0.482 -0.2917 -2.2119 -2.0147
  209MOL0     H28782   6.225   5.579   0.404  0.2922  3.6919 -1.7886
  209MOL0     H28783   6.239   5.739   0.669  4.8594  1.1950  1.3351
  209MOL0     H28784   6.368   5.683   0.592 -1.4967  1.6700 -1.2490
  209MOL0     H28785   6.303   5.541   0.788 -0.0149 -3.1592 -0.6617
  209MOL0     H28786   6.143   5.519   0.713 -0.3162 -2.2697  3.0487
  209MOL0     H28787   6.415   5.415   0.610 -0.6488  0.2781 -0.5852
  209MOL0     H28788   6.263   5.407   0.534  0.1739 -0.5927  0.0171
  209MOL0     H28789   6.216   5.267   0.775  0.5135  1.4941  0.0433
  209MOL0     H28790   6.297   5.175   0.652  0.7179 -1.1768  1.1979
  209MOL0     H28791   6.302   5.349   0.992  1.7234 -1.7595  2.5912
  209MOL0     H28792   6.599   5.404   1.149 -0.0975  0.8873  3.7036
  209MOL0     H28793   6.607   5.238   1.188 -0.1184 -1.8948  0.5707
  209MOL0     H28794   6.476   5.354   1.336 -2.9455 -2.0081  1.5574
  209MOL0     H28795   6.357   5.413   1.214 -0.1745  0.3686 -1.0017
  209MOL0     H28796   6.242   5.222   1.204 -1.3095 -1.8469  1.2425
  209MOL0     H28797   6.385   5.117   1.218 -1.8444 -1.5475  1.1270
  209MOL0     H28798   6.273   5.274   1.456 -2.6889 -2.8506  2.9324
  209MOL0     H28799   6.217   5.121   1.413 -0.8215  0.1642  0.4956
  209MOL0     H28800   6.241   4.921   1.545  0.8362  3.5641  0.3724
  209MOL0     H28801   6.266   4.582   1.616 -0.2460  0.5282  1.7230
  209MOL0     H28802   6.195   4.593   1.449  1.5465  0.5128 -1.2316
  209MOL0     H28803   6.148   4.703   1.566 -0.0908  1.1517 -3.3828
  209MOL0     H28804   6.679   4.471   1.092 -1.8028  0.5444  0.0666
  209MOL0     H28805   6.746   4.263   1.014 -1.5864  2.7209 -0.7271
  209MOL0     H28806   6.917   3.984   1.333  0.3956  1.8855 -0.5960
  209MOL0     H28807   6.754   3.920   1.283  0.0375 -1.2487  0.4374
  209MOL0     H28808   6.868   3.797   1.090  1.1115 -0.7677 -2.2899
  209MOL0     H28809   7.026   3.824   1.164 -0.8526 -0.3886 -1.3213
  209MOL0     H28810   6.798   3.685   1.275 -0.0595 -1.8663  2.8148
  209MOL0     H28811   6.947   3.705   1.373  0.6436 -2.4583  0.6111
  209MOL0     H28812   7.046   3.586   1.144 -0.7753  0.4787 -1.2852
  209MOL0     H28813   6.873   3.548   1.124  1.4249  1.0279 -2.3259
  209MOL0     H28814   6.953   3.345   1.223 -1.0528 -0.9487  1.6935
  209MOL0     H28815   7.038   3.426   1.349  0.3247 -1.3679 -0.5017
  209MOL0     H28816   6.793   3.491   1.448 -2.3533  0.3135 -0.9179
  209MOL0     H28817   6.817   3.325   1.433  3.0734 -0.5672 -0.5627
  209MOL0     H28818   6.694   3.295   1.243  2.9143 -0.1250  1.1724
  209MOL0     H28819   6.674   3.465   1.207  0.1761 -0.9981 -0.8886
  209MOL0     H28820   6.478   3.364   1.322  1.2266 -3.5540 -0.2982
  209MOL0     H28821   6.553   3.494   1.434  3.2883  1.8932 -1.2634
  209MOL0     H28822   6.740   4.108   1.425 -0.5747  0.3527  0.0930
  209MOL0     H28823   6.660   4.321   1.495 -0.4308 -2.2660 -0.4293
  209MOL0     H28824   6.694   4.765   1.404  0.0894 -0.0135  1.5393
  209MOL0     H28825   6.623   5.019   1.405 -0.9520  1.6205  0.7956
  209MOL0     H28826   5.995   6.081   0.029  1.5999  2.4703 -1.6123
  209MOL0     H28827   5.912   6.299  -0.048  0.0046  0.5679 -0.0891
  209MOL0     H28828   5.895   6.658  -0.087 -0.8679 -1.0911  0.2218
  209MOL0     H28829   5.840   6.859  -0.228  1.5849 -0.2611  0.3307
  209MOL0     H28830   5.781   7.025  -0.332  0.4129  4.0699 -1.5926
  209MOL0     H28831   5.619   6.964  -0.353  1.9023 -1.0020 -0.1797
  209MOL0     H28832   5.546   7.220  -0.306  0.1473 -0.9565 -0.2164
  209MOL0     H28833   5.623   7.177  -0.468 -0.8783  0.0481  0.1281
  209MOL0     H28834   5.755   7.285  -0.217 -1.4991  0.0936 -0.1521
  209MOL0     H28835   5.850   7.246  -0.359  2.1639  0.4640  5.9071
  209MOL0     H28836   5.699   7.396  -0.495  0.1692  1.8013 -0.2957
  209MOL0     H28837   5.801   7.490  -0.385  0.2088  0.2579 -0.7515
  209MOL0     H28838   5.428   7.574  -0.227 -2.1054 -2.3935 -2.0379
  209MOL0     H28839   5.549   6.984   0.063 -1.2284 -1.4419  0.7270
  209MOL0     H28840   5.527   6.906   0.238  1.3817 -0.4151 -3.9163
  209MOL0     H28841   5.549   6.735   0.269  1.1504  0.1112  2.5090
  209MOL0     H28842   5.686   6.844   0.312  1.6306  0.3579 -1.0169
  210MOL0     O28843   0.436   9.312   7.285 -0.5834  0.1096  1.0419
  210MOL0     C28844   0.361   9.390   7.351 -1.1987 -0.5838 -0.3561
  210MOL0     O28845   0.388   9.441   7.478 -0.2530 -0.6164  1.0121
  210MOL0     C28846   0.496   9.407   7.542  0.2310 -0.8950 -0.7961
  210MOL0     C28847   0.499   9.286   7.615  0.8629  1.0588  0.9426
  210MOL0     C28848   0.601   9.256   7.696 -0.0690 -0.1773  0.3654
  210MOL0     C28849   0.711   9.335   7.711 -0.0757 -0.0716  0.3800
  210MOL0     O28850   0.816   9.289   7.781 -0.0225  0.3002 -0.3215
  210MOL0     C28851   0.889   9.383   7.867  0.0014 -0.0495 -0.0061
  210MOL0     C28852   1.015   9.311   7.932 -0.7024 -0.1697  0.5092
  210MOL0     C28853   1.116   9.258   7.830 -0.7369  0.3978 -0.2953
  210MOL0     C28854   1.225   9.364   7.802  1.1121  0.3488 -0.4150
  210MOL0     C28855   1.339   9.308   7.716  0.5188 -0.5617 -0.2462
  210MOL0     C28856   1.434   9.423   7.674  0.6009 -0.4024  0.1693
  210MOL0     C28857   1.561   9.378   7.605  0.0370  1.2466 -0.0324
  210MOL0     C28858   1.661   9.315   7.708 -0.2500  0.0067  0.6353
  210MOL0     N28859   1.705   9.395   7.823 -0.9951 -0.2523 -0.3366
  210MOL0     C28860   1.758   9.344   7.938  0.0036 -0.6975  0.0036
  210MOL0     C28861   1.789   9.448   8.008 -0.2680 -0.1836  1.1828
  210MOL0     C28862   1.857   9.458   8.142 -0.4309  0.6946  0.5137
  210MOL0     C28863   1.813   9.580   8.220  0.1362  0.3920 -0.6910
  210MOL0     C28864   1.884   9.605   8.354 -0.0086 -0.1875  0.1221
  210MOL0     C28865   2.035   9.624   8.328 -0.4725  0.9439 -0.6430
  210MOL0     O28866   2.121   9.617   8.443  0.9213  0.8454  0.5935
  210MOL0     C28867   2.257   9.600   8.425 -0.6383 -0.1522  0.0181
  210MOL0     C28868   2.333   9.585   8.539 -0.6642  1.0075  0.0230
  210MOL0     C28869   2.473   9.572   8.541  0.0623  0.1416  0.1339
  210MOL0     C28870   2.535   9.544   8.672  0.5742  0.0584  0.2581
  210MOL0     C28871   2.540   9.592   8.417 -0.2438  0.0433 -0.0437
  210MOL0     C28872   2.691   9.589   8.396  0.1563  0.0040 -0.0678
  210MOL0     O28873   2.778   9.618   8.500  0.0214  0.5844 -0.0238
  210MOL0     C28874   2.908   9.636   8.471  0.0408 -0.0674 -0.3925
  210MOL0     C28875   2.975   9.762   8.460  0.7563  0.7508  0.8021
  210MOL0     C28876   3.113   9.767   8.436 -0.1620  0.3643 -0.4866
  210MOL0     C28877   3.191   9.645   8.417  1.1709 -0.5319  0.9264
  210MOL0     O28878   3.327   9.657   8.413 -0.5418  0.3748 -0.5631
  210MOL0     C28879   3.378   9.586   8.301 -0.4937  0.2213 -0.1551
  210MOL0     C28880   3.521   9.631   8.258 -0.0633  0.0578 -1.1372
  210MOL0     C28881   3.506   9.778   8.204 -0.2815 -0.4855 -0.0800
  210MOL0     C28882   3.645   9.830   8.165 -0.0200  0.2462 -0.5506
  210MOL0     C28883   3.728   9.878   8.288 -0.0487 -0.7309  0.1871
  210MOL0     C28884   3.827   9.981   8.239  0.3013 -0.1104 -0.8611
  210MOL0     C28885   3.937  10.011   8.338  0.6460 -0.0591  0.4021
  210MOL0     C28886   4.039  10.120   8.290  0.2682  0.2513 -0.1531
  210MOL0    Cl28887   4.107  10.184   8.440  0.6800  0.3059 -0.1667
  210MOL0     C28888   3.116   9.515   8.403 -0.5973 -0.5114 -0.1337
  210MOL0     C28889   2.979   9.516   8.443 -0.7786 -0.3206  1.0069
  210MOL0     O28890   2.729   9.564   8.280 -0.0132 -0.6231 -0.0475
  210MOL0     C28891   2.461   9.605   8.297 -0.0211  0.0470  0.0057
  210MOL0     C28892   2.327   9.618   8.303 -0.1576 -0.1092 -0.4562
  210MOL0     N28893   1.768   9.557   7.928  0.1260 -0.0273 -0.0733
  210MOL0     N28894   1.714   9.528   7.818  0.0060  0.0023  0.3223
  210MOL0     C28895   0.714   9.452   7.627  0.1288 -0.0395 -0.2232
  210MOL0     C28896   0.604   9.500   7.558 -0.0132 -0.4876  0.4256
  210MOL0     C28897   0.232   9.430   7.295 -0.5306  0.2806 -0.6906
  210MOL0     C28898   0.218   9.404   7.160  0.3152  0.8201  0.2873
  210MOL0     C28899   0.111   9.466   7.090  0.1415 -0.4307 -1.1891
  210MOL0     C28900   0.016   9.546   7.156 -0.9889 -0.4765  1.3036
  210MOL0     O28901  -0.089   9.602   7.073 -0.3621  0.5532  0.0428
  210MOL0     C28902  -0.168   9.702   7.131 -0.5955  0.3160 -0.2975
  210MOL0     C28903  -0.259   9.788   7.043 -0.7561 -0.6892 -0.1286
  210MOL0     C28904  -0.376   9.711   6.979 -0.1144 -0.0170  0.1724
  210MOL0     C28905  -0.484   9.791   6.920  0.5284  0.5822  0.4235
  210MOL0     C28906  -0.579   9.726   6.831  1.1408 -0.4367 -0.7193
  210MOL0     C28907  -0.659   9.656   6.774  0.4262  0.2987 -0.4159
  210MOL0     C28908   0.037   9.567   7.292  0.6906 -0.3130 -0.5306
  210MOL0     C28909   0.141   9.512   7.362  1.0112 -0.0903  0.0749
  210MOL0     C28910   0.131   9.523   7.510 -0.7545 -0.4072 -0.1967
  210MOL0     H28911   0.420   9.212   7.608  1.2814  0.2286  3.7841
  210MOL0     H28912   0.587   9.168   7.757  1.7276 -1.6694 -1.2448
  210MOL0     H28913   0.825   9.440   7.935  0.3124  3.3832 -2.3526
  210MOL0     H28914   0.921   9.467   7.805  1.0572 -0.0043  0.5803
  210MOL0     H28915   1.073   9.361   8.011  0.5405  0.0791 -0.5229
  210MOL0     H28916   0.968   9.224   7.978  1.1668 -1.3851  0.2286
  210MOL0     H28917   1.159   9.166   7.872 -1.6248 -0.1960 -0.6280
  210MOL0     H28918   1.062   9.233   7.738 -1.9185 -1.6325  0.8644
  210MOL0     H28919   1.196   9.460   7.758  3.2092  0.2460 -2.2179
  210MOL0     H28920   1.262   9.391   7.901 -3.3784 -2.5930  2.4537
  210MOL0     H28921   1.305   9.284   7.615  4.3302  1.8171 -2.3280
  210MOL0     H28922   1.392   9.226   7.766  1.1901  1.0540  1.8373
  210MOL0     H28923   1.388   9.495   7.606  1.1289  0.0118  0.2411
  210MOL0     H28924   1.458   9.482   7.763  0.7767 -0.6132  0.2594
  210MOL0     H28925   1.612   9.455   7.545  0.3223 -0.1299 -1.6549
  210MOL0     H28926   1.535   9.294   7.540  0.2438 -0.2020  1.6737
  210MOL0     H28927   1.621   9.226   7.757 -0.2545 -0.4366 -0.1537
  210MOL0     H28928   1.746   9.284   7.646 -1.4695 -0.8973 -0.6539
  210MOL0     H28929   1.774   9.239   7.961  0.0544 -1.3745 -2.6714
  210MOL0     H28930   1.965   9.457   8.123 -0.5738 -0.7991 -0.3901
  210MOL0     H28931   1.854   9.365   8.199 -2.3327 -0.4116 -1.2476
  210MOL0     H28932   1.821   9.671   8.160 -1.0886  0.8327 -0.2163
  210MOL0     H28933   1.707   9.570   8.244  1.1286 -0.4391  4.4459
  210MOL0     H28934   1.848   9.702   8.391 -1.0940 -0.4389 -0.2260
  210MOL0     H28935   1.865   9.531   8.433  1.2078  2.3618  3.0335
  210MOL0     H28936   2.070   9.540   8.267 -0.2844  0.1784  0.5037
  210MOL0     H28937   2.059   9.711   8.265  3.1017 -0.2388 -1.1177
  210MOL0     H28938   2.279   9.578   8.633  0.0351 -1.6012  0.3178
  210MOL0     H28939   2.641   9.518   8.671  1.0625  1.0424  4.9630
  210MOL0     H28940   2.484   9.468   8.732  2.4096  1.1154  3.3785
  210MOL0     H28941   2.535   9.642   8.722 -2.7192 -0.5134  1.6773
  210MOL0     H28942   2.918   9.854   8.471  2.5675  2.5584 -2.8841
  210MOL0     H28943   3.161   9.864   8.440  2.7178 -1.0026  2.3337
  210MOL0     H28944   3.375   9.479   8.324 -4.5106  0.3783  0.7799
  210MOL0     H28945   3.313   9.615   8.217 -1.0306 -0.2761  0.0772
  210MOL0     H28946   3.592   9.603   8.336 -1.5479 -2.3779 -0.5360
  210MOL0     H28947   3.548   9.578   8.166  1.6169  1.5046 -1.5251
  210MOL0     H28948   3.467   9.847   8.279  1.9041 -0.6234  1.2525
  210MOL0     H28949   3.441   9.784   8.116 -1.0941 -1.5795  0.4248
  210MOL0     H28950   3.644   9.920   8.103  0.8362  1.1276  0.6410
  210MOL0     H28951   3.701   9.754   8.110 -2.9400 -2.1378 -0.4503
  210MOL0     H28952   3.659   9.925   8.358  1.7669 -0.2765  1.7422
  210MOL0     H28953   3.791   9.804   8.337 -0.2753  0.5524  2.5590
  210MOL0     H28954   3.772  10.074   8.219 -0.9509 -0.7181 -0.3311
  210MOL0     H28955   3.859   9.942   8.142  2.1093 -0.5004 -0.1471
  210MOL0     H28956   3.988   9.918   8.365 -3.1314 -1.9554  1.6974
  210MOL0     H28957   3.888  10.057   8.425  0.3893  0.9406 -0.2541
  210MOL0     H28958   3.990  10.205   8.240 -2.0617 -1.4685 -0.9852
  210MOL0     H28959   4.107  10.075   8.218  2.1766  1.5620  0.7368
  210MOL0     H28960   3.151   9.421   8.361  0.6770 -0.8409  1.5511
  210MOL0     H28961   2.917   9.428   8.439 -1.8913  0.4809 -1.8596
  210MOL0     H28962   2.511   9.630   8.204 -1.4099  0.0732 -0.7679
  210MOL0     H28963   2.270   9.643   8.214  1.7888 -0.2823 -1.8367
  210MOL0     H28964   0.806   9.508   7.617  0.5742 -0.6509  0.3581
  210MOL0     H28965   0.594   9.590   7.498  0.9756  1.3960  2.9075
  210MOL0     H28966   0.296   9.346   7.113  2.2992  4.1101 -0.8154
  210MOL0     H28967   0.103   9.467   6.982 -3.1955  2.3512 -1.0840
  210MOL0     H28968  -0.228   9.645   7.202 -0.0807  0.5151  0.3146
  210MOL0     H28969  -0.108   9.773   7.189 -3.2703  1.5590  1.1463
  210MOL0     H28970  -0.203   9.830   6.958 -2.0038  0.7015 -0.3160
  210MOL0     H28971  -0.309   9.867   7.100  0.1037 -0.7425  0.7132
  210MOL0     H28972  -0.329   9.651   6.901 -2.3311 -0.7310 -0.6777
  210MOL0     H28973  -0.424   9.642   7.050  1.0878 -3.2352 -1.8939
  210MOL0     H28974  -0.425   9.868   6.870  1.0514 -1.0576 -1.6115
  210MOL0     H28975  -0.540   9.828   7.006  0.8597 -0.4905  1.1144
  210MOL0     H28976  -0.712   9.588   6.711 -0.9649  0.0736  0.9503
  210MOL0     H28977  -0.031   9.614   7.361  1.6351 -0.8518  0.8013
  210MOL0     H28978   0.207   9.594   7.544 -1.8808  0.2843  0.9786
  210MOL0     H28979   0.049   9.564   7.570  1.9371  1.8909  2.2453
  210MOL0     H28980   0.149   9.420   7.543 -0.7350 -0.8459 -1.5005
  211MOL0     O28981   6.326   1.137   9.313 -0.7927  0.5555 -0.9508
  211MOL0     C28982   6.260   1.045   9.260 -0.0749  0.4592  0.2295
  211MOL0     O28983   6.243   0.915   9.307  0.3338  0.6122 -0.6554
  211MOL0     C28984   6.262   0.883   9.441  1.0530  0.7574 -1.1167
  211MOL0     C28985   6.275   0.974   9.552  0.4694  0.5323 -0.0772
  211MOL0     C28986   6.280   0.917   9.683  0.4763 -0.1005  0.2087
  211MOL0     C28987   6.270   0.778   9.709 -0.0691 -0.4142  0.3180
  211MOL0     O28988   6.273   0.737   9.841 -0.6881  0.6321  0.2363
  211MOL0     C28989   6.210   0.612   9.881  0.5322 -0.7519  0.5112
  211MOL0     C28990   6.310   0.489   9.884  0.7810 -0.0256  0.0562
  211MOL0     C28991   6.397   0.478  10.012  0.5093  0.6595 -0.5624
  211MOL0     C28992   6.502   0.366  10.032 -0.3911  0.2049 -0.2733
  211MOL0     C28993   6.564   0.355  10.170  0.7076 -0.9090  0.0930
  211MOL0     C28994   6.657   0.226  10.174  0.5584 -1.4865  0.1806
  211MOL0     C28995   6.704   0.215  10.320 -0.0593  0.5655  0.1471
  211MOL0     C28996   6.809   0.115  10.349 -0.6143 -0.0113 -0.0514
  211MOL0     N28997   6.818   0.096  10.490 -0.2151  0.8274 -0.7720
  211MOL0     C28998   6.876   0.175  10.583 -0.1305 -0.5222 -0.5260
  211MOL0     C28999   6.866   0.112  10.701  1.5981  0.0126 -0.1324
  211MOL0     C29000   6.907   0.160  10.822  0.0909  0.0652 -0.2487
  211MOL0     C29001   6.917   0.053  10.942 -0.9206  0.2692  0.4639
  211MOL0     C29002   7.001  -0.072  10.909  0.6725 -0.6241  0.1310
  211MOL0     C29003   6.995  -0.170  11.028  0.3425  0.2994 -0.3121
  211MOL0     O29004   7.053  -0.293  10.985  0.2152 -0.9354  0.4404
  211MOL0     C29005   7.190  -0.313  10.998 -0.2359 -0.9808 -1.2093
  211MOL0     C29006   7.247  -0.429  10.968 -0.0075  0.4699 -0.0512
  211MOL0     C29007   7.379  -0.462  10.975 -0.1852 -0.4519 -0.6699
  211MOL0     C29008   7.437  -0.590  10.905  0.2543  0.5203  0.7774
  211MOL0     C29009   7.467  -0.373  11.043  0.1504  0.0605  0.8105
  211MOL0     C29010   7.603  -0.410  11.065 -0.6097 -0.3123  0.0249
  211MOL0     O29011   7.632  -0.533  11.097  0.2372 -0.0389  0.5091
  211MOL0     C29012   7.767  -0.570  11.090 -0.1701 -0.8319  0.1610
  211MOL0     C29013   7.832  -0.580  11.211  0.5954 -1.2735  0.6430
  211MOL0     C29014   7.963  -0.634  11.208 -0.8419 -0.1887  0.8711
  211MOL0     C29015   8.027  -0.679  11.081 -0.3528  0.6273  0.3199
  211MOL0     O29016   8.143  -0.741  11.057 -0.7739  0.5292 -0.5272
  211MOL0     C29017   8.245  -0.728  11.161  0.0190  0.2924  0.8397
  211MOL0     C29018   8.221  -0.842  11.274 -0.2977  0.4814  0.4591
  211MOL0     C29019   8.300  -0.807  11.405  0.1069 -0.3997 -0.4014
  211MOL0     C29020   8.289  -0.908  11.510  0.6454  0.1599 -0.1603
  211MOL0     C29021   8.380  -0.877  11.635 -0.4083 -0.5663  0.8561
  211MOL0     C29022   8.368  -0.985  11.736  0.4513 -0.0668 -0.8382
  211MOL0     C29023   8.436  -1.118  11.698  1.4536 -0.1859  0.2991
  211MOL0     C29024   8.429  -1.216  11.819  0.3121  0.2387  0.0813
  211MOL0    Cl29025   8.513  -1.374  11.781  0.6277  0.5715 -0.0810
  211MOL0     C29026   7.952  -0.666  10.965 -0.2637  0.3492  0.3878
  211MOL0     C29027   7.819  -0.621  10.971  1.0334 -0.5166 -0.5642
  211MOL0     O29028   7.681  -0.316  11.076  0.0958 -0.1313  0.1873
  211MOL0     C29029   7.415  -0.247  11.088 -0.0090  1.0237 -0.0599
  211MOL0     C29030   7.282  -0.223  11.069 -0.1678 -0.1307 -0.4046
  211MOL0     N29031   6.798  -0.007  10.672 -0.5519  0.0587 -1.1104
  211MOL0     N29032   6.787  -0.026  10.542  0.1194 -0.1598  0.7551
  211MOL0     C29033   6.268   0.689   9.598 -0.1036 -0.7501 -0.0018
  211MOL0     C29034   6.263   0.751   9.472  0.5778  0.1679 -0.0647
  211MOL0     C29035   6.220   1.069   9.122 -0.1026 -1.1230  0.4773
  211MOL0     C29036   6.216   1.202   9.086 -0.1315  0.4705 -0.8733
  211MOL0     C29037   6.172   1.246   8.962 -0.6812 -0.5132 -0.5486
  211MOL0     C29038   6.138   1.154   8.865  0.0497  0.1092  0.6780
  211MOL0     O29039   6.098   1.162   8.732  0.0704 -0.4034  0.7864
  211MOL0     C29040   6.097   1.292   8.669  0.1845  0.3474  0.6879
  211MOL0     C29041   6.027   1.286   8.527 -0.0773  0.6038  0.2330
  211MOL0     C29042   6.012   1.431   8.471  0.0622 -0.3769  0.2217
  211MOL0     C29043   5.906   1.434   8.358  0.2127  0.9888 -0.4455
  211MOL0     C29044   5.926   1.337   8.252 -0.1638 -0.7997 -0.2462
  211MOL0     C29045   5.961   1.250   8.170  0.6651 -0.6922 -0.4573
  211MOL0     C29046   6.148   1.021   8.898  0.4823  0.8065 -0.5650
  211MOL0     C29047   6.182   0.976   9.027  0.3728  0.0759 -0.0568
  211MOL0     C29048   6.185   0.824   9.047  0.3075 -0.9740 -0.5760
  211MOL0     H29049   6.263   1.082   9.551 -0.5402  0.4789  1.7823
  211MOL0     H29050   6.284   0.992   9.762 -2.9102 -2.4744  2.9436
  211MOL0     H29051   6.120   0.594   9.822  0.1918 -1.0822  1.1220
  211MOL0     H29052   6.178   0.630   9.984  1.0642  0.7768  0.4423
  211MOL0     H29053   6.268   0.393   9.855 -0.0374 -0.1278  1.4836
  211MOL0     H29054   6.384   0.519   9.810  0.1490 -1.7957 -1.3613
  211MOL0     H29055   6.451   0.572  10.026  3.5367 -1.1218  0.7117
  211MOL0     H29056   6.330   0.468  10.098  2.8467  0.7469  1.3530
  211MOL0     H29057   6.447   0.274  10.012 -0.9417  0.0643  1.6686
  211MOL0     H29058   6.580   0.387   9.958 -0.2891  0.9512  0.0390
  211MOL0     H29059   6.477   0.336  10.233  0.3829 -3.4238 -0.9687
  211MOL0     H29060   6.607   0.449  10.205 -2.5853  0.6172  0.4396
  211MOL0     H29061   6.592   0.139  10.158 -1.5022 -0.7552  3.5399
  211MOL0     H29062   6.744   0.231  10.108  0.6164 -0.3814  0.3268
  211MOL0     H29063   6.616   0.180  10.375  1.0047 -1.5024  0.6386
  211MOL0     H29064   6.741   0.316  10.341  1.7405 -0.0732  0.1904
  211MOL0     H29065   6.789   0.023  10.293 -0.1164 -1.1585  1.5954
  211MOL0     H29066   6.904   0.150  10.306 -1.3172  1.3345 -0.5986
  211MOL0     H29067   6.920   0.271  10.558 -1.5052  0.0931 -0.7019
  211MOL0     H29068   6.833   0.235  10.852  0.5779 -0.4287  2.3531
  211MOL0     H29069   7.006   0.202  10.801 -0.6877  1.6150 -1.0217
  211MOL0     H29070   6.943   0.113  11.030  0.9567  0.8946 -0.4742
  211MOL0     H29071   6.813   0.027  10.964 -0.9922  0.2969  0.1563
  211MOL0     H29072   6.951  -0.127  10.829 -1.4746 -0.9815  1.6332
  211MOL0     H29073   7.106  -0.047  10.896  1.1539 -2.4728  0.2345
  211MOL0     H29074   7.035  -0.129  11.121  0.5363  0.9873 -0.6945
  211MOL0     H29075   6.889  -0.193  11.041 -0.0484  1.2951 -1.5554
  211MOL0     H29076   7.187  -0.493  10.903 -1.2403  0.0015  1.4986
  211MOL0     H29077   7.465  -0.673  10.970  1.3685  0.4512  0.2220
  211MOL0     H29078   7.509  -0.559  10.829 -0.9513 -0.6289 -0.9012
  211MOL0     H29079   7.352  -0.629  10.849  0.7820  1.9159 -1.0903
  211MOL0     H29080   7.788  -0.545  11.303  0.0319  0.6849 -0.3115
  211MOL0     H29081   8.019  -0.652  11.299  1.1171  1.1969  0.0142
  211MOL0     H29082   8.343  -0.730  11.111 -0.1153 -2.6560  0.5058
  211MOL0     H29083   8.232  -0.629  11.206 -3.3678  0.3336  0.0388
  211MOL0     H29084   8.115  -0.865  11.287 -0.5976  0.8656 -1.0855
  211MOL0     H29085   8.255  -0.941  11.241 -2.3692 -0.9488  2.3617
  211MOL0     H29086   8.264  -0.716  11.454  3.2266  0.9574 -0.3765
  211MOL0     H29087   8.406  -0.788  11.387  0.7018  1.6828  3.8445
  211MOL0     H29088   8.312  -1.005  11.466 -3.2746 -0.6688 -0.7473
  211MOL0     H29089   8.185  -0.916  11.542  0.5412  0.3266 -0.4594
  211MOL0     H29090   8.485  -0.860  11.606 -0.0029 -0.7354  2.1753
  211MOL0     H29091   8.368  -0.773  11.666  0.7108  0.7847 -2.6263
  211MOL0     H29092   8.261  -0.990  11.754  0.5916  0.2701  0.1650
  211MOL0     H29093   8.416  -0.952  11.829  0.3871 -0.0997 -0.7943
  211MOL0     H29094   8.539  -1.087  11.679  0.5713  1.8333 -1.5891
  211MOL0     H29095   8.390  -1.160  11.608  2.1295  1.4310 -0.8490
  211MOL0     H29096   8.324  -1.231  11.843  0.0599 -0.2309 -1.2151
  211MOL0     H29097   8.478  -1.186  11.912 -2.4317 -2.3694  2.5897
  211MOL0     H29098   7.989  -0.690  10.866 -2.7478  1.6964 -0.9824
  211MOL0     H29099   7.754  -0.622  10.885 -0.7532 -0.7055  0.7208
  211MOL0     H29100   7.478  -0.170  11.132 -0.2275  0.1411  1.8562
  211MOL0     H29101   7.239  -0.132  11.110  1.4427  0.6448 -0.3671
  211MOL0     H29102   6.280   0.583   9.616  1.5612 -0.6709 -0.4387
  211MOL0     H29103   6.253   0.674   9.397 -0.3570 -1.0413  1.2383
  211MOL0     H29104   6.236   1.280   9.159  1.3817 -0.5626 -0.1394
  211MOL0     H29105   6.161   1.353   8.952  2.3890  0.3264  2.9213
  211MOL0     H29106   6.036   1.348   8.740 -0.8623  1.1871 -0.8168
  211MOL0     H29107   6.196   1.337   8.658  0.7077 -0.9847 -0.3569
  211MOL0     H29108   5.933   1.231   8.521  0.9996 -1.1841 -3.1666
  211MOL0     H29109   6.093   1.229   8.461 -0.0231 -1.6646  2.0957
  211MOL0     H29110   5.983   1.499   8.551 -1.0763  0.9079 -1.2141
  211MOL0     H29111   6.109   1.461   8.432 -0.0092  1.1774  1.1828
  211MOL0     H29112   5.914   1.533   8.312 -0.1078  1.6097  0.7779
  211MOL0     H29113   5.805   1.420   8.400 -0.9459 -0.8066 -3.4929
  211MOL0     H29114   5.993   1.172   8.103  0.3779  0.6357 -2.2213
  211MOL0     H29115   6.128   0.933   8.839  4.4117 -0.9760  0.4637
  211MOL0     H29116   6.273   0.793   9.106 -0.4738  0.2847  1.3715
  211MOL0     H29117   6.092   0.793   9.094 -0.8630  2.7676 -0.0513
  211MOL0     H29118   6.184   0.761   8.958 -0.9454 -3.0281  0.8305
  212MOL0     O29119   1.835   3.642   9.509 -0.1682 -0.8333  0.0424
  212MOL0     C29120   1.922   3.699   9.575 -0.1380 -0.2219 -0.1369
  212MOL0     O29121   1.920   3.714   9.718  1.0232 -0.5957  0.2268
  212MOL0     C29122   1.830   3.660   9.801  0.0615 -0.7724 -0.3571
  212MOL0     C29123   1.823   3.707   9.930 -0.4879  0.4015  0.7218
  212MOL0     C29124   1.721   3.683  10.017  0.3841  0.0574  0.3904
  212MOL0     C29125   1.620   3.588   9.988  0.6256 -0.4962 -0.0884
  212MOL0     O29126   1.509   3.547  10.071  0.3930 -0.3504 -0.1698
  212MOL0     C29127   1.510   3.571  10.213 -0.6442  0.0928 -0.6729
  212MOL0     C29128   1.614   3.497  10.297 -0.0731 -1.0878  0.8336
  212MOL0     C29129   1.579   3.485  10.437  0.0570 -0.5324  0.3729
  212MOL0     C29130   1.696   3.435  10.534  0.0276 -0.2136 -0.7402
  212MOL0     C29131   1.649   3.410  10.679 -0.2267  0.8475  0.1679
  212MOL0     C29132   1.760   3.340  10.760  0.8242 -0.1149  0.0634
  212MOL0     C29133   1.706   3.313  10.901 -0.2180 -0.2385 -1.2463
  212MOL0     C29134   1.744   3.426  11.002  0.5747 -0.6926  0.3924
  212MOL0     N29135   1.862   3.388  11.076 -0.7131  0.3523  0.3475
  212MOL0     C29136   1.982   3.336  11.028  0.6006  0.9245  0.1782
  212MOL0     C29137   2.038   3.268  11.131  0.2725 -0.4883  0.5481
  212MOL0     C29138   2.151   3.170  11.111 -0.9857 -0.2640  0.3810
  212MOL0     C29139   2.109   3.040  11.049  0.3850  0.1836 -1.4273
  212MOL0     C29140   2.211   2.924  11.033 -0.0776 -0.4846 -0.0841
  212MOL0     C29141   2.355   2.933  11.103 -0.0730  0.0994  0.1080
  212MOL0     O29142   2.342   2.945  11.248  0.5023 -0.8529  0.9189
  212MOL0     C29143   2.462   2.929  11.315 -0.0727 -0.2382  0.0533
  212MOL0     C29144   2.491   2.824  11.406  0.6772 -0.6179  0.1438
  212MOL0     C29145   2.618   2.812  11.479  0.8073  0.6659  0.5072
  212MOL0     C29146   2.620   2.697  11.576 -0.6939  0.6634  0.3948
  212MOL0     C29147   2.719   2.918  11.465 -0.0277 -0.0741  1.8026
  212MOL0     C29148   2.852   2.924  11.537 -0.1156  0.2684 -0.6804
  212MOL0     O29149   2.949   3.024  11.500 -0.2787 -0.4302  0.1516
  212MOL0     C29150   3.049   3.052  11.593  0.1247 -0.2991  0.0542
  212MOL0     C29151   3.160   2.973  11.614  0.4968 -0.5493 -0.7860
  212MOL0     C29152   3.240   2.982  11.730 -0.0063 -0.7292 -0.2694
  212MOL0     C29153   3.208   3.073  11.826  0.4788 -0.3243 -0.6562
  212MOL0     O29154   3.267   3.084  11.949  0.6659  0.2909  0.5478
  212MOL0     C29155   3.391   3.012  11.969  0.2144  0.1509 -0.3903
  212MOL0     C29156   3.431   3.029  12.112 -0.5528 -0.5062 -1.3510
  212MOL0     C29157   3.491   2.911  12.187 -0.0140 -0.0009 -0.7784
  212MOL0     C29158   3.635   2.885  12.132  0.3302  0.3002  0.0514
  212MOL0     C29159   3.713   2.805  12.233  0.3657  1.0826 -0.0351
  212MOL0     C29160   3.844   2.747  12.176  0.1748 -0.0139  0.6331
  212MOL0     C29161   3.948   2.859  12.171 -0.2242 -0.6401 -0.4605
  212MOL0     C29162   4.091   2.814  12.160 -0.1938 -0.3210  0.3207
  212MOL0    Cl29163   4.137   2.727  12.309 -0.2069 -0.2471 -0.2869
  212MOL0     C29164   3.100   3.154  11.809  0.5156  0.4869  0.7693
  212MOL0     C29165   3.017   3.147  11.689 -0.1695  0.1297 -0.1156
  212MOL0     O29166   2.863   2.854  11.637  0.6057  0.4656 -1.0722
  212MOL0     C29167   2.679   3.018  11.380 -0.3773 -0.3889  0.9081
  212MOL0     C29168   2.557   3.022  11.307  1.3675  0.0673  1.1152
  212MOL0     N29169   1.962   3.288  11.244 -0.6821 -0.3308 -0.1761
  212MOL0     N29170   1.857   3.354  11.211  0.4253 -0.6777  0.7407
  212MOL0     C29171   1.628   3.523   9.863 -0.4523  0.4289  0.2500
  212MOL0     C29172   1.727   3.563   9.765  0.3236  0.9046  0.0652
  212MOL0     C29173   2.038   3.750   9.504  0.7235 -0.7244 -0.3572
  212MOL0     C29174   2.159   3.732   9.568 -0.1554 -0.7634 -0.4595
  212MOL0     C29175   2.279   3.782   9.507  0.2472 -0.5713  0.2621
  212MOL0     C29176   2.285   3.831   9.385  0.5894  0.2862  0.8683
  212MOL0     O29177   2.413   3.857   9.344 -0.3177  0.0837  0.2843
  212MOL0     C29178   2.435   3.920   9.220 -0.2854 -0.4694 -0.2141
  212MOL0     C29179   2.576   3.961   9.184 -0.1102  0.2730 -0.0922
  212MOL0     C29180   2.630   4.072   9.273  0.4580  0.0243  0.0862
  212MOL0     C29181   2.765   4.122   9.212 -0.1578  0.3630 -0.3457
  212MOL0     C29182   2.803   4.249   9.273  0.3991  0.2871 -0.8881
  212MOL0     C29183   2.843   4.341   9.341  0.2205 -0.2011  0.5133
  212MOL0     C29184   2.163   3.839   9.311  0.4321  0.5724  0.2571
  212MOL0     C29185   2.036   3.812   9.376 -0.3127 -0.0453  0.4566
  212MOL0     C29186   1.918   3.846   9.297 -0.7276 -0.4120  0.6407
  212MOL0     H29187   1.898   3.784   9.951 -0.3937  1.3613 -2.5151
  212MOL0     H29188   1.727   3.746  10.105  3.8352  0.8865 -0.3051
  212MOL0     H29189   1.413   3.542  10.256 -0.0755 -1.1928 -0.2102
  212MOL0     H29190   1.528   3.678  10.227  0.7535 -0.4263  2.0743
  212MOL0     H29191   1.619   3.398  10.251 -2.4024 -0.2062 -1.6115
  212MOL0     H29192   1.711   3.548  10.295 -0.5173 -0.2310  0.5662
  212MOL0     H29193   1.529   3.579  10.463  2.8776  0.9543  0.8650
  212MOL0     H29194   1.508   3.403  10.450  1.7059 -1.8415  1.5817
  212MOL0     H29195   1.741   3.343  10.496 -0.6220 -0.1330 -1.7578
  212MOL0     H29196   1.772   3.514  10.538 -0.4870  0.4526 -2.6054
  212MOL0     H29197   1.562   3.343  10.675  0.4044  0.0203  0.2350
  212MOL0     H29198   1.620   3.500  10.734  0.5048  0.9824  0.3320
  212MOL0     H29199   1.792   3.241  10.723  2.1121  0.3265 -0.0825
  212MOL0     H29200   1.849   3.404  10.764 -0.6344  1.9356  1.6650
  212MOL0     H29201   1.747   3.218  10.938 -3.8388 -0.7639  2.1201
  212MOL0     H29202   1.599   3.291  10.899  0.2926 -3.9469  1.3295
  212MOL0     H29203   1.776   3.513  10.944  0.1027 -1.1857 -0.6326
  212MOL0     H29204   1.662   3.445  11.073 -2.4424 -0.9217 -2.7501
  212MOL0     H29205   2.031   3.345  10.932 -1.4772  4.7538 -0.7212
  212MOL0     H29206   2.204   3.160  11.207  4.2390 -0.0427 -2.1074
  212MOL0     H29207   2.233   3.209  11.049  0.0234 -2.3055  0.3481
  212MOL0     H29208   2.037   2.989  11.113 -0.2394 -1.7805 -3.5565
  212MOL0     H29209   2.082   3.047  10.944 -0.9415 -4.3332 -1.6006
  212MOL0     H29210   2.162   2.833  11.070 -2.6143 -0.1032 -2.2465
  212MOL0     H29211   2.224   2.916  10.925 -0.0003  2.6497 -0.3808
  212MOL0     H29212   2.404   2.837  11.083  0.3283  0.1013  0.9910
  212MOL0     H29213   2.422   3.010  11.063 -1.2022 -0.2805 -2.7141
  212MOL0     H29214   2.403   2.761  11.413  0.5056 -1.3859 -5.2916
  212MOL0     H29215   2.725   2.666  11.580 -0.9888 -0.4728 -0.2015
  212MOL0     H29216   2.560   2.611  11.544  1.7662 -0.5410 -1.3651
  212MOL0     H29217   2.597   2.736  11.675  1.5953  2.3973  0.3327
  212MOL0     H29218   3.183   2.894  11.544  0.9246 -0.2963 -0.9307
  212MOL0     H29219   3.312   2.902  11.746 -1.0976 -1.5291  0.8987
  212MOL0     H29220   3.391   2.903  11.955  0.3024 -0.0912  1.3043
  212MOL0     H29221   3.464   3.044  11.894  1.2803 -1.4696 -0.1235
  212MOL0     H29222   3.493   3.119  12.119  1.4265 -1.9554  2.7439
  212MOL0     H29223   3.344   3.051  12.175 -1.3316  1.4626 -2.9807
  212MOL0     H29224   3.424   2.824  12.188  1.4396 -1.2031 -2.2936
  212MOL0     H29225   3.501   2.956  12.286  0.7169 -1.6122 -0.0814
  212MOL0     H29226   3.687   2.980  12.120  0.5852  0.0446 -1.0491
  212MOL0     H29227   3.627   2.830  12.037 -1.9942  0.0250  0.3434
  212MOL0     H29228   3.730   2.876  12.314 -0.0245 -0.5716  1.5656
  212MOL0     H29229   3.650   2.723  12.268 -1.9979  3.9622  3.0565
  212MOL0     H29230   3.816   2.720  12.074 -3.0422  0.6547  1.2466
  212MOL0     H29231   3.888   2.659  12.225  4.7358  2.8066  2.2010
  212MOL0     H29232   3.936   2.918  12.262  0.5134  2.5414 -2.2454
  212MOL0     H29233   3.923   2.931  12.092  2.6468  0.5497 -0.4289
  212MOL0     H29234   4.157   2.901  12.162 -3.4995  2.5437 -1.8005
  212MOL0     H29235   4.101   2.751  12.071  1.3205  0.7613 -0.3145
  212MOL0     H29236   3.077   3.214  11.897  3.1180  1.3853  0.8982
  212MOL0     H29237   2.934   3.217  11.685 -0.4791 -0.2489 -0.4662
  212MOL0     H29238   2.746   3.101  11.361 -2.0999  1.5912  2.8051
  212MOL0     H29239   2.529   3.102  11.240 -2.3184  1.7158  4.2349
  212MOL0     H29240   1.560   3.443   9.838  1.4026 -0.8508 -0.9844
  212MOL0     H29241   1.711   3.518   9.667 -4.3999 -1.5528  1.6443
  212MOL0     H29242   2.170   3.698   9.671  0.5945  0.6080 -0.0634
  212MOL0     H29243   2.368   3.779   9.569  2.3294  1.2006 -2.4296
  212MOL0     H29244   2.406   3.849   9.141 -0.3261 -2.5898  1.5904
  212MOL0     H29245   2.374   4.010   9.212 -0.0954 -0.2941  0.3177
  212MOL0     H29246   2.580   3.995   9.080  1.4221 -1.6168 -0.6978
  212MOL0     H29247   2.647   3.879   9.196  1.4890  1.5895 -0.0964
  212MOL0     H29248   2.554   4.150   9.283 -0.2889 -0.9213  2.8448
  212MOL0     H29249   2.638   4.030   9.374  1.7311  0.9223  0.3803
  212MOL0     H29250   2.777   4.134   9.103  1.7215 -1.6148 -0.4229
  212MOL0     H29251   2.837   4.047   9.246  0.5065  0.9002 -0.5289
  212MOL0     H29252   2.890   4.431   9.375 -0.1697  0.9920 -1.8754
  212MOL0     H29253   2.161   3.868   9.206  0.5047 -3.4528 -1.0180
  212MOL0     H29254   1.822   3.822   9.344 -0.8591 -1.9459 -0.3242
  212MOL0     H29255   1.925   3.953   9.277 -0.5684 -0.8106 -1.7567
  212MOL0     H29256   1.936   3.797   9.201  0.4972  1.1597  0.0261
  213MOL0     O29257   8.452   6.111   8.822 -0.4359 -0.0830  0.4786
  213MOL0     C29258   8.495   6.037   8.912 -0.2938  0.1010  0.2834
  213MOL0     O29259   8.625   6.007   8.933  0.4660 -0.0105 -0.1480
  213MOL0     C29260   8.732   6.079   8.881 -0.4578  0.0154  0.7250
  213MOL0     C29261   8.730   6.219   8.843  0.4641  0.2167 -0.1676
  213MOL0     C29262   8.841   6.278   8.789 -1.0064  0.4303  0.9458
  213MOL0     C29263   8.966   6.211   8.773 -0.1379  0.0248 -1.4221
  213MOL0     O29264   9.071   6.295   8.742 -0.1917 -0.5521  0.1375
  213MOL0     C29265   9.166   6.243   8.652  0.2199 -0.2956  0.4781
  213MOL0     C29266   9.172   6.334   8.526 -0.3775  0.8255  0.3168
  213MOL0     C29267   9.213   6.481   8.558  1.2672 -0.5122 -0.8986
  213MOL0     C29268   9.359   6.488   8.599 -0.0623 -0.4942  0.1887
  213MOL0     C29269   9.411   6.632   8.626  1.2931  0.6087  0.7044
  213MOL0     C29270   9.347   6.712   8.737 -0.8596  0.1209  0.0792
  213MOL0     C29271   9.329   6.640   8.869  0.2638  0.0174  0.6525
  213MOL0     C29272   9.460   6.593   8.932  0.7262 -0.0220 -0.1772
  213MOL0     N29273   9.440   6.516   9.044  0.3267  0.2404 -0.4897
  213MOL0     C29274   9.355   6.408   9.045  0.4631  0.5116 -0.4706
  213MOL0     C29275   9.370   6.354   9.171  0.1865  0.1925 -0.2647
  213MOL0     C29276   9.332   6.211   9.209 -0.0352  0.5337  0.1517
  213MOL0     C29277   9.178   6.190   9.252 -0.1020 -0.2436 -0.0179
  213MOL0     C29278   9.080   6.238   9.142  0.7073  0.0257  0.1295
  213MOL0     C29279   8.938   6.224   9.176  0.1351 -0.6654 -0.4933
  213MOL0     O29280   8.921   6.290   9.303 -0.2942 -0.1260 -0.8173
  213MOL0     C29281   8.810   6.267   9.373  0.9634  0.1186  1.0928
  213MOL0     C29282   8.779   6.356   9.479 -0.3037  0.3865 -0.2003
  213MOL0     C29283   8.665   6.354   9.565  0.7327 -0.1969  0.6138
  213MOL0     C29284   8.650   6.459   9.684 -0.8185  0.2789  0.8718
  213MOL0     C29285   8.571   6.253   9.541  0.2292  0.5006  0.6492
  213MOL0     C29286   8.428   6.242   9.606  0.0109 -0.2856 -0.1493
  213MOL0     O29287   8.375   6.117   9.594 -0.4698 -0.4930 -0.4984
  213MOL0     C29288   8.240   6.099   9.584 -0.3316 -0.2768 -0.9645
  213MOL0     C29289   8.174   6.014   9.665  0.0850  0.1776 -0.2421
  213MOL0     C29290   8.033   6.007   9.651 -0.2016  0.8404 -0.2889
  213MOL0     C29291   7.966   6.069   9.546 -0.2029 -0.3030  0.6479
  213MOL0     O29292   7.834   6.076   9.518 -0.0012  0.6661 -0.3484
  213MOL0     C29293   7.768   5.957   9.556 -0.1121 -0.1271 -0.2986
  213MOL0     C29294   7.630   5.969   9.483 -1.0788  0.0199 -0.2561
  213MOL0     C29295   7.537   6.066   9.550  1.0203  0.2803 -1.0761
  213MOL0     C29296   7.415   6.082   9.463 -0.5887 -0.3197  0.4407
  213MOL0     C29297   7.319   6.189   9.520 -0.1962  0.4300  0.3557
  213MOL0     C29298   7.193   6.202   9.441 -0.3167 -0.6724  0.6470
  213MOL0     C29299   7.217   6.304   9.316 -0.2200  1.0710  0.0395
  213MOL0     C29300   7.218   6.457   9.344 -0.4346  0.4551 -1.0198
  213MOL0    Cl29301   7.077   6.511   9.457  0.0230  0.3168  0.2482
  213MOL0     C29302   8.047   6.135   9.450  0.2162 -0.9709  0.2962
  213MOL0     C29303   8.187   6.151   9.471  0.1516 -0.0879 -0.3332
  213MOL0     O29304   8.372   6.333   9.672 -0.9538  0.3884  0.9022
  213MOL0     C29305   8.601   6.162   9.440  0.4896 -0.7999 -0.2204
  213MOL0     C29306   8.719   6.161   9.363  1.2476  0.2594  0.6846
  213MOL0     N29307   9.458   6.436   9.242  0.3556 -0.8540 -0.0434
  213MOL0     N29308   9.491   6.545   9.165 -0.2322  0.1934 -0.0778
  213MOL0     C29309   8.965   6.075   8.805 -0.2943  0.4914  0.0167
  213MOL0     C29310   8.857   6.019   8.870  0.5291  0.1577  0.3329
  213MOL0     C29311   8.398   5.980   9.013  0.7327  0.1298  0.3673
  213MOL0     C29312   8.445   5.968   9.142 -1.2431  0.6289 -0.1645
  213MOL0     C29313   8.363   5.916   9.246  0.6777 -0.7464  0.1710
  213MOL0     C29314   8.222   5.890   9.215 -0.0352  0.1477 -0.2247
  213MOL0     O29315   8.132   5.847   9.306  0.2190  0.6345  0.5597
  213MOL0     C29316   8.064   5.727   9.255  0.0324  0.3552 -0.1461
  213MOL0     C29317   8.017   5.639   9.372 -0.2498  0.2050 -0.2017
  213MOL0     C29318   7.975   5.502   9.322  0.2607 -0.9039  0.4267
  213MOL0     C29319   7.844   5.519   9.233 -0.3775  0.6761  0.0755
  213MOL0     C29320   7.800   5.404   9.169  0.6166  0.5040  0.1951
  213MOL0     C29321   7.760   5.304   9.107 -0.0566 -0.1264 -0.3995
  213MOL0     C29322   8.181   5.902   9.085 -0.2886 -0.1156  0.1735
  213MOL0     C29323   8.261   5.953   8.984 -0.3014 -0.1077  0.7151
  213MOL0     C29324   8.190   5.962   8.851  0.5283  0.0493 -0.5637
  213MOL0     H29325   8.630   6.261   8.852  0.8842  2.3823 -3.8173
  213MOL0     H29326   8.827   6.383   8.763  0.0794 -0.1301 -2.2932
  213MOL0     H29327   9.141   6.142   8.616 -2.0496  0.0669  0.9034
  213MOL0     H29328   9.268   6.240   8.691  0.5663  0.5074 -0.3377
  213MOL0     H29329   9.228   6.278   8.450 -0.2390  0.4585  0.6855
  213MOL0     H29330   9.072   6.326   8.481 -0.3022 -1.5460  0.4327
  213MOL0     H29331   9.199   6.543   8.469  0.5158  0.1989 -0.2983
  213MOL0     H29332   9.154   6.528   8.636 -0.0987  0.0307 -2.2005
  213MOL0     H29333   9.394   6.427   8.683  1.8937  1.2575  0.7442
  213MOL0     H29334   9.413   6.452   8.511  0.2606  2.2884 -0.8447
  213MOL0     H29335   9.395   6.685   8.531 -1.1378 -1.6909 -0.2984
  213MOL0     H29336   9.518   6.626   8.645  1.7823  0.5113 -1.8476
  213MOL0     H29337   9.422   6.787   8.764 -0.7055 -0.2766  0.7698
  213MOL0     H29338   9.251   6.753   8.704  0.1023  0.5551 -2.3705
  213MOL0     H29339   9.254   6.560   8.868 -0.0209  0.1477  3.2333
  213MOL0     H29340   9.269   6.710   8.929 -0.8711 -1.1549  0.9296
  213MOL0     H29341   9.513   6.539   8.852 -1.4438 -0.7327 -1.2276
  213MOL0     H29342   9.524   6.676   8.963  1.1113 -1.5070  3.3822
  213MOL0     H29343   9.301   6.357   8.966  1.5603  0.3755 -1.1494
  213MOL0     H29344   9.397   6.169   9.286  1.9189 -0.9240 -2.1487
  213MOL0     H29345   9.342   6.144   9.123 -2.4317  1.3149 -0.8354
  213MOL0     H29346   9.166   6.082   9.264 -2.7197  0.0050  0.0117
  213MOL0     H29347   9.158   6.237   9.348  0.5344  1.0290 -0.4821
  213MOL0     H29348   9.100   6.344   9.127 -1.4065  0.5075  0.3459
  213MOL0     H29349   9.106   6.199   9.043 -0.4049 -0.8914  0.1659
  213MOL0     H29350   8.866   6.257   9.101 -1.3287  2.1354  1.9395
  213MOL0     H29351   8.918   6.117   9.182  1.3996 -1.0073 -1.8956
  213MOL0     H29352   8.853   6.429   9.512 -0.0397 -0.7867  1.9256
  213MOL0     H29353   8.739   6.523   9.681 -0.4624 -0.1624 -3.0982
  213MOL0     H29354   8.635   6.410   9.780 -1.6769  1.8853  1.5925
  213MOL0     H29355   8.563   6.525   9.677  0.2419  1.7193  0.7359
  213MOL0     H29356   8.226   5.947   9.733 -0.9648 -1.1862 -0.7488
  213MOL0     H29357   7.977   5.948   9.723  1.6814  0.5730  1.0171
  213MOL0     H29358   7.826   5.876   9.512  0.3249 -1.2186  2.1519
  213MOL0     H29359   7.736   5.943   9.660 -1.2358 -1.4617 -0.7926
  213MOL0     H29360   7.656   6.001   9.382  0.4566 -0.0615  0.0932
  213MOL0     H29361   7.584   5.872   9.464  1.2877 -0.7622 -2.5761
  213MOL0     H29362   7.591   6.158   9.576  0.8844  0.4175 -1.2795
  213MOL0     H29363   7.504   6.020   9.644  2.2746 -0.7968 -1.1272
  213MOL0     H29364   7.356   5.990   9.464 -2.4425  0.8184  1.0783
  213MOL0     H29365   7.441   6.106   9.360 -2.0233  1.2841  0.4086
  213MOL0     H29366   7.307   6.146   9.620  3.3049  1.0989  1.1837
  213MOL0     H29367   7.373   6.283   9.527 -0.1507  0.2785  4.7255
  213MOL0     H29368   7.112   6.237   9.505 -0.8574 -0.0664 -0.3409
  213MOL0     H29369   7.156   6.105   9.407 -0.0083 -1.2541  1.9109
  213MOL0     H29370   7.129   6.279   9.255  0.6967 -1.4011 -0.4007
  213MOL0     H29371   7.296   6.265   9.251 -0.4635 -1.6916  1.2653
  213MOL0     H29372   7.206   6.515   9.252  2.4965 -0.4209 -2.0509
  213MOL0     H29373   7.316   6.475   9.389 -1.4526 -0.4743  1.8163
  213MOL0     H29374   7.999   6.185   9.367 -0.9283 -0.2416  1.3645
  213MOL0     H29375   8.238   6.209   9.395 -1.0045 -0.1565 -1.1865
  213MOL0     H29376   8.523   6.091   9.413 -1.7436  0.4303  2.4536
  213MOL0     H29377   8.726   6.080   9.291 -0.1354 -0.1666  1.0009
  213MOL0     H29378   9.062   6.025   8.799 -0.4337  0.4467 -2.7461
  213MOL0     H29379   8.860   5.919   8.912  0.1600  0.7715  1.8756
  213MOL0     H29380   8.548   5.989   9.167 -1.8324  1.0102  2.1449
  213MOL0     H29381   8.397   5.907   9.349 -0.5467  1.6855  0.8707
  213MOL0     H29382   7.978   5.749   9.190 -0.8002  1.4103  1.2431
  213MOL0     H29383   8.130   5.670   9.190  1.6090 -0.3689  1.9787
  213MOL0     H29384   7.938   5.686   9.430  0.4581  0.3517  0.6658
  213MOL0     H29385   8.103   5.624   9.438  0.6242 -0.5024 -1.4647
  213MOL0     H29386   8.054   5.459   9.259 -0.8462 -0.7301 -1.1226
  213MOL0     H29387   7.955   5.430   9.401  1.8508  1.1168  2.8263
  213MOL0     H29388   7.868   5.583   9.148 -3.3063  0.4440 -1.0375
  213MOL0     H29389   7.751   5.548   9.283 -2.4081 -1.5295 -2.1541
  213MOL0     H29390   7.710   5.239   9.038  0.7578  1.6610 -2.8305
  213MOL0     H29391   8.077   5.880   9.064 -0.3937  0.5934 -0.0718
  213MOL0     H29392   8.186   6.059   8.800 -0.9547 -0.4570 -1.4883
  213MOL0     H29393   8.237   5.898   8.776 -1.1195  1.2674 -2.7673
  213MOL0     H29394   8.080   5.964   8.849  0.4737  0.7106 -4.4116
  214MOL0     O29395   7.808   7.030   4.514  0.2710 -0.8422 -0.0113
  214MOL0     C29396   7.857   7.144   4.503 -0.9442 -0.7760 -0.0709
  214MOL0     O29397   7.853   7.235   4.596  0.5079  0.5154 -0.0712
  214MOL0     C29398   7.784   7.212   4.715 -0.1805 -0.7508  1.1625
  214MOL0     C29399   7.660   7.284   4.732  0.3043  0.4974  0.6981
  214MOL0     C29400   7.584   7.244   4.841  1.3064 -0.0340  0.2974
  214MOL0     C29401   7.633   7.152   4.942 -0.1387 -0.1864 -0.8931
  214MOL0     O29402   7.567   7.115   5.058  0.5850  0.1995  0.8745
  214MOL0     C29403   7.483   7.210   5.125  0.2014  0.5095  0.4633
  214MOL0     C29404   7.387   7.144   5.222  0.5751  0.7921 -1.2259
  214MOL0     C29405   7.286   7.240   5.288  0.1800  0.7537  0.6725
  214MOL0     C29406   7.150   7.157   5.306 -0.5454 -0.8326 -0.3628
  214MOL0     C29407   7.031   7.237   5.372  0.6265  0.0260 -0.0964
  214MOL0     C29408   6.899   7.163   5.367 -1.8343 -0.6986 -0.8270
  214MOL0     C29409   6.783   7.225   5.453 -0.4396 -0.5834 -0.2134
  214MOL0     C29410   6.655   7.141   5.439  0.1210 -0.0978 -0.0483
  214MOL0     N29411   6.529   7.201   5.503 -0.4648 -0.2788 -0.1631
  214MOL0     C29412   6.521   7.319   5.580 -0.0129 -1.2142  0.0665
  214MOL0     C29413   6.386   7.347   5.584 -0.4836  0.2497  0.4016
  214MOL0     C29414   6.303   7.450   5.651  1.0274  0.2604 -0.3675
  214MOL0     C29415   6.191   7.527   5.567 -1.0433 -0.4593 -0.5359
  214MOL0     C29416   6.267   7.597   5.443 -0.7056 -0.3225 -0.3968
  214MOL0     C29417   6.351   7.726   5.480  0.8144 -0.7558  0.2151
  214MOL0     O29418   6.266   7.809   5.559  0.3840 -0.1210 -0.4230
  214MOL0     C29419   6.179   7.905   5.512  0.3681  0.7104 -0.1793
  214MOL0     C29420   6.109   7.979   5.606  0.1729 -0.5371  0.3011
  214MOL0     C29421   6.047   8.099   5.568 -0.0201 -0.6838 -0.4164
  214MOL0     C29422   5.983   8.185   5.677 -0.7656 -0.3431  0.1996
  214MOL0     C29423   6.068   8.151   5.441  0.0784  0.9000  0.2206
  214MOL0     C29424   6.007   8.278   5.405  0.8442 -0.3754  0.4566
  214MOL0     O29425   6.087   8.389   5.416  0.2911  0.3540  0.0185
  214MOL0     C29426   6.012   8.507   5.408  0.1354 -1.4619  0.8500
  214MOL0     C29427   5.927   8.543   5.511  0.5994  0.0370  0.5539
  214MOL0     C29428   5.851   8.666   5.520  0.4649  1.0882  0.4915
  214MOL0     C29429   5.881   8.768   5.435  0.5015 -0.3907  0.3543
  214MOL0     O29430   5.809   8.886   5.436 -0.3543 -0.1028 -0.3885
  214MOL0     C29431   5.806   8.966   5.553  0.8226  0.5057 -0.3242
  214MOL0     C29432   5.788   9.119   5.522 -0.2795  0.6571 -0.7512
  214MOL0     C29433   5.733   9.194   5.644  0.3599 -0.0088 -1.4402
  214MOL0     C29434   5.582   9.192   5.652 -0.4379  0.2356 -0.0593
  214MOL0     C29435   5.527   9.228   5.792 -0.1633 -0.9406  0.2881
  214MOL0     C29436   5.374   9.234   5.792 -0.0515 -0.7206 -0.7370
  214MOL0     C29437   5.311   9.227   5.935  0.5075  0.1725  0.3153
  214MOL0     C29438   5.159   9.229   5.928 -0.9850 -0.3140 -1.0490
  214MOL0    Cl29439   5.102   9.064   5.879 -0.3418 -0.0578 -0.4076
  214MOL0     C29440   5.958   8.737   5.320  0.3915 -0.5123  0.2790
  214MOL0     C29441   6.022   8.608   5.309 -0.0292 -0.0102 -0.2466
  214MOL0     O29442   5.894   8.276   5.361 -0.3190 -0.1551  0.4967
  214MOL0     C29443   6.142   8.074   5.345 -0.5945  0.2430 -0.1962
  214MOL0     C29444   6.192   7.949   5.381  0.0580  0.4200 -0.9663
  214MOL0     N29445   6.324   7.244   5.519 -0.3785 -0.0842 -0.2663
  214MOL0     N29446   6.406   7.149   5.487 -0.6885 -0.2399  0.6753
  214MOL0     C29447   7.753   7.097   4.923  0.4301  1.7026  0.7685
  214MOL0     C29448   7.818   7.124   4.804  0.2521  0.4943  0.7257
  214MOL0     C29449   7.927   7.199   4.382  0.0378  0.0456  0.1924
  214MOL0     C29450   8.055   7.262   4.393 -0.2716 -1.1218  0.1422
  214MOL0     C29451   8.117   7.325   4.280  0.1546  0.1580  0.7530
  214MOL0     C29452   8.057   7.328   4.155  0.1534  0.8400  0.0703
  214MOL0     O29453   8.116   7.381   4.041  0.1616  0.5052 -0.6118
  214MOL0     C29454   8.233   7.458   4.068 -0.0277 -0.4304  1.1436
  214MOL0     C29455   8.308   7.484   3.932  0.2731  1.0572 -0.3886
  214MOL0     C29456   8.380   7.361   3.865 -0.5797 -0.0068  0.3671
  214MOL0     C29457   8.491   7.297   3.950 -0.0699  0.3022 -0.6139
  214MOL0     C29458   8.577   7.198   3.876 -0.1446  1.2376 -0.6888
  214MOL0     C29459   8.628   7.110   3.808 -0.5484 -0.4190  0.3329
  214MOL0     C29460   7.934   7.268   4.143 -0.2052  0.2065  0.5728
  214MOL0     C29461   7.864   7.210   4.259 -0.1838  0.1566 -0.1514
  214MOL0     C29462   7.729   7.153   4.230  0.7896 -0.2148  0.3047
  214MOL0     H29463   7.620   7.355   4.661 -0.8876 -0.1818  0.6650
  214MOL0     H29464   7.487   7.292   4.849  1.3473 -0.0856  1.2840
  214MOL0     H29465   7.415   7.244   5.045 -2.2243 -4.2338  0.1472
  214MOL0     H29466   7.541   7.280   5.186 -2.0706  0.5703  2.7019
  214MOL0     H29467   7.344   7.053   5.179 -1.2398  0.3484  1.2869
  214MOL0     H29468   7.455   7.111   5.301  1.1659 -2.8518 -3.0346
  214MOL0     H29469   7.317   7.258   5.392 -0.4992  0.9091  0.8593
  214MOL0     H29470   7.274   7.327   5.224 -1.5425 -0.7675 -1.2055
  214MOL0     H29471   7.115   7.123   5.208 -1.7270 -2.0882  0.4683
  214MOL0     H29472   7.170   7.074   5.374 -0.6602 -0.7708 -0.2549
  214MOL0     H29473   7.012   7.334   5.324 -0.0263  0.2965  0.6752
  214MOL0     H29474   7.060   7.258   5.476  1.2547  0.8778 -0.4287
  214MOL0     H29475   6.863   7.162   5.264 -4.0254  0.4135 -0.1385
  214MOL0     H29476   6.906   7.060   5.405 -2.8744 -0.3906  0.2820
  214MOL0     H29477   6.764   7.322   5.406 -1.9131 -0.6283  0.2249
  214MOL0     H29478   6.817   7.257   5.552  3.2474  1.9921 -2.0748
  214MOL0     H29479   6.638   7.123   5.333  1.4651 -0.1911 -0.2676
  214MOL0     H29480   6.670   7.043   5.485  1.8990  0.5845  0.9781
  214MOL0     H29481   6.605   7.366   5.630  0.4863  1.3640 -2.9027
  214MOL0     H29482   6.365   7.532   5.688 -0.1535  0.2178  1.8177
  214MOL0     H29483   6.257   7.400   5.736  1.7333  0.0970 -0.0702
  214MOL0     H29484   6.118   7.452   5.537 -0.1589 -1.1734 -0.9606
  214MOL0     H29485   6.135   7.601   5.624  0.8035  1.4433 -1.0674
  214MOL0     H29486   6.339   7.525   5.402  0.7259  0.2827  0.9442
  214MOL0     H29487   6.187   7.615   5.371  3.3103  0.8031 -5.1047
  214MOL0     H29488   6.442   7.692   5.530  1.4783 -0.4266 -0.7416
  214MOL0     H29489   6.385   7.782   5.392  1.9574 -0.4694  0.8235
  214MOL0     H29490   6.113   7.927   5.701  0.2622 -0.8687  0.1222
  214MOL0     H29491   6.051   8.260   5.719 -0.7144  0.1314 -0.7180
  214MOL0     H29492   5.941   8.129   5.761 -1.1036  0.2795  0.4521
  214MOL0     H29493   5.898   8.241   5.637 -0.9276 -0.6146  0.1678
  214MOL0     H29494   5.924   8.469   5.590  2.5132 -0.0132  0.6155
  214MOL0     H29495   5.772   8.675   5.594  0.1919 -0.3993  0.4141
  214MOL0     H29496   5.719   8.924   5.605  0.1384  1.0098 -1.0459
  214MOL0     H29497   5.894   8.957   5.618 -1.2731 -2.8226  2.4206
  214MOL0     H29498   5.881   9.172   5.499  0.2769 -0.3210 -0.8320
  214MOL0     H29499   5.724   9.128   5.435 -2.6746 -1.0879  0.7009
  214MOL0     H29500   5.756   9.301   5.641  0.3346  0.1284  1.0981
  214MOL0     H29501   5.790   9.154   5.729 -0.0270  1.0148 -0.6806
  214MOL0     H29502   5.559   9.090   5.620  1.9201 -0.7075  1.0164
  214MOL0     H29503   5.532   9.255   5.578 -2.0198 -0.1753  0.6068
  214MOL0     H29504   5.570   9.152   5.857  3.3627 -0.7276 -1.5697
  214MOL0     H29505   5.574   9.320   5.830  1.7663 -1.1621 -1.4176
  214MOL0     H29506   5.341   9.145   5.736 -0.8238 -0.6574 -0.3952
  214MOL0     H29507   5.335   9.321   5.739  1.8774  0.7804  0.2106
  214MOL0     H29508   5.354   9.309   5.993  1.5611  0.4120 -0.7500
  214MOL0     H29509   5.353   9.141   5.987  1.3454  1.1892  1.3950
  214MOL0     H29510   5.145   9.300   5.846  3.0649  0.0970 -1.5979
  214MOL0     H29511   5.110   9.267   6.019 -0.1427  0.9502 -1.0908
  214MOL0     H29512   5.994   8.816   5.255 -0.0800  1.8472  2.6979
  214MOL0     H29513   6.089   8.588   5.226  1.4981 -3.0815  1.5182
  214MOL0     H29514   6.147   8.117   5.246  0.6697  2.8835  0.9023
  214MOL0     H29515   6.254   7.905   5.303  0.0032 -0.5388 -0.4819
  214MOL0     H29516   7.799   7.023   4.988 -0.1656  0.7461  0.1428
  214MOL0     H29517   7.910   7.075   4.773 -1.2175 -0.5868 -2.4188
  214MOL0     H29518   8.114   7.271   4.484  0.5284 -2.3012 -0.2283
  214MOL0     H29519   8.219   7.348   4.309  0.3427 -0.8258  0.8899
  214MOL0     H29520   8.201   7.554   4.110  1.9960  0.3303  1.0468
  214MOL0     H29521   8.305   7.404   4.129  3.1497  0.5113 -1.4815
  214MOL0     H29522   8.368   7.576   3.931 -1.5115  2.2794 -1.6086
  214MOL0     H29523   8.224   7.499   3.864 -1.5312 -4.2101  0.1932
  214MOL0     H29524   8.308   7.281   3.844  1.5153 -1.8874 -0.0022
  214MOL0     H29525   8.413   7.391   3.765 -2.6103 -0.6474 -0.5482
  214MOL0     H29526   8.445   7.249   4.037  2.4860  0.0090  0.6730
  214MOL0     H29527   8.560   7.375   3.983  0.2059 -0.1191 -0.1730
  214MOL0     H29528   8.684   7.056   3.734 -1.4463  0.8074 -1.3072
  214MOL0     H29529   7.881   7.257   4.049  1.0652  0.4862 -0.2031
  214MOL0     H29530   7.651   7.184   4.301 -0.4552  1.1482 -1.5710
  214MOL0     H29531   7.687   7.183   4.134 -0.6671  0.9172  1.2653
  214MOL0     H29532   7.743   7.044   4.234  2.4337 -0.0477 -0.0474
  215MOL0     O29533   8.032   1.487  11.508 -0.3950  0.4897 -0.5159
  215MOL0     C29534   7.972   1.574  11.572 -0.9657  0.1706  0.5905
  215MOL0     O29535   8.005   1.704  11.573  0.2451 -0.0356 -0.1553
  215MOL0     C29536   8.090   1.749  11.477  0.0426 -0.0149 -1.0203
  215MOL0     C29537   8.224   1.788  11.513  0.1647  0.4191  0.8608
  215MOL0     C29538   8.305   1.833  11.410 -0.7056 -0.6456  0.1178
  215MOL0     C29539   8.266   1.835  11.275 -0.3098  0.7970  0.5324
  215MOL0     O29540   8.344   1.879  11.172 -0.0584  1.0638  0.4570
  215MOL0     C29541   8.473   1.936  11.202 -0.2334  0.6456  0.4627
  215MOL0     C29542   8.548   1.972  11.082 -0.3048 -0.5755  0.9049
  215MOL0     C29543   8.682   2.042  11.097  0.6695 -0.1871 -0.4704
  215MOL0     C29544   8.790   1.939  11.116  0.4858 -0.8664 -0.2535
  215MOL0     C29545   8.934   1.991  11.130 -0.4653  0.1465 -0.0068
  215MOL0     C29546   8.980   2.055  11.256  1.6501  0.4490 -0.3675
  215MOL0     C29547   9.107   2.144  11.254  0.4273  0.2348 -0.3687
  215MOL0     C29548   9.227   2.091  11.184 -0.4110  0.3567 -0.7733
  215MOL0     N29549   9.332   2.185  11.151 -0.0420 -0.4261  0.2461
  215MOL0     C29550   9.414   2.257  11.241 -0.3353 -0.1034  0.3669
  215MOL0     C29551   9.521   2.298  11.168 -0.3486 -0.3243  0.0334
  215MOL0     C29552   9.637   2.391  11.206  0.2622  0.4962 -0.5558
  215MOL0     C29553   9.739   2.420  11.091 -0.3321  0.3142  0.1002
  215MOL0     C29554   9.850   2.510  11.139 -0.6188  0.2403  0.5490
  215MOL0     C29555   9.936   2.454  11.248  0.0312  0.3141 -0.2177
  215MOL0     O29556   9.985   2.321  11.218 -0.2137  0.7080  0.1883
  215MOL0     C29557  10.021   2.239  11.315 -0.2054 -0.7389  0.8630
  215MOL0     C29558  10.043   2.269  11.447  0.2637  0.0915  0.0855
  215MOL0     C29559  10.086   2.180  11.544 -0.0116  0.1921 -0.8406
  215MOL0     C29560  10.094   2.223  11.689 -0.6944 -0.2303  0.3132
  215MOL0     C29561  10.100   2.047  11.511  0.1559  0.2312 -0.1758
  215MOL0     C29562  10.148   1.940  11.600 -0.4752  1.6251  0.6779
  215MOL0     O29563  10.240   1.850  11.540  0.3166 -0.1130  0.1005
  215MOL0     C29564  10.238   1.719  11.584  0.1197 -0.3394  0.4774
  215MOL0     C29565  10.217   1.637  11.480  0.0267  1.0803  0.0872
  215MOL0     C29566  10.216   1.496  11.503  1.1903 -0.8110 -0.7654
  215MOL0     C29567  10.229   1.443  11.638 -0.2767  0.4835 -0.0436
  215MOL0     O29568  10.221   1.302  11.651 -0.3090  0.1462 -0.9094
  215MOL0     C29569  10.268   1.241  11.773 -0.0734  0.1659  0.1312
  215MOL0     C29570  10.152   1.252  11.875 -0.8229 -0.1719  0.4902
  215MOL0     C29571  10.031   1.163  11.838  0.2272  0.0705  0.4542
  215MOL0     C29572   9.899   1.222  11.872  0.1368 -0.4390  0.1148
  215MOL0     C29573   9.789   1.114  11.873 -0.3924 -0.2846 -0.3390
  215MOL0     C29574   9.648   1.184  11.857 -0.1957  0.2738 -0.5965
  215MOL0     C29575   9.537   1.081  11.874  0.5992 -0.0095  0.2599
  215MOL0     C29576   9.511   1.009  11.737  0.3327 -0.4476 -0.3076
  215MOL0    Cl29577   9.380   0.891  11.758  0.0521  0.4773 -0.3287
  215MOL0     C29578  10.229   1.541  11.746 -0.1449  0.6164  0.2033
  215MOL0     C29579  10.240   1.676  11.714  0.0645  0.1847  0.2736
  215MOL0     O29580  10.101   1.934  11.714  0.0619  0.4366  0.0643
  215MOL0     C29581  10.064   2.005  11.374 -0.0707 -0.0101 -0.0649
  215MOL0     C29582  10.034   2.104  11.276 -0.1146  0.0716  0.3503
  215MOL0     N29583   9.506   2.259  11.042 -0.2280 -0.0490  0.8395
  215MOL0     N29584   9.392   2.193  11.028 -0.3103 -0.2992  0.7071
  215MOL0     C29585   8.128   1.810  11.245  0.1584 -0.3370  0.8682
  215MOL0     C29586   8.050   1.754  11.351  0.4327  0.5444  0.2436
  215MOL0     C29587   7.855   1.543  11.654 -0.0868  1.0841  0.0417
  215MOL0     C29588   7.837   1.614  11.773 -0.1019 -0.8373  0.4579
  215MOL0     C29589   7.718   1.596  11.847 -0.0955  0.3183 -0.5926
  215MOL0     C29590   7.628   1.489  11.819  0.0546 -0.4166  0.0319
  215MOL0     O29591   7.521   1.492  11.892  0.1883 -0.9861 -0.2556
  215MOL0     C29592   7.444   1.370  11.910 -0.8942  0.6781  0.5226
  215MOL0     C29593   7.313   1.391  11.975  0.9996 -0.4236 -0.8577
  215MOL0     C29594   7.221   1.469  11.891 -0.6845 -0.0224 -0.1228
  215MOL0     C29595   7.090   1.494  11.960 -0.6873  0.0332 -1.3216
  215MOL0     C29596   6.997   1.385  11.925  0.6949 -0.3125  0.0283
  215MOL0     C29597   6.915   1.306  11.890 -0.5492  0.6011  0.2917
  215MOL0     C29598   7.649   1.416  11.704 -0.2813 -0.1886  0.3012
  215MOL0     C29599   7.755   1.443  11.617 -0.1232 -0.7537 -0.5081
  215MOL0     C29600   7.746   1.392  11.474  0.7618 -0.3051  1.2909
  215MOL0     H29601   8.262   1.799  11.614  1.7096 -0.0760  0.3633
  215MOL0     H29602   8.403   1.869  11.442 -0.0911 -2.2141  0.1038
  215MOL0     H29603   8.536   1.869  11.260  0.9488  1.2475 -0.0864
  215MOL0     H29604   8.446   2.023  11.262 -4.9699 -0.8268  0.8502
  215MOL0     H29605   8.550   1.891  11.009  1.4612  0.2271 -0.0040
  215MOL0     H29606   8.484   2.050  11.041  2.1831  1.1583  0.1274
  215MOL0     H29607   8.694   2.092  11.000  1.6745 -1.8077 -1.2260
  215MOL0     H29608   8.689   2.118  11.176  0.8040 -2.4759  1.8323
  215MOL0     H29609   8.751   1.894  11.208 -0.7220  1.4674  0.4516
  215MOL0     H29610   8.784   1.877  11.026 -0.8271 -0.8750 -0.1710
  215MOL0     H29611   8.954   2.063  11.050  0.3395 -0.6101 -0.5088
  215MOL0     H29612   8.996   1.902  11.112  4.0076  3.5435 -4.4243
  215MOL0     H29613   8.899   2.121  11.288  1.1943 -1.9476  4.2938
  215MOL0     H29614   8.974   1.980  11.336 -1.9366 -0.0566 -0.9508
  215MOL0     H29615   9.143   2.162  11.356  0.5071  0.6442 -0.4636
  215MOL0     H29616   9.077   2.240  11.210  1.1718  0.8081  0.3395
  215MOL0     H29617   9.274   2.012  11.244  0.2344  0.3455 -1.2840
  215MOL0     H29618   9.188   2.052  11.090 -0.3092 -1.0827 -0.2426
  215MOL0     H29619   9.392   2.284  11.344 -0.5419  2.4933 -0.3074
  215MOL0     H29620   9.682   2.352  11.298 -1.2160  1.5307  0.6737
  215MOL0     H29621   9.587   2.488  11.219  1.2239  0.6372  3.5182
  215MOL0     H29622   9.794   2.334  11.053 -0.3616  0.4145 -0.1780
  215MOL0     H29623   9.683   2.474  11.013  1.9003  4.3843  1.0246
  215MOL0     H29624   9.914   2.525  11.052  1.2636 -2.5208  1.3239
  215MOL0     H29625   9.805   2.605  11.169 -1.7489 -0.3431  0.7455
  215MOL0     H29626  10.028   2.506  11.277  1.2798 -2.1481  0.5407
  215MOL0     H29627   9.884   2.445  11.344  1.2803  0.7997  0.5304
  215MOL0     H29628  10.030   2.373  11.476  1.4594  1.7987 -4.5370
  215MOL0     H29629  10.174   2.165  11.735  0.0038  1.8124  1.7899
  215MOL0     H29630   9.997   2.217  11.739 -2.0740 -0.4912 -2.1904
  215MOL0     H29631  10.129   2.326  11.686  3.0658 -1.2106  3.2695
  215MOL0     H29632  10.196   1.669  11.378 -0.2288 -3.1171 -1.3629
  215MOL0     H29633  10.204   1.428  11.419 -0.4983 -1.6380  0.1027
  215MOL0     H29634  10.294   1.136  11.754  3.5059  0.7259  1.1101
  215MOL0     H29635  10.358   1.280  11.822 -0.1160 -3.5234  3.7213
  215MOL0     H29636  10.187   1.208  11.969 -0.7759  1.0752  1.0782
  215MOL0     H29637  10.127   1.356  11.899  0.8333  0.7136 -1.3192
  215MOL0     H29638  10.034   1.062  11.880 -0.8756 -0.5936 -0.9805
  215MOL0     H29639  10.031   1.149  11.729  1.5680 -0.0344  0.4505
  215MOL0     H29640   9.876   1.306  11.806 -0.4098 -0.7840 -0.1315
  215MOL0     H29641   9.901   1.259  11.975  1.3311 -0.4526  0.1152
  215MOL0     H29642   9.814   1.043  11.794 -0.8134 -0.9544  0.1131
  215MOL0     H29643   9.795   1.060  11.968  0.3351  0.1520 -0.1284
  215MOL0     H29644   9.635   1.214  11.753 -0.2722  0.7189 -0.4585
  215MOL0     H29645   9.628   1.277  11.911  0.5509  1.2315 -1.9152
  215MOL0     H29646   9.446   1.128  11.912  2.6321  3.0744  1.7526
  215MOL0     H29647   9.560   1.004  11.948 -0.1647 -0.3999  0.0943
  215MOL0     H29648   9.594   0.946  11.703 -0.2412 -0.5218 -1.6270
  215MOL0     H29649   9.477   1.075  11.657 -0.7020 -0.0903  0.4188
  215MOL0     H29650  10.232   1.519  11.852 -3.1672  2.4499  0.7891
  215MOL0     H29651  10.246   1.747  11.796 -0.1520  2.3737 -1.4976
  215MOL0     H29652  10.071   1.902  11.340 -0.7117  0.2332 -0.9623
  215MOL0     H29653  10.015   2.060  11.178  0.5996 -0.3945  0.4112
  215MOL0     H29654   8.090   1.815  11.143 -1.8785  0.6064  1.6428
  215MOL0     H29655   7.954   1.713  11.321 -0.4532  0.9578  2.3370
  215MOL0     H29656   7.907   1.695  11.794 -1.7921  0.3408  1.9494
  215MOL0     H29657   7.694   1.656  11.934  0.0029 -0.7695  0.2177
  215MOL0     H29658   7.429   1.315  11.817 -0.5471  0.6023  0.5112
  215MOL0     H29659   7.504   1.314  11.982 -1.6362  1.7182  2.0318
  215MOL0     H29660   7.333   1.450  12.065  2.6176  4.3423 -3.9439
  215MOL0     H29661   7.271   1.298  12.014  0.8856 -0.7498 -1.7308
  215MOL0     H29662   7.269   1.565  11.868 -0.1651 -0.1045  0.5969
  215MOL0     H29663   7.193   1.407  11.805  1.2098 -1.4485  0.2183
  215MOL0     H29664   7.047   1.594  11.950 -0.7492  0.1622  0.0572
  215MOL0     H29665   7.107   1.492  12.068 -0.9561 -1.7733 -1.2939
  215MOL0     H29666   6.847   1.238  11.843  3.9342 -3.3517 -1.2852
  215MOL0     H29667   7.583   1.339  11.664  0.7634 -1.2760  0.5901
  215MOL0     H29668   7.717   1.465  11.398 -2.2832 -3.2233 -0.5827
  215MOL0     H29669   7.834   1.336  11.441 -0.6272 -1.4324 -0.7113
  215MOL0     H29670   7.667   1.316  11.473 -0.1918  0.6594  1.1487
  216MOL0     O29671  10.824   0.510   0.715  0.5048  0.0769  0.0484
  216MOL0     C29672  10.922   0.439   0.717  0.6947  0.9767 -0.2576
  216MOL0     O29673  10.932   0.328   0.802 -0.7053 -0.9272 -0.0705
  216MOL0     C29674  10.822   0.296   0.874  0.2862  0.0074  0.3109
  216MOL0     C29675  10.733   0.198   0.830  0.3302 -0.4660 -0.6809
  216MOL0     C29676  10.612   0.166   0.896 -0.7790  0.4022 -1.3363
  216MOL0     C29677  10.586   0.220   1.023  0.1220  0.2729  0.0351
  216MOL0     O29678  10.458   0.199   1.072 -0.2843  0.6930  0.7408
  216MOL0     C29679  10.433   0.262   1.199  0.5673  0.8168 -0.7491
  216MOL0     C29680  10.488   0.163   1.311  0.3749  0.1163 -0.5023
  216MOL0     C29681  10.452   0.220   1.450 -0.0362  0.0271 -0.3908
  216MOL0     C29682  10.559   0.196   1.553 -0.6072 -0.6849 -0.1512
  216MOL0     C29683  10.516   0.225   1.694 -0.2467 -0.4859 -0.4067
  216MOL0     C29684  10.632   0.186   1.779  0.7623 -0.2684 -0.3851
  216MOL0     C29685  10.609   0.221   1.926  0.9526  0.7360  0.8849
  216MOL0     C29686  10.492   0.144   1.998  0.2174  0.2785  0.3696
  216MOL0     N29687  10.526   0.005   2.022  0.7824 -0.6511  0.1236
  216MOL0     C29688  10.572  -0.040   2.148 -0.1224  0.1415 -0.1297
  216MOL0     C29689  10.621  -0.159   2.114 -0.1575  0.2329 -0.5155
  216MOL0     C29690  10.703  -0.252   2.201 -0.6240 -0.1643  0.1086
  216MOL0     C29691  10.767  -0.178   2.324 -0.3528  0.4801 -1.0185
  216MOL0     C29692  10.868  -0.072   2.292 -0.2163 -0.3533  0.5473
  216MOL0     C29693  10.875   0.019   2.413  0.4318 -0.2574 -0.0636
  216MOL0     O29694  10.764   0.105   2.409 -0.6384 -0.0184  0.7913
  216MOL0     C29695  10.766   0.220   2.323  0.2374  0.1801 -1.0683
  216MOL0     C29696  10.655   0.305   2.340 -0.2411 -0.4312 -0.0329
  216MOL0     C29697  10.660   0.423   2.267  0.1013  0.4874 -0.4707
  216MOL0     C29698  10.543   0.521   2.297  0.2758  0.3897  0.3448
  216MOL0     C29699  10.766   0.459   2.176  0.1604 -0.3015 -0.6607
  216MOL0     C29700  10.776   0.588   2.099  0.2779  0.5484 -0.6350
  216MOL0     O29701  10.699   0.695   2.133  0.0793 -0.0920  0.0646
  216MOL0     C29702  10.748   0.812   2.088 -0.5751 -0.7640  0.6599
  216MOL0     C29703  10.879   0.854   2.100 -0.5091  0.0283  0.1568
  216MOL0     C29704  10.924   0.979   2.055 -0.7888 -0.0232  0.4484
  216MOL0     C29705  10.834   1.074   1.992  0.0031  1.1920 -0.5661
  216MOL0     O29706  10.886   1.181   1.933  0.1203  1.1548  0.2750
  216MOL0     C29707  10.810   1.262   1.843 -0.0746  0.1576 -0.2220
  216MOL0     C29708  10.891   1.364   1.758 -0.3634  0.5528  0.6518
  216MOL0     C29709  10.838   1.366   1.611 -0.4419 -0.3970 -1.0607
  216MOL0     C29710  10.913   1.470   1.527 -0.3900 -0.6222 -0.5070
  216MOL0     C29711  10.880   1.478   1.375 -0.3326 -0.2276  0.0571
  216MOL0     C29712  10.964   1.595   1.310  0.4010 -0.2487  0.3126
  216MOL0     C29713  11.114   1.564   1.301  0.1876 -0.2500 -0.7783
  216MOL0     C29714  11.183   1.690   1.248 -0.2764  0.4782  0.2718
  216MOL0    Cl29715  11.147   1.716   1.071 -0.3700  0.0855  0.3990
  216MOL0     C29716  10.694   1.039   2.000 -0.4668  0.1885  1.3998
  216MOL0     C29717  10.655   0.914   2.045  0.0881 -0.3216  0.4676
  216MOL0     O29718  10.866   0.590   2.015 -0.0475 -0.1304 -0.1854
  216MOL0     C29719  10.877   0.379   2.173  0.2685 -0.4934 -0.0430
  216MOL0     C29720  10.877   0.259   2.245  0.0869 -0.0261  1.4174
  216MOL0     N29721  10.597  -0.186   1.987  0.1427  0.2695  0.1092
  216MOL0     N29722  10.543  -0.090   1.931  0.9493 -0.3796 -0.2935
  216MOL0     C29723  10.678   0.317   1.078 -1.1044  0.9388 -0.1346
  216MOL0     C29724  10.794   0.350   0.998 -0.2608 -0.3009  0.4331
  216MOL0     C29725  11.042   0.461   0.618 -0.1098 -0.8103  0.2755
  216MOL0     C29726  11.165   0.392   0.620  0.4746 -0.4597 -0.7787
  216MOL0     C29727  11.269   0.418   0.524  0.9036  0.2854 -0.5589
  216MOL0     C29728  11.238   0.516   0.430  0.2385 -0.2932  0.1777
  216MOL0     O29729  11.318   0.536   0.319  0.1517 -0.0630  0.2836
  216MOL0     C29730  11.433   0.450   0.291  0.4205 -0.7278 -0.0419
  216MOL0     C29731  11.561   0.500   0.348 -0.3421  0.7017  0.3045
  216MOL0     C29732  11.681   0.404   0.319  0.0446 -0.1625 -0.1755
  216MOL0     C29733  11.786   0.426   0.421 -0.0260 -0.3565 -0.2296
  216MOL0     C29734  11.911   0.362   0.371 -0.6143  0.7989 -0.3881
  216MOL0     C29735  12.013   0.306   0.332  0.4976  0.2076 -0.4541
  216MOL0     C29736  11.122   0.570   0.428 -0.5365 -1.3140  0.8392
  216MOL0     C29737  11.023   0.562   0.515 -0.0358  0.9188 -0.4849
  216MOL0     C29738  10.897   0.640   0.491  0.8209 -0.6412  0.6544
  216MOL0     H29739  10.751   0.130   0.748 -0.8704 -1.8433  0.1579
  216MOL0     H29740  10.549   0.086   0.858 -1.1573 -1.7152  3.0507
  216MOL0     H29741  10.325   0.281   1.203  0.8333  2.2919 -0.2879
  216MOL0     H29742  10.473   0.363   1.192  3.6669 -0.0853  1.6457
  216MOL0     H29743  10.437   0.067   1.298  1.0471  0.0543 -3.2884
  216MOL0     H29744  10.596   0.150   1.297  1.7215  7.3204 -0.7109
  216MOL0     H29745  10.431   0.327   1.443 -3.4270 -0.5257 -0.6621
  216MOL0     H29746  10.352   0.179   1.470  0.3668  0.0570  1.8514
  216MOL0     H29747  10.593   0.092   1.544  2.2923  0.1952 -0.2232
  216MOL0     H29748  10.638   0.269   1.533  0.2699 -1.0259  1.8485
  216MOL0     H29749  10.433   0.160   1.721 -0.2299 -0.2120  0.3219
  216MOL0     H29750  10.490   0.331   1.707 -0.0443 -0.5173  0.3259
  216MOL0     H29751  10.659   0.082   1.759  4.2231  0.2237  0.9363
  216MOL0     H29752  10.715   0.248   1.742 -0.6148  0.3089 -2.7001
  216MOL0     H29753  10.596   0.328   1.940 -1.7459  0.2173  3.0457
  216MOL0     H29754  10.697   0.187   1.982  0.6069 -0.2363  0.8564
  216MOL0     H29755  10.467   0.198   2.090  2.7279  2.7027 -0.2427
  216MOL0     H29756  10.400   0.154   1.939  1.0512  0.7462 -0.8766
  216MOL0     H29757  10.570   0.017   2.240 -1.4198 -1.0480  0.6138
  216MOL0     H29758  10.785  -0.285   2.137 -0.6844 -3.8771  1.6714
  216MOL0     H29759  10.648  -0.340   2.234 -0.1638  0.4164  2.7126
  216MOL0     H29760  10.690  -0.138   2.391 -2.0079 -4.0192  0.1182
  216MOL0     H29761  10.834  -0.241   2.384  2.3764  3.6179 -0.4797
  216MOL0     H29762  10.973  -0.102   2.281  0.5501  1.1625  3.0053
  216MOL0     H29763  10.828  -0.020   2.204  1.6905  2.7444  1.3418
  216MOL0     H29764  10.869  -0.034   2.509  0.5144 -3.6517 -1.7852
  216MOL0     H29765  10.970   0.074   2.422  0.7225 -0.9549  1.4019
  216MOL0     H29766  10.572   0.290   2.409  1.3593  1.8816  2.5788
  216MOL0     H29767  10.580   0.615   2.340  0.2067  0.0404  1.1965
  216MOL0     H29768  10.476   0.477   2.371  0.0378 -1.0998 -0.7249
  216MOL0     H29769  10.481   0.527   2.207  1.9107 -2.3998 -1.1156
  216MOL0     H29770  10.961   0.793   2.137 -2.8293 -1.9897  2.4096
  216MOL0     H29771  11.029   1.004   2.063 -0.8652  0.7554 -0.7744
  216MOL0     H29772  10.748   1.203   1.775  0.6106 -0.1418 -0.5874
  216MOL0     H29773  10.748   1.314   1.917 -0.7838 -3.5547  2.0783
  216MOL0     H29774  10.882   1.457   1.815 -0.3196  0.2108  1.2242
  216MOL0     H29775  10.998   1.338   1.755 -0.3909  0.2892  1.5800
  216MOL0     H29776  10.732   1.393   1.609 -0.2562  0.4240 -0.4321
  216MOL0     H29777  10.849   1.270   1.560  0.0759 -1.3576  0.8012
  216MOL0     H29778  11.020   1.468   1.546 -0.0775  0.4057 -1.9688
  216MOL0     H29779  10.868   1.565   1.557  2.5896  0.4941  0.8147
  216MOL0     H29780  10.905   1.387   1.320 -2.7307 -1.5787  1.0370
  216MOL0     H29781  10.773   1.498   1.362 -0.0483  1.9510  0.6710
  216MOL0     H29782  10.938   1.691   1.357 -0.6889  0.1018 -0.9473
  216MOL0     H29783  10.926   1.604   1.208  0.2943 -0.1386  0.3609
  216MOL0     H29784  11.124   1.484   1.228  0.0140 -1.1547  0.1621
  216MOL0     H29785  11.146   1.536   1.402 -2.7456  1.2537  0.6781
  216MOL0     H29786  11.292   1.687   1.259 -0.5095 -1.2737  2.9671
  216MOL0     H29787  11.139   1.782   1.289  0.7513 -0.1471  2.9396
  216MOL0     H29788  10.620   1.107   1.958 -0.0165 -1.5907 -2.7894
  216MOL0     H29789  10.548   0.901   2.031 -0.0829  2.1301 -1.1969
  216MOL0     H29790  10.966   0.414   2.121 -1.7381  1.3432 -2.4828
  216MOL0     H29791  10.969   0.200   2.243  0.8274  1.0434  2.8239
  216MOL0     H29792  10.668   0.364   1.175 -1.4434  1.3221 -0.3526
  216MOL0     H29793  10.859   0.428   1.036  1.4040 -2.4614  2.2997
  216MOL0     H29794  11.191   0.319   0.696 -0.0547  1.6144  1.5494
  216MOL0     H29795  11.369   0.377   0.531  1.4760  1.5854 -0.7113
  216MOL0     H29796  11.414   0.345   0.318  3.7501 -1.2363  0.8401
  216MOL0     H29797  11.449   0.435   0.183 -2.4514 -1.0133 -0.5032
  216MOL0     H29798  11.541   0.505   0.456  0.0222 -0.0569  0.4108
  216MOL0     H29799  11.591   0.599   0.313 -0.7231  0.2912 -1.2565
  216MOL0     H29800  11.651   0.299   0.319 -1.3678  0.2211 -0.3749
  216MOL0     H29801  11.723   0.427   0.220  2.9737  0.1439  1.0342
  216MOL0     H29802  11.741   0.396   0.516 -1.6083 -0.0561 -0.8446
  216MOL0     H29803  11.805   0.533   0.434  0.1836 -0.1740 -1.8259
  216MOL0     H29804  12.096   0.253   0.291  0.0778  0.6849 -1.9641
  216MOL0     H29805  11.109   0.632   0.341  1.8328 -2.5853 -0.5093
  216MOL0     H29806  10.875   0.704   0.577 -1.3877 -0.1830 -0.1834
  216MOL0     H29807  10.903   0.711   0.408 -0.8625 -1.7458 -0.4662
  216MOL0     H29808  10.813   0.572   0.476 -2.4830  3.1298  0.3024
  217MOL0     O29809   2.206   8.987  10.673  0.1538 -0.0383 -0.3978
  217MOL0     C29810   2.127   9.030  10.762  0.3997 -0.4383 -0.6226
  217MOL0     O29811   2.164   9.074  10.888 -0.4083 -0.4251 -0.4160
  217MOL0     C29812   2.306   9.091  10.896  0.2766 -0.1775 -0.8170
  217MOL0     C29813   2.395   8.985  10.920 -0.1160  0.9674  0.2052
  217MOL0     C29814   2.531   9.004  10.936  0.7943  0.7977  0.7684
  217MOL0     C29815   2.583   9.130  10.948 -0.1202 -0.2560  0.4143
  217MOL0     O29816   2.710   9.164  10.975  0.0195 -0.1653  0.2036
  217MOL0     C29817   2.817   9.074  10.977 -0.2051  0.0460 -0.2022
  217MOL0     C29818   2.944   9.146  10.920  0.6403 -0.2303 -0.3231
  217MOL0     C29819   3.021   9.253  11.012  0.0203 -0.0117  0.2718
  217MOL0     C29820   2.937   9.385  11.033 -0.5851 -0.2041  0.7494
  217MOL0     C29821   3.037   9.499  11.043 -0.9283 -0.0346  0.5040
  217MOL0     C29822   3.141   9.493  11.165 -0.6396  0.6065  0.2390
  217MOL0     C29823   3.227   9.620  11.156  0.4643  0.4238  0.3427
  217MOL0     C29824   3.357   9.604  11.235  0.4247 -1.0258  0.3499
  217MOL0     N29825   3.458   9.694  11.179  0.3436 -0.7805  0.1530
  217MOL0     C29826   3.451   9.837  11.193 -0.1494  0.4559  0.5806
  217MOL0     C29827   3.582   9.885  11.200 -0.7382  0.4075  0.0004
  217MOL0     C29828   3.620  10.028  11.198 -0.1415 -0.0952 -0.3770
  217MOL0     C29829   3.550  10.128  11.105 -0.2862 -0.0393 -0.1153
  217MOL0     C29830   3.518  10.068  10.965 -0.1540 -0.0205  1.3311
  217MOL0     C29831   3.638  10.030  10.885  0.3815 -0.4698  0.4512
  217MOL0     O29832   3.727  10.149  10.880 -0.9654 -0.0330 -0.8323
  217MOL0     C29833   3.861  10.133  10.870 -0.0387 -0.6922  1.1049
  217MOL0     C29834   3.942  10.169  10.976 -0.7536  0.1095 -0.5412
  217MOL0     C29835   4.083  10.182  10.968 -1.2320  0.0472 -0.5932
  217MOL0     C29836   4.161  10.214  11.091 -0.3848  0.4852  0.5380
  217MOL0     C29837   4.143  10.160  10.846 -0.1638 -0.6573  0.3852
  217MOL0     C29838   4.296  10.180  10.812  0.3500 -0.0868 -0.0574
  217MOL0     O29839   4.338  10.126  10.695 -0.0149  0.0589  0.6245
  217MOL0     C29840   4.473  10.101  10.660  0.4537  0.8259  0.3788
  217MOL0     C29841   4.505  10.092  10.526 -0.9729  0.3052  0.2805
  217MOL0     C29842   4.637  10.070  10.484 -0.3330  0.7239 -0.4023
  217MOL0     C29843   4.746  10.045  10.575  0.0643 -0.5054 -0.4284
  217MOL0     O29844   4.874  10.039  10.534 -0.5737 -0.1716 -0.7061
  217MOL0     C29845   4.905   9.982  10.412 -0.0342  0.1531 -0.6066
  217MOL0     C29846   5.046   9.911  10.412 -0.4119  0.6471 -0.6072
  217MOL0     C29847   5.157  10.012  10.387 -0.4629 -0.0936  0.5502
  217MOL0     C29848   5.299   9.941  10.412 -1.0569  0.5669 -0.3652
  217MOL0     C29849   5.416  10.027  10.363  0.3025  0.2040 -0.0691
  217MOL0     C29850   5.553   9.966  10.407 -1.3293  0.1039  0.1487
  217MOL0     C29851   5.672  10.052  10.386  0.3039 -0.0583  0.1607
  217MOL0     C29852   5.808   9.993  10.433  0.2507  0.3372 -0.0386
  217MOL0    Cl29853   5.853   9.850  10.327  0.4794  0.3144  0.3612
  217MOL0     C29854   4.713  10.042  10.714  0.5869 -0.2782  0.3366
  217MOL0     C29855   4.576  10.070  10.752  0.7207 -0.5681  0.5836
  217MOL0     O29856   4.366  10.238  10.889  0.2886 -0.1133 -0.9487
  217MOL0     C29857   4.062  10.122  10.737 -0.3191  1.1900  0.9733
  217MOL0     C29858   3.929  10.096  10.743  0.8674 -0.0621  0.3953
  217MOL0     N29859   3.659   9.767  11.219  0.0100  0.0411  0.0912
  217MOL0     N29860   3.588   9.663  11.213  0.2126 -0.6564  0.4868
  217MOL0     C29861   2.489   9.237  10.935 -1.0651 -0.2117 -0.7830
  217MOL0     C29862   2.358   9.223  10.902  0.6133 -0.0532 -0.0047
  217MOL0     C29863   1.987   9.034  10.725 -0.1841 -0.0567  0.3020
  217MOL0     C29864   1.947   8.982  10.595  0.3803  0.2814 -0.3195
  217MOL0     C29865   1.818   8.998  10.548  1.1531  0.7962  0.4341
  217MOL0     C29866   1.716   9.053  10.618 -0.3456 -1.6159 -0.1445
  217MOL0     O29867   1.595   9.059  10.551 -0.8110 -0.4361  0.9126
  217MOL0     C29868   1.478   9.123  10.625 -0.5835  0.5644 -0.3810
  217MOL0     C29869   1.355   9.158  10.536 -0.4022  0.0660 -0.0075
  217MOL0     C29870   1.405   9.239  10.415 -0.2756 -0.8838 -0.0740
  217MOL0     C29871   1.280   9.299  10.351  0.0223  0.0277 -1.0988
  217MOL0     C29872   1.230   9.417  10.415  0.1384  0.2815 -0.0287
  217MOL0     C29873   1.180   9.519  10.442 -0.2199  0.4819 -0.7419
  217MOL0     C29874   1.748   9.103  10.745 -0.1174  0.0858  1.0111
  217MOL0     C29875   1.876   9.088  10.799 -0.5921  0.3663 -0.4713
  217MOL0     C29876   1.896   9.133  10.941  0.3440 -0.6800 -0.4342
  217MOL0     H29877   2.363   8.882  10.910 -1.7279  1.2786  1.6410
  217MOL0     H29878   2.593   8.919  10.961  0.9575  0.6395 -0.1465
  217MOL0     H29879   2.790   8.984  10.921  0.8422 -1.0369  0.9698
  217MOL0     H29880   2.833   9.035  11.078 -1.4279 -2.9782 -1.0712
  217MOL0     H29881   3.024   9.073  10.907  0.8854 -0.0140 -0.0571
  217MOL0     H29882   2.916   9.186  10.822 -3.2969 -0.9007  0.3597
  217MOL0     H29883   3.029   9.202  11.109 -1.0465 -1.0671 -0.1664
  217MOL0     H29884   3.115   9.273  10.961  0.8147 -2.4631  0.6543
  217MOL0     H29885   2.857   9.401  10.960  0.9600  2.2738 -0.5527
  217MOL0     H29886   2.878   9.376  11.124  2.1967 -1.9473  2.5438
  217MOL0     H29887   2.986   9.595  11.053  0.9659  1.0685  0.0947
  217MOL0     H29888   3.092   9.493  10.948  0.0379 -1.6249  1.1115
  217MOL0     H29889   3.083   9.477  11.257  0.9104  1.2409  1.3734
  217MOL0     H29890   3.206   9.405  11.163  1.6222  2.2030 -0.9914
  217MOL0     H29891   3.155   9.699  11.180 -3.3047 -2.5229 -0.1380
  217MOL0     H29892   3.252   9.634  11.051  0.6548 -0.1220  0.3116
  217MOL0     H29893   3.335   9.627  11.340  0.2323 -0.9273  0.2895
  217MOL0     H29894   3.382   9.498  11.241  1.7584 -0.7043  0.7286
  217MOL0     H29895   3.364   9.900  11.177  0.8253  1.2952 -1.8794
  217MOL0     H29896   3.727  10.023  11.174 -0.2091  0.0095 -0.6960
  217MOL0     H29897   3.615  10.056  11.304  3.2442 -0.3391 -0.0266
  217MOL0     H29898   3.457  10.155  11.156 -0.4250  4.9035 -2.3914
  217MOL0     H29899   3.605  10.222  11.095  0.9799 -0.5622  1.5375
  217MOL0     H29900   3.442   9.992  10.987  0.1064 -0.4693  0.7060
  217MOL0     H29901   3.459  10.148  10.921 -2.2452 -0.7218  2.6810
  217MOL0     H29902   3.693   9.949  10.933  0.4265 -2.1075 -2.1560
  217MOL0     H29903   3.607   9.999  10.785 -1.3763  0.6114  0.6201
  217MOL0     H29904   3.898  10.192  11.073  1.4231 -1.0023  0.7814
  217MOL0     H29905   4.104  10.227  11.183  2.1686  3.6224  1.8843
  217MOL0     H29906   4.216  10.308  11.079 -0.4321  0.6413  1.4566
  217MOL0     H29907   4.229  10.131  11.114 -1.7391 -0.1334  2.5290
  217MOL0     H29908   4.441  10.104  10.439  2.5038  1.0102 -2.3733
  217MOL0     H29909   4.653  10.068  10.376 -1.6693 -1.5347 -0.6176
  217MOL0     H29910   4.831   9.903  10.395  1.6696 -1.5645 -0.3543
  217MOL0     H29911   4.899  10.052  10.328 -2.6876 -0.6800 -1.1875
  217MOL0     H29912   5.072   9.864  10.507  1.0307  1.3772 -0.6103
  217MOL0     H29913   5.046   9.829  10.341  1.2222 -1.1302  1.3286
  217MOL0     H29914   5.153  10.092  10.462  1.1349  0.0853  0.4759
  217MOL0     H29915   5.155  10.046  10.282 -0.8084 -0.3065  0.4857
  217MOL0     H29916   5.303   9.850  10.351 -5.6681  0.3551 -0.7758
  217MOL0     H29917   5.312   9.917  10.517  0.7281 -1.1030 -0.9267
  217MOL0     H29918   5.399  10.032  10.255 -0.8023  1.6099  0.1355
  217MOL0     H29919   5.409  10.129  10.401  1.1902  0.4192 -0.4734
  217MOL0     H29920   5.572   9.883  10.338  3.4762  1.7961 -0.9602
  217MOL0     H29921   5.555   9.927  10.510 -2.4470  2.6149  1.2109
  217MOL0     H29922   5.649  10.146  10.437  0.9393  0.0474  0.2618
  217MOL0     H29923   5.675  10.077  10.279  5.0027 -0.3426  0.0450
  217MOL0     H29924   5.808   9.967  10.539 -1.2276  2.6043  0.5895
  217MOL0     H29925   5.874  10.077  10.410 -0.5657  0.0586 -4.2499
  217MOL0     H29926   4.795  10.028  10.785  2.2920  1.6856 -1.1328
  217MOL0     H29927   4.548  10.077  10.856 -2.0875 -1.6615 -0.0074
  217MOL0     H29928   4.103  10.124  10.637 -1.3393  0.4040  0.5202
  217MOL0     H29929   3.882  10.079  10.647  2.5379  2.7357 -1.0745
  217MOL0     H29930   2.523   9.339  10.946  1.1573 -0.9744  0.0292
  217MOL0     H29931   2.279   9.298  10.903  0.2336 -0.3026  4.0045
  217MOL0     H29932   2.017   8.942  10.522 -1.9269  0.7165 -2.9366
  217MOL0     H29933   1.802   8.972  10.444  1.2357  2.1264  0.0689
  217MOL0     H29934   1.439   9.053  10.699 -1.1358  0.8434 -0.4020
  217MOL0     H29935   1.508   9.218  10.671 -0.2210 -0.6235  1.9447
  217MOL0     H29936   1.281   9.221  10.587  0.5689  0.7643  0.5700
  217MOL0     H29937   1.291   9.077  10.502  0.2349 -0.6757  0.5328
  217MOL0     H29938   1.469   9.320  10.451 -1.2219 -0.9229  1.7996
  217MOL0     H29939   1.471   9.184  10.348  2.4509  1.4827  0.4657
  217MOL0     H29940   1.200   9.224  10.351 -1.6557  1.6715  0.8375
  217MOL0     H29941   1.311   9.325  10.249  2.7021 -0.8610 -0.5826
  217MOL0     H29942   1.132   9.615  10.447 -2.1998 -0.5234  2.5023
  217MOL0     H29943   1.662   9.151  10.791 -2.7231 -2.4441 -0.8813
  217MOL0     H29944   1.961   9.221  10.939 -3.5551  2.5151 -3.0404
  217MOL0     H29945   1.806   9.160  10.996  1.5407  1.8068  0.4257
  217MOL0     H29946   1.936   9.047  10.995  2.0175 -1.3489 -2.5739
  218MOL0     O29947   6.992   0.399   1.951 -0.0176  0.3546 -1.2005
  218MOL0     C29948   6.958   0.517   1.945 -0.5275  0.6949  0.1426
  218MOL0     O29949   7.044   0.619   1.977  0.1659  0.1054  0.1673
  218MOL0     C29950   7.131   0.591   2.085 -0.6971 -1.1493  0.7773
  218MOL0     C29951   7.112   0.505   2.191 -0.5455  0.1698 -0.4675
  218MOL0     C29952   7.200   0.492   2.300 -0.3187  0.0971  0.1657
  218MOL0     C29953   7.326   0.553   2.296  0.1192 -1.0302  0.5879
  218MOL0     O29954   7.417   0.552   2.392 -0.6418 -0.1272  0.2560
  218MOL0     C29955   7.415   0.458   2.489 -0.1439 -0.0331 -0.6475
  218MOL0     C29956   7.524   0.482   2.588  0.1050  0.3919 -0.0839
  218MOL0     C29957   7.538   0.355   2.680 -0.2765 -1.2104  0.4675
  218MOL0     C29958   7.649   0.261   2.622  0.5606  0.6407 -0.8458
  218MOL0     C29959   7.674   0.137   2.712 -0.7305  0.2253 -0.7660
  218MOL0     C29960   7.663   0.165   2.864 -0.2074  0.2404  0.5489
  218MOL0     C29961   7.790   0.226   2.923 -0.7588 -0.5586  0.4943
  218MOL0     C29962   7.752   0.284   3.065 -0.5879  0.3435  0.0847
  218MOL0     N29963   7.696   0.423   3.062  0.1315 -0.2574  0.0026
  218MOL0     C29964   7.743   0.541   3.019 -0.3081 -0.2008 -0.6694
  218MOL0     C29965   7.631   0.626   3.024 -0.5255 -0.4903  0.5384
  218MOL0     C29966   7.635   0.770   2.988  0.0004  0.0263 -1.0306
  218MOL0     C29967   7.588   0.804   2.842  0.6821 -0.3920  0.2147
  218MOL0     C29968   7.438   0.781   2.821 -1.4794  0.2001 -0.4795
  218MOL0     C29969   7.360   0.865   2.921 -0.8120 -0.2007  0.3459
  218MOL0     O29970   7.223   0.857   2.875 -0.9403  0.7354  0.2548
  218MOL0     C29971   7.124   0.944   2.927 -0.3890  0.1925  1.7721
  218MOL0     C29972   7.164   1.044   3.013 -0.1283  0.2962  0.1069
  218MOL0     C29973   7.058   1.132   3.068 -0.3696  0.2708 -0.0880
  218MOL0     C29974   7.102   1.238   3.173  1.0491  0.1424  0.4146
  218MOL0     C29975   6.927   1.128   3.015 -0.7163 -0.2866 -0.1879
  218MOL0     C29976   6.812   1.216   3.065 -0.3361  0.2892  0.1778
  218MOL0     O29977   6.713   1.244   2.972 -0.3438  0.0517 -0.5991
  218MOL0     C29978   6.621   1.331   3.020 -0.3061 -0.3422  0.2201
  218MOL0     C29979   6.486   1.290   3.056 -0.2955 -0.0436 -0.4257
  218MOL0     C29980   6.387   1.380   3.090  0.9511  0.0441  1.0433
  218MOL0     C29981   6.411   1.521   3.080 -0.1795  0.8772 -0.1570
  218MOL0     O29982   6.304   1.601   3.106  0.2003  0.3999  0.0434
  218MOL0     C29983   6.321   1.743   3.121 -0.1324  0.1889 -0.0329
  218MOL0     C29984   6.188   1.800   3.173 -0.0169  0.5869  0.3460
  218MOL0     C29985   6.094   1.821   3.058  0.4896  0.8926  0.5263
  218MOL0     C29986   5.980   1.923   3.080  0.3985 -0.2898 -0.4596
  218MOL0     C29987   5.884   1.934   2.957 -0.0378  0.0208  1.2787
  218MOL0     C29988   5.770   2.036   2.976  0.5232  0.0540  0.0215
  218MOL0     C29989   5.677   2.046   2.844  0.5941 -0.3371 -0.8082
  218MOL0     C29990   5.697   2.164   2.752 -0.4624 -0.1197  0.4808
  218MOL0    Cl29991   5.865   2.177   2.691  0.2847 -0.0939  0.3316
  218MOL0     C29992   6.542   1.558   3.049  0.2825 -0.3567  0.5634
  218MOL0     C29993   6.642   1.474   3.010  0.5783  0.0928  1.1168
  218MOL0     O29994   6.812   1.252   3.183 -0.4290 -0.2716  0.4810
  218MOL0     C29995   6.906   1.026   2.912  0.4444  0.8649 -0.1628
  218MOL0     C29996   6.999   0.938   2.868 -0.0266  1.0988 -0.7173
  218MOL0     N29997   7.529   0.552   3.080  0.5161  0.0434  0.1110
  218MOL0     N29998   7.568   0.432   3.102  0.2448  0.0355 -0.7381
  218MOL0     C29999   7.355   0.638   2.177  0.5738  0.3574 -0.6537
  218MOL0     C30000   7.252   0.663   2.081 -0.6148  0.1646  0.0538
  218MOL0     C30001   6.827   0.554   1.863 -0.1333 -0.4574  0.1302
  218MOL0     C30002   6.805   0.679   1.812  1.4545  0.8141  0.2190
  218MOL0     C30003   6.692   0.730   1.756  0.0597  0.2228 -0.3317
  218MOL0     C30004   6.582   0.647   1.741  0.5453 -0.4148  0.2591
  218MOL0     O30005   6.475   0.704   1.682  0.6596 -1.0025  0.7979
  218MOL0     C30006   6.377   0.623   1.616 -0.2447 -0.8215  0.1871
  218MOL0     C30007   6.445   0.564   1.477  0.9235 -0.0632  0.7859
  218MOL0     C30008   6.337   0.536   1.372  1.0056 -0.5839 -0.3928
  218MOL0     C30009   6.256   0.415   1.407 -0.5058 -0.0999 -1.2061
  218MOL0     C30010   6.148   0.390   1.317 -0.2777  0.6803 -0.1286
  218MOL0     C30011   6.062   0.366   1.234  0.0247  0.2666  0.9518
  218MOL0     C30012   6.596   0.511   1.781  0.5633 -0.2869  0.0824
  218MOL0     C30013   6.710   0.464   1.851 -0.6448  0.0291  0.2609
  218MOL0     C30014   6.712   0.321   1.906 -1.6952  0.5059 -0.0645
  218MOL0     H30015   7.025   0.441   2.197  0.4457 -1.2878 -1.2115
  218MOL0     H30016   7.189   0.424   2.384  0.9442  0.8120  0.9573
  218MOL0     H30017   7.433   0.357   2.451  3.4310 -0.3999  1.4812
  218MOL0     H30018   7.324   0.462   2.550  0.2717  0.3605 -0.0313
  218MOL0     H30019   7.620   0.514   2.546 -0.8555  1.2452 -1.7671
  218MOL0     H30020   7.493   0.566   2.652  0.8073  0.3067  0.3684
  218MOL0     H30021   7.557   0.393   2.781  0.1019  1.6155 -0.5807
  218MOL0     H30022   7.440   0.306   2.685 -1.5045  0.9984 -0.4090
  218MOL0     H30023   7.626   0.230   2.520 -1.2141 -0.2263 -0.2234
  218MOL0     H30024   7.744   0.315   2.620  1.1222 -0.3119 -0.9237
  218MOL0     H30025   7.773   0.092   2.699 -0.1949 -0.1237  3.3213
  218MOL0     H30026   7.589   0.069   2.700 -2.1111  1.1192  2.7588
  218MOL0     H30027   7.567   0.210   2.888 -0.7212  1.1729 -2.7347
  218MOL0     H30028   7.667   0.065   2.907 -1.2969  0.8632  2.1633
  218MOL0     H30029   7.825   0.305   2.857  0.3619 -0.1859  1.5017
  218MOL0     H30030   7.873   0.159   2.946  1.0072  1.4549  0.2983
  218MOL0     H30031   7.679   0.218   3.114 -0.2906  1.0535  1.5582
  218MOL0     H30032   7.838   0.287   3.134 -1.9816  0.4829  1.8884
  218MOL0     H30033   7.840   0.572   2.981 -0.5660 -1.7006 -2.7431
  218MOL0     H30034   7.738   0.807   2.991  0.6001 -1.3321 -3.0149
  218MOL0     H30035   7.596   0.827   3.073  4.1140 -0.5733  1.5354
  218MOL0     H30036   7.616   0.906   2.815 -1.2689  0.1297 -0.0094
  218MOL0     H30037   7.640   0.744   2.768 -1.0733  0.8146 -2.1292
  218MOL0     H30038   7.407   0.793   2.717  0.3495 -0.2915 -1.1243
  218MOL0     H30039   7.423   0.677   2.850 -1.4864  0.2709 -0.2207
  218MOL0     H30040   7.358   0.826   3.024 -1.1413 -0.9162  0.0772
  218MOL0     H30041   7.403   0.965   2.925 -0.1457 -0.4161 -0.9635
  218MOL0     H30042   7.257   1.050   3.068  1.0303 -0.4430 -1.6793
  218MOL0     H30043   7.069   1.196   3.269 -0.9386 -0.1308 -0.3260
  218MOL0     H30044   7.046   1.330   3.157 -0.8277 -0.9474  0.2984
  218MOL0     H30045   7.209   1.253   3.161  1.0029 -0.2468 -0.6126
  218MOL0     H30046   6.475   1.184   3.080  0.4572  0.2352  1.2839
  218MOL0     H30047   6.285   1.357   3.119  0.8951 -2.4235 -0.8371
  218MOL0     H30048   6.390   1.760   3.205  0.5988  0.1755 -0.6193
  218MOL0     H30049   6.367   1.788   3.032 -0.2014 -0.4492 -0.3979
  218MOL0     H30050   6.149   1.737   3.254 -0.0996  1.8763  1.3406
  218MOL0     H30051   6.199   1.897   3.223 -3.1505  1.6516 -0.7891
  218MOL0     H30052   6.046   1.724   3.043  0.3270  0.9026  0.9712
  218MOL0     H30053   6.144   1.847   2.964 -1.2335 -0.0306 -0.7105
  218MOL0     H30054   6.019   2.025   3.089 -1.3009  0.5168 -1.5525
  218MOL0     H30055   5.921   1.895   3.168 -0.6652  4.7621  0.7475
  218MOL0     H30056   5.934   1.959   2.863 -0.1882 -2.2182  0.5300
  218MOL0     H30057   5.836   1.838   2.935 -2.1486  1.0333  1.2765
  218MOL0     H30058   5.817   2.129   3.008  0.9762  0.5313 -1.9260
  218MOL0     H30059   5.702   2.004   3.056  1.4101 -0.9571  0.4059
  218MOL0     H30060   5.574   2.030   2.877  1.3015  0.5446  2.1519
  218MOL0     H30061   5.725   1.964   2.790 -1.8763 -1.5093 -1.3491
  218MOL0     H30062   5.670   2.260   2.796 -0.3400  0.4027 -0.5491
  218MOL0     H30063   5.631   2.141   2.668  1.5994 -0.3592 -1.1581
  218MOL0     H30064   6.554   1.666   3.052 -1.5275 -0.1110  0.0749
  218MOL0     H30065   6.733   1.512   2.966 -1.0546  3.3300  0.2127
  218MOL0     H30066   6.807   0.998   2.878 -0.5286  0.2242  2.8766
  218MOL0     H30067   6.984   0.863   2.791  0.1416  0.3850 -0.0700
  218MOL0     H30068   7.449   0.691   2.168  0.8329  0.7924  3.1770
  218MOL0     H30069   7.270   0.734   2.001 -0.9673 -0.7746 -0.8765
  218MOL0     H30070   6.895   0.740   1.819  1.1184  1.3941 -0.4675
  218MOL0     H30071   6.695   0.832   1.719  1.8839  0.2970 -0.0417
  218MOL0     H30072   6.329   0.539   1.666 -1.5386 -0.9724 -1.2281
  218MOL0     H30073   6.296   0.693   1.593  2.0050  2.5876  1.7049
  218MOL0     H30074   6.487   0.464   1.490 -0.0560 -1.0017 -2.3933
  218MOL0     H30075   6.516   0.634   1.432 -1.3701  0.8494 -1.7033
  218MOL0     H30076   6.264   0.617   1.362 -0.7060 -2.1292 -0.9655
  218MOL0     H30077   6.387   0.526   1.275 -0.1751  0.8056 -1.1870
  218MOL0     H30078   6.222   0.424   1.511  3.0064  0.6638  0.0149
  218MOL0     H30079   6.328   0.333   1.412  0.8785  1.0898  3.3293
  218MOL0     H30080   5.995   0.348   1.151  2.8726 -0.3855 -1.3688
  218MOL0     H30081   6.505   0.455   1.766  1.3783 -1.7474  0.3972
  218MOL0     H30082   6.615   0.275   1.883 -1.5437 -0.2991  0.8465
  218MOL0     H30083   6.793   0.275   1.848 -0.6184  2.6652 -0.3859
  218MOL0     H30084   6.747   0.306   2.008 -0.2002 -0.3972 -0.6603
  219MOL0     O30085   7.160   9.030   0.770 -0.0712  0.3445  0.2136
  219MOL0     C30086   7.225   9.013   0.667  0.6582  0.3718  0.8811
  219MOL0     O30087   7.349   9.055   0.650  0.3376 -0.1616 -0.2153
  219MOL0     C30088   7.426   9.079   0.760  0.6057 -0.2299  0.2386
  219MOL0     C30089   7.412   9.194   0.838 -0.2473  0.0917 -1.3444
  219MOL0     C30090   7.488   9.227   0.949 -1.1834  0.3269  0.1804
  219MOL0     C30091   7.585   9.132   0.994  0.2245  0.1024 -0.1510
  219MOL0     O30092   7.650   9.129   1.114 -0.1919 -0.3585  0.1761
  219MOL0     C30093   7.644   9.253   1.181 -1.0425 -0.2292 -0.3752
  219MOL0     C30094   7.738   9.258   1.302 -0.3937  0.4174  1.3137
  219MOL0     C30095   7.747   9.397   1.373  0.1474 -0.6535  0.9620
  219MOL0     C30096   7.851   9.391   1.483 -0.9084 -0.8152  0.0450
  219MOL0     C30097   8.001   9.366   1.443 -0.9095 -0.5870  0.0020
  219MOL0     C30098   8.099   9.407   1.557  0.3572 -0.5248  0.2321
  219MOL0     C30099   8.235   9.430   1.488 -0.3156  0.2897 -0.0744
  219MOL0     C30100   8.346   9.464   1.589  0.7539  0.4504 -0.2055
  219MOL0     N30101   8.303   9.561   1.700  0.3538 -0.9608  0.9209
  219MOL0     C30102   8.226   9.530   1.801 -0.3982  0.3073 -0.0942
  219MOL0     C30103   8.180   9.646   1.854 -0.3460 -0.1054 -0.2055
  219MOL0     C30104   8.068   9.659   1.958 -0.8070 -0.0409  0.6517
  219MOL0     C30105   8.103   9.762   2.066 -0.0902  0.3074  0.2948
  219MOL0     C30106   8.003   9.761   2.188  0.1288  0.0421  0.4960
  219MOL0     C30107   7.859   9.801   2.141  0.0372 -0.2089  0.4056
  219MOL0     O30108   7.847   9.939   2.111 -0.2020  0.5027  1.0712
  219MOL0     C30109   7.727   9.982   2.070 -0.7480 -0.5660 -0.5813
  219MOL0     C30110   7.694  10.119   2.088  0.3935 -0.5736  0.3792
  219MOL0     C30111   7.584  10.183   2.048 -0.0124 -0.2313  0.4407
  219MOL0     C30112   7.577  10.326   2.061 -0.0635  0.6876  0.4678
  219MOL0     C30113   7.482  10.105   1.975  0.4180  0.1383  0.2564
  219MOL0     C30114   7.357  10.155   1.917  0.4156 -0.3905 -0.1956
  219MOL0     O30115   7.280  10.066   1.843  0.4953 -0.3534 -0.8055
  219MOL0     C30116   7.149  10.088   1.814  0.2619  0.4544 -0.1967
  219MOL0     C30117   7.056  10.115   1.914  0.2494  0.1937  0.8763
  219MOL0     C30118   6.920  10.110   1.887  1.0455  0.4784 -0.6420
  219MOL0     C30119   6.876  10.079   1.758  0.1692 -0.4411  0.3284
  219MOL0     O30120   6.746  10.065   1.722  0.0487  0.0934  0.7792
  219MOL0     C30121   6.656  10.175   1.760 -1.0382 -0.8079  0.5580
  219MOL0     C30122   6.693  10.295   1.670  0.9795  1.0495  0.3082
  219MOL0     C30123   6.677  10.249   1.514 -0.3504 -0.8833  0.4555
  219MOL0     C30124   6.530  10.211   1.463  0.0240  0.2826  0.0540
  219MOL0     C30125   6.458  10.339   1.424 -0.1202  0.1584 -0.0569
  219MOL0     C30126   6.338  10.322   1.329 -0.0269 -0.4933 -1.1496
  219MOL0     C30127   6.274  10.457   1.279 -0.1245  0.6349 -0.2144
  219MOL0     C30128   6.137  10.412   1.223  0.1498  0.7178  0.2242
  219MOL0    Cl30129   6.027  10.332   1.337  0.2948  0.2367  0.0964
  219MOL0     C30130   6.969  10.077   1.652  1.1792 -1.1324 -0.6365
  219MOL0     C30131   7.106  10.081   1.677 -0.2672  0.6124 -0.4350
  219MOL0     O30132   7.327  10.268   1.936  0.6725 -0.5271 -0.4316
  219MOL0     C30133   7.512   9.966   1.938 -0.1525 -1.0439  0.7841
  219MOL0     C30134   7.634   9.905   1.987 -0.6538  0.1746 -0.1796
  219MOL0     N30135   8.238   9.752   1.781 -0.2183  0.2216 -0.0037
  219MOL0     N30136   8.317   9.703   1.689  0.4917 -0.3238 -0.1234
  219MOL0     C30137   7.597   9.014   0.914  0.4978 -0.4799 -0.9033
  219MOL0     C30138   7.522   8.989   0.803  0.0548  1.4996  0.1507
  219MOL0     C30139   7.157   8.974   0.543 -0.7554  0.3002  0.1082
  219MOL0     C30140   7.210   9.014   0.423 -0.6623 -0.1818 -1.2069
  219MOL0     C30141   7.160   8.986   0.299  0.4849  0.7363 -0.0481
  219MOL0     C30142   7.030   8.928   0.283  0.2438 -0.7539  0.4714
  219MOL0     O30143   6.973   8.906   0.161  0.1418  0.3387 -0.3095
  219MOL0     C30144   6.830   8.909   0.145 -0.1068 -0.2063  0.0984
  219MOL0     C30145   6.803   8.893  -0.003  0.0286 -0.0992 -1.1985
  219MOL0     C30146   6.745   8.758  -0.037  0.0913 -1.0938  0.2477
  219MOL0     C30147   6.842   8.637  -0.019  0.3917 -0.2066  0.0074
  219MOL0     C30148   6.944   8.647  -0.127 -0.8429 -0.3592 -1.4157
  219MOL0     C30149   7.026   8.662  -0.216  0.6940 -0.0757 -1.0353
  219MOL0     C30150   6.976   8.878   0.401 -0.6257  0.5791 -0.8437
  219MOL0     C30151   7.036   8.897   0.524  0.0591  0.4203  0.4882
  219MOL0     C30152   6.970   8.839   0.642 -0.2893 -0.0975  0.8188
  219MOL0     H30153   7.329   9.256   0.807 -1.9928 -2.5547 -2.3516
  219MOL0     H30154   7.475   9.324   0.995  1.4355  1.6981 -1.6710
  219MOL0     H30155   7.543   9.278   1.215  0.1814  1.1894  2.5869
  219MOL0     H30156   7.682   9.333   1.118 -0.3242 -0.0371  0.2911
  219MOL0     H30157   7.701   9.180   1.369  1.3073 -2.4885 -0.8938
  219MOL0     H30158   7.840   9.232   1.273 -0.6988  1.9003 -1.3923
  219MOL0     H30159   7.767   9.479   1.304 -0.4086  1.5509  3.2732
  219MOL0     H30160   7.650   9.423   1.417  0.2222  1.2992  0.0638
  219MOL0     H30161   7.835   9.487   1.532 -0.4060 -1.3609  1.3322
  219MOL0     H30162   7.829   9.312   1.556  2.0676 -0.5023  1.4332
  219MOL0     H30163   8.018   9.433   1.358  1.4562  1.5472  1.9629
  219MOL0     H30164   8.022   9.266   1.403 -0.1707  0.6300 -2.9727
  219MOL0     H30165   8.061   9.499   1.603 -1.3759 -1.2166  0.2505
  219MOL0     H30166   8.096   9.324   1.628 -3.1259 -1.4085 -0.7624
  219MOL0     H30167   8.224   9.499   1.404 -0.4718 -0.9889 -1.1511
  219MOL0     H30168   8.270   9.344   1.429 -3.1216  1.7408 -4.3297
  219MOL0     H30169   8.389   9.374   1.633  2.7267  0.8658 -1.1557
  219MOL0     H30170   8.423   9.511   1.527  0.3041  4.0983  1.7379
  219MOL0     H30171   8.188   9.436   1.839  1.7663 -0.6741 -0.2077
  219MOL0     H30172   8.059   9.557   1.996  0.9310 -0.3524  0.2952
  219MOL0     H30173   7.970   9.666   1.909  0.0712 -1.4134 -1.4317
  219MOL0     H30174   8.201   9.741   2.109 -0.5018 -2.6143 -0.0154
  219MOL0     H30175   8.108   9.858   2.014 -1.2968  0.5616  0.6231
  219MOL0     H30176   8.005   9.660   2.228  0.7408 -0.8686 -1.6903
  219MOL0     H30177   8.034   9.826   2.271  2.8913 -3.2512  2.2729
  219MOL0     H30178   7.829   9.738   2.057  0.3491  0.3065 -0.1025
  219MOL0     H30179   7.790   9.773   2.221 -1.7755  0.1889 -0.9567
  219MOL0     H30180   7.767  10.185   2.135  0.8956 -1.8032  1.4321
  219MOL0     H30181   7.544  10.372   1.967  0.5752 -2.4443 -1.4475
  219MOL0     H30182   7.675  10.373   2.072  0.1500  0.5081 -0.5638
  219MOL0     H30183   7.513  10.361   2.142 -1.2430 -1.6456  0.6383
  219MOL0     H30184   7.097  10.123   2.014  2.6265  2.7833 -0.1776
  219MOL0     H30185   6.852  10.098   1.970  1.3925 -2.9265 -0.6900
  219MOL0     H30186   6.551  10.146   1.760 -1.1953 -0.2730  1.4535
  219MOL0     H30187   6.679  10.196   1.865  2.6428 -2.0696  0.1561
  219MOL0     H30188   6.621  10.372   1.699 -0.2259 -0.4130  1.3588
  219MOL0     H30189   6.794  10.336   1.674  1.0767  0.7769  0.7100
  219MOL0     H30190   6.739  10.163   1.490 -0.7676 -1.1031  0.1587
  219MOL0     H30191   6.718  10.328   1.450 -1.4055 -0.6608  0.0291
  219MOL0     H30192   6.487  10.154   1.546  2.3551 -0.0988  1.0729
  219MOL0     H30193   6.543  10.149   1.373  0.1123  0.2775  0.0707
  219MOL0     H30194   6.416  10.390   1.511 -2.3535 -1.7943  0.1087
  219MOL0     H30195   6.525  10.405   1.367 -0.0699  0.1849  0.0328
  219MOL0     H30196   6.266  10.257   1.379 -0.2715 -0.9426 -2.0678
  219MOL0     H30197   6.372  10.280   1.234 -0.2781  1.1300 -1.9937
  219MOL0     H30198   6.321  10.495   1.188 -2.9112  1.1987 -1.5301
  219MOL0     H30199   6.265  10.536   1.353  0.1780 -0.7094  1.3103
  219MOL0     H30200   6.139  10.340   1.140  1.3185  0.9200  0.0600
  219MOL0     H30201   6.100  10.509   1.189  0.1080  1.9704  3.4783
  219MOL0     H30202   6.938  10.064   1.549 -0.3209 -0.2428 -0.3404
  219MOL0     H30203   7.177  10.071   1.595  0.3020 -2.4591  0.3266
  219MOL0     H30204   7.452   9.925   1.857 -0.5741  1.4519 -0.2458
  219MOL0     H30205   7.668   9.805   1.961 -0.6240  0.2512 -0.4335
  219MOL0     H30206   7.664   8.937   0.947 -4.0979 -4.6332 -0.1126
  219MOL0     H30207   7.546   8.891   0.763  3.0554  2.1095  0.2535
  219MOL0     H30208   7.303   9.070   0.422 -0.2290 -0.7949  0.6586
  219MOL0     H30209   7.214   9.020   0.211  3.1872 -0.4168  1.0475
  219MOL0     H30210   6.777   8.831   0.198  0.8752 -1.2638 -0.4297
  219MOL0     H30211   6.797   9.005   0.185 -0.8287 -0.5421  0.3099
  219MOL0     H30212   6.899   8.903  -0.053  2.8633 -0.2987  3.5353
  219MOL0     H30213   6.725   8.967  -0.028  0.0261  0.8209  1.2297
  219MOL0     H30214   6.652   8.742   0.018  0.4250 -2.1323  0.5308
  219MOL0     H30215   6.713   8.760  -0.141  2.1487 -0.8295 -0.4178
  219MOL0     H30216   6.792   8.541  -0.038  0.1463  0.2566 -1.9381
  219MOL0     H30217   6.899   8.627   0.074  3.7369  1.3247 -1.6709
  219MOL0     H30218   7.091   8.673  -0.300  1.5391  0.0000 -0.3871
  219MOL0     H30219   6.876   8.836   0.393 -1.2707  1.6694  0.8368
  219MOL0     H30220   6.925   8.919   0.702  0.2687  2.1048 -1.5161
  219MOL0     H30221   6.898   8.766   0.605  0.6055 -0.5355 -0.0865
  219MOL0     H30222   7.048   8.788   0.699 -0.1208 -1.0887 -0.2689
  220MOL0     O30223   3.620   5.892  11.038 -0.8217 -0.5982 -0.4221
  220MOL0     C30224   3.669   5.892  11.151 -0.0970  0.4027 -0.4825
  220MOL0     O30225   3.790   5.837  11.180 -0.1379  0.1273  0.0100
  220MOL0     C30226   3.877   5.829  11.075  0.3292 -0.0687  1.2023
  220MOL0     C30227   3.875   5.729  10.972 -0.2630  0.3902  0.7236
  220MOL0     C30228   3.975   5.739  10.877 -0.8053  0.2482  0.0576
  220MOL0     C30229   4.076   5.834  10.876 -1.1022  0.5004  0.6180
  220MOL0     O30230   4.187   5.825  10.791  0.4880 -0.1679 -0.3743
  220MOL0     C30231   4.227   5.952  10.730  0.7284  0.2732 -0.2301
  220MOL0     C30232   4.198   5.955  10.578 -0.1350  0.1382 -0.3114
  220MOL0     C30233   4.329   5.912  10.497 -0.4388 -0.6326 -0.1976
  220MOL0     C30234   4.425   6.015  10.459 -0.3244 -1.0745  0.3159
  220MOL0     C30235   4.508   5.989  10.329  0.3649 -0.5380 -0.5119
  220MOL0     C30236   4.568   5.844  10.335 -0.2688  1.0286 -0.5164
  220MOL0     C30237   4.628   5.820  10.198  0.5264 -0.3168 -1.1333
  220MOL0     C30238   4.671   5.669  10.180  0.1503 -1.0068  0.3010
  220MOL0     N30239   4.698   5.638  10.036  0.2328  0.4983 -0.8281
  220MOL0     C30240   4.778   5.717   9.957  0.2430 -1.2790  0.2949
  220MOL0     C30241   4.790   5.661   9.842 -1.3066  0.9761  0.5745
  220MOL0     C30242   4.870   5.701   9.722 -0.2951  0.4905 -1.0467
  220MOL0     C30243   5.021   5.687   9.758 -0.5309 -0.3052  0.5404
  220MOL0     C30244   5.103   5.703   9.634 -0.5782  0.2850  0.2345
  220MOL0     C30245   5.250   5.663   9.664 -1.0068  0.2749 -0.3180
  220MOL0     O30246   5.264   5.522   9.681  0.1450  0.6486 -0.5510
  220MOL0     C30247   5.386   5.461   9.710 -0.2698 -0.4326 -0.1508
  220MOL0     C30248   5.394   5.324   9.742 -0.1468  0.7281  0.6753
  220MOL0     C30249   5.514   5.257   9.773 -0.6034 -0.5932  0.0717
  220MOL0     C30250   5.515   5.109   9.803  0.8462 -0.9574  0.0783
  220MOL0     C30251   5.631   5.332   9.779 -0.0878 -0.5557 -0.1471
  220MOL0     C30252   5.765   5.285   9.806 -0.5583  0.2801  0.1865
  220MOL0     O30253   5.857   5.382   9.819 -0.8259 -0.6365 -1.1003
  220MOL0     C30254   5.992   5.352   9.802 -0.2308 -0.2723 -0.9095
  220MOL0     C30255   6.083   5.344   9.916 -0.3087 -0.3255  0.1613
  220MOL0     C30256   6.227   5.332   9.898  0.3112 -0.0546  1.0949
  220MOL0     C30257   6.271   5.336   9.758 -0.6940  0.2158 -0.8608
  220MOL0     O30258   6.405   5.336   9.720  1.0630 -0.0893  0.2500
  220MOL0     C30259   6.510   5.327   9.820  0.5991  0.3462  0.0969
  220MOL0     C30260   6.650   5.377   9.761 -0.0328 -0.3483 -0.4240
  220MOL0     C30261   6.755   5.365   9.879  0.1616 -0.2640 -0.5746
  220MOL0     C30262   6.875   5.470   9.864 -0.4395  0.1247 -0.2535
  220MOL0     C30263   6.998   5.452   9.956 -0.4739 -0.0915  0.5761
  220MOL0     C30264   6.964   5.456  10.102 -0.0694  0.2708  0.9435
  220MOL0     C30265   7.090   5.444  10.189  0.4617 -0.6294  0.8574
  220MOL0     C30266   7.073   5.421  10.329  0.7290 -0.3452 -0.3350
  220MOL0    Cl30267   7.012   5.256  10.374 -0.3315  0.2170 -0.4142
  220MOL0     C30268   6.176   5.348   9.657  0.0245 -0.2339  0.2647
  220MOL0     C30269   6.037   5.339   9.671 -0.2715 -0.1047  0.5807
  220MOL0     O30270   5.790   5.166   9.813 -0.9838  0.1780  0.3998
  220MOL0     C30271   5.622   5.469   9.747  0.3558  0.0151 -0.8753
  220MOL0     C30272   5.504   5.534   9.718  0.6184 -0.0860 -0.7725
  220MOL0     N30273   4.724   5.540   9.851 -0.9113  0.9764 -0.1685
  220MOL0     N30274   4.669   5.528   9.961 -0.2013 -0.3902 -0.1982
  220MOL0     C30275   4.074   5.934  10.972  0.0499  0.7583 -0.6198
  220MOL0     C30276   3.981   5.932  11.077 -0.0550  0.7321 -0.3884
  220MOL0     C30277   3.588   5.936  11.272  0.2981  0.2041 -0.6280
  220MOL0     C30278   3.644   5.919  11.398  0.3741 -0.8049 -0.0407
  220MOL0     C30279   3.575   5.970  11.507  1.3148 -0.4674 -0.6001
  220MOL0     C30280   3.439   6.013  11.505  0.3984  0.1669  0.4025
  220MOL0     O30281   3.382   6.024  11.632  0.5593 -0.7604  0.1472
  220MOL0     C30282   3.247   6.059  11.635  0.2231  0.0783 -1.2494
  220MOL0     C30283   3.192   6.009  11.783  0.1238 -0.3222  0.9742
  220MOL0     C30284   3.049   6.072  11.805 -0.4028 -0.0943 -0.0213
  220MOL0     C30285   2.942   6.010  11.714 -0.0654 -0.1243 -0.6034
  220MOL0     C30286   2.916   5.862  11.737 -0.5553 -0.5895  0.0205
  220MOL0     C30287   2.912   5.744  11.761  0.3857  0.0492  0.2809
  220MOL0     C30288   3.381   6.033  11.376  0.0690  1.0291 -0.0875
  220MOL0     C30289   3.453   5.992  11.260  0.8299  0.1384  0.0216
  220MOL0     C30290   3.371   5.995  11.132 -0.4425  0.9377 -0.7763
  220MOL0     H30291   3.796   5.655  10.971  0.2113 -0.2386 -2.4447
  220MOL0     H30292   3.969   5.668  10.796 -1.2791  0.4849 -0.1184
  220MOL0     H30293   4.334   5.965  10.749  0.2971  1.3615  1.7793
  220MOL0     H30294   4.174   6.038  10.771  0.4067  1.0281 -2.1557
  220MOL0     H30295   4.108   5.897  10.555 -1.4749  1.4957  1.1963
  220MOL0     H30296   4.165   6.053  10.542  2.1879 -0.0438 -3.3097
  220MOL0     H30297   4.384   5.826  10.538  0.5325 -0.8893 -1.9251
  220MOL0     H30298   4.295   5.861  10.407  1.4128 -0.9177 -0.7935
  220MOL0     H30299   4.368   6.108  10.450 -0.2623 -1.0489  0.1910
  220MOL0     H30300   4.491   6.037  10.543  0.1265  0.1206 -0.3156
  220MOL0     H30301   4.593   6.057  10.323  0.4623 -0.5500  0.6483
  220MOL0     H30302   4.444   5.999  10.241  2.7209  2.2411 -2.0666
  220MOL0     H30303   4.657   5.831  10.398 -0.2890  0.0312 -0.6768
  220MOL0     H30304   4.502   5.764  10.367  2.0875 -0.1912  1.6548
  220MOL0     H30305   4.712   5.889  10.197 -1.9024  2.9365  0.2639
  220MOL0     H30306   4.551   5.854  10.127 -0.1014  1.6441  0.3937
  220MOL0     H30307   4.752   5.651  10.251  0.8360  0.2113 -0.1511
  220MOL0     H30308   4.596   5.607  10.230 -3.0774  1.6516 -0.8949
  220MOL0     H30309   4.821   5.813   9.986 -0.2182 -2.0511  4.0507
  220MOL0     H30310   4.849   5.801   9.685 -3.0349 -0.4701 -2.3759
  220MOL0     H30311   4.852   5.649   9.628  1.5045  1.0635 -1.7478
  220MOL0     H30312   5.058   5.761   9.829 -0.8938  0.8534 -0.4295
  220MOL0     H30313   5.038   5.586   9.796  1.4168  0.5083  1.9708
  220MOL0     H30314   5.070   5.640   9.551 -1.6426  0.3052  0.6380
  220MOL0     H30315   5.095   5.808   9.604 -2.8966 -0.4488 -2.0174
  220MOL0     H30316   5.314   5.696   9.581  0.9958  0.9374  1.3919
  220MOL0     H30317   5.304   5.712   9.745  2.1239 -0.4956 -1.7891
  220MOL0     H30318   5.302   5.267   9.735 -0.3351  0.5040  3.7208
  220MOL0     H30319   5.592   5.091   9.878  0.9601  0.9018  0.4432
  220MOL0     H30320   5.548   5.056   9.713  1.6024 -0.8644  0.2991
  220MOL0     H30321   5.421   5.080   9.851  1.7795 -1.5366  1.6518
  220MOL0     H30322   6.052   5.339  10.020 -0.2835  0.5083  0.2151
  220MOL0     H30323   6.298   5.328   9.980  3.3735  2.0808 -1.2363
  220MOL0     H30324   6.484   5.376   9.915 -3.4063 -2.5161  0.7503
  220MOL0     H30325   6.523   5.221   9.846 -1.4273  0.3644  1.4258
  220MOL0     H30326   6.686   5.322   9.673  1.0750 -0.4759  0.0877
  220MOL0     H30327   6.633   5.482   9.740 -4.1951 -0.0744  2.9648
  220MOL0     H30328   6.796   5.264   9.881  0.1430 -0.2720  1.2277
  220MOL0     H30329   6.701   5.369   9.974  0.0056 -1.4022 -0.6119
  220MOL0     H30330   6.821   5.561   9.889 -0.0790  0.3960 -0.4569
  220MOL0     H30331   6.915   5.477   9.762  0.6158 -1.3657  0.0091
  220MOL0     H30332   7.041   5.353   9.939 -0.3239 -0.2755  1.9247
  220MOL0     H30333   7.075   5.526   9.935 -2.0992  1.6856  0.5887
  220MOL0     H30334   6.890   5.378  10.124 -2.1326  1.9146  0.1281
  220MOL0     H30335   6.919   5.555  10.112 -0.4691  0.3896 -1.4113
  220MOL0     H30336   7.145   5.537  10.176  1.5174 -1.4268 -0.8548
  220MOL0     H30337   7.161   5.372  10.147  4.0402  1.8854  2.1281
  220MOL0     H30338   7.020   5.497  10.387  3.0169  1.9967 -1.1225
  220MOL0     H30339   7.170   5.433  10.378  0.5367  0.6165 -0.1774
  220MOL0     H30340   6.217   5.353   9.557  0.4835  0.2774  0.4723
  220MOL0     H30341   5.965   5.349   9.590 -3.2472  0.8871  3.1471
  220MOL0     H30342   5.705   5.539   9.759  0.8398 -0.2941 -2.2130
  220MOL0     H30343   5.512   5.642   9.707 -1.8172 -0.0513 -3.5825
  220MOL0     H30344   4.159   6.001  10.979 -0.1154  1.3287 -3.1055
  220MOL0     H30345   3.998   5.997  11.162  0.4963 -0.0937  0.1441
  220MOL0     H30346   3.741   5.876  11.425  0.9562  1.7170  2.2916
  220MOL0     H30347   3.622   5.959  11.604 -1.2477 -1.0352  0.6778
  220MOL0     H30348   3.224   6.163  11.609 -0.7835  0.2054  0.0663
  220MOL0     H30349   3.186   5.992  11.573  0.5712 -1.9805  0.5178
  220MOL0     H30350   3.259   6.057  11.856  0.2251  0.0024  0.6705
  220MOL0     H30351   3.192   5.901  11.803  1.3032 -0.5651 -0.1989
  220MOL0     H30352   3.018   6.058  11.909  1.0944  2.3983  0.8326
  220MOL0     H30353   3.049   6.181  11.806 -2.0837 -0.0320 -1.4994
  220MOL0     H30354   2.962   6.043  11.612  0.3752  3.1421  0.4174
  220MOL0     H30355   2.846   6.058  11.733 -0.6410  0.8801 -5.0760
  220MOL0     H30356   2.897   5.640  11.783 -1.2756 -0.0576 -1.0733
  220MOL0     H30357   3.274   6.050  11.371 -0.3772 -0.3151  2.7272
  220MOL0     H30358   3.352   5.892  11.100  0.2253 -0.0615  1.8038
  220MOL0     H30359   3.268   6.033  11.136 -1.0055 -0.6480  1.0274
  220MOL0     H30360   3.415   6.052  11.050 -2.1388 -1.7586 -3.7677
  221MOL0     O30361   5.813   8.039  10.480 -0.1090  0.4435  0.0577
  221MOL0     C30362   5.844   8.004  10.364  0.0650 -0.1448  0.0555
  221MOL0     O30363   5.871   7.878  10.327  0.7122 -0.0522 -0.1067
  221MOL0     C30364   5.898   7.767  10.405  0.7319 -0.2928  0.2432
  221MOL0     C30365   5.929   7.772  10.544 -0.3689 -0.3552 -0.8732
  221MOL0     C30366   5.956   7.653  10.614  0.1622  0.2965 -0.7423
  221MOL0     C30367   5.936   7.531  10.555 -0.0238 -0.0143 -0.1706
  221MOL0     O30368   5.962   7.427  10.638 -0.0026  0.2603 -1.3994
  221MOL0     C30369   5.953   7.290  10.597  0.1706 -0.0448  0.4124
  221MOL0     C30370   6.080   7.242  10.530 -0.1281 -0.2933  0.0201
  221MOL0     C30371   6.198   7.242  10.623  0.6344  0.1551  0.0739
  221MOL0     C30372   6.330   7.218  10.553 -0.1748  0.2268  0.4750
  221MOL0     C30373   6.445   7.205  10.664  0.4786 -1.1814 -0.3841
  221MOL0     C30374   6.574   7.185  10.586 -0.3649 -0.4703 -0.4077
  221MOL0     C30375   6.690   7.150  10.674  0.2549  0.1313 -0.5294
  221MOL0     C30376   6.817   7.101  10.595 -0.4539 -0.1080  0.5214
  221MOL0     N30377   6.939   7.090  10.668 -0.1117 -0.7142 -0.1007
  221MOL0     C30378   7.028   7.205  10.684 -0.1310  1.2152 -0.4522
  221MOL0     C30379   7.107   7.155  10.778 -0.8012  0.1748  0.0383
  221MOL0     C30380   7.226   7.220  10.838 -0.2445 -0.5047  0.0311
  221MOL0     C30381   7.218   7.215  10.995 -0.4037 -0.9969 -0.3986
  221MOL0     C30382   7.170   7.347  11.058 -0.8165 -0.3919  0.6666
  221MOL0     C30383   7.233   7.400  11.194 -1.1703  0.6279 -0.0362
  221MOL0     O30384   7.152   7.357  11.304  0.7839  0.4950 -0.1576
  221MOL0     C30385   7.199   7.363  11.436 -0.1867  0.5227  0.5803
  221MOL0     C30386   7.313   7.418  11.488 -0.3922 -0.3027  0.5700
  221MOL0     C30387   7.338   7.435  11.622 -0.1123 -0.5697 -0.4681
  221MOL0     C30388   7.460   7.510  11.679  0.3329  0.4303  0.3404
  221MOL0     C30389   7.245   7.376  11.717  0.5085 -0.3510  0.5205
  221MOL0     C30390   7.272   7.357  11.857  0.8868 -0.1761 -0.4998
  221MOL0     O30391   7.399   7.330  11.894  0.0726 -0.3149 -0.0267
  221MOL0     C30392   7.441   7.366  12.025 -0.3814  0.3276  0.7735
  221MOL0     C30393   7.382   7.321  12.137 -0.0370 -0.7737 -0.2004
  221MOL0     C30394   7.434   7.345  12.262  0.0340 -0.5567  1.1158
  221MOL0     C30395   7.544   7.432  12.266  0.4760  0.2904 -0.2224
  221MOL0     O30396   7.601   7.484  12.382 -0.0595  0.3707  0.7744
  221MOL0     C30397   7.626   7.387  12.483 -0.7496  0.2185 -0.0086
  221MOL0     C30398   7.691   7.448  12.611  0.3207  0.0635 -0.4051
  221MOL0     C30399   7.631   7.400  12.748  0.5262 -0.5054 -0.1770
  221MOL0     C30400   7.704   7.485  12.848  0.6426 -0.2584 -1.1224
  221MOL0     C30401   7.667   7.454  12.998  0.4614  0.2586  0.8799
  221MOL0     C30402   7.525   7.464  13.041  0.4118  0.5346 -0.2928
  221MOL0     C30403   7.509   7.436  13.193  0.0936  0.3234 -0.5843
  221MOL0     C30404   7.364   7.471  13.243  1.0373 -0.2493 -0.2138
  221MOL0    Cl30405   7.362   7.469  13.422  0.4382  0.2703  0.2663
  221MOL0     C30406   7.607   7.481  12.155  1.0187  0.8339  0.7511
  221MOL0     C30407   7.563   7.439  12.028  0.7883  0.3826 -0.1482
  221MOL0     O30408   7.170   7.371  11.926 -0.6176  0.0259 -0.1232
  221MOL0     C30409   7.137   7.297  11.667  0.6043  0.2724  0.8769
  221MOL0     C30410   7.117   7.304  11.526  1.0078 -0.0471 -0.0041
  221MOL0     N30411   7.059   7.032  10.814 -0.3183  0.5256  0.2104
  221MOL0     N30412   6.970   6.986  10.746 -0.1954 -0.1883  0.7854
  221MOL0     C30413   5.918   7.532  10.418  0.2280  0.4472 -0.2788
  221MOL0     C30414   5.898   7.646  10.343  1.0946 -0.4890  0.0062
  221MOL0     C30415   5.853   8.111  10.265 -0.0275 -0.1907  0.5700
  221MOL0     C30416   5.946   8.102  10.159 -0.8509  0.5629  0.2233
  221MOL0     C30417   5.956   8.194  10.061  1.1087 -0.1591  0.2416
  221MOL0     C30418   5.863   8.287  10.055 -0.3238  0.3776 -0.4499
  221MOL0     O30419   5.895   8.369   9.955  0.1244  0.0413  0.5760
  221MOL0     C30420   5.815   8.478   9.900 -0.7262 -0.3750  0.3507
  221MOL0     C30421   5.843   8.474   9.747 -0.2199 -1.0606 -0.1978
  221MOL0     C30422   5.802   8.599   9.677 -0.1197 -0.3129  0.2761
  221MOL0     C30423   5.837   8.590   9.524  0.4915 -0.1599  0.0500
  221MOL0     C30424   5.771   8.687   9.438  0.8894  0.4588  0.2335
  221MOL0     C30425   5.709   8.776   9.390  0.5707  0.1244  0.2217
  221MOL0     C30426   5.766   8.311  10.151  0.0902  1.0481  0.5585
  221MOL0     C30427   5.768   8.222  10.260  0.5065 -0.6179 -0.7884
  221MOL0     C30428   5.667   8.263  10.371 -0.7112 -0.6519 -0.3923
  221MOL0     H30429   5.940   7.869  10.592  2.2642 -0.6161 -0.7896
  221MOL0     H30430   5.979   7.670  10.719 -2.7041  2.7560 -0.3740
  221MOL0     H30431   5.866   7.272  10.533  0.5417  0.4529 -0.2413
  221MOL0     H30432   5.937   7.227  10.685 -2.6257 -0.9421 -0.6258
  221MOL0     H30433   6.058   7.138  10.505 -1.4267 -0.0591  0.1224
  221MOL0     H30434   6.103   7.293  10.437 -0.2614 -0.7383 -0.2595
  221MOL0     H30435   6.193   7.342  10.667 -4.3786  1.0956 -1.8903
  221MOL0     H30436   6.181   7.170  10.704 -1.2356 -1.7314 -1.8598
  221MOL0     H30437   6.324   7.124  10.497  1.9886 -1.2582  2.5075
  221MOL0     H30438   6.360   7.291  10.478  2.3740 -0.8234  0.3683
  221MOL0     H30439   6.440   7.116  10.727  0.6079 -0.3394  0.8576
  221MOL0     H30440   6.448   7.292  10.730 -1.2901  0.2822 -2.1231
  221MOL0     H30441   6.565   7.106  10.511  1.5822 -0.6047 -0.5364
  221MOL0     H30442   6.588   7.274  10.524 -1.9770 -1.4119 -2.2288
  221MOL0     H30443   6.656   7.070  10.741 -0.0146  2.3274  2.1130
  221MOL0     H30444   6.709   7.239  10.734  2.4369 -0.1302 -0.7263
  221MOL0     H30445   6.793   7.001  10.558  2.2975 -0.6037 -0.2002
  221MOL0     H30446   6.824   7.185  10.525 -4.7843  0.6298  0.7025
  221MOL0     H30447   7.026   7.298  10.628 -1.2806  0.5497 -1.5806
  221MOL0     H30448   7.234   7.318  10.790 -2.7653  0.7439  1.9390
  221MOL0     H30449   7.307   7.151  10.814  0.7398 -0.5144  3.0075
  221MOL0     H30450   7.142   7.139  11.013 -1.0070 -0.4949 -0.7886
  221MOL0     H30451   7.317   7.189  11.034 -0.7966 -0.5702  0.9264
  221MOL0     H30452   7.194   7.420  10.980 -0.3479  1.4076  2.4198
  221MOL0     H30453   7.062   7.338  11.073 -1.0977  2.3122  0.6310
  221MOL0     H30454   7.334   7.362  11.212 -1.3355 -0.0027 -0.4335
  221MOL0     H30455   7.237   7.509  11.205  0.6060  0.5224  0.6986
  221MOL0     H30456   7.394   7.458  11.427 -0.8076  1.3731  1.0675
  221MOL0     H30457   7.498   7.574  11.598 -2.2391 -1.5524 -2.6917
  221MOL0     H30458   7.544   7.441  11.691  2.0713  2.2643 -0.5409
  221MOL0     H30459   7.446   7.561  11.775 -1.2322  0.3130  0.1934
  221MOL0     H30460   7.283   7.275  12.143 -0.6079  0.4925  0.6045
  221MOL0     H30461   7.383   7.304  12.349  0.0710 -3.4941 -0.1124
  221MOL0     H30462   7.536   7.338  12.522 -1.0454 -0.2993 -1.2900
  221MOL0     H30463   7.696   7.310  12.448  0.8159  0.9045  1.4666
  221MOL0     H30464   7.799   7.441  12.601  0.0982 -0.6494 -3.1932
  221MOL0     H30465   7.675   7.556  12.604  1.5899  0.2303 -0.9578
  221MOL0     H30466   7.644   7.294  12.770 -0.6085 -0.5896  0.1489
  221MOL0     H30467   7.525   7.427  12.752  0.8445  0.8887 -0.6229
  221MOL0     H30468   7.676   7.588  12.824  2.0778  0.3229 -0.4096
  221MOL0     H30469   7.813   7.475  12.846  1.0048  2.7152 -0.1854
  221MOL0     H30470   7.699   7.350  13.010 -0.3480 -0.1021  0.0600
  221MOL0     H30471   7.736   7.514  13.058  0.1202  0.2827  1.2447
  221MOL0     H30472   7.458   7.391  12.996 -0.9026  0.9352  0.9477
  221MOL0     H30473   7.482   7.562  13.017  2.4085  0.7918 -3.4208
  221MOL0     H30474   7.585   7.493  13.248 -1.3749  0.7476  1.1170
  221MOL0     H30475   7.519   7.330  13.214 -0.0824  0.8820  3.1410
  221MOL0     H30476   7.293   7.400  13.201  0.8480  0.0198 -0.3545
  221MOL0     H30477   7.344   7.572  13.205  0.2308 -1.0695 -2.0597
  221MOL0     H30478   7.690   7.551  12.151  0.4327  1.5007 -0.7468
  221MOL0     H30479   7.615   7.474  11.940  1.6925 -2.5776 -0.9060
  221MOL0     H30480   7.067   7.242  11.730  0.0682 -0.0410  0.0183
  221MOL0     H30481   7.023   7.268  11.484  0.6171  3.2200 -2.2860
  221MOL0     H30482   5.918   7.435  10.368 -0.4865 -0.0075  0.5719
  221MOL0     H30483   5.870   7.647  10.239 -1.4377  1.7381  0.5932
  221MOL0     H30484   6.032   8.038  10.173  1.5787  4.1027  3.5891
  221MOL0     H30485   6.032   8.209   9.985 -3.2973  5.0890 -3.9325
  221MOL0     H30486   5.709   8.450   9.908  0.0651 -3.5517  0.9814
  221MOL0     H30487   5.830   8.580   9.938  0.1546 -0.2426 -0.3196
  221MOL0     H30488   5.784   8.391   9.708 -1.9494  0.0657 -0.0714
  221MOL0     H30489   5.951   8.457   9.737 -0.3609 -2.6489  0.6701
  221MOL0     H30490   5.694   8.609   9.693 -0.0480  1.9781 -0.3969
  221MOL0     H30491   5.858   8.685   9.714 -0.4961  0.5806 -1.1520
  221MOL0     H30492   5.826   8.489   9.482 -2.7573  0.9789 -2.2153
  221MOL0     H30493   5.945   8.608   9.518 -0.0087  2.7353 -2.2601
  221MOL0     H30494   5.657   8.866   9.364  0.6400 -0.2828 -1.3965
  221MOL0     H30495   5.699   8.394  10.132  2.0580  2.7562  0.8127
  221MOL0     H30496   5.705   8.252  10.473  1.3213  1.4852 -0.8217
  221MOL0     H30497   5.638   8.367  10.354  0.1604 -0.1807  0.8891
  221MOL0     H30498   5.576   8.203  10.363 -0.6919 -0.9332  1.2313
  222MOL0     O30499  10.689   3.971  11.344  0.4545  0.2156 -0.2058
  222MOL0     C30500  10.704   4.088  11.385 -0.1694  0.5488 -0.5926
  222MOL0     O30501  10.776   4.184  11.314 -0.0489  0.5868 -0.3346
  222MOL0     C30502  10.810   4.165  11.181 -0.2266 -0.8221  0.3071
  222MOL0     C30503  10.743   4.077  11.093  0.9625  0.0733  1.0008
  222MOL0     C30504  10.792   4.068  10.965 -0.0725  0.5726 -0.2182
  222MOL0     C30505  10.899   4.143  10.911  0.0160  0.7516  1.2532
  222MOL0     O30506  10.918   4.118  10.778  0.1167  0.0947 -0.4141
  222MOL0     C30507  10.970   4.222  10.692  0.8988 -0.1547  0.7056
  222MOL0     C30508  11.000   4.138  10.570 -0.2992  0.2538  0.1833
  222MOL0     C30509  10.865   4.085  10.516 -0.7060  0.0111 -0.3623
  222MOL0     C30510  10.901   3.976  10.420 -0.4221 -0.2742  0.3463
  222MOL0     C30511  10.781   3.900  10.351 -0.2883  0.2496  0.0898
  222MOL0     C30512  10.827   3.767  10.308  0.0564 -0.0114 -0.4207
  222MOL0     C30513  10.709   3.710  10.223  0.8317  0.3827 -0.2312
  222MOL0     C30514  10.741   3.570  10.160 -0.0154 -0.9322 -0.4122
  222MOL0     N30515  10.796   3.480  10.256  0.0892  0.4893  0.2340
  222MOL0     C30516  10.928   3.482  10.307 -0.9064  0.2840 -0.3208
  222MOL0     C30517  10.943   3.355  10.349 -0.3697  0.0620  0.4132
  222MOL0     C30518  11.060   3.314  10.426  0.7692  0.2351  0.1732
  222MOL0     C30519  11.118   3.185  10.353 -0.1401 -0.6173  0.3887
  222MOL0     C30520  11.249   3.136  10.424  0.0434 -0.0474 -0.4682
  222MOL0     C30521  11.298   3.007  10.367  1.1630 -0.0194 -0.0918
  222MOL0     O30522  11.419   2.966  10.424 -0.0628  0.1678 -0.5580
  222MOL0     C30523  11.473   2.847  10.393 -0.0898  0.1250 -0.1906
  222MOL0     C30524  11.606   2.838  10.406  0.8241 -0.8824 -0.2867
  222MOL0     C30525  11.671   2.719  10.410  0.6228 -0.5878  0.0220
  222MOL0     C30526  11.819   2.740  10.428  0.1960  0.3011  0.1171
  222MOL0     C30527  11.602   2.597  10.404  0.4707 -0.3162  0.8138
  222MOL0     C30528  11.667   2.459  10.437 -0.1523 -1.1774  0.8559
  222MOL0     O30529  11.605   2.349  10.388 -0.0053 -0.5219  0.1207
  222MOL0     C30530  11.680   2.237  10.363 -0.7801 -0.4252  0.3919
  222MOL0     C30531  11.659   2.179  10.242 -0.2913 -0.1992  0.3238
  222MOL0     C30532  11.726   2.064  10.198 -0.3932 -0.6309 -0.2590
  222MOL0     C30533  11.829   2.009  10.277  0.6589 -0.0943 -0.0028
  222MOL0     O30534  11.898   1.908  10.231 -0.3481 -0.4511 -0.1290
  222MOL0     C30535  11.839   1.784  10.271  0.3410  0.0688 -0.0683
  222MOL0     C30536  11.863   1.674  10.165  0.4310 -0.3724  0.2899
  222MOL0     C30537  12.017   1.655  10.148  0.1800 -0.3386 -0.9811
  222MOL0     C30538  12.079   1.582  10.279  0.3706 -0.7850 -0.4532
  222MOL0     C30539  12.011   1.449  10.338  0.1803 -0.7590 -0.2789
  222MOL0     C30540  12.011   1.336  10.237 -0.0805 -0.0862  0.2183
  222MOL0     C30541  11.936   1.210  10.285 -0.2428  0.6180  0.2081
  222MOL0     C30542  11.791   1.225  10.328  0.0557  0.6120  0.8809
  222MOL0    Cl30543  11.729   1.085  10.415 -0.2742 -0.5920 -0.0684
  222MOL0     C30544  11.856   2.058  10.404  0.1371  0.0860 -0.4157
  222MOL0     C30545  11.772   2.166  10.447  0.9100  0.8317 -0.9864
  222MOL0     O30546  11.776   2.457  10.499  0.0428  0.4370  0.5871
  222MOL0     C30547  11.470   2.610  10.372  0.0914  0.2523  0.0341
  222MOL0     C30548  11.403   2.731  10.371  0.0402  0.9387  0.5129
  222MOL0     N30549  10.826   3.282  10.328 -0.6736  0.2006 -0.0176
  222MOL0     N30550  10.731   3.365  10.289 -0.1717  0.1781  0.7665
  222MOL0     C30551  10.976   4.218  11.001  0.1156 -0.2421 -0.4950
  222MOL0     C30552  10.927   4.231  11.129 -0.4682 -0.8803 -0.5415
  222MOL0     C30553  10.636   4.129  11.509  0.1524 -0.6096 -0.0379
  222MOL0     C30554  10.578   4.034  11.591 -0.0061  0.7770  0.3674
  222MOL0     C30555  10.511   4.074  11.709 -0.0133  1.0095  1.0611
  222MOL0     C30556  10.514   4.204  11.757  0.1608 -0.2101 -0.0823
  222MOL0     O30557  10.425   4.227  11.865 -0.3392 -0.2517 -0.0704
  222MOL0     C30558  10.439   4.342  11.941 -0.0278 -0.5566 -0.8301
  222MOL0     C30559  10.361   4.341  12.078 -1.1084  0.2492 -0.6956
  222MOL0     C30560  10.210   4.333  12.054 -0.4743  0.1030  0.0558
  222MOL0     C30561  10.129   4.367  12.183  0.3255  0.5147  0.1040
  222MOL0     C30562   9.985   4.376  12.164  0.3946 -0.6683  0.0339
  222MOL0     C30563   9.871   4.401  12.137  0.2581  0.5013  0.6154
  222MOL0     C30564  10.575   4.293  11.675 -0.1037 -0.9849 -0.4339
  222MOL0     C30565  10.625   4.263  11.552  0.0055  1.2867 -0.3627
  222MOL0     C30566  10.679   4.381  11.476 -0.4485  0.1799  0.5711
  222MOL0     H30567  10.654   4.021  11.118 -1.0680  1.9782 -1.3702
  222MOL0     H30568  10.748   3.997  10.895  0.7469 -0.0535 -0.1283
  222MOL0     H30569  11.064   4.259  10.734  1.2630 -1.6188  1.2476
  222MOL0     H30570  10.905   4.307  10.669  1.9759  0.7107  0.8385
  222MOL0     H30571  11.044   4.201  10.492  0.6054  0.9879  1.2597
  222MOL0     H30572  11.074   4.065  10.603  0.5973  2.2795  3.0137
  222MOL0     H30573  10.809   4.037  10.596  0.4950 -1.4404 -0.3517
  222MOL0     H30574  10.814   4.175  10.479 -1.8625  0.2701  1.7466
  222MOL0     H30575  10.968   4.028  10.351 -0.4651  2.0342  1.9285
  222MOL0     H30576  10.946   3.903  10.489 -2.1751 -1.6946  0.0550
  222MOL0     H30577  10.736   3.966  10.276 -3.6275 -0.9797  0.8315
  222MOL0     H30578  10.715   3.876  10.434 -0.0956  1.2027  0.5327
  222MOL0     H30579  10.916   3.787  10.248 -0.8822  3.6591 -0.7996
  222MOL0     H30580  10.844   3.698  10.391 -0.1190 -0.9514 -1.1434
  222MOL0     H30581  10.686   3.778  10.141  1.6523  1.5490  0.4697
  222MOL0     H30582  10.621   3.705  10.287  1.7509 -2.6777  0.9964
  222MOL0     H30583  10.649   3.526  10.122 -0.3629 -1.1369  0.6392
  222MOL0     H30584  10.810   3.584  10.076 -0.8433  0.4294 -0.8933
  222MOL0     H30585  11.006   3.558  10.310 -1.1539  0.5186  0.4286
  222MOL0     H30586  11.038   3.291  10.530  0.2371 -0.6967 -0.1337
  222MOL0     H30587  11.135   3.393  10.418  1.4896 -0.5503 -1.1634
  222MOL0     H30588  11.048   3.102  10.354 -1.4414  0.4536  0.7687
  222MOL0     H30589  11.147   3.210  10.251  0.9253  2.6116  1.3464
  222MOL0     H30590  11.326   3.210  10.397  0.2062  0.2470  0.7729
  222MOL0     H30591  11.250   3.131  10.533  1.6974  1.3036 -0.3672
  222MOL0     H30592  11.209   2.946  10.384 -0.0327  0.9771 -2.2461
  222MOL0     H30593  11.320   3.015  10.260  1.3591  0.5108 -0.0131
  222MOL0     H30594  11.669   2.926  10.415  1.7562 -1.5256 -0.3307
  222MOL0     H30595  11.858   2.834  10.389  3.3726 -0.2287  1.7120
  222MOL0     H30596  11.865   2.660  10.370 -0.5151 -0.4041  0.5008
  222MOL0     H30597  11.835   2.723  10.535 -4.8258  0.2208  1.1031
  222MOL0     H30598  11.603   2.228  10.163  0.6009  2.7537  1.3762
  222MOL0     H30599  11.697   2.014  10.106 -1.1905 -2.6118  0.9782
  222MOL0     H30600  11.885   1.754  10.366  1.9281 -0.1454 -0.8817
  222MOL0     H30601  11.733   1.797  10.294  0.0711  0.2513 -1.3669
  222MOL0     H30602  11.823   1.578  10.199  1.5352  0.0885  3.1237
  222MOL0     H30603  11.813   1.699  10.070  0.7395 -1.0155 -0.0490
  222MOL0     H30604  12.073   1.746  10.123 -2.6705  1.8545  0.1732
  222MOL0     H30605  12.024   1.585  10.063  0.7925  0.7002 -1.8125
  222MOL0     H30606  12.089   1.645  10.367 -0.6246 -2.9554  1.3086
  222MOL0     H30607  12.182   1.558  10.250  0.3716  0.4261 -1.5507
  222MOL0     H30608  12.044   1.411  10.435 -1.4487  1.1596  1.1011
  222MOL0     H30609  11.906   1.474  10.355  0.1634 -0.8064 -0.3123
  222MOL0     H30610  12.117   1.317  10.220 -0.0668 -0.4669  0.7022
  222MOL0     H30611  11.961   1.368  10.145 -0.7033  1.3204  1.0097
  222MOL0     H30612  12.000   1.160  10.358  0.6322  1.0235 -0.2575
  222MOL0     H30613  11.939   1.138  10.202 -4.6618 -0.4220  0.7291
  222MOL0     H30614  11.730   1.245  10.240  1.7912 -0.3343 -0.5870
  222MOL0     H30615  11.768   1.310  10.394 -1.6975  1.1737 -0.3985
  222MOL0     H30616  11.935   2.015  10.464 -1.0822 -0.4466  0.8689
  222MOL0     H30617  11.789   2.213  10.544 -3.2716  3.2732 -1.1731
  222MOL0     H30618  11.410   2.526  10.338  0.5992  0.8002 -2.4293
  222MOL0     H30619  11.297   2.730  10.347  0.2649  5.0426 -1.5711
  222MOL0     H30620  11.065   4.265  10.960  0.9455 -3.3319 -2.5399
  222MOL0     H30621  10.979   4.290  11.204 -0.1841 -0.3052 -1.1837
  222MOL0     H30622  10.584   3.929  11.568  1.4757  0.9949 -0.3752
  222MOL0     H30623  10.466   3.999  11.773 -1.7900 -0.3691 -1.6656
  222MOL0     H30624  10.545   4.341  11.967 -0.2409 -2.2007  0.1418
  222MOL0     H30625  10.410   4.433  11.887 -0.8701 -0.8900 -0.9556
  222MOL0     H30626  10.401   4.429  12.130 -2.6705  0.1144  0.7952
  222MOL0     H30627  10.391   4.256  12.139 -1.9779  1.3538  1.3896
  222MOL0     H30628  10.176   4.403  11.977 -1.6617 -1.7260 -1.1730
  222MOL0     H30629  10.183   4.236  12.012 -0.2447  0.5681 -1.2045
  222MOL0     H30630  10.164   4.457  12.234  2.2146  0.1756 -0.5324
  222MOL0     H30631  10.125   4.287  12.257  0.4079  1.0712  0.7194
  222MOL0     H30632   9.770   4.422  12.110  0.0317 -0.8741  0.3629
  222MOL0     H30633  10.554   4.398  11.697  3.0441 -0.6100  1.2455
  222MOL0     H30634  10.783   4.371  11.444 -0.8579  0.8047 -1.0719
  222MOL0     H30635  10.616   4.400  11.388  0.9630 -2.0159 -1.0114
  222MOL0     H30636  10.683   4.475  11.532  0.8146 -0.6287  1.8972
  223MOL0     O30637   2.285  10.848  10.129  0.1884  0.0256 -0.9749
  223MOL0     C30638   2.352  10.905  10.214  0.4198  0.1686  0.8969
  223MOL0     O30639   2.309  11.027  10.273 -0.0191 -0.2861  0.0845
  223MOL0     C30640   2.211  11.097  10.203 -0.6148  0.5411  0.8960
  223MOL0     C30641   2.227  11.223  10.158  0.2933  0.2934 -1.2367
  223MOL0     C30642   2.125  11.293  10.098  0.2219  0.2914 -0.2908
  223MOL0     C30643   1.996  11.230  10.083 -0.0964 -0.4833 -0.0659
  223MOL0     O30644   1.887  11.289  10.019  0.8779  0.5597 -0.9564
  223MOL0     C30645   1.834  11.407  10.080  0.3452  0.1589 -0.0785
  223MOL0     C30646   1.802  11.396  10.230 -0.0508  0.2034  0.2267
  223MOL0     C30647   1.663  11.329  10.262 -0.9458  0.0030  0.3994
  223MOL0     C30648   1.535  11.396  10.210  0.8081 -0.1954  0.2202
  223MOL0     C30649   1.500  11.527  10.268 -0.1258 -0.7959 -0.4604
  223MOL0     C30650   1.352  11.535  10.265 -0.1451  0.3523  0.7642
  223MOL0     C30651   1.308  11.657  10.355 -0.0377 -0.3820 -0.6403
  223MOL0     C30652   1.154  11.676  10.356  0.9531 -0.5711  0.3009
  223MOL0     N30653   1.115  11.744  10.227 -0.3290 -0.6419 -0.3237
  223MOL0     C30654   1.154  11.867  10.192  1.0351  0.2422  0.3666
  223MOL0     C30655   1.086  11.891  10.079 -0.6400  0.0966  0.2611
  223MOL0     C30656   1.100  12.007   9.985  0.0037  0.1770  0.4997
  223MOL0     C30657   1.017  11.992   9.858 -0.3483  0.2019 -0.5688
  223MOL0     C30658   0.872  12.026   9.880  0.5807  0.3384  0.1058
  223MOL0     C30659   0.768  11.942   9.798  0.5465  0.2160  0.4233
  223MOL0     O30660   0.786  11.985   9.662  1.1770 -0.5305  0.2595
  223MOL0     C30661   0.679  11.942   9.575 -0.3904 -0.9407 -1.0461
  223MOL0     C30662   0.581  11.863   9.616 -0.1058 -0.1455 -0.1561
  223MOL0     C30663   0.468  11.853   9.533 -0.3213  0.8033 -0.2599
  223MOL0     C30664   0.362  11.765   9.580 -0.3389 -0.4259 -0.1294
  223MOL0     C30665   0.468  11.910   9.408  1.0004  1.0490  0.3849
  223MOL0     C30666   0.359  11.891   9.309 -0.6613  0.0317  0.4433
  223MOL0     O30667   0.379  11.942   9.182 -1.0362  0.8731  0.1201
  223MOL0     C30668   0.281  11.952   9.088 -0.1051 -0.1499  0.0543
  223MOL0     C30669   0.147  11.990   9.124  0.1745  0.3073  0.3261
  223MOL0     C30670   0.039  12.021   9.034  0.3715 -0.0331  0.0198
  223MOL0     C30671   0.069  12.010   8.903 -0.2703 -0.5261  0.3041
  223MOL0     O30672  -0.040  12.035   8.818 -0.0763  0.1797  0.7809
  223MOL0     C30673  -0.007  12.043   8.675  0.5166  0.1535  0.3583
  223MOL0     C30674  -0.134  12.094   8.606  0.7628 -0.2198 -0.3558
  223MOL0     C30675  -0.098  12.115   8.456  0.0289  0.9715 -0.8609
  223MOL0     C30676  -0.114  11.985   8.371 -0.1038 -0.1273 -0.0877
  223MOL0     C30677  -0.033  11.996   8.250  0.4051  0.3036 -0.5981
  223MOL0     C30678   0.116  12.013   8.272 -0.0292  0.0811 -0.5841
  223MOL0     C30679   0.189  12.003   8.142  0.3668 -0.0334  0.4118
  223MOL0     C30680   0.195  12.140   8.068  0.8590  0.3270 -1.1271
  223MOL0    Cl30681   0.355  12.231   8.077 -0.0447  0.2937 -0.0983
  223MOL0     C30682   0.198  11.981   8.858 -0.9157 -0.1376 -1.1481
  223MOL0     C30683   0.304  11.950   8.948 -0.5480 -0.0831 -0.5373
  223MOL0     O30684   0.252  11.860   9.356  1.3623 -0.2597 -0.5878
  223MOL0     C30685   0.578  11.989   9.370 -0.5646  0.6190  0.0403
  223MOL0     C30686   0.687  12.002   9.455  0.7469 -0.1213 -0.0444
  223MOL0     N30687   1.028  11.773  10.036  0.9403  0.0731  0.1782
  223MOL0     N30688   1.033  11.692  10.130  0.3790 -0.2389 -0.0661
  223MOL0     C30689   1.974  11.102  10.140 -1.0632 -0.6579 -0.0523
  223MOL0     C30690   2.086  11.035  10.203 -0.0255 -0.0231 -0.2552
  223MOL0     C30691   2.489  10.862  10.242 -0.6518  0.3083 -0.8118
  223MOL0     C30692   2.584  10.966  10.268  0.3374  0.0626 -0.2960
  223MOL0     C30693   2.717  10.939  10.268 -0.2533 -0.7404 -0.9712
  223MOL0     C30694   2.769  10.808  10.265 -0.4723 -0.0430  0.2800
  223MOL0     O30695   2.902  10.797  10.275 -0.8101 -0.1901 -0.2186
  223MOL0     C30696   2.951  10.660  10.267 -0.3196  0.1093 -0.3486
  223MOL0     C30697   3.108  10.679  10.261 -0.2316  1.0042  0.8253
  223MOL0     C30698   3.173  10.626  10.389  1.0120  0.7853  0.4263
  223MOL0     C30699   3.326  10.606  10.378 -0.7858  0.4729  0.1596
  223MOL0     C30700   3.348  10.487  10.295 -0.9850 -0.0569 -0.0592
  223MOL0     C30701   3.367  10.395  10.226  0.7401  0.0966  0.5054
  223MOL0     C30702   2.674  10.702  10.238  0.6179  0.6695 -0.6264
  223MOL0     C30703   2.538  10.735  10.228  0.2056  0.7406  0.4512
  223MOL0     C30704   2.437  10.627  10.229  0.0578  0.7745  0.3699
  223MOL0     H30705   2.322  11.275  10.165 -0.5154  1.5536  3.0091
  223MOL0     H30706   2.139  11.398  10.071  2.6307 -0.0033 -0.3746
  223MOL0     H30707   1.749  11.440  10.019  2.3252  1.4054 -2.3728
  223MOL0     H30708   1.914  11.480  10.065  1.2630 -1.1710 -2.0301
  223MOL0     H30709   1.874  11.339  10.289  0.9640  1.3048  0.0748
  223MOL0     H30710   1.802  11.493  10.281 -0.2127 -0.3056  1.2142
  223MOL0     H30711   1.666  11.224  10.233  2.3319  0.2466 -0.5874
  223MOL0     H30712   1.659  11.329  10.371 -0.0433  1.0696  0.4588
  223MOL0     H30713   1.541  11.405  10.102 -2.6916  1.9386  0.0419
  223MOL0     H30714   1.462  11.318  10.235  1.2987 -1.0317 -0.9137
  223MOL0     H30715   1.549  11.612  10.218 -0.8893  0.2919  0.5889
  223MOL0     H30716   1.526  11.526  10.374 -1.8686 -1.4707 -0.0107
  223MOL0     H30717   1.311  11.541  10.164 -1.8932 -0.8759  1.3570
  223MOL0     H30718   1.314  11.449  10.320 -0.1967  1.0280  1.8241
  223MOL0     H30719   1.372  11.743  10.330 -1.3430  1.7560  2.6823
  223MOL0     H30720   1.322  11.624  10.458 -1.5858 -0.9820 -0.5931
  223MOL0     H30721   1.108  11.579  10.374  1.1126 -1.3206 -2.7130
  223MOL0     H30722   1.133  11.750  10.434  0.7821 -0.9204  0.5872
  223MOL0     H30723   1.239  11.924  10.228  1.7811  0.5572 -1.7605
  223MOL0     H30724   1.207  12.014   9.963  0.6245  0.8508  3.2835
  223MOL0     H30725   1.084  12.098  10.044  2.7889  0.3817  1.0792
  223MOL0     H30726   1.059  12.057   9.781 -1.2804 -1.4659 -2.5919
  223MOL0     H30727   1.030  11.890   9.821 -0.2879  1.1798 -3.4391
  223MOL0     H30728   0.847  12.000   9.984 -0.2687 -0.2248 -0.2283
  223MOL0     H30729   0.852  12.133   9.871 -1.5922 -0.1066 -1.0595
  223MOL0     H30730   0.782  11.834   9.805  1.0574  0.1878 -0.7244
  223MOL0     H30731   0.671  11.980   9.831  0.2629  1.2004 -1.4046
  223MOL0     H30732   0.583  11.799   9.703 -3.7096 -2.3434 -1.4760
  223MOL0     H30733   0.258  11.796   9.587 -1.6121 -4.2899  0.8763
  223MOL0     H30734   0.387  11.732   9.681  1.6802  0.1848 -0.3808
  223MOL0     H30735   0.369  11.674   9.518  0.4919 -0.8151  0.5093
  223MOL0     H30736   0.111  11.998   9.226  0.0028  0.3228  0.2661
  223MOL0     H30737  -0.063  12.037   9.067  0.3244 -0.8696  0.2916
  223MOL0     H30738   0.079  12.109   8.661  3.0993 -2.9052  0.8800
  223MOL0     H30739   0.021  11.944   8.639  0.2638  1.0166 -2.4948
  223MOL0     H30740  -0.222  12.031   8.624  0.6974  0.4718  2.1713
  223MOL0     H30741  -0.149  12.188   8.660 -1.6546 -1.7349  1.8397
  223MOL0     H30742  -0.000  12.163   8.463 -1.2461  3.4911  2.8660
  223MOL0     H30743  -0.161  12.193   8.412 -2.8306 -1.4990 -1.4539
  223MOL0     H30744  -0.216  11.972   8.333 -0.9599  1.7958  1.3548
  223MOL0     H30745  -0.088  11.897   8.430 -0.4042  0.0714  0.3440
  223MOL0     H30746  -0.057  11.910   8.187  0.1603  0.0227 -0.1240
  223MOL0     H30747  -0.065  12.088   8.199 -0.5398 -0.3367 -1.1957
  223MOL0     H30748   0.152  11.939   8.344 -2.5976  0.8838  1.6824
  223MOL0     H30749   0.147  12.101   8.329  0.7237 -1.2326  1.1631
  223MOL0     H30750   0.140  11.937   8.069  0.5587  2.3171 -1.9664
  223MOL0     H30751   0.286  11.961   8.170 -1.6234 -5.6677  0.2713
  223MOL0     H30752   0.117  12.206   8.107  1.3549 -0.3261  1.0925
  223MOL0     H30753   0.179  12.120   7.961  1.3349  0.3157 -1.1991
  223MOL0     H30754   0.232  11.983   8.755  1.8238  2.0995 -0.3178
  223MOL0     H30755   0.401  11.928   8.904 -1.3482 -0.5014 -2.1874
  223MOL0     H30756   0.574  12.045   9.278 -2.2079  1.3909  0.5394
  223MOL0     H30757   0.776  12.062   9.440  0.6165  0.1189  0.1409
  223MOL0     H30758   1.874  11.059  10.132 -0.7467 -1.1643 -1.6599
  223MOL0     H30759   2.077  10.939  10.253  1.3822  0.8577  1.8302
  223MOL0     H30760   2.553  11.069  10.287 -1.1072 -0.2384 -0.8841
  223MOL0     H30761   2.779  11.028  10.277 -4.3619  2.3846 -0.5916
  223MOL0     H30762   2.922  10.606  10.358 -1.0987 -1.8578 -1.7163
  223MOL0     H30763   2.918  10.613  10.174 -2.4628  0.8989 -0.0548
  223MOL0     H30764   3.139  10.784  10.251 -0.0099  1.0873  2.1793
  223MOL0     H30765   3.148  10.633  10.171  0.7343  2.2952  0.5610
  223MOL0     H30766   3.152  10.710  10.456  0.6110 -1.9258  4.0382
  223MOL0     H30767   3.130  10.537  10.436  0.9797  0.3883 -0.3485
  223MOL0     H30768   3.382  10.592  10.471  1.2213 -0.3782 -1.1283
  223MOL0     H30769   3.381  10.687  10.331 -1.3666  0.7305 -0.0893
  223MOL0     H30770   3.360  10.308  10.163  0.3815  0.7648 -0.3999
  223MOL0     H30771   2.702  10.599  10.222  0.0479  1.0091 -4.7692
  223MOL0     H30772   2.485  10.547  10.287  3.8215  2.5148 -0.0469
  223MOL0     H30773   2.342  10.647  10.279 -0.8783  1.0753 -1.4390
  223MOL0     H30774   2.409  10.571  10.139  2.3891 -3.1306  1.7950
  224MOL0     O30775   4.173   0.935   8.321 -0.0854 -0.4628  0.0155
  224MOL0     C30776   4.124   0.884   8.217  0.7117 -0.4358  0.5596
  224MOL0     O30777   4.146   0.917   8.090  0.4053 -0.5283  0.0835
  224MOL0     C30778   4.209   1.039   8.081 -0.7193  0.4616 -0.4100
  224MOL0     C30779   4.136   1.152   8.051 -0.2440 -0.5605 -0.1384
  224MOL0     C30780   4.193   1.272   8.002 -0.1304  0.2150 -0.0209
  224MOL0     C30781   4.329   1.281   7.991  0.0520 -0.1890 -0.2596
  224MOL0     O30782   4.385   1.400   7.954 -0.3633 -0.1987 -0.3449
  224MOL0     C30783   4.530   1.412   7.943  0.6618 -0.6214 -0.2671
  224MOL0     C30784   4.565   1.553   7.944  0.5374 -0.5481  0.0148
  224MOL0     C30785   4.717   1.585   7.963 -0.2876  0.9724  0.4953
  224MOL0     C30786   4.791   1.548   8.097  0.3283 -0.2748  0.3704
  224MOL0     C30787   4.769   1.658   8.203  1.5365 -0.2980 -0.0843
  224MOL0     C30788   4.622   1.683   8.252 -0.0049 -0.6027 -0.1102
  224MOL0     C30789   4.569   1.556   8.319  0.7435 -0.9180  0.4420
  224MOL0     C30790   4.431   1.574   8.380  0.1963 -0.3830  0.8965
  224MOL0     N30791   4.410   1.452   8.461 -0.4059 -0.3559  0.1173
  224MOL0     C30792   4.346   1.327   8.432  0.3187  0.1308 -0.8000
  224MOL0     C30793   4.362   1.258   8.548  0.3745 -1.4308 -0.3371
  224MOL0     C30794   4.314   1.125   8.579  0.2494  0.3265 -0.1262
  224MOL0     C30795   4.188   1.136   8.673 -0.4609 -0.1624  0.0635
  224MOL0     C30796   4.072   1.212   8.622  0.0454 -0.2067  0.6326
  224MOL0     C30797   4.065   1.352   8.685  0.1129  0.6622  0.2688
  224MOL0     O30798   3.964   1.431   8.614  0.0760  0.3593 -0.0947
  224MOL0     C30799   4.021   1.526   8.531 -0.6077  0.3399  0.0751
  224MOL0     C30800   4.064   1.650   8.573  0.0742  0.1819  0.6079
  224MOL0     C30801   4.117   1.738   8.482 -0.6914 -0.2826  0.0213
  224MOL0     C30802   4.153   1.877   8.529 -0.3920  0.1681  0.6009
  224MOL0     C30803   4.111   1.704   8.339 -1.2360  0.6409 -0.4878
  224MOL0     C30804   4.148   1.789   8.231 -0.1720  0.5967 -0.2510
  224MOL0     O30805   4.195   1.727   8.110  0.8258  0.3190 -0.1095
  224MOL0     C30806   4.230   1.794   7.991  2.0580 -0.9776 -0.2381
  224MOL0     C30807   4.274   1.930   7.973 -0.3102 -0.7516 -0.1781
  224MOL0     C30808   4.338   1.975   7.851  0.4163 -0.0067  0.6484
  224MOL0     C30809   4.350   1.886   7.747  0.2615 -0.1990 -0.7478
  224MOL0     O30810   4.419   1.921   7.633  0.7377 -0.0481  0.4398
  224MOL0     C30811   4.532   2.002   7.628 -0.2946 -0.2066 -0.0122
  224MOL0     C30812   4.656   1.912   7.627 -1.2013 -0.2656 -0.8455
  224MOL0     C30813   4.645   1.781   7.546 -0.5442 -0.7897  0.1325
  224MOL0     C30814   4.777   1.709   7.545 -1.4788 -1.6430  0.3582
  224MOL0     C30815   4.783   1.580   7.459 -0.2114 -0.2246 -0.5411
  224MOL0     C30816   4.932   1.552   7.421 -0.1491 -0.6188 -0.8346
  224MOL0     C30817   4.937   1.428   7.334 -0.0067  0.0863  0.2858
  224MOL0     C30818   5.087   1.378   7.310 -1.0415 -0.2906  0.4880
  224MOL0    Cl30819   5.165   1.484   7.183 -0.0160  0.1223  0.0335
  224MOL0     C30820   4.297   1.755   7.763  0.6004  0.3604 -1.0128
  224MOL0     C30821   4.243   1.708   7.889  0.2504  0.2532  0.2426
  224MOL0     O30822   4.139   1.908   8.248  0.7259 -0.1304  0.5418
  224MOL0     C30823   4.065   1.573   8.301 -0.0079  0.0871  0.1659
  224MOL0     C30824   4.028   1.486   8.397 -0.6545 -0.1292 -0.1713
  224MOL0     N30825   4.429   1.338   8.639 -0.9136  1.2396  0.2280
  224MOL0     N30826   4.462   1.447   8.583  0.8336 -0.2094 -0.4650
  224MOL0     C30827   4.411   1.173   8.026 -0.7293 -0.4512 -0.3359
  224MOL0     C30828   4.353   1.053   8.064 -0.0302 -0.0688 -0.3230
  224MOL0     C30829   4.034   0.771   8.238 -0.5499  0.2900 -0.5589
  224MOL0     C30830   4.081   0.644   8.287 -0.5494 -0.1357  0.6680
  224MOL0     C30831   3.991   0.543   8.323  0.0444  0.9368  0.0034
  224MOL0     C30832   3.847   0.558   8.306  0.8414  0.5806  0.4467
  224MOL0     O30833   3.748   0.466   8.328  0.6777  0.4903  0.1896
  224MOL0     C30834   3.793   0.328   8.353 -0.1414 -0.4954 -0.5822
  224MOL0     C30835   3.818   0.300   8.500 -0.2147 -0.0602 -0.6171
  224MOL0     C30836   3.822   0.155   8.537 -0.2130  0.6784  0.4109
  224MOL0     C30837   3.932   0.065   8.471 -0.5795 -0.1771  0.4008
  224MOL0     C30838   3.902  -0.076   8.500 -0.0536  0.8482  0.0548
  224MOL0     C30839   3.880  -0.193   8.530 -0.3401  0.3102  0.1674
  224MOL0     C30840   3.803   0.679   8.254  1.1717 -0.8171  0.3776
  224MOL0     C30841   3.891   0.781   8.213  0.1613 -0.1259  0.3425
  224MOL0     C30842   3.827   0.924   8.179 -0.3024 -1.3103 -0.0392
  224MOL0     H30843   4.031   1.137   8.077  0.3166 -0.0140  2.8281
  224MOL0     H30844   4.134   1.361   7.983  2.2214  1.6469 -0.9490
  224MOL0     H30845   4.572   1.381   7.847 -3.6292  0.1227 -2.6141
  224MOL0     H30846   4.585   1.365   8.025 -1.1608 -1.1190  0.7336
  224MOL0     H30847   4.523   1.603   7.856  0.5730  1.7511  1.2403
  224MOL0     H30848   4.506   1.601   8.022 -2.2417 -1.8187 -1.1514
  224MOL0     H30849   4.768   1.538   7.879 -1.4603 -1.2912  0.9614
  224MOL0     H30850   4.730   1.690   7.939 -2.4008  0.9527 -1.0609
  224MOL0     H30851   4.752   1.456   8.141  0.6187 -0.0140  1.1880
  224MOL0     H30852   4.896   1.530   8.071  0.2697  0.4849 -0.4440
  224MOL0     H30853   4.797   1.756   8.163 -0.9418  0.3972 -0.2916
  224MOL0     H30854   4.829   1.631   8.290 -1.2572 -0.3164  1.9716
  224MOL0     H30855   4.623   1.754   8.335 -2.2522  1.6579 -1.8468
  224MOL0     H30856   4.552   1.729   8.182 -0.0041  1.9163  1.4078
  224MOL0     H30857   4.644   1.531   8.394  2.7121 -3.4130 -2.1236
  224MOL0     H30858   4.570   1.465   8.257 -2.6325 -1.7702  1.4309
  224MOL0     H30859   4.424   1.663   8.443 -1.6269  0.8872 -0.9827
  224MOL0     H30860   4.362   1.599   8.299  3.5444  1.1369 -1.7567
  224MOL0     H30861   4.290   1.287   8.348  0.8445 -0.5558 -0.8445
  224MOL0     H30862   4.382   1.060   8.635 -1.6114  0.5707  2.6269
  224MOL0     H30863   4.285   1.079   8.484  0.7127  1.1480 -0.6737
  224MOL0     H30864   4.158   1.034   8.698 -1.5991 -0.6788 -2.9509
  224MOL0     H30865   4.230   1.183   8.763  0.6529  0.1813 -0.6091
  224MOL0     H30866   4.062   1.213   8.514  0.7290  1.6850  0.5446
  224MOL0     H30867   3.978   1.172   8.661 -1.3362  3.6329  1.7750
  224MOL0     H30868   4.037   1.326   8.787 -0.8722 -1.4307 -0.4633
  224MOL0     H30869   4.165   1.397   8.686  0.8051 -0.7888 -0.7077
  224MOL0     H30870   4.037   1.677   8.675 -0.0327  0.7453  0.4355
  224MOL0     H30871   4.069   1.943   8.551 -2.3252 -2.0413  0.2433
  224MOL0     H30872   4.234   1.921   8.470  0.3457 -0.9674  0.7317
  224MOL0     H30873   4.207   1.856   8.622 -0.1017  1.2875  0.7044
  224MOL0     H30874   4.297   1.993   8.058 -0.8633 -0.3199 -0.3423
  224MOL0     H30875   4.392   2.068   7.838  0.0408 -0.1479 -2.8044
  224MOL0     H30876   4.525   2.054   7.532 -2.5209 -1.2464 -0.4671
  224MOL0     H30877   4.540   2.086   7.698  0.5165 -1.0761  0.9640
  224MOL0     H30878   4.742   1.970   7.591 -1.5882 -0.4131 -2.0306
  224MOL0     H30879   4.684   1.872   7.725  0.8055  1.3075 -0.7019
  224MOL0     H30880   4.627   1.794   7.439 -2.3268 -0.7946  0.4059
  224MOL0     H30881   4.574   1.708   7.588 -0.7437 -0.2713  0.7140
  224MOL0     H30882   4.820   1.697   7.645 -1.6479  1.7074  0.9314
  224MOL0     H30883   4.841   1.782   7.495  0.0076 -2.7652  0.5328
  224MOL0     H30884   4.736   1.498   7.514  1.5117  0.1962  1.7133
  224MOL0     H30885   4.726   1.595   7.367 -1.0553 -0.7047 -0.1080
  224MOL0     H30886   4.988   1.539   7.513 -0.4782  2.3590 -0.1084
  224MOL0     H30887   4.971   1.639   7.367  1.6789 -1.0127 -0.1839
  224MOL0     H30888   4.909   1.445   7.229  2.0102  3.1947  0.1039
  224MOL0     H30889   4.895   1.338   7.379  3.8191 -2.4101 -0.6600
  224MOL0     H30890   5.083   1.271   7.286  0.2388 -0.1680 -0.3250
  224MOL0     H30891   5.137   1.384   7.407  0.3821 -3.2688  0.0377
  224MOL0     H30892   4.298   1.691   7.675  1.5882 -1.8314  0.5131
  224MOL0     H30893   4.208   1.606   7.896 -0.0311  0.2034 -1.5247
  224MOL0     H30894   4.055   1.546   8.196 -2.7869  0.2111  0.3281
  224MOL0     H30895   3.988   1.393   8.358 -1.6308  1.1102 -2.2993
  224MOL0     H30896   4.518   1.167   8.008 -0.8874  0.8679 -1.9204
  224MOL0     H30897   4.411   0.968   8.097  0.5375  1.2004  2.2400
  224MOL0     H30898   4.187   0.624   8.279 -0.7267 -0.4054 -1.8907
  224MOL0     H30899   4.031   0.449   8.361 -3.6276 -0.8462 -0.0562
  224MOL0     H30900   3.714   0.259   8.325 -1.1363 -1.0879  3.1213
  224MOL0     H30901   3.879   0.304   8.289 -1.1721 -1.4394 -1.6408
  224MOL0     H30902   3.744   0.349   8.564  0.5927  2.9185 -1.8151
  224MOL0     H30903   3.913   0.330   8.543  0.0858  0.3858 -1.5703
  224MOL0     H30904   3.818   0.134   8.644 -0.0820 -2.1633 -0.0700
  224MOL0     H30905   3.721   0.120   8.514 -0.2948  1.0017  0.2754
  224MOL0     H30906   4.032   0.078   8.511  0.1579 -2.8143 -0.3405
  224MOL0     H30907   3.933   0.094   8.365 -2.2431  0.9996  0.6538
  224MOL0     H30908   3.852  -0.295   8.549  1.1089  0.0723  1.1367
  224MOL0     H30909   3.696   0.688   8.243  1.2133 -1.9854 -1.4657
  224MOL0     H30910   3.718   0.915   8.169 -0.2570  0.3672 -3.4828
  224MOL0     H30911   3.851   1.005   8.248  0.3901  1.2509 -3.0719
  224MOL0     H30912   3.850   0.949   8.075  0.2148 -2.6081 -0.2556
  225MOL0     O30913   4.935   2.921  10.690 -0.3144 -0.0825  0.0274
  225MOL0     C30914   4.831   2.854  10.723  0.3666  0.5226  0.4438
  225MOL0     O30915   4.697   2.884  10.705 -0.3987 -0.2350  0.0609
  225MOL0     C30916   4.664   3.017  10.688  0.7569  0.2228  0.2203
  225MOL0     C30917   4.734   3.122  10.751 -0.0871 -0.2560 -0.6221
  225MOL0     C30918   4.698   3.255  10.734  0.8066 -0.2250  0.0899
  225MOL0     C30919   4.584   3.286  10.659  0.4295  0.1312 -0.1396
  225MOL0     O30920   4.546   3.414  10.649  0.0618  1.2414 -0.4738
  225MOL0     C30921   4.443   3.454  10.561  0.0174 -1.4542 -0.5222
  225MOL0     C30922   4.430   3.611  10.578  0.1267 -0.5262 -0.5205
  225MOL0     C30923   4.562   3.689  10.575 -0.4582 -0.2774  0.4843
  225MOL0     C30924   4.588   3.785  10.460  0.2001  0.3746 -1.0596
  225MOL0     C30925   4.714   3.868  10.487 -0.3521  0.9122  0.0810
  225MOL0     C30926   4.721   3.986  10.382  0.6888  0.1260 -0.3015
  225MOL0     C30927   4.753   3.943  10.236  0.2029  0.1990  0.2424
  225MOL0     C30928   4.883   3.857  10.220 -0.6021 -0.1805  0.2041
  225MOL0     N30929   5.009   3.913  10.239  0.2234  0.2534 -0.2003
  225MOL0     C30930   5.052   4.014  10.162 -0.9155  0.7123 -0.0397
  225MOL0     C30931   5.145   4.083  10.238  0.8970  0.0573  0.5137
  225MOL0     C30932   5.234   4.195  10.191  1.0387  0.8623 -0.3162
  225MOL0     C30933   5.376   4.140  10.211  0.9066  0.0199  0.0364
  225MOL0     C30934   5.487   4.224  10.125 -0.4522  0.0656  0.1031
  225MOL0     C30935   5.522   4.361  10.189  0.1815  0.2558 -0.3148
  225MOL0     O30936   5.552   4.340  10.326  0.1370 -0.8303 -0.4624
  225MOL0     C30937   5.634   4.424  10.399  0.3938 -0.8907 -0.4841
  225MOL0     C30938   5.713   4.532  10.357  0.4839  0.8583  0.2952
  225MOL0     C30939   5.796   4.606  10.444 -0.1894 -0.4986 -0.1107
  225MOL0     C30940   5.879   4.710  10.381 -0.1778 -0.1944  1.0115
  225MOL0     C30941   5.793   4.576  10.581  0.6010  0.0589  0.3647
  225MOL0     C30942   5.877   4.631  10.685 -0.2948  0.3768  0.5686
  225MOL0     O30943   5.988   4.702  10.640  0.5491  0.2954  0.1370
  225MOL0     C30944   6.064   4.771  10.719 -0.1972  0.4172  0.0977
  225MOL0     C30945   6.007   4.870  10.795  0.1459  0.3796 -0.3085
  225MOL0     C30946   6.085   4.937  10.889  0.0641 -0.5627  0.2090
  225MOL0     C30947   6.211   4.890  10.923 -0.2093 -0.2290  0.7003
  225MOL0     O30948   6.295   4.940  11.024  0.4726  0.3856 -0.5998
  225MOL0     C30949   6.247   5.060  11.099  0.6046  0.4425 -0.1932
  225MOL0     C30950   6.151   5.012  11.207 -0.5336 -0.1818 -0.4048
  225MOL0     C30951   6.213   4.941  11.323 -0.2782 -0.4409 -0.5629
  225MOL0     C30952   6.257   4.795  11.292 -0.9349 -0.6437 -0.6003
  225MOL0     C30953   6.263   4.695  11.405 -0.4018  0.2737 -0.4933
  225MOL0     C30954   6.133   4.672  11.485  0.3576  0.4624  0.5649
  225MOL0     C30955   6.127   4.548  11.571  0.0526 -0.9295 -0.3982
  225MOL0     C30956   6.247   4.531  11.665  0.1247 -0.4664  0.1606
  225MOL0    Cl30957   6.399   4.495  11.582  0.4438 -0.0857 -0.2331
  225MOL0     C30958   6.266   4.787  10.846 -0.9822 -0.1913 -0.6781
  225MOL0     C30959   6.199   4.728  10.741 -0.2317  0.6833 -0.6822
  225MOL0     O30960   5.850   4.617  10.806 -0.1627  0.3899 -0.1991
  225MOL0     C30961   5.705   4.474  10.623  0.4143 -0.0182 -0.0306
  225MOL0     C30962   5.627   4.403  10.534  0.5376 -0.2152  0.3533
  225MOL0     N30963   5.150   4.018  10.358 -0.2966 -0.4753 -0.3090
  225MOL0     N30964   5.070   3.914  10.362  0.1723 -0.0972 -0.3592
  225MOL0     C30965   4.507   3.173  10.608 -0.8594 -0.1924  0.5340
  225MOL0     C30966   4.548   3.043  10.617  1.1271  0.3593  0.8408
  225MOL0     C30967   4.854   2.742  10.816  0.4049  0.1870  0.9151
  225MOL0     C30968   4.752   2.713  10.914 -0.7887  0.0190  0.1519
  225MOL0     C30969   4.775   2.613  11.013  0.0346 -0.1474  0.5222
  225MOL0     C30970   4.885   2.528  11.009 -0.8095 -0.2227 -0.0239
  225MOL0     O30971   4.913   2.425  11.088 -0.1702  0.2525  0.6040
  225MOL0     C30972   4.805   2.350  11.148 -0.3066 -0.3879 -0.0526
  225MOL0     C30973   4.732   2.416  11.263 -0.3646  0.7787 -0.7325
  225MOL0     C30974   4.678   2.303  11.356 -0.1903 -0.7721  0.1806
  225MOL0     C30975   4.538   2.249  11.313  1.1679 -0.3919 -0.3017
  225MOL0     C30976   4.443   2.322  11.402 -0.0355 -0.3543  0.4754
  225MOL0     C30977   4.371   2.396  11.467 -0.2211  0.0749  0.3723
  225MOL0     C30978   4.983   2.551  10.911  0.4109  0.2606  0.0180
  225MOL0     C30979   4.967   2.645  10.807  0.7199  0.2961  0.1698
  225MOL0     C30980   5.053   2.645  10.695  0.4926 -0.0827  0.1215
  225MOL0     H30981   4.825   3.117  10.810 -1.9306 -0.1985  2.4198
  225MOL0     H30982   4.760   3.336  10.771 -2.1928  0.7888  3.4640
  225MOL0     H30983   4.344   3.412  10.580 -0.0368 -0.8376  0.6096
  225MOL0     H30984   4.461   3.432  10.455  0.1813  0.0765 -0.8330
  225MOL0     H30985   4.362   3.640  10.498  0.2051  1.1026 -0.0212
  225MOL0     H30986   4.382   3.642  10.671  1.5027  1.1844 -0.3276
  225MOL0     H30987   4.564   3.742  10.670 -4.5051  0.9202  0.0698
  225MOL0     H30988   4.651   3.625  10.579 -0.2687  0.0456  3.4228
  225MOL0     H30989   4.589   3.736  10.363 -1.0825 -1.8299 -0.0359
  225MOL0     H30990   4.509   3.861  10.464  0.1212  0.2600 -0.1608
  225MOL0     H30991   4.799   3.800  10.493 -0.5027  0.8013  1.3527
  225MOL0     H30992   4.699   3.899  10.591  0.8041 -1.0151  0.8667
  225MOL0     H30993   4.618   4.022  10.387  0.9423  0.7349  0.8348
  225MOL0     H30994   4.787   4.068  10.409 -1.2597  0.6522  3.4999
  225MOL0     H30995   4.760   4.039  10.184 -3.7517  0.3738 -0.2778
  225MOL0     H30996   4.671   3.880  10.200 -0.2884  1.5699 -1.1245
  225MOL0     H30997   4.874   3.767  10.281  1.8841 -0.8776 -0.3508
  225MOL0     H30998   4.886   3.824  10.116 -3.7898 -0.6950  0.1513
  225MOL0     H30999   5.013   4.039  10.063 -0.9033  1.1092  0.0562
  225MOL0     H31000   5.202   4.281  10.251 -1.5054  1.2412 -2.0972
  225MOL0     H31001   5.228   4.223  10.086 -3.2517  2.8741  0.2832
  225MOL0     H31002   5.392   4.150  10.319 -2.0156 -1.5967  0.7178
  225MOL0     H31003   5.374   4.034  10.184  0.6191  0.5140 -2.0491
  225MOL0     H31004   5.576   4.162  10.129 -0.5529 -0.1909 -1.3149
  225MOL0     H31005   5.451   4.224  10.022  0.3644  0.9624 -0.1939
  225MOL0     H31006   5.593   4.426  10.136  3.0714 -1.0833  1.6900
  225MOL0     H31007   5.418   4.396  10.181 -0.4623 -0.2127  3.8652
  225MOL0     H31008   5.727   4.546  10.250 -2.0744  1.5101 -0.0241
  225MOL0     H31009   5.871   4.809  10.428  1.8529 -0.4905  2.0937
  225MOL0     H31010   5.854   4.726  10.276  0.2196  0.1684  0.9678
  225MOL0     H31011   5.979   4.666  10.389  0.2435  0.8535  1.7324
  225MOL0     H31012   5.900   4.881  10.781  0.1713 -0.1531 -0.9335
  225MOL0     H31013   6.034   5.015  10.943 -1.0311 -0.4517 -0.9389
  225MOL0     H31014   6.334   5.104  11.150  2.5824 -1.1293 -2.0279
  225MOL0     H31015   6.209   5.138  11.032  0.0532 -2.2109 -3.1638
  225MOL0     H31016   6.115   5.104  11.253 -4.3582 -1.3814 -0.6321
  225MOL0     H31017   6.069   4.958  11.159  0.8571 -0.5801 -2.4664
  225MOL0     H31018   6.143   4.943  11.407  0.9392  2.2957  0.5151
  225MOL0     H31019   6.305   4.987  11.360 -0.1747 -0.7123 -0.4786
  225MOL0     H31020   6.343   4.789  11.224 -1.0730 -1.0587 -0.7482
  225MOL0     H31021   6.180   4.749  11.229 -0.0500 -3.0823 -0.0420
  225MOL0     H31022   6.306   4.600  11.375  0.6706  0.8164 -0.7171
  225MOL0     H31023   6.331   4.728  11.484  0.5469 -1.7793 -0.3876
  225MOL0     H31024   6.051   4.659  11.414 -0.0672 -1.2878  1.3115
  225MOL0     H31025   6.115   4.756  11.552  4.3326 -0.1286  2.6599
  225MOL0     H31026   6.118   4.462  11.504 -0.3149 -0.5857 -0.7996
  225MOL0     H31027   6.038   4.563  11.632 -0.6799 -1.3631 -1.3383
  225MOL0     H31028   6.227   4.453  11.739  0.9986 -0.1499  0.7516
  225MOL0     H31029   6.260   4.626  11.718  0.9766 -1.2213  1.3372
  225MOL0     H31030   6.371   4.758  10.848 -1.6012 -2.6232 -0.3878
  225MOL0     H31031   6.238   4.652  10.674 -2.2715 -1.4621  0.3904
  225MOL0     H31032   5.698   4.450  10.728 -2.7476  0.7829  0.0317
  225MOL0     H31033   5.565   4.323  10.574  1.6864 -3.7263 -4.0523
  225MOL0     H31034   4.416   3.183  10.549  0.0930 -1.7231 -1.3074
  225MOL0     H31035   4.506   2.955  10.571 -0.0471  1.0271  0.6056
  225MOL0     H31036   4.665   2.778  10.917  1.6093  3.5925 -1.3598
  225MOL0     H31037   4.688   2.589  11.074 -0.6631 -2.0757 -1.0988
  225MOL0     H31038   4.730   2.325  11.072 -1.3831 -0.9927  1.1696
  225MOL0     H31039   4.841   2.252  11.181 -2.4484 -0.8130  1.2218
  225MOL0     H31040   4.647   2.469  11.221 -0.3239  0.5476 -1.1159
  225MOL0     H31041   4.792   2.486  11.322 -1.6106 -0.9136  2.8305
  225MOL0     H31042   4.740   2.215  11.373  1.3825  0.5588  1.7668
  225MOL0     H31043   4.671   2.350  11.455  2.0123  2.0089 -0.8551
  225MOL0     H31044   4.530   2.141  11.328 -0.6163 -0.1805  0.4919
  225MOL0     H31045   4.514   2.270  11.208  2.2805  0.6411 -0.3662
  225MOL0     H31046   4.309   2.463  11.522  2.7888  4.1302 -0.7124
  225MOL0     H31047   5.052   2.467  10.904 -0.9973 -1.0423  1.1909
  225MOL0     H31048   4.995   2.659  10.603  0.3734 -1.6641 -0.0686
  225MOL0     H31049   5.123   2.729  10.705 -0.7105  0.7438  2.5103
  225MOL0     H31050   5.107   2.550  10.690  1.6032  0.5410 -0.0345
  226MOL0     O31051   8.540   2.390   8.401 -0.7986 -0.1353 -0.2866
  226MOL0     C31052   8.500   2.438   8.503  0.3592 -0.5377  0.4836
  226MOL0     O31053   8.423   2.555   8.517  0.4833 -0.1829  0.7646
  226MOL0     C31054   8.368   2.611   8.404  0.5042 -0.3137  0.8880
  226MOL0     C31055   8.280   2.543   8.316 -0.0279 -0.4088 -0.1950
  226MOL0     C31056   8.244   2.591   8.194 -0.2058 -0.2755  0.3840
  226MOL0     C31057   8.282   2.721   8.152  0.3518 -0.7601  0.0009
  226MOL0     O31058   8.217   2.792   8.047  0.3500  0.0894  0.1863
  226MOL0     C31059   8.145   2.715   7.943  0.2638 -0.0490 -0.6008
  226MOL0     C31060   8.051   2.814   7.866  0.1729 -0.0858 -0.3632
  226MOL0     C31061   8.130   2.937   7.824 -0.3706  0.3561 -1.1563
  226MOL0     C31062   8.034   3.042   7.768 -0.1978 -0.2849  0.5221
  226MOL0     C31063   8.086   3.107   7.635 -0.3814 -0.0342  0.4151
  226MOL0     C31064   8.032   3.033   7.507 -0.5000  0.1401  0.0717
  226MOL0     C31065   8.105   3.082   7.380 -0.9710 -0.0959 -0.5047
  226MOL0     C31066   8.048   3.220   7.341  1.0981 -0.0859 -0.0175
  226MOL0     N31067   8.120   3.283   7.229 -0.3643 -0.0587  0.7905
  226MOL0     C31068   8.175   3.410   7.228  0.0244 -0.9396  0.5662
  226MOL0     C31069   8.228   3.425   7.106 -1.2687 -0.4588 -0.5697
  226MOL0     C31070   8.313   3.552   7.061 -0.1979 -0.7026  0.6193
  226MOL0     C31071   8.246   3.658   6.974 -0.3352  0.2808 -0.3936
  226MOL0     C31072   8.325   3.708   6.855  0.3919 -0.2710 -0.0460
  226MOL0     C31073   8.240   3.770   6.743 -0.7218 -0.6497  0.0186
  226MOL0     O31074   8.136   3.863   6.781  0.4405  0.2031  0.3293
  226MOL0     C31075   8.161   3.993   6.818 -0.0221 -0.3863 -0.3917
  226MOL0     C31076   8.283   4.063   6.825 -0.0688 -0.2560 -0.2105
  226MOL0     C31077   8.297   4.196   6.882 -1.2266  0.8506 -0.8180
  226MOL0     C31078   8.437   4.271   6.887  0.2525  0.1859  0.1106
  226MOL0     C31079   8.178   4.241   6.948 -0.0585 -0.2242 -0.0653
  226MOL0     C31080   8.168   4.370   7.007 -0.0265 -0.4294  0.0765
  226MOL0     O31081   8.054   4.387   7.079  0.2042  0.3497 -0.9617
  226MOL0     C31082   8.050   4.504   7.159 -0.0680 -0.1155 -0.4852
  226MOL0     C31083   7.942   4.589   7.137  0.2651  1.1726 -0.2099
  226MOL0     C31084   7.947   4.712   7.203 -0.0166 -0.5105 -0.0842
  226MOL0     C31085   8.044   4.759   7.295  0.1713  0.4049  0.6333
  226MOL0     O31086   8.025   4.884   7.341  0.5743  0.0526  0.2227
  226MOL0     C31087   8.077   4.945   7.458 -0.3531 -0.1107  0.1951
  226MOL0     C31088   8.018   4.877   7.578 -0.3527  0.0174  0.2105
  226MOL0     C31089   7.869   4.915   7.603  0.2091  0.6520  0.3930
  226MOL0     C31090   7.771   4.808   7.541  0.8709  0.3935 -0.4849
  226MOL0     C31091   7.652   4.870   7.466  0.0057 -0.8186  0.3856
  226MOL0     C31092   7.577   4.763   7.381 -0.2069 -0.3874 -0.5145
  226MOL0     C31093   7.434   4.822   7.345 -0.8160 -0.7914 -1.1257
  226MOL0     C31094   7.420   4.884   7.209 -0.9434 -0.5312  0.2281
  226MOL0    Cl31095   7.529   5.027   7.191 -0.6239 -0.5588 -0.4448
  226MOL0     C31096   8.150   4.663   7.312 -0.1457  0.6719 -0.6929
  226MOL0     C31097   8.162   4.542   7.249 -0.1344  0.7684  0.9784
  226MOL0     O31098   8.253   4.459   6.976  0.4556  0.3486 -0.3216
  226MOL0     C31099   8.058   4.166   6.947  0.4691  0.3760  0.1398
  226MOL0     C31100   8.054   4.040   6.886  0.4787 -0.2557 -0.9172
  226MOL0     N31101   8.194   3.308   7.033  0.1473 -0.3106 -0.1367
  226MOL0     N31102   8.124   3.228   7.107 -1.0732 -1.1250 -0.2118
  226MOL0     C31103   8.376   2.792   8.237  1.4662 -0.3212  0.3479
  226MOL0     C31104   8.413   2.735   8.355  0.6587 -0.7615  0.6254
  226MOL0     C31105   8.519   2.357   8.633 -0.5416 -0.4017 -0.2331
  226MOL0     C31106   8.467   2.415   8.757  0.3947  0.3739 -0.0392
  226MOL0     C31107   8.474   2.349   8.877 -0.7308  0.1749 -0.6945
  226MOL0     C31108   8.563   2.233   8.896  0.2316 -0.2626 -0.2023
  226MOL0     O31109   8.572   2.165   9.011 -0.7675 -0.2179 -0.5387
  226MOL0     C31110   8.507   2.204   9.133  1.0956  0.4514 -0.0632
  226MOL0     C31111   8.566   2.324   9.199  0.7457 -0.2158  0.4084
  226MOL0     C31112   8.463   2.393   9.299  1.3482  0.4866  0.1220
  226MOL0     C31113   8.542   2.466   9.405 -0.5515 -0.2211  0.2169
  226MOL0     C31114   8.456   2.546   9.497 -1.4365  0.1826  0.4516
  226MOL0     C31115   8.399   2.610   9.578 -0.4652  0.9309 -0.8075
  226MOL0     C31116   8.613   2.181   8.772 -1.0024 -1.0163  0.8359
  226MOL0     C31117   8.594   2.240   8.644  0.5431 -0.5818  0.6318
  226MOL0     C31118   8.668   2.169   8.528  0.5059 -0.0753 -0.3810
  226MOL0     H31119   8.248   2.444   8.349  0.9569 -0.6036  0.2126
  226MOL0     H31120   8.169   2.532   8.142 -0.0818 -1.7119  1.7596
  226MOL0     H31121   8.081   2.636   7.982  1.8914 -0.0225  2.4641
  226MOL0     H31122   8.212   2.657   7.878  0.1604 -2.3774  1.2533
  226MOL0     H31123   7.990   2.781   7.782 -1.4793 -1.6889  1.3776
  226MOL0     H31124   7.981   2.834   7.948  0.5591 -1.3183  0.2939
  226MOL0     H31125   8.192   2.979   7.904 -1.4201 -0.7671  0.2885
  226MOL0     H31126   8.213   2.916   7.755  0.7262  0.8919 -0.0363
  226MOL0     H31127   7.930   3.012   7.748  0.5125 -2.0346 -0.8294
  226MOL0     H31128   8.033   3.125   7.840  1.5314  0.8236 -0.6671
  226MOL0     H31129   8.195   3.102   7.626 -0.5884 -0.6408 -3.2001
  226MOL0     H31130   8.053   3.211   7.631 -1.4903 -0.4060 -0.4076
  226MOL0     H31131   8.070   2.930   7.509  0.3580  0.4126 -1.1691
  226MOL0     H31132   7.922   3.034   7.501 -0.4994  0.8534  0.1206
  226MOL0     H31133   8.095   3.013   7.295  1.0449 -0.6450 -0.3375
  226MOL0     H31134   8.211   3.092   7.404 -1.2801  0.6518  0.6071
  226MOL0     H31135   7.943   3.220   7.311  0.5584 -2.2640  1.6151
  226MOL0     H31136   8.060   3.293   7.422 -0.5794  0.0403  0.1681
  226MOL0     H31137   8.184   3.482   7.308  2.6870  3.1313 -2.9407
  226MOL0     H31138   8.396   3.504   7.008 -0.7299  0.2075 -1.1434
  226MOL0     H31139   8.348   3.608   7.148  2.0445  0.7437 -1.0681
  226MOL0     H31140   8.152   3.615   6.937 -1.1678  1.3766  0.3718
  226MOL0     H31141   8.232   3.749   7.034 -0.1390  1.0065 -1.4149
  226MOL0     H31142   8.396   3.782   6.893 -2.4246  1.0466  3.0391
  226MOL0     H31143   8.390   3.639   6.800  1.0452 -0.1619  0.5746
  226MOL0     H31144   8.304   3.828   6.676 -2.0045 -2.5178 -2.9971
  226MOL0     H31145   8.194   3.686   6.692 -2.2151  0.6210 -0.8140
  226MOL0     H31146   8.359   4.012   6.768 -2.2517 -1.8831 -1.8485
  226MOL0     H31147   8.508   4.193   6.858 -0.2563 -0.0949 -0.3813
  226MOL0     H31148   8.455   4.310   6.988 -0.3723  0.3406  0.1650
  226MOL0     H31149   8.448   4.354   6.816  3.0235 -1.2441 -1.2722
  226MOL0     H31150   7.854   4.577   7.074 -1.7049  0.7265  2.4669
  226MOL0     H31151   7.865   4.780   7.184 -0.8066 -1.7348 -1.2198
  226MOL0     H31152   8.186   4.935   7.462 -0.1817  0.2581 -2.1360
  226MOL0     H31153   8.042   5.049   7.453  0.7764  0.2211 -1.9203
  226MOL0     H31154   8.034   4.769   7.573 -1.3829 -0.2159  1.3939
  226MOL0     H31155   8.068   4.913   7.668 -0.7636 -0.4952  0.6487
  226MOL0     H31156   7.847   5.004   7.544  2.8683 -1.1633 -3.8758
  226MOL0     H31157   7.851   4.931   7.710 -0.0189 -0.2949  0.5057
  226MOL0     H31158   7.734   4.744   7.621  1.3066  0.2031 -0.4355
  226MOL0     H31159   7.819   4.744   7.465  0.1654 -0.1384 -0.4855
  226MOL0     H31160   7.588   4.914   7.543 -0.6877 -2.0188  0.5249
  226MOL0     H31161   7.683   4.949   7.397  0.3017  1.9171  3.4416
  226MOL0     H31162   7.547   4.678   7.443  1.5044 -0.0506  0.8698
  226MOL0     H31163   7.643   4.745   7.296  2.1212  0.7797  0.9496
  226MOL0     H31164   7.409   4.904   7.413 -1.3850  0.0598 -2.3072
  226MOL0     H31165   7.366   4.737   7.354 -0.3570 -1.0667 -0.1619
  226MOL0     H31166   7.314   4.907   7.197 -0.6311  0.0021 -1.8949
  226MOL0     H31167   7.443   4.808   7.133  1.4725 -0.4691  0.7963
  226MOL0     H31168   8.219   4.695   7.390 -0.4029  0.0601 -0.2055
  226MOL0     H31169   8.238   4.466   7.263  1.1242  1.6836 -0.5274
  226MOL0     H31170   7.963   4.208   6.979  1.1817  2.1884  0.0030
  226MOL0     H31171   7.963   3.980   6.889  0.3930 -0.1016  1.7603
  226MOL0     H31172   8.399   2.894   8.211 -1.3617 -0.6121 -4.6093
  226MOL0     H31173   8.486   2.788   8.415  0.6773 -0.7609  0.6029
  226MOL0     H31174   8.412   2.508   8.758 -0.0515  0.1230  1.0234
  226MOL0     H31175   8.435   2.406   8.961 -1.4760 -0.6690 -0.4625
  226MOL0     H31176   8.405   2.227   9.101  0.4710 -0.2480  1.3434
  226MOL0     H31177   8.505   2.125   9.208 -2.9757  0.4155 -0.0057
  226MOL0     H31178   8.599   2.395   9.123  2.6639 -1.0301  0.4253
  226MOL0     H31179   8.657   2.303   9.255  1.6144  4.4310  1.0903
  226MOL0     H31180   8.396   2.467   9.254  0.0744  0.2025  1.4762
  226MOL0     H31181   8.396   2.325   9.353  1.5095  1.7190  1.9755
  226MOL0     H31182   8.599   2.542   9.351 -1.1268  1.4764  1.8868
  226MOL0     H31183   8.611   2.404   9.464  1.9404  2.0212 -0.1610
  226MOL0     H31184   8.379   2.666   9.667  1.9493 -0.8003  0.9430
  226MOL0     H31185   8.678   2.094   8.774 -0.1057 -0.3369  2.5557
  226MOL0     H31186   8.606   2.113   8.458  2.8957 -3.0676 -0.3296
  226MOL0     H31187   8.730   2.247   8.483  1.7762 -0.6898  0.2350
  226MOL0     H31188   8.732   2.095   8.576 -1.5635 -1.1983  0.7889
  227MOL0     O31189   2.006   8.359   0.045  1.3603 -0.1181  0.0432
  227MOL0     C31190   1.969   8.246   0.081  0.0204  1.0500  0.0865
  227MOL0     O31191   2.059   8.160   0.145  0.1836 -0.4350  0.1721
  227MOL0     C31192   2.193   8.199   0.140  0.3878 -0.1022  1.0168
  227MOL0     C31193   2.268   8.136   0.044 -0.8899  0.5571 -1.1062
  227MOL0     C31194   2.400   8.174   0.023 -0.3217  0.4057  0.1736
  227MOL0     C31195   2.466   8.263   0.108  0.1797  0.4792  0.1517
  227MOL0     O31196   2.592   8.302   0.078 -0.3947  0.3925 -0.3390
  227MOL0     C31197   2.686   8.278   0.186 -0.0803  0.0350 -0.2359
  227MOL0     C31198   2.815   8.369   0.175 -0.0934  0.6103  0.9530
  227MOL0     C31199   2.939   8.320   0.251  0.0994  0.4107  0.0144
  227MOL0     C31200   2.929   8.277   0.406  0.6153 -0.2568  0.1219
  227MOL0     C31201   3.057   8.247   0.474 -0.5356 -0.5505 -0.0332
  227MOL0     C31202   3.049   8.258   0.625  0.0506 -0.4421  0.2054
  227MOL0     C31203   3.192   8.250   0.689  0.2620 -0.8878  0.3845
  227MOL0     C31204   3.262   8.113   0.682 -0.8951  0.1809  0.3192
  227MOL0     N31205   3.389   8.123   0.750 -0.7161 -0.7174  0.1458
  227MOL0     C31206   3.479   8.230   0.749  1.2276 -0.5582  0.5740
  227MOL0     C31207   3.595   8.177   0.786  0.1000 -1.0159 -0.4044
  227MOL0     C31208   3.727   8.246   0.797  0.4582  0.3302 -0.0647
  227MOL0     C31209   3.820   8.175   0.902 -0.6599 -0.8387  0.1546
  227MOL0     C31210   3.969   8.226   0.901  1.1419 -0.0775  0.7356
  227MOL0     C31211   4.036   8.168   0.776 -0.5619  0.0875 -0.1035
  227MOL0     O31212   4.150   8.250   0.758 -0.4331 -0.3681 -0.0355
  227MOL0     C31213   4.222   8.238   0.645  0.1878  0.7192  0.3923
  227MOL0     C31214   4.177   8.163   0.528 -0.1609 -0.3856  0.0562
  227MOL0     C31215   4.263   8.150   0.417  0.0709 -0.2156 -0.5806
  227MOL0     C31216   4.201   8.065   0.308  0.8249  0.8460  0.0401
  227MOL0     C31217   4.387   8.220   0.414  0.6181  0.0558 -0.1304
  227MOL0     C31218   4.484   8.221   0.300 -0.0267  0.2514 -0.3415
  227MOL0     O31219   4.596   8.302   0.317  0.0607 -0.7377  0.5172
  227MOL0     C31220   4.665   8.307   0.200  0.7939  0.6367  0.4356
  227MOL0     C31221   4.639   8.404   0.107  0.8876  0.3048  0.0466
  227MOL0     C31222   4.703   8.406  -0.024 -0.3729 -1.2558 -0.2333
  227MOL0     C31223   4.814   8.327  -0.046  0.2169  0.6809 -0.2975
  227MOL0     O31224   4.887   8.335  -0.165  0.7174  0.5517  0.1836
  227MOL0     C31225   4.842   8.249  -0.270  0.5001 -0.0945  0.3672
  227MOL0     C31226   4.945   8.162  -0.345 -0.5759  0.3834 -0.0137
  227MOL0     C31227   5.055   8.255  -0.395  0.3130  0.2778 -0.8492
  227MOL0     C31228   5.160   8.181  -0.460  0.3024  0.6081  0.7480
  227MOL0     C31229   5.280   8.271  -0.502 -0.0541 -0.6044  0.4619
  227MOL0     C31230   5.331   8.213  -0.642 -0.3758 -0.0159 -0.6998
  227MOL0     C31231   5.457   8.275  -0.682  0.0826  0.2360 -0.3384
  227MOL0     C31232   5.485   8.238  -0.831 -0.0425  0.7930 -0.3284
  227MOL0    Cl31233   5.400   8.341  -0.939 -0.3404  0.2554  0.1001
  227MOL0     C31234   4.851   8.237   0.053 -0.2178 -0.6720  0.3196
  227MOL0     C31235   4.774   8.224   0.171 -0.2034  0.1222  0.2908
  227MOL0     O31236   4.459   8.158   0.204  0.2631  0.1341 -0.4524
  227MOL0     C31237   4.423   8.292   0.528  0.3542 -0.7534 -0.4126
  227MOL0     C31238   4.346   8.293   0.645 -0.2407 -0.1335  0.1870
  227MOL0     N31239   3.567   8.046   0.822 -0.0699 -0.3770 -0.2676
  227MOL0     N31240   3.449   8.012   0.796  0.0621 -0.3304 -0.5202
  227MOL0     C31241   2.390   8.324   0.206 -0.9011 -0.4667 -0.1014
  227MOL0     C31242   2.256   8.293   0.226  0.4585  0.2348 -0.4877
  227MOL0     C31243   1.841   8.187   0.034 -0.5420  0.6006 -0.7923
  227MOL0     C31244   1.823   8.046   0.041 -0.2201  0.1307  0.1896
  227MOL0     C31245   1.711   7.981   0.000  0.3180 -0.2688 -0.2019
  227MOL0     C31246   1.604   8.053  -0.041 -0.4574  0.6328  1.0069
  227MOL0     O31247   1.479   8.009  -0.078  0.2006  1.0177 -0.5351
  227MOL0     C31248   1.430   7.875  -0.065 -0.5994 -0.0551 -0.5971
  227MOL0     C31249   1.418   7.831   0.083  0.2723  0.1680 -0.0957
  227MOL0     C31250   1.372   7.687   0.090  0.5667 -0.3705 -0.1025
  227MOL0     C31251   1.344   7.626   0.236 -0.1470 -0.0209  0.9415
  227MOL0     C31252   1.221   7.687   0.286  0.8822  0.5162 -0.1404
  227MOL0     C31253   1.119   7.739   0.338 -0.8107 -0.1509  0.0784
  227MOL0     C31254   1.617   8.193  -0.057  0.2108 -0.8805 -0.5527
  227MOL0     C31255   1.732   8.265  -0.015 -0.6057  0.1667  0.8150
  227MOL0     C31256   1.728   8.417  -0.019 -0.2170  1.6043 -0.9684
  227MOL0     H31257   2.219   8.076  -0.032  0.1543 -0.6983 -0.8218
  227MOL0     H31258   2.460   8.126  -0.054 -1.0974  2.7634 -2.0400
  227MOL0     H31259   2.734   8.180   0.184  2.0273  0.9527  1.8429
  227MOL0     H31260   2.638   8.303   0.281 -3.1347  1.4157 -1.9879
  227MOL0     H31261   2.843   8.364   0.069 -0.5971 -1.9414  0.8739
  227MOL0     H31262   2.799   8.474   0.202 -3.8693 -0.0886  2.0199
  227MOL0     H31263   2.981   8.235   0.197 -3.8048  0.0020 -2.8764
  227MOL0     H31264   3.012   8.401   0.239  1.9430 -1.2389 -0.3654
  227MOL0     H31265   2.884   8.357   0.466 -0.3308  0.3796 -1.3924
  227MOL0     H31266   2.862   8.191   0.410 -0.4509  0.4484 -1.7739
  227MOL0     H31267   3.138   8.313   0.442 -0.2226 -1.5314 -1.3333
  227MOL0     H31268   3.085   8.144   0.450 -2.4244 -0.9014 -0.9513
  227MOL0     H31269   3.006   8.352   0.660  2.8570  1.5000 -1.1971
  227MOL0     H31270   2.981   8.177   0.655 -0.3252  0.9975  3.6995
  227MOL0     H31271   3.196   8.272   0.796  1.1558 -3.8098  1.0563
  227MOL0     H31272   3.259   8.329   0.653 -1.0221 -0.3306 -0.8467
  227MOL0     H31273   3.209   8.040   0.744  0.0023  1.0564  2.1978
  227MOL0     H31274   3.276   8.076   0.579  0.5416 -1.5350  1.0623
  227MOL0     H31275   3.471   8.334   0.717  1.5455  0.1504  2.6170
  227MOL0     H31276   3.710   8.349   0.830  2.0181  0.1772  1.3928
  227MOL0     H31277   3.772   8.245   0.698  3.6479  0.1147  1.2676
  227MOL0     H31278   3.783   8.205   1.000 -2.8025 -3.7395  0.3579
  227MOL0     H31279   3.808   8.066   0.901 -4.3549 -0.6901  3.8315
  227MOL0     H31280   3.969   8.336   0.909 -0.6169 -0.1404  2.2131
  227MOL0     H31281   4.028   8.196   0.988  3.8149  0.9176 -0.5914
  227MOL0     H31282   4.061   8.064   0.799 -1.2284  0.1610  0.9951
  227MOL0     H31283   3.965   8.157   0.694 -2.6595 -1.0101  1.7606
  227MOL0     H31284   4.085   8.105   0.533  1.4952 -3.1427  0.4910
  227MOL0     H31285   4.184   8.129   0.221 -2.2808  0.2124  0.0767
  227MOL0     H31286   4.104   8.032   0.345 -0.0762  2.7031 -0.5574
  227MOL0     H31287   4.265   7.977   0.298  0.5576  0.4923  1.3084
  227MOL0     H31288   4.558   8.475   0.125 -0.4402  0.5231 -5.2156
  227MOL0     H31289   4.666   8.481  -0.093 -1.3154  2.0937  3.5418
  227MOL0     H31290   4.759   8.186  -0.235 -0.8804  1.4624 -0.0058
  227MOL0     H31291   4.810   8.326  -0.341 -1.3227  2.8656  4.0588
  227MOL0     H31292   4.991   8.086  -0.282 -4.1803 -0.6785  1.5512
  227MOL0     H31293   4.903   8.113  -0.433 -0.1831 -0.1742  0.1112
  227MOL0     H31294   5.088   8.309  -0.306 -0.0998  1.1962 -1.2484
  227MOL0     H31295   5.021   8.332  -0.464 -4.3500 -0.4951  0.2201
  227MOL0     H31296   5.123   8.130  -0.550  0.8552 -1.3424  1.5626
  227MOL0     H31297   5.198   8.113  -0.383  1.0048  0.5587  0.3596
  227MOL0     H31298   5.224   8.364  -0.517 -2.3581 -1.8096  0.9786
  227MOL0     H31299   5.357   8.279  -0.425  2.9251  3.3009 -2.5074
  227MOL0     H31300   5.259   8.239  -0.720 -0.7598  3.9937  0.7511
  227MOL0     H31301   5.348   8.105  -0.635  2.8975  0.3974 -0.3834
  227MOL0     H31302   5.530   8.231  -0.614 -1.6367  2.7862  3.4473
  227MOL0     H31303   5.466   8.384  -0.669 -0.4215  0.0895  1.3555
  227MOL0     H31304   5.458   8.133  -0.844  3.0305 -0.3842  1.6598
  227MOL0     H31305   5.594   8.241  -0.841  0.3362 -2.8831  0.8536
  227MOL0     H31306   4.945   8.189   0.028  0.5113  1.5105 -1.4048
  227MOL0     H31307   4.797   8.145   0.242 -0.2163 -0.5761 -0.4679
  227MOL0     H31308   4.506   8.360   0.543  0.2400  0.2488 -3.5771
  227MOL0     H31309   4.383   8.345   0.733 -0.1119  0.5723 -0.2722
  227MOL0     H31310   2.433   8.399   0.273  1.3512 -0.7397 -1.1351
  227MOL0     H31311   2.207   8.336   0.313 -0.8670  1.1101 -1.6319
  227MOL0     H31312   1.897   7.977   0.081  0.1219  0.5236  0.2426
  227MOL0     H31313   1.704   7.872   0.002  3.8930 -0.6367  2.5199
  227MOL0     H31314   1.331   7.863  -0.111 -0.3753 -0.1473 -1.0643
  227MOL0     H31315   1.499   7.805  -0.113 -1.6644 -2.5897  1.3034
  227MOL0     H31316   1.352   7.906   0.126 -1.6055 -1.3992 -0.0757
  227MOL0     H31317   1.509   7.844   0.141 -0.7989  0.6717  1.5244
  227MOL0     H31318   1.283   7.669   0.029 -0.7608  3.0632  0.6295
  227MOL0     H31319   1.447   7.626   0.038 -0.4865 -0.8072 -1.1651
  227MOL0     H31320   1.419   7.666   0.305 -1.3769 -2.4042  3.9197
  227MOL0     H31321   1.350   7.517   0.243  0.3128  0.0746  2.2841
  227MOL0     H31322   1.033   7.791   0.376 -2.0080 -1.2903 -0.9780
  227MOL0     H31323   1.544   8.265  -0.093 -0.0290  2.0291  4.6648
  227MOL0     H31324   1.814   8.469  -0.063  1.5756 -0.4841 -0.1451
  227MOL0     H31325   1.637   8.458  -0.063 -1.4966 -0.3904 -0.3202
  227MOL0     H31326   1.722   8.452   0.085 -1.7775 -1.6469  0.1727
  228MOL0     O31327   7.321   4.338   6.676 -0.1866 -0.1006 -0.3368
  228MOL0     C31328   7.206   4.319   6.634  0.0367  0.7171 -0.0126
  228MOL0     O31329   7.167   4.270   6.509  0.2028  0.2822  0.0558
  228MOL0     C31330   7.270   4.264   6.416 -0.6392 -0.3560  0.0100
  228MOL0     C31331   7.350   4.154   6.419 -0.1360  0.1403  0.9308
  228MOL0     C31332   7.456   4.141   6.327 -0.1452  0.4129  0.1931
  228MOL0     C31333   7.488   4.244   6.245 -0.1214 -0.2346  0.2721
  228MOL0     O31334   7.603   4.233   6.175 -0.3505 -0.4925 -0.2925
  228MOL0     C31335   7.603   4.277   6.041  0.4772  0.1513  0.0019
  228MOL0     C31336   7.588   4.158   5.936 -0.4329 -0.3242  0.2716
  228MOL0     C31337   7.450   4.147   5.867 -0.2134  0.6593  0.6458
  228MOL0     C31338   7.468   4.056   5.757 -0.7721 -1.2110  0.6724
  228MOL0     C31339   7.340   4.016   5.703 -0.1573  0.1642  0.1745
  228MOL0     C31340   7.347   3.965   5.556  0.3766  0.1818 -0.1326
  228MOL0     C31341   7.333   3.809   5.540  0.7110  0.4818 -0.1943
  228MOL0     C31342   7.428   3.730   5.626 -0.5562  0.2194  0.2504
  228MOL0     N31343   7.399   3.588   5.616  0.0506  0.9986  0.3760
  228MOL0     C31344   7.325   3.521   5.714 -0.6675  0.5284 -0.6712
  228MOL0     C31345   7.285   3.401   5.663 -0.3324 -0.1091  0.7289
  228MOL0     C31346   7.196   3.300   5.746  0.1722 -0.3048  0.0514
  228MOL0     C31347   7.141   3.180   5.657  0.7904 -0.4143  0.1462
  228MOL0     C31348   7.256   3.094   5.607  0.5743  0.8039  0.6888
  228MOL0     C31349   7.198   2.972   5.532  0.0134  0.2324 -0.1690
  228MOL0     O31350   7.108   3.021   5.425 -0.0819  0.8866 -0.2544
  228MOL0     C31351   7.154   3.024   5.294 -0.6014  0.3220 -0.0444
  228MOL0     C31352   7.284   3.074   5.254  0.4020  0.3528  0.1161
  228MOL0     C31353   7.319   3.065   5.118 -0.3099  0.0288 -0.7312
  228MOL0     C31354   7.460   3.079   5.083  0.0096 -0.0379 -0.3618
  228MOL0     C31355   7.225   3.015   5.027  0.4728 -0.7283  0.3540
  228MOL0     C31356   7.259   2.999   4.880 -0.1176  0.4925  0.1759
  228MOL0     O31357   7.309   3.111   4.817 -0.2933 -0.4751 -0.8871
  228MOL0     C31358   7.364   3.093   4.685 -0.3116 -0.0322 -0.8481
  228MOL0     C31359   7.440   2.980   4.654  0.0469 -0.6075  0.7644
  228MOL0     C31360   7.504   2.981   4.529  0.6173  0.7084 -0.0229
  228MOL0     C31361   7.501   3.085   4.439  0.4281  0.1976  0.1698
  228MOL0     O31362   7.580   3.074   4.324 -0.5770  0.0592  0.2085
  228MOL0     C31363   7.615   3.200   4.248  0.2969 -0.3988  0.2950
  228MOL0     C31364   7.709   3.148   4.131  0.8393 -0.1338  0.0124
  228MOL0     C31365   7.829   3.057   4.180  1.3572 -0.7123 -0.7059
  228MOL0     C31366   7.932   3.126   4.262 -0.4358 -0.0521 -0.7128
  228MOL0     C31367   8.036   3.214   4.177  0.3612  0.7001  0.1556
  228MOL0     C31368   8.179   3.184   4.202 -0.0136  0.5407  0.1402
  228MOL0     C31369   8.265   3.280   4.108  0.4400  0.4068  0.0393
  228MOL0     C31370   8.408   3.278   4.160  1.3497 -0.9836 -0.3232
  228MOL0    Cl31371   8.417   3.355   4.319  0.0633 -0.0199  0.1933
  228MOL0     C31372   7.424   3.198   4.482  0.2470  0.3236 -0.3608
  228MOL0     C31373   7.357   3.205   4.603 -0.3367 -0.2834 -0.5316
  228MOL0     O31374   7.225   2.892   4.825  0.0073  0.2155 -0.4429
  228MOL0     C31375   7.097   2.981   5.067  0.9775 -0.4523 -0.7591
  228MOL0     C31376   7.069   2.975   5.209  0.1692  0.0007  0.4492
  228MOL0     N31377   7.343   3.397   5.533 -0.3606  0.0020 -0.2295
  228MOL0     N31378   7.407   3.505   5.506  0.1517 -0.1317 -0.0030
  228MOL0     C31379   7.415   4.366   6.248  0.2422  0.7743  0.8388
  228MOL0     C31380   7.304   4.373   6.327  1.2800  0.3041 -1.1787
  228MOL0     C31381   7.104   4.360   6.727 -0.5422  0.1651 -0.1173
  228MOL0     C31382   7.087   4.294   6.847 -0.5347  0.7719 -0.1567
  228MOL0     C31383   6.978   4.331   6.923 -0.7091  0.3036  0.7803
  228MOL0     C31384   6.891   4.430   6.889 -0.0405  0.3795 -0.2931
  228MOL0     O31385   6.782   4.478   6.957  0.0486 -0.1946  1.1473
  228MOL0     C31386   6.738   4.400   7.064 -0.3498 -0.4614  0.0353
  228MOL0     C31387   6.618   4.466   7.137  0.5148  0.3708 -0.3643
  228MOL0     C31388   6.661   4.573   7.240  0.7990  0.2298  0.2795
  228MOL0     C31389   6.542   4.624   7.318 -0.0948  0.1836  1.4404
  228MOL0     C31390   6.576   4.751   7.369  0.0200  0.2760 -0.3403
  228MOL0     C31391   6.616   4.865   7.406  0.4594  0.0139  0.2086
  228MOL0     C31392   6.904   4.489   6.763 -0.1025  0.7107 -0.0437
  228MOL0     C31393   7.010   4.455   6.683 -0.1898  0.1992 -0.3239
  228MOL0     C31394   7.022   4.530   6.552 -0.7280  0.0202  0.4544
  228MOL0     H31395   7.328   4.076   6.491 -0.3768  0.3683  1.1092
  228MOL0     H31396   7.500   4.042   6.317  2.6057  0.8292  5.1086
  228MOL0     H31397   7.696   4.334   6.042 -0.9199  2.5562 -0.1018
  228MOL0     H31398   7.533   4.355   6.009  0.8929  0.0381 -1.2057
  228MOL0     H31399   7.669   4.170   5.864  2.1547  0.3496  3.1188
  228MOL0     H31400   7.599   4.055   5.973 -0.2552 -0.8099 -1.0757
  228MOL0     H31401   7.373   4.100   5.929 -1.1415 -0.9781 -1.6092
  228MOL0     H31402   7.411   4.246   5.844 -3.4480 -0.9409 -1.5877
  228MOL0     H31403   7.532   4.101   5.680 -2.3880  0.0882  0.0382
  228MOL0     H31404   7.505   3.959   5.789  2.4176  0.1379  1.4801
  228MOL0     H31405   7.274   4.103   5.697 -2.4944 -1.5145 -0.3319
  228MOL0     H31406   7.293   3.941   5.768 -0.8160 -0.4159 -0.9276
  228MOL0     H31407   7.265   4.007   5.498 -0.8301 -2.5134 -0.5039
  228MOL0     H31408   7.436   3.997   5.500  0.1836  2.0820  0.5777
  228MOL0     H31409   7.343   3.791   5.432 -3.1409  0.5269 -0.7083
  228MOL0     H31410   7.236   3.775   5.577  1.4811 -0.4732  1.0294
  228MOL0     H31411   7.528   3.758   5.593 -0.5223 -0.6965 -0.4850
  228MOL0     H31412   7.423   3.756   5.732 -1.5847  0.9047  0.0553
  228MOL0     H31413   7.291   3.548   5.813 -2.2066 -2.4856 -0.2768
  228MOL0     H31414   7.108   3.354   5.783 -1.2712 -0.1875 -3.1392
  228MOL0     H31415   7.247   3.263   5.835  1.1205 -1.2936 -0.8794
  228MOL0     H31416   7.055   3.129   5.702  1.3200 -2.3643 -0.9436
  228MOL0     H31417   7.098   3.230   5.570  3.5179  2.6320  0.3364
  228MOL0     H31418   7.308   3.153   5.531 -0.6709  2.3877  1.0083
  228MOL0     H31419   7.330   3.058   5.679  2.0346 -0.0458 -1.1437
  228MOL0     H31420   7.277   2.914   5.485  0.2176  0.1320  0.2945
  228MOL0     H31421   7.140   2.905   5.596  0.3990 -1.9851 -2.0081
  228MOL0     H31422   7.344   3.114   5.334 -0.0001 -1.5546  1.4575
  228MOL0     H31423   7.479   3.012   4.999  0.9514 -1.6203  1.0523
  228MOL0     H31424   7.526   3.039   5.161  1.8887 -0.9469 -2.3273
  228MOL0     H31425   7.485   3.184   5.068 -0.0760 -0.2835 -2.4298
  228MOL0     H31426   7.454   2.890   4.712  1.0508 -0.8298  0.2082
  228MOL0     H31427   7.563   2.896   4.496 -0.4702 -0.2852  0.5080
  228MOL0     H31428   7.525   3.244   4.204  0.0368 -0.7786  0.4425
  228MOL0     H31429   7.660   3.274   4.314  0.4335 -0.5379  0.3592
  228MOL0     H31430   7.642   3.085   4.071  2.8495 -2.3351 -0.0355
  228MOL0     H31431   7.741   3.234   4.071  0.1205 -0.5997 -1.0566
  228MOL0     H31432   7.875   3.016   4.089 -1.6329 -1.9898 -1.7592
  228MOL0     H31433   7.785   2.971   4.232  1.1507  0.7340  1.6133
  228MOL0     H31434   7.987   3.046   4.311 -2.0162 -1.3674 -0.9790
  228MOL0     H31435   7.878   3.181   4.340 -4.7681 -1.5821 -2.3061
  228MOL0     H31436   8.016   3.197   4.071  1.8948  2.6475 -0.4970
  228MOL0     H31437   8.013   3.319   4.197 -3.8866  0.0868 -0.7027
  228MOL0     H31438   8.205   3.080   4.177  1.5950  1.1051 -0.6897
  228MOL0     H31439   8.199   3.198   4.309  0.0337 -1.4705  0.4398
  228MOL0     H31440   8.229   3.383   4.103 -3.1792 -0.7705 -1.5403
  228MOL0     H31441   8.275   3.249   4.003  2.0944  1.6782 -0.2242
  228MOL0     H31442   8.461   3.346   4.093  0.8561  3.1070  3.0578
  228MOL0     H31443   8.441   3.174   4.172 -1.0501 -1.4895  4.2526
  228MOL0     H31444   7.397   3.277   4.412 -2.3586 -1.8890 -2.0690
  228MOL0     H31445   7.298   3.288   4.642 -0.5902 -1.4977  1.8308
  228MOL0     H31446   7.030   2.939   4.992  0.0495  0.7699 -0.6587
  228MOL0     H31447   6.969   2.944   5.237 -0.2742 -0.7168 -1.7541
  228MOL0     H31448   7.435   4.458   6.194 -0.2423  0.0231 -0.6905
  228MOL0     H31449   7.241   4.461   6.335  0.9954  0.1360 -1.5608
  228MOL0     H31450   7.141   4.205   6.875 -1.3930  1.1814  3.2189
  228MOL0     H31451   6.961   4.272   7.013 -0.0937  1.0619  1.4074
  228MOL0     H31452   6.711   4.303   7.020  2.0733 -0.3497 -1.9323
  228MOL0     H31453   6.821   4.382   7.133 -1.2882 -2.2677  0.7761
  228MOL0     H31454   6.567   4.388   7.195  1.5922 -0.1619 -0.0931
  228MOL0     H31455   6.547   4.499   7.061  1.6344 -1.8070 -2.4910
  228MOL0     H31456   6.742   4.540   7.305  0.7187 -3.2192 -1.1859
  228MOL0     H31457   6.703   4.654   7.179 -0.5320  1.3814  0.8141
  228MOL0     H31458   6.522   4.550   7.396 -1.7621 -0.2528  0.6510
  228MOL0     H31459   6.449   4.644   7.262 -0.0838 -0.3600  1.2158
  228MOL0     H31460   6.657   4.963   7.418  0.5668  0.1832 -1.4104
  228MOL0     H31461   6.842   4.563   6.713 -0.3000  0.2861 -0.4329
  228MOL0     H31462   6.952   4.613   6.540  0.5043  0.7287 -2.9399
  228MOL0     H31463   7.122   4.574   6.559  0.1441 -2.1037  3.5295
  228MOL0     H31464   7.012   4.471   6.461  1.6912  1.3669 -0.7906
  229MOL0     O31465   6.757   2.622  11.000 -0.2054 -0.2248 -0.0739
  229MOL0     C31466   6.631   2.630  10.988 -0.6286  0.5528 -0.9128
  229MOL0     O31467   6.572   2.629  10.869 -0.3285 -0.0338  0.3146
  229MOL0     C31468   6.648   2.600  10.757  0.1861 -0.0001  0.0058
  229MOL0     C31469   6.693   2.474  10.724  0.7576 -0.1745  0.1964
  229MOL0     C31470   6.786   2.457  10.627 -0.3109 -1.0355  0.8104
  229MOL0     C31471   6.825   2.570  10.547 -0.5968  0.2192  0.2942
  229MOL0     O31472   6.925   2.537  10.450  0.6225  0.0616 -0.0167
  229MOL0     C31473   6.956   2.629  10.346  0.4078 -0.6147 -0.5448
  229MOL0     C31474   7.064   2.583  10.255 -0.1805 -1.1914  0.2569
  229MOL0     C31475   7.193   2.544  10.329  0.1217  0.3616  1.0520
  229MOL0     C31476   7.294   2.489  10.218 -0.0262  0.6276 -0.4809
  229MOL0     C31477   7.253   2.339  10.199 -0.1747  0.4590  0.6070
  229MOL0     C31478   7.360   2.250  10.141 -0.8284  0.5294 -0.1179
  229MOL0     C31479   7.460   2.311  10.034 -0.3820  0.1175 -0.2044
  229MOL0     C31480   7.390   2.326   9.896 -0.1816 -1.1507  0.0604
  229MOL0     N31481   7.479   2.348   9.786 -0.0365  0.0749 -0.7356
  229MOL0     C31482   7.447   2.362   9.649 -0.1329 -0.4460 -0.5641
  229MOL0     C31483   7.560   2.369   9.575 -0.7775 -0.1667 -0.2358
  229MOL0     C31484   7.588   2.387   9.429 -0.8227 -1.0325  0.1029
  229MOL0     C31485   7.573   2.252   9.369 -0.8307 -0.5464 -0.3017
  229MOL0     C31486   7.653   2.218   9.252 -0.3830  0.6543 -0.3181
  229MOL0     C31487   7.646   2.069   9.223 -0.4297  0.1728  0.5482
  229MOL0     O31488   7.522   2.044   9.143 -1.5484 -0.2208 -0.5789
  229MOL0     C31489   7.505   1.913   9.117  0.6808  0.2025  0.4556
  229MOL0     C31490   7.382   1.886   9.052 -1.4678 -0.1326  0.6899
  229MOL0     C31491   7.362   1.768   8.987 -0.3269 -0.2362  0.3006
  229MOL0     C31492   7.248   1.757   8.883 -1.0217 -0.3887 -0.4374
  229MOL0     C31493   7.446   1.649   9.014 -0.6434 -0.6572 -0.3350
  229MOL0     C31494   7.439   1.516   8.947 -0.2676 -0.6858  0.0769
  229MOL0     O31495   7.473   1.407   9.027  0.5935  0.0173  0.2571
  229MOL0     C31496   7.491   1.293   8.958  0.6946  1.6802 -0.9501
  229MOL0     C31497   7.596   1.275   8.867 -0.0609  0.2051 -0.2024
  229MOL0     C31498   7.613   1.153   8.807  0.2599 -0.0053  0.4273
  229MOL0     C31499   7.535   1.039   8.847 -0.1289 -0.3542 -0.0697
  229MOL0     O31500   7.555   0.908   8.814  0.8443  0.2785  0.3996
  229MOL0     C31501   7.628   0.888   8.689 -0.2818  0.4266 -0.4492
  229MOL0     C31502   7.545   0.925   8.568  0.2259  0.4431 -0.1724
  229MOL0     C31503   7.620   0.922   8.427  0.3116 -1.1341  0.2503
  229MOL0     C31504   7.601   0.784   8.353 -0.0549  0.2259  0.6672
  229MOL0     C31505   7.673   0.792   8.220  0.3515  0.3502 -0.5090
  229MOL0     C31506   7.827   0.849   8.213  0.3832 -0.5471 -0.7366
  229MOL0     C31507   7.902   0.830   8.081 -0.0944  0.3438  0.1573
  229MOL0     C31508   7.937   0.675   8.037 -1.5772 -0.3896  0.4772
  229MOL0    Cl31509   8.097   0.613   8.088  0.5328  0.3330 -0.3324
  229MOL0     C31510   7.442   1.056   8.943 -0.2562 -0.5640  0.3657
  229MOL0     C31511   7.413   1.184   9.003 -0.2802  0.3327 -1.2009
  229MOL0     O31512   7.410   1.518   8.827 -0.1575  0.3899 -0.9164
  229MOL0     C31513   7.552   1.673   9.094  0.1069 -0.8995 -0.3028
  229MOL0     C31514   7.592   1.802   9.138 -0.1011 -0.2185  1.5891
  229MOL0     N31515   7.659   2.353   9.671 -0.2998 -0.3267  0.5062
  229MOL0     N31516   7.615   2.344   9.791 -0.4997 -0.7436  0.2969
  229MOL0     C31517   6.763   2.699  10.563 -0.2962  0.2551  0.9515
  229MOL0     C31518   6.682   2.712  10.676 -0.4883 -0.5655  0.3480
  229MOL0     C31519   6.548   2.617  11.106  0.4408 -0.7282 -0.3479
  229MOL0     C31520   6.414   2.657  11.088  0.1330 -0.5699  0.3513
  229MOL0     C31521   6.332   2.683  11.207  0.7865 -0.4947  0.4689
  229MOL0     C31522   6.380   2.669  11.332 -0.9644 -0.3918 -0.1887
  229MOL0     O31523   6.300   2.696  11.437  0.1539  0.1242 -0.3177
  229MOL0     C31524   6.340   2.813  11.503  0.0701  0.0327  0.2028
  229MOL0     C31525   6.319   2.936  11.422 -0.4050 -0.2231  0.5291
  229MOL0     C31526   6.182   2.995  11.444 -0.2779  0.3134  1.0767
  229MOL0     C31527   6.069   2.894  11.428  1.2115  0.3924 -0.1685
  229MOL0     C31528   6.052   2.835  11.562  1.2247  0.0636  0.5466
  229MOL0     C31529   6.049   2.779  11.668  0.4309 -0.2633  0.4104
  229MOL0     C31530   6.513   2.631  11.344 -0.8903  0.9132 -0.2224
  229MOL0     C31531   6.597   2.597  11.234  0.2611 -0.7249 -0.1235
  229MOL0     C31532   6.739   2.564  11.270 -0.1462  0.7643  0.1197
  229MOL0     H31533   6.681   2.378  10.773  0.6796 -0.2062  0.1152
  229MOL0     H31534   6.835   2.361  10.619 -0.4286 -1.2411  2.2762
  229MOL0     H31535   7.004   2.717  10.390  0.1563  0.5548 -2.5242
  229MOL0     H31536   6.864   2.664  10.299 -0.7043 -0.8118  1.3561
  229MOL0     H31537   7.026   2.496  10.199 -0.9071  0.5489 -2.1352
  229MOL0     H31538   7.074   2.668  10.187  0.6694 -1.1369  0.4473
  229MOL0     H31539   7.232   2.634  10.377 -1.0778  1.8358 -0.5963
  229MOL0     H31540   7.176   2.467  10.405 -0.6711  1.2762  1.8313
  229MOL0     H31541   7.281   2.546  10.126  0.8576 -1.8712 -2.2585
  229MOL0     H31542   7.399   2.502  10.246  0.4382  0.5934 -2.1172
  229MOL0     H31543   7.171   2.335  10.128 -0.8426 -0.4420  1.4043
  229MOL0     H31544   7.216   2.295  10.292 -1.0384 -0.0604  0.0233
  229MOL0     H31545   7.416   2.211  10.226 -0.6348 -4.9615 -2.3770
  229MOL0     H31546   7.308   2.164  10.096 -1.7248  1.3277 -0.6538
  229MOL0     H31547   7.534   2.231  10.020 -1.7745 -1.1398 -0.7696
  229MOL0     H31548   7.517   2.398  10.065  0.2077  0.4266 -2.0396
  229MOL0     H31549   7.337   2.236   9.862 -0.8006 -0.5250 -0.6626
  229MOL0     H31550   7.314   2.405   9.900 -1.3649 -2.0554 -2.5854
  229MOL0     H31551   7.348   2.367   9.604 -0.2680  2.6355 -0.0835
  229MOL0     H31552   7.693   2.419   9.423 -0.2260 -1.5369  4.6644
  229MOL0     H31553   7.526   2.467   9.389  1.3870  0.9287  0.3771
  229MOL0     H31554   7.598   2.178   9.445 -0.5233 -0.6077 -0.4620
  229MOL0     H31555   7.466   2.244   9.348 -0.9713  0.6697 -0.1337
  229MOL0     H31556   7.628   2.283   9.167  3.2132  1.3292 -1.0189
  229MOL0     H31557   7.757   2.251   9.267 -0.2931  0.2848 -0.1182
  229MOL0     H31558   7.743   2.036   9.185  0.4320  1.0745  1.8543
  229MOL0     H31559   7.633   2.002   9.308 -0.6145  1.8386  1.8880
  229MOL0     H31560   7.296   1.953   9.049 -2.0351 -0.6679  3.0297
  229MOL0     H31561   7.193   1.852   8.884  3.7331  2.6794 -1.3833
  229MOL0     H31562   7.188   1.667   8.901 -2.1995  0.5478  0.5543
  229MOL0     H31563   7.282   1.752   8.780  2.9456 -2.0668  0.7775
  229MOL0     H31564   7.667   1.353   8.842  0.5219  0.2492  1.4805
  229MOL0     H31565   7.690   1.138   8.731  1.4926 -3.2983  2.1079
  229MOL0     H31566   7.722   0.944   8.686 -0.8131  1.4904  1.2852
  229MOL0     H31567   7.661   0.784   8.685 -1.9450 -0.0994 -2.3408
  229MOL0     H31568   7.455   0.864   8.561 -0.0730  0.8983 -0.3090
  229MOL0     H31569   7.508   1.027   8.579 -0.4717  0.1023  0.7358
  229MOL0     H31570   7.719   0.955   8.457 -0.8048  1.3689  1.4256
  229MOL0     H31571   7.570   0.992   8.359  0.5564 -0.4870  0.7286
  229MOL0     H31572   7.500   0.761   8.320  1.4261 -3.6434 -1.8437
  229MOL0     H31573   7.640   0.698   8.409  0.5236 -0.2487 -0.4392
  229MOL0     H31574   7.667   0.687   8.190 -0.0585  0.5589 -1.1672
  229MOL0     H31575   7.616   0.845   8.144  2.4626 -1.6630 -3.7412
  229MOL0     H31576   7.885   0.791   8.285 -1.0582 -2.2069 -0.8460
  229MOL0     H31577   7.833   0.956   8.234 -1.6515 -0.1304 -1.9795
  229MOL0     H31578   7.996   0.885   8.093  0.6574 -0.4102 -1.7756
  229MOL0     H31579   7.863   0.885   7.995  2.1984 -2.1592 -2.7073
  229MOL0     H31580   7.960   0.681   7.930 -0.5103 -0.2819  0.7047
  229MOL0     H31581   7.852   0.606   8.041 -2.7462  1.0072  0.3010
  229MOL0     H31582   7.379   0.972   8.972 -1.3701  0.5285  1.2234
  229MOL0     H31583   7.349   1.171   9.090  0.7745 -5.3604 -0.8318
  229MOL0     H31584   7.616   1.589   9.119  0.9925 -0.9126 -2.4237
  229MOL0     H31585   7.691   1.801   9.183  0.3647  0.7043  0.6465
  229MOL0     H31586   6.797   2.784  10.505 -0.8425 -0.3674 -0.3383
  229MOL0     H31587   6.635   2.807  10.698 -2.4791 -1.1714 -1.0395
  229MOL0     H31588   6.377   2.660  10.986  1.6593 -2.7433 -0.3604
  229MOL0     H31589   6.227   2.707  11.198  0.4457 -1.8779  0.5213
  229MOL0     H31590   6.301   2.826  11.604 -0.8438  2.4872 -0.4031
  229MOL0     H31591   6.446   2.795  11.524  0.5572 -2.8535 -3.6150
  229MOL0     H31592   6.341   2.931  11.315 -2.0736 -0.5417  0.1757
  229MOL0     H31593   6.403   2.999  11.451  1.0226 -1.6767 -0.2784
  229MOL0     H31594   6.181   3.048  11.540  2.6802  0.9552  0.8458
  229MOL0     H31595   6.178   3.072  11.367 -1.4795 -0.9336 -0.1550
  229MOL0     H31596   6.080   2.811  11.358 -2.0811 -1.4621  1.3010
  229MOL0     H31597   5.974   2.941  11.400  0.8024  1.2744  2.4253
  229MOL0     H31598   6.051   2.726  11.761 -0.0489 -3.6153 -1.3506
  229MOL0     H31599   6.555   2.624  11.444 -3.4151 -2.0049  0.7721
  229MOL0     H31600   6.794   2.489  11.212 -0.5237  0.5958 -0.0234
  229MOL0     H31601   6.809   2.648  11.275  0.9821 -0.1338 -0.1761
  229MOL0     H31602   6.730   2.513  11.367 -1.3553  2.9955  1.2492
  230MOL0     O31603  10.711  10.180   3.516  0.2015 -0.0862  0.4413
  230MOL0     C31604  10.659  10.171   3.403 -1.0624 -0.0172  0.4101
  230MOL0     O31605  10.606  10.277   3.335 -0.2041 -0.4131  0.4443
  230MOL0     C31606  10.603  10.400   3.394  0.1054  0.5389 -0.6630
  230MOL0     C31607  10.512  10.427   3.481  0.2996  0.8284 -0.5306
  230MOL0     C31608  10.510  10.554   3.544 -0.0603  0.8561 -0.2807
  230MOL0     C31609  10.601  10.657   3.507 -0.8443  0.2068 -0.2809
  230MOL0     O31610  10.607  10.781   3.569  0.3037 -0.1593  0.6127
  230MOL0     C31611  10.620  10.768   3.713 -0.4724 -0.6826 -0.0861
  230MOL0     C31612  10.756  10.710   3.758 -0.5483  0.0910 -0.5523
  230MOL0     C31613  10.871  10.795   3.717 -0.1929  0.1820  0.1264
  230MOL0     C31614  10.994  10.776   3.809 -0.0177 -0.2862  0.7217
  230MOL0     C31615  11.112  10.856   3.747  0.7182  0.1208 -0.4521
  230MOL0     C31616  11.107  11.007   3.789  0.2515  0.5575 -0.2616
  230MOL0     C31617  11.214  11.088   3.712  0.5730  0.7339  0.0021
  230MOL0     C31618  11.233  11.231   3.773 -0.6888  0.0967  0.2546
  230MOL0     N31619  11.113  11.311   3.781 -0.1308  0.4931 -1.0704
  230MOL0     C31620  11.040  11.328   3.901 -0.3555 -0.5133  0.6369
  230MOL0     C31621  10.929  11.372   3.859  0.5070 -0.5306 -0.2469
  230MOL0     C31622  10.802  11.387   3.947 -0.9272 -0.0550  0.2416
  230MOL0     C31623  10.803  11.528   4.013  0.6587  0.2066 -0.2815
  230MOL0     C31624  10.681  11.549   4.099 -0.7859 -0.5660  0.0007
  230MOL0     C31625  10.714  11.539   4.244  0.0007 -0.5851 -0.2236
  230MOL0     O31626  10.591  11.523   4.326  0.1231  0.8280  0.3887
  230MOL0     C31627  10.560  11.419   4.402 -0.0459 -0.4128 -0.3443
  230MOL0     C31628  10.454  11.424   4.495  0.0824 -0.0837 -0.2774
  230MOL0     C31629  10.416  11.320   4.584 -0.2974 -1.2839  0.0335
  230MOL0     C31630  10.307  11.341   4.692  0.1827 -0.3012 -1.0690
  230MOL0     C31631  10.494  11.198   4.573  0.4049 -0.2207  0.3395
  230MOL0     C31632  10.459  11.074   4.651 -0.1024 -0.2689  0.3188
  230MOL0     O31633  10.462  10.959   4.581 -0.1483  0.9175  0.4178
  230MOL0     C31634  10.428  10.834   4.642  0.5974 -0.9200 -0.0390
  230MOL0     C31635  10.328  10.761   4.578 -0.7093  0.8825  0.2676
  230MOL0     C31636  10.302  10.633   4.618  0.1894  0.4063  0.2417
  230MOL0     C31637  10.377  10.566   4.718 -0.7822 -0.7004 -0.2315
  230MOL0     O31638  10.372  10.434   4.732  0.3194 -0.0071  0.8244
  230MOL0     C31639  10.446  10.370   4.836 -0.2312  0.0764  0.5932
  230MOL0     C31640  10.438  10.214   4.809  0.2881 -0.5421 -1.0390
  230MOL0     C31641  10.292  10.166   4.831  0.4373 -0.0973  1.3272
  230MOL0     C31642  10.278  10.025   4.798 -0.6997  0.1838  0.6723
  230MOL0     C31643  10.142   9.962   4.840  0.6673  0.1537  0.0570
  230MOL0     C31644  10.135   9.814   4.787  0.0525  0.0591  0.7570
  230MOL0     C31645  10.019   9.732   4.858 -0.4417 -0.8535  0.5949
  230MOL0     C31646   9.881   9.777   4.814  0.0071  0.1683 -0.3452
  230MOL0    Cl31647   9.869   9.783   4.634 -0.0943 -0.3379 -0.5993
  230MOL0     C31648  10.476  10.652   4.786 -0.7556  0.7411 -0.1294
  230MOL0     C31649  10.487  10.783   4.756 -0.3454 -0.1127  0.5210
  230MOL0     O31650  10.446  11.093   4.769  0.4726  0.0658  0.5399
  230MOL0     C31651  10.592  11.182   4.471  0.2734  0.0032  0.9535
  230MOL0     C31652  10.621  11.294   4.392  0.0510 -0.0686 -0.0635
  230MOL0     N31653  10.936  11.386   3.720  0.3071  0.4406 -0.3518
  230MOL0     N31654  11.047  11.354   3.674 -0.1773  0.3987  0.3811
  230MOL0     C31655  10.685  10.630   3.399 -0.9950  0.0472 -0.3388
  230MOL0     C31656  10.689  10.505   3.345  0.4650  0.5013  0.1844
  230MOL0     C31657  10.666  10.045   3.321 -0.1465 -0.5858 -0.1439
  230MOL0     C31658  10.687  10.061   3.187  0.7110 -0.7880  0.8244
  230MOL0     C31659  10.686   9.951   3.103 -0.1249  0.1995  0.1491
  230MOL0     C31660  10.686   9.824   3.149 -0.3004  1.2608  0.3331
  230MOL0     O31661  10.686   9.707   3.075 -0.3769  0.0549  0.1834
  230MOL0     C31662  10.717   9.696   2.931  0.6822 -0.4105 -0.0238
  230MOL0     C31663  10.791   9.564   2.908  0.4187  0.3023 -0.1395
  230MOL0     C31664  10.828   9.537   2.763 -0.3554 -0.4618  1.0059
  230MOL0     C31665  10.754   9.433   2.691  0.6894  0.1702 -0.0541
  230MOL0     C31666  10.612   9.456   2.694  0.0000 -0.5448  0.9005
  230MOL0     C31667  10.488   9.456   2.705 -0.2296  0.0529 -0.9005
  230MOL0     C31668  10.682   9.810   3.286 -0.5564  0.5536  1.0909
  230MOL0     C31669  10.668   9.916   3.373 -0.4452  0.0579 -0.0258
  230MOL0     C31670  10.666   9.889   3.524  0.7771  0.3739  0.8812
  230MOL0     H31671  10.439  10.352   3.511  1.5206  0.1910  0.9735
  230MOL0     H31672  10.437  10.570   3.623  0.2708 -0.9111  0.4116
  230MOL0     H31673  10.539  10.711   3.760 -0.3241 -0.2470  0.7184
  230MOL0     H31674  10.624  10.871   3.749 -1.2711 -0.9895  0.9615
  230MOL0     H31675  10.748  10.703   3.867  0.2406  0.4773 -0.4601
  230MOL0     H31676  10.768  10.608   3.721  0.2649 -1.0125  2.4596
  230MOL0     H31677  10.886  10.768   3.612  1.9324  1.3350  0.0687
  230MOL0     H31678  10.848  10.901   3.727 -1.9097  0.1136 -2.2272
  230MOL0     H31679  10.973  10.804   3.913 -0.9742  1.5825  0.0803
  230MOL0     H31680  11.030  10.673   3.803  4.4698  1.1394 -1.2853
  230MOL0     H31681  11.111  10.855   3.638  3.5613  2.1665 -0.5835
  230MOL0     H31682  11.209  10.814   3.773 -0.0707 -1.6896 -0.2398
  230MOL0     H31683  11.004  11.041   3.775  0.0950  0.4859  0.6180
  230MOL0     H31684  11.120  11.021   3.897 -2.1532  0.7360  0.0552
  230MOL0     H31685  11.186  11.107   3.608  2.2304 -0.2780 -0.6674
  230MOL0     H31686  11.309  11.033   3.717 -0.0096 -0.5284 -1.9045
  230MOL0     H31687  11.268  11.228   3.876  2.4280 -0.8096 -0.7054
  230MOL0     H31688  11.318  11.276   3.722  0.3928 -2.1931 -0.1002
  230MOL0     H31689  11.066  11.292   4.000 -1.0997  1.0800  1.4446
  230MOL0     H31690  10.805  11.311   4.025  1.9891  0.4231  0.6987
  230MOL0     H31691  10.713  11.363   3.887 -1.4633  0.9650  0.6039
  230MOL0     H31692  10.895  11.532   4.072 -0.3273  1.3439  1.2336
  230MOL0     H31693  10.815  11.610   3.942  0.0183  1.1183  0.6428
  230MOL0     H31694  10.630  11.643   4.076 -1.1436 -1.0222 -1.1350
  230MOL0     H31695  10.611  11.466   4.079 -2.2457  0.5716  0.1984
  230MOL0     H31696  10.795  11.472   4.275 -1.3013 -0.9824  2.6313
  230MOL0     H31697  10.753  11.638   4.267  4.7416 -2.2531 -0.1065
  230MOL0     H31698  10.402  11.518   4.478 -0.8366 -0.8687 -2.0550
  230MOL0     H31699  10.351  11.325   4.791  3.3183 -1.5869 -2.5191
  230MOL0     H31700  10.216  11.281   4.680  0.0659 -0.8812  1.8478
  230MOL0     H31701  10.268  11.442   4.686 -2.0495 -1.0824 -0.6359
  230MOL0     H31702  10.270  10.809   4.500 -0.8786  0.1051 -0.0925
  230MOL0     H31703  10.223  10.586   4.560 -1.6695  1.0102  2.1663
  230MOL0     H31704  10.551  10.403   4.842  0.2221 -1.2051 -0.0384
  230MOL0     H31705  10.395  10.394   4.930 -1.2215 -2.3542  0.7414
  230MOL0     H31706  10.466  10.192   4.706 -1.2612 -2.0281 -1.1856
  230MOL0     H31707  10.499  10.155   4.878 -0.5582 -2.0936 -1.5791
  230MOL0     H31708  10.226  10.220   4.763  1.8021  0.4646  0.3816
  230MOL0     H31709  10.266  10.176   4.936  1.3577 -1.0574  1.6631
  230MOL0     H31710  10.360   9.965   4.839  0.7378 -0.0852 -2.3095
  230MOL0     H31711  10.279  10.030   4.689 -1.4319 -0.1130  0.6423
  230MOL0     H31712  10.147   9.965   4.949 -0.5102  0.3458  0.1220
  230MOL0     H31713  10.058  10.022   4.804  0.3668 -0.8682 -0.9944
  230MOL0     H31714  10.235   9.770   4.799  0.1062 -1.0511 -2.5862
  230MOL0     H31715  10.111   9.821   4.681  0.2937  0.4599  0.7315
  230MOL0     H31716  10.016   9.743   4.966 -1.1825 -2.1868  0.7395
  230MOL0     H31717  10.031   9.628   4.825 -1.6662 -1.4205  1.8632
  230MOL0     H31718   9.882   9.877   4.858 -0.9531  0.8953 -1.8825
  230MOL0     H31719   9.800   9.720   4.860 -1.2484  1.7079 -0.5840
  230MOL0     H31720  10.532  10.624   4.875  0.9706 -0.7959 -1.6045
  230MOL0     H31721  10.550  10.849   4.815  0.0620 -1.8626  2.1516
  230MOL0     H31722  10.648  11.092   4.450  2.1025  1.2095  0.3740
  230MOL0     H31723  10.692  11.274   4.312 -0.6314 -2.8586 -0.0450
  230MOL0     H31724  10.761  10.696   3.357  2.2241 -1.6894  2.2644
  230MOL0     H31725  10.751  10.490   3.257  1.3205 -1.3837  1.0481
  230MOL0     H31726  10.686  10.156   3.136  0.1472 -1.5795 -0.7176
  230MOL0     H31727  10.700   9.958   2.995 -0.2406 -2.1622 -0.0709
  230MOL0     H31728  10.625   9.695   2.872  1.1314  1.7380 -0.8442
  230MOL0     H31729  10.788   9.777   2.909 -0.7805  1.0558  0.4620
  230MOL0     H31730  10.750   9.469   2.944  2.4794 -0.1522  1.1881
  230MOL0     H31731  10.883   9.557   2.967  0.5040 -0.9567 -0.3831
  230MOL0     H31732  10.824   9.632   2.709 -2.3840 -0.4237  1.1453
  230MOL0     H31733  10.931   9.501   2.758 -0.2168  0.0498 -2.9520
  230MOL0     H31734  10.781   9.346   2.752  2.4953  1.5863  1.2628
  230MOL0     H31735  10.788   9.418   2.588  1.9661 -0.0075  0.3715
  230MOL0     H31736  10.381   9.463   2.716  0.0890  1.5721  2.9023
  230MOL0     H31737  10.684   9.714   3.336  0.0051  0.2166  0.4319
  230MOL0     H31738  10.626   9.789   3.543 -0.8540  0.7736 -0.3215
  230MOL0     H31739  10.767   9.897   3.565  0.0279 -0.1337  2.9223
  230MOL0     H31740  10.597   9.955   3.576 -0.0919 -0.4376  0.7833
  231MOL0     O31741   2.410   5.687   3.255  0.0737  0.7258  0.0045
  231MOL0     C31742   2.490   5.601   3.299 -0.0868 -0.0877 -0.1513
  231MOL0     O31743   2.473   5.542   3.422  0.0304 -0.2890 -0.5216
  231MOL0     C31744   2.379   5.585   3.505  0.4271  0.3834  0.1461
  231MOL0     C31745   2.390   5.684   3.600  0.2413 -0.0250 -0.5347
  231MOL0     C31746   2.277   5.721   3.673  0.1989  0.7161 -0.7169
  231MOL0     C31747   2.160   5.649   3.673  0.7090  0.1146 -0.5780
  231MOL0     O31748   2.071   5.670   3.774 -0.0155  0.3471 -0.9893
  231MOL0     C31749   1.956   5.589   3.787  0.0512  0.4930 -1.2731
  231MOL0     C31750   1.892   5.604   3.929  0.0893  0.3435 -0.6053
  231MOL0     C31751   1.753   5.540   3.939  0.5155  0.3068  0.2365
  231MOL0     C31752   1.775   5.407   4.025  0.5030 -0.2045 -0.8938
  231MOL0     C31753   1.645   5.336   4.051 -0.7129 -0.0173 -0.3661
  231MOL0     C31754   1.576   5.285   3.924 -0.7076 -0.7966 -1.3953
  231MOL0     C31755   1.448   5.210   3.961 -0.2498 -0.1774 -1.1439
  231MOL0     C31756   1.458   5.115   4.083 -1.2813  1.4213 -0.1261
  231MOL0     N31757   1.536   4.989   4.049  0.1372 -0.4984 -0.5799
  231MOL0     C31758   1.671   4.965   4.060 -0.2545  0.7853 -0.0908
  231MOL0     C31759   1.694   4.837   4.024 -1.0742 -0.4549 -0.7749
  231MOL0     C31760   1.825   4.754   4.023  0.5947 -0.1153  0.0096
  231MOL0     C31761   1.812   4.656   3.904  0.0181  1.1236  0.0311
  231MOL0     C31762   1.954   4.627   3.842  0.0840  0.1614  0.0623
  231MOL0     C31763   2.049   4.540   3.924  0.2010  0.0073 -0.3561
  231MOL0     O31764   2.106   4.612   4.038  1.4907  0.5807  0.4462
  231MOL0     C31765   2.167   4.550   4.142  0.0517  0.6511  0.1732
  231MOL0     C31766   2.179   4.410   4.170 -0.6742 -0.1266 -0.5654
  231MOL0     C31767   2.258   4.351   4.269 -0.3581  0.6668  0.3987
  231MOL0     C31768   2.252   4.202   4.267  0.6891  0.3250  0.5991
  231MOL0     C31769   2.326   4.444   4.356 -0.5302  0.0146 -0.3433
  231MOL0     C31770   2.423   4.398   4.457  0.2242 -0.5915  0.1273
  231MOL0     O31771   2.490   4.497   4.518  0.0634 -0.3251 -0.3345
  231MOL0     C31772   2.560   4.463   4.635  0.1516 -0.0624  0.2459
  231MOL0     C31773   2.501   4.387   4.734  0.5227 -0.5211 -0.7467
  231MOL0     C31774   2.562   4.375   4.863 -0.2643 -0.0382 -0.5034
  231MOL0     C31775   2.666   4.453   4.904  0.2023 -0.3354  0.6873
  231MOL0     O31776   2.716   4.439   5.034  0.4531 -0.7682 -1.1866
  231MOL0     C31777   2.842   4.502   5.071  0.0923 -0.1205 -0.4769
  231MOL0     C31778   2.867   4.485   5.222 -0.2078 -0.2000  0.2400
  231MOL0     C31779   2.760   4.529   5.317 -0.1720 -0.2184  0.1137
  231MOL0     C31780   2.790   4.481   5.464  0.1616  0.5917 -0.0981
  231MOL0     C31781   2.927   4.541   5.514 -0.4040 -0.8576 -1.4343
  231MOL0     C31782   2.923   4.685   5.527 -0.2966 -0.7772 -1.0255
  231MOL0     C31783   3.049   4.754   5.571  0.5371 -0.5300  0.3566
  231MOL0     C31784   3.032   4.909   5.576  0.3725 -0.3524  0.1506
  231MOL0    Cl31785   3.015   4.980   5.741  0.3245  0.1576 -0.1253
  231MOL0     C31786   2.723   4.532   4.802 -0.9491 -0.1979 -0.4897
  231MOL0     C31787   2.671   4.535   4.670 -0.5912 -0.3943  0.5392
  231MOL0     O31788   2.439   4.281   4.475  0.4591  1.1535  0.3474
  231MOL0     C31789   2.315   4.584   4.334 -0.1741 -0.6326  0.8670
  231MOL0     C31790   2.235   4.638   4.223 -0.0359 -0.3630 -0.3740
  231MOL0     N31791   1.568   4.789   3.996 -0.1695 -1.0610  0.6012
  231MOL0     N31792   1.476   4.881   3.997  0.5560  0.6024  0.0522
  231MOL0     C31793   2.152   5.534   3.589  0.8269  0.5159 -0.1219
  231MOL0     C31794   2.260   5.508   3.502 -0.5403 -0.3351 -0.0477
  231MOL0     C31795   2.617   5.570   3.233 -0.9398  0.5718  0.4007
  231MOL0     C31796   2.679   5.440   3.268  0.4884  0.1480  0.5709
  231MOL0     C31797   2.797   5.391   3.208 -0.6315 -0.6928 -0.4630
  231MOL0     C31798   2.865   5.477   3.112  0.0615 -0.7069 -0.7007
  231MOL0     O31799   2.986   5.443   3.065 -0.0316  0.0082  0.3932
  231MOL0     C31800   3.043   5.316   3.087 -0.9347  0.6497  0.0264
  231MOL0     C31801   3.198   5.324   3.056  0.2158  0.4945 -0.2418
  231MOL0     C31802   3.239   5.290   2.917 -0.2849 -0.0672 -0.4773
  231MOL0     C31803   3.389   5.318   2.909  0.2375 -0.1357  0.0965
  231MOL0     C31804   3.428   5.458   2.918  0.8379  0.7600  1.2352
  231MOL0     C31805   3.458   5.575   2.945  0.2166  0.2461  0.6647
  231MOL0     C31806   2.802   5.599   3.076  0.6316 -0.1207 -0.0965
  231MOL0     C31807   2.678   5.647   3.131 -0.6032 -0.5489 -0.4541
  231MOL0     C31808   2.626   5.774   3.074 -0.4588  0.0206  0.2212
  231MOL0     H31809   2.472   5.749   3.630  0.6514  1.1122 -3.7671
  231MOL0     H31810   2.277   5.789   3.757 -0.2213  0.3111 -0.3816
  231MOL0     H31811   1.981   5.484   3.774  0.4237  0.8899 -4.6925
  231MOL0     H31812   1.882   5.614   3.709 -0.2806  3.2957 -0.1946
  231MOL0     H31813   1.959   5.582   4.013  1.5212  1.2055 -1.4899
  231MOL0     H31814   1.858   5.708   3.940 -4.1256 -0.8944  0.1922
  231MOL0     H31815   1.688   5.602   4.002  2.7442  2.2833  0.7255
  231MOL0     H31816   1.711   5.519   3.840  1.0777 -0.1821  0.0954
  231MOL0     H31817   1.842   5.340   3.971 -0.4701  0.1162 -2.5847
  231MOL0     H31818   1.827   5.429   4.118 -0.6057 -1.7296  0.1399
  231MOL0     H31819   1.574   5.406   4.098 -0.1314  1.5205 -1.6635
  231MOL0     H31820   1.667   5.259   4.125  0.4108  0.0639 -0.6030
  231MOL0     H31821   1.562   5.361   3.847 -5.3501  0.9534  0.8050
  231MOL0     H31822   1.636   5.207   3.876  0.6644 -0.1819 -0.7058
  231MOL0     H31823   1.415   5.152   3.875  0.2224 -4.3309  1.1967
  231MOL0     H31824   1.369   5.281   3.984 -0.6645 -0.7306 -0.8268
  231MOL0     H31825   1.496   5.165   4.173  0.0710  1.9251 -0.9396
  231MOL0     H31826   1.356   5.083   4.106 -1.8624  4.2243  1.5728
  231MOL0     H31827   1.753   5.033   4.079  2.1819 -1.1303 -2.8202
  231MOL0     H31828   1.828   4.701   4.118  1.1998  0.7484  0.4918
  231MOL0     H31829   1.914   4.819   4.015 -1.9417  3.6551 -0.3896
  231MOL0     H31830   1.767   4.564   3.940  1.6113  0.1706 -0.2783
  231MOL0     H31831   1.737   4.692   3.834  0.2617  0.0046 -0.8327
  231MOL0     H31832   1.943   4.571   3.749  1.5569 -0.9299  0.5167
  231MOL0     H31833   2.019   4.715   3.835 -0.4732  0.6022  0.4013
  231MOL0     H31834   1.996   4.447   3.947 -0.6344  0.0096 -2.1220
  231MOL0     H31835   2.133   4.518   3.858  1.2200 -0.6251  1.0799
  231MOL0     H31836   2.125   4.350   4.096 -0.2480 -1.0535 -0.1330
  231MOL0     H31837   2.150   4.165   4.247  0.6192  0.1441  1.2568
  231MOL0     H31838   2.286   4.161   4.363  1.1224  0.1698  0.3804
  231MOL0     H31839   2.321   4.174   4.188  0.4051 -0.3986  0.5996
  231MOL0     H31840   2.404   4.340   4.723  1.3830 -2.0894 -1.9361
  231MOL0     H31841   2.507   4.322   4.940 -2.2630  4.8716  1.9247
  231MOL0     H31842   2.932   4.473   5.015  0.9640  0.7063  0.4511
  231MOL0     H31843   2.825   4.609   5.055 -1.0625 -0.2741 -0.3858
  231MOL0     H31844   2.886   4.378   5.238 -2.1457 -0.9459 -1.8931
  231MOL0     H31845   2.961   4.537   5.240  0.4187 -1.7255  1.6107
  231MOL0     H31846   2.665   4.488   5.282 -0.4234  0.1834  0.3172
  231MOL0     H31847   2.756   4.638   5.329  0.6799  0.5313 -4.5245
  231MOL0     H31848   2.791   4.371   5.461 -0.9456  0.3536  3.1534
  231MOL0     H31849   2.708   4.512   5.531  1.9945  0.7819  2.1731
  231MOL0     H31850   2.953   4.506   5.615  1.2500  0.9401 -1.1656
  231MOL0     H31851   3.014   4.513   5.453  2.3454  3.3960  0.0470
  231MOL0     H31852   2.840   4.719   5.590  0.4493  0.7087 -0.8111
  231MOL0     H31853   2.894   4.723   5.428 -0.1607 -4.9231 -2.8762
  231MOL0     H31854   3.121   4.726   5.493  0.0639 -0.9261  0.0605
  231MOL0     H31855   3.076   4.715   5.670 -2.4057 -0.2590  1.3685
  231MOL0     H31856   2.941   4.945   5.527  0.8003  0.6159  0.0433
  231MOL0     H31857   3.115   4.953   5.520  1.3561  0.1289  1.9118
  231MOL0     H31858   2.804   4.601   4.828  0.9461 -3.0481  1.8350
  231MOL0     H31859   2.718   4.605   4.602  0.1239  1.0331  2.4465
  231MOL0     H31860   2.379   4.649   4.392  6.2158 -1.9709 -3.6859
  231MOL0     H31861   2.224   4.743   4.198 -3.5773  0.0858  2.2885
  231MOL0     H31862   2.071   5.462   3.578  1.4694  0.0320 -2.2965
  231MOL0     H31863   2.255   5.425   3.432  0.0115  1.3217 -2.1359
  231MOL0     H31864   2.639   5.372   3.342  2.3761 -0.4159  1.1328
  231MOL0     H31865   2.835   5.296   3.242  0.1974 -0.7205 -1.4193
  231MOL0     H31866   3.047   5.299   3.195  0.2995  0.2646 -0.0723
  231MOL0     H31867   2.983   5.238   3.039 -0.4691  0.0198  0.4500
  231MOL0     H31868   3.242   5.259   3.133 -2.8662  0.7100  1.8912
  231MOL0     H31869   3.238   5.426   3.068 -1.3329  1.7152 -4.0972
  231MOL0     H31870   3.216   5.185   2.897  0.5341 -0.2087 -0.7142
  231MOL0     H31871   3.195   5.350   2.837 -0.5158  0.5544  0.1110
  231MOL0     H31872   3.418   5.269   2.815  1.7600 -1.6487  1.3040
  231MOL0     H31873   3.437   5.268   2.993 -1.7727 -1.1299  0.6941
  231MOL0     H31874   3.467   5.680   2.964 -0.2300  0.6889 -1.3022
  231MOL0     H31875   2.862   5.667   3.017 -0.3307  1.2083  0.4178
  231MOL0     H31876   2.615   5.854   3.149  0.6604  2.2815 -1.8712
  231MOL0     H31877   2.689   5.806   2.991  1.1061 -0.7545  1.0615
  231MOL0     H31878   2.525   5.756   3.036 -0.3250  0.5901 -0.4286
  232MOL0     O31879   8.048   8.158  11.032  0.2089  0.0065  0.4172
  232MOL0     C31880   8.015   8.225  11.126 -0.0841  0.3615 -0.4499
  232MOL0     O31881   8.087   8.318  11.193 -0.1167  0.6310 -0.3601
  232MOL0     C31882   8.215   8.348  11.159  0.6756  0.2952 -0.2602
  232MOL0     C31883   8.313   8.248  11.130  1.0878 -0.4037 -1.1610
  232MOL0     C31884   8.438   8.284  11.080 -0.4681  0.0780 -0.4836
  232MOL0     C31885   8.473   8.419  11.057 -0.4088  0.4624  0.4475
  232MOL0     O31886   8.596   8.463  11.017  0.4383  0.3494  0.2461
  232MOL0     C31887   8.708   8.367  11.023  0.4969 -0.7212 -0.3832
  232MOL0     C31888   8.755   8.341  11.170  0.6742 -0.6060  0.6161
  232MOL0     C31889   8.850   8.225  11.170  0.1610 -0.1787 -0.0472
  232MOL0     C31890   8.976   8.261  11.108 -0.6251 -0.2777 -0.2717
  232MOL0     C31891   9.087   8.162  11.165  0.5059 -0.0699  0.1818
  232MOL0     C31892   9.185   8.126  11.055  1.3921 -0.1395 -0.2446
  232MOL0     C31893   9.303   8.031  11.099  0.5850  0.3563 -0.2693
  232MOL0     C31894   9.403   8.018  10.995 -1.2917  0.9129 -0.3439
  232MOL0     N31895   9.497   7.912  11.052 -0.4889 -0.7384  0.2815
  232MOL0     C31896   9.560   7.816  10.973 -0.2962 -0.2280 -0.2429
  232MOL0     C31897   9.650   7.752  11.049  0.3461  0.7728  0.2964
  232MOL0     C31898   9.732   7.623  11.014 -0.1971  0.0301  0.2425
  232MOL0     C31899   9.731   7.533  11.137  0.1631 -0.5089 -0.2162
  232MOL0     C31900   9.804   7.396  11.129  0.5149 -0.3904  0.2352
  232MOL0     C31901   9.955   7.407  11.114 -0.0578  0.0836 -0.2232
  232MOL0     O31902  10.007   7.444  11.240 -0.8551  0.5033  0.4624
  232MOL0     C31903  10.146   7.462  11.255  0.1850  0.7963  0.7246
  232MOL0     C31904  10.199   7.539  11.351 -0.1854 -0.9517 -0.2837
  232MOL0     C31905  10.336   7.560  11.369  1.1091 -0.8001  0.3566
  232MOL0     C31906  10.368   7.649  11.486 -0.2235  0.7383 -0.9735
  232MOL0     C31907  10.432   7.492  11.289 -0.0394  0.5092  0.7424
  232MOL0     C31908  10.579   7.505  11.304 -0.2286 -0.3498 -0.0687
  232MOL0     O31909  10.652   7.433  11.214 -0.0301  0.1338 -0.6011
  232MOL0     C31910  10.791   7.432  11.227 -0.9262 -0.2878 -0.2742
  232MOL0     C31911  10.857   7.485  11.123 -0.6569  0.3611 -0.3180
  232MOL0     C31912  10.993   7.485  11.131  0.5948 -0.2552 -0.4619
  232MOL0     C31913  11.069   7.446  11.237 -0.5669  0.2631  0.3219
  232MOL0     O31914  11.206   7.449  11.214  1.4646 -0.0982 -0.0788
  232MOL0     C31915  11.299   7.422  11.317  0.3733  0.4349  0.0188
  232MOL0     C31916  11.329   7.546  11.399  0.6937 -0.2306 -0.2000
  232MOL0     C31917  11.372   7.680  11.328 -0.0020 -0.4740  0.5464
  232MOL0     C31918  11.398   7.785  11.438  0.0659 -0.5413 -0.2734
  232MOL0     C31919  11.452   7.908  11.366  0.1963 -0.3165  0.6470
  232MOL0     C31920  11.533   8.007  11.452 -0.6211  0.0479 -0.2481
  232MOL0     C31921  11.600   7.938  11.573  0.4600 -0.8822 -1.0944
  232MOL0     C31922  11.672   8.043  11.657 -0.5939  0.7867  0.4107
  232MOL0    Cl31923  11.738   7.954  11.790 -0.5585  0.2519  0.4393
  232MOL0     C31924  11.005   7.406  11.348  0.0106  0.0109  0.1766
  232MOL0     C31925  10.863   7.396  11.343  0.6786  0.5079 -0.1623
  232MOL0     O31926  10.626   7.585  11.381 -0.1558  0.1381 -0.5798
  232MOL0     C31927  10.375   7.410  11.193  0.5327 -0.0133  1.2087
  232MOL0     C31928  10.234   7.391  11.178 -0.1766 -0.3943  0.0252
  232MOL0     N31929   9.627   7.799  11.180 -0.0582 -0.4482  0.6148
  232MOL0     N31930   9.532   7.884  11.180  0.4629 -0.5579  0.4689
  232MOL0     C31931   8.376   8.512  11.090  0.4873 -0.3021 -0.4683
  232MOL0     C31932   8.250   8.486  11.145 -0.6697 -0.3041  0.6069
  232MOL0     C31933   7.875   8.208  11.172  0.3104  0.6451 -0.2162
  232MOL0     C31934   7.777   8.251  11.076  0.5863  0.0269 -0.4220
  232MOL0     C31935   7.637   8.207  11.098  0.4156  0.2656 -0.3216
  232MOL0     C31936   7.594   8.164  11.222 -1.0294  0.3259 -0.3427
  232MOL0     O31937   7.464   8.158  11.262 -0.8816  0.1210  0.5443
  232MOL0     C31938   7.360   8.199  11.172 -0.0808  0.2201 -0.0818
  232MOL0     C31939   7.345   8.356  11.198 -0.8015 -0.3557  0.2288
  232MOL0     C31940   7.239   8.430  11.115  0.3643 -0.1538 -0.2539
  232MOL0     C31941   7.251   8.406  10.961 -0.7469  0.2180 -0.2513
  232MOL0     C31942   7.142   8.480  10.905  0.3063 -0.2374  0.6480
  232MOL0     C31943   7.048   8.538  10.853  1.2384 -0.3685  0.7503
  232MOL0     C31944   7.696   8.139  11.321  0.6532 -0.3942 -0.7096
  232MOL0     C31945   7.834   8.163  11.297  0.7118  0.7206 -0.1392
  232MOL0     C31946   7.925   8.139  11.410  0.4435  0.3924  0.4198
  232MOL0     H31947   8.284   8.149  11.161  1.9821 -0.1968  0.4763
  232MOL0     H31948   8.510   8.204  11.069 -2.0587 -1.1320 -3.3332
  232MOL0     H31949   8.783   8.415  10.960 -0.4214 -2.5253 -2.9930
  232MOL0     H31950   8.687   8.278  10.963 -4.1798  0.3245 -0.6947
  232MOL0     H31951   8.805   8.431  11.209  2.1335  0.0770 -2.5186
  232MOL0     H31952   8.669   8.323  11.235 -0.4345  0.6795 -0.4559
  232MOL0     H31953   8.875   8.211  11.276 -1.0240  2.5259  0.6724
  232MOL0     H31954   8.804   8.135  11.129 -0.1903  0.2858 -0.6726
  232MOL0     H31955   8.967   8.246  11.000  2.2648  4.3289 -1.4524
  232MOL0     H31956   9.012   8.360  11.138  2.3332 -1.6869  1.2830
  232MOL0     H31957   9.033   8.073  11.198  0.9988 -0.3690  0.1876
  232MOL0     H31958   9.130   8.203  11.257  2.1242 -1.5004  0.1229
  232MOL0     H31959   9.125   8.070  10.983  1.9461 -2.3928  0.9516
  232MOL0     H31960   9.232   8.212  11.005  2.5822 -2.0424 -2.5985
  232MOL0     H31961   9.249   7.939  11.123  1.3185  0.5419  2.3310
  232MOL0     H31962   9.346   8.071  11.191 -0.8065  0.2992  0.4452
  232MOL0     H31963   9.361   7.988  10.899 -0.5982 -0.6199 -0.2121
  232MOL0     H31964   9.442   8.118  10.977 -0.0791  0.0649 -2.9057
  232MOL0     H31965   9.544   7.805  10.867  2.8457  1.3938 -1.0383
  232MOL0     H31966   9.838   7.649  11.002 -0.7651  2.2839 -0.2960
  232MOL0     H31967   9.688   7.570  10.930 -2.6255 -0.9765  2.0298
  232MOL0     H31968   9.774   7.577  11.228  0.3674  2.2534 -1.5407
  232MOL0     H31969   9.627   7.515  11.163  0.5031 -0.2430  1.5001
  232MOL0     H31970   9.783   7.329  11.213  3.9485  1.0316  2.4491
  232MOL0     H31971   9.758   7.342  11.045 -0.2149 -0.0789  0.4270
  232MOL0     H31972   9.993   7.308  11.087 -0.0633  0.2136 -0.7178
  232MOL0     H31973  10.003   7.480  11.049  0.5717 -1.3471 -1.4106
  232MOL0     H31974  10.144   7.600  11.423  1.2822  1.4773 -1.0954
  232MOL0     H31975  10.417   7.596  11.568  1.8422  0.9632 -1.9970
  232MOL0     H31976  10.281   7.690  11.538  0.8120 -0.9943  2.4486
  232MOL0     H31977  10.431   7.732  11.455 -0.2151  0.9546 -0.3838
  232MOL0     H31978  10.811   7.511  11.028  1.7642 -2.1273 -2.3286
  232MOL0     H31979  11.052   7.527  11.050  2.8335 -2.2973 -0.0081
  232MOL0     H31980  11.257   7.337  11.370 -0.4301  0.6310 -0.3010
  232MOL0     H31981  11.396   7.384  11.283 -0.1072 -0.5266 -0.2946
  232MOL0     H31982  11.231   7.561  11.446 -0.7327 -1.3021 -2.6418
  232MOL0     H31983  11.411   7.516  11.465  1.7897 -0.5947 -1.6729
  232MOL0     H31984  11.302   7.710  11.250 -0.7596  0.4260  1.5403
  232MOL0     H31985  11.460   7.654  11.268 -0.7156  2.9413 -2.3365
  232MOL0     H31986  11.466   7.748  11.515  3.9592  1.1911 -2.5914
  232MOL0     H31987  11.308   7.814  11.493  2.2084  0.8272  2.8244
  232MOL0     H31988  11.522   7.878  11.287 -1.6952 -0.7455 -0.9611
  232MOL0     H31989  11.376   7.955  11.303  1.2392 -0.0427 -0.4642
  232MOL0     H31990  11.459   8.084  11.476  1.2197  1.9935 -0.5948
  232MOL0     H31991  11.614   8.063  11.406  0.8137 -0.9457  0.9724
  232MOL0     H31992  11.668   7.861  11.533  2.1982 -0.4823  0.9436
  232MOL0     H31993  11.532   7.894  11.647  2.7214 -0.0493  1.6335
  232MOL0     H31994  11.601   8.112  11.705  0.7448  2.5053  0.0155
  232MOL0     H31995  11.755   8.084  11.599 -1.1020  0.8455 -0.2885
  232MOL0     H31996  11.054   7.372  11.440  1.0490  3.2640  0.9492
  232MOL0     H31997  10.793   7.368  11.422  0.0662  0.8416 -0.5796
  232MOL0     H31998  10.424   7.335  11.132 -0.2686 -1.1602  1.9283
  232MOL0     H31999  10.185   7.335  11.099 -1.2313  1.8320 -0.9793
  232MOL0     H32000   8.394   8.617  11.070  3.5279 -0.1262  2.3502
  232MOL0     H32001   8.165   8.554  11.155 -0.4967  0.3190 -1.7039
  232MOL0     H32002   7.807   8.288  10.979  0.9246 -2.8975 -1.5501
  232MOL0     H32003   7.564   8.240  11.024 -0.5256  1.8750  1.2600
  232MOL0     H32004   7.389   8.173  11.069  0.4445  0.2291  0.0636
  232MOL0     H32005   7.266   8.158  11.211  0.5456 -2.1323 -0.8472
  232MOL0     H32006   7.440   8.405  11.174  0.5226 -2.3616  1.1384
  232MOL0     H32007   7.320   8.379  11.302 -1.8440 -1.7577  0.3107
  232MOL0     H32008   7.140   8.410  11.157 -0.1247 -1.4397 -1.9139
  232MOL0     H32009   7.246   8.537  11.135  0.3237 -0.5509  2.2075
  232MOL0     H32010   7.242   8.304  10.922  0.3704 -0.3566  0.9184
  232MOL0     H32011   7.344   8.442  10.915 -0.3209 -0.4369  0.0771
  232MOL0     H32012   6.967   8.576  10.794  2.1910 -0.3382 -0.5653
  232MOL0     H32013   7.663   8.101  11.417 -1.8311  0.9788 -0.9259
  232MOL0     H32014   7.974   8.042  11.397  0.7416  0.7334 -1.3845
  232MOL0     H32015   8.009   8.210  11.403  2.2374 -1.6346  0.2060
  232MOL0     H32016   7.882   8.129  11.509 -0.6489 -0.3046 -0.1152
  233MOL0     O32017  10.559  11.283   5.774 -0.2253 -0.6451 -0.3434
  233MOL0     C32018  10.557  11.207   5.677 -0.2925  0.4179 -0.3011
  233MOL0     O32019  10.663  11.187   5.597  0.8176 -0.0829 -0.2149
  233MOL0     C32020  10.786  11.256   5.613  0.7396  0.1014  0.1036
  233MOL0     C32021  10.789  11.397   5.614  0.5435 -0.9727  0.4727
  233MOL0     C32022  10.906  11.465   5.619 -0.0119  0.2054 -0.8206
  233MOL0     C32023  11.031  11.398   5.596  0.7014 -0.2766  0.2473
  233MOL0     O32024  11.155  11.455   5.584  0.2822  0.1027  0.3943
  233MOL0     C32025  11.170  11.599   5.617 -0.9297  0.3006  0.1533
  233MOL0     C32026  11.326  11.630   5.599  0.0471  0.7044 -0.4797
  233MOL0     C32027  11.412  11.562   5.708  0.2675 -0.1324  0.2651
  233MOL0     C32028  11.563  11.578   5.681 -0.2798 -0.3440 -0.9720
  233MOL0     C32029  11.630  11.710   5.716 -0.7586  0.0650  1.0170
  233MOL0     C32030  11.682  11.733   5.851  0.1626  0.2947 -0.8672
  233MOL0     C32031  11.580  11.742   5.966 -0.2150  0.7625  0.3086
  233MOL0     C32032  11.469  11.843   5.944  0.3760 -0.2941 -0.6767
  233MOL0     N32033  11.404  11.876   6.071 -0.4614 -0.1594 -0.1123
  233MOL0     C32034  11.452  11.926   6.189 -0.5423 -0.2315 -1.1509
  233MOL0     C32035  11.348  11.917   6.284 -0.1634  0.5221 -0.5194
  233MOL0     C32036  11.352  11.941   6.426 -0.2765 -0.7155 -0.3433
  233MOL0     C32037  11.387  12.089   6.459 -0.1876 -0.1241 -0.4096
  233MOL0     C32038  11.461  12.109   6.593  0.3506  0.1708 -0.0076
  233MOL0     C32039  11.619  12.082   6.585  0.3851  0.2621 -0.2550
  233MOL0     O32040  11.697  12.200   6.574  0.0351 -0.2063  0.6454
  233MOL0     C32041  11.834  12.175   6.587 -0.1181 -0.1774 -0.4950
  233MOL0     C32042  11.913  12.268   6.639 -0.3937  0.6686 -0.6388
  233MOL0     C32043  12.052  12.251   6.660 -0.6917  0.2261 -0.5942
  233MOL0     C32044  12.126  12.363   6.730 -0.2748  0.4494 -0.0004
  233MOL0     C32045  12.120  12.127   6.623  0.8553  0.0607  0.7998
  233MOL0     C32046  12.261  12.100   6.628  0.3982  0.1940  0.1717
  233MOL0     O32047  12.296  11.967   6.630  0.3728  0.6110 -0.0866
  233MOL0     C32048  12.428  11.944   6.639  0.2170 -0.4509  1.6641
  233MOL0     C32049  12.500  11.913   6.525  0.0444  0.1207  0.3843
  233MOL0     C32050  12.637  11.901   6.542  0.3888  0.9940 -0.6986
  233MOL0     C32051  12.702  11.913   6.666 -1.0563  0.0540  0.5262
  233MOL0     O32052  12.843  11.908   6.677  0.3700 -0.2343  0.1374
  233MOL0     C32053  12.915  11.944   6.557 -0.1148  0.2060 -1.0404
  233MOL0     C32054  13.058  11.975   6.597 -0.5784 -0.5268  0.7610
  233MOL0     C32055  13.102  12.120   6.577 -0.3029 -0.3575 -0.0675
  233MOL0     C32056  13.061  12.196   6.697  0.3584  0.4409 -0.8690
  233MOL0     C32057  13.106  12.342   6.664 -0.5560 -0.0585 -0.2200
  233MOL0     C32058  13.141  12.433   6.788  0.0077  0.0851 -0.9475
  233MOL0     C32059  13.034  12.439   6.901 -0.2935 -0.1034 -0.5614
  233MOL0     C32060  13.039  12.322   7.000  0.0526 -0.6297 -0.5869
  233MOL0    Cl32061  12.921  12.367   7.125 -0.1506  0.1486  0.1572
  233MOL0     C32062  12.621  11.928   6.778 -0.5511  0.6937 -0.2333
  233MOL0     C32063  12.484  11.953   6.767 -0.8377 -0.0459  0.0915
  233MOL0     O32064  12.337  12.196   6.607  0.6510  0.3198  0.1949
  233MOL0     C32065  12.030  12.031   6.578 -0.8133  1.1894 -0.8448
  233MOL0     C32066  11.894  12.054   6.561  0.1464  0.4748 -0.5544
  233MOL0     N32067  11.237  11.886   6.214 -0.5880  0.6010  0.3200
  233MOL0     N32068  11.273  11.868   6.091  0.3048 -0.4656  0.0181
  233MOL0     C32069  11.020  11.260   5.589 -0.3137 -0.4122 -1.1662
  233MOL0     C32070  10.901  11.187   5.600 -0.4760 -0.8048 -1.0108
  233MOL0     C32071  10.426  11.127   5.649 -1.0333 -0.0944 -0.0651
  233MOL0     C32072  10.418  11.053   5.533  0.7558 -0.0714 -0.5865
  233MOL0     C32073  10.298  10.981   5.502  0.1979 -0.7916 -0.5917
  233MOL0     C32074  10.188  10.967   5.595  0.3268  1.6004 -0.7875
  233MOL0     O32075  10.072  10.889   5.578  0.3534 -0.9272 -0.7626
  233MOL0     C32076   9.956  10.980   5.558  0.4466  0.3497 -0.5294
  233MOL0     C32077   9.926  11.010   5.407  0.7912  0.7303 -0.4710
  233MOL0     C32078   9.935  10.878   5.318 -0.1681  0.0424  0.2297
  233MOL0     C32079   9.904  10.917   5.177 -0.2123  0.4050 -0.2556
  233MOL0     C32080   9.990  11.021   5.114  0.5032 -0.2691  0.2331
  233MOL0     C32081  10.069  11.111   5.090  0.2071 -0.6668 -0.2257
  233MOL0     C32082  10.213  11.031   5.713  0.6300 -0.3779 -0.2909
  233MOL0     C32083  10.321  11.110   5.746  0.1812 -1.0032  0.3356
  233MOL0     C32084  10.322  11.170   5.878  0.0179  0.3008 -0.3603
  233MOL0     H32085  10.692  11.446   5.618 -1.0716 -2.8832 -5.2996
  233MOL0     H32086  10.893  11.571   5.632  2.0423  0.3782  0.2674
  233MOL0     H32087  11.137  11.618   5.719  1.0809 -0.6801  1.0419
  233MOL0     H32088  11.106  11.664   5.556  0.3970  3.6044  2.0507
  233MOL0     H32089  11.344  11.584   5.502  0.8437  1.1068 -0.5337
  233MOL0     H32090  11.341  11.738   5.596  0.7505  0.7211  1.8066
  233MOL0     H32091  11.390  11.605   5.806  3.6110 -1.1544  1.6022
  233MOL0     H32092  11.394  11.454   5.705  1.2628 -0.2959 -0.9688
  233MOL0     H32093  11.620  11.501   5.735 -0.9846  1.0850  2.0629
  233MOL0     H32094  11.584  11.564   5.575 -2.7731  0.5157 -1.6375
  233MOL0     H32095  11.571  11.799   5.691  0.5558  1.6605  3.2256
  233MOL0     H32096  11.718  11.722   5.653 -2.3299 -0.8175 -1.4998
  233MOL0     H32097  11.744  11.650   5.884  1.3829  1.7366  0.6359
  233MOL0     H32098  11.741  11.824   5.864  2.3718 -1.2912  0.9666
  233MOL0     H32099  11.637  11.769   6.056  0.1585 -1.0308  0.6567
  233MOL0     H32100  11.529  11.647   5.982 -0.1924  1.0353  2.3293
  233MOL0     H32101  11.501  11.929   5.885 -0.4998 -1.2829 -2.6853
  233MOL0     H32102  11.389  11.796   5.886  1.0074 -1.1226 -0.9098
  233MOL0     H32103  11.557  11.937   6.215 -1.5093  2.2491  2.5985
  233MOL0     H32104  11.418  11.872   6.480 -1.6795  0.1338  2.6996
  233MOL0     H32105  11.254  11.912   6.465 -0.2622 -1.3620 -0.7630
  233MOL0     H32106  11.454  12.128   6.381  0.4368  0.9716  0.6454
  233MOL0     H32107  11.294  12.146   6.453 -1.5763 -2.2703 -0.0306
  233MOL0     H32108  11.451  12.214   6.621  1.6992  0.2314  0.2943
  233MOL0     H32109  11.416  12.042   6.666  4.7954 -0.3057  2.6553
  233MOL0     H32110  11.637  12.025   6.676 -0.2903 -1.4505 -1.1483
  233MOL0     H32111  11.637  12.012   6.503  0.5717  1.3812 -1.2060
  233MOL0     H32112  11.872  12.361   6.676  0.7449  0.7651  0.4767
  233MOL0     H32113  12.169  12.325   6.823 -2.5031 -0.6812  0.6397
  233MOL0     H32114  12.067  12.453   6.749  1.8940  2.2614 -1.3281
  233MOL0     H32115  12.209  12.389   6.663  0.3900 -2.3570 -0.3930
  233MOL0     H32116  12.452  11.897   6.429 -0.4071 -1.6105  0.8650
  233MOL0     H32117  12.688  11.873   6.450 -3.0796  0.9321 -2.7546
  233MOL0     H32118  12.905  11.861   6.487 -1.7271  0.8867 -1.6734
  233MOL0     H32119  12.872  12.037   6.519  0.9589  2.4190  2.6439
  233MOL0     H32120  13.078  11.953   6.702  0.8282  0.1325  0.6545
  233MOL0     H32121  13.122  11.909   6.538 -0.7501  2.0166 -2.5444
  233MOL0     H32122  13.059  12.172   6.490 -0.5784 -1.6883 -0.7493
  233MOL0     H32123  13.211  12.126   6.577 -0.1810 -1.9766  1.2182
  233MOL0     H32124  13.109  12.165   6.791 -0.3102 -0.1788 -0.7239
  233MOL0     H32125  12.953  12.204   6.713  0.5529 -0.1510  1.0305
  233MOL0     H32126  13.196  12.335   6.604  1.4024 -1.0506  2.6085
  233MOL0     H32127  13.026  12.392   6.608 -3.2869 -0.0473  3.3343
  233MOL0     H32128  13.155  12.535   6.752 -1.6270  0.8450  0.4727
  233MOL0     H32129  13.235  12.401   6.834 -0.7346  2.2883  2.5137
  233MOL0     H32130  12.935  12.433   6.854  0.8796 -2.4401 -2.9842
  233MOL0     H32131  13.054  12.530   6.958 -0.0436  0.5421 -1.6343
  233MOL0     H32132  13.144  12.313   7.031 -1.4661 -3.4393  4.9950
  233MOL0     H32133  13.007  12.229   6.953 -0.6460  0.8584 -3.2529
  233MOL0     H32134  12.670  11.925   6.875 -0.6601  1.5380 -0.1499
  233MOL0     H32135  12.414  11.978   6.846 -0.9128 -1.9166  0.6529
  233MOL0     H32136  12.060  11.932   6.543 -1.1060  1.3231 -1.4845
  233MOL0     H32137  11.837  11.965   6.535  0.2992 -1.7747  5.3724
  233MOL0     H32138  11.113  11.209   5.569 -0.2667 -1.4777  1.4813
  233MOL0     H32139  10.890  11.079   5.607  0.0320 -0.8150 -0.2003
  233MOL0     H32140  10.506  11.061   5.471  2.1328 -1.3890  1.1176
  233MOL0     H32141  10.323  10.922   5.415  1.8175  0.0896 -0.7749
  233MOL0     H32142   9.864  10.937   5.599  0.6913  0.8691  0.6027
  233MOL0     H32143   9.954  11.069   5.621 -2.6957 -0.4065  0.6336
  233MOL0     H32144   9.987  11.096   5.376  2.4380  1.7182  4.5534
  233MOL0     H32145   9.819  11.031   5.415  1.1162  1.7509  2.2966
  233MOL0     H32146  10.034  10.830   5.322 -0.4178 -0.5407 -0.4061
  233MOL0     H32147   9.866  10.798   5.344 -1.6991  1.2585  0.0230
  233MOL0     H32148   9.804  10.962   5.179 -1.1618 -1.4548 -1.8285
  233MOL0     H32149   9.906  10.835   5.104  1.3087  2.3011 -2.5118
  233MOL0     H32150  10.141  11.189   5.077  1.0010  0.2099  6.3410
  233MOL0     H32151  10.149  11.009   5.798  1.5235  0.8666  0.7385
  233MOL0     H32152  10.240  11.133   5.939 -0.6825 -0.2895 -1.6279
  233MOL0     H32153  10.419  11.145   5.922  0.4459  2.4928  0.0924
  233MOL0     H32154  10.303  11.277   5.867 -1.7933 -0.0882 -1.4064
  234MOL0     O32155   1.076   4.100   1.110 -0.0419 -0.3316 -0.1824
  234MOL0     C32156   1.007   4.023   1.047 -0.6265  0.0700  0.3388
  234MOL0     O32157   1.052   3.904   0.995  0.6215  0.1323  0.2999
  234MOL0     C32158   1.185   3.874   1.001 -0.0621 -1.1973 -0.4437
  234MOL0     C32159   1.257   3.834   1.113  0.8945 -0.0231  0.0107
  234MOL0     C32160   1.398   3.828   1.113 -0.4316  0.3379  0.0596
  234MOL0     C32161   1.476   3.843   0.994 -0.4249 -0.9047  0.3559
  234MOL0     O32162   1.614   3.841   0.985  0.5188  0.4489 -0.7813
  234MOL0     C32163   1.694   3.888   1.098 -0.0547  0.5566  0.7728
  234MOL0     C32164   1.832   3.922   1.047 -0.3804  0.8268 -0.8064
  234MOL0     C32165   1.921   3.928   1.174 -0.1513  0.2738 -0.3535
  234MOL0     C32166   1.968   3.785   1.231  0.9899  0.2699  0.0609
  234MOL0     C32167   2.104   3.794   1.292 -0.2713 -0.0849  0.3544
  234MOL0     C32168   2.116   3.872   1.422  0.6902  0.7628  0.3682
  234MOL0     C32169   2.248   3.853   1.500 -1.0094 -0.6037 -0.1443
  234MOL0     C32170   2.233   3.912   1.646  0.8845 -0.1479  0.1859
  234MOL0     N32171   2.360   3.948   1.707  0.1180  1.1271  0.6328
  234MOL0     C32172   2.419   4.068   1.689 -0.1540 -0.0765  0.3164
  234MOL0     C32173   2.535   4.066   1.758  0.2146  0.5659 -0.2821
  234MOL0     C32174   2.626   4.179   1.782  0.3560 -0.2659 -0.7092
  234MOL0     C32175   2.649   4.274   1.666 -0.0247 -1.2087  1.7072
  234MOL0     C32176   2.730   4.201   1.552 -0.7186  0.5217  0.1261
  234MOL0     C32177   2.871   4.164   1.601  0.1020 -0.6031 -0.6450
  234MOL0     O32178   2.926   4.083   1.492  0.2212 -0.0400 -0.3184
  234MOL0     C32179   2.958   3.950   1.516 -0.5060  0.1637 -0.1755
  234MOL0     C32180   2.902   3.867   1.611  0.3651  0.3333 -0.7756
  234MOL0     C32181   2.950   3.734   1.641  0.1670 -1.0901  1.1423
  234MOL0     C32182   2.889   3.652   1.748  0.7586  0.9594  0.0099
  234MOL0     C32183   3.057   3.689   1.561 -0.3659  0.0431  0.2539
  234MOL0     C32184   3.128   3.558   1.574  0.3833  0.0855 -1.2185
  234MOL0     O32185   3.253   3.553   1.527 -0.1101 -0.5487 -0.5888
  234MOL0     C32186   3.335   3.448   1.549 -0.3982  0.3521 -0.1220
  234MOL0     C32187   3.463   3.465   1.495  0.4501 -0.1133  0.0261
  234MOL0     C32188   3.553   3.360   1.495  1.0092  0.2369  0.3245
  234MOL0     C32189   3.517   3.229   1.530 -0.3544  0.3313  1.0588
  234MOL0     O32190   3.607   3.129   1.519 -0.2172 -0.0189  0.7480
  234MOL0     C32191   3.562   2.993   1.534 -0.0546 -1.1837 -0.4356
  234MOL0     C32192   3.580   2.948   1.682  0.6871  0.0771  0.8662
  234MOL0     C32193   3.530   2.798   1.707  0.0833  0.4560 -0.6391
  234MOL0     C32194   3.564   2.764   1.852  0.5322 -0.4530  0.7909
  234MOL0     C32195   3.484   2.646   1.906 -0.0218  0.2010 -0.2777
  234MOL0     C32196   3.507   2.605   2.048  0.2089 -0.3674 -0.5213
  234MOL0     C32197   3.421   2.698   2.144  0.7501  0.0832 -0.1281
  234MOL0     C32198   3.368   2.630   2.265 -0.2648 -0.2036 -0.0127
  234MOL0    Cl32199   3.517   2.605   2.368 -0.2771 -0.4368 -0.5362
  234MOL0     C32200   3.394   3.213   1.595 -0.4379  0.6274  0.6061
  234MOL0     C32201   3.305   3.317   1.598 -0.2363 -0.0576  0.1531
  234MOL0     O32202   3.067   3.467   1.630 -0.3748 -0.1007  0.0318
  234MOL0     C32203   3.108   3.776   1.463  0.2045 -0.0764 -0.4338
  234MOL0     C32204   3.057   3.898   1.433  0.5783 -0.3494 -0.2215
  234MOL0     N32205   2.544   3.939   1.815 -0.0084 -0.7070 -0.1638
  234MOL0     N32206   2.443   3.867   1.772 -0.0498  0.3087  0.0417
  234MOL0     C32207   1.394   3.876   0.876 -0.3207 -0.1206 -0.8434
  234MOL0     C32208   1.255   3.884   0.884  0.4512 -0.8436 -0.0560
  234MOL0     C32209   0.866   4.055   1.044  0.7343 -0.9668 -0.4270
  234MOL0     C32210   0.777   3.951   1.047  0.8114  0.5587 -0.1458
  234MOL0     C32211   0.632   3.979   1.032 -0.0378 -0.1925 -0.3463
  234MOL0     C32212   0.589   4.117   1.034  0.0441 -0.0659  0.0670
  234MOL0     O32213   0.455   4.143   1.020  0.1171 -0.5388  0.0359
  234MOL0     C32214   0.412   4.281   1.011 -0.7292 -0.1475  0.1449
  234MOL0     C32215   0.263   4.312   1.019  0.4697  0.2704 -0.0777
  234MOL0     C32216   0.209   4.327   0.882 -0.3913  0.3051  0.2944
  234MOL0     C32217   0.146   4.464   0.857  0.6265  0.7310  0.4390
  234MOL0     C32218   0.135   4.499   0.709 -0.6250  0.1932 -0.0795
  234MOL0     C32219   0.133   4.539   0.591  0.5898  0.1082  0.9182
  234MOL0     C32220   0.688   4.216   1.042 -0.0746 -0.6395 -0.3080
  234MOL0     C32221   0.822   4.188   1.034  0.4573  0.4592  0.9232
  234MOL0     C32222   0.909   4.315   0.996 -0.8759 -0.0097 -0.0803
  234MOL0     H32223   1.198   3.821   1.203  0.3667  0.4375 -0.2698
  234MOL0     H32224   1.447   3.815   1.209 -3.8307  0.8514  2.0162
  234MOL0     H32225   1.693   3.807   1.171 -1.9246 -2.8629 -2.6682
  234MOL0     H32226   1.644   3.970   1.151 -1.6421 -1.5202  2.6689
  234MOL0     H32227   1.882   3.845   0.987  3.0817  1.1992  1.3250
  234MOL0     H32228   1.826   4.011   0.984  2.6238  1.5964 -0.1406
  234MOL0     H32229   2.011   3.981   1.143  1.2103 -1.1133  1.0175
  234MOL0     H32230   1.882   3.991   1.253 -1.6997 -0.2600 -0.6601
  234MOL0     H32231   1.901   3.736   1.302  2.5198  0.8680  1.9940
  234MOL0     H32232   1.976   3.720   1.143  1.0492 -0.8581  0.8792
  234MOL0     H32233   2.176   3.826   1.216 -1.9000 -1.5640 -1.9559
  234MOL0     H32234   2.124   3.691   1.323  0.4980 -0.6332 -1.7871
  234MOL0     H32235   2.094   3.974   1.387 -0.2403  0.6080  0.4786
  234MOL0     H32236   2.032   3.831   1.478 -2.4386 -0.2600 -4.4422
  234MOL0     H32237   2.328   3.912   1.454  0.2161 -2.2923 -0.2683
  234MOL0     H32238   2.288   3.751   1.503  0.6171 -0.0929 -2.1481
  234MOL0     H32239   2.181   4.009   1.641 -4.3643 -2.6160  0.3612
  234MOL0     H32240   2.177   3.853   1.719 -2.7465  3.5487  0.8457
  234MOL0     H32241   2.390   4.158   1.636  0.8976 -0.3177 -0.7158
  234MOL0     H32242   2.718   4.135   1.821  0.3255 -0.7183 -1.1403
  234MOL0     H32243   2.571   4.235   1.858  3.4153 -0.8439  2.1269
  234MOL0     H32244   2.547   4.302   1.635  1.6737  1.7377 -2.0595
  234MOL0     H32245   2.704   4.368   1.675 -0.6737 -0.5160 -0.7302
  234MOL0     H32246   2.686   4.103   1.534  1.7091 -1.2806  2.9818
  234MOL0     H32247   2.743   4.266   1.465  0.3827  2.5136  1.6921
  234MOL0     H32248   2.933   4.253   1.597  0.7055 -0.9292  0.8509
  234MOL0     H32249   2.883   4.110   1.695  2.4516 -0.0281 -0.5618
  234MOL0     H32250   2.812   3.895   1.665  1.3632 -2.4758  2.6909
  234MOL0     H32251   2.816   3.715   1.800 -0.7088  1.2565 -2.2871
  234MOL0     H32252   2.967   3.611   1.814  0.1227  1.0912  0.8628
  234MOL0     H32253   2.838   3.561   1.716  0.7817  0.2718  1.8417
  234MOL0     H32254   3.491   3.562   1.456  0.1564 -0.6708 -1.6606
  234MOL0     H32255   3.643   3.398   1.448  0.3733  0.0641 -1.1071
  234MOL0     H32256   3.468   2.966   1.484 -0.2077  3.0756 -2.9576
  234MOL0     H32257   3.637   2.946   1.469  0.4374  1.4085 -1.8632
  234MOL0     H32258   3.687   2.957   1.704  0.5677  2.6812  0.7365
  234MOL0     H32259   3.529   3.014   1.752 -0.8797 -1.0179  0.8016
  234MOL0     H32260   3.590   2.737   1.638 -0.0192 -0.6161  0.1938
  234MOL0     H32261   3.423   2.786   1.693 -0.2921  2.6855  0.0180
  234MOL0     H32262   3.553   2.847   1.923  0.1822  0.3150 -0.1303
  234MOL0     H32263   3.668   2.733   1.845  0.7103  0.3742 -0.6919
  234MOL0     H32264   3.379   2.665   1.881  0.2949  3.1291  0.2657
  234MOL0     H32265   3.519   2.566   1.840  0.0360  1.1793 -1.4577
  234MOL0     H32266   3.612   2.608   2.079 -0.1702 -2.2288  1.1203
  234MOL0     H32267   3.471   2.502   2.057  0.3950 -0.5099 -1.3100
  234MOL0     H32268   3.336   2.734   2.086  1.3573 -1.8968 -2.3590
  234MOL0     H32269   3.485   2.782   2.171 -1.1448  1.4658  0.3147
  234MOL0     H32270   3.309   2.540   2.244 -3.1000  1.8932 -1.6815
  234MOL0     H32271   3.298   2.695   2.318  2.6652  1.7408  1.7638
  234MOL0     H32272   3.371   3.113   1.630  2.3338 -0.1737  0.3541
  234MOL0     H32273   3.207   3.289   1.636  0.3613  0.7175  2.4665
  234MOL0     H32274   3.187   3.752   1.393  0.6565 -0.1464  0.0895
  234MOL0     H32275   3.108   3.966   1.364  3.2009 -0.0997  1.7974
  234MOL0     H32276   1.437   3.880   0.777 -0.0308 -1.0704 -0.7715
  234MOL0     H32277   1.203   3.905   0.791 -0.0715 -2.2722 -0.1076
  234MOL0     H32278   0.805   3.847   1.063 -2.9812 -0.4141  1.0976
  234MOL0     H32279   0.551   3.908   1.021 -0.6487  0.4950 -0.4320
  234MOL0     H32280   0.461   4.336   1.092  0.4358 -0.6717 -0.1809
  234MOL0     H32281   0.449   4.322   0.917 -1.0648  0.3430  0.2244
  234MOL0     H32282   0.250   4.405   1.075 -1.2815  0.0181 -0.0119
  234MOL0     H32283   0.206   4.233   1.068  2.4807 -1.4335 -0.3600
  234MOL0     H32284   0.274   4.296   0.799  0.0557  0.8002  0.4608
  234MOL0     H32285   0.130   4.251   0.872  1.7578 -1.9670 -0.4549
  234MOL0     H32286   0.204   4.541   0.909  1.1099  0.1293  0.8172
  234MOL0     H32287   0.049   4.465   0.908  0.4911  1.8505  0.1681
  234MOL0     H32288   0.128   4.562   0.486 -0.2619 -2.9113  0.1916
  234MOL0     H32289   0.671   4.323   1.044  0.7861 -0.2897 -4.0809
  234MOL0     H32290   0.860   4.412   1.009 -0.5808  0.1892 -0.4582
  234MOL0     H32291   0.995   4.319   1.063 -0.7567  2.0034 -0.2972
  234MOL0     H32292   0.949   4.315   0.894  2.5415  1.1866  1.1386
  235MOL0     O32293   4.363   2.888   5.031  0.4856 -0.4185  0.6710
  235MOL0     C32294   4.371   2.817   4.935  1.5197 -0.5262  1.0360
  235MOL0     O32295   4.431   2.685   4.947  0.1321  0.6267  0.8696
  235MOL0     C32296   4.505   2.657   5.059 -0.2489  0.7739  0.3011
  235MOL0     C32297   4.486   2.522   5.111 -0.2114 -0.4212  0.1946
  235MOL0     C32298   4.549   2.492   5.235  0.4438  0.5584  0.7557
  235MOL0     C32299   4.633   2.574   5.310 -0.5001 -0.0956 -0.1652
  235MOL0     O32300   4.691   2.555   5.430 -0.4903  1.1874  0.3072
  235MOL0     C32301   4.655   2.433   5.508  0.3843  0.0989 -0.2377
  235MOL0     C32302   4.770   2.402   5.600 -0.0141 -0.2154  0.5025
  235MOL0     C32303   4.790   2.507   5.707  0.8301 -0.7775  0.4603
  235MOL0     C32304   4.898   2.484   5.812 -0.5452  0.0366  0.0946
  235MOL0     C32305   5.038   2.545   5.773 -0.1537  0.4105 -0.0689
  235MOL0     C32306   5.108   2.574   5.905 -0.0427  0.1330 -0.0306
  235MOL0     C32307   5.253   2.603   5.878  0.4591 -0.1162  0.3633
  235MOL0     C32308   5.269   2.733   5.812 -0.7139  0.3060  0.4401
  235MOL0     N32309   5.225   2.848   5.897 -0.2957  0.3322 -0.0429
  235MOL0     C32310   5.108   2.909   5.866 -0.2332 -0.3801 -0.1529
  235MOL0     C32311   5.097   3.018   5.945 -0.7964 -0.3556  0.0094
  235MOL0     C32312   4.984   3.116   5.947 -0.2952 -0.2451  0.1623
  235MOL0     C32313   5.003   3.235   5.859 -0.5187  1.0807  0.8325
  235MOL0     C32314   5.143   3.306   5.845 -0.5434 -0.1825  0.8306
  235MOL0     C32315   5.175   3.363   5.978  0.4980 -0.4082 -0.2196
  235MOL0     O32316   5.282   3.458   5.965  0.3116 -0.5588 -0.4656
  235MOL0     C32317   5.405   3.421   6.022 -0.2919  0.2577 -0.4937
  235MOL0     C32318   5.470   3.304   5.998 -0.2624 -0.5292 -0.1191
  235MOL0     C32319   5.590   3.273   6.059 -0.0934 -0.2126 -0.2535
  235MOL0     C32320   5.639   3.132   6.031 -0.5487 -1.0824 -0.1905
  235MOL0     C32321   5.663   3.371   6.137  0.4445  0.1889 -0.0503
  235MOL0     C32322   5.798   3.349   6.197  0.1515 -1.3734  0.1156
  235MOL0     O32323   5.845   3.465   6.261  1.0309  1.2583  0.2232
  235MOL0     C32324   5.973   3.471   6.296 -0.0025 -0.4742  0.8199
  235MOL0     C32325   6.005   3.468   6.428 -0.5589  0.2876  0.0252
  235MOL0     C32326   6.140   3.451   6.459 -0.4842 -0.4282  0.5099
  235MOL0     C32327   6.240   3.447   6.354  0.1438  0.7476  0.0345
  235MOL0     O32328   6.369   3.443   6.406 -0.1907  0.6035  0.4218
  235MOL0     C32329   6.425   3.313   6.435  0.0127 -0.6319 -0.8005
  235MOL0     C32330   6.572   3.306   6.404  0.0458 -0.3062  1.0872
  235MOL0     C32331   6.649   3.412   6.495 -0.3483  0.3804  0.5526
  235MOL0     C32332   6.791   3.383   6.534 -1.7726 -0.5444  0.9186
  235MOL0     C32333   6.861   3.506   6.596 -0.0684 -0.7093  0.2679
  235MOL0     C32334   6.819   3.579   6.717  0.1986 -0.5465 -0.8079
  235MOL0     C32335   6.775   3.481   6.847  0.5892 -0.2501  0.0117
  235MOL0     C32336   6.761   3.563   6.980  0.4042  0.4272 -0.1429
  235MOL0    Cl32337   6.654   3.716   6.973  0.0208 -0.0824  0.1614
  235MOL0     C32338   6.208   3.472   6.220 -0.1213  0.0303 -0.5844
  235MOL0     C32339   6.065   3.470   6.195  0.3927  0.1945  0.1921
  235MOL0     O32340   5.854   3.248   6.185 -0.5453  0.8813  0.8765
  235MOL0     C32341   5.604   3.495   6.156  0.7790  0.2048 -0.2804
  235MOL0     C32342   5.475   3.514   6.102 -0.6873 -0.0630  0.7416
  235MOL0     N32343   5.213   3.010   6.031  0.8964 -0.3457  1.3367
  235MOL0     N32344   5.290   2.911   5.994  0.0984 -0.2399 -0.4617
  235MOL0     C32345   4.658   2.699   5.251 -0.2164  0.0833  0.0616
  235MOL0     C32346   4.594   2.739   5.133 -0.0268  0.8635  0.2260
  235MOL0     C32347   4.300   2.863   4.811 -0.0804  0.7565 -0.4919
  235MOL0     C32348   4.293   3.002   4.791 -0.4164 -0.9313 -0.1489
  235MOL0     C32349   4.243   3.054   4.670  0.3480 -0.1121 -0.3796
  235MOL0     C32350   4.171   2.979   4.582 -0.3716  0.1758 -0.1886
  235MOL0     O32351   4.121   3.044   4.475 -0.0090 -0.7046 -0.5284
  235MOL0     C32352   4.021   2.985   4.389 -1.5351 -0.2954 -0.3852
  235MOL0     C32353   3.978   3.084   4.284 -0.0140  0.0384 -0.2248
  235MOL0     C32354   3.874   3.022   4.185 -0.5950 -0.2980  0.7738
  235MOL0     C32355   3.838   3.125   4.069  1.1034 -0.8798 -0.7110
  235MOL0     C32356   3.929   3.114   3.961 -1.1793 -0.2687  0.1584
  235MOL0     C32357   4.012   3.109   3.870 -0.5958 -0.6971  0.2441
  235MOL0     C32358   4.164   2.841   4.611 -0.3101 -0.1000 -0.3596
  235MOL0     C32359   4.245   2.781   4.711 -0.2657 -0.3165 -0.2259
  235MOL0     C32360   4.251   2.629   4.731 -0.6561 -0.3909  0.1998
  235MOL0     H32361   4.435   2.441   5.061 -0.1489  0.6617 -1.7766
  235MOL0     H32362   4.517   2.402   5.286 -2.0157  1.0461  0.1971
  235MOL0     H32363   4.670   2.345   5.445 -0.2663  0.8214 -1.4200
  235MOL0     H32364   4.561   2.442   5.563  1.0509 -1.7935  1.3335
  235MOL0     H32365   4.740   2.312   5.654 -1.8489 -1.2120 -2.0287
  235MOL0     H32366   4.862   2.392   5.541 -0.8286  0.1066 -0.8379
  235MOL0     H32367   4.813   2.604   5.661 -0.0252  0.4542  2.4898
  235MOL0     H32368   4.695   2.516   5.761  1.2988  0.1878  1.1635
  235MOL0     H32369   4.856   2.534   5.900  1.4706 -0.8744  1.6772
  235MOL0     H32370   4.919   2.381   5.845  3.4668  1.6116  3.3178
  235MOL0     H32371   5.021   2.627   5.704  2.2867 -0.5720 -1.9961
  235MOL0     H32372   5.097   2.464   5.729  0.8870  0.6731  0.8147
  235MOL0     H32373   5.056   2.655   5.957  0.1512  1.4807 -1.8472
  235MOL0     H32374   5.110   2.487   5.972 -3.6495  1.0199  1.4729
  235MOL0     H32375   5.306   2.523   5.826 -2.7758 -0.4925 -2.7659
  235MOL0     H32376   5.299   2.616   5.976 -1.6313  1.0078  1.2612
  235MOL0     H32377   5.373   2.750   5.782 -0.5416 -0.1791  0.7423
  235MOL0     H32378   5.208   2.736   5.721  0.9564  1.8598 -0.7040
  235MOL0     H32379   5.040   2.897   5.783 -0.4394  0.2864 -0.0824
  235MOL0     H32380   4.998   3.158   6.047  4.6624 -0.2676 -0.2732
  235MOL0     H32381   4.891   3.061   5.927  0.4379 -0.2721 -4.0428
  235MOL0     H32382   4.984   3.202   5.757  1.2911  0.3194  0.6996
  235MOL0     H32383   4.929   3.313   5.877 -2.9094  0.2820 -3.8936
  235MOL0     H32384   5.229   3.249   5.808 -1.3249 -0.2007 -1.0563
  235MOL0     H32385   5.116   3.391   5.781  0.6733  1.1945  2.0760
  235MOL0     H32386   5.093   3.422   6.020  0.5080  0.5942 -1.5710
  235MOL0     H32387   5.205   3.276   6.038 -0.8788 -2.4915 -2.3619
  235MOL0     H32388   5.426   3.240   5.922  0.5854 -0.2980 -0.8261
  235MOL0     H32389   5.731   3.139   5.973 -0.4835  0.0150  0.0231
  235MOL0     H32390   5.567   3.066   5.980  0.2643 -0.5652 -2.0912
  235MOL0     H32391   5.666   3.082   6.125  1.5854  0.7234  0.2294
  235MOL0     H32392   5.925   3.484   6.499 -2.1132 -2.0229 -1.0899
  235MOL0     H32393   6.175   3.445   6.561 -1.7973 -2.1783  0.9003
  235MOL0     H32394   6.401   3.278   6.536  0.6031 -1.7111 -1.0194
  235MOL0     H32395   6.381   3.249   6.357 -1.7825  1.6048 -1.7748
  235MOL0     H32396   6.611   3.204   6.396  1.5558  0.3009  0.2099
  235MOL0     H32397   6.585   3.347   6.303 -0.9220 -3.6773 -0.5272
  235MOL0     H32398   6.583   3.420   6.582 -0.7696 -0.7395  0.3543
  235MOL0     H32399   6.647   3.505   6.439  4.0151  0.1112 -0.4657
  235MOL0     H32400   6.848   3.350   6.448  2.6286 -1.8790  4.0037
  235MOL0     H32401   6.800   3.294   6.598  1.4860 -1.0428 -0.0873
  235MOL0     H32402   6.963   3.477   6.620  0.7005 -1.0078 -2.8900
  235MOL0     H32403   6.872   3.576   6.512  1.9282 -1.7125 -0.3740
  235MOL0     H32404   6.745   3.653   6.684  0.4239 -0.1500 -0.4387
  235MOL0     H32405   6.902   3.644   6.745 -2.0954  4.1180 -3.5841
  235MOL0     H32406   6.843   3.397   6.863  2.5338  1.5006  1.6725
  235MOL0     H32407   6.672   3.446   6.835 -0.4608  0.4486  4.8186
  235MOL0     H32408   6.861   3.600   7.004  0.4897 -0.7199  1.4364
  235MOL0     H32409   6.721   3.500   7.060  0.2971  1.8824  0.9868
  235MOL0     H32410   6.278   3.460   6.139  0.4922 -1.0721  0.0751
  235MOL0     H32411   6.031   3.467   6.092  0.6411  1.9653  0.0386
  235MOL0     H32412   5.637   3.575   6.221  0.6075  0.1537 -0.1306
  235MOL0     H32413   5.442   3.616   6.117 -1.5409 -0.4718  1.8307
  235MOL0     H32414   4.740   2.757   5.292  1.2909 -1.6236 -0.3968
  235MOL0     H32415   4.603   2.842   5.098  0.4459  1.7064  2.6111
  235MOL0     H32416   4.317   3.073   4.870 -0.8780 -0.9177 -0.0168
  235MOL0     H32417   4.251   3.161   4.654 -0.4795 -0.0829 -0.6421
  235MOL0     H32418   4.056   2.888   4.354  2.6010  2.4112 -4.9705
  235MOL0     H32419   3.935   2.971   4.456 -1.0041  0.4804  0.4814
  235MOL0     H32420   4.072   3.122   4.242  0.4104  0.1199  0.7666
  235MOL0     H32421   3.926   3.172   4.324  3.2031  0.8368  2.6509
  235MOL0     H32422   3.911   2.928   4.143  0.4053 -0.8982  2.9026
  235MOL0     H32423   3.789   3.002   4.251 -0.6647 -2.6798  0.0317
  235MOL0     H32424   3.846   3.225   4.111  0.1116 -1.0900  0.0121
  235MOL0     H32425   3.745   3.089   4.025  1.9727 -4.0531 -0.2469
  235MOL0     H32426   4.087   3.090   3.796  0.3600 -2.7893  1.6293
  235MOL0     H32427   4.100   2.770   4.561 -0.6900 -0.1518  0.1920
  235MOL0     H32428   4.211   2.595   4.827  2.8798 -2.0627  1.2556
  235MOL0     H32429   4.192   2.576   4.656  0.3740  0.5597 -1.3312
  235MOL0     H32430   4.354   2.594   4.718 -1.0544 -0.4575 -3.6819
  236MOL0     O32431   1.170   4.309   0.184 -0.3341 -0.2446  0.7350
  236MOL0     C32432   1.269   4.346   0.248 -0.2503  0.8114  0.0262
  236MOL0     O32433   1.394   4.281   0.244  0.4076  0.3406 -0.3689
  236MOL0     C32434   1.453   4.230   0.133 -0.1142  0.3330 -0.4420
  236MOL0     C32435   1.548   4.134   0.164  0.1817  0.2715  0.0731
  236MOL0     C32436   1.620   4.081   0.056  0.4116  0.4367 -0.4450
  236MOL0     C32437   1.597   4.118  -0.077 -0.8489 -0.0575 -0.6315
  236MOL0     O32438   1.667   4.063  -0.176  0.4054 -0.0408  0.0565
  236MOL0     C32439   1.591   3.989  -0.275 -0.5219 -0.5588 -0.2947
  236MOL0     C32440   1.519   3.871  -0.221  0.7279  0.5863  1.5402
  236MOL0     C32441   1.443   3.789  -0.331 -0.3617 -0.4051  1.0321
  236MOL0     C32442   1.431   3.632  -0.319 -0.1602 -0.3954  0.3662
  236MOL0     C32443   1.369   3.576  -0.450 -1.1698  0.3045 -0.2821
  236MOL0     C32444   1.321   3.425  -0.427  0.4264 -0.2836 -0.0079
  236MOL0     C32445   1.288   3.368  -0.564 -0.6925  0.4834 -0.0449
  236MOL0     C32446   1.239   3.225  -0.557 -0.8527 -0.0514 -0.3800
  236MOL0     N32447   1.349   3.127  -0.542 -0.7438 -0.6444  0.2822
  236MOL0     C32448   1.423   3.093  -0.434  0.0843  0.1486 -1.3139
  236MOL0     C32449   1.501   2.991  -0.463 -1.1076 -0.2725  0.0677
  236MOL0     C32450   1.593   2.920  -0.360  0.8133  0.7599  1.2524
  236MOL0     C32451   1.523   2.831  -0.262 -0.8522 -0.2919  0.8049
  236MOL0     C32452   1.618   2.734  -0.193  0.5711  0.2933  0.2005
  236MOL0     C32453   1.724   2.806  -0.101  0.0602 -0.5665  0.4535
  236MOL0     O32454   1.829   2.866  -0.185 -0.6058  0.5055  0.1153
  236MOL0     C32455   1.948   2.873  -0.117 -0.0155  0.5049  0.7509
  236MOL0     C32456   2.022   2.782  -0.034  0.3926  0.6117 -0.2372
  236MOL0     C32457   2.133   2.819   0.044  0.1350 -0.4140 -0.2673
  236MOL0     C32458   2.206   2.712   0.124 -0.2496  0.5772 -0.0006
  236MOL0     C32459   2.167   2.959   0.038 -0.3818 -0.3484  0.5019
  236MOL0     C32460   2.277   3.024   0.121 -0.1654 -0.2607  0.2520
  236MOL0     O32461   2.335   3.149   0.098  0.2792  0.6292 -0.0376
  236MOL0     C32462   2.435   3.194   0.185  0.6898 -1.0328  0.5241
  236MOL0     C32463   2.439   3.328   0.239 -0.6725  0.9328  0.8909
  236MOL0     C32464   2.547   3.374   0.308 -0.3840  0.4008  0.3608
  236MOL0     C32465   2.669   3.299   0.318  0.9433 -0.1968 -0.2108
  236MOL0     O32466   2.778   3.345   0.372  0.1799  0.4272 -0.2253
  236MOL0     C32467   2.832   3.461   0.302  0.1897  0.5179 -0.2033
  236MOL0     C32468   2.958   3.514   0.378  0.8180 -0.4671 -0.1359
  236MOL0     C32469   3.066   3.577   0.289  1.3944  0.1224  0.0405
  236MOL0     C32470   3.178   3.640   0.370 -0.3384  0.4771 -0.5657
  236MOL0     C32471   3.227   3.562   0.492  0.0634 -0.3299  0.1519
  236MOL0     C32472   3.295   3.433   0.462  0.2658  0.2676 -1.0903
  236MOL0     C32473   3.386   3.391   0.581 -0.6380  0.2271  0.4853
  236MOL0     C32474   3.531   3.429   0.549  0.4396  0.4537 -0.8798
  236MOL0    Cl32475   3.624   3.316   0.439  0.1144  0.5872  0.0792
  236MOL0     C32476   2.665   3.163   0.279 -0.4619  0.3995  0.2601
  236MOL0     C32477   2.554   3.113   0.205  0.7979  0.1994  1.0853
  236MOL0     O32478   2.299   2.958   0.221 -0.7907  0.5203  0.0175
  236MOL0     C32479   2.117   3.033  -0.063 -0.7081 -0.4736 -0.1590
  236MOL0     C32480   2.011   2.989  -0.143 -0.4787 -0.4263  0.0188
  236MOL0     N32481   1.480   2.954  -0.597  0.3147  0.3090 -0.2794
  236MOL0     N32482   1.381   3.040  -0.643 -0.2164  0.5321 -0.2180
  236MOL0     C32483   1.486   4.201  -0.105  0.3581 -0.0932 -0.2466
  236MOL0     C32484   1.410   4.256   0.001  0.8155 -0.5301 -0.1623
  236MOL0     C32485   1.255   4.449   0.354 -0.2177  0.0186 -1.4314
  236MOL0     C32486   1.342   4.449   0.465 -0.3234  0.3861 -1.1591
  236MOL0     C32487   1.324   4.542   0.572 -0.0817  0.5878  0.2766
  236MOL0     C32488   1.241   4.651   0.554  0.3471 -0.3805 -0.0402
  236MOL0     O32489   1.238   4.739   0.657  0.3361  0.3039  0.1901
  236MOL0     C32490   1.146   4.853   0.661 -0.4602  0.7833  0.6687
  236MOL0     C32491   1.004   4.794   0.709  0.2665  0.1853  1.1994
  236MOL0     C32492   0.925   4.905   0.791  1.6368 -0.5415 -0.6535
  236MOL0     C32493   0.855   5.008   0.693 -0.3477  0.7446  0.3822
  236MOL0     C32494   0.951   5.108   0.637  0.8219  0.4079 -0.1996
  236MOL0     C32495   1.024   5.180   0.570  0.5033 -0.0442 -0.4613
  236MOL0     C32496   1.167   4.663   0.432  0.2093 -1.0458  0.6971
  236MOL0     C32497   1.177   4.563   0.332  0.3338 -0.3700  0.9143
  236MOL0     C32498   1.084   4.588   0.214 -0.4301  0.0707 -0.5774
  236MOL0     H32499   1.571   4.099   0.264  1.4331  0.7860 -0.0110
  236MOL0     H32500   1.681   3.995   0.083  0.5956  0.5566 -0.4756
  236MOL0     H32501   1.650   3.960  -0.362  0.6825 -1.9409  0.9328
  236MOL0     H32502   1.519   4.057  -0.322  2.6721  1.9124 -2.0420
  236MOL0     H32503   1.591   3.811  -0.165  0.7882 -0.9286 -0.0752
  236MOL0     H32504   1.441   3.904  -0.151 -1.4359 -0.3554 -0.2748
  236MOL0     H32505   1.343   3.828  -0.352 -0.4283 -2.0906 -2.4721
  236MOL0     H32506   1.495   3.809  -0.425 -1.1289  1.4438  0.9706
  236MOL0     H32507   1.536   3.600  -0.322 -0.2912 -0.7724 -0.4115
  236MOL0     H32508   1.380   3.588  -0.232  0.4913 -3.2747 -0.6120
  236MOL0     H32509   1.447   3.583  -0.525  1.8016 -1.6086  2.3868
  236MOL0     H32510   1.282   3.640  -0.468 -1.0885  0.0501 -1.6287
  236MOL0     H32511   1.404   3.374  -0.378  1.0079 -0.7557 -1.4397
  236MOL0     H32512   1.233   3.425  -0.362  1.1037  3.1615  1.0823
  236MOL0     H32513   1.368   3.388  -0.636 -0.0453  0.1257  0.5585
  236MOL0     H32514   1.200   3.414  -0.611 -0.8033 -1.7815 -2.3111
  236MOL0     H32515   1.176   3.206  -0.470 -1.4638  2.0315 -0.3202
  236MOL0     H32516   1.181   3.193  -0.643  1.0305 -2.3495 -0.8910
  236MOL0     H32517   1.422   3.148  -0.340 -0.1693  3.2569 -2.9995
  236MOL0     H32518   1.630   3.008  -0.307 -0.4866 -1.4758  6.4632
  236MOL0     H32519   1.678   2.874  -0.411  1.8084  3.7346 -0.0078
  236MOL0     H32520   1.464   2.888  -0.190 -1.2092 -1.0307  1.1039
  236MOL0     H32521   1.447   2.772  -0.314 -1.0148 -1.4884  2.3258
  236MOL0     H32522   1.572   2.662  -0.124  1.7236  0.1890  0.8976
  236MOL0     H32523   1.663   2.664  -0.265  0.8827  0.4569  0.2338
  236MOL0     H32524   1.667   2.889  -0.058 -0.2613  0.8632 -2.4730
  236MOL0     H32525   1.764   2.746  -0.019  0.3635 -0.0203  0.7104
  236MOL0     H32526   1.983   2.681  -0.030  0.5942  0.5723  1.4067
  236MOL0     H32527   2.200   2.726   0.232  0.7271  4.0388 -0.2916
  236MOL0     H32528   2.314   2.719   0.106 -0.1975  1.1026  0.4862
  236MOL0     H32529   2.185   2.608   0.098 -0.7781  0.3479  1.2752
  236MOL0     H32530   2.348   3.388   0.230 -2.7240 -2.1276 -0.5718
  236MOL0     H32531   2.524   3.474   0.344 -1.6603 -0.4663  2.0143
  236MOL0     H32532   2.862   3.429   0.202 -1.3643  1.3349 -0.9589
  236MOL0     H32533   2.753   3.536   0.305 -1.1468 -0.8275  3.1271
  236MOL0     H32534   2.913   3.591   0.442 -0.6577 -1.7209  0.3834
  236MOL0     H32535   3.000   3.438   0.444  0.4210  1.1073  2.0493
  236MOL0     H32536   3.017   3.643   0.218  2.1868  2.3010  1.4267
  236MOL0     H32537   3.112   3.500   0.226  1.0755  1.1369 -1.4805
  236MOL0     H32538   3.152   3.737   0.412  0.3273  0.4442 -0.0547
  236MOL0     H32539   3.259   3.666   0.302  1.6016  0.9578  1.7834
  236MOL0     H32540   3.295   3.632   0.541 -1.2121  2.9042 -2.2957
  236MOL0     H32541   3.141   3.547   0.558 -1.0483  1.3430 -0.8207
  236MOL0     H32542   3.360   3.452   0.376 -1.4487  3.4418 -1.8286
  236MOL0     H32543   3.222   3.354   0.444  1.5135 -0.7544 -1.9078
  236MOL0     H32544   3.367   3.287   0.608  0.2660 -0.3808 -1.1027
  236MOL0     H32545   3.359   3.446   0.672 -2.6850 -0.3214  0.2511
  236MOL0     H32546   3.589   3.437   0.641  0.5257 -1.0900 -0.7707
  236MOL0     H32547   3.532   3.522   0.491 -0.4531 -1.2865 -3.9445
  236MOL0     H32548   2.755   3.103   0.288 -1.6596 -1.6952 -1.0454
  236MOL0     H32549   2.559   3.009   0.173  2.0166  1.1619 -2.1981
  236MOL0     H32550   2.163   3.129  -0.085 -2.1290  1.2433  3.5656
  236MOL0     H32551   1.975   3.059  -0.218  1.4416  2.3301  1.4754
  236MOL0     H32552   1.457   4.234  -0.205 -1.4466 -2.1168 -0.4808
  236MOL0     H32553   1.323   4.316  -0.026 -0.0177 -1.2510  0.8131
  236MOL0     H32554   1.415   4.369   0.464 -0.4934  0.1628  0.7085
  236MOL0     H32555   1.388   4.527   0.658  2.8695  5.7153 -0.5857
  236MOL0     H32556   1.188   4.926   0.730  1.5612  1.1016 -0.7902
  236MOL0     H32557   1.154   4.906   0.565  0.3543  2.4546  1.6224
  236MOL0     H32558   1.003   4.707   0.775 -1.3423 -0.1529  0.7780
  236MOL0     H32559   0.946   4.766   0.621  2.3119  1.5950 -0.6762
  236MOL0     H32560   0.841   4.862   0.847  0.0408  1.6818 -1.2097
  236MOL0     H32561   0.984   4.957   0.867 -3.3936  2.8130  1.4663
  236MOL0     H32562   0.776   5.063   0.744 -1.1750  1.2243 -1.3569
  236MOL0     H32563   0.807   4.955   0.610 -0.7196  0.2001  0.9375
  236MOL0     H32564   1.085   5.248   0.515  0.0893 -1.5749 -2.9669
  236MOL0     H32565   1.116   4.758   0.422  2.4829  0.2096  0.4285
  236MOL0     H32566   0.994   4.528   0.231  0.3358 -0.6704  1.0514
  236MOL0     H32567   1.059   4.694   0.224  2.4291  0.6844  1.0021
  236MOL0     H32568   1.126   4.565   0.116 -1.4937  0.6825 -1.1969
  237MOL0     O32569   7.136   1.837   4.281  0.2645  0.2419 -0.3913
  237MOL0     C32570   7.055   1.749   4.311  0.7721  0.0358 -0.1162
  237MOL0     O32571   6.986   1.727   4.433  0.1673 -0.1051 -0.1396
  237MOL0     C32572   6.933   1.834   4.507 -0.3836 -0.0418 -0.1970
  237MOL0     C32573   6.904   1.807   4.639 -0.7610 -0.2118 -0.7303
  237MOL0     C32574   6.834   1.903   4.716  0.2302 -0.1363  0.1638
  237MOL0     C32575   6.798   2.031   4.663  0.1702 -0.5457  0.7802
  237MOL0     O32576   6.729   2.119   4.733  0.0881 -0.4086 -0.5325
  237MOL0     C32577   6.721   2.259   4.688  0.2528 -1.0133 -0.1302
  237MOL0     C32578   6.688   2.340   4.807  0.3010 -1.1735  0.7344
  237MOL0     C32579   6.536   2.331   4.834 -0.0835  0.2433 -0.1246
  237MOL0     C32580   6.481   2.426   4.941 -0.2116 -0.3535  0.4991
  237MOL0     C32581   6.352   2.382   5.008 -0.0838 -0.2279  0.4518
  237MOL0     C32582   6.325   2.458   5.137  0.5800  0.7113  0.9119
  237MOL0     C32583   6.181   2.475   5.178 -0.5441 -0.0799  0.1469
  237MOL0     C32584   6.087   2.544   5.074  0.8018 -0.1361  1.0617
  237MOL0     N32585   6.139   2.672   5.028  0.2240 -0.8345 -0.4878
  237MOL0     C32586   6.143   2.726   4.903  0.5485  0.3944 -0.1767
  237MOL0     C32587   6.165   2.854   4.921  0.5662  1.0645 -0.0284
  237MOL0     C32588   6.175   2.948   4.815  0.6145 -0.2659  0.4432
  237MOL0     C32589   6.059   3.034   4.798  0.4710  0.6292 -0.6706
  237MOL0     C32590   6.061   3.093   4.663 -0.0219 -0.1863  0.0961
  237MOL0     C32591   5.955   3.210   4.666 -0.6875  0.5187 -0.1007
  237MOL0     O32592   6.003   3.336   4.726 -0.0256 -0.6173 -0.4929
  237MOL0     C32593   5.929   3.453   4.717  0.0302 -0.2704 -0.2202
  237MOL0     C32594   5.793   3.459   4.678 -0.3043  0.7041 -0.3242
  237MOL0     C32595   5.734   3.589   4.670 -0.7465  0.1229  0.1957
  237MOL0     C32596   5.588   3.587   4.639 -0.3830  0.1064  0.5349
  237MOL0     C32597   5.809   3.708   4.683 -0.7291  0.7028  1.4057
  237MOL0     C32598   5.746   3.844   4.677 -0.0651 -1.2105  0.6259
  237MOL0     O32599   5.787   3.935   4.776  0.1401  0.2748 -0.6303
  237MOL0     C32600   5.733   4.056   4.795  0.5067 -0.1742 -0.4877
  237MOL0     C32601   5.743   4.107   4.926  0.5227  0.1042  0.4889
  237MOL0     C32602   5.693   4.231   4.968 -0.4738 -0.3218 -0.2984
  237MOL0     C32603   5.641   4.310   4.862 -0.2645  0.5920  0.5375
  237MOL0     O32604   5.599   4.442   4.879 -0.3317 -0.2201  0.8446
  237MOL0     C32605   5.651   4.522   4.989  0.0486 -0.0839  0.3385
  237MOL0     C32606   5.637   4.671   4.955  0.8673  0.1546  0.6691
  237MOL0     C32607   5.493   4.713   4.966 -0.8915 -0.0668  0.3110
  237MOL0     C32608   5.478   4.798   5.091  0.2274 -0.5374  0.3863
  237MOL0     C32609   5.326   4.816   5.119  0.3905 -0.0651  0.3077
  237MOL0     C32610   5.294   4.915   5.235 -0.1243 -0.2570  1.3967
  237MOL0     C32611   5.199   5.027   5.186 -0.0672 -0.6509  0.0048
  237MOL0     C32612   5.184   5.153   5.284 -0.4061  0.7547  1.4588
  237MOL0    Cl32613   5.013   5.175   5.319  0.4912  0.0076 -0.2410
  237MOL0     C32614   5.632   4.266   4.728  0.8306 -0.0749  0.4439
  237MOL0     C32615   5.676   4.140   4.693  0.3326 -0.5274 -0.4389
  237MOL0     O32616   5.656   3.869   4.596  0.5093 -0.1651 -0.0895
  237MOL0     C32617   5.943   3.698   4.716  0.5767  0.7052 -0.0762
  237MOL0     C32618   6.000   3.575   4.745  0.1308 -1.1716  0.0407
  237MOL0     N32619   6.174   2.885   5.059  0.5713  0.3052  0.0784
  237MOL0     N32620   6.151   2.771   5.115 -0.7055 -1.0351  0.3794
  237MOL0     C32621   6.823   2.052   4.518  0.3276  0.0003 -0.6468
  237MOL0     C32622   6.898   1.954   4.447  0.2079  0.1040 -0.6788
  237MOL0     C32623   7.013   1.669   4.192 -0.7315  0.1060 -0.7769
  237MOL0     C32624   6.891   1.604   4.197 -0.3863  0.1519  0.1016
  237MOL0     C32625   6.848   1.537   4.079  0.5337  0.4206 -0.3586
  237MOL0     C32626   6.926   1.512   3.963 -0.1938 -0.6452 -0.0537
  237MOL0     O32627   6.870   1.441   3.857 -0.4740  0.2977 -0.1985
  237MOL0     C32628   6.952   1.439   3.746 -0.9182 -0.2056 -0.3028
  237MOL0     C32629   6.894   1.342   3.644 -0.3903 -0.8180  0.0236
  237MOL0     C32630   6.778   1.406   3.568  0.1138  0.4150  0.0228
  237MOL0     C32631   6.701   1.304   3.477  0.1603 -1.0323 -0.6604
  237MOL0     C32632   6.642   1.188   3.546 -0.3005 -0.6571  1.1195
  237MOL0     C32633   6.596   1.097   3.614  0.5336  0.0578  0.0207
  237MOL0     C32634   7.053   1.571   3.973  0.1419 -0.1580 -0.1509
  237MOL0     C32635   7.100   1.660   4.077 -0.1392  0.2616  0.1663
  237MOL0     C32636   7.241   1.698   4.066 -0.4172 -1.2689  0.2205
  237MOL0     H32637   6.928   1.715   4.692  3.4727 -0.4566 -2.6626
  237MOL0     H32638   6.799   1.882   4.817  2.0597  0.3175  0.9362
  237MOL0     H32639   6.654   2.275   4.603 -1.3961 -0.5819  1.1892
  237MOL0     H32640   6.823   2.287   4.662  0.5061  1.1391  2.6610
  237MOL0     H32641   6.729   2.315   4.905 -0.9214  1.5721  2.0653
  237MOL0     H32642   6.708   2.447   4.794  0.0574 -0.8598  2.6271
  237MOL0     H32643   6.483   2.352   4.740  1.6440  1.0419 -0.9679
  237MOL0     H32644   6.528   2.227   4.865  1.4802  0.0910 -0.1256
  237MOL0     H32645   6.554   2.445   5.021  1.4648 -1.5297 -0.6683
  237MOL0     H32646   6.450   2.523   4.901 -2.1877 -1.7758 -1.6191
  237MOL0     H32647   6.359   2.275   5.032  2.2655 -0.1704  0.2748
  237MOL0     H32648   6.270   2.402   4.938  1.3609  2.8934 -0.5209
  237MOL0     H32649   6.389   2.418   5.216  1.6220 -0.9122 -0.7068
  237MOL0     H32650   6.354   2.562   5.117 -1.7241  0.9621 -1.8327
  237MOL0     H32651   6.187   2.544   5.263 -0.2169  1.0324 -0.7595
  237MOL0     H32652   6.147   2.377   5.215 -1.0870  0.3277  0.7464
  237MOL0     H32653   6.085   2.485   4.982  2.0674  1.4494 -0.0263
  237MOL0     H32654   5.987   2.547   5.120  1.5937  0.6747  2.8047
  237MOL0     H32655   6.141   2.676   4.806 -0.8750  0.3474 -0.1336
  237MOL0     H32656   6.192   2.890   4.725 -3.7977  0.5911 -1.1879
  237MOL0     H32657   6.268   3.004   4.828  0.1425  0.7588 -0.4705
  237MOL0     H32658   5.967   2.977   4.815 -0.2991  2.3079  1.1240
  237MOL0     H32659   6.059   3.114   4.872  0.6351 -1.3184  1.5307
  237MOL0     H32660   6.162   3.134   4.666  1.6909 -4.0696  1.3902
  237MOL0     H32661   6.049   3.023   4.579  2.5307  0.3220 -0.7901
  237MOL0     H32662   5.939   3.235   4.561  1.1424  0.7736 -0.3537
  237MOL0     H32663   5.858   3.170   4.697 -1.6021  2.5523 -0.1479
  237MOL0     H32664   5.727   3.379   4.647 -0.5863  1.4275 -1.6506
  237MOL0     H32665   5.583   3.606   4.532  2.2258  0.0992  0.3672
  237MOL0     H32666   5.524   3.658   4.694 -0.3677  1.0149 -0.5791
  237MOL0     H32667   5.556   3.489   4.674  1.3424 -0.5492  0.3516
  237MOL0     H32668   5.788   4.054   5.010  2.5101 -0.6882 -0.9887
  237MOL0     H32669   5.715   4.280   5.062  0.3638 -0.9506 -0.1601
  237MOL0     H32670   5.597   4.497   5.081 -0.4967 -1.6674 -0.3739
  237MOL0     H32671   5.756   4.497   5.005  0.9271  1.8195 -1.8229
  237MOL0     H32672   5.700   4.743   5.008 -0.6227  1.1378  1.1609
  237MOL0     H32673   5.674   4.673   4.852 -1.3083  1.0698 -0.1516
  237MOL0     H32674   5.427   4.626   4.972 -0.2820 -0.5387  0.2023
  237MOL0     H32675   5.472   4.768   4.874  2.1232  1.8732  0.6515
  237MOL0     H32676   5.530   4.893   5.079 -2.5386  0.9782 -0.5332
  237MOL0     H32677   5.526   4.743   5.173  0.5999 -1.6737 -0.5636
  237MOL0     H32678   5.279   4.853   5.027  0.1138  0.2330  0.5622
  237MOL0     H32679   5.282   4.719   5.147  2.7597 -0.9126  1.2995
  237MOL0     H32680   5.389   4.963   5.260  0.3488 -0.8695  0.8338
  237MOL0     H32681   5.243   4.875   5.323 -1.5318  0.0100  0.7407
  237MOL0     H32682   5.098   4.988   5.169 -0.3025 -0.8167  1.6599
  237MOL0     H32683   5.238   5.067   5.092 -2.3845  0.7643 -0.4146
  237MOL0     H32684   5.224   5.240   5.231  0.1520  0.3275  1.1637
  237MOL0     H32685   5.243   5.142   5.376  3.7290  1.8618 -0.8044
  237MOL0     H32686   5.572   4.313   4.650  0.5529  1.6267  1.6388
  237MOL0     H32687   5.670   4.112   4.588  1.9277 -0.1896 -0.6463
  237MOL0     H32688   5.993   3.786   4.755  1.0128  1.1768 -1.6425
  237MOL0     H32689   6.099   3.578   4.788 -0.0373 -1.5054  0.4508
  237MOL0     H32690   6.802   2.141   4.459  2.6152 -1.2922 -3.6900
  237MOL0     H32691   6.935   1.970   4.346  0.2357 -0.3940 -0.7541
  237MOL0     H32692   6.826   1.613   4.284 -1.6772  1.2198 -0.9119
  237MOL0     H32693   6.757   1.478   4.072  2.2502 -2.3465 -0.8007
  237MOL0     H32694   6.977   1.541   3.717  1.2829  0.3217  2.9448
  237MOL0     H32695   7.051   1.398   3.770 -0.8050  0.2862  0.0905
  237MOL0     H32696   6.860   1.248   3.689 -1.1677 -0.0060  1.2088
  237MOL0     H32697   6.973   1.313   3.574  0.3449 -1.0962  0.9469
  237MOL0     H32698   6.713   1.448   3.645  0.9042 -0.0240  0.9415
  237MOL0     H32699   6.815   1.489   3.506 -1.1440 -0.9008 -2.6530
  237MOL0     H32700   6.769   1.275   3.397  2.8802  0.4774  0.9391
  237MOL0     H32701   6.626   1.374   3.438  0.0684  0.1139  1.4190
  237MOL0     H32702   6.567   1.002   3.653  0.4105 -1.8295 -4.0748
  237MOL0     H32703   7.128   1.557   3.896  0.8574  2.2136  0.0323
  237MOL0     H32704   7.268   1.800   4.098  0.5755 -0.8142 -1.8775
  237MOL0     H32705   7.307   1.636   4.127  0.0602  0.8055  1.9477
  237MOL0     H32706   7.274   1.710   3.962  2.5056  3.0079  1.3629
  238MOL0     O32707   1.137   8.962   5.669  0.0235  0.0632  0.3854
  238MOL0     C32708   1.139   9.081   5.706 -0.5943  0.3415 -0.2920
  238MOL0     O32709   1.135   9.192   5.617 -0.4080  0.6772 -0.5910
  238MOL0     C32710   1.130   9.164   5.481  0.7723  0.3394 -0.1817
  238MOL0     C32711   1.228   9.093   5.421  0.0668 -0.4028  0.8977
  238MOL0     C32712   1.222   9.059   5.289  0.6546  0.1890  0.1514
  238MOL0     C32713   1.118   9.110   5.211 -0.7934 -0.1581 -0.6967
  238MOL0     O32714   1.094   9.083   5.077 -0.5669  0.9741 -0.9967
  238MOL0     C32715   1.114   8.944   5.039 -0.3609  0.1155  0.5087
  238MOL0     C32716   1.064   8.917   4.896 -0.5158 -0.5872 -0.8765
  238MOL0     C32717   1.036   8.771   4.857  0.0438 -0.5813 -0.6282
  238MOL0     C32718   1.166   8.697   4.840  0.3176 -0.2418 -0.1596
  238MOL0     C32719   1.131   8.544   4.809  0.3137  0.1489  0.7993
  238MOL0     C32720   1.260   8.463   4.823 -0.6246  0.2459  0.4613
  238MOL0     C32721   1.272   8.334   4.726 -0.1125  0.3483 -0.7494
  238MOL0     C32722   1.319   8.382   4.583  0.0896  0.5165  0.4676
  238MOL0     N32723   1.363   8.261   4.515  0.7289 -0.6831 -0.0733
  238MOL0     C32724   1.325   8.222   4.384  0.5268 -0.5620 -0.2315
  238MOL0     C32725   1.379   8.097   4.374 -0.0481 -0.3539 -0.2892
  238MOL0     C32726   1.366   8.015   4.247 -0.2868 -0.2703 -0.2613
  238MOL0     C32727   1.224   7.952   4.233  0.2042 -0.6965  0.3459
  238MOL0     C32728   1.123   8.041   4.162  0.2653  0.5462  0.0076
  238MOL0     C32729   1.141   8.050   4.010 -0.6906 -0.5128 -0.5624
  238MOL0     O32730   1.017   8.088   3.943 -0.1442  0.2911 -0.1693
  238MOL0     C32731   0.992   8.219   3.947  0.8866 -0.5383  0.7158
  238MOL0     C32732   0.863   8.253   3.897  0.2607 -0.1958  0.3188
  238MOL0     C32733   0.819   8.388   3.887 -0.1258  0.3054 -0.5961
  238MOL0     C32734   0.682   8.404   3.845  0.5360 -0.0345 -1.0944
  238MOL0     C32735   0.911   8.489   3.912  1.2595  0.4547 -0.7979
  238MOL0     C32736   0.867   8.633   3.929 -0.4105  1.1118 -0.6665
  238MOL0     O32737   0.960   8.706   3.992  1.2184  0.0863  0.1453
  238MOL0     C32738   0.950   8.850   3.991 -0.1681 -0.7091 -0.0996
  238MOL0     C32739   0.993   8.918   4.107  0.6369 -0.9139 -0.3485
  238MOL0     C32740   1.013   9.064   4.106 -0.3824 -0.0507  1.2966
  238MOL0     C32741   0.996   9.126   3.982  0.1898  0.1123 -0.9008
  238MOL0     O32742   1.019   9.264   3.984 -0.5266  0.1228  0.1174
  238MOL0     C32743   0.969   9.338   3.875 -0.0293  0.5736 -0.3707
  238MOL0     C32744   0.992   9.489   3.892 -0.2291 -0.5396  0.4722
  238MOL0     C32745   1.032   9.561   3.763 -0.2574 -0.5990  1.0945
  238MOL0     C32746   1.070   9.709   3.793 -1.3884  1.0057  0.4103
  238MOL0     C32747   1.116   9.777   3.664  0.0193  0.4395  0.0381
  238MOL0     C32748   1.160   9.927   3.680  0.2752 -0.8346  0.1089
  238MOL0     C32749   1.295   9.933   3.741  0.3013  0.3959  0.2556
  238MOL0     C32750   1.342  10.064   3.790  0.0130  0.9629 -0.8536
  238MOL0    Cl32751   1.432  10.170   3.676 -0.2543 -0.0236  0.6468
  238MOL0     C32752   0.951   9.059   3.864  0.0107 -0.0854  0.2655
  238MOL0     C32753   0.930   8.926   3.873 -0.6359  0.6062  0.4727
  238MOL0     O32754   0.755   8.678   3.898  0.5962 -0.4850 -0.7934
  238MOL0     C32755   1.040   8.454   3.950 -0.3111 -0.0377 -0.7990
  238MOL0     C32756   1.077   8.325   3.974  0.4861  0.4514 -0.3204
  238MOL0     N32757   1.451   8.068   4.488 -0.1536  0.7478 -1.2346
  238MOL0     N32758   1.446   8.171   4.563  0.2495  0.0893  0.2638
  238MOL0     C32759   1.022   9.197   5.272 -0.0920 -0.4619  0.8849
  238MOL0     C32760   1.035   9.225   5.404 -0.2341 -0.0025 -0.2517
  238MOL0     C32761   1.197   9.116   5.837  0.1614  0.6954  1.0390
  238MOL0     C32762   1.312   9.194   5.841 -0.2695 -0.0725 -0.1427
  238MOL0     C32763   1.366   9.239   5.961  0.4106  0.2896 -0.2965
  238MOL0     C32764   1.310   9.188   6.084 -1.2377 -1.5922 -0.3446
  238MOL0     O32765   1.367   9.234   6.208  0.0334 -0.2952  0.2923
  238MOL0     C32766   1.507   9.232   6.240 -0.2546  0.0150  1.0520
  238MOL0     C32767   1.568   9.090   6.234  0.4323 -0.3596  0.6911
  238MOL0     C32768   1.501   8.975   6.319 -1.3596 -0.0006  0.0153
  238MOL0     C32769   1.577   8.833   6.318 -1.4385  0.0048  0.0123
  238MOL0     C32770   1.498   8.730   6.385 -0.1898 -0.3973 -0.4517
  238MOL0     C32771   1.433   8.670   6.467  0.3225 -0.6419 -0.3444
  238MOL0     C32772   1.197   9.106   6.080 -0.0786  0.2956 -1.0693
  238MOL0     C32773   1.144   9.071   5.957 -0.0268  0.8345  0.8223
  238MOL0     C32774   1.025   8.983   5.950  0.5386  0.1340  0.4206
  238MOL0     H32775   1.320   9.067   5.473  2.9415 -2.8923 -4.5340
  238MOL0     H32776   1.306   9.004   5.246  1.6445  3.2962 -2.2917
  238MOL0     H32777   1.047   8.895   5.110  1.0001 -2.4162  0.1740
  238MOL0     H32778   1.222   8.929   5.053  0.6248  3.5644 -2.0819
  238MOL0     H32779   0.987   8.993   4.879  2.3041  3.1633  1.6405
  238MOL0     H32780   1.142   8.942   4.824  0.5754 -4.2149 -1.1571
  238MOL0     H32781   0.979   8.718   4.934  1.3329  0.0929  0.8466
  238MOL0     H32782   0.984   8.765   4.762 -0.2104  3.5895 -0.9382
  238MOL0     H32783   1.221   8.743   4.758 -2.0315  2.1832 -0.5473
  238MOL0     H32784   1.222   8.701   4.934  1.1716 -3.4936 -0.4212
  238MOL0     H32785   1.088   8.548   4.709  0.5404 -1.1528  0.6284
  238MOL0     H32786   1.053   8.510   4.879  0.0507  0.8264  0.8441
  238MOL0     H32787   1.343   8.532   4.804 -2.3549  2.0848 -0.9131
  238MOL0     H32788   1.281   8.428   4.924  1.3289  1.2068  0.4390
  238MOL0     H32789   1.181   8.273   4.722  1.1447 -1.5543 -1.5033
  238MOL0     H32790   1.351   8.272   4.769  1.8165  3.4483  0.5553
  238MOL0     H32791   1.240   8.435   4.530 -0.4375  1.0107  1.7087
  238MOL0     H32792   1.405   8.449   4.589  1.4667 -0.9023 -1.7757
  238MOL0     H32793   1.277   8.290   4.314  1.4610 -0.1710 -0.5049
  238MOL0     H32794   1.442   7.936   4.247 -1.6257 -1.7135 -3.5981
  238MOL0     H32795   1.391   8.073   4.158  0.4590 -2.3096 -1.4286
  238MOL0     H32796   1.240   7.857   4.181 -0.9195 -1.2983  1.0538
  238MOL0     H32797   1.186   7.925   4.332 -2.2678  0.5553 -0.1543
  238MOL0     H32798   1.022   8.000   4.173  0.7734 -0.8700 -0.3087
  238MOL0     H32799   1.123   8.135   4.217 -2.0405 -0.8271  2.6165
  238MOL0     H32800   1.225   8.112   3.979 -1.2141  0.2109 -0.5720
  238MOL0     H32801   1.156   7.947   3.976 -2.1970 -0.9423 -0.0198
  238MOL0     H32802   0.791   8.174   3.879  0.9456 -1.4106  2.4862
  238MOL0     H32803   0.627   8.448   3.928  0.7098  1.2119 -1.6193
  238MOL0     H32804   0.634   8.314   3.804  1.0572 -0.4705 -0.7607
  238MOL0     H32805   0.677   8.470   3.758 -1.8208  1.5598  0.1481
  238MOL0     H32806   1.019   8.860   4.195 -4.7870 -1.5427  1.2410
  238MOL0     H32807   1.032   9.117   4.199 -1.0107  0.6198  1.0510
  238MOL0     H32808   1.026   9.295   3.792  0.5829 -3.5973  1.9671
  238MOL0     H32809   0.862   9.322   3.858  0.6189 -2.2877 -2.6304
  238MOL0     H32810   0.906   9.548   3.928  0.7455  0.3452  1.4127
  238MOL0     H32811   1.075   9.502   3.961 -1.5746  0.3940  1.9942
  238MOL0     H32812   0.956   9.553   3.685  1.4450  0.6970 -0.7903
  238MOL0     H32813   1.120   9.518   3.716  0.5282  0.3844  1.6189
  238MOL0     H32814   1.156   9.699   3.860  0.8219  3.9609 -1.6771
  238MOL0     H32815   1.000   9.774   3.846  0.0339  3.3324 -0.3702
  238MOL0     H32816   1.190   9.712   3.617  0.1193 -2.6874  4.0100
  238MOL0     H32817   1.027   9.768   3.601  0.4450 -0.2522 -0.4708
  238MOL0     H32818   1.092   9.979   3.748  0.1007  1.1211 -1.4556
  238MOL0     H32819   1.157   9.977   3.582 -0.5107  1.1764  1.1041
  238MOL0     H32820   1.367   9.889   3.671 -0.2595 -1.9002  1.0408
  238MOL0     H32821   1.286   9.857   3.820 -2.8108  0.0121 -0.3433
  238MOL0     H32822   1.406  10.053   3.879 -1.8462  3.0505  0.8826
  238MOL0     H32823   1.259  10.128   3.820 -0.0390  0.8598 -0.7732
  238MOL0     H32824   0.929   9.102   3.767 -1.0698  0.4278  0.7180
  238MOL0     H32825   0.924   8.874   3.778 -1.5885  1.0575  0.2763
  238MOL0     H32826   1.107   8.531   3.987 -1.3986 -0.0221  1.2703
  238MOL0     H32827   1.170   8.312   4.028 -0.2062  0.3277  0.8697
  238MOL0     H32828   0.943   9.229   5.204 -0.4375 -1.3981  0.8350
  238MOL0     H32829   0.950   9.276   5.449 -1.6937  1.5457 -4.2642
  238MOL0     H32830   1.339   9.222   5.740 -0.2459  1.5733  0.3026
  238MOL0     H32831   1.460   9.294   5.965 -0.1245  1.1889  3.4413
  238MOL0     H32832   1.564   9.299   6.175  2.6106 -1.2619  2.0989
  238MOL0     H32833   1.520   9.267   6.343  2.6461  0.4986  0.6137
  238MOL0     H32834   1.667   9.098   6.281  0.6892  0.3333  0.0440
  238MOL0     H32835   1.576   9.056   6.130  0.3611 -0.5122  0.7348
  238MOL0     H32836   1.499   9.005   6.424 -1.1621 -2.1999  0.6822
  238MOL0     H32837   1.400   8.960   6.281 -1.5152  0.7537  0.1010
  238MOL0     H32838   1.664   8.857   6.379 -3.0861  4.2298  1.0266
  238MOL0     H32839   1.601   8.800   6.216 -0.6419  2.1400 -0.5311
  238MOL0     H32840   1.374   8.610   6.534  1.3630 -3.7606 -2.0104
  238MOL0     H32841   1.164   9.064   6.175 -0.1241  2.4588 -0.0564
  238MOL0     H32842   0.995   8.958   6.053 -2.8046  0.5453 -0.3376
  238MOL0     H32843   0.945   9.041   5.904 -0.9160 -1.2540  1.0844
  238MOL0     H32844   1.052   8.899   5.885  4.0729  1.4506 -0.0521
  239MOL0     O32845   8.780   9.479   4.380  0.0208  0.2269  0.5618
  239MOL0     C32846   8.737   9.506   4.269  0.0239 -0.1953 -0.5522
  239MOL0     O32847   8.794   9.467   4.156  0.2370 -0.5319  0.5516
  239MOL0     C32848   8.911   9.401   4.172 -1.0086  0.9538  0.1224
  239MOL0     C32849   8.910   9.269   4.222  0.1344 -0.1387  0.4978
  239MOL0     C32850   9.030   9.188   4.235 -0.3665 -0.0226  0.2842
  239MOL0     C32851   9.152   9.252   4.212 -0.3354 -0.4166  0.1314
  239MOL0     O32852   9.276   9.188   4.227  0.1472  0.2497 -0.6423
  239MOL0     C32853   9.369   9.181   4.110  0.3723 -0.4324 -0.2618
  239MOL0     C32854   9.486   9.081   4.151 -0.6061  0.0618  0.2049
  239MOL0     C32855   9.450   8.937   4.178  0.9085 -1.0056  0.4115
  239MOL0     C32856   9.363   8.918   4.309 -0.2217  0.4523 -0.2220
  239MOL0     C32857   9.342   8.762   4.319  0.1635 -0.2164 -0.8092
  239MOL0     C32858   9.245   8.727   4.426  0.3020  0.0802  0.4981
  239MOL0     C32859   9.188   8.590   4.403  0.1575  0.5748  0.0978
  239MOL0     C32860   9.302   8.477   4.414 -0.5123  0.5886  0.3406
  239MOL0     N32861   9.355   8.468   4.554  0.3641  0.6572  0.6476
  239MOL0     C32862   9.284   8.415   4.664 -0.1838 -0.6133  0.0204
  239MOL0     C32863   9.378   8.407   4.759 -0.0075 -0.3379 -0.1481
  239MOL0     C32864   9.337   8.367   4.898 -0.6296 -0.9073 -0.2519
  239MOL0     C32865   9.365   8.215   4.919 -0.0610  0.2913 -0.2967
  239MOL0     C32866   9.350   8.187   5.072 -0.2183 -0.4812 -0.0227
  239MOL0     C32867   9.324   8.044   5.101 -0.0366  0.6193  0.4546
  239MOL0     O32868   9.182   8.020   5.080 -0.4040 -0.2234  0.0480
  239MOL0     C32869   9.144   7.889   5.069  1.5783 -0.3839 -0.0024
  239MOL0     C32870   9.114   7.813   5.176  0.5340  0.3736 -0.2296
  239MOL0     C32871   9.039   7.698   5.172 -0.2802 -0.3754  0.9599
  239MOL0     C32872   8.991   7.639   5.305  0.8919 -0.6069  1.5596
  239MOL0     C32873   9.010   7.632   5.052  0.7638 -0.9390 -0.6213
  239MOL0     C32874   8.942   7.505   5.037  1.1002  1.2132 -0.4661
  239MOL0     O32875   8.969   7.419   4.937  0.1446  0.2622  0.1680
  239MOL0     C32876   8.900   7.301   4.929 -0.0292  0.3838 -0.2743
  239MOL0     C32877   8.788   7.292   4.850 -0.0256 -0.2872 -0.7163
  239MOL0     C32878   8.704   7.186   4.853  0.5617 -0.2731 -0.2409
  239MOL0     C32879   8.731   7.070   4.937 -0.3824  0.2055  0.3235
  239MOL0     O32880   8.665   6.953   4.939  0.3229  0.3301 -0.5401
  239MOL0     C32881   8.537   6.934   4.874 -0.0802  0.0690 -0.2840
  239MOL0     C32882   8.563   6.805   4.796  1.0472  0.0232  0.0815
  239MOL0     C32883   8.437   6.737   4.757  0.1674 -0.5486  0.6320
  239MOL0     C32884   8.442   6.621   4.654  0.1026  0.1519 -0.5426
  239MOL0     C32885   8.310   6.548   4.644 -0.1286 -0.4674 -0.0021
  239MOL0     C32886   8.326   6.441   4.536 -0.7146  0.0276  0.9855
  239MOL0     C32887   8.199   6.369   4.511 -0.6472 -0.3628  0.6051
  239MOL0     C32888   8.187   6.254   4.617 -0.5782 -0.5681  0.3190
  239MOL0    Cl32889   8.010   6.194   4.621  0.1484 -0.3536 -0.2477
  239MOL0     C32890   8.851   7.083   5.010 -0.4930 -0.7509  0.1144
  239MOL0     C32891   8.930   7.193   5.006 -0.3572  0.0558  1.2182
  239MOL0     O32892   8.850   7.492   5.115  0.6736  0.2735 -0.5697
  239MOL0     C32893   9.064   7.704   4.938 -0.9446  0.3791 -0.1667
  239MOL0     C32894   9.128   7.832   4.944 -0.4586  0.5694  0.2734
  239MOL0     N32895   9.493   8.462   4.706 -0.1318  0.5719  0.4957
  239MOL0     N32896   9.482   8.502   4.587  0.3325  0.1801 -0.1843
  239MOL0     C32897   9.151   9.381   4.149 -0.9699  0.9293 -0.1723
  239MOL0     C32898   9.035   9.455   4.137 -0.2348  0.2109  0.4948
  239MOL0     C32899   8.612   9.579   4.267  0.2394 -0.0555  0.1050
  239MOL0     C32900   8.613   9.702   4.328 -0.6401 -1.0110 -0.8299
  239MOL0     C32901   8.498   9.777   4.356  0.1141 -0.3573  0.1890
  239MOL0     C32902   8.381   9.736   4.286 -0.3356 -0.3708  0.4358
  239MOL0     O32903   8.257   9.793   4.297 -0.1940 -0.3517  0.4966
  239MOL0     C32904   8.240   9.906   4.386  0.0508  0.2023 -0.3182
  239MOL0     C32905   8.161   9.856   4.506 -0.0940  0.1064 -0.3221
  239MOL0     C32906   8.011   9.842   4.485 -0.5882 -0.0515  0.1897
  239MOL0     C32907   7.978   9.693   4.497  1.1177  0.4829 -0.1807
  239MOL0     C32908   7.834   9.682   4.514  0.2546 -0.1571 -0.6725
  239MOL0     C32909   7.710   9.682   4.534  0.0132  0.2552 -0.8165
  239MOL0     C32910   8.381   9.620   4.218  0.1629 -0.0496  0.1669
  239MOL0     C32911   8.498   9.538   4.208  0.5376  0.3006  0.3899
  239MOL0     C32912   8.497   9.407   4.130 -0.4158 -0.5027 -0.0315
  239MOL0     H32913   8.816   9.218   4.241  0.8423 -0.9121  2.1102
  239MOL0     H32914   9.017   9.084   4.263  1.6688 -1.5576 -3.6391
  239MOL0     H32915   9.405   9.278   4.074  1.9465 -1.5526 -1.8774
  239MOL0     H32916   9.316   9.150   4.020 -2.1661 -0.2648  1.0858
  239MOL0     H32917   9.563   9.082   4.073  2.4856 -2.1247  2.9523
  239MOL0     H32918   9.541   9.106   4.242  2.0413 -1.6239 -0.7854
  239MOL0     H32919   9.396   8.901   4.090  2.8580 -2.1985 -0.3695
  239MOL0     H32920   9.544   8.880   4.184  1.9359  0.7396  2.2721
  239MOL0     H32921   9.401   8.954   4.405 -2.9190 -0.2747  1.2161
  239MOL0     H32922   9.267   8.969   4.300 -0.6526 -0.3852 -0.5633
  239MOL0     H32923   9.433   8.715   4.357 -1.4725 -1.5063  1.7855
  239MOL0     H32924   9.323   8.718   4.221  0.1610  1.1487 -1.4388
  239MOL0     H32925   9.300   8.737   4.520  4.0829 -2.7162 -1.1687
  239MOL0     H32926   9.166   8.804   4.425 -0.8073 -1.0043 -1.4397
  239MOL0     H32927   9.143   8.586   4.304 -0.3460  2.2564  0.2271
  239MOL0     H32928   9.104   8.573   4.472 -1.6589 -1.1564 -2.3877
  239MOL0     H32929   9.263   8.376   4.397 -0.8976  0.3943  2.1623
  239MOL0     H32930   9.378   8.502   4.340 -2.1615  2.3601 -0.8742
  239MOL0     H32931   9.178   8.397   4.682 -0.3978  0.4802 -0.0714
  239MOL0     H32932   9.234   8.396   4.920 -0.5348 -0.3934 -0.4738
  239MOL0     H32933   9.405   8.427   4.959 -1.1225 -0.8352  0.2298
  239MOL0     H32934   9.295   8.145   4.873  1.6596  0.5574 -3.6672
  239MOL0     H32935   9.458   8.174   4.879 -0.2237 -0.0180 -0.3618
  239MOL0     H32936   9.446   8.210   5.120  0.4638 -0.9405 -1.1059
  239MOL0     H32937   9.276   8.245   5.126  1.1694 -2.5554  4.6241
  239MOL0     H32938   9.377   7.988   5.023  0.2260  2.3927 -0.6786
  239MOL0     H32939   9.363   8.010   5.197 -2.1780 -0.5688  0.9655
  239MOL0     H32940   9.143   7.847   5.275 -0.9056 -2.0401  1.0941
  239MOL0     H32941   8.882   7.647   5.315  0.7662 -0.9154  0.5744
  239MOL0     H32942   9.028   7.687   5.395 -0.8766 -0.3848  2.2069
  239MOL0     H32943   9.017   7.533   5.313 -1.6122 -1.4478 -0.1481
  239MOL0     H32944   8.771   7.372   4.779  0.1590 -1.0564 -1.6519
  239MOL0     H32945   8.615   7.186   4.790 -0.9091  1.5650  1.6724
  239MOL0     H32946   8.463   6.930   4.955  0.2896  3.2573  0.3361
  239MOL0     H32947   8.499   7.010   4.805 -2.8046  0.3416  1.3533
  239MOL0     H32948   8.604   6.848   4.704  2.9807  1.4848  1.5402
  239MOL0     H32949   8.624   6.734   4.851 -1.5698 -0.6483  2.3506
  239MOL0     H32950   8.382   6.818   4.709  4.5123  0.6179 -2.9987
  239MOL0     H32951   8.387   6.704   4.848  1.6339  2.5720  2.7342
  239MOL0     H32952   8.519   6.556   4.696  1.7921  2.4456  0.0477
  239MOL0     H32953   8.468   6.648   4.552 -0.4443  2.8031 -0.0377
  239MOL0     H32954   8.277   6.501   4.738 -1.6401 -0.1953 -0.3792
  239MOL0     H32955   8.234   6.612   4.598  0.7111  0.5275 -0.0383
  239MOL0     H32956   8.403   6.371   4.567  0.3037  0.6065 -0.1420
  239MOL0     H32957   8.359   6.478   4.438  0.3043 -0.6166  1.0790
  239MOL0     H32958   8.209   6.338   4.407  3.1397  2.4184 -0.0715
  239MOL0     H32959   8.124   6.449   4.520 -0.0023  0.0547  3.1239
  239MOL0     H32960   8.215   6.279   4.719 -1.6734  0.6283  0.3485
  239MOL0     H32961   8.252   6.169   4.592 -0.7084 -0.2967 -1.0207
  239MOL0     H32962   8.881   7.000   5.073 -1.0331  0.2279  1.7122
  239MOL0     H32963   9.009   7.203   5.079 -1.8958 -1.8116  3.2413
  239MOL0     H32964   9.063   7.656   4.841  3.1154 -2.3062  0.9099
  239MOL0     H32965   9.171   7.879   4.857 -2.1137 -0.0744 -0.9515
  239MOL0     H32966   9.247   9.428   4.129  0.3316 -1.4273  0.1869
  239MOL0     H32967   9.031   9.556   4.097  0.3784  1.7750  4.0206
  239MOL0     H32968   8.707   9.729   4.375 -1.1172  0.2427 -0.5578
  239MOL0     H32969   8.502   9.858   4.428  0.6518 -1.1952  1.1293
  239MOL0     H32970   8.328   9.954   4.430 -0.3092  0.4621  0.1327
  239MOL0     H32971   8.184   9.986   4.336 -2.0098  0.5092  2.2664
  239MOL0     H32972   8.180   9.928   4.587  0.6718  0.1406 -0.5241
  239MOL0     H32973   8.208   9.763   4.540 -1.7850 -0.0957  1.6749
  239MOL0     H32974   7.967   9.908   4.560  0.0050 -0.4949  0.9395
  239MOL0     H32975   7.976   9.882   4.389 -0.5582  2.9432  1.3414
  239MOL0     H32976   8.027   9.658   4.588 -0.2483  1.2039  0.8769
  239MOL0     H32977   7.993   9.643   4.401 -1.7916  1.4854 -1.2724
  239MOL0     H32978   7.604   9.689   4.548  0.0382 -0.7539 -0.0166
  239MOL0     H32979   8.289   9.584   4.173 -0.1549 -1.4507  1.8354
  239MOL0     H32980   8.391   9.403   4.103 -0.5907  1.8247  0.0690
  239MOL0     H32981   8.551   9.407   4.036  0.9935 -2.2900  0.7219
  239MOL0     H32982   8.519   9.319   4.191  0.0630 -0.5069 -0.2123
  240MOL0     O32983  11.497   6.712   5.053 -0.0676 -0.3868  0.6012
  240MOL0     C32984  11.569   6.670   4.965  0.2478  0.9375  0.1854
  240MOL0     O32985  11.639   6.545   4.965 -0.4181 -0.8495 -0.5020
  240MOL0     C32986  11.611   6.453   5.062 -0.6013 -0.6548  0.2063
  240MOL0     C32987  11.661   6.476   5.190  0.4141 -0.1307  0.4121
  240MOL0     C32988  11.665   6.366   5.283 -0.4402 -0.6367  0.2372
  240MOL0     C32989  11.600   6.243   5.240  0.3400 -0.4593 -0.3537
  240MOL0     O32990  11.595   6.148   5.337 -1.1227 -0.1258 -0.3020
  240MOL0     C32991  11.470   6.079   5.370  0.7210 -0.1021 -0.0074
  240MOL0     C32992  11.360   6.188   5.401  0.3047  0.2254  0.5885
  240MOL0     C32993  11.234   6.113   5.448 -0.5195 -0.3108  0.6308
  240MOL0     C32994  11.121   6.214   5.484 -0.5247 -0.0408  0.3260
  240MOL0     C32995  11.151   6.270   5.627 -0.1563 -0.2415  0.0609
  240MOL0     C32996  11.092   6.412   5.639  0.2667  0.1400  0.1696
  240MOL0     C32997  11.139   6.479   5.763 -0.1448  0.8253 -0.2133
  240MOL0     C32998  11.047   6.596   5.792  0.4127 -1.5019  0.1371
  240MOL0     N32999  11.097   6.682   5.902  0.4253 -1.0186 -0.7281
  240MOL0     C33000  11.238   6.700   5.927  0.9088  1.2879  0.2298
  240MOL0     C33001  11.240   6.773   6.045  0.9455  0.5501 -0.3523
  240MOL0     C33002  11.362   6.805   6.133 -0.1127 -0.0145 -0.2065
  240MOL0     C33003  11.332   6.839   6.281  0.6944 -0.4674  0.2953
  240MOL0     C33004  11.281   6.721   6.370  0.1752  0.9411 -0.1466
  240MOL0     C33005  11.368   6.586   6.349  0.2253 -0.1555 -0.6551
  240MOL0     O33006  11.509   6.622   6.365 -0.6507  0.5354 -0.5585
  240MOL0     C33007  11.559   6.647   6.492  0.0039 -0.4970  0.8083
  240MOL0     C33008  11.692   6.673   6.489 -0.2413 -0.2528  0.7338
  240MOL0     C33009  11.779   6.700   6.598  1.0098  0.4321  0.0685
  240MOL0     C33010  11.933   6.711   6.573 -0.7009  0.0655  0.0990
  240MOL0     C33011  11.714   6.717   6.722 -0.5621  0.5598 -1.4048
  240MOL0     C33012  11.786   6.724   6.855  0.4025 -1.1297 -0.4734
  240MOL0     O33013  11.731   6.791   6.950 -0.6674  0.5899  0.5484
  240MOL0     C33014  11.776   6.803   7.078 -0.2314  0.3316 -0.3739
  240MOL0     C33015  11.737   6.917   7.148 -0.2342 -0.0232  0.0861
  240MOL0     C33016  11.769   6.946   7.273 -0.0858 -0.6567  0.3138
  240MOL0     C33017  11.833   6.847   7.355  0.0214  0.9723  0.0508
  240MOL0     O33018  11.853   6.845   7.493 -0.3651 -1.0756 -0.0299
  240MOL0     C33019  11.770   6.918   7.591  0.9294 -0.3172  0.1433
  240MOL0     C33020  11.615   6.874   7.600 -1.2029 -0.5659  0.6919
  240MOL0     C33021  11.615   6.729   7.642 -0.3646 -0.4245 -0.0127
  240MOL0     C33022  11.519   6.640   7.564 -0.2540  0.6085 -0.4960
  240MOL0     C33023  11.507   6.506   7.637 -1.1827 -0.4629 -0.4598
  240MOL0     C33024  11.442   6.392   7.560 -0.3159 -0.1987 -0.3089
  240MOL0     C33025  11.490   6.257   7.626 -0.1025 -0.5441  0.1827
  240MOL0     C33026  11.436   6.233   7.774 -0.1573 -0.5427 -0.5585
  240MOL0    Cl33027  11.518   6.333   7.904  0.1526  0.3824 -0.0725
  240MOL0     C33028  11.876   6.730   7.292 -1.1851 -0.1640  0.3759
  240MOL0     C33029  11.853   6.708   7.161  0.2790  0.6230 -0.0588
  240MOL0     O33030  11.904   6.685   6.856  0.5814  0.5640 -0.3225
  240MOL0     C33031  11.572   6.707   6.728  0.5086 -0.2221  0.6766
  240MOL0     C33032  11.498   6.676   6.612  1.5278  0.4781  0.4934
  240MOL0     N33033  11.110   6.802   6.090  0.0643  0.8676  0.1972
  240MOL0     N33034  11.028   6.754   5.999 -0.9495  0.0164  0.3313
  240MOL0     C33035  11.538   6.229   5.119  0.4601 -0.6482 -0.8523
  240MOL0     C33036  11.548   6.330   5.024 -0.1410 -0.1747  0.0344
  240MOL0     C33037  11.577   6.755   4.844  0.4474  0.0175  1.2088
  240MOL0     C33038  11.530   6.892   4.854 -0.1026  0.3834 -0.7336
  240MOL0     C33039  11.562   6.983   4.755 -0.5262 -0.3671  0.3838
  240MOL0     C33040  11.603   6.946   4.629  0.2974  0.1583 -0.6150
  240MOL0     O33041  11.612   7.025   4.516  0.7788 -0.1720  0.2950
  240MOL0     C33042  11.625   7.167   4.539  0.5767  0.4285 -0.7513
  240MOL0     C33043  11.478   7.228   4.521 -0.2092  0.0743  0.3961
  240MOL0     C33044  11.437   7.232   4.364  0.5104  0.2242 -0.4385
  240MOL0     C33045  11.520   7.338   4.282  0.4876  0.2789 -0.0654
  240MOL0     C33046  11.503   7.473   4.340 -0.3671  0.1903  0.0946
  240MOL0     C33047  11.489   7.587   4.391  1.2277  0.4004  0.2789
  240MOL0     C33048  11.646   6.809   4.612  0.2507 -0.5102 -0.6731
  240MOL0     C33049  11.639   6.714   4.722  0.5171 -0.5751 -0.3163
  240MOL0     C33050  11.708   6.578   4.702 -0.5133 -0.0434  0.0866
  240MOL0     H33051  11.710   6.572   5.205 -0.5210  0.6175 -1.0761
  240MOL0     H33052  11.702   6.370   5.384 -0.2084 -0.4885  0.1483
  240MOL0     H33053  11.478   6.009   5.453 -1.4108  2.8562  2.9767
  240MOL0     H33054  11.450   6.020   5.280  2.6509  0.8968 -1.1581
  240MOL0     H33055  11.393   6.260   5.476 -1.4114 -1.1353  2.7602
  240MOL0     H33056  11.319   6.240   5.314  1.2347  2.6083  1.4987
  240MOL0     H33057  11.207   6.051   5.362 -1.3913 -4.4512  3.5903
  240MOL0     H33058  11.273   6.050   5.528 -2.8386 -1.1199  1.1724
  240MOL0     H33059  11.114   6.292   5.408 -1.2802 -0.9641 -0.5706
  240MOL0     H33060  11.026   6.160   5.480 -0.1751 -0.5617 -2.2524
  240MOL0     H33061  11.258   6.270   5.650 -0.2995 -2.8772  1.1592
  240MOL0     H33062  11.109   6.219   5.714  0.2055  3.0960  2.3763
  240MOL0     H33063  11.119   6.470   5.550  1.3025  0.7074  0.8367
  240MOL0     H33064  10.984   6.394   5.632  0.3996 -1.2869  1.3489
  240MOL0     H33065  11.241   6.513   5.746  0.4963 -0.2783  1.1838
  240MOL0     H33066  11.143   6.406   5.844 -0.4662 -0.2234 -1.1094
  240MOL0     H33067  11.056   6.658   5.702  0.2374 -0.8277  0.5747
  240MOL0     H33068  10.940   6.589   5.809  0.0532  1.8018  0.0020
  240MOL0     H33069  11.325   6.652   5.882  2.5012  3.7930  0.4263
  240MOL0     H33070  11.415   6.887   6.083  1.4378 -0.4851  0.5918
  240MOL0     H33071  11.428   6.718   6.122 -2.0540 -1.4753 -0.9158
  240MOL0     H33072  11.423   6.881   6.325  0.6759  1.2565 -1.1956
  240MOL0     H33073  11.262   6.923   6.287 -1.0183 -1.7713 -0.4142
  240MOL0     H33074  11.280   6.741   6.477  2.5624 -2.3462  0.6315
  240MOL0     H33075  11.181   6.690   6.336 -0.3955 -0.0535  2.2395
  240MOL0     H33076  11.342   6.512   6.425  3.3301  2.1207  2.9651
  240MOL0     H33077  11.355   6.545   6.248  1.4075 -0.1467 -0.8262
  240MOL0     H33078  11.736   6.669   6.389 -0.6416  2.7700  0.3467
  240MOL0     H33079  11.992   6.625   6.605 -0.6873 -0.4456 -1.2161
  240MOL0     H33080  11.972   6.802   6.620 -0.7748  0.4659 -0.6011
  240MOL0     H33081  11.956   6.736   6.469  1.3766  0.9033  0.7031
  240MOL0     H33082  11.676   6.987   7.092  1.1499  2.3425  1.3922
  240MOL0     H33083  11.746   7.046   7.310 -0.3043 -1.4658  2.4920
  240MOL0     H33084  11.794   6.914   7.698  0.0535 -0.7048  0.3402
  240MOL0     H33085  11.769   7.025   7.570  0.7960  0.5620  3.9503
  240MOL0     H33086  11.561   6.942   7.667 -2.2016 -1.5812  0.9430
  240MOL0     H33087  11.578   6.892   7.499  1.5539  1.6302 -0.0655
  240MOL0     H33088  11.585   6.719   7.747 -0.2605  1.5053  0.2351
  240MOL0     H33089  11.712   6.679   7.635 -1.8618 -3.3694 -1.5094
  240MOL0     H33090  11.562   6.613   7.467  0.6297 -1.5322  0.4144
  240MOL0     H33091  11.420   6.684   7.549 -1.4670 -1.8558 -0.3045
  240MOL0     H33092  11.609   6.477   7.664 -1.8805 -2.5796  0.0965
  240MOL0     H33093  11.453   6.517   7.731  0.7710  1.9585  0.4941
  240MOL0     H33094  11.476   6.392   7.456 -0.7375  2.2206 -0.5066
  240MOL0     H33095  11.334   6.406   7.569 -0.1934  1.3605 -0.8755
  240MOL0     H33096  11.599   6.259   7.613  0.1512  2.2257  1.9927
  240MOL0     H33097  11.448   6.169   7.576 -1.9893 -0.5316  1.6409
  240MOL0     H33098  11.455   6.126   7.777 -0.7497 -0.7051 -1.9985
  240MOL0     H33099  11.328   6.246   7.780  0.1628  1.7737  2.6320
  240MOL0     H33100  11.936   6.664   7.355 -0.4012  0.5139  0.3496
  240MOL0     H33101  11.898   6.621   7.114  0.4099  0.1969  0.8311
  240MOL0     H33102  11.529   6.728   6.825 -0.6028 -2.1327  0.6438
  240MOL0     H33103  11.390   6.676   6.622  1.5263  2.1869  0.6512
  240MOL0     H33104  11.501   6.131   5.090 -1.0791 -0.7046  1.1130
  240MOL0     H33105  11.533   6.305   4.920  0.6014 -1.3491  0.1812
  240MOL0     H33106  11.491   6.931   4.948  1.1434 -1.8886  0.8388
  240MOL0     H33107  11.534   7.087   4.769 -1.8983 -0.6367 -0.1769
  240MOL0     H33108  11.664   7.191   4.638 -1.5685  4.0756 -0.5931
  240MOL0     H33109  11.695   7.221   4.474 -0.5835  2.2393 -0.5912
  240MOL0     H33110  11.473   7.326   4.568 -0.4848  0.5385 -0.5644
  240MOL0     H33111  11.413   7.164   4.582 -0.2443  2.2054  2.7346
  240MOL0     H33112  11.452   7.137   4.311 -2.8044 -2.0866  2.3489
  240MOL0     H33113  11.330   7.255   4.359 -0.2805 -2.4407  2.0042
  240MOL0     H33114  11.475   7.336   4.182 -0.8573 -3.3080  0.4667
  240MOL0     H33115  11.621   7.299   4.276  0.8265  0.5248  2.7747
  240MOL0     H33116  11.497   7.685   4.433 -0.8843  0.4148  0.7316
  240MOL0     H33117  11.678   6.761   4.520  2.0147  2.2696 -1.6155
  240MOL0     H33118  11.641   6.501   4.742 -2.2632  0.4054 -1.8522
  240MOL0     H33119  11.742   6.551   4.601  0.9661 -2.9496  1.2255
  240MOL0     H33120  11.801   6.589   4.759 -1.4371 -1.7582  2.0721
  241MOL0     O33121   8.693   3.178   6.417  0.6237  0.4651  0.1320
  241MOL0     C33122   8.804   3.204   6.475  0.8813  0.5822 -0.3096
  241MOL0     O33123   8.867   3.323   6.459  0.3794 -0.6802  0.2205
  241MOL0     C33124   8.781   3.436   6.449 -0.9776  0.8651 -0.3649
  241MOL0     C33125   8.666   3.450   6.514  0.3974 -0.3883 -0.2570
  241MOL0     C33126   8.585   3.571   6.495 -0.6512 -0.0550 -1.2533
  241MOL0     C33127   8.639   3.682   6.428 -0.6709  0.0173 -0.0658
  241MOL0     O33128   8.559   3.781   6.418  0.4889  0.5165 -0.1437
  241MOL0     C33129   8.583   3.909   6.359 -0.2305  0.1840  0.2657
  241MOL0     C33130   8.637   4.002   6.458  0.0547 -0.4289 -0.7333
  241MOL0     C33131   8.628   4.149   6.401  0.3302 -0.9817  0.0891
  241MOL0     C33132   8.679   4.253   6.505  0.0265 -0.0345 -0.3406
  241MOL0     C33133   8.662   4.397   6.466 -1.3227 -0.4657 -0.7494
  241MOL0     C33134   8.700   4.478   6.598  0.0433 -0.1279  0.3522
  241MOL0     C33135   8.856   4.513   6.609  1.1675 -0.7544 -1.5620
  241MOL0     C33136   8.899   4.632   6.522  0.1648 -0.2634  0.5991
  241MOL0     N33137   9.041   4.665   6.534 -0.2397  0.7617  0.5166
  241MOL0     C33138   9.088   4.750   6.631  0.7444 -1.4381 -0.2828
  241MOL0     C33139   9.210   4.777   6.594  1.0859  0.0621 -0.0849
  241MOL0     C33140   9.306   4.860   6.665  0.1193  0.1160 -0.5985
  241MOL0     C33141   9.387   4.937   6.563 -0.5453  0.0112  0.3500
  241MOL0     C33142   9.291   5.022   6.473  0.1260 -0.1939 -0.0522
  241MOL0     C33143   9.378   5.109   6.373  0.5624 -0.6440 -0.4715
  241MOL0     O33144   9.457   5.205   6.444  0.7210 -0.4277 -0.3528
  241MOL0     C33145   9.535   5.293   6.380  0.7315  0.6275  0.1864
  241MOL0     C33146   9.552   5.292   6.244 -0.4015 -0.2092 -0.0387
  241MOL0     C33147   9.640   5.383   6.174  0.6649  0.4485 -0.1522
  241MOL0     C33148   9.632   5.377   6.024 -0.2431 -0.6378 -0.6457
  241MOL0     C33149   9.720   5.472   6.252  0.3941 -0.5789 -1.0540
  241MOL0     C33150   9.826   5.564   6.195  0.1140 -0.0741 -0.2965
  241MOL0     O33151   9.851   5.684   6.260  0.2748  0.4034  0.4304
  241MOL0     C33152   9.981   5.734   6.272 -0.9601 -0.2354  0.9582
  241MOL0     C33153   9.994   5.859   6.314 -0.5326  0.5567 -0.5175
  241MOL0     C33154  10.125   5.920   6.335  0.4740 -0.4155 -0.0070
  241MOL0     C33155  10.242   5.846   6.307 -0.1207 -0.5064  0.4424
  241MOL0     O33156  10.363   5.908   6.314 -0.6189  0.1094 -0.2118
  241MOL0     C33157  10.363   6.050   6.279 -0.4504  0.1715  0.2160
  241MOL0     C33158  10.498   6.097   6.236 -0.4671 -0.2501 -0.2338
  241MOL0     C33159  10.505   6.244   6.206  0.1911 -0.0551 -0.3720
  241MOL0     C33160  10.646   6.277   6.151  0.1548  0.3733  0.1106
  241MOL0     C33161  10.653   6.413   6.105  0.2595  0.0636  0.5592
  241MOL0     C33162  10.686   6.515   6.209 -0.0099  0.8502 -0.0258
  241MOL0     C33163  10.834   6.542   6.230 -0.6289  0.3633  0.3240
  241MOL0     C33164  10.922   6.411   6.262  0.7751 -0.1144  0.2633
  241MOL0    Cl33165  10.973   6.305   6.130  0.4007  0.0314 -0.0416
  241MOL0     C33166  10.228   5.715   6.271 -0.3754  0.3402 -0.4685
  241MOL0     C33167  10.099   5.659   6.253  0.5955 -0.3308  0.1169
  241MOL0     O33168   9.891   5.525   6.095 -0.0271 -0.3085 -0.0515
  241MOL0     C33169   9.704   5.468   6.391 -0.6409 -0.1200  1.0637
  241MOL0     C33170   9.620   5.374   6.457 -0.2756  0.8931 -0.4680
  241MOL0     N33171   9.232   4.710   6.476  0.0196  0.4198  0.2500
  241MOL0     N33172   9.137   4.641   6.437  0.9362  0.1725 -0.1868
  241MOL0     C33173   8.761   3.670   6.374 -0.3887  0.6156  0.0984
  241MOL0     C33174   8.826   3.540   6.378  0.5650 -0.4017 -0.2337
  241MOL0     C33175   8.861   3.101   6.559 -0.6129 -0.8367  0.5870
  241MOL0     C33176   8.765   3.020   6.627 -0.3462  0.4425  0.2518
  241MOL0     C33177   8.800   2.930   6.726 -0.0082  0.4576 -0.0952
  241MOL0     C33178   8.927   2.929   6.777 -0.3694  0.6194 -0.3245
  241MOL0     O33179   8.958   2.859   6.896 -0.0659 -0.3019 -0.4821
  241MOL0     C33180   9.015   2.943   6.995  0.7182 -0.3557 -0.2092
  241MOL0     C33181   8.963   2.893   7.131  0.1260  0.2965  0.4337
  241MOL0     C33182   9.033   2.756   7.159 -1.8552 -0.7607 -0.7521
  241MOL0     C33183   9.026   2.724   7.308 -1.4212 -0.2239 -0.1826
  241MOL0     C33184   8.887   2.706   7.354  0.2363  0.2157  0.4194
  241MOL0     C33185   8.773   2.679   7.365 -0.0263 -0.6288 -0.3014
  241MOL0     C33186   9.019   3.011   6.714  0.0255 -0.2618 -0.0256
  241MOL0     C33187   8.993   3.092   6.603  0.0628 -0.0312 -0.2298
  241MOL0     C33188   9.105   3.181   6.559 -0.6542  0.4556 -0.2278
  241MOL0     H33189   8.613   3.371   6.567 -0.5214  1.9849  2.6895
  241MOL0     H33190   8.482   3.580   6.527 -1.2785 -2.4373 -2.3819
  241MOL0     H33191   8.482   3.942   6.332 -1.5356 -3.1373  0.6334
  241MOL0     H33192   8.657   3.891   6.280  1.8527  1.1264  1.9072
  241MOL0     H33193   8.566   4.000   6.541 -1.6300 -1.9514 -2.1041
  241MOL0     H33194   8.736   3.969   6.492 -0.6979 -1.5478  0.5049
  241MOL0     H33195   8.684   4.158   6.307  0.5431 -1.5956  0.1527
  241MOL0     H33196   8.522   4.173   6.387  0.3870  0.3127  1.5582
  241MOL0     H33197   8.615   4.236   6.592  2.2542  2.7435  2.0372
  241MOL0     H33198   8.779   4.233   6.545 -0.5741  1.4898  2.1764
  241MOL0     H33199   8.561   4.424   6.434 -2.3420 -0.3424  2.2662
  241MOL0     H33200   8.726   4.414   6.379  0.3452 -0.1106  0.5005
  241MOL0     H33201   8.644   4.571   6.583  1.9651  1.6739  3.4302
  241MOL0     H33202   8.663   4.436   6.692  2.5485  0.2124  1.5586
  241MOL0     H33203   8.919   4.429   6.582  1.0247 -1.7213  0.8159
  241MOL0     H33204   8.875   4.525   6.716 -1.0197 -0.3171 -1.1830
  241MOL0     H33205   8.881   4.605   6.417  4.4736 -1.6095  0.0261
  241MOL0     H33206   8.842   4.726   6.527  1.8346  0.7735  1.0115
  241MOL0     H33207   9.035   4.772   6.722  0.6510 -2.0604 -0.1787
  241MOL0     H33208   9.360   4.796   6.735 -1.1685 -0.4514 -0.1086
  241MOL0     H33209   9.259   4.929   6.736  1.9173 -0.9613  1.7869
  241MOL0     H33210   9.461   4.994   6.619 -0.9420  1.5990 -0.6780
  241MOL0     H33211   9.441   4.877   6.489  0.0234  2.6316 -1.4962
  241MOL0     H33212   9.225   4.954   6.418 -2.3493  1.0709  1.1979
  241MOL0     H33213   9.224   5.076   6.540  1.5725 -0.6338  1.8162
  241MOL0     H33214   9.454   5.054   6.318  2.1475  1.6508 -0.7088
  241MOL0     H33215   9.309   5.148   6.297 -0.6230 -2.3497 -0.3155
  241MOL0     H33216   9.493   5.224   6.183  2.1950 -1.0421 -1.7974
  241MOL0     H33217   9.727   5.349   5.977  1.3624  0.4015  1.7713
  241MOL0     H33218   9.597   5.469   5.976  1.4685 -0.2249 -1.1517
  241MOL0     H33219   9.557   5.307   5.984 -2.1067  1.8123 -1.7127
  241MOL0     H33220   9.905   5.919   6.332 -0.9645 -0.8806  2.9655
  241MOL0     H33221  10.124   6.027   6.355  0.2912 -0.2887 -0.6424
  241MOL0     H33222  10.310   6.079   6.187  1.3989  1.1944 -0.5797
  241MOL0     H33223  10.315   6.099   6.364 -0.9985 -0.9982  0.6111
  241MOL0     H33224  10.584   6.071   6.299 -0.3616 -2.4903 -1.1925
  241MOL0     H33225  10.525   6.050   6.141 -0.9767 -0.1774 -0.4166
  241MOL0     H33226  10.471   6.299   6.294 -3.3567 -4.1840  1.1873
  241MOL0     H33227  10.426   6.257   6.132  1.0076 -2.0759 -1.6976
  241MOL0     H33228  10.676   6.200   6.080 -1.3834 -1.4568  1.3302
  241MOL0     H33229  10.719   6.267   6.232  0.2660  0.7566  0.0579
  241MOL0     H33230  10.727   6.417   6.024 -0.9410 -0.1230 -0.5872
  241MOL0     H33231  10.552   6.448   6.080  0.7922  1.1602 -0.1703
  241MOL0     H33232  10.636   6.485   6.302 -1.3041  0.4083 -0.8477
  241MOL0     H33233  10.644   6.613   6.183 -3.4576 -0.5168 -0.1372
  241MOL0     H33234  10.834   6.608   6.317  0.0925 -2.5278  2.6931
  241MOL0     H33235  10.878   6.599   6.148  3.6768 -1.2620  1.2374
  241MOL0     H33236  10.890   6.345   6.344  1.1019  1.7875  1.9749
  241MOL0     H33237  11.013   6.450   6.308  2.8066 -3.6114 -0.4080
  241MOL0     H33238  10.308   5.644   6.252  0.9298  1.4493  0.6470
  241MOL0     H33239  10.090   5.554   6.225 -3.7592 -0.9183  2.8815
  241MOL0     H33240   9.781   5.526   6.440  1.4990  1.7149 -3.7761
  241MOL0     H33241   9.617   5.363   6.565 -1.0414  2.9576 -0.2141
  241MOL0     H33242   8.811   3.749   6.317  1.9281 -0.1940  0.9046
  241MOL0     H33243   8.920   3.533   6.324  1.1083 -3.0223  0.9122
  241MOL0     H33244   8.661   3.040   6.605 -0.3358  0.3369  0.1023
  241MOL0     H33245   8.726   2.863   6.768  1.0218  0.3621  1.6791
  241MOL0     H33246   9.124   2.929   6.992  0.5952 -1.5022  0.0046
  241MOL0     H33247   8.990   3.048   6.979  2.2023  0.3553  1.6879
  241MOL0     H33248   8.857   2.868   7.121  0.8228 -3.0919  0.3314
  241MOL0     H33249   8.973   2.973   7.205 -1.6636  1.5062 -0.5425
  241MOL0     H33250   8.987   2.669   7.110 -0.4859 -0.0270 -3.5668
  241MOL0     H33251   9.138   2.763   7.128 -1.0563  0.2858  1.9084
  241MOL0     H33252   9.075   2.800   7.370 -0.2526 -0.2499 -1.0275
  241MOL0     H33253   9.074   2.626   7.320 -1.4789  0.0022  2.3051
  241MOL0     H33254   8.667   2.667   7.364  0.1362 -3.1557  1.6864
  241MOL0     H33255   9.114   3.025   6.763 -0.0475  3.2891 -0.6190
  241MOL0     H33256   9.092   3.285   6.590 -1.7558  0.7071 -1.4685
  241MOL0     H33257   9.202   3.138   6.586  0.7548  1.3153 -3.4536
  241MOL0     H33258   9.097   3.174   6.450  0.3301  0.6370 -0.3218
  242MOL0     O33259   4.841   7.039   9.864 -0.4296 -0.5620 -0.1287
  242MOL0     C33260   4.846   7.095   9.970  0.6004  0.4008  0.3277
  242MOL0     O33261   4.942   7.057  10.066 -0.7502  0.3552 -1.3439
  242MOL0     C33262   5.056   6.987  10.016 -1.2383  0.1548 -0.4152
  242MOL0     C33263   5.138   7.057   9.925 -0.1192 -0.0445  0.2626
  242MOL0     C33264   5.260   6.985   9.881 -0.3123  0.0857  0.2805
  242MOL0     C33265   5.287   6.855   9.914  0.3066 -0.1213 -0.5959
  242MOL0     O33266   5.396   6.777   9.878  0.1838 -0.6460  0.0929
  242MOL0     C33267   5.518   6.857   9.849  0.4737 -0.8630  0.2578
  242MOL0     C33268   5.632   6.769   9.802 -0.0111 -0.8345 -0.5429
  242MOL0     C33269   5.756   6.838   9.759  0.7742 -0.2506 -0.7460
  242MOL0     C33270   5.854   6.742   9.707 -0.4178  0.1726  0.8884
  242MOL0     C33271   5.955   6.805   9.613  0.4317 -0.1909 -0.8536
  242MOL0     C33272   6.063   6.890   9.683  0.1345  0.7018 -0.2944
  242MOL0     C33273   6.139   6.817   9.796 -0.1390  0.3552 -0.3490
  242MOL0     C33274   6.249   6.738   9.732  0.0007 -1.0866  0.8183
  242MOL0     N33275   6.355   6.838   9.693  0.7808 -0.0016 -0.1269
  242MOL0     C33276   6.435   6.911   9.779 -0.0024  0.0449 -0.4061
  242MOL0     C33277   6.512   6.999   9.700  0.3631  0.4026  0.1703
  242MOL0     C33278   6.602   7.108   9.751 -0.2981 -0.1656  0.3856
  242MOL0     C33279   6.748   7.062   9.765  0.4720 -0.2337 -0.9470
  242MOL0     C33280   6.825   7.009   9.643  1.0501 -0.4656  0.7398
  242MOL0     C33281   6.982   7.023   9.653  1.1268  0.1434 -0.6156
  242MOL0     O33282   7.034   6.963   9.778  0.1285 -0.0379 -0.2455
  242MOL0     C33283   7.173   6.969   9.782 -0.2607 -0.0416  0.0784
  242MOL0     C33284   7.268   7.049   9.714 -0.0188 -0.0898 -0.5974
  242MOL0     C33285   7.405   7.045   9.739 -0.1473 -0.1289  0.3951
  242MOL0     C33286   7.505   7.136   9.662  0.8111  0.4667 -1.6991
  242MOL0     C33287   7.452   6.938   9.819  0.1896  0.2359  0.0600
  242MOL0     C33288   7.590   6.890   9.833  0.1896 -0.0366 -0.3131
  242MOL0     O33289   7.624   6.823   9.943 -0.1760 -0.1424  0.3082
  242MOL0     C33290   7.753   6.818   9.994  0.1898  0.2893 -0.7089
  242MOL0     C33291   7.794   6.704  10.055  0.2736  0.3463  0.4039
  242MOL0     C33292   7.922   6.709  10.123 -0.6478 -0.1739  0.4273
  242MOL0     C33293   8.001   6.830  10.116 -0.5249  0.0292 -0.6954
  242MOL0     O33294   8.131   6.844  10.163 -0.3978  0.7121 -0.3325
  242MOL0     C33295   8.176   6.753  10.270 -0.0261  0.3349  0.3007
  242MOL0     C33296   8.124   6.804  10.407 -0.3808 -0.0352 -0.0383
  242MOL0     C33297   8.215   6.924  10.446  1.1825  1.1500 -0.0787
  242MOL0     C33298   8.175   6.982  10.585  0.2266  0.5901  0.4183
  242MOL0     C33299   8.264   7.107  10.632 -0.8196 -0.5719 -0.0668
  242MOL0     C33300   8.403   7.080  10.677 -0.3440  0.1032 -0.0336
  242MOL0     C33301   8.451   7.177  10.780 -0.4743 -1.2185 -0.4423
  242MOL0     C33302   8.605   7.173  10.795  0.4082 -0.3546  0.3106
  242MOL0    Cl33303   8.618   7.288  10.935 -0.4317  0.0509 -0.0863
  242MOL0     C33304   7.958   6.942  10.046  0.5572  0.2113  0.5944
  242MOL0     C33305   7.829   6.934   9.993 -0.4028 -1.6186 -0.5120
  242MOL0     O33306   7.660   6.903   9.735 -0.0726  0.6746 -0.0079
  242MOL0     C33307   7.368   6.861   9.895 -0.3164  0.0118 -0.3670
  242MOL0     C33308   7.232   6.883   9.875  0.3771 -0.1776  0.3736
  242MOL0     N33309   6.469   6.983   9.564 -0.1596 -0.9254 -0.2159
  242MOL0     N33310   6.392   6.873   9.571 -0.5273 -1.0056  0.6527
  242MOL0     C33311   5.202   6.793  10.006 -0.1861  0.0330 -0.4247
  242MOL0     C33312   5.083   6.857  10.060  0.8856 -0.1280  0.6395
  242MOL0     C33313   4.731   7.177  10.014  0.0354 -1.0019  0.1777
  242MOL0     C33314   4.746   7.251  10.139 -1.2951  0.2709  0.4188
  242MOL0     C33315   4.647   7.315  10.199 -0.1179  0.4783  0.0439
  242MOL0     C33316   4.528   7.322  10.130 -0.0104 -0.6366 -0.4780
  242MOL0     O33317   4.426   7.383  10.209 -0.0582 -0.4988 -0.1079
  242MOL0     C33318   4.293   7.336  10.179  0.1429 -0.1533  0.0049
  242MOL0     C33319   4.208   7.362  10.311  0.1850 -0.1077 -0.4981
  242MOL0     C33320   4.069   7.291  10.298 -0.4721 -0.8585 -0.0509
  242MOL0     C33321   3.998   7.303  10.429  0.8827  0.1459  0.4487
  242MOL0     C33322   3.903   7.202  10.450  0.1475  0.6168 -0.8966
  242MOL0     C33323   3.811   7.125  10.489  0.5196  0.4500 -0.3148
  242MOL0     C33324   4.508   7.271  10.008 -0.0922 -0.2060 -0.7305
  242MOL0     C33325   4.610   7.201   9.942 -0.7687  0.1818 -0.6261
  242MOL0     C33326   4.585   7.151   9.798 -0.3253 -0.0963 -0.3844
  242MOL0     H33327   5.113   7.156   9.890  0.6529 -0.6859 -2.3810
  242MOL0     H33328   5.328   7.055   9.832 -1.2344  1.0285  0.3242
  242MOL0     H33329   5.544   6.918   9.936  2.4793  1.5829 -1.9059
  242MOL0     H33330   5.506   6.922   9.763 -0.0673  0.8620  1.5786
  242MOL0     H33331   5.657   6.699   9.881  0.3346 -0.5399 -0.3856
  242MOL0     H33332   5.591   6.718   9.715 -1.3501 -0.3901 -0.1947
  242MOL0     H33333   5.732   6.923   9.694  1.4794 -0.6521 -1.5558
  242MOL0     H33334   5.794   6.874   9.856  0.8182  0.9711 -1.1915
  242MOL0     H33335   5.887   6.690   9.798 -1.1493  2.1197  2.3506
  242MOL0     H33336   5.806   6.661   9.651  0.7611  1.5659 -2.3922
  242MOL0     H33337   5.904   6.855   9.530  2.6958 -0.5600 -2.5952
  242MOL0     H33338   6.004   6.720   9.565 -4.1588 -3.4537 -0.3981
  242MOL0     H33339   6.133   6.939   9.615  0.2250 -0.1618 -0.8466
  242MOL0     H33340   5.999   6.971   9.718 -0.6253  0.1594 -0.3980
  242MOL0     H33341   6.076   6.749   9.855 -1.3336 -0.2460 -2.2334
  242MOL0     H33342   6.174   6.892   9.867 -1.2549  1.1251 -0.5833
  242MOL0     H33343   6.284   6.655   9.793 -0.2991 -1.0215  1.0801
  242MOL0     H33344   6.206   6.685   9.647  0.2930  0.5378 -0.4038
  242MOL0     H33345   6.440   6.902   9.887 -0.1026 -2.1593 -0.5567
  242MOL0     H33346   6.563   7.129   9.852  0.9791  1.6540  0.5589
  242MOL0     H33347   6.597   7.196   9.687 -1.2174  1.0578  2.0565
  242MOL0     H33348   6.810   7.146   9.799 -0.8245  0.7077 -0.8251
  242MOL0     H33349   6.760   6.989   9.845 -1.1613 -0.1277 -0.5654
  242MOL0     H33350   6.795   6.904   9.637 -0.2602 -0.0906  0.3837
  242MOL0     H33351   6.786   7.051   9.550 -2.0695  0.8083  2.4569
  242MOL0     H33352   7.013   6.968   9.564 -0.7889 -2.4453  0.1880
  242MOL0     H33353   7.008   7.128   9.638 -1.5905  1.0430  0.2814
  242MOL0     H33354   7.234   7.113   9.634 -0.5022  1.0403  0.4937
  242MOL0     H33355   7.579   7.091   9.596  1.9529 -0.7682  0.2985
  242MOL0     H33356   7.559   7.196   9.737 -0.5755  0.9832 -1.0684
  242MOL0     H33357   7.445   7.204   9.601  1.4457  1.5291 -1.1776
  242MOL0     H33358   7.729   6.618  10.046  0.9079 -0.0674 -0.3267
  242MOL0     H33359   7.958   6.612  10.158 -3.0885 -0.5851  2.0914
  242MOL0     H33360   8.139   6.654  10.243  0.6345  1.0181 -3.5866
  242MOL0     H33361   8.285   6.742  10.280 -0.1213 -2.1799 -0.7326
  242MOL0     H33362   8.018   6.829  10.411 -0.1753  0.7377  2.2372
  242MOL0     H33363   8.142   6.715  10.467 -1.0070 -4.8398 -6.0048
  242MOL0     H33364   8.207   6.994  10.362  0.5364 -1.9969 -2.8770
  242MOL0     H33365   8.316   6.887  10.467 -0.5129 -1.2623  5.8864
  242MOL0     H33366   8.191   6.906  10.662 -0.7199  1.2026  1.2504
  242MOL0     H33367   8.069   7.008  10.588  0.1366  0.2767 -0.0594
  242MOL0     H33368   8.265   7.196  10.568  0.0481  2.8407  4.2164
  242MOL0     H33369   8.213   7.131  10.726  0.4925 -2.1453  1.1017
  242MOL0     H33370   8.478   7.084  10.598  0.2005  1.1596  0.5195
  242MOL0     H33371   8.406   6.974  10.705  0.5238 -0.1727 -1.1224
  242MOL0     H33372   8.408   7.159  10.879 -0.6393  1.0413 -0.0685
  242MOL0     H33373   8.437   7.278  10.740  0.0133 -0.1935  1.8337
  242MOL0     H33374   8.648   7.207  10.701 -0.5592  1.0591  0.3501
  242MOL0     H33375   8.640   7.074  10.826 -2.2303 -0.8634  2.0191
  242MOL0     H33376   8.018   7.031  10.036  0.6729  0.1329  0.5954
  242MOL0     H33377   7.787   7.022   9.945  1.0793 -0.2713  0.5522
  242MOL0     H33378   7.383   6.774   9.958  2.1036  0.6150 -0.0329
  242MOL0     H33379   7.170   6.815   9.931  0.0777  0.4878  0.8692
  242MOL0     H33380   5.235   6.694  10.036 -1.8870 -1.1210 -2.1102
  242MOL0     H33381   5.025   6.796  10.127 -0.7882  1.6417  0.8983
  242MOL0     H33382   4.835   7.239  10.200  0.1899  1.3579 -1.4048
  242MOL0     H33383   4.647   7.362  10.297  0.0156  1.6758 -0.5084
  242MOL0     H33384   4.244   7.388  10.096  0.0998  0.5776  0.4830
  242MOL0     H33385   4.309   7.232  10.149  2.2514  0.7296 -2.3196
  242MOL0     H33386   4.213   7.465  10.347  0.5449  0.5513 -2.2963
  242MOL0     H33387   4.268   7.317  10.390  0.6300  0.6093 -0.4178
  242MOL0     H33388   4.008   7.343  10.224  3.2838  0.4050 -2.5327
  242MOL0     H33389   4.097   7.191  10.263  0.0643  0.3701 -3.5828
  242MOL0     H33390   3.936   7.393  10.428 -0.4779 -0.7492 -1.4665
  242MOL0     H33391   4.069   7.303  10.512  0.4379  0.6271  0.8314
  242MOL0     H33392   3.744   7.052  10.529  0.9222  0.7207  0.8856
  242MOL0     H33393   4.417   7.282   9.951 -0.4287 -0.8014 -0.3252
  242MOL0     H33394   4.476   7.154   9.783 -1.2410 -3.6484  3.6693
  242MOL0     H33395   4.640   7.222   9.735 -0.1751  2.1867  2.1051
  242MOL0     H33396   4.612   7.047   9.784  1.3658 -0.2947  3.1660
  243MOL0     O33397   4.560   3.316   6.682  0.1365  0.6714 -0.3521
  243MOL0     C33398   4.606   3.203   6.664  0.7639 -0.8424  0.9804
  243MOL0     O33399   4.735   3.174   6.690 -0.4455  0.5016  0.2685
  243MOL0     C33400   4.825   3.256   6.752  0.2695 -0.4521  0.5227
  243MOL0     C33401   4.960   3.238   6.711 -0.0977 -0.2669 -0.9100
  243MOL0     C33402   5.061   3.319   6.759  0.1001 -0.1266 -0.7493
  243MOL0     C33403   5.034   3.421   6.847 -1.4876 -0.6463 -0.0527
  243MOL0     O33404   5.142   3.499   6.892  0.1757  0.4446  1.1939
  243MOL0     C33405   5.258   3.423   6.939  0.8615 -0.3386  0.8115
  243MOL0     C33406   5.380   3.518   6.930  0.7549 -0.4876  0.0576
  243MOL0     C33407   5.480   3.468   7.034 -0.2371  0.2536  0.0589
  243MOL0     C33408   5.621   3.517   6.992 -0.2847 -0.2072  0.4507
  243MOL0     C33409   5.742   3.455   7.069  0.5606 -0.1515  1.1261
  243MOL0     C33410   5.767   3.514   7.205 -0.1489  1.1742  1.2299
  243MOL0     C33411   5.862   3.634   7.209  0.0768 -0.9548  0.4764
  243MOL0     C33412   6.005   3.612   7.173 -0.2943 -0.3376 -0.5914
  243MOL0     N33413   6.069   3.518   7.271  0.1630 -0.3035  0.1535
  243MOL0     C33414   6.069   3.541   7.402  0.4143 -0.9235 -0.0660
  243MOL0     C33415   6.099   3.421   7.457  0.7139 -0.2831  0.4069
  243MOL0     C33416   6.105   3.391   7.603 -0.6840  0.2762 -0.0173
  243MOL0     C33417   6.246   3.420   7.663  0.2559  0.1511  0.0052
  243MOL0     C33418   6.237   3.560   7.737  0.5970  0.3030  0.5835
  243MOL0     C33419   6.375   3.619   7.754  0.8173 -0.2120 -0.0458
  243MOL0     O33420   6.458   3.546   7.848 -0.4388 -0.0522 -0.5340
  243MOL0     C33421   6.592   3.599   7.864 -0.1327  0.1835 -0.2174
  243MOL0     C33422   6.630   3.728   7.817 -0.1780 -0.1134 -0.6283
  243MOL0     C33423   6.765   3.786   7.839  0.5879 -0.0048  1.2925
  243MOL0     C33424   6.779   3.933   7.809 -0.2078  0.3699  0.1414
  243MOL0     C33425   6.858   3.699   7.902 -0.4011  0.6469  0.1343
  243MOL0     C33426   7.004   3.740   7.917  0.3661  0.2586 -0.2996
  243MOL0     O33427   7.078   3.689   8.020  0.4209  0.1878 -0.2586
  243MOL0     C33428   7.216   3.682   8.015 -0.0082  0.9417  0.1557
  243MOL0     C33429   7.268   3.563   8.069  0.3357  0.3719 -0.8166
  243MOL0     C33430   7.408   3.552   8.107 -0.0451 -0.1523  0.8319
  243MOL0     C33431   7.494   3.661   8.098 -0.7433  0.8008  0.2018
  243MOL0     O33432   7.624   3.654   8.146 -0.1324  0.1396  0.0547
  243MOL0     C33433   7.674   3.771   8.217 -0.0700 -0.2486  0.5404
  243MOL0     C33434   7.803   3.759   8.287 -0.1049  0.0194  0.1316
  243MOL0     C33435   7.906   3.711   8.190  0.2189 -0.6883  0.3576
  243MOL0     C33436   8.043   3.704   8.267  0.1697  0.7500  0.7040
  243MOL0     C33437   8.042   3.596   8.376 -0.2054  0.1616  0.0259
  243MOL0     C33438   8.190   3.555   8.408  1.2408 -0.5741  0.4431
  243MOL0     C33439   8.271   3.672   8.456  0.8723  0.6141 -0.4667
  243MOL0     C33440   8.409   3.628   8.516 -0.0406  0.7027 -0.1878
  243MOL0    Cl33441   8.387   3.513   8.657  0.1364 -0.2225  0.0293
  243MOL0     C33442   7.438   3.774   8.037  0.5498 -0.5734  0.3180
  243MOL0     C33443   7.305   3.786   7.991 -0.3345 -0.2387  0.6080
  243MOL0     O33444   7.056   3.791   7.821 -0.1028  0.2675 -0.1552
  243MOL0     C33445   6.812   3.575   7.956 -0.0741  0.4595  0.9484
  243MOL0     C33446   6.683   3.527   7.934 -0.7178 -0.3512 -1.6431
  243MOL0     N33447   6.129   3.338   7.355  0.7202  0.0023  0.4651
  243MOL0     N33448   6.102   3.389   7.244 -0.5551 -0.0704  0.7126
  243MOL0     C33449   4.906   3.447   6.896  0.3549  0.2754 -0.0678
  243MOL0     C33450   4.801   3.366   6.848  1.0008  0.4708 -0.4133
  243MOL0     C33451   4.517   3.100   6.604  0.1407  0.2326 -0.2757
  243MOL0     C33452   4.558   2.986   6.533 -0.1757  0.4755  0.0400
  243MOL0     C33453   4.466   2.894   6.473 -1.3232 -0.1804  0.6918
  243MOL0     C33454   4.328   2.906   6.509  0.6728  0.5836 -0.1483
  243MOL0     O33455   4.223   2.822   6.479 -0.0168  0.1996  0.3297
  243MOL0     C33456   4.252   2.739   6.367  0.1524  0.3182 -0.7836
  243MOL0     C33457   4.125   2.674   6.320 -0.3205  0.7327  0.0723
  243MOL0     C33458   4.022   2.784   6.294 -0.3845 -0.6413 -0.5944
  243MOL0     C33459   3.914   2.739   6.203 -0.7588  0.6406 -0.1429
  243MOL0     C33460   3.841   2.624   6.265  0.6166 -0.6219  0.5301
  243MOL0     C33461   3.772   2.538   6.315  0.5711  0.0355  0.0219
  243MOL0     C33462   4.290   3.004   6.594  0.6631  0.3061  0.2914
  243MOL0     C33463   4.377   3.111   6.625  0.1426  0.7133 -1.5078
  243MOL0     C33464   4.311   3.209   6.715 -0.1146 -0.2225  0.4162
  243MOL0     H33465   4.992   3.158   6.645  1.3536 -1.3412  0.9717
  243MOL0     H33466   5.157   3.298   6.714  0.4431  0.6750 -0.4150
  243MOL0     H33467   5.271   3.336   6.874  0.9060 -0.7817  1.4019
  243MOL0     H33468   5.245   3.392   7.044  0.0132 -0.4667  0.6777
  243MOL0     H33469   5.424   3.513   6.829 -0.3177 -0.7546 -0.4095
  243MOL0     H33470   5.357   3.624   6.938  0.7523 -0.4821 -0.0155
  243MOL0     H33471   5.451   3.492   7.136  1.6259 -3.0578  1.5436
  243MOL0     H33472   5.487   3.359   7.038  1.1963  0.3564  2.7223
  243MOL0     H33473   5.630   3.494   6.885  0.1964 -2.5339  0.9362
  243MOL0     H33474   5.621   3.626   6.998 -1.3282  0.2355 -4.0027
  243MOL0     H33475   5.828   3.462   7.002  0.2382 -1.5350  0.5361
  243MOL0     H33476   5.721   3.350   7.091 -0.9261 -0.4571 -1.3232
  243MOL0     H33477   5.669   3.541   7.247 -0.0970 -0.5163  2.5837
  243MOL0     H33478   5.818   3.438   7.265  2.6263  0.8209 -1.3511
  243MOL0     H33479   5.855   3.674   7.311  2.0989  0.1399  0.2391
  243MOL0     H33480   5.830   3.714   7.142  0.2799 -0.9115  0.4305
  243MOL0     H33481   6.005   3.575   7.070 -1.0729 -2.8527  0.2190
  243MOL0     H33482   6.063   3.704   7.172  1.8192 -1.4640  2.1518
  243MOL0     H33483   6.047   3.640   7.440  0.5155  0.3220 -3.0369
  243MOL0     H33484   6.089   3.284   7.621  0.1821 -0.0398 -1.0537
  243MOL0     H33485   6.034   3.453   7.659  0.4355  0.6728  1.0057
  243MOL0     H33486   6.261   3.346   7.742 -2.0607 -2.1066 -1.5084
  243MOL0     H33487   6.322   3.425   7.584  0.0855 -1.4543 -0.2867
  243MOL0     H33488   6.177   3.619   7.667  1.7560 -0.6506 -1.3191
  243MOL0     H33489   6.181   3.563   7.831 -2.3228  0.6022 -1.0596
  243MOL0     H33490   6.425   3.624   7.657  1.7032 -1.2727  0.3341
  243MOL0     H33491   6.363   3.721   7.792  1.9587  1.1146 -2.9298
  243MOL0     H33492   6.574   3.806   7.765  2.3146  3.2956  1.3572
  243MOL0     H33493   6.800   3.948   7.702 -0.2444  2.1287  0.3444
  243MOL0     H33494   6.854   3.984   7.871  0.4644  0.4831 -0.7407
  243MOL0     H33495   6.681   3.976   7.832 -1.1080 -1.4595 -0.1303
  243MOL0     H33496   7.200   3.485   8.103  1.9143 -1.5447 -1.8329
  243MOL0     H33497   7.440   3.464   8.162  2.3832 -0.6517 -1.1680
  243MOL0     H33498   7.679   3.855   8.147 -1.1241  0.5034  1.3391
  243MOL0     H33499   7.609   3.805   8.298  3.0972  1.2698  2.6440
  243MOL0     H33500   7.842   3.850   8.333  2.6439  0.4044 -2.6471
  243MOL0     H33501   7.786   3.677   8.358  0.9501 -0.5592 -0.2532
  243MOL0     H33502   7.916   3.787   8.112  0.8019 -1.7238 -0.6020
  243MOL0     H33503   7.880   3.618   8.139 -1.6854 -0.1254  0.2581
  243MOL0     H33504   8.067   3.805   8.301  3.0044  0.5504 -0.4031
  243MOL0     H33505   8.127   3.677   8.202 -0.8361 -2.1272  0.4656
  243MOL0     H33506   7.984   3.622   8.465 -1.6227 -0.8173 -0.5685
  243MOL0     H33507   7.988   3.516   8.325  1.0480  0.3890 -1.7484
  243MOL0     H33508   8.238   3.506   8.323  2.6566 -2.1876  2.1202
  243MOL0     H33509   8.205   3.474   8.479  0.9247 -2.0279 -1.1031
  243MOL0     H33510   8.222   3.734   8.531  1.6688  0.7460 -0.0405
  243MOL0     H33511   8.285   3.741   8.373 -0.4699  3.1689  1.3098
  243MOL0     H33512   8.473   3.712   8.545 -1.4113  1.4078  0.9601
  243MOL0     H33513   8.455   3.579   8.430  0.2232  0.0307  0.3243
  243MOL0     H33514   7.509   3.856   8.025  0.4129 -0.7404 -2.0644
  243MOL0     H33515   7.281   3.881   7.945  2.0715  0.6512  1.0246
  243MOL0     H33516   6.878   3.516   8.020 -1.6719 -2.0827  0.4063
  243MOL0     H33517   6.665   3.429   7.977  1.0370 -1.5904 -3.5720
  243MOL0     H33518   4.894   3.524   6.971  1.1817 -2.4225  3.1075
  243MOL0     H33519   4.699   3.368   6.884 -0.4371  0.1712 -3.9916
  243MOL0     H33520   4.661   2.965   6.508 -0.3786 -2.2210  1.0795
  243MOL0     H33521   4.517   2.813   6.422  0.3509  0.2399  1.6244
  243MOL0     H33522   4.279   2.803   6.282 -2.0038 -0.1936 -1.9379
  243MOL0     H33523   4.325   2.659   6.378  1.1764  1.0859 -1.6962
  243MOL0     H33524   4.073   2.602   6.383 -0.3928 -1.8765 -2.7650
  243MOL0     H33525   4.153   2.622   6.228 -1.5114  0.2761 -0.0520
  243MOL0     H33526   3.973   2.818   6.386 -1.5094 -0.3927 -1.2749
  243MOL0     H33527   4.066   2.875   6.252  3.8163 -2.4786 -0.7318
  243MOL0     H33528   3.950   2.697   6.109 -2.4561  0.7794 -0.8910
  243MOL0     H33529   3.839   2.815   6.181 -0.2120  0.7980 -1.5671
  243MOL0     H33530   3.709   2.468   6.366  0.5310  0.3895  0.4654
  243MOL0     H33531   4.184   2.997   6.613  0.4884  0.5955 -0.5171
  243MOL0     H33532   4.335   3.309   6.679 -0.3145 -0.0990  0.6246
  243MOL0     H33533   4.203   3.215   6.702  0.0868 -1.0420 -2.3808
  243MOL0     H33534   4.349   3.212   6.817  2.2144  1.8334 -0.4014
  244MOL0     O33535  11.463   3.335   3.698 -0.4817  0.0916 -0.0665
  244MOL0     C33536  11.455   3.232   3.778  0.7478  0.9852 -0.4195
  244MOL0     O33537  11.344   3.165   3.803  0.3934  0.2928  0.0486
  244MOL0     C33538  11.224   3.206   3.754  1.4874 -0.8744  0.8180
  244MOL0     C33539  11.163   3.327   3.774 -0.5685 -0.3005  0.0001
  244MOL0     C33540  11.040   3.363   3.722  0.4079  0.7535 -0.0978
  244MOL0     C33541  10.965   3.265   3.653  0.4501  0.3225 -0.2169
  244MOL0     O33542  10.853   3.297   3.597 -0.4009 -0.0612 -0.4634
  244MOL0     C33543  10.824   3.243   3.465 -0.1492  0.2522  0.0502
  244MOL0     C33544  10.697   3.309   3.415 -0.4728 -0.6001  0.0264
  244MOL0     C33545  10.570   3.287   3.500  0.5600 -1.1443  0.2570
  244MOL0     C33546  10.443   3.319   3.430  0.2592  0.3910  0.9939
  244MOL0     C33547  10.314   3.263   3.494 -0.5888  0.0473  0.4969
  244MOL0     C33548  10.199   3.343   3.430 -0.3565 -0.7245  0.5487
  244MOL0     C33549  10.065   3.303   3.489  0.6120  0.0118 -0.3145
  244MOL0     C33550  10.054   3.362   3.630 -0.7587 -0.1002  0.5085
  244MOL0     N33551   9.923   3.369   3.689  0.6022  0.1451  0.1515
  244MOL0     C33552   9.848   3.484   3.682 -0.6561  0.1205 -0.5884
  244MOL0     C33553   9.753   3.466   3.777 -0.4953 -0.7162  1.0791
  244MOL0     C33554   9.631   3.553   3.809 -0.7923 -0.5841  0.4366
  244MOL0     C33555   9.677   3.684   3.873  0.2325  0.8944 -0.3944
  244MOL0     C33556   9.556   3.767   3.910  0.7661  0.6144 -0.2993
  244MOL0     C33557   9.532   3.788   4.065 -0.1850  0.4100 -0.6374
  244MOL0     O33558   9.648   3.776   4.153 -0.2849 -0.5939 -0.0417
  244MOL0     C33559   9.618   3.759   4.284  0.3605 -0.6504 -0.0421
  244MOL0     C33560   9.491   3.768   4.357  0.3444 -0.5044  1.1360
  244MOL0     C33561   9.489   3.747   4.494  0.5091  0.8400 -0.2942
  244MOL0     C33562   9.355   3.737   4.569  0.2173 -0.5566  0.1356
  244MOL0     C33563   9.613   3.719   4.561  0.5149  0.2235 -0.7489
  244MOL0     C33564   9.611   3.701   4.699 -0.2940 -0.5343  0.5504
  244MOL0     O33565   9.649   3.803   4.785 -0.0998  0.3930 -0.3818
  244MOL0     C33566   9.623   3.813   4.922  0.5917 -0.2434  0.3967
  244MOL0     C33567   9.705   3.905   4.988 -0.8679 -0.5800 -0.3919
  244MOL0     C33568   9.678   3.937   5.124 -1.0083 -0.2143  0.4924
  244MOL0     C33569   9.574   3.861   5.188 -0.1467 -0.2491 -0.8742
  244MOL0     O33570   9.522   3.895   5.313 -0.8726 -0.2266 -0.7542
  244MOL0     C33571   9.613   3.856   5.425 -0.4938 -0.2101  0.7611
  244MOL0     C33572   9.553   3.871   5.566  0.0967  0.3750 -0.2902
  244MOL0     C33573   9.452   3.764   5.603  0.0459  0.3870  0.6002
  244MOL0     C33574   9.423   3.754   5.756  0.0477  0.4903  0.3129
  244MOL0     C33575   9.312   3.652   5.792 -0.2543  0.2378  0.5245
  244MOL0     C33576   9.307   3.636   5.944 -0.6950 -1.0744 -0.5503
  244MOL0     C33577   9.199   3.545   5.994  0.1214 -0.6931 -0.5952
  244MOL0     C33578   9.064   3.618   6.025 -0.4745  0.3450  1.1591
  244MOL0    Cl33579   9.078   3.700   6.180  0.0147  0.4491  0.2524
  244MOL0     C33580   9.495   3.776   5.117 -0.2216 -0.3810 -0.1590
  244MOL0     C33581   9.514   3.754   4.986 -0.7968 -0.8304  0.6696
  244MOL0     O33582   9.580   3.596   4.735 -0.6926  0.0381  0.2671
  244MOL0     C33583   9.737   3.731   4.490 -0.4000 -0.0817  0.2476
  244MOL0     C33584   9.737   3.741   4.355 -0.2295  0.1987  0.2032
  244MOL0     N33585   9.767   3.343   3.826  0.2456 -0.1241 -0.3606
  244MOL0     N33586   9.863   3.283   3.775  0.1196 -1.2486  0.0919
  244MOL0     C33587  11.032   3.144   3.618  0.4204 -0.5773  0.7499
  244MOL0     C33588  11.156   3.114   3.677 -0.3713 -0.2540  0.0812
  244MOL0     C33589  11.574   3.187   3.856 -0.3030  0.6638 -0.5920
  244MOL0     C33590  11.689   3.162   3.777  0.2146 -1.1622  0.2016
  244MOL0     C33591  11.804   3.112   3.834  0.0009  0.0573 -0.7264
  244MOL0     C33592  11.816   3.071   3.964 -0.9264 -0.2100 -0.6134
  244MOL0     O33593  11.935   3.014   3.987 -0.1201  0.1380 -0.0112
  244MOL0     C33594  11.922   2.865   4.005  0.5075 -0.8744  0.5947
  244MOL0     C33595  12.060   2.808   4.034  0.8349  1.0193 -0.1478
  244MOL0     C33596  12.053   2.659   4.034 -0.8315  0.7258  0.3650
  244MOL0     C33597  12.185   2.589   4.082  0.6946 -0.1828  0.4198
  244MOL0     C33598  12.275   2.612   3.967 -0.1556 -0.4840 -0.0011
  244MOL0     C33599  12.359   2.624   3.881 -0.9274 -0.0749 -0.2304
  244MOL0     C33600  11.697   3.079   4.045 -0.1017  0.2026  0.4539
  244MOL0     C33601  11.579   3.135   3.986 -0.3062  0.3824 -0.6694
  244MOL0     C33602  11.454   3.151   4.079 -0.2506 -0.3972  0.0513
  244MOL0     H33603  11.233   3.398   3.818  1.5389 -1.3279 -1.4943
  244MOL0     H33604  11.010   3.466   3.732 -1.1031  0.9111 -4.2158
  244MOL0     H33605  10.826   3.134   3.458  1.0847  0.1525  1.5419
  244MOL0     H33606  10.901   3.284   3.399  0.1180 -1.9317 -1.0881
  244MOL0     H33607  10.726   3.413   3.398 -0.3830 -0.9241 -2.0687
  244MOL0     H33608  10.681   3.275   3.312 -0.0023  1.2827 -0.7089
  244MOL0     H33609  10.564   3.182   3.530  0.9711 -1.1989  0.1582
  244MOL0     H33610  10.579   3.357   3.583 -1.3989 -0.4966 -0.0182
  244MOL0     H33611  10.441   3.428   3.418  2.9126  0.2575 -2.1474
  244MOL0     H33612  10.448   3.290   3.324 -0.5043  1.5007  0.6239
  244MOL0     H33613  10.322   3.268   3.603  1.8824  0.9095  0.3344
  244MOL0     H33614  10.322   3.162   3.452  0.6646  0.2240  0.2693
  244MOL0     H33615  10.218   3.450   3.447  3.3814 -1.0725 -0.4118
  244MOL0     H33616  10.192   3.346   3.321 -2.4101  0.7847  0.6571
  244MOL0     H33617  10.048   3.195   3.493 -0.9115  0.2699  1.3488
  244MOL0     H33618   9.992   3.347   3.419 -0.0273  1.6405  1.3092
  244MOL0     H33619  10.115   3.305   3.701  0.5502  3.0114  2.0835
  244MOL0     H33620  10.106   3.457   3.644 -1.9941  0.9117 -1.3934
  244MOL0     H33621   9.849   3.569   3.614  0.0012  2.3311  2.0361
  244MOL0     H33622   9.564   3.504   3.880  0.8670 -1.7697  1.2416
  244MOL0     H33623   9.580   3.575   3.715 -2.3600 -2.9534  0.6378
  244MOL0     H33624   9.731   3.652   3.963 -0.3581  2.7639  0.6812
  244MOL0     H33625   9.743   3.744   3.810  1.6148 -0.9654 -0.7949
  244MOL0     H33626   9.575   3.870   3.879 -1.8361  1.0844 -0.5122
  244MOL0     H33627   9.459   3.739   3.868  0.1012  0.6423  1.1691
  244MOL0     H33628   9.493   3.890   4.073 -1.9959 -0.2584 -0.4809
  244MOL0     H33629   9.450   3.723   4.096 -1.1332  0.7123 -2.3400
  244MOL0     H33630   9.394   3.784   4.311  0.7287  1.3994  0.8924
  244MOL0     H33631   9.369   3.683   4.664  0.3900  0.0356  0.4552
  244MOL0     H33632   9.289   3.687   4.498  0.7824 -1.5991  0.3162
  244MOL0     H33633   9.309   3.835   4.588 -2.0789 -1.9508  2.4617
  244MOL0     H33634   9.793   3.962   4.959 -1.0180  2.0857  3.6277
  244MOL0     H33635   9.740   4.013   5.170  4.9791 -4.4347  0.6143
  244MOL0     H33636   9.637   3.752   5.401 -1.4499 -0.0873 -0.8487
  244MOL0     H33637   9.700   3.922   5.421  0.3225 -1.2997  0.1020
  244MOL0     H33638   9.638   3.859   5.633  0.2449  2.7071  0.0217
  244MOL0     H33639   9.514   3.971   5.587  0.0436 -0.0437  1.7753
  244MOL0     H33640   9.488   3.667   5.565  2.8518  0.7238  2.1293
  244MOL0     H33641   9.360   3.791   5.551  1.7292  1.1831 -2.2007
  244MOL0     H33642   9.405   3.855   5.794  0.7192  0.6231  0.2876
  244MOL0     H33643   9.521   3.717   5.788  0.7689 -0.4864 -2.6929
  244MOL0     H33644   9.212   3.676   5.756  0.3934 -0.9562 -2.3307
  244MOL0     H33645   9.329   3.557   5.740 -1.5354  0.7967 -0.9751
  244MOL0     H33646   9.297   3.735   5.989  2.4238 -2.5998  4.1504
  244MOL0     H33647   9.408   3.612   5.979 -1.0761  0.4745  1.8749
  244MOL0     H33648   9.230   3.492   6.084 -0.9943 -0.1597  0.1230
  244MOL0     H33649   9.184   3.465   5.921 -0.9801 -0.4254 -0.6738
  244MOL0     H33650   8.987   3.543   6.047  2.8463 -3.9030 -0.1604
  244MOL0     H33651   9.040   3.675   5.935  1.8159  1.1662  1.0049
  244MOL0     H33652   9.419   3.721   5.173  0.4707  0.4935  1.7442
  244MOL0     H33653   9.453   3.689   4.924  2.3155  0.2044 -4.0173
  244MOL0     H33654   9.829   3.720   4.546  0.8946 -0.4747 -1.8539
  244MOL0     H33655   9.830   3.729   4.300 -1.5036 -1.1568 -1.7768
  244MOL0     H33656  10.990   3.066   3.555  3.9836 -0.2977 -2.2973
  244MOL0     H33657  11.204   3.018   3.660 -0.6880 -0.4407  0.2579
  244MOL0     H33658  11.684   3.200   3.676  0.5045 -0.2859  0.5071
  244MOL0     H33659  11.892   3.098   3.773  0.4759  0.1442 -0.0761
  244MOL0     H33660  11.855   2.845   4.089  0.9750 -0.8310  0.9850
  244MOL0     H33661  11.871   2.825   3.917  1.2212 -0.4862 -0.0047
  244MOL0     H33662  12.088   2.859   4.127 -2.7220  2.6658  0.2053
  244MOL0     H33663  12.124   2.837   3.950  2.9803  0.7151  1.2860
  244MOL0     H33664  11.969   2.638   4.102 -2.1000  0.1521 -1.3224
  244MOL0     H33665  12.018   2.624   3.937  0.9867 -0.8543  0.2214
  244MOL0     H33666  12.164   2.485   4.111  1.2974 -0.5988 -0.5836
  244MOL0     H33667  12.225   2.638   4.171 -1.8395  4.7368 -0.7707
  244MOL0     H33668  12.429   2.628   3.800 -1.8643  0.7817 -1.0206
  244MOL0     H33669  11.692   3.043   4.147 -1.0146  1.6005  0.9418
  244MOL0     H33670  11.386   3.072   4.047  0.0619 -0.6023 -0.1109
  244MOL0     H33671  11.473   3.132   4.185 -0.9658 -2.8848 -0.1948
  244MOL0     H33672  11.412   3.251   4.067 -0.8839 -0.5998  0.5460
  245MOL0     O33673  11.204   8.958   0.620  0.1319  0.0061  0.1884
  245MOL0     C33674  11.125   8.876   0.661 -0.4692 -0.9613 -0.0884
  245MOL0     O33675  11.150   8.740   0.686 -0.4542  0.3816 -0.1248
  245MOL0     C33676  11.272   8.689   0.623  0.6274 -0.6746 -0.9185
  245MOL0     C33677  11.248   8.563   0.573 -0.7901  0.1296 -0.0469
  245MOL0     C33678  11.366   8.495   0.519  0.1718 -0.6410 -0.4986
  245MOL0     C33679  11.495   8.540   0.542 -0.9183  0.0564  0.6933
  245MOL0     O33680  11.616   8.472   0.509  1.2763 -0.0226  0.2002
  245MOL0     C33681  11.627   8.353   0.580 -0.3920 -0.3798  0.3314
  245MOL0     C33682  11.762   8.354   0.639  0.2595 -0.1130 -0.0747
  245MOL0     C33683  11.757   8.228   0.723 -0.5121 -0.5555  0.0511
  245MOL0     C33684  11.893   8.188   0.793 -0.4120 -0.0665 -0.1497
  245MOL0     C33685  11.859   8.103   0.912  0.2629  0.0506 -0.3387
  245MOL0     C33686  11.979   8.075   1.002 -0.5518  0.4037 -0.0198
  245MOL0     C33687  12.097   7.994   0.930 -0.1671 -1.4084 -0.8927
  245MOL0     C33688  12.179   7.899   1.023  0.6742 -0.4690  0.3379
  245MOL0     N33689  12.255   7.975   1.123  0.5839 -0.3913  0.4672
  245MOL0     C33690  12.351   8.069   1.102 -0.2889 -0.4113 -0.1158
  245MOL0     C33691  12.388   8.104   1.227  0.4031  0.1565  0.0667
  245MOL0     C33692  12.487   8.206   1.270  0.5169  0.1417 -0.4174
  245MOL0     C33693  12.618   8.194   1.177  0.2187  1.1235  0.0257
  245MOL0     C33694  12.688   8.060   1.207  0.1426 -0.1502 -1.1802
  245MOL0     C33695  12.823   8.058   1.151  0.0782  0.4732 -0.3518
  245MOL0     O33696  12.900   7.958   1.225 -1.0320 -0.2496  0.2262
  245MOL0     C33697  13.036   7.948   1.190  0.6652  0.0296 -0.3639
  245MOL0     C33698  13.121   7.881   1.279  0.4682  0.0366 -0.5430
  245MOL0     C33699  13.254   7.871   1.257  0.5185  0.6437 -0.3977
  245MOL0     C33700  13.333   7.790   1.363 -0.0461  0.6776 -0.6012
  245MOL0     C33701  13.313   7.950   1.164 -0.3713  0.7773  0.6867
  245MOL0     C33702  13.462   7.972   1.150  0.4035  0.2627  1.2007
  245MOL0     O33703  13.513   7.977   1.025  0.0730  0.5655 -0.4928
  245MOL0     C33704  13.629   8.047   1.014 -1.0680 -0.3944  0.0214
  245MOL0     C33705  13.730   7.996   0.927 -0.3445 -0.2343  0.0266
  245MOL0     C33706  13.850   8.075   0.905 -0.8411 -0.4803  0.0183
  245MOL0     C33707  13.875   8.190   0.988 -0.2405 -0.4085  0.1777
  245MOL0     O33708  14.000   8.243   0.986 -0.4033 -0.3334  0.3102
  245MOL0     C33709  14.035   8.342   1.090  0.0870  1.5734 -0.0516
  245MOL0     C33710  14.181   8.371   1.064 -0.4322  0.3829  0.2501
  245MOL0     C33711  14.232   8.478   1.152 -0.4367  0.3636 -0.0228
  245MOL0     C33712  14.381   8.499   1.128  0.0967 -0.8052  0.6247
  245MOL0     C33713  14.430   8.644   1.153  0.4441  0.3821  0.1913
  245MOL0     C33714  14.553   8.673   1.072  0.7159  0.0899  0.4077
  245MOL0     C33715  14.528   8.795   0.988  0.4522 -0.2733  0.7675
  245MOL0     C33716  14.659   8.835   0.918 -0.1723  0.0461 -0.0761
  245MOL0    Cl33717  14.713   8.727   0.799  0.1228  0.0491  0.3154
  245MOL0     C33718  13.771   8.246   1.073 -0.4405  1.1237 -1.5632
  245MOL0     C33719  13.652   8.170   1.082  0.0520  0.0881  1.1302
  245MOL0     O33720  13.521   7.989   1.254  0.7145 -0.1510  0.2253
  245MOL0     C33721  13.227   8.011   1.070 -0.2864  0.4220 -0.2899
  245MOL0     C33722  13.090   8.013   1.081 -0.2502  0.3399 -0.9161
  245MOL0     N33723  12.335   8.011   1.318  0.6285 -0.0624  0.1060
  245MOL0     N33724  12.241   7.949   1.248 -0.0962 -0.2177  0.3109
  245MOL0     C33725  11.513   8.658   0.605  0.0175  0.1063 -0.3041
  245MOL0     C33726  11.398   8.732   0.650  0.4208 -0.7058  1.1116
  245MOL0     C33727  10.992   8.918   0.725  0.3870 -0.9085 -0.4842
  245MOL0     C33728  10.929   8.832   0.817  0.2582  0.1690 -0.6489
  245MOL0     C33729  10.810   8.870   0.877  0.0210  0.2187 -1.1597
  245MOL0     C33730  10.754   8.995   0.864 -0.3154  0.5086 -0.0180
  245MOL0     O33731  10.643   9.022   0.938  0.1787 -0.5834  0.1514
  245MOL0     C33732  10.577   9.147   0.917  0.1408  0.1407  0.4598
  245MOL0     C33733  10.445   9.168   0.988  0.9025 -0.5418 -0.1611
  245MOL0     C33734  10.436   9.145   1.137 -0.3827 -0.0533 -0.7843
  245MOL0     C33735  10.294   9.185   1.195 -0.9492  0.7462  0.1996
  245MOL0     C33736  10.309   9.214   1.342 -0.3423 -0.4272  0.0504
  245MOL0     C33737  10.337   9.263   1.451 -0.2476 -0.2711 -0.1426
  245MOL0     C33738  10.805   9.077   0.762 -0.3320  0.0174  0.0657
  245MOL0     C33739  10.919   9.038   0.696 -0.2591  0.9737  0.5233
  245MOL0     C33740  10.960   9.123   0.579  0.0233  0.5116 -0.1797
  245MOL0     H33741  11.159   8.504   0.557 -0.9102  1.0668 -4.1694
  245MOL0     H33742  11.341   8.402   0.469 -2.8844  1.6327 -3.7110
  245MOL0     H33743  11.613   8.269   0.512 -0.9897  1.2995 -1.7472
  245MOL0     H33744  11.543   8.341   0.649  1.2388  0.4069  2.5724
  245MOL0     H33745  11.843   8.350   0.565  0.7718 -1.2854  0.5201
  245MOL0     H33746  11.785   8.436   0.708  1.8224 -0.5304 -0.0650
  245MOL0     H33747  11.676   8.238   0.795 -0.1413  1.0810  0.2738
  245MOL0     H33748  11.746   8.142   0.656  0.8123 -0.3796 -0.4378
  245MOL0     H33749  11.962   8.148   0.718  0.9356  0.3496  0.8384
  245MOL0     H33750  11.945   8.277   0.828 -0.7437  0.4147 -0.8638
  245MOL0     H33751  11.816   8.011   0.871 -0.0648 -1.0251  2.2548
  245MOL0     H33752  11.787   8.167   0.964  1.6886  1.8379 -0.4910
  245MOL0     H33753  12.026   8.168   1.034  0.2495  0.7773 -2.1227
  245MOL0     H33754  11.951   8.024   1.095  3.2431 -0.2263  0.9688
  245MOL0     H33755  12.167   8.069   0.892 -0.2042 -2.1659 -2.5706
  245MOL0     H33756  12.063   7.946   0.837 -2.3132  0.8450 -1.3892
  245MOL0     H33757  12.126   7.812   1.063  4.5237 -3.5068 -0.4677
  245MOL0     H33758  12.249   7.848   0.955  1.4451  1.2898 -0.2523
  245MOL0     H33759  12.382   8.114   1.009 -1.6714  2.5547  0.7347
  245MOL0     H33760  12.498   8.200   1.378  0.3717 -2.2340 -0.4628
  245MOL0     H33761  12.434   8.300   1.253 -0.7420 -0.5401 -0.4464
  245MOL0     H33762  12.591   8.206   1.072  1.1425 -1.2307 -0.5520
  245MOL0     H33763  12.677   8.278   1.215 -0.7475  2.3722 -1.1368
  245MOL0     H33764  12.691   8.051   1.316  1.2414  5.2176 -0.4729
  245MOL0     H33765  12.639   7.971   1.168  0.8621 -1.4772  0.7863
  245MOL0     H33766  12.818   8.042   1.043 -1.5398  0.9041 -0.3641
  245MOL0     H33767  12.880   8.150   1.168  0.5817  0.3648 -1.3746
  245MOL0     H33768  13.087   7.836   1.372 -1.9501  0.7947 -0.9933
  245MOL0     H33769  13.363   7.860   1.441  1.3521 -0.6403  0.0931
  245MOL0     H33770  13.433   7.761   1.329 -0.2133 -0.2462 -0.3365
  245MOL0     H33771  13.271   7.707   1.397  1.4833 -1.2086 -2.1590
  245MOL0     H33772  13.713   7.904   0.873  0.8928  0.7287 -2.1378
  245MOL0     H33773  13.934   8.045   0.842 -0.6802  0.7179 -0.3796
  245MOL0     H33774  13.976   8.434   1.090  0.4438  1.8159  0.6858
  245MOL0     H33775  14.030   8.291   1.187 -1.5172 -0.9713 -1.3776
  245MOL0     H33776  14.238   8.281   1.085  1.7306  1.6495  0.1136
  245MOL0     H33777  14.185   8.399   0.958 -2.8677  2.8935  0.6822
  245MOL0     H33778  14.215   8.469   1.260  1.0258  1.4500  0.3261
  245MOL0     H33779  14.178   8.568   1.122 -1.0000 -0.1349 -0.5343
  245MOL0     H33780  14.399   8.465   1.025 -0.0460 -0.0644  0.3510
  245MOL0     H33781  14.446   8.426   1.177  0.9389 -1.0846 -0.8440
  245MOL0     H33782  14.345   8.712   1.145  0.3426  0.6555  2.8048
  245MOL0     H33783  14.457   8.674   1.255 -1.6109  2.2945  0.2477
  245MOL0     H33784  14.562   8.593   0.997 -1.2219 -0.0610  0.2876
  245MOL0     H33785  14.640   8.670   1.137  1.2093  1.4035 -0.1745
  245MOL0     H33786  14.506   8.878   1.057 -0.7474  1.0690 -1.1353
  245MOL0     H33787  14.443   8.780   0.920 -1.7220  2.7822  2.5397
  245MOL0     H33788  14.735   8.860   0.992 -0.1300  1.0387 -0.4303
  245MOL0     H33789  14.650   8.927   0.859 -0.6828 -0.0930 -0.2206
  245MOL0     H33790  13.783   8.331   1.139 -1.5789 -0.8711  1.4265
  245MOL0     H33791  13.576   8.210   1.149 -1.1000 -0.3436  0.1360
  245MOL0     H33792  13.265   8.076   0.992 -0.2426 -1.9781 -2.3927
  245MOL0     H33793  13.035   8.077   1.012 -1.8948  0.2342  0.2179
  245MOL0     H33794  11.611   8.702   0.622  0.4578 -0.9293 -0.1129
  245MOL0     H33795  11.413   8.820   0.711  0.6730 -1.1852  1.7536
  245MOL0     H33796  10.982   8.739   0.836  3.2232  1.7184 -0.6923
  245MOL0     H33797  10.777   8.797   0.950 -0.3792  1.2768 -0.2573
  245MOL0     H33798  10.642   9.230   0.947 -0.6316  0.6732  0.6963
  245MOL0     H33799  10.556   9.160   0.811  0.1659 -0.3828  0.3914
  245MOL0     H33800  10.371   9.102   0.941 -0.7771 -0.0720  1.6542
  245MOL0     H33801  10.399   9.263   0.957 -0.3300 -1.2417 -0.5534
  245MOL0     H33802  10.462   9.043   1.166  6.6765  1.5850  0.5280
  245MOL0     H33803  10.519   9.201   1.182 -0.3709 -2.2012  2.1461
  245MOL0     H33804  10.221   9.105   1.179 -0.3641  0.2057  0.2036
  245MOL0     H33805  10.257   9.273   1.142  0.3424  1.4968  0.5212
  245MOL0     H33806  10.366   9.303   1.546 -1.8625  3.5964 -1.0849
  245MOL0     H33807  10.764   9.176   0.742  1.7147  0.9796  0.3983
  245MOL0     H33808  10.975   9.067   0.486  1.1483  1.8570 -0.8347
  245MOL0     H33809  10.902   9.216   0.574  0.4464  0.7725 -0.2253
  245MOL0     H33810  11.059   9.155   0.611  0.1031 -0.2431  0.3509
  246MOL0     O33811   2.658   1.571   0.313 -0.2189 -0.0511  0.5434
  246MOL0     C33812   2.601   1.490   0.387  0.2412  0.6475 -0.7566
  246MOL0     O33813   2.660   1.432   0.498 -0.4675 -0.1191  0.1676
  246MOL0     C33814   2.781   1.474   0.536 -1.0624 -0.6670 -1.3045
  246MOL0     C33815   2.784   1.564   0.652  0.2341 -0.3268  0.3577
  246MOL0     C33816   2.898   1.611   0.704  0.1208  0.2150  1.1935
  246MOL0     C33817   3.023   1.553   0.656  0.5074 -0.1206  0.3664
  246MOL0     O33818   3.136   1.617   0.718  0.3291 -0.5735 -0.0598
  246MOL0     C33819   3.270   1.561   0.684 -0.6435  0.2478  0.1707
  246MOL0     C33820   3.372   1.659   0.737  0.0363 -0.3009 -0.1195
  246MOL0     C33821   3.494   1.672   0.639 -0.1397  0.9164  0.4086
  246MOL0     C33822   3.619   1.751   0.690 -0.3140  0.2293 -1.0650
  246MOL0     C33823   3.726   1.734   0.588  0.1010 -0.1998  0.3371
  246MOL0     C33824   3.870   1.758   0.631  0.0745  0.1001 -0.1640
  246MOL0     C33825   3.959   1.700   0.511 -0.1102 -0.3739  0.7166
  246MOL0     C33826   4.110   1.715   0.563 -0.3093 -0.4292 -0.3249
  246MOL0     N33827   4.222   1.677   0.478 -0.0157  0.3998  1.0697
  246MOL0     C33828   4.289   1.566   0.488  0.4351  0.4740  0.3792
  246MOL0     C33829   4.382   1.560   0.397  0.8091 -0.3072  0.4510
  246MOL0     C33830   4.494   1.461   0.397  0.3841 -0.8610  0.1756
  246MOL0     C33831   4.608   1.501   0.300  0.0259 -1.1562  0.0238
  246MOL0     C33832   4.563   1.479   0.147  0.0538 -0.4322  0.7997
  246MOL0     C33833   4.596   1.344   0.084  0.0270 -0.0855 -0.3558
  246MOL0     O33834   4.508   1.248   0.143  0.5279 -0.2054 -0.1671
  246MOL0     C33835   4.523   1.110   0.120 -0.1157 -0.2001  0.0249
  246MOL0     C33836   4.482   1.017   0.208 -0.2325 -0.6111  0.0821
  246MOL0     C33837   4.483   0.880   0.181  0.2212 -0.1602 -0.5409
  246MOL0     C33838   4.401   0.786   0.271 -0.3307 -0.0573 -0.0637
  246MOL0     C33839   4.541   0.842   0.061  0.1898 -0.4288 -0.4834
  246MOL0     C33840   4.564   0.700   0.030  0.1281 -0.0060  0.5184
  246MOL0     O33841   4.573   0.666  -0.097 -0.8379  0.2497  0.0496
  246MOL0     C33842   4.576   0.530  -0.134  1.3302  1.2514 -0.0565
  246MOL0     C33843   4.480   0.437  -0.088 -1.0859  0.1813 -0.2661
  246MOL0     C33844   4.477   0.310  -0.140 -0.6369  0.3155 -0.0682
  246MOL0     C33845   4.568   0.260  -0.227  0.0984  0.0182 -0.3211
  246MOL0     O33846   4.541   0.134  -0.265 -0.8263  0.2541 -0.6984
  246MOL0     C33847   4.650   0.061  -0.322  0.1492 -0.0295 -0.2664
  246MOL0     C33848   4.613  -0.089  -0.297 -0.1708 -0.1282 -0.1331
  246MOL0     C33849   4.718  -0.192  -0.332  0.7549 -0.4176 -0.1993
  246MOL0     C33850   4.850  -0.162  -0.266  1.0015  0.4638  0.4666
  246MOL0     C33851   4.932  -0.296  -0.280 -0.2289 -1.2221  0.0529
  246MOL0     C33852   5.083  -0.292  -0.234  0.6783 -0.3525  0.2191
  246MOL0     C33853   5.111  -0.262  -0.083  0.2685 -0.0796 -0.1684
  246MOL0     C33854   5.254  -0.280  -0.043  0.2287 -0.1260 -0.5080
  246MOL0    Cl33855   5.334  -0.435  -0.066  0.1956 -0.0823  0.1990
  246MOL0     C33856   4.667   0.345  -0.268  0.9404 -0.0433  0.1381
  246MOL0     C33857   4.668   0.474  -0.225  0.2124  1.1572 -0.6829
  246MOL0     O33858   4.587   0.624   0.119  0.2713  0.4066 -0.3200
  246MOL0     C33859   4.587   0.934  -0.035  0.5109 -0.0982 -0.2016
  246MOL0     C33860   4.573   1.066  -0.005 -0.3227 -1.1967  0.5862
  246MOL0     N33861   4.365   1.680   0.321 -0.5553 -0.2511  1.7582
  246MOL0     N33862   4.262   1.742   0.366  0.6991  0.1486  0.3492
  246MOL0     C33863   3.027   1.462   0.540 -0.2148 -0.2368 -0.1329
  246MOL0     C33864   2.900   1.417   0.488  0.1844  0.8963  0.3776
  246MOL0     C33865   2.465   1.450   0.369 -0.0871  0.0558  0.0468
  246MOL0     C33866   2.429   1.321   0.402  1.0810  0.4305 -0.3095
  246MOL0     C33867   2.305   1.273   0.367 -0.4044  0.3474  0.4357
  246MOL0     C33868   2.205   1.355   0.316  0.0824 -0.1663 -0.4116
  246MOL0     O33869   2.077   1.323   0.276  0.5666 -0.4375 -0.4504
  246MOL0     C33870   2.022   1.196   0.313  0.0523  0.7062 -0.2685
  246MOL0     C33871   1.876   1.184   0.261 -1.0826 -0.2087 -0.2761
  246MOL0     C33872   1.797   1.272   0.346 -0.2261 -1.0431 -0.3062
  246MOL0     C33873   1.661   1.310   0.282 -0.5630 -0.2932 -0.6487
  246MOL0     C33874   1.675   1.373   0.150  0.0526  0.4111 -0.7362
  246MOL0     C33875   1.681   1.421   0.034  1.0127  0.2786 -0.3120
  246MOL0     C33876   2.237   1.490   0.288  0.0868  0.4263 -0.4258
  246MOL0     C33877   2.362   1.537   0.315 -0.2710 -0.3660 -0.5059
  246MOL0     C33878   2.393   1.684   0.301 -0.5549 -0.0792  0.7109
  246MOL0     H33879   2.703   1.618   0.700  0.5034  2.6844 -2.2073
  246MOL0     H33880   2.902   1.667   0.796  1.9223  1.7692  0.2468
  246MOL0     H33881   3.285   1.543   0.577  4.6244 -0.8274  0.8477
  246MOL0     H33882   3.295   1.460   0.717 -2.1378  0.1381  1.0799
  246MOL0     H33883   3.326   1.757   0.755 -0.2261 -0.8868  2.9150
  246MOL0     H33884   3.409   1.639   0.837 -0.7504  0.4752  0.3437
  246MOL0     H33885   3.533   1.574   0.608  1.1268  1.4341  0.3261
  246MOL0     H33886   3.462   1.718   0.545 -1.1933 -1.3337 -0.4024
  246MOL0     H33887   3.600   1.857   0.706 -6.0293 -0.4715 -1.0968
  246MOL0     H33888   3.643   1.721   0.792 -0.9056  3.1895  0.0454
  246MOL0     H33889   3.711   1.791   0.496  0.6808 -1.8992 -0.8459
  246MOL0     H33890   3.724   1.632   0.548 -0.0056  0.2729 -0.9183
  246MOL0     H33891   3.883   1.867   0.634 -1.4127  0.2883  1.2725
  246MOL0     H33892   3.899   1.726   0.731  0.3670  1.4456  0.2082
  246MOL0     H33893   3.938   1.753   0.418 -2.2790  0.7364  1.7561
  246MOL0     H33894   3.938   1.596   0.486  1.8757 -0.4706 -0.7753
  246MOL0     H33895   4.125   1.820   0.589 -2.5943 -0.4182  1.1960
  246MOL0     H33896   4.121   1.653   0.652  1.4157  0.7650  0.3543
  246MOL0     H33897   4.291   1.500   0.574 -1.1000 -3.8504 -2.5656
  246MOL0     H33898   4.453   1.361   0.383  1.0070 -1.3716  1.8436
  246MOL0     H33899   4.542   1.447   0.494 -1.6564 -0.0380  1.3895
  246MOL0     H33900   4.636   1.606   0.314 -1.1499 -0.5431 -1.8555
  246MOL0     H33901   4.691   1.440   0.334 -2.3054 -3.0374  2.9170
  246MOL0     H33902   4.454   1.489   0.149 -0.0800 -1.7351  0.7138
  246MOL0     H33903   4.617   1.554   0.089 -0.0164 -0.5203  0.6202
  246MOL0     H33904   4.577   1.339  -0.023 -1.5603  0.9000 -0.1434
  246MOL0     H33905   4.703   1.329   0.103  0.4612  0.6602 -2.0187
  246MOL0     H33906   4.434   1.050   0.300 -1.9433 -1.3754 -0.4939
  246MOL0     H33907   4.460   0.707   0.317 -0.7619  0.4223  1.3460
  246MOL0     H33908   4.315   0.749   0.215  1.2572 -1.3942 -1.7670
  246MOL0     H33909   4.357   0.839   0.356 -0.8936  1.3393 -1.1860
  246MOL0     H33910   4.404   0.460  -0.013 -0.0146 -0.2794  1.0082
  246MOL0     H33911   4.403   0.238  -0.108 -3.3467  3.2411  0.7948
  246MOL0     H33912   4.651   0.080  -0.430 -0.3668  2.2223  0.0634
  246MOL0     H33913   4.746   0.095  -0.282  1.2927 -0.0337 -2.7875
  246MOL0     H33914   4.580  -0.107  -0.195 -0.0747 -0.0427 -0.0862
  246MOL0     H33915   4.532  -0.095  -0.370  0.3347  1.5902 -0.8942
  246MOL0     H33916   4.724  -0.190  -0.442 -0.7820  1.1850 -0.2941
  246MOL0     H33917   4.678  -0.291  -0.307 -3.7267  1.2597  0.1634
  246MOL0     H33918   4.826  -0.147  -0.160  2.6346  0.9611  0.7963
  246MOL0     H33919   4.901  -0.075  -0.309 -1.8570  2.4288  0.7049
  246MOL0     H33920   4.887  -0.374  -0.219  1.0714 -1.6135  0.5438
  246MOL0     H33921   4.928  -0.340  -0.380 -0.2755  1.2167 -1.1065
  246MOL0     H33922   5.135  -0.219  -0.297 -0.2187 -0.2083 -0.3621
  246MOL0     H33923   5.130  -0.389  -0.254 -0.5805 -0.6255 -1.6625
  246MOL0     H33924   5.046  -0.321  -0.018  0.4926 -1.1917 -0.9152
  246MOL0     H33925   5.082  -0.158  -0.064  0.3915 -0.0306 -0.2502
  246MOL0     H33926   5.261  -0.249   0.062 -0.8935  1.0590 -0.7536
  246MOL0     H33927   5.319  -0.208  -0.094  2.5589 -0.6877  1.4690
  246MOL0     H33928   4.735   0.317  -0.348 -0.1003 -0.1054 -0.7504
  246MOL0     H33929   4.746   0.539  -0.261  0.7865  0.8098 -0.0874
  246MOL0     H33930   4.638   0.900  -0.124  0.7098  1.2491 -0.6298
  246MOL0     H33931   4.627   1.138  -0.066  0.8438 -1.7765  0.8926
  246MOL0     H33932   3.118   1.428   0.492 -0.0201  0.5157 -0.3140
  246MOL0     H33933   2.890   1.347   0.405 -0.1690  0.9700  0.3574
  246MOL0     H33934   2.497   1.245   0.438 -1.7200 -2.6495 -1.0321
  246MOL0     H33935   2.286   1.167   0.377  3.7584 -0.6852 -0.5758
  246MOL0     H33936   2.082   1.120   0.264 -0.8912 -0.0603 -0.2695
  246MOL0     H33937   2.016   1.173   0.420  0.7238 -1.2873 -0.6193
  246MOL0     H33938   1.840   1.081   0.264 -0.9797 -0.2981 -1.6021
  246MOL0     H33939   1.886   1.209   0.155 -0.9108  2.0754  0.2282
  246MOL0     H33940   1.779   1.228   0.444 -4.3989  0.0278 -0.4248
  246MOL0     H33941   1.854   1.365   0.354  2.9838 -2.5315 -3.1600
  246MOL0     H33942   1.615   1.382   0.351  1.0354 -0.8450  1.0667
  246MOL0     H33943   1.596   1.222   0.287 -0.6193 -0.2279  4.2332
  246MOL0     H33944   1.671   1.438  -0.072 -0.7889 -1.1954 -0.4494
  246MOL0     H33945   2.159   1.555   0.249 -2.3921 -1.9934  0.1715
  246MOL0     H33946   2.302   1.736   0.270 -1.1182 -1.6784 -0.4728
  246MOL0     H33947   2.435   1.738   0.386  0.5723  1.0754 -0.5291
  246MOL0     H33948   2.464   1.701   0.219  1.6249  0.2673  2.5651
  247MOL0     O33949   5.438  10.747   3.653  0.3856  0.3739  0.1068
  247MOL0     C33950   5.557  10.754   3.645  0.0222  0.2833  0.0691
  247MOL0     O33951   5.633  10.810   3.537  0.1576  0.0685 -0.5890
  247MOL0     C33952   5.572  10.880   3.432  0.1152  0.4112 -0.6834
  247MOL0     C33953   5.477  10.824   3.349  0.6922 -0.3712 -0.5815
  247MOL0     C33954   5.416  10.895   3.245  0.6630  0.3477  0.0181
  247MOL0     C33955   5.448  11.035   3.228  0.6812  0.3314  0.0441
  247MOL0     O33956   5.376  11.120   3.145  0.3396  0.2893 -1.0622
  247MOL0     C33957   5.275  11.050   3.064  0.0056  0.2746 -0.0326
  247MOL0     C33958   5.176  11.161   3.003  1.0319  0.2665  0.8357
  247MOL0     C33959   5.095  11.230   3.112  1.2359  0.6221  0.2400
  247MOL0     C33960   4.972  11.148   3.143 -1.2326 -0.6207  0.2995
  247MOL0     C33961   4.872  11.218   3.235  0.0010  0.8096  0.1951
  247MOL0     C33962   4.743  11.136   3.254 -0.6956  0.2728  0.4988
  247MOL0     C33963   4.641  11.158   3.136 -0.5905 -0.4330  0.0626
  247MOL0     C33964   4.525  11.060   3.153 -0.0164 -0.4188  0.3651
  247MOL0     N33965   4.572  10.923   3.126  0.1870 -0.7432  0.4019
  247MOL0     C33966   4.582  10.820   3.212 -0.0126  0.3726 -0.3552
  247MOL0     C33967   4.640  10.719   3.144  0.7319  0.8620 -0.1474
  247MOL0     C33968   4.705  10.599   3.202  0.1397  0.2986 -0.0644
  247MOL0     C33969   4.696  10.474   3.114  0.7509  0.4009  0.1697
  247MOL0     C33970   4.808  10.467   3.020  0.2326  1.1754  0.4342
  247MOL0     C33971   4.876  10.331   2.999  0.4822 -0.4277 -0.0653
  247MOL0     O33972   4.783  10.230   2.969 -0.6758 -0.9062 -0.4400
  247MOL0     C33973   4.732  10.207   2.841 -0.2979 -0.0127  0.7414
  247MOL0     C33974   4.673  10.085   2.832 -0.2844  0.4189  0.2710
  247MOL0     C33975   4.640  10.022   2.706  0.2238  0.5176  0.2896
  247MOL0     C33976   4.574   9.893   2.714 -0.1273 -0.3861 -1.0356
  247MOL0     C33977   4.659  10.089   2.588 -0.4821  0.0439 -1.2186
  247MOL0     C33978   4.626  10.029   2.457 -0.5856 -0.3656 -0.2520
  247MOL0     O33979   4.702  10.066   2.349 -0.4179  0.1762 -0.2021
  247MOL0     C33980   4.684  10.013   2.218 -0.5787  0.4259 -0.0663
  247MOL0     C33981   4.777  10.052   2.118  0.1568 -0.1180 -0.9669
  247MOL0     C33982   4.763  10.020   1.989 -0.4355 -0.4399  0.4045
  247MOL0     C33983   4.672   9.926   1.937  0.1962  0.5112  1.3310
  247MOL0     O33984   4.666   9.893   1.809  0.0595  0.2979  0.1932
  247MOL0     C33985   4.662   9.753   1.784 -0.6183  1.0571  0.7922
  247MOL0     C33986   4.656   9.715   1.634  1.3735 -1.2283  0.0615
  247MOL0     C33987   4.760   9.794   1.557  0.0875  0.0698 -0.5625
  247MOL0     C33988   4.761   9.740   1.417  0.7219  0.3085 -0.2488
  247MOL0     C33989   4.768   9.846   1.309  0.3790  0.4231  0.0895
  247MOL0     C33990   4.911   9.903   1.308 -0.3667 -0.1797 -0.2893
  247MOL0     C33991   4.930   9.998   1.188 -1.1558 -0.1448  0.0185
  247MOL0     C33992   4.825  10.113   1.168 -0.4646 -0.2842  0.2116
  247MOL0    Cl33993   4.890  10.227   1.053  0.1532  0.1581  0.4738
  247MOL0     C33994   4.581   9.878   2.033  0.9805  0.3428  0.7015
  247MOL0     C33995   4.583   9.925   2.168  0.2647 -0.1846 -0.4627
  247MOL0     O33996   4.534   9.943   2.456 -0.1794 -0.6201 -0.0061
  247MOL0     C33997   4.720  10.217   2.597  0.7924  0.6553  0.3856
  247MOL0     C33998   4.755  10.276   2.716  1.0130  0.2281  0.2835
  247MOL0     N33999   4.678  10.767   3.021  0.0107 -0.6006  0.3912
  247MOL0     N34000   4.637  10.892   3.006  0.9391 -0.6648 -0.9728
  247MOL0     C34001   5.529  11.094   3.325 -0.8461 -0.1927  0.2536
  247MOL0     C34002   5.600  11.016   3.425  0.0886  0.6090 -1.1421
  247MOL0     C34003   5.634  10.713   3.762 -0.6172  0.0669  0.1585
  247MOL0     C34004   5.729  10.805   3.801  0.8005 -0.9502 -0.1058
  247MOL0     C34005   5.792  10.781   3.918 -0.0610 -0.6432  0.3130
  247MOL0     C34006   5.774  10.659   3.995  0.4755 -0.1359  0.3049
  247MOL0     O34007   5.857  10.646   4.096  0.2118 -0.6516 -0.1792
  247MOL0     C34008   5.834  10.553   4.207  0.0078  0.3624  0.1821
  247MOL0     C34009   5.927  10.433   4.206  0.1408 -0.3424 -0.1025
  247MOL0     C34010   5.923  10.374   4.350 -1.2336 -0.7109 -0.1402
  247MOL0     C34011   5.789  10.286   4.396 -0.5199  0.5418  0.0715
  247MOL0     C34012   5.822  10.155   4.448 -0.2129 -0.5098  0.9451
  247MOL0     C34013   5.830  10.045   4.491 -0.1246  0.4694  0.4111
  247MOL0     C34014   5.692  10.560   3.949  1.1358 -1.3607  0.7916
  247MOL0     C34015   5.619  10.583   3.827  0.3799 -0.1552  0.1191
  247MOL0     C34016   5.517  10.477   3.802 -0.7520  0.0407 -0.1848
  247MOL0     H34017   5.466  10.716   3.359  4.0626 -0.6351  2.9212
  247MOL0     H34018   5.349  10.839   3.181 -0.2510 -0.0175  1.2417
  247MOL0     H34019   5.223  10.982   3.132  1.4611 -1.6507 -0.7589
  247MOL0     H34020   5.326  10.987   2.990 -0.7059 -0.2574 -0.0763
  247MOL0     H34021   5.237  11.242   2.961 -0.2309  0.4221 -0.8212
  247MOL0     H34022   5.131  11.109   2.918  1.7679  0.1271  0.5279
  247MOL0     H34023   5.150  11.242   3.206  1.3450  0.8011  0.1545
  247MOL0     H34024   5.068  11.327   3.070 -2.4822 -0.9512 -1.4666
  247MOL0     H34025   4.925  11.115   3.050 -0.0006  0.5384 -0.7816
  247MOL0     H34026   5.014  11.063   3.198  2.1191  1.4293  1.2471
  247MOL0     H34027   4.864  11.325   3.211  0.4711  1.0952  1.2846
  247MOL0     H34028   4.919  11.227   3.333  2.1673 -0.1363 -0.7060
  247MOL0     H34029   4.778  11.033   3.256  0.6407  0.6661 -0.5304
  247MOL0     H34030   4.694  11.160   3.348 -1.3071  2.1417 -0.2377
  247MOL0     H34031   4.687  11.146   3.037  3.3340  0.2966  1.6110
  247MOL0     H34032   4.604  11.260   3.143  2.0137  0.5435  0.9907
  247MOL0     H34033   4.494  11.063   3.258 -0.7826 -0.7428  0.1557
  247MOL0     H34034   4.433  11.084   3.098  0.9006  1.2547 -0.5023
  247MOL0     H34035   4.565  10.815   3.319 -0.4433 -1.0454 -0.4742
  247MOL0     H34036   4.649  10.565   3.290  0.7659  0.9291  0.5891
  247MOL0     H34037   4.803  10.634   3.234 -0.2726  1.6039 -0.1693
  247MOL0     H34038   4.714  10.388   3.178  1.4647  1.9609  2.1544
  247MOL0     H34039   4.599  10.449   3.068  1.1842  0.8636 -1.0418
  247MOL0     H34040   4.773  10.498   2.921  0.7260 -0.3364 -0.2292
  247MOL0     H34041   4.896  10.527   3.044  1.7579 -0.5527 -0.6327
  247MOL0     H34042   4.952  10.340   2.920 -0.1876 -0.9066 -0.7848
  247MOL0     H34043   4.929  10.313   3.093  0.6622 -0.1194 -0.1074
  247MOL0     H34044   4.638  10.051   2.929  0.4243  1.6773  1.0051
  247MOL0     H34045   4.465   9.904   2.711 -0.3175  0.0723  2.4916
  247MOL0     H34046   4.589   9.851   2.814 -0.0298  1.6244 -0.1622
  247MOL0     H34047   4.618   9.831   2.635  2.3811  0.2524 -0.2451
  247MOL0     H34048   4.857  10.120   2.145  0.7643 -1.4302  0.7229
  247MOL0     H34049   4.833  10.075   1.927  1.0392 -0.7844  1.6928
  247MOL0     H34050   4.751   9.709   1.831 -0.5285 -0.1439 -0.4483
  247MOL0     H34051   4.571   9.706   1.822 -0.6515  0.4187 -0.0386
  247MOL0     H34052   4.660   9.607   1.614  0.5091 -1.3242  0.3688
  247MOL0     H34053   4.563   9.758   1.598  0.1808 -1.4086  2.6795
  247MOL0     H34054   4.861   9.788   1.599 -0.4574  0.3869  0.8082
  247MOL0     H34055   4.728   9.898   1.551  2.7625  1.3193  3.2278
  247MOL0     H34056   4.672   9.680   1.398 -0.7925  2.4543 -0.2258
  247MOL0     H34057   4.842   9.666   1.412  1.7473  1.0991  2.7641
  247MOL0     H34058   4.740   9.800   1.214 -2.1021 -0.2005  1.0545
  247MOL0     H34059   4.699   9.929   1.327  1.6531  1.6451 -0.4386
  247MOL0     H34060   4.965   9.813   1.277 -3.3114 -1.9703 -0.6616
  247MOL0     H34061   4.953   9.953   1.395  0.7096 -0.8666 -0.3909
  247MOL0     H34062   4.944   9.944   1.094  0.3498  1.3206 -0.6451
  247MOL0     H34063   5.022  10.052   1.210 -1.2398 -0.2842  0.7452
  247MOL0     H34064   4.806  10.181   1.252  0.9817  2.0285 -1.2668
  247MOL0     H34065   4.729  10.074   1.131 -0.9399  1.5186 -0.5239
  247MOL0     H34066   4.500   9.810   2.005  0.0109  1.3403  1.0145
  247MOL0     H34067   4.513   9.881   2.239  1.1087 -1.0408 -0.1309
  247MOL0     H34068   4.744  10.273   2.507  0.3615 -0.7577 -0.6423
  247MOL0     H34069   4.805  10.372   2.709 -0.6991  1.4448  2.9665
  247MOL0     H34070   5.526  11.202   3.317  0.9769 -0.0450  0.8999
  247MOL0     H34071   5.658  11.056   3.508 -2.2455 -0.8559  1.3691
  247MOL0     H34072   5.754  10.894   3.744  1.6644 -0.9225  0.3122
  247MOL0     H34073   5.860  10.860   3.949 -2.5104  2.3151 -1.2277
  247MOL0     H34074   5.850  10.615   4.296  2.5620 -1.3684  1.0304
  247MOL0     H34075   5.730  10.521   4.213  1.1751 -4.1822 -0.6530
  247MOL0     H34076   6.034  10.452   4.188 -0.0930 -1.1368 -2.8388
  247MOL0     H34077   5.887  10.367   4.129  0.5194 -2.1499  1.1964
  247MOL0     H34078   6.016  10.320   4.371  0.4017  2.2252  0.7323
  247MOL0     H34079   5.934  10.468   4.406  0.0449 -0.0430 -1.4530
  247MOL0     H34080   5.728  10.271   4.306  0.9597  0.1020 -0.8972
  247MOL0     H34081   5.725  10.333   4.471  0.2959 -1.3416  2.0507
  247MOL0     H34082   5.818   9.944   4.524 -0.2153 -0.1127 -1.3165
  247MOL0     H34083   5.693  10.464   3.999  1.3820  0.2879  4.2502
  247MOL0     H34084   5.554  10.376   3.823 -0.2187  0.1184 -0.7050
  247MOL0     H34085   5.432  10.504   3.864 -3.1363 -1.2700 -2.6794
  247MOL0     H34086   5.473  10.480   3.702 -0.4793  0.7561 -0.2949
  248MOL0     O34087   0.939   7.237   7.042  0.4168  0.2967 -0.4005
  248MOL0     C34088   1.003   7.323   7.102 -0.9309  0.9072 -0.4142
  248MOL0     O34089   1.086   7.419   7.038 -0.4563  0.6154  0.2713
  248MOL0     C34090   1.095   7.432   6.903  0.6027 -0.4982 -0.0313
  248MOL0     C34091   1.222   7.461   6.851  0.6389 -0.1249 -0.1638
  248MOL0     C34092   1.238   7.489   6.714  0.6778 -0.2040  0.5989
  248MOL0     C34093   1.134   7.490   6.620  0.4529 -0.0162 -0.5342
  248MOL0     O34094   1.144   7.529   6.493  0.4187 -0.2213 -0.1172
  248MOL0     C34095   1.270   7.504   6.428 -0.1929  0.2725 -0.5998
  248MOL0     C34096   1.277   7.535   6.273 -0.2240 -0.8424  0.4033
  248MOL0     C34097   1.195   7.433   6.184  0.5890  0.3565  0.3061
  248MOL0     C34098   1.198   7.478   6.041 -0.6444  0.1493  0.2484
  248MOL0     C34099   1.116   7.595   6.011 -0.6104  1.2071 -0.1474
  248MOL0     C34100   1.133   7.631   5.863 -0.2078  0.4161  0.5267
  248MOL0     C34101   1.000   7.685   5.799 -0.2244 -0.8500  0.0167
  248MOL0     C34102   1.028   7.747   5.670 -0.2041 -0.6464  0.6488
  248MOL0     N34103   1.081   7.640   5.586 -0.5982 -0.2163  0.1155
  248MOL0     C34104   1.011   7.536   5.543 -0.2759 -0.0176 -1.1309
  248MOL0     C34105   1.094   7.466   5.467  0.7713  0.6927  0.7746
  248MOL0     C34106   1.059   7.342   5.390  0.7475 -0.5330 -0.0029
  248MOL0     C34107   1.047   7.376   5.242 -0.0876  0.3718 -0.3374
  248MOL0     C34108   1.000   7.254   5.164  0.7763 -0.1804 -1.0175
  248MOL0     C34109   0.988   7.285   5.017 -0.6351  0.1039  0.9808
  248MOL0     O34110   0.877   7.380   5.009 -0.0518 -0.0905 -0.4968
  248MOL0     C34111   0.792   7.382   4.895  0.5842  0.5076 -0.2941
  248MOL0     C34112   0.825   7.330   4.770 -0.7587 -0.8168  0.8515
  248MOL0     C34113   0.734   7.346   4.655  0.0321 -0.8131  0.1770
  248MOL0     C34114   0.794   7.303   4.521 -0.1102 -0.7887 -0.0848
  248MOL0     C34115   0.604   7.399   4.681  0.2756 -0.5041  0.9345
  248MOL0     C34116   0.511   7.419   4.569 -1.1101 -0.3716 -0.2122
  248MOL0     O34117   0.535   7.359   4.449  0.0160 -0.2446  0.8430
  248MOL0     C34118   0.473   7.412   4.334  0.2449  0.8364  0.6303
  248MOL0     C34119   0.375   7.336   4.271 -0.0878  0.0021  0.6061
  248MOL0     C34120   0.329   7.387   4.149  0.9951 -0.2697 -0.4557
  248MOL0     C34121   0.370   7.512   4.092  0.2551  0.3170 -1.1135
  248MOL0     O34122   0.345   7.561   3.974  0.5656 -0.2343  0.3739
  248MOL0     C34123   0.211   7.555   3.931 -0.2619 -0.5113 -0.2906
  248MOL0     C34124   0.129   7.655   4.002 -0.2030 -0.4337 -0.1760
  248MOL0     C34125  -0.017   7.639   3.965  0.7822  0.5821  0.1339
  248MOL0     C34126  -0.092   7.753   4.029  0.3483  0.6279  0.3278
  248MOL0     C34127  -0.239   7.746   3.987  0.2096  0.2525 -1.0920
  248MOL0     C34128  -0.346   7.852   4.040  0.7762 -0.2043 -0.3545
  248MOL0     C34129  -0.484   7.784   4.066 -0.9057 -0.5555 -0.0259
  248MOL0     C34130  -0.589   7.890   4.097  0.6010  0.1784 -0.0002
  248MOL0    Cl34131  -0.752   7.830   4.052 -0.5220  0.2235  0.2891
  248MOL0     C34132   0.481   7.575   4.153 -0.3690  0.3145 -0.4392
  248MOL0     C34133   0.530   7.524   4.277  0.8905  0.5373  0.3239
  248MOL0     O34134   0.421   7.494   4.593  0.1627  0.5119  0.7398
  248MOL0     C34135   0.571   7.438   4.815 -0.1150  0.1423  0.6013
  248MOL0     C34136   0.662   7.429   4.923  0.1007  0.4317 -0.0022
  248MOL0     N34137   1.219   7.518   5.477 -0.3407  0.0801  0.7546
  248MOL0     N34138   1.208   7.625   5.543 -0.0775  0.3413 -0.9339
  248MOL0     C34139   1.001   7.479   6.687  0.0032 -0.6575 -0.3222
  248MOL0     C34140   0.980   7.452   6.827 -0.1610  0.5425  0.3808
  248MOL0     C34141   1.029   7.307   7.242 -0.4184  0.8988  0.5463
  248MOL0     C34142   1.047   7.178   7.300 -0.3582  0.2445 -0.5487
  248MOL0     C34143   1.078   7.160   7.439  0.8222 -0.2527  0.1403
  248MOL0     C34144   1.089   7.269   7.527  0.2575 -0.2044  0.1099
  248MOL0     O34145   1.133   7.254   7.660  0.0877  0.3003 -0.0702
  248MOL0     C34146   1.127   7.121   7.728  0.9838 -0.3189 -0.4125
  248MOL0     C34147   0.994   7.118   7.804 -0.2970  0.1225  0.2373
  248MOL0     C34148   0.874   7.114   7.708  0.7269  0.4104 -0.0271
  248MOL0     C34149   0.743   7.090   7.778  0.3432 -0.0783 -0.1030
  248MOL0     C34150   0.686   7.190   7.869  0.6654  0.1893  0.3009
  248MOL0     C34151   0.622   7.251   7.952  0.3533 -0.8635  0.8057
  248MOL0     C34152   1.093   7.397   7.461  0.6649 -0.3152  0.0373
  248MOL0     C34153   1.056   7.420   7.328 -0.1240 -0.1400 -0.0415
  248MOL0     C34154   1.037   7.569   7.285 -0.1284  1.1455 -1.0363
  248MOL0     H34155   1.302   7.463   6.925  1.1345 -3.7054 -0.4612
  248MOL0     H34156   1.343   7.499   6.687  1.5536  2.8034  4.2502
  248MOL0     H34157   1.289   7.396   6.424  2.1398  0.4753  1.9933
  248MOL0     H34158   1.358   7.550   6.475 -0.3007 -2.7124  2.9419
  248MOL0     H34159   1.250   7.640   6.257 -2.0045 -1.5369 -1.5583
  248MOL0     H34160   1.384   7.529   6.250  0.0516  0.6968  1.1705
  248MOL0     H34161   1.232   7.331   6.193  3.5313  1.4413  1.8272
  248MOL0     H34162   1.091   7.432   6.218 -0.8554  1.9761 -3.4668
  248MOL0     H34163   1.303   7.499   6.020 -1.0828  1.5942 -0.6787
  248MOL0     H34164   1.168   7.392   5.981 -0.9106  0.7358 -0.4784
  248MOL0     H34165   1.148   7.681   6.070  3.1951 -0.5776  0.7148
  248MOL0     H34166   1.013   7.561   6.023  0.0432 -1.0564 -0.4274
  248MOL0     H34167   1.212   7.706   5.857 -2.0235  2.5112  1.4513
  248MOL0     H34168   1.162   7.542   5.806 -0.8445  0.5067  0.0618
  248MOL0     H34169   0.973   7.761   5.873  3.5225  0.8660 -0.1302
  248MOL0     H34170   0.924   7.607   5.794  0.0636 -1.1231 -0.1699
  248MOL0     H34171   0.946   7.798   5.619  1.3029  1.0394 -0.2388
  248MOL0     H34172   1.105   7.823   5.690 -0.1534 -1.0542  2.1732
  248MOL0     H34173   0.905   7.524   5.565 -0.4366  2.7567 -0.0014
  248MOL0     H34174   0.963   7.307   5.429  1.0949 -1.0958  0.3653
  248MOL0     H34175   1.131   7.260   5.402 -0.3022 -1.4158  0.4070
  248MOL0     H34176   0.979   7.461   5.232 -0.3218  0.1079 -1.0353
  248MOL0     H34177   1.141   7.413   5.202 -1.4451  1.7923 -2.4025
  248MOL0     H34178   1.064   7.165   5.174 -0.8783 -1.6707 -2.9002
  248MOL0     H34179   0.898   7.230   5.197  0.4411 -1.4863 -2.8793
  248MOL0     H34180   1.077   7.336   4.978 -0.9450  2.5179  3.1595
  248MOL0     H34181   0.962   7.192   4.965  3.2630 -0.6727  0.1277
  248MOL0     H34182   0.923   7.294   4.741 -2.3112 -1.8362 -3.9540
  248MOL0     H34183   0.774   7.371   4.437  1.4671  0.5807  0.6003
  248MOL0     H34184   0.769   7.198   4.501 -0.0972 -0.3325 -2.8685
  248MOL0     H34185   0.901   7.285   4.506 -0.4946 -1.1658 -2.9748
  248MOL0     H34186   0.343   7.239   4.308 -0.7776  0.1150  0.3305
  248MOL0     H34187   0.251   7.337   4.094  1.4485 -1.9139  0.3417
  248MOL0     H34188   0.207   7.579   3.824 -0.9456  0.0245 -0.1519
  248MOL0     H34189   0.169   7.459   3.962  0.5165 -0.5591  0.6425
  248MOL0     H34190   0.140   7.646   4.110  0.9648  0.3615 -0.2186
  248MOL0     H34191   0.161   7.757   3.979 -2.0748  0.0974 -0.5786
  248MOL0     H34192  -0.061   7.544   3.997  0.7531  0.1210 -1.2126
  248MOL0     H34193  -0.031   7.639   3.857 -2.4021 -2.3862  0.3869
  248MOL0     H34194  -0.049   7.848   3.996  0.3810  0.6432  0.4155
  248MOL0     H34195  -0.076   7.752   4.137  0.7738  2.0286  0.2989
  248MOL0     H34196  -0.243   7.744   3.878  2.8916 -0.9904 -1.2401
  248MOL0     H34197  -0.261   7.643   4.018  2.4234  0.1116  0.2666
  248MOL0     H34198  -0.365   7.924   3.960  2.0149  0.9637  0.3550
  248MOL0     H34199  -0.302   7.893   4.131  1.5033 -3.2965  0.8397
  248MOL0     H34200  -0.468   7.726   4.157 -0.4796  0.6378  0.6818
  248MOL0     H34201  -0.507   7.725   3.976 -1.9696 -0.6773  0.3179
  248MOL0     H34202  -0.563   7.972   4.030 -2.9741  2.0700  0.6873
  248MOL0     H34203  -0.584   7.916   4.203  2.9280 -4.9197  1.4568
  248MOL0     H34204   0.529   7.664   4.113  1.1660 -0.5860 -0.7030
  248MOL0     H34205   0.596   7.576   4.346  2.2134  0.4494 -0.8375
  248MOL0     H34206   0.475   7.487   4.826  0.7391  1.6940  1.3923
  248MOL0     H34207   0.637   7.470   5.021  2.6958  0.2670  0.8143
  248MOL0     H34208   0.918   7.514   6.628  0.0873  0.3597  0.1410
  248MOL0     H34209   0.883   7.460   6.874 -1.3270 -1.1357 -1.5717
  248MOL0     H34210   1.025   7.090   7.241 -0.5026 -0.0140 -0.1157
  248MOL0     H34211   1.081   7.058   7.475 -1.8021 -0.6413 -0.4876
  248MOL0     H34212   1.134   7.031   7.667 -0.4074 -0.9413  0.2944
  248MOL0     H34213   1.202   7.121   7.807 -0.0703 -3.9515  0.7921
  248MOL0     H34214   0.995   7.218   7.847 -0.0019  0.6313 -0.8988
  248MOL0     H34215   0.997   7.033   7.873 -1.4786  0.2568  0.4775
  248MOL0     H34216   0.863   7.212   7.659 -2.8364 -1.2019 -2.8886
  248MOL0     H34217   0.873   7.029   7.640 -1.4508 -0.1623  0.6621
  248MOL0     H34218   0.751   7.001   7.840  1.9468  1.9927  2.9450
  248MOL0     H34219   0.672   7.084   7.695  0.9987 -0.2269 -0.6534
  248MOL0     H34220   0.553   7.285   8.027  0.1427  0.0825  0.2039
  248MOL0     H34221   1.122   7.485   7.518 -0.5841 -0.3389  0.7429
  248MOL0     H34222   0.954   7.582   7.214 -1.6946 -1.2049  0.2545
  248MOL0     H34223   1.009   7.626   7.374 -0.5968 -2.4141  1.3116
  248MOL0     H34224   1.130   7.613   7.247  0.7017 -0.2787 -0.7040
  249MOL0     O34225  11.369   2.095   7.332 -0.2657  0.7919 -0.3246
  249MOL0     C34226  11.378   1.970   7.335 -0.5309 -0.0306 -0.4631
  249MOL0     O34227  11.488   1.899   7.304  0.4953 -0.2047  0.2149
  249MOL0     C34228  11.614   1.943   7.291  0.0324  0.2372 -0.0874
  249MOL0     C34229  11.710   1.871   7.222  0.5934 -0.2133 -0.5144
  249MOL0     C34230  11.844   1.910   7.212  0.8083  0.2559  0.2151
  249MOL0     C34231  11.889   2.028   7.272 -0.2039 -0.6989  0.8624
  249MOL0     O34232  12.013   2.076   7.231  0.7566 -0.5501  0.2500
  249MOL0     C34233  12.085   2.151   7.327 -0.2768 -1.1223 -0.3862
  249MOL0     C34234  12.235   2.158   7.306 -0.9323  0.5768 -0.1079
  249MOL0     C34235  12.260   2.251   7.176 -0.0738  0.4875  0.5962
  249MOL0     C34236  12.400   2.311   7.189  0.5927 -0.2733 -0.0046
  249MOL0     C34237  12.486   2.341   7.061  0.4711 -0.6979  1.6309
  249MOL0     C34238  12.430   2.442   6.943  0.2523 -0.3744 -0.2940
  249MOL0     C34239  12.540   2.496   6.854  0.7441  0.2187 -0.9206
  249MOL0     C34240  12.631   2.391   6.790  0.5959 -0.1323  0.2071
  249MOL0     N34241  12.572   2.313   6.674 -0.0906 -0.3924  0.1629
  249MOL0     C34242  12.634   2.300   6.554 -0.1594 -0.4340 -0.2714
  249MOL0     C34243  12.541   2.234   6.479  0.2084 -0.0387  0.5642
  249MOL0     C34244  12.574   2.191   6.337 -1.0430 -0.3990  0.3913
  249MOL0     C34245  12.694   2.098   6.326  0.0775 -0.4828 -0.0160
  249MOL0     C34246  12.700   2.048   6.176  1.4904  0.4210  0.9857
  249MOL0     C34247  12.826   1.982   6.120 -0.1952  0.4551 -0.1290
  249MOL0     O34248  12.932   2.076   6.148  0.2156  0.4122  0.9316
  249MOL0     C34249  13.054   2.068   6.081 -0.2366  0.4735  0.4201
  249MOL0     C34250  13.084   1.993   5.968  0.2653 -0.2958 -0.1265
  249MOL0     C34251  13.210   1.982   5.919  0.3741  0.0307  1.2712
  249MOL0     C34252  13.219   1.896   5.797  0.5223  0.3820  0.8012
  249MOL0     C34253  13.315   2.050   5.977  0.4286  1.2034  0.0881
  249MOL0     C34254  13.462   2.042   5.936 -0.0839  0.5317 -0.3039
  249MOL0     O34255  13.549   2.145   5.964  0.1399  0.6790  0.4924
  249MOL0     C34256  13.686   2.125   5.954  0.5580 -0.3367 -0.0017
  249MOL0     C34257  13.752   2.058   6.058 -0.7584  0.0272 -0.4477
  249MOL0     C34258  13.890   2.019   6.048 -0.3187  0.3960  1.5233
  249MOL0     C34259  13.962   2.061   5.932 -0.6089  0.0153  0.9475
  249MOL0     O34260  14.089   2.022   5.899 -0.1609 -0.4273  0.9432
  249MOL0     C34261  14.175   1.951   5.984 -0.4635  0.1506 -0.0360
  249MOL0     C34262  14.235   2.041   6.082  0.4459  1.3181  0.8692
  249MOL0     C34263  14.290   1.956   6.191 -0.0829 -0.0805 -0.7513
  249MOL0     C34264  14.310   2.048   6.307 -0.4912  1.0222 -0.3928
  249MOL0     C34265  14.452   2.028   6.371 -0.7313 -0.3411 -0.1991
  249MOL0     C34266  14.479   1.885   6.407  0.6392 -0.0784 -0.1959
  249MOL0     C34267  14.594   1.876   6.504  0.9039  0.6494 -0.0960
  249MOL0     C34268  14.711   1.790   6.463  0.5132 -0.2706 -0.5905
  249MOL0    Cl34269  14.644   1.627   6.432 -0.3906 -0.5346  0.1986
  249MOL0     C34270  13.898   2.128   5.829  0.4158  0.0626  0.7079
  249MOL0     C34271  13.760   2.153   5.844  0.3690  0.4927 -0.1519
  249MOL0     O34272  13.498   1.934   5.876  0.3318 -0.4904  0.0739
  249MOL0     C34273  13.287   2.137   6.085  0.4105  0.3877 -0.2488
  249MOL0     C34274  13.159   2.135   6.143 -0.1473  0.3409  0.6262
  249MOL0     N34275  12.431   2.199   6.556 -0.0323  0.7136 -0.1123
  249MOL0     N34276  12.454   2.259   6.670  0.2711 -0.1194  0.1635
  249MOL0     C34277  11.800   2.095   7.357  0.0768  0.2833  0.0650
  249MOL0     C34278  11.667   2.048   7.362  0.1903 -0.0218  0.1496
  249MOL0     C34279  11.255   1.889   7.338 -0.7916  0.6671 -0.2799
  249MOL0     C34280  11.269   1.750   7.294 -0.2614  0.0083  0.5067
  249MOL0     C34281  11.159   1.658   7.287 -0.7694 -0.9097  0.5670
  249MOL0     C34282  11.033   1.712   7.308 -0.3010 -0.2842  0.2933
  249MOL0     O34283  10.909   1.657   7.289 -0.1867 -0.8338  0.1519
  249MOL0     C34284  10.892   1.556   7.189  0.1654  0.2332  0.3461
  249MOL0     C34285  10.833   1.430   7.252 -0.3705 -0.2398  0.5615
  249MOL0     C34286  10.939   1.345   7.323 -0.0480  0.2920 -1.3760
  249MOL0     C34287  10.972   1.379   7.466 -0.0944 -0.0563  0.5845
  249MOL0     C34288  10.857   1.323   7.541  0.4587 -0.6900 -0.0045
  249MOL0     C34289  10.762   1.274   7.609 -0.3935  0.5128 -0.0840
  249MOL0     C34290  11.019   1.835   7.363  0.1966 -1.2612 -0.0775
  249MOL0     C34291  11.124   1.933   7.379  0.3768  0.1146 -1.2683
  249MOL0     C34292  11.087   2.063   7.455  1.0252 -0.5197  0.1935
  249MOL0     H34293  11.693   1.774   7.176  0.3357 -0.9781  1.1221
  249MOL0     H34294  11.892   1.846   7.139 -0.1285 -0.2955  0.0739
  249MOL0     H34295  12.067   2.099   7.421  1.7441 -0.2526  0.5329
  249MOL0     H34296  12.043   2.251   7.338 -1.1371 -1.5548  0.3426
  249MOL0     H34297  12.290   2.204   7.389 -0.1643 -1.0904  0.3478
  249MOL0     H34298  12.267   2.055   7.289 -3.0380 -0.0843 -0.4264
  249MOL0     H34299  12.254   2.178   7.095  2.6330  0.6812  0.1436
  249MOL0     H34300  12.183   2.330   7.171  0.9272  1.4158 -1.3050
  249MOL0     H34301  12.392   2.398   7.254  0.5197 -0.6822  0.5422
  249MOL0     H34302  12.460   2.240   7.248  1.3105  0.2689 -0.0712
  249MOL0     H34303  12.498   2.243   7.014 -1.8201 -0.0845 -0.4383
  249MOL0     H34304  12.581   2.383   7.096 -0.7714  0.9281  3.2569
  249MOL0     H34305  12.349   2.391   6.890 -0.4837 -0.2440  0.6641
  249MOL0     H34306  12.380   2.530   6.985 -0.8533 -0.5013 -1.3072
  249MOL0     H34307  12.597   2.577   6.901 -0.7129  0.1492  1.0488
  249MOL0     H34308  12.492   2.538   6.765 -2.5644 -1.7483 -0.1977
  249MOL0     H34309  12.717   2.449   6.755  1.1632 -1.0994 -0.0364
  249MOL0     H34310  12.660   2.320   6.869 -2.1676  1.0272  2.4574
  249MOL0     H34311  12.734   2.326   6.521  0.0123  0.8205  1.1499
  249MOL0     H34312  12.580   2.280   6.274 -0.7374 -0.4913  0.2921
  249MOL0     H34313  12.489   2.128   6.309 -3.3094  1.3611  2.7215
  249MOL0     H34314  12.789   2.148   6.342 -0.7537  0.3854  2.8226
  249MOL0     H34315  12.683   2.013   6.394 -1.5749  0.9815  1.6687
  249MOL0     H34316  12.623   1.972   6.163  1.5617  0.7616 -2.3846
  249MOL0     H34317  12.684   2.129   6.105  3.3969 -0.1286 -0.1701
  249MOL0     H34318  12.842   1.884   6.165  3.0577  1.3586  0.9496
  249MOL0     H34319  12.798   1.974   6.014  0.4131 -1.6296 -0.1647
  249MOL0     H34320  13.010   1.923   5.931  1.4066 -1.6733  0.0965
  249MOL0     H34321  13.271   1.951   5.718 -2.2664 -1.2672 -2.4414
  249MOL0     H34322  13.119   1.866   5.763  0.4712 -2.0279  2.7439
  249MOL0     H34323  13.275   1.803   5.811  2.4223  1.1988 -0.9635
  249MOL0     H34324  13.694   2.031   6.145  0.7053  0.3000  0.6535
  249MOL0     H34325  13.944   1.968   6.127  0.6638 -2.9147 -1.0666
  249MOL0     H34326  14.135   1.858   6.025  0.0285 -0.3980 -0.7815
  249MOL0     H34327  14.263   1.920   5.927  0.1882 -0.4200  1.2253
  249MOL0     H34328  14.321   2.094   6.040  1.4554 -1.4610 -0.7978
  249MOL0     H34329  14.161   2.109   6.126 -0.7364  0.1939  0.6751
  249MOL0     H34330  14.385   1.908   6.163 -0.3743 -2.5168  1.9604
  249MOL0     H34331  14.220   1.875   6.215 -0.8334 -0.1031 -2.7820
  249MOL0     H34332  14.232   2.018   6.377 -1.4060  1.5864 -1.1417
  249MOL0     H34333  14.305   2.156   6.288  0.9508  1.5196  1.7464
  249MOL0     H34334  14.540   2.062   6.315 -0.3589  1.6103  1.4262
  249MOL0     H34335  14.447   2.089   6.462 -0.4875 -0.0080 -0.4083
  249MOL0     H34336  14.494   1.822   6.318  2.8056 -3.4404  2.3264
  249MOL0     H34337  14.386   1.846   6.450  0.9032  1.2417  1.6760
  249MOL0     H34338  14.549   1.847   6.599  0.7203  2.0267  0.2662
  249MOL0     H34339  14.629   1.978   6.526  0.8683  0.5372  0.4943
  249MOL0     H34340  14.791   1.792   6.538 -0.5727  0.6656  0.5951
  249MOL0     H34341  14.763   1.847   6.386  4.8333  1.0383  2.9021
  249MOL0     H34342  13.957   2.156   5.742 -1.7796 -0.1867 -0.9432
  249MOL0     H34343  13.718   2.200   5.756 -1.4510 -1.5026 -0.4369
  249MOL0     H34344  13.353   2.173   6.164 -0.8229 -3.3399  2.8284
  249MOL0     H34345  13.139   2.184   6.237  0.0564 -1.5191  1.6827
  249MOL0     H34346  11.818   2.190   7.405 -1.8116  0.5233  0.3568
  249MOL0     H34347  11.588   2.099   7.417  1.2001  0.0230  1.6016
  249MOL0     H34348  11.365   1.700   7.285  0.3181  1.4065 -2.6329
  249MOL0     H34349  11.176   1.553   7.265  0.1155 -0.2627 -2.3306
  249MOL0     H34350  10.817   1.595   7.120 -0.6162  0.2328  1.1747
  249MOL0     H34351  10.983   1.528   7.135  1.8682  0.7848  2.7536
  249MOL0     H34352  10.797   1.371   7.167  2.0634  0.4885 -1.0945
  249MOL0     H34353  10.748   1.456   7.315 -0.3069  0.4191  0.3815
  249MOL0     H34354  10.909   1.240   7.322  0.0679  0.1873  0.9685
  249MOL0     H34355  11.034   1.342   7.270 -1.1631  0.2520 -3.4767
  249MOL0     H34356  10.998   1.482   7.493 -0.4889  0.0306  0.6417
  249MOL0     H34357  11.064   1.329   7.495  1.7462  1.2141 -2.5953
  249MOL0     H34358  10.666   1.250   7.649  0.4427 -0.8446  1.2299
  249MOL0     H34359  10.925   1.878   7.395  2.5989  3.8317  1.0496
  249MOL0     H34360  11.174   2.113   7.498 -1.2134  2.4004  1.7125
  249MOL0     H34361  11.039   2.130   7.382 -0.9778 -0.9190  1.0775
  249MOL0     H34362  11.008   2.054   7.530  0.3896 -0.3882 -0.4507
  250MOL0     O34363   1.450   5.502   1.987  0.7392 -0.4353  1.0334
  250MOL0     C34364   1.440   5.425   1.890  0.2736 -0.3471  0.9159
  250MOL0     O34365   1.541   5.396   1.794 -1.1102 -0.4562 -0.2789
  250MOL0     C34366   1.670   5.442   1.825  0.3046  1.4225 -0.1585
  250MOL0     C34367   1.771   5.342   1.833  0.1155  0.2373 -0.3530
  250MOL0     C34368   1.898   5.376   1.886  0.4784 -0.0917 -0.1785
  250MOL0     C34369   1.923   5.519   1.909  0.0124  0.8052 -0.2596
  250MOL0     O34370   2.048   5.552   1.952  0.2096 -0.0300  0.7603
  250MOL0     C34371   2.086   5.486   2.074 -0.3942 -0.8281 -0.7460
  250MOL0     C34372   2.017   5.547   2.194 -0.9193 -0.2536 -0.3689
  250MOL0     C34373   2.075   5.521   2.332 -0.5625 -0.2880 -0.5194
  250MOL0     C34374   1.990   5.581   2.438 -0.5429 -0.2563  0.0197
  250MOL0     C34375   2.046   5.551   2.578 -0.0858  0.3318  0.2515
  250MOL0     C34376   1.975   5.623   2.685 -0.7404 -0.2953 -0.1658
  250MOL0     C34377   2.041   5.589   2.818  0.3152 -0.6178  0.5282
  250MOL0     C34378   1.945   5.621   2.932  0.4346  0.2752 -0.6642
  250MOL0     N34379   1.823   5.542   2.917  0.0713  0.4304  0.6393
  250MOL0     C34380   1.703   5.591   2.868 -0.0947 -0.0627 -0.9569
  250MOL0     C34381   1.617   5.491   2.884 -0.3858  0.1416  0.0157
  250MOL0     C34382   1.471   5.517   2.863  0.5138  0.0235  0.0075
  250MOL0     C34383   1.403   5.567   2.994  0.5390 -0.2625 -0.2925
  250MOL0     C34384   1.245   5.567   2.990  1.0486  0.3776 -0.0248
  250MOL0     C34385   1.169   5.643   2.873 -0.1302  0.0218 -0.4712
  250MOL0     O34386   1.209   5.783   2.866  0.8414  0.2789 -0.1597
  250MOL0     C34387   1.135   5.870   2.941 -0.3799 -0.2417 -0.5645
  250MOL0     C34388   1.052   5.845   3.052  0.3815 -0.3157 -0.0767
  250MOL0     C34389   1.000   5.952   3.129 -0.2853  0.2739 -0.3203
  250MOL0     C34390   0.919   5.930   3.245  0.3650  0.3431 -1.6782
  250MOL0     C34391   1.038   6.084   3.096  0.5622 -0.0871  0.4278
  250MOL0     C34392   0.995   6.213   3.168  0.6207  0.4438  0.3582
  250MOL0     O34393   1.075   6.316   3.137  0.7738  0.1450  0.1774
  250MOL0     C34394   1.064   6.442   3.198 -0.6125  0.1484  0.2822
  250MOL0     C34395   1.109   6.553   3.131  0.3160  0.6698  0.0931
  250MOL0     C34396   1.111   6.682   3.177  0.4099  0.2556 -0.0997
  250MOL0     C34397   1.060   6.704   3.304 -0.6620  0.4477  0.3204
  250MOL0     O34398   1.053   6.834   3.344 -0.9635 -0.4286  0.4565
  250MOL0     C34399   1.084   6.860   3.488 -0.6345  0.1207  0.6554
  250MOL0     C34400   1.121   6.996   3.513 -0.7599  0.4145  0.6459
  250MOL0     C34401   1.177   7.021   3.658  0.1776  0.4455  0.4100
  250MOL0     C34402   1.211   7.158   3.682 -0.5396  0.0790 -0.0463
  250MOL0     C34403   1.248   7.191   3.835 -0.1347  0.2762  0.2916
  250MOL0     C34404   1.252   7.342   3.872 -0.2036 -0.3170  0.7334
  250MOL0     C34405   1.243   7.356   4.030 -0.0849  0.1003 -0.1433
  250MOL0     C34406   1.337   7.469   4.081 -0.6550 -0.4888 -0.5892
  250MOL0    Cl34407   1.261   7.618   4.022 -0.3039 -0.1527 -0.2275
  250MOL0     C34408   1.019   6.594   3.381 -0.2425  1.1585 -0.0148
  250MOL0     C34409   1.026   6.460   3.328  0.3807 -0.2233 -0.0642
  250MOL0     O34410   0.889   6.215   3.238 -0.4253 -0.9504 -0.5991
  250MOL0     C34411   1.117   6.101   2.986 -0.1739  0.6588 -0.5157
  250MOL0     C34412   1.159   5.999   2.904 -0.3882 -0.8247  0.1551
  250MOL0     N34413   1.682   5.381   2.945 -0.5338 -0.5251 -0.9620
  250MOL0     N34414   1.811   5.412   2.960  0.5087  0.1271  0.5785
  250MOL0     C34415   1.823   5.612   1.898  0.0768  0.1741  0.6621
  250MOL0     C34416   1.698   5.573   1.849  0.3172  0.3516 -0.2466
  250MOL0     C34417   1.310   5.353   1.873 -0.9952  0.7890  0.5498
  250MOL0     C34418   1.257   5.288   1.988  0.2908 -0.6166  0.3575
  250MOL0     C34419   1.144   5.208   1.980 -0.6053  0.4671 -0.4469
  250MOL0     C34420   1.066   5.202   1.865 -0.5383 -0.4269  0.7874
  250MOL0     O34421   0.946   5.126   1.870  0.2306  0.6296  0.5326
  250MOL0     C34422   0.891   5.096   1.747  0.7942 -0.8868  1.4910
  250MOL0     C34423   0.754   5.032   1.773 -0.3843  0.2596  0.0978
  250MOL0     C34424   0.764   4.911   1.867 -0.7808 -0.1210  0.0602
  250MOL0     C34425   0.635   4.831   1.895 -0.3545  0.1075  0.4384
  250MOL0     C34426   0.520   4.921   1.917  0.3973  0.0301  0.3508
  250MOL0     C34427   0.421   4.984   1.938  0.4269 -0.1533  0.2456
  250MOL0     C34428   1.114   5.274   1.757 -0.1121 -0.2398  0.2204
  250MOL0     C34429   1.235   5.343   1.759  0.7818 -0.1330 -0.1451
  250MOL0     C34430   1.281   5.429   1.641  0.7508  0.5563 -0.7677
  250MOL0     H34431   1.734   5.244   1.804 -1.2833  0.8896 -0.8566
  250MOL0     H34432   1.980   5.305   1.891  1.9296  1.5550  0.5787
  250MOL0     H34433   2.190   5.519   2.080 -0.8078  0.2743  1.5352
  250MOL0     H34434   2.088   5.377   2.073  4.1020 -0.9240 -1.1968
  250MOL0     H34435   2.028   5.655   2.198  3.6284 -0.5507  1.0663
  250MOL0     H34436   1.911   5.522   2.201 -1.1192  0.1507 -1.7155
  250MOL0     H34437   2.082   5.413   2.349  2.4053 -0.0915  0.0293
  250MOL0     H34438   2.176   5.557   2.352 -1.6408  0.7682  4.3873
  250MOL0     H34439   1.993   5.690   2.426  0.7441  0.2408  3.6249
  250MOL0     H34440   1.889   5.539   2.437  0.0541 -1.7204  0.2831
  250MOL0     H34441   2.154   5.568   2.579  0.0569  0.2724 -3.3782
  250MOL0     H34442   2.029   5.444   2.591  0.4440  0.5433  3.4749
  250MOL0     H34443   1.985   5.731   2.670 -0.5744 -0.1577  0.8239
  250MOL0     H34444   1.871   5.590   2.674 -1.1810  1.5675 -2.0899
  250MOL0     H34445   2.132   5.650   2.824 -1.2409  2.3011 -2.3161
  250MOL0     H34446   2.056   5.481   2.821 -1.0198 -0.8443 -0.0425
  250MOL0     H34447   2.002   5.596   3.023 -0.9067  0.1879  0.1753
  250MOL0     H34448   1.917   5.726   2.945 -0.7589  0.1108 -1.7168
  250MOL0     H34449   1.687   5.695   2.839 -1.8891 -0.2205 -0.6784
  250MOL0     H34450   1.425   5.421   2.837  1.4900 -0.1580 -1.1632
  250MOL0     H34451   1.457   5.586   2.779  5.0196  2.3550  0.8498
  250MOL0     H34452   1.442   5.505   3.076 -2.4666 -1.7575  0.1184
  250MOL0     H34453   1.429   5.673   2.998 -1.9419  0.3868  2.7973
  250MOL0     H34454   1.207   5.465   3.000 -0.0111  0.6615 -0.9185
  250MOL0     H34455   1.214   5.618   3.082 -1.1034 -2.4308  0.9710
  250MOL0     H34456   1.197   5.600   2.776  3.5456 -0.2452  0.5905
  250MOL0     H34457   1.061   5.641   2.891  0.0756 -0.2294  0.8179
  250MOL0     H34458   1.024   5.743   3.074 -3.1158  0.8847  1.7649
  250MOL0     H34459   0.815   5.937   3.214 -0.2461  2.2778  0.4897
  250MOL0     H34460   0.946   5.998   3.327  0.1934 -2.5289  0.9554
  250MOL0     H34461   0.953   5.831   3.278 -0.2792 -0.5112 -3.5014
  250MOL0     H34462   1.146   6.524   3.033 -1.0108 -0.3226 -0.1456
  250MOL0     H34463   1.155   6.763   3.119  1.9778  1.7736  2.9803
  250MOL0     H34464   1.001   6.827   3.552  0.8147 -2.0694  1.4895
  250MOL0     H34465   1.165   6.795   3.523  0.5923 -0.0254 -2.1890
  250MOL0     H34466   1.204   7.025   3.447  0.2847  1.8424  2.4952
  250MOL0     H34467   1.028   7.052   3.501 -2.4839 -2.1798  1.1789
  250MOL0     H34468   1.262   6.954   3.672  0.1941  0.7916  2.3355
  250MOL0     H34469   1.098   6.995   3.728 -2.7810  0.1133 -2.8041
  250MOL0     H34470   1.123   7.217   3.656 -1.6361 -1.5377 -0.1370
  250MOL0     H34471   1.295   7.186   3.617 -0.7399  2.2759  0.5623
  250MOL0     H34472   1.170   7.143   3.894 -1.9683  2.3839 -0.2802
  250MOL0     H34473   1.345   7.154   3.870  0.5049  0.6789 -0.9893
  250MOL0     H34474   1.160   7.384   3.829 -0.5920 -1.3649  0.4942
  250MOL0     H34475   1.331   7.400   3.825 -1.7732  1.1156 -0.2763
  250MOL0     H34476   1.266   7.264   4.086 -1.2086 -1.2977 -1.8700
  250MOL0     H34477   1.138   7.382   4.047 -0.6315 -1.9838  0.0395
  250MOL0     H34478   1.429   7.451   4.025 -1.1569 -1.2853 -1.1755
  250MOL0     H34479   1.361   7.466   4.187  0.5459  1.8110 -0.7335
  250MOL0     H34480   0.973   6.600   3.479 -1.1258 -1.3301 -0.2205
  250MOL0     H34481   0.993   6.372   3.383 -4.4770  1.1870 -0.3240
  250MOL0     H34482   1.110   6.201   2.944  1.0002  0.0216 -2.3768
  250MOL0     H34483   1.209   6.017   2.809  1.7650 -0.3251  1.2987
  250MOL0     H34484   1.851   5.714   1.918 -1.8452  0.3537  2.7989
  250MOL0     H34485   1.617   5.645   1.842  0.9558  1.0119 -1.1705
  250MOL0     H34486   1.310   5.314   2.079 -0.8795  0.1789  0.8156
  250MOL0     H34487   1.104   5.162   2.071  3.7792 -1.0539  0.9834
  250MOL0     H34488   0.876   5.184   1.685 -0.1214  0.2924  3.2994
  250MOL0     H34489   0.952   5.027   1.688 -0.2429 -0.4503 -0.1796
  250MOL0     H34490   0.702   5.005   1.681 -1.2783  0.7953  0.4300
  250MOL0     H34491   0.702   5.112   1.827  5.1717  3.8463  1.0157
  250MOL0     H34492   0.845   4.846   1.830  0.7266  1.6304  0.1133
  250MOL0     H34493   0.790   4.947   1.967 -3.8736 -0.3996  1.0512
  250MOL0     H34494   0.655   4.776   1.987  1.9309 -0.5013 -0.3637
  250MOL0     H34495   0.611   4.760   1.815  0.4044  0.5979 -0.2326
  250MOL0     H34496   0.333   5.044   1.945  0.5412  0.2819 -1.7040
  250MOL0     H34497   1.061   5.276   1.663 -2.0287 -1.8696  1.1787
  250MOL0     H34498   1.355   5.380   1.577  0.6254  3.1489 -3.0888
  250MOL0     H34499   1.198   5.434   1.570  1.3913 -1.5599 -1.7530
  250MOL0     H34500   1.327   5.526   1.661  2.9744 -1.0304  2.8624
  251MOL0     O34501   6.601   9.444  10.516 -0.6983  1.1242  0.2253
  251MOL0     C34502   6.664   9.337  10.501  0.0448  0.6719  1.3925
  251MOL0     O34503   6.795   9.323  10.466 -0.7472  0.0693  0.6865
  251MOL0     C34504   6.880   9.427  10.452  1.0202  0.1080  0.7076
  251MOL0     C34505   6.882   9.480  10.321 -0.3239  0.0510 -0.0658
  251MOL0     C34506   6.989   9.559  10.288  0.2519  0.4036  0.0739
  251MOL0     C34507   7.084   9.597  10.387 -0.0570 -0.0252  0.1852
  251MOL0     O34508   7.187   9.678  10.360  0.6243  0.0720  0.8408
  251MOL0     C34509   7.226   9.704  10.228  0.3027 -0.0181  0.2398
  251MOL0     C34510   7.349   9.792  10.235 -0.7205 -0.3858  0.5526
  251MOL0     C34511   7.477   9.722  10.285 -0.0604  1.2177  0.4863
  251MOL0     C34512   7.592   9.821  10.296  0.6650 -0.4365 -0.8176
  251MOL0     C34513   7.714   9.760  10.361 -0.3377  0.0418  0.5996
  251MOL0     C34514   7.820   9.874  10.376 -0.1565 -0.0889 -1.1406
  251MOL0     C34515   7.771   9.962  10.496  0.0633 -0.0296 -0.0317
  251MOL0     C34516   7.896  10.040  10.551  0.9185  0.0784 -0.7652
  251MOL0     N34517   7.981   9.979  10.655 -0.8984 -0.9661  0.9970
  251MOL0     C34518   7.932   9.898  10.744  0.2140 -0.0963 -1.2199
  251MOL0     C34519   8.031   9.829  10.803 -0.4593  1.1122  0.0460
  251MOL0     C34520   8.023   9.711  10.894  0.2887 -0.1109 -1.1791
  251MOL0     C34521   7.945   9.591  10.836 -0.3190  0.4105 -0.5424
  251MOL0     C34522   8.018   9.524  10.718  0.4531 -0.2269 -0.2070
  251MOL0     C34523   7.935   9.406  10.665  0.2110  0.5254  0.2369
  251MOL0     O34524   7.802   9.428  10.623  0.0387 -0.2014 -0.0817
  251MOL0     C34525   7.720   9.314  10.618  0.5718  0.0145 -0.0593
  251MOL0     C34526   7.578   9.331  10.610  0.6874  0.7655 -0.9762
  251MOL0     C34527   7.490   9.226  10.582 -0.1348 -0.0528  0.2850
  251MOL0     C34528   7.353   9.287  10.582  0.4310  1.0477  0.4023
  251MOL0     C34529   7.539   9.091  10.575 -0.1689  0.1290 -0.0322
  251MOL0     C34530   7.453   8.968  10.552 -0.0061  0.6995  0.0154
  251MOL0     O34531   7.510   8.845  10.562  0.6247  0.4629  0.1910
  251MOL0     C34532   7.440   8.734  10.518 -0.0884  0.3561 -0.8519
  251MOL0     C34533   7.352   8.659  10.602 -0.5914  0.6292 -0.3502
  251MOL0     C34534   7.276   8.565  10.535 -0.8242 -0.0468 -0.4256
  251MOL0     C34535   7.296   8.516  10.403  0.4608  0.0068 -0.1358
  251MOL0     O34536   7.221   8.407  10.367 -0.8223 -0.7371  0.5570
  251MOL0     C34537   7.198   8.394  10.220 -0.5217  0.0793 -0.1619
  251MOL0     C34538   7.142   8.253  10.181  0.7885 -0.3318 -0.1063
  251MOL0     C34539   7.244   8.143  10.199 -0.6301  0.8739  0.0693
  251MOL0     C34540   7.181   8.006  10.172  1.4783  0.2787  0.7924
  251MOL0     C34541   7.284   7.901  10.178 -0.5188  0.1614 -0.9004
  251MOL0     C34542   7.255   7.777  10.095 -0.6760  0.6501 -0.0225
  251MOL0     C34543   7.141   7.689  10.148  0.5373  0.0672 -0.1359
  251MOL0     C34544   6.997   7.732  10.114  0.8448  0.1084 -0.3369
  251MOL0    Cl34545   6.898   7.589  10.124  0.2485 -0.7242  0.1776
  251MOL0     C34546   7.398   8.586  10.338 -0.2771  0.2861  0.2504
  251MOL0     C34547   7.464   8.693  10.391  0.1686 -0.0434 -0.1300
  251MOL0     O34548   7.342   8.991  10.507  0.3953 -0.6253 -0.8074
  251MOL0     C34549   7.679   9.079  10.570 -0.0887  0.7713  0.0361
  251MOL0     C34550   7.765   9.182  10.599 -0.4062  1.2957 -0.2386
  251MOL0     N34551   8.148   9.876  10.752 -0.2012  0.1701  0.0669
  251MOL0     N34552   8.118   9.968  10.664  0.5968  0.0177  0.4511
  251MOL0     C34553   7.081   9.543  10.514  0.0198  0.5740  0.8656
  251MOL0     C34554   6.980   9.447  10.539 -0.3725 -0.9306  0.7564
  251MOL0     C34555   6.597   9.200  10.496  0.1651 -0.6913  0.3088
  251MOL0     C34556   6.671   9.083  10.469  0.2292 -0.8864 -0.7677
  251MOL0     C34557   6.619   8.957  10.504 -0.5268  0.3486  0.1412
  251MOL0     C34558   6.489   8.943  10.564  0.1366  0.5200 -0.1690
  251MOL0     O34559   6.446   8.817  10.595  0.9870  0.5119  0.1275
  251MOL0     C34560   6.318   8.796  10.664 -0.0110  0.1188  0.5298
  251MOL0     C34561   6.337   8.805  10.819  0.0913  0.5122  0.3007
  251MOL0     C34562   6.472   8.816  10.876 -0.0009 -0.5336  0.0350
  251MOL0     C34563   6.562   8.695  10.863  0.3284 -0.2922 -0.0235
  251MOL0     C34564   6.676   8.716  10.955  0.3318  0.3326 -0.9697
  251MOL0     C34565   6.780   8.740  11.020  0.6812  0.2437 -0.4197
  251MOL0     C34566   6.412   9.058  10.581 -0.0123 -0.5929 -1.2825
  251MOL0     C34567   6.463   9.192  10.548  1.0173  1.1954 -0.1788
  251MOL0     C34568   6.366   9.309  10.569 -0.1277  0.4339 -0.2222
  251MOL0     H34569   6.805   9.476  10.244 -1.0133  5.5858 -0.0309
  251MOL0     H34570   6.994   9.587  10.183  2.4643 -1.9715 -0.5596
  251MOL0     H34571   7.144   9.758  10.178 -0.1856  1.6998  2.7423
  251MOL0     H34572   7.246   9.613  10.171 -1.0173  0.3737 -0.9258
  251MOL0     H34573   7.363   9.836  10.136 -1.9416 -2.0748 -0.4295
  251MOL0     H34574   7.321   9.877  10.298  0.4578 -0.9998  1.9666
  251MOL0     H34575   7.456   9.669  10.378 -2.4859 -0.7765 -1.0761
  251MOL0     H34576   7.511   9.653  10.207  0.3183  2.4678 -0.5003
  251MOL0     H34577   7.625   9.859  10.198  0.6385 -0.1058 -0.6993
  251MOL0     H34578   7.557   9.906  10.355  4.1995 -0.8048  2.1173
  251MOL0     H34579   7.740   9.680  10.291 -1.0105  0.0309  0.3507
  251MOL0     H34580   7.695   9.709  10.456 -1.0819 -1.2011 -0.1818
  251MOL0     H34581   7.918   9.829  10.395 -0.4207  0.3175  1.5283
  251MOL0     H34582   7.825   9.941  10.289 -2.0984 -0.9980 -2.0158
  251MOL0     H34583   7.719   9.911  10.577 -1.4732  1.8211  0.2180
  251MOL0     H34584   7.707  10.040  10.454 -0.3246 -0.7040 -0.6975
  251MOL0     H34585   7.945  10.070  10.458  0.0089  0.6033 -1.0890
  251MOL0     H34586   7.871  10.137  10.597 -1.4716 -0.6957 -0.3027
  251MOL0     H34587   7.825   9.889  10.762  0.1261  0.1046 -1.6319
  251MOL0     H34588   7.974   9.745  10.986 -2.2211 -2.8357 -1.3409
  251MOL0     H34589   8.125   9.692  10.929  0.5027 -0.3073 -1.8884
  251MOL0     H34590   7.930   9.513  10.910  0.1153  0.5080 -0.3511
  251MOL0     H34591   7.844   9.625  10.811 -0.6952 -0.4202 -0.1783
  251MOL0     H34592   8.041   9.596  10.638  0.3108  1.5107  1.2312
  251MOL0     H34593   8.110   9.487  10.763  0.6608  0.1656 -0.2983
  251MOL0     H34594   7.989   9.359  10.582 -2.4885  0.7845 -1.7909
  251MOL0     H34595   7.943   9.337  10.750  0.2302  1.8925  1.3707
  251MOL0     H34596   7.547   9.434  10.626  0.9365  0.5493  1.1806
  251MOL0     H34597   7.337   9.392  10.610 -3.8505  1.0942 -1.3898
  251MOL0     H34598   7.287   9.239  10.655  0.5323 -0.7461 -0.6246
  251MOL0     H34599   7.313   9.283  10.481 -0.8814  4.5909  0.6557
  251MOL0     H34600   7.328   8.699  10.700  2.0086 -1.5441  1.3232
  251MOL0     H34601   7.199   8.519  10.596 -1.1767  0.8354 -0.1893
  251MOL0     H34602   7.138   8.478  10.185  1.0185  0.6290 -1.6052
  251MOL0     H34603   7.292   8.405  10.166 -0.9756  0.9220 -0.8119
  251MOL0     H34604   7.047   8.220  10.224  0.3799 -3.3762 -2.9087
  251MOL0     H34605   7.113   8.250  10.075 -0.0532  0.2516  0.0987
  251MOL0     H34606   7.281   8.133  10.301  1.5432 -1.1479 -0.8359
  251MOL0     H34607   7.323   8.155  10.124 -0.8860 -1.9350 -0.7673
  251MOL0     H34608   7.116   8.010  10.083 -0.2063 -0.1533  1.9592
  251MOL0     H34609   7.103   7.983  10.245 -0.7116 -1.5860 -1.9104
  251MOL0     H34610   7.382   7.943  10.153 -0.5751 -0.4463 -2.2115
  251MOL0     H34611   7.284   7.869  10.283  0.3905  5.2161  0.9204
  251MOL0     H34612   7.344   7.714  10.102  0.0016  1.7195  1.7903
  251MOL0     H34613   7.243   7.803   9.990 -0.1885 -1.1342 -0.5544
  251MOL0     H34614   7.159   7.675  10.255  3.5998  3.0817 -0.0828
  251MOL0     H34615   7.147   7.595  10.092 -0.6524 -0.7554  1.0686
  251MOL0     H34616   7.001   7.773  10.012  0.1752 -3.7806 -2.1054
  251MOL0     H34617   6.970   7.814  10.181  1.7660 -1.0874  1.5898
  251MOL0     H34618   7.429   8.561  10.237  1.5553 -1.1569  1.0999
  251MOL0     H34619   7.535   8.754  10.336  0.1281 -0.5282 -0.7272
  251MOL0     H34620   7.722   8.980  10.552 -2.5887 -0.2707 -0.6070
  251MOL0     H34621   7.870   9.154  10.596 -0.4480  0.0597  3.8316
  251MOL0     H34622   7.148   9.556  10.599 -0.2218 -2.0016  1.5216
  251MOL0     H34623   6.985   9.392  10.633  2.3925  1.2434  2.0410
  251MOL0     H34624   6.768   9.088  10.420  1.2634  1.6233  1.3122
  251MOL0     H34625   6.662   8.858  10.495 -0.0105  0.4968  0.8870
  251MOL0     H34626   6.240   8.865  10.632  2.5998  3.8468  1.6183
  251MOL0     H34627   6.282   8.697  10.633 -0.5147  0.0172  1.4123
  251MOL0     H34628   6.286   8.720  10.865  1.3227  0.3046  1.3347
  251MOL0     H34629   6.278   8.891  10.851 -1.6243  1.0625 -3.7152
  251MOL0     H34630   6.521   8.903  10.831  2.6134 -0.8529  2.0291
  251MOL0     H34631   6.464   8.841  10.982  5.6437 -2.9676  1.4060
  251MOL0     H34632   6.604   8.691  10.762  0.4600  1.4472 -0.0730
  251MOL0     H34633   6.504   8.605  10.886 -0.7230  0.2892 -0.3485
  251MOL0     H34634   6.859   8.749  11.091 -1.6667 -1.3666  2.6415
  251MOL0     H34635   6.308   9.055  10.611 -0.5901 -2.0456 -3.2190
  251MOL0     H34636   6.262   9.275  10.564 -1.1925  3.4711 -1.4918
  251MOL0     H34637   6.393   9.344  10.669  1.0234  1.7060 -0.9322
  251MOL0     H34638   6.373   9.385  10.490  0.0910 -1.9230 -2.6021
  252MOL0     O34639   1.883   2.166   3.789  0.2335 -0.1389  0.1946
  252MOL0     C34640   1.914   2.096   3.692 -0.8679 -0.1616  0.3484
  252MOL0     O34641   1.900   2.136   3.564  0.0833  0.4116 -0.5665
  252MOL0     C34642   1.851   2.262   3.538  0.4144 -0.8797 -0.0506
  252MOL0     C34643   1.726   2.282   3.468  0.5374 -0.5263  0.5859
  252MOL0     C34644   1.687   2.420   3.457  0.2299  0.1875 -0.1261
  252MOL0     C34645   1.770   2.523   3.501 -0.4262 -0.7039  0.0169
  252MOL0     O34646   1.730   2.659   3.484 -0.7835 -0.2187 -0.8403
  252MOL0     C34647   1.633   2.698   3.574  0.6963 -0.0697 -0.4845
  252MOL0     C34648   1.646   2.848   3.587  0.0171 -0.0578 -0.7984
  252MOL0     C34649   1.600   2.890   3.731  1.0696 -0.5897 -0.5197
  252MOL0     C34650   1.535   3.022   3.713  0.6728 -0.3062  0.0075
  252MOL0     C34651   1.475   3.093   3.836  0.1645 -0.0065  0.6035
  252MOL0     C34652   1.387   3.211   3.779  0.2038 -0.5616 -0.1312
  252MOL0     C34653   1.314   3.268   3.901  0.5396 -0.2773  0.2992
  252MOL0     C34654   1.270   3.417   3.873  0.7962 -0.2142 -0.1224
  252MOL0     N34655   1.176   3.455   3.983 -0.6097 -0.0952 -0.1621
  252MOL0     C34656   1.042   3.434   3.995  0.1246 -1.1892  0.4800
  252MOL0     C34657   1.006   3.519   4.102  0.2326 -0.4972  0.5137
  252MOL0     C34658   0.877   3.564   4.167 -0.9670 -0.6055 -0.2476
  252MOL0     C34659   0.799   3.661   4.085 -0.2766 -0.2929  0.7723
  252MOL0     C34660   0.723   3.751   4.183 -0.0250  0.2295 -0.1609
  252MOL0     C34661   0.680   3.884   4.116 -0.4650  1.1643 -0.7809
  252MOL0     O34662   0.663   3.995   4.202 -0.0982 -0.3201 -0.6988
  252MOL0     C34663   0.572   4.094   4.178 -0.0039  0.5013 -0.7225
  252MOL0     C34664   0.511   4.121   4.058  0.4350 -0.4562  0.5977
  252MOL0     C34665   0.401   4.200   4.049  1.0821 -0.3247 -0.5926
  252MOL0     C34666   0.320   4.193   3.923 -0.4897  0.1757  0.3406
  252MOL0     C34667   0.368   4.288   4.162 -0.7088 -0.3654 -0.1269
  252MOL0     C34668   0.268   4.397   4.154 -0.3880 -0.2031 -0.3495
  252MOL0     O34669   0.281   4.484   4.040  0.5291 -0.1267  0.3469
  252MOL0     C34670   0.184   4.587   4.025  0.0188 -0.0741 -0.2623
  252MOL0     C34671   0.235   4.716   4.025 -0.1359 -0.3018  0.1882
  252MOL0     C34672   0.142   4.821   3.996  0.1025  0.1634  0.1666
  252MOL0     C34673   0.007   4.798   3.975  0.5561 -0.3292  0.3981
  252MOL0     O34674  -0.070   4.904   3.948  0.3238 -0.9887 -0.2217
  252MOL0     C34675  -0.210   4.888   3.900 -0.8371  0.4822 -0.0766
  252MOL0     C34676  -0.308   4.873   4.006 -0.9905 -0.2714  0.0129
  252MOL0     C34677  -0.290   4.983   4.109  0.1225 -0.6771  0.5203
  252MOL0     C34678  -0.410   5.050   4.180  0.1960 -0.2070  0.7919
  252MOL0     C34679  -0.494   4.954   4.266  0.9741  0.4694  0.2019
  252MOL0     C34680  -0.592   5.032   4.339 -0.1061 -0.8677  0.0028
  252MOL0     C34681  -0.669   4.939   4.420  0.8269  0.4718 -0.4252
  252MOL0     C34682  -0.786   4.995   4.498  0.2316  0.2683  0.3739
  252MOL0    Cl34683  -0.904   5.065   4.382  0.0855  0.0028 -0.0474
  252MOL0     C34684  -0.045   4.663   3.988 -0.0938 -1.3306 -0.1970
  252MOL0     C34685   0.047   4.563   3.999  0.3174 -0.2975 -0.3892
  252MOL0     O34686   0.170   4.395   4.230 -0.3232 -0.8274 -0.0445
  252MOL0     C34687   0.444   4.282   4.277 -0.5181 -0.6966 -0.4519
  252MOL0     C34688   0.542   4.179   4.301 -0.4196 -0.5571  0.0079
  252MOL0     N34689   1.125   3.567   4.158  0.5625  0.4189 -0.2403
  252MOL0     N34690   1.227   3.526   4.086  0.6930  0.0593 -0.7701
  252MOL0     C34691   1.895   2.495   3.554 -0.1821 -0.5634 -0.5133
  252MOL0     C34692   1.936   2.371   3.570  0.8584  0.1882  0.0241
  252MOL0     C34693   1.956   1.960   3.717  0.2981  0.1863 -0.9084
  252MOL0     C34694   1.945   1.871   3.613 -0.8987  0.0034 -0.1835
  252MOL0     C34695   1.968   1.732   3.630 -0.4770 -0.1543 -0.8970
  252MOL0     C34696   2.012   1.688   3.754  0.3728 -0.4658 -0.3031
  252MOL0     O34697   2.034   1.551   3.753 -0.3023 -0.1835  0.1203
  252MOL0     C34698   1.965   1.475   3.851  0.1861 -0.5302 -0.2853
  252MOL0     C34699   1.880   1.367   3.788  0.1499 -0.0072  0.3304
  252MOL0     C34700   1.773   1.311   3.879 -0.1521  0.6751 -1.4924
  252MOL0     C34701   1.661   1.242   3.794 -0.5933 -0.2585 -0.2924
  252MOL0     C34702   1.698   1.129   3.711  0.0177  0.5033  0.3256
  252MOL0     C34703   1.724   1.028   3.654 -0.0321  0.4705  0.3248
  252MOL0     C34704   2.009   1.770   3.865 -0.0316 -0.7647 -0.5203
  252MOL0     C34705   1.985   1.911   3.846  0.6971  0.4624  1.1117
  252MOL0     C34706   2.005   1.995   3.971  0.6220  0.0379  0.0701
  252MOL0     H34707   1.676   2.199   3.420 -0.7433  1.2926 -1.4527
  252MOL0     H34708   1.591   2.448   3.416 -1.5243  1.4668  4.3403
  252MOL0     H34709   1.644   2.649   3.671 -0.7820  1.8609  0.7415
  252MOL0     H34710   1.532   2.672   3.541 -0.8199  2.1672  1.9932
  252MOL0     H34711   1.749   2.887   3.590  0.0985 -0.3134  0.3133
  252MOL0     H34712   1.591   2.899   3.508  1.5292 -2.2104 -3.4096
  252MOL0     H34713   1.522   2.818   3.759  1.2298 -0.1739  1.0884
  252MOL0     H34714   1.683   2.895   3.802  1.5186  0.0238 -1.0783
  252MOL0     H34715   1.602   3.088   3.658 -0.7333 -2.0551 -4.2268
  252MOL0     H34716   1.452   3.008   3.643  1.2975 -1.3619 -0.5469
  252MOL0     H34717   1.548   3.121   3.912 -0.1363 -1.9249  1.6482
  252MOL0     H34718   1.404   3.019   3.874  0.0226 -0.0502  0.2605
  252MOL0     H34719   1.448   3.294   3.742  0.2131 -0.7217 -0.4814
  252MOL0     H34720   1.317   3.177   3.703 -1.6418 -1.3905  1.8496
  252MOL0     H34721   1.392   3.277   3.978  2.4025  0.7266 -1.5834
  252MOL0     H34722   1.225   3.213   3.932  1.0706  0.0983  2.7005
  252MOL0     H34723   1.363   3.473   3.887  0.4851  0.5111 -0.8783
  252MOL0     H34724   1.221   3.432   3.776 -0.9100  1.5164  0.9376
  252MOL0     H34725   0.976   3.392   3.920 -2.0725  1.2767  0.8815
  252MOL0     H34726   0.907   3.610   4.261 -0.2626 -2.6437  0.6027
  252MOL0     H34727   0.805   3.485   4.191 -0.7166 -1.8282 -3.0322
  252MOL0     H34728   0.869   3.695   4.008 -2.9565 -1.4338 -2.4227
  252MOL0     H34729   0.723   3.601   4.033 -0.8869 -1.2176  2.6614
  252MOL0     H34730   0.640   3.707   4.241  0.0130 -1.4138 -1.2943
  252MOL0     H34731   0.799   3.784   4.254  1.4673  3.1004 -2.8925
  252MOL0     H34732   0.755   3.908   4.040  2.9348  0.1879  2.0252
  252MOL0     H34733   0.585   3.860   4.067 -0.5095 -1.6668  0.5263
  252MOL0     H34734   0.533   4.058   3.972 -2.5159  2.3630 -2.5001
  252MOL0     H34735   0.363   4.132   3.844 -1.9156 -0.5481  0.0891
  252MOL0     H34736   0.281   4.289   3.889 -3.4906 -1.5756 -1.5667
  252MOL0     H34737   0.224   4.144   3.942 -1.0022  0.6698 -0.9047
  252MOL0     H34738   0.342   4.739   4.031 -0.7358  4.5171 -2.3736
  252MOL0     H34739   0.195   4.915   3.982 -0.2149  0.0400 -2.2616
  252MOL0     H34740  -0.229   4.980   3.842 -0.2905  0.3410 -0.4900
  252MOL0     H34741  -0.219   4.802   3.833 -4.3938 -1.5817  2.6904
  252MOL0     H34742  -0.411   4.879   3.970 -1.2901  0.1806  0.9131
  252MOL0     H34743  -0.293   4.776   4.055  2.0782  0.2071  0.2105
  252MOL0     H34744  -0.245   5.068   4.057 -1.3252 -0.7092 -0.8507
  252MOL0     H34745  -0.224   4.958   4.192 -2.6349 -1.7978  2.5234
  252MOL0     H34746  -0.481   5.089   4.107 -1.9124 -1.1061  2.2751
  252MOL0     H34747  -0.371   5.136   4.235 -1.3127  1.7270 -0.9764
  252MOL0     H34748  -0.538   4.880   4.198  0.0181 -2.4413  3.6887
  252MOL0     H34749  -0.431   4.901   4.338 -3.5969 -0.9732  3.6443
  252MOL0     H34750  -0.664   5.084   4.274 -1.3270  1.8098  3.1986
  252MOL0     H34751  -0.548   5.106   4.407 -1.6830 -0.7817  1.0055
  252MOL0     H34752  -0.611   4.893   4.501  0.6193 -1.9042 -1.5368
  252MOL0     H34753  -0.697   4.856   4.355  3.3012 -0.3150 -0.5911
  252MOL0     H34754  -0.755   5.074   4.566 -0.0638  1.6462 -1.0209
  252MOL0     H34755  -0.829   4.909   4.551  0.0572  0.6378  0.8327
  252MOL0     H34756  -0.149   4.639   3.966  0.0023 -2.3208  0.3890
  252MOL0     H34757   0.020   4.459   4.015  1.9438 -0.5151  1.2621
  252MOL0     H34758   0.422   4.349   4.359  0.6472  2.1652 -2.3061
  252MOL0     H34759   0.577   4.151   4.400 -0.4918  2.4208  0.9657
  252MOL0     H34760   1.947   2.582   3.591 -1.6358  0.1386 -0.0681
  252MOL0     H34761   2.033   2.355   3.617  2.2807  2.8809 -1.7715
  252MOL0     H34762   1.911   1.909   3.517  1.0093  2.4166 -0.0038
  252MOL0     H34763   1.961   1.669   3.543  3.2518  1.3426 -2.5118
  252MOL0     H34764   2.030   1.418   3.917  1.1215 -0.1063 -0.8185
  252MOL0     H34765   1.903   1.541   3.911  1.4427  1.3791 -1.0077
  252MOL0     H34766   1.956   1.297   3.753  0.9304  0.6095  0.7456
  252MOL0     H34767   1.829   1.403   3.698 -1.3144 -1.6277  0.4642
  252MOL0     H34768   1.816   1.239   3.949  0.1034  0.3217 -2.0063
  252MOL0     H34769   1.732   1.395   3.935 -0.4477 -1.0272  1.0083
  252MOL0     H34770   1.625   1.322   3.729 -0.1402  0.7292  0.6272
  252MOL0     H34771   1.577   1.205   3.854 -1.8148  0.6007 -1.4187
  252MOL0     H34772   1.772   0.941   3.614 -1.4284 -0.3599  0.3990
  252MOL0     H34773   2.036   1.729   3.962  2.0084  0.9892 -0.2703
  252MOL0     H34774   1.924   2.067   3.990  0.6764  0.2284 -0.4180
  252MOL0     H34775   2.001   1.921   4.051 -2.1400 -1.3772 -1.2139
  252MOL0     H34776   2.102   2.044   3.970  0.9973 -0.3529  3.6588
  253MOL0     O34777   3.071   5.100   4.377 -0.0348 -0.3435 -0.2589
  253MOL0     C34778   2.983   5.102   4.459 -0.0752  0.2260 -0.7102
  253MOL0     O34779   2.890   5.005   4.484  0.6603  0.0650  0.2109
  253MOL0     C34780   2.881   4.892   4.409  0.6273  0.2142 -0.9112
  253MOL0     C34781   2.752   4.856   4.376 -0.6169  0.3990 -0.0821
  253MOL0     C34782   2.739   4.731   4.308 -0.7017 -0.7193 -0.1968
  253MOL0     C34783   2.854   4.649   4.275 -0.0538 -1.2605 -0.3267
  253MOL0     O34784   2.843   4.523   4.223 -0.4613  0.6625  0.1525
  253MOL0     C34785   2.714   4.447   4.245  0.3054 -0.5065 -0.3964
  253MOL0     C34786   2.739   4.310   4.182  0.5005 -0.5874  0.5055
  253MOL0     C34787   2.755   4.325   4.029 -0.2818  0.0676  0.0860
  253MOL0     C34788   2.757   4.198   3.946  0.2376 -0.1510  0.5174
  253MOL0     C34789   2.769   4.232   3.791 -0.7136  0.4076 -0.4566
  253MOL0     C34790   2.900   4.154   3.744  0.3656 -0.0263  0.4726
  253MOL0     C34791   2.860   4.009   3.710  0.0466  0.4368 -0.3813
  253MOL0     C34792   2.990   3.922   3.683 -0.3185  0.0957 -0.8044
  253MOL0     N34793   2.964   3.773   3.675 -0.2601 -0.8403  0.1869
  253MOL0     C34794   2.843   3.713   3.641  0.4486 -0.1598 -0.8119
  253MOL0     C34795   2.877   3.586   3.612 -0.0024 -0.6680  0.4774
  253MOL0     C34796   2.774   3.478   3.572 -0.3957 -0.6246 -0.8957
  253MOL0     C34797   2.822   3.372   3.475 -0.3154  0.2954  0.3833
  253MOL0     C34798   2.890   3.263   3.552 -0.0454  0.1230  0.0557
  253MOL0     C34799   2.792   3.153   3.596  0.3320 -0.5194 -0.1463
  253MOL0     O34800   2.675   3.190   3.667  0.6597  0.2446  0.0716
  253MOL0     C34801   2.661   3.186   3.800 -0.2426  0.1225 -0.7252
  253MOL0     C34802   2.541   3.214   3.853  0.2461  0.2036 -0.9872
  253MOL0     C34803   2.506   3.196   3.989  0.1763  0.6504 -0.3699
  253MOL0     C34804   2.360   3.232   4.025  0.1028  0.2949  1.1201
  253MOL0     C34805   2.616   3.164   4.079  0.1706  0.6616 -0.1938
  253MOL0     C34806   2.601   3.138   4.223  1.0671 -1.2433 -0.1892
  253MOL0     O34807   2.701   3.089   4.301  0.0751 -1.0803 -0.3914
  253MOL0     C34808   2.688   3.059   4.439  0.5863 -0.3692 -0.6749
  253MOL0     C34809   2.632   3.160   4.525 -0.3091  0.4276  0.3471
  253MOL0     C34810   2.661   3.153   4.665 -0.3013 -0.4515 -0.5162
  253MOL0     C34811   2.739   3.039   4.722  1.1954 -0.0713 -0.1096
  253MOL0     O34812   2.772   3.008   4.851  0.2569 -0.2644 -0.0866
  253MOL0     C34813   2.755   3.110   4.945  0.1650  0.0525 -0.6076
  253MOL0     C34814   2.810   3.072   5.083 -0.6178  0.9169  0.2515
  253MOL0     C34815   2.959   3.040   5.080 -0.7393  0.0642 -0.0686
  253MOL0     C34816   3.056   3.162   5.081 -0.8827 -0.2782 -0.2111
  253MOL0     C34817   3.202   3.117   5.044  0.7710  0.2628 -0.9201
  253MOL0     C34818   3.217   3.094   4.895  0.4902 -1.1208  0.2927
  253MOL0     C34819   3.363   3.081   4.855  0.1169  0.6257  0.2837
  253MOL0     C34820   3.387   3.000   4.724 -0.4571  0.1343  0.7102
  253MOL0    Cl34821   3.450   2.838   4.749 -0.3840  0.0455 -0.4126
  253MOL0     C34822   2.789   2.945   4.633  0.1942  0.9568  0.2447
  253MOL0     C34823   2.782   2.961   4.493  0.2169  0.0903  0.2133
  253MOL0     O34824   2.492   3.151   4.262  0.3309 -0.0734 -0.6418
  253MOL0     C34825   2.753   3.161   4.025 -0.1224  0.7944  0.4031
  253MOL0     C34826   2.767   3.160   3.889 -0.6047 -0.2235  0.3116
  253MOL0     N34827   3.020   3.574   3.613 -0.5975 -0.5114  0.5623
  253MOL0     N34828   3.064   3.692   3.647  0.2073 -0.1071  0.1663
  253MOL0     C34829   2.976   4.688   4.319  0.0334 -0.5207  0.3987
  253MOL0     C34830   2.993   4.807   4.393 -0.1237  0.8186  1.1090
  253MOL0     C34831   2.967   5.243   4.536  0.2734 -0.1809 -1.0466
  253MOL0     C34832   3.033   5.353   4.485  0.1563 -0.3200  0.0953
  253MOL0     C34833   3.038   5.471   4.550 -0.4416 -0.5338  0.0500
  253MOL0     C34834   2.967   5.487   4.665  0.7902 -0.4607 -0.3615
  253MOL0     O34835   2.987   5.601   4.729 -0.1898 -0.2980 -0.0490
  253MOL0     C34836   2.900   5.643   4.841 -0.5288 -0.1036 -0.1827
  253MOL0     C34837   2.957   5.777   4.879 -0.3608 -0.0203 -0.3012
  253MOL0     C34838   2.877   5.830   4.999  0.1391  0.5372 -0.5103
  253MOL0     C34839   2.946   5.955   5.064  0.4809 -0.1908  0.3626
  253MOL0     C34840   2.854   6.020   5.157 -0.4337 -0.7478 -0.1042
  253MOL0     C34841   2.767   6.069   5.216 -0.4089  0.0609 -0.0734
  253MOL0     C34842   2.895   5.375   4.723 -0.5010  0.1138  0.5266
  253MOL0     C34843   2.909   5.252   4.665 -0.0467 -0.6506 -0.5630
  253MOL0     C34844   2.835   5.150   4.732 -0.1514  0.5915 -0.3832
  253MOL0     H34845   2.668   4.920   4.402 -1.3151  0.3915 -2.1293
  253MOL0     H34846   2.638   4.699   4.285 -0.3060 -0.8293 -1.8737
  253MOL0     H34847   2.628   4.504   4.210 -0.9878 -0.5508  2.3890
  253MOL0     H34848   2.695   4.429   4.352  2.5124 -0.7005  0.0143
  253MOL0     H34849   2.821   4.252   4.225  0.5560 -1.4550 -0.7444
  253MOL0     H34850   2.652   4.245   4.193  1.8524 -2.3244  1.5301
  253MOL0     H34851   2.671   4.385   3.994  0.1821 -1.4298 -4.2432
  253MOL0     H34852   2.844   4.384   4.008  0.7934 -1.5984 -0.2707
  253MOL0     H34853   2.846   4.142   3.975 -0.3025 -2.1116 -1.3215
  253MOL0     H34854   2.665   4.140   3.963  0.5788 -0.6394  0.7150
  253MOL0     H34855   2.787   4.340   3.787  4.4383 -0.0284  2.5707
  253MOL0     H34856   2.688   4.197   3.726 -2.2157  0.9333  1.0466
  253MOL0     H34857   2.938   4.195   3.649 -1.0981 -0.1459 -0.1822
  253MOL0     H34858   2.980   4.162   3.818 -0.7211 -0.7346  1.7661
  253MOL0     H34859   2.799   4.011   3.619  0.4864  0.9835 -0.6674
  253MOL0     H34860   2.805   3.957   3.789 -0.4170 -0.9939 -1.5966
  253MOL0     H34861   3.041   3.956   3.592 -2.2410 -0.5586 -2.2092
  253MOL0     H34862   3.063   3.935   3.762 -1.4880 -2.7614  0.9166
  253MOL0     H34863   2.752   3.772   3.640 -1.5064 -2.9392  0.5282
  253MOL0     H34864   2.689   3.530   3.525 -1.6509  2.2038  3.8203
  253MOL0     H34865   2.740   3.421   3.659 -2.5380 -2.7947 -3.0099
  253MOL0     H34866   2.742   3.335   3.411  0.1623  0.2574 -0.2056
  253MOL0     H34867   2.892   3.416   3.402 -1.2731  2.1953  0.5380
  253MOL0     H34868   2.971   3.216   3.493 -0.2750  0.7506 -0.7824
  253MOL0     H34869   2.944   3.302   3.638 -0.0556 -0.1173  0.1711
  253MOL0     H34870   2.769   3.093   3.508  0.7830  1.7521 -1.9214
  253MOL0     H34871   2.859   3.093   3.658  2.3698  0.4982 -1.2234
  253MOL0     H34872   2.462   3.245   3.785  1.5391  3.1579 -1.2802
  253MOL0     H34873   2.300   3.152   4.067  0.0055 -0.8015 -0.9605
  253MOL0     H34874   2.311   3.263   3.932  1.7380 -0.3781 -0.0143
  253MOL0     H34875   2.354   3.323   4.085 -0.6727  0.4761  0.7835
  253MOL0     H34876   2.586   3.248   4.482 -1.0955 -0.3938 -0.5524
  253MOL0     H34877   2.642   3.230   4.739  2.5108 -1.0242  0.9488
  253MOL0     H34878   2.803   3.202   4.910 -1.1503 -0.0607 -2.9581
  253MOL0     H34879   2.651   3.143   4.951  0.1086 -0.4128  2.9562
  253MOL0     H34880   2.792   3.149   5.159 -1.2460 -0.1571  1.2264
  253MOL0     H34881   2.754   2.984   5.116 -1.2923 -0.5906 -4.2215
  253MOL0     H34882   2.980   2.978   4.992 -3.2996 -0.2900 -0.4871
  253MOL0     H34883   2.985   2.969   5.158  2.0922 -1.6238 -2.3304
  253MOL0     H34884   3.054   3.218   5.175 -2.7757  2.3818 -1.6831
  253MOL0     H34885   3.025   3.229   5.000 -0.0600  2.2945  1.4825
  253MOL0     H34886   3.270   3.195   5.080 -0.4656  0.4781  1.1404
  253MOL0     H34887   3.239   3.032   5.102  0.4301  0.7631  0.0583
  253MOL0     H34888   3.185   3.174   4.827  2.1813 -1.3782 -0.8640
  253MOL0     H34889   3.160   3.004   4.869  1.4336 -1.4281 -0.7888
  253MOL0     H34890   3.427   3.029   4.926  1.1272 -0.1735 -1.1658
  253MOL0     H34891   3.393   3.186   4.857 -0.8422  0.9184  0.0145
  253MOL0     H34892   3.455   3.057   4.660 -0.5921  1.8756  2.0429
  253MOL0     H34893   3.292   2.986   4.671 -1.5994 -1.3871  3.0103
  253MOL0     H34894   2.859   2.874   4.675 -0.2624  0.1866 -0.2699
  253MOL0     H34895   2.838   2.901   4.421  3.3115 -1.3188  3.4717
  253MOL0     H34896   2.833   3.131   4.091 -2.0717 -0.6191  2.2744
  253MOL0     H34897   2.862   3.130   3.845 -0.2396  1.9359 -0.5034
  253MOL0     H34898   3.056   4.617   4.298  1.4435  1.6997 -2.5807
  253MOL0     H34899   3.086   4.837   4.442 -1.6365  1.3551  3.8742
  253MOL0     H34900   3.091   5.339   4.394 -0.9686  0.8486 -0.8533
  253MOL0     H34901   3.088   5.556   4.505  0.8311 -1.5738 -0.5777
  253MOL0     H34902   2.794   5.655   4.817 -0.3515  2.0662 -0.0531
  253MOL0     H34903   2.915   5.562   4.913  1.2230 -2.2382 -2.7369
  253MOL0     H34904   2.938   5.848   4.798  1.9765  0.2211 -0.6997
  253MOL0     H34905   3.065   5.768   4.893  0.2791 -0.0041 -4.1839
  253MOL0     H34906   2.776   5.861   4.971  0.6254  2.7365  0.0345
  253MOL0     H34907   2.858   5.754   5.075  0.8300  0.4926 -0.3721
  253MOL0     H34908   2.979   6.024   4.985 -5.0095  4.9107  1.7723
  253MOL0     H34909   3.040   5.921   5.107 -0.1581 -1.6794  0.6688
  253MOL0     H34910   2.684   6.098   5.277 -0.4326 -1.7529  0.8268
  253MOL0     H34911   2.831   5.387   4.810 -0.9479  0.4973  0.1504
  253MOL0     H34912   2.848   5.160   4.840  0.1275 -0.1764 -0.3372
  253MOL0     H34913   2.729   5.145   4.707 -1.2317 -1.7314  3.7296
  253MOL0     H34914   2.872   5.050   4.708  2.9883  0.8306  2.7377
  254MOL0     O34915   4.047   3.844   9.704  0.2814 -0.5421 -0.8053
  254MOL0     C34916   4.103   3.939   9.755 -0.2348  0.1850  0.0448
  254MOL0     O34917   4.226   3.990   9.711  0.2331 -0.8546 -0.6335
  254MOL0     C34918   4.318   3.917   9.632 -0.0020 -0.5733  0.0903
  254MOL0     C34919   4.312   3.785   9.593 -0.4658  0.2744  0.6543
  254MOL0     C34920   4.392   3.732   9.490  0.1366 -0.0866  1.1445
  254MOL0     C34921   4.485   3.821   9.432 -0.0275  0.8028 -1.2658
  254MOL0     O34922   4.565   3.761   9.337  0.0191 -1.0774 -0.6739
  254MOL0     C34923   4.643   3.844   9.259 -0.5894  0.2441 -0.1562
  254MOL0     C34924   4.657   3.780   9.119  0.0388  0.6055  0.0397
  254MOL0     C34925   4.773   3.683   9.113  0.5264  0.5939 -0.1678
  254MOL0     C34926   4.904   3.752   9.080  0.0191  0.2514 -0.3626
  254MOL0     C34927   4.992   3.646   9.018  0.0027  0.0667  0.6761
  254MOL0     C34928   5.142   3.695   9.007  0.3974  0.1404  0.5544
  254MOL0     C34929   5.158   3.803   8.890 -0.2747 -0.2226  0.2818
  254MOL0     C34930   5.152   3.757   8.751  0.3267  1.2962  0.2627
  254MOL0     N34931   5.193   3.859   8.653 -0.4147 -0.2670 -0.0161
  254MOL0     C34932   5.115   3.912   8.559 -0.4848 -0.0833  0.4142
  254MOL0     C34933   5.189   4.016   8.510 -0.1444  0.7807  0.1309
  254MOL0     C34934   5.153   4.117   8.400 -0.7251  0.4704 -0.2189
  254MOL0     C34935   5.234   4.124   8.262 -0.5993 -0.2407 -0.4546
  254MOL0     C34936   5.382   4.130   8.291 -0.4422 -0.4077  0.8886
  254MOL0     C34937   5.461   4.194   8.173  0.2612 -0.4225 -0.7526
  254MOL0     O34938   5.456   4.341   8.180  0.4222 -0.1112  0.3361
  254MOL0     C34939   5.565   4.407   8.201  0.0787  0.8386 -0.0128
  254MOL0     C34940   5.658   4.369   8.288  0.2729 -0.1068  0.6138
  254MOL0     C34941   5.780   4.442   8.313  1.0253  0.2165 -0.1525
  254MOL0     C34942   5.887   4.376   8.395  0.7197 -0.1182  0.9151
  254MOL0     C34943   5.796   4.562   8.242  0.6100 -0.2808 -0.2920
  254MOL0     C34944   5.922   4.646   8.259 -0.5158  0.0467 -0.6867
  254MOL0     O34945   6.047   4.592   8.297 -0.2924 -0.5032 -0.3250
  254MOL0     C34946   6.154   4.676   8.292 -0.6345  1.1094 -0.1267
  254MOL0     C34947   6.160   4.781   8.382 -0.0829 -0.0826 -0.6507
  254MOL0     C34948   6.263   4.874   8.376  0.0515  0.0222 -0.1275
  254MOL0     C34949   6.369   4.851   8.290 -0.0825  0.6754 -0.3139
  254MOL0     O34950   6.480   4.929   8.290  0.0512  0.7139 -0.7772
  254MOL0     C34951   6.583   4.893   8.373 -0.3819  0.2879 -0.1294
  254MOL0     C34952   6.646   5.020   8.408 -0.3841 -0.0675  0.5118
  254MOL0     C34953   6.790   4.991   8.458 -0.3358 -0.2061  0.4700
  254MOL0     C34954   6.855   5.122   8.514 -0.0043 -0.0703  0.6875
  254MOL0     C34955   7.001   5.093   8.566  0.7880  0.1454  0.2756
  254MOL0     C34956   7.057   5.220   8.633 -0.2677 -0.4326 -0.6891
  254MOL0     C34957   7.172   5.192   8.729  0.4676 -0.4240 -0.6100
  254MOL0     C34958   7.307   5.167   8.672  0.0396 -0.0493  0.5493
  254MOL0    Cl34959   7.412   5.150   8.816  0.3010 -0.0408 -0.3358
  254MOL0     C34960   6.367   4.744   8.199  0.4207  0.8735  0.3919
  254MOL0     C34961   6.255   4.657   8.197 -0.9147 -0.1326 -0.6098
  254MOL0     O34962   5.898   4.765   8.242 -0.8054  0.3823  0.6843
  254MOL0     C34963   5.701   4.598   8.148 -0.4293 -0.6874  0.0685
  254MOL0     C34964   5.581   4.524   8.130  0.3858 -0.3269 -0.7138
  254MOL0     N34965   5.310   4.015   8.563  0.0993  0.3135 -0.6518
  254MOL0     N34966   5.313   3.922   8.650  0.0935  0.5670 -0.5535
  254MOL0     C34967   4.492   3.953   9.468  1.3988 -0.6903 -0.5297
  254MOL0     C34968   4.409   3.999   9.564  0.6600 -0.4804  0.2253
  254MOL0     C34969   4.042   4.017   9.865  0.5595  0.2911  0.1820
  254MOL0     C34970   4.100   4.141   9.901  0.5123  0.4522  1.0258
  254MOL0     C34971   4.050   4.206  10.018 -0.5276  0.0207 -0.3332
  254MOL0     C34972   3.941   4.156  10.093  0.9400  0.1606  0.2352
  254MOL0     O34973   3.859   4.222  10.180  0.0850 -0.0964  0.2473
  254MOL0     C34974   3.907   4.358  10.211 -0.2344  0.0742 -0.8312
  254MOL0     C34975   3.805   4.411  10.321  0.2576 -0.1409 -0.2593
  254MOL0     C34976   3.847   4.375  10.469 -0.0710 -0.0698  0.0413
  254MOL0     C34977   3.725   4.364  10.563  0.5768  0.2118 -0.3687
  254MOL0     C34978   3.669   4.497  10.608 -0.6404  0.1322 -0.1528
  254MOL0     C34979   3.608   4.604  10.641 -0.2874  0.3734  0.8199
  254MOL0     C34980   3.885   4.034  10.056 -0.8621 -1.0972  0.1786
  254MOL0     C34981   3.943   3.958   9.951  0.2998  0.6230 -0.4544
  254MOL0     C34982   3.889   3.810   9.931  0.5397  0.5019  0.8714
  254MOL0     H34983   4.232   3.724   9.633 -1.1065  1.3145  1.0008
  254MOL0     H34984   4.373   3.634   9.448 -1.3753  0.7194 -0.1956
  254MOL0     H34985   4.743   3.860   9.301  0.2554  1.5103 -2.4882
  254MOL0     H34986   4.591   3.937   9.232  0.3429  0.0980 -2.7072
  254MOL0     H34987   4.573   3.728   9.073  2.5956 -3.7072 -0.2300
  254MOL0     H34988   4.684   3.865   9.055  3.0006  1.4158  2.1201
  254MOL0     H34989   4.783   3.614   9.198  0.0350 -0.2341 -0.7683
  254MOL0     H34990   4.759   3.606   9.036  4.0675 -1.3036  0.8473
  254MOL0     H34991   4.896   3.844   9.022  1.5279 -0.1336 -1.2512
  254MOL0     H34992   4.945   3.783   9.177 -0.9336  0.0979  0.1017
  254MOL0     H34993   4.960   3.612   8.918  3.9391  1.2543 -1.1651
  254MOL0     H34994   4.997   3.554   9.077  0.6976 -0.3337  0.0148
  254MOL0     H34995   5.174   3.750   9.096  1.1618  1.0031 -0.2235
  254MOL0     H34996   5.206   3.607   9.002 -0.8420 -0.9250  2.4749
  254MOL0     H34997   5.261   3.838   8.902  0.4935 -1.8843 -1.1438
  254MOL0     H34998   5.080   3.880   8.898 -0.3733 -0.0492 -1.8915
  254MOL0     H34999   5.227   3.678   8.743 -1.7424 -0.8637  0.7268
  254MOL0     H35000   5.052   3.717   8.730  1.3368 -0.4999 -1.5115
  254MOL0     H35001   5.013   3.876   8.548  0.3655 -2.2998 -1.1473
  254MOL0     H35002   5.158   4.214   8.450 -0.1892  0.6153 -0.5355
  254MOL0     H35003   5.049   4.097   8.374 -1.2627 -1.9985  3.1475
  254MOL0     H35004   5.229   4.038   8.194 -1.3025  0.2545 -1.0413
  254MOL0     H35005   5.199   4.213   8.210 -0.1945 -0.4828 -1.1664
  254MOL0     H35006   5.397   4.196   8.376 -1.7592 -1.5483  2.0453
  254MOL0     H35007   5.418   4.027   8.307  3.9586  0.9618  1.2162
  254MOL0     H35008   5.567   4.167   8.181  0.2861 -1.2601 -3.0444
  254MOL0     H35009   5.439   4.146   8.077  1.8904 -1.7586 -0.5097
  254MOL0     H35010   5.648   4.280   8.349  0.8442 -0.8114 -0.2973
  254MOL0     H35011   5.924   4.454   8.462  0.6223  1.6197 -0.9907
  254MOL0     H35012   5.967   4.349   8.326 -0.1716  0.9818 -0.5934
  254MOL0     H35013   5.850   4.292   8.455  1.1929 -0.7545  0.3293
  254MOL0     H35014   6.080   4.778   8.456  0.1199 -0.6863 -0.4539
  254MOL0     H35015   6.277   4.945   8.457  1.8733 -0.8820  0.3914
  254MOL0     H35016   6.549   4.837   8.460 -3.4371  2.5976  0.3354
  254MOL0     H35017   6.657   4.843   8.310 -1.7843  0.5223 -2.0566
  254MOL0     H35018   6.643   5.096   8.329  0.2793 -0.5350  0.0232
  254MOL0     H35019   6.606   5.070   8.496  2.3893  0.9440  1.3267
  254MOL0     H35020   6.840   4.961   8.366  0.0276 -1.3359  1.0276
  254MOL0     H35021   6.787   4.912   8.534  0.9908  0.7123  1.5410
  254MOL0     H35022   6.799   5.171   8.593 -2.1409  1.3516 -1.5592
  254MOL0     H35023   6.870   5.191   8.431  2.8752 -2.6799 -1.2129
  254MOL0     H35024   6.988   5.005   8.629 -2.2449 -1.5701 -2.3933
  254MOL0     H35025   7.056   5.056   8.478  0.9311 -0.7194  0.7184
  254MOL0     H35026   6.974   5.268   8.686 -1.4171 -0.1789 -2.6324
  254MOL0     H35027   7.097   5.294   8.564  1.6026 -2.1476 -1.5526
  254MOL0     H35028   7.144   5.110   8.795 -5.8096  2.6847  1.4078
  254MOL0     H35029   7.185   5.282   8.790 -2.1854 -2.8777  4.1129
  254MOL0     H35030   7.340   5.244   8.602  2.5009 -0.7162  0.8951
  254MOL0     H35031   7.316   5.071   8.621  1.9640  0.5726 -0.3722
  254MOL0     H35032   6.446   4.728   8.126  0.4239 -2.9550  1.0246
  254MOL0     H35033   6.242   4.579   8.123 -1.4827 -0.9409  0.3199
  254MOL0     H35034   5.705   4.691   8.093 -1.2558  1.1707  2.9521
  254MOL0     H35035   5.506   4.561   8.061 -0.7686 -0.8209  0.2275
  254MOL0     H35036   4.570   4.022   9.437  0.3798  1.0076  0.5382
  254MOL0     H35037   4.426   4.100   9.601  1.2013 -0.7270  0.6642
  254MOL0     H35038   4.178   4.178   9.836 -0.7394  0.9396 -0.2631
  254MOL0     H35039   4.086   4.307  10.035 -0.5586  0.1636 -1.0976
  254MOL0     H35040   4.008   4.363  10.253 -0.4679 -1.3771 -0.0323
  254MOL0     H35041   3.904   4.427  10.126  2.8233 -0.0816 -1.1906
  254MOL0     H35042   3.704   4.384  10.289 -0.5653 -0.8035  2.6745
  254MOL0     H35043   3.812   4.521  10.317 -0.3864 -0.0031  1.5306
  254MOL0     H35044   3.887   4.274  10.460 -4.3144 -1.9709  0.0216
  254MOL0     H35045   3.923   4.447  10.502 -0.9292  0.8037  0.1575
  254MOL0     H35046   3.770   4.327  10.655  0.3642  0.3189 -0.2203
  254MOL0     H35047   3.641   4.305  10.524  0.7643  0.3565 -1.0117
  254MOL0     H35048   3.563   4.694  10.676  3.1599  1.6537  2.4002
  254MOL0     H35049   3.815   3.994  10.129 -0.6513  1.3294  1.8009
  254MOL0     H35050   3.845   3.809   9.831 -0.3509  1.0237  1.2422
  254MOL0     H35051   3.968   3.735   9.938 -1.0983 -1.3980 -0.0245
  254MOL0     H35052   3.810   3.791  10.003  0.4858 -0.5667  0.5423
  255MOL0     O35053  10.142   2.123   5.637 -0.1371  0.4562 -0.4758
  255MOL0     C35054  10.208   2.049   5.562  0.0608 -1.3063 -0.1368
  255MOL0     O35055  10.341   2.019   5.576 -0.7139 -0.2181  0.2162
  255MOL0     C35056  10.431   2.071   5.654 -0.7026 -0.4751  0.3437
  255MOL0     C35057  10.428   2.198   5.727  0.4823  0.7106 -0.1676
  255MOL0     C35058  10.531   2.242   5.802  0.8837 -1.0238 -1.0022
  255MOL0     C35059  10.647   2.167   5.815  0.1184 -0.3800 -0.1869
  255MOL0     O35060  10.755   2.214   5.891 -0.2312 -0.4420  0.4302
  255MOL0     C35061  10.831   2.116   5.960 -0.0553  0.1152  0.0135
  255MOL0     C35062  10.754   2.034   6.069 -0.2658 -0.1260 -0.0569
  255MOL0     C35063  10.687   2.131   6.168 -0.1219 -0.4030 -0.2581
  255MOL0     C35064  10.785   2.216   6.252  0.7442 -0.1015 -0.4692
  255MOL0     C35065  10.707   2.284   6.364 -0.4930  0.6595  0.1682
  255MOL0     C35066  10.660   2.191   6.487  0.1436  0.4095  0.0735
  255MOL0     C35067  10.762   2.080   6.528 -0.0315  0.1221 -0.9382
  255MOL0     C35068  10.721   1.999   6.649 -0.4907  0.1864 -0.6508
  255MOL0     N35069  10.593   1.931   6.629  0.6717  0.3132  0.0589
  255MOL0     C35070  10.469   1.973   6.677 -0.7490 -0.0607 -0.1612
  255MOL0     C35071  10.393   1.863   6.644 -0.2895 -0.2448 -0.0945
  255MOL0     C35072  10.255   1.835   6.673  0.3843  0.2307 -0.3530
  255MOL0     C35073  10.228   1.699   6.739  0.2543 -0.1811 -0.0518
  255MOL0     C35074  10.310   1.679   6.873  0.8115 -0.7135  0.6305
  255MOL0     C35075  10.242   1.746   6.996  0.3264  0.1350  0.4408
  255MOL0     O35076  10.234   1.891   6.992  0.6220 -0.6235  0.1000
  255MOL0     C35077  10.347   1.968   7.027 -0.2674 -0.0328  0.8866
  255MOL0     C35078  10.483   1.926   7.026  0.7187  0.0374 -0.1950
  255MOL0     C35079  10.585   2.015   7.055  0.6149 -0.5251 -0.7351
  255MOL0     C35080  10.727   1.957   7.058 -1.0116 -0.7246 -0.2140
  255MOL0     C35081  10.558   2.156   7.067  0.5850 -0.4176 -0.5262
  255MOL0     C35082  10.666   2.248   7.086 -0.0793 -0.3899  0.1095
  255MOL0     O35083  10.723   2.258   7.206 -0.7547 -0.5372 -1.0293
  255MOL0     C35084  10.838   2.320   7.245  0.1277  0.5705 -0.2955
  255MOL0     C35085  10.947   2.321   7.160 -0.4267  1.1029  0.5700
  255MOL0     C35086  11.054   2.400   7.193  0.3466 -0.6784 -0.5072
  255MOL0     C35087  11.057   2.472   7.316 -1.0001 -0.1346  0.2472
  255MOL0     O35088  11.163   2.551   7.332  0.1238 -0.1272  0.7026
  255MOL0     C35089  11.266   2.471   7.404  0.8846 -1.0344  0.6443
  255MOL0     C35090  11.393   2.555   7.442 -0.0225  0.6313  0.4748
  255MOL0     C35091  11.362   2.653   7.554  0.3334 -0.0192 -0.1384
  255MOL0     C35092  11.459   2.772   7.584 -0.6954  0.3917  1.0079
  255MOL0     C35093  11.412   2.848   7.705 -0.2991  0.1325 -0.5390
  255MOL0     C35094  11.516   2.956   7.752 -0.6904  0.8779 -0.9869
  255MOL0     C35095  11.661   2.904   7.787 -0.8608  0.0319  0.3396
  255MOL0     C35096  11.767   3.012   7.799  0.3238  0.2737 -0.1183
  255MOL0    Cl35097  11.710   3.122   7.926  0.1256  0.5708  0.5193
  255MOL0     C35098  10.950   2.472   7.405  0.2390  0.3923  0.7398
  255MOL0     C35099  10.834   2.398   7.363 -1.6049  0.5566 -1.2107
  255MOL0     O35100  10.704   2.302   6.980 -0.0989  0.1538 -0.0929
  255MOL0     C35101  10.419   2.195   7.057  0.4228 -0.8080  0.1979
  255MOL0     C35102  10.317   2.103   7.041  0.6223 -0.5002 -0.2144
  255MOL0     N35103  10.472   1.765   6.580 -0.0373  0.0168  0.3088
  255MOL0     N35104  10.589   1.809   6.573  0.5355 -0.1388 -0.3617
  255MOL0     C35105  10.657   2.038   5.752 -0.3082 -0.7137  0.9767
  255MOL0     C35106  10.548   1.994   5.681  0.3584  0.0734 -0.2965
  255MOL0     C35107  10.136   1.960   5.466 -0.4064  0.1524  0.8069
  255MOL0     C35108  10.195   1.842   5.423  0.5801  0.0374 -0.0602
  255MOL0     C35109  10.141   1.764   5.326  0.3282  0.9566  0.9993
  255MOL0     C35110  10.022   1.800   5.267 -0.2120 -0.5253 -0.1014
  255MOL0     O35111   9.980   1.722   5.159 -0.6868  0.0819 -0.2064
  255MOL0     C35112   9.946   1.586   5.198 -0.6056 -0.4230  0.0041
  255MOL0     C35113   9.885   1.535   5.071  0.0274 -0.6265 -0.0026
  255MOL0     C35114   9.843   1.394   5.094  0.6519  0.9149  0.0022
  255MOL0     C35115   9.748   1.352   4.986 -1.2985  0.1534  0.8547
  255MOL0     C35116   9.829   1.305   4.866  0.5816 -0.9394  0.4577
  255MOL0     C35117   9.897   1.266   4.776  0.0636  0.6292  0.7769
  255MOL0     C35118   9.972   1.929   5.293 -0.3360  0.7661 -0.3082
  255MOL0     C35119  10.022   2.006   5.391  0.4635  0.0191 -0.4510
  255MOL0     C35120   9.947   2.125   5.420 -0.2670  0.5078 -0.2159
  255MOL0     H35121  10.336   2.256   5.716  0.8445  1.4293  0.5215
  255MOL0     H35122  10.507   2.333   5.856 -0.6212  0.1146 -3.3802
  255MOL0     H35123  10.912   2.167   6.012  1.3829 -1.9722 -0.0637
  255MOL0     H35124  10.880   2.055   5.883  1.1015  0.9527  0.0626
  255MOL0     H35125  10.678   1.976   6.015 -0.8387 -1.3119  1.9399
  255MOL0     H35126  10.811   1.959   6.124 -3.0562 -1.2425  1.5209
  255MOL0     H35127  10.628   2.207   6.116 -0.1263  1.0748  1.7945
  255MOL0     H35128  10.621   2.068   6.229 -1.2371 -0.0158 -1.0528
  255MOL0     H35129  10.863   2.151   6.292  2.1411 -0.6125 -3.7552
  255MOL0     H35130  10.825   2.294   6.187 -0.3122 -0.4305 -1.5471
  255MOL0     H35131  10.615   2.325   6.321 -0.8458  0.3550  0.6227
  255MOL0     H35132  10.769   2.357   6.417  1.9324 -1.2930  0.2284
  255MOL0     H35133  10.658   2.257   6.574  3.4493 -0.4766  0.9682
  255MOL0     H35134  10.559   2.158   6.464  0.0976  0.8284 -0.3666
  255MOL0     H35135  10.853   2.130   6.562  0.4375 -2.2814  1.8047
  255MOL0     H35136  10.782   2.000   6.456  0.4644 -1.5813  0.9819
  255MOL0     H35137  10.801   1.929   6.674  2.6756  3.3133 -1.3382
  255MOL0     H35138  10.717   2.067   6.734  1.1651 -1.2986  0.6839
  255MOL0     H35139  10.445   2.064   6.732 -1.2431 -0.4361  0.2506
  255MOL0     H35140  10.203   1.837   6.576  0.8829 -1.6959 -0.7025
  255MOL0     H35141  10.212   1.905   6.745 -0.1782  0.1112 -0.5614
  255MOL0     H35142  10.122   1.687   6.764  0.2456 -0.2689 -0.1272
  255MOL0     H35143  10.263   1.621   6.670  2.8535  0.0952  0.8385
  255MOL0     H35144  10.309   1.570   6.889  1.8338 -0.4706  2.8144
  255MOL0     H35145  10.411   1.718   6.859  0.9994 -2.1547 -2.8032
  255MOL0     H35146  10.144   1.699   7.002 -1.1735  3.0564  0.4751
  255MOL0     H35147  10.308   1.718   7.079  0.0290  1.4183  1.1326
  255MOL0     H35148  10.512   1.821   7.031  2.6542  0.4978 -1.1365
  255MOL0     H35149  10.721   1.870   6.992 -0.5678 -0.3306 -0.7877
  255MOL0     H35150  10.771   1.930   7.154  1.2773  0.0876 -0.9661
  255MOL0     H35151  10.791   2.032   7.010 -1.2112 -0.6361 -0.3439
  255MOL0     H35152  10.941   2.260   7.071 -1.3789 -0.3497  1.5770
  255MOL0     H35153  11.142   2.395   7.130  1.3166  0.3561  0.7001
  255MOL0     H35154  11.213   2.415   7.482 -1.2593 -2.9170 -1.9982
  255MOL0     H35155  11.302   2.398   7.331 -1.1302 -2.7720  1.2947
  255MOL0     H35156  11.470   2.487   7.479 -0.3327  0.4043  0.6986
  255MOL0     H35157  11.439   2.603   7.355 -0.7324 -0.3439 -0.4755
  255MOL0     H35158  11.358   2.592   7.645  1.3693 -0.1621 -0.1727
  255MOL0     H35159  11.264   2.698   7.539  1.1032  1.0169 -2.4790
  255MOL0     H35160  11.467   2.846   7.505 -3.1820  1.3293  1.5300
  255MOL0     H35161  11.558   2.732   7.607 -1.1896 -0.4884  1.6980
  255MOL0     H35162  11.318   2.899   7.678  0.3785  0.7841 -1.7448
  255MOL0     H35163  11.388   2.778   7.786 -4.5640  0.4853 -1.2471
  255MOL0     H35164  11.464   3.004   7.835 -0.9165  1.9100 -1.7049
  255MOL0     H35165  11.517   3.033   7.674 -1.0048 -1.0492 -2.9956
  255MOL0     H35166  11.707   2.839   7.713  2.3174 -0.0973  2.2470
  255MOL0     H35167  11.659   2.852   7.883  1.2674 -0.4532  0.1716
  255MOL0     H35168  11.784   3.067   7.706 -3.5052 -0.4001 -1.3816
  255MOL0     H35169  11.861   2.963   7.827  1.0420  2.3485  1.3337
  255MOL0     H35170  10.966   2.527   7.497  0.1110 -1.2210  1.7696
  255MOL0     H35171  10.737   2.410   7.411 -0.4606  0.8113  1.2404
  255MOL0     H35172  10.381   2.296   7.064 -0.5022 -1.2371  2.4223
  255MOL0     H35173  10.214   2.138   7.034  0.0526 -1.3717  2.3520
  255MOL0     H35174  10.740   1.971   5.773  1.1019  0.5983 -0.1183
  255MOL0     H35175  10.552   1.901   5.626  0.6039 -0.2464  0.2569
  255MOL0     H35176  10.294   1.817   5.461  0.4125  1.8310  1.6939
  255MOL0     H35177  10.204   1.685   5.287  0.3674  2.2150 -1.7778
  255MOL0     H35178  10.036   1.527   5.218 -0.4796 -0.3569 -0.3577
  255MOL0     H35179   9.876   1.587   5.282 -1.0387 -1.3234 -0.3367
  255MOL0     H35180   9.953   1.535   4.986 -2.4632  0.4755 -2.1439
  255MOL0     H35181   9.807   1.604   5.038 -0.0035 -0.7372 -0.1618
  255MOL0     H35182   9.918   1.317   5.113  2.1329  2.5379  1.1329
  255MOL0     H35183   9.788   1.397   5.188 -0.9920  1.3562 -0.9414
  255MOL0     H35184   9.674   1.430   4.966 -1.1750  0.3086  1.0087
  255MOL0     H35185   9.684   1.266   5.010 -1.0681 -0.2701 -0.0132
  255MOL0     H35186   9.967   1.226   4.706  0.4920 -0.5590  1.8468
  255MOL0     H35187   9.892   1.962   5.227 -1.8631 -3.6969 -0.9870
  255MOL0     H35188   9.903   2.116   5.519  1.7279  1.5796  0.8260
  255MOL0     H35189  10.012   2.212   5.431 -1.9203  1.5785  1.9482
  255MOL0     H35190   9.876   2.141   5.338  1.2442  0.3599 -1.6265
  256MOL0     O35191   2.136   3.991   2.749  0.4474  0.0940  0.0785
  256MOL0     C35192   2.030   3.980   2.685 -0.1012  0.3098 -0.1576
  256MOL0     O35193   2.012   3.904   2.574  0.7018 -0.4441 -0.0530
  256MOL0     C35194   2.088   3.799   2.548 -0.0861  0.4187  0.3876
  256MOL0     C35195   2.148   3.716   2.649 -1.0827 -0.1057  0.2337
  256MOL0     C35196   2.226   3.614   2.604  0.0434  0.1726 -0.3573
  256MOL0     C35197   2.244   3.587   2.464 -0.6404  0.5530  0.6125
  256MOL0     O35198   2.328   3.492   2.407  0.0206  0.3155 -0.3638
  256MOL0     C35199   2.392   3.394   2.491  0.4948  0.1073 -0.5780
  256MOL0     C35200   2.523   3.343   2.434  0.3926  0.2258  0.2752
  256MOL0     C35201   2.567   3.227   2.522  0.3697 -0.3576 -0.4110
  256MOL0     C35202   2.699   3.169   2.458 -1.2353 -0.2668 -0.5529
  256MOL0     C35203   2.761   3.066   2.555 -0.0913 -0.1208 -0.0589
  256MOL0     C35204   2.881   3.014   2.478 -0.0541  0.7940  0.1991
  256MOL0     C35205   2.979   2.923   2.566  0.4021  0.3759 -0.6498
  256MOL0     C35206   3.106   2.873   2.486  0.3735  0.3238  0.2311
  256MOL0     N35207   3.217   2.832   2.582  0.4043  0.6167  0.7288
  256MOL0     C35208   3.215   2.714   2.655  0.1444  0.8597  0.1705
  256MOL0     C35209   3.316   2.716   2.747 -0.2683 -0.1839 -0.3254
  256MOL0     C35210   3.362   2.608   2.853 -0.5513 -0.1490  0.2545
  256MOL0     C35211   3.493   2.545   2.797 -0.8643 -0.5071  0.5042
  256MOL0     C35212   3.631   2.611   2.828 -0.1678  0.0377 -0.3830
  256MOL0     C35213   3.718   2.576   2.706 -0.1012  0.0777 -1.1818
  256MOL0     O35214   3.778   2.449   2.719  0.7241  0.7936  0.7790
  256MOL0     C35215   3.854   2.402   2.615  0.6785 -0.1623  0.2465
  256MOL0     C35216   3.891   2.470   2.503  0.0608  0.7588 -0.9215
  256MOL0     C35217   3.972   2.407   2.403  0.0818 -0.2652  0.0312
  256MOL0     C35218   3.993   2.491   2.276  0.3386  0.6831 -0.8373
  256MOL0     C35219   4.021   2.279   2.428  1.0345  0.0683  0.0646
  256MOL0     C35220   4.117   2.210   2.333  0.1702 -0.3191  0.2156
  256MOL0     O35221   4.190   2.103   2.389  0.4406 -0.0514 -0.1222
  256MOL0     C35222   4.309   2.067   2.328  0.1690 -0.6126 -0.1365
  256MOL0     C35223   4.317   1.939   2.278  0.2505  0.6420 -0.3305
  256MOL0     C35224   4.439   1.903   2.220  1.2232 -0.9034 -0.1569
  256MOL0     C35225   4.548   1.990   2.217 -0.3941 -0.5389  1.1713
  256MOL0     O35226   4.648   1.937   2.146 -0.4069 -0.3881 -0.6687
  256MOL0     C35227   4.778   2.010   2.141 -0.1129 -0.3457 -0.0716
  256MOL0     C35228   4.878   1.937   2.057  0.0723  1.1414  0.9123
  256MOL0     C35229   4.999   2.023   2.029  0.0512 -0.5861  0.4547
  256MOL0     C35230   5.092   1.950   1.937  1.1363  0.2200  0.4899
  256MOL0     C35231   5.201   2.043   1.875  0.1415  0.5062 -0.3175
  256MOL0     C35232   5.318   1.970   1.806  0.7440  0.5807 -0.2707
  256MOL0     C35233   5.445   2.058   1.808 -0.5363  1.0116  0.0057
  256MOL0     C35234   5.570   1.968   1.784 -0.7189 -0.2398  0.0148
  256MOL0    Cl35235   5.615   1.879   1.930 -0.5163  0.2773 -0.2666
  256MOL0     C35236   4.540   2.121   2.270 -1.1066  0.7070  0.5767
  256MOL0     C35237   4.423   2.150   2.336 -0.4636  0.4335  0.1759
  256MOL0     O35238   4.134   2.255   2.217  0.3080  0.1914  0.3721
  256MOL0     C35239   3.984   2.216   2.551  0.4622 -0.0806  0.2805
  256MOL0     C35240   3.901   2.281   2.643 -1.2403  0.1805 -0.3320
  256MOL0     N35241   3.377   2.844   2.729 -0.5689  0.8211  0.2500
  256MOL0     N35242   3.317   2.910   2.634 -0.0882  0.2640 -0.0780
  256MOL0     C35243   2.165   3.657   2.375 -0.1115  0.2668 -1.7175
  256MOL0     C35244   2.100   3.770   2.413  0.6561 -0.5603 -0.6494
  256MOL0     C35245   1.921   4.080   2.705 -0.1059  0.3054 -1.3716
  256MOL0     C35246   1.850   4.108   2.588 -0.1429  0.9868 -0.9699
  256MOL0     C35247   1.740   4.197   2.591  0.6451 -0.4258  1.1431
  256MOL0     C35248   1.698   4.264   2.707  0.6655 -1.6812 -0.5129
  256MOL0     O35249   1.579   4.334   2.699  0.5555 -0.2036  0.2812
  256MOL0     C35250   1.520   4.375   2.816 -0.0330 -0.4208 -0.4303
  256MOL0     C35251   1.375   4.440   2.781  0.7624  0.3398 -0.5063
  256MOL0     C35252   1.400   4.565   2.704 -1.0919 -0.1603  0.2175
  256MOL0     C35253   1.275   4.634   2.688  1.1146 -0.8384 -0.0060
  256MOL0     C35254   1.288   4.742   2.600  0.3120 -0.3551 -0.6910
  256MOL0     C35255   1.315   4.840   2.518  0.5572 -0.4263 -0.5095
  256MOL0     C35256   1.785   4.249   2.817 -0.1817 -0.6901 -0.7366
  256MOL0     C35257   1.898   4.162   2.822  0.0775  0.1557  0.3059
  256MOL0     C35258   1.972   4.156   2.957  0.2847  0.5960 -0.0100
  256MOL0     H35259   2.128   3.734   2.755 -2.4251 -1.8825  0.3308
  256MOL0     H35260   2.284   3.559   2.677 -2.0195 -1.7379 -0.0208
  256MOL0     H35261   2.313   3.320   2.506  1.4195 -0.4120  2.2570
  256MOL0     H35262   2.420   3.421   2.593  0.0880 -1.7282  0.0452
  256MOL0     H35263   2.503   3.302   2.334  0.7232 -1.8953  1.0331
  256MOL0     H35264   2.601   3.418   2.423  2.7365 -2.0526  0.4002
  256MOL0     H35265   2.589   3.261   2.624 -1.1717  3.6592 -1.2741
  256MOL0     H35266   2.502   3.139   2.528  1.8389 -1.6079 -1.7413
  256MOL0     H35267   2.681   3.115   2.364  0.2238 -0.3055 -0.8276
  256MOL0     H35268   2.778   3.244   2.459 -2.1033  0.6993  2.0421
  256MOL0     H35269   2.686   2.993   2.589  1.6493 -1.2748  1.4897
  256MOL0     H35270   2.796   3.117   2.645  0.9091 -0.7644 -0.0696
  256MOL0     H35271   2.834   2.950   2.403  1.3179  0.7334 -0.6375
  256MOL0     H35272   2.928   3.095   2.423 -1.3570  0.0190 -2.1878
  256MOL0     H35273   2.921   2.840   2.607 -0.8408  1.1770 -0.7197
  256MOL0     H35274   3.018   2.988   2.646 -1.3298 -0.1853  0.7289
  256MOL0     H35275   3.077   2.794   2.417  0.9724 -0.3348  0.7148
  256MOL0     H35276   3.146   2.952   2.422  3.7787 -0.6592  0.9550
  256MOL0     H35277   3.151   2.630   2.632 -0.8790  1.1360  1.8439
  256MOL0     H35278   3.290   2.534   2.888 -1.1623  0.5675  0.5221
  256MOL0     H35279   3.384   2.650   2.952 -0.0151 -0.3353  0.2219
  256MOL0     H35280   3.504   2.441   2.830 -2.1004 -2.3909 -4.1858
  256MOL0     H35281   3.470   2.532   2.691 -2.4031 -3.3333  1.0916
  256MOL0     H35282   3.623   2.719   2.841  1.3676 -0.0076  1.1852
  256MOL0     H35283   3.680   2.573   2.917  0.9963  0.2366 -0.9147
  256MOL0     H35284   3.670   2.586   2.608  1.1762  1.4352 -1.7193
  256MOL0     H35285   3.801   2.646   2.719  0.0615 -0.3778  0.4770
  256MOL0     H35286   3.839   2.562   2.477 -0.8948  0.5800  0.2476
  256MOL0     H35287   4.100   2.502   2.260  0.5740 -0.0102  0.2259
  256MOL0     H35288   3.946   2.590   2.280 -1.1511 -0.0197  2.0049
  256MOL0     H35289   3.957   2.424   2.198 -0.1697 -0.7924  0.6230
  256MOL0     H35290   4.226   1.880   2.275  0.4781  0.1306  1.5603
  256MOL0     H35291   4.443   1.810   2.165  2.4693 -1.5403  0.9508
  256MOL0     H35292   4.763   2.110   2.099  2.9536  0.5486  0.7039
  256MOL0     H35293   4.820   2.020   2.241  0.6296  0.2079 -0.4266
  256MOL0     H35294   4.905   1.849   2.116 -0.9322  1.7439  2.3454
  256MOL0     H35295   4.836   1.902   1.963 -2.3024  2.4149  1.4038
  256MOL0     H35296   5.057   2.042   2.120  0.4127 -0.6299  0.2352
  256MOL0     H35297   4.963   2.112   1.977  0.9312 -0.5000 -0.0308
  256MOL0     H35298   5.040   1.899   1.856 -2.7835 -1.1239  3.5682
  256MOL0     H35299   5.140   1.867   1.990  2.7554  0.1411 -1.0069
  256MOL0     H35300   5.144   2.098   1.800 -0.2811 -0.9641 -1.1226
  256MOL0     H35301   5.239   2.112   1.950  1.3903  2.7535 -2.8319
  256MOL0     H35302   5.287   1.953   1.702 -1.0068  0.9296  0.1606
  256MOL0     H35303   5.335   1.875   1.858 -1.9375 -0.2382 -0.7492
  256MOL0     H35304   5.446   2.121   1.897 -2.3873  2.3642 -0.8667
  256MOL0     H35305   5.448   2.127   1.724  1.3873  2.3134  1.0568
  256MOL0     H35306   5.650   2.040   1.765 -0.6809 -0.7770 -2.0415
  256MOL0     H35307   5.568   1.901   1.697  2.9192  0.2159 -0.5814
  256MOL0     H35308   4.621   2.193   2.261  0.6799 -1.1570  1.0444
  256MOL0     H35309   4.403   2.235   2.400 -0.2646 -1.3433  2.7972
  256MOL0     H35310   4.031   2.121   2.576 -0.5461 -1.0743 -1.4156
  256MOL0     H35311   3.861   2.234   2.732 -2.1907 -0.0189 -0.8519
  256MOL0     H35312   2.164   3.643   2.268  1.8239  0.3304 -1.7844
  256MOL0     H35313   2.057   3.837   2.338 -2.3270 -1.9932 -0.3641
  256MOL0     H35314   1.848   4.060   2.490 -2.6082 -0.9183 -0.1025
  256MOL0     H35315   1.685   4.218   2.499 -0.1096  1.4422  1.9662
  256MOL0     H35316   1.513   4.293   2.889  1.9996  0.4943  0.8707
  256MOL0     H35317   1.573   4.456   2.867  1.8703 -2.1635  0.4655
  256MOL0     H35318   1.311   4.460   2.868 -2.0959  0.2695 -2.4854
  256MOL0     H35319   1.317   4.367   2.725  1.0869 -0.1798 -0.1786
  256MOL0     H35320   1.468   4.624   2.766 -1.1359  1.9443 -1.6197
  256MOL0     H35321   1.447   4.552   2.606 -1.6977  0.4469 -0.1593
  256MOL0     H35322   1.228   4.672   2.780  0.1829 -2.3829  0.1856
  256MOL0     H35323   1.200   4.572   2.639  0.7592  0.8944 -1.8172
  256MOL0     H35324   1.355   4.929   2.474  1.1016 -0.0234  0.7602
  256MOL0     H35325   1.749   4.311   2.899  0.6852 -1.8644  0.5760
  256MOL0     H35326   1.934   4.228   3.030 -0.0614  1.7625 -1.2835
  256MOL0     H35327   1.976   4.056   3.000  0.7499  0.6710  0.1218
  256MOL0     H35328   2.076   4.187   2.941  0.7500 -1.1067 -0.4528
  257MOL0     O35329   9.636   8.128   0.954  0.3981 -0.4748 -1.1780
  257MOL0     C35330   9.685   8.196   0.863  0.0044  0.0348 -0.3012
  257MOL0     O35331   9.782   8.153   0.776 -0.0686  0.1392 -0.4934
  257MOL0     C35332   9.865   8.058   0.833 -0.0324 -0.9189  0.4141
  257MOL0     C35333   9.851   7.924   0.802  0.2845 -0.5983  0.3807
  257MOL0     C35334   9.953   7.836   0.852  1.1814  0.3071  0.4950
  257MOL0     C35335  10.052   7.888   0.934 -0.4300  0.0335 -0.0064
  257MOL0     O35336  10.147   7.799   0.997  0.1722  0.0861  0.6362
  257MOL0     C35337  10.104   7.663   1.015  0.6571  0.2783  0.1943
  257MOL0     C35338  10.151   7.625   1.158  0.0990 -0.4932 -0.2261
  257MOL0     C35339  10.095   7.480   1.187 -0.3331 -0.4105 -0.1237
  257MOL0     C35340  10.157   7.420   1.307  0.6486 -0.2671  0.4787
  257MOL0     C35341  10.075   7.296   1.344 -0.5334  0.0392 -0.8480
  257MOL0     C35342  10.152   7.209   1.454  0.5037 -0.2871 -0.0244
  257MOL0     C35343  10.107   7.062   1.487 -0.2394 -0.8106 -1.2207
  257MOL0     C35344   9.958   7.061   1.526 -0.4131 -0.1761  0.1787
  257MOL0     N35345   9.937   6.950   1.632  0.4739 -0.0326  0.2331
  257MOL0     C35346   9.984   6.821   1.629  0.4800  0.4816  0.0726
  257MOL0     C35347   9.953   6.769   1.747 -0.3211  0.0567  0.9242
  257MOL0     C35348   9.996   6.632   1.779  0.5433  0.9011 -0.2871
  257MOL0     C35349   9.895   6.534   1.840 -0.2546  0.9143 -0.3111
  257MOL0     C35350   9.966   6.397   1.857  1.3184  0.5384 -0.4975
  257MOL0     C35351   9.894   6.291   1.942  0.3086  0.3910 -0.4254
  257MOL0     O35352   9.983   6.196   1.985  0.2730  0.0003  0.3232
  257MOL0     C35353   9.950   6.116   2.090  0.4997 -0.6463  0.4495
  257MOL0     C35354   9.820   6.081   2.127 -0.1514 -0.8119  0.2369
  257MOL0     C35355   9.788   6.012   2.248  0.0140  0.4488  0.5480
  257MOL0     C35356   9.640   5.992   2.265 -0.5558  0.0412  0.6141
  257MOL0     C35357   9.899   5.972   2.324 -0.1818  0.5525 -0.3009
  257MOL0     C35358   9.878   5.895   2.448 -0.2223  0.4682 -0.6760
  257MOL0     O35359   9.977   5.918   2.546  0.4298 -0.5712  0.3561
  257MOL0     C35360   9.954   5.884   2.678  0.2749 -0.8047  1.1973
  257MOL0     C35361   9.989   5.755   2.712 -0.0538 -0.5879 -0.2230
  257MOL0     C35362   9.973   5.702   2.838 -0.1602 -0.3849 -0.4354
  257MOL0     C35363   9.929   5.788   2.942 -0.5299  0.0736  0.5443
  257MOL0     O35364   9.922   5.761   3.078  0.2816  0.0608  0.4398
  257MOL0     C35365   9.993   5.650   3.134  0.8885 -0.3723 -1.1914
  257MOL0     C35366  10.014   5.664   3.287  0.0710  0.0516  0.7749
  257MOL0     C35367  10.108   5.769   3.335  0.4044 -0.1384 -0.6765
  257MOL0     C35368  10.041   5.910   3.367 -0.2616  1.2741 -0.6640
  257MOL0     C35369  10.150   6.003   3.423  0.0990  0.9330  0.3889
  257MOL0     C35370  10.102   6.101   3.525  0.0231  1.0824 -0.0519
  257MOL0     C35371   9.974   6.179   3.490  0.0523 -0.2974  0.2159
  257MOL0     C35372   9.893   6.234   3.614  0.3756 -0.3000  0.6751
  257MOL0    Cl35373   9.833   6.086   3.703 -0.0230  0.1892  0.3121
  257MOL0     C35374   9.902   5.922   2.912 -0.3133 -0.1449  0.0402
  257MOL0     C35375   9.911   5.973   2.782 -0.1206  1.2964  0.6870
  257MOL0     O35376   9.792   5.807   2.449 -0.6967 -0.2665 -0.1915
  257MOL0     C35377  10.032   6.016   2.287  0.2578  0.4029  0.3844
  257MOL0     C35378  10.056   6.087   2.171 -0.0436  0.0004  0.1429
  257MOL0     N35379   9.896   6.865   1.827 -1.2376 -0.5034  0.0106
  257MOL0     N35380   9.882   6.969   1.756  0.6543 -0.1982 -0.1782
  257MOL0     C35381  10.061   8.024   0.957  0.2006  0.0329 -0.1785
  257MOL0     C35382   9.966   8.105   0.911  0.1346 -0.4758  0.4847
  257MOL0     C35383   9.625   8.323   0.825 -0.1789 -0.0954  0.0939
  257MOL0     C35384   9.690   8.418   0.745 -0.4507  0.0515 -0.1569
  257MOL0     C35385   9.629   8.540   0.707  0.3540 -0.1517  0.0812
  257MOL0     C35386   9.499   8.569   0.752 -0.2858 -0.7636 -0.6449
  257MOL0     O35387   9.421   8.671   0.714 -0.6652  0.0708 -0.2933
  257MOL0     C35388   9.449   8.756   0.602  0.0307 -0.2001 -1.0921
  257MOL0     C35389   9.531   8.881   0.629  0.5192 -0.1674 -0.1351
  257MOL0     C35390   9.463   9.003   0.700  1.3568  0.4983  0.1772
  257MOL0     C35391   9.565   9.107   0.745 -0.2011 -0.1378 -0.5704
  257MOL0     C35392   9.667   9.136   0.639  0.1679  0.8839 -0.1254
  257MOL0     C35393   9.735   9.148   0.538 -0.4704 -0.0927 -0.6748
  257MOL0     C35394   9.435   8.484   0.835 -0.1451 -0.2501 -0.2098
  257MOL0     C35395   9.496   8.362   0.877 -0.4725 -0.1135 -0.1927
  257MOL0     C35396   9.417   8.284   0.982  0.7481  0.2242  0.1906
  257MOL0     H35397   9.767   7.889   0.744 -0.3758  0.6893  0.5212
  257MOL0     H35398   9.959   7.732   0.822 -0.7527  0.5256 -0.8037
  257MOL0     H35399  10.148   7.604   0.934 -0.1164 -0.6595  0.4328
  257MOL0     H35400   9.996   7.651   1.004  0.7712  0.4608 -1.2760
  257MOL0     H35401  10.259   7.644   1.165 -0.0126 -0.4886  3.5408
  257MOL0     H35402  10.096   7.675   1.238 -1.6681 -2.4468 -0.1363
  257MOL0     H35403   9.986   7.483   1.192 -0.3276 -0.2434 -0.1009
  257MOL0     H35404  10.114   7.408   1.107 -0.3365  0.1385 -0.6189
  257MOL0     H35405  10.258   7.391   1.277  0.3417  0.4393 -1.4146
  257MOL0     H35406  10.167   7.499   1.382 -0.4276  2.0917 -1.6695
  257MOL0     H35407  10.068   7.227   1.260 -0.4027  1.8241 -2.3758
  257MOL0     H35408   9.975   7.322   1.380  0.2857  1.8587  0.2253
  257MOL0     H35409  10.252   7.196   1.413 -0.1507 -3.2202 -0.9473
  257MOL0     H35410  10.162   7.264   1.548  0.0518  1.1068 -0.7816
  257MOL0     H35411  10.165   7.020   1.569 -0.8349 -4.2512 -2.3850
  257MOL0     H35412  10.110   6.988   1.406 -0.9510 -2.5421  0.2637
  257MOL0     H35413   9.952   7.152   1.587  0.9386  1.4466 -1.9388
  257MOL0     H35414   9.884   7.066   1.445 -0.8525  3.0794  0.6347
  257MOL0     H35415  10.027   6.768   1.544 -0.6212 -0.9906  0.3901
  257MOL0     H35416  10.078   6.643   1.851  0.8437  1.0598 -0.6522
  257MOL0     H35417  10.040   6.583   1.692 -0.7078 -4.3274  1.6645
  257MOL0     H35418   9.866   6.572   1.939  1.2995 -2.4985  1.6415
  257MOL0     H35419   9.806   6.515   1.779 -0.4670 -0.5482  0.3974
  257MOL0     H35420  10.005   6.353   1.765 -1.4125 -0.6174 -1.1958
  257MOL0     H35421  10.054   6.422   1.918  0.5344 -0.9215  1.3347
  257MOL0     H35422   9.845   6.341   2.026 -1.3652 -0.2160 -1.0001
  257MOL0     H35423   9.808   6.246   1.891 -1.5086  0.5748  2.2919
  257MOL0     H35424   9.742   6.118   2.062  1.3124  0.8383 -0.6717
  257MOL0     H35425   9.616   5.940   2.358  2.5700 -0.3783  1.2809
  257MOL0     H35426   9.606   5.940   2.174 -0.1011 -0.3502  0.6653
  257MOL0     H35427   9.587   6.087   2.256 -0.6546 -0.2097 -3.7675
  257MOL0     H35428  10.031   5.698   2.630  0.6726  2.4070 -2.0944
  257MOL0     H35429  10.006   5.599   2.850  0.1141 -0.4401 -1.5493
  257MOL0     H35430   9.938   5.556   3.126  0.9775 -0.6598  1.0352
  257MOL0     H35431  10.093   5.633   3.093  2.5173 -2.2638  3.0324
  257MOL0     H35432   9.915   5.667   3.334 -0.7209  0.4831 -0.8566
  257MOL0     H35433  10.059   5.570   3.320  2.3958  1.7516  2.8856
  257MOL0     H35434  10.207   5.777   3.289  1.5296 -2.4046  1.1311
  257MOL0     H35435  10.135   5.737   3.436  1.6352 -0.5178 -1.1104
  257MOL0     H35436   9.963   5.894   3.441  0.2085 -2.6838 -0.8371
  257MOL0     H35437   9.988   5.954   3.282 -1.8681 -0.5381 -0.6526
  257MOL0     H35438  10.226   5.947   3.479  0.5200  1.2351  0.1250
  257MOL0     H35439  10.201   6.048   3.338 -2.9329  0.0071 -2.0806
  257MOL0     H35440  10.178   6.177   3.541  0.6349  0.4137  0.2813
  257MOL0     H35441  10.084   6.048   3.619 -2.0938  0.6310 -0.6368
  257MOL0     H35442   9.897   6.120   3.439 -0.5890  1.4030 -0.8893
  257MOL0     H35443  10.004   6.260   3.422 -0.1325 -1.2067 -0.9976
  257MOL0     H35444   9.804   6.283   3.575  1.1984 -0.0045 -0.9316
  257MOL0     H35445   9.946   6.305   3.677 -0.9149 -0.1439  1.6361
  257MOL0     H35446   9.872   5.994   2.987 -0.1135  0.5090 -0.5025
  257MOL0     H35447   9.887   6.077   2.759 -2.0268  1.2897  2.3943
  257MOL0     H35448  10.123   5.981   2.335  0.3348 -2.7144 -1.7205
  257MOL0     H35449  10.156   6.116   2.141 -0.7472  1.0169 -1.3959
  257MOL0     H35450  10.126   8.068   1.032 -1.6675  0.0844  1.4740
  257MOL0     H35451   9.976   8.212   0.921  2.7571 -0.5874 -0.2529
  257MOL0     H35452   9.792   8.393   0.716 -0.9191 -3.0496  0.4975
  257MOL0     H35453   9.689   8.617   0.659 -0.3571  0.0943 -0.4282
  257MOL0     H35454   9.496   8.687   0.531  0.5702 -4.7818  3.1780
  257MOL0     H35455   9.359   8.786   0.547  0.1347 -0.6770 -1.5302
  257MOL0     H35456   9.538   8.909   0.523 -4.4743  0.3121 -0.5839
  257MOL0     H35457   9.623   8.848   0.679  0.0418  2.0883  2.4840
  257MOL0     H35458   9.377   9.040   0.642 -0.2558 -1.9855  0.8374
  257MOL0     H35459   9.419   8.950   0.785 -0.6149 -1.4046 -1.8907
  257MOL0     H35460   9.611   9.070   0.838 -1.8810  0.3983  0.5309
  257MOL0     H35461   9.512   9.198   0.773 -1.6943 -0.9523 -0.6515
  257MOL0     H35462   9.792   9.155   0.447 -1.4679  1.2270 -1.2328
  257MOL0     H35463   9.332   8.509   0.858 -1.1991 -2.5339 -2.0525
  257MOL0     H35464   9.477   8.258   1.070  2.4259 -3.2155 -1.7290
  257MOL0     H35465   9.336   8.346   1.020  1.8858  1.7799  0.2044
  257MOL0     H35466   9.371   8.193   0.941 -3.0241  2.3403 -0.6848
  258MOL0     O35467   2.273   1.615  10.804  0.4430  0.1042  0.4000
  258MOL0     C35468   2.299   1.730  10.760  1.1160  0.7396  0.4033
  258MOL0     O35469   2.347   1.762  10.637  0.0055  0.2477  0.2994
  258MOL0     C35470   2.340   1.674  10.537  0.2942 -0.4280  0.2752
  258MOL0     C35471   2.226   1.598  10.500  0.5690 -0.4460 -1.0710
  258MOL0     C35472   2.231   1.530  10.376 -0.1715  0.1240 -0.7087
  258MOL0     C35473   2.333   1.536  10.289 -0.4071 -0.7117  0.2844
  258MOL0     O35474   2.317   1.479  10.164 -0.6989 -0.2573  0.2153
  258MOL0     C35475   2.432   1.434  10.091 -0.4146 -0.9462  0.4233
  258MOL0     C35476   2.387   1.381   9.945 -0.1006  0.7646  0.6539
  258MOL0     C35477   2.316   1.237   9.942  0.3912  0.1392  0.0990
  258MOL0     C35478   2.384   1.129  10.033  0.0546  0.2737 -0.2606
  258MOL0     C35479   2.531   1.099  10.009 -0.8572 -0.7195 -0.1330
  258MOL0     C35480   2.548   1.003   9.894 -0.8010 -0.8922  0.2879
  258MOL0     C35481   2.704   0.982   9.879  0.3024 -0.4575  0.3382
  258MOL0     C35482   2.746   0.889   9.771  0.5038 -0.4987  0.8716
  258MOL0     N35483   2.761   0.955   9.636 -0.1617  0.2391 -0.6467
  258MOL0     C35484   2.671   1.012   9.549 -0.1605  0.3292  0.1550
  258MOL0     C35485   2.748   1.037   9.449 -1.2680  0.2203  0.2147
  258MOL0     C35486   2.717   1.124   9.334  0.6663 -0.9483  0.1076
  258MOL0     C35487   2.780   1.263   9.373  0.6301 -0.3256  0.8500
  258MOL0     C35488   2.691   1.385   9.320 -0.4243 -0.7607 -0.3200
  258MOL0     C35489   2.706   1.409   9.174 -0.2413 -0.4453  1.2987
  258MOL0     O35490   2.848   1.429   9.147  0.9913 -0.3747 -0.4513
  258MOL0     C35491   2.894   1.421   9.027 -0.2332 -0.2139  0.9378
  258MOL0     C35492   2.843   1.500   8.916  0.3921  0.6208 -0.5879
  258MOL0     C35493   2.908   1.511   8.794 -0.0879  0.3433  0.4677
  258MOL0     C35494   2.827   1.558   8.684 -0.3049 -0.1976  0.7930
  258MOL0     C35495   3.030   1.442   8.781 -1.3506  0.1577  0.7453
  258MOL0     C35496   3.108   1.438   8.641  0.6835 -0.4432 -0.6259
  258MOL0     O35497   3.073   1.535   8.555  0.3688  0.2876  0.6533
  258MOL0     C35498   3.097   1.523   8.423  0.5086 -0.6922  0.2215
  258MOL0     C35499   3.228   1.511   8.363 -1.1692 -0.3189  0.6574
  258MOL0     C35500   3.252   1.526   8.225 -0.1568 -0.2150 -0.0394
  258MOL0     C35501   3.141   1.544   8.141 -1.0224  0.2386 -0.3002
  258MOL0     O35502   3.136   1.547   8.005  0.2510 -0.5904  0.4445
  258MOL0     C35503   3.262   1.549   7.938  1.1604  1.1012  0.5409
  258MOL0     C35504   3.222   1.550   7.791  0.5075 -0.3915  1.1327
  258MOL0     C35505   3.194   1.692   7.740 -0.3961 -0.1384 -0.2219
  258MOL0     C35506   3.138   1.690   7.597 -0.4008  0.0015  0.2415
  258MOL0     C35507   3.126   1.832   7.538  0.2228 -0.3482 -0.1996
  258MOL0     C35508   3.028   1.835   7.416 -0.5273 -0.2528  0.1816
  258MOL0     C35509   3.020   1.982   7.371  0.3167  0.4497 -0.0181
  258MOL0     C35510   2.960   2.015   7.238  0.3463  0.1899  0.1740
  258MOL0    Cl35511   2.787   1.976   7.245  0.3272  0.0380  0.2743
  258MOL0     C35512   3.015   1.568   8.200 -0.2695 -0.3542 -0.2995
  258MOL0     C35513   2.996   1.559   8.338  0.0588  0.2678 -0.3167
  258MOL0     O35514   3.183   1.345   8.615  0.2788  0.1113  0.1419
  258MOL0     C35515   3.081   1.373   8.890  0.1696 -0.3647 -0.6567
  258MOL0     C35516   3.011   1.354   9.009 -1.0220 -0.2112 -0.8491
  258MOL0     N35517   2.875   0.994   9.455  0.1710  1.0386  0.0505
  258MOL0     N35518   2.885   0.948   9.580 -0.2256  0.3823  0.4804
  258MOL0     C35519   2.448   1.600  10.333  1.0391 -1.0254  0.9646
  258MOL0     C35520   2.456   1.665  10.459 -0.1822 -0.0235 -0.4773
  258MOL0     C35521   2.248   1.854  10.838 -0.6226 -0.1287  0.4488
  258MOL0     C35522   2.182   1.951  10.768  0.4243  0.1273  0.1136
  258MOL0     C35523   2.126   2.057  10.838 -0.2918 -0.3894  0.5428
  258MOL0     C35524   2.144   2.076  10.974  0.1213 -1.7750 -0.6376
  258MOL0     O35525   2.084   2.179  11.054  0.3981  0.0759 -0.4830
  258MOL0     C35526   2.069   2.305  10.985  0.5425 -0.6439  0.0685
  258MOL0     C35527   1.914   2.328  10.946 -0.6985  0.4696  1.0303
  258MOL0     C35528   1.897   2.458  10.866 -0.5644 -0.0327 -0.5703
  258MOL0     C35529   1.945   2.589  10.927  0.6304  0.7939  0.8780
  258MOL0     C35530   1.873   2.713  10.887  0.3093  0.3074  0.4682
  258MOL0     C35531   1.818   2.815  10.876 -0.1406 -0.5749 -0.2049
  258MOL0     C35532   2.227   1.994  11.042  0.3150 -0.2060  0.2800
  258MOL0     C35533   2.279   1.877  10.977  0.1471 -0.0518 -0.2438
  258MOL0     C35534   2.381   1.804  11.053  0.7487 -0.0663 -0.6041
  258MOL0     H35535   2.142   1.574  10.565  0.9698 -2.2762 -1.1699
  258MOL0     H35536   2.147   1.464  10.356  1.9643 -2.5082 -1.5872
  258MOL0     H35537   2.491   1.355  10.136  0.7794 -0.4569 -0.2386
  258MOL0     H35538   2.501   1.518  10.080  0.6237 -1.6375  1.4235
  258MOL0     H35539   2.330   1.453   9.885 -0.4132 -0.4833 -0.5960
  258MOL0     H35540   2.477   1.390   9.883 -0.5753  2.0479  0.1154
  258MOL0     H35541   2.212   1.250   9.973  0.2378 -1.7788  0.5202
  258MOL0     H35542   2.325   1.188   9.845  3.9651  0.4920  0.0993
  258MOL0     H35543   2.375   1.151  10.140 -2.2465 -4.2902  0.7433
  258MOL0     H35544   2.327   1.038  10.013  0.6032  0.1969 -1.5353
  258MOL0     H35545   2.568   1.042  10.095 -1.3465  0.2272  0.7172
  258MOL0     H35546   2.595   1.188  10.010  0.3740 -1.5745  0.1841
  258MOL0     H35547   2.489   0.914   9.921  0.0907 -1.0418  1.8373
  258MOL0     H35548   2.513   1.046   9.800  2.1719 -0.9090 -0.9407
  258MOL0     H35549   2.743   0.946   9.975 -0.7150  0.0033  0.9332
  258MOL0     H35550   2.754   1.077   9.860  1.0079 -1.5114 -4.3199
  258MOL0     H35551   2.847   0.854   9.795  0.5720 -2.7070 -2.0556
  258MOL0     H35552   2.675   0.806   9.773 -0.8556  0.6185  0.4832
  258MOL0     H35553   2.568   1.045   9.560  0.3401  1.7343  0.8628
  258MOL0     H35554   2.609   1.127   9.319  0.4837 -2.6321  0.8001
  258MOL0     H35555   2.754   1.086   9.238 -0.0088 -2.7980  0.5342
  258MOL0     H35556   2.794   1.274   9.481  1.1278  0.3031  0.7250
  258MOL0     H35557   2.879   1.268   9.327  0.2425  1.8782  0.1190
  258MOL0     H35558   2.585   1.359   9.330 -1.1577  2.4089  1.2100
  258MOL0     H35559   2.714   1.475   9.377 -3.6932  0.6524 -0.9960
  258MOL0     H35560   2.669   1.320   9.123 -1.9740  0.6464  0.5577
  258MOL0     H35561   2.640   1.494   9.153 -0.7410 -1.0947  0.1466
  258MOL0     H35562   2.748   1.546   8.943 -0.6866 -2.7356  2.1380
  258MOL0     H35563   2.821   1.487   8.601  0.6707  1.2637 -0.5755
  258MOL0     H35564   2.861   1.648   8.632  0.0249 -0.4941  0.4925
  258MOL0     H35565   2.725   1.574   8.722 -1.2898  0.3116 -1.8398
  258MOL0     H35566   3.312   1.505   8.432 -0.3670  0.5593 -0.2107
  258MOL0     H35567   3.351   1.512   8.182 -1.0077 -1.6034 -1.6580
  258MOL0     H35568   3.327   1.632   7.969  3.0372 -1.0375  2.7407
  258MOL0     H35569   3.321   1.458   7.949 -0.3536 -0.3144 -2.0885
  258MOL0     H35570   3.298   1.500   7.730 -1.0786 -0.2656 -1.0575
  258MOL0     H35571   3.131   1.490   7.780 -0.0471  0.9190 -3.0021
  258MOL0     H35572   3.286   1.751   7.749  0.8126 -2.1680  2.0164
  258MOL0     H35573   3.111   1.737   7.795  0.9638  0.3195  1.5555
  258MOL0     H35574   3.040   1.643   7.605  1.4251 -3.8278  2.8813
  258MOL0     H35575   3.205   1.640   7.527  1.4033  0.7444  1.3747
  258MOL0     H35576   3.083   1.891   7.619  1.6946  0.0103  0.3477
  258MOL0     H35577   3.220   1.879   7.512 -0.3021 -0.7685 -3.1787
  258MOL0     H35578   2.932   1.786   7.431  0.5038 -2.7971 -1.0362
  258MOL0     H35579   3.083   1.784   7.337 -1.1213  0.1568 -0.5122
  258MOL0     H35580   3.120   2.027   7.371  0.8282 -0.6516  0.1715
  258MOL0     H35581   2.963   2.038   7.446  1.3641  1.7422 -0.1342
  258MOL0     H35582   3.005   1.940   7.173  0.7027 -0.0564  0.7003
  258MOL0     H35583   2.964   2.115   7.194 -1.1084  1.3308  2.3999
  258MOL0     H35584   2.939   1.586   8.125  0.4396 -1.6371 -1.3899
  258MOL0     H35585   2.898   1.577   8.382 -0.0793 -1.7006  0.2784
  258MOL0     H35586   3.180   1.331   8.879  0.7560  0.4147  1.2984
  258MOL0     H35587   3.056   1.309   9.097  0.2797 -0.9363 -1.8426
  258MOL0     H35588   2.532   1.623  10.268 -0.2536  3.1361  0.4459
  258MOL0     H35589   2.548   1.714  10.491  0.1791  0.5900 -2.3577
  258MOL0     H35590   2.147   1.925  10.669  0.2085 -0.3823  0.3181
  258MOL0     H35591   2.057   2.120  10.784  0.3776  0.1226  0.2741
  258MOL0     H35592   2.097   2.375  11.064  1.7891 -0.7440 -0.2648
  258MOL0     H35593   2.137   2.317  10.900  1.6226 -1.1236  0.8500
  258MOL0     H35594   1.851   2.345  11.034 -1.0107 -0.5124  1.0030
  258MOL0     H35595   1.870   2.240  10.899 -1.0698 -0.1469  2.4685
  258MOL0     H35596   1.947   2.451  10.769 -0.6918 -2.6376 -0.5238
  258MOL0     H35597   1.791   2.474  10.844 -0.6021  1.3471  0.5164
  258MOL0     H35598   2.052   2.604  10.909  0.5799  3.1326  2.0823
  258MOL0     H35599   1.933   2.573  11.034 -2.7881 -0.2483  0.4549
  258MOL0     H35600   1.775   2.913  10.866  3.6320  1.3901  1.0416
  258MOL0     H35601   2.256   2.014  11.145 -1.2287 -0.0403  0.7045
  258MOL0     H35602   2.390   1.707  11.004 -1.3502 -0.9840  0.7040
  258MOL0     H35603   2.480   1.852  11.054 -0.3552  2.3411 -0.1254
  258MOL0     H35604   2.349   1.778  11.154  1.5073 -0.2631 -0.4094
  259MOL0     O35605   7.642   4.588   1.989  0.1505 -0.4396  0.5393
  259MOL0     C35606   7.739   4.606   1.916  0.2125  0.2319 -0.0594
  259MOL0     O35607   7.857   4.538   1.927  0.4123  0.7508  0.6041
  259MOL0     C35608   7.897   4.511   2.055  0.5469  0.4306 -0.7513
  259MOL0     C35609   7.909   4.381   2.086  0.2222  0.0603  0.0905
  259MOL0     C35610   7.945   4.341   2.210  0.2811 -0.7357 -0.5443
  259MOL0     C35611   7.983   4.427   2.307 -0.1732 -0.0579  0.0850
  259MOL0     O35612   8.013   4.361   2.427 -0.6896 -0.4586 -0.4261
  259MOL0     C35613   8.108   4.438   2.508 -0.2863  0.0639 -0.2216
  259MOL0     C35614   8.245   4.479   2.444 -0.7769  0.1758 -0.3384
  259MOL0     C35615   8.317   4.357   2.380 -0.0422  0.1496  0.5454
  259MOL0     C35616   8.463   4.388   2.345 -0.2661  0.3315 -1.0911
  259MOL0     C35617   8.536   4.259   2.314  0.3580  0.1552 -0.1318
  259MOL0     C35618   8.684   4.283   2.307 -0.0208  0.9874  0.1830
  259MOL0     C35619   8.769   4.158   2.329 -0.3364  0.5427 -0.0698
  259MOL0     C35620   8.906   4.190   2.377  0.0296  0.2634  0.3136
  259MOL0     N35621   8.888   4.199   2.526 -0.4887 -1.1769  0.7183
  259MOL0     C35622   8.859   4.088   2.599 -0.4966  0.0426 -0.0792
  259MOL0     C35623   8.833   4.132   2.722 -0.6793 -0.7148  0.5867
  259MOL0     C35624   8.790   4.043   2.841  0.6261 -1.1927  0.1525
  259MOL0     C35625   8.690   3.929   2.795 -0.1389  0.4133 -0.5834
  259MOL0     C35626   8.572   3.965   2.713  0.8210  0.7628 -0.2418
  259MOL0     C35627   8.490   4.079   2.770 -0.1273 -0.1386 -0.7757
  259MOL0     O35628   8.428   4.038   2.893  0.7485  0.0228  0.1219
  259MOL0     C35629   8.390   4.139   2.987  0.4174 -0.1822  0.2112
  259MOL0     C35630   8.308   4.237   2.940  0.3684 -0.0921  0.0626
  259MOL0     C35631   8.240   4.326   3.027 -0.8600  0.4089  0.5813
  259MOL0     C35632   8.141   4.427   2.968 -0.1263 -0.3234  0.5821
  259MOL0     C35633   8.257   4.305   3.165  2.0626  0.1496 -0.3536
  259MOL0     C35634   8.172   4.386   3.254 -0.8410  0.4074  0.0003
  259MOL0     O35635   8.071   4.319   3.320  0.0093  0.2690  0.3598
  259MOL0     C35636   7.990   4.390   3.402  0.3024 -0.2482  0.7455
  259MOL0     C35637   7.857   4.415   3.357  1.4984 -0.1922  0.1222
  259MOL0     C35638   7.774   4.486   3.447 -0.1522  0.4550 -0.2429
  259MOL0     C35639   7.822   4.535   3.568  0.1797  0.5518  0.1419
  259MOL0     O35640   7.745   4.610   3.648 -0.2828 -0.4521 -0.6679
  259MOL0     C35641   7.774   4.590   3.793  0.4154 -0.6304 -0.5037
  259MOL0     C35642   7.648   4.647   3.869 -0.0801 -0.1764  0.8671
  259MOL0     C35643   7.580   4.778   3.808  0.8004  0.8003 -1.2437
  259MOL0     C35644   7.478   4.751   3.692 -0.3501 -0.7341 -1.1097
  259MOL0     C35645   7.416   4.875   3.628 -0.0278  0.0351  0.4428
  259MOL0     C35646   7.326   4.952   3.725  0.0994  0.1242  0.5172
  259MOL0     C35647   7.293   5.082   3.663 -0.0098 -0.8530  0.1861
  259MOL0     C35648   7.192   5.172   3.737  0.7842  0.4846 -0.4707
  259MOL0    Cl35649   7.274   5.226   3.883  0.0276 -0.2789 -0.0817
  259MOL0     C35650   7.959   4.521   3.599 -0.4718  0.8268 -0.4058
  259MOL0     C35651   8.038   4.448   3.518 -0.5808  0.0748 -0.6590
  259MOL0     O35652   8.203   4.503   3.267 -0.1311  0.1424 -1.0456
  259MOL0     C35653   8.332   4.202   3.213  0.1150 -0.6272  0.5603
  259MOL0     C35654   8.406   4.122   3.118 -0.5685  0.6119 -0.1759
  259MOL0     N35655   8.844   4.273   2.717  0.3057 -0.1971 -0.5888
  259MOL0     N35656   8.865   4.307   2.592  0.4640  1.0490  0.2562
  259MOL0     C35657   7.977   4.566   2.287  0.1245 -0.3828 -0.2112
  259MOL0     C35658   7.920   4.607   2.161  0.3624  0.1379  1.1769
  259MOL0     C35659   7.721   4.679   1.787  0.0191 -0.5780 -0.2617
  259MOL0     C35660   7.826   4.684   1.697  0.0312  0.1217  0.7379
  259MOL0     C35661   7.817   4.734   1.567 -0.0658  0.4828  0.4543
  259MOL0     C35662   7.694   4.787   1.528 -1.0856 -0.5993 -0.0594
  259MOL0     O35663   7.657   4.842   1.410 -0.4419 -0.1305 -0.1808
  259MOL0     C35664   7.758   4.843   1.306 -0.0149 -0.3658 -0.6591
  259MOL0     C35665   7.823   4.981   1.302 -0.0957  0.1060 -1.2865
  259MOL0     C35666   7.712   5.073   1.248  0.4801 -0.7216 -1.0446
  259MOL0     C35667   7.760   5.213   1.255 -0.0661  0.5817 -0.3925
  259MOL0     C35668   7.663   5.315   1.224  0.2774  0.7849 -1.3615
  259MOL0     C35669   7.585   5.399   1.207  0.0464 -0.7067  0.0132
  259MOL0     C35670   7.593   4.801   1.624 -0.1227 -0.4424 -0.7181
  259MOL0     C35671   7.596   4.740   1.748 -0.7323 -0.0771  1.2371
  259MOL0     C35672   7.464   4.734   1.830 -0.5949 -0.2726  1.0752
  259MOL0     H35673   7.880   4.311   2.009  0.1081  0.9573 -0.6971
  259MOL0     H35674   7.931   4.236   2.234  0.3426 -1.1098 -2.0191
  259MOL0     H35675   8.133   4.383   2.600 -0.6365 -0.8912 -0.6907
  259MOL0     H35676   8.058   4.527   2.547  1.1369  1.5408 -1.6337
  259MOL0     H35677   8.220   4.550   2.364  3.9462 -0.2830 -2.5060
  259MOL0     H35678   8.308   4.529   2.518 -0.6339 -2.2084  1.2539
  259MOL0     H35679   8.313   4.271   2.448  1.7582 -0.7819 -0.4354
  259MOL0     H35680   8.268   4.327   2.287  1.1712 -1.2965  0.3314
  259MOL0     H35681   8.456   4.459   2.263 -3.9403  0.9415 -0.4264
  259MOL0     H35682   8.508   4.432   2.435 -0.4863 -3.9123  1.4052
  259MOL0     H35683   8.495   4.214   2.223 -2.9063 -1.0377  1.7565
  259MOL0     H35684   8.504   4.193   2.395  0.4344  0.5674  0.2392
  259MOL0     H35685   8.706   4.329   2.211  3.9959 -2.1725 -0.7041
  259MOL0     H35686   8.708   4.354   2.387  1.2950  1.3647 -0.5175
  259MOL0     H35687   8.779   4.104   2.234  2.3311 -0.3719  0.6399
  259MOL0     H35688   8.718   4.082   2.389 -1.8169  0.8436 -0.8795
  259MOL0     H35689   8.975   4.109   2.354 -0.1728 -0.5594  2.3654
  259MOL0     H35690   8.935   4.285   2.331  0.6814 -1.0692 -2.2050
  259MOL0     H35691   8.854   3.986   2.562  1.4943 -0.5535  1.1173
  259MOL0     H35692   8.736   4.110   2.909 -0.4759 -1.8465 -0.0599
  259MOL0     H35693   8.879   3.997   2.883  3.3469  2.3217 -1.2430
  259MOL0     H35694   8.745   3.855   2.736 -0.3300  1.2592 -1.8548
  259MOL0     H35695   8.648   3.885   2.886 -3.0166 -1.6202 -2.6812
  259MOL0     H35696   8.599   3.976   2.608 -1.9661 -0.6263 -1.2161
  259MOL0     H35697   8.510   3.876   2.699  0.9476  0.4526  1.0018
  259MOL0     H35698   8.549   4.172   2.773  0.9842 -0.8471  0.0492
  259MOL0     H35699   8.404   4.100   2.705 -1.5181 -0.1281  1.0064
  259MOL0     H35700   8.297   4.247   2.833 -0.3021  1.6208  0.2474
  259MOL0     H35701   8.124   4.405   2.862  1.5285  0.3389  0.1334
  259MOL0     H35702   8.193   4.523   2.978  1.9121 -1.3378  0.4535
  259MOL0     H35703   8.043   4.419   3.016  0.2226  2.2174  1.9173
  259MOL0     H35704   7.811   4.397   3.261  1.3992  2.6079 -0.4561
  259MOL0     H35705   7.671   4.503   3.418  0.3909  1.5371 -1.6480
  259MOL0     H35706   7.804   4.488   3.818  1.5409 -0.0628  0.5749
  259MOL0     H35707   7.856   4.658   3.819  0.4076 -1.4627  1.9472
  259MOL0     H35708   7.575   4.566   3.875  2.4001 -2.4213  5.1106
  259MOL0     H35709   7.680   4.661   3.972  0.4278  4.0991  0.3333
  259MOL0     H35710   7.653   4.851   3.774  0.3371  2.7063  1.5329
  259MOL0     H35711   7.520   4.818   3.890  2.7327  1.3828 -0.0722
  259MOL0     H35712   7.411   4.674   3.732 -0.1633  1.3742  3.9838
  259MOL0     H35713   7.532   4.693   3.616  0.0255 -1.9787  0.0700
  259MOL0     H35714   7.497   4.941   3.595 -1.3972  0.7970 -1.5700
  259MOL0     H35715   7.360   4.843   3.540 -1.5382  0.8934  1.0652
  259MOL0     H35716   7.373   4.965   3.822  0.3095 -2.5991  0.8669
  259MOL0     H35717   7.235   4.892   3.734 -0.1560  0.6414  1.4957
  259MOL0     H35718   7.256   5.076   3.560  0.3095  3.5804 -0.3888
  259MOL0     H35719   7.383   5.143   3.648 -1.6224  1.8751  0.7587
  259MOL0     H35720   7.103   5.115   3.765  0.4863  2.2145  2.4489
  259MOL0     H35721   7.172   5.251   3.665 -0.4194 -0.0583 -0.7520
  259MOL0     H35722   7.998   4.560   3.692 -1.7319 -0.4450  0.7139
  259MOL0     H35723   8.139   4.428   3.552 -1.8769 -0.1530  3.6736
  259MOL0     H35724   8.345   4.187   3.320 -0.2617  2.1326  1.0752
  259MOL0     H35725   8.467   4.037   3.146 -0.7158  1.2857  2.5013
  259MOL0     H35726   8.003   4.641   2.361  3.1110 -3.4651  2.1576
  259MOL0     H35727   7.921   4.711   2.130 -1.3822 -0.5735 -1.5963
  259MOL0     H35728   7.921   4.640   1.727  0.2330  0.2968  0.3530
  259MOL0     H35729   7.910   4.735   1.510 -0.3484 -2.0676 -0.1749
  259MOL0     H35730   7.831   4.762   1.309 -0.6325 -0.9659 -1.4505
  259MOL0     H35731   7.702   4.817   1.216  0.7379 -3.7578 -0.2811
  259MOL0     H35732   7.894   4.978   1.219 -0.1725 -0.2196 -1.3431
  259MOL0     H35733   7.863   5.010   1.399 -4.9028  1.4794  0.5529
  259MOL0     H35734   7.679   5.035   1.150 -0.8480 -1.7982 -0.2122
  259MOL0     H35735   7.630   5.065   1.319  1.7178  1.0200  0.6784
  259MOL0     H35736   7.844   5.228   1.187  0.5249 -2.0957 -0.3771
  259MOL0     H35737   7.797   5.231   1.357 -0.6861  3.5278 -0.5994
  259MOL0     H35738   7.529   5.486   1.182  0.6218  0.0193  1.1484
  259MOL0     H35739   7.501   4.847   1.589 -0.5435 -1.5807 -1.1722
  259MOL0     H35740   7.396   4.810   1.788  1.6410  1.7902  0.9956
  259MOL0     H35741   7.422   4.633   1.824 -1.2124  0.0187  0.2823
  259MOL0     H35742   7.488   4.753   1.935 -0.9536 -0.2346  1.1526
  260MOL0     O35743   7.437  10.616  11.087 -0.3038  0.1444 -0.0345
  260MOL0     C35744   7.548  10.592  11.048 -0.3621 -0.3402 -0.7394
  260MOL0     O35745   7.588  10.594  10.924 -0.2641  0.4281 -0.1249
  260MOL0     C35746   7.515  10.621  10.810 -0.5790 -0.4194 -0.7875
  260MOL0     C35747   7.585  10.657  10.698  0.6149 -0.5341 -0.1083
  260MOL0     C35748   7.505  10.674  10.576 -0.0355  0.1789 -0.7968
  260MOL0     C35749   7.368  10.660  10.573 -0.8302 -0.6236  0.1064
  260MOL0     O35750   7.296  10.680  10.462  0.3043  0.1872  0.0995
  260MOL0     C35751   7.334  10.626  10.334  0.5631 -0.0917 -0.4001
  260MOL0     C35752   7.216  10.540  10.275 -0.7263 -1.2865 -0.5683
  260MOL0     C35753   7.083  10.605  10.293  0.7136 -0.1402  0.4944
  260MOL0     C35754   6.967  10.515  10.244 -0.1956  0.0911  0.4730
  260MOL0     C35755   6.994  10.410  10.139 -0.1760 -0.3035  0.7639
  260MOL0     C35756   6.857  10.362  10.083 -0.3856  0.0452  0.0519
  260MOL0     C35757   6.883  10.247   9.987  0.4475  0.2526  0.4021
  260MOL0     C35758   6.750  10.197   9.928 -0.5669  0.7919 -0.0461
  260MOL0     N35759   6.687  10.285   9.835  0.8154  0.5000  0.2183
  260MOL0     C35760   6.552  10.292   9.819 -0.8997  0.7777 -0.0756
  260MOL0     C35761   6.538  10.382   9.720 -0.0866  0.2717  0.3878
  260MOL0     C35762   6.418  10.435   9.650  0.9575  0.1346  0.0462
  260MOL0     C35763   6.414  10.410   9.501 -0.3674  0.0413  0.1950
  260MOL0     C35764   6.316  10.507   9.432 -0.4676 -0.2140 -0.5112
  260MOL0     C35765   6.175  10.520   9.497  0.2191 -0.5004  0.2433
  260MOL0     O35766   6.111  10.395   9.484  0.5798 -0.2881  0.4459
  260MOL0     C35767   5.978  10.385   9.500 -0.1751 -0.0507 -0.1949
  260MOL0     C35768   5.895  10.469   9.576 -0.6756 -0.2382  0.5484
  260MOL0     C35769   5.755  10.441   9.603 -0.8697 -0.0861  0.7716
  260MOL0     C35770   5.662  10.545   9.672 -0.6346  0.7831 -0.0423
  260MOL0     C35771   5.698  10.326   9.547  0.8478  0.6261 -0.4006
  260MOL0     C35772   5.560  10.283   9.567  0.4630  0.2323  0.3456
  260MOL0     O35773   5.506  10.189   9.483 -0.2267  0.2758  0.4365
  260MOL0     C35774   5.384  10.135   9.513  0.5797  0.0102  0.1851
  260MOL0     C35775   5.353  10.008   9.563  0.2344 -0.9176  0.2004
  260MOL0     C35776   5.217   9.968   9.587 -0.7882  0.2092 -0.0915
  260MOL0     C35777   5.106  10.051   9.551 -0.5415  0.6172  0.0911
  260MOL0     O35778   4.970  10.009   9.553 -0.4836 -0.3325  0.0189
  260MOL0     C35779   4.946   9.878   9.503  1.0981 -0.1347 -0.3366
  260MOL0     C35780   4.801   9.834   9.515 -0.7470  0.6471 -0.4226
  260MOL0     C35781   4.761   9.815   9.662  0.5472 -0.6911 -0.1717
  260MOL0     C35782   4.728   9.674   9.703 -1.2127  0.2778 -0.0175
  260MOL0     C35783   4.687   9.660   9.852 -0.7948  0.0005 -0.4333
  260MOL0     C35784   4.738   9.528   9.904  1.0690  0.0375 -0.8849
  260MOL0     C35785   4.709   9.495  10.051 -1.0962 -1.0268 -0.0744
  260MOL0     C35786   4.767   9.360  10.095  0.0530 -0.7443 -0.8251
  260MOL0    Cl35787   4.703   9.224  10.011 -0.5508  0.2748  0.0946
  260MOL0     C35788   5.138  10.185   9.505 -0.0415 -0.4347  0.6777
  260MOL0     C35789   5.271  10.217   9.484  0.4508 -0.5096  0.2819
  260MOL0     O35790   5.511  10.298   9.680 -0.2140 -0.0862  0.6237
  260MOL0     C35791   5.775  10.251   9.460  0.5880  0.3244  0.3286
  260MOL0     C35792   5.913  10.280   9.435 -0.6115  0.9474  0.1036
  260MOL0     N35793   6.660  10.434   9.683 -0.1316  0.2707 -0.2205
  260MOL0     N35794   6.746  10.369   9.747  0.4466 -0.0512 -0.0547
  260MOL0     C35795   7.311  10.621  10.690  1.0304  0.3421  1.2730
  260MOL0     C35796   7.379  10.601  10.800 -0.6914 -0.4573 -0.4596
  260MOL0     C35797   7.660  10.557  11.157  0.4642  0.1060 -0.4247
  260MOL0     C35798   7.789  10.551  11.111  0.1669 -0.2429 -0.3822
  260MOL0     C35799   7.892  10.503  11.185  1.6733 -0.8879 -0.9015
  260MOL0     C35800   7.861  10.456  11.310  0.3377 -0.3491 -0.4362
  260MOL0     O35801   7.973  10.397  11.375 -0.0310 -0.0688  0.0508
  260MOL0     C35802   7.949  10.328  11.502  0.1920 -0.0577  0.3396
  260MOL0     C35803   8.041  10.211  11.522  0.2377  0.7964 -0.1729
  260MOL0     C35804   8.024  10.122  11.651  0.6436  0.0291 -0.4417
  260MOL0     C35805   8.113  10.005  11.656  0.2524 -0.2110 -0.2368
  260MOL0     C35806   8.137   9.944  11.789 -0.4964 -0.4707 -0.4988
  260MOL0     C35807   8.143   9.896  11.901  0.2647 -0.2054  0.3394
  260MOL0     C35808   7.732  10.461  11.365 -1.2755 -0.2821  0.2778
  260MOL0     C35809   7.630  10.509  11.289 -0.3168 -0.3577 -0.1008
  260MOL0     C35810   7.493  10.509  11.348 -0.0098 -0.2399 -0.0084
  260MOL0     H35811   7.689  10.688  10.700  0.3737  0.6277 -2.4615
  260MOL0     H35812   7.569  10.683  10.489  0.7531  2.9134 -0.0371
  260MOL0     H35813   7.424  10.564  10.338 -0.0474 -1.5151 -3.9859
  260MOL0     H35814   7.365  10.702  10.261 -1.6032  1.4180  0.1401
  260MOL0     H35815   7.233  10.518  10.169 -0.1728  0.2652 -0.8246
  260MOL0     H35816   7.220  10.441  10.321  3.3499 -0.8919  0.2324
  260MOL0     H35817   7.061  10.632  10.396  1.9966  0.6531  0.5835
  260MOL0     H35818   7.084  10.700  10.238  0.9710  0.9928  2.3661
  260MOL0     H35819   6.910  10.477  10.328 -0.2478  1.5178  1.1075
  260MOL0     H35820   6.904  10.590  10.194 -0.5054 -1.0923 -0.9726
  260MOL0     H35821   7.054  10.327  10.178 -1.4544 -2.4694 -1.4877
  260MOL0     H35822   7.056  10.448  10.058 -2.7478 -0.8776 -1.6664
  260MOL0     H35823   6.789  10.328  10.161 -0.0491 -1.0851 -0.1288
  260MOL0     H35824   6.810  10.444  10.027  0.4060  0.4414 -0.0448
  260MOL0     H35825   6.920  10.157  10.038 -0.3174 -1.3746 -1.7835
  260MOL0     H35826   6.949  10.272   9.904  0.3013  1.0258  0.5173
  260MOL0     H35827   6.775  10.103   9.878 -1.2610 -0.8413  2.4920
  260MOL0     H35828   6.680  10.177  10.009  0.7216  1.0761  1.1611
  260MOL0     H35829   6.478  10.230   9.868  0.0021  0.1488  0.5227
  260MOL0     H35830   6.426  10.541   9.676  1.0054  0.2719 -0.5151
  260MOL0     H35831   6.333  10.378   9.689  2.1050 -1.6579  0.0704
  260MOL0     H35832   6.515  10.426   9.461 -1.2947  2.1346 -1.5336
  260MOL0     H35833   6.397  10.303   9.483 -0.9323 -0.4393  3.1245
  260MOL0     H35834   6.366  10.604   9.428 -1.2174  0.1434 -1.5707
  260MOL0     H35835   6.305  10.477   9.328 -2.0370 -2.1676  0.1595
  260MOL0     H35836   6.169  10.569   9.594 -1.0045  1.2668 -0.6649
  260MOL0     H35837   6.116  10.587   9.433  1.1685 -0.1405 -0.2788
  260MOL0     H35838   5.936  10.561   9.617 -0.8698 -0.3852  1.0721
  260MOL0     H35839   5.717  10.634   9.704 -0.4394 -0.5016  3.7611
  260MOL0     H35840   5.605  10.503   9.755 -1.5952 -0.2290 -1.1747
  260MOL0     H35841   5.588  10.580   9.599  0.4852  0.2141 -1.4936
  260MOL0     H35842   5.423   9.933   9.597  2.3322  1.3547  1.2367
  260MOL0     H35843   5.193   9.867   9.619 -0.9081  0.1746 -0.2881
  260MOL0     H35844   4.971   9.878   9.396 -1.1847  3.2981 -1.0106
  260MOL0     H35845   5.003   9.810   9.567  2.5373  3.1258  2.1156
  260MOL0     H35846   4.737   9.916   9.480  0.8176  2.1995  0.2411
  260MOL0     H35847   4.792   9.735   9.468  1.3356 -0.0406  0.5103
  260MOL0     H35848   4.671   9.877   9.669  1.7113  1.5487 -3.0917
  260MOL0     H35849   4.834   9.867   9.726  2.5826 -3.1071 -0.3876
  260MOL0     H35850   4.822   9.619   9.696 -0.9123  0.6437  1.0502
  260MOL0     H35851   4.655   9.634   9.631 -1.9430  1.4298  0.0591
  260MOL0     H35852   4.720   9.743   9.916 -2.8065  2.2934 -2.2075
  260MOL0     H35853   4.578   9.662   9.853 -0.8792 -0.9960 -2.7232
  260MOL0     H35854   4.847   9.524   9.892  1.1869  0.2898  0.0176
  260MOL0     H35855   4.694   9.453   9.837 -0.8688  1.8521 -1.7367
  260MOL0     H35856   4.605   9.488  10.086  0.2872 -1.1565  4.7208
  260MOL0     H35857   4.754   9.579  10.105 -1.7306 -0.6354 -0.1415
  260MOL0     H35858   4.739   9.352  10.200 -0.4937  2.3878 -0.6370
  260MOL0     H35859   4.876   9.367  10.087  0.0253 -1.4826 -2.1130
  260MOL0     H35860   5.058  10.247   9.466  0.7699 -0.4738 -1.1651
  260MOL0     H35861   5.292  10.300   9.417  1.0159 -1.7355 -1.0983
  260MOL0     H35862   5.732  10.161   9.417  0.6569  0.0135  0.8977
  260MOL0     H35863   5.972  10.214   9.371 -1.6080 -0.1657  0.2879
  260MOL0     H35864   7.203  10.606  10.689  0.8940  1.0698 -0.6385
  260MOL0     H35865   7.319  10.578  10.888 -2.7657  0.3462 -1.6067
  260MOL0     H35866   7.810  10.582  11.009 -1.9817  2.9848  0.0109
  260MOL0     H35867   7.993  10.501  11.147  2.8470  2.6435  1.5186
  260MOL0     H35868   7.958  10.401  11.582 -1.5362  1.2089 -0.5544
  260MOL0     H35869   7.848  10.284  11.503  0.4114 -0.5714  0.8728
  260MOL0     H35870   8.140  10.257  11.528  2.0151 -2.7744  4.7076
  260MOL0     H35871   8.035  10.146  11.435 -0.1658 -1.3485  1.3572
  260MOL0     H35872   8.054  10.190  11.732 -1.2082  0.3738  0.0073
  260MOL0     H35873   7.917  10.105  11.667  0.7025 -0.4170 -0.5150
  260MOL0     H35874   8.213  10.016  11.614 -0.7641 -0.1746 -2.8391
  260MOL0     H35875   8.061   9.930  11.596 -2.0511  1.2266 -0.1710
  260MOL0     H35876   8.146   9.868  12.004 -5.5406 -2.5230  0.2540
  260MOL0     H35877   7.699  10.432  11.464 -0.1908  3.3855  1.8898
  260MOL0     H35878   7.472  10.473  11.449 -1.2882  3.3517  1.1844
  260MOL0     H35879   7.462  10.614  11.349  0.3909 -0.0963 -1.1724
  260MOL0     H35880   7.426  10.454  11.281  1.5032 -0.7504 -1.1682
  261MOL0     O35881   4.586   6.767  11.442  0.5206  0.0112 -0.0118
  261MOL0     C35882   4.466   6.751  11.421 -0.1131 -0.4532  0.5092
  261MOL0     O35883   4.405   6.744  11.297 -0.1174 -0.0367  0.3290
  261MOL0     C35884   4.457   6.710  11.172 -0.0110  0.1661  0.7935
  261MOL0     C35885   4.393   6.765  11.055  0.9984 -0.2741  0.5093
  261MOL0     C35886   4.439   6.737  10.924 -0.6245 -0.1755 -0.7140
  261MOL0     C35887   4.564   6.675  10.906  0.8133  0.5614  0.9853
  261MOL0     O35888   4.627   6.667  10.782  0.3172 -0.1987 -0.7721
  261MOL0     C35889   4.559   6.655  10.655 -0.8176  0.2009  0.6516
  261MOL0     C35890   4.443   6.556  10.632 -0.3626 -0.6703 -1.1859
  261MOL0     C35891   4.489   6.405  10.646  0.2081  0.3816 -0.1338
  261MOL0     C35892   4.543   6.368  10.774  0.2720  0.2804  0.0033
  261MOL0     C35893   4.542   6.213  10.779 -0.0788 -0.7148  0.0703
  261MOL0     C35894   4.582   6.165  10.917  0.2108 -0.5453  0.2612
  261MOL0     C35895   4.539   6.024  10.957 -0.0260 -0.2199  0.1378
  261MOL0     C35896   4.598   5.917  10.858  0.3786  0.9377 -0.1378
  261MOL0     N35897   4.750   5.935  10.840  0.0558 -0.9816  0.2647
  261MOL0     C35898   4.801   5.982  10.720 -0.3541 -0.2150  0.6064
  261MOL0     C35899   4.916   6.048  10.763  0.6943  1.1548  0.4806
  261MOL0     C35900   5.008   6.122  10.672  0.3202  0.2705  0.7026
  261MOL0     C35901   5.036   6.035  10.547  0.2326 -0.2624  0.6039
  261MOL0     C35902   5.155   6.103  10.472  0.3390 -0.6150  0.5593
  261MOL0     C35903   5.183   6.041  10.330  0.4509 -0.4657  0.1980
  261MOL0     O35904   5.285   6.110  10.250  0.4474 -0.0710 -0.1150
  261MOL0     C35905   5.416   6.090  10.278  0.1121  0.3288 -0.2628
  261MOL0     C35906   5.510   6.164  10.201  0.7214 -0.5748 -0.3202
  261MOL0     C35907   5.653   6.141  10.207 -0.7453 -0.2099 -0.2677
  261MOL0     C35908   5.745   6.229  10.114 -0.2480 -0.0250  0.0863
  261MOL0     C35909   5.697   6.049  10.306 -0.2061  0.2100 -0.3645
  261MOL0     C35910   5.840   6.010  10.328 -0.7343 -0.9030 -0.1057
  261MOL0     O35911   5.930   6.042  10.225 -0.6443  1.2248  0.1432
  261MOL0     C35912   6.062   6.011  10.238 -0.7756 -0.2469 -0.7843
  261MOL0     C35913   6.139   5.961  10.346  0.0592 -0.3503 -0.4656
  261MOL0     C35914   6.276   5.933  10.334 -0.5353  0.9589  0.4011
  261MOL0     C35915   6.339   5.944  10.212 -0.6468  0.2375 -0.0178
  261MOL0     O35916   6.469   5.910  10.199 -0.7499 -0.2793  0.0264
  261MOL0     C35917   6.564   5.935  10.305  0.0161 -0.2800 -0.6350
  261MOL0     C35918   6.693   5.849  10.284 -0.6239 -0.0760  0.4551
  261MOL0     C35919   6.784   5.872  10.163  0.1464 -0.3887 -0.0312
  261MOL0     C35920   6.845   6.012  10.140 -0.5855 -0.2562  0.3265
  261MOL0     C35921   6.930   6.054  10.267 -0.3546 -0.2346  0.0382
  261MOL0     C35922   7.017   6.177  10.233  0.5370  0.6319  0.9261
  261MOL0     C35923   7.140   6.150  10.161  0.6797 -0.3792  0.8838
  261MOL0     C35924   7.251   6.075  10.234 -0.2693 -0.4693  0.0360
  261MOL0    Cl35925   7.407   6.085  10.136  0.3081  0.1322 -0.0477
  261MOL0     C35926   6.261   5.977  10.096 -0.0188 -0.5216 -0.0302
  261MOL0     C35927   6.122   6.014  10.114 -0.3902 -0.1857 -1.1317
  261MOL0     O35928   5.866   5.981  10.443 -0.1823  0.0015  0.0777
  261MOL0     C35929   5.600   5.986  10.385  0.3033  0.2753  1.1060
  261MOL0     C35930   5.465   6.000  10.370 -1.2296 -0.6667 -1.0692
  261MOL0     N35931   4.937   6.030  10.898  0.2015  0.1082  0.2108
  261MOL0     N35932   4.833   5.955  10.941 -0.2053 -0.0622  1.2441
  261MOL0     C35933   4.619   6.618  11.018 -0.6175 -0.8692 -0.4828
  261MOL0     C35934   4.574   6.643  11.152 -0.5114  1.1861  0.3174
  261MOL0     C35935   4.381   6.696  11.530  0.2259 -0.2284  0.0151
  261MOL0     C35936   4.397   6.745  11.658 -0.3823 -0.5281 -0.2832
  261MOL0     C35937   4.322   6.698  11.770 -0.2774 -0.0049 -0.4110
  261MOL0     C35938   4.211   6.614  11.754 -0.0165  0.0858  0.2753
  261MOL0     O35939   4.132   6.566  11.857 -0.4589 -0.0021 -0.0691
  261MOL0     C35940   4.159   6.616  11.991 -0.6621 -0.1094  0.7502
  261MOL0     C35941   4.286   6.541  12.047  1.1223 -0.3441  0.1499
  261MOL0     C35942   4.289   6.572  12.194  0.0820  0.7170  0.4205
  261MOL0     C35943   4.384   6.694  12.231 -0.3952 -0.2616 -0.0089
  261MOL0     C35944   4.345   6.820  12.163  0.1000 -0.6994  0.4018
  261MOL0     C35945   4.342   6.926  12.101  0.7789  0.0073 -0.3353
  261MOL0     C35946   4.198   6.556  11.626  0.1063 -0.4989  0.6183
  261MOL0     C35947   4.279   6.593  11.518  0.8700  0.2813 -0.2781
  261MOL0     C35948   4.235   6.543  11.386  0.4773  0.3076  0.3648
  261MOL0     H35949   4.306   6.829  11.060  3.5627  3.4780  1.3579
  261MOL0     H35950   4.378   6.759  10.838 -1.5921 -1.4046 -0.3763
  261MOL0     H35951   4.635   6.633  10.580 -1.4325 -3.3002  0.8858
  261MOL0     H35952   4.525   6.752  10.618 -1.9345 -0.6715 -0.7014
  261MOL0     H35953   4.364   6.580  10.704 -0.1401 -0.8937 -0.8587
  261MOL0     H35954   4.396   6.569  10.534  0.7300 -2.7070 -2.0475
  261MOL0     H35955   4.411   6.340  10.605  2.3673 -1.2583 -1.9514
  261MOL0     H35956   4.568   6.386  10.572  0.2684 -1.6051  0.3825
  261MOL0     H35957   4.649   6.394  10.781  0.9905 -1.7483 -2.1487
  261MOL0     H35958   4.482   6.405  10.857 -1.1259 -0.0924 -0.8312
  261MOL0     H35959   4.602   6.174  10.697 -1.1648 -0.9431 -0.6310
  261MOL0     H35960   4.437   6.183  10.766 -1.5359  2.9433  1.8392
  261MOL0     H35961   4.691   6.169  10.920  0.2165  0.4130 -0.6622
  261MOL0     H35962   4.542   6.240  10.986  0.0941  1.9883 -2.3420
  261MOL0     H35963   4.430   6.024  10.950 -0.1427 -2.2329  1.2502
  261MOL0     H35964   4.558   5.999  11.062 -3.5301  3.3692  1.8920
  261MOL0     H35965   4.586   5.814  10.894  1.4114  0.6975 -0.4280
  261MOL0     H35966   4.550   5.908  10.761  1.9511 -2.5527 -0.7601
  261MOL0     H35967   4.760   5.977  10.619 -0.7931 -0.2340  0.7843
  261MOL0     H35968   5.102   6.146  10.722 -0.3078 -0.4169  2.2819
  261MOL0     H35969   4.963   6.215  10.634 -1.1251 -0.3481  0.8226
  261MOL0     H35970   5.069   5.934  10.575  3.6829  1.2571  2.7759
  261MOL0     H35971   4.960   6.019  10.470  0.1384 -1.9371  1.0057
  261MOL0     H35972   5.136   6.210  10.460 -2.1584 -1.0968 -0.4547
  261MOL0     H35973   5.251   6.087  10.523  0.7865 -3.7648 -1.0124
  261MOL0     H35974   5.209   5.936  10.345  0.3841 -0.5849 -0.5161
  261MOL0     H35975   5.089   6.038  10.275  0.6673 -3.1506 -0.1702
  261MOL0     H35976   5.469   6.241  10.136  2.3862  0.2609 -0.4411
  261MOL0     H35977   5.683   6.309  10.072  0.2616  0.5996  0.5015
  261MOL0     H35978   5.783   6.175  10.028 -1.0420  2.9381 -2.3118
  261MOL0     H35979   5.831   6.265  10.171  2.8670 -0.8453 -3.6981
  261MOL0     H35980   6.107   5.948  10.449  1.1559  1.4183  0.1424
  261MOL0     H35981   6.314   5.902  10.431 -2.4771  1.1401  1.2753
  261MOL0     H35982   6.581   6.043  10.309 -1.5301  0.0602 -1.9947
  261MOL0     H35983   6.526   5.893  10.399 -1.3220 -1.9577 -1.8647
  261MOL0     H35984   6.749   5.870  10.375  1.2456  1.0431 -0.8850
  261MOL0     H35985   6.662   5.744  10.289 -0.0783 -0.2773 -0.2604
  261MOL0     H35986   6.727   5.855  10.072 -0.7174  1.7207  0.0622
  261MOL0     H35987   6.867   5.802  10.171  0.0384 -0.4140  1.0736
  261MOL0     H35988   6.758   6.073  10.112  0.5893  0.0458 -3.1178
  261MOL0     H35989   6.909   6.028  10.052  4.2905  3.9401  3.9837
  261MOL0     H35990   6.873   6.090  10.353  0.7552  0.9606  0.2986
  261MOL0     H35991   6.985   5.966  10.301  2.4529  0.7529 -1.5576
  261MOL0     H35992   7.039   6.229  10.326 -0.5770 -0.8948  2.0830
  261MOL0     H35993   6.951   6.242  10.174  0.1611  1.6286  2.3771
  261MOL0     H35994   7.172   6.238  10.103 -0.7515 -1.3555 -1.5510
  261MOL0     H35995   7.107   6.080  10.083  1.9960 -0.0200 -0.0279
  261MOL0     H35996   7.216   5.972  10.242 -2.6767  0.0751 -2.0857
  261MOL0     H35997   7.266   6.121  10.333  4.9613 -1.2762 -0.1204
  261MOL0     H35998   6.301   5.995   9.997 -2.3893 -2.2680 -1.4219
  261MOL0     H35999   6.054   6.059  10.043 -2.6052 -0.2627  0.8319
  261MOL0     H36000   5.628   5.926  10.472 -2.0912  1.9524  3.1849
  261MOL0     H36001   5.415   5.950  10.452 -1.1031 -1.2460 -1.3448
  261MOL0     H36002   4.709   6.557  11.009 -0.5164 -0.8166  0.1042
  261MOL0     H36003   4.630   6.587  11.226  1.7416 -1.0630 -2.8081
  261MOL0     H36004   4.479   6.810  11.687 -1.1015  1.0237 -1.5285
  261MOL0     H36005   4.362   6.737  11.863  1.3117  0.3078 -1.1822
  261MOL0     H36006   4.173   6.725  11.989  0.8895 -0.3014  0.6345
  261MOL0     H36007   4.065   6.601  12.044 -0.9116  1.5540  0.8325
  261MOL0     H36008   4.378   6.584  12.005  1.0893  2.5450  2.7206
  261MOL0     H36009   4.280   6.432  12.038  1.6740 -0.2549 -1.9562
  261MOL0     H36010   4.189   6.599  12.229  0.1695 -1.3532  2.5214
  261MOL0     H36011   4.331   6.484  12.243 -2.5708  0.6976  2.8872
  261MOL0     H36012   4.485   6.673  12.194  0.2895  2.0287  0.3914
  261MOL0     H36013   4.386   6.702  12.340 -2.5876 -0.2441  0.0724
  261MOL0     H36014   4.335   7.017  12.045 -0.7703 -1.3055 -2.4493
  261MOL0     H36015   4.123   6.479  11.607 -0.1465 -0.9726  3.1593
  261MOL0     H36016   4.182   6.447  11.380  1.7384 -0.3369 -1.2643
  261MOL0     H36017   4.173   6.613  11.330 -2.8230 -1.1838  1.8543
  261MOL0     H36018   4.324   6.510  11.332  0.6821 -0.1065  0.9448
  262MOL0     O36019   1.966   0.114   6.083 -0.8946  0.2785 -0.1686
  262MOL0     C36020   1.849   0.149   6.063  0.5849 -0.7614  0.4069
  262MOL0     O36021   1.747   0.073   6.012  0.0161  0.5778 -0.1152
  262MOL0     C36022   1.772  -0.052   5.966 -0.4251  0.6994  0.4326
  262MOL0     C36023   1.888  -0.102   5.893  0.7233  0.3824 -0.2331
  262MOL0     C36024   1.905  -0.243   5.873 -0.0549 -0.1332 -0.0149
  262MOL0     C36025   1.787  -0.315   5.891  0.2071 -1.0229 -0.6226
  262MOL0     O36026   1.792  -0.444   5.855  0.3616 -0.2005  0.5226
  262MOL0     C36027   1.748  -0.543   5.946  0.3620  0.3146 -0.3437
  262MOL0     C36028   1.828  -0.670   5.923 -1.0632  0.4492 -0.0224
  262MOL0     C36029   1.770  -0.789   5.999  0.9797 -0.0551 -0.3396
  262MOL0     C36030   1.879  -0.890   6.000  0.3260  1.4437  0.4597
  262MOL0     C36031   1.828  -1.026   6.049  0.0903  0.8151 -0.4709
  262MOL0     C36032   1.933  -1.138   6.073 -0.6234  0.7275  0.3941
  262MOL0     C36033   2.051  -1.099   6.157  0.0108  0.0425  1.0420
  262MOL0     C36034   2.019  -1.068   6.307 -1.1315  0.4013 -1.2522
  262MOL0     N36035   2.146  -1.052   6.385  0.7163 -0.6668  0.5501
  262MOL0     C36036   2.206  -1.147   6.455  0.4767  0.1104 -0.2670
  262MOL0     C36037   2.324  -1.091   6.483  0.0491  0.5009  0.4988
  262MOL0     C36038   2.434  -1.152   6.557  0.0624 -0.3802 -0.4304
  262MOL0     C36039   2.568  -1.155   6.482 -0.4282 -0.1632  0.3796
  262MOL0     C36040   2.666  -1.053   6.528  0.0822 -0.6114  1.0382
  262MOL0     C36041   2.649  -0.910   6.463  0.8859 -0.6832  0.9419
  262MOL0     O36042   2.745  -0.810   6.490  0.3854 -0.8372 -0.2888
  262MOL0     C36043   2.764  -0.762   6.617  0.3389 -0.4861 -0.6382
  262MOL0     C36044   2.669  -0.747   6.729 -0.2661  0.3713  0.0437
  262MOL0     C36045   2.708  -0.706   6.862 -1.3189  0.7127  1.5112
  262MOL0     C36046   2.602  -0.691   6.974 -0.2204  0.1860  0.3638
  262MOL0     C36047   2.846  -0.685   6.892 -0.7240  0.3182  0.5029
  262MOL0     C36048   2.912  -0.630   7.011 -0.3454  1.3726 -0.1403
  262MOL0     O36049   3.051  -0.611   7.004 -0.7948  0.0928 -0.6805
  262MOL0     C36050   3.137  -0.556   7.093 -0.1807 -1.5606  0.6549
  262MOL0     C36051   3.270  -0.592   7.073 -0.2591  0.4375 -0.3317
  262MOL0     C36052   3.362  -0.560   7.173  0.3164 -0.3490  0.1180
  262MOL0     C36053   3.327  -0.469   7.281  0.4253 -0.7573  0.3275
  262MOL0     O36054   3.422  -0.423   7.360 -0.8650  0.3249 -0.2956
  262MOL0     C36055   3.502  -0.517   7.430 -1.0871 -0.2960  0.4479
  262MOL0     C36056   3.465  -0.543   7.573  0.2787 -0.1599 -0.1194
  262MOL0     C36057   3.595  -0.590   7.643  0.1846 -0.6533 -0.4002
  262MOL0     C36058   3.588  -0.623   7.792  0.0097 -0.8231  1.3465
  262MOL0     C36059   3.524  -0.748   7.834 -0.3305  0.9675  0.2134
  262MOL0     C36060   3.510  -0.760   7.990  0.1863 -1.1419  0.3113
  262MOL0     C36061   3.447  -0.899   8.020  0.0871  0.2484 -0.6127
  262MOL0     C36062   3.451  -0.921   8.169  0.7809  0.6253  0.0463
  262MOL0    Cl36063   3.412  -1.092   8.195 -0.2393  0.0668 -0.4212
  262MOL0     C36064   3.193  -0.432   7.285  0.6448  0.0674  0.9000
  262MOL0     C36065   3.101  -0.484   7.201  0.2147  0.3785 -0.6684
  262MOL0     O36066   2.846  -0.603   7.109  0.1411 -0.5048  0.1911
  262MOL0     C36067   2.937  -0.713   6.781 -0.2716 -0.8331 -0.8143
  262MOL0     C36068   2.898  -0.736   6.649 -0.1301 -0.1398 -0.7710
  262MOL0     N36069   2.335  -0.961   6.428 -0.1314  0.4072  0.2799
  262MOL0     N36070   2.221  -0.936   6.369  0.0206  0.2251  0.0368
  262MOL0     C36071   1.670  -0.264   5.951  0.8478 -0.1884  0.7577
  262MOL0     C36072   1.669  -0.133   5.990  0.1771  0.0992 -0.5046
  262MOL0     C36073   1.801   0.285   6.097 -0.3783  0.3632  0.2719
  262MOL0     C36074   1.709   0.351   6.002 -0.3786  0.7872 -0.3364
  262MOL0     C36075   1.669   0.479   6.023  0.1739 -0.3196 -0.2279
  262MOL0     C36076   1.708   0.549   6.135  0.0673 -0.5099 -0.2075
  262MOL0     O36077   1.676   0.683   6.126 -0.2391  0.0605 -0.0364
  262MOL0     C36078   1.714   0.777   6.224  0.8194  0.2307  0.2638
  262MOL0     C36079   1.591   0.849   6.274  0.7501 -1.1461 -0.9192
  262MOL0     C36080   1.503   0.937   6.187 -0.5678 -0.0481  0.1492
  262MOL0     C36081   1.588   1.045   6.130 -0.2551  0.1433  0.3697
  262MOL0     C36082   1.645   1.007   5.997 -0.4349 -0.5472 -0.4875
  262MOL0     C36083   1.701   0.976   5.894 -0.7181  1.1610 -0.7174
  262MOL0     C36084   1.784   0.487   6.236  0.6649  0.3946 -0.2443
  262MOL0     C36085   1.825   0.350   6.216  0.6077  0.2090 -0.4909
  262MOL0     C36086   1.885   0.276   6.337  0.4302  0.1409 -0.2693
  262MOL0     H36087   1.975  -0.041   5.872  2.1881 -2.3735 -2.7943
  262MOL0     H36088   1.997  -0.274   5.825  0.7246  1.5677  0.3139
  262MOL0     H36089   1.642  -0.569   5.939 -0.7587  2.2973  4.7068
  262MOL0     H36090   1.758  -0.513   6.051 -2.5756 -1.2083  0.4920
  262MOL0     H36091   1.808  -0.697   5.819 -3.4208  1.2807  0.1680
  262MOL0     H36092   1.936  -0.653   5.923 -0.8403 -0.4437 -2.6266
  262MOL0     H36093   1.742  -0.759   6.101 -0.3171 -0.7549 -0.4711
  262MOL0     H36094   1.683  -0.830   5.946 -0.9139  1.1912  1.6217
  262MOL0     H36095   1.917  -0.911   5.900  2.3736  1.5448  1.1685
  262MOL0     H36096   1.969  -0.865   6.057  2.6692  1.5839 -2.9953
  262MOL0     H36097   1.745  -1.060   5.987  1.4064 -2.5865 -0.5864
  262MOL0     H36098   1.786  -0.998   6.146 -0.6920  1.7851 -1.0723
  262MOL0     H36099   1.881  -1.225   6.113  1.4837 -1.1957 -0.7743
  262MOL0     H36100   1.986  -1.166   5.981 -0.0560 -0.5232  1.0839
  262MOL0     H36101   2.108  -1.016   6.116 -1.6555  0.7396  0.0260
  262MOL0     H36102   2.108  -1.192   6.149 -1.6713 -0.9547  0.1526
  262MOL0     H36103   1.948  -0.986   6.319 -3.4790 -1.7199  0.6940
  262MOL0     H36104   1.965  -1.159   6.336  0.5636 -0.4881 -0.6959
  262MOL0     H36105   2.182  -1.250   6.480 -0.9570  0.2216 -1.1085
  262MOL0     H36106   2.416  -1.256   6.587  0.4432  0.4545  3.1500
  262MOL0     H36107   2.454  -1.100   6.651  0.8464 -0.9253 -0.2735
  262MOL0     H36108   2.607  -1.257   6.485 -0.0664 -0.0210  0.5872
  262MOL0     H36109   2.553  -1.133   6.376 -2.4500  2.9834  1.1753
  262MOL0     H36110   2.660  -1.041   6.637  0.6104  0.7502  0.9404
  262MOL0     H36111   2.764  -1.078   6.486 -0.2525  0.0297 -0.1648
  262MOL0     H36112   2.633  -0.911   6.355 -4.4400 -1.2136  1.4638
  262MOL0     H36113   2.559  -0.866   6.507 -0.4604 -2.3260 -0.0373
  262MOL0     H36114   2.562  -0.754   6.718 -0.4679  0.6380  1.5782
  262MOL0     H36115   2.508  -0.733   6.938  0.0891  1.4632 -2.1846
  262MOL0     H36116   2.594  -0.585   6.997  0.0224  0.0470  1.1112
  262MOL0     H36117   2.642  -0.741   7.063  0.4905 -1.4574 -0.8162
  262MOL0     H36118   3.294  -0.648   6.984 -1.5134  0.1291 -0.5062
  262MOL0     H36119   3.464  -0.592   7.153  0.1713 -1.1260  0.5995
  262MOL0     H36120   3.504  -0.614   7.380 -2.9306 -0.8244  1.2921
  262MOL0     H36121   3.607  -0.487   7.426 -0.5718 -2.0989 -0.6722
  262MOL0     H36122   3.417  -0.457   7.621 -2.7756 -2.5841  1.5608
  262MOL0     H36123   3.382  -0.614   7.580  0.9843 -0.8297  1.7965
  262MOL0     H36124   3.667  -0.508   7.637 -0.9564  0.6143  1.7906
  262MOL0     H36125   3.640  -0.676   7.593  2.5364 -0.6273  1.4915
  262MOL0     H36126   3.535  -0.542   7.842  1.3050  0.3074  0.9352
  262MOL0     H36127   3.691  -0.627   7.828 -0.8156  0.9966  4.2280
  262MOL0     H36128   3.422  -0.763   7.796 -0.8909  1.3357  1.5053
  262MOL0     H36129   3.587  -0.827   7.792  0.9980  2.2762 -0.3297
  262MOL0     H36130   3.445  -0.678   8.022  1.4424  0.0454 -0.1145
  262MOL0     H36131   3.604  -0.750   8.043 -1.3577 -0.7961  3.1943
  262MOL0     H36132   3.505  -0.979   7.972 -0.2534 -1.0138  1.0052
  262MOL0     H36133   3.342  -0.900   7.991 -0.8556  2.6661  2.1935
  262MOL0     H36134   3.384  -0.850   8.219 -0.9500 -0.5389 -0.5191
  262MOL0     H36135   3.557  -0.913   8.194  1.0019 -0.7505 -0.3353
  262MOL0     H36136   3.161  -0.355   7.355  1.2559  1.1984 -0.0221
  262MOL0     H36137   3.001  -0.443   7.213  0.6606  0.9551  1.4937
  262MOL0     H36138   3.045  -0.712   6.789 -0.2888  0.5797 -0.5360
  262MOL0     H36139   2.973  -0.754   6.573 -0.2137 -0.1984 -0.8406
  262MOL0     H36140   1.577  -0.320   5.958 -0.1873  0.9145 -2.4085
  262MOL0     H36141   1.573  -0.100   6.030  0.2045  2.2629 -2.0421
  262MOL0     H36142   1.660   0.298   5.921  0.1736 -0.2402 -0.0137
  262MOL0     H36143   1.611   0.534   5.950 -0.1795 -0.9452 -0.4327
  262MOL0     H36144   1.765   0.731   6.310 -0.2782 -1.1495  0.2038
  262MOL0     H36145   1.787   0.847   6.182  0.2194 -0.4743 -2.1070
  262MOL0     H36146   1.619   0.902   6.366  0.6866 -2.8382  0.1056
  262MOL0     H36147   1.514   0.778   6.303 -0.0428  0.5407  1.4262
  262MOL0     H36148   1.443   0.881   6.115 -1.1867 -0.7637  1.2028
  262MOL0     H36149   1.439   0.990   6.259  1.6931  2.5610  0.4104
  262MOL0     H36150   1.669   1.061   6.202 -0.5991 -0.8424  1.0007
  262MOL0     H36151   1.531   1.138   6.119 -2.0385 -0.9654 -0.2909
  262MOL0     H36152   1.746   0.958   5.798 -0.0747  0.8526 -0.3712
  262MOL0     H36153   1.796   0.534   6.333 -2.5467  1.2427 -0.1432
  262MOL0     H36154   1.890   0.331   6.432 -0.7460 -1.3500  0.7013
  262MOL0     H36155   1.834   0.184   6.364  1.9394  0.0704  2.8256
  262MOL0     H36156   1.988   0.250   6.309  0.3275  1.0715 -1.5813
  263MOL0     O36157   1.530  10.538   4.704 -0.1730  0.4929 -0.0708
  263MOL0     C36158   1.520  10.437   4.634 -0.1696  0.2163 -1.1817
  263MOL0     O36159   1.624  10.356   4.591  0.7416 -0.1850  0.5045
  263MOL0     C36160   1.758  10.399   4.591  0.6680 -0.2065 -1.2887
  263MOL0     C36161   1.786  10.526   4.558  0.5450  0.3471  0.2649
  263MOL0     C36162   1.922  10.571   4.551 -0.0774  0.6779 -1.0284
  263MOL0     C36163   2.031  10.479   4.571 -1.1382  0.0913 -0.5548
  263MOL0     O36164   2.156  10.544   4.571 -0.0052  0.1296  0.9203
  263MOL0     C36165   2.277  10.479   4.609 -0.7773  0.2749 -0.4480
  263MOL0     C36166   2.400  10.582   4.596  0.5098  0.5357  0.2492
  263MOL0     C36167   2.381  10.688   4.703  0.7134  0.2466 -0.1440
  263MOL0     C36168   2.476  10.799   4.683  0.5121 -0.4276  0.3118
  263MOL0     C36169   2.625  10.756   4.681  0.1629 -0.0372  0.7876
  263MOL0     C36170   2.703  10.885   4.652 -0.5477  0.5557  0.2334
  263MOL0     C36171   2.849  10.848   4.642  0.2059 -0.1123 -0.7134
  263MOL0     C36172   2.897  10.762   4.767  0.3324  0.1861  1.1607
  263MOL0     N36173   3.041  10.801   4.799 -0.6847  0.7394 -0.1102
  263MOL0     C36174   3.068  10.881   4.910  0.1542 -0.0626  0.0369
  263MOL0     C36175   3.202  10.902   4.914  0.1668  0.9003  0.0677
  263MOL0     C36176   3.290  10.965   5.018 -0.2495  0.5036 -0.4159
  263MOL0     C36177   3.379  11.079   4.963 -0.4991  0.1853  0.2193
  263MOL0     C36178   3.302  11.173   4.873  0.1467 -1.2622  0.1563
  263MOL0     C36179   3.395  11.296   4.838 -0.1029 -0.8913  0.9846
  263MOL0     O36180   3.327  11.403   4.765 -0.4358 -0.3022 -0.0180
  263MOL0     C36181   3.323  11.409   4.631 -0.1233 -0.2322 -0.6059
  263MOL0     C36182   3.313  11.530   4.575  1.1539 -0.2645 -0.3299
  263MOL0     C36183   3.343  11.549   4.438  0.0709 -0.0177 -0.2302
  263MOL0     C36184   3.345  11.697   4.388 -1.7513 -0.2817 -0.6708
  263MOL0     C36185   3.370  11.435   4.355 -0.4329 -0.3798 -0.5905
  263MOL0     C36186   3.416  11.458   4.214 -0.9196 -0.6480  0.2160
  263MOL0     O36187   3.495  11.356   4.170  0.1532  0.3172 -0.1165
  263MOL0     C36188   3.540  11.354   4.040 -0.6039  0.6170 -0.1690
  263MOL0     C36189   3.605  11.456   3.977 -0.4149  0.3845 -0.1023
  263MOL0     C36190   3.664  11.443   3.850 -0.2557 -1.1125 -0.7491
  263MOL0     C36191   3.667  11.324   3.785  0.4623 -0.7318 -1.0918
  263MOL0     O36192   3.702  11.313   3.657  0.4664  0.2058  0.2085
  263MOL0     C36193   3.610  11.332   3.554 -0.8950  0.6933  1.2481
  263MOL0     C36194   3.541  11.205   3.511 -0.9389 -0.0703 -1.0692
  263MOL0     C36195   3.470  11.207   3.380  0.1729  0.0501 -0.6212
  263MOL0     C36196   3.378  11.332   3.376  0.0192  0.3797 -0.4737
  263MOL0     C36197   3.291  11.336   3.246 -0.3620  0.1594  0.1214
  263MOL0     C36198   3.371  11.373   3.122 -0.5175 -0.7833  0.2909
  263MOL0     C36199   3.275  11.408   2.998 -0.0001 -0.5849 -0.6477
  263MOL0     C36200   3.374  11.469   2.898 -1.0585 -0.0241  0.0578
  263MOL0    Cl36201   3.432  11.632   2.944 -0.0119 -0.3371 -0.0292
  263MOL0     C36202   3.600  11.213   3.844  0.6493 -0.3876  0.2348
  263MOL0     C36203   3.544  11.228   3.971 -0.4059 -0.5693 -0.2639
  263MOL0     O36204   3.372  11.549   4.146 -0.3411  0.5167 -0.0324
  263MOL0     C36205   3.370  11.313   4.415 -0.6010  0.6506  1.0471
  263MOL0     C36206   3.338  11.294   4.549 -0.2543  0.4532 -0.8630
  263MOL0     N36207   3.257  10.834   4.801  0.0925  0.5333 -0.1847
  263MOL0     N36208   3.163  10.776   4.738  0.5436  0.3990  0.0472
  263MOL0     C36209   1.995  10.340   4.583  0.5099  0.3142  0.0872
  263MOL0     C36210   1.858  10.310   4.606 -0.1844 -0.2667 -0.0085
  263MOL0     C36211   1.380  10.395   4.613  0.7054  0.6682 -1.0829
  263MOL0     C36212   1.352  10.257   4.601 -0.0552 -1.1700  0.4692
  263MOL0     C36213   1.230  10.209   4.565  0.6178  0.6814  0.3548
  263MOL0     C36214   1.119  10.293   4.558 -0.0322  0.0775 -0.6764
  263MOL0     O36215   0.989  10.258   4.529  0.1773 -0.4668  0.4017
  263MOL0     C36216   0.904  10.265   4.652  0.7671 -0.0459  1.3045
  263MOL0     C36217   0.836  10.132   4.693 -0.3418 -0.8416 -0.6273
  263MOL0     C36218   0.916  10.002   4.677 -0.5383 -0.4212 -0.2896
  263MOL0     C36219   0.834   9.879   4.696  0.7349  0.1086 -0.6012
  263MOL0     C36220   0.892   9.770   4.618  0.4655 -0.1841 -0.7473
  263MOL0     C36221   0.935   9.692   4.536  0.4691  0.1486 -0.3644
  263MOL0     C36222   1.143  10.425   4.557 -0.1865  0.6266 -0.4285
  263MOL0     C36223   1.265  10.481   4.585  0.4512 -0.0142 -0.8632
  263MOL0     C36224   1.283  10.625   4.587  0.5172 -0.0998 -0.8757
  263MOL0     H36225   1.702  10.593   4.543  0.8145  0.9774  1.4943
  263MOL0     H36226   1.933  10.678   4.538 -0.5947  0.8548 -0.0663
  263MOL0     H36227   2.300  10.399   4.538  0.0791 -0.6396  0.8248
  263MOL0     H36228   2.267  10.440   4.711  4.8014 -0.6881  0.0439
  263MOL0     H36229   2.496  10.537   4.622  1.2949  0.8154 -1.9697
  263MOL0     H36230   2.401  10.632   4.499  0.2973  0.2532  0.0986
  263MOL0     H36231   2.277  10.721   4.707  0.6003 -0.1579  2.9249
  263MOL0     H36232   2.397  10.645   4.802  0.2912  3.0517  1.2232
  263MOL0     H36233   2.451  10.849   4.589 -1.1001 -1.4828  0.1500
  263MOL0     H36234   2.465  10.868   4.767 -2.0424 -2.5549  1.8589
  263MOL0     H36235   2.644  10.688   4.597  2.8561  1.1092  0.3689
  263MOL0     H36236   2.657  10.705   4.772  1.1293 -1.7943 -0.4661
  263MOL0     H36237   2.664  10.929   4.560  1.3403 -1.0376 -1.4049
  263MOL0     H36238   2.702  10.951   4.739 -2.5576 -0.5384  1.1149
  263MOL0     H36239   2.906  10.942   4.638  0.2876 -0.1404 -0.2476
  263MOL0     H36240   2.872  10.801   4.546  2.1725  0.6013 -0.6522
  263MOL0     H36241   2.833  10.791   4.851 -3.0226  5.5595 -2.6028
  263MOL0     H36242   2.896  10.655   4.742 -0.4850  0.2233  0.9956
  263MOL0     H36243   3.001  10.897   4.994  1.3039 -0.0787  0.9908
  263MOL0     H36244   3.353  10.889   5.064 -1.1216  0.4733  0.7919
  263MOL0     H36245   3.232  11.001   5.104  2.8092 -1.2159  2.5702
  263MOL0     H36246   3.428  11.124   5.050  3.3419  0.0431 -1.6674
  263MOL0     H36247   3.460  11.036   4.903  0.0836  1.6690 -0.1090
  263MOL0     H36248   3.258  11.116   4.791  0.2058 -3.1431  1.3811
  263MOL0     H36249   3.216  11.220   4.923  0.2548  0.9952 -1.6267
  263MOL0     H36250   3.444  11.344   4.924  0.0542  2.4071 -0.7926
  263MOL0     H36251   3.487  11.265   4.788  0.1832  1.4538 -0.0620
  263MOL0     H36252   3.305  11.615   4.642 -1.6626 -1.6346  1.2429
  263MOL0     H36253   3.249  11.709   4.337 -1.5168 -0.7718 -1.2466
  263MOL0     H36254   3.425  11.729   4.322 -0.8150  1.8416  1.3349
  263MOL0     H36255   3.352  11.759   4.478 -0.8378 -1.4277  0.0819
  263MOL0     H36256   3.610  11.558   4.014  0.3802  1.4993 -2.9916
  263MOL0     H36257   3.713  11.523   3.794  0.0558 -0.0133  0.9927
  263MOL0     H36258   3.531  11.404   3.576 -1.0357  0.9927 -0.1761
  263MOL0     H36259   3.669  11.371   3.471  1.7060 -2.5798  1.3372
  263MOL0     H36260   3.618  11.128   3.511  0.9130  1.6066  2.1935
  263MOL0     H36261   3.477  11.173   3.594  1.8599 -1.2474  0.7776
  263MOL0     H36262   3.422  11.110   3.364  0.7509 -0.4136  0.3680
  263MOL0     H36263   3.538  11.219   3.295 -0.4122  1.1863 -0.9456
  263MOL0     H36264   3.434  11.426   3.385 -0.2218  0.3039  3.0480
  263MOL0     H36265   3.311  11.323   3.462  1.1608  0.2026  0.4153
  263MOL0     H36266   3.243  11.239   3.235 -2.6372  0.8756  2.5994
  263MOL0     H36267   3.207  11.404   3.262 -0.0070  0.2970  1.5230
  263MOL0     H36268   3.435  11.291   3.088  1.1281  0.5481  0.0734
  263MOL0     H36269   3.439  11.456   3.143  0.7913 -1.5933 -0.6062
  263MOL0     H36270   3.206  11.486   3.032  1.6840  0.2283  1.1026
  263MOL0     H36271   3.223  11.322   2.956 -0.3888 -0.0811 -1.2126
  263MOL0     H36272   3.327  11.467   2.800 -0.5666  0.2791 -0.1893
  263MOL0     H36273   3.461  11.405   2.882 -1.9057 -1.5091  1.1373
  263MOL0     H36274   3.597  11.117   3.794 -2.4122  0.3900 -1.3277
  263MOL0     H36275   3.511  11.131   4.008  3.0925 -2.5816 -1.9174
  263MOL0     H36276   3.405  11.232   4.351 -1.8930 -0.3963  1.6161
  263MOL0     H36277   3.345  11.194   4.592 -1.4158  1.5987  2.2737
  263MOL0     H36278   2.065  10.257   4.583 -1.1978 -1.2040 -1.5539
  263MOL0     H36279   1.829  10.208   4.627  3.3832 -1.1594  1.4602
  263MOL0     H36280   1.438  10.192   4.613 -0.2181 -1.6211 -0.7323
  263MOL0     H36281   1.220  10.103   4.543  3.9386  0.4195 -0.3705
  263MOL0     H36282   0.960  10.298   4.739  2.0954 -2.5312  1.4949
  263MOL0     H36283   0.826  10.339   4.635  1.5518  0.1308 -2.2605
  263MOL0     H36284   0.748  10.129   4.627 -0.2746 -0.1578 -0.7525
  263MOL0     H36285   0.790  10.141   4.792  2.2755  1.5214  0.4887
  263MOL0     H36286   0.964  10.005   4.579  0.4315  1.7090  0.1806
  263MOL0     H36287   0.998   9.993   4.749 -2.6828  2.1846  2.7970
  263MOL0     H36288   0.730   9.885   4.664  0.5314  2.0133  0.2711
  263MOL0     H36289   0.821   9.860   4.803 -0.1691  3.5158  0.0173
  263MOL0     H36290   0.981   9.628   4.463 -0.3446 -0.4329 -0.3775
  263MOL0     H36291   1.048  10.476   4.546 -0.4408  0.5745  1.2698
  263MOL0     H36292   1.362  10.652   4.516  1.0727 -1.8171 -0.9520
  263MOL0     H36293   1.191  10.678   4.560  0.5084 -0.2688 -1.1829
  263MOL0     H36294   1.318  10.643   4.689  1.4676 -1.3663 -0.9537
  264MOL0     O36295   0.480  10.627   3.798  0.3461  0.8800  0.2240
  264MOL0     C36296   0.597  10.670   3.808 -0.4689 -0.4997 -0.1753
  264MOL0     O36297   0.680  10.632   3.906  0.2917 -0.1129  0.5899
  264MOL0     C36298   0.659  10.522   3.986 -0.3918  0.0501  0.1462
  264MOL0     C36299   0.626  10.538   4.124  0.1849  0.1760  0.2374
  264MOL0     C36300   0.603  10.430   4.212 -0.1401  0.0722 -0.7552
  264MOL0     C36301   0.632  10.294   4.179 -0.2188 -0.3663  0.7930
  264MOL0     O36302   0.628  10.204   4.269 -0.1410  0.3994  0.0926
  264MOL0     C36303   0.548  10.088   4.249 -0.3268 -0.3895 -0.4020
  264MOL0     C36304   0.540   9.993   4.369 -0.3979 -0.6835 -0.0499
  264MOL0     C36305   0.464   9.870   4.341 -1.1547 -0.3246  0.5533
  264MOL0     C36306   0.476   9.760   4.447 -0.1259 -0.5561  0.4233
  264MOL0     C36307   0.429   9.624   4.400  0.9250 -0.2922 -0.4989
  264MOL0     C36308   0.282   9.626   4.343 -1.0155  0.8409 -0.1004
  264MOL0     C36309   0.214   9.484   4.365 -0.0694  0.2773  0.2008
  264MOL0     C36310   0.181   9.463   4.518  1.4032  0.6692  0.4132
  264MOL0     N36311   0.094   9.547   4.588  0.3307  0.1553 -0.1638
  264MOL0     C36312   0.067   9.526   4.725 -0.8299  0.0771  0.2463
  264MOL0     C36313  -0.040   9.597   4.752  0.9415 -0.7437 -0.2349
  264MOL0     C36314  -0.111   9.628   4.879  0.6610 -0.5662 -0.2524
  264MOL0     C36315  -0.151   9.771   4.904 -0.6181  0.2723 -0.1070
  264MOL0     C36316  -0.261   9.794   5.017 -0.3475  0.9277 -0.5379
  264MOL0     C36317  -0.256   9.940   5.048  0.1019 -0.0266 -0.0769
  264MOL0     O36318  -0.277   9.943   5.194 -0.0078 -0.0978 -0.0902
  264MOL0     C36319  -0.282  10.069   5.252 -0.2681 -0.3830  0.2835
  264MOL0     C36320  -0.316  10.073   5.388 -0.1333  0.0608 -0.4124
  264MOL0     C36321  -0.326  10.197   5.462  0.4217  0.7482  0.1639
  264MOL0     C36322  -0.335  10.194   5.611 -0.2864 -0.8896  0.0269
  264MOL0     C36323  -0.310  10.316   5.390 -0.9012  0.4581  0.2650
  264MOL0     C36324  -0.307  10.451   5.447  0.4974  0.8951  0.7621
  264MOL0     O36325  -0.238  10.534   5.358  0.0936  0.9883  0.2417
  264MOL0     C36326  -0.221  10.667   5.395 -0.1341 -0.1293 -0.3596
  264MOL0     C36327  -0.321  10.756   5.357 -0.0784  0.6000 -0.9857
  264MOL0     C36328  -0.312  10.894   5.376  0.3885 -0.4051  0.3505
  264MOL0     C36329  -0.193  10.953   5.424 -0.4741 -0.1175  0.8815
  264MOL0     O36330  -0.176  11.083   5.450  0.4368  0.5842 -0.1288
  264MOL0     C36331  -0.124  11.159   5.344 -0.1442 -0.1257 -0.8614
  264MOL0     C36332   0.020  11.186   5.372 -0.1648 -0.0870  0.1700
  264MOL0     C36333   0.082  11.267   5.266  0.2710 -0.2545 -0.4154
  264MOL0     C36334   0.198  11.353   5.320  0.5329  0.1816  0.8213
  264MOL0     C36335   0.262  11.438   5.208 -0.1987 -0.2217 -0.8751
  264MOL0     C36336   0.387  11.513   5.256  0.0675  0.9356 -0.1152
  264MOL0     C36337   0.351  11.639   5.346 -0.1237 -0.1595 -0.2767
  264MOL0     C36338   0.480  11.696   5.410  0.5315 -0.0675 -0.2165
  264MOL0    Cl36339   0.458  11.818   5.548 -0.1408 -0.1572  0.2308
  264MOL0     C36340  -0.083  10.864   5.463 -0.3245 -0.0467 -1.0961
  264MOL0     C36341  -0.097  10.723   5.447  0.5099  0.6074 -0.2012
  264MOL0     O36342  -0.376  10.484   5.545 -0.2458  0.3944  0.4810
  264MOL0     C36343  -0.285  10.309   5.246  0.1556 -0.4880 -0.0481
  264MOL0     C36344  -0.258  10.188   5.185  0.0919  0.0953 -0.0070
  264MOL0     N36345  -0.086   9.653   4.633 -0.3940  0.4523 -0.7817
  264MOL0     N36346  -0.015   9.618   4.541  0.2882  0.5288  0.7201
  264MOL0     C36347   0.673  10.278   4.049  0.3430 -0.2500 -0.3515
  264MOL0     C36348   0.676  10.385   3.952  0.1708 -0.4294  0.2888
  264MOL0     C36349   0.657  10.760   3.706 -0.1285  0.7058 -0.2595
  264MOL0     C36350   0.785  10.814   3.730  0.2549  0.0931 -0.5858
  264MOL0     C36351   0.843  10.899   3.639 -1.0061  0.0660 -0.5584
  264MOL0     C36352   0.785  10.926   3.512 -0.5161  0.0599 -0.2304
  264MOL0     O36353   0.864  10.985   3.420  0.1424  0.2749 -0.1725
  264MOL0     C36354   0.820  11.006   3.278  0.5087  0.1610 -0.4930
  264MOL0     C36355   0.722  11.128   3.272 -0.3471 -0.5420 -0.9179
  264MOL0     C36356   0.789  11.267   3.261  0.1309  0.7701  0.1758
  264MOL0     C36357   0.682  11.372   3.287  0.1222 -0.3312 -0.4395
  264MOL0     C36358   0.594  11.396   3.172  0.0181  0.2204 -0.3493
  264MOL0     C36359   0.518  11.433   3.088  0.3758  0.0916  0.3166
  264MOL0     C36360   0.661  10.864   3.494  0.5835 -0.5557  0.3320
  264MOL0     C36361   0.599  10.784   3.583  0.4255 -0.3489 -0.9248
  264MOL0     C36362   0.473  10.730   3.539  1.3954  0.1850 -0.1449
  264MOL0     H36363   0.608  10.636   4.166  0.8240  0.4687 -0.1547
  264MOL0     H36364   0.571  10.443   4.314  1.2417 -2.1518  0.0309
  264MOL0     H36365   0.591  10.028   4.169 -0.7763 -0.7183 -0.4002
  264MOL0     H36366   0.446  10.116   4.219 -0.0067  1.6685  0.2666
  264MOL0     H36367   0.641   9.974   4.406  0.6211  4.2928  0.4779
  264MOL0     H36368   0.480  10.033   4.451 -0.2997 -1.2732  0.3124
  264MOL0     H36369   0.363   9.909   4.326 -2.0241 -1.4094  3.1634
  264MOL0     H36370   0.508   9.832   4.248 -1.6459 -1.6638  0.8530
  264MOL0     H36371   0.582   9.756   4.476  0.0032 -3.3329 -0.1776
  264MOL0     H36372   0.420   9.793   4.535 -0.9109 -2.1981  0.5744
  264MOL0     H36373   0.438   9.557   4.486 -2.4579 -0.4928 -0.2008
  264MOL0     H36374   0.499   9.591   4.322 -0.8480 -0.1118 -2.2292
  264MOL0     H36375   0.211   9.703   4.375 -1.6143 -0.0456  0.7546
  264MOL0     H36376   0.288   9.646   4.236  0.0890  1.4451  0.0611
  264MOL0     H36377   0.280   9.408   4.322  0.0063  1.5068 -2.0384
  264MOL0     H36378   0.117   9.473   4.315  0.2597  2.2388 -0.9972
  264MOL0     H36379   0.132   9.366   4.524  1.4261  0.7146  1.7467
  264MOL0     H36380   0.276   9.449   4.570  1.5544  1.5352  0.3893
  264MOL0     H36381   0.113   9.464   4.800  1.0511  0.5442 -0.4581
  264MOL0     H36382  -0.051   9.591   4.962  0.8620 -1.2121 -0.6779
  264MOL0     H36383  -0.202   9.567   4.877 -0.5500  0.9106  2.6103
  264MOL0     H36384  -0.074   9.837   4.946 -2.0146 -0.0254  3.2493
  264MOL0     H36385  -0.181   9.810   4.806 -1.2229  1.5906  0.5812
  264MOL0     H36386  -0.362   9.770   4.982 -0.4947 -0.1569  0.5360
  264MOL0     H36387  -0.247   9.732   5.106  0.4096 -0.8087 -1.8054
  264MOL0     H36388  -0.162   9.990   5.027  0.3285 -1.0729 -1.7154
  264MOL0     H36389  -0.344   9.995   5.011 -1.2122 -1.9815 -0.0380
  264MOL0     H36390  -0.326   9.978   5.440 -0.4567 -1.0034 -2.3205
  264MOL0     H36391  -0.428  10.234   5.652  0.7313  1.6785  0.0734
  264MOL0     H36392  -0.257  10.260   5.651  0.5277 -0.4936 -2.0562
  264MOL0     H36393  -0.329  10.093   5.652 -0.8322 -0.2588  1.7462
  264MOL0     H36394  -0.417  10.714   5.326 -0.7565  2.5825 -1.7458
  264MOL0     H36395  -0.398  10.955   5.349  0.6815 -0.8682 -1.7871
  264MOL0     H36396  -0.140  11.115   5.245 -0.3929 -0.8102 -0.5261
  264MOL0     H36397  -0.183  11.251   5.342 -0.3465 -0.2540 -0.8039
  264MOL0     H36398   0.031  11.240   5.467  3.3818 -1.5971  0.7903
  264MOL0     H36399   0.070  11.089   5.378 -0.8738 -0.6155 -1.8455
  264MOL0     H36400  -0.003  11.313   5.215 -2.1288 -1.7809  1.9135
  264MOL0     H36401   0.115  11.198   5.187  1.3714  0.0021 -0.1904
  264MOL0     H36402   0.276  11.288   5.361  1.1687  0.2082 -0.3010
  264MOL0     H36403   0.152  11.413   5.399 -1.1623 -0.8611  0.6698
  264MOL0     H36404   0.301  11.368   5.133  1.9400 -2.0799  1.7769
  264MOL0     H36405   0.185  11.507   5.174  0.2696 -0.1118 -1.7254
  264MOL0     H36406   0.451  11.542   5.173  1.4056  1.9488  1.2115
  264MOL0     H36407   0.454  11.449   5.315  0.1563  2.5747  1.6705
  264MOL0     H36408   0.284  11.608   5.427 -0.6037 -0.6592 -0.8523
  264MOL0     H36409   0.299  11.707   5.278  0.0196  2.0178  1.6795
  264MOL0     H36410   0.526  11.750   5.327  2.3413 -3.1477 -1.3925
  264MOL0     H36411   0.551  11.617   5.435 -0.4965 -0.8751  0.2141
  264MOL0     H36412   0.003  10.908   5.514 -2.2788  0.7410  1.7674
  264MOL0     H36413  -0.006  10.669   5.471 -0.0618 -0.3122 -0.0802
  264MOL0     H36414  -0.284  10.404   5.193 -3.5472 -0.3577 -0.1961
  264MOL0     H36415  -0.232  10.198   5.080  0.3910 -1.7313 -0.1272
  264MOL0     H36416   0.696  10.181   4.007  1.1238  0.2653 -1.1595
  264MOL0     H36417   0.697  10.364   3.847  0.0332 -1.0786  0.3859
  264MOL0     H36418   0.836  10.789   3.822 -0.6363  1.6607  0.4039
  264MOL0     H36419   0.942  10.936   3.666 -2.5167  2.8448  1.7216
  264MOL0     H36420   0.899  11.033   3.207  2.2635  1.9775  1.9717
  264MOL0     H36421   0.760  10.920   3.245  0.7870  0.6342 -2.3436
  264MOL0     H36422   0.664  11.125   3.364  2.0955  1.8951  0.8988
  264MOL0     H36423   0.662  11.110   3.182  1.3999 -0.1629 -2.2216
  264MOL0     H36424   0.872  11.272   3.332 -1.8946 -2.4531  3.1093
  264MOL0     H36425   0.817  11.283   3.156 -0.7706  1.9759  0.0925
  264MOL0     H36426   0.735  11.460   3.324 -2.2119  0.6571  0.7701
  264MOL0     H36427   0.617  11.340   3.369  1.3823  2.8093  1.9645
  264MOL0     H36428   0.468  11.475   3.003  1.9121  2.1232  0.3373
  264MOL0     H36429   0.613  10.891   3.401  0.6936  3.6042  1.2472
  264MOL0     H36430   0.389  10.769   3.597  2.2343  4.1506 -1.3153
  264MOL0     H36431   0.445  10.764   3.439  0.0749 -2.4839 -0.7903
  264MOL0     H36432   0.471  10.620   3.536  0.8241  0.1985 -0.3687
  265MOL0     O36433   3.473   7.918   9.796  0.2947  0.1693  0.2415
  265MOL0     C36434   3.420   8.015   9.743  0.0186 -0.5931  0.6174
  265MOL0     O36435   3.444   8.058   9.613 -0.5027 -0.0079 -0.2031
  265MOL0     C36436   3.547   8.002   9.537  0.6371  0.2845  0.1750
  265MOL0     C36437   3.661   7.934   9.588 -0.3444  0.5242  0.1919
  265MOL0     C36438   3.751   7.876   9.495  0.0729  0.0682 -0.1838
  265MOL0     C36439   3.732   7.888   9.357 -0.3801 -0.8911 -0.1367
  265MOL0     O36440   3.814   7.843   9.259 -0.0347 -0.4399  0.4659
  265MOL0     C36441   3.956   7.830   9.288  0.6676 -0.1820  0.0999
  265MOL0     C36442   4.015   7.692   9.339 -0.2723  0.1373  0.7292
  265MOL0     C36443   4.170   7.676   9.320 -0.0120 -0.6618 -0.4845
  265MOL0     C36444   4.217   7.689   9.171  0.9872  0.4154 -0.1833
  265MOL0     C36445   4.368   7.666   9.140 -0.1623 -0.1435 -1.7147
  265MOL0     C36446   4.402   7.657   8.993  0.2758 -0.5955 -0.2031
  265MOL0     C36447   4.554   7.671   8.967 -0.6000 -0.3087 -0.7608
  265MOL0     C36448   4.577   7.639   8.818  0.1695 -0.9456 -0.5238
  265MOL0     N36449   4.532   7.510   8.774  0.4283 -0.3032  0.1311
  265MOL0     C36450   4.562   7.395   8.843  0.1810 -0.4621 -0.5213
  265MOL0     C36451   4.498   7.297   8.785  0.6212 -0.3288 -0.1915
  265MOL0     C36452   4.498   7.146   8.836  0.6348 -0.3515  0.2763
  265MOL0     C36453   4.625   7.079   8.787 -0.0450  0.2718 -0.2823
  265MOL0     C36454   4.613   6.928   8.812  0.0184  0.0411  0.0548
  265MOL0     C36455   4.640   6.897   8.956  0.7011 -0.2946  0.4543
  265MOL0     O36456   4.766   6.948   9.013 -0.0932  0.2951  0.1518
  265MOL0     C36457   4.876   6.879   8.974 -0.6353  0.5594 -0.2759
  265MOL0     C36458   4.992   6.960   8.948 -0.0071 -0.5477  0.5442
  265MOL0     C36459   5.125   6.906   8.937  0.6373 -0.2411  0.3718
  265MOL0     C36460   5.230   7.011   8.910 -0.7063  0.0791 -0.6761
  265MOL0     C36461   5.139   6.766   8.941 -0.5223  0.0197 -0.7144
  265MOL0     C36462   5.262   6.699   8.914 -0.0474 -0.6378  0.3424
  265MOL0     O36463   5.337   6.742   8.810  0.1856  0.5161  0.0159
  265MOL0     C36464   5.414   6.660   8.741  0.4559  0.3155  0.7044
  265MOL0     C36465   5.363   6.535   8.699 -1.2224 -0.0387  0.6957
  265MOL0     C36466   5.427   6.464   8.596  0.4586  0.1179  0.0984
  265MOL0     C36467   5.547   6.508   8.545  0.1177  0.7710  0.9302
  265MOL0     O36468   5.608   6.430   8.450  0.4900  0.5897 -0.2047
  265MOL0     C36469   5.739   6.387   8.478 -0.1090 -0.1400 -0.1674
  265MOL0     C36470   5.792   6.334   8.348 -0.1282 -0.2148 -0.3651
  265MOL0     C36471   5.941   6.314   8.354 -0.1977  0.8769  0.5610
  265MOL0     C36472   5.995   6.263   8.217  1.1322 -0.6620  0.7449
  265MOL0     C36473   5.980   6.354   8.099  0.3259 -0.5088 -0.0784
  265MOL0     C36474   6.048   6.489   8.104  0.2654 -0.0872  0.7922
  265MOL0     C36475   5.995   6.587   7.994 -0.0138  0.1273 -1.5499
  265MOL0     C36476   6.090   6.714   7.987  0.2283 -0.4897  0.7255
  265MOL0    Cl36477   6.106   6.787   8.147 -0.5324 -0.2990 -0.2218
  265MOL0     C36478   5.607   6.621   8.596  0.4615 -1.0122 -0.4529
  265MOL0     C36479   5.534   6.704   8.688  0.7058 -0.3205 -0.4639
  265MOL0     O36480   5.284   6.601   8.983 -0.0466 -0.6716 -0.2697
  265MOL0     C36481   5.028   6.689   8.979  0.8014  0.1967 -0.4832
  265MOL0     C36482   4.899   6.741   8.991 -1.0448 -0.5105  0.9448
  265MOL0     N36483   4.431   7.341   8.666 -0.3863 -0.8469 -0.6378
  265MOL0     N36484   4.454   7.472   8.666  0.4169  1.7331 -0.1322
  265MOL0     C36485   3.613   7.946   9.310  0.1688 -1.0326 -0.8783
  265MOL0     C36486   3.520   7.997   9.393 -0.1108  1.0558 -0.3005
  265MOL0     C36487   3.335   8.103   9.826  0.1714  1.4997 -0.1551
  265MOL0     C36488   3.337   8.244   9.817 -0.7337 -0.0281  0.2233
  265MOL0     C36489   3.258   8.317   9.905  0.0548 -0.0004  0.0652
  265MOL0     C36490   3.169   8.263  10.002  0.3251 -0.7924  0.3923
  265MOL0     O36491   3.077   8.344  10.073 -0.5420 -0.0255  0.4560
  265MOL0     C36492   3.039   8.314  10.209 -0.2860  0.1887  0.4726
  265MOL0     C36493   2.952   8.437  10.253 -1.3016  0.4326 -0.6000
  265MOL0     C36494   2.897   8.408  10.397 -0.2033 -1.2693  0.5700
  265MOL0     C36495   2.812   8.534  10.449  0.6793  0.5565 -0.5841
  265MOL0     C36496   2.696   8.498  10.535  1.1267 -0.2125 -0.7885
  265MOL0     C36497   2.604   8.464  10.607  1.2252 -0.0752 -0.3204
  265MOL0     C36498   3.154   8.122   9.992 -0.2314 -0.4708  0.5328
  265MOL0     C36499   3.232   8.048   9.909 -0.0670  0.1827  0.5512
  265MOL0     C36500   3.194   7.904   9.920  0.6975  0.3641 -0.0254
  265MOL0     H36501   3.683   7.925   9.694  1.9194  0.0890 -0.2628
  265MOL0     H36502   3.841   7.836   9.540  0.6504  2.3525  0.8067
  265MOL0     H36503   3.994   7.918   9.341  2.9699 -1.1238  0.1224
  265MOL0     H36504   3.988   7.836   9.184 -3.7642  1.0321 -1.4367
  265MOL0     H36505   3.994   7.679   9.445 -1.7909 -3.4238  0.1324
  265MOL0     H36506   3.957   7.616   9.286  2.8062 -1.8966  0.0057
  265MOL0     H36507   4.225   7.749   9.379  0.4686 -1.0009 -0.5114
  265MOL0     H36508   4.188   7.577   9.363  0.3497  0.5931  2.4550
  265MOL0     H36509   4.176   7.596   9.131  4.4563 -1.1391 -0.4908
  265MOL0     H36510   4.184   7.784   9.128 -2.0141 -0.8171 -0.8708
  265MOL0     H36511   4.402   7.582   9.202  2.0191  1.8440 -0.0507
  265MOL0     H36512   4.420   7.753   9.180  0.4480 -1.1076 -0.3257
  265MOL0     H36513   4.366   7.559   8.962 -0.9968 -0.3062  0.2620
  265MOL0     H36514   4.347   7.736   8.940 -1.3640 -0.8476  1.0093
  265MOL0     H36515   4.611   7.615   9.042 -0.9651  0.7039  0.2959
  265MOL0     H36516   4.589   7.772   8.988  0.4388 -0.4465 -1.7371
  265MOL0     H36517   4.527   7.710   8.751 -0.6742 -3.8335 -3.2615
  265MOL0     H36518   4.682   7.641   8.786  0.6801 -0.7280  1.0818
  265MOL0     H36519   4.625   7.381   8.931 -0.6313 -2.8495 -0.2533
  265MOL0     H36520   4.407   7.104   8.792 -0.2562  0.7635  0.9819
  265MOL0     H36521   4.477   7.147   8.944 -2.5653  1.9582 -0.2217
  265MOL0     H36522   4.626   7.096   8.679  0.2976  0.0146 -0.3233
  265MOL0     H36523   4.717   7.121   8.827  1.0930  0.2767 -2.7521
  265MOL0     H36524   4.527   6.877   8.768  0.1988  1.2880 -1.8183
  265MOL0     H36525   4.703   6.891   8.762  0.8745  3.6562 -1.3948
  265MOL0     H36526   4.562   6.944   9.016  0.6628  1.1470 -0.6740
  265MOL0     H36527   4.626   6.790   8.974 -1.0320 -0.9320 -3.6303
  265MOL0     H36528   4.969   7.066   8.951  0.0805 -0.3926 -1.9903
  265MOL0     H36529   5.235   7.019   8.801  1.7327 -0.5168 -0.6636
  265MOL0     H36530   5.328   6.982   8.951  0.0286  1.7683 -1.1573
  265MOL0     H36531   5.219   7.111   8.952 -2.1101 -0.1906 -0.3489
  265MOL0     H36532   5.276   6.490   8.746 -3.0918  2.5791 -0.0304
  265MOL0     H36533   5.390   6.368   8.559  1.2305  0.8044 -2.7152
  265MOL0     H36534   5.779   6.485   8.507 -4.1951  1.9405 -0.8886
  265MOL0     H36535   5.748   6.315   8.560 -1.6594 -0.2758 -0.0800
  265MOL0     H36536   5.741   6.239   8.330  0.8933 -1.0413  0.9537
  265MOL0     H36537   5.766   6.408   8.272 -1.0299  0.1202  0.2481
  265MOL0     H36538   5.963   6.240   8.431  0.7524  0.8723  0.2913
  265MOL0     H36539   5.993   6.405   8.384 -3.6176  2.8588  1.0105
  265MOL0     H36540   5.931   6.179   8.191  0.2399  1.0434 -3.2387
  265MOL0     H36541   6.100   6.231   8.221  1.1905 -1.2818 -2.6581
  265MOL0     H36542   6.004   6.286   8.017 -0.5034 -0.1936 -0.5892
  265MOL0     H36543   5.876   6.386   8.090 -0.2714 -1.8794  1.3496
  265MOL0     H36544   6.157   6.481   8.101  0.2195 -0.7340 -2.5633
  265MOL0     H36545   6.023   6.538   8.198 -0.6303 -0.5995  0.8293
  265MOL0     H36546   5.892   6.616   8.016  0.3924 -0.8645  2.6428
  265MOL0     H36547   6.010   6.534   7.900  2.1560  0.9310 -1.7293
  265MOL0     H36548   6.049   6.791   7.920 -1.4797 -0.3862  1.8274
  265MOL0     H36549   6.195   6.693   7.963  0.2602 -0.4952  0.8754
  265MOL0     H36550   5.689   6.671   8.546 -0.8373  0.1840 -1.5006
  265MOL0     H36551   5.590   6.792   8.719  1.9929 -1.5967  1.0351
  265MOL0     H36552   5.024   6.581   8.973 -1.5275  0.1431  0.8306
  265MOL0     H36553   4.819   6.670   9.007 -2.1705  0.4229 -0.2521
  265MOL0     H36554   3.590   7.949   9.204 -0.3510  1.5722 -0.7528
  265MOL0     H36555   3.420   8.033   9.368 -0.3771  0.8748  0.4743
  265MOL0     H36556   3.400   8.292   9.742 -0.7236  1.2076  1.0044
  265MOL0     H36557   3.251   8.424   9.894 -1.2661  0.1456  1.8408
  265MOL0     H36558   2.978   8.223  10.217 -1.7337  0.9439 -1.2931
  265MOL0     H36559   3.119   8.298  10.282 -0.8158 -2.0207  0.6378
  265MOL0     H36560   2.871   8.459  10.183  0.7697  2.1986 -2.5891
  265MOL0     H36561   3.011   8.527  10.267 -5.5742  3.5968 -0.9908
  265MOL0     H36562   2.822   8.328  10.394 -2.8176  1.0219 -0.0140
  265MOL0     H36563   2.975   8.378  10.466  1.3680  2.3924  0.6151
  265MOL0     H36564   2.777   8.599  10.368 -1.6892 -2.0126 -1.8252
  265MOL0     H36565   2.880   8.589  10.514  0.9420  0.3472 -0.6831
  265MOL0     H36566   2.539   8.428  10.683  0.4743  0.4943 -0.6870
  265MOL0     H36567   3.067   8.082  10.042 -2.9274  2.4923 -1.3786
  265MOL0     H36568   3.090   7.890   9.953  0.3172  0.3023 -1.2021
  265MOL0     H36569   3.200   7.855   9.822  1.2203 -0.2261  0.2996
  265MOL0     H36570   3.259   7.852   9.990  3.8123  1.0739 -2.2034
  266MOL0     O36571   1.982   6.288   4.762  0.0602  0.3781 -0.0811
  266MOL0     C36572   2.024   6.272   4.875  0.9873 -0.7900 -0.0947
  266MOL0     O36573   1.939   6.246   4.986  0.3456 -0.5139  0.1948
  266MOL0     C36574   1.807   6.215   4.963  0.0960  0.1962 -0.3287
  266MOL0     C36575   1.721   6.308   4.904  0.2984  0.2273 -0.5055
  266MOL0     C36576   1.587   6.267   4.883  0.4851 -0.8411  1.1709
  266MOL0     C36577   1.538   6.152   4.926  0.2214 -0.4508 -0.0631
  266MOL0     O36578   1.405   6.131   4.906  0.1223 -0.5112 -0.4606
  266MOL0     C36579   1.347   6.006   4.944  0.1600  0.3853 -0.4795
  266MOL0     C36580   1.215   5.985   4.871 -0.0688  0.4637 -0.5007
  266MOL0     C36581   1.111   6.095   4.892  0.4923 -0.2486 -0.4553
  266MOL0     C36582   0.987   6.044   4.950 -0.0838  0.2508  0.0835
  266MOL0     C36583   0.876   6.155   4.937 -0.5198  0.0446 -0.5177
  266MOL0     C36584   0.772   6.138   5.042  0.6281 -0.4227  0.5336
  266MOL0     C36585   0.824   6.134   5.190  0.1266  0.0690  0.8014
  266MOL0     C36586   0.700   6.148   5.278 -0.3510 -0.9464  0.0886
  266MOL0     N36587   0.587   6.050   5.269  0.0196 -0.0008  0.5155
  266MOL0     C36588   0.604   5.919   5.262  0.1318 -0.4096  0.7761
  266MOL0     C36589   0.491   5.861   5.214  0.1171  0.8519 -0.7918
  266MOL0     C36590   0.465   5.708   5.205 -0.2251 -1.1906 -0.7823
  266MOL0     C36591   0.588   5.648   5.132 -0.0724 -0.5763 -0.5494
  266MOL0     C36592   0.586   5.700   4.985 -0.3330  0.1258 -0.2868
  266MOL0     C36593   0.469   5.641   4.900 -0.1599 -0.0782  0.0010
  266MOL0     O36594   0.450   5.496   4.916 -0.3242 -0.3126 -0.2183
  266MOL0     C36595   0.332   5.430   4.896 -0.9192  0.1520 -0.4110
  266MOL0     C36596   0.224   5.489   4.846 -0.8310  0.0214 -0.7571
  266MOL0     C36597   0.112   5.412   4.814  0.4079 -0.2211  0.3880
  266MOL0     C36598  -0.010   5.487   4.753  0.2876  0.3622 -0.9661
  266MOL0     C36599   0.109   5.271   4.834 -0.6857  0.0834 -0.2530
  266MOL0     C36600  -0.019   5.183   4.815 -0.5956  0.1983  0.0327
  266MOL0     O36601   0.007   5.050   4.799 -0.1816  0.3666  0.3268
  266MOL0     C36602  -0.067   4.957   4.860 -0.4003  0.3101  0.1578
  266MOL0     C36603  -0.121   4.973   4.991  0.2183 -0.1277  0.4415
  266MOL0     C36604  -0.188   4.874   5.064 -0.0424  0.4068 -0.6264
  266MOL0     C36605  -0.203   4.747   5.006  0.2216 -0.2979 -0.1436
  266MOL0     O36606  -0.288   4.659   5.065 -0.5396  0.1364  0.0372
  266MOL0     C36607  -0.275   4.525   5.030 -0.1130  0.2876  0.2182
  266MOL0     C36608  -0.374   4.449   5.117 -0.4014 -0.5222  0.3807
  266MOL0     C36609  -0.338   4.443   5.271 -0.1503 -0.3604  0.0469
  266MOL0     C36610  -0.203   4.385   5.300  0.1543  0.3446  0.5623
  266MOL0     C36611  -0.193   4.354   5.447 -0.2112  0.2370 -0.6312
  266MOL0     C36612  -0.204   4.472   5.541  0.0429 -0.2743 -0.5221
  266MOL0     C36613  -0.166   4.441   5.681  0.3591  0.4161  0.9116
  266MOL0     C36614  -0.152   4.571   5.754  0.5759 -0.2831  0.3161
  266MOL0    Cl36615   0.002   4.657   5.704 -0.2965  0.7189 -0.5951
  266MOL0     C36616  -0.150   4.732   4.876 -0.2425  0.3779  0.6089
  266MOL0     C36617  -0.074   4.832   4.806  0.3426  0.1234 -0.3371
  266MOL0     O36618  -0.126   5.237   4.833  0.1470  0.4108  0.7248
  266MOL0     C36619   0.227   5.207   4.879 -0.1115 -0.6045 -0.1987
  266MOL0     C36620   0.339   5.294   4.911 -0.6701 -0.1892  0.1069
  266MOL0     N36621   0.398   5.963   5.193  0.5101 -0.4329 -0.0911
  266MOL0     N36622   0.457   6.074   5.225  0.1162  0.1855  0.2500
  266MOL0     C36623   1.624   6.075   5.010  0.0914  0.4673  0.1060
  266MOL0     C36624   1.756   6.106   5.036 -0.1418 -0.9967 -0.7414
  266MOL0     C36625   2.170   6.276   4.889 -0.4307  0.1796  0.6248
  266MOL0     C36626   2.257   6.286   4.772 -0.2662 -0.2283  0.5237
  266MOL0     C36627   2.393   6.292   4.792  0.4869  1.1902 -0.2757
  266MOL0     C36628   2.453   6.283   4.917 -0.3673 -0.7791  0.4019
  266MOL0     O36629   2.592   6.291   4.933 -0.1726  0.1197  1.7377
  266MOL0     C36630   2.661   6.397   4.861 -0.4625  0.9742  0.0467
  266MOL0     C36631   2.815   6.411   4.913  0.7874 -0.1255  0.8027
  266MOL0     C36632   2.832   6.471   5.059 -0.2101  0.8386  0.6154
  266MOL0     C36633   2.778   6.613   5.075 -0.4701 -0.9117  0.0302
  266MOL0     C36634   2.862   6.705   4.994 -1.2653  0.3741  0.3971
  266MOL0     C36635   2.927   6.779   4.927  0.0960  0.9351  0.7492
  266MOL0     C36636   2.368   6.264   5.025 -0.3915  0.0548  0.3063
  266MOL0     C36637   2.235   6.262   5.016  0.7297 -0.0515  0.2383
  266MOL0     C36638   2.158   6.258   5.154 -0.1748  0.4237 -0.1448
  266MOL0     H36639   1.743   6.405   4.861 -2.9377  0.3773 -2.1694
  266MOL0     H36640   1.503   6.325   4.848 -1.1725 -1.9613  3.0380
  266MOL0     H36641   1.323   6.008   5.051 -1.1049 -0.4666 -0.7302
  266MOL0     H36642   1.415   5.921   4.935 -0.9077 -0.7784  1.5626
  266MOL0     H36643   1.232   5.967   4.764  3.0245 -0.7258  0.0834
  266MOL0     H36644   1.169   5.900   4.922  1.8100  0.0021  0.5285
  266MOL0     H36645   1.142   6.177   4.958 -2.4615  0.1378  0.5907
  266MOL0     H36646   1.086   6.128   4.791 -1.1284 -0.5030 -0.1683
  266MOL0     H36647   0.953   5.957   4.893 -2.6856  0.7403  0.7764
  266MOL0     H36648   1.009   6.005   5.049 -0.1210 -1.2349 -0.4731
  266MOL0     H36649   0.837   6.150   4.835 -0.9119 -3.3037 -0.3244
  266MOL0     H36650   0.919   6.255   4.947 -2.2638  1.0392 -2.1757
  266MOL0     H36651   0.700   6.220   5.030 -0.7136 -1.7943 -1.4711
  266MOL0     H36652   0.705   6.054   5.019  0.5550 -0.4881  0.9689
  266MOL0     H36653   0.873   6.226   5.222 -3.1503  2.5967 -0.8358
  266MOL0     H36654   0.881   6.041   5.203  1.9639  1.1721  0.8527
  266MOL0     H36655   0.734   6.152   5.382  1.6486 -0.5914 -0.5525
  266MOL0     H36656   0.645   6.238   5.249 -0.2742 -0.2890  1.8748
  266MOL0     H36657   0.690   5.863   5.298 -1.4025 -2.0188  2.0987
  266MOL0     H36658   0.371   5.703   5.148 -0.1003  0.7205 -1.2175
  266MOL0     H36659   0.443   5.651   5.296 -0.6137 -0.0398 -0.1330
  266MOL0     H36660   0.681   5.683   5.179 -1.1685 -0.5974  1.8027
  266MOL0     H36661   0.590   5.540   5.147  1.7726 -0.7746 -1.8729
  266MOL0     H36662   0.591   5.809   4.977 -1.9216  0.1917 -0.7903
  266MOL0     H36663   0.678   5.663   4.938  0.7086 -1.7920  2.9192
  266MOL0     H36664   0.377   5.690   4.933  0.8230  4.1398 -2.7385
  266MOL0     H36665   0.473   5.658   4.793 -0.1336 -2.2092 -0.3836
  266MOL0     H36666   0.223   5.595   4.822  2.5200 -0.1889 -2.4888
  266MOL0     H36667  -0.040   5.425   4.668  0.4623 -1.9959  0.5896
  266MOL0     H36668   0.032   5.584   4.724 -0.5304  1.2094  0.6244
  266MOL0     H36669  -0.087   5.509   4.827 -1.0901  0.6583 -2.4324
  266MOL0     H36670  -0.134   5.074   5.028  1.9232 -0.7899  3.1674
  266MOL0     H36671  -0.236   4.917   5.151  1.2560  0.2373  0.2045
  266MOL0     H36672  -0.303   4.503   4.926 -1.0975 -3.2545  1.0809
  266MOL0     H36673  -0.184   4.470   5.057 -1.8740 -2.5123  0.9423
  266MOL0     H36674  -0.475   4.491   5.118 -0.8479 -1.2858 -2.6958
  266MOL0     H36675  -0.378   4.345   5.084 -0.3284 -0.1085 -0.9715
  266MOL0     H36676  -0.413   4.381   5.320  2.2447 -2.3249  1.4335
  266MOL0     H36677  -0.351   4.546   5.307  4.5785  0.5894 -0.3612
  266MOL0     H36678  -0.121   4.456   5.284  1.2431 -0.7440  1.1590
  266MOL0     H36679  -0.188   4.292   5.244 -2.1425  0.1203  0.2207
  266MOL0     H36680  -0.281   4.293   5.473 -0.1321  0.3350 -0.1440
  266MOL0     H36681  -0.098   4.302   5.463 -0.1698  0.1379 -1.1738
  266MOL0     H36682  -0.308   4.505   5.549  0.7134  2.7702 -2.6272
  266MOL0     H36683  -0.146   4.557   5.506  2.9497 -1.4631  0.9816
  266MOL0     H36684  -0.064   4.403   5.672  0.8899  1.5072  2.0515
  266MOL0     H36685  -0.232   4.364   5.722  1.9217 -1.4006  0.1537
  266MOL0     H36686  -0.157   4.547   5.861 -1.7102  5.9296  2.0452
  266MOL0     H36687  -0.236   4.634   5.724  1.5973  1.3107  0.6732
  266MOL0     H36688  -0.149   4.640   4.818  0.0030  0.8902 -0.2105
  266MOL0     H36689  -0.031   4.823   4.707 -3.9979 -0.0459 -2.4207
  266MOL0     H36690   0.226   5.100   4.898  0.3551 -0.0911  3.4129
  266MOL0     H36691   0.427   5.250   4.958 -1.1455 -3.8664 -2.0504
  266MOL0     H36692   1.583   5.981   5.048 -1.8856  0.2732 -2.2808
  266MOL0     H36693   1.825   6.052   5.100  1.2504 -1.0566 -2.2344
  266MOL0     H36694   2.209   6.305   4.677 -4.2409  3.7262  2.9386
  266MOL0     H36695   2.459   6.296   4.706 -0.2527  1.4168 -0.8414
  266MOL0     H36696   2.683   6.354   4.763  0.2308 -2.4339  1.5455
  266MOL0     H36697   2.596   6.484   4.850  0.3518  1.4463 -1.3992
  266MOL0     H36698   2.874   6.479   4.850  2.0955 -1.2026  0.8267
  266MOL0     H36699   2.868   6.316   4.914  1.2897  0.1561  2.3046
  266MOL0     H36700   2.784   6.404   5.131 -1.3733 -0.9009 -1.6363
  266MOL0     H36701   2.936   6.475   5.093 -0.3767 -1.8768  1.6889
  266MOL0     H36702   2.774   6.634   5.182 -0.8268 -2.6867  0.3886
  266MOL0     H36703   2.673   6.618   5.046 -0.3548 -0.7601 -0.3679
  266MOL0     H36704   2.989   6.851   4.877  1.6398 -2.3648 -2.5715
  266MOL0     H36705   2.410   6.261   5.125  1.5487  0.4887 -0.4474
  266MOL0     H36706   2.225   6.270   5.240 -0.3699 -1.3694  0.2910
  266MOL0     H36707   2.085   6.340   5.151  1.2307  1.7298 -3.5062
  266MOL0     H36708   2.126   6.154   5.164  1.7686 -0.3778 -1.5782
  267MOL0     O36709   5.015  10.078   0.541  0.4213 -0.3299 -0.0926
  267MOL0     C36710   5.129  10.074   0.507 -0.3485  1.1177  0.4443
  267MOL0     O36711   5.165  10.074   0.379  0.0707  0.4679 -0.0619
  267MOL0     C36712   5.079  10.038   0.276  1.0512  0.0484  0.1786
  267MOL0     C36713   5.142   9.987   0.162 -0.0148  0.0270  0.4684
  267MOL0     C36714   5.077   9.974   0.042  0.6548 -0.2808  0.1626
  267MOL0     C36715   4.938   9.988   0.027 -0.4961 -0.1834 -0.8442
  267MOL0     O36716   4.886   9.981  -0.099 -0.6741 -0.5094 -0.6219
  267MOL0     C36717   4.748   9.977  -0.115  0.1675  0.3818 -0.0016
  267MOL0     C36718   4.713   9.905  -0.248 -1.6517 -0.2342  0.0874
  267MOL0     C36719   4.568   9.895  -0.293 -0.2095  0.1518  0.4477
  267MOL0     C36720   4.547   9.791  -0.400 -0.3793 -0.2431 -0.1544
  267MOL0     C36721   4.463   9.837  -0.512  0.0546 -0.0035  0.5443
  267MOL0     C36722   4.371   9.727  -0.578 -0.0166  0.2735  1.1310
  267MOL0     C36723   4.301   9.797  -0.700 -0.6297 -0.2464  0.0573
  267MOL0     C36724   4.209   9.712  -0.781 -0.1157  0.0827 -0.8739
  267MOL0     N36725   4.146   9.797  -0.884  0.3048  0.8133  0.0097
  267MOL0     C36726   4.217   9.855  -0.979  0.4759 -0.1385  0.6204
  267MOL0     C36727   4.129   9.873  -1.079 -0.0407  0.2737  0.1196
  267MOL0     C36728   4.161   9.928  -1.215  0.5471 -0.2685 -1.2001
  267MOL0     C36729   4.264   9.840  -1.297 -0.0727  0.1581 -1.0381
  267MOL0     C36730   4.408   9.889  -1.280  0.1948 -0.6524  0.6058
  267MOL0     C36731   4.513   9.799  -1.340 -0.1007 -0.1698  0.4315
  267MOL0     O36732   4.632   9.882  -1.356 -0.1231  0.2304  0.5526
  267MOL0     C36733   4.645   9.966  -1.463 -0.3426  0.4394 -0.4011
  267MOL0     C36734   4.773  10.020  -1.490  0.1565 -0.1203 -1.0613
  267MOL0     C36735   4.792  10.093  -1.603 -1.1996 -0.0520  0.4897
  267MOL0     C36736   4.936  10.146  -1.617  0.4386 -0.2427 -0.5943
  267MOL0     C36737   4.691  10.113  -1.696  0.2249  0.5104  0.1311
  267MOL0     C36738   4.708  10.194  -1.815 -0.2057  0.1715  0.9911
  267MOL0     O36739   4.621  10.169  -1.916 -0.1665 -0.3004  0.2841
  267MOL0     C36740   4.649  10.238  -2.040  0.2130  0.1839 -0.1770
  267MOL0     C36741   4.556  10.336  -2.072 -0.6590 -0.3800  0.3683
  267MOL0     C36742   4.566  10.418  -2.185 -0.2323  0.3866  0.9320
  267MOL0     C36743   4.689  10.417  -2.257  0.9558 -0.6499  0.3840
  267MOL0     O36744   4.721  10.511  -2.349  0.2706  0.0462 -0.1393
  267MOL0     C36745   4.688  10.649  -2.319 -0.5287  0.5748 -0.4594
  267MOL0     C36746   4.798  10.737  -2.394 -0.0536  0.1306 -0.5545
  267MOL0     C36747   4.936  10.730  -2.327 -0.9525 -0.4043  0.2986
  267MOL0     C36748   5.050  10.657  -2.403  0.4769 -0.4507 -0.4325
  267MOL0     C36749   5.178  10.669  -2.315  0.0334 -0.4137  0.6720
  267MOL0     C36750   5.293  10.581  -2.371  0.8289  0.2316  0.2546
  267MOL0     C36751   5.264  10.434  -2.357  0.7556  0.7116 -0.3534
  267MOL0     C36752   5.386  10.346  -2.394  0.6031 -0.4448  1.1604
  267MOL0    Cl36753   5.522  10.353  -2.288  0.0081  0.4632  0.2554
  267MOL0     C36754   4.796  10.325  -2.217  0.6774  0.9584 -0.0111
  267MOL0     C36755   4.767  10.237  -2.115 -0.0280 -0.6037  0.1767
  267MOL0     O36756   4.791  10.286  -1.816  0.0062  0.0842  0.2756
  267MOL0     C36757   4.570  10.063  -1.667 -0.9113  1.0197 -0.3767
  267MOL0     C36758   4.549   9.987  -1.555  0.1800  0.2164  0.3426
  267MOL0     N36759   4.004   9.859  -1.022 -0.3923 -0.1969 -0.5271
  267MOL0     N36760   4.013   9.793  -0.915  0.2948  0.2807 -0.4176
  267MOL0     C36761   4.870  10.023   0.147 -0.2994  0.3147 -0.2648
  267MOL0     C36762   4.939  10.045   0.269 -0.1511 -0.0540 -0.2744
  267MOL0     C36763   5.235  10.093   0.613 -0.1801 -0.2706 -0.6562
  267MOL0     C36764   5.195  10.138   0.739  0.6937 -0.2832  0.4984
  267MOL0     C36765   5.285  10.176   0.834 -0.3412 -0.4574 -1.3480
  267MOL0     C36766   5.424  10.162   0.809  0.7939  0.1492 -0.5282
  267MOL0     O36767   5.525  10.207   0.885  0.4445 -0.1806  0.5884
  267MOL0     C36768   5.494  10.267   1.011 -0.0068  0.3970  0.4452
  267MOL0     C36769   5.618  10.245   1.104 -0.3901 -0.0461  0.4531
  267MOL0     C36770   5.562  10.235   1.249 -0.5414 -0.5852 -0.0494
  267MOL0     C36771   5.673  10.209   1.348  0.3163 -0.1381 -0.3609
  267MOL0     C36772   5.635  10.181   1.484  0.3675 -0.0483 -0.6880
  267MOL0     C36773   5.596  10.171   1.598 -0.1114 -0.0821  0.0550
  267MOL0     C36774   5.465  10.111   0.693 -0.3384  0.1672  0.1497
  267MOL0     C36775   5.374  10.080   0.590  0.6877  0.6919 -0.5615
  267MOL0     C36776   5.428  10.026   0.451 -0.8148 -0.5297  0.3182
  267MOL0     H36777   5.250   9.970   0.164 -0.2432 -1.5754  0.4182
  267MOL0     H36778   5.147   9.965  -0.040  0.9364  3.9274 -0.2770
  267MOL0     H36779   4.713  10.080  -0.122  0.0299  0.3124 -0.3815
  267MOL0     H36780   4.698   9.914  -0.041  1.1988 -1.0884 -0.4987
  267MOL0     H36781   4.777   9.958  -0.319  1.5449 -1.3594  1.9377
  267MOL0     H36782   4.758   9.806  -0.242  2.9616  1.5395 -1.1043
  267MOL0     H36783   4.522   9.859  -0.201 -2.6345  2.2670  0.1848
  267MOL0     H36784   4.536   9.996  -0.319 -1.8861 -0.0958  1.3791
  267MOL0     H36785   4.649   9.762  -0.429  1.2089  2.9100  1.7058
  267MOL0     H36786   4.490   9.709  -0.357  0.0633  0.6069  2.1877
  267MOL0     H36787   4.530   9.877  -0.589 -1.7392  2.7482  0.2690
  267MOL0     H36788   4.397   9.916  -0.475  1.3156  0.8956  0.9432
  267MOL0     H36789   4.435   9.649  -0.620  1.0328  1.8718 -0.3685
  267MOL0     H36790   4.290   9.687  -0.516  1.2237 -3.3790  0.6231
  267MOL0     H36791   4.374   9.848  -0.764 -0.6339 -1.0119 -0.5694
  267MOL0     H36792   4.244   9.881  -0.661 -0.7896 -0.0203 -0.6574
  267MOL0     H36793   4.266   9.636  -0.835 -0.9938 -0.5309 -0.9559
  267MOL0     H36794   4.133   9.671  -0.713  1.2375  2.0972  2.0539
  267MOL0     H36795   4.323   9.875  -0.990  0.3995 -0.2681 -0.4679
  267MOL0     H36796   4.198  10.029  -1.199 -0.8475 -0.1344  1.8161
  267MOL0     H36797   4.062   9.936  -1.261  0.7279  3.9445 -1.1809
  267MOL0     H36798   4.261   9.736  -1.263  2.1671  0.7698  1.3070
  267MOL0     H36799   4.239   9.837  -1.404  1.9030 -1.3144 -1.5088
  267MOL0     H36800   4.411   9.987  -1.328  1.3192 -0.0652  1.8090
  267MOL0     H36801   4.427   9.910  -1.174 -0.1602  0.4135  0.4734
  267MOL0     H36802   4.522   9.715  -1.270 -0.7443 -0.1525  0.5370
  267MOL0     H36803   4.481   9.752  -1.434  1.0132 -2.4695  1.1205
  267MOL0     H36804   4.846   9.992  -1.415  0.0811 -0.7328 -1.2100
  267MOL0     H36805   5.014  10.084  -1.571  1.7363  2.0918  0.4963
  267MOL0     H36806   4.939  10.247  -1.575  2.5549  0.2994 -1.8868
  267MOL0     H36807   4.956  10.158  -1.724 -1.4752 -3.5067 -1.4698
  267MOL0     H36808   4.469  10.357  -2.011 -2.6340 -2.5252 -1.5003
  267MOL0     H36809   4.482  10.481  -2.211 -0.3473 -0.3375 -0.5484
  267MOL0     H36810   4.588  10.682  -2.347 -0.0239  1.1740 -1.6199
  267MOL0     H36811   4.695  10.654  -2.210 -0.2208  0.1510 -0.4578
  267MOL0     H36812   4.819  10.712  -2.498  0.1316  2.0163 -1.0076
  267MOL0     H36813   4.763  10.840  -2.381  0.1371 -0.0667  2.2761
  267MOL0     H36814   4.938  10.697  -2.223  2.7768  1.0827  0.8634
  267MOL0     H36815   4.969  10.835  -2.324  0.4430 -0.8366  1.0589
  267MOL0     H36816   5.062  10.695  -2.505 -1.0545  1.2449 -0.0397
  267MOL0     H36817   5.011  10.555  -2.396  2.4797 -1.1827  0.8415
  267MOL0     H36818   5.222  10.769  -2.316  1.4922 -1.0195  0.3981
  267MOL0     H36819   5.159  10.638  -2.212  2.7080  2.3027  2.1274
  267MOL0     H36820   5.389  10.605  -2.324  1.5147  0.2366 -1.0990
  267MOL0     H36821   5.312  10.606  -2.476  2.2051 -0.2171  0.3738
  267MOL0     H36822   5.195  10.407  -2.437  0.0513  0.4893  0.3228
  267MOL0     H36823   5.238  10.415  -2.252  1.2670 -1.0524 -0.5029
  267MOL0     H36824   5.427  10.375  -2.492 -0.0033 -0.5285  0.8743
  267MOL0     H36825   5.353  10.243  -2.408 -0.0269 -0.2107  0.8391
  267MOL0     H36826   4.886  10.320  -2.278  2.0995 -1.8810  2.0725
  267MOL0     H36827   4.836  10.156  -2.091 -0.9837 -1.4799  0.0738
  267MOL0     H36828   4.486  10.063  -1.736 -2.7913  0.6011  1.7821
  267MOL0     H36829   4.444   9.961  -1.546 -0.1308  1.3236  0.1423
  267MOL0     H36830   4.764  10.040   0.137 -0.1382  0.2836 -2.7372
  267MOL0     H36831   4.877  10.083   0.350  3.5321  3.1243  1.3844
  267MOL0     H36832   5.088  10.149   0.754  0.3645 -0.9225 -1.1914
  267MOL0     H36833   5.242  10.226   0.920  1.8954 -0.4550 -0.1328
  267MOL0     H36834   5.466  10.372   0.994  0.3467  0.0924 -2.5757
  267MOL0     H36835   5.402  10.228   1.054 -0.6860  1.6611  0.2142
  267MOL0     H36836   5.689  10.328   1.105 -1.2140  0.7214 -1.3745
  267MOL0     H36837   5.683  10.161   1.078  1.4629  1.2364  0.6708
  267MOL0     H36838   5.520  10.327   1.290  0.2002 -1.5561  3.1779
  267MOL0     H36839   5.490  10.153   1.262 -1.1267  0.0286  0.6544
  267MOL0     H36840   5.745  10.291   1.345  1.7184 -1.2492  1.1414
  267MOL0     H36841   5.734  10.123   1.318 -1.3185 -1.9026  1.1567
  267MOL0     H36842   5.565  10.162   1.701  3.0619 -2.7296  0.9457
  267MOL0     H36843   5.570  10.121   0.667 -0.1228 -1.8202  0.1675
  267MOL0     H36844   5.362   9.949   0.410 -2.4023  0.0381  1.6672
  267MOL0     H36845   5.430  10.108   0.379  0.4163 -1.7065 -1.0591
  267MOL0     H36846   5.527   9.982   0.460 -1.8012 -2.8367  0.5724
  268MOL0     O36847   2.333   6.707   2.819 -0.0065 -0.2214  0.0929
  268MOL0     C36848   2.421   6.767   2.766 -0.4680 -0.8645 -0.1700
  268MOL0     O36849   2.484   6.725   2.653 -0.1142 -0.2424  0.7129
  268MOL0     C36850   2.441   6.614   2.593  0.1099 -0.1893  0.8694
  268MOL0     C36851   2.345   6.619   2.495  0.8068  0.0507  0.3510
  268MOL0     C36852   2.305   6.502   2.428  1.0624 -0.5614 -0.5021
  268MOL0     C36853   2.346   6.379   2.465 -0.1131  0.1789 -0.3006
  268MOL0     O36854   2.307   6.260   2.413 -0.3083  0.0446 -0.7840
  268MOL0     C36855   2.177   6.262   2.363 -0.9515  0.7128  0.3935
  268MOL0     C36856   2.139   6.114   2.358  0.0262 -0.2367 -0.3259
  268MOL0     C36857   2.210   6.049   2.235  0.4531  0.3753  0.4497
  268MOL0     C36858   2.201   5.901   2.253  0.1289 -0.0233  0.0519
  268MOL0     C36859   2.285   5.832   2.155 -0.3068  0.5675 -0.0769
  268MOL0     C36860   2.236   5.831   2.014  0.3959  1.1524  0.6211
  268MOL0     C36861   2.325   5.727   1.926  0.3616  0.1791 -0.0580
  268MOL0     C36862   2.301   5.736   1.774 -0.7034 -0.7618 -0.0311
  268MOL0     N36863   2.423   5.670   1.713 -0.4316  0.5994 -0.0860
  268MOL0     C36864   2.444   5.540   1.687  0.6478 -0.5458 -0.0675
  268MOL0     C36865   2.556   5.541   1.615  0.3671 -0.1487  0.0373
  268MOL0     C36866   2.620   5.425   1.544  0.2737 -0.7534  0.9904
  268MOL0     C36867   2.655   5.315   1.642 -0.3765  0.4042  1.1888
  268MOL0     C36868   2.739   5.206   1.580 -0.3386 -0.8034 -0.0460
  268MOL0     C36869   2.800   5.117   1.694  0.1706 -0.1745  0.5945
  268MOL0     O36870   2.907   5.042   1.655 -0.2450  0.1491  0.2982
  268MOL0     C36871   3.028   5.098   1.648 -0.0261 -0.9457  1.1760
  268MOL0     C36872   3.109   5.098   1.763 -0.4439  0.1475  0.5974
  268MOL0     C36873   3.231   5.164   1.749 -1.7632  0.2933  0.4283
  268MOL0     C36874   3.329   5.142   1.864  0.5203 -0.2919 -0.6432
  268MOL0     C36875   3.280   5.228   1.630 -0.0573  0.5369 -0.3732
  268MOL0     C36876   3.405   5.301   1.623 -1.6288  0.7250  0.8838
  268MOL0     O36877   3.476   5.277   1.507  0.5217 -0.4925 -0.3007
  268MOL0     C36878   3.574   5.373   1.483 -1.1234  0.5817  0.6873
  268MOL0     C36879   3.549   5.508   1.446 -0.3897  0.3317  0.3049
  268MOL0     C36880   3.652   5.596   1.446  0.3363 -0.2559  0.2770
  268MOL0     C36881   3.779   5.556   1.488  0.4890 -0.7176  1.1008
  268MOL0     O36882   3.883   5.653   1.493  0.3553 -1.1880  0.1371
  268MOL0     C36883   3.867   5.778   1.556  0.8295  0.4221 -0.0812
  268MOL0     C36884   4.005   5.838   1.552  0.8243  0.8891  0.1589
  268MOL0     C36885   4.026   5.933   1.436 -0.1040  0.0073 -0.5074
  268MOL0     C36886   4.062   5.860   1.306  0.1751 -0.0976  0.2345
  268MOL0     C36887   4.132   5.959   1.202  0.4405 -0.7816  0.0118
  268MOL0     C36888   4.042   6.084   1.173  0.2774  1.0579  0.1767
  268MOL0     C36889   4.018   6.129   1.029  0.5307  0.0422 -0.2749
  268MOL0     C36890   4.155   6.195   0.987 -0.2777 -0.2428 -0.1944
  268MOL0    Cl36891   4.142   6.302   0.847  0.1450 -0.1089  0.1719
  268MOL0     C36892   3.809   5.418   1.516  0.1078 -1.2886  0.7704
  268MOL0     C36893   3.705   5.327   1.512 -0.3631  0.4034  0.3025
  268MOL0     O36894   3.434   5.379   1.712  0.4609  0.2602  0.4992
  268MOL0     C36895   3.192   5.229   1.520  0.0699 -0.7808  0.5905
  268MOL0     C36896   3.058   5.175   1.533 -1.0087  0.9563 -0.0736
  268MOL0     N36897   2.599   5.673   1.595 -0.3820  0.4519 -0.0079
  268MOL0     N36898   2.516   5.745   1.658  0.4908 -0.5518 -0.3721
  268MOL0     C36899   2.444   6.375   2.574  0.2059  0.9270  0.3130
  268MOL0     C36900   2.487   6.488   2.639  0.0174  0.3358 -0.2149
  268MOL0     C36901   2.445   6.906   2.822  0.6125 -0.5036 -0.0373
  268MOL0     C36902   2.583   6.948   2.827  0.3569 -0.2204 -0.4240
  268MOL0     C36903   2.606   7.074   2.869 -0.4078 -1.2012 -0.5426
  268MOL0     C36904   2.505   7.168   2.922 -0.4165 -0.3217 -0.2579
  268MOL0     O36905   2.550   7.276   2.995 -0.2337  0.2679  0.3480
  268MOL0     C36906   2.457   7.390   3.012  0.7902 -0.5178 -0.5167
  268MOL0     C36907   2.542   7.518   3.030  0.5244  0.5002 -0.5438
  268MOL0     C36908   2.605   7.550   2.888  0.0148  1.0506  0.4456
  268MOL0     C36909   2.687   7.676   2.908  0.4988  0.2641 -0.3586
  268MOL0     C36910   2.765   7.695   2.782  0.5789 -0.4863 -0.3360
  268MOL0     C36911   2.830   7.729   2.688  0.2608 -0.1259 -0.0498
  268MOL0     C36912   2.375   7.121   2.927  1.1354  0.8209  0.3573
  268MOL0     C36913   2.341   6.994   2.866 -0.3897 -0.9039 -0.3588
  268MOL0     C36914   2.194   6.960   2.865 -0.1250  0.0477  0.6260
  268MOL0     H36915   2.304   6.716   2.469  1.3765  0.5176  1.1405
  268MOL0     H36916   2.226   6.509   2.354  0.6756  0.8090  0.0200
  268MOL0     H36917   2.170   6.311   2.266 -3.8763 -1.3638 -0.5923
  268MOL0     H36918   2.095   6.312   2.416 -0.1617  3.4266 -0.7885
  268MOL0     H36919   2.158   6.079   2.459 -1.1425  0.1256  0.0468
  268MOL0     H36920   2.030   6.112   2.349 -0.3363 -1.0159  2.9359
  268MOL0     H36921   2.155   6.059   2.140  0.2835  0.6084  0.5690
  268MOL0     H36922   2.312   6.088   2.230  0.7156 -0.0383  2.1078
  268MOL0     H36923   2.243   5.861   2.346 -0.5099  0.4222  0.5381
  268MOL0     H36924   2.098   5.865   2.243 -0.2932  0.4133  2.3110
  268MOL0     H36925   2.291   5.727   2.183 -0.9148  0.7296  0.7175
  268MOL0     H36926   2.384   5.873   2.176  0.0007 -0.8702  1.5197
  268MOL0     H36927   2.129   5.810   2.012  0.7963 -1.0520  0.2212
  268MOL0     H36928   2.246   5.934   1.980  0.3565  0.7183 -0.7405
  268MOL0     H36929   2.325   5.626   1.968  0.3946 -0.1659 -0.8709
  268MOL0     H36930   2.422   5.776   1.941 -0.0633  1.7010 -1.7712
  268MOL0     H36931   2.213   5.676   1.748 -1.4927  0.6615 -0.7581
  268MOL0     H36932   2.298   5.840   1.740  3.8210 -0.0688  1.0226
  268MOL0     H36933   2.371   5.465   1.716 -0.6198  1.0297  0.9672
  268MOL0     H36934   2.711   5.461   1.496 -1.1679  0.0823 -1.2610
  268MOL0     H36935   2.555   5.391   1.463  1.5944 -1.4880  0.1948
  268MOL0     H36936   2.709   5.363   1.724  2.6912 -0.5627 -0.0876
  268MOL0     H36937   2.558   5.272   1.669  0.7229 -2.7153  0.5870
  268MOL0     H36938   2.681   5.150   1.506  1.8278  0.2827 -2.7920
  268MOL0     H36939   2.822   5.263   1.538 -0.4682 -1.4778 -1.2764
  268MOL0     H36940   2.837   5.176   1.779  0.8230  1.9063 -1.0625
  268MOL0     H36941   2.719   5.055   1.735 -0.0252 -0.7165 -0.5857
  268MOL0     H36942   3.079   5.036   1.847 -3.2037  1.4148  0.6740
  268MOL0     H36943   3.343   5.234   1.923 -2.5896 -1.6930  2.6548
  268MOL0     H36944   3.423   5.112   1.818  1.5244  0.9330  0.5319
  268MOL0     H36945   3.301   5.059   1.929  2.0587 -0.5538 -0.2776
  268MOL0     H36946   3.446   5.535   1.423 -1.3542 -0.9260  2.7463
  268MOL0     H36947   3.647   5.699   1.410 -1.0730  0.4237  2.2867
  268MOL0     H36948   3.794   5.841   1.503 -0.5889 -2.0909 -1.2935
  268MOL0     H36949   3.839   5.766   1.661 -0.5574  1.5345 -0.2943
  268MOL0     H36950   3.995   5.903   1.639 -4.1683 -2.1319  2.2694
  268MOL0     H36951   4.091   5.771   1.562  0.5082  0.8220  3.6070
  268MOL0     H36952   4.118   5.986   1.459  0.0174  0.4705 -1.9469
  268MOL0     H36953   3.939   5.996   1.415  2.8719  3.8609 -2.4086
  268MOL0     H36954   3.963   5.833   1.269 -0.0101  2.8126 -1.8040
  268MOL0     H36955   4.126   5.772   1.320 -0.9288 -1.1069 -0.7695
  268MOL0     H36956   4.232   5.978   1.243  0.3417 -1.4353  0.5853
  268MOL0     H36957   4.137   5.904   1.108  2.3511  1.7053 -1.4486
  268MOL0     H36958   4.086   6.169   1.226  0.5299  1.5660 -0.8234
  268MOL0     H36959   3.939   6.073   1.207  0.7669 -0.2730  1.3123
  268MOL0     H36960   3.942   6.207   1.021  0.2676 -0.3766 -2.6025
  268MOL0     H36961   3.998   6.048   0.958  4.7285 -1.4918  0.0098
  268MOL0     H36962   4.230   6.117   0.971  1.1798  0.9452  0.5665
  268MOL0     H36963   4.192   6.243   1.078  1.3345 -0.9999 -0.4175
  268MOL0     H36964   3.912   5.404   1.547  1.6830  0.9210 -2.7642
  268MOL0     H36965   3.720   5.221   1.533 -1.9542  0.4622  2.1048
  268MOL0     H36966   3.220   5.271   1.424 -1.4483 -2.0073 -0.4291
  268MOL0     H36967   2.994   5.170   1.445 -0.2010  2.2997 -0.7726
  268MOL0     H36968   2.488   6.279   2.597 -0.0170  0.6499 -0.3779
  268MOL0     H36969   2.549   6.491   2.728 -2.3891  0.2138  1.5697
  268MOL0     H36970   2.669   6.888   2.800  2.4948  2.0791  0.8242
  268MOL0     H36971   2.706   7.115   2.884 -1.5018  0.7557  1.9918
  268MOL0     H36972   2.390   7.398   2.926 -0.9363 -1.1511  0.7183
  268MOL0     H36973   2.406   7.365   3.106 -0.3218 -1.5533 -1.3703
  268MOL0     H36974   2.616   7.484   3.103 -0.7885  0.4311  0.8087
  268MOL0     H36975   2.496   7.607   3.074  0.3207  0.3436 -0.4374
  268MOL0     H36976   2.664   7.465   2.853 -0.5241 -0.7649  3.4977
  268MOL0     H36977   2.525   7.563   2.815  1.5834  1.3310 -1.2903
  268MOL0     H36978   2.759   7.668   2.990  1.8338 -3.0372 -1.6552
  268MOL0     H36979   2.617   7.754   2.938  0.6711 -0.1411  1.1949
  268MOL0     H36980   2.883   7.760   2.600  1.5847  0.3099  0.8780
  268MOL0     H36981   2.298   7.176   2.980 -1.3217 -0.1490 -1.9241
  268MOL0     H36982   2.152   6.913   2.954 -1.8523  2.7305  1.3353
  268MOL0     H36983   2.145   7.058   2.863  3.2068  2.0956  4.3780
  268MOL0     H36984   2.174   6.904   2.773  0.2336 -2.6758  2.1101
  269MOL0     O36985   9.773   6.834   2.839  0.2448  0.2414  0.1776
  269MOL0     C36986   9.658   6.858   2.836  0.3489  0.1616  0.8534
  269MOL0     O36987   9.606   6.967   2.896 -0.9528 -0.0198 -0.7477
  269MOL0     C36988   9.691   7.062   2.947  0.1044 -0.2375 -0.1926
  269MOL0     C36989   9.757   7.036   3.070  0.0535 -0.0140 -0.3490
  269MOL0     C36990   9.832   7.142   3.133  0.7259 -0.5990  0.7450
  269MOL0     C36991   9.849   7.269   3.065  0.8475  0.4769 -0.1337
  269MOL0     O36992   9.914   7.381   3.121 -0.1549  0.2579 -0.2772
  269MOL0     C36993   9.996   7.366   3.233 -0.7577  0.3961 -0.2244
  269MOL0     C36994  10.079   7.494   3.254 -0.1292  0.5058  0.0600
  269MOL0     C36995  10.182   7.524   3.138  0.7764  0.2353  0.3169
  269MOL0     C36996  10.284   7.626   3.190  0.1985  0.0018 -0.2693
  269MOL0     C36997  10.360   7.681   3.061 -0.4540 -0.2635 -0.2892
  269MOL0     C36998  10.508   7.728   3.103  0.0162  0.1731 -0.0202
  269MOL0     C36999  10.587   7.730   2.973  0.2752 -0.3054 -0.2488
  269MOL0     C37000  10.726   7.783   2.992 -0.0938 -0.0284 -0.2614
  269MOL0     N37001  10.822   7.691   3.037  0.3032 -0.5953  0.6111
  269MOL0     C37002  10.871   7.674   3.157 -1.0985  0.4251 -1.1802
  269MOL0     C37003  10.988   7.593   3.134 -1.1976 -0.4303  0.6852
  269MOL0     C37004  11.091   7.547   3.230 -0.1455  0.2713 -0.2245
  269MOL0     C37005  11.218   7.629   3.217  1.1549 -0.4978 -0.1842
  269MOL0     C37006  11.331   7.562   3.304 -0.1482  0.3167  0.5509
  269MOL0     C37007  11.460   7.646   3.304  0.7105 -0.1588 -0.0443
  269MOL0     O37008  11.568   7.584   3.371  0.0179  1.1595  0.5492
  269MOL0     C37009  11.670   7.671   3.404  0.4663 -0.5774  0.0588
  269MOL0     C37010  11.755   7.642   3.514 -0.3418  0.5686  0.6911
  269MOL0     C37011  11.868   7.719   3.552  0.2587 -0.2954  0.0194
  269MOL0     C37012  11.953   7.670   3.663 -0.1219 -0.4652 -0.4128
  269MOL0     C37013  11.890   7.838   3.480  0.1212 -0.9062 -0.2933
  269MOL0     C37014  12.005   7.924   3.501  0.7320 -0.5570 -0.0278
  269MOL0     O37015  12.040   8.001   3.398  0.2245 -0.3645 -0.5576
  269MOL0     C37016  12.161   8.067   3.400 -0.6668  0.4120  0.2052
  269MOL0     C37017  12.179   8.176   3.489  1.0044 -0.3954  0.0191
  269MOL0     C37018  12.300   8.236   3.513  0.0367  0.2521 -0.1010
  269MOL0     C37019  12.412   8.184   3.441 -0.3647 -0.0097 -0.0509
  269MOL0     O37020  12.529   8.250   3.455 -0.8332  0.7194 -0.4522
  269MOL0     C37021  12.617   8.163   3.521 -0.3446 -1.4568 -0.3753
  269MOL0     C37022  12.765   8.197   3.518 -0.5120 -0.8030  1.0132
  269MOL0     C37023  12.828   8.239   3.387  0.4899  0.4249  0.2225
  269MOL0     C37024  12.814   8.124   3.277  0.3030  0.1989 -0.6402
  269MOL0     C37025  12.901   8.156   3.151  0.2217  0.3426 -0.2846
  269MOL0     C37026  13.047   8.138   3.190  0.7177  0.1172 -0.1302
  269MOL0     C37027  13.134   8.217   3.096 -0.6938  0.1762  0.5137
  269MOL0     C37028  13.104   8.367   3.075 -0.0574 -0.4436 -0.1145
  269MOL0    Cl37029  13.089   8.446   3.232 -0.2496 -0.1581 -0.3093
  269MOL0     C37030  12.396   8.078   3.348 -1.0719  0.4179  0.6847
  269MOL0     C37031  12.273   8.013   3.338 -0.1445  0.2769 -0.1326
  269MOL0     O37032  12.044   7.940   3.615  0.2641  0.1597 -0.9508
  269MOL0     C37033  11.811   7.859   3.367 -0.4392  0.0342 -0.6074
  269MOL0     C37034  11.705   7.788   3.324  0.2292 -0.4265  0.4610
  269MOL0     N37035  10.995   7.562   3.002  0.4676 -0.9629  0.8161
  269MOL0     N37036  10.896   7.633   2.948 -0.9140  0.5340  0.0240
  269MOL0     C37037   9.780   7.291   2.946 -0.6494 -0.1944  0.4925
  269MOL0     C37038   9.702   7.186   2.886 -0.4220  0.2122 -0.0061
  269MOL0     C37039   9.569   6.749   2.777  0.5457  0.0882  0.5347
  269MOL0     C37040   9.628   6.662   2.671  0.0076 -0.4295 -0.1811
  269MOL0     C37041   9.548   6.557   2.633 -0.8070 -0.4814 -0.0353
  269MOL0     C37042   9.424   6.520   2.691 -0.4535 -0.2647 -0.4571
  269MOL0     O37043   9.337   6.414   2.661 -0.6183  0.3508 -0.0075
  269MOL0     C37044   9.369   6.352   2.535 -0.8240 -0.0825 -0.3488
  269MOL0     C37045   9.480   6.245   2.552  0.0737  0.7977  0.8201
  269MOL0     C37046   9.421   6.116   2.625  0.2990 -1.6125  0.1149
  269MOL0     C37047   9.531   6.034   2.696 -0.0118  0.4558 -0.5667
  269MOL0     C37048   9.551   6.068   2.840 -0.0591  0.1898 -0.9922
  269MOL0     C37049   9.583   6.113   2.947  0.4674  0.4639  0.0709
  269MOL0     C37050   9.374   6.615   2.781 -0.1542 -0.2855 -0.7729
  269MOL0     C37051   9.436   6.735   2.824 -0.2108 -0.1501 -0.3807
  269MOL0     C37052   9.373   6.821   2.929 -0.1621 -0.2814  0.0117
  269MOL0     H37053   9.747   6.943   3.125  1.6855  0.0033  0.0441
  269MOL0     H37054   9.888   7.134   3.226  0.5179 -0.1976  0.9045
  269MOL0     H37055  10.067   7.284   3.220 -0.3678  0.0928  3.0041
  269MOL0     H37056   9.938   7.334   3.320  1.5082 -1.7416  0.5858
  269MOL0     H37057  10.010   7.578   3.252 -2.2627 -1.1608 -1.8787
  269MOL0     H37058  10.119   7.482   3.355  0.1978 -0.7823 -0.2014
  269MOL0     H37059  10.225   7.429   3.107 -0.0447 -0.0386  0.0057
  269MOL0     H37060  10.125   7.561   3.053  0.5331 -1.9622 -0.5286
  269MOL0     H37061  10.229   7.707   3.239  0.8845 -1.5809  3.5001
  269MOL0     H37062  10.354   7.589   3.265 -0.2155  0.1477  0.1948
  269MOL0     H37063  10.309   7.758   3.001  1.0821 -0.9583 -2.6406
  269MOL0     H37064  10.370   7.596   2.993 -0.8184 -1.4279  1.0832
  269MOL0     H37065  10.517   7.827   3.149  1.2269 -0.7461  1.8600
  269MOL0     H37066  10.554   7.650   3.164  1.4030 -0.5225 -1.8600
  269MOL0     H37067  10.535   7.795   2.903  3.4877  3.1941  0.2590
  269MOL0     H37068  10.600   7.632   2.927  4.1152 -0.4576  0.7687
  269MOL0     H37069  10.755   7.807   2.890 -0.5848 -0.6763 -0.5637
  269MOL0     H37070  10.737   7.874   3.051 -2.1590  0.4732 -0.5976
  269MOL0     H37071  10.839   7.727   3.245  1.2199 -0.7603  0.4799
  269MOL0     H37072  11.108   7.439   3.223  0.0587  0.2165  0.9349
  269MOL0     H37073  11.059   7.572   3.332  3.4475  3.1909  0.4024
  269MOL0     H37074  11.256   7.651   3.117 -3.0738  1.3281 -1.6355
  269MOL0     H37075  11.192   7.729   3.251 -3.9627 -0.1106 -3.9849
  269MOL0     H37076  11.310   7.557   3.412  1.3844 -1.7193  0.8020
  269MOL0     H37077  11.347   7.461   3.267 -0.3994  0.5677 -0.2510
  269MOL0     H37078  11.478   7.662   3.197  2.3782  1.3346  0.4197
  269MOL0     H37079  11.438   7.737   3.361 -0.8050  1.3894 -2.8962
  269MOL0     H37080  11.739   7.552   3.572  1.0246  0.1072  0.3930
  269MOL0     H37081  11.931   7.563   3.675 -1.6480 -0.1186  0.0326
  269MOL0     H37082  11.926   7.715   3.759 -1.4383 -0.7618 -0.6291
  269MOL0     H37083  12.061   7.685   3.660 -0.0149 -0.6982  1.1742
  269MOL0     H37084  12.085   8.218   3.522  1.4987  1.3304 -0.6992
  269MOL0     H37085  12.305   8.317   3.585 -1.6952 -0.5101  0.9442
  269MOL0     H37086  12.584   8.149   3.624  1.5848 -0.8385  0.3642
  269MOL0     H37087  12.616   8.063   3.477  2.4601 -1.1716 -1.3150
  269MOL0     H37088  12.783   8.281   3.586  0.5002 -1.1465  1.1844
  269MOL0     H37089  12.824   8.116   3.561  0.1077 -0.1339  1.4610
  269MOL0     H37090  12.932   8.262   3.412  0.1619  0.5701  1.5410
  269MOL0     H37091  12.783   8.330   3.347 -3.0709 -1.1794  0.1958
  269MOL0     H37092  12.714   8.126   3.233  0.4309 -4.0027 -1.4509
  269MOL0     H37093  12.816   8.019   3.304  0.2430  0.2962 -0.2480
  269MOL0     H37094  12.890   8.081   3.071 -0.9805 -1.6089  1.5915
  269MOL0     H37095  12.874   8.255   3.115  2.2126  2.8998  4.3588
  269MOL0     H37096  13.065   8.030   3.198 -0.2612 -0.0040  0.6936
  269MOL0     H37097  13.066   8.166   3.294 -4.1844 -0.4304  1.1530
  269MOL0     H37098  13.141   8.165   3.000 -0.6565  2.0510 -0.5549
  269MOL0     H37099  13.235   8.213   3.137 -0.0618 -1.8942 -1.0422
  269MOL0     H37100  13.014   8.381   3.015 -0.1039  0.6180  0.1858
  269MOL0     H37101  13.192   8.407   3.025  0.3275 -0.2842  0.6755
  269MOL0     H37102  12.476   8.026   3.295  0.0958  2.5239  0.2617
  269MOL0     H37103  12.264   7.923   3.279  1.2408  0.3348 -0.4678
  269MOL0     H37104  11.824   7.950   3.308 -2.3649 -0.5741 -2.0760
  269MOL0     H37105  11.652   7.809   3.231 -1.7981 -1.9270  1.1816
  269MOL0     H37106   9.771   7.385   2.894  0.2982 -0.6529 -0.5402
  269MOL0     H37107   9.656   7.204   2.790  2.4686 -2.3584 -2.0813
  269MOL0     H37108   9.724   6.677   2.624 -0.4054  1.1586 -0.5669
  269MOL0     H37109   9.594   6.498   2.555 -0.6837 -0.8690  0.3304
  269MOL0     H37110   9.285   6.303   2.486 -2.2342  2.8059 -1.0713
  269MOL0     H37111   9.403   6.418   2.455  0.7938 -2.6737 -1.9488
  269MOL0     H37112   9.569   6.277   2.607  1.1605  1.5386 -1.2249
  269MOL0     H37113   9.520   6.201   2.460  0.8431  0.9622  1.0619
  269MOL0     H37114   9.338   6.148   2.688 -0.1719  5.0267 -2.9468
  269MOL0     H37115   9.376   6.048   2.552  1.0379 -1.7598 -0.2153
  269MOL0     H37116   9.626   6.027   2.643 -0.5736  3.2411 -2.1472
  269MOL0     H37117   9.486   5.934   2.691 -0.3829  0.6321 -0.8188
  269MOL0     H37118   9.621   6.144   3.042 -1.5243 -0.7486  1.3296
  269MOL0     H37119   9.274   6.607   2.822 -0.2263  1.2311 -0.6058
  269MOL0     H37120   9.278   6.776   2.959 -0.3763  0.8475  1.0898
  269MOL0     H37121   9.439   6.832   3.015 -4.4277  1.0232  3.4817
  269MOL0     H37122   9.355   6.920   2.887  0.6348 -0.4617 -0.7860
  270MOL0     O37123   7.361   9.650   4.039  0.5950  1.0372 -0.7101
  270MOL0     C37124   7.324   9.724   3.948 -1.0040  0.5807 -0.2010
  270MOL0     O37125   7.360   9.852   3.926 -0.7752  0.0588  0.0880
  270MOL0     C37126   7.491   9.871   3.897  0.2319  0.1932  0.6710
  270MOL0     C37127   7.531  10.004   3.887 -0.0824  0.0427 -1.1569
  270MOL0     C37128   7.664  10.044   3.860  0.1447 -0.0970  0.2701
  270MOL0     C37129   7.759   9.946   3.837 -0.5030 -0.9056  0.6650
  270MOL0     O37130   7.889   9.981   3.807  0.9683  0.2944  0.0213
  270MOL0     C37131   7.896  10.096   3.724  0.0319 -0.4440 -0.2060
  270MOL0     C37132   8.032  10.097   3.654  0.3958 -0.1355  0.0875
  270MOL0     C37133   8.037   9.972   3.570 -0.6238  0.7291 -0.0320
  270MOL0     C37134   8.077   9.997   3.428 -0.6873  1.2168  0.4509
  270MOL0     C37135   8.099   9.860   3.350 -0.2653  0.4936  0.9827
  270MOL0     C37136   8.191   9.897   3.231 -0.2681  0.7260 -0.4480
  270MOL0     C37137   8.200   9.787   3.121  0.6252  0.0256  0.2618
  270MOL0     C37138   8.238   9.647   3.162 -0.3487 -0.2724 -0.1141
  270MOL0     N37139   8.365   9.652   3.232 -0.4098  0.1863 -0.1722
  270MOL0     C37140   8.494   9.651   3.179 -0.0336  0.5395 -0.7242
  270MOL0     C37141   8.582   9.658   3.281 -0.2259 -0.0191  0.1073
  270MOL0     C37142   8.723   9.642   3.277 -0.6514  0.0380  0.8056
  270MOL0     C37143   8.781   9.774   3.327 -0.8319  0.1581  1.0104
  270MOL0     C37144   8.937   9.772   3.295  0.2221 -0.0788  0.4592
  270MOL0     C37145   9.014   9.900   3.353 -0.2236 -0.4838 -0.8400
  270MOL0     O37146   9.151   9.906   3.300  0.1865  0.1077  0.1203
  270MOL0     C37147   9.227   9.837   3.388 -0.7720  0.4520  0.4885
  270MOL0     C37148   9.270   9.896   3.506  0.1867 -0.2502  0.8633
  270MOL0     C37149   9.347   9.823   3.598  0.2396 -0.8737 -0.7390
  270MOL0     C37150   9.415   9.899   3.705  0.3652 -0.7687 -0.8270
  270MOL0     C37151   9.383   9.696   3.574 -0.7978 -0.0968  0.3783
  270MOL0     C37152   9.452   9.609   3.668 -0.1579  0.6080 -0.4993
  270MOL0     O37153   9.590   9.603   3.653  0.3965 -0.8194  1.0531
  270MOL0     C37154   9.676   9.512   3.703 -0.1210  0.2906  0.5923
  270MOL0     C37155   9.808   9.518   3.649  0.2492 -0.0066 -0.1758
  270MOL0     C37156   9.904   9.421   3.681  0.3916 -0.3729 -0.1034
  270MOL0     C37157   9.873   9.320   3.774  0.1458 -0.0396  0.1592
  270MOL0     O37158   9.963   9.224   3.808  0.5015 -0.4304  0.1119
  270MOL0     C37159  10.101   9.269   3.808  0.5992  0.3103 -0.4161
  270MOL0     C37160  10.164   9.171   3.912 -0.7353  0.4987 -0.4926
  270MOL0     C37161  10.319   9.195   3.913  0.4404 -0.2439 -0.2445
  270MOL0     C37162  10.387   9.156   3.784 -0.5687  0.1228 -0.2946
  270MOL0     C37163  10.545   9.180   3.792  0.0559 -0.0351  0.4866
  270MOL0     C37164  10.574   9.334   3.779 -0.9889  0.4109 -0.0780
  270MOL0     C37165  10.723   9.356   3.755 -0.2119 -0.0819  0.6563
  270MOL0     C37166  10.765   9.355   3.608 -0.7892  1.2429 -0.2298
  270MOL0    Cl37167  10.694   9.504   3.531 -0.1962 -0.2928  0.3068
  270MOL0     C37168   9.743   9.309   3.817  0.5508 -0.4932  0.1706
  270MOL0     C37169   9.642   9.405   3.782 -0.4276 -0.4608  0.0418
  270MOL0     O37170   9.380   9.530   3.738  0.3252  0.7444  0.4597
  270MOL0     C37171   9.347   9.641   3.445  0.5945 -0.0261 -0.5019
  270MOL0     C37172   9.263   9.707   3.357  0.0604  0.1677 -0.7990
  270MOL0     N37173   8.501   9.662   3.395 -0.2387 -0.3100 -1.1113
  270MOL0     N37174   8.377   9.648   3.367 -0.5437  0.6179  0.3249
  270MOL0     C37175   7.721   9.812   3.840  0.0800 -0.1901 -0.0684
  270MOL0     C37176   7.590   9.765   3.878  0.0997 -0.2536  0.1259
  270MOL0     C37177   7.215   9.688   3.850  0.3243  0.5173  0.3681
  270MOL0     C37178   7.139   9.794   3.792 -0.5399  0.9009 -1.7266
  270MOL0     C37179   7.016   9.760   3.724 -0.0183 -0.0656 -0.3760
  270MOL0     C37180   6.976   9.631   3.700  0.0790  0.0089 -0.7375
  270MOL0     O37181   6.868   9.594   3.631  0.7691 -0.3051  0.2992
  270MOL0     C37182   6.738   9.645   3.673  0.5610  0.2757  0.2308
  270MOL0     C37183   6.624   9.544   3.634  0.5571 -0.7293 -1.0228
  270MOL0     C37184   6.514   9.597   3.529  0.5339  0.6664 -0.0722
  270MOL0     C37185   6.420   9.705   3.582  0.6367 -0.5708  0.1981
  270MOL0     C37186   6.346   9.660   3.693 -0.2965  0.2383 -0.3290
  270MOL0     C37187   6.279   9.647   3.799  0.2990 -0.2525  0.3977
  270MOL0     C37188   7.048   9.530   3.760 -0.6303 -0.1095  0.4044
  270MOL0     C37189   7.169   9.554   3.825  0.0027 -0.2166 -0.3936
  270MOL0     C37190   7.241   9.434   3.885  0.2077 -0.1154  0.4485
  270MOL0     H37191   7.461  10.081   3.914  1.3646  1.1446 -0.3978
  270MOL0     H37192   7.689  10.146   3.889 -1.2446  0.3841 -0.1585
  270MOL0     H37193   7.897  10.194   3.773  2.3888  0.0029 -1.0313
  270MOL0     H37194   7.819  10.083   3.647 -2.4113 -1.4062  2.2105
  270MOL0     H37195   8.045  10.192   3.601  3.1371  0.8172  2.2211
  270MOL0     H37196   8.111  10.095   3.730  1.7090 -0.3502 -1.2333
  270MOL0     H37197   8.115   9.919   3.625  3.1847  3.3739 -2.4183
  270MOL0     H37198   7.944   9.915   3.565 -0.6404  0.8730 -2.3496
  270MOL0     H37199   8.006  10.067   3.382 -0.6751  1.3650  0.6544
  270MOL0     H37200   8.173  10.049   3.426 -0.4520  0.7610 -0.5231
  270MOL0     H37201   8.001   9.813   3.340  0.0137 -0.1231  1.0953
  270MOL0     H37202   8.162   9.790   3.405 -0.3040  0.1361  0.5677
  270MOL0     H37203   8.148   9.989   3.190 -0.3725  1.4043  1.1290
  270MOL0     H37204   8.285   9.926   3.277  0.2249 -0.0256 -0.9678
  270MOL0     H37205   8.276   9.805   3.045 -1.8246  3.9497 -1.5685
  270MOL0     H37206   8.098   9.771   3.084  0.7187 -2.0092  0.7610
  270MOL0     H37207   8.166   9.603   3.232 -1.0108 -1.8459 -1.6991
  270MOL0     H37208   8.248   9.583   3.074 -0.8448  0.0045 -0.3733
  270MOL0     H37209   8.511   9.638   3.072 -2.7454  0.7335 -1.2549
  270MOL0     H37210   8.745   9.633   3.171 -0.1553  0.5732  0.8603
  270MOL0     H37211   8.743   9.552   3.337 -0.6467  0.2299  1.0934
  270MOL0     H37212   8.740   9.863   3.278 -1.3088 -2.4484 -3.9313
  270MOL0     H37213   8.769   9.773   3.436  0.2841  3.0457  1.2443
  270MOL0     H37214   8.982   9.688   3.349  1.2396  0.4137  0.3964
  270MOL0     H37215   8.954   9.750   3.190  2.1582 -2.4778  1.1789
  270MOL0     H37216   8.957   9.988   3.322 -1.5900  0.0670  2.7716
  270MOL0     H37217   9.021   9.897   3.462  2.3506  1.6610 -0.8473
  270MOL0     H37218   9.253  10.003   3.517  2.8893  0.4507 -0.9147
  270MOL0     H37219   9.509   9.942   3.670  0.4640  1.7415  2.1050
  270MOL0     H37220   9.433   9.835   3.792 -3.3590  1.3306  1.7681
  270MOL0     H37221   9.353   9.984   3.736  1.7358  0.2346 -0.7362
  270MOL0     H37222   9.846   9.597   3.585 -0.5383 -0.0414 -0.6967
  270MOL0     H37223   9.998   9.418   3.627  0.4680 -0.4612  0.0350
  270MOL0     H37224  10.152   9.257   3.712  0.1426  0.7011 -0.7106
  270MOL0     H37225  10.108   9.372   3.845 -0.7802 -0.1466  1.2785
  270MOL0     H37226  10.119   9.187   4.011  0.5290 -0.5785  0.2942
  270MOL0     H37227  10.145   9.066   3.890  1.1852 -0.0962  0.4592
  270MOL0     H37228  10.366   9.160   4.006 -1.6704  2.7289  2.1656
  270MOL0     H37229  10.335   9.303   3.911  0.8348 -0.3119 -2.6171
  270MOL0     H37230  10.343   9.198   3.693 -1.1749 -0.8948 -0.4910
  270MOL0     H37231  10.383   9.049   3.765  2.3504  0.1828 -1.8088
  270MOL0     H37232  10.590   9.145   3.886  2.3812 -0.0071 -0.5417
  270MOL0     H37233  10.588   9.122   3.710  0.6282  0.9579  0.0659
  270MOL0     H37234  10.555   9.377   3.878  1.8576  0.6408  0.4485
  270MOL0     H37235  10.513   9.386   3.704 -1.0699  0.0730 -0.2472
  270MOL0     H37236  10.782   9.279   3.805 -1.5531  0.1671  2.7659
  270MOL0     H37237  10.766   9.446   3.799  1.6579 -0.1259 -0.9468
  270MOL0     H37238  10.725   9.261   3.569  1.5004  0.1922 -0.2101
  270MOL0     H37239  10.873   9.348   3.593 -0.8649  1.4943 -0.9180
  270MOL0     H37240   9.720   9.228   3.886 -0.2450 -1.4818 -1.1874
  270MOL0     H37241   9.555   9.392   3.845  0.4935 -4.4923  0.7304
  270MOL0     H37242   9.373   9.539   3.416 -0.0157 -0.2136 -0.3949
  270MOL0     H37243   9.237   9.662   3.262 -1.1076  0.5577 -0.6848
  270MOL0     H37244   7.792   9.737   3.807 -0.6722 -0.8901 -0.1033
  270MOL0     H37245   7.561   9.660   3.885  0.5800 -0.5768 -2.0852
  270MOL0     H37246   7.161   9.899   3.807 -0.8434  1.1106 -2.6512
  270MOL0     H37247   6.967   9.841   3.671  3.3378  0.1255 -3.5737
  270MOL0     H37248   6.732   9.653   3.782 -2.3786 -1.5156  0.3213
  270MOL0     H37249   6.708   9.742   3.634 -1.5676 -0.2121  0.5541
  270MOL0     H37250   6.568   9.527   3.726  1.1674  0.0589 -0.4932
  270MOL0     H37251   6.662   9.449   3.597 -1.1673 -2.0294  0.3997
  270MOL0     H37252   6.566   9.643   3.444 -2.0321  0.7937 -1.6544
  270MOL0     H37253   6.462   9.506   3.498 -2.6570  2.4366 -0.2598
  270MOL0     H37254   6.359   9.738   3.497 -0.6511  1.6986  1.8870
  270MOL0     H37255   6.470   9.795   3.619 -0.3917 -0.8763  2.4867
  270MOL0     H37256   6.217   9.626   3.884 -0.6232 -1.2078 -0.4821
  270MOL0     H37257   7.003   9.433   3.740 -0.4637  0.0733 -0.9712
  270MOL0     H37258   7.345   9.451   3.854 -1.3364  3.1472 -3.9704
  270MOL0     H37259   7.226   9.416   3.992  0.1661 -0.6455  0.3528
  270MOL0     H37260   7.201   9.347   3.833  0.1169 -0.8458  1.7107
  271MOL0     O37261   9.624   3.693   2.203  0.0778 -0.7095  0.1344
  271MOL0     C37262   9.669   3.810   2.208  0.9217 -0.0417 -0.0120
  271MOL0     O37263   9.780   3.852   2.153 -0.0446  0.3154  0.3201
  271MOL0     C37264   9.873   3.763   2.093  0.8178 -1.4146 -0.2352
  271MOL0     C37265   9.990   3.834   2.063 -0.3718  0.2938  0.4616
  271MOL0     C37266  10.095   3.765   1.999  0.5096 -0.2832  0.0279
  271MOL0     C37267  10.078   3.636   1.950  0.0584  0.2596 -0.2120
  271MOL0     O37268  10.172   3.563   1.889 -0.2154  0.2932  0.0405
  271MOL0     C37269  10.301   3.608   1.896 -0.3438 -0.0921  0.0037
  271MOL0     C37270  10.404   3.540   1.805 -0.1091 -0.3045 -0.2329
  271MOL0     C37271  10.439   3.398   1.850 -0.4460 -0.5764 -1.4013
  271MOL0     C37272  10.548   3.354   1.772 -0.1800  0.4122  1.1363
  271MOL0     C37273  10.596   3.211   1.803 -1.1077 -0.0816 -0.7902
  271MOL0     C37274  10.713   3.178   1.716  0.7015 -0.1526 -0.7155
  271MOL0     C37275  10.778   3.046   1.754  0.0260 -0.9779  0.5428
  271MOL0     C37276  10.756   2.927   1.648 -0.1721 -0.5207  0.1598
  271MOL0     N37277  10.612   2.892   1.636 -0.2248  0.4665  0.0946
  271MOL0     C37278  10.538   2.837   1.730 -0.6465  0.1172 -0.2217
  271MOL0     C37279  10.409   2.828   1.682 -0.6218 -0.2725  0.7682
  271MOL0     C37280  10.275   2.784   1.743  0.3454  0.2383  0.6591
  271MOL0     C37281  10.163   2.894   1.726 -0.9992 -0.4509  0.1906
  271MOL0     C37282  10.205   3.030   1.781 -1.3541  0.9580  0.2160
  271MOL0     C37283  10.083   3.120   1.801 -0.2446 -0.8120  0.6881
  271MOL0     O37284   9.999   3.074   1.902 -0.2328 -0.5797 -0.7652
  271MOL0     C37285   9.871   3.128   1.911  0.5763 -0.0911 -0.3816
  271MOL0     C37286   9.778   3.038   1.967  0.9175  0.8016 -0.4253
  271MOL0     C37287   9.643   3.067   1.961 -0.3940 -0.2885  0.8964
  271MOL0     C37288   9.554   2.945   1.999 -0.5805  0.1272  1.0850
  271MOL0     C37289   9.591   3.187   1.913 -1.0238  0.3003  0.0089
  271MOL0     C37290   9.447   3.213   1.894  0.0665 -0.5234  0.0781
  271MOL0     O37291   9.351   3.118   1.914 -0.1288  0.3032  0.5459
  271MOL0     C37292   9.218   3.146   1.903  1.2869  0.2411  0.2332
  271MOL0     C37293   9.152   3.237   1.813  0.1715 -0.3171 -0.8340
  271MOL0     C37294   9.009   3.241   1.817  0.0816  0.1054 -0.2169
  271MOL0     C37295   8.933   3.166   1.907  0.0554 -0.1038 -0.3505
  271MOL0     O37296   8.797   3.168   1.904 -0.3386 -0.3651 -1.1404
  271MOL0     C37297   8.731   3.219   1.787 -1.4607  0.2352  0.0155
  271MOL0     C37298   8.593   3.166   1.807 -0.2469  0.0992 -0.2255
  271MOL0     C37299   8.504   3.209   1.682 -0.1751  0.1696 -0.5081
  271MOL0     C37300   8.544   3.163   1.548  0.4316 -0.9749 -0.0035
  271MOL0     C37301   8.427   3.171   1.448 -0.7866  0.6294 -0.9783
  271MOL0     C37302   8.487   3.114   1.315  0.6245 -0.3269  0.2945
  271MOL0     C37303   8.377   3.121   1.210 -0.9622  0.2869 -0.5575
  271MOL0     C37304   8.408   3.045   1.087  0.2724 -0.1519 -0.5031
  271MOL0    Cl37305   8.554   3.110   0.997 -0.3104  0.0829  0.0380
  271MOL0     C37306   9.007   3.081   1.992 -0.2337  0.4650  0.9573
  271MOL0     C37307   9.146   3.063   1.979  1.1738 -0.0388  0.8403
  271MOL0     O37308   9.423   3.330   1.858  0.8252  0.2304 -0.5472
  271MOL0     C37309   9.684   3.285   1.869 -0.3102  0.1217 -0.0382
  271MOL0     C37310   9.820   3.255   1.861  0.7746  0.4178  1.0484
  271MOL0     N37311  10.410   2.867   1.553  0.0110 -0.3388 -0.7364
  271MOL0     N37312  10.531   2.904   1.525 -0.3763  0.4047 -0.3030
  271MOL0     C37313   9.953   3.571   1.974  0.2342 -0.7449  0.6196
  271MOL0     C37314   9.855   3.631   2.049  0.4264  0.2343  0.2382
  271MOL0     C37315   9.591   3.906   2.289  0.0159 -0.5153  0.1712
  271MOL0     C37316   9.662   3.986   2.378 -0.1282  0.5566 -0.3057
  271MOL0     C37317   9.594   4.085   2.458  0.4159 -0.1368  0.3229
  271MOL0     C37318   9.456   4.088   2.459 -0.8267  0.2232 -0.2498
  271MOL0     O37319   9.407   4.186   2.538 -0.6023 -0.4170  0.1289
  271MOL0     C37320   9.274   4.239   2.513 -1.3798 -0.0165  0.5245
  271MOL0     C37321   9.261   4.367   2.602 -0.0803  0.6239  0.1653
  271MOL0     C37322   9.281   4.315   2.751 -0.2832 -0.7053  0.1391
  271MOL0     C37323   9.298   4.438   2.843 -0.3409  0.1882 -0.4362
  271MOL0     C37324   9.389   4.545   2.794  0.1942  0.9095  0.2313
  271MOL0     C37325   9.465   4.631   2.756  0.7399  0.8892  0.0572
  271MOL0     C37326   9.389   4.010   2.371  0.5459  0.1963 -0.0897
  271MOL0     C37327   9.453   3.915   2.294 -0.4703  0.5774  0.9135
  271MOL0     C37328   9.372   3.819   2.203  1.1923 -0.2613 -0.3778
  271MOL0     H37329  10.016   3.932   2.100  3.8632 -0.7949  0.9526
  271MOL0     H37330  10.184   3.821   1.975  0.8781 -0.1009  1.6985
  271MOL0     H37331  10.341   3.609   1.998 -1.8422  1.3114  0.6197
  271MOL0     H37332  10.304   3.716   1.878 -0.1516  0.0046  0.5977
  271MOL0     H37333  10.354   3.530   1.708  0.2188  1.4717 -0.6063
  271MOL0     H37334  10.493   3.603   1.801 -0.6809  0.6761  1.3539
  271MOL0     H37335  10.472   3.393   1.954 -0.7792  0.1841 -1.2512
  271MOL0     H37336  10.344   3.344   1.843 -0.8548  0.2031 -2.0391
  271MOL0     H37337  10.509   3.359   1.670 -2.7634 -0.0912  2.0364
  271MOL0     H37338  10.638   3.417   1.773 -1.3004  2.1512 -0.1226
  271MOL0     H37339  10.509   3.146   1.784 -1.1533  0.2019 -1.5621
  271MOL0     H37340  10.636   3.201   1.904 -2.6557 -1.2377 -0.2374
  271MOL0     H37341  10.670   3.183   1.615 -0.5307  2.0120 -0.1572
  271MOL0     H37342  10.787   3.258   1.721  2.6009 -1.6208 -3.0533
  271MOL0     H37343  10.759   3.016   1.858  0.3874  1.9612  1.5660
  271MOL0     H37344  10.879   3.083   1.776 -0.6050 -0.2372  2.5056
  271MOL0     H37345  10.797   2.953   1.550  0.2767  1.8083  0.8992
  271MOL0     H37346  10.810   2.844   1.696 -1.3145  0.3652  3.2674
  271MOL0     H37347  10.576   2.824   1.831 -2.6192  3.6896  1.1758
  271MOL0     H37348  10.305   2.764   1.846  1.2458 -0.8583  0.2066
  271MOL0     H37349  10.241   2.689   1.703 -0.4003  0.3369  1.0447
  271MOL0     H37350  10.150   2.920   1.621 -3.4948  2.2603  1.0396
  271MOL0     H37351  10.075   2.848   1.772 -0.7129 -0.8616  0.3427
  271MOL0     H37352  10.257   3.031   1.878 -2.3930 -0.9377  0.8601
  271MOL0     H37353  10.272   3.072   1.706  1.8902 -2.9061  0.5965
  271MOL0     H37354  10.123   3.221   1.815  2.4057 -1.2285 -2.5349
  271MOL0     H37355  10.032   3.125   1.705 -0.0257 -2.3798  0.4650
  271MOL0     H37356   9.801   2.940   2.007 -1.0468  0.3716 -0.2080
  271MOL0     H37357   9.479   2.967   2.076 -2.2276 -1.7451  0.1193
  271MOL0     H37358   9.618   2.865   2.039  2.6341  2.3622  0.7584
  271MOL0     H37359   9.507   2.902   1.910 -0.4934 -1.7579  1.8941
  271MOL0     H37360   9.195   3.296   1.733 -1.8821  0.8540 -1.1490
  271MOL0     H37361   8.952   3.317   1.766 -0.9746 -0.3777  0.2155
  271MOL0     H37362   8.723   3.329   1.790  0.7578  0.4223  2.9138
  271MOL0     H37363   8.773   3.180   1.694 -1.4255 -3.4624  1.4511
  271MOL0     H37364   8.599   3.057   1.813  0.0132 -0.3696 -5.1422
  271MOL0     H37365   8.559   3.201   1.905 -2.0369  0.0672 -0.8004
  271MOL0     H37366   8.495   3.318   1.675 -3.5821  0.1859  1.4645
  271MOL0     H37367   8.407   3.170   1.715  0.6119  0.8996  3.0637
  271MOL0     H37368   8.590   3.063   1.552  4.3000  0.6525  3.7250
  271MOL0     H37369   8.621   3.230   1.509  0.7456 -1.9856 -1.1823
  271MOL0     H37370   8.342   3.110   1.482  0.0294  0.4749  0.9152
  271MOL0     H37371   8.397   3.276   1.436  0.8985  1.0481 -1.7002
  271MOL0     H37372   8.541   3.019   1.318  1.8933  0.3179 -1.2084
  271MOL0     H37373   8.556   3.192   1.282  0.4239 -1.0336 -2.0136
  271MOL0     H37374   8.372   3.227   1.184 -0.2886  0.4769  0.0551
  271MOL0     H37375   8.280   3.093   1.252 -0.8772  0.9712  0.1220
  271MOL0     H37376   8.322   3.061   1.021  0.8533  2.9673 -0.6205
  271MOL0     H37377   8.415   2.940   1.118  3.5928  0.9397  3.2944
  271MOL0     H37378   8.960   3.026   2.073  0.4142  2.7122  2.9570
  271MOL0     H37379   9.211   2.993   2.030  1.7104  0.7474  1.2548
  271MOL0     H37380   9.643   3.373   1.821  1.5920  0.9585 -0.2143
  271MOL0     H37381   9.889   3.321   1.810  0.1685  1.5255  1.6079
  271MOL0     H37382   9.948   3.466   1.946 -2.3407  0.0223 -2.3748
  271MOL0     H37383   9.762   3.578   2.069  0.9589  0.1912  2.9979
  271MOL0     H37384   9.770   3.986   2.382 -0.1277  2.4905  0.6870
  271MOL0     H37385   9.650   4.151   2.523 -2.0948  1.4710  1.0172
  271MOL0     H37386   9.249   4.258   2.409 -2.1085 -0.3515  0.6379
  271MOL0     H37387   9.211   4.158   2.551  1.4758 -2.2815  0.8624
  271MOL0     H37388   9.159   4.407   2.609  0.1575  0.9171  3.4075
  271MOL0     H37389   9.320   4.446   2.557 -0.3017  0.0521 -1.1784
  271MOL0     H37390   9.190   4.261   2.780 -3.0021  1.6871 -3.0939
  271MOL0     H37391   9.369   4.254   2.774  0.2577  0.5604  1.5945
  271MOL0     H37392   9.352   4.391   2.926  2.0764  0.2519 -1.8584
  271MOL0     H37393   9.207   4.484   2.881 -0.2673 -0.6350  0.8005
  271MOL0     H37394   9.507   4.716   2.706 -0.8288  1.3851 -0.4761
  271MOL0     H37395   9.281   4.024   2.371  0.1423 -1.9503 -2.4130
  271MOL0     H37396   9.374   3.714   2.235 -3.9928 -0.6111 -0.3575
  271MOL0     H37397   9.268   3.845   2.224  1.1899 -0.6860  0.1441
  271MOL0     H37398   9.394   3.834   2.097  1.3819  1.3325 -0.1341
  272MOL0     O37399   3.951   2.477   0.153  0.3499  0.0126  0.4898
  272MOL0     C37400   3.949   2.500   0.273 -0.6349 -0.0601  0.2663
  272MOL0     O37401   3.848   2.534   0.353 -0.3903  0.7278 -0.2600
  272MOL0     C37402   3.724   2.545   0.303 -0.3933  0.0558 -0.6481
  272MOL0     C37403   3.648   2.431   0.274  0.5743  0.7369  0.3340
  272MOL0     C37404   3.515   2.437   0.240  0.3258 -1.0238  0.4398
  272MOL0     C37405   3.450   2.564   0.232 -0.4502  0.2912 -0.3143
  272MOL0     O37406   3.325   2.581   0.188  0.6122 -0.5582  0.1634
  272MOL0     C37407   3.241   2.476   0.136 -0.1838 -0.7853  0.2614
  272MOL0     C37408   3.103   2.537   0.126  0.4223 -0.4141  0.1781
  272MOL0     C37409   2.986   2.438   0.111 -0.8202  0.2052 -0.2194
  272MOL0     C37410   2.942   2.369   0.247 -0.1326 -0.7437 -0.0532
  272MOL0     C37411   2.802   2.305   0.252 -0.3563 -0.2372  0.4157
  272MOL0     C37412   2.706   2.428   0.269 -0.4562 -0.4173 -0.2132
  272MOL0     C37413   2.681   2.449   0.423 -0.8145  0.4077 -0.2797
  272MOL0     C37414   2.589   2.574   0.440 -0.0365  0.3465 -0.4947
  272MOL0     N37415   2.664   2.685   0.510  0.9866 -0.4266  0.1218
  272MOL0     C37416   2.772   2.753   0.453 -0.2277 -0.1997 -0.5635
  272MOL0     C37417   2.819   2.824   0.560  0.5874  0.7489  0.1563
  272MOL0     C37418   2.941   2.919   0.551 -0.2954 -1.2206  0.4055
  272MOL0     C37419   3.072   2.831   0.580  0.0045 -0.5918  0.0540
  272MOL0     C37420   3.097   2.716   0.495  0.0389 -0.6972 -0.6514
  272MOL0     C37421   3.230   2.650   0.520  0.2248 -0.3006 -0.1778
  272MOL0     O37422   3.241   2.603   0.658 -0.1599  0.6550 -0.3274
  272MOL0     C37423   3.361   2.543   0.691 -0.2967  0.7795  0.3546
  272MOL0     C37424   3.378   2.510   0.829  0.4883  0.9031  0.1681
  272MOL0     C37425   3.490   2.457   0.889  0.4691 -1.6955  0.0462
  272MOL0     C37426   3.484   2.420   1.038  0.6404 -0.3609  0.5052
  272MOL0     C37427   3.601   2.447   0.803  0.5615  0.5551  0.4521
  272MOL0     C37428   3.731   2.397   0.849  0.5001  0.3581 -1.1412
  272MOL0     O37429   3.786   2.449   0.962 -0.2616  0.2600  0.1561
  272MOL0     C37430   3.900   2.389   1.022 -0.5835 -0.8126 -0.0184
  272MOL0     C37431   3.901   2.331   1.154  0.5694 -0.2487 -0.8028
  272MOL0     C37432   4.019   2.288   1.209  0.3030  0.6828 -0.2354
  272MOL0     C37433   4.134   2.277   1.130 -0.2552 -0.0926  0.5965
  272MOL0     O37434   4.256   2.242   1.186  0.1232  0.1219 -0.1748
  272MOL0     C37435   4.297   2.117   1.141 -0.1436  0.1270  0.4501
  272MOL0     C37436   4.402   2.066   1.246  0.1896  0.4813  0.1902
  272MOL0     C37437   4.535   2.119   1.224 -0.4282  0.1271  0.2379
  272MOL0     C37438   4.593   2.060   1.094 -0.3659 -0.4290 -0.0224
  272MOL0     C37439   4.736   2.120   1.065 -0.1266  0.2869  0.0401
  272MOL0     C37440   4.788   2.072   0.929 -0.2730 -0.1129 -0.2139
  272MOL0     C37441   4.931   2.138   0.920 -0.4237  1.0844  0.2030
  272MOL0     C37442   5.011   2.111   0.784 -0.5034  0.6469 -0.1472
  272MOL0    Cl37443   4.940   2.202   0.650  0.3009  0.2300 -0.3743
  272MOL0     C37444   4.134   2.334   1.003  0.9577  0.8919  0.0041
  272MOL0     C37445   4.022   2.397   0.957  0.2518 -1.0815  0.4548
  272MOL0     O37446   3.770   2.301   0.790  0.2589  0.1453 -0.1299
  272MOL0     C37447   3.583   2.483   0.658  0.2441  0.0908  0.6703
  272MOL0     C37448   3.466   2.523   0.600  0.2621  0.9974  0.0485
  272MOL0     N37449   2.730   2.801   0.670  0.2923  0.1873 -0.9804
  272MOL0     N37450   2.636   2.715   0.639 -0.1152  0.1167 -0.2713
  272MOL0     C37451   3.526   2.675   0.260 -0.1909 -0.9549  0.9959
  272MOL0     C37452   3.659   2.668   0.287 -0.6538 -0.1858 -0.4665
  272MOL0     C37453   4.081   2.506   0.343  0.1219  0.3058  0.7053
  272MOL0     C37454   4.188   2.573   0.274 -0.3561  0.2053  0.0938
  272MOL0     C37455   4.318   2.594   0.340 -0.9025 -0.0583 -0.2717
  272MOL0     C37456   4.334   2.546   0.470  0.3749  0.4862  0.0777
  272MOL0     O37457   4.457   2.553   0.520  0.9699 -0.2363 -0.0514
  272MOL0     C37458   4.460   2.658   0.623 -0.0122  0.8960 -0.2099
  272MOL0     C37459   4.603   2.711   0.642  0.0493 -0.9131 -0.2389
  272MOL0     C37460   4.721   2.606   0.653 -0.0519 -0.4815 -0.4960
  272MOL0     C37461   4.840   2.662   0.726  0.4990  0.3361 -0.0130
  272MOL0     C37462   4.951   2.568   0.723 -0.0272 -0.7062 -0.5764
  272MOL0     C37463   5.036   2.480   0.717 -0.1875 -0.1755  0.9280
  272MOL0     C37464   4.231   2.472   0.531  0.5467 -1.1021  0.7858
  272MOL0     C37465   4.109   2.453   0.469  0.3130 -0.1722  0.1630
  272MOL0     C37466   4.000   2.383   0.543 -0.1149  0.3695 -0.0075
  272MOL0     H37467   3.697   2.335   0.291  2.8061  1.8354  0.4153
  272MOL0     H37468   3.460   2.349   0.210 -2.5811  0.5113  0.9114
  272MOL0     H37469   3.247   2.389   0.201  0.9823  0.6670  2.2123
  272MOL0     H37470   3.260   2.443   0.033 -2.6485 -0.6790 -0.2850
  272MOL0     H37471   3.080   2.580   0.224  2.7596  0.7694  0.2719
  272MOL0     H37472   3.112   2.617   0.052 -0.8148 -0.2113  0.2211
  272MOL0     H37473   2.909   2.481   0.047 -0.5551 -0.4785 -1.0219
  272MOL0     H37474   3.022   2.351   0.055 -2.2740  0.1641 -1.1350
  272MOL0     H37475   3.008   2.288   0.279 -1.4780 -2.0042 -0.3424
  272MOL0     H37476   2.940   2.441   0.330  1.2797 -2.0537  1.1886
  272MOL0     H37477   2.791   2.231   0.332  1.8898 -1.9528 -0.7474
  272MOL0     H37478   2.782   2.257   0.156 -0.8205 -2.3172  1.4945
  272MOL0     H37479   2.738   2.518   0.216  1.9992 -2.3295 -2.2292
  272MOL0     H37480   2.606   2.408   0.232 -1.5973 -0.3783  2.5758
  272MOL0     H37481   2.778   2.446   0.473 -0.4764 -1.2122 -0.9616
  272MOL0     H37482   2.625   2.365   0.466 -1.9144  0.6869 -1.1299
  272MOL0     H37483   2.561   2.616   0.343 -1.5991  0.4522 -0.0128
  272MOL0     H37484   2.503   2.546   0.502  1.2545  0.8491  1.6566
  272MOL0     H37485   2.814   2.732   0.355  0.7310  1.3751 -0.5211
  272MOL0     H37486   2.938   2.997   0.628 -3.2673 -0.5286 -0.2762
  272MOL0     H37487   2.942   2.949   0.446  5.8773 -1.8425 -0.0812
  272MOL0     H37488   3.151   2.902   0.556 -3.0855  3.3090  0.3706
  272MOL0     H37489   3.077   2.816   0.688 -2.2182  0.5686  0.3882
  272MOL0     H37490   3.019   2.639   0.500  1.4901 -2.1300  0.8982
  272MOL0     H37491   3.091   2.754   0.393 -0.6729 -1.4345 -0.8956
  272MOL0     H37492   3.235   2.562   0.456  4.0472 -0.1167 -0.3927
  272MOL0     H37493   3.315   2.714   0.491  0.8005 -0.9980 -0.0525
  272MOL0     H37494   3.286   2.526   0.883 -1.7342  0.1854 -3.1191
  272MOL0     H37495   3.542   2.497   1.090  0.3784  2.0651 -2.4399
  272MOL0     H37496   3.515   2.317   1.058  0.2211 -0.0465  3.1001
  272MOL0     H37497   3.380   2.434   1.069  1.0692 -1.1284  2.4184
  272MOL0     H37498   3.812   2.331   1.216  0.8456 -0.9353 -0.3899
  272MOL0     H37499   4.026   2.255   1.313 -0.9626 -1.6794 -0.8389
  272MOL0     H37500   4.213   2.047   1.133  0.5760 -0.5464 -3.9709
  272MOL0     H37501   4.336   2.128   1.039 -2.9373 -2.4127 -1.0940
  272MOL0     H37502   4.369   2.097   1.346  1.6858 -1.4956  1.3560
  272MOL0     H37503   4.393   1.957   1.255 -3.7295  0.6961  0.7946
  272MOL0     H37504   4.602   2.091   1.306 -0.9205 -1.1475  0.2275
  272MOL0     H37505   4.526   2.227   1.216  0.1933  0.3325  1.8079
  272MOL0     H37506   4.538   2.079   1.001 -0.2749 -2.3298 -0.5256
  272MOL0     H37507   4.586   1.950   1.092 -0.4342 -0.4734  1.6317
  272MOL0     H37508   4.715   2.227   1.074 -4.7588 -0.4615  0.4922
  272MOL0     H37509   4.806   2.083   1.141 -2.0004 -1.5550  0.9667
  272MOL0     H37510   4.717   2.107   0.854 -4.4077  0.9459  3.7617
  272MOL0     H37511   4.799   1.964   0.918  0.2650 -0.0969  0.1302
  272MOL0     H37512   4.985   2.083   0.997 -1.4643  3.0480  2.4898
  272MOL0     H37513   4.924   2.245   0.945 -1.9536  0.7250  1.4528
  272MOL0     H37514   4.990   2.007   0.756 -2.3261  1.4836 -2.1664
  272MOL0     H37515   5.118   2.129   0.797 -0.1708 -0.1795 -1.4760
  272MOL0     H37516   4.219   2.357   0.940 -0.5472  0.7474 -2.1959
  272MOL0     H37517   4.045   2.451   0.866  1.7837 -1.0648  0.8228
  272MOL0     H37518   3.659   2.470   0.582  0.3147  1.9336  0.3785
  272MOL0     H37519   3.462   2.545   0.494  0.5069  2.0630  0.2411
  272MOL0     H37520   3.474   2.771   0.265  2.0459  0.2967  1.9229
  272MOL0     H37521   3.718   2.758   0.302  0.3833 -0.9328  0.0338
  272MOL0     H37522   4.177   2.607   0.172  1.0480 -1.1899 -0.5596
  272MOL0     H37523   4.413   2.622   0.294 -0.0611 -4.4013 -1.6377
  272MOL0     H37524   4.408   2.754   0.613 -1.2064  0.4449  1.2192
  272MOL0     H37525   4.419   2.610   0.712 -2.2911  1.1963 -1.0109
  272MOL0     H37526   4.617   2.764   0.737  0.7347  1.0317 -1.3692
  272MOL0     H37527   4.616   2.789   0.566 -1.5695 -0.1684  0.2000
  272MOL0     H37528   4.679   2.524   0.712 -1.6117  1.0826  0.6533
  272MOL0     H37529   4.754   2.562   0.558 -0.4230 -0.1828 -0.7632
  272MOL0     H37530   4.830   2.685   0.832 -0.4356  1.0050 -0.2233
  272MOL0     H37531   4.869   2.748   0.664  2.3483 -2.0728 -2.7828
  272MOL0     H37532   5.104   2.397   0.717  0.8288  0.5347 -1.7197
  272MOL0     H37533   4.243   2.432   0.632 -1.0061 -1.9179  0.6787
  272MOL0     H37534   4.033   2.345   0.640  0.1857 -5.3633 -1.9824
  272MOL0     H37535   3.926   2.453   0.582 -0.2956 -0.2350  0.7618
  272MOL0     H37536   3.947   2.303   0.490  0.1237 -0.3544  0.8217
  273MOL0     O37537   2.864   8.293   8.747 -0.1185  0.5076 -0.2514
  273MOL0     C37538   2.799   8.360   8.667 -0.4896 -0.0773 -0.4323
  273MOL0     O37539   2.824   8.372   8.533  0.5173 -0.9490  0.4434
  273MOL0     C37540   2.927   8.310   8.482 -0.4538  0.6519 -0.0999
  273MOL0     C37541   3.037   8.387   8.435 -0.6639  0.9379 -0.8785
  273MOL0     C37542   3.152   8.317   8.394 -0.7961  0.7301  0.4409
  273MOL0     C37543   3.153   8.177   8.378 -0.2810 -0.2887 -0.1993
  273MOL0     O37544   3.263   8.118   8.319  0.0000 -0.3817 -0.2945
  273MOL0     C37545   3.251   8.013   8.225  0.7273  0.4645 -0.1727
  273MOL0     C37546   3.389   7.984   8.161  0.4546  0.5540  0.0940
  273MOL0     C37547   3.471   8.104   8.113  0.8140 -0.2658  0.9086
  273MOL0     C37548   3.615   8.075   8.090 -0.5090 -0.3288  0.6330
  273MOL0     C37549   3.692   8.207   8.078 -0.3988  0.5464  0.3710
  273MOL0     C37550   3.845   8.188   8.082  0.7873  1.2405  0.9881
  273MOL0     C37551   3.919   8.325   8.095 -0.0182 -0.0755 -1.0488
  273MOL0     C37552   4.071   8.308   8.067  0.9607 -0.8289 -0.3454
  273MOL0     N37553   4.144   8.421   8.129  0.1056 -0.4206  0.4931
  273MOL0     C37554   4.151   8.549   8.078 -0.5598 -0.4940 -0.7801
  273MOL0     C37555   4.266   8.598   8.132 -0.7050  0.5440 -0.6138
  273MOL0     C37556   4.315   8.739   8.125 -0.6272 -0.0788 -0.1076
  273MOL0     C37557   4.418   8.771   8.011  0.4287 -0.1831 -0.4054
  273MOL0     C37558   4.537   8.676   8.025  0.7956 -0.0794  0.0514
  273MOL0     C37559   4.651   8.742   7.959  0.6234 -0.5038 -0.2463
  273MOL0     O37560   4.763   8.664   7.980 -0.1539 -0.1734 -0.2125
  273MOL0     C37561   4.866   8.674   7.895  0.5487  0.1736 -0.0415
  273MOL0     C37562   4.881   8.771   7.787  0.4657 -0.5108  0.8126
  273MOL0     C37563   4.993   8.777   7.702  0.0636  0.3249  1.0879
  273MOL0     C37564   4.988   8.874   7.588  0.2188 -0.0113 -0.6910
  273MOL0     C37565   5.106   8.688   7.734 -0.2153 -0.8491  0.7436
  273MOL0     C37566   5.242   8.694   7.662  0.1231 -0.1474 -1.5686
  273MOL0     O37567   5.305   8.575   7.650 -0.0936  0.3338 -0.5990
  273MOL0     C37568   5.443   8.564   7.635  0.0487  0.5272 -0.6391
  273MOL0     C37569   5.488   8.451   7.564  0.0683 -0.1945 -0.0600
  273MOL0     C37570   5.621   8.413   7.564 -0.0237  0.5059 -0.2227
  273MOL0     C37571   5.728   8.500   7.615  0.6568 -1.0412  1.2497
  273MOL0     O37572   5.865   8.463   7.611 -0.0690 -0.3303  0.3063
  273MOL0     C37573   5.948   8.575   7.616  0.8522 -0.1313  0.1642
  273MOL0     C37574   6.090   8.533   7.578 -0.1072  0.3043 -0.4341
  273MOL0     C37575   6.092   8.482   7.431  0.5852  0.4596 -0.2706
  273MOL0     C37576   6.227   8.510   7.367  0.5473 -0.3925 -0.3310
  273MOL0     C37577   6.355   8.465   7.442  0.4268 -0.0130 -0.6313
  273MOL0     C37578   6.354   8.327   7.506  0.0060  0.1433  0.1998
  273MOL0     C37579   6.472   8.301   7.604 -0.2696 -0.4036  0.2978
  273MOL0     C37580   6.462   8.157   7.661 -0.0745  0.5182  0.7428
  273MOL0    Cl37581   6.549   8.046   7.547 -0.0505  0.2041  0.2228
  273MOL0     C37582   5.682   8.615   7.673 -0.1284 -0.4858 -0.3030
  273MOL0     C37583   5.542   8.650   7.687 -1.5233 -0.3115  0.0889
  273MOL0     O37584   5.280   8.797   7.610 -0.5038 -0.3709  0.1115
  273MOL0     C37585   5.096   8.596   7.840 -0.2898 -0.6577  0.9021
  273MOL0     C37586   4.978   8.594   7.919  1.3368 -0.3307 -0.2216
  273MOL0     N37587   4.309   8.507   8.234 -0.1375 -0.0150 -0.8833
  273MOL0     N37588   4.230   8.408   8.229 -0.4257  0.4880 -0.1179
  273MOL0     C37589   3.034   8.111   8.413 -0.0838 -0.4302  0.0620
  273MOL0     C37590   2.923   8.173   8.472  0.0658 -0.5670  0.1466
  273MOL0     C37591   2.681   8.444   8.705 -0.4162  0.3286 -0.7736
  273MOL0     C37592   2.653   8.566   8.640  0.0673 -0.5471 -0.0195
  273MOL0     C37593   2.547   8.648   8.666  0.2343  0.5815  0.9248
  273MOL0     C37594   2.455   8.617   8.764  0.0080 -0.3034  0.4149
  273MOL0     O37595   2.351   8.709   8.780 -0.3802 -0.3583 -0.0461
  273MOL0     C37596   2.253   8.682   8.886 -0.0300 -0.2941 -0.5674
  273MOL0     C37597   2.207   8.816   8.948  0.2797 -0.5163  0.3579
  273MOL0     C37598   2.115   8.783   9.065  0.2139 -0.6683 -0.9529
  273MOL0     C37599   2.034   8.897   9.126 -0.0972  0.0072 -0.1128
  273MOL0     C37600   2.117   9.016   9.164 -0.4478  0.5132 -0.5249
  273MOL0     C37601   2.180   9.111   9.194 -0.2308  0.7973  0.3206
  273MOL0     C37602   2.474   8.495   8.835  0.1587  0.0448  0.2286
  273MOL0     C37603   2.588   8.411   8.802 -0.8477 -0.8035 -0.0227
  273MOL0     C37604   2.593   8.290   8.889  0.1406 -0.7259  0.1319
  273MOL0     H37605   3.027   8.494   8.417 -0.8523  0.9194 -0.8902
  273MOL0     H37606   3.249   8.354   8.362 -0.2856 -0.5870  0.4070
  273MOL0     H37607   3.182   8.040   8.145  1.3749 -0.8265 -1.2129
  273MOL0     H37608   3.208   7.926   8.276  3.1406  0.5657  2.3353
  273MOL0     H37609   3.445   7.922   8.231  1.5479  2.7347  1.2515
  273MOL0     H37610   3.375   7.926   8.069 -2.6380  0.3512  0.5948
  273MOL0     H37611   3.437   8.142   8.017  1.5795  2.0623  1.4849
  273MOL0     H37612   3.448   8.183   8.186 -1.7087  1.4619 -1.5744
  273MOL0     H37613   3.660   8.014   8.168  0.6679 -0.1119  0.1367
  273MOL0     H37614   3.620   8.023   7.994 -2.4125  1.6442 -0.6468
  273MOL0     H37615   3.669   8.259   8.171 -1.6109 -1.1966  1.1039
  273MOL0     H37616   3.652   8.263   7.993  0.7037  1.6674  0.5641
  273MOL0     H37617   3.872   8.121   8.164 -1.2759  0.3057  0.9537
  273MOL0     H37618   3.873   8.146   7.985  0.9400 -0.3977  1.7156
  273MOL0     H37619   3.908   8.364   8.197  2.8541 -1.9348  0.1035
  273MOL0     H37620   3.861   8.394   8.033 -1.6700 -0.9521 -0.5578
  273MOL0     H37621   4.107   8.211   8.100  0.7185 -0.6868  0.3601
  273MOL0     H37622   4.088   8.328   7.961 -2.2699  0.4420 -0.7549
  273MOL0     H37623   4.107   8.608   7.999  1.9326  1.7198 -0.6492
  273MOL0     H37624   4.362   8.771   8.219 -0.8141  1.2602 -0.4538
  273MOL0     H37625   4.228   8.805   8.115  1.6943  2.7906 -5.0438
  273MOL0     H37626   4.366   8.761   7.915 -3.7787  2.6036  1.3132
  273MOL0     H37627   4.442   8.877   8.022  0.8037 -0.4366  1.7805
  273MOL0     H37628   4.555   8.674   8.132  0.1927  1.2529  0.2029
  273MOL0     H37629   4.513   8.576   7.988  3.3759 -0.7876  0.1068
  273MOL0     H37630   4.621   8.757   7.854 -3.8546  4.8212  1.3069
  273MOL0     H37631   4.668   8.840   8.005 -0.4083 -0.2135 -0.4533
  273MOL0     H37632   4.806   8.849   7.791  1.4250  0.3917  1.7463
  273MOL0     H37633   4.886   8.899   7.560 -0.3326 -2.1179 -0.7506
  273MOL0     H37634   5.041   8.833   7.501 -1.5710  1.6231 -2.6357
  273MOL0     H37635   5.030   8.964   7.633  1.2023 -1.8614  2.4384
  273MOL0     H37636   5.413   8.385   7.521  0.6948 -0.4544 -0.7678
  273MOL0     H37637   5.633   8.319   7.510  1.3006  0.2578  0.4525
  273MOL0     H37638   5.912   8.644   7.538  1.0558  1.2686  1.2609
  273MOL0     H37639   5.957   8.621   7.715  3.1238 -0.5868  0.2250
  273MOL0     H37640   6.165   8.612   7.591  2.2885 -2.0264  0.7633
  273MOL0     H37641   6.123   8.465   7.658  1.5532  1.0262 -0.4528
  273MOL0     H37642   6.018   8.537   7.373 -2.2486 -2.5045  0.2284
  273MOL0     H37643   6.065   8.376   7.431 -4.4103  1.4975  1.0469
  273MOL0     H37644   6.245   8.615   7.342  5.1097 -0.5054  1.4610
  273MOL0     H37645   6.227   8.464   7.268 -0.3126  0.2920 -0.6572
  273MOL0     H37646   6.431   8.464   7.363  0.8137  0.7696 -0.2836
  273MOL0     H37647   6.382   8.543   7.514  0.6801  0.6428 -1.4068
  273MOL0     H37648   6.373   8.249   7.432  2.9954  1.4824 -0.5967
  273MOL0     H37649   6.259   8.311   7.559 -1.3135  1.7232 -1.5512
  273MOL0     H37650   6.455   8.369   7.687 -0.7286 -0.2638  0.0908
  273MOL0     H37651   6.572   8.317   7.561 -1.0173  0.6469 -1.1012
  273MOL0     H37652   6.358   8.125   7.660 -0.3381  1.2943  1.8498
  273MOL0     H37653   6.503   8.142   7.761  0.3703 -0.6242  0.4016
  273MOL0     H37654   5.744   8.694   7.713 -1.2244  0.1286  0.2165
  273MOL0     H37655   5.499   8.728   7.749 -2.0247  0.1596 -0.8262
  273MOL0     H37656   5.175   8.526   7.865  1.6767  0.1747 -2.2503
  273MOL0     H37657   4.977   8.513   7.992  3.0593 -3.5027 -3.4025
  273MOL0     H37658   3.030   8.002   8.420 -0.0855 -0.3342  2.4409
  273MOL0     H37659   2.841   8.111   8.506 -2.3916  1.5481 -1.5327
  273MOL0     H37660   2.717   8.585   8.554  2.3403  0.6579  1.8175
  273MOL0     H37661   2.533   8.736   8.604  1.2521  0.4613  0.5047
  273MOL0     H37662   2.168   8.632   8.839  0.4601 -1.9793  0.2443
  273MOL0     H37663   2.291   8.617   8.966  1.7694 -0.4133 -1.4720
  273MOL0     H37664   2.158   8.876   8.871  0.2683 -1.9101 -0.7573
  273MOL0     H37665   2.291   8.886   8.957 -0.0156  0.2149 -1.9386
  273MOL0     H37666   2.043   8.703   9.045  2.0807 -2.0371 -2.5359
  273MOL0     H37667   2.182   8.749   9.145  0.5702  1.5229 -0.2476
  273MOL0     H37668   1.987   8.854   9.214  1.5819 -3.5840 -0.7688
  273MOL0     H37669   1.956   8.926   9.055 -0.8887 -1.5269  0.0856
  273MOL0     H37670   2.248   9.190   9.217  1.3790  0.6676 -3.3994
  273MOL0     H37671   2.410   8.469   8.919  1.5685  2.5121  2.2157
  273MOL0     H37672   2.631   8.208   8.827 -2.3065 -1.5651 -0.4023
  273MOL0     H37673   2.659   8.304   8.975 -0.5119  3.0230  0.1610
  273MOL0     H37674   2.496   8.249   8.921 -0.4373  0.3486 -0.2071
  274MOL0     O37675   7.607   3.925   1.601 -0.5443 -0.0420 -0.3773
  274MOL0     C37676   7.518   3.868   1.532 -0.3917  0.6336  0.1291
  274MOL0     O37677   7.474   3.734   1.558  0.0232  0.2977  0.0651
  274MOL0     C37678   7.574   3.654   1.599 -0.3631  0.0390  0.3551
  274MOL0     C37679   7.603   3.531   1.528  0.0473 -0.6296 -0.5445
  274MOL0     C37680   7.695   3.436   1.570  0.5509 -0.4270  0.0774
  274MOL0     C37681   7.767   3.467   1.689  0.2419  0.9845 -0.2034
  274MOL0     O37682   7.865   3.385   1.747 -0.7159  0.0842 -0.0247
  274MOL0     C37683   7.936   3.304   1.651  0.5365 -1.5481  0.3472
  274MOL0     C37684   8.062   3.237   1.704  0.3684  0.3424 -0.2106
  274MOL0     C37685   8.035   3.165   1.832 -0.2257  0.6177 -0.8440
  274MOL0     C37686   8.164   3.075   1.864  0.1162 -0.1897 -0.5040
  274MOL0     C37687   8.127   2.973   1.969 -0.5938  0.3156  0.5017
  274MOL0     C37688   8.256   2.886   1.997  0.1813  0.3740  0.9867
  274MOL0     C37689   8.333   2.950   2.114 -0.3135  0.4757 -0.1323
  274MOL0     C37690   8.485   2.885   2.121 -0.1654  0.3416  0.1426
  274MOL0     N37691   8.545   2.911   2.246 -0.5528 -0.1026  0.7155
  274MOL0     C37692   8.649   2.999   2.262 -0.4472 -0.0093  0.0102
  274MOL0     C37693   8.692   2.978   2.383 -0.3003  0.4770  0.4978
  274MOL0     C37694   8.793   3.072   2.446  1.0101 -0.5765  0.7504
  274MOL0     C37695   8.754   3.138   2.583 -0.7100  0.3828  1.8922
  274MOL0     C37696   8.766   3.049   2.701 -0.7672 -0.3451  0.2471
  274MOL0     C37697   8.895   2.966   2.712 -0.5778 -0.8469  0.2783
  274MOL0     O37698   8.924   2.921   2.848 -0.1138  0.0873  0.7502
  274MOL0     C37699   9.052   2.930   2.890  0.4991  0.2286  0.8325
  274MOL0     C37700   9.073   3.025   2.988 -0.5684 -0.5133  0.2381
  274MOL0     C37701   9.189   3.021   3.061 -0.6296  0.0859  0.7314
  274MOL0     C37702   9.170   3.114   3.181 -1.1840  0.1401  0.3107
  274MOL0     C37703   9.294   2.941   3.014 -0.6209  1.1887  0.3619
  274MOL0     C37704   9.428   2.940   3.077 -0.1414  0.0807 -0.7161
  274MOL0     O37705   9.511   2.831   3.050  0.5383 -0.6089 -0.4599
  274MOL0     C37706   9.643   2.852   3.071  0.2027  0.5928  0.0958
  274MOL0     C37707   9.728   2.874   2.963 -0.7609  0.5835  0.7373
  274MOL0     C37708   9.866   2.910   2.982 -0.4404 -0.5076  1.0940
  274MOL0     C37709   9.921   2.918   3.106 -1.1289  0.7300  0.5660
  274MOL0     O37710  10.062   2.945   3.117  0.0763  0.0755  0.8049
  274MOL0     C37711  10.134   2.956   3.243 -0.3331  0.6042 -0.2667
  274MOL0     C37712  10.289   2.931   3.208 -0.1841 -0.1604 -0.2377
  274MOL0     C37713  10.336   2.992   3.076 -0.5658  0.0067 -0.5668
  274MOL0     C37714  10.486   2.967   3.039 -0.1083  0.0127 -0.6438
  274MOL0     C37715  10.491   2.983   2.883 -0.1855 -0.1037 -0.2564
  274MOL0     C37716  10.541   3.121   2.839 -0.2331 -0.0789 -0.5628
  274MOL0     C37717  10.571   3.121   2.688 -0.9660 -0.3806  0.0643
  274MOL0     C37718  10.630   3.250   2.634 -0.7343 -0.0651  0.5292
  274MOL0    Cl37719  10.802   3.232   2.644 -0.5863  0.0486 -0.1306
  274MOL0     C37720   9.833   2.903   3.221 -0.7013  0.8369  0.4888
  274MOL0     C37721   9.702   2.875   3.201  0.3995  1.2181 -0.2037
  274MOL0     O37722   9.463   3.040   3.137  0.2547  0.5188 -0.8277
  274MOL0     C37723   9.274   2.851   2.904  0.0863  0.5861 -0.0649
  274MOL0     C37724   9.151   2.838   2.845  0.1398 -0.3868  0.8554
  274MOL0     N37725   8.610   2.874   2.439 -0.5558  0.0398 -0.7137
  274MOL0     N37726   8.523   2.832   2.354 -0.6028 -0.9861 -0.1003
  274MOL0     C37727   7.750   3.585   1.758  1.3370  0.3788  0.1738
  274MOL0     C37728   7.655   3.679   1.714  0.1654  0.0711 -0.1055
  274MOL0     C37729   7.439   3.955   1.436 -0.7892  0.4399 -0.1791
  274MOL0     C37730   7.461   4.103   1.436 -0.1844  0.9752 -0.1597
  274MOL0     C37731   7.378   4.175   1.350 -1.1007 -1.2809 -0.0238
  274MOL0     C37732   7.281   4.121   1.264 -0.3059  0.3711  0.1994
  274MOL0     O37733   7.229   4.197   1.153  0.0466 -0.5745  0.1069
  274MOL0     C37734   7.154   4.316   1.200  0.4707 -0.4004 -0.1862
  274MOL0     C37735   7.115   4.389   1.072  0.9249  0.5611  0.4140
  274MOL0     C37736   7.040   4.517   1.096  0.5592 -1.0594 -0.0691
  274MOL0     C37737   6.963   4.577   0.968  0.9198  0.2638  0.0866
  274MOL0     C37738   6.890   4.705   0.999  0.5002  0.3828  0.1697
  274MOL0     C37739   6.835   4.803   1.045 -0.0532 -0.3785 -0.0268
  274MOL0     C37740   7.266   3.986   1.266  0.0175 -0.2703 -0.3164
  274MOL0     C37741   7.339   3.900   1.352  0.1312 -0.2948 -0.8044
  274MOL0     C37742   7.326   3.751   1.333 -0.2954  0.5121 -0.8271
  274MOL0     H37743   7.545   3.514   1.438 -0.8770  2.5996 -0.6955
  274MOL0     H37744   7.713   3.342   1.519 -4.7735 -1.6075 -0.1981
  274MOL0     H37745   7.946   3.368   1.563 -0.2848 -0.5170  0.9717
  274MOL0     H37746   7.865   3.228   1.615 -3.0130  2.3089 -1.6933
  274MOL0     H37747   8.086   3.165   1.626  1.7555  1.5275 -0.9310
  274MOL0     H37748   8.142   3.308   1.725  1.4091 -0.7271 -0.4871
  274MOL0     H37749   8.018   3.227   1.921  1.2026  1.0734 -0.8708
  274MOL0     H37750   7.944   3.109   1.808 -0.3693  0.9238 -1.0268
  274MOL0     H37751   8.201   3.030   1.771  0.3563  0.2115 -0.6040
  274MOL0     H37752   8.238   3.147   1.900 -0.8849  0.3355  0.5823
  274MOL0     H37753   8.054   2.915   1.912 -2.0542  0.5774  2.0382
  274MOL0     H37754   8.081   3.013   2.060  0.3076  2.2042  0.1700
  274MOL0     H37755   8.222   2.784   2.017 -2.6465  0.6776 -1.5254
  274MOL0     H37756   8.310   2.887   1.902  0.4662 -0.6114  1.1374
  274MOL0     H37757   8.283   2.928   2.209  1.9432 -2.1089  0.5868
  274MOL0     H37758   8.335   3.057   2.090  0.2290  0.6928  0.8166
  274MOL0     H37759   8.482   2.780   2.093 -2.5399  0.6143 -0.9557
  274MOL0     H37760   8.548   2.935   2.047 -2.0301  1.6782 -0.6568
  274MOL0     H37761   8.692   3.065   2.187  0.2008 -0.6278 -0.1675
  274MOL0     H37762   8.822   3.148   2.374 -0.1047  1.2070  2.0952
  274MOL0     H37763   8.888   3.017   2.451  0.6035 -1.7820 -2.5610
  274MOL0     H37764   8.827   3.218   2.593  0.3286 -0.1141 -0.8644
  274MOL0     H37765   8.655   3.183   2.570 -0.8031 -0.3961 -0.7296
  274MOL0     H37766   8.769   3.107   2.794 -1.7078 -0.1350  0.1566
  274MOL0     H37767   8.682   2.980   2.708 -1.0426 -0.2816 -1.8815
  274MOL0     H37768   8.881   2.876   2.651  1.7741 -1.5573  0.7167
  274MOL0     H37769   8.984   3.014   2.669  0.5563 -2.1639  1.1034
  274MOL0     H37770   8.990   3.093   3.006  0.6025  0.8481  0.6522
  274MOL0     H37771   9.216   3.210   3.158  0.1223 -0.8660 -1.5635
  274MOL0     H37772   9.219   3.065   3.265  2.5929 -1.3428 -2.4866
  274MOL0     H37773   9.066   3.139   3.204 -0.7427  0.8279  1.6583
  274MOL0     H37774   9.683   2.856   2.866  0.9459 -0.1343  0.0382
  274MOL0     H37775   9.933   2.915   2.897 -4.1050 -0.7936 -2.0691
  274MOL0     H37776  10.114   3.060   3.271  2.0850  1.5633 -1.8138
  274MOL0     H37777  10.100   2.877   3.311 -0.3733  0.7779 -0.0850
  274MOL0     H37778  10.356   2.977   3.282 -2.4927  1.0594  1.2340
  274MOL0     H37779  10.310   2.824   3.213  0.0641 -0.1034 -0.0351
  274MOL0     H37780  10.306   3.097   3.076  0.6756  0.3778 -0.1946
  274MOL0     H37781  10.281   2.938   2.999 -1.7944  1.5010 -0.7845
  274MOL0     H37782  10.524   2.871   3.075 -1.4170  0.0943  1.0823
  274MOL0     H37783  10.546   3.036   3.100  0.8788 -2.1046  0.8942
  274MOL0     H37784  10.570   2.914   2.850 -1.7924 -3.2712  1.9798
  274MOL0     H37785  10.405   2.935   2.835  1.8637 -2.8369 -1.4593
  274MOL0     H37786  10.639   3.133   2.886  0.3425  1.2424 -2.0113
  274MOL0     H37787  10.467   3.197   2.865  0.8546  0.0034  2.7790
  274MOL0     H37788  10.480   3.103   2.631 -1.3577  2.4073 -0.3376
  274MOL0     H37789  10.636   3.037   2.664  0.6288  1.4161 -2.4980
  274MOL0     H37790  10.607   3.338   2.694  2.2970  2.0309 -1.0928
  274MOL0     H37791  10.603   3.275   2.531  0.1912  2.1628  0.7715
  274MOL0     H37792   9.866   2.906   3.324 -2.9395  1.0033  1.2514
  274MOL0     H37793   9.628   2.873   3.280 -0.7415  1.5033 -1.2246
  274MOL0     H37794   9.356   2.790   2.869 -0.8120  0.8971 -2.9313
  274MOL0     H37795   9.129   2.775   2.760  0.3798 -0.7049  1.0248
  274MOL0     H37796   7.802   3.606   1.850  2.9614  1.6089 -0.9609
  274MOL0     H37797   7.632   3.754   1.788 -0.0758 -2.9696  3.1313
  274MOL0     H37798   7.536   4.138   1.507  1.1538 -0.5234 -0.7649
  274MOL0     H37799   7.393   4.283   1.355  2.0168 -1.5131 -1.7164
  274MOL0     H37800   7.071   4.280   1.261  0.3132 -0.0604 -0.1953
  274MOL0     H37801   7.223   4.381   1.255  2.9192 -1.4955 -1.7815
  274MOL0     H37802   7.065   4.318   1.006  3.1166  3.6410 -5.2243
  274MOL0     H37803   7.200   4.428   1.015 -0.0138  1.0899 -0.6385
  274MOL0     H37804   6.966   4.508   1.176 -0.7952  1.1789 -0.9808
  274MOL0     H37805   7.108   4.594   1.133  0.7524 -0.5663 -1.4004
  274MOL0     H37806   6.908   4.491   0.929  4.1317 -1.9248  0.0129
  274MOL0     H37807   7.041   4.604   0.896 -0.0614  0.6670 -0.8608
  274MOL0     H37808   6.780   4.885   1.086  0.3092  0.4981 -1.2263
  274MOL0     H37809   7.189   3.943   1.203 -1.1318 -3.4980  2.9186
  274MOL0     H37810   7.427   3.713   1.314 -0.2627  0.3890 -0.4036
  274MOL0     H37811   7.295   3.695   1.421  2.8699 -1.4580 -0.8144
  274MOL0     H37812   7.256   3.725   1.253 -0.8321 -0.0103 -0.1969
  275MOL0     O37813   6.612   6.580  10.549 -0.3400  0.8140  0.8870
  275MOL0     C37814   6.690   6.672  10.528 -0.1256 -0.3538 -0.2906
  275MOL0     O37815   6.671   6.798  10.575 -0.2377  0.0343 -0.2386
  275MOL0     C37816   6.579   6.811  10.678  0.0964  0.0184  1.8244
  275MOL0     C37817   6.620   6.789  10.805  0.2111  0.7733  0.4120
  275MOL0     C37818   6.530   6.796  10.910  0.6377 -0.6359  0.6412
  275MOL0     C37819   6.398   6.832  10.879  0.4045 -0.2752  0.4532
  275MOL0     O37820   6.306   6.854  10.976  0.5423 -0.0585 -0.1127
  275MOL0     C37821   6.317   6.787  11.103  0.5763 -0.2521  0.1972
  275MOL0     C37822   6.183   6.820  11.173 -0.4916 -0.1080  0.0571
  275MOL0     C37823   6.164   6.747  11.303  0.3102 -0.1452  0.5800
  275MOL0     C37824   6.202   6.608  11.302 -0.8351  0.2582 -0.6422
  275MOL0     C37825   6.205   6.529  11.448  0.7683  0.1634  0.5067
  275MOL0     C37826   6.263   6.391  11.408  0.6626  0.1333 -0.2366
  275MOL0     C37827   6.323   6.319  11.531  0.4352  0.2967 -1.2083
  275MOL0     C37828   6.366   6.176  11.514 -0.0315 -0.1280 -0.2431
  275MOL0     N37829   6.417   6.119  11.643 -0.0055 -0.1097 -0.5801
  275MOL0     C37830   6.345   6.113  11.762 -1.1149  0.1666 -0.3483
  275MOL0     C37831   6.431   6.087  11.861  0.5377 -0.1445  0.0039
  275MOL0     C37832   6.402   6.095  12.009 -0.2193  0.6999 -0.3383
  275MOL0     C37833   6.511   6.008  12.080  0.7117  0.0058  0.3492
  275MOL0     C37834   6.489   6.007  12.235 -0.7203 -0.2279  0.2931
  275MOL0     C37835   6.613   5.931  12.298 -0.1873 -0.0223 -0.3328
  275MOL0     O37836   6.607   5.788  12.259  0.0906 -0.4813  0.0288
  275MOL0     C37837   6.699   5.724  12.188 -0.7007 -0.3274  0.0621
  275MOL0     C37838   6.702   5.587  12.196 -0.3692  1.0223  0.4018
  275MOL0     C37839   6.806   5.506  12.139 -0.9404  0.4529 -0.1618
  275MOL0     C37840   6.773   5.352  12.139 -0.3758  0.0352 -0.1710
  275MOL0     C37841   6.910   5.569  12.063 -0.2692 -0.7290  0.4787
  275MOL0     C37842   7.035   5.497  12.018 -0.0350  0.5005  0.6181
  275MOL0     O37843   7.106   5.557  11.920  0.1724 -0.2727  0.1793
  275MOL0     C37844   7.242   5.535  11.898  0.1127  0.0699 -0.1326
  275MOL0     C37845   7.295   5.555  11.773 -0.2737 -0.5100 -0.3630
  275MOL0     C37846   7.420   5.510  11.746 -0.5235  0.0415 -0.2366
  275MOL0     C37847   7.502   5.461  11.844 -0.9243  0.4982 -0.4644
  275MOL0     O37848   7.631   5.435  11.806 -0.1327  0.6027 -0.1030
  275MOL0     C37849   7.712   5.367  11.903  0.6702  0.4948 -0.0598
  275MOL0     C37850   7.840   5.297  11.845 -0.8373  0.4862 -0.1005
  275MOL0     C37851   7.807   5.224  11.716  0.0281  0.1818  0.9739
  275MOL0     C37852   7.919   5.128  11.661  0.3505 -0.1280 -0.4430
  275MOL0     C37853   7.857   5.054  11.544 -0.0148 -0.5829 -0.0644
  275MOL0     C37854   7.945   4.952  11.480 -0.5052 -1.5983  0.2568
  275MOL0     C37855   7.983   4.837  11.565 -0.0529  0.1952 -0.9328
  275MOL0     C37856   8.020   4.722  11.479 -0.4998  0.2763  0.7373
  275MOL0    Cl37857   8.055   4.576  11.579 -0.2140  0.2305  0.3096
  275MOL0     C37858   7.454   5.455  11.978  0.2615  0.7260 -0.8162
  275MOL0     C37859   7.322   5.489  12.004  0.2565 -0.3034 -0.1763
  275MOL0     O37860   7.065   5.389  12.073  0.1604 -0.7631 -0.0486
  275MOL0     C37861   6.905   5.709  12.049  0.1818  0.7413 -0.1399
  275MOL0     C37862   6.803   5.784  12.118 -0.5358 -1.0945 -0.4303
  275MOL0     N37863   6.550   6.076  11.797 -0.5298  0.4643 -0.6157
  275MOL0     N37864   6.543   6.102  11.676 -0.1762 -0.1630 -0.9320
  275MOL0     C37865   6.356   6.851  10.752  0.7591  0.1881 -0.2617
  275MOL0     C37866   6.442   6.832  10.645  0.7236 -0.6555 -1.1844
  275MOL0     C37867   6.806   6.648  10.436 -0.5382 -0.1217  0.1610
  275MOL0     C37868   6.923   6.713  10.472  0.8122  0.3192  0.4652
  275MOL0     C37869   7.043   6.712  10.399 -0.5684  0.2563  0.4143
  275MOL0     C37870   7.053   6.651  10.271 -0.2554 -0.6234 -0.9648
  275MOL0     O37871   7.158   6.659  10.186  0.0563  0.6675 -0.4690
  275MOL0     C37872   7.288   6.703  10.249 -0.3204 -0.0309  1.4824
  275MOL0     C37873   7.345   6.592  10.336  0.7930  0.0264 -0.0580
  275MOL0     C37874   7.486   6.629  10.389  1.5236 -0.1291  0.5401
  275MOL0     C37875   7.600   6.537  10.346  0.6626  0.1506 -0.2901
  275MOL0     C37876   7.593   6.398  10.394 -0.9633 -0.6638  1.3623
  275MOL0     C37877   7.601   6.282  10.431  0.1313  0.2438  0.3944
  275MOL0     C37878   6.930   6.583  10.232  0.3616  0.7225 -0.1607
  275MOL0     C37879   6.810   6.577  10.309 -1.8536 -0.1770  0.1515
  275MOL0     C37880   6.695   6.510  10.256  0.0295 -0.3103 -0.5986
  275MOL0     H37881   6.726   6.764  10.809  0.1603  0.3602 -0.5321
  275MOL0     H37882   6.571   6.781  11.009 -1.2344  1.5335  1.8385
  275MOL0     H37883   6.402   6.817  11.165  0.9211 -1.1344  0.1623
  275MOL0     H37884   6.338   6.683  11.076  1.7647  0.2980 -1.1528
  275MOL0     H37885   6.166   6.927  11.186  1.0894  0.5283 -2.3711
  275MOL0     H37886   6.096   6.793  11.112 -1.6942  0.8336  1.3136
  275MOL0     H37887   6.229   6.804  11.370 -0.0572  1.8917 -0.7245
  275MOL0     H37888   6.061   6.751  11.337 -1.1678 -1.9785 -3.1395
  275MOL0     H37889   6.132   6.560  11.233 -0.2895  0.7478 -1.5538
  275MOL0     H37890   6.304   6.607  11.263  0.0973  0.1440  1.6618
  275MOL0     H37891   6.108   6.513  11.495  0.6463 -1.1177 -0.1542
  275MOL0     H37892   6.268   6.582  11.521 -2.0101 -0.4567  3.6128
  275MOL0     H37893   6.198   6.327  11.348 -1.3407  1.0144  0.9165
  275MOL0     H37894   6.341   6.400  11.332 -1.7526 -2.2547 -3.2361
  275MOL0     H37895   6.249   6.314  11.611  2.3586  1.9173  0.8203
  275MOL0     H37896   6.404   6.379  11.574  0.0884 -1.2645  1.8952
  275MOL0     H37897   6.285   6.115  11.473 -2.6752  2.4923  0.6955
  275MOL0     H37898   6.451   6.183  11.446  0.1523 -1.3982 -0.1503
  275MOL0     H37899   6.239   6.137  11.762 -0.6987  2.4181  1.9550
  275MOL0     H37900   6.302   6.057  12.030  0.1839 -0.2956 -0.1716
  275MOL0     H37901   6.382   6.196  12.047  2.0923  0.7283  0.9901
  275MOL0     H37902   6.506   5.905  12.043  1.8696  0.0213  0.1286
  275MOL0     H37903   6.615   6.030  12.055  0.9365 -1.3523  0.0098
  275MOL0     H37904   6.498   6.110  12.270  3.4392 -1.3080  3.2060
  275MOL0     H37905   6.392   5.961  12.253 -1.8665  0.8199 -2.6357
  275MOL0     H37906   6.709   5.978  12.274 -0.8621  1.8335  0.4808
  275MOL0     H37907   6.601   5.917  12.405  0.2124 -0.9330 -0.3958
  275MOL0     H37908   6.627   5.537  12.257  0.7346 -0.7081  0.4207
  275MOL0     H37909   6.797   5.291  12.051  0.5729 -0.3740  0.3530
  275MOL0     H37910   6.664   5.351  12.137 -0.3644 -0.3446 -1.9432
  275MOL0     H37911   6.811   5.313  12.234  1.3954  4.0399  1.0192
  275MOL0     H37912   7.230   5.606  11.702 -2.1785 -0.3096  1.4228
  275MOL0     H37913   7.473   5.548  11.660  1.8110  1.6340  1.7955
  275MOL0     H37914   7.738   5.438  11.982 -0.2707  0.3619  0.3847
  275MOL0     H37915   7.660   5.282  11.949 -0.1160 -0.8269 -3.1575
  275MOL0     H37916   7.926   5.362  11.825 -0.1128 -0.4055  0.0783
  275MOL0     H37917   7.874   5.231  11.925 -0.9497  2.4164  1.6332
  275MOL0     H37918   7.764   5.283  11.635 -3.5253 -1.6340  1.3419
  275MOL0     H37919   7.724   5.157  11.742 -0.0946 -0.0094  0.1127
  275MOL0     H37920   7.948   5.056  11.738 -0.5427 -0.9268 -0.8391
  275MOL0     H37921   7.999   5.196  11.628  1.3990 -1.0200  0.1714
  275MOL0     H37922   7.773   4.996  11.583  0.3476 -1.1860 -0.1545
  275MOL0     H37923   7.822   5.121  11.464 -0.9847 -0.4539  0.4520
  275MOL0     H37924   8.027   5.005  11.432  0.2770 -0.9476  2.1807
  275MOL0     H37925   7.879   4.910  11.404  0.3372  0.2074 -1.5689
  275MOL0     H37926   7.895   4.804  11.621 -1.7614 -1.1973 -4.1750
  275MOL0     H37927   8.062   4.854  11.639 -0.4809 -0.4158 -0.3173
  275MOL0     H37928   8.111   4.742  11.422  0.0837 -3.1251  0.2401
  275MOL0     H37929   7.935   4.712  11.412  0.3555  2.0520 -0.7260
  275MOL0     H37930   7.514   5.408  12.055  0.6990 -1.0284 -2.1460
  275MOL0     H37931   7.277   5.488  12.103 -0.8800  2.0638 -0.5985
  275MOL0     H37932   6.986   5.758  11.995  2.8685 -0.2851  2.6920
  275MOL0     H37933   6.810   5.892  12.119  0.8309 -1.1680  0.3149
  275MOL0     H37934   6.249   6.870  10.745  0.0928 -1.4178  3.3861
  275MOL0     H37935   6.405   6.850  10.545 -0.6455  2.6021 -0.2082
  275MOL0     H37936   6.928   6.773  10.562  1.7409  0.7331  0.1471
  275MOL0     H37937   7.129   6.759  10.448 -2.2239  2.7041  1.2044
  275MOL0     H37938   7.350   6.717  10.160 -3.3618  2.5606 -0.4580
  275MOL0     H37939   7.294   6.797  10.304  4.6371  1.2767 -0.6670
  275MOL0     H37940   7.341   6.497  10.281 -2.4859  1.0408 -1.8554
  275MOL0     H37941   7.279   6.589  10.423 -1.1422  0.0076 -1.4714
  275MOL0     H37942   7.511   6.730  10.355  0.2014 -0.0104 -0.1427
  275MOL0     H37943   7.478   6.633  10.498 -0.3787 -2.9597  0.6263
  275MOL0     H37944   7.702   6.573  10.366  0.6645  2.0162 -2.9946
  275MOL0     H37945   7.602   6.531  10.237  1.6731  0.7305 -0.3138
  275MOL0     H37946   7.613   6.183  10.471  2.6701  0.2479 -0.1851
  275MOL0     H37947   6.925   6.527  10.139 -0.3541  1.6447 -0.6940
  275MOL0     H37948   6.605   6.567  10.231 -0.4181 -0.7475 -0.0136
  275MOL0     H37949   6.725   6.441  10.176  2.2545 -0.6872  0.4579
  275MOL0     H37950   6.674   6.441  10.338  0.1190  1.3905  0.9255
  276MOL0     O37951   1.501   6.803   6.060  0.7903  0.3154  0.2066
  276MOL0     C37952   1.456   6.770   6.167  0.5551  0.3058  0.3047
  276MOL0     O37953   1.329   6.709   6.182 -0.6049 -0.1566 -0.3248
  276MOL0     C37954   1.245   6.669   6.080 -0.2382  0.9172  0.2419
  276MOL0     C37955   1.115   6.626   6.125  0.6255 -0.4144  0.2939
  276MOL0     C37956   1.021   6.581   6.033 -0.5237  0.4369 -0.2194
  276MOL0     C37957   1.051   6.585   5.900  0.1420 -0.4472  0.7039
  276MOL0     O37958   0.945   6.541   5.819  0.1191 -0.5505 -0.4735
  276MOL0     C37959   0.921   6.606   5.692  0.3605 -0.5460 -0.7648
  276MOL0     C37960   0.861   6.504   5.597  1.0235 -0.1998  0.5172
  276MOL0     C37961   0.961   6.393   5.547 -0.2453  0.0326  0.4284
  276MOL0     C37962   1.051   6.450   5.434 -0.4859  0.5133  0.7618
  276MOL0     C37963   1.121   6.331   5.368 -0.2647  0.6207  0.3544
  276MOL0     C37964   1.205   6.253   5.464 -0.8032 -0.4884 -0.5273
  276MOL0     C37965   1.339   6.192   5.402  0.1179 -0.2540 -0.3564
  276MOL0     C37966   1.444   6.291   5.340 -0.2513  0.5490 -0.4266
  276MOL0     N37967   1.477   6.401   5.432  0.1233 -0.5432  0.2967
  276MOL0     C37968   1.562   6.385   5.535 -0.0422  0.5335 -0.6356
  276MOL0     C37969   1.545   6.494   5.613 -0.0283  0.2080  0.5639
  276MOL0     C37970   1.618   6.533   5.745  0.3092  0.4171  0.0004
  276MOL0     C37971   1.760   6.577   5.709  0.1906  0.0645  0.0648
  276MOL0     C37972   1.756   6.709   5.630 -0.7553 -0.6827 -0.4991
  276MOL0     C37973   1.677   6.825   5.694 -0.2543  0.8351 -0.0883
  276MOL0     O37974   1.700   6.959   5.632 -0.1925 -0.0606 -0.4410
  276MOL0     C37975   1.636   7.068   5.702 -1.0126 -0.6770 -0.3951
  276MOL0     C37976   1.558   7.069   5.820  0.2011  0.2021  0.4662
  276MOL0     C37977   1.506   7.182   5.883  0.0779  0.9589 -0.7412
  276MOL0     C37978   1.411   7.161   6.002  0.2530 -0.0130 -0.4747
  276MOL0     C37979   1.542   7.306   5.832  0.3286 -0.2980 -1.2776
  276MOL0     C37980   1.525   7.438   5.903  0.0976 -0.3529 -0.0595
  276MOL0     O37981   1.471   7.540   5.835  0.1833  0.0457 -0.1534
  276MOL0     C37982   1.490   7.672   5.875  0.2602  0.2948 -0.2140
  276MOL0     C37983   1.506   7.711   6.008  0.0429 -0.5853 -0.3604
  276MOL0     C37984   1.525   7.844   6.040 -0.3320  0.5432  0.1343
  276MOL0     C37985   1.545   7.943   5.947 -0.2067  0.4401 -0.3701
  276MOL0     O37986   1.562   8.072   5.993 -0.3831 -0.1769  0.7795
  276MOL0     C37987   1.607   8.178   5.902  0.1613  0.7165  0.1892
  276MOL0     C37988   1.616   8.304   5.979 -0.2267 -0.3615  0.2139
  276MOL0     C37989   1.476   8.360   6.021 -0.3858 -0.2399  0.3834
  276MOL0     C37990   1.428   8.311   6.154  0.2509  0.0909 -0.1367
  276MOL0     C37991   1.317   8.398   6.230  0.9175  0.8594  0.2183
  276MOL0     C37992   1.277   8.333   6.367 -0.0146 -0.2947  0.1071
  276MOL0     C37993   1.151   8.399   6.433 -0.3015  0.8244  0.5076
  276MOL0     C37994   1.127   8.316   6.558 -0.1042  0.8717 -0.4446
  276MOL0    Cl37995   1.271   8.325   6.668  0.3605  0.1937 -0.2925
  276MOL0     C37996   1.534   7.908   5.812 -0.2604  0.7574  0.1896
  276MOL0     C37997   1.500   7.773   5.777 -0.0725  0.2390 -0.2837
  276MOL0     O37998   1.534   7.428   6.032 -0.0537  0.4912  0.3477
  276MOL0     C37999   1.614   7.316   5.711  0.0491 -0.1792  0.2555
  276MOL0     C38000   1.658   7.197   5.644 -0.6269  0.1030  0.0594
  276MOL0     N38001   1.459   6.581   5.551  0.0220 -0.8521 -0.3350
  276MOL0     N38002   1.426   6.520   5.444  0.5276 -0.0277  1.1411
  276MOL0     C38003   1.173   6.631   5.845 -0.4200 -0.0097  0.2827
  276MOL0     C38004   1.264   6.675   5.937 -0.3310 -0.7901 -0.1126
  276MOL0     C38005   1.545   6.785   6.286 -0.4067  0.1397  0.3227
  276MOL0     C38006   1.494   6.747   6.406 -0.1516 -0.5963  0.0351
  276MOL0     C38007   1.562   6.779   6.527  0.5293  0.2620 -0.2510
  276MOL0     C38008   1.677   6.861   6.522 -0.1772  0.2760 -0.0242
  276MOL0     O38009   1.735   6.924   6.629  1.0730 -0.3650 -0.0420
  276MOL0     C38010   1.702   6.896   6.764  0.1310 -0.0929 -0.2450
  276MOL0     C38011   1.778   6.988   6.851 -0.5199  0.2973 -0.9424
  276MOL0     C38012   1.739   6.973   7.004  0.2109  0.7027 -0.1887
  276MOL0     C38013   1.819   6.866   7.084  0.2014  0.3719  0.3540
  276MOL0     C38014   1.807   6.729   7.036 -0.3046  0.0534 -0.4661
  276MOL0     C38015   1.775   6.620   7.003 -0.9989  0.2952  0.2752
  276MOL0     C38016   1.741   6.877   6.400  0.9134  1.0454  0.7130
  276MOL0     C38017   1.680   6.831   6.277 -0.2745 -0.7183  0.4745
  276MOL0     C38018   1.757   6.861   6.142  0.6794  0.5758 -0.1414
  276MOL0     H38019   1.104   6.616   6.233  1.9001 -1.8999  0.3321
  276MOL0     H38020   0.932   6.528   6.066 -0.8648  0.7882 -0.5454
  276MOL0     H38021   1.005   6.654   5.641 -0.5975 -0.0345 -1.9197
  276MOL0     H38022   0.849   6.685   5.715  1.3253 -0.3531  1.8741
  276MOL0     H38023   0.783   6.451   5.654  1.1109  1.9692  2.8566
  276MOL0     H38024   0.807   6.549   5.513  1.1292 -0.6902  0.1861
  276MOL0     H38025   1.020   6.356   5.632  2.4759  1.7397 -0.5864
  276MOL0     H38026   0.892   6.323   5.500 -0.6920  1.6290 -1.4257
  276MOL0     H38027   0.995   6.512   5.364 -3.0354 -1.9926  0.3576
  276MOL0     H38028   1.124   6.522   5.472  1.6225 -0.1095 -1.7920
  276MOL0     H38029   1.185   6.371   5.289  0.8185 -3.1729 -0.8921
  276MOL0     H38030   1.053   6.263   5.316 -2.4022  3.7444 -1.1985
  276MOL0     H38031   1.228   6.311   5.554 -1.4981 -0.6481 -0.2368
  276MOL0     H38032   1.158   6.162   5.503  2.5547 -0.9737  3.0262
  276MOL0     H38033   1.313   6.120   5.325  1.3894 -1.9100  0.6989
  276MOL0     H38034   1.385   6.146   5.490  0.0732  0.1071 -0.1414
  276MOL0     H38035   1.531   6.240   5.298  1.1983  2.1422  0.5247
  276MOL0     H38036   1.401   6.341   5.253 -1.2518 -0.8222 -0.7599
  276MOL0     H38037   1.636   6.311   5.562 -1.0697 -0.7663 -1.3021
  276MOL0     H38038   1.628   6.453   5.819 -1.5198  1.9970  2.0839
  276MOL0     H38039   1.556   6.604   5.800  1.2516 -0.2878  2.0665
  276MOL0     H38040   1.813   6.598   5.803 -1.8576  1.5423  0.9503
  276MOL0     H38041   1.819   6.498   5.661  1.1780 -0.1539  1.5613
  276MOL0     H38042   1.858   6.748   5.626 -0.3827 -1.4778  0.7501
  276MOL0     H38043   1.720   6.689   5.528  1.7248 -1.1201 -1.3547
  276MOL0     H38044   1.569   6.804   5.690 -0.4766  1.4244  1.8950
  276MOL0     H38045   1.707   6.834   5.798  2.9191 -0.7478 -0.7520
  276MOL0     H38046   1.523   6.971   5.850  2.6756 -2.2880 -3.7160
  276MOL0     H38047   1.307   7.178   5.974 -0.8094 -4.4063  0.0897
  276MOL0     H38048   1.436   7.210   6.096 -0.2233  0.4165 -0.5674
  276MOL0     H38049   1.409   7.055   6.028  4.8429  0.3894  2.9241
  276MOL0     H38050   1.502   7.654   6.101 -1.4602 -1.1635 -0.7425
  276MOL0     H38051   1.513   7.866   6.146 -1.3222 -0.9063  0.3461
  276MOL0     H38052   1.709   8.153   5.872  1.0846  2.1704  1.9475
  276MOL0     H38053   1.546   8.188   5.812  1.5310  2.1394 -0.6274
  276MOL0     H38054   1.685   8.282   6.061 -1.0964  0.4760  1.2088
  276MOL0     H38055   1.668   8.386   5.927 -0.3703 -0.1141  0.4542
  276MOL0     H38056   1.397   8.331   5.951 -0.3679 -0.6970  0.5440
  276MOL0     H38057   1.477   8.469   6.023 -1.2988 -0.2328  2.1001
  276MOL0     H38058   1.511   8.310   6.225 -0.3022  1.2750  0.5581
  276MOL0     H38059   1.396   8.207   6.150 -2.0906  0.6996  0.9473
  276MOL0     H38060   1.347   8.499   6.260  0.2493  1.0390  0.2843
  276MOL0     H38061   1.228   8.394   6.167  2.0136  0.0413 -1.3476
  276MOL0     H38062   1.364   8.335   6.433  0.2878  0.5499 -0.3002
  276MOL0     H38063   1.252   8.228   6.348  2.8198 -0.9811 -0.4112
  276MOL0     H38064   1.065   8.402   6.366 -0.5501  2.2751  0.8429
  276MOL0     H38065   1.163   8.501   6.471 -0.5995  1.5929 -1.3653
  276MOL0     H38066   1.118   8.211   6.531  2.3308  0.4317  0.2141
  276MOL0     H38067   1.033   8.353   6.601 -1.0084  0.4506 -1.9772
  276MOL0     H38068   1.544   7.985   5.736  2.2296 -0.2372 -0.5916
  276MOL0     H38069   1.495   7.748   5.671  0.5857  1.8520 -0.7139
  276MOL0     H38070   1.649   7.408   5.666  1.1831 -1.7558 -2.3676
  276MOL0     H38071   1.716   7.204   5.552  1.2597 -2.1741  0.9510
  276MOL0     H38072   1.205   6.623   5.741 -1.2020  1.2524 -0.0654
  276MOL0     H38073   1.358   6.710   5.896 -0.1764  0.7247  1.4059
  276MOL0     H38074   1.396   6.701   6.411  0.2194 -1.7343 -1.9777
  276MOL0     H38075   1.520   6.744   6.621  2.7684  0.4051  0.8756
  276MOL0     H38076   1.598   6.908   6.797  0.5200  0.4958  0.7888
  276MOL0     H38077   1.734   6.795   6.792  1.1450  0.8692  2.3278
  276MOL0     H38078   1.753   7.091   6.822  0.3484  0.7289 -0.2315
  276MOL0     H38079   1.887   6.984   6.841 -0.3933 -2.3977  0.6452
  276MOL0     H38080   1.770   7.062   7.061  3.2754 -0.1200 -0.3575
  276MOL0     H38081   1.630   6.966   7.008  0.3463 -1.9305  1.1326
  276MOL0     H38082   1.802   6.873   7.192  0.8589 -2.5234  0.7272
  276MOL0     H38083   1.925   6.893   7.076  0.9298 -1.9807  1.2311
  276MOL0     H38084   1.748   6.521   6.971  2.4775 -0.4924 -0.7074
  276MOL0     H38085   1.845   6.905   6.384  1.5496 -2.3636 -2.5886
  276MOL0     H38086   1.721   6.948   6.087 -1.3160  0.2625  0.5818
  276MOL0     H38087   1.864   6.881   6.154  1.6142 -2.9964 -1.4794
  276MOL0     H38088   1.757   6.766   6.088  1.4764  0.8522 -0.6512
  277MOL0     O38089   9.685   3.934   9.304 -0.5662 -0.1672  0.2935
  277MOL0     C38090   9.616   3.834   9.302 -0.0583  0.4015  0.5070
  277MOL0     O38091   9.540   3.800   9.192 -0.0380 -0.7479 -0.6069
  277MOL0     C38092   9.524   3.869   9.070 -1.4511  0.2809 -0.5388
  277MOL0     C38093   9.604   3.972   9.020  0.0116  0.7084  0.0782
  277MOL0     C38094   9.588   4.019   8.885 -0.2250  0.0900 -0.2568
  277MOL0     C38095   9.479   3.975   8.809 -0.4801  0.9163  0.2656
  277MOL0     O38096   9.470   4.042   8.685  0.5362 -0.7291  0.1624
  277MOL0     C38097   9.335   4.058   8.634 -0.2101 -0.1866 -0.6432
  277MOL0     C38098   9.336   4.142   8.510  0.5360 -0.6044 -0.2134
  277MOL0     C38099   9.198   4.144   8.432 -0.0772  1.6099  0.5076
  277MOL0     C38100   9.212   4.217   8.297  0.4153  0.0959  0.0499
  277MOL0     C38101   9.087   4.219   8.220  0.7789 -0.2970 -0.4048
  277MOL0     C38102   9.106   4.275   8.079  0.6718  0.2040 -0.4177
  277MOL0     C38103   8.980   4.258   7.997  0.4656  0.1737 -0.0224
  277MOL0     C38104   8.858   4.325   8.055 -0.1613 -0.2536 -1.1058
  277MOL0     N38105   8.746   4.338   7.960  0.2481  0.2261  0.2076
  277MOL0     C38106   8.748   4.434   7.860  0.5862  0.2919 -0.6701
  277MOL0     C38107   8.627   4.422   7.797  0.6476  0.0409  0.3611
  277MOL0     C38108   8.576   4.510   7.687 -0.2844 -0.3285  1.2205
  277MOL0     C38109   8.450   4.476   7.615  0.4126 -0.4218 -0.6832
  277MOL0     C38110   8.328   4.495   7.701  0.0328  0.6477  0.7403
  277MOL0     C38111   8.210   4.460   7.623 -0.1707  0.1337 -0.1440
  277MOL0     O38112   8.106   4.468   7.715  0.5620  0.0715 -0.2789
  277MOL0     C38113   7.973   4.453   7.671  0.1497 -0.8686 -0.4662
  277MOL0     C38114   7.923   4.422   7.543  0.6718 -0.0805 -0.3213
  277MOL0     C38115   7.787   4.413   7.510  0.9650  0.1495  0.6696
  277MOL0     C38116   7.759   4.395   7.358  0.6744  0.2577 -0.8145
  277MOL0     C38117   7.696   4.419   7.614 -0.4504  0.3863 -1.0559
  277MOL0     C38118   7.550   4.406   7.598  0.2606  0.2703  0.0794
  277MOL0     O38119   7.468   4.420   7.708 -0.3233  0.1847 -0.4995
  277MOL0     C38120   7.337   4.396   7.696 -0.5367 -0.4538  0.0952
  277MOL0     C38121   7.276   4.273   7.691 -0.3435  0.8279 -0.4609
  277MOL0     C38122   7.138   4.259   7.693 -0.3444  0.4817  0.9727
  277MOL0     C38123   7.067   4.379   7.689 -0.6490  0.0725  0.1396
  277MOL0     O38124   6.926   4.370   7.692 -0.6908  0.1681 -0.6815
  277MOL0     C38125   6.869   4.260   7.608 -0.2454  0.5086 -0.9570
  277MOL0     C38126   6.724   4.301   7.580  0.0551  0.5363 -0.8419
  277MOL0     C38127   6.657   4.168   7.536 -0.2685  0.7041 -0.0619
  277MOL0     C38128   6.556   4.193   7.419 -0.1161  0.4308  0.2505
  277MOL0     C38129   6.449   4.082   7.434  0.2907  0.2682 -0.5176
  277MOL0     C38130   6.354   4.095   7.315  0.5208 -0.2500  0.0488
  277MOL0     C38131   6.256   3.968   7.311 -0.3914  0.3021  0.6664
  277MOL0     C38132   6.146   3.964   7.417  0.2454  1.0253  0.1152
  277MOL0    Cl38133   6.180   3.860   7.559 -0.3750  0.0708  0.2912
  277MOL0     C38134   7.131   4.503   7.687 -0.1000 -0.4011 -1.0140
  277MOL0     C38135   7.261   4.515   7.699 -0.6945  0.2035 -0.0585
  277MOL0     O38136   7.502   4.384   7.484 -0.0262 -0.7516  0.0180
  277MOL0     C38137   7.743   4.438   7.740 -0.1987 -0.5304  0.2967
  277MOL0     C38138   7.878   4.457   7.771  0.3500 -0.3805 -0.0342
  277MOL0     N38139   8.565   4.307   7.846  0.3098  0.1599 -0.0337
  277MOL0     N38140   8.645   4.254   7.937 -0.5203 -0.3953  0.3932
  277MOL0     C38141   9.392   3.875   8.864  0.9656 -0.1988 -0.6969
  277MOL0     C38142   9.419   3.824   8.997 -1.2899  0.0895  0.8569
  277MOL0     C38143   9.607   3.735   9.421 -0.5854 -0.5157 -0.2296
  277MOL0     C38144   9.489   3.656   9.434 -0.3377  0.5970  0.4450
  277MOL0     C38145   9.487   3.551   9.527  0.0108 -0.8407  0.9920
  277MOL0     C38146   9.590   3.537   9.619 -0.0569  0.9173 -0.5785
  277MOL0     O38147   9.602   3.448   9.724  0.1125 -0.4044  0.0291
  277MOL0     C38148   9.566   3.311   9.720 -0.2342 -0.2383 -0.7485
  277MOL0     C38149   9.639   3.226   9.628 -0.5380 -0.3636  0.0036
  277MOL0     C38150   9.651   3.089   9.682 -0.6413  0.2516  0.3542
  277MOL0     C38151   9.722   2.986   9.595 -0.5084  0.1700  0.2670
  277MOL0     C38152   9.700   3.012   9.447 -0.3416  0.0563 -0.3666
  277MOL0     C38153   9.659   3.018   9.335  0.0326 -0.4871 -0.6660
  277MOL0     C38154   9.692   3.631   9.623 -0.9064 -0.3379 -0.6107
  277MOL0     C38155   9.709   3.734   9.523  0.0222 -0.4149  0.0813
  277MOL0     C38156   9.837   3.816   9.534 -0.3445 -0.5584 -0.0461
  277MOL0     H38157   9.697   3.988   9.073  0.2666 -4.1819  1.6209
  277MOL0     H38158   9.662   4.092   8.853 -2.6296  2.3261 -1.0675
  277MOL0     H38159   9.278   4.121   8.703  0.7984  2.1175 -1.8223
  277MOL0     H38160   9.289   3.960   8.617  2.8894 -1.4332 -2.8968
  277MOL0     H38161   9.375   4.242   8.530  1.0906 -0.9181  0.3121
  277MOL0     H38162   9.416   4.099   8.448  0.3617 -1.9900  0.4808
  277MOL0     H38163   9.163   4.041   8.422 -0.1847  1.4052  2.5818
  277MOL0     H38164   9.124   4.201   8.490  0.2463  0.3480  2.2337
  277MOL0     H38165   9.258   4.313   8.323  0.0801 -0.0582  1.2470
  277MOL0     H38166   9.284   4.161   8.236 -1.2335 -2.6764  0.4755
  277MOL0     H38167   9.013   4.279   8.274  1.2261 -0.7525  0.7407
  277MOL0     H38168   9.062   4.112   8.212 -1.6690  0.0886  0.9950
  277MOL0     H38169   9.122   4.383   8.090 -0.3116  0.1974  1.6954
  277MOL0     H38170   9.190   4.226   8.030  0.7741 -1.2237  1.0767
  277MOL0     H38171   8.949   4.154   7.992  0.3946  0.1083  1.5111
  277MOL0     H38172   8.991   4.302   7.897  2.4730  3.4817  1.4761
  277MOL0     H38173   8.813   4.258   8.129 -0.1901 -0.6002 -1.4295
  277MOL0     H38174   8.885   4.422   8.097 -2.6366 -0.4762  1.3165
  277MOL0     H38175   8.828   4.502   7.833  1.9944  0.2453  2.8201
  277MOL0     H38176   8.662   4.501   7.620 -0.4466  4.1431  0.0834
  277MOL0     H38177   8.569   4.610   7.732 -0.2261  0.7890 -1.0953
  277MOL0     H38178   8.433   4.552   7.538 -0.8925  2.9970  2.6318
  277MOL0     H38179   8.458   4.380   7.563 -1.1142 -1.3182  0.6494
  277MOL0     H38180   8.334   4.421   7.782  3.1874  0.2700  0.3001
  277MOL0     H38181   8.320   4.597   7.738 -0.0611  2.6052 -3.9798
  277MOL0     H38182   8.193   4.529   7.540 -0.5439 -0.2380 -0.3806
  277MOL0     H38183   8.218   4.358   7.584 -1.3705  0.3441 -0.9857
  277MOL0     H38184   7.980   4.420   7.451 -1.6646 -0.3187 -1.8289
  277MOL0     H38185   7.700   4.303   7.349  2.0714 -1.1827  2.7181
  277MOL0     H38186   7.848   4.370   7.300  1.5751 -0.0393  0.6273
  277MOL0     H38187   7.695   4.474   7.317 -2.9676 -1.1276  1.6513
  277MOL0     H38188   7.341   4.187   7.696 -1.3891  0.1065  1.9098
  277MOL0     H38189   7.094   4.159   7.693 -0.2126  0.2679 -2.6242
  277MOL0     H38190   6.929   4.246   7.518  1.7856 -2.5714  0.6870
  277MOL0     H38191   6.878   4.174   7.675 -0.6097  0.7751 -0.5597
  277MOL0     H38192   6.673   4.332   7.672 -2.4210 -1.7201 -1.3228
  277MOL0     H38193   6.723   4.382   7.506 -2.6976 -0.5512 -2.1268
  277MOL0     H38194   6.604   4.131   7.625  0.1463  0.8168  0.2307
  277MOL0     H38195   6.733   4.093   7.512  0.5127  1.4802 -0.0281
  277MOL0     H38196   6.603   4.174   7.323 -1.5493 -2.4947  0.0265
  277MOL0     H38197   6.506   4.291   7.428 -0.3331  0.1351  3.2882
  277MOL0     H38198   6.501   3.987   7.448  0.3540  0.3624 -0.0748
  277MOL0     H38199   6.396   4.106   7.528  2.6498 -0.0054  0.9560
  277MOL0     H38200   6.403   4.101   7.217  0.5592  0.4025  0.1050
  277MOL0     H38201   6.294   4.186   7.325  0.8444  0.3211 -2.4676
  277MOL0     H38202   6.312   3.875   7.328 -2.5958 -0.8914  1.8078
  277MOL0     H38203   6.215   3.960   7.210 -2.3493 -0.0494  1.4328
  277MOL0     H38204   6.055   3.923   7.373  0.0013  1.5795  0.0871
  277MOL0     H38205   6.128   4.067   7.452  2.3402  1.9733 -1.4083
  277MOL0     H38206   7.077   4.597   7.697 -0.9715 -1.1582  3.7909
  277MOL0     H38207   7.304   4.614   7.704  0.5045 -0.3018 -0.0667
  277MOL0     H38208   7.672   4.424   7.822 -2.2244  2.2931 -0.7886
  277MOL0     H38209   7.904   4.460   7.877  0.3669  3.8060  0.0073
  277MOL0     H38210   9.306   3.848   8.804 -0.9144  3.1525  0.2709
  277MOL0     H38211   9.366   3.734   9.026 -2.0961  0.4050  0.3874
  277MOL0     H38212   9.420   3.655   9.349  2.5660 -1.6217 -2.1363
  277MOL0     H38213   9.400   3.486   9.523 -1.9458  1.6861 -1.5834
  277MOL0     H38214   9.573   3.280   9.825 -3.0414  1.5808  0.0671
  277MOL0     H38215   9.459   3.300   9.704 -0.2395  0.1562 -0.9837
  277MOL0     H38216   9.741   3.266   9.631 -1.6037  2.6624 -0.0610
  277MOL0     H38217   9.583   3.223   9.534 -1.0228 -2.2324  0.3206
  277MOL0     H38218   9.712   3.083   9.773  1.5582 -1.0522 -1.1273
  277MOL0     H38219   9.561   3.035   9.714 -1.0043  0.6681  0.0357
  277MOL0     H38220   9.677   2.888   9.615 -1.0178  0.8261  2.6310
  277MOL0     H38221   9.827   2.973   9.625 -1.5491 -0.3861  4.2374
  277MOL0     H38222   9.613   3.013   9.238 -1.8715 -3.5899  0.2845
  277MOL0     H38223   9.769   3.617   9.698 -2.9817 -4.0718  1.0466
  277MOL0     H38224   9.912   3.804   9.456  2.5450 -2.0315  2.7289
  277MOL0     H38225   9.812   3.922   9.544 -2.0095 -0.9751  0.5946
  277MOL0     H38226   9.898   3.800   9.624 -0.9745 -0.4123  0.4118
  278MOL0     O38227   2.776   6.825   8.484 -0.2800 -0.9338 -0.5224
  278MOL0     C38228   2.734   6.852   8.377  1.2200  0.3812  0.8639
  278MOL0     O38229   2.782   6.949   8.289 -0.2534 -0.8766  0.2836
  278MOL0     C38230   2.888   7.029   8.316 -0.2532  0.3771 -0.0907
  278MOL0     C38231   2.988   6.999   8.408 -1.1941  0.1380  0.5441
  278MOL0     C38232   3.109   7.063   8.406  0.3838 -1.4820 -0.1635
  278MOL0     C38233   3.132   7.175   8.325 -0.0612  0.7008 -0.8314
  278MOL0     O38234   3.259   7.226   8.311  0.1753 -0.6410  0.1989
  278MOL0     C38235   3.317   7.179   8.189 -0.1980  0.3552 -0.0906
  278MOL0     C38236   3.417   7.282   8.134  0.0511  0.6233  0.3158
  278MOL0     C38237   3.521   7.338   8.238  0.8748  0.6709  0.6044
  278MOL0     C38238   3.578   7.214   8.324 -0.2334  0.0354  0.1343
  278MOL0     C38239   3.706   7.252   8.408  0.1107 -0.0744 -0.2261
  278MOL0     C38240   3.705   7.382   8.483 -0.2199 -0.1157  0.8458
  278MOL0     C38241   3.820   7.393   8.579  0.1682  0.0808 -0.4247
  278MOL0     C38242   3.801   7.510   8.686  1.2547 -0.0061 -0.7226
  278MOL0     N38243   3.753   7.636   8.625 -0.2768 -0.6953  0.2631
  278MOL0     C38244   3.818   7.715   8.545  0.2373 -1.2628  0.3175
  278MOL0     C38245   3.739   7.825   8.531  0.2948  0.3719 -0.0485
  278MOL0     C38246   3.782   7.944   8.451  0.2737 -0.0996 -0.1585
  278MOL0     C38247   3.724   8.077   8.504 -0.9339  0.0721 -0.1982
  278MOL0     C38248   3.572   8.087   8.489  0.1346 -0.8096 -0.8664
  278MOL0     C38249   3.521   8.226   8.511 -0.6426 -0.6298  0.3523
  278MOL0     O38250   3.567   8.292   8.629 -0.8179 -0.2433 -0.4618
  278MOL0     C38251   3.488   8.279   8.746  0.1596 -0.0450 -0.8881
  278MOL0     C38252   3.351   8.261   8.755 -0.1805 -0.7040  0.4800
  278MOL0     C38253   3.280   8.266   8.880  0.7011 -0.4554 -0.1747
  278MOL0     C38254   3.130   8.245   8.876  0.1845 -0.5964 -0.1791
  278MOL0     C38255   3.353   8.265   8.999  0.3452 -0.2081 -0.2383
  278MOL0     C38256   3.292   8.270   9.131 -0.0954  0.3727 -0.2202
  278MOL0     O38257   3.186   8.187   9.158 -0.2100  0.5224  1.0669
  278MOL0     C38258   3.104   8.207   9.265 -0.4420  0.0923  0.4030
  278MOL0     C38259   2.964   8.228   9.256  0.1078 -0.6924  0.2069
  278MOL0     C38260   2.884   8.259   9.362 -0.0219 -1.3383  0.4879
  278MOL0     C38261   2.937   8.288   9.492 -0.2624  0.1888  0.8197
  278MOL0     O38262   2.853   8.329   9.595 -0.0513  0.2998 -0.0135
  278MOL0     C38263   2.905   8.356   9.726 -0.5290  0.5184 -0.2508
  278MOL0     C38264   2.803   8.420   9.818 -0.4704 -0.5706 -0.0043
  278MOL0     C38265   2.684   8.325   9.859 -0.7876 -0.3736 -0.2050
  278MOL0     C38266   2.581   8.383   9.959  0.2405 -0.2404 -0.1681
  278MOL0     C38267   2.465   8.289  10.001 -0.3070 -0.6220  0.1572
  278MOL0     C38268   2.375   8.369  10.102 -0.4184 -0.0269  0.7023
  278MOL0     C38269   2.437   8.392  10.238  0.5274  0.0344  0.3258
  278MOL0     C38270   2.333   8.473  10.321 -0.1750  0.2491  0.0134
  278MOL0    Cl38271   2.198   8.364  10.361  0.0464 -0.0770 -0.4668
  278MOL0     C38272   3.074   8.257   9.503 -0.8466  0.3407  0.6400
  278MOL0     C38273   3.158   8.220   9.396  0.0579 -0.4897  0.2912
  278MOL0     O38274   3.352   8.341   9.222 -0.0974  0.1391  0.4329
  278MOL0     C38275   3.493   8.261   8.996  0.9624 -0.5567  0.2186
  278MOL0     C38276   3.554   8.267   8.875 -0.4524  0.2220  0.4658
  278MOL0     N38277   3.618   7.805   8.598 -0.3163 -0.0684 -0.4458
  278MOL0     N38278   3.633   7.691   8.650  0.5287 -0.4429 -0.1891
  278MOL0     C38279   3.021   7.217   8.243 -0.1465  1.2338  0.0971
  278MOL0     C38280   2.903   7.146   8.235 -0.0516 -0.1154  0.0677
  278MOL0     C38281   2.610   6.789   8.324  0.6541 -0.7085  0.1590
  278MOL0     C38282   2.490   6.852   8.368  0.0941  0.6026  0.8518
  278MOL0     C38283   2.370   6.805   8.319  0.3266  0.6309  0.8167
  278MOL0     C38284   2.362   6.684   8.245  0.6186  0.4031  0.2991
  278MOL0     O38285   2.252   6.629   8.196 -0.1788 -0.1149  0.0705
  278MOL0     C38286   2.120   6.688   8.190 -0.0495  0.3780 -0.1943
  278MOL0     C38287   2.113   6.783   8.076 -0.7716 -0.3557  0.3287
  278MOL0     C38288   2.005   6.889   8.105  0.5895  0.1592  0.0761
  278MOL0     C38289   1.857   6.846   8.073 -0.5055  0.6535  0.7359
  278MOL0     C38290   1.774   6.824   8.189 -0.6812 -0.3269  0.5149
  278MOL0     C38291   1.693   6.831   8.277  0.0019 -0.2062 -0.2713
  278MOL0     C38292   2.479   6.617   8.213 -0.4606 -0.0972  0.2806
  278MOL0     C38293   2.604   6.667   8.251  0.0488 -1.0726 -0.1295
  278MOL0     C38294   2.726   6.580   8.237  0.3787  0.5139  0.1835
  278MOL0     H38295   2.994   6.899   8.451 -1.1252  0.6080  1.6473
  278MOL0     H38296   3.190   7.037   8.474 -1.8514 -2.7973  2.1432
  278MOL0     H38297   3.235   7.167   8.117 -0.1982  2.9146 -0.6375
  278MOL0     H38298   3.365   7.083   8.206 -1.6391 -0.7251 -1.7316
  278MOL0     H38299   3.474   7.232   8.055  2.5922 -1.0378  2.9833
  278MOL0     H38300   3.361   7.364   8.088  1.7237  1.7813  0.2418
  278MOL0     H38301   3.599   7.390   8.182  2.6016 -1.2704  1.0876
  278MOL0     H38302   3.473   7.411   8.304  1.8445  0.2381  1.8446
  278MOL0     H38303   3.493   7.196   8.390 -0.2595 -1.3549 -0.2502
  278MOL0     H38304   3.584   7.119   8.270 -1.3331  1.5642 -2.9164
  278MOL0     H38305   3.788   7.250   8.335 -0.8528  4.8406 -1.8602
  278MOL0     H38306   3.718   7.167   8.475  0.6137 -1.4416 -1.9662
  278MOL0     H38307   3.710   7.464   8.410 -0.5123 -1.7543 -1.1177
  278MOL0     H38308   3.606   7.387   8.528 -1.1396 -1.5533 -0.8704
  278MOL0     H38309   3.915   7.419   8.532  0.7538  0.7300  1.0571
  278MOL0     H38310   3.838   7.301   8.634  0.3692 -0.0279 -0.6682
  278MOL0     H38311   3.721   7.475   8.752  2.3929  1.2714  1.4699
  278MOL0     H38312   3.890   7.506   8.750  1.3020 -0.6197 -0.8246
  278MOL0     H38313   3.917   7.705   8.503  0.8266  3.4889  0.0553
  278MOL0     H38314   3.749   7.938   8.347  1.1343 -2.0017 -0.3705
  278MOL0     H38315   3.891   7.940   8.439  0.0933  0.5908 -2.5791
  278MOL0     H38316   3.768   8.096   8.603  2.1852 -0.0884 -1.4315
  278MOL0     H38317   3.780   8.150   8.444  1.9257 -0.6186  1.4169
  278MOL0     H38318   3.541   8.058   8.389  0.2583 -0.1475 -1.1010
  278MOL0     H38319   3.519   8.021   8.559  0.7834 -0.3407  0.0862
  278MOL0     H38320   3.531   8.285   8.420 -1.1723  0.6666  1.1131
  278MOL0     H38321   3.412   8.219   8.511 -0.9561  2.8254  0.0290
  278MOL0     H38322   3.283   8.260   8.670  0.3621 -0.6854  0.0385
  278MOL0     H38323   3.066   8.318   8.925 -0.5597 -2.0807  1.1353
  278MOL0     H38324   3.101   8.147   8.916 -1.2099  0.3366  1.1785
  278MOL0     H38325   3.093   8.240   8.773 -0.1595  2.1710 -0.2605
  278MOL0     H38326   2.933   8.215   9.153  1.8111  0.3558 -0.4789
  278MOL0     H38327   2.779   8.260   9.335  0.3423 -0.2190 -0.9550
  278MOL0     H38328   2.942   8.261   9.766 -0.1689  1.0331  0.6581
  278MOL0     H38329   2.982   8.434   9.720  0.0299 -0.1406 -2.5718
  278MOL0     H38330   2.848   8.465   9.907  1.0903  1.9776 -1.9370
  278MOL0     H38331   2.765   8.509   9.766  0.3548 -0.3858 -0.3007
  278MOL0     H38332   2.717   8.232   9.906 -0.3118 -0.6419 -1.0426
  278MOL0     H38333   2.624   8.290   9.774  0.5762 -1.6957 -0.6698
  278MOL0     H38334   2.536   8.469   9.909  0.0822  0.1466  0.6221
  278MOL0     H38335   2.642   8.416  10.044  0.6023 -2.5975  0.5659
  278MOL0     H38336   2.410   8.262   9.911 -0.0378 -1.8501  0.3415
  278MOL0     H38337   2.505   8.197  10.045 -3.2955 -1.9142  0.3869
  278MOL0     H38338   2.276   8.323  10.112 -0.9223  0.7735 -0.3984
  278MOL0     H38339   2.355   8.469  10.062  0.7998  0.6294  1.6665
  278MOL0     H38340   2.527   8.454  10.230  0.1248  0.3897 -2.1412
  278MOL0     H38341   2.450   8.293  10.284 -1.0171 -0.6292 -0.6145
  278MOL0     H38342   2.305   8.563  10.266 -0.0425 -0.6387 -1.5799
  278MOL0     H38343   2.369   8.487  10.423 -0.6582 -2.3514  0.6070
  278MOL0     H38344   3.120   8.263   9.601  0.8441  0.2896 -0.1215
  278MOL0     H38345   3.264   8.210   9.418  0.7957  1.3579 -2.0114
  278MOL0     H38346   3.556   8.270   9.083  1.8869 -0.4738 -0.4406
  278MOL0     H38347   3.662   8.264   8.866 -0.2510 -2.5399  2.6984
  278MOL0     H38348   3.026   7.297   8.169  0.1453  0.9734 -0.1682
  278MOL0     H38349   2.826   7.149   8.159  0.7418 -5.7520 -1.3694
  278MOL0     H38350   2.490   6.934   8.439 -2.1773  1.1610  0.2663
  278MOL0     H38351   2.281   6.860   8.346 -2.9098 -3.9508  0.6220
  278MOL0     H38352   2.042   6.611   8.190  2.0561 -1.9534 -2.8231
  278MOL0     H38353   2.116   6.743   8.285  3.1421 -0.3902  0.5159
  278MOL0     H38354   2.105   6.729   7.981 -0.5656  0.3350 -0.0893
  278MOL0     H38355   2.203   6.844   8.074 -1.2199  0.3565 -2.4167
  278MOL0     H38356   2.018   6.937   8.203 -0.9515  2.4918 -0.7697
  278MOL0     H38357   2.018   6.978   8.043  1.5008 -0.3723 -0.5165
  278MOL0     H38358   1.859   6.751   8.019 -2.7273  0.8305  0.2237
  278MOL0     H38359   1.808   6.911   7.999 -0.4511  0.2380  0.3262
  278MOL0     H38360   1.608   6.851   8.339  0.1173  1.7600 -0.6943
  278MOL0     H38361   2.478   6.523   8.159  2.4053  1.0843 -2.1317
  278MOL0     H38362   2.793   6.588   8.324 -3.0156 -1.3708  3.2230
  278MOL0     H38363   2.699   6.476   8.216  0.3271  0.7970 -1.2719
  278MOL0     H38364   2.770   6.622   8.146 -0.1838  2.6139  0.8434
  279MOL0     O38365   5.875  10.118   4.070  0.5578 -0.1017 -0.7964
  279MOL0     C38366   5.868  10.000   4.103 -1.1994 -0.1137  0.5395
  279MOL0     O38367   5.982   9.923   4.119  0.2724 -0.2660 -0.1707
  279MOL0     C38368   6.105   9.980   4.117 -0.6644 -0.4092  0.3396
  279MOL0     C38369   6.136  10.082   4.207 -0.1192  0.6546  0.2252
  279MOL0     C38370   6.255  10.151   4.201  0.0486 -0.6020 -0.1180
  279MOL0     C38371   6.347  10.132   4.097  0.4819 -0.0911  0.1326
  279MOL0     O38372   6.461  10.208   4.085 -0.0510  0.2717 -0.1358
  279MOL0     C38373   6.471  10.338   4.152  0.5932  0.0112 -0.3423
  279MOL0     C38374   6.571  10.419   4.074  0.6118  1.0040  0.5870
  279MOL0     C38375   6.710  10.380   4.104 -0.4963  0.5477 -1.6590
  279MOL0     C38376   6.802  10.480   4.050 -0.1183 -0.7955 -0.8267
  279MOL0     C38377   6.819  10.610   4.123  0.1555  0.1788 -0.3706
  279MOL0     C38378   6.951  10.679   4.080  0.0894  0.1875 -0.7225
  279MOL0     C38379   6.946  10.741   3.935 -0.5233 -0.1939  0.4390
  279MOL0     C38380   7.017  10.646   3.841  0.1325  0.3461  0.2338
  279MOL0     N38381   7.081  10.708   3.727  1.8001  0.0262 -0.1095
  279MOL0     C38382   7.024  10.800   3.654 -0.3598 -0.2488 -0.0129
  279MOL0     C38383   7.102  10.817   3.541  1.3698 -0.2811 -0.3266
  279MOL0     C38384   7.071  10.914   3.433 -0.5703  0.1821 -0.2018
  279MOL0     C38385   7.166  10.904   3.308  0.1765  0.5039 -0.8134
  279MOL0     C38386   7.189  10.763   3.239  0.4462  0.1053 -0.3030
  279MOL0     C38387   7.312  10.769   3.144 -0.2294 -0.0622 -0.1800
  279MOL0     O38388   7.318  10.894   3.084  0.2773 -0.0883 -0.7739
  279MOL0     C38389   7.407  10.927   2.988 -1.0070  0.4939 -0.0829
  279MOL0     C38390   7.457  10.830   2.900 -0.4593  0.0640 -0.8424
  279MOL0     C38391   7.544  10.865   2.794 -0.3712 -0.2818  0.6903
  279MOL0     C38392   7.602  10.758   2.709  0.2919  0.7814  0.4280
  279MOL0     C38393   7.579  10.997   2.765  0.5094  0.0758 -0.1131
  279MOL0     C38394   7.669  11.044   2.654 -0.2299  1.4762  0.0504
  279MOL0     O38395   7.656  11.003   2.526 -0.6196 -0.1756  0.4253
  279MOL0     C38396   7.751  11.037   2.426 -0.2812 -0.3892  0.2199
  279MOL0     C38397   7.758  10.947   2.317  0.8185 -0.5372 -0.1016
  279MOL0     C38398   7.844  10.963   2.211  0.9851  0.1592 -0.0445
  279MOL0     C38399   7.939  11.063   2.213 -1.0172  0.7977  0.3865
  279MOL0     O38400   8.022  11.080   2.104  1.1964  0.2755  0.3192
  279MOL0     C38401   8.144  11.160   2.120  0.1051  0.5415 -0.6137
  279MOL0     C38402   8.243  11.126   2.003  0.4392 -0.9629 -0.1358
  279MOL0     C38403   8.373  11.207   2.015 -0.2388  0.2566  0.8006
  279MOL0     C38404   8.478  11.173   1.897  0.3681  0.2388 -0.3703
  279MOL0     C38405   8.618  11.236   1.923  0.2774  0.3015  0.6641
  279MOL0     C38406   8.687  11.231   1.787  0.3801 -0.5336  0.2958
  279MOL0     C38407   8.832  11.274   1.781 -0.9598 -0.2551 -0.8525
  279MOL0     C38408   8.876  11.296   1.644 -0.1594 -0.9415 -0.0223
  279MOL0    Cl38409   8.807  11.447   1.571  0.2859  0.0464  0.0340
  279MOL0     C38410   7.938  11.149   2.328 -0.0414 -0.0064  0.2421
  279MOL0     C38411   7.846  11.135   2.424 -0.3726  0.6052  0.0378
  279MOL0     O38412   7.752  11.125   2.690  0.4666 -0.2015  0.6189
  279MOL0     C38413   7.529  11.089   2.858 -0.0266 -0.7558  0.2924
  279MOL0     C38414   7.440  11.063   2.952  0.5464 -0.0053 -0.8881
  279MOL0     N38415   7.210  10.727   3.554 -0.4311  0.2697  0.2312
  279MOL0     N38416   7.195  10.666   3.661 -0.8391 -0.2235 -0.4656
  279MOL0     C38417   6.322  10.032   4.004  0.8578 -0.0294  0.8473
  279MOL0     C38418   6.202   9.955   4.014  0.0802 -0.1039 -0.4724
  279MOL0     C38419   5.733   9.940   4.101  0.1454 -0.4573  0.5046
  279MOL0     C38420   5.717   9.807   4.119  1.2112 -0.0671  0.1478
  279MOL0     C38421   5.600   9.730   4.122  0.2575 -0.2382 -0.1804
  279MOL0     C38422   5.475   9.801   4.122 -0.4466 -0.5049 -0.3712
  279MOL0     O38423   5.354   9.741   4.146 -0.6004  0.9492 -0.7822
  279MOL0     C38424   5.235   9.817   4.131  0.3619  0.3184 -0.0999
  279MOL0     C38425   5.115   9.727   4.139  0.0872 -0.5888 -0.4216
  279MOL0     C38426   4.975   9.794   4.138 -0.2577  0.7171  0.4130
  279MOL0     C38427   4.938   9.869   4.264 -0.2777  0.0390  0.5951
  279MOL0     C38428   4.800   9.908   4.245 -0.1615 -0.7742  0.4977
  279MOL0     C38429   4.686   9.942   4.228 -0.0140 -0.0598 -0.2178
  279MOL0     C38430   5.482   9.943   4.092 -0.4498 -0.2450  0.5738
  279MOL0     C38431   5.611  10.018   4.080  0.0723  0.0548 -0.1966
  279MOL0     C38432   5.591  10.171   4.050 -0.0523 -0.2928  0.6887
  279MOL0     H38433   6.063  10.097   4.286 -0.2278 -1.5020  0.5909
  279MOL0     H38434   6.284  10.218   4.281 -0.7661 -0.7306  0.2955
  279MOL0     H38435   6.513  10.328   4.253 -1.7206  3.2746  1.1297
  279MOL0     H38436   6.379  10.398   4.162 -0.3715 -1.2530 -1.2968
  279MOL0     H38437   6.556  10.406   3.967  0.2545 -0.9711  0.8379
  279MOL0     H38438   6.556  10.525   4.098 -0.3231  1.4276 -1.6320
  279MOL0     H38439   6.727  10.379   4.212 -2.0818  0.8016 -1.3793
  279MOL0     H38440   6.733  10.277   4.074 -1.5111  0.4848 -2.3108
  279MOL0     H38441   6.899  10.430   4.046 -0.4890 -1.4701 -2.2870
  279MOL0     H38442   6.776  10.506   3.947 -1.5120  1.5642  0.0438
  279MOL0     H38443   6.825  10.591   4.231 -0.8321 -0.3813 -0.4032
  279MOL0     H38444   6.734  10.674   4.097 -0.5263 -1.2439 -1.8663
  279MOL0     H38445   6.973  10.766   4.143 -0.5514 -1.3886  1.8527
  279MOL0     H38446   7.036  10.612   4.098  0.5917  1.2231  1.0247
  279MOL0     H38447   6.988  10.841   3.932 -0.8226  0.0053  2.0774
  279MOL0     H38448   6.842  10.743   3.900 -0.1941 -3.1076 -1.0001
  279MOL0     H38449   7.096  10.591   3.895  1.4804  2.6039  0.7106
  279MOL0     H38450   6.934  10.584   3.807 -1.6074  1.2711  2.5200
  279MOL0     H38451   6.944  10.869   3.682  2.2706  3.0367  0.0407
  279MOL0     H38452   7.089  11.015   3.472 -0.1262  1.0591 -2.5006
  279MOL0     H38453   6.967  10.902   3.402 -1.0393  0.3392  1.2557
  279MOL0     H38454   7.132  10.979   3.236  2.6313  0.7770 -1.7834
  279MOL0     H38455   7.262  10.937   3.348 -0.0860 -1.0310  1.2350
  279MOL0     H38456   7.206  10.677   3.305 -0.0441  0.8929  0.8731
  279MOL0     H38457   7.096  10.747   3.183  0.9655  1.0477 -1.4615
  279MOL0     H38458   7.405  10.753   3.201 -0.8032  0.5786  0.9656
  279MOL0     H38459   7.293  10.695   3.066 -2.4252  1.3238 -1.0403
  279MOL0     H38460   7.436  10.723   2.901 -1.6462  0.2635 -1.5468
  279MOL0     H38461   7.712  10.766   2.707  0.2852  1.7531  2.2898
  279MOL0     H38462   7.573  10.756   2.603 -0.2441  3.3732  0.4684
  279MOL0     H38463   7.574  10.657   2.740  0.2293  0.8546  0.6070
  279MOL0     H38464   7.705  10.853   2.313  0.6112 -0.8827  4.7967
  279MOL0     H38465   7.845  10.899   2.123  0.6566 -1.1150  0.8547
  279MOL0     H38466   8.122  11.267   2.129 -2.2305  0.1416 -0.9928
  279MOL0     H38467   8.184  11.132   2.218  2.4653 -3.2170 -2.3995
  279MOL0     H38468   8.262  11.019   1.986 -2.1252 -0.9975 -3.9391
  279MOL0     H38469   8.199  11.153   1.907  1.1887  2.9257  0.4753
  279MOL0     H38470   8.425  11.171   2.103  0.8443 -4.6743 -1.5375
  279MOL0     H38471   8.356  11.315   2.013  1.4661  0.6007  2.6483
  279MOL0     H38472   8.434  11.205   1.803 -1.4570 -0.9757  0.0161
  279MOL0     H38473   8.491  11.064   1.899 -1.0280  0.0634  0.7759
  279MOL0     H38474   8.603  11.343   1.941  1.7559  0.5315  0.6213
  279MOL0     H38475   8.675  11.190   2.004 -0.6308 -1.8503  0.1446
  279MOL0     H38476   8.616  11.277   1.718  3.6182 -0.6239 -3.4665
  279MOL0     H38477   8.699  11.127   1.755  1.7364 -1.1000  2.4527
  279MOL0     H38478   8.896  11.201   1.832 -2.9356 -0.3910  1.6904
  279MOL0     H38479   8.834  11.367   1.838 -2.2621  0.1316 -1.3853
  279MOL0     H38480   8.842  11.209   1.586  1.4391 -1.4015 -0.3088
  279MOL0     H38481   8.985  11.301   1.645 -0.0767 -0.9747 -2.4333
  279MOL0     H38482   8.012  11.228   2.335  0.7094 -0.7930  2.0705
  279MOL0     H38483   7.853  11.205   2.507  0.3050 -0.1981  0.6686
  279MOL0     H38484   7.561  11.193   2.853 -2.8382  0.1760 -0.8590
  279MOL0     H38485   7.409  11.127   3.034  0.1196  1.7747 -2.3736
  279MOL0     H38486   6.382  10.024   3.913 -1.5080  3.2141 -1.2071
  279MOL0     H38487   6.175   9.874   3.947 -1.0561 -0.3773  0.2869
  279MOL0     H38488   5.811   9.756   4.138  0.5615 -2.0479 -1.5861
  279MOL0     H38489   5.599   9.625   4.148 -0.0899  0.0924  1.2851
  279MOL0     H38490   5.220   9.887   4.213 -2.6975 -2.0575  1.5799
  279MOL0     H38491   5.232   9.868   4.034  0.3476 -0.5352 -0.5513
  279MOL0     H38492   5.122   9.682   4.238  3.5141 -0.0616 -0.2913
  279MOL0     H38493   5.117   9.650   4.061 -0.3250  2.5585 -3.8400
  279MOL0     H38494   4.980   9.871   4.060 -1.0111  0.8408  0.4843
  279MOL0     H38495   4.902   9.716   4.118  0.7658 -0.2886  0.4877
  279MOL0     H38496   5.014   9.945   4.280  0.6899 -0.4835 -1.2430
  279MOL0     H38497   4.943   9.800   4.349 -2.4616  0.0072  0.7682
  279MOL0     H38498   4.586   9.976   4.211 -0.4216 -0.4793  1.1937
  279MOL0     H38499   5.396  10.007   4.080  0.1415  0.5354  0.4362
  279MOL0     H38500   5.492  10.209   4.075  0.6667  5.0851 -2.9336
  279MOL0     H38501   5.657  10.224   4.120 -0.1485 -1.8854  2.0705
  279MOL0     H38502   5.603  10.197   3.945 -2.4978  1.3328  0.7479
  280MOL0     O38503  11.148   3.488   7.262 -0.2760 -0.1820 -1.2410
  280MOL0     C38504  11.150   3.452   7.143 -0.4634  0.5058  0.0152
  280MOL0     O38505  11.263   3.418   7.067 -0.0297 -1.0807 -0.3569
  280MOL0     C38506  11.385   3.403   7.130  0.1227 -0.3188  0.1807
  280MOL0     C38507  11.454   3.518   7.176 -0.6850  0.2854  0.0080
  280MOL0     C38508  11.578   3.509   7.237 -0.7831  0.3290  0.2185
  280MOL0     C38509  11.627   3.383   7.263  0.1254 -0.4063  0.0654
  280MOL0     O38510  11.757   3.374   7.315 -0.7609 -0.1394 -0.1893
  280MOL0     C38511  11.797   3.470   7.417  0.6574  0.6477  1.5057
  280MOL0     C38512  11.930   3.418   7.476  0.1519 -0.1858 -0.7655
  280MOL0     C38513  11.959   3.516   7.590 -0.0907  0.3149 -0.5524
  280MOL0     C38514  12.105   3.493   7.641  0.2001  0.5093 -0.2835
  280MOL0     C38515  12.110   3.415   7.775  0.7302  0.4825  0.0590
  280MOL0     C38516  12.058   3.270   7.767  0.0983 -0.3472 -0.9233
  280MOL0     C38517  12.108   3.186   7.893 -0.5175 -0.3365  0.4241
  280MOL0     C38518  12.040   3.231   8.019 -0.1153  0.2471  0.2268
  280MOL0     N38519  12.079   3.157   8.133  0.4554 -0.9035 -0.6780
  280MOL0     C38520  12.009   3.052   8.198  0.3525 -0.7799  0.4952
  280MOL0     C38521  12.076   3.022   8.303  0.1038  0.7530  1.0006
  280MOL0     C38522  12.024   2.924   8.408  0.2138 -0.0653 -0.9011
  280MOL0     C38523  11.986   3.003   8.540  0.0119  0.3997 -0.0681
  280MOL0     C38524  11.942   2.900   8.647  0.0830 -0.3600 -0.3466
  280MOL0     C38525  11.968   2.937   8.799  0.2079  0.3598  0.6492
  280MOL0     O38526  12.109   2.936   8.832  0.1557  0.0828  0.6125
  280MOL0     C38527  12.153   3.010   8.940 -0.3548  0.7369 -0.0743
  280MOL0     C38528  12.294   3.010   8.962 -0.2776 -0.2010  0.2430
  280MOL0     C38529  12.357   3.077   9.068  0.6508 -0.3004 -0.4306
  280MOL0     C38530  12.508   3.056   9.077 -0.3035 -0.5828  0.7178
  280MOL0     C38531  12.274   3.144   9.160 -0.1083 -0.2221  0.0383
  280MOL0     C38532  12.335   3.227   9.269 -0.4584 -0.6094  0.1238
  280MOL0     O38533  12.462   3.273   9.244 -0.1580 -0.2469 -0.0067
  280MOL0     C38534  12.541   3.316   9.343 -0.6340  0.8202  0.0046
  280MOL0     C38535  12.589   3.209   9.422  0.1015  0.4865  0.3640
  280MOL0     C38536  12.682   3.238   9.521  0.1826 -0.0632 -0.1978
  280MOL0     C38537  12.709   3.372   9.554 -0.4782  0.5591  0.0108
  280MOL0     O38538  12.794   3.397   9.655  0.4527  0.1135  0.3464
  280MOL0     C38539  12.760   3.496   9.754  0.2006 -0.4035 -0.3973
  280MOL0     C38540  12.745   3.415   9.881  1.0514  0.3305  0.1537
  280MOL0     C38541  12.683   3.500   9.984  0.1116  0.3178 -0.7045
  280MOL0     C38542  12.683   3.433  10.122  0.1080 -0.3893 -0.6998
  280MOL0     C38543  12.620   3.525  10.225  0.1454 -0.3558  0.3014
  280MOL0     C38544  12.641   3.485  10.367 -0.0086  0.1405  0.3452
  280MOL0     C38545  12.643   3.608  10.457 -0.0510 -0.1896  0.4569
  280MOL0     C38546  12.639   3.581  10.606  1.2708 -0.2188  1.0220
  280MOL0    Cl38547  12.808   3.522  10.640 -0.3247  0.1107 -0.2097
  280MOL0     C38548  12.647   3.474   9.476  0.8318  0.3509  0.1189
  280MOL0     C38549  12.565   3.450   9.378  0.6994 -0.2030  0.7587
  280MOL0     O38550  12.269   3.257   9.361  0.6902 -0.1258  0.2602
  280MOL0     C38551  12.134   3.146   9.135 -0.2681 -0.7408 -1.0799
  280MOL0     C38552  12.071   3.087   9.025 -0.4971  0.1870 -0.1994
  280MOL0     N38553  12.183   3.102   8.310 -0.1991  1.9207 -0.1624
  280MOL0     N38554  12.180   3.185   8.208  0.0577 -0.4054 -0.1732
  280MOL0     C38555  11.557   3.269   7.216  0.6848 -0.4649  0.6760
  280MOL0     C38556  11.434   3.274   7.157  0.5418  0.2536 -0.1422
  280MOL0     C38557  11.017   3.446   7.078  0.0931 -0.2915 -0.2626
  280MOL0     C38558  10.902   3.454   7.166  0.2262 -0.3018 -0.1974
  280MOL0     C38559  10.783   3.410   7.115  0.2368  0.3096 -0.1223
  280MOL0     C38560  10.766   3.386   6.977  0.3281 -0.2066 -1.0988
  280MOL0     O38561  10.637   3.353   6.936 -0.5777 -0.1534 -0.0442
  280MOL0     C38562  10.616   3.363   6.793  0.5565  0.3499 -0.0661
  280MOL0     C38563  10.471   3.322   6.763  0.2664 -0.6221  0.2113
  280MOL0     C38564  10.428   3.168   6.795  0.6779 -1.0972 -1.4622
  280MOL0     C38565  10.515   3.052   6.734 -0.2280  0.0738  0.2970
  280MOL0     C38566  10.510   3.061   6.589  0.1460  0.6488 -0.5933
  280MOL0     C38567  10.501   3.041   6.469  0.1282  0.2047 -0.1631
  280MOL0     C38568  10.871   3.403   6.888 -0.2854 -0.0762 -1.0100
  280MOL0     C38569  10.996   3.428   6.935 -0.0852  0.6812 -0.2975
  280MOL0     C38570  11.109   3.448   6.830 -0.4151 -0.2417 -0.9430
  280MOL0     H38571  11.409   3.610   7.140 -0.1391  0.1135 -1.1666
  280MOL0     H38572  11.627   3.603   7.262 -0.4466  0.5006 -1.0012
  280MOL0     H38573  11.714   3.467   7.489 -2.6854 -0.6848 -2.0618
  280MOL0     H38574  11.824   3.565   7.372  0.9036 -0.0149  0.2207
  280MOL0     H38575  11.919   3.314   7.506  2.0821 -0.4872 -0.9893
  280MOL0     H38576  12.007   3.418   7.398  1.1330 -1.3941  0.1519
  280MOL0     H38577  11.954   3.617   7.548  1.2041 -0.9073 -4.0290
  280MOL0     H38578  11.889   3.500   7.672  1.5140 -2.0428  0.4316
  280MOL0     H38579  12.174   3.445   7.571 -0.6263 -1.0307 -0.0843
  280MOL0     H38580  12.153   3.590   7.655  1.0078  0.1336 -0.3617
  280MOL0     H38581  12.055   3.472   7.850  0.6272 -0.6212  0.8468
  280MOL0     H38582  12.211   3.408   7.817 -0.0482 -1.5132  1.7230
  280MOL0     H38583  11.950   3.269   7.749 -0.0587  0.0395 -0.0754
  280MOL0     H38584  12.103   3.227   7.677 -1.6355 -2.4769 -0.8541
  280MOL0     H38585  12.216   3.185   7.912 -0.2906 -3.3083 -0.4821
  280MOL0     H38586  12.079   3.081   7.876  0.9105 -0.1939 -4.0865
  280MOL0     H38587  12.050   3.339   8.032 -2.7390  0.3692  1.8690
  280MOL0     H38588  11.932   3.216   8.015  0.2325 -2.5783 -1.8857
  280MOL0     H38589  11.914   3.013   8.162 -0.4200  2.2136 -1.0018
  280MOL0     H38590  12.106   2.859   8.437  0.6855  1.9447  2.9084
  280MOL0     H38591  11.935   2.873   8.369 -2.0755  2.2370  0.9932
  280MOL0     H38592  12.067   3.066   8.579 -0.3072  1.3432 -0.9100
  280MOL0     H38593  11.900   3.068   8.522 -2.3752 -1.4679  3.3878
  280MOL0     H38594  11.840   2.868   8.626  0.3469 -1.2089 -0.3484
  280MOL0     H38595  12.008   2.814   8.633  0.6407  0.2291 -1.5084
  280MOL0     H38596  11.936   3.042   8.795  2.8107  1.2696  1.4620
  280MOL0     H38597  11.902   2.881   8.866  0.9398 -0.5494  0.6285
  280MOL0     H38598  12.349   2.954   8.887  0.9448  1.9831 -0.6064
  280MOL0     H38599  12.542   2.979   9.009 -1.5058  2.7040 -4.1372
  280MOL0     H38600  12.544   3.049   9.181  1.8980  0.7162  0.1240
  280MOL0     H38601  12.550   3.146   9.032 -1.7740  0.6202  1.6134
  280MOL0     H38602  12.562   3.107   9.398 -2.8812  1.2547  0.0785
  280MOL0     H38603  12.740   3.171   9.583  2.4134  0.0086 -2.1167
  280MOL0     H38604  12.828   3.582   9.761  1.9065 -1.8204  1.2994
  280MOL0     H38605  12.662   3.540   9.732 -0.1413  0.0058  1.7556
  280MOL0     H38606  12.703   3.318   9.856  2.3961 -0.0191 -0.9090
  280MOL0     H38607  12.851   3.396   9.901  1.3997  2.7413  0.9372
  280MOL0     H38608  12.581   3.528   9.955 -0.7367 -0.3702  1.4013
  280MOL0     H38609  12.740   3.593   9.993  2.4706 -1.1474  0.3938
  280MOL0     H38610  12.781   3.403  10.161 -0.6906  0.4594  2.1925
  280MOL0     H38611  12.624   3.341  10.125  1.1957 -1.1034 -0.4242
  280MOL0     H38612  12.650   3.630  10.212  0.5553 -0.6177 -1.0919
  280MOL0     H38613  12.511   3.533  10.217 -0.1429  0.5993  3.6263
  280MOL0     H38614  12.738   3.436  10.373 -0.8392 -1.4776  2.0686
  280MOL0     H38615  12.558   3.421  10.398  0.9389 -1.2125  0.1577
  280MOL0     H38616  12.565   3.679  10.427  0.8094 -0.5293 -2.9104
  280MOL0     H38617  12.734   3.668  10.455  1.5028 -1.9456  4.9036
  280MOL0     H38618  12.568   3.500  10.625  0.0690  0.8605  1.2507
  280MOL0     H38619  12.600   3.666  10.662  0.5491  1.8284 -2.2878
  280MOL0     H38620  12.672   3.577   9.500  1.8597  0.2861 -0.5963
  280MOL0     H38621  12.518   3.533   9.325 -0.4818 -0.2773  1.6611
  280MOL0     H38622  12.078   3.202   9.210 -0.2911 -1.4271 -0.5786
  280MOL0     H38623  11.963   3.095   9.011 -0.5052  1.0336  0.2892
  280MOL0     H38624  11.604   3.174   7.239  2.8300 -0.4672 -2.8929
  280MOL0     H38625  11.372   3.191   7.128  0.8552  0.1643 -0.5613
  280MOL0     H38626  10.902   3.478   7.272 -2.2680  1.8903 -0.6059
  280MOL0     H38627  10.696   3.393   7.177 -2.4656  0.8270 -3.4684
  280MOL0     H38628  10.627   3.469   6.768  1.6130  0.5506  1.1537
  280MOL0     H38629  10.693   3.304   6.743 -2.0092 -1.3610 -2.3252
  280MOL0     H38630  10.443   3.338   6.658 -0.9575  1.7155  0.8477
  280MOL0     H38631  10.406   3.386   6.823 -0.4430 -1.4661  0.3737
  280MOL0     H38632  10.430   3.167   6.905  1.1569 -1.0381 -1.4699
  280MOL0     H38633  10.324   3.154   6.765  0.1443 -0.9494  0.2062
  280MOL0     H38634  10.465   2.959   6.762  2.0016 -3.1736 -4.9535
  280MOL0     H38635  10.614   3.050   6.782 -0.0447  0.9272 -0.0385
  280MOL0     H38636  10.504   3.028   6.362 -1.6362  1.8550 -0.4567
  280MOL0     H38637  10.856   3.394   6.781 -4.0236 -4.4329 -0.4349
  280MOL0     H38638  11.160   3.538   6.864 -1.9588 -0.5717  2.8010
  280MOL0     H38639  11.173   3.362   6.809 -0.3815 -0.5648  0.3770
  280MOL0     H38640  11.059   3.458   6.733 -0.5058 -0.0730 -0.8781
  281MOL0     O38641   5.750   8.969   4.926  0.4763 -0.0386  0.2034
  281MOL0     C38642   5.742   8.962   5.046  0.3676  0.1375  0.6926
  281MOL0     O38643   5.775   8.850   5.119  1.1754 -0.8834 -0.2984
  281MOL0     C38644   5.743   8.731   5.061 -0.2469 -1.1820 -0.1777
  281MOL0     C38645   5.620   8.671   5.079 -0.7326  0.6591  0.2446
  281MOL0     C38646   5.609   8.532   5.040 -0.0207  0.7361  0.0092
  281MOL0     C38647   5.722   8.468   4.990  0.0908  0.3818 -0.9857
  281MOL0     O38648   5.738   8.332   4.968  0.4513  0.7763  0.4922
  281MOL0     C38649   5.643   8.242   5.025  0.2534 -0.6429  0.8747
  281MOL0     C38650   5.662   8.094   4.962  0.0055 -0.7734  0.0429
  281MOL0     C38651   5.537   8.017   4.917 -0.0039  0.5689 -0.2595
  281MOL0     C38652   5.574   7.860   4.902 -0.4431 -0.1138  0.7878
  281MOL0     C38653   5.459   7.779   4.837 -0.0846 -0.2075 -0.2999
  281MOL0     C38654   5.474   7.626   4.845 -0.4992 -0.0298 -0.1741
  281MOL0     C38655   5.604   7.562   4.794  0.8783  0.7175 -0.7484
  281MOL0     C38656   5.590   7.407   4.785  0.3848 -0.1102  0.0267
  281MOL0     N38657   5.702   7.356   4.704 -1.1320 -0.1700 -0.4472
  281MOL0     C38658   5.702   7.299   4.578  0.3122  0.1136  0.8415
  281MOL0     C38659   5.831   7.288   4.543 -0.2977  0.3952  0.5356
  281MOL0     C38660   5.888   7.224   4.411  0.0922  0.6041 -0.6007
  281MOL0     C38661   5.853   7.075   4.400 -0.7207 -0.1022 -0.2870
  281MOL0     C38662   5.924   6.973   4.500 -0.8335 -0.3891 -0.2835
  281MOL0     C38663   5.901   7.000   4.647  0.4362  0.7432  0.6340
  281MOL0     O38664   5.764   7.014   4.700  0.2319 -0.0666 -1.0506
  281MOL0     C38665   5.747   7.060   4.829  0.2361 -0.0084 -0.3096
  281MOL0     C38666   5.613   7.066   4.874 -0.2759  0.4184 -0.4773
  281MOL0     C38667   5.584   7.099   5.007 -0.3758 -0.9123  0.9071
  281MOL0     C38668   5.443   7.106   5.051  1.4144 -0.0139 -0.1509
  281MOL0     C38669   5.686   7.121   5.104 -0.7518  1.0219  0.5030
  281MOL0     C38670   5.677   7.177   5.250 -0.4040  0.6654  0.5088
  281MOL0     O38671   5.786   7.131   5.330  1.1200 -0.3330  0.4576
  281MOL0     C38672   5.804   7.188   5.452  0.6172 -0.5865 -0.3057
  281MOL0     C38673   5.703   7.210   5.550  0.3477 -0.2172 -1.1346
  281MOL0     C38674   5.744   7.240   5.680  0.3699  0.0468  0.1665
  281MOL0     C38675   5.870   7.261   5.719 -0.2392 -0.2332 -0.4255
  281MOL0     O38676   5.895   7.301   5.850  0.4096 -0.0835  0.4814
  281MOL0     C38677   6.012   7.386   5.876 -0.2554 -0.2639 -0.0264
  281MOL0     C38678   6.000   7.436   6.019 -0.3170 -0.3073 -0.0298
  281MOL0     C38679   6.122   7.504   6.072 -0.5262 -0.8218  0.8246
  281MOL0     C38680   6.199   7.601   5.978 -0.5082 -0.5042  0.1793
  281MOL0     C38681   6.322   7.656   6.056 -0.0428 -0.1472 -0.1083
  281MOL0     C38682   6.420   7.741   5.976  0.5558 -0.0926 -1.2573
  281MOL0     C38683   6.551   7.767   6.049  0.0404 -0.1461  0.4559
  281MOL0     C38684   6.650   7.644   6.060 -0.3954  0.0060 -0.4267
  281MOL0    Cl38685   6.696   7.593   5.907 -0.0389  0.0481  0.0493
  281MOL0     C38686   5.969   7.236   5.634  0.6994 -0.1941 -0.1269
  281MOL0     C38687   5.937   7.202   5.499 -0.3046 -0.1702 -0.1575
  281MOL0     O38688   5.590   7.261   5.279  0.3028  0.5363 -0.5433
  281MOL0     C38689   5.817   7.093   5.063 -0.7141 -0.3340  0.4218
  281MOL0     C38690   5.846   7.069   4.929  0.1627 -0.0243 -0.1432
  281MOL0     N38691   5.912   7.334   4.654  0.0893 -0.5408 -0.2827
  281MOL0     N38692   5.830   7.387   4.738  0.0185 -0.5580  0.7374
  281MOL0     C38693   5.839   8.543   4.960  0.2216  0.6690 -0.7904
  281MOL0     C38694   5.852   8.671   4.996  0.4607  0.5247 -0.2476
  281MOL0     C38695   5.742   9.097   5.111  0.1085  0.0645 -0.3290
  281MOL0     C38696   5.629   9.168   5.099  0.2629 -0.2271  0.2699
  281MOL0     C38697   5.616   9.295   5.137 -1.2236 -0.2326 -0.7713
  281MOL0     C38698   5.731   9.357   5.204  0.3731 -1.5140 -0.0386
  281MOL0     O38699   5.710   9.488   5.234  0.2943  0.5395 -0.0286
  281MOL0     C38700   5.825   9.563   5.283  0.1760  0.0665 -0.0147
  281MOL0     C38701   5.799   9.715   5.307  0.3081  1.4842 -0.1734
  281MOL0     C38702   5.692   9.747   5.408  0.3780 -0.0617  0.3621
  281MOL0     C38703   5.672   9.890   5.397 -0.7099  0.0045  0.2661
  281MOL0     C38704   5.597   9.954   5.506  1.1565 -0.1215  0.3211
  281MOL0     C38705   5.540   9.994   5.607 -0.3920 -0.2930  0.2840
  281MOL0     C38706   5.852   9.285   5.215 -0.0040  0.8269 -0.3247
  281MOL0     C38707   5.861   9.156   5.156  0.0977 -0.0907  1.4099
  281MOL0     C38708   6.004   9.088   5.152  0.1505 -0.2752  0.8334
  281MOL0     H38709   5.543   8.724   5.135 -2.8328 -0.9909 -0.9228
  281MOL0     H38710   5.510   8.489   5.045  0.0422  0.7573  2.3141
  281MOL0     H38711   5.542   8.283   5.022  0.9689  1.1731 -0.5245
  281MOL0     H38712   5.663   8.248   5.132 -1.2609  1.1817  1.1043
  281MOL0     H38713   5.738   8.085   4.883 -0.8204 -2.2089 -0.6148
  281MOL0     H38714   5.713   8.038   5.041  0.1499  0.2457  0.7014
  281MOL0     H38715   5.462   8.034   4.995  0.6729  1.9821  0.1114
  281MOL0     H38716   5.489   8.053   4.826 -2.8436  1.2772  1.3859
  281MOL0     H38717   5.662   7.843   4.839 -1.6208  1.8146 -1.5547
  281MOL0     H38718   5.591   7.814   5.000 -0.5368  0.5138  1.1014
  281MOL0     H38719   5.452   7.806   4.731 -0.3815  2.5891  0.3373
  281MOL0     H38720   5.371   7.811   4.893  1.9808 -0.5343  3.4006
  281MOL0     H38721   5.462   7.603   4.951 -2.4594  2.1629  0.1695
  281MOL0     H38722   5.383   7.594   4.793  0.7118  0.3279 -2.6563
  281MOL0     H38723   5.695   7.593   4.846  1.7722  0.3847 -2.0562
  281MOL0     H38724   5.622   7.600   4.693  1.0052  0.6231 -0.7608
  281MOL0     H38725   5.595   7.362   4.884 -0.3874 -2.5968 -0.9887
  281MOL0     H38726   5.494   7.382   4.738  1.0073 -0.6762 -0.9953
  281MOL0     H38727   5.622   7.280   4.507  2.7413  0.1342 -2.1297
  281MOL0     H38728   5.996   7.234   4.427  0.3392 -2.6807  0.6853
  281MOL0     H38729   5.867   7.285   4.323  1.3121  0.4478 -1.0324
  281MOL0     H38730   5.746   7.058   4.410 -0.3241 -2.1853  1.1633
  281MOL0     H38731   5.887   7.037   4.303  1.5925  1.2184 -0.0901
  281MOL0     H38732   5.901   6.869   4.474 -0.6788 -0.6755  0.7043
  281MOL0     H38733   6.030   6.984   4.474 -0.5405 -0.8107  0.6915
  281MOL0     H38734   5.949   6.915   4.695  0.0219  0.7612  1.0840
  281MOL0     H38735   5.971   7.084   4.655  0.1581  1.3162 -1.8494
  281MOL0     H38736   5.545   7.039   4.793  1.3519 -3.0376 -0.8706
  281MOL0     H38737   5.407   7.208   5.035  0.4994 -0.3982 -0.6049
  281MOL0     H38738   5.420   7.084   5.155  3.2231  1.4082  0.5949
  281MOL0     H38739   5.380   7.040   4.990 -0.8787 -0.0527  2.0874
  281MOL0     H38740   5.597   7.220   5.528 -0.2467 -1.2525  0.9582
  281MOL0     H38741   5.667   7.265   5.752  2.5333  0.8570  2.3397
  281MOL0     H38742   6.107   7.335   5.859 -0.1040 -0.4075  1.1070
  281MOL0     H38743   6.019   7.466   5.802  1.4258 -2.5571 -2.5367
  281MOL0     H38744   5.912   7.501   6.022 -0.8617 -0.8610 -2.4171
  281MOL0     H38745   5.985   7.347   6.081 -0.7582  0.1737  0.5778
  281MOL0     H38746   6.196   7.431   6.108 -0.8024 -0.0526  3.1782
  281MOL0     H38747   6.077   7.551   6.160 -1.7831 -1.0690  0.3213
  281MOL0     H38748   6.150   7.694   5.948 -0.6391 -0.6851 -0.1651
  281MOL0     H38749   6.241   7.557   5.887  0.5104  2.9931 -1.2360
  281MOL0     H38750   6.298   7.710   6.148  1.2496 -0.8142  0.6549
  281MOL0     H38751   6.382   7.569   6.086  0.7791  0.6136  0.5017
  281MOL0     H38752   6.379   7.841   5.963  0.3848  0.0593  0.3350
  281MOL0     H38753   6.436   7.696   5.877 -1.4528 -2.2766 -0.6821
  281MOL0     H38754   6.519   7.808   6.146 -2.4996 -3.5680  1.2567
  281MOL0     H38755   6.601   7.844   5.989 -1.2876  0.1271 -0.3614
  281MOL0     H38756   6.598   7.561   6.109 -0.3367 -0.2469 -0.7851
  281MOL0     H38757   6.739   7.672   6.117 -0.4832 -0.1203 -0.2278
  281MOL0     H38758   6.071   7.249   5.670  0.2629 -2.2979  2.0875
  281MOL0     H38759   6.023   7.178   5.437 -0.6894  0.4459 -0.9415
  281MOL0     H38760   5.902   7.098   5.130 -1.0745  0.4612  0.8291
  281MOL0     H38761   5.946   7.040   4.900 -0.4881 -2.7204  0.0457
  281MOL0     H38762   5.918   8.501   4.898 -0.2834  0.3775 -1.2536
  281MOL0     H38763   5.945   8.722   4.974  1.5394 -1.3506 -0.2287
  281MOL0     H38764   5.539   9.122   5.059 -0.8021  1.3917  0.6968
  281MOL0     H38765   5.525   9.353   5.122  0.6348  2.7683 -1.4250
  281MOL0     H38766   5.863   9.526   5.379 -1.9405  0.6551  1.1031
  281MOL0     H38767   5.907   9.550   5.211  1.2819 -0.9702  1.3660
  281MOL0     H38768   5.785   9.756   5.207 -0.5308  1.5300 -0.0503
  281MOL0     H38769   5.886   9.749   5.364 -1.9344  0.1455  4.6204
  281MOL0     H38770   5.599   9.694   5.385  0.4982 -0.4072  0.6596
  281MOL0     H38771   5.720   9.712   5.508 -0.5732  1.4186  1.1783
  281MOL0     H38772   5.624   9.913   5.301  1.0875  2.1893 -0.1772
  281MOL0     H38773   5.766   9.944   5.389 -1.5402  1.2054 -3.4738
  281MOL0     H38774   5.489  10.024   5.696  1.4689  3.2450  0.3475
  281MOL0     H38775   5.951   9.316   5.248  1.5684 -4.4106  0.9544
  281MOL0     H38776   6.028   9.080   5.259 -2.3343 -0.2778  1.4485
  281MOL0     H38777   6.010   8.994   5.096 -0.6441  1.6542 -2.7918
  281MOL0     H38778   6.081   9.151   5.107 -0.6104  0.2396  0.2293
  282MOL0     O38779   0.391   8.819  10.943  0.1824  0.6194 -0.1757
  282MOL0     C38780   0.290   8.888  10.941 -0.5244  1.2419 -1.0605
  282MOL0     O38781   0.289   9.023  10.946 -0.0880  0.4028  0.6123
  282MOL0     C38782   0.404   9.083  11.002  0.2524  0.0110  0.4567
  282MOL0     C38783   0.481   9.039  11.114  1.0566  0.7367 -0.1694
  282MOL0     C38784   0.606   9.092  11.158 -0.2029  1.0018 -0.4991
  282MOL0     C38785   0.640   9.214  11.100 -1.1354 -0.9603 -0.1004
  282MOL0     O38786   0.755   9.281  11.125  0.1643 -0.4854  0.0141
  282MOL0     C38787   0.856   9.216  11.200  0.1422  0.1234  0.2738
  282MOL0     C38788   0.969   9.309  11.225 -0.5608 -0.0717  0.5321
  282MOL0     C38789   0.942   9.443  11.272  0.2325  0.6201  0.3359
  282MOL0     C38790   1.067   9.505  11.331  0.2861 -0.7971  0.5667
  282MOL0     C38791   1.049   9.641  11.415  0.0866  1.2053  0.8309
  282MOL0     C38792   1.189   9.710  11.448  0.4355  0.0407 -0.4304
  282MOL0     C38793   1.173   9.813  11.561  0.1881  0.4931  0.1351
  282MOL0     C38794   1.119   9.958  11.515 -0.0186  0.0903  1.1869
  282MOL0     N38795   1.109  10.051  11.623  0.5289 -0.0011 -0.2947
  282MOL0     C38796   0.989  10.094  11.672  0.3402  0.2927 -0.4231
  282MOL0     C38797   1.010  10.153  11.790 -1.1329  0.2215 -0.2842
  282MOL0     C38798   0.913  10.207  11.893  0.5782 -0.4475 -0.0864
  282MOL0     C38799   0.772  10.211  11.854  0.4495 -0.0579  0.3414
  282MOL0     C38800   0.701  10.083  11.908  0.0592  0.5170 -0.0241
  282MOL0     C38801   0.552  10.084  11.876  0.3708 -0.3206 -0.7966
  282MOL0     O38802   0.504   9.950  11.906 -0.2572 -1.5589 -0.4378
  282MOL0     C38803   0.369   9.930  11.880 -0.7111  0.4757 -0.6037
  282MOL0     C38804   0.279  10.021  11.824  0.3499 -0.3249  0.5090
  282MOL0     C38805   0.151   9.978  11.792  0.4848  0.4181  0.2370
  282MOL0     C38806   0.063  10.090  11.729  0.5077 -0.0962  0.1946
  282MOL0     C38807   0.103   9.845  11.829  0.7303 -0.1327  0.5434
  282MOL0     C38808  -0.037   9.782  11.821  0.2070 -0.7325 -0.3654
  282MOL0     O38809  -0.072   9.678  11.904  0.2889  0.2443 -0.2874
  282MOL0     C38810  -0.190   9.603  11.870  1.0205 -0.8949 -0.7590
  282MOL0     C38811  -0.318   9.661  11.879 -0.1988  0.0752  0.3324
  282MOL0     C38812  -0.425   9.585  11.840 -0.1973 -0.2062 -0.1613
  282MOL0     C38813  -0.415   9.450  11.800 -0.2979  0.1154 -0.3258
  282MOL0     O38814  -0.519   9.364  11.771  0.1089 -0.0748 -0.4870
  282MOL0     C38815  -0.657   9.410  11.772 -0.5250  0.3641 -0.1463
  282MOL0     C38816  -0.694   9.478  11.641 -0.7477 -0.1559  0.5161
  282MOL0     C38817  -0.841   9.502  11.611  1.0174 -0.5047 -0.2754
  282MOL0     C38818  -0.918   9.365  11.585 -1.0373 -0.1164 -0.0795
  282MOL0     C38819  -1.046   9.403  11.503  0.3368  0.9937 -0.1023
  282MOL0     C38820  -1.025   9.421  11.354 -0.1684  0.2398  0.0974
  282MOL0     C38821  -1.169   9.443  11.298  0.0011  0.2900 -0.1798
  282MOL0     C38822  -1.166   9.469  11.141 -0.7436  0.2154 -0.9311
  282MOL0    Cl38823  -1.325   9.474  11.065 -0.4590  0.0883 -0.1030
  282MOL0     C38824  -0.287   9.394  11.786  0.5597  0.2306  1.4955
  282MOL0     C38825  -0.179   9.481  11.815  0.1202  0.1364  0.1593
  282MOL0     O38826  -0.113   9.836  11.740 -0.2845  0.4741 -0.0261
  282MOL0     C38827   0.195   9.759  11.871 -0.2936 -1.1993 -0.1721
  282MOL0     C38828   0.328   9.796  11.900 -0.1484 -0.5863  0.0317
  282MOL0     N38829   1.144  10.139  11.820  0.1550 -0.7236  0.2343
  282MOL0     N38830   1.203  10.085  11.715  0.1411  0.4763 -0.5161
  282MOL0     C38831   0.569   9.270  10.998  0.5768  0.5996  0.6506
  282MOL0     C38832   0.457   9.206  10.945  0.4952  0.3586  1.3165
  282MOL0     C38833   0.155   8.823  10.931 -0.5585  0.6388 -0.1827
  282MOL0     C38834   0.044   8.897  10.893  0.0035  0.3374 -1.4669
  282MOL0     C38835  -0.076   8.834  10.855 -0.0601 -0.7346  0.6528
  282MOL0     C38836  -0.100   8.695  10.859 -0.3616 -0.0775 -0.1233
  282MOL0     O38837  -0.220   8.631  10.827  1.0172 -0.2117  0.1222
  282MOL0     C38838  -0.327   8.707  10.763 -0.0064  0.6594  0.1524
  282MOL0     C38839  -0.418   8.620  10.683 -0.6675 -0.4557 -1.0107
  282MOL0     C38840  -0.535   8.694  10.624  0.8576  0.3291  0.1670
  282MOL0     C38841  -0.636   8.750  10.731 -0.4237  0.1860  0.9903
  282MOL0     C38842  -0.776   8.774  10.683 -0.4419  0.1152  0.1665
  282MOL0     C38843  -0.886   8.812  10.651 -0.2322  0.6217  0.8827
  282MOL0     C38844   0.014   8.618  10.905  0.0386  1.2612  0.4893
  282MOL0     C38845   0.137   8.677  10.949  0.3944  0.3556  0.7266
  282MOL0     C38846   0.245   8.583  11.011 -0.0119 -0.3247 -0.2603
  282MOL0     H38847   0.445   8.944  11.152 -1.9753  0.8221 -2.4419
  282MOL0     H38848   0.653   9.050  11.246 -1.1995  0.7122 -0.0899
  282MOL0     H38849   0.890   9.121  11.159  0.3198 -0.8235  2.5192
  282MOL0     H38850   0.804   9.187  11.291 -0.6842 -0.8817 -0.4887
  282MOL0     H38851   1.045   9.261  11.287  4.0842  1.8864 -3.0150
  282MOL0     H38852   1.020   9.333  11.131 -0.9051  2.6540  0.9570
  282MOL0     H38853   0.898   9.505  11.193 -0.0870  1.3437  1.0648
  282MOL0     H38854   0.870   9.431  11.354  1.0570 -0.4010  0.9448
  282MOL0     H38855   1.117   9.429  11.392  1.0347 -0.0626  0.8820
  282MOL0     H38856   1.126   9.529  11.243 -2.3528  1.6858 -0.6838
  282MOL0     H38857   0.992   9.620  11.506  0.2005 -2.8856  0.1612
  282MOL0     H38858   0.985   9.714  11.365  0.2634  0.3686 -0.6644
  282MOL0     H38859   1.266   9.637  11.477  1.4826  1.4442  0.4254
  282MOL0     H38860   1.231   9.753  11.356  0.4885 -0.9152 -0.8683
  282MOL0     H38861   1.276   9.826  11.597  2.8204 -0.9857 -5.6524
  282MOL0     H38862   1.119   9.763  11.642 -0.1120 -2.3812 -1.7017
  282MOL0     H38863   1.179   9.996  11.432  1.2948  0.1753  2.1522
  282MOL0     H38864   1.023   9.949  11.463  1.1849  1.9694 -1.6135
  282MOL0     H38865   0.896  10.076  11.621 -0.7294 -0.8261  1.7922
  282MOL0     H38866   0.937  10.310  11.921 -2.0559  0.1383  0.2637
  282MOL0     H38867   0.935  10.145  11.981  0.1772 -2.4209 -1.2998
  282MOL0     H38868   0.723  10.307  11.875  0.5828 -0.4503  2.7610
  282MOL0     H38869   0.759  10.199  11.746 -0.6258  2.3664  0.1319
  282MOL0     H38870   0.750   9.998  11.859  0.8658  0.5239  0.7378
  282MOL0     H38871   0.713  10.073  12.016 -1.7788  0.9466  0.2406
  282MOL0     H38872   0.501  10.153  11.945 -0.7256 -3.1374  1.4003
  282MOL0     H38873   0.540  10.106  11.770  2.2717  1.3527 -0.7346
  282MOL0     H38874   0.315  10.120  11.798  3.2704 -0.9410  1.8400
  282MOL0     H38875   0.097  10.113  11.628  3.5088 -2.5940  0.4667
  282MOL0     H38876   0.067  10.177  11.794 -0.4458 -1.7724  2.6581
  282MOL0     H38877  -0.041  10.057  11.724  0.5664 -0.4236  0.9501
  282MOL0     H38878  -0.325   9.759  11.924  0.0034  0.2437 -0.0036
  282MOL0     H38879  -0.522   9.633  11.838  1.4336  3.8161  3.2794
  282MOL0     H38880  -0.727   9.327  11.788 -0.0503  0.3055  1.9457
  282MOL0     H38881  -0.676   9.470  11.862 -2.1632  1.1635 -0.9838
  282MOL0     H38882  -0.639   9.571  11.634 -0.9051 -0.0749  0.3478
  282MOL0     H38883  -0.655   9.417  11.559 -4.3828 -1.8015 -0.2286
  282MOL0     H38884  -0.847   9.575  11.530  3.5087 -1.1362 -1.1300
  282MOL0     H38885  -0.897   9.548  11.693 -0.3104 -2.2554 -0.1415
  282MOL0     H38886  -0.953   9.333  11.683 -1.5404 -1.7487 -0.7651
  282MOL0     H38887  -0.849   9.294  11.539  1.4572  1.0504  1.6559
  282MOL0     H38888  -1.121   9.325  11.521 -1.1241  2.3615 -0.0531
  282MOL0     H38889  -1.092   9.493  11.544 -1.6388  0.5419 -1.2022
  282MOL0     H38890  -0.990   9.323  11.321 -1.6915  0.1736 -1.5059
  282MOL0     H38891  -0.958   9.503  11.328  2.4171 -1.6524  0.4015
  282MOL0     H38892  -1.213   9.523  11.359 -1.9772 -0.6064 -0.3852
  282MOL0     H38893  -1.225   9.353  11.325 -1.2547  0.6806 -1.3636
  282MOL0     H38894  -1.098   9.396  11.096  1.9508  2.4197 -0.6685
  282MOL0     H38895  -1.125   9.567  11.116 -2.0592  1.3395  1.0383
  282MOL0     H38896  -0.280   9.297  11.738 -1.9258 -1.1157  3.5906
  282MOL0     H38897  -0.081   9.441  11.789 -0.7938 -0.1797 -3.2680
  282MOL0     H38898   0.163   9.656  11.886  0.2897 -1.5355 -1.1502
  282MOL0     H38899   0.406   9.726  11.928  0.7967  0.8423  1.1004
  282MOL0     H38900   0.603   9.357  10.942  0.4520 -1.1129 -2.2802
  282MOL0     H38901   0.409   9.259  10.864 -0.6882 -0.7053  1.2872
  282MOL0     H38902   0.047   9.004  10.877 -2.0275  0.4094 -1.5661
  282MOL0     H38903  -0.163   8.897  10.838  0.3228  0.0119  1.4163
  282MOL0     H38904  -0.379   8.757  10.845 -1.7533  0.2764 -0.6872
  282MOL0     H38905  -0.296   8.789  10.697 -1.1476  1.2008  0.2665
  282MOL0     H38906  -0.455   8.541  10.749  0.7755  0.9425  1.6284
  282MOL0     H38907  -0.368   8.576  10.596 -0.6327 -1.3703 -0.5440
  282MOL0     H38908  -0.499   8.776  10.561 -1.5004  0.6512 -0.8671
  282MOL0     H38909  -0.597   8.624  10.566  0.6087 -0.4946  1.3853
  282MOL0     H38910  -0.594   8.841  10.774 -1.8826  1.9670 -1.1089
  282MOL0     H38911  -0.650   8.676  10.810  0.6937  0.2845  1.2858
  282MOL0     H38912  -0.976   8.847  10.605  1.6986  4.3807 -0.5127
  282MOL0     H38913   0.007   8.510  10.914 -0.8675  0.8144 -3.5718
  282MOL0     H38914   0.278   8.629  11.105 -0.4577  3.8082 -1.9196
  282MOL0     H38915   0.217   8.477  11.015  1.1539 -0.6721 -0.7513
  282MOL0     H38916   0.339   8.579  10.955  0.8546 -0.4798  1.1319
  283MOL0     O38917   3.347   9.868   2.930  0.2206  0.0248  0.0523
  283MOL0     C38918   3.316   9.979   2.968  0.2703 -0.3121  0.1492
  283MOL0     O38919   3.339  10.086   2.900 -0.3877 -0.5693  0.4510
  283MOL0     C38920   3.408  10.076   2.788  0.3963 -0.8122  0.5504
  283MOL0     C38921   3.348  10.120   2.665 -0.0500  1.2612 -0.5886
  283MOL0     C38922   3.419  10.131   2.547 -0.8801 -1.0435 -0.0298
  283MOL0     C38923   3.554  10.088   2.546 -1.0098 -1.3135 -0.4514
  283MOL0     O38924   3.625  10.091   2.431 -0.4117  0.1595  0.1960
  283MOL0     C38925   3.566  10.030   2.309  0.9942  0.4572 -0.2399
  283MOL0     C38926   3.582   9.878   2.311  0.4754  0.9375  0.4011
  283MOL0     C38927   3.483   9.805   2.224  0.2793 -0.6891 -0.0349
  283MOL0     C38928   3.478   9.870   2.076  0.4817  0.9134 -0.1553
  283MOL0     C38929   3.397   9.787   1.980  0.3838 -0.3811  0.1820
  283MOL0     C38930   3.473   9.665   1.933 -0.4630  0.3635  0.9835
  283MOL0     C38931   3.396   9.575   1.843  0.0343 -0.3783 -0.3835
  283MOL0     C38932   3.259   9.543   1.892 -0.7889 -0.0294  0.4328
  283MOL0     N38933   3.246   9.496   2.032  0.1561 -0.7330 -0.3837
  283MOL0     C38934   3.291   9.377   2.075 -0.3439 -0.0794 -0.1080
  283MOL0     C38935   3.284   9.375   2.208 -0.3447  0.2466 -0.4135
  283MOL0     C38936   3.327   9.265   2.298  0.3321  0.5109  0.5812
  283MOL0     C38937   3.228   9.236   2.415 -0.0636  0.1432 -0.5323
  283MOL0     C38938   3.262   9.101   2.482  0.9265  0.1955  0.3767
  283MOL0     C38939   3.387   9.097   2.561 -0.6189 -0.5029 -0.1261
  283MOL0     O38940   3.497   9.048   2.483 -0.1263 -0.2978 -0.8861
  283MOL0     C38941   3.621   9.095   2.528  0.3504  0.5318  1.3619
  283MOL0     C38942   3.724   9.101   2.439  0.0594 -0.1930  1.2765
  283MOL0     C38943   3.858   9.133   2.469 -0.0062 -0.4831 -0.8606
  283MOL0     C38944   3.947   9.127   2.356 -0.1161 -0.3951 -0.2526
  283MOL0     C38945   3.898   9.150   2.602  0.4480 -0.3019 -0.2575
  283MOL0     C38946   4.029   9.189   2.652 -0.0643  0.2315 -0.5035
  283MOL0     O38947   4.111   9.250   2.560  0.1502  0.1999  0.5014
  283MOL0     C38948   4.225   9.303   2.611  0.3536 -0.0575  0.4288
  283MOL0     C38949   4.333   9.226   2.664 -0.1527  0.4234 -0.2698
  283MOL0     C38950   4.455   9.291   2.694  1.1244  0.1850 -0.0685
  283MOL0     C38951   4.481   9.427   2.664  0.8823 -0.4016 -0.0379
  283MOL0     O38952   4.601   9.487   2.665 -0.0685 -1.1921  0.4609
  283MOL0     C38953   4.667   9.507   2.787  0.2590 -0.5439 -0.6633
  283MOL0     C38954   4.808   9.542   2.747 -0.0715 -0.7743 -1.1852
  283MOL0     C38955   4.886   9.578   2.875  0.1441  0.3198  0.5289
  283MOL0     C38956   5.040   9.549   2.864 -0.3979  0.3849 -0.4402
  283MOL0     C38957   5.127   9.586   2.979 -0.3560  0.9772  0.8710
  283MOL0     C38958   5.118   9.729   3.034 -0.5150  0.2715 -0.3536
  283MOL0     C38959   5.149   9.839   2.925  1.1155 -0.5370 -0.6661
  283MOL0     C38960   5.283   9.831   2.858  0.2576 -0.6848  0.2623
  283MOL0    Cl38961   5.316   9.987   2.790  0.2271  0.1039  0.1471
  283MOL0     C38962   4.376   9.497   2.603  0.4902  0.4977 -0.2479
  283MOL0     C38963   4.250   9.439   2.577  0.6758  0.4974 -0.3870
  283MOL0     O38964   4.058   9.161   2.764  0.4263 -0.2046  0.2438
  283MOL0     C38965   3.795   9.136   2.697 -0.5246 -0.6276 -0.2129
  283MOL0     C38966   3.658   9.106   2.659 -0.1819 -0.6479 -0.1053
  283MOL0     N38967   3.224   9.491   2.241  0.3022 -0.4333  0.6937
  283MOL0     N38968   3.208   9.561   2.136 -0.2562 -0.2736  0.4170
  283MOL0     C38969   3.613  10.049   2.666 -0.2362  0.7504 -0.0212
  283MOL0     C38970   3.545  10.046   2.781  0.3843 -0.1213  0.4603
  283MOL0     C38971   3.242  10.004   3.090  0.2457 -0.8389  0.6774
  283MOL0     C38972   3.265  10.128   3.153  0.1875 -0.4233 -0.4289
  283MOL0     C38973   3.205  10.159   3.270  0.3584 -0.4131  0.5508
  283MOL0     C38974   3.111  10.072   3.328  0.9821 -0.7721  0.1105
  283MOL0     O38975   3.054  10.097   3.449  0.3251 -0.4916  0.0684
  283MOL0     C38976   3.124  10.189   3.538  0.0369  0.0688 -0.3784
  283MOL0     C38977   3.057  10.205   3.677 -1.2592 -0.3039 -0.8670
  283MOL0     C38978   3.034  10.062   3.727  0.0573 -0.0047  0.3046
  283MOL0     C38979   2.941  10.047   3.842  1.3867  0.1613 -0.9468
  283MOL0     C38980   2.918   9.908   3.870  0.3108 -0.2926 -0.0937
  283MOL0     C38981   2.887   9.792   3.894 -0.3482 -1.1162  0.0924
  283MOL0     C38982   3.072   9.953   3.261  0.1535  0.4729  0.3170
  283MOL0     C38983   3.148   9.909   3.146 -0.8058 -0.1910 -0.2959
  283MOL0     C38984   3.100   9.775   3.090 -0.2717 -0.6177  0.0917
  283MOL0     H38985   3.242  10.139   2.674  0.2460  2.4344  0.7804
  283MOL0     H38986   3.377  10.181   2.461  4.4381  2.3263 -1.1135
  283MOL0     H38987   3.589  10.085   2.217  0.6300  1.1425  0.0687
  283MOL0     H38988   3.457  10.032   2.317  0.0873 -1.3536 -6.5694
  283MOL0     H38989   3.681   9.858   2.269 -0.1163  2.0492 -1.6552
  283MOL0     H38990   3.565   9.837   2.411 -2.2289 -1.2752 -0.8645
  283MOL0     H38991   3.517   9.701   2.214  0.9857 -0.2278 -3.7152
  283MOL0     H38992   3.380   9.809   2.261 -0.9531  2.0009 -3.2345
  283MOL0     H38993   3.432   9.968   2.065 -0.2885  0.4206 -1.7623
  283MOL0     H38994   3.582   9.871   2.043  0.8680  1.7664  1.0417
  283MOL0     H38995   3.375   9.849   1.893  0.2451  2.4276  2.0753
  283MOL0     H38996   3.303   9.763   2.031  2.3301 -3.7431  2.5775
  283MOL0     H38997   3.560   9.702   1.878 -0.3734  1.6250  1.9336
  283MOL0     H38998   3.494   9.606   2.023 -1.6637  2.2242  2.5481
  283MOL0     H38999   3.453   9.481   1.839  0.5790 -0.1640  1.4737
  283MOL0     H39000   3.392   9.621   1.744 -0.1707  0.0235 -0.1889
  283MOL0     H39001   3.198   9.632   1.870 -0.8795 -0.1848  0.0411
  283MOL0     H39002   3.222   9.470   1.819  0.2582  0.5341 -0.7047
  283MOL0     H39003   3.338   9.303   2.011  0.3428  0.6140 -0.4109
  283MOL0     H39004   3.429   9.282   2.333  0.2805  0.0493  0.9806
  283MOL0     H39005   3.335   9.167   2.249 -0.8797  0.5288  0.3240
  283MOL0     H39006   3.241   9.317   2.487  1.9097 -0.3507 -0.2806
  283MOL0     H39007   3.129   9.247   2.370  0.0456 -0.4793 -0.9361
  283MOL0     H39008   3.183   9.082   2.555 -1.0964  1.1032 -1.4676
  283MOL0     H39009   3.264   9.014   2.416 -0.5359 -0.7719  1.5665
  283MOL0     H39010   3.407   9.198   2.600 -1.1220 -0.5097  0.1615
  283MOL0     H39011   3.372   9.034   2.649 -1.0053  1.6044  1.4027
  283MOL0     H39012   3.696   9.094   2.335 -1.4590 -2.4830  1.7725
  283MOL0     H39013   4.025   9.050   2.363 -0.3289 -0.4310  3.4600
  283MOL0     H39014   3.990   9.227   2.351  0.0546 -0.4682 -0.2844
  283MOL0     H39015   3.893   9.106   2.264 -1.0043 -3.6042  0.8713
  283MOL0     H39016   4.316   9.120   2.682 -0.7239  0.3977 -0.8976
  283MOL0     H39017   4.525   9.230   2.751  0.3151  1.4191  2.3934
  283MOL0     H39018   4.630   9.589   2.850 -1.5504 -0.2934 -1.9649
  283MOL0     H39019   4.662   9.417   2.849 -1.1777 -1.1150 -1.5704
  283MOL0     H39020   4.866   9.464   2.698  0.3748 -0.7869 -0.6494
  283MOL0     H39021   4.820   9.627   2.679  3.1857 -0.9505 -0.9965
  283MOL0     H39022   4.857   9.514   2.959  0.2749  2.4298  2.2733
  283MOL0     H39023   4.872   9.684   2.894 -0.4419  0.7354 -1.9168
  283MOL0     H39024   5.079   9.602   2.777  2.9643 -0.3666  0.4691
  283MOL0     H39025   5.050   9.442   2.840  1.3047 -0.1984  2.3934
  283MOL0     H39026   5.092   9.531   3.066 -2.6680  0.3871 -0.3690
  283MOL0     H39027   5.234   9.569   2.959  0.1868  3.6437  1.1164
  283MOL0     H39028   5.183   9.719   3.121 -0.1231 -2.9662 -0.8642
  283MOL0     H39029   5.022   9.745   3.084  1.0861  3.3309  2.0695
  283MOL0     H39030   5.130   9.936   2.972  0.9491 -0.7876 -0.2118
  283MOL0     H39031   5.072   9.836   2.847  1.6152 -1.2039 -1.1495
  283MOL0     H39032   5.267   9.757   2.778  0.8793 -1.4529  0.8358
  283MOL0     H39033   5.369   9.808   2.921  2.6283  0.8057 -2.2008
  283MOL0     H39034   4.392   9.596   2.561 -1.9217  0.8901 -0.3996
  283MOL0     H39035   4.172   9.493   2.525  1.1445  0.9490 -0.6351
  283MOL0     H39036   3.817   9.147   2.803 -1.4049 -2.0915  0.1492
  283MOL0     H39037   3.584   9.091   2.737  1.8405 -1.3058  1.7943
  283MOL0     H39038   3.720  10.030   2.662 -0.6416 -2.6361  1.7038
  283MOL0     H39039   3.597  10.036   2.876  2.1082 -0.4327 -0.4666
  283MOL0     H39040   3.342  10.195   3.115  0.1415 -0.1491 -0.0369
  283MOL0     H39041   3.219  10.259   3.312 -1.7842 -0.1413  0.7441
  283MOL0     H39042   3.229  10.158   3.546  0.3476  1.0954 -0.3877
  283MOL0     H39043   3.121  10.293   3.505  2.2012  0.9971  1.9826
  283MOL0     H39044   2.968  10.268   3.675 -1.6106 -0.8228 -2.1927
  283MOL0     H39045   3.130  10.247   3.747 -0.0221 -1.1191 -1.6374
  283MOL0     H39046   2.989   9.996   3.652 -3.2076  0.1883  1.8743
  283MOL0     H39047   3.128  10.011   3.751  1.4038  0.9968 -2.4883
  283MOL0     H39048   2.844  10.095   3.831  0.5561 -1.2730 -0.2108
  283MOL0     H39049   2.990  10.103   3.921  4.1286  3.3331 -4.4975
  283MOL0     H39050   2.859   9.696   3.932  1.8560 -2.5233 -1.5577
  283MOL0     H39051   2.993   9.896   3.309 -1.8163 -0.5749 -3.7034
  283MOL0     H39052   3.172   9.711   3.040  0.2946 -0.8815  1.2139
  283MOL0     H39053   3.057   9.712   3.169  2.2965 -1.2510  1.0799
  283MOL0     H39054   3.016   9.811   3.029  1.1037  1.8000 -0.5193
  284MOL0     O39055   8.843   6.621   3.088  0.5252  0.1085 -0.6907
  284MOL0     C39056   8.810   6.507   3.112  0.4595  0.3634  0.1121
  284MOL0     O39057   8.899   6.395   3.115  0.0904 -0.0093 -0.2231
  284MOL0     C39058   9.034   6.410   3.111  0.1648 -0.3180  1.0799
  284MOL0     C39059   9.109   6.497   3.189 -0.1942  0.3614  0.2351
  284MOL0     C39060   9.249   6.484   3.196  0.4104 -0.1704 -0.1573
  284MOL0     C39061   9.314   6.385   3.127 -0.6006 -0.4625  0.0919
  284MOL0     O39062   9.455   6.364   3.145  0.0422 -0.0988 -0.6273
  284MOL0     C39063   9.529   6.471   3.068 -0.1079  1.1745  0.0772
  284MOL0     C39064   9.677   6.465   3.118 -0.0410  0.1898 -0.5107
  284MOL0     C39065   9.754   6.569   3.044 -0.5884  0.1749  0.7493
  284MOL0     C39066   9.899   6.549   3.064 -0.0925  0.2789  0.7210
  284MOL0     C39067   9.943   6.606   3.196 -0.2125  0.4593  0.1393
  284MOL0     C39068  10.081   6.556   3.252 -0.0915  0.9135 -1.0722
  284MOL0     C39069  10.142   6.644   3.364  0.2705 -0.6294 -0.2950
  284MOL0     C39070  10.239   6.564   3.454  0.5218  0.8895 -0.1624
  284MOL0     N39071  10.278   6.621   3.579 -0.3601 -0.4734 -0.5344
  284MOL0     C39072  10.368   6.723   3.603  0.0832  0.8833 -0.1382
  284MOL0     C39073  10.353   6.762   3.733  0.3460 -0.4061 -0.9586
  284MOL0     C39074  10.430   6.870   3.809  0.2403 -0.6663  0.0627
  284MOL0     C39075  10.547   6.820   3.885  0.7255  0.4564  0.7008
  284MOL0     C39076  10.675   6.788   3.791  0.0527  0.6933  0.0003
  284MOL0     C39077  10.806   6.841   3.831 -0.5543 -1.0759 -0.6558
  284MOL0     O39078  10.825   6.810   3.969  0.2454  0.0063  0.2952
  284MOL0     C39079  10.954   6.814   4.012  0.0666  0.8109 -0.2595
  284MOL0     C39080  11.004   6.933   4.047 -0.4524  0.0194  0.2091
  284MOL0     C39081  11.142   6.944   4.090  0.1471 -0.7037 -0.3559
  284MOL0     C39082  11.197   7.070   4.153 -0.6794 -0.7921 -1.0231
  284MOL0     C39083  11.224   6.827   4.082  0.0116  0.5725  0.1852
  284MOL0     C39084  11.371   6.818   4.104 -0.8001 -0.3097 -0.1898
  284MOL0     O39085  11.420   6.711   4.164  0.2665  0.5660 -0.3683
  284MOL0     C39086  11.551   6.702   4.176 -0.2451  0.4002  0.3933
  284MOL0     C39087  11.622   6.790   4.251 -0.5658 -0.2263 -0.7900
  284MOL0     C39088  11.759   6.772   4.282 -0.3258 -0.4613 -0.7033
  284MOL0     C39089  11.829   6.666   4.245  0.1369  0.4424  0.5182
  284MOL0     O39090  11.956   6.643   4.286 -0.4170  0.4362 -0.5068
  284MOL0     C39091  12.012   6.519   4.238 -0.5879 -0.1011  0.7029
  284MOL0     C39092  12.147   6.487   4.309 -0.3632 -0.4782  0.1446
  284MOL0     C39093  12.200   6.342   4.281  0.1739  0.0376 -0.2633
  284MOL0     C39094  12.266   6.347   4.141  0.5400  0.6534 -0.6314
  284MOL0     C39095  12.337   6.216   4.112 -0.2591 -0.6266 -0.1009
  284MOL0     C39096  12.317   6.173   3.968 -0.2968  0.3150  0.7304
  284MOL0     C39097  12.352   6.018   3.944 -0.0310  0.1176  0.4054
  284MOL0     C39098  12.358   5.985   3.795  0.0167  0.9018  0.3179
  284MOL0    Cl39099  12.369   5.813   3.761  0.1006 -0.3416 -0.0615
  284MOL0     C39100  11.752   6.565   4.169  0.0236  0.5591 -0.5585
  284MOL0     C39101  11.616   6.584   4.128 -0.6084 -0.1134 -0.0144
  284MOL0     O39102  11.432   6.925   4.077  0.7069  0.0505 -0.0674
  284MOL0     C39103  11.162   6.706   4.048 -0.0245  1.1067  1.0587
  284MOL0     C39104  11.026   6.702   4.015 -0.3878 -0.2805  0.5071
  284MOL0     N39105  10.242   6.691   3.786 -0.4447 -0.4343  0.0977
  284MOL0     N39106  10.205   6.603   3.699 -0.1924  0.5064 -0.6612
  284MOL0     C39107   9.239   6.284   3.058 -0.7885 -0.9293 -0.1314
  284MOL0     C39108   9.100   6.303   3.039 -0.8046 -0.3041 -0.3760
  284MOL0     C39109   8.662   6.489   3.122  0.2347 -1.0992 -0.7699
  284MOL0     C39110   8.574   6.539   3.028  0.0494  0.5408  0.5900
  284MOL0     C39111   8.437   6.524   3.034 -0.3030  0.8646 -0.1707
  284MOL0     C39112   8.382   6.456   3.142  0.0667  0.4288 -0.2360
  284MOL0     O39113   8.247   6.418   3.153 -0.5617 -0.9591 -0.7050
  284MOL0     C39114   8.147   6.516   3.113 -0.4174 -0.3033  0.0014
  284MOL0     C39115   8.159   6.654   3.179 -0.0237 -0.6086 -0.2184
  284MOL0     C39116   8.035   6.738   3.146 -1.4182  0.6870  0.0134
  284MOL0     C39117   8.024   6.858   3.236  0.4027 -0.0374 -0.2850
  284MOL0     C39118   7.897   6.936   3.217  0.2629  0.9245  0.8042
  284MOL0     C39119   7.800   7.011   3.202 -0.5137 -0.5101 -0.8744
  284MOL0     C39120   8.473   6.397   3.233  0.5362 -0.2634  0.8008
  284MOL0     C39121   8.613   6.415   3.231  0.8829  0.3439  0.8531
  284MOL0     C39122   8.699   6.341   3.339  0.9022 -0.7730  0.0326
  284MOL0     H39123   9.057   6.572   3.248 -0.0955  2.1391 -1.8115
  284MOL0     H39124   9.295   6.543   3.275  0.9829 -2.5782  1.4068
  284MOL0     H39125   9.485   6.568   3.091 -2.0181  0.3056  0.3784
  284MOL0     H39126   9.546   6.461   2.961  2.2070  1.8152  0.3320
  284MOL0     H39127   9.677   6.475   3.227 -0.6062 -3.1982 -0.1072
  284MOL0     H39128   9.720   6.371   3.082 -0.9769 -0.7248  0.7087
  284MOL0     H39129   9.728   6.564   2.937 -1.0639  0.8649  0.8274
  284MOL0     H39130   9.731   6.672   3.070  0.5882  1.0029 -1.2050
  284MOL0     H39131   9.913   6.441   3.071 -0.2819  0.2534  0.7276
  284MOL0     H39132   9.961   6.584   2.981  1.3114 -3.0912  0.1685
  284MOL0     H39133   9.867   6.581   3.271 -0.7467 -2.5312 -1.2903
  284MOL0     H39134   9.948   6.714   3.178  2.6061  0.5404  0.9425
  284MOL0     H39135  10.063   6.455   3.289  1.0093  0.8936 -0.5658
  284MOL0     H39136  10.154   6.549   3.172  0.0140 -1.9440 -0.8200
  284MOL0     H39137  10.062   6.671   3.434  0.6473  3.0007 -1.0755
  284MOL0     H39138  10.179   6.738   3.321 -0.6029 -0.1014  0.0821
  284MOL0     H39139  10.183   6.478   3.493 -1.2347  1.8492 -0.4781
  284MOL0     H39140  10.334   6.546   3.403  1.1621  2.6897  0.3109
  284MOL0     H39141  10.437   6.764   3.531  0.1715 -0.2407 -0.7205
  284MOL0     H39142  10.353   6.908   3.877 -0.6456  1.2529 -1.9039
  284MOL0     H39143  10.461   6.951   3.742 -1.1358 -0.9828 -0.9783
  284MOL0     H39144  10.578   6.890   3.963  1.5328 -1.2085  1.9522
  284MOL0     H39145  10.516   6.730   3.938  0.0598 -1.1685 -2.2667
  284MOL0     H39146  10.680   6.679   3.785 -1.4239  0.6335 -0.7406
  284MOL0     H39147  10.649   6.821   3.690 -1.2387 -3.9008 -1.4150
  284MOL0     H39148  10.893   6.805   3.774  1.4371 -0.5698  1.8764
  284MOL0     H39149  10.816   6.950   3.821  0.4639 -0.9694  1.1634
  284MOL0     H39150  10.943   7.022   4.037  1.2372  1.1103 -0.8495
  284MOL0     H39151  11.226   7.148   4.082  2.5628 -1.6533 -0.8317
  284MOL0     H39152  11.284   7.044   4.214 -0.9825 -1.8393 -1.0269
  284MOL0     H39153  11.120   7.116   4.215 -1.3119 -0.0152 -2.3342
  284MOL0     H39154  11.578   6.883   4.287  0.0215  0.2864 -1.3637
  284MOL0     H39155  11.826   6.835   4.340 -0.1152  1.6556 -3.0583
  284MOL0     H39156  11.951   6.429   4.255 -1.3666  0.7523  2.7407
  284MOL0     H39157  12.037   6.537   4.133  0.3993  0.7718  1.0770
  284MOL0     H39158  12.233   6.554   4.300  0.1338 -0.6241  2.9351
  284MOL0     H39159  12.126   6.492   4.416  0.6100  0.9448  0.2928
  284MOL0     H39160  12.120   6.268   4.272 -1.1377  1.3181  0.4117
  284MOL0     H39161  12.272   6.323   4.361  0.3046  1.5324  0.0055
  284MOL0     H39162  12.336   6.431   4.149  1.3206 -0.0543  0.3552
  284MOL0     H39163  12.200   6.370   4.057 -0.1931  0.2202 -0.1784
  284MOL0     H39164  12.442   6.237   4.133 -0.9667  1.9741  1.4172
  284MOL0     H39165  12.301   6.125   4.162 -0.3752 -0.7581 -0.4208
  284MOL0     H39166  12.385   6.241   3.917 -0.6930  1.0132  1.1179
  284MOL0     H39167  12.211   6.186   3.946  0.2861  0.3261 -2.4598
  284MOL0     H39168  12.275   5.955   3.991 -1.8141  0.5639 -1.7742
  284MOL0     H39169  12.453   6.003   3.983  0.5925  0.1659 -1.1553
  284MOL0     H39170  12.433   6.042   3.739 -2.8519  2.7335 -1.9274
  284MOL0     H39171  12.257   5.997   3.754  0.1015 -1.2428 -0.6700
  284MOL0     H39172  11.791   6.478   4.118 -1.2045  0.4485 -1.3347
  284MOL0     H39173  11.563   6.498   4.089 -0.8938 -0.9835  2.1350
  284MOL0     H39174  11.223   6.616   4.044 -1.3984  0.2049 -0.3047
  284MOL0     H39175  10.969   6.613   3.994 -0.9513  0.1010  0.3931
  284MOL0     H39176   9.294   6.206   3.006 -0.9936 -2.5592  1.9728
  284MOL0     H39177   9.048   6.236   2.972 -2.7602  1.2696 -0.5448
  284MOL0     H39178   8.606   6.603   2.946 -0.4318 -1.0123 -0.8899
  284MOL0     H39179   8.362   6.559   2.965 -3.1294 -1.8885  1.2542
  284MOL0     H39180   8.147   6.536   3.005 -0.9771 -1.2483 -0.1875
  284MOL0     H39181   8.055   6.462   3.138 -1.3541  1.0624 -0.3869
  284MOL0     H39182   8.247   6.710   3.146 -0.6992  0.5421 -0.1308
  284MOL0     H39183   8.175   6.647   3.287  2.9624  2.8100 -0.2501
  284MOL0     H39184   8.048   6.775   3.044 -2.7667 -1.3893 -0.9875
  284MOL0     H39185   7.947   6.674   3.153  0.6364 -2.3092  0.0150
  284MOL0     H39186   8.107   6.925   3.211  2.3998 -2.1945  0.2028
  284MOL0     H39187   8.033   6.828   3.340 -0.4085  0.8492  0.0521
  284MOL0     H39188   7.709   7.068   3.209 -0.7354 -0.6013 -2.6986
  284MOL0     H39189   8.423   6.334   3.306 -2.2256 -1.6529 -2.0611
  284MOL0     H39190   8.764   6.408   3.396  0.4515 -1.9214  2.0081
  284MOL0     H39191   8.628   6.302   3.413 -2.0809 -0.6208 -2.5351
  284MOL0     H39192   8.754   6.253   3.305 -0.5291 -2.8299  2.6489
  285MOL0     O39193  11.060   6.743   6.655 -0.7172 -0.2635 -0.4178
  285MOL0     C39194  10.940   6.717   6.636 -0.3295  0.2355 -0.7868
  285MOL0     O39195  10.850   6.817   6.591  0.3251  0.2467 -0.3146
  285MOL0     C39196  10.899   6.946   6.574 -0.4838  0.7585  0.5221
  285MOL0     C39197  10.905   7.035   6.676  1.0481 -0.6843 -0.2953
  285MOL0     C39198  10.975   7.150   6.656 -0.4117  0.0525  0.1817
  285MOL0     C39199  11.022   7.193   6.533 -0.5887 -0.7483 -0.7074
  285MOL0     O39200  11.069   7.321   6.524 -0.6206 -0.0268 -0.0678
  285MOL0     C39201  11.152   7.345   6.401  0.2888 -0.5261 -0.0676
  285MOL0     C39202  11.230   7.486   6.393  0.1917 -1.2668  0.2478
  285MOL0     C39203  11.370   7.485   6.458  0.1022 -0.2225 -0.2379
  285MOL0     C39204  11.359   7.462   6.610 -0.1604  0.1996 -0.1073
  285MOL0     C39205  11.496   7.447   6.683 -0.3065  0.9399 -0.9281
  285MOL0     C39206  11.478   7.447   6.834  0.0761  0.5596 -0.6711
  285MOL0     C39207  11.617   7.412   6.896 -0.3073  0.7826  0.8337
  285MOL0     C39208  11.624   7.390   7.048 -0.4351  0.0607  0.8733
  285MOL0     N39209  11.759   7.368   7.095  0.6583 -1.1489  0.4576
  285MOL0     C39210  11.845   7.465   7.150 -0.6457 -0.7618  0.8244
  285MOL0     C39211  11.967   7.408   7.146  0.4289  0.0419 -0.1290
  285MOL0     C39212  12.098   7.475   7.161 -0.6316  0.3378  0.3604
  285MOL0     C39213  12.168   7.508   7.030 -0.1691 -0.3174 -0.1109
  285MOL0     C39214  12.088   7.608   6.944  0.2201 -0.2253 -0.9603
  285MOL0     C39215  12.144   7.613   6.802  0.1348  0.0294 -0.7504
  285MOL0     O39216  12.092   7.494   6.727 -0.7625 -0.7560 -0.5877
  285MOL0     C39217  12.079   7.513   6.588  0.7114  0.3034 -0.5355
  285MOL0     C39218  12.171   7.577   6.509 -0.1866  0.3014  0.4439
  285MOL0     C39219  12.159   7.583   6.372 -1.2390 -0.8071  1.5170
  285MOL0     C39220  12.278   7.655   6.293 -0.6463 -0.1630 -0.2246
  285MOL0     C39221  12.050   7.518   6.305 -0.1253  0.1942 -0.1124
  285MOL0     C39222  12.034   7.528   6.154  0.1557  0.3632 -0.6989
  285MOL0     O39223  11.949   7.619   6.087 -0.2643 -0.6470  0.5915
  285MOL0     C39224  11.846   7.674   6.163 -0.3027  0.0577 -0.5585
  285MOL0     C39225  11.864   7.751   6.282  0.3744 -0.6184 -0.2826
  285MOL0     C39226  11.748   7.800   6.354  0.7584 -0.1249  0.5804
  285MOL0     C39227  11.618   7.767   6.303  0.6088 -1.1019  0.1465
  285MOL0     O39228  11.500   7.804   6.358  0.4705 -0.2543  0.0902
  285MOL0     C39229  11.481   7.941   6.388 -0.4445  0.3717 -0.0759
  285MOL0     C39230  11.331   7.968   6.383  0.3257 -0.3039  0.1885
  285MOL0     C39231  11.310   8.107   6.315  0.6535 -0.2250  0.2352
  285MOL0     C39232  11.165   8.158   6.308 -0.4839 -0.4739 -0.2977
  285MOL0     C39233  11.148   8.312   6.269  0.2525 -0.4022 -0.0493
  285MOL0     C39234  10.999   8.354   6.223 -0.2088 -0.2625 -0.1139
  285MOL0     C39235  10.964   8.499   6.255  0.0001  0.5507  0.7392
  285MOL0     C39236  10.898   8.512   6.387 -0.6212 -0.6975 -0.6618
  285MOL0    Cl39237  10.851   8.687   6.390  0.4723 -0.2989 -0.3939
  285MOL0     C39238  11.608   7.698   6.183  0.3384 -0.3894  0.4620
  285MOL0     C39239  11.721   7.650   6.113 -0.1429 -0.1944 -0.4050
  285MOL0     O39240  12.119   7.455   6.103  0.1964 -0.3396  0.0267
  285MOL0     C39241  11.960   7.453   6.382 -0.4152  0.7507 -0.3869
  285MOL0     C39242  11.968   7.445   6.517 -1.7941 -0.5631 -0.4875
  285MOL0     N39243  11.952   7.282   7.094 -0.6239  0.2531 -0.2082
  285MOL0     N39244  11.832   7.256   7.069  0.8919 -0.3556 -0.3238
  285MOL0     C39245  11.013   7.102   6.424 -0.7147  0.4455  0.0961
  285MOL0     C39246  10.948   6.981   6.442  0.1158  0.5567 -0.2611
  285MOL0     C39247  10.887   6.575   6.658 -0.4982 -0.8217 -0.4604
  285MOL0     C39248  10.749   6.560   6.656 -0.3979  0.9052  0.0456
  285MOL0     C39249  10.689   6.440   6.690 -1.1668 -0.9541  0.0918
  285MOL0     C39250  10.767   6.325   6.703 -0.4446  0.4230 -0.1079
  285MOL0     O39251  10.716   6.198   6.724 -1.6020  0.3840 -0.9630
  285MOL0     C39252  10.583   6.187   6.697  0.2235 -0.0924 -0.4611
  285MOL0     C39253  10.535   6.045   6.690 -0.5660 -0.5006  0.0694
  285MOL0     C39254  10.530   5.988   6.839  0.5000 -0.3340 -0.1987
  285MOL0     C39255  10.442   5.861   6.865 -0.6155  0.3792  0.2121
  285MOL0     C39256  10.483   5.794   6.985 -0.2815 -1.2149  0.0327
  285MOL0     C39257  10.534   5.745   7.082 -1.0964 -0.0512 -0.4556
  285MOL0     C39258  10.904   6.343   6.699 -0.0732 -0.1121 -1.1339
  285MOL0     C39259  10.968   6.462   6.675  0.4951 -0.9063  0.1943
  285MOL0     C39260  11.115   6.466   6.670 -0.7330  1.0019  0.9488
  285MOL0     H39261  10.848   7.004   6.763  2.4880 -4.2624 -0.4976
  285MOL0     H39262  10.983   7.221   6.737 -2.3839  1.1038 -0.4859
  285MOL0     H39263  11.078   7.354   6.321 -0.4878  1.1272  0.7851
  285MOL0     H39264  11.223   7.264   6.383  0.3472 -0.4783 -0.0533
  285MOL0     H39265  11.248   7.515   6.289 -0.5326  0.1588  0.4852
  285MOL0     H39266  11.171   7.564   6.444  1.2092 -1.5818  1.9926
  285MOL0     H39267  11.420   7.399   6.413 -0.2858 -0.4361 -0.2572
  285MOL0     H39268  11.428   7.576   6.438  0.8375 -0.6582 -0.1424
  285MOL0     H39269  11.310   7.545   6.661 -0.3708  0.3284 -0.5199
  285MOL0     H39270  11.300   7.373   6.635 -1.9682  1.5700  0.7461
  285MOL0     H39271  11.551   7.540   6.662 -2.0239  2.1442 -0.3119
  285MOL0     H39272  11.541   7.357   6.641 -3.1905 -0.4068 -1.3000
  285MOL0     H39273  11.452   7.545   6.877 -0.7925  1.8643 -3.8951
  285MOL0     H39274  11.401   7.373   6.855  0.9040  0.2296  1.4401
  285MOL0     H39275  11.687   7.489   6.865  1.7039 -1.7498 -1.4346
  285MOL0     H39276  11.632   7.312   6.852 -3.6700  0.7062 -0.4127
  285MOL0     H39277  11.562   7.468   7.094 -0.9710 -0.1216  0.4773
  285MOL0     H39278  11.578   7.291   7.054  1.3332 -0.9097 -0.6253
  285MOL0     H39279  11.832   7.566   7.187 -1.6250  0.0867 -1.6009
  285MOL0     H39280  12.167   7.410   7.214  0.6735 -1.4650 -3.1985
  285MOL0     H39281  12.074   7.570   7.208  0.3471  1.7717 -1.8440
  285MOL0     H39282  12.267   7.549   7.051  0.9165 -1.2263 -2.9413
  285MOL0     H39283  12.198   7.418   6.976  1.2952 -0.2500  0.5452
  285MOL0     H39284  11.980   7.592   6.932 -0.1176  0.5615  0.7467
  285MOL0     H39285  12.099   7.703   6.996  5.8638 -0.8078 -0.4781
  285MOL0     H39286  12.111   7.705   6.754  2.1524  0.3271 -1.6749
  285MOL0     H39287  12.251   7.621   6.821  0.2185  1.9792 -1.8660
  285MOL0     H39288  12.256   7.622   6.559  1.3969 -1.1887 -0.8022
  285MOL0     H39289  12.335   7.576   6.244 -2.7997 -1.8782 -0.1101
  285MOL0     H39290  12.344   7.699   6.368  0.2314 -1.5200 -0.1667
  285MOL0     H39291  12.251   7.740   6.230 -0.0686  1.7777  2.0097
  285MOL0     H39292  11.968   7.772   6.307  0.5460 -1.1523 -0.5206
  285MOL0     H39293  11.755   7.867   6.439 -0.1343 -0.2827  0.7879
  285MOL0     H39294  11.517   7.948   6.491  1.6837 -0.8266 -0.6756
  285MOL0     H39295  11.539   8.006   6.322  2.0107 -1.8001 -0.2179
  285MOL0     H39296  11.281   7.900   6.312  0.5217  1.9527 -2.2474
  285MOL0     H39297  11.281   7.946   6.477  1.3733 -0.9909  0.6034
  285MOL0     H39298  11.349   8.110   6.213  1.2916 -0.5598  0.4651
  285MOL0     H39299  11.370   8.180   6.369 -0.7410  0.9868  0.2147
  285MOL0     H39300  11.118   8.146   6.406  1.1336 -1.0401  0.4419
  285MOL0     H39301  11.118   8.083   6.243 -0.0603 -1.4166  0.4687
  285MOL0     H39302  11.166   8.386   6.348  2.1683 -0.9639  0.0949
  285MOL0     H39303  11.217   8.341   6.189  2.8041 -1.3208  1.6869
  285MOL0     H39304  10.928   8.280   6.262  0.0555 -0.7323 -0.5161
  285MOL0     H39305  11.001   8.359   6.114 -1.5731  0.0069 -0.1459
  285MOL0     H39306  10.891   8.527   6.179  1.5677 -0.8720 -1.3872
  285MOL0     H39307  11.062   8.548   6.254  0.7083 -0.8072  0.8416
  285MOL0     H39308  10.974   8.499   6.465  2.0405  0.6198 -2.8609
  285MOL0     H39309  10.818   8.439   6.398  0.6980 -2.0111  0.7936
  285MOL0     H39310  11.510   7.668   6.147  0.6870 -1.5133  0.4061
  285MOL0     H39311  11.708   7.580   6.031  2.1753  0.3471 -1.3277
  285MOL0     H39312  11.879   7.399   6.333 -0.0444  1.0100 -1.3092
  285MOL0     H39313  11.898   7.384   6.573 -2.2641  0.8435  0.5211
  285MOL0     H39314  11.049   7.133   6.326  1.1814  1.4974  1.0831
  285MOL0     H39315  10.945   6.907   6.362  1.3637 -3.1440  2.8287
  285MOL0     H39316  10.684   6.642   6.629  0.0696  0.3805 -3.0360
  285MOL0     H39317  10.582   6.455   6.702 -0.7993  0.8880  1.5671
  285MOL0     H39318  10.522   6.241   6.770  1.5173 -0.5472  1.0030
  285MOL0     H39319  10.568   6.243   6.603  4.4088  0.5975 -0.9294
  285MOL0     H39320  10.603   5.980   6.635  2.4204  2.5396 -0.1669
  285MOL0     H39321  10.433   6.042   6.651 -0.8059  0.1232  0.6303
  285MOL0     H39322  10.631   5.947   6.848  1.7410  2.1745 -1.6702
  285MOL0     H39323  10.504   6.067   6.910 -1.3324 -0.7756 -0.3118
  285MOL0     H39324  10.472   5.787   6.791  0.2107 -0.4821  1.3741
  285MOL0     H39325  10.333   5.877   6.861 -0.5602  0.5790 -0.9829
  285MOL0     H39326  10.592   5.697   7.158  0.9398  2.6148 -0.1849
  285MOL0     H39327  10.967   6.256   6.717  0.5305  0.7204  1.2904
  285MOL0     H39328  11.158   6.369   6.646  1.2393  2.6418 -3.0997
  285MOL0     H39329  11.148   6.534   6.591 -1.2110  0.8444  0.6124
  285MOL0     H39330  11.159   6.499   6.764  3.0322  1.2289 -0.7262
  286MOL0     O39331   0.902   5.768   0.627  0.5121 -0.0648 -0.6029
  286MOL0     C39332   0.934   5.694   0.538 -0.3064  0.2405  1.1332
  286MOL0     O39333   1.061   5.688   0.485 -0.4282 -0.0479 -0.1913
  286MOL0     C39334   1.158   5.760   0.552  0.4085 -0.9087 -1.0649
  286MOL0     C39335   1.206   5.717   0.680 -0.9987  1.2672 -0.2897
  286MOL0     C39336   1.294   5.801   0.745 -0.8794  0.7025 -0.8871
  286MOL0     C39337   1.351   5.920   0.678 -0.2864  0.2454 -0.2678
  286MOL0     O39338   1.440   5.993   0.754  0.4590 -0.6299  0.1614
  286MOL0     C39339   1.476   6.124   0.721 -1.1604  0.0477 -0.0917
  286MOL0     C39340   1.588   6.173   0.823  0.7786  1.0731 -0.3163
  286MOL0     C39341   1.690   6.274   0.747 -0.2606  0.4983 -1.6465
  286MOL0     C39342   1.819   6.263   0.825 -0.3035 -0.1376 -0.7621
  286MOL0     C39343   1.940   6.257   0.729  0.4079 -0.0942  0.7282
  286MOL0     C39344   2.070   6.277   0.798 -0.7433 -0.0179 -0.8236
  286MOL0     C39345   2.197   6.275   0.708  0.7624  0.6086 -0.0891
  286MOL0     C39346   2.198   6.418   0.644 -1.3507 -0.1045 -0.4631
  286MOL0     N39347   2.194   6.526   0.742  0.2642 -0.5803 -0.0071
  286MOL0     C39348   2.270   6.545   0.847 -0.6792  0.4493  0.7286
  286MOL0     C39349   2.227   6.661   0.910  0.9605  0.3686 -0.3245
  286MOL0     C39350   2.264   6.729   1.039 -0.0230  0.0867  0.1576
  286MOL0     C39351   2.134   6.767   1.116  0.0339 -0.0610 -0.3647
  286MOL0     C39352   2.039   6.646   1.146 -0.3599 -0.3691 -0.0419
  286MOL0     C39353   1.938   6.682   1.251 -0.2848  1.0836  0.2250
  286MOL0     O39354   1.843   6.772   1.187  0.5048  0.2604 -0.1259
  286MOL0     C39355   1.730   6.714   1.129 -0.7394 -0.4038  0.3877
  286MOL0     C39356   1.652   6.803   1.064 -0.0246 -0.0554 -0.3111
  286MOL0     C39357   1.536   6.768   0.995 -0.7174  0.0245  0.4375
  286MOL0     C39358   1.455   6.879   0.941 -0.2998  0.5535 -0.7857
  286MOL0     C39359   1.510   6.631   0.966 -0.8700  0.4937 -0.1918
  286MOL0     C39360   1.395   6.581   0.890  0.6433  1.0316  0.0803
  286MOL0     O39361   1.337   6.468   0.929 -0.0922  0.1433 -0.5047
  286MOL0     C39362   1.216   6.431   0.872 -0.3361  0.6794 -0.5200
  286MOL0     C39363   1.116   6.522   0.812 -0.9207  0.2831 -0.1442
  286MOL0     C39364   0.995   6.464   0.774 -0.2074 -0.4862 -0.2491
  286MOL0     C39365   0.962   6.332   0.784 -0.2880 -0.7513  0.2888
  286MOL0     O39366   0.834   6.297   0.754 -0.6307  0.0086 -1.1171
  286MOL0     C39367   0.770   6.203   0.849 -0.3490 -0.2623  0.2522
  286MOL0     C39368   0.625   6.188   0.808 -0.1464 -0.3279 -0.0614
  286MOL0     C39369   0.561   6.091   0.902 -0.3170  0.2641 -0.5489
  286MOL0     C39370   0.433   6.035   0.827 -0.0274  0.4632 -0.8366
  286MOL0     C39371   0.350   5.949   0.923 -0.0295  0.0381  0.3469
  286MOL0     C39372   0.243   5.871   0.853 -0.0867 -0.5347 -0.0343
  286MOL0     C39373   0.138   5.958   0.791 -0.5669  0.4343  0.5838
  286MOL0     C39374   0.047   5.879   0.700 -0.1471  0.4842  0.4408
  286MOL0    Cl39375  -0.066   5.773   0.789 -0.1220 -0.2900  0.1317
  286MOL0     C39376   1.069   6.250   0.832  0.3273 -0.3642 -0.4199
  286MOL0     C39377   1.188   6.297   0.876 -0.3738 -0.8521 -0.0912
  286MOL0     O39378   1.369   6.640   0.788 -0.8596  0.8668  0.1283
  286MOL0     C39379   1.599   6.542   1.035  0.7439 -1.1461 -0.2669
  286MOL0     C39380   1.709   6.581   1.110 -0.1888  0.8385  0.4992
  286MOL0     N39381   2.121   6.704   0.835 -1.7330 -1.1684 -0.4844
  286MOL0     N39382   2.097   6.619   0.742 -0.1170 -0.3985 -0.6661
  286MOL0     C39383   1.296   5.960   0.550  0.1438 -0.0442 -0.8357
  286MOL0     C39384   1.202   5.872   0.490  0.3155 -0.0772 -0.3615
  286MOL0     C39385   0.836   5.596   0.484  0.8147  1.3806 -1.0630
  286MOL0     C39386   0.867   5.501   0.387  0.3928 -0.4346 -0.9109
  286MOL0     C39387   0.766   5.416   0.338  0.2004  0.6173  1.0031
  286MOL0     C39388   0.636   5.413   0.370  1.2673 -0.7680  0.6663
  286MOL0     O39389   0.552   5.339   0.293  0.4486 -0.1735 -0.9895
  286MOL0     C39390   0.420   5.302   0.356  1.0850 -0.5893  0.3796
  286MOL0     C39391   0.386   5.158   0.311 -0.8382 -0.0968  0.6258
  286MOL0     C39392   0.491   5.052   0.364 -0.2426 -0.8428  0.5784
  286MOL0     C39393   0.593   5.026   0.256  0.4097 -0.5795  0.7663
  286MOL0     C39394   0.661   4.902   0.288 -0.2610 -0.2696  0.2172
  286MOL0     C39395   0.730   4.804   0.307 -0.1325 -0.9875 -0.2067
  286MOL0     C39396   0.595   5.509   0.463 -0.1286  0.3008 -0.1802
  286MOL0     C39397   0.689   5.600   0.512 -0.5516 -0.1651 -0.0359
  286MOL0     C39398   0.624   5.707   0.603  0.4423 -0.5210 -0.0545
  286MOL0     H39399   1.163   5.628   0.724 -1.7326  1.4909 -0.5308
  286MOL0     H39400   1.318   5.772   0.846  0.2641 -2.1929 -1.9097
  286MOL0     H39401   1.383   6.180   0.705 -2.1550 -1.4483  0.2193
  286MOL0     H39402   1.528   6.109   0.626 -1.0656 -4.4285  0.4778
  286MOL0     H39403   1.542   6.223   0.909  0.4435 -0.2185  0.2747
  286MOL0     H39404   1.639   6.080   0.850 -2.7384 -1.2145 -1.0052
  286MOL0     H39405   1.716   6.245   0.645 -0.3029 -0.1045 -1.4883
  286MOL0     H39406   1.652   6.375   0.732  1.2287  0.7848 -3.7440
  286MOL0     H39407   1.823   6.352   0.887 -2.3041  0.3881 -1.3325
  286MOL0     H39408   1.827   6.177   0.892  1.8637  0.2821 -0.4003
  286MOL0     H39409   1.930   6.341   0.660 -0.3417 -4.2948 -4.9157
  286MOL0     H39410   1.941   6.173   0.660  0.5107 -0.6488  1.3868
  286MOL0     H39411   2.065   6.369   0.856  0.0352 -0.0590 -0.6785
  286MOL0     H39412   2.076   6.193   0.869 -0.8338 -1.1498 -2.1007
  286MOL0     H39413   2.187   6.194   0.635  0.0532  1.7129 -1.2726
  286MOL0     H39414   2.285   6.255   0.768  1.8393  0.5150 -1.6398
  286MOL0     H39415   2.284   6.430   0.577 -1.7296 -0.3771 -1.0103
  286MOL0     H39416   2.104   6.427   0.590 -0.1146 -0.1098 -2.7709
  286MOL0     H39417   2.353   6.483   0.876 -0.9933 -0.2196  0.2274
  286MOL0     H39418   2.326   6.817   1.022  0.0405 -0.0348 -0.2621
  286MOL0     H39419   2.324   6.652   1.089 -3.4799 -1.4466  2.2899
  286MOL0     H39420   2.153   6.818   1.211 -2.3751 -0.8347  0.6079
  286MOL0     H39421   2.078   6.840   1.058 -2.0936 -1.1598  0.2023
  286MOL0     H39422   1.993   6.604   1.056  2.3031 -0.3036 -1.5613
  286MOL0     H39423   2.109   6.568   1.178  2.3782  1.9111 -0.1232
  286MOL0     H39424   1.890   6.597   1.299  0.4558  1.3804  1.5454
  286MOL0     H39425   1.985   6.737   1.333  0.7742 -1.5476  1.4683
  286MOL0     H39426   1.666   6.909   1.082 -2.0830 -0.1040  2.2253
  286MOL0     H39427   1.350   6.854   0.952 -0.2834  0.8584  0.1288
  286MOL0     H39428   1.485   6.909   0.840  0.6299  3.2011  0.1870
  286MOL0     H39429   1.464   6.974   0.995  3.0518 -0.3723  0.5623
  286MOL0     H39430   1.130   6.629   0.807 -1.1707  0.5676  3.1450
  286MOL0     H39431   0.915   6.534   0.751 -0.7221 -1.0210 -0.0919
  286MOL0     H39432   0.821   6.107   0.837 -0.4349 -0.3573  0.6127
  286MOL0     H39433   0.783   6.239   0.952  1.4739  1.7527 -0.6031
  286MOL0     H39434   0.589   6.289   0.824  2.2641  0.3742  1.5168
  286MOL0     H39435   0.611   6.153   0.705 -0.9979  0.3793 -0.1940
  286MOL0     H39436   0.522   6.136   0.994  2.7858  2.0509  0.0221
  286MOL0     H39437   0.624   6.005   0.926  0.0021  1.0778  1.8527
  286MOL0     H39438   0.461   5.973   0.742  1.2371  2.4025 -1.9054
  286MOL0     H39439   0.378   6.123   0.792  2.4803  1.7349 -1.8172
  286MOL0     H39440   0.418   5.879   0.972  0.8496  0.1950 -0.6195
  286MOL0     H39441   0.307   6.015   0.999 -0.6322 -1.1231  1.0548
  286MOL0     H39442   0.197   5.801   0.924  1.2978 -0.8158  0.6218
  286MOL0     H39443   0.295   5.807   0.781 -3.2993 -1.2973 -1.8649
  286MOL0     H39444   0.181   6.041   0.733 -1.7298  0.0698 -0.8540
  286MOL0     H39445   0.087   6.009   0.873  1.9555  2.9221  0.7454
  286MOL0     H39446   0.106   5.807   0.641 -0.5461 -0.5306  1.2458
  286MOL0     H39447  -0.003   5.960   0.645  2.8890  1.5405 -1.0045
  286MOL0     H39448   1.052   6.146   0.858 -1.6507  0.8776  4.4512
  286MOL0     H39449   1.266   6.232   0.915 -0.3474  0.7375  2.7671
  286MOL0     H39450   1.595   6.434   1.045  0.0418 -1.1737 -0.7450
  286MOL0     H39451   1.767   6.498   1.150 -0.0194 -0.8731 -2.9383
  286MOL0     H39452   1.327   6.060   0.519 -1.8449  1.0690  0.5957
  286MOL0     H39453   1.156   5.901   0.397 -1.2196  0.3326  0.4855
  286MOL0     H39454   0.973   5.483   0.372  0.5353  0.7422 -1.4699
  286MOL0     H39455   0.798   5.346   0.261 -3.8410  1.7208 -2.0336
  286MOL0     H39456   0.425   5.299   0.466  0.0380 -4.2283  0.4520
  286MOL0     H39457   0.340   5.372   0.330  1.4167  0.2549  1.5405
  286MOL0     H39458   0.386   5.153   0.201  0.8984 -0.7023  0.6107
  286MOL0     H39459   0.284   5.132   0.339 -1.2500 -0.1641 -0.8261
  286MOL0     H39460   0.543   5.095   0.450 -1.4386  2.0820 -0.0418
  286MOL0     H39461   0.434   4.963   0.393  0.7247 -1.4333  0.7176
  286MOL0     H39462   0.666   5.108   0.259 -2.0656  1.7145  2.4878
  286MOL0     H39463   0.557   5.037   0.153  0.0989 -1.1310  0.8113
  286MOL0     H39464   0.789   4.716   0.322 -0.7926 -1.4411 -0.1907
  286MOL0     H39465   0.496   5.526   0.503 -0.0201  2.2202 -0.6320
  286MOL0     H39466   0.515   5.707   0.603  0.4084 -2.4047 -0.0706
  286MOL0     H39467   0.658   5.700   0.707  0.8484 -2.6827 -0.2912
  286MOL0     H39468   0.642   5.810   0.571 -0.6975 -0.4396 -0.4873
  287MOL0     O39469   9.463  10.046   5.344  0.6068 -0.5097 -0.2865
  287MOL0     C39470   9.353  10.066   5.396 -0.0409  0.8038  0.3206
  287MOL0     O39471   9.297  10.179   5.421  0.6945 -0.6947  0.5902
  287MOL0     C39472   9.341  10.292   5.355 -0.7719 -0.3270  0.3827
  287MOL0     C39473   9.303  10.335   5.232 -0.0107 -1.1640  0.4370
  287MOL0     C39474   9.337  10.466   5.181  0.0184 -0.4269 -1.0446
  287MOL0     C39475   9.425  10.546   5.250 -0.4837  0.2291 -0.2779
  287MOL0     O39476   9.468  10.664   5.204  0.6112  0.0351  0.0231
  287MOL0     C39477   9.476  10.682   5.069 -0.1876 -0.5368  0.5135
  287MOL0     C39478   9.525  10.833   5.036  0.9169 -0.1949 -0.1593
  287MOL0     C39479   9.550  10.859   4.888 -0.6999  0.1728  0.0320
  287MOL0     C39480   9.531  11.003   4.850 -0.5469  0.4393  0.0916
  287MOL0     C39481   9.476  11.022   4.713 -0.6387 -0.3934 -0.2627
  287MOL0     C39482   9.403  11.157   4.695  0.9047 -0.5115 -0.0260
  287MOL0     C39483   9.356  11.183   4.552 -0.3125  0.6772  0.9265
  287MOL0     C39484   9.253  11.302   4.541  0.1795 -0.3568 -0.0725
  287MOL0     N39485   9.226  11.319   4.393  0.0890 -0.6325  0.4448
  287MOL0     C39486   9.272  11.418   4.310 -0.0113 -1.0774 -0.4633
  287MOL0     C39487   9.195  11.423   4.198 -0.6651  1.1538  0.2753
  287MOL0     C39488   9.186  11.529   4.087 -0.0487 -0.3057  0.2193
  287MOL0     C39489   9.275  11.493   3.973  0.0816 -0.5176  0.0127
  287MOL0     C39490   9.272  11.348   3.922  0.5095  0.5400  0.5786
  287MOL0     C39491   9.324  11.334   3.777  0.4035  0.5606  0.3833
  287MOL0     O39492   9.248  11.429   3.688  0.5191 -0.7556  0.1081
  287MOL0     C39493   9.220  11.382   3.563 -0.2323 -0.2863 -0.1702
  287MOL0     C39494   9.094  11.367   3.517 -0.5972 -0.7823 -0.1073
  287MOL0     C39495   9.072  11.318   3.384 -0.1974 -0.7901  0.0254
  287MOL0     C39496   8.931  11.287   3.357  0.4169 -0.1095  0.3290
  287MOL0     C39497   9.184  11.289   3.294 -0.5548 -0.2651 -0.6218
  287MOL0     C39498   9.169  11.260   3.149 -0.1995  1.2680 -0.4320
  287MOL0     O39499   9.053  11.226   3.109 -0.6394  0.8159 -0.3409
  287MOL0     C39500   9.039  11.174   2.980  0.6671  0.0843  0.6230
  287MOL0     C39501   9.113  11.074   2.920  1.1797  0.1394  0.0102
  287MOL0     C39502   9.101  11.023   2.792 -0.3439  0.3542  0.1334
  287MOL0     C39503   8.998  11.080   2.711  0.7133  0.2023 -0.1239
  287MOL0     O39504   8.991  11.037   2.580 -0.3734  0.0949 -0.5058
  287MOL0     C39505   8.876  10.962   2.545 -0.5889  0.0949 -0.2784
  287MOL0     C39506   8.900  10.807   2.591  0.1231  0.2393 -0.8047
  287MOL0     C39507   8.803  10.702   2.520  0.2223 -0.7990 -0.3620
  287MOL0     C39508   8.855  10.563   2.554 -0.4187  0.3023  0.3568
  287MOL0     C39509   8.751  10.461   2.513 -0.2249  0.6857 -0.6234
  287MOL0     C39510   8.777  10.320   2.566 -0.6809  0.0137  0.2168
  287MOL0     C39511   8.923  10.260   2.528 -0.2027 -0.7627 -0.4772
  287MOL0     C39512   8.951  10.133   2.609  1.0844  0.2198 -0.2529
  287MOL0    Cl39513   8.856  10.006   2.523 -0.1159 -0.3786  0.2995
  287MOL0     C39514   8.913  11.180   2.774  0.7727 -0.7697  0.6542
  287MOL0     C39515   8.933  11.226   2.905 -0.1313  0.4018  0.7748
  287MOL0     O39516   9.270  11.271   3.083 -0.1005  0.3559 -0.7642
  287MOL0     C39517   9.312  11.298   3.353 -0.1687  0.2907  0.0162
  287MOL0     C39518   9.327  11.353   3.482 -0.6894  1.2205  1.1259
  287MOL0     N39519   9.119  11.312   4.204  1.0036  0.0782  0.1111
  287MOL0     N39520   9.135  11.254   4.316  0.1402 -0.8372 -0.1261
  287MOL0     C39521   9.481  10.500   5.378 -0.5620  0.9976  0.3164
  287MOL0     C39522   9.429  10.374   5.429  0.5784 -0.1631 -0.3654
  287MOL0     C39523   9.285   9.940   5.442  0.1619  0.0495 -1.0366
  287MOL0     C39524   9.369   9.826   5.471 -0.9140 -0.0533  0.8636
  287MOL0     C39525   9.309   9.710   5.514 -0.3328 -0.0387  0.1429
  287MOL0     C39526   9.175   9.701   5.550 -0.1958 -0.5208 -0.1042
  287MOL0     O39527   9.138   9.579   5.600  0.2706  0.0022 -0.1633
  287MOL0     C39528   9.027   9.579   5.696  0.0974  0.1811  0.3549
  287MOL0     C39529   9.108   9.521   5.819  0.2804 -0.4871 -0.5068
  287MOL0     C39530   9.006   9.496   5.936 -0.2297 -0.1332 -0.5539
  287MOL0     C39531   8.993   9.633   6.014  0.4278  0.4326  0.8094
  287MOL0     C39532   8.906   9.619   6.130 -0.4305  0.4591  0.9159
  287MOL0     C39533   8.842   9.610   6.229  0.7130  0.1906 -0.3397
  287MOL0     C39534   9.101   9.819   5.538  0.3175 -0.4581 -0.4049
  287MOL0     C39535   9.153   9.927   5.479  0.0023 -0.6266 -0.9861
  287MOL0     C39536   9.049  10.036   5.462  0.3039 -0.3224 -0.2532
  287MOL0     H39537   9.246  10.262   5.177 -2.5002 -0.4169  1.8469
  287MOL0     H39538   9.299  10.492   5.082 -0.7410 -0.8061 -0.8620
  287MOL0     H39539   9.372  10.673   5.038  0.3211 -4.6968 -0.5142
  287MOL0     H39540   9.536  10.608   5.015 -2.1420 -2.1589  0.4569
  287MOL0     H39541   9.444  10.896   5.074  2.3278  1.2643  0.5759
  287MOL0     H39542   9.622  10.848   5.084 -0.1431  1.2051  1.6795
  287MOL0     H39543   9.649  10.829   4.853 -1.1410 -3.5650  1.5233
  287MOL0     H39544   9.489  10.796   4.823 -0.4260  0.1323 -0.1875
  287MOL0     H39545   9.455  11.043   4.917  1.2950  0.1627  2.4664
  287MOL0     H39546   9.619  11.065   4.862 -1.3040  1.4238  0.6686
  287MOL0     H39547   9.401  10.944   4.701 -1.3044  0.5379 -3.0359
  287MOL0     H39548   9.560  11.006   4.645  2.7305  0.9496  3.2234
  287MOL0     H39549   9.327  11.165   4.773  1.4898 -2.0902  0.7405
  287MOL0     H39550   9.466  11.245   4.716 -0.1929  1.2488 -3.3926
  287MOL0     H39551   9.314  11.093   4.508  2.5977 -1.3322  1.9741
  287MOL0     H39552   9.448  11.206   4.499  0.1825 -2.2854  0.3322
  287MOL0     H39553   9.161  11.281   4.598 -0.9344 -0.4540 -1.8317
  287MOL0     H39554   9.301  11.389   4.587  0.0546  0.0507 -0.7063
  287MOL0     H39555   9.339  11.499   4.335 -0.7705 -0.3414 -0.7676
  287MOL0     H39556   9.193  11.629   4.130 -1.0887  0.2323 -0.8253
  287MOL0     H39557   9.085  11.529   4.045  0.1565 -1.6676 -0.3508
  287MOL0     H39558   9.249  11.557   3.888  0.4062  1.5994  1.4296
  287MOL0     H39559   9.377  11.511   4.009 -0.6203 -0.3328  2.0617
  287MOL0     H39560   9.315  11.281   3.997  2.2500  0.7247 -0.2093
  287MOL0     H39561   9.166  11.320   3.919  0.3453  1.1889 -0.0703
  287MOL0     H39562   9.431  11.354   3.776  0.7618 -1.1729 -0.6013
  287MOL0     H39563   9.315  11.229   3.747  1.4069  0.5176  0.2094
  287MOL0     H39564   9.017  11.405   3.583 -0.4685 -1.5515  0.5034
  287MOL0     H39565   8.912  11.182   3.378 -1.6782  0.5416  2.0366
  287MOL0     H39566   8.898  11.312   3.256  0.0522  0.3168  0.5490
  287MOL0     H39567   8.861  11.345   3.417 -0.9111 -1.1670 -0.1553
  287MOL0     H39568   9.197  11.034   2.976  2.0296  0.9049 -0.6694
  287MOL0     H39569   9.178  10.965   2.742 -0.6600  1.8383 -2.2446
  287MOL0     H39570   8.778  10.994   2.580  0.1254  0.1183  1.8444
  287MOL0     H39571   8.868  10.967   2.436 -0.2382 -0.7154 -0.3439
  287MOL0     H39572   9.001  10.771   2.572  0.1346 -1.6149  2.0780
  287MOL0     H39573   8.880  10.802   2.699 -0.2404 -0.6541 -0.9043
  287MOL0     H39574   8.794  10.722   2.413  1.0338  2.9804  0.1269
  287MOL0     H39575   8.707  10.727   2.566  0.4288  2.9500 -1.5985
  287MOL0     H39576   8.860  10.551   2.662 -0.5783 -5.0423  0.0385
  287MOL0     H39577   8.957  10.549   2.516 -0.3256  0.2909  0.6078
  287MOL0     H39578   8.652  10.482   2.553  1.1123  1.8632  2.3687
  287MOL0     H39579   8.741  10.447   2.405  0.9160  1.0446 -0.7873
  287MOL0     H39580   8.701  10.255   2.522 -2.3384  1.1482  1.2738
  287MOL0     H39581   8.767  10.319   2.675  0.7320  1.5693  0.3987
  287MOL0     H39582   9.007  10.320   2.565  1.0955 -1.7011 -1.7967
  287MOL0     H39583   8.943  10.249   2.421 -1.5413 -1.0401 -0.7261
  287MOL0     H39584   8.908  10.150   2.709 -0.9703  1.6332 -1.2984
  287MOL0     H39585   9.057  10.108   2.605  1.2199  0.9487 -2.3837
  287MOL0     H39586   8.820  11.210   2.727  0.9909 -0.7751  0.2118
  287MOL0     H39587   8.861  11.291   2.954  0.6478  1.7475  0.1663
  287MOL0     H39588   9.398  11.273   3.292 -0.0020 -0.8658  0.6910
  287MOL0     H39589   9.432  11.367   3.505  0.2403  1.7385 -2.8098
  287MOL0     H39590   9.553  10.553   5.439  1.9780 -1.1763 -0.5726
  287MOL0     H39591   9.437  10.356   5.535 -0.4693 -0.3221 -0.2978
  287MOL0     H39592   9.474   9.829   5.446 -1.0861 -3.7811 -0.8639
  287MOL0     H39593   9.370   9.621   5.520  1.3597  0.8055 -2.5822
  287MOL0     H39594   8.988   9.678   5.718 -1.7625 -1.0173  3.0064
  287MOL0     H39595   8.950   9.517   5.650  0.2441  0.4512 -0.2697
  287MOL0     H39596   9.183   9.597   5.841  0.4874 -0.4230 -1.3811
  287MOL0     H39597   9.163   9.431   5.791  1.0866 -0.0679 -0.2735
  287MOL0     H39598   8.914   9.450   5.897  0.2720 -2.1315  0.4330
  287MOL0     H39599   9.043   9.421   6.007  0.7136 -0.7162 -1.6234
  287MOL0     H39600   8.949   9.714   5.954 -1.8115 -1.5436 -0.3683
  287MOL0     H39601   9.090   9.665   6.053 -1.2917  2.7457  3.5255
  287MOL0     H39602   8.789   9.583   6.318 -0.1965  1.8350 -0.3440
  287MOL0     H39603   8.993   9.818   5.554  0.4942  0.8479  1.1643
  287MOL0     H39604   8.946  10.001   5.456  1.0140 -2.3388 -2.1173
  287MOL0     H39605   9.057  10.125   5.524 -1.9988  0.2583 -0.7244
  287MOL0     H39606   9.064  10.081   5.364 -0.3808  0.5285  0.0280
  288MOL0     O39607   2.575   0.516  10.494  0.0591  0.1896  0.5713
  288MOL0     C39608   2.696   0.506  10.507 -0.1820 -0.7471 -0.5282
  288MOL0     O39609   2.762   0.435  10.606  0.9966 -0.3561 -0.6699
  288MOL0     C39610   2.686   0.373  10.704  0.3078  0.6234 -0.5803
  288MOL0     C39611   2.669   0.236  10.708 -0.9789 -0.6073 -0.2485
  288MOL0     C39612   2.609   0.176  10.815  0.6561  0.8147  0.3827
  288MOL0     C39613   2.549   0.255  10.914 -0.6072  0.6483  0.4167
  288MOL0     O39614   2.492   0.176  11.015 -0.3678 -0.9371  0.0705
  288MOL0     C39615   2.413   0.240  11.115 -0.3079  0.4511 -0.0499
  288MOL0     C39616   2.505   0.304  11.218 -0.9521 -0.1645 -0.5573
  288MOL0     C39617   2.446   0.400  11.315  0.0245 -0.1871  1.1294
  288MOL0     C39618   2.537   0.434  11.426  0.3649 -0.1674  0.3496
  288MOL0     C39619   2.462   0.488  11.548  0.6856  0.4581 -0.2400
  288MOL0     C39620   2.358   0.600  11.520 -0.3050  0.3222  0.3070
  288MOL0     C39621   2.272   0.640  11.636 -0.5970 -0.4052  0.1298
  288MOL0     C39622   2.175   0.757  11.610  1.1233  0.5330  0.1649
  288MOL0     N39623   2.087   0.775  11.731 -0.0228  0.1734  0.0562
  288MOL0     C39624   1.992   0.683  11.771 -0.1826 -0.5354  0.0655
  288MOL0     C39625   1.950   0.728  11.897  0.6800  0.1341  0.4347
  288MOL0     C39626   1.837   0.663  11.973 -0.3413  1.0744 -0.4319
  288MOL0     C39627   1.893   0.567  12.082 -0.4123  1.0345  0.1100
  288MOL0     C39628   1.912   0.648  12.205  0.4397 -0.5409  0.3672
  288MOL0     C39629   1.989   0.571  12.307  0.2103  0.1386 -0.4196
  288MOL0     O39630   2.002   0.653  12.420  0.6024  0.4593  0.0174
  288MOL0     C39631   2.116   0.731  12.449 -0.0803  0.2350 -0.1999
  288MOL0     C39632   2.233   0.751  12.378 -0.1314  0.8287  0.1882
  288MOL0     C39633   2.339   0.819  12.433 -0.0427  0.4418 -0.6385
  288MOL0     C39634   2.465   0.821  12.348 -0.8678  0.4676 -0.5523
  288MOL0     C39635   2.326   0.877  12.563 -0.3560  0.0517  0.2063
  288MOL0     C39636   2.439   0.952  12.628 -0.7780 -0.0648  0.9426
  288MOL0     O39637   2.524   1.011  12.539  0.9723 -0.2171 -0.3008
  288MOL0     C39638   2.636   1.082  12.578  0.3257 -0.8115 -0.4163
  288MOL0     C39639   2.708   1.069  12.699  0.0002  0.5560  0.1816
  288MOL0     C39640   2.825   1.146  12.716 -0.1086 -0.3904  0.8672
  288MOL0     C39641   2.869   1.236  12.613 -0.0294 -0.3674  0.1413
  288MOL0     O39642   2.993   1.303  12.611  0.1737  0.2544 -0.0374
  288MOL0     C39643   3.073   1.307  12.723 -0.0540  1.0415 -0.3596
  288MOL0     C39644   3.024   1.391  12.838 -0.4081 -0.5710  0.2246
  288MOL0     C39645   3.068   1.537  12.829 -0.5022  0.2803  0.3997
  288MOL0     C39646   3.033   1.615  12.953  1.5062  0.9563 -0.2860
  288MOL0     C39647   3.138   1.725  12.973 -0.9656 -1.2559 -0.7407
  288MOL0     C39648   3.289   1.671  12.999 -0.0421 -1.1188  0.5086
  288MOL0     C39649   3.311   1.586  13.123  0.1798  0.1996  0.1239
  288MOL0     C39650   3.316   1.676  13.247  0.0674 -0.0876  0.5364
  288MOL0    Cl39651   3.155   1.740  13.305  0.5493  0.3311 -0.0077
  288MOL0     C39652   2.801   1.249  12.501  0.0601 -0.2956 -0.3099
  288MOL0     C39653   2.691   1.166  12.482  1.0730 -0.3300 -0.3296
  288MOL0     O39654   2.455   0.950  12.746  0.2647 -0.8262  0.0574
  288MOL0     C39655   2.204   0.867  12.628 -1.0165 -0.0810 -0.7742
  288MOL0     C39656   2.098   0.789  12.573  0.8439 -0.0445 -0.1239
  288MOL0     N39657   2.024   0.842  11.930  0.5459 -0.5607  0.4702
  288MOL0     N39658   2.106   0.865  11.832 -0.7983  0.8984 -0.0584
  288MOL0     C39659   2.551   0.389  10.905  0.5535 -0.1121  0.2844
  288MOL0     C39660   2.614   0.450  10.796  0.2479  0.3710 -0.3112
  288MOL0     C39661   2.795   0.574  10.410 -0.2141  0.5668  0.8049
  288MOL0     C39662   2.930   0.537  10.421  0.4353  0.1846  0.3439
  288MOL0     C39663   3.027   0.582  10.334  1.1662  0.1231 -0.4065
  288MOL0     C39664   2.994   0.678  10.239 -0.9395  0.4336 -0.4979
  288MOL0     O39665   3.088   0.740  10.164 -0.7251 -0.2270 -0.0520
  288MOL0     C39666   3.154   0.659  10.064 -0.2470  0.2105 -0.3089
  288MOL0     C39667   3.237   0.747   9.968  0.3671 -0.0820  0.3935
  288MOL0     C39668   3.149   0.859   9.904  0.5676  0.3643 -0.1857
  288MOL0     C39669   3.214   0.961   9.810  0.0907 -0.3954 -0.0952
  288MOL0     C39670   3.333   1.020   9.875 -0.3305  0.4236  0.6096
  288MOL0     C39671   3.438   1.066   9.912  0.3269 -0.6103 -0.1139
  288MOL0     C39672   2.861   0.725  10.237 -0.6800 -0.8604 -0.4197
  288MOL0     C39673   2.764   0.675  10.322  0.9219  0.6144  0.3343
  288MOL0     C39674   2.624   0.730  10.297  0.4707 -0.3597  0.7090
  288MOL0     H39675   2.709   0.169  10.632  0.3985 -0.0415 -0.0537
  288MOL0     H39676   2.591   0.070  10.824 -1.2073  1.0878  0.2872
  288MOL0     H39677   2.346   0.162  11.153 -1.8074  1.0135 -1.4088
  288MOL0     H39678   2.351   0.312  11.061 -0.7780 -0.4158 -0.6983
  288MOL0     H39679   2.541   0.219  11.277 -0.8444 -0.2779 -0.7876
  288MOL0     H39680   2.584   0.356  11.164 -0.1560 -0.7695  0.0068
  288MOL0     H39681   2.417   0.496  11.270  1.7404  0.7837  1.9582
  288MOL0     H39682   2.354   0.353  11.349  0.6005 -0.6908  2.0394
  288MOL0     H39683   2.577   0.341  11.467  1.3347  1.5069  3.6359
  288MOL0     H39684   2.630   0.481  11.394 -0.2623 -1.4461 -3.8960
  288MOL0     H39685   2.523   0.517  11.635 -0.2387 -0.0304  0.5862
  288MOL0     H39686   2.401   0.403  11.581 -0.7476  1.8799  0.9367
  288MOL0     H39687   2.422   0.680  11.482 -0.0346 -0.5933 -1.2347
  288MOL0     H39688   2.285   0.568  11.446  0.3099  1.1369 -0.6856
  288MOL0     H39689   2.335   0.652  11.724 -1.9180 -2.1974  1.3873
  288MOL0     H39690   2.209   0.555  11.665  0.6535 -1.5657 -0.4867
  288MOL0     H39691   2.216   0.856  11.587 -0.3775  0.2187 -5.4531
  288MOL0     H39692   2.110   0.740  11.524  0.0386  0.9984  0.8767
  288MOL0     H39693   1.958   0.591  11.726  1.9105 -0.6073 -1.5292
  288MOL0     H39694   1.779   0.607  11.899  0.3010  3.7244 -3.1719
  288MOL0     H39695   1.776   0.745  12.012 -0.0180  1.8455 -1.5095
  288MOL0     H39696   1.825   0.485  12.105  0.3966  0.3862  0.2556
  288MOL0     H39697   1.982   0.510  12.054 -1.3835 -1.1276  1.2173
  288MOL0     H39698   1.971   0.738  12.184  1.5585 -0.5406  3.0905
  288MOL0     H39699   1.817   0.679  12.251  0.8071 -1.8394  2.1029
  288MOL0     H39700   1.940   0.477  12.331  1.0719 -0.2543 -0.1704
  288MOL0     H39701   2.084   0.555  12.256  0.3108  0.2216 -0.2587
  288MOL0     H39702   2.247   0.714  12.278  1.0633  0.6061  0.4219
  288MOL0     H39703   2.477   0.917  12.297 -2.1573 -0.1425 -2.0687
  288MOL0     H39704   2.457   0.748  12.267 -0.0200 -2.3931  1.7405
  288MOL0     H39705   2.552   0.791  12.408 -1.1682 -2.4380 -1.4055
  288MOL0     H39706   2.666   1.017  12.785 -0.6937  0.6657 -0.0925
  288MOL0     H39707   2.883   1.142  12.808  3.0453  1.3623 -0.8797
  288MOL0     H39708   3.073   1.206  12.765 -1.2975  1.1967  0.0570
  288MOL0     H39709   3.174   1.332  12.689  0.4238  1.0023  0.9772
  288MOL0     H39710   2.916   1.388  12.850 -0.4290 -1.2418 -0.1083
  288MOL0     H39711   3.067   1.361  12.934  2.8233  4.2338  0.6905
  288MOL0     H39712   3.036   1.587  12.737 -0.3011 -1.5976 -0.7477
  288MOL0     H39713   3.175   1.518  12.818 -0.6125  0.4122 -1.1279
  288MOL0     H39714   3.012   1.549  13.038 -3.0848  1.9920 -0.3702
  288MOL0     H39715   2.939   1.669  12.939  0.2882 -0.8424  0.6018
  288MOL0     H39716   3.131   1.794  12.888 -5.4887 -3.3864 -2.4666
  288MOL0     H39717   3.105   1.788  13.057  0.2583  2.1953 -2.6505
  288MOL0     H39718   3.351   1.755  13.028 -2.8859  0.9605  1.0477
  288MOL0     H39719   3.340   1.640  12.908  0.3086 -3.0401  1.3141
  288MOL0     H39720   3.405   1.532  13.113  0.4518  0.7289 -0.2321
  288MOL0     H39721   3.229   1.516  13.139  0.8571  0.0670  3.8260
  288MOL0     H39722   3.380   1.761  13.225  0.4745 -0.3136  0.8400
  288MOL0     H39723   3.351   1.618  13.333 -1.8647 -0.3735  1.1995
  288MOL0     H39724   2.844   1.310  12.422  0.6228  0.0572  0.2553
  288MOL0     H39725   2.641   1.180  12.387 -0.2397  2.5541  0.6830
  288MOL0     H39726   2.195   0.918  12.724 -0.4628 -2.3587  0.5667
  288MOL0     H39727   2.011   0.774  12.636  1.3688 -1.0858  0.3846
  288MOL0     H39728   2.506   0.460  10.974  1.0557  0.4634  0.0224
  288MOL0     H39729   2.629   0.556  10.779  2.2833 -0.0248 -1.2880
  288MOL0     H39730   2.971   0.472  10.498  4.7186  1.6301 -0.4576
  288MOL0     H39731   3.128   0.544  10.348  0.6028 -0.1925  4.6012
  288MOL0     H39732   3.222   0.588  10.112 -1.6392 -0.8202  0.2172
  288MOL0     H39733   3.082   0.597  10.010  1.5274 -2.2163 -0.0444
  288MOL0     H39734   3.264   0.682   9.884 -3.2394  1.4873 -2.2597
  288MOL0     H39735   3.319   0.795  10.021 -1.6301  2.4854  1.3836
  288MOL0     H39736   3.081   0.795   9.846  1.7903  0.4455 -1.7565
  288MOL0     H39737   3.093   0.913   9.982  0.6052  0.7954 -0.4571
  288MOL0     H39738   3.129   1.030   9.805 -0.2404 -0.7486  0.5149
  288MOL0     H39739   3.246   0.906   9.722  0.1867 -0.7710  0.1757
  288MOL0     H39740   3.531   1.106   9.946  0.2593 -0.3102 -0.2797
  288MOL0     H39741   2.830   0.807  10.173 -2.0582  1.5593  3.0153
  288MOL0     H39742   2.625   0.835  10.268 -1.0163 -0.6026 -0.3266
  288MOL0     H39743   2.572   0.665  10.226  0.6286 -2.6117  2.5333
  288MOL0     H39744   2.574   0.734  10.394 -0.1527 -1.2941  0.4334
  289MOL0     O39745   0.735   2.132   7.758 -0.5451 -0.4804 -0.2772
  289MOL0     C39746   0.670   2.216   7.693  0.0356  0.7974 -0.3112
  289MOL0     O39747   0.540   2.213   7.683  0.6170  0.4826  0.0976
  289MOL0     C39748   0.481   2.098   7.742  0.2067 -0.6245 -0.3970
  289MOL0     C39749   0.408   2.002   7.668  0.0303  0.8917  0.7657
  289MOL0     C39750   0.326   1.906   7.736  0.0410 -0.0584  0.0787
  289MOL0     C39751   0.324   1.901   7.876 -0.7807  0.8479 -0.2746
  289MOL0     O39752   0.264   1.795   7.939  0.4042  0.1568  0.7117
  289MOL0     C39753   0.360   1.705   7.995  0.5933 -0.3535 -1.2947
  289MOL0     C39754   0.407   1.610   7.885  0.2215  0.0086 -0.5324
  289MOL0     C39755   0.498   1.493   7.929  0.1340  0.4367  0.0468
  289MOL0     C39756   0.418   1.373   7.972  0.6815  0.4364 -0.2981
  289MOL0     C39757   0.504   1.258   8.034  0.4452  0.2784  0.0057
  289MOL0     C39758   0.581   1.188   7.925 -0.7940 -0.2793  0.5725
  289MOL0     C39759   0.624   1.046   7.969 -0.7064  0.9538 -0.6311
  289MOL0     C39760   0.700   0.973   7.860 -0.3141  0.6356 -0.7476
  289MOL0     N39761   0.772   0.853   7.911 -0.3122 -0.0996  0.0219
  289MOL0     C39762   0.717   0.741   7.973 -0.9784 -0.2065  0.7741
  289MOL0     C39763   0.826   0.671   8.023 -0.5308  0.2433  0.3099
  289MOL0     C39764   0.806   0.554   8.122 -0.4448 -0.3928  0.3835
  289MOL0     C39765   0.932   0.481   8.164 -0.5127 -0.1245  0.1184
  289MOL0     C39766   1.029   0.562   8.241 -0.1538 -0.0914 -0.7791
  289MOL0     C39767   1.154   0.475   8.268 -0.1099  0.2303 -0.1583
  289MOL0     O39768   1.117   0.386   8.375 -0.0986  0.0505  0.4154
  289MOL0     C39769   1.196   0.295   8.439  0.1431 -0.0350  0.3124
  289MOL0     C39770   1.333   0.300   8.444  0.2467  0.2173  0.1386
  289MOL0     C39771   1.407   0.205   8.520  0.5902 -0.7463  0.2350
  289MOL0     C39772   1.554   0.214   8.525 -0.6094 -0.3195 -0.0633
  289MOL0     C39773   1.337   0.096   8.584 -1.0957  0.2205  0.2908
  289MOL0     C39774   1.407  -0.019   8.652 -0.1948  0.2624  0.3587
  289MOL0     O39775   1.325  -0.089   8.741 -0.3714 -1.1795  0.3724
  289MOL0     C39776   1.357  -0.202   8.802  0.0235  0.4353 -0.5772
  289MOL0     C39777   1.467  -0.288   8.783 -0.7663 -0.5467 -0.1856
  289MOL0     C39778   1.508  -0.392   8.876 -0.9309  0.0792 -0.5457
  289MOL0     C39779   1.422  -0.412   8.983  0.1131 -0.2001  0.4413
  289MOL0     O39780   1.464  -0.509   9.074  0.5531 -0.2024 -0.4329
  289MOL0     C39781   1.378  -0.610   9.132 -0.3518 -0.6203 -0.2212
  289MOL0     C39782   1.458  -0.733   9.165 -0.3039 -0.2823  0.3100
  289MOL0     C39783   1.561  -0.769   9.055 -0.7652 -0.2580  0.0714
  289MOL0     C39784   1.635  -0.907   9.076 -0.1996 -0.4957 -0.0035
  289MOL0     C39785   1.669  -0.920   9.222 -0.0223  0.3935 -0.1788
  289MOL0     C39786   1.748  -1.046   9.265 -0.2599 -0.0389  0.6652
  289MOL0     C39787   1.799  -1.067   9.402 -0.0635 -0.1146 -0.8845
  289MOL0     C39788   1.691  -1.027   9.500  0.7174  0.0078  0.2225
  289MOL0    Cl39789   1.551  -1.141   9.491 -0.5213  0.1369  0.1563
  289MOL0     C39790   1.304  -0.337   8.999  0.2056 -0.0797 -0.1709
  289MOL0     C39791   1.272  -0.235   8.902 -0.0593  0.5424  0.1753
  289MOL0     O39792   1.521  -0.052   8.624  0.3447 -0.2217 -0.0267
  289MOL0     C39793   1.197   0.094   8.577 -0.1352  0.2106 -0.2112
  289MOL0     C39794   1.127   0.195   8.506  0.0977  0.4231  0.1583
  289MOL0     N39795   0.943   0.726   7.970  0.0286 -0.3885  0.3645
  289MOL0     N39796   0.909   0.838   7.912 -0.1028 -0.6435 -0.5029
  289MOL0     C39797   0.389   2.001   7.947 -0.2524 -0.0935 -0.0286
  289MOL0     C39798   0.461   2.104   7.883 -0.3987  0.2434 -0.5555
  289MOL0     C39799   0.731   2.342   7.628 -0.0312  0.1005 -0.1656
  289MOL0     C39800   0.652   2.426   7.560  0.1803  0.6652  0.0522
  289MOL0     C39801   0.690   2.539   7.491 -0.0680  0.3622 -1.0317
  289MOL0     C39802   0.828   2.568   7.489 -0.8193  0.2094 -0.3222
  289MOL0     O39803   0.853   2.681   7.411  0.0122 -0.4574 -1.7006
  289MOL0     C39804   0.982   2.730   7.427  1.0286 -0.5669 -0.4738
  289MOL0     C39805   0.984   2.876   7.381  0.2402  0.2378  0.3686
  289MOL0     C39806   0.927   2.894   7.239  0.1513  1.0670  0.8381
  289MOL0     C39807   0.969   2.806   7.117  0.2833 -1.1741 -0.2436
  289MOL0     C39808   0.887   2.819   6.998  0.2642 -0.4992  0.1808
  289MOL0     C39809   0.801   2.828   6.910 -0.4185 -0.1596  0.0635
  289MOL0     C39810   0.922   2.482   7.559  0.4752 -0.9062  0.0010
  289MOL0     C39811   0.874   2.368   7.626  0.0041  0.1701 -0.2762
  289MOL0     C39812   0.973   2.284   7.693 -0.3464 -0.1128 -0.6058
  289MOL0     H39813   0.401   1.998   7.559  0.5194 -1.6276  0.7612
  289MOL0     H39814   0.270   1.830   7.683 -0.4005 -0.1880  0.7137
  289MOL0     H39815   0.315   1.647   8.077  2.9258  0.6020  0.8159
  289MOL0     H39816   0.439   1.754   8.052 -0.4399  1.1292 -1.0817
  289MOL0     H39817   0.313   1.564   7.854 -0.7431  1.5118  0.0849
  289MOL0     H39818   0.452   1.664   7.800  1.5234 -0.5592 -0.2389
  289MOL0     H39819   0.567   1.455   7.853  3.1775 -0.6777  3.1532
  289MOL0     H39820   0.559   1.547   8.001 -2.5208  2.5710  0.8735
  289MOL0     H39821   0.364   1.410   8.060  2.8149 -0.7571  1.6120
  289MOL0     H39822   0.351   1.338   7.892 -0.2946  0.2485  0.5780
  289MOL0     H39823   0.445   1.175   8.076  2.8232  0.0270  3.2200
  289MOL0     H39824   0.562   1.305   8.113 -1.8490  1.6067  0.9735
  289MOL0     H39825   0.521   1.192   7.834  1.6357 -0.2168 -1.1185
  289MOL0     H39826   0.676   1.241   7.915 -1.1902  0.6480  1.5500
  289MOL0     H39827   0.538   0.982   7.991  0.6638 -1.0280 -0.7621
  289MOL0     H39828   0.682   1.058   8.061 -2.5636 -1.8196  1.0698
  289MOL0     H39829   0.638   0.929   7.782 -1.3726 -0.7724  0.8146
  289MOL0     H39830   0.771   1.040   7.811 -0.4565  1.1972 -0.1961
  289MOL0     H39831   0.611   0.727   7.990 -1.0866  0.0094  0.2883
  289MOL0     H39832   0.750   0.481   8.064  0.3891 -0.6027 -0.1744
  289MOL0     H39833   0.757   0.586   8.214 -1.5983 -2.9687  0.7371
  289MOL0     H39834   0.897   0.396   8.223 -0.5371 -0.7278 -0.7358
  289MOL0     H39835   0.977   0.433   8.076  0.0528 -1.6737  1.2224
  289MOL0     H39836   1.066   0.649   8.187  1.6543  1.3892  2.5162
  289MOL0     H39837   0.984   0.600   8.333  0.5749  1.1465 -0.9226
  289MOL0     H39838   1.194   0.428   8.177 -1.8582  2.2741 -2.1110
  289MOL0     H39839   1.237   0.539   8.300 -1.2936  0.5393  2.5340
  289MOL0     H39840   1.380   0.389   8.402 -2.5180  0.9543 -1.7207
  289MOL0     H39841   1.596   0.122   8.483  2.2053  0.6946  0.2500
  289MOL0     H39842   1.595   0.234   8.625  1.6532  1.2425 -1.1886
  289MOL0     H39843   1.605   0.292   8.467  1.2050 -0.7418  0.8762
  289MOL0     H39844   1.541  -0.284   8.703 -0.1747 -3.4930  0.1063
  289MOL0     H39845   1.593  -0.459   8.877 -2.6860 -2.4263 -3.0700
  289MOL0     H39846   1.331  -0.563   9.219  1.4788  1.4217 -0.2444
  289MOL0     H39847   1.294  -0.636   9.067 -1.2533  0.7275  0.3628
  289MOL0     H39848   1.511  -0.704   9.256 -2.6049  1.4022  1.2072
  289MOL0     H39849   1.397  -0.821   9.186 -0.7535 -0.4381 -1.5114
  289MOL0     H39850   1.644  -0.699   9.056 -0.2850 -0.6971 -2.1577
  289MOL0     H39851   1.529  -0.773   8.950 -0.1849 -0.1013 -0.1175
  289MOL0     H39852   1.726  -0.906   9.016 -0.5029 -1.6951 -0.5251
  289MOL0     H39853   1.578  -0.992   9.037 -0.0292 -1.3886  1.5746
  289MOL0     H39854   1.728  -0.831   9.246 -0.8208  0.8952 -0.0276
  289MOL0     H39855   1.575  -0.909   9.278 -0.1137 -0.7604 -0.0703
  289MOL0     H39856   1.828  -1.067   9.194  0.2623  1.3753  0.8125
  289MOL0     H39857   1.684  -1.131   9.242  0.0600  0.4124 -2.1418
  289MOL0     H39858   1.886  -1.005   9.427  0.2985 -0.8374 -0.3172
  289MOL0     H39859   1.830  -1.172   9.409  2.7880  0.2922 -4.4612
  289MOL0     H39860   1.651  -0.927   9.482  1.6651  0.3846  0.1716
  289MOL0     H39861   1.717  -1.025   9.606 -3.2971  0.1531  1.3768
  289MOL0     H39862   1.237  -0.365   9.080  0.3639  0.0790  0.0161
  289MOL0     H39863   1.186  -0.174   8.926  0.6038  0.8638  1.8736
  289MOL0     H39864   1.136   0.033   8.642  1.6634 -0.5566  0.8314
  289MOL0     H39865   1.019   0.208   8.515  0.1449 -0.5101  3.0614
  289MOL0     H39866   0.391   1.998   8.056  0.6378  0.6424 -0.0102
  289MOL0     H39867   0.509   2.188   7.931 -0.2461  0.0856 -0.4283
  289MOL0     H39868   0.544   2.409   7.562 -0.2205  2.4566 -2.0098
  289MOL0     H39869   0.610   2.595   7.442 -1.1094  0.5073  0.7447
  289MOL0     H39870   1.004   2.744   7.533  0.4678  3.3512 -0.7375
  289MOL0     H39871   1.067   2.672   7.389  0.2202 -2.0105 -0.1863
  289MOL0     H39872   1.089   2.909   7.384 -0.0273  1.0041  1.9541
  289MOL0     H39873   0.934   2.933   7.460  0.3549 -2.4188  2.4983
  289MOL0     H39874   0.818   2.879   7.237 -0.3079  1.9178 -6.1688
  289MOL0     H39875   0.943   2.997   7.205  2.1564  0.2263 -0.9845
  289MOL0     H39876   0.977   2.702   7.152 -0.5033 -0.5772  1.8323
  289MOL0     H39877   1.069   2.844   7.093  0.0925 -1.3152 -1.3329
  289MOL0     H39878   0.732   2.872   6.841  0.7731  0.6455 -0.6722
  289MOL0     H39879   1.024   2.514   7.578  0.1263  0.1361  0.1980
  289MOL0     H39880   0.946   2.180   7.712 -0.6946  0.5334  3.1313
  289MOL0     H39881   1.063   2.266   7.634 -1.0440  1.3980 -2.2140
  289MOL0     H39882   0.999   2.323   7.792 -1.6695  0.6251 -0.5351
  290MOL0     O39883   9.107   2.989   0.130 -0.6908 -0.4698 -0.2718
  290MOL0     C39884   9.122   3.073   0.222 -0.9553  0.4308 -0.3834
  290MOL0     O39885   9.042   3.170   0.253  0.1262 -0.0848 -0.1507
  290MOL0     C39886   8.909   3.152   0.244 -0.0521  0.5146  0.6493
  290MOL0     C39887   8.831   3.141   0.356  0.1894 -0.0549 -1.1011
  290MOL0     C39888   8.691   3.134   0.351  0.2606  0.3175  0.6707
  290MOL0     C39889   8.621   3.129   0.237  0.1718  0.6006  0.5025
  290MOL0     O39890   8.483   3.126   0.235 -0.0849  0.6830 -0.4693
  290MOL0     C39891   8.426   3.036   0.139 -0.6185  1.1440  0.6387
  290MOL0     C39892   8.276   3.036   0.145  0.1442 -0.0970 -0.0114
  290MOL0     C39893   8.216   3.159   0.076  0.1927 -0.3298  0.1760
  290MOL0     C39894   8.067   3.161   0.091  0.2870 -0.2165 -0.8345
  290MOL0     C39895   8.002   3.291   0.031  0.3609  0.4771 -0.2733
  290MOL0     C39896   7.850   3.288   0.050  0.0439 -0.3651 -0.4059
  290MOL0     C39897   7.802   3.427  -0.002  0.3651 -0.3511  0.2405
  290MOL0     C39898   7.654   3.454   0.052 -0.3722  0.0662 -0.1994
  290MOL0     N39899   7.585   3.563  -0.026 -0.3445  0.0809 -0.6762
  290MOL0     C39900   7.560   3.563  -0.155 -0.7685 -0.6387  0.7772
  290MOL0     C39901   7.497   3.677  -0.186 -0.8554 -0.4865  0.2027
  290MOL0     C39902   7.459   3.729  -0.324 -1.0540 -0.3563 -0.4939
  290MOL0     C39903   7.395   3.872  -0.310  0.1946  0.4651 -0.2010
  290MOL0     C39904   7.358   3.919  -0.451 -0.4057  0.2164 -0.5875
  290MOL0     C39905   7.280   4.051  -0.437 -0.0676 -0.4823  0.4657
  290MOL0     O39906   7.273   4.107  -0.568  0.4835  0.0782  0.2911
  290MOL0     C39907   7.196   4.224  -0.579 -0.9370  0.2589 -1.3569
  290MOL0     C39908   7.106   4.267  -0.472 -0.3701  0.6281  0.0705
  290MOL0     C39909   7.027   4.380  -0.498  0.2842  0.2328  0.2446
  290MOL0     C39910   6.925   4.414  -0.400  0.1889 -1.0588  0.9139
  290MOL0     C39911   7.036   4.455  -0.619  0.1557  1.4971  0.0753
  290MOL0     C39912   6.966   4.579  -0.649 -0.0695 -0.3270  0.2669
  290MOL0     O39913   6.830   4.570  -0.677  0.5572  0.2858  0.2819
  290MOL0     C39914   6.766   4.693  -0.698 -0.0334  0.4036 -0.4302
  290MOL0     C39915   6.715   4.761  -0.586  1.8192 -0.4167  0.9990
  290MOL0     C39916   6.639   4.878  -0.606  0.2614 -0.2986 -1.3884
  290MOL0     C39917   6.608   4.931  -0.735  0.4950  0.0650  0.0108
  290MOL0     O39918   6.524   5.039  -0.759  0.5486 -0.3338  0.1839
  290MOL0     C39919   6.463   5.050  -0.886  1.1068  0.1986  0.2823
  290MOL0     C39920   6.384   5.184  -0.896  0.1449  0.6330  0.3863
  290MOL0     C39921   6.241   5.156  -0.830  0.0754 -0.7460  0.0817
  290MOL0     C39922   6.141   5.281  -0.859 -0.7171  0.7552 -0.6359
  290MOL0     C39923   6.005   5.254  -0.799  0.6040 -0.2087 -0.5970
  290MOL0     C39924   5.904   5.200  -0.903 -0.2657  0.3115  0.3261
  290MOL0     C39925   5.769   5.163  -0.846  0.4309 -1.1000  0.0494
  290MOL0     C39926   5.689   5.080  -0.943 -0.1145  0.2162  0.3062
  290MOL0    Cl39927   5.517   5.103  -0.906 -0.2076  0.1535  0.6733
  290MOL0     C39928   6.675   4.873  -0.841 -0.3199 -0.1003 -0.5232
  290MOL0     C39929   6.753   4.754  -0.822  0.6689 -0.2781  1.0068
  290MOL0     O39930   7.034   4.683  -0.635  0.3737  0.2861 -0.5108
  290MOL0     C39931   7.115   4.400  -0.721 -0.0861 -0.6183  0.3622
  290MOL0     C39932   7.194   4.293  -0.697  0.3532 -0.6623 -0.3971
  290MOL0     N39933   7.472   3.743  -0.070 -0.2486 -0.0303 -0.2357
  290MOL0     N39934   7.525   3.677   0.026  0.2257 -0.5130  0.6622
  290MOL0     C39935   8.692   3.142   0.115 -0.2078  0.2251  0.1845
  290MOL0     C39936   8.836   3.159   0.123 -0.1008 -0.0430 -0.3021
  290MOL0     C39937   9.269   3.080   0.275 -0.1751  1.1236  0.2076
  290MOL0     C39938   9.306   3.197   0.339 -0.1214 -0.2353  0.3186
  290MOL0     C39939   9.435   3.218   0.365 -0.5419 -0.4893 -0.0285
  290MOL0     C39940   9.541   3.132   0.337 -0.3999 -0.2688 -0.4625
  290MOL0     O39941   9.676   3.154   0.366 -0.2396  0.1478  0.6370
  290MOL0     C39942   9.765   3.168   0.265  0.5516 -0.0058  0.6466
  290MOL0     C39943   9.902   3.202   0.327  0.7878  0.1392 -0.3355
  290MOL0     C39944  10.027   3.218   0.240 -0.0504  0.6067  0.2043
  290MOL0     C39945  10.159   3.200   0.305 -0.9588  0.2645  0.0948
  290MOL0     C39946  10.183   3.260   0.437  0.6583 -0.5812 -0.1195
  290MOL0     C39947  10.211   3.306   0.542  0.1435 -0.6635  0.2855
  290MOL0     C39948   9.495   3.009   0.279  0.2594 -0.6902 -0.5578
  290MOL0     C39949   9.366   2.978   0.250 -0.8828  0.2850 -0.3553
  290MOL0     C39950   9.346   2.847   0.178 -1.0002 -0.7251 -0.4870
  290MOL0     H39951   8.885   3.150   0.450 -0.2133  2.0927 -1.0226
  290MOL0     H39952   8.627   3.135   0.439 -1.5918  2.7297 -0.6152
  290MOL0     H39953   8.470   2.938   0.158 -1.4926  0.7311  0.5857
  290MOL0     H39954   8.455   3.058   0.036  1.8506 -0.8193  0.8176
  290MOL0     H39955   8.241   2.941   0.102 -1.3895 -1.1351  3.1928
  290MOL0     H39956   8.236   3.047   0.246 -2.3701 -0.0932 -0.9557
  290MOL0     H39957   8.259   3.253   0.113 -0.2324  0.6253 -1.5973
  290MOL0     H39958   8.247   3.155  -0.029 -1.8603  1.9978 -0.6217
  290MOL0     H39959   8.011   3.076   0.051  0.7623 -1.2876  0.6702
  290MOL0     H39960   8.048   3.152   0.199 -1.1541 -1.0244 -1.1411
  290MOL0     H39961   8.016   3.303  -0.077  0.4148 -0.6570 -0.4118
  290MOL0     H39962   8.040   3.379   0.083  2.1379 -0.1216 -0.4931
  290MOL0     H39963   7.799   3.217  -0.015 -1.8422  1.4105 -0.9888
  290MOL0     H39964   7.814   3.271   0.152 -2.0792  1.1724 -0.8118
  290MOL0     H39965   7.812   3.425  -0.111  0.7031  0.5739  0.2504
  290MOL0     H39966   7.869   3.500   0.042 -0.5225 -1.3299  3.4692
  290MOL0     H39967   7.591   3.367   0.031  0.4567  0.0065 -2.7239
  290MOL0     H39968   7.667   3.473   0.159 -2.6653  0.6143  0.0313
  290MOL0     H39969   7.598   3.486  -0.222 -0.5509  0.9623 -1.0112
  290MOL0     H39970   7.399   3.657  -0.379  0.7168  1.3355 -5.1738
  290MOL0     H39971   7.552   3.739  -0.381 -1.0497 -2.5666 -0.9604
  290MOL0     H39972   7.308   3.873  -0.244  0.4805 -3.1348  0.3729
  290MOL0     H39973   7.463   3.941  -0.259  0.2046 -0.9362  1.7726
  290MOL0     H39974   7.453   3.941  -0.500 -1.3257 -0.2771 -2.6961
  290MOL0     H39975   7.295   3.841  -0.494 -0.8069 -0.2207  0.7238
  290MOL0     H39976   7.178   4.023  -0.408 -1.1063  3.0121  0.5829
  290MOL0     H39977   7.335   4.112  -0.364 -0.2142  2.9381 -2.0547
  290MOL0     H39978   7.104   4.213  -0.378 -1.8952 -0.1596 -0.3710
  290MOL0     H39979   6.970   4.440  -0.303 -0.3996 -2.5684  1.6406
  290MOL0     H39980   6.856   4.330  -0.382 -1.2708  0.1964  1.4103
  290MOL0     H39981   6.866   4.499  -0.434  1.9142 -1.2057 -2.9078
  290MOL0     H39982   6.719   4.728  -0.483  0.6776  3.0837  2.2906
  290MOL0     H39983   6.590   4.916  -0.517  0.1374 -0.9775 -1.1666
  290MOL0     H39984   6.539   5.059  -0.965  1.2200  2.9228  0.6189
  290MOL0     H39985   6.402   4.959  -0.891  1.2054 -0.1119  3.1989
  290MOL0     H39986   6.426   5.264  -0.835  1.8319  0.1862 -0.1197
  290MOL0     H39987   6.375   5.206  -1.003  1.9062 -0.4132 -0.0274
  290MOL0     H39988   6.258   5.158  -0.721  2.8789  0.6039 -0.2789
  290MOL0     H39989   6.192   5.073  -0.881 -0.3044 -0.1513 -0.5405
  290MOL0     H39990   6.128   5.290  -0.968 -2.5371  1.0641 -0.4099
  290MOL0     H39991   6.194   5.365  -0.813  2.0231 -0.2756 -1.6414
  290MOL0     H39992   6.009   5.182  -0.716  2.4502 -1.0311 -1.3320
  290MOL0     H39993   5.979   5.348  -0.750  3.0507  3.2445 -5.2475
  290MOL0     H39994   5.952   5.110  -0.942 -0.3767  1.0449 -1.6118
  290MOL0     H39995   5.896   5.274  -0.983 -3.1819  2.2371  2.1951
  290MOL0     H39996   5.717   5.255  -0.818 -0.1872 -1.1098 -1.0164
  290MOL0     H39997   5.777   5.114  -0.748 -0.0617 -1.4942 -0.0985
  290MOL0     H39998   5.709   4.974  -0.923  4.3145  0.5889 -1.0665
  290MOL0     H39999   5.712   5.111  -1.045 -1.8945 -2.1338 -0.9197
  290MOL0     H40000   6.675   4.913  -0.941 -0.7072  1.0403 -0.0880
  290MOL0     H40001   6.813   4.717  -0.904 -1.8337  1.3246 -1.7101
  290MOL0     H40002   7.122   4.450  -0.817 -0.7469 -0.5064  0.3684
  290MOL0     H40003   7.251   4.270  -0.786 -0.9077 -0.9537 -1.1584
  290MOL0     H40004   8.633   3.147   0.024 -0.3119 -3.4148 -0.0752
  290MOL0     H40005   8.898   3.184   0.037 -0.3204  0.2056 -0.3898
  290MOL0     H40006   9.244   3.278   0.374  1.4958  1.5209 -0.6572
  290MOL0     H40007   9.455   3.309   0.421  1.4305 -1.6979  1.3862
  290MOL0     H40008   9.756   3.078   0.203 -0.6125 -2.1554  3.6716
  290MOL0     H40009   9.736   3.256   0.206  0.5831 -0.0831  0.5152
  290MOL0     H40010   9.912   3.123   0.402 -1.2754  1.1614  1.1131
  290MOL0     H40011   9.889   3.297   0.379  1.2972  1.2982 -2.2202
  290MOL0     H40012  10.020   3.144   0.160 -0.8239 -0.2080  0.9971
  290MOL0     H40013  10.017   3.316   0.191 -1.5528 -0.9344 -2.9045
  290MOL0     H40014  10.245   3.230   0.245  0.1562 -0.1943  1.4013
  290MOL0     H40015  10.182   3.093   0.301  1.4747  0.7568 -1.0567
  290MOL0     H40016  10.233   3.352   0.636 -0.2455 -0.6815  0.3860
  290MOL0     H40017   9.578   2.941   0.263 -0.5062 -2.1330  1.2377
  290MOL0     H40018   9.441   2.797   0.155  0.9081  3.3339 -2.5791
  290MOL0     H40019   9.278   2.774   0.222  0.7547 -2.4959 -0.5698
  290MOL0     H40020   9.307   2.864   0.077 -1.6090 -3.2950 -0.7568
  291MOL0     O40021   6.090   5.517   1.256  0.0332  0.1743 -0.5041
  291MOL0     C40022   6.014   5.427   1.224  0.7858 -0.7635 -0.6123
  291MOL0     O40023   6.030   5.357   1.116 -0.3688  0.4932 -0.5539
  291MOL0     C40024   5.993   5.225   1.104  0.4255  0.0234 -0.5477
  291MOL0     C40025   5.966   5.182   0.972  0.2619 -0.4081 -0.2253
  291MOL0     C40026   5.929   5.049   0.940 -0.2415 -1.3701  0.1331
  291MOL0     C40027   5.927   4.955   1.046 -0.2993  0.7765 -0.8990
  291MOL0     O40028   5.905   4.827   1.009  0.0876  0.4996 -0.5283
  291MOL0     C40029   5.993   4.724   1.061 -0.0826  0.0101  0.7294
  291MOL0     C40030   6.007   4.615   0.948 -0.2237 -0.0601 -0.6890
  291MOL0     C40031   5.872   4.542   0.933 -0.1555 -0.0596 -1.2198
  291MOL0     C40032   5.892   4.420   0.836  0.1900  0.8225  0.9803
  291MOL0     C40033   5.763   4.339   0.796 -0.0002  0.6710 -0.5259
  291MOL0     C40034   5.689   4.386   0.672  0.0397  0.0324  0.0375
  291MOL0     C40035   5.548   4.348   0.664  0.1825 -0.1629 -1.1057
  291MOL0     C40036   5.465   4.402   0.552 -0.0760 -0.0505  0.4825
  291MOL0     N40037   5.446   4.543   0.574 -0.1540 -0.9288 -0.0294
  291MOL0     C40038   5.389   4.601   0.679  0.6769  0.0511  0.6925
  291MOL0     C40039   5.351   4.726   0.644  0.7291  0.2325 -0.3676
  291MOL0     C40040   5.269   4.814   0.738 -0.3140  0.6206 -0.0674
  291MOL0     C40041   5.127   4.844   0.683  0.5767  0.1123  0.4914
  291MOL0     C40042   5.061   4.946   0.768 -0.8818  0.1709 -0.0112
  291MOL0     C40043   4.913   4.965   0.744 -0.2466 -0.4102  1.1198
  291MOL0     O40044   4.841   4.853   0.801  0.2373 -0.3020 -0.5622
  291MOL0     C40045   4.724   4.881   0.875  0.3511  0.3892 -0.3955
  291MOL0     C40046   4.692   4.792   0.982  0.3515 -0.3846  0.5489
  291MOL0     C40047   4.569   4.793   1.042 -0.1013 -0.3763  1.1282
  291MOL0     C40048   4.540   4.677   1.129  0.5416  0.1673  0.5833
  291MOL0     C40049   4.470   4.898   1.016 -0.2938  0.5018 -0.1746
  291MOL0     C40050   4.341   4.918   1.086  0.4232  0.0996 -0.1906
  291MOL0     O40051   4.251   5.001   1.024  0.7838 -0.3809 -0.6574
  291MOL0     C40052   4.130   4.999   1.088  0.2487 -0.0692 -1.1073
  291MOL0     C40053   4.027   4.973   1.007  0.5536 -0.2112  0.1955
  291MOL0     C40054   3.890   4.966   1.046 -0.5404  0.2232  0.1225
  291MOL0     C40055   3.857   4.992   1.179 -0.3264  0.7437  0.0811
  291MOL0     O40056   3.735   4.981   1.232  0.2825  0.3321  0.1608
  291MOL0     C40057   3.684   4.844   1.227 -0.0610  0.0429  0.3980
  291MOL0     C40058   3.546   4.837   1.297 -0.1842  0.6617 -0.0512
  291MOL0     C40059   3.560   4.839   1.446 -0.2317  0.0496  1.4180
  291MOL0     C40060   3.433   4.872   1.523  0.3990  0.0780  0.8451
  291MOL0     C40061   3.337   4.745   1.514  0.0010 -0.4470  0.0175
  291MOL0     C40062   3.218   4.735   1.601 -0.4474  0.5161  0.2879
  291MOL0     C40063   3.109   4.647   1.537  0.2291  0.2140  0.4279
  291MOL0     C40064   2.978   4.625   1.613  1.5513  1.1831  0.8228
  291MOL0    Cl40065   2.838   4.572   1.500 -0.1684  0.1622  0.2324
  291MOL0     C40066   3.967   5.037   1.261  0.0017 -0.6258 -0.2278
  291MOL0     C40067   4.097   5.051   1.217  0.1618  0.1009  0.3538
  291MOL0     O40068   4.324   4.855   1.190  0.5697  0.1922  0.7982
  291MOL0     C40069   4.519   5.000   0.926  1.2336 -0.2646 -0.7933
  291MOL0     C40070   4.632   4.987   0.852  0.5745  0.2284  0.3938
  291MOL0     N40071   5.376   4.738   0.508 -0.5570 -0.1557 -0.5634
  291MOL0     N40072   5.434   4.630   0.476  0.3080  0.0163 -0.3057
  291MOL0     C40073   5.980   4.995   1.171  0.6551 -0.7692 -0.9008
  291MOL0     C40074   6.008   5.133   1.207 -1.1010 -0.3270  0.0829
  291MOL0     C40075   5.899   5.409   1.311  0.4308 -0.1731 -0.3179
  291MOL0     C40076   5.771   5.388   1.249 -0.1972 -0.1556  0.5875
  291MOL0     C40077   5.664   5.367   1.330 -0.1964 -0.0042 -0.3151
  291MOL0     C40078   5.666   5.364   1.470  0.3089  0.4564 -0.1824
  291MOL0     O40079   5.561   5.334   1.555  0.2190  0.5981  0.3443
  291MOL0     C40080   5.433   5.280   1.500  1.1739  0.3877  0.6454
  291MOL0     C40081   5.450   5.139   1.452 -0.0006  1.0780  0.3788
  291MOL0     C40082   5.546   5.050   1.533  0.0729 -0.0260 -0.2083
  291MOL0     C40083   5.502   5.049   1.677  1.1669 -0.0130 -0.1825
  291MOL0     C40084   5.481   4.906   1.724 -0.9607 -0.4099  0.4401
  291MOL0     C40085   5.466   4.787   1.756  0.4658 -0.1506  0.1201
  291MOL0     C40086   5.792   5.372   1.530  0.4301  0.4967  0.3479
  291MOL0     C40087   5.908   5.394   1.454 -0.3317 -0.7276 -0.7260
  291MOL0     C40088   6.034   5.412   1.534 -0.4041 -0.1060 -0.2256
  291MOL0     H40089   5.963   5.253   0.890  0.1640  2.0424  1.7839
  291MOL0     H40090   5.903   5.015   0.841 -0.0446 -2.3855  0.4156
  291MOL0     H40091   5.957   4.680   1.155  0.6120 -1.1231  0.4850
  291MOL0     H40092   6.092   4.770   1.073 -0.2037  1.3763 -2.4815
  291MOL0     H40093   6.028   4.661   0.851 -0.7353 -1.2189 -1.3757
  291MOL0     H40094   6.090   4.549   0.975  2.7972  3.3183 -1.0570
  291MOL0     H40095   5.830   4.515   1.030  0.9131  1.2885 -0.3526
  291MOL0     H40096   5.796   4.608   0.889  1.2138  0.9104 -2.2070
  291MOL0     H40097   5.947   4.455   0.748  0.9065 -3.2243 -0.3918
  291MOL0     H40098   5.962   4.353   0.886  0.2231  0.9646  1.1240
  291MOL0     H40099   5.691   4.337   0.878 -0.5477  0.9709 -0.9914
  291MOL0     H40100   5.785   4.234   0.773 -1.3698  0.4661 -1.0261
  291MOL0     H40101   5.681   4.493   0.693  2.0394  0.1047  0.5666
  291MOL0     H40102   5.748   4.380   0.580 -1.0736  2.5135 -0.9236
  291MOL0     H40103   5.497   4.382   0.754 -2.4950 -2.1558 -1.7422
  291MOL0     H40104   5.546   4.238   0.662  4.2764 -0.5732  2.0825
  291MOL0     H40105   5.524   4.400   0.460  1.2241 -1.1809  1.3153
  291MOL0     H40106   5.366   4.357   0.547 -0.0263 -0.0163 -2.9947
  291MOL0     H40107   5.371   4.553   0.775 -4.4936  0.7245  0.3434
  291MOL0     H40108   5.320   4.911   0.742 -0.9054  0.9357  0.0375
  291MOL0     H40109   5.279   4.781   0.842  1.3989  2.3053  0.3683
  291MOL0     H40110   5.145   4.891   0.586 -0.2959  0.9766  0.7342
  291MOL0     H40111   5.064   4.756   0.665 -1.8814  2.0752 -1.2693
  291MOL0     H40112   5.084   4.927   0.874  3.3155  0.4646 -0.6947
  291MOL0     H40113   5.115   5.040   0.758  0.3796 -0.4731  0.4893
  291MOL0     H40114   4.883   5.056   0.797  3.9979  2.1343 -0.3690
  291MOL0     H40115   4.882   4.977   0.640  1.7676 -1.3852  0.3512
  291MOL0     H40116   4.759   4.710   1.004  0.2067 -0.5336  0.4379
  291MOL0     H40117   4.573   4.690   1.232 -1.4010  1.1655  1.1174
  291MOL0     H40118   4.603   4.593   1.096  1.3734  1.2170 -0.5810
  291MOL0     H40119   4.435   4.647   1.127  0.8848 -1.4091  2.7033
  291MOL0     H40120   4.056   4.943   0.907  2.1673 -0.8398  0.8196
  291MOL0     H40121   3.814   4.934   0.976 -0.2431 -0.9953  0.3273
  291MOL0     H40122   3.659   4.803   1.129 -0.1282 -0.9460  0.8130
  291MOL0     H40123   3.758   4.779   1.276 -1.8736 -1.4701  1.2641
  291MOL0     H40124   3.478   4.907   1.249 -0.8198  1.1946  1.5360
  291MOL0     H40125   3.507   4.737   1.274 -1.6140  0.5177  2.5165
  291MOL0     H40126   3.644   4.905   1.465  0.4830 -0.8129  1.3180
  291MOL0     H40127   3.602   4.745   1.484 -1.0819  0.2383  2.8793
  291MOL0     H40128   3.387   4.958   1.474  2.2231  0.2785 -0.6454
  291MOL0     H40129   3.446   4.907   1.626 -1.3689 -1.2700  1.5716
  291MOL0     H40130   3.316   4.741   1.407 -1.1961  1.5527  0.1306
  291MOL0     H40131   3.403   4.660   1.535 -0.5736 -1.0993 -0.7455
  291MOL0     H40132   3.196   4.841   1.616  1.7869  1.6449 -3.0598
  291MOL0     H40133   3.231   4.702   1.705  0.6840  2.9646  0.9867
  291MOL0     H40134   3.147   4.550   1.503 -3.3541 -0.3985 -2.4706
  291MOL0     H40135   3.060   4.700   1.454 -3.1762  0.0922  2.1778
  291MOL0     H40136   2.960   4.720   1.665  1.6496  1.0562  1.0888
  291MOL0     H40137   2.982   4.544   1.686 -1.2043 -1.8980 -2.1146
  291MOL0     H40138   3.953   5.038   1.369  2.1659 -4.0781  0.2700
  291MOL0     H40139   4.177   5.081   1.284  1.2583 -3.4164  0.8397
  291MOL0     H40140   4.453   5.086   0.914  0.7651  0.1475  3.4617
  291MOL0     H40141   4.649   5.064   0.777  1.2630 -1.5184 -1.3188
  291MOL0     H40142   6.001   4.920   1.246  2.6572  4.5864  4.7638
  291MOL0     H40143   6.028   5.155   1.311 -0.0107 -3.0954  0.5385
  291MOL0     H40144   5.749   5.390   1.143 -0.4548  2.2189  0.6446
  291MOL0     H40145   5.568   5.365   1.279  1.2832  0.8587 -3.3494
  291MOL0     H40146   5.356   5.273   1.577  1.4447  2.6413  1.2014
  291MOL0     H40147   5.395   5.340   1.417  0.4711 -0.4810  0.3258
  291MOL0     H40148   5.490   5.149   1.351 -0.7123  0.5203  0.0365
  291MOL0     H40149   5.356   5.086   1.439  1.0543 -0.8657  0.2585
  291MOL0     H40150   5.561   4.955   1.480 -0.1808  0.5832 -1.4021
  291MOL0     H40151   5.643   5.101   1.531  0.2589 -0.3470 -2.5311
  291MOL0     H40152   5.399   5.084   1.696  1.2128 -1.2406  2.8785
  291MOL0     H40153   5.577   5.101   1.736  0.5320 -1.2315  1.7892
  291MOL0     H40154   5.467   4.682   1.778  1.3985 -0.4540 -1.2470
  291MOL0     H40155   5.802   5.371   1.638  4.4242 -2.1196  0.1469
  291MOL0     H40156   6.024   5.497   1.601 -0.8263  0.7207 -1.2956
  291MOL0     H40157   6.060   5.319   1.585  1.2559  1.4625  1.9471
  291MOL0     H40158   6.132   5.422   1.485  1.8151 -0.6261  3.6696
  292MOL0     O40159   9.160   6.281   0.081 -0.0497  0.0954  0.2278
  292MOL0     C40160   9.193   6.265  -0.035 -0.5361  0.4413 -0.4854
  292MOL0     O40161   9.321   6.263  -0.078 -0.6222 -0.3669  0.0648
  292MOL0     C40162   9.407   6.331  -0.000 -1.2317  0.4373 -0.6076
  292MOL0     C40163   9.463   6.446  -0.058 -0.4675 -0.7629 -0.6122
  292MOL0     C40164   9.537   6.530   0.024  0.0390  0.5258  0.5229
  292MOL0     C40165   9.579   6.497   0.153  0.4757 -0.3382  0.1142
  292MOL0     O40166   9.665   6.575   0.234 -0.2576  0.3408 -0.3709
  292MOL0     C40167   9.673   6.718   0.202  0.3535  0.1807 -0.6692
  292MOL0     C40168   9.789   6.782   0.277 -0.0914 -0.0731 -0.6529
  292MOL0     C40169   9.927   6.733   0.228 -0.0760  0.2373  0.7270
  292MOL0     C40170  10.048   6.798   0.285  0.2126  0.4958 -0.5329
  292MOL0     C40171  10.180   6.772   0.217 -0.4683  0.2440 -0.8862
  292MOL0     C40172  10.282   6.890   0.201  0.6652  0.0825  1.4367
  292MOL0     C40173  10.427   6.851   0.186 -0.6032 -0.6910  0.7323
  292MOL0     C40174  10.526   6.959   0.207 -0.5256 -0.0962 -0.2932
  292MOL0     N40175  10.656   6.930   0.138 -0.9645  0.5029  0.0617
  292MOL0     C40176  10.722   6.806   0.151 -0.3029 -0.0658 -1.0342
  292MOL0     C40177  10.833   6.830   0.078 -0.4052  0.4843  0.9452
  292MOL0     C40178  10.949   6.727   0.051  0.0803  0.4212 -0.4049
  292MOL0     C40179  10.933   6.633  -0.072  0.5726 -0.9016  0.3488
  292MOL0     C40180  10.920   6.705  -0.214  0.6528 -0.9763 -0.1938
  292MOL0     C40181  10.866   6.625  -0.327  0.2594  0.5808 -0.2234
  292MOL0     O40182  10.936   6.495  -0.318  0.3816 -0.6482 -0.4970
  292MOL0     C40183  11.057   6.480  -0.376  0.2400 -0.2598  0.0186
  292MOL0     C40184  11.129   6.579  -0.437 -0.3480  0.4332 -0.6882
  292MOL0     C40185  11.249   6.561  -0.496 -0.3397  0.9938  0.0448
  292MOL0     C40186  11.318   6.687  -0.563  1.4109 -0.3834  0.0668
  292MOL0     C40187  11.309   6.439  -0.496 -0.0748  0.2899 -0.4352
  292MOL0     C40188  11.419   6.401  -0.574 -0.0736 -0.3062  1.0003
  292MOL0     O40189  11.517   6.322  -0.518  0.0156 -1.3028 -0.2036
  292MOL0     C40190  11.639   6.310  -0.581 -0.3824  0.2083 -0.5849
  292MOL0     C40191  11.693   6.184  -0.586  0.8976 -0.1255  0.2546
  292MOL0     C40192  11.815   6.159  -0.647  0.8048 -0.3651  0.9860
  292MOL0     C40193  11.894   6.273  -0.687 -0.2391 -0.7920  0.6589
  292MOL0     O40194  12.026   6.247  -0.727 -0.9452  0.1986 -0.0600
  292MOL0     C40195  12.120   6.355  -0.720 -0.2426 -0.6679 -0.0136
  292MOL0     C40196  12.261   6.315  -0.770 -0.4104 -0.0660 -0.6023
  292MOL0     C40197  12.353   6.436  -0.755  0.0578  0.2049 -0.1810
  292MOL0     C40198  12.497   6.403  -0.807 -0.0244  0.0198 -0.0381
  292MOL0     C40199  12.603   6.510  -0.780 -0.3078 -0.2918  0.0579
  292MOL0     C40200  12.731   6.501  -0.873  0.6098 -0.1751 -0.8352
  292MOL0     C40201  12.707   6.565  -1.002 -0.5173 -0.5727  0.1886
  292MOL0     C40202  12.665   6.712  -0.996 -0.6093 -0.2418  0.1002
  292MOL0    Cl40203  12.767   6.804  -0.870  0.1550 -0.4437  0.5283
  292MOL0     C40204  11.841   6.398  -0.663  0.1991  0.9875 -0.0821
  292MOL0     C40205  11.717   6.419  -0.610  0.6635 -0.8826  1.2064
  292MOL0     O40206  11.412   6.428  -0.696 -0.2587  0.1170  0.6755
  292MOL0     C40207  11.246   6.334  -0.425  0.3415 -0.0697  0.3703
  292MOL0     C40208  11.125   6.361  -0.361 -0.2848 -0.3922 -0.3146
  292MOL0     N40209  10.830   6.959   0.019  0.0953  0.5638 -0.4404
  292MOL0     N40210  10.727   7.028   0.064  0.2898  0.4092 -0.6332
  292MOL0     C40211   9.543   6.371   0.194  0.0180 -0.2757 -0.5939
  292MOL0     C40212   9.455   6.288   0.125  0.0846  0.3740 -1.3829
  292MOL0     C40213   9.080   6.218  -0.122 -0.8057 -0.3857  0.4186
  292MOL0     C40214   8.972   6.308  -0.142  0.2341  0.2713 -0.3593
  292MOL0     C40215   8.863   6.273  -0.226 -0.0529  0.0576 -0.1160
  292MOL0     C40216   8.853   6.153  -0.298 -0.3348 -0.5352  0.2495
  292MOL0     O40217   8.741   6.134  -0.370  0.8056 -0.0387 -0.1521
  292MOL0     C40218   8.746   6.044  -0.478 -0.3138 -0.7673  0.2201
  292MOL0     C40219   8.635   6.053  -0.577  0.2998 -0.4148 -0.5727
  292MOL0     C40220   8.628   6.188  -0.634 -0.8133 -0.1421  0.2843
  292MOL0     C40221   8.489   6.238  -0.595 -0.2479  0.1084  0.1684
  292MOL0     C40222   8.392   6.197  -0.696 -0.6922  0.1438  0.6397
  292MOL0     C40223   8.310   6.184  -0.784  0.2911  0.3041 -0.2875
  292MOL0     C40224   8.961   6.065  -0.266  0.5853  0.1707  0.0349
  292MOL0     C40225   9.067   6.095  -0.179 -0.3162  0.1482  0.2298
  292MOL0     C40226   9.159   5.990  -0.136  0.6084 -0.1634  0.2863
  292MOL0     H40227   9.444   6.464  -0.164 -2.8255 -4.7202 -1.0569
  292MOL0     H40228   9.556   6.631  -0.010  0.3087  1.1967  2.5093
  292MOL0     H40229   9.577   6.763   0.227 -1.2541 -1.6670 -3.0305
  292MOL0     H40230   9.688   6.728   0.094 -1.4280  0.3047 -0.9215
  292MOL0     H40231   9.779   6.890   0.265  2.7525  0.9722  3.7811
  292MOL0     H40232   9.788   6.762   0.384 -1.2684  2.5379 -0.0868
  292MOL0     H40233   9.941   6.625   0.235  1.4223  0.4442  1.4643
  292MOL0     H40234   9.933   6.763   0.123 -1.1038  0.5673  0.7555
  292MOL0     H40235  10.034   6.907   0.287 -1.3226  0.3102  1.2842
  292MOL0     H40236  10.057   6.745   0.380  1.0631 -1.9600 -1.9097
  292MOL0     H40237  10.160   6.737   0.116  2.4573 -1.4208 -1.0130
  292MOL0     H40238  10.237   6.691   0.264 -0.9849  1.5873  2.3469
  292MOL0     H40239  10.246   6.955   0.121 -2.2632 -0.6720  2.0107
  292MOL0     H40240  10.284   6.943   0.296  2.1163 -1.0975  2.1043
  292MOL0     H40241  10.444   6.793   0.095  3.7430 -1.7570  1.9781
  292MOL0     H40242  10.440   6.779   0.268 -2.9799  0.5174  2.2997
  292MOL0     H40243  10.487   7.051   0.162 -1.8449 -1.8314 -2.9437
  292MOL0     H40244  10.547   6.961   0.314  1.6230  0.4720 -0.6604
  292MOL0     H40245  10.697   6.716   0.206 -0.0150  1.0952  1.1206
  292MOL0     H40246  10.974   6.659   0.132  3.0498  1.4015 -0.4060
  292MOL0     H40247  11.040   6.786   0.039 -0.8575  1.6380 -2.0744
  292MOL0     H40248  11.023   6.570  -0.071  0.4421 -1.1122 -0.4313
  292MOL0     H40249  10.838   6.580  -0.073  0.3043 -0.5152 -2.3070
  292MOL0     H40250  10.855   6.792  -0.202 -0.2978 -1.9966  2.6652
  292MOL0     H40251  11.018   6.748  -0.240 -0.5604  2.9704  0.9751
  292MOL0     H40252  10.762   6.608  -0.299  0.6935  0.6915  1.5832
  292MOL0     H40253  10.870   6.676  -0.423  0.7330 -0.8853 -1.0105
  292MOL0     H40254  11.103   6.684  -0.442  2.3263  1.1825 -0.5234
  292MOL0     H40255  11.274   6.774  -0.512 -1.0437 -2.6042  2.0467
  292MOL0     H40256  11.291   6.698  -0.668 -5.2109  3.3611  1.6086
  292MOL0     H40257  11.426   6.678  -0.547  2.1238  2.0500 -2.6097
  292MOL0     H40258  11.629   6.100  -0.560 -2.1816  1.7843 -0.7489
  292MOL0     H40259  11.841   6.054  -0.660 -0.5545 -0.8249  1.7526
  292MOL0     H40260  12.085   6.437  -0.784  1.5111 -0.3816 -0.6643
  292MOL0     H40261  12.141   6.399  -0.623  4.5227  1.7472 -1.8236
  292MOL0     H40262  12.292   6.232  -0.706  0.8414 -0.4345 -1.6632
  292MOL0     H40263  12.256   6.289  -0.876 -3.7282  3.6072 -1.6034
  292MOL0     H40264  12.368   6.460  -0.649 -2.6216  0.3925  0.2286
  292MOL0     H40265  12.304   6.522  -0.801 -1.6357 -0.0960  0.9458
  292MOL0     H40266  12.482   6.389  -0.914 -0.4338 -0.1245  0.0360
  292MOL0     H40267  12.545   6.309  -0.777  0.6446 -0.0492 -1.2852
  292MOL0     H40268  12.553   6.607  -0.791 -0.4300 -0.3928 -0.3220
  292MOL0     H40269  12.635   6.506  -0.676  5.9687  1.1467 -1.4012
  292MOL0     H40270  12.753   6.395  -0.889 -0.6087 -0.1715 -2.8100
  292MOL0     H40271  12.819   6.546  -0.827  0.9725 -0.1545 -1.5372
  292MOL0     H40272  12.625   6.520  -1.059 -2.2567  2.3242  0.2363
  292MOL0     H40273  12.798   6.551  -1.062 -0.5452 -0.9264  0.2233
  292MOL0     H40274  12.559   6.721  -0.970 -0.3050 -0.0462  1.3537
  292MOL0     H40275  12.669   6.758  -1.095  0.2945 -0.6036 -0.0331
  292MOL0     H40276  11.908   6.483  -0.673  1.3127  0.6077  2.9259
  292MOL0     H40277  11.689   6.521  -0.589 -2.2353 -1.9549  3.1784
  292MOL0     H40278  11.287   6.234  -0.425  3.9243  1.2570 -0.5501
  292MOL0     H40279  11.065   6.287  -0.309 -0.1597 -0.2192  0.0788
  292MOL0     H40280   9.569   6.337   0.293 -1.6159  0.9632  0.3092
  292MOL0     H40281   9.409   6.198   0.165  0.3473 -0.1382 -2.2023
  292MOL0     H40282   8.962   6.397  -0.081  1.3176 -1.2661  2.2318
  292MOL0     H40283   8.778   6.341  -0.227  1.4422  2.0401  0.5715
  292MOL0     H40284   8.840   6.062  -0.531 -1.2413  3.8758 -0.2114
  292MOL0     H40285   8.758   5.938  -0.452 -0.9568 -1.1978 -1.1110
  292MOL0     H40286   8.550   6.013  -0.521  1.3273 -1.5228  0.2693
  292MOL0     H40287   8.652   5.982  -0.658  1.1421 -0.8500 -0.0367
  292MOL0     H40288   8.709   6.249  -0.594 -1.0290  0.6226 -0.4169
  292MOL0     H40289   8.644   6.181  -0.742 -3.9218 -3.1105 -0.1749
  292MOL0     H40290   8.486   6.347  -0.593  0.2284  0.1182  0.6313
  292MOL0     H40291   8.458   6.205  -0.495  0.6787  1.1738  0.8304
  292MOL0     H40292   8.246   6.177  -0.870 -2.3696 -2.8164  1.7181
  292MOL0     H40293   8.950   5.964  -0.306 -0.7477  0.7874 -1.2515
  292MOL0     H40294   9.159   5.898  -0.197 -3.2664 -0.6179  0.7524
  292MOL0     H40295   9.261   6.029  -0.140  0.0156  1.3624 -1.6381
  292MOL0     H40296   9.141   5.958  -0.033  1.6287 -0.8031  0.2820
  293MOL0     O40297   7.821   2.148  10.357 -0.5755  0.4882  0.1507
  293MOL0     C40298   7.742   2.236  10.316  0.2320  0.0421 -0.3614
  293MOL0     O40299   7.750   2.305  10.198 -0.0086 -0.5141  0.2153
  293MOL0     C40300   7.873   2.308  10.137  0.7495 -0.6935  0.2153
  293MOL0     C40301   7.996   2.317  10.212 -1.2458 -0.0835 -0.1369
  293MOL0     C40302   8.107   2.333  10.135  0.2008 -0.2413 -0.5537
  293MOL0     C40303   8.108   2.322   9.999  0.7815 -1.0233 -0.3266
  293MOL0     O40304   8.218   2.357   9.934  0.2048  0.3831 -0.0133
  293MOL0     C40305   8.339   2.307   9.977  0.1266 -1.1456 -0.6715
  293MOL0     C40306   8.432   2.324   9.852 -0.8546 -0.3595  0.0521
  293MOL0     C40307   8.573   2.271   9.889 -0.1675  0.4565  0.1893
  293MOL0     C40308   8.572   2.136   9.963 -0.0140 -0.9370  0.3545
  293MOL0     C40309   8.711   2.076   9.969  0.0528  0.3004  0.1741
  293MOL0     C40310   8.690   1.949  10.049  0.4855 -0.9288 -0.0443
  293MOL0     C40311   8.802   1.847  10.058  0.1781  0.0530 -0.4632
  293MOL0     C40312   8.763   1.735  10.159  0.1801  0.1206  0.8139
  293MOL0     N40313   8.747   1.786  10.298  0.5693  0.4560  0.1068
  293MOL0     C40314   8.844   1.815  10.382 -0.0157 -0.3483  0.2640
  293MOL0     C40315   8.779   1.840  10.501 -0.8094  0.2523  0.6879
  293MOL0     C40316   8.835   1.875  10.640 -0.5469  0.9060  0.1190
  293MOL0     C40317   8.924   2.001  10.620 -0.2942 -0.3402  0.2912
  293MOL0     C40318   8.980   2.037  10.757 -0.0859 -0.6285 -0.7630
  293MOL0     C40319   9.104   2.127  10.740  1.6445 -0.3978  0.1294
  293MOL0     O40320   9.076   2.239  10.649 -0.7858 -0.1811  0.0152
  293MOL0     C40321   9.189   2.308  10.619  0.5654 -0.4399 -0.4492
  293MOL0     C40322   9.321   2.296  10.674  0.5458  0.4949 -0.1195
  293MOL0     C40323   9.437   2.359  10.621  1.0493 -0.5618 -1.1462
  293MOL0     C40324   9.565   2.307  10.677 -0.3037  0.7923  0.7424
  293MOL0     C40325   9.422   2.452  10.522  0.1301 -0.0446  0.2068
  293MOL0     C40326   9.542   2.514  10.462  0.7202 -0.3524  0.7640
  293MOL0     O40327   9.524   2.565  10.333 -0.0473 -0.0421  1.0533
  293MOL0     C40328   9.615   2.644  10.265  0.4756  0.0298  0.6238
  293MOL0     C40329   9.609   2.649  10.126 -0.1130  0.5861 -0.7750
  293MOL0     C40330   9.692   2.728  10.049 -1.1858  0.3729  0.2350
  293MOL0     C40331   9.796   2.800  10.107  0.1249  0.5004  0.2488
  293MOL0     O40332   9.899   2.865  10.046  0.1603 -0.0384 -0.2633
  293MOL0     C40333   9.961   2.808   9.932 -0.0770 -0.3407 -0.0542
  293MOL0     C40334  10.044   2.691   9.991  0.7092 -0.7101 -0.0078
  293MOL0     C40335  10.148   2.732  10.111  0.7691  0.1193  0.0785
  293MOL0     C40336  10.151   2.626  10.219 -0.5554 -0.2495 -0.2866
  293MOL0     C40337  10.262   2.640  10.317 -0.5929 -0.0667 -0.0638
  293MOL0     C40338  10.266   2.532  10.413 -0.3368 -0.5260 -0.6362
  293MOL0     C40339  10.400   2.541  10.491 -0.2002 -0.0968 -0.3583
  293MOL0     C40340  10.413   2.426  10.601  0.0530 -0.2524 -0.0500
  293MOL0    Cl40341  10.581   2.455  10.667  0.4084 -0.1312  0.1495
  293MOL0     C40342   9.795   2.806  10.247  0.0034 -0.3203  0.1911
  293MOL0     C40343   9.711   2.725  10.322  0.6185 -0.6286 -0.7854
  293MOL0     O40344   9.651   2.530  10.528 -0.6135  0.0958 -0.0848
  293MOL0     C40345   9.288   2.480  10.482 -0.4634  0.3416 -0.0991
  293MOL0     C40346   9.176   2.403  10.523  0.7878  0.3883  0.2086
  293MOL0     N40347   8.645   1.846  10.479  0.2542 -0.4649  0.0126
  293MOL0     N40348   8.630   1.813  10.356 -0.2240 -0.6437  0.5889
  293MOL0     C40349   7.987   2.318   9.934 -1.1572  0.6079  0.3950
  293MOL0     C40350   7.868   2.304   9.997 -0.1569 -1.2810  0.5205
  293MOL0     C40351   7.632   2.271  10.421  0.0588 -0.1690 -0.5432
  293MOL0     C40352   7.573   2.157  10.479  0.1188 -0.1681 -0.6965
  293MOL0     C40353   7.476   2.179  10.578 -0.5670  0.9369 -0.9523
  293MOL0     C40354   7.438   2.302  10.624  0.3266 -0.5239 -0.6766
  293MOL0     O40355   7.342   2.334  10.716  0.5589  0.3860 -0.2165
  293MOL0     C40356   7.278   2.233  10.797 -0.4174 -0.2329 -0.0265
  293MOL0     C40357   7.170   2.281  10.900  0.2216  0.1570 -0.2837
  293MOL0     C40358   7.215   2.408  10.983 -0.4271 -0.2044 -0.9864
  293MOL0     C40359   7.098   2.452  11.067  0.2370 -0.7247 -0.2524
  293MOL0     C40360   7.051   2.349  11.159 -0.7227 -0.4090 -0.5187
  293MOL0     C40361   7.012   2.264  11.232 -0.3689  0.3474  0.4614
  293MOL0     C40362   7.490   2.410  10.556 -1.0148 -1.3662  0.3683
  293MOL0     C40363   7.588   2.396  10.456  0.0472 -0.6714  0.4581
  293MOL0     C40364   7.651   2.516  10.393  0.7994  0.1507 -0.0624
  293MOL0     H40365   7.998   2.328  10.320 -0.3043 -1.2712 -0.0225
  293MOL0     H40366   8.202   2.344  10.186  0.9894 -0.8226 -1.8611
  293MOL0     H40367   8.326   2.206  10.016 -2.4908 -0.7430 -0.3274
  293MOL0     H40368   8.374   2.378  10.053 -1.0309  3.9069 -4.3165
  293MOL0     H40369   8.390   2.293   9.756  1.1582  1.7221 -1.6254
  293MOL0     H40370   8.444   2.431   9.832  4.6028 -0.3568  1.6375
  293MOL0     H40371   8.639   2.269   9.802 -1.0492  0.7371 -0.4988
  293MOL0     H40372   8.622   2.344   9.954 -0.0816  1.9404 -1.4823
  293MOL0     H40373   8.540   2.139  10.067 -0.5672 -1.1003  0.1924
  293MOL0     H40374   8.506   2.068   9.909 -1.3081  1.9109 -1.9747
  293MOL0     H40375   8.775   2.150  10.017 -0.2182  1.1087 -0.6821
  293MOL0     H40376   8.760   2.056   9.873 -2.5114  1.9498 -1.6106
  293MOL0     H40377   8.660   1.982  10.149 -0.2661 -1.4349 -0.0980
  293MOL0     H40378   8.618   1.883  10.000  0.9450 -1.4282 -0.0664
  293MOL0     H40379   8.897   1.886  10.095  0.1909  3.5557 -3.6248
  293MOL0     H40380   8.834   1.818   9.958  1.5036 -0.6430  0.1330
  293MOL0     H40381   8.673   1.686  10.121  1.1799 -1.8039  0.8327
  293MOL0     H40382   8.841   1.658  10.162 -0.7664 -0.9209 -0.4116
  293MOL0     H40383   8.951   1.810  10.365 -0.0585  1.8244 -0.9447
  293MOL0     H40384   8.880   1.789  10.689  0.4456  1.3960  0.0873
  293MOL0     H40385   8.744   1.900  10.695 -1.6062  1.0662 -1.6280
  293MOL0     H40386   9.012   1.985  10.557 -0.2592  0.6924  0.0569
  293MOL0     H40387   8.861   2.086  10.592 -0.4138 -0.6674 -0.4423
  293MOL0     H40388   8.907   2.085  10.822 -1.4205 -2.0063 -1.1781
  293MOL0     H40389   9.012   1.947  10.812  2.9685  0.7737 -0.0528
  293MOL0     H40390   9.139   2.155  10.840  1.2479 -2.5077  0.9032
  293MOL0     H40391   9.179   2.060  10.697  2.5164 -0.5971  1.8837
  293MOL0     H40392   9.344   2.227  10.754 -3.1658  0.8220  1.4491
  293MOL0     H40393   9.602   2.377  10.752  2.2648  2.5013 -1.9403
  293MOL0     H40394   9.650   2.293  10.610  0.2980 -0.0272  1.6395
  293MOL0     H40395   9.555   2.204  10.714 -0.5967 -0.0896 -1.6288
  293MOL0     H40396   9.529   2.594  10.076  0.8035 -1.2216 -0.3384
  293MOL0     H40397   9.680   2.725   9.941 -1.3821  0.6068  0.2487
  293MOL0     H40398   9.888   2.770   9.860 -3.2613 -0.4064  2.9513
  293MOL0     H40399  10.026   2.880   9.882 -1.5745  0.1162 -1.3966
  293MOL0     H40400   9.974   2.621  10.037  0.2165  0.6360  1.3607
  293MOL0     H40401  10.094   2.641   9.907  0.7786  0.9820 -1.0263
  293MOL0     H40402  10.116   2.826  10.157 -3.3878  0.0420 -2.2494
  293MOL0     H40403  10.244   2.756  10.064  0.0647  0.9898 -0.9705
  293MOL0     H40404  10.178   2.531  10.171 -1.7229 -1.2049  0.8568
  293MOL0     H40405  10.061   2.606  10.279  0.8522 -2.5725  1.2374
  293MOL0     H40406  10.355   2.644  10.259  1.1622 -1.4013  2.4437
  293MOL0     H40407  10.246   2.736  10.367  0.0561  1.4943 -2.6794
  293MOL0     H40408  10.264   2.435  10.363  1.3975 -0.2063 -1.3755
  293MOL0     H40409  10.189   2.544  10.490  2.5303  1.2118  2.2163
  293MOL0     H40410  10.404   2.640  10.537 -1.3186 -0.9183  1.6512
  293MOL0     H40411  10.489   2.527  10.429 -0.2456 -2.0619 -0.0582
  293MOL0     H40412  10.404   2.325  10.560 -2.1191 -0.5853  1.1188
  293MOL0     H40413  10.332   2.442  10.672 -0.1172  0.2790 -0.3609
  293MOL0     H40414   9.860   2.876  10.299 -0.4798  1.9709 -2.0889
  293MOL0     H40415   9.715   2.730  10.430  1.4488  0.5907 -0.8541
  293MOL0     H40416   9.289   2.558  10.406  3.4136  1.7195  1.1485
  293MOL0     H40417   9.085   2.428  10.469  1.7634  2.1115 -0.7122
  293MOL0     H40418   7.987   2.322   9.825 -0.3939 -1.4023  0.2699
  293MOL0     H40419   7.773   2.293   9.946 -1.5360  1.2471  2.2967
  293MOL0     H40420   7.604   2.057  10.449  0.1718 -1.4081  2.9813
  293MOL0     H40421   7.433   2.091  10.626 -0.3305  1.6127  0.5650
  293MOL0     H40422   7.241   2.152  10.733  1.8038 -0.9439 -0.4808
  293MOL0     H40423   7.359   2.187  10.855  0.8742  2.3643  0.3706
  293MOL0     H40424   7.150   2.194  10.964  0.5792 -0.3477 -0.8450
  293MOL0     H40425   7.087   2.306  10.833  0.1698  0.5827 -0.0648
  293MOL0     H40426   7.300   2.388  11.050 -1.0541 -4.7096 -1.2282
  293MOL0     H40427   7.237   2.491  10.915 -0.3541 -0.6626 -1.5309
  293MOL0     H40428   7.015   2.482  11.003 -0.5348 -2.3230 -0.0484
  293MOL0     H40429   7.129   2.538  11.128  0.7509  0.0700 -1.5798
  293MOL0     H40430   6.979   2.185  11.296 -0.3378 -1.0853 -1.2233
  293MOL0     H40431   7.458   2.511  10.581 -1.0470 -0.8255 -1.7245
  293MOL0     H40432   7.759   2.509  10.408  0.8795 -1.2590 -1.0737
  293MOL0     H40433   7.627   2.526  10.287 -1.8239  2.5421  0.6358
  293MOL0     H40434   7.612   2.605  10.444 -0.2736 -0.1125 -0.3779
  294MOL0     O40435  10.760   0.875   8.401  0.0293  0.1720 -0.0944
  294MOL0     C40436  10.826   0.882   8.503 -1.0171  0.3746  0.2958
  294MOL0     O40437  10.898   0.774   8.557  0.2569 -0.0716 -0.4467
  294MOL0     C40438  10.928   0.669   8.479 -0.0232  0.8568  0.2588
  294MOL0     C40439  10.930   0.665   8.338 -0.2964  0.0931  0.3988
  294MOL0     C40440  10.963   0.548   8.284 -0.3770  0.6041  0.1833
  294MOL0     C40441  11.015   0.428   8.347  0.6364  0.8094 -0.1720
  294MOL0     O40442  11.067   0.333   8.278  0.1479  0.0941  0.4826
  294MOL0     C40443  11.052   0.194   8.318  1.0320 -0.3307 -0.1067
  294MOL0     C40444  11.185   0.130   8.357 -0.3552 -0.4777  0.5461
  294MOL0     C40445  11.288   0.132   8.241 -0.3596 -0.8309 -0.8258
  294MOL0     C40446  11.415   0.058   8.295  0.7940 -0.7260 -0.2759
  294MOL0     C40447  11.528   0.098   8.187 -0.5452 -0.0474 -0.2571
  294MOL0     C40448  11.660   0.087   8.262 -0.3253 -0.0959 -0.0071
  294MOL0     C40449  11.781   0.104   8.169 -1.3026  0.0744 -0.5890
  294MOL0     C40450  11.912   0.082   8.253  0.0192 -0.4219 -0.1816
  294MOL0     N40451  11.940   0.202   8.340 -0.3093 -0.6791  0.7755
  294MOL0     C40452  12.025   0.307   8.307 -0.4051 -0.4781  0.5827
  294MOL0     C40453  11.992   0.407   8.395  0.3302 -0.3391 -0.1567
  294MOL0     C40454  12.052   0.545   8.397  0.0981  0.2768  0.1474
  294MOL0     C40455  12.199   0.551   8.452  0.1647 -0.3144  0.3348
  294MOL0     C40456  12.220   0.568   8.603  0.4842  0.4147 -0.8682
  294MOL0     C40457  12.141   0.461   8.677  0.9852 -0.5033  0.6029
  294MOL0     O40458  12.163   0.489   8.812  0.4653 -0.9763  0.1891
  294MOL0     C40459  12.270   0.436   8.887 -1.0477  0.0665  0.2432
  294MOL0     C40460  12.371   0.349   8.848 -0.2026  0.2530 -0.1565
  294MOL0     C40461  12.467   0.289   8.938 -0.4254 -0.5014 -0.2370
  294MOL0     C40462  12.578   0.212   8.873  0.4648 -0.0015  0.2581
  294MOL0     C40463  12.464   0.323   9.075  1.5285 -0.2238 -1.0994
  294MOL0     C40464  12.561   0.287   9.171  0.3262 -0.8880  0.8846
  294MOL0     O40465  12.586   0.148   9.169  0.2246 -0.1670 -0.3357
  294MOL0     C40466  12.692   0.091   9.237 -0.3462  0.1506  1.0152
  294MOL0     C40467  12.709  -0.050   9.264  0.6178  0.1800 -0.1747
  294MOL0     C40468  12.820  -0.099   9.327  0.1975  0.3294  0.6342
  294MOL0     C40469  12.932  -0.021   9.344 -0.2779 -0.2749  0.5908
  294MOL0     O40470  13.054  -0.071   9.396  0.0364  0.2172 -0.6394
  294MOL0     C40471  13.142  -0.122   9.298 -0.3572  0.2097 -0.0727
  294MOL0     C40472  13.111  -0.271   9.270 -0.1666  0.4869  0.2782
  294MOL0     C40473  13.104  -0.365   9.399 -0.4373 -0.5591  0.0448
  294MOL0     C40474  13.249  -0.363   9.465  0.0737 -0.4990 -0.5870
  294MOL0     C40475  13.271  -0.460   9.588  0.5713 -1.0284 -0.0004
  294MOL0     C40476  13.420  -0.492   9.604  0.5116  0.9551 -0.7860
  294MOL0     C40477  13.446  -0.549   9.748  0.4108 -0.3916  0.3959
  294MOL0     C40478  13.362  -0.677   9.788 -0.3475  0.1406 -0.2102
  294MOL0    Cl40479  13.404  -0.794   9.668 -0.0495 -0.0522 -0.3083
  294MOL0     C40480  12.922   0.113   9.312 -0.4318  0.1425 -0.3390
  294MOL0     C40481  12.810   0.162   9.251  0.4574 -0.3526  0.1141
  294MOL0     O40482  12.604   0.360   9.254  0.2389 -0.2717 -0.2950
  294MOL0     C40483  12.354   0.406   9.111 -0.2037  0.0998 -0.0258
  294MOL0     C40484  12.264   0.469   9.020  0.0295 -0.2513 -0.3126
  294MOL0     N40485  11.913   0.355   8.493  0.7307  0.8906 -0.1367
  294MOL0     N40486  11.886   0.230   8.460  0.4701 -0.6218  0.3189
  294MOL0     C40487  11.019   0.438   8.483 -0.4021 -0.5695  0.4156
  294MOL0     C40488  10.973   0.556   8.547 -0.3110  1.2443  0.7428
  294MOL0     C40489  10.815   1.021   8.566  0.2474  0.3949  0.3728
  294MOL0     C40490  10.741   1.114   8.495 -0.5684 -0.5655  0.7438
  294MOL0     C40491  10.713   1.237   8.564 -0.0809  0.3147  1.1734
  294MOL0     C40492  10.777   1.270   8.686 -0.9413  0.0048 -0.1354
  294MOL0     O40493  10.742   1.382   8.753 -0.4451  0.3883  0.0085
  294MOL0     C40494  10.602   1.377   8.802  0.3741  0.0024 -0.1972
  294MOL0     C40495  10.529   1.513   8.792  0.9015 -0.2465  0.3248
  294MOL0     C40496  10.583   1.616   8.894  0.7302 -0.9163 -0.0669
  294MOL0     C40497  10.490   1.740   8.910  0.1880 -1.0265  0.0876
  294MOL0     C40498  10.571   1.842   8.973 -0.3562  0.1320 -0.3675
  294MOL0     C40499  10.643   1.921   9.024 -0.6842 -0.4888  0.6197
  294MOL0     C40500  10.866   1.182   8.743  1.9740 -0.3207  0.6319
  294MOL0     C40501  10.884   1.059   8.683  0.0150  0.6651 -0.2486
  294MOL0     C40502  10.966   0.963   8.769  0.3890  0.4701  0.5764
  294MOL0     H40503  10.896   0.743   8.271 -1.5934 -0.5294  0.3158
  294MOL0     H40504  10.969   0.536   8.176 -2.3700 -0.8596  0.1694
  294MOL0     H40505  11.016   0.140   8.230 -1.2377  2.4893 -1.0540
  294MOL0     H40506  10.975   0.181   8.394  0.6998 -0.4122 -0.4574
  294MOL0     H40507  11.218   0.186   8.444 -0.1738 -1.7705  1.3407
  294MOL0     H40508  11.183   0.026   8.393  5.8500 -0.1505  3.0863
  294MOL0     H40509  11.242   0.080   8.156 -1.6919 -0.5306 -0.3179
  294MOL0     H40510  11.305   0.239   8.231 -3.0340 -0.1006  0.9892
  294MOL0     H40511  11.443   0.093   8.394  1.2825  2.0307 -1.3148
  294MOL0     H40512  11.406  -0.051   8.298  0.9522 -0.7308 -0.0426
  294MOL0     H40513  11.525   0.191   8.129  1.7337 -1.3966 -2.7747
  294MOL0     H40514  11.538   0.020   8.112  2.6267  0.2574 -0.3172
  294MOL0     H40515  11.666   0.159   8.344  1.8512 -0.4783  0.2418
  294MOL0     H40516  11.678  -0.007   8.315  0.3318 -0.3225 -0.6067
  294MOL0     H40517  11.791   0.206   8.131 -0.4176  0.9675  1.7939
  294MOL0     H40518  11.783   0.036   8.084 -1.0220  0.5409 -0.9607
  294MOL0     H40519  11.898  -0.011   8.309 -0.5631 -1.1082 -1.4205
  294MOL0     H40520  11.992   0.049   8.186 -1.1697 -2.2731 -0.7789
  294MOL0     H40521  12.101   0.304   8.229 -0.0387 -3.2173  0.9548
  294MOL0     H40522  11.994   0.614   8.459 -0.0853 -0.8959  1.3400
  294MOL0     H40523  12.048   0.575   8.292 -1.1367 -0.9054 -0.1779
  294MOL0     H40524  12.256   0.472   8.402 -1.2147 -0.8764 -0.4265
  294MOL0     H40525  12.238   0.648   8.420 -1.2298  0.3971  0.6736
  294MOL0     H40526  12.326   0.553   8.626 -0.5586 -2.6905  2.9992
  294MOL0     H40527  12.191   0.669   8.635 -1.0368 -0.2353 -0.0883
  294MOL0     H40528  12.035   0.478   8.658  0.8705 -0.0909  1.5802
  294MOL0     H40529  12.165   0.361   8.640  0.1319 -0.5603  0.1850
  294MOL0     H40530  12.390   0.322   8.744  1.6855 -1.7500  0.6409
  294MOL0     H40531  12.628   0.270   8.794 -2.1690  0.3869 -1.2669
  294MOL0     H40532  12.541   0.122   8.822  1.3115  0.3567 -1.0318
  294MOL0     H40533  12.663   0.192   8.938  0.1217 -0.1254  0.6738
  294MOL0     H40534  12.632  -0.117   9.227  0.2471  0.2826  0.3947
  294MOL0     H40535  12.825  -0.204   9.354  1.7469 -0.8349 -3.4337
  294MOL0     H40536  13.126  -0.071   9.202  2.3922  0.2184 -0.6151
  294MOL0     H40537  13.245  -0.105   9.331  0.4030  4.5034 -3.6969
  294MOL0     H40538  13.018  -0.288   9.215 -1.4326  1.5597  2.0133
  294MOL0     H40539  13.184  -0.312   9.199  0.3224 -1.7458  1.9284
  294MOL0     H40540  13.099  -0.469   9.366  0.0631 -0.7876  0.6547
  294MOL0     H40541  13.021  -0.335   9.464 -0.8227  0.4823 -0.8927
  294MOL0     H40542  13.261  -0.260   9.498 -3.0252 -0.4339  0.6907
  294MOL0     H40543  13.325  -0.396   9.393  0.5240  0.4411 -0.5551
  294MOL0     H40544  13.224  -0.418   9.677 -0.2268 -1.6353 -0.1257
  294MOL0     H40545  13.207  -0.547   9.570 -0.7369  0.3153 -2.2225
  294MOL0     H40546  13.467  -0.394   9.591 -0.3304  2.4056  4.6272
  294MOL0     H40547  13.446  -0.565   9.527 -0.2848 -0.1139 -0.0753
  294MOL0     H40548  13.400  -0.477   9.816  0.5321  2.5208 -2.3669
  294MOL0     H40549  13.550  -0.570   9.774  0.3460 -1.8344 -0.3840
  294MOL0     H40550  13.254  -0.658   9.784 -0.2795  0.5891  0.0194
  294MOL0     H40551  13.379  -0.714   9.890  0.2062  0.4340 -0.1907
  294MOL0     H40552  13.019   0.160   9.321 -0.6727  0.2311  2.9503
  294MOL0     H40553  12.822   0.262   9.213 -0.6858  0.5469  1.9688
  294MOL0     H40554  12.352   0.417   9.219  0.1619  1.1441 -0.1163
  294MOL0     H40555  12.189   0.539   9.057  0.8170 -0.7601  2.3900
  294MOL0     H40556  11.066   0.361   8.543  0.9518  0.2925  0.4975
  294MOL0     H40557  10.983   0.553   8.655 -0.8303 -1.7810  0.7983
  294MOL0     H40558  10.699   1.112   8.395 -1.6837 -0.8689  1.2000
  294MOL0     H40559  10.666   1.321   8.514  0.6200 -0.2683 -0.5553
  294MOL0     H40560  10.529   1.312   8.752 -0.0277  0.8285 -0.6958
  294MOL0     H40561  10.604   1.339   8.905  1.5682  0.3086 -0.0966
  294MOL0     H40562  10.428   1.488   8.827  0.2749  2.5217  0.6877
  294MOL0     H40563  10.519   1.546   8.688  0.1171 -0.3679  0.3589
  294MOL0     H40564  10.604   1.583   8.996  0.0919  1.5080  0.9043
  294MOL0     H40565  10.676   1.652   8.848 -0.8602  1.7112 -1.4262
  294MOL0     H40566  10.398   1.714   8.964  0.4837 -0.8691  0.6755
  294MOL0     H40567  10.446   1.787   8.822  0.1280  0.7389  1.0287
  294MOL0     H40568  10.707   1.999   9.059 -1.3078  0.7549 -0.9077
  294MOL0     H40569  10.912   1.216   8.835  0.8243  1.4865  0.5939
  294MOL0     H40570  11.021   0.889   8.711 -0.2271  0.0968  0.4646
  294MOL0     H40571  11.046   1.026   8.809  1.3551 -0.6651  0.4808
  294MOL0     H40572  10.907   0.918   8.849 -2.7162  3.7516  0.4034
  295MOL0     O40573   0.347   6.535  10.241  0.3090 -0.0222 -0.3684
  295MOL0     C40574   0.360   6.460  10.335 -0.0222  0.3005 -1.3389
  295MOL0     O40575   0.480   6.420  10.400  0.3002  0.3464 -0.0391
  295MOL0     C40576   0.595   6.487  10.363  0.4728  0.4946 -0.4730
  295MOL0     C40577   0.662   6.565  10.453 -0.7599 -0.6946 -0.0474
  295MOL0     C40578   0.788   6.620  10.421 -0.8307 -0.0483 -0.0283
  295MOL0     C40579   0.840   6.599  10.296 -0.5830  0.3359  0.8626
  295MOL0     O40580   0.967   6.638  10.274 -0.2523 -0.0353 -0.1271
  295MOL0     C40581   1.010   6.702  10.154 -0.3862 -0.0739  0.3630
  295MOL0     C40582   1.167   6.704  10.140 -0.2553  0.7504  0.5736
  295MOL0     C40583   1.245   6.568  10.156  0.6966 -0.2613 -0.6420
  295MOL0     C40584   1.212   6.467  10.038 -0.3731 -0.2719 -0.9401
  295MOL0     C40585   1.302   6.338  10.061 -0.3516  0.0404  1.0401
  295MOL0     C40586   1.272   6.203   9.976  0.6039 -0.4249 -0.3263
  295MOL0     C40587   1.392   6.138   9.912 -0.7339 -0.8345  0.7520
  295MOL0     C40588   1.340   6.024   9.840  0.6577  0.0634 -0.1465
  295MOL0     N40589   1.451   5.965   9.762 -0.4958  0.1168 -0.8993
  295MOL0     C40590   1.509   6.016   9.645 -0.3099 -0.6380 -0.0351
  295MOL0     C40591   1.603   5.927   9.614 -0.6692  0.2420  0.3146
  295MOL0     C40592   1.704   5.931   9.492  0.3711 -0.1558 -1.1622
  295MOL0     C40593   1.811   6.035   9.524 -0.6419 -0.1406  0.3079
  295MOL0     C40594   1.884   6.077   9.400 -0.8883 -0.2113  0.5409
  295MOL0     C40595   1.963   6.211   9.431  0.3178 -0.6974 -0.8434
  295MOL0     O40596   2.053   6.208   9.543 -0.0466  0.1430  0.6019
  295MOL0     C40597   2.174   6.157   9.536 -0.0679  0.4893  0.2356
  295MOL0     C40598   2.236   6.128   9.655 -1.4363 -0.5872 -0.1211
  295MOL0     C40599   2.367   6.075   9.655 -0.0325 -1.7263 -0.2234
  295MOL0     C40600   2.430   6.039   9.785  0.3701  0.1008 -0.8529
  295MOL0     C40601   2.441   6.053   9.539  0.6457  0.2063 -0.4795
  295MOL0     C40602   2.578   5.984   9.531  0.2293  0.1781  0.2247
  295MOL0     O40603   2.640   6.032   9.419 -0.0193  0.3355 -0.1814
  295MOL0     C40604   2.774   6.044   9.414 -0.5158 -0.2768  0.7127
  295MOL0     C40605   2.821   6.081   9.285  0.1550 -0.1393 -0.4942
  295MOL0     C40606   2.961   6.099   9.261 -0.1831 -0.3583 -0.5224
  295MOL0     C40607   3.051   6.086   9.374 -1.5879  1.0312 -0.1572
  295MOL0     O40608   3.191   6.090   9.364  0.3864 -0.0484  0.1373
  295MOL0     C40609   3.263   6.100   9.243  0.4768  0.3949 -0.9147
  295MOL0     C40610   3.410   6.135   9.256 -0.1620 -0.1925 -0.2617
  295MOL0     C40611   3.489   6.063   9.369 -0.2278 -0.1466 -0.2907
  295MOL0     C40612   3.640   6.078   9.356 -1.1286  0.3311 -0.7585
  295MOL0     C40613   3.706   5.968   9.285 -0.3217  0.5108  0.1929
  295MOL0     C40614   3.858   5.987   9.300 -0.5793 -0.0266 -0.3587
  295MOL0     C40615   3.931   5.860   9.245 -0.4786 -0.5062  0.1414
  295MOL0     C40616   4.086   5.877   9.259 -0.1100  0.0568  0.4242
  295MOL0    Cl40617   4.168   5.712   9.269  0.0163  0.1809  0.2641
  295MOL0     C40618   2.994   6.051   9.497 -0.7396 -0.6058  0.3842
  295MOL0     C40619   2.863   6.027   9.515 -0.0794 -0.0741  0.6128
  295MOL0     O40620   2.630   5.912   9.617  0.8064 -0.1120 -0.0656
  295MOL0     C40621   2.370   6.087   9.419  0.0352 -0.5387 -0.4849
  295MOL0     C40622   2.233   6.121   9.410 -0.0994 -1.2291  0.4107
  295MOL0     N40623   1.597   5.818   9.705  0.0159  0.4212  0.0802
  295MOL0     N40624   1.499   5.837   9.789 -0.1034  0.0018  0.0826
  295MOL0     C40625   0.771   6.524  10.198  0.3085  0.1463  1.6955
  295MOL0     C40626   0.650   6.466  10.237 -0.8546  0.3366  0.7194
  295MOL0     C40627   0.231   6.392  10.381  0.6798 -0.7553  0.5360
  295MOL0     C40628   0.246   6.288  10.479  0.2095  0.4795  0.0524
  295MOL0     C40629   0.136   6.224  10.529  0.0091  0.3021 -0.9999
  295MOL0     C40630   0.007   6.260  10.500  0.2606  0.1063  0.0845
  295MOL0     O40631  -0.110   6.194  10.537 -0.3532  0.0800 -0.0241
  295MOL0     C40632  -0.105   6.081  10.623  0.1270  0.1801 -0.1206
  295MOL0     C40633  -0.086   5.943  10.559  0.1512 -0.0422  0.6295
  295MOL0     C40634  -0.195   5.936  10.448 -0.1108  1.6508  0.1692
  295MOL0     C40635  -0.199   5.805  10.370 -0.0747 -0.5672 -0.5815
  295MOL0     C40636  -0.088   5.776  10.286 -0.7220 -0.1532  0.1913
  295MOL0     C40637   0.004   5.763  10.215  0.2858  0.4908 -0.0341
  295MOL0     C40638  -0.008   6.355  10.399  0.9651 -0.2429 -0.6744
  295MOL0     C40639   0.096   6.425  10.346 -0.0936  0.6230 -0.2105
  295MOL0     C40640   0.068   6.528  10.235  0.3040  0.2573  0.7879
  295MOL0     H40641   0.627   6.586  10.554 -0.9094  1.6938 -0.5305
  295MOL0     H40642   0.847   6.691  10.479 -0.3368  0.0986 -0.6950
  295MOL0     H40643   0.975   6.806  10.153 -1.7946 -0.4925 -2.1348
  295MOL0     H40644   0.979   6.643  10.067  1.2303 -0.7556  0.2250
  295MOL0     H40645   1.190   6.723  10.035 -1.5035 -2.2075 -0.3271
  295MOL0     H40646   1.222   6.770  10.208  0.1860  2.7163 -1.5460
  295MOL0     H40647   1.350   6.590  10.136  0.8226 -1.1395 -0.9752
  295MOL0     H40648   1.223   6.521  10.252  2.8865 -0.3802 -0.1586
  295MOL0     H40649   1.109   6.440  10.060  0.0663 -0.8657  0.5182
  295MOL0     H40650   1.212   6.520   9.942  0.3152  2.3270  0.4081
  295MOL0     H40651   1.291   6.314  10.167  1.1449 -1.2975  0.9361
  295MOL0     H40652   1.408   6.364  10.051 -0.1887  0.2773  3.0229
  295MOL0     H40653   1.212   6.134  10.036  0.8127 -2.1001 -1.9539
  295MOL0     H40654   1.204   6.253   9.908  0.2782  2.6066  2.0228
  295MOL0     H40655   1.466   6.101   9.983 -0.1876 -2.0081 -0.3982
  295MOL0     H40656   1.444   6.203   9.840 -1.6894 -2.8454 -1.9443
  295MOL0     H40657   1.293   5.952   9.908 -1.6868  1.9655  0.4056
  295MOL0     H40658   1.263   6.064   9.772  1.7812  2.3597 -0.1611
  295MOL0     H40659   1.494   6.113   9.599  3.3678  0.2400  0.3145
  295MOL0     H40660   1.648   5.959   9.402  0.9990  2.0201 -0.9276
  295MOL0     H40661   1.755   5.835   9.478 -0.2089 -0.5345 -0.7283
  295MOL0     H40662   1.772   6.122   9.578  0.5544  0.5104  0.1536
  295MOL0     H40663   1.883   5.993   9.594 -0.9953  2.3980  2.3319
  295MOL0     H40664   1.960   6.002   9.377 -0.4967  1.4138 -4.8988
  295MOL0     H40665   1.826   6.116   9.317  2.8721  3.3194 -0.7777
  295MOL0     H40666   2.032   6.245   9.354  1.3390 -0.4475  0.1489
  295MOL0     H40667   1.886   6.288   9.440 -3.2380 -4.0474 -0.0990
  295MOL0     H40668   2.189   6.157   9.749  0.0895 -1.3246  0.9158
  295MOL0     H40669   2.410   5.933   9.800 -0.8670  0.5934  1.4661
  295MOL0     H40670   2.371   6.079   9.868 -1.4400 -0.9277 -1.5988
  295MOL0     H40671   2.533   6.076   9.790  0.3975  0.0020 -0.6636
  295MOL0     H40672   2.755   6.085   9.199  1.2380  3.8478 -1.3404
  295MOL0     H40673   2.997   6.128   9.163 -0.8272  2.4490  0.0013
  295MOL0     H40674   3.259   6.004   9.190 -2.7348  0.1092 -0.3896
  295MOL0     H40675   3.227   6.169   9.166  1.0716 -0.9904 -2.4846
  295MOL0     H40676   3.454   6.114   9.157  1.4494  1.4387  0.0328
  295MOL0     H40677   3.420   6.241   9.282 -0.5085 -0.3650  0.5864
  295MOL0     H40678   3.475   5.956   9.385 -0.8302  0.0744  0.7896
  295MOL0     H40679   3.469   6.120   9.460  4.1008  0.7566  0.2920
  295MOL0     H40680   3.692   6.081   9.452  0.1231 -2.9288 -1.1871
  295MOL0     H40681   3.662   6.172   9.305  0.9385  0.7644  0.8143
  295MOL0     H40682   3.687   5.869   9.326  0.1914 -0.7359 -2.3764
  295MOL0     H40683   3.671   5.957   9.182  4.2064  0.5206 -1.5615
  295MOL0     H40684   3.882   6.010   9.404  1.1167  0.6897 -0.8670
  295MOL0     H40685   3.885   6.079   9.247 -1.9163  1.0754  0.7885
  295MOL0     H40686   3.905   5.838   9.142  3.1702  1.9638 -1.5283
  295MOL0     H40687   3.897   5.777   9.307  2.1972 -2.3567 -0.6792
  295MOL0     H40688   4.103   5.935   9.350 -1.2932  2.4729 -0.7866
  295MOL0     H40689   4.132   5.928   9.174 -0.6011  0.2090  0.2455
  295MOL0     H40690   3.060   6.035   9.582 -0.2117 -0.5361 -0.0117
  295MOL0     H40691   2.827   6.006   9.616 -3.9287  2.8611  0.0888
  295MOL0     H40692   2.414   6.067   9.322 -1.3960  0.1465 -1.3185
  295MOL0     H40693   2.198   6.138   9.309  2.7426 -0.7256 -0.5921
  295MOL0     H40694   0.795   6.525  10.092 -1.1159 -2.7302  1.2267
  295MOL0     H40695   0.590   6.407  10.168 -1.0874 -1.8525  2.6531
  295MOL0     H40696   0.345   6.251  10.500  1.7782  2.2241 -3.4539
  295MOL0     H40697   0.148   6.139  10.595  0.7989  1.1934  0.0365
  295MOL0     H40698  -0.030   6.101  10.700  1.3633  2.5837 -1.8447
  295MOL0     H40699  -0.205   6.089  10.666 -0.6139 -0.7613 -1.5888
  295MOL0     H40700  -0.115   5.870  10.636 -0.7820 -2.1684 -1.6152
  295MOL0     H40701   0.016   5.928  10.523  0.1539 -2.2541  1.3770
  295MOL0     H40702  -0.297   5.956  10.483 -0.7347  0.6607 -1.0038
  295MOL0     H40703  -0.180   6.019  10.378 -0.5070 -1.0452 -3.3709
  295MOL0     H40704  -0.299   5.809  10.326 -1.2489  0.8570  1.9777
  295MOL0     H40705  -0.209   5.727  10.446 -1.0239 -0.1413 -0.2551
  295MOL0     H40706   0.085   5.748  10.146 -1.0168  1.0992 -1.7905
  295MOL0     H40707  -0.112   6.378  10.377  1.1168  0.5776 -0.6028
  295MOL0     H40708  -0.034   6.566  10.226  1.4592  3.5548  0.3763
  295MOL0     H40709   0.121   6.621  10.256 -1.5888  1.4705  0.4916
  295MOL0     H40710   0.091   6.488  10.136 -2.3181  1.2171 -0.3146
  296MOL0     O40711   2.184   4.769   5.304 -0.3935  0.9809  0.0218
  296MOL0     C40712   2.074   4.718   5.275 -0.2070 -0.6092  0.5675
  296MOL0     O40713   2.047   4.585   5.283 -0.1232  0.4151 -1.5138
  296MOL0     C40714   2.157   4.497   5.302  0.7053 -0.0733  0.8827
  296MOL0     C40715   2.279   4.514   5.233 -0.1261 -0.3410 -0.5204
  296MOL0     C40716   2.385   4.419   5.251  0.3386  0.6171  1.4325
  296MOL0     C40717   2.375   4.318   5.346  0.2979 -0.5112 -1.1010
  296MOL0     O40718   2.478   4.226   5.371  0.1954  0.0903 -0.2092
  296MOL0     C40719   2.556   4.184   5.260  0.2811 -1.1348 -0.0388
  296MOL0     C40720   2.644   4.063   5.289  0.1353  0.1987 -0.9124
  296MOL0     C40721   2.572   3.935   5.305  0.5569 -1.1019 -0.2496
  296MOL0     C40722   2.674   3.824   5.344  0.2115  0.5125 -0.0035
  296MOL0     C40723   2.604   3.715   5.425 -0.4045  0.1706  0.4076
  296MOL0     C40724   2.717   3.634   5.493  0.0236 -0.7334 -0.0189
  296MOL0     C40725   2.641   3.544   5.589  0.5475  0.1166 -0.1098
  296MOL0     C40726   2.741   3.442   5.646  0.2726 -0.0201  0.1925
  296MOL0     N40727   2.823   3.363   5.554  0.2587  0.2256 -0.2429
  296MOL0     C40728   2.882   3.250   5.587  0.5694 -0.0396  0.0236
  296MOL0     C40729   2.929   3.187   5.477 -0.0911 -0.3840 -0.0566
  296MOL0     C40730   3.007   3.060   5.468  0.6083  0.4620 -0.3717
  296MOL0     C40731   3.150   3.085   5.468 -0.2428 -0.8408 -0.8177
  296MOL0     C40732   3.195   3.101   5.612 -0.2234  0.1039  0.0120
  296MOL0     C40733   3.332   3.148   5.616 -1.2169 -0.3202 -0.2059
  296MOL0     O40734   3.423   3.038   5.586 -0.0427 -0.2001 -0.5885
  296MOL0     C40735   3.556   3.055   5.624  0.3076  0.4064  1.3896
  296MOL0     C40736   3.618   2.956   5.705  1.0870 -0.2065  0.4518
  296MOL0     C40737   3.747   2.979   5.750  0.0064  0.5244 -0.8277
  296MOL0     C40738   3.792   2.863   5.835 -0.3077  0.2941  0.0353
  296MOL0     C40739   3.828   3.087   5.716 -0.2754 -0.4741  0.5060
  296MOL0     C40740   3.964   3.107   5.749 -0.2872  0.3072 -0.1139
  296MOL0     O40741   4.042   3.213   5.693  0.1678 -0.2573  0.3469
  296MOL0     C40742   4.170   3.248   5.732  0.0146 -0.3104 -0.2245
  296MOL0     C40743   4.208   3.247   5.863 -1.2071 -0.0841  0.2018
  296MOL0     C40744   4.333   3.276   5.908 -1.5705 -0.3907  0.4525
  296MOL0     C40745   4.436   3.297   5.810  0.0862 -0.1844 -0.3901
  296MOL0     O40746   4.558   3.346   5.854 -0.1352 -0.6555 -0.1224
  296MOL0     C40747   4.566   3.495   5.873 -0.3544  0.7476  0.9406
  296MOL0     C40748   4.579   3.578   5.740  0.1293  0.9855  0.5558
  296MOL0     C40749   4.712   3.538   5.662  0.8802 -0.3503 -1.1613
  296MOL0     C40750   4.771   3.655   5.589 -0.0060  0.0561 -0.0565
  296MOL0     C40751   4.895   3.610   5.505  0.1099 -0.1840  0.1335
  296MOL0     C40752   4.932   3.710   5.391  0.4778  0.2928 -0.0559
  296MOL0     C40753   5.055   3.662   5.315  0.3188  0.3855 -0.1053
  296MOL0     C40754   5.099   3.747   5.188  0.5552  0.8864 -1.8261
  296MOL0    Cl40755   5.267   3.687   5.154  0.6528 -0.1552 -0.2250
  296MOL0     C40756   4.403   3.298   5.668  0.6357 -0.4284 -0.3708
  296MOL0     C40757   4.269   3.268   5.632 -0.0305  0.2387  0.3025
  296MOL0     O40758   4.010   3.024   5.827  0.1779 -0.1337  0.3371
  296MOL0     C40759   3.769   3.187   5.640 -0.6083  0.3748 -0.5937
  296MOL0     C40760   3.632   3.167   5.594 -1.0872 -0.1536 -0.0356
  296MOL0     N40761   2.903   3.276   5.381  0.4859 -0.6177 -0.7256
  296MOL0     N40762   2.831   3.374   5.420 -0.4953 -0.1535 -0.0470
  296MOL0     C40763   2.256   4.298   5.411 -0.0278 -0.5876 -0.6362
  296MOL0     C40764   2.155   4.397   5.397 -0.5034 -0.6955 -0.1860
  296MOL0     C40765   1.969   4.812   5.254  0.2232 -0.3187  0.9119
  296MOL0     C40766   1.837   4.771   5.274 -0.0922  0.0681  0.5722
  296MOL0     C40767   1.730   4.862   5.268  0.2478  1.4204 -0.9068
  296MOL0     C40768   1.747   4.987   5.220 -0.0433  0.2668 -0.4731
  296MOL0     O40769   1.636   5.072   5.205  0.2200  0.0414  0.3239
  296MOL0     C40770   1.646   5.197   5.137 -0.0224  0.0954  0.6550
  296MOL0     C40771   1.511   5.262   5.137  0.4922  0.8022 -0.6161
  296MOL0     C40772   1.404   5.188   5.064 -0.1639  0.0994  0.4936
  296MOL0     C40773   1.421   5.193   4.909  0.0512  0.4425 -0.2276
  296MOL0     C40774   1.320   5.107   4.826  0.0899  0.1432  0.6958
  296MOL0     C40775   1.236   5.043   4.755 -0.1279 -0.4942 -0.2626
  296MOL0     C40776   1.877   5.029   5.190  0.6332  0.5272  0.2430
  296MOL0     C40777   1.989   4.953   5.215 -0.2751  0.0974  0.1000
  296MOL0     C40778   2.129   5.000   5.165 -0.0569 -0.3314  0.0478
  296MOL0     H40779   2.306   4.598   5.170 -1.8860 -0.0391 -0.9046
  296MOL0     H40780   2.478   4.418   5.193 -0.8929 -2.6621 -0.7990
  296MOL0     H40781   2.618   4.264   5.217 -0.1885 -1.8571 -2.1995
  296MOL0     H40782   2.490   4.164   5.175  0.2377  0.7290 -0.4979
  296MOL0     H40783   2.723   4.056   5.213  3.5945 -0.1120  2.3814
  296MOL0     H40784   2.701   4.089   5.379  1.2585 -1.9929 -0.9150
  296MOL0     H40785   2.500   3.935   5.388  3.6659 -3.1964  2.6808
  296MOL0     H40786   2.520   3.915   5.211 -0.3558  2.0485 -0.5546
  296MOL0     H40787   2.715   3.778   5.253 -2.1871 -0.5724 -0.6169
  296MOL0     H40788   2.758   3.864   5.402  1.5312 -0.5032 -1.1470
  296MOL0     H40789   2.542   3.647   5.366 -0.7758 -0.7298  1.7825
  296MOL0     H40790   2.538   3.767   5.495 -1.7861  3.0188 -2.7478
  296MOL0     H40791   2.773   3.591   5.410 -1.4918  0.2495 -1.6151
  296MOL0     H40792   2.776   3.703   5.554 -0.1205  0.2675 -0.9842
  296MOL0     H40793   2.568   3.479   5.540  1.1862  2.7762 -5.1725
  296MOL0     H40794   2.585   3.600   5.665 -2.9169 -1.8763 -0.9829
  296MOL0     H40795   2.805   3.505   5.707  4.2954 -2.1133 -1.4975
  296MOL0     H40796   2.687   3.383   5.721  1.0287 -0.9313  0.0380
  296MOL0     H40797   2.896   3.214   5.688  0.1459  1.0040  0.4729
  296MOL0     H40798   2.980   3.013   5.373  2.1580 -1.0820 -0.1027
  296MOL0     H40799   2.985   2.987   5.547 -1.7077 -3.3993 -4.1818
  296MOL0     H40800   3.195   2.996   5.424  3.3691  0.0984  0.6466
  296MOL0     H40801   3.182   3.168   5.404  1.2821  0.7236  1.7986
  296MOL0     H40802   3.134   3.182   5.653  0.0181  0.4203 -0.2517
  296MOL0     H40803   3.192   3.007   5.668  1.0852  0.4448  0.7200
  296MOL0     H40804   3.353   3.225   5.542  2.5222  0.0695  1.0369
  296MOL0     H40805   3.354   3.200   5.710 -2.3278  3.3799 -1.8347
  296MOL0     H40806   3.559   2.871   5.736 -0.8557  0.8047 -0.3395
  296MOL0     H40807   3.844   2.895   5.926 -2.0997 -0.5589  1.4021
  296MOL0     H40808   3.866   2.800   5.783 -1.6868  0.3337 -2.0977
  296MOL0     H40809   3.721   2.785   5.862 -1.6964  1.5581  0.1351
  296MOL0     H40810   4.144   3.208   5.941 -0.0982 -1.1317  0.6260
  296MOL0     H40811   4.364   3.286   6.012  3.3020 -3.0863 -0.4239
  296MOL0     H40812   4.484   3.533   5.934  0.5607 -0.6189  3.1693
  296MOL0     H40813   4.651   3.519   5.938 -0.7863 -0.6106  2.0751
  296MOL0     H40814   4.490   3.563   5.679  2.1356 -2.2546 -1.8984
  296MOL0     H40815   4.585   3.683   5.771  2.0745  0.7981  0.9670
  296MOL0     H40816   4.682   3.456   5.596 -2.5006 -0.7662  0.6876
  296MOL0     H40817   4.784   3.486   5.726  1.5886 -3.3573 -4.0989
  296MOL0     H40818   4.797   3.737   5.657  1.6533 -0.9358  0.5638
  296MOL0     H40819   4.707   3.701   5.513  1.5800  2.3347 -0.0969
  296MOL0     H40820   4.987   3.609   5.564  0.8819  1.8859 -0.9563
  296MOL0     H40821   4.873   3.519   5.449 -1.7724  0.2629  0.0998
  296MOL0     H40822   4.944   3.810   5.433 -2.5530  0.4121  0.7449
  296MOL0     H40823   4.861   3.716   5.309  2.1130  0.6544 -1.5089
  296MOL0     H40824   5.045   3.555   5.295 -1.0039  0.7106 -1.3896
  296MOL0     H40825   5.134   3.667   5.391  0.4614 -0.6241 -0.1725
  296MOL0     H40826   5.085   3.854   5.210  0.3571  0.2452  1.8120
  296MOL0     H40827   5.027   3.719   5.110  0.0986 -1.8946 -0.5088
  296MOL0     H40828   4.482   3.313   5.595  0.8097 -1.9959 -0.5363
  296MOL0     H40829   4.247   3.268   5.525  0.7822 -0.2267  0.1266
  296MOL0     H40830   3.825   3.274   5.607  2.7732 -1.3537  0.1348
  296MOL0     H40831   3.588   3.242   5.529 -2.4208 -2.3905 -1.8424
  296MOL0     H40832   2.251   4.209   5.473  1.5715 -0.3231 -0.1070
  296MOL0     H40833   2.070   4.382   5.463 -0.2420  4.5628  1.8219
  296MOL0     H40834   1.814   4.670   5.306 -2.2057  1.2222  3.1817
  296MOL0     H40835   1.629   4.828   5.290  0.6072 -0.5127 -2.0000
  296MOL0     H40836   1.719   5.269   5.175 -1.4549  2.0547 -0.1401
  296MOL0     H40837   1.677   5.177   5.034  1.5161  1.0899  0.9024
  296MOL0     H40838   1.525   5.367   5.109  0.3246  0.8837 -0.3960
  296MOL0     H40839   1.477   5.263   5.241 -0.5304 -1.8238 -0.8706
  296MOL0     H40840   1.393   5.082   5.085 -0.7571 -0.9590 -4.0661
  296MOL0     H40841   1.303   5.223   5.087 -0.4768  0.2849 -1.0274
  296MOL0     H40842   1.525   5.171   4.883  0.1905  2.5629 -1.8327
  296MOL0     H40843   1.404   5.295   4.871  1.5304  2.1018  3.0848
  296MOL0     H40844   1.161   4.999   4.692  0.0119  0.6806 -1.2938
  296MOL0     H40845   1.900   5.127   5.151  0.0119  1.2465  1.6200
  296MOL0     H40846   2.185   4.923   5.112 -1.2755 -1.0035 -0.3079
  296MOL0     H40847   2.128   5.088   5.101 -0.7774  0.0783  0.6055
  296MOL0     H40848   2.189   5.025   5.253 -0.8430 -1.1284  0.8388
  297MOL0     O40849   1.614   1.785   2.870  0.4702 -0.0812 -1.2554
  297MOL0     C40850   1.511   1.728   2.833 -0.7515  0.9215 -0.8379
  297MOL0     O40851   1.394   1.797   2.804 -0.7791  0.3762  0.5188
  297MOL0     C40852   1.395   1.927   2.841 -0.3848 -0.6381 -0.5474
  297MOL0     C40853   1.415   1.963   2.981 -0.0224  0.2119  0.3523
  297MOL0     C40854   1.417   2.090   3.017  0.5115  0.7531 -1.0741
  297MOL0     C40855   1.398   2.191   2.926  1.0104  0.0103 -0.3534
  297MOL0     O40856   1.410   2.323   2.963 -0.0619  0.3514 -0.2417
  297MOL0     C40857   1.334   2.351   3.080  0.5303 -0.0241  0.9874
  297MOL0     C40858   1.291   2.491   3.102 -0.6500  0.2785 -0.8393
  297MOL0     C40859   1.408   2.582   3.156 -0.6573  0.4120 -0.1669
  297MOL0     C40860   1.356   2.723   3.181  0.5764 -0.3388 -0.3856
  297MOL0     C40861   1.478   2.824   3.195 -0.5100  0.0315 -0.2013
  297MOL0     C40862   1.438   2.956   3.271 -0.5606  0.7633 -0.2806
  297MOL0     C40863   1.539   3.063   3.257 -0.0385  0.1945  0.7600
  297MOL0     C40864   1.576   3.096   3.108 -0.2741 -0.8295  0.5566
  297MOL0     N40865   1.641   3.224   3.098  0.5042  0.8349 -1.2532
  297MOL0     C40866   1.773   3.244   3.097  0.1069 -0.7259 -0.7769
  297MOL0     C40867   1.791   3.378   3.107 -0.7816  0.3566  0.0452
  297MOL0     C40868   1.927   3.434   3.131 -0.4430 -0.4968  1.0013
  297MOL0     C40869   1.917   3.591   3.143  0.2862 -0.3749  0.7919
  297MOL0     C40870   2.054   3.644   3.093 -0.1434  0.5199 -0.5364
  297MOL0     C40871   2.052   3.798   3.103 -0.1063 -0.6609  0.2901
  297MOL0     O40872   2.045   3.830   3.245 -0.0338 -0.2595  0.4165
  297MOL0     C40873   2.088   3.948   3.295  0.0901 -0.1393 -0.4722
  297MOL0     C40874   2.160   4.050   3.244  0.2023  0.5200  0.2089
  297MOL0     C40875   2.180   4.170   3.308  0.2276 -0.7835 -0.3629
  297MOL0     C40876   2.269   4.277   3.252  0.5657 -0.0034  0.4971
  297MOL0     C40877   2.117   4.192   3.433 -0.2441  0.0884 -0.2904
  297MOL0     C40878   2.140   4.309   3.516  0.4250  0.1298  0.2873
  297MOL0     O40879   2.249   4.294   3.600 -0.2139  0.3152 -0.4187
  297MOL0     C40880   2.297   4.391   3.677  0.7795 -0.3782 -0.2210
  297MOL0     C40881   2.312   4.522   3.631 -0.7929 -0.2457 -0.1412
  297MOL0     C40882   2.374   4.618   3.709 -0.8151  0.0324 -1.3104
  297MOL0     C40883   2.414   4.588   3.841  0.3432 -0.1086  0.0044
  297MOL0     O40884   2.446   4.678   3.936 -0.7991  0.2775 -0.0747
  297MOL0     C40885   2.447   4.822   3.918 -0.8330  0.0535 -0.1721
  297MOL0     C40886   2.482   4.887   4.056 -0.1447  0.6800 -0.6882
  297MOL0     C40887   2.495   5.039   4.040 -0.1341  0.3716  0.3816
  297MOL0     C40888   2.349   5.102   4.019 -1.0483  0.0338 -0.3197
  297MOL0     C40889   2.344   5.257   4.026  0.5713 -0.1533  0.4354
  297MOL0     C40890   2.319   5.302   4.174  0.1888 -0.4593 -0.1390
  297MOL0     C40891   2.309   5.460   4.181 -0.1685 -0.7062  0.5020
  297MOL0     C40892   2.169   5.501   4.131  0.2950  0.7190  0.2340
  297MOL0    Cl40893   2.080   5.619   4.246  0.2691  0.4121 -0.2245
  297MOL0     C40894   2.406   4.455   3.876  0.1050  0.3420  0.3793
  297MOL0     C40895   2.352   4.356   3.795  0.3972 -0.6076  0.0168
  297MOL0     O40896   2.073   4.412   3.500 -1.0314  1.0673 -0.2414
  297MOL0     C40897   2.054   4.081   3.500 -0.1033  0.1540 -0.2964
  297MOL0     C40898   2.042   3.962   3.432 -0.1982 -0.0456 -0.7838
  297MOL0     N40899   1.664   3.431   3.105  0.6088 -0.4065 -0.0918
  297MOL0     N40900   1.575   3.339   3.105  0.0817 -0.1144  0.3375
  297MOL0     C40901   1.368   2.162   2.800 -0.2101 -0.1108  0.2397
  297MOL0     C40902   1.366   2.030   2.757 -0.0913  0.5555 -0.3415
  297MOL0     C40903   1.517   1.588   2.782 -0.0588  0.3958  0.8368
  297MOL0     C40904   1.434   1.548   2.685  0.6872  0.5997 -0.6637
  297MOL0     C40905   1.415   1.413   2.632  0.0939  0.8205 -0.6886
  297MOL0     C40906   1.516   1.323   2.665 -0.2899 -0.4360  0.0960
  297MOL0     O40907   1.525   1.214   2.587 -0.1141 -1.0416 -0.6800
  297MOL0     C40908   1.645   1.145   2.584  0.0703  0.5666 -1.0885
  297MOL0     C40909   1.621   1.025   2.486  0.2980 -0.6617  0.6122
  297MOL0     C40910   1.753   0.934   2.463 -0.2722  0.1085  0.0834
  297MOL0     C40911   1.855   0.994   2.372  0.1405  0.5136  0.7769
  297MOL0     C40912   1.955   0.896   2.337 -0.3374 -0.3223 -0.7233
  297MOL0     C40913   2.038   0.810   2.318 -1.4072 -0.7748  0.4293
  297MOL0     C40914   1.612   1.360   2.756 -0.6840 -0.5750  0.1249
  297MOL0     C40915   1.607   1.487   2.826  0.8195  0.1998  0.3909
  297MOL0     C40916   1.716   1.512   2.928 -0.0742 -0.3224 -0.9002
  297MOL0     H40917   1.432   1.889   3.059  1.2333 -2.6534 -2.4065
  297MOL0     H40918   1.435   2.114   3.122 -2.7579  1.3225 -0.5277
  297MOL0     H40919   1.382   2.312   3.170 -0.2061 -2.5461  0.3860
  297MOL0     H40920   1.237   2.301   3.069 -0.4944  2.3929 -2.7467
  297MOL0     H40921   1.260   2.528   3.004 -3.3539  2.1126  0.6094
  297MOL0     H40922   1.206   2.495   3.170  0.2194 -0.2583  0.3079
  297MOL0     H40923   1.457   2.538   3.243 -3.2010 -0.4290  0.9617
  297MOL0     H40924   1.481   2.582   3.075  0.7456  0.9235  1.0511
  297MOL0     H40925   1.294   2.757   3.098 -1.4160  0.6613  1.4470
  297MOL0     H40926   1.296   2.729   3.271 -0.0001  0.4432 -0.8110
  297MOL0     H40927   1.523   2.853   3.100  3.0406  3.0596  2.1289
  297MOL0     H40928   1.565   2.775   3.241  0.3004  0.0828 -1.6131
  297MOL0     H40929   1.338   2.990   3.240 -0.4515  1.1711 -0.1820
  297MOL0     H40930   1.427   2.942   3.379  0.0401  0.2212 -0.2870
  297MOL0     H40931   1.634   3.043   3.309  1.2828  1.6961 -0.9451
  297MOL0     H40932   1.492   3.148   3.307  0.8345  1.7684 -0.9776
  297MOL0     H40933   1.645   3.023   3.064  0.8310 -0.7086  2.0128
  297MOL0     H40934   1.493   3.115   3.040 -2.2002  0.6238  3.1437
  297MOL0     H40935   1.845   3.163   3.093 -1.8461 -2.5826 -0.2523
  297MOL0     H40936   1.990   3.408   3.045 -0.5965 -1.4296  1.1574
  297MOL0     H40937   1.963   3.402   3.229 -0.4337 -2.3432  0.4251
  297MOL0     H40938   1.847   3.635   3.071  1.0058 -0.8596 -0.2308
  297MOL0     H40939   1.907   3.603   3.251  0.4515 -2.8832  1.1405
  297MOL0     H40940   2.141   3.611   3.149  0.0355  1.7066 -0.0753
  297MOL0     H40941   2.065   3.620   2.987  0.0926  0.5805 -0.5269
  297MOL0     H40942   2.144   3.835   3.056  1.0248  0.0745  2.8996
  297MOL0     H40943   1.967   3.836   3.046 -1.7197 -2.1783  1.5689
  297MOL0     H40944   2.208   4.023   3.150  0.5244  2.7788 -0.3405
  297MOL0     H40945   2.225   4.376   3.270  1.1366  0.1479  1.0908
  297MOL0     H40946   2.271   4.254   3.145 -1.8307  2.1384 -0.1320
  297MOL0     H40947   2.360   4.273   3.313  1.5950  4.8434 -0.2706
  297MOL0     H40948   2.270   4.551   3.535 -0.4839 -0.9824 -0.5094
  297MOL0     H40949   2.401   4.714   3.666 -1.9537 -0.0463 -2.2434
  297MOL0     H40950   2.525   4.846   3.846  0.2266 -0.6033  0.7287
  297MOL0     H40951   2.349   4.860   3.885 -1.2422 -0.8563 -0.0517
  297MOL0     H40952   2.407   4.870   4.134 -1.9427  0.0677 -2.4808
  297MOL0     H40953   2.583   4.858   4.088  0.4562  2.5654 -0.7250
  297MOL0     H40954   2.553   5.062   3.951 -2.8025  0.2037 -1.5105
  297MOL0     H40955   2.550   5.083   4.124 -1.1771  1.7378  0.3881
  297MOL0     H40956   2.284   5.065   4.098 -1.0968  1.6424  0.4266
  297MOL0     H40957   2.306   5.067   3.924 -1.6587  3.9191 -1.6318
  297MOL0     H40958   2.440   5.286   3.983  0.1330 -3.5379 -3.4386
  297MOL0     H40959   2.263   5.296   3.964  0.5552 -0.5865  0.1815
  297MOL0     H40960   2.405   5.271   4.234  1.1306  0.2314 -1.0949
  297MOL0     H40961   2.233   5.244   4.207 -0.0966 -1.0658 -1.8341
  297MOL0     H40962   2.384   5.495   4.110  0.8614 -2.0463  0.8698
  297MOL0     H40963   2.334   5.498   4.280  1.4104  0.6758 -0.3815
  297MOL0     H40964   2.098   5.418   4.122 -0.2106  0.9993  1.3212
  297MOL0     H40965   2.177   5.533   4.027  2.8279  0.4120  0.2780
  297MOL0     H40966   2.425   4.443   3.982 -1.5116  2.7807  1.0252
  297MOL0     H40967   2.347   4.250   3.817  1.0196 -1.3345 -2.9510
  297MOL0     H40968   2.024   4.081   3.605  1.1781 -2.6106  0.1368
  297MOL0     H40969   1.997   3.883   3.492 -1.2803  1.0311 -0.1330
  297MOL0     H40970   1.355   2.252   2.740 -3.7069  0.8371  2.1223
  297MOL0     H40971   1.332   1.997   2.659 -0.3928  0.1460 -0.1001
  297MOL0     H40972   1.353   1.612   2.650  1.1253  0.1230 -2.6675
  297MOL0     H40973   1.340   1.386   2.558  0.0004  1.6572 -0.9100
  297MOL0     H40974   1.724   1.208   2.543 -0.8923  1.2417 -1.9648
  297MOL0     H40975   1.680   1.101   2.677 -1.6811  1.8098  0.2193
  297MOL0     H40976   1.596   1.063   2.387 -2.1070  0.1878  1.4688
  297MOL0     H40977   1.533   0.969   2.520 -1.7526  0.7416 -2.0726
  297MOL0     H40978   1.795   0.910   2.561  1.5690  0.8481 -0.4784
  297MOL0     H40979   1.722   0.842   2.413  3.2974 -0.1394 -2.0226
  297MOL0     H40980   1.909   1.079   2.415  1.6935 -0.2907  0.4899
  297MOL0     H40981   1.804   1.025   2.280 -0.1863  2.3324  1.5201
  297MOL0     H40982   2.110   0.733   2.298  2.4689  2.7098 -0.5784
  297MOL0     H40983   1.687   1.294   2.797 -1.8680 -2.6484 -0.8923
  297MOL0     H40984   1.678   1.574   3.010  2.3517  1.7807 -1.2074
  297MOL0     H40985   1.736   1.419   2.982 -0.5535 -0.2639 -0.6172
  297MOL0     H40986   1.807   1.553   2.883  0.6398  0.7378  1.3727
  298MOL0     O40987   5.887   1.993   7.112 -0.3545 -0.0189  0.3765
  298MOL0     C40988   5.885   2.107   7.065  1.3110 -0.2494  0.6011
  298MOL0     O40989   5.972   2.142   6.963  0.9168  0.1285  0.2878
  298MOL0     C40990   6.046   2.047   6.895 -0.4730 -0.6924  0.2570
  298MOL0     C40991   6.032   1.908   6.877 -1.0124 -0.3001 -0.0972
  298MOL0     C40992   6.129   1.839   6.799 -0.3722 -0.5662 -0.6269
  298MOL0     C40993   6.234   1.911   6.735 -0.2222  0.3303  0.2568
  298MOL0     O40994   6.314   1.828   6.657  0.3967 -0.2969  0.2484
  298MOL0     C40995   6.418   1.885   6.571  0.3081  0.4522  0.4821
  298MOL0     C40996   6.515   1.769   6.549  0.3928 -0.1991  0.3225
  298MOL0     C40997   6.471   1.659   6.456 -0.1312  0.7338  0.2079
  298MOL0     C40998   6.460   1.716   6.317 -0.0643 -0.1382  0.9805
  298MOL0     C40999   6.418   1.614   6.203  0.4663 -0.4400  0.1082
  298MOL0     C41000   6.281   1.550   6.231  0.8392  0.3674  0.4102
  298MOL0     C41001   6.168   1.639   6.284  0.7482 -0.4838 -0.6844
  298MOL0     C41002   6.106   1.741   6.189 -0.4833  0.6433 -0.5420
  298MOL0     N41003   6.017   1.828   6.266 -0.5413  0.6670  0.7162
  298MOL0     C41004   6.044   1.926   6.362  0.2506  0.2288 -0.0319
  298MOL0     C41005   5.922   1.967   6.405 -0.3021 -1.0064  1.2316
  298MOL0     C41006   5.892   2.070   6.499  0.4641 -0.9520  1.0290
  298MOL0     C41007   5.813   2.194   6.439  0.1082  1.0861 -0.2048
  298MOL0     C41008   5.684   2.147   6.366 -0.6819 -0.4781 -1.1521
  298MOL0     C41009   5.571   2.251   6.378 -0.1453 -0.1736  0.9201
  298MOL0     O41010   5.618   2.393   6.358  0.6000  0.5631  0.2474
  298MOL0     C41011   5.648   2.447   6.237 -1.7716  0.1599 -0.0349
  298MOL0     C41012   5.752   2.539   6.231 -0.8800 -0.0975 -0.6511
  298MOL0     C41013   5.772   2.622   6.121 -1.3003 -0.5088 -0.6910
  298MOL0     C41014   5.859   2.747   6.130 -1.0028  0.2109  0.1183
  298MOL0     C41015   5.695   2.594   6.008 -0.7218  0.1622  0.5065
  298MOL0     C41016   5.732   2.666   5.869  1.2175 -0.1782 -0.0844
  298MOL0     O41017   5.630   2.655   5.784 -0.1289  0.5071  0.4971
  298MOL0     C41018   5.647   2.714   5.667  0.0667  0.8101  0.8351
  298MOL0     C41019   5.594   2.844   5.654 -0.2882 -0.3349 -0.4556
  298MOL0     C41020   5.608   2.915   5.531  0.8151 -0.4209 -0.1848
  298MOL0     C41021   5.667   2.860   5.413  0.2801  0.2059 -0.9542
  298MOL0     O41022   5.679   2.945   5.310  1.0180 -0.6026  0.7450
  298MOL0     C41023   5.747   2.910   5.192  0.3816  0.5574 -0.4252
  298MOL0     C41024   5.772   3.038   5.111 -0.8113  0.3119 -0.1679
  298MOL0     C41025   5.867   3.142   5.177  0.2382  0.1119  1.2023
  298MOL0     C41026   5.873   3.286   5.118 -0.0582 -0.3725 -0.1068
  298MOL0     C41027   5.750   3.372   5.151  0.2014 -0.9651 -0.1722
  298MOL0     C41028   5.778   3.515   5.097 -0.0929 -0.3484  0.4682
  298MOL0     C41029   5.658   3.609   5.136  0.4804  0.5444 -0.7687
  298MOL0     C41030   5.660   3.734   5.056  0.4907  0.8455  0.4034
  298MOL0    Cl41031   5.822   3.802   5.061 -0.2210  0.1738  0.1598
  298MOL0     C41032   5.719   2.733   5.430 -0.4872 -0.3765 -0.5999
  298MOL0     C41033   5.712   2.659   5.554 -0.7133 -0.1537  0.1651
  298MOL0     O41034   5.838   2.728   5.847 -0.4127 -0.2978  0.2652
  298MOL0     C41035   5.589   2.495   6.012 -0.2314 -0.2822  0.2479
  298MOL0     C41036   5.574   2.429   6.126  0.6995 -0.2624  0.1903
  298MOL0     N41037   5.827   1.886   6.345 -0.1426 -0.3134  0.3590
  298MOL0     N41038   5.886   1.808   6.256 -0.5433  0.2020 -0.8346
  298MOL0     C41039   6.244   2.043   6.747 -0.5436 -0.5586  0.6385
  298MOL0     C41040   6.159   2.115   6.829 -0.0323  0.0248 -1.3944
  298MOL0     C41041   5.781   2.209   7.118  0.2501  0.5139  0.8495
  298MOL0     C41042   5.778   2.336   7.055  1.0598  0.5268  0.5638
  298MOL0     C41043   5.688   2.438   7.105 -0.3059  0.5159  0.3640
  298MOL0     C41044   5.592   2.413   7.201 -0.4656 -0.2046  0.2192
  298MOL0     O41045   5.516   2.514   7.260 -0.6450  0.1008  0.4223
  298MOL0     C41046   5.549   2.657   7.228 -0.6354  0.4740 -0.2467
  298MOL0     C41047   5.466   2.759   7.304 -0.1813  0.3726  0.3994
  298MOL0     C41048   5.328   2.786   7.234 -0.5141 -0.2354  0.2136
  298MOL0     C41049   5.246   2.895   7.288  0.3067 -0.2547 -0.0292
  298MOL0     C41050   5.236   2.888   7.434  0.1385 -0.0461 -1.2476
  298MOL0     C41051   5.220   2.899   7.556  0.4451  0.2097 -0.1030
  298MOL0     C41052   5.581   2.277   7.249 -0.7983  0.5207  0.4713
  298MOL0     C41053   5.679   2.182   7.211 -0.1926 -0.2267 -0.5437
  298MOL0     C41054   5.671   2.048   7.286  0.9297 -0.0062  0.3750
  298MOL0     H41055   5.957   1.846   6.926  1.1839 -0.2047  3.8038
  298MOL0     H41056   6.126   1.731   6.791 -1.1519 -0.6753  0.8683
  298MOL0     H41057   6.474   1.966   6.618  1.2443  1.4711 -2.1607
  298MOL0     H41058   6.387   1.925   6.473  2.7139 -1.7514 -1.3267
  298MOL0     H41059   6.614   1.800   6.516  0.8047 -0.3517  1.3620
  298MOL0     H41060   6.515   1.710   6.641  0.7309 -4.7225 -2.2883
  298MOL0     H41061   6.549   1.581   6.454 -0.3784  0.3249  2.7181
  298MOL0     H41062   6.382   1.610   6.497 -0.1213 -0.1010 -0.7375
  298MOL0     H41063   6.386   1.795   6.326 -0.0181 -0.1207  1.2156
  298MOL0     H41064   6.561   1.747   6.288  0.6747 -3.7929 -0.9397
  298MOL0     H41065   6.497   1.542   6.178 -1.3506 -1.6530 -2.6137
  298MOL0     H41066   6.398   1.673   6.113  0.6212 -1.7763 -0.8313
  298MOL0     H41067   6.250   1.498   6.140  0.1547  3.8637 -1.5306
  298MOL0     H41068   6.297   1.474   6.309 -0.4574  1.6673  2.0070
  298MOL0     H41069   6.194   1.682   6.381  0.4232  0.6307 -1.0812
  298MOL0     H41070   6.083   1.583   6.323  1.1667 -0.4045  0.4062
  298MOL0     H41071   6.185   1.799   6.140  0.3012 -0.8555 -1.1351
  298MOL0     H41072   6.050   1.676   6.121 -1.2299  0.2278  0.4456
  298MOL0     H41073   6.135   1.954   6.413 -0.5634 -2.2106  3.0657
  298MOL0     H41074   5.973   2.126   6.546 -0.5442  3.0382 -1.4816
  298MOL0     H41075   5.839   2.018   6.579  0.8430 -0.0010  1.9112
  298MOL0     H41076   5.784   2.259   6.522 -0.7678  1.3302 -0.6908
  298MOL0     H41077   5.878   2.248   6.370 -3.1505  4.9317 -0.6332
  298MOL0     H41078   5.694   2.097   6.269  1.5260 -1.6484 -0.3884
  298MOL0     H41079   5.652   2.067   6.434  2.2321  0.6511  1.7865
  298MOL0     H41080   5.484   2.226   6.316  1.1432  0.9787 -1.4885
  298MOL0     H41081   5.529   2.250   6.479  0.8617 -0.0346  1.3551
  298MOL0     H41082   5.811   2.558   6.320 -1.0833 -0.3062 -0.4693
  298MOL0     H41083   5.808   2.828   6.077 -2.0463 -0.3122  0.3143
  298MOL0     H41084   5.951   2.720   6.077 -0.6428  1.3958  0.1013
  298MOL0     H41085   5.869   2.784   6.232  2.2753  3.1033 -1.0445
  298MOL0     H41086   5.542   2.896   5.734  0.3940 -0.2724 -0.0454
  298MOL0     H41087   5.574   3.018   5.521  0.6705 -0.6379 -2.3254
  298MOL0     H41088   5.837   2.854   5.219 -0.9422 -0.1524  3.1859
  298MOL0     H41089   5.692   2.845   5.123  2.0095 -1.5601  0.1568
  298MOL0     H41090   5.811   3.024   5.009  1.5221  3.5017  0.1202
  298MOL0     H41091   5.674   3.085   5.104 -0.9349 -0.0657 -1.0260
  298MOL0     H41092   5.963   3.096   5.151 -1.1797 -1.1945 -2.2588
  298MOL0     H41093   5.855   3.161   5.284  0.6560  1.0480  1.0934
  298MOL0     H41094   5.899   3.290   5.012  0.2801 -0.5870 -0.0327
  298MOL0     H41095   5.961   3.329   5.166 -0.5994 -0.8880  1.4508
  298MOL0     H41096   5.658   3.325   5.113  1.2333 -3.7018  0.4171
  298MOL0     H41097   5.726   3.376   5.258 -1.8666 -1.0602 -0.5921
  298MOL0     H41098   5.777   3.516   4.987 -1.6270 -1.0263  0.4566
  298MOL0     H41099   5.873   3.552   5.136 -1.4215  0.6921  2.8985
  298MOL0     H41100   5.664   3.651   5.236  1.3911  3.1996 -1.8380
  298MOL0     H41101   5.563   3.555   5.136  0.4993  0.5075 -1.1689
  298MOL0     H41102   5.583   3.797   5.102  0.7082  0.8953  0.7008
  298MOL0     H41103   5.627   3.702   4.956  3.1687 -0.4720 -0.1579
  298MOL0     H41104   5.772   2.676   5.354  1.7208  1.3951 -0.4662
  298MOL0     H41105   5.749   2.558   5.566  0.5240  0.3055  0.3943
  298MOL0     H41106   5.523   2.469   5.929 -2.6004  1.7622  1.3553
  298MOL0     H41107   5.499   2.352   6.127  2.6287 -2.2475 -0.5857
  298MOL0     H41108   6.318   2.096   6.687 -1.7277  0.0526 -0.3272
  298MOL0     H41109   6.158   2.224   6.832 -4.9356  0.2253 -1.4831
  298MOL0     H41110   5.849   2.359   6.976  1.4069 -3.6948 -0.5910
  298MOL0     H41111   5.714   2.534   7.062  0.3734 -0.6329 -2.0068
  298MOL0     H41112   5.653   2.684   7.249 -1.2722  5.0582 -1.9277
  298MOL0     H41113   5.549   2.677   7.121  2.0882  1.2410 -0.1900
  298MOL0     H41114   5.522   2.853   7.307  1.9168 -0.7613 -0.6995
  298MOL0     H41115   5.456   2.713   7.403 -2.2786 -0.2032 -0.0434
  298MOL0     H41116   5.348   2.807   7.129  2.1996 -2.3328  0.1898
  298MOL0     H41117   5.276   2.690   7.222  1.2701 -1.5232  2.0245
  298MOL0     H41118   5.146   2.875   7.246  1.2118 -2.7983 -1.2066
  298MOL0     H41119   5.292   2.988   7.256  1.5396 -1.0004 -0.4765
  298MOL0     H41120   5.207   2.898   7.663  1.1296 -2.4988  0.0337
  298MOL0     H41121   5.504   2.238   7.315 -0.5475 -0.4141  0.2266
  298MOL0     H41122   5.766   2.044   7.340  0.9211 -1.0112  0.3433
  298MOL0     H41123   5.599   2.043   7.368  0.9622  2.0862  0.5775
  298MOL0     H41124   5.646   1.963   7.222 -2.4910 -0.3062  1.8969
  299MOL0     O41125   6.698  10.126   1.086  0.3160 -0.0797 -0.2840
  299MOL0     C41126   6.800  10.060   1.115 -0.1573  0.2962 -1.0204
  299MOL0     O41127   6.825   9.929   1.089 -0.4530 -0.2310 -0.4213
  299MOL0     C41128   6.719   9.859   1.049  0.8908 -0.3967 -0.3723
  299MOL0     C41129   6.662   9.879   0.920 -0.4564  0.7154 -0.0226
  299MOL0     C41130   6.549   9.805   0.884  0.0431 -0.6884  0.6540
  299MOL0     C41131   6.498   9.705   0.971 -0.4907 -0.3037  0.3238
  299MOL0     O41132   6.386   9.637   0.945 -0.1245 -0.0666 -0.9528
  299MOL0     C41133   6.260   9.717   0.945 -0.7228 -0.7563 -0.1582
  299MOL0     C41134   6.145   9.652   1.012 -0.0264 -0.6597  0.2311
  299MOL0     C41135   6.086   9.538   0.935  0.3494  0.1402  0.3384
  299MOL0     C41136   5.967   9.468   1.000 -0.2612 -0.4862  0.2539
  299MOL0     C41137   5.937   9.336   0.915 -0.8762  0.4940  0.1275
  299MOL0     C41138   6.021   9.213   0.962 -0.5523  0.2921 -0.2149
  299MOL0     C41139   5.973   9.166   1.102  0.1491  1.1502 -0.3896
  299MOL0     C41140   5.904   9.026   1.081  0.5024  0.3807  0.4385
  299MOL0     N41141   5.879   8.959   1.208 -0.4009 -0.4382 -0.0871
  299MOL0     C41142   5.765   8.891   1.231  0.6629  0.4314 -0.7315
  299MOL0     C41143   5.745   8.900   1.367 -0.4188  1.3065 -0.7420
  299MOL0     C41144   5.622   8.844   1.442  0.8346  0.3337  0.3153
  299MOL0     C41145   5.599   8.879   1.593 -0.2012 -0.5383 -1.0974
  299MOL0     C41146   5.682   8.794   1.690  0.0890 -0.4867  0.8335
  299MOL0     C41147   5.835   8.827   1.686  0.2428  0.7492 -0.3426
  299MOL0     O41148   5.900   8.774   1.799  0.0007 -0.8830  0.4379
  299MOL0     C41149   6.037   8.737   1.798 -0.1973  0.1847 -0.6419
  299MOL0     C41150   6.068   8.634   1.884  0.5784  0.6039  0.2566
  299MOL0     C41151   6.198   8.597   1.923 -0.5825 -0.2276 -0.7010
  299MOL0     C41152   6.207   8.477   2.018 -0.0082  0.5824 -0.0573
  299MOL0     C41153   6.307   8.673   1.871 -0.3867 -0.3748  0.7057
  299MOL0     C41154   6.448   8.642   1.908  0.1974 -0.4958  0.1326
  299MOL0     O41155   6.466   8.558   2.021  0.0745  0.2924 -0.4329
  299MOL0     C41156   6.596   8.522   2.060 -0.0224 -0.2875 -0.5096
  299MOL0     C41157   6.598   8.430   2.158  0.2262 -0.3872  1.0066
  299MOL0     C41158   6.714   8.373   2.216  1.0340 -0.2079  0.1695
  299MOL0     C41159   6.839   8.420   2.174  0.7663 -0.9845 -0.6990
  299MOL0     O41160   6.967   8.382   2.203  0.2848 -0.2548 -0.4996
  299MOL0     C41161   6.995   8.265   2.282  0.1234 -0.0957  0.5743
  299MOL0     C41162   7.145   8.269   2.303  0.6910 -0.2617  0.5143
  299MOL0     C41163   7.179   8.160   2.410  0.2652  0.5546  0.2180
  299MOL0     C41164   7.103   8.179   2.549  0.2536  0.4875 -0.3095
  299MOL0     C41165   7.198   8.126   2.665  0.8171  0.0012 -0.5366
  299MOL0     C41166   7.138   8.102   2.806  0.2772  0.1121  0.3425
  299MOL0     C41167   7.020   8.003   2.799 -0.1439 -0.9768  0.2540
  299MOL0     C41168   6.999   7.939   2.940 -0.0135 -0.6110 -1.3821
  299MOL0    Cl41169   6.872   7.815   2.943  0.2140 -0.2269 -0.7601
  299MOL0     C41170   6.836   8.526   2.086 -0.2493  0.6847  0.3295
  299MOL0     C41171   6.717   8.581   2.033 -0.8996  0.0946 -0.0462
  299MOL0     O41172   6.534   8.704   1.845  0.4483  0.0740  0.0731
  299MOL0     C41173   6.275   8.774   1.765  0.7956  0.0450  0.0067
  299MOL0     C41174   6.139   8.803   1.728  0.5747  0.1556 -0.7488
  299MOL0     N41175   5.852   8.965   1.426  0.4601 -0.0425 -0.4826
  299MOL0     N41176   5.930   8.994   1.327 -0.6342 -0.2906 -0.5270
  299MOL0     C41177   6.560   9.684   1.092  0.0745 -0.2471 -0.4419
  299MOL0     C41178   6.679   9.752   1.123 -0.3553 -0.1341  0.2124
  299MOL0     C41179   6.915  10.127   1.200  0.3790  0.2991  1.3267
  299MOL0     C41180   7.015  10.039   1.251 -0.8229 -0.4739 -0.6526
  299MOL0     C41181   7.129  10.083   1.313  0.3092  0.5025  0.3804
  299MOL0     C41182   7.152  10.215   1.331  0.7491  0.3096  0.0317
  299MOL0     O41183   7.257  10.237   1.420 -0.6314  0.2617  0.1417
  299MOL0     C41184   7.291  10.371   1.448 -0.4251 -0.7602 -0.4984
  299MOL0     C41185   7.372  10.375   1.580  0.5691  0.2224 -0.7458
  299MOL0     C41186   7.389  10.523   1.613 -0.5818 -0.2279  0.5306
  299MOL0     C41187   7.468  10.541   1.744 -0.2589  0.3656 -0.0908
  299MOL0     C41188   7.504  10.683   1.758 -0.3233  0.2379  0.2284
  299MOL0     C41189   7.548  10.796   1.774  1.1108  0.4021  0.2336
  299MOL0     C41190   7.047  10.304   1.289 -0.2555 -1.1057  0.5601
  299MOL0     C41191   6.935  10.266   1.217  0.1646  0.3357 -0.1718
  299MOL0     C41192   6.843  10.376   1.167 -0.4146 -0.6106 -0.0709
  299MOL0     H41193   6.693   9.967   0.864 -2.1710  0.5678 -1.2467
  299MOL0     H41194   6.508   9.830   0.787  1.9009  0.5756  0.1358
  299MOL0     H41195   6.226   9.736   0.842 -1.5548 -0.2180  0.2056
  299MOL0     H41196   6.271   9.810   1.000 -2.4469 -0.6089 -0.0108
  299MOL0     H41197   6.179   9.624   1.112 -0.8587  2.4435  1.5159
  299MOL0     H41198   6.068   9.727   1.029  0.2639  0.5910 -3.0897
  299MOL0     H41199   6.041   9.565   0.839 -0.4433 -1.4235  0.2479
  299MOL0     H41200   6.161   9.462   0.913  0.2824  0.1150  0.1982
  299MOL0     H41201   5.992   9.460   1.106  2.0120  2.1568  0.0350
  299MOL0     H41202   5.886   9.540   0.990 -0.0473 -0.5324 -2.9753
  299MOL0     H41203   5.972   9.350   0.813  2.6553  1.2400  1.2876
  299MOL0     H41204   5.830   9.312   0.921 -0.3999 -2.2769 -0.9612
  299MOL0     H41205   6.021   9.124   0.899 -0.1913 -2.7991  3.8055
  299MOL0     H41206   6.124   9.247   0.979 -0.5437  0.2863 -0.2612
  299MOL0     H41207   5.908   9.227   1.163 -0.3299 -0.9299  1.3095
  299MOL0     H41208   6.065   9.161   1.162  0.4366  0.2748 -0.8721
  299MOL0     H41209   5.805   9.051   1.040  0.0365 -2.1517 -0.1975
  299MOL0     H41210   5.962   8.958   1.018 -0.1255  1.9460 -1.9309
  299MOL0     H41211   5.698   8.852   1.155 -0.5221  0.0032  0.4814
  299MOL0     H41212   5.631   8.735   1.432  0.3623  0.1806  1.3881
  299MOL0     H41213   5.538   8.885   1.386  0.8260 -0.8200 -0.5602
  299MOL0     H41214   5.623   8.984   1.612  0.0957 -0.6480 -0.8579
  299MOL0     H41215   5.493   8.873   1.621  0.1492  1.4087  0.9657
  299MOL0     H41216   5.660   8.819   1.794  1.0111 -1.4730  1.2824
  299MOL0     H41217   5.658   8.690   1.667  1.3643 -0.1741 -2.5425
  299MOL0     H41218   5.878   8.777   1.599  0.4421  0.1886  0.0727
  299MOL0     H41219   5.863   8.932   1.673 -1.6227  1.2528 -0.5464
  299MOL0     H41220   5.992   8.559   1.899 -1.8444  2.6780 -0.8093
  299MOL0     H41221   6.113   8.422   2.026 -0.4253  1.0530 -1.4055
  299MOL0     H41222   6.221   8.512   2.120  2.8053  1.0580 -0.5153
  299MOL0     H41223   6.284   8.399   2.006 -1.3350 -1.3084  2.7399
  299MOL0     H41224   6.498   8.396   2.184 -0.3456 -1.1786 -1.8577
  299MOL0     H41225   6.708   8.297   2.294 -0.2627 -1.0558 -0.7173
  299MOL0     H41226   6.943   8.258   2.378  1.4334 -1.7075  1.2072
  299MOL0     H41227   6.975   8.171   2.230 -0.5848 -1.2562  2.8128
  299MOL0     H41228   7.180   8.251   2.201  0.8156  1.1212  0.2932
  299MOL0     H41229   7.185   8.364   2.340  0.3276 -0.5450  1.6771
  299MOL0     H41230   7.287   8.147   2.427  0.6109  1.5322 -1.0635
  299MOL0     H41231   7.154   8.059   2.378  0.0838  0.7933 -0.4047
  299MOL0     H41232   7.007   8.127   2.550 -0.3555  1.4947  2.8296
  299MOL0     H41233   7.077   8.283   2.568  0.6139  1.0358 -2.5707
  299MOL0     H41234   7.233   8.026   2.637  0.5769  0.0264 -0.9292
  299MOL0     H41235   7.274   8.204   2.669 -0.6162  1.5573 -1.7826
  299MOL0     H41236   7.109   8.203   2.836 -1.4216  0.3942 -2.0220
  299MOL0     H41237   7.215   8.073   2.877  3.2266 -0.1096 -2.6829
  299MOL0     H41238   7.051   7.928   2.725  0.3776  1.8592 -2.6383
  299MOL0     H41239   6.935   8.057   2.756  2.1457  2.6077 -0.1009
  299MOL0     H41240   6.980   8.029   2.999 -0.0690  0.3340 -2.7954
  299MOL0     H41241   7.089   7.894   2.984 -0.1062  1.9526  1.8483
  299MOL0     H41242   6.933   8.567   2.059  0.2575 -0.1214  0.8691
  299MOL0     H41243   6.730   8.672   1.976  0.1392 -0.8848 -1.4354
  299MOL0     H41244   6.346   8.835   1.709 -2.0962  1.4751 -2.3653
  299MOL0     H41245   6.123   8.888   1.663 -2.3818  1.2341  1.1985
  299MOL0     H41246   6.515   9.615   1.163 -2.5806  2.4846  0.7737
  299MOL0     H41247   6.743   9.739   1.211  1.3223 -1.3978 -1.1190
  299MOL0     H41248   7.024   9.932   1.243  1.2599 -0.4358  0.5840
  299MOL0     H41249   7.195  10.004   1.348  0.4770 -0.2464 -1.5352
  299MOL0     H41250   7.342  10.422   1.365 -1.0761  0.7206 -0.0165
  299MOL0     H41251   7.204  10.436   1.461  0.1648  0.3009 -1.6345
  299MOL0     H41252   7.472  10.330   1.576  1.0459  1.3122 -3.2184
  299MOL0     H41253   7.309  10.327   1.655 -1.2320  3.1681 -0.1857
  299MOL0     H41254   7.450  10.566   1.533 -0.6003 -0.2657  0.4958
  299MOL0     H41255   7.285  10.558   1.614 -1.1157 -1.6102  2.7982
  299MOL0     H41256   7.560  10.481   1.743 -0.7188 -0.6141  3.3949
  299MOL0     H41257   7.401  10.507   1.823 -0.7974  3.2068  0.7814
  299MOL0     H41258   7.587  10.895   1.775  1.2740  0.3880 -1.6043
  299MOL0     H41259   7.052  10.407   1.326  1.0689 -1.4126  1.3015
  299MOL0     H41260   6.838  10.380   1.057  1.1427 -0.3341 -0.1529
  299MOL0     H41261   6.736  10.355   1.183 -1.0581  0.6183 -2.2117
  299MOL0     H41262   6.857  10.476   1.208  0.2039 -0.8687  0.3519
  300MOL0     O41263   8.013  11.025   6.058 -0.2169  0.0459  0.3217
  300MOL0     C41264   7.974  11.106   5.968  0.3465  0.9030 -1.4824
  300MOL0     O41265   7.994  11.243   5.983 -0.3239 -0.0262  0.3067
  300MOL0     C41266   8.071  11.288   6.090  0.6089 -0.6258  0.7789
  300MOL0     C41267   8.205  11.253   6.110 -0.3373  0.7756  0.0119
  300MOL0     C41268   8.272  11.305   6.224  0.4503 -0.4817 -0.3319
  300MOL0     C41269   8.215  11.396   6.311  0.4643  0.7375  0.0828
  300MOL0     O41270   8.285  11.433   6.424 -0.1307  0.1237 -0.1653
  300MOL0     C41271   8.213  11.488   6.530  0.6715 -0.1239 -0.2013
  300MOL0     C41272   8.297  11.489   6.655 -0.4216  0.5751 -0.2293
  300MOL0     C41273   8.416  11.580   6.640  0.0436  0.2652 -0.6884
  300MOL0     C41274   8.382  11.723   6.624  0.2212 -0.4748  0.0639
  300MOL0     C41275   8.499  11.826   6.654 -0.0245 -0.5999  0.2645
  300MOL0     C41276   8.527  11.825   6.808  0.1466  1.3998  0.2591
  300MOL0     C41277   8.645  11.916   6.860 -0.6697 -0.4569  0.9997
  300MOL0     C41278   8.775  11.875   6.793  0.3598 -0.9560 -0.9964
  300MOL0     N41279   8.901  11.904   6.870  0.1412 -0.2110 -0.2046
  300MOL0     C41280   8.975  11.802   6.936 -0.1392  0.4307  0.5805
  300MOL0     C41281   9.072  11.868   6.998  0.0169 -0.5403 -0.3621
  300MOL0     C41282   9.195  11.821   7.078  0.5977 -0.1815  0.2280
  300MOL0     C41283   9.311  11.775   6.995 -0.7318 -0.7675  0.3680
  300MOL0     C41284   9.302  11.640   6.934  0.2138  0.4600  0.8400
  300MOL0     C41285   9.428  11.592   6.865 -0.4527 -0.0542  0.4012
  300MOL0     O41286   9.552  11.647   6.903  0.2237 -1.0105  0.1463
  300MOL0     C41287   9.605  11.604   7.023 -0.4537 -0.7979  0.7056
  300MOL0     C41288   9.566  11.495   7.099 -0.1994  0.3505  0.9258
  300MOL0     C41289   9.620  11.466   7.224  0.2226 -0.4858 -0.2747
  300MOL0     C41290   9.571  11.345   7.301 -0.2601  0.0267 -0.0320
  300MOL0     C41291   9.714  11.562   7.274  1.0819  0.8027  0.3796
  300MOL0     C41292   9.765  11.565   7.414 -0.2475 -0.3083 -0.0267
  300MOL0     O41293   9.892  11.616   7.430 -0.0895 -0.0185  0.1544
  300MOL0     C41294   9.941  11.661   7.551  0.2560  0.6747  0.1923
  300MOL0     C41295   9.959  11.800   7.558 -0.0729 -0.4811 -0.5985
  300MOL0     C41296  10.008  11.858   7.667  0.6170 -0.7195 -0.8255
  300MOL0     C41297  10.052  11.775   7.780  0.1089  0.1524 -0.1457
  300MOL0     O41298  10.120  11.853   7.886  0.6720  0.6828  0.1376
  300MOL0     C41299  10.170  11.787   8.000 -0.0802 -0.3372 -0.8192
  300MOL0     C41300  10.278  11.857   8.075  0.4137 -0.2712  0.0855
  300MOL0     C41301  10.379  11.898   7.971 -0.4953 -0.2010  0.2347
  300MOL0     C41302  10.522  11.875   8.029 -0.1526  0.1584 -0.8325
  300MOL0     C41303  10.632  11.888   7.921 -0.7015 -0.3347 -0.1530
  300MOL0     C41304  10.768  11.893   7.980  0.2353 -0.2254  0.3053
  300MOL0     C41305  10.880  11.916   7.871 -0.1129 -0.2499 -0.6514
  300MOL0     C41306  11.023  11.937   7.928 -0.1279  0.5752 -0.1422
  300MOL0    Cl41307  11.063  12.111   7.960  0.4654 -0.2547  0.7580
  300MOL0     C41308  10.033  11.633   7.770  1.2147  0.3972  0.3603
  300MOL0     C41309   9.976  11.572   7.652 -0.7300 -0.1153 -0.2536
  300MOL0     O41310   9.698  11.529   7.509 -0.3786  0.7551  0.1454
  300MOL0     C41311   9.759  11.670   7.191  0.3886 -0.2132  0.0486
  300MOL0     C41312   9.706  11.695   7.069 -0.8111 -0.1602  0.1862
  300MOL0     N41313   9.050  12.002   6.984 -0.2712 -0.5978 -0.5206
  300MOL0     N41314   8.952  12.025   6.902 -0.8510  0.4275 -0.9927
  300MOL0     C41315   8.072  11.440   6.293 -0.3158  0.1183 -0.6807
  300MOL0     C41316   8.009  11.381   6.182  0.6267  0.4456 -0.5651
  300MOL0     C41317   7.906  11.052   5.850  0.0810  0.2834  0.2233
  300MOL0     C41318   7.906  11.131   5.736  0.4738  0.1086  0.1031
  300MOL0     C41319   7.863  11.088   5.606 -0.3286 -0.3248 -0.2812
  300MOL0     C41320   7.822  10.954   5.594 -0.7439 -0.8007 -0.5722
  300MOL0     O41321   7.791  10.926   5.458 -0.6144 -0.0931 -0.3418
  300MOL0     C41322   7.723  10.804   5.422  0.5090  0.0400  0.2982
  300MOL0     C41323   7.572  10.817   5.464  0.4449  0.3173  1.0962
  300MOL0     C41324   7.489  10.693   5.416  0.8420 -0.0638 -0.1074
  300MOL0     C41325   7.431  10.714   5.275  0.1586 -0.1858 -0.7622
  300MOL0     C41326   7.524  10.734   5.163 -0.1246 -0.0969  0.4595
  300MOL0     C41327   7.598  10.737   5.073  0.0957  0.3172  0.5953
  300MOL0     C41328   7.828  10.867   5.707 -0.4852 -0.5511  0.5336
  300MOL0     C41329   7.869  10.914   5.830 -0.4731  0.6209  0.2223
  300MOL0     C41330   7.873  10.808   5.940  0.1839  0.2594  0.0494
  300MOL0     H41331   8.257  11.174   6.057  1.1530  0.7936  1.3445
  300MOL0     H41332   8.370  11.272   6.258  0.0193  0.9185  2.5857
  300MOL0     H41333   8.124  11.428   6.549 -1.0436  1.6881 -2.0387
  300MOL0     H41334   8.175  11.587   6.502 -0.0960  0.2800  2.0337
  300MOL0     H41335   8.236  11.502   6.745  0.6734 -1.3181  0.8457
  300MOL0     H41336   8.335  11.387   6.667  0.4021  0.7998 -0.8401
  300MOL0     H41337   8.474  11.571   6.732 -2.4487  0.9262  1.0663
  300MOL0     H41338   8.482  11.547   6.559 -1.3413  1.6640 -2.4948
  300MOL0     H41339   8.356  11.745   6.520  2.2273  1.6628 -0.0722
  300MOL0     H41340   8.296  11.754   6.684  0.7907  3.6607 -0.9034
  300MOL0     H41341   8.465  11.925   6.624 -0.2986 -0.4136  1.1560
  300MOL0     H41342   8.593  11.795   6.607  0.4202 -2.0788  1.9702
  300MOL0     H41343   8.439  11.847   6.870  0.9968  0.5032  1.8316
  300MOL0     H41344   8.551  11.724   6.839  0.8390  1.2557 -0.6867
  300MOL0     H41345   8.653  11.898   6.967 -3.8059 -4.0081  0.8191
  300MOL0     H41346   8.615  12.018   6.832  0.7458 -0.3668 -0.2976
  300MOL0     H41347   8.759  11.766   6.795  1.1713 -1.1187  1.7305
  300MOL0     H41348   8.769  11.924   6.696  1.5556  0.1834 -0.5338
  300MOL0     H41349   8.966  11.694   6.942  0.0266  0.3353 -0.7096
  300MOL0     H41350   9.176  11.739   7.148  1.7768 -1.4447 -0.8939
  300MOL0     H41351   9.222  11.910   7.136 -1.4436  0.0235  0.9600
  300MOL0     H41352   9.319  11.840   6.907 -1.4975 -1.8676 -0.5378
  300MOL0     H41353   9.398  11.783   7.061  0.7686  0.9024 -1.6593
  300MOL0     H41354   9.289  11.560   7.007 -0.9266 -0.9828 -0.8936
  300MOL0     H41355   9.224  11.648   6.858  2.4438  0.7707 -1.5340
  300MOL0     H41356   9.429  11.483   6.870  1.0478 -0.1841 -1.4589
  300MOL0     H41357   9.410  11.611   6.759  3.4943  0.5789 -0.2791
  300MOL0     H41358   9.489  11.425   7.066  0.0542 -0.1924  1.4627
  300MOL0     H41359   9.560  11.262   7.230  2.2369 -0.0354 -0.4311
  300MOL0     H41360   9.479  11.360   7.357  0.4258  0.2156  1.0673
  300MOL0     H41361   9.631  11.303   7.382 -2.8280 -2.7190  0.5832
  300MOL0     H41362   9.944  11.865   7.473  0.7963  1.2381  0.5018
  300MOL0     H41363  10.017  11.966   7.673  0.5718 -0.8040  1.4821
  300MOL0     H41364  10.092  11.779   8.076  2.5112  0.0404  2.0717
  300MOL0     H41365  10.209  11.688   7.976  1.1973 -0.6033  1.9201
  300MOL0     H41366  10.254  11.953   8.122  2.5112  0.9778 -1.2113
  300MOL0     H41367  10.323  11.794   8.152  0.5711  0.9721  1.0520
  300MOL0     H41368  10.368  12.004   7.945 -3.3501 -0.2413  0.9058
  300MOL0     H41369  10.384  11.832   7.884 -0.8434 -2.7283  2.0147
  300MOL0     H41370  10.545  11.780   8.080 -0.3213  0.3854 -0.3267
  300MOL0     H41371  10.541  11.954   8.102 -0.4622  0.6933 -1.3297
  300MOL0     H41372  10.627  11.808   7.847  3.7659 -0.5463 -0.4904
  300MOL0     H41373  10.627  11.975   7.854 -0.6762 -0.6914 -0.6252
  300MOL0     H41374  10.799  11.807   8.039  2.0207 -0.0611 -0.3191
  300MOL0     H41375  10.772  11.978   8.049  0.4726  1.9769 -2.1996
  300MOL0     H41376  10.859  12.000   7.803  1.7561  0.7515 -0.0668
  300MOL0     H41377  10.883  11.827   7.808 -0.3117 -0.9801  0.3389
  300MOL0     H41378  11.104  11.912   7.859  1.8667  5.0364  0.2283
  300MOL0     H41379  11.037  11.880   8.021  1.3455 -0.6465 -1.0653
  300MOL0     H41380  10.053  11.555   7.844 -1.8919 -2.7830 -1.8063
  300MOL0     H41381   9.974  11.464   7.644  1.9493 -0.4014  1.5016
  300MOL0     H41382   9.837  11.738   7.225  1.7822 -2.0739  0.7651
  300MOL0     H41383   9.741  11.784   7.018 -3.1665  1.0808  0.6186
  300MOL0     H41384   8.027  11.521   6.349  0.1195 -0.4636  0.5695
  300MOL0     H41385   7.905  11.402   6.158  1.4053  1.6593 -3.3570
  300MOL0     H41386   7.942  11.233   5.742  1.5278 -0.0913 -2.0690
  300MOL0     H41387   7.869  11.156   5.522  0.5472  1.3878  1.0863
  300MOL0     H41388   7.741  10.783   5.317 -0.9350  0.5734 -0.0860
  300MOL0     H41389   7.767  10.728   5.487 -0.1706  0.7335  1.6137
  300MOL0     H41390   7.531  10.897   5.402 -0.7653  0.5371  2.1350
  300MOL0     H41391   7.579  10.843   5.571  5.0678  1.8626  0.6633
  300MOL0     H41392   7.550  10.602   5.419 -0.6693 -1.0903  0.3017
  300MOL0     H41393   7.396  10.687   5.473  0.0069  0.8663 -1.3203
  300MOL0     H41394   7.367  10.802   5.278  0.9491  0.3796  1.0355
  300MOL0     H41395   7.362  10.632   5.254 -3.5000  1.5580  3.0756
  300MOL0     H41396   7.668  10.720   4.994  0.9977  2.4399  0.8696
  300MOL0     H41397   7.787  10.768   5.689  1.1334 -0.7147 -3.3205
  300MOL0     H41398   7.792  10.735   5.932  1.9115 -1.7472  0.2910
  300MOL0     H41399   7.958  10.740   5.932 -0.8893 -1.1486  0.1746
  300MOL0     H41400   7.881  10.842   6.044 -1.5305 -0.2809  0.3839
  301MOL0     O41401  10.431  10.190   2.360  1.4606  0.1790  0.5078
  301MOL0     C41402  10.433  10.168   2.242  1.7205  0.0611  0.0842
  301MOL0     O41403  10.328  10.136   2.158  0.0182 -0.0724  0.7571
  301MOL0     C41404  10.209  10.141   2.218 -0.0758 -0.1135  0.3296
  301MOL0     C41405  10.143  10.022   2.247  0.2702 -0.1345 -0.1686
  301MOL0     C41406  10.007  10.020   2.300  0.6135 -0.7940 -0.2454
  301MOL0     C41407   9.939  10.149   2.288 -0.0557  0.3319 -0.3076
  301MOL0     O41408   9.806  10.160   2.329  0.4194  0.0951  0.5213
  301MOL0     C41409   9.740  10.047   2.387 -0.1299  0.5337 -0.2536
  301MOL0     C41410   9.606  10.089   2.443 -0.2296 -0.0503  0.2722
  301MOL0     C41411   9.510  10.144   2.326  0.9394  0.4564 -0.1929
  301MOL0     C41412   9.378  10.183   2.382 -0.5800 -0.7596 -0.6437
  301MOL0     C41413   9.263  10.179   2.277  0.3485 -0.5786  0.3231
  301MOL0     C41414   9.262  10.267   2.154 -0.3167  0.6492 -0.1737
  301MOL0     C41415   9.119  10.278   2.103 -0.4975  0.1109  0.9869
  301MOL0     C41416   9.056  10.416   2.118 -0.7207  0.2253 -0.3669
  301MOL0     N41417   8.913  10.412   2.073  0.1097  0.1014 -0.2936
  301MOL0     C41418   8.874  10.376   1.945 -0.7101  0.3639  0.4525
  301MOL0     C41419   8.740  10.375   1.942 -0.1121 -0.2704 -0.1761
  301MOL0     C41420   8.645  10.348   1.826  0.6349  0.8158 -0.3557
  301MOL0     C41421   8.723  10.308   1.697 -1.1595 -0.5198  0.3962
  301MOL0     C41422   8.633  10.332   1.576  0.5590  0.4639 -0.0085
  301MOL0     C41423   8.687  10.285   1.440 -0.4619 -0.7035  0.9037
  301MOL0     O41424   8.721  10.147   1.446  0.1079  0.9138  0.2821
  301MOL0     C41425   8.842  10.120   1.390  0.1629 -0.0618 -0.2997
  301MOL0     C41426   8.939  10.057   1.463  0.6866  0.0623  0.1827
  301MOL0     C41427   9.065  10.032   1.409 -0.8544 -0.2077  0.0631
  301MOL0     C41428   9.160   9.965   1.506 -1.0122  1.1229  0.3138
  301MOL0     C41429   9.094  10.074   1.281  0.2458  0.0009  0.2094
  301MOL0     C41430   9.221  10.048   1.217 -0.7299  0.7373  0.4080
  301MOL0     O41431   9.249  10.135   1.110  0.0186  0.3744 -0.4034
  301MOL0     C41432   9.365  10.141   1.035 -0.2790  0.1344  0.5024
  301MOL0     C41433   9.424  10.023   0.981  0.5852 -0.1292 -0.0045
  301MOL0     C41434   9.537  10.020   0.895  0.2360 -0.0151  0.3690
  301MOL0     C41435   9.585  10.144   0.855 -0.2091 -0.6221 -0.1195
  301MOL0     O41436   9.682  10.142   0.762 -0.1130 -0.7933  0.0954
  301MOL0     C41437   9.767  10.254   0.745  0.0085 -0.4287 -1.1205
  301MOL0     C41438   9.867  10.229   0.637  0.0396  0.4054 -0.2344
  301MOL0     C41439   9.947  10.090   0.649  0.9372 -0.2613  0.2269
  301MOL0     C41440  10.025  10.082   0.777  0.0395 -0.3379 -0.0714
  301MOL0     C41441  10.085   9.939   0.820 -0.3414 -0.9634 -1.1128
  301MOL0     C41442  10.236   9.944   0.795 -0.3699  0.0381  0.5381
  301MOL0     C41443  10.317  10.017   0.898  0.5491  0.3302  0.5715
  301MOL0     C41444  10.456   9.980   0.884  0.8480  0.3035 -0.1305
  301MOL0    Cl41445  10.556  10.098   0.969 -0.2684 -0.2640  0.2672
  301MOL0     C41446   9.526  10.266   0.907  0.0821 -0.7084  0.6568
  301MOL0     C41447   9.415  10.264   0.986 -0.3966 -0.8492  0.4002
  301MOL0     O41448   9.300   9.967   1.254 -0.3278  0.5244  0.0056
  301MOL0     C41449   9.003  10.159   1.212 -0.7647 -0.1152  0.0106
  301MOL0     C41450   8.876  10.175   1.259 -1.7926  0.2528 -1.0299
  301MOL0     N41451   8.697  10.408   2.070  0.3913 -1.5107 -0.1143
  301MOL0     N41452   8.802  10.454   2.141  0.4881 -0.2785 -0.4106
  301MOL0     C41453  10.003  10.271   2.244  0.0548 -0.0009 -0.7315
  301MOL0     C41454  10.136  10.257   2.213  0.3606  0.8870  0.2019
  301MOL0     C41455  10.561  10.168   2.165 -0.0976 -0.2849  0.1428
  301MOL0     C41456  10.592  10.052   2.100  0.0639 -0.2467 -0.1386
  301MOL0     C41457  10.706  10.044   2.014 -0.2342 -0.5256 -0.7027
  301MOL0     C41458  10.792  10.151   2.000  0.0482  0.5152 -0.7920
  301MOL0     O41459  10.894  10.124   1.910  0.3355  0.4961  0.0936
  301MOL0     C41460  10.964  10.240   1.863  0.8487 -0.2905 -0.0542
  301MOL0     C41461  11.068  10.184   1.764  0.0493  0.6967 -0.0526
  301MOL0     C41462  11.168  10.296   1.732 -0.2588  0.9111 -0.2032
  301MOL0     C41463  11.101  10.392   1.640  0.7210  0.6512 -0.0577
  301MOL0     C41464  11.168  10.518   1.625 -0.4022  0.6304  0.5132
  301MOL0     C41465  11.233  10.617   1.645 -0.4945  0.1210  0.4881
  301MOL0     C41466  10.781  10.257   2.089 -0.0368 -0.4882 -0.7254
  301MOL0     C41467  10.660  10.269   2.170 -0.5007  0.6411  0.6473
  301MOL0     C41468  10.655  10.389   2.258 -0.6400  0.4140  0.2226
  301MOL0     H41469  10.200   9.931   2.233  0.1490 -0.6056  2.0915
  301MOL0     H41470   9.965   9.927   2.338  0.8751 -1.1971 -0.9354
  301MOL0     H41471   9.810  10.012   2.463  1.5089  0.3161 -1.7817
  301MOL0     H41472   9.728   9.973   2.308  2.2075 -0.6642  0.4142
  301MOL0     H41473   9.567  10.011   2.508  2.1458 -2.4835 -1.0139
  301MOL0     H41474   9.624  10.179   2.502 -3.7807 -0.5829  2.4624
  301MOL0     H41475   9.554  10.233   2.281  1.2123  1.2781  1.6154
  301MOL0     H41476   9.492  10.059   2.260  0.2692 -2.3929  3.3529
  301MOL0     H41477   9.359  10.133   2.477 -0.4612  1.5608  0.6898
  301MOL0     H41478   9.389  10.286   2.419 -1.4048 -1.1776  0.8065
  301MOL0     H41479   9.178  10.214   2.336  1.3543  4.6601 -0.7834
  301MOL0     H41480   9.255  10.076   2.243  1.7149 -0.5714 -0.0902
  301MOL0     H41481   9.305  10.366   2.173  2.7533  0.2715 -3.8076
  301MOL0     H41482   9.324  10.227   2.073  0.4922 -0.9910  1.2056
  301MOL0     H41483   9.059  10.202   2.152  0.8478  0.0099  2.5547
  301MOL0     H41484   9.124  10.251   1.997 -2.2716 -5.4048  1.9697
  301MOL0     H41485   9.057  10.440   2.225 -0.7019 -0.7415 -0.1351
  301MOL0     H41486   9.104  10.491   2.055 -3.5809  0.8847 -1.9129
  301MOL0     H41487   8.937  10.370   1.857 -1.5946  1.7502 -0.3265
  301MOL0     H41488   8.578  10.429   1.794 -0.5171 -0.9382 -2.7094
  301MOL0     H41489   8.585  10.262   1.860  0.4554 -0.1564 -2.9634
  301MOL0     H41490   8.807  10.377   1.686 -0.3295 -1.6039 -0.3912
  301MOL0     H41491   8.753  10.202   1.694 -1.2215 -0.5173 -0.6133
  301MOL0     H41492   8.540  10.277   1.590  0.6034 -0.2662 -2.2784
  301MOL0     H41493   8.599  10.435   1.579  0.0453  0.2986  2.3378
  301MOL0     H41494   8.624  10.307   1.352  1.5334 -0.0348 -0.4243
  301MOL0     H41495   8.774  10.347   1.419 -1.2728  1.5246  3.5284
  301MOL0     H41496   8.924  10.036   1.568  4.4964  0.8213  1.0019
  301MOL0     H41497   9.115   9.965   1.606 -1.1975  4.1866  0.3539
  301MOL0     H41498   9.251  10.026   1.494 -0.2262 -0.2026 -0.6317
  301MOL0     H41499   9.179   9.864   1.471  1.2891  1.6806 -0.2298
  301MOL0     H41500   9.390   9.925   1.010 -0.6648  0.2195 -0.2216
  301MOL0     H41501   9.589   9.928   0.869 -0.6053 -1.2426  2.7274
  301MOL0     H41502   9.707  10.337   0.706 -0.6745 -1.1785 -1.6811
  301MOL0     H41503   9.813  10.283   0.840  0.1127  1.0648 -1.5976
  301MOL0     H41504   9.804  10.231   0.547 -0.7293 -0.3210  0.2697
  301MOL0     H41505   9.942  10.307   0.626 -0.1650  0.3530 -2.7105
  301MOL0     H41506  10.014  10.087   0.563 -1.4503  4.1230 -2.1035
  301MOL0     H41507   9.878  10.005   0.659  3.2308 -2.6067 -2.1604
  301MOL0     H41508   9.971  10.132   0.858 -0.8052  0.7497 -1.2773
  301MOL0     H41509  10.107  10.154   0.765  1.9744 -2.3063  0.4710
  301MOL0     H41510  10.069   9.918   0.926  1.5775  2.0878 -0.0909
  301MOL0     H41511  10.039   9.864   0.755 -1.0735 -2.2504  0.7968
  301MOL0     H41512  10.246   9.990   0.696 -2.8711 -1.7875 -0.6770
  301MOL0     H41513  10.279   9.844   0.800 -1.2743 -0.3682  0.4646
  301MOL0     H41514  10.271   9.990   0.994 -0.6899  0.6104  0.0755
  301MOL0     H41515  10.300  10.124   0.882 -2.2548 -0.0465  0.4997
  301MOL0     H41516  10.497   9.964   0.784  3.7022 -1.7406  1.2282
  301MOL0     H41517  10.478   9.889   0.941  2.4275 -0.2282 -1.5218
  301MOL0     H41518   9.556  10.369   0.891 -0.4979 -0.3316  1.8213
  301MOL0     H41519   9.359  10.351   1.017 -0.5485 -0.0197 -1.9541
  301MOL0     H41520   9.025  10.218   1.124  2.5726  0.5743  1.1645
  301MOL0     H41521   8.805  10.240   1.209 -0.7297  2.5947  0.3298
  301MOL0     H41522   9.957  10.367   2.227  3.3986  1.9285  0.1216
  301MOL0     H41523  10.191  10.346   2.187  1.5111 -0.2097 -1.2983
  301MOL0     H41524  10.511   9.982   2.085 -0.8304  0.8380 -0.5424
  301MOL0     H41525  10.716   9.955   1.953 -4.5511  0.3071 -3.0262
  301MOL0     H41526  10.888  10.303   1.816 -0.6215 -2.1516 -0.3116
  301MOL0     H41527  11.013  10.290   1.946 -0.3061  1.9753 -0.6556
  301MOL0     H41528  11.013  10.141   1.681  0.2371 -1.7607  1.0087
  301MOL0     H41529  11.118  10.097   1.808 -1.0878  0.1127  0.0995
  301MOL0     H41530  11.209  10.348   1.819 -0.6725 -0.8077  1.0755
  301MOL0     H41531  11.251  10.255   1.673 -1.7490 -0.8749 -1.1812
  301MOL0     H41532  11.001  10.426   1.670 -2.2531 -2.3327 -5.1115
  301MOL0     H41533  11.093  10.340   1.544  0.0822  0.4823  0.0836
  301MOL0     H41534  11.291  10.707   1.657 -1.1098  0.4819  0.8331
  301MOL0     H41535  10.867  10.318   2.113 -0.4288 -0.0607 -0.4121
  301MOL0     H41536  10.642  10.359   2.362 -0.1983 -2.2071 -0.4057
  301MOL0     H41537  10.746  10.449   2.261 -1.7911  2.2007  1.6649
  301MOL0     H41538  10.570  10.453   2.233  0.6260  1.7644 -0.8373
  302MOL0     O41539   9.109   9.180   0.313 -0.0326  0.5041 -0.7332
  302MOL0     C41540   9.081   9.135   0.205  0.0439 -0.1937 -0.2208
  302MOL0     O41541   9.130   9.021   0.149 -0.5157 -0.3458  0.9869
  302MOL0     C41542   9.262   8.983   0.176  1.3514  0.6615  0.3590
  302MOL0     C41543   9.368   9.072   0.217  0.1522  0.7799 -0.5547
  302MOL0     C41544   9.498   9.016   0.232  0.5940  0.5647 -0.1279
  302MOL0     C41545   9.527   8.886   0.198 -0.2952 -0.8149 -0.1471
  302MOL0     O41546   9.643   8.819   0.238 -0.1293 -0.7801 -0.2136
  302MOL0     C41547   9.762   8.903   0.272  0.0693  0.5898  0.1977
  302MOL0     C41548   9.879   8.813   0.296 -0.0997  0.4377 -0.2225
  302MOL0     C41549   9.846   8.709   0.402  0.1766 -0.0947  0.6214
  302MOL0     C41550   9.980   8.623   0.427  0.6047 -0.1135  0.0149
  302MOL0     C41551   9.968   8.532   0.552 -0.4234 -0.4325  0.5396
  302MOL0     C41552  10.105   8.482   0.581 -0.6446 -0.8659 -0.4664
  302MOL0     C41553  10.098   8.398   0.713  0.1129 -0.2239  0.1166
  302MOL0     C41554  10.238   8.346   0.751 -0.4801  0.2017 -0.3536
  302MOL0     N41555  10.281   8.231   0.660  0.5498 -0.7374  0.0661
  302MOL0     C41556  10.298   8.106   0.694  0.1388  0.9461  0.3331
  302MOL0     C41557  10.358   8.044   0.587 -0.0643 -0.0275 -0.0849
  302MOL0     C41558  10.391   7.894   0.561 -0.2182  0.6783 -0.0696
  302MOL0     C41559  10.287   7.824   0.477  0.8384 -0.5363  0.8414
  302MOL0     C41560  10.146   7.818   0.529  0.0045  0.4358  0.2007
  302MOL0     C41561  10.065   7.702   0.457 -0.5031  0.0298  0.5190
  302MOL0     O41562   9.945   7.685   0.536  0.2532  0.2769  0.2490
  302MOL0     C41563   9.823   7.735   0.480  0.1427  0.3896 -0.8895
  302MOL0     C41564   9.812   7.822   0.375  0.0873 -0.4667  0.2309
  302MOL0     C41565   9.688   7.847   0.310 -0.5174 -0.0833  0.4397
  302MOL0     C41566   9.693   7.922   0.188  0.3953  0.4891 -0.1217
  302MOL0     C41567   9.571   7.794   0.371  0.5491 -0.2561 -0.4368
  302MOL0     C41568   9.437   7.831   0.310 -0.0908  0.0302 -0.2258
  302MOL0     O41569   9.406   7.956   0.259  0.1438  0.0938  0.0430
  302MOL0     C41570   9.280   7.979   0.219 -0.0327  0.2403 -0.1218
  302MOL0     C41571   9.255   8.013   0.090 -0.3718  0.4898  0.2376
  302MOL0     C41572   9.126   8.047   0.055  0.0787 -0.0928 -0.1655
  302MOL0     C41573   9.020   8.056   0.145  0.4589  0.4650  1.3314
  302MOL0     O41574   8.893   8.103   0.106  0.3413  0.4274  0.0396
  302MOL0     C41575   8.816   8.019   0.024 -0.3803 -0.3547  1.0303
  302MOL0     C41576   8.666   8.068   0.032  0.2456 -0.9180  0.0252
  302MOL0     C41577   8.616   8.060   0.181 -0.3827 -0.4747  0.7966
  302MOL0     C41578   8.475   8.084   0.191  0.0180 -0.1197 -0.8628
  302MOL0     C41579   8.427   8.162   0.315 -0.2370 -0.6776  0.5557
  302MOL0     C41580   8.283   8.211   0.316  1.1384 -0.2398 -0.3298
  302MOL0     C41581   8.268   8.353   0.394  0.2772  0.8289  0.1005
  302MOL0     C41582   8.146   8.441   0.363  0.2764  0.2890  1.0078
  302MOL0    Cl41583   8.167   8.497   0.185 -0.1732 -0.2281  0.2931
  302MOL0     C41584   9.048   8.029   0.276 -0.3722  0.9090 -0.2701
  302MOL0     C41585   9.179   7.984   0.311  0.0208  0.0427 -0.6871
  302MOL0     O41586   9.362   7.735   0.301  0.1548 -0.1638  0.0971
  302MOL0     C41587   9.582   7.727   0.493 -0.3208 -0.6208  0.0825
  302MOL0     C41588   9.711   7.698   0.545 -0.6284  0.0833  0.1928
  302MOL0     N41589  10.381   8.139   0.492  0.5396  0.6448  0.0461
  302MOL0     N41590  10.338   8.248   0.537 -0.1230  0.3888 -0.3661
  302MOL0     C41591   9.425   8.808   0.144 -0.0069 -0.0721 -0.7082
  302MOL0     C41592   9.295   8.851   0.133  0.1764 -0.6280 -0.7881
  302MOL0     C41593   8.960   9.185   0.134  0.8023  0.5340 -0.6538
  302MOL0     C41594   8.967   9.301   0.052 -0.2494  0.3719  0.3893
  302MOL0     C41595   8.860   9.346  -0.026  0.5223  0.0754  0.4281
  302MOL0     C41596   8.738   9.271  -0.015 -0.6963 -0.7980 -1.0342
  302MOL0     O41597   8.623   9.306  -0.071 -0.1137  0.0585  0.9358
  302MOL0     C41598   8.614   9.242  -0.201  0.3528 -0.5927 -0.9360
  302MOL0     C41599   8.471   9.250  -0.261 -0.2305 -0.0345 -1.2293
  302MOL0     C41600   8.397   9.391  -0.247 -0.0934  1.1925 -0.1486
  302MOL0     C41601   8.256   9.392  -0.315 -0.3400  0.0051  0.3700
  302MOL0     C41602   8.268   9.384  -0.464  0.0416  0.7279  0.2108
  302MOL0     C41603   8.271   9.372  -0.587 -0.2067 -0.5703 -0.8512
  302MOL0     C41604   8.736   9.154   0.061 -0.0469  0.1719  0.2377
  302MOL0     C41605   8.842   9.110   0.140 -0.6873 -0.3061 -0.0795
  302MOL0     C41606   8.821   8.983   0.222 -0.7175  0.7235  0.4798
  302MOL0     H41607   9.372   9.177   0.246  2.5778  0.4046  0.7225
  302MOL0     H41608   9.577   9.076   0.276  0.1662  1.6672 -0.8273
  302MOL0     H41609   9.748   8.945   0.372  2.5985  0.7828  0.5312
  302MOL0     H41610   9.775   8.984   0.199 -0.2212  0.2061 -0.2939
  302MOL0     H41611   9.911   8.767   0.202 -1.9132  0.3693 -0.8431
  302MOL0     H41612   9.962   8.877   0.327  1.4147 -1.9247  0.9234
  302MOL0     H41613   9.807   8.758   0.492 -1.1667  0.3001 -0.1417
  302MOL0     H41614   9.760   8.645   0.383 -1.5798  1.5555  2.4825
  302MOL0     H41615  10.005   8.569   0.335 -2.0092 -1.9286  0.2455
  302MOL0     H41616  10.064   8.689   0.450  1.0867 -1.0649  1.0799
  302MOL0     H41617   9.905   8.444   0.537  1.1214 -2.2642  3.7281
  302MOL0     H41618   9.927   8.592   0.633 -0.8519 -0.3636  0.2760
  302MOL0     H41619  10.163   8.430   0.505  0.9408  0.6169 -0.3194
  302MOL0     H41620  10.160   8.572   0.607  0.3276 -1.1943 -1.3441
  302MOL0     H41621  10.043   8.304   0.703 -0.2381 -0.1409  1.1040
  302MOL0     H41622  10.051   8.457   0.793 -1.8113  0.8282 -1.6655
  302MOL0     H41623  10.312   8.425   0.741  0.3749 -0.6068 -0.5540
  302MOL0     H41624  10.234   8.309   0.854 -5.2925  2.7709  0.7082
  302MOL0     H41625  10.272   8.059   0.788 -3.3353  4.0937  1.1772
  302MOL0     H41626  10.415   7.841   0.654  0.7962  0.1831 -0.6000
  302MOL0     H41627  10.484   7.892   0.504  0.5562 -0.2422  1.1806
  302MOL0     H41628  10.278   7.880   0.383  1.1567 -0.1764  1.0244
  302MOL0     H41629  10.311   7.722   0.446 -2.2165 -0.6113 -1.8113
  302MOL0     H41630  10.151   7.800   0.636  1.1007  0.9277  0.2368
  302MOL0     H41631  10.082   7.906   0.513 -4.9279 -2.8660 -0.6934
  302MOL0     H41632  10.053   7.721   0.350 -0.7939 -3.7487 -0.2735
  302MOL0     H41633  10.125   7.611   0.462  0.2814  0.5601  1.0625
  302MOL0     H41634   9.899   7.870   0.331  0.0657  2.0081  2.6234
  302MOL0     H41635   9.630   7.877   0.110 -1.4336  3.0998 -0.2874
  302MOL0     H41636   9.793   7.925   0.143  1.1195  2.0154  1.4807
  302MOL0     H41637   9.657   8.023   0.207  1.0253  0.6673  0.1675
  302MOL0     H41638   9.335   8.013   0.017 -0.8609  0.9960 -0.3128
  302MOL0     H41639   9.096   8.063  -0.048 -3.1628 -0.5304  0.6065
  302MOL0     H41640   8.840   8.020  -0.083  0.3412  0.5616  1.1898
  302MOL0     H41641   8.817   7.915   0.059  0.4904 -1.2108 -1.3108
  302MOL0     H41642   8.650   8.174   0.012 -3.0719 -1.2648  0.2655
  302MOL0     H41643   8.608   8.008  -0.038 -1.0502 -0.9995  1.1112
  302MOL0     H41644   8.664   8.133   0.247 -1.7259  0.3757  0.8882
  302MOL0     H41645   8.647   7.959   0.208  0.7375 -1.5367 -3.6525
  302MOL0     H41646   8.414   7.994   0.198 -1.8254  1.2105  2.3714
  302MOL0     H41647   8.444   8.152   0.110 -0.0771 -0.8839 -1.4773
  302MOL0     H41648   8.460   8.105   0.403  0.2751  1.0264  1.5018
  302MOL0     H41649   8.482   8.254   0.336 -2.1581 -0.0312  3.3077
  302MOL0     H41650   8.216   8.140   0.366  0.5702  0.4924 -0.0169
  302MOL0     H41651   8.254   8.213   0.211  1.7759 -1.6985 -0.5457
  302MOL0     H41652   8.353   8.417   0.370  0.0700  1.2672  0.5199
  302MOL0     H41653   8.269   8.337   0.502 -1.8213 -0.4323 -0.0001
  302MOL0     H41654   8.144   8.539   0.412 -3.6694 -0.6652  3.1807
  302MOL0     H41655   8.047   8.397   0.377  0.1683  0.2977  0.2977
  302MOL0     H41656   8.969   8.042   0.349  0.3775  1.4651  0.4720
  302MOL0     H41657   9.190   7.966   0.417 -1.5728  0.2323 -0.4654
  302MOL0     H41658   9.485   7.704   0.535 -2.2940  3.0139 -1.9791
  302MOL0     H41659   9.732   7.646   0.638  2.3418  1.3555  0.3390
  302MOL0     H41660   9.448   8.702   0.143  2.2837  0.3754 -0.3964
  302MOL0     H41661   9.226   8.780   0.090 -0.5456 -0.0688 -0.5702
  302MOL0     H41662   9.066   9.343   0.050 -0.5006  0.9479  0.0454
  302MOL0     H41663   8.871   9.445  -0.069  4.0073 -0.7802 -1.0318
  302MOL0     H41664   8.678   9.303  -0.266  0.4713  0.8352  0.4543
  302MOL0     H41665   8.655   9.141  -0.206  1.0649 -0.2726 -1.9204
  302MOL0     H41666   8.415   9.176  -0.204  0.3834  0.0733 -0.4734
  302MOL0     H41667   8.469   9.218  -0.365 -1.5111 -3.1611 -0.3403
  302MOL0     H41668   8.393   9.417  -0.140 -0.5208 -1.5773  0.5685
  302MOL0     H41669   8.447   9.468  -0.307 -1.9681  2.1194 -0.5872
  302MOL0     H41670   8.201   9.486  -0.303  1.1559  0.9458  0.0563
  302MOL0     H41671   8.192   9.314  -0.274  1.4524 -1.0663  1.2081
  302MOL0     H41672   8.269   9.357  -0.693  0.7273 -3.7590 -0.5317
  302MOL0     H41673   8.646   9.094   0.057 -0.0488  0.2087 -0.2275
  302MOL0     H41674   8.810   8.893   0.160  2.9407  1.5143 -1.5702
  302MOL0     H41675   8.909   8.951   0.278 -0.3849 -2.2527 -1.5183
  302MOL0     H41676   8.748   8.999   0.302  0.7007 -3.6306  2.9768
  303MOL0     O41677   1.075   3.544   6.478 -0.1569 -0.4990 -0.4279
  303MOL0     C41678   1.031   3.431   6.504 -0.4138 -0.4185  0.6407
  303MOL0     O41679   1.076   3.314   6.454  0.2097 -0.2341  0.0673
  303MOL0     C41680   1.189   3.324   6.377  0.4856 -0.4044 -0.2262
  303MOL0     C41681   1.188   3.259   6.257 -0.2592 -0.0498 -0.3861
  303MOL0     C41682   1.305   3.274   6.179  0.6143  0.1762 -0.3898
  303MOL0     C41683   1.416   3.340   6.221  0.0247 -0.4079  0.1009
  303MOL0     O41684   1.523   3.316   6.143 -0.3948 -0.0957  0.4950
  303MOL0     C41685   1.617   3.221   6.196 -0.1191 -0.1391  0.4635
  303MOL0     C41686   1.750   3.297   6.218 -0.9405  0.2295  0.1445
  303MOL0     C41687   1.796   3.362   6.090 -0.2632  0.7933  0.5108
  303MOL0     C41688   1.938   3.402   6.108 -0.6594  0.2200  0.1533
  303MOL0     C41689   1.998   3.468   5.987  0.3355  0.0914  0.2779
  303MOL0     C41690   1.924   3.579   5.910 -0.3523  0.4063  0.6007
  303MOL0     C41691   1.977   3.630   5.781 -0.1425 -0.4167  0.0602
  303MOL0     C41692   2.132   3.628   5.777  0.4633  0.2726  0.1761
  303MOL0     N41693   2.173   3.707   5.656  0.3402  0.0257 -0.0770
  303MOL0     C41694   2.142   3.691   5.528 -0.1185  0.0194  0.5119
  303MOL0     C41695   2.203   3.798   5.469  0.8551  0.9624 -0.5658
  303MOL0     C41696   2.179   3.817   5.322 -0.1815 -0.7553 -0.1352
  303MOL0     C41697   2.181   3.962   5.281  0.2574 -0.1311  0.2463
  303MOL0     C41698   2.153   3.986   5.132  0.2921 -0.1046  0.6544
  303MOL0     C41699   2.114   4.139   5.097 -0.9835  0.8564  0.5538
  303MOL0     O41700   2.089   4.142   4.957 -0.3176  0.1886  0.5723
  303MOL0     C41701   2.074   4.259   4.882 -0.3336 -0.8372  0.4717
  303MOL0     C41702   2.050   4.388   4.942  1.1583  0.4744  0.4736
  303MOL0     C41703   2.051   4.508   4.871 -0.4791 -0.2409  0.0262
  303MOL0     C41704   2.009   4.635   4.941 -0.2291 -0.5161  0.1378
  303MOL0     C41705   2.089   4.503   4.736 -0.4280 -0.1228 -0.6034
  303MOL0     C41706   2.110   4.625   4.661  0.0371  0.6508 -0.3949
  303MOL0     O41707   1.996   4.689   4.625  0.4493  0.5072 -0.0125
  303MOL0     C41708   2.016   4.815   4.572 -0.5038 -0.4596 -1.6651
  303MOL0     C41709   1.977   4.927   4.647  0.5272  0.7634  0.0187
  303MOL0     C41710   1.987   5.057   4.579 -0.1822  0.2612 -0.2907
  303MOL0     C41711   2.037   5.069   4.443  0.1724 -0.8590 -1.2258
  303MOL0     O41712   2.041   5.188   4.360 -0.7088 -0.0482 -0.4891
  303MOL0     C41713   2.009   5.319   4.429 -0.2449  0.3803  0.1976
  303MOL0     C41714   2.122   5.379   4.510  0.1000 -0.2003 -0.1581
  303MOL0     C41715   2.221   5.292   4.578  0.5556 -0.4091 -0.2559
  303MOL0     C41716   2.331   5.372   4.667  0.8517  0.4472 -0.7865
  303MOL0     C41717   2.399   5.285   4.765  0.0294 -0.5341  0.0595
  303MOL0     C41718   2.517   5.355   4.832 -0.0707  0.5596  0.6102
  303MOL0     C41719   2.458   5.442   4.947 -0.4390 -0.4310 -0.3477
  303MOL0     C41720   2.560   5.520   5.023  0.1129 -0.4018  0.4130
  303MOL0    Cl41721   2.684   5.420   5.108 -0.4749 -0.0555 -0.5717
  303MOL0     C41722   2.072   4.958   4.377 -0.7234 -0.3040 -1.5133
  303MOL0     C41723   2.053   4.834   4.440  0.2774  0.6727  0.1180
  303MOL0     O41724   2.224   4.649   4.625  1.2086  0.1736  0.7876
  303MOL0     C41725   2.114   4.384   4.680  0.0062  0.6820  0.5405
  303MOL0     C41726   2.099   4.257   4.745  0.8107 -0.0189  0.3400
  303MOL0     N41727   2.267   3.880   5.558  0.1702  0.0124 -0.1708
  303MOL0     N41728   2.247   3.823   5.671  0.7571  0.2048  0.0096
  303MOL0     C41729   1.422   3.402   6.345 -1.0284  0.3805 -0.3966
  303MOL0     C41730   1.301   3.405   6.417 -0.2384  0.0591 -0.2928
  303MOL0     C41731   0.903   3.436   6.581 -0.1908  0.9417 -0.7588
  303MOL0     C41732   0.791   3.379   6.528 -0.3394  0.1175  0.0444
  303MOL0     C41733   0.661   3.399   6.577  0.3059  0.3470 -1.4970
  303MOL0     C41734   0.635   3.490   6.681 -0.1390  0.6088  0.1390
  303MOL0     O41735   0.516   3.525   6.728  0.1961  0.5270 -0.3313
  303MOL0     C41736   0.427   3.415   6.738  0.9055 -0.1888  0.2037
  303MOL0     C41737   0.325   3.418   6.853 -0.1632  0.2220  0.7990
  303MOL0     C41738   0.394   3.447   6.994  0.6302 -0.5144  0.0313
  303MOL0     C41739   0.377   3.593   7.027 -0.1123  0.3107 -1.1835
  303MOL0     C41740   0.485   3.643   7.118  1.1795  0.0268 -0.2984
  303MOL0     C41741   0.560   3.676   7.204 -0.3701 -0.8182 -0.4939
  303MOL0     C41742   0.756   3.533   6.744  0.2370 -0.9552  0.1270
  303MOL0     C41743   0.885   3.507   6.700  1.0327  0.6601 -0.4088
  303MOL0     C41744   0.992   3.585   6.776  0.3008  0.3157  0.6098
  303MOL0     H41745   1.095   3.215   6.220 -0.1505 -0.2879 -0.3751
  303MOL0     H41746   1.326   3.218   6.088  2.3007  1.6313 -0.9393
  303MOL0     H41747   1.635   3.138   6.127  0.6433  0.2515  0.1835
  303MOL0     H41748   1.573   3.176   6.285 -0.7000 -2.2746 -0.8235
  303MOL0     H41749   1.732   3.372   6.296  2.3189  2.4342 -1.0383
  303MOL0     H41750   1.830   3.231   6.252  1.3085  3.5417  1.7813
  303MOL0     H41751   1.795   3.291   6.007  3.2341  0.3676  0.6762
  303MOL0     H41752   1.729   3.447   6.070 -3.6420 -2.0528 -1.4064
  303MOL0     H41753   1.957   3.466   6.195  2.4543  1.7512 -1.4774
  303MOL0     H41754   1.995   3.310   6.124 -3.3700 -1.6064 -0.1176
  303MOL0     H41755   2.025   3.392   5.912  2.0503  1.9792 -1.1527
  303MOL0     H41756   2.090   3.511   6.028 -0.6397  2.7328 -0.1199
  303MOL0     H41757   1.818   3.555   5.896 -1.3211  4.1151  0.5587
  303MOL0     H41758   1.916   3.667   5.975 -3.7448 -1.5784  3.2569
  303MOL0     H41759   1.952   3.734   5.760 -2.5347 -1.0606 -0.5414
  303MOL0     H41760   1.941   3.576   5.693 -2.0258  0.9287 -0.0516
  303MOL0     H41761   2.176   3.675   5.866 -3.1271  2.4060  1.0331
  303MOL0     H41762   2.163   3.524   5.773  0.1277 -0.0751  3.3569
  303MOL0     H41763   2.082   3.618   5.475 -2.0629  1.4709  0.6305
  303MOL0     H41764   2.081   3.772   5.303 -1.2715  0.1450  2.7610
  303MOL0     H41765   2.258   3.767   5.265  1.8213  2.0940 -0.0618
  303MOL0     H41766   2.115   4.026   5.341  1.0095  0.1420  0.8083
  303MOL0     H41767   2.280   4.006   5.297  1.0099 -1.4302 -0.6817
  303MOL0     H41768   2.245   3.962   5.077 -1.1224 -1.3108 -1.3262
  303MOL0     H41769   2.076   3.917   5.097 -0.1535  1.3866 -1.5170
  303MOL0     H41770   2.026   4.179   5.149 -0.3206  3.4363 -0.1550
  303MOL0     H41771   2.205   4.192   5.125  0.7914 -1.4282 -0.6363
  303MOL0     H41772   2.021   4.389   5.047  0.9747  0.4032  0.4226
  303MOL0     H41773   2.080   4.650   5.022  0.8154  2.6937 -1.2258
  303MOL0     H41774   1.914   4.625   4.994 -0.5594  2.5411  0.2620
  303MOL0     H41775   2.025   4.727   4.884 -3.0878  0.6485  1.0395
  303MOL0     H41776   1.941   4.902   4.746 -3.0370 -3.1821 -2.0049
  303MOL0     H41777   1.941   5.145   4.623  2.2318  0.4797  2.0363
  303MOL0     H41778   1.982   5.391   4.351  1.1050  0.5438 -0.1399
  303MOL0     H41779   1.918   5.331   4.489 -0.4521  0.4049 -0.1217
  303MOL0     H41780   2.183   5.425   4.432 -1.2969 -1.7325 -2.2678
  303MOL0     H41781   2.082   5.453   4.581 -0.7285 -1.2072  0.4447
  303MOL0     H41782   2.273   5.246   4.494 -1.9050 -0.6212 -1.7499
  303MOL0     H41783   2.157   5.225   4.637  1.8613 -0.7235  0.8480
  303MOL0     H41784   2.269   5.437   4.729  0.4169 -2.0037  1.5094
  303MOL0     H41785   2.404   5.423   4.602  0.3336 -1.9553 -3.4335
  303MOL0     H41786   2.332   5.236   4.836 -2.7821  0.6722 -1.5946
  303MOL0     H41787   2.429   5.208   4.693 -0.5573  0.0545 -0.8441
  303MOL0     H41788   2.580   5.412   4.763  1.1825 -2.0058 -0.4965
  303MOL0     H41789   2.583   5.275   4.867  0.3582  1.6976  2.5968
  303MOL0     H41790   2.399   5.378   5.014 -1.5917  0.7044 -0.2314
  303MOL0     H41791   2.380   5.510   4.910 -1.4104 -0.9536  0.6543
  303MOL0     H41792   2.519   5.583   5.102  4.6649  0.5671  2.2919
  303MOL0     H41793   2.609   5.591   4.956  0.6122  0.1888  1.3848
  303MOL0     H41794   2.121   4.960   4.280  1.0389  0.3581 -0.6634
  303MOL0     H41795   2.053   4.745   4.378  2.5733  0.1597  0.7567
  303MOL0     H41796   2.127   4.392   4.572 -0.7210 -1.7847  0.1952
  303MOL0     H41797   2.121   4.165   4.692  1.5887 -0.4181  1.3193
  303MOL0     H41798   1.518   3.440   6.379 -0.0560 -0.7341 -1.7973
  303MOL0     H41799   1.308   3.455   6.513  2.6295 -3.2152  1.4096
  303MOL0     H41800   0.805   3.314   6.442  1.2526 -0.7051  0.8776
  303MOL0     H41801   0.574   3.354   6.530 -1.7135  0.6582  1.6626
  303MOL0     H41802   0.366   3.412   6.647  2.1321  3.5381 -0.9472
  303MOL0     H41803   0.483   3.321   6.743  0.0850 -0.6743  0.4242
  303MOL0     H41804   0.279   3.319   6.848  0.8580 -0.2699  0.9086
  303MOL0     H41805   0.250   3.493   6.827  0.3276  0.3403 -0.3340
  303MOL0     H41806   0.337   3.397   7.072 -1.8139 -0.0692 -1.3532
  303MOL0     H41807   0.499   3.416   6.996  0.2847 -1.6883  1.6104
  303MOL0     H41808   0.273   3.610   7.058  0.1509 -1.3629  0.7914
  303MOL0     H41809   0.386   3.652   6.936  0.3742  1.8768 -0.1681
  303MOL0     H41810   0.631   3.724   7.269 -3.0006  0.1158  1.8952
  303MOL0     H41811   0.756   3.596   6.832 -0.5061  0.5146 -0.8996
  303MOL0     H41812   0.971   3.595   6.883 -1.1598 -0.0060  0.3691
  303MOL0     H41813   1.092   3.539   6.772  0.8464  1.2997  1.9235
  303MOL0     H41814   1.003   3.686   6.735  1.0149  0.1082  0.2675
  304MOL0     O41815  10.431   8.714   0.262 -0.1279  0.5199 -0.4351
  304MOL0     C41816  10.504   8.812   0.286  0.5091  0.3439 -0.5838
  304MOL0     O41817  10.636   8.796   0.330  0.1791  0.0273 -0.5746
  304MOL0     C41818  10.702   8.675   0.347  0.0102 -0.8760  0.7575
  304MOL0     C41819  10.708   8.565   0.261 -0.2518  0.4665 -0.0295
  304MOL0     C41820  10.785   8.452   0.280  0.0473 -0.5191 -0.0703
  304MOL0     C41821  10.873   8.466   0.395 -0.0188  0.0058 -0.4542
  304MOL0     O41822  10.948   8.359   0.422 -0.8534 -0.2352 -0.1975
  304MOL0     C41823  10.952   8.313   0.558  0.0448  0.2328 -0.1325
  304MOL0     C41824  11.041   8.193   0.562 -0.0627  0.3611 -0.2980
  304MOL0     C41825  11.002   8.069   0.477 -0.0630 -0.1109  0.3156
  304MOL0     C41826  10.859   8.023   0.499 -0.6694 -0.3901  0.7319
  304MOL0     C41827  10.799   7.903   0.425 -1.1494 -0.4544 -0.2985
  304MOL0     C41828  10.775   7.939   0.276 -0.9443 -0.7940 -0.7045
  304MOL0     C41829  10.687   7.838   0.214  1.1478 -0.1166 -0.3123
  304MOL0     C41830  10.762   7.698   0.197 -0.7254  0.0251  0.8015
  304MOL0     N41831  10.867   7.727   0.097 -0.5693  0.6603  0.0649
  304MOL0     C41832  10.839   7.777  -0.026  0.0114  0.4028 -0.6344
  304MOL0     C41833  10.962   7.787  -0.078 -0.9262  0.5269 -0.5203
  304MOL0     C41834  11.006   7.832  -0.220  0.2808  0.3327 -0.0137
  304MOL0     C41835  11.012   7.984  -0.234 -0.0256  0.3639 -0.0608
  304MOL0     C41836  11.054   8.025  -0.367 -0.5640 -0.0042 -0.2204
  304MOL0     C41837  11.077   8.172  -0.385 -0.7241  0.1503 -0.5911
  304MOL0     O41838  11.219   8.191  -0.371  0.2137 -1.0753  0.0339
  304MOL0     C41839  11.257   8.317  -0.341 -0.3720 -0.5359  0.1709
  304MOL0     C41840  11.181   8.429  -0.309 -0.6347  0.2146  0.8824
  304MOL0     C41841  11.238   8.558  -0.294 -0.4094 -0.9281 -0.1965
  304MOL0     C41842  11.149   8.674  -0.275  0.6618  0.3272  0.0826
  304MOL0     C41843  11.379   8.577  -0.290  0.1595 -0.9265 -0.3798
  304MOL0     C41844  11.450   8.709  -0.274 -0.5292  0.0463  0.2638
  304MOL0     O41845  11.581   8.692  -0.236 -0.1005 -0.3430  0.4448
  304MOL0     C41846  11.667   8.791  -0.188 -0.8782  0.6209  0.4047
  304MOL0     C41847  11.648   8.936  -0.175 -0.3248 -0.3126  0.0481
  304MOL0     C41848  11.754   9.022  -0.138  0.7887 -0.2178 -0.7078
  304MOL0     C41849  11.874   8.982  -0.095  0.0495  0.8927 -0.1734
  304MOL0     O41850  11.979   9.059  -0.065  0.2117 -0.0523  0.2018
  304MOL0     C41851  11.952   9.171   0.012  0.5405  0.4534  0.6647
  304MOL0     C41852  11.948   9.145   0.165  0.9588 -0.8575 -0.1094
  304MOL0     C41853  12.069   9.098   0.247  0.3655  0.9453  0.5214
  304MOL0     C41854  12.189   9.197   0.221  0.6652 -0.1614  0.4066
  304MOL0     C41855  12.311   9.135   0.147  0.8486  0.7764 -1.1730
  304MOL0     C41856  12.418   9.235   0.115 -0.5100 -0.0138  0.0159
  304MOL0     C41857  12.476   9.311   0.236  0.5567  0.0615 -0.2744
  304MOL0     C41858  12.587   9.403   0.201  0.5381  1.1596  0.6586
  304MOL0    Cl41859  12.734   9.303   0.165  0.0944 -0.2402 -0.3289
  304MOL0     C41860  11.897   8.848  -0.106 -0.4305 -0.1618 -0.4390
  304MOL0     C41861  11.797   8.758  -0.149  0.1468 -0.0807  0.2059
  304MOL0     O41862  11.387   8.819  -0.282  0.4933  0.9841 -0.0852
  304MOL0     C41863  11.452   8.459  -0.297  0.6278 -0.2053 -0.4978
  304MOL0     C41864  11.397   8.335  -0.325  0.6979 -0.0332 -0.3444
  304MOL0     N41865  11.067   7.759   0.013  0.0306 -0.3678 -0.7319
  304MOL0     N41866  11.004   7.713   0.127 -0.1237  0.1820  0.4642
  304MOL0     C41867  10.870   8.578   0.481  0.3871  0.6769  0.1114
  304MOL0     C41868  10.773   8.676   0.457 -1.4022  0.3475  0.4089
  304MOL0     C41869  10.440   8.944   0.278 -0.1640 -0.4720  0.6699
  304MOL0     C41870  10.318   8.945   0.203  0.0201  0.0997 -1.2519
  304MOL0     C41871  10.238   9.055   0.200  0.5247 -0.3947  0.2249
  304MOL0     C41872  10.277   9.171   0.261  0.0416 -0.0138 -0.8880
  304MOL0     O41873  10.209   9.288   0.253  0.1600  0.3851 -0.4932
  304MOL0     C41874  10.066   9.288   0.241 -0.8753 -0.3287 -0.4291
  304MOL0     C41875  10.019   9.435   0.227 -0.2893 -0.7143 -0.1309
  304MOL0     C41876  10.050   9.504   0.094  0.7108  0.1406  0.3374
  304MOL0     C41877   9.974   9.633   0.088  0.2126 -0.4150 -0.7272
  304MOL0     C41878  10.013   9.729   0.204 -1.4944 -0.8282  1.3165
  304MOL0     C41879  10.052   9.800   0.299  0.3587 -0.4947  0.0317
  304MOL0     C41880  10.402   9.177   0.322  1.3572  1.0460  0.6513
  304MOL0     C41881  10.482   9.061   0.337 -0.2088  0.3843 -0.2336
  304MOL0     C41882  10.585   9.069   0.449 -0.4591  0.8574 -0.1058
  304MOL0     H41883  10.655   8.600   0.173  0.4582  1.8236  0.0627
  304MOL0     H41884  10.775   8.362   0.220 -1.1861 -0.3684 -0.1121
  304MOL0     H41885  10.858   8.281   0.604  1.5822 -2.7621  1.2486
  304MOL0     H41886  10.990   8.399   0.614 -0.6568  2.0015 -2.2445
  304MOL0     H41887  11.141   8.225   0.530  0.0597  1.1553  0.8094
  304MOL0     H41888  11.061   8.159   0.664  1.3811  2.3340  0.1267
  304MOL0     H41889  11.018   8.076   0.369 -0.5471  0.0015  0.2499
  304MOL0     H41890  11.058   7.981   0.512  0.8222  0.3841  0.1735
  304MOL0     H41891  10.847   8.012   0.607  0.7553  1.9586  1.2015
  304MOL0     H41892  10.796   8.107   0.469 -0.7218 -1.2310 -1.7004
  304MOL0     H41893  10.707   7.868   0.473 -1.2530 -0.0031 -0.1647
  304MOL0     H41894  10.873   7.822   0.424 -0.6388 -0.3325  4.1656
  304MOL0     H41895  10.730   8.039   0.273  2.2165  0.8518  1.4804
  304MOL0     H41896  10.873   7.959   0.233 -0.6551 -1.8235 -0.5484
  304MOL0     H41897  10.653   7.871   0.115  3.5179 -3.7651 -2.6035
  304MOL0     H41898  10.597   7.825   0.274  0.6731 -0.6857 -1.1381
  304MOL0     H41899  10.819   7.662   0.283  1.3516  2.9397  0.8081
  304MOL0     H41900  10.695   7.621   0.159  0.9618 -0.4449 -1.4444
  304MOL0     H41901  10.743   7.797  -0.071  1.6239  1.1609 -4.1188
  304MOL0     H41902  10.949   7.789  -0.302  1.5162  0.2820 -0.8731
  304MOL0     H41903  11.108   7.793  -0.224  1.4177  2.3492  4.0882
  304MOL0     H41904  10.913   8.020  -0.204  0.1623  2.0814 -1.3537
  304MOL0     H41905  11.084   8.014  -0.157 -1.0462 -0.2068  1.1498
  304MOL0     H41906  11.153   7.988  -0.393 -0.6789 -0.8508  0.5032
  304MOL0     H41907  10.979   7.985  -0.437 -2.1833 -0.1579  1.5266
  304MOL0     H41908  11.032   8.191  -0.482  1.0075 -1.5685 -1.8218
  304MOL0     H41909  11.016   8.216  -0.305  0.5002  1.7386 -0.4920
  304MOL0     H41910  11.073   8.428  -0.317 -0.5607 -0.5115 -0.3073
  304MOL0     H41911  11.177   8.761  -0.214 -1.1279  1.3628 -0.4962
  304MOL0     H41912  11.052   8.651  -0.230  0.8029  2.4426  1.6285
  304MOL0     H41913  11.125   8.719  -0.372  0.8960  0.5777  0.1394
  304MOL0     H41914  11.553   8.986  -0.193  0.9432  1.8410 -1.1331
  304MOL0     H41915  11.729   9.128  -0.133  2.5243  0.1797  0.5535
  304MOL0     H41916  12.026   9.251  -0.000  1.4425 -0.5863 -1.1774
  304MOL0     H41917  11.869   9.235  -0.020 -0.7014 -0.1920  2.4486
  304MOL0     H41918  11.921   9.238   0.215  0.9808 -0.3758 -0.9815
  304MOL0     H41919  11.868   9.072   0.177  2.7954 -3.3066 -1.7142
  304MOL0     H41920  12.103   8.998   0.217 -1.6799  0.8351 -1.8364
  304MOL0     H41921  12.048   9.089   0.354  3.1743  0.4334  1.0985
  304MOL0     H41922  12.213   9.252   0.312  1.7239  1.3461 -0.7432
  304MOL0     H41923  12.149   9.284   0.167 -0.9532  0.3551  2.3087
  304MOL0     H41924  12.347   9.064   0.222 -1.1772  0.8996  0.0023
  304MOL0     H41925  12.279   9.078   0.060 -1.1477 -1.7819  1.0525
  304MOL0     H41926  12.363   9.310   0.058 -0.6707 -0.3822 -0.3189
  304MOL0     H41927  12.499   9.193   0.055 -1.4426 -0.1718 -1.1671
  304MOL0     H41928  12.499   9.230   0.306 -1.9503 -0.1326  0.4412
  304MOL0     H41929  12.388   9.365   0.272  0.1815 -0.2206 -0.7524
  304MOL0     H41930  12.617   9.467   0.285 -0.2247 -0.8775  2.5806
  304MOL0     H41931  12.543   9.462   0.120 -2.4452  0.1896  1.4362
  304MOL0     H41932  11.984   8.795  -0.069 -0.4415  0.1203  0.0024
  304MOL0     H41933  11.826   8.654  -0.162  1.7126  0.6783 -4.3848
  304MOL0     H41934  11.556   8.475  -0.272  0.2101 -0.4151  1.5367
  304MOL0     H41935  11.468   8.254  -0.308 -0.4878 -0.6059  2.4807
  304MOL0     H41936  10.937   8.593   0.565 -2.5624  1.2383  2.5332
  304MOL0     H41937  10.761   8.764   0.520 -2.4378  0.2408  0.3747
  304MOL0     H41938  10.290   8.857   0.146  0.4146 -1.9790  1.5165
  304MOL0     H41939  10.144   9.056   0.145 -0.1710 -2.5123  1.2310
  304MOL0     H41940  10.037   9.238   0.148 -1.2935  0.4929 -0.7448
  304MOL0     H41941  10.015   9.234   0.321 -0.7922  3.2969  2.3300
  304MOL0     H41942  10.068   9.485   0.311  2.1539 -1.1585 -1.2059
  304MOL0     H41943   9.914   9.447   0.255 -0.0406 -0.1426  0.5905
  304MOL0     H41944  10.157   9.520   0.080  1.2378 -3.9666 -1.8133
  304MOL0     H41945  10.010   9.437   0.017 -2.0597  2.7946 -0.7051
  304MOL0     H41946   9.869   9.609   0.102 -0.1384  2.6733  4.4839
  304MOL0     H41947   9.992   9.681  -0.009 -0.1116  1.0155 -0.1081
  304MOL0     H41948  10.084   9.867   0.376 -1.2664  1.6889 -1.0928
  304MOL0     H41949  10.426   9.276   0.359  0.4839  2.2486 -1.7499
  304MOL0     H41950  10.685   9.048   0.410 -1.1362 -2.1156 -0.5016
  304MOL0     H41951  10.591   9.174   0.478  3.7938  1.9612 -3.8044
  304MOL0     H41952  10.561   9.001   0.532 -2.5010  0.8273 -0.6589
  305MOL0     O41953   4.455   9.877   8.951  0.1717  0.3576  0.0119
  305MOL0     C41954   4.407   9.956   8.881 -0.4337  0.5087  0.3293
  305MOL0     O41955   4.274   9.946   8.829  0.0965 -0.2749 -0.0020
  305MOL0     C41956   4.230   9.820   8.822 -0.2537 -0.3988 -1.0795
  305MOL0     C41957   4.242   9.743   8.701 -0.4318 -0.1503  0.6108
  305MOL0     C41958   4.205   9.605   8.702 -0.5085 -0.2384 -0.1508
  305MOL0     C41959   4.144   9.547   8.816  0.5487  0.3466 -0.3899
  305MOL0     O41960   4.095   9.418   8.803 -0.2621 -0.6281 -0.1850
  305MOL0     C41961   4.084   9.318   8.912  1.1713 -0.6012  0.5130
  305MOL0     C41962   4.214   9.257   8.951  0.8052  0.8014 -0.3483
  305MOL0     C41963   4.284   9.183   8.844 -0.9553 -0.8494 -0.1584
  305MOL0     C41964   4.391   9.079   8.896  0.2224  0.1012 -1.0185
  305MOL0     C41965   4.501   9.129   8.995  0.3768 -0.3746  0.6808
  305MOL0     C41966   4.580   9.252   8.945 -0.0095 -0.5856 -0.1713
  305MOL0     C41967   4.658   9.225   8.822 -0.0172  0.9074  0.1568
  305MOL0     C41968   4.793   9.293   8.819 -0.5028 -0.0192  0.3992
  305MOL0     N41969   4.880   9.250   8.710 -0.5992 -0.5042 -0.2936
  305MOL0     C41970   4.952   9.137   8.716 -0.8107 -0.6638  0.6678
  305MOL0     C41971   5.021   9.141   8.597 -0.1266 -0.1772 -0.3126
  305MOL0     C41972   5.119   9.035   8.546 -0.3027  1.1162  0.4598
  305MOL0     C41973   5.257   9.013   8.620 -0.4554  1.0794 -0.5732
  305MOL0     C41974   5.337   9.142   8.656  0.6920 -0.7826  0.8049
  305MOL0     C41975   5.414   9.208   8.545  0.7875 -0.6674 -0.1521
  305MOL0     O41976   5.510   9.109   8.500 -0.6421 -0.2602  0.0410
  305MOL0     C41977   5.645   9.137   8.511 -0.3807 -1.0821  0.0082
  305MOL0     C41978   5.727   9.093   8.413 -0.4341  0.5752  0.0709
  305MOL0     C41979   5.866   9.133   8.411  0.0462 -0.1384 -0.3087
  305MOL0     C41980   5.956   9.069   8.318 -0.3948  0.2678  0.3242
  305MOL0     C41981   5.922   9.229   8.509 -0.3616  0.1371 -0.2615
  305MOL0     C41982   6.065   9.274   8.518 -0.0216 -0.7115  0.0558
  305MOL0     O41983   6.106   9.334   8.631  0.0324  0.4395  0.5992
  305MOL0     C41984   6.232   9.380   8.640 -0.3365 -0.0613  0.9721
  305MOL0     C41985   6.269   9.504   8.588 -0.0874 -0.3191 -0.1865
  305MOL0     C41986   6.405   9.536   8.605 -0.1923  0.1394 -0.4086
  305MOL0     C41987   6.496   9.454   8.675  0.1477 -0.2864 -0.7981
  305MOL0     O41988   6.625   9.501   8.676 -0.2430  0.1787  0.0880
  305MOL0     C41989   6.689   9.469   8.552 -1.1945 -0.1188  0.3831
  305MOL0     C41990   6.838   9.524   8.537  0.1672 -0.0478  0.3079
  305MOL0     C41991   6.944   9.421   8.581 -0.2149 -0.5275 -0.5553
  305MOL0     C41992   6.963   9.412   8.727  0.4488  0.4194 -0.5121
  305MOL0     C41993   7.091   9.332   8.758 -0.0989  0.7750 -0.0157
  305MOL0     C41994   7.113   9.306   8.906  0.2572  0.0275 -0.2614
  305MOL0     C41995   7.231   9.208   8.942 -0.8921  0.0526 -0.4740
  305MOL0     C41996   7.310   9.255   9.058 -0.1841  0.0726 -0.0312
  305MOL0    Cl41997   7.447   9.362   9.010  0.0107 -0.1696 -0.5722
  305MOL0     C41998   6.451   9.337   8.733 -0.4061 -0.0474 -0.2360
  305MOL0     C41999   6.321   9.298   8.713  0.6133 -0.8300  0.3469
  305MOL0     O42000   6.136   9.256   8.419 -0.2732 -0.3766 -0.0659
  305MOL0     C42001   5.825   9.270   8.605 -0.7859  0.5286 -0.1349
  305MOL0     C42002   5.696   9.222   8.610 -0.2860 -0.1814 -0.5560
  305MOL0     N42003   4.975   9.248   8.519  0.0519  0.6770  0.7596
  305MOL0     N42004   4.897   9.313   8.595 -0.1877 -0.5493  0.7031
  305MOL0     C42005   4.106   9.623   8.925 -0.5743 -1.0391 -0.5606
  305MOL0     C42006   4.157   9.756   8.925  0.1214 -0.6822 -1.4621
  305MOL0     C42007   4.487  10.079   8.862  0.3652  0.6951 -0.5026
  305MOL0     C42008   4.433  10.180   8.780  0.0112 -0.3814 -0.0619
  305MOL0     C42009   4.490  10.305   8.761  0.4954  0.3212  0.4297
  305MOL0     C42010   4.605  10.346   8.831  0.6120  1.2458  0.6498
  305MOL0     O42011   4.646  10.475   8.802 -0.4393 -0.3068  0.0211
  305MOL0     C42012   4.786  10.507   8.786 -0.4825  0.0397 -0.2545
  305MOL0     C42013   4.875  10.407   8.701  0.3041 -0.1263 -0.9245
  305MOL0     C42014   5.020  10.442   8.709 -0.1236  0.0912  0.3639
  305MOL0     C42015   5.085  10.387   8.837 -0.0561 -0.1755 -0.0668
  305MOL0     C42016   5.112  10.242   8.839  0.3127  0.1020  0.2325
  305MOL0     C42017   5.114  10.118   8.830 -0.5969  0.6605 -0.2724
  305MOL0     C42018   4.662  10.247   8.917  1.2184 -0.5823 -0.2812
  305MOL0     C42019   4.608  10.117   8.927 -0.1237  0.0354  0.2966
  305MOL0     C42020   4.696  10.036   9.024 -0.6022  1.1870  0.0380
  305MOL0     H42021   4.280   9.781   8.607 -0.7174 -0.7015  0.2690
  305MOL0     H42022   4.230   9.547   8.614  1.2711  1.1532 -0.6229
  305MOL0     H42023   4.011   9.240   8.891  2.4649 -2.6189  2.9749
  305MOL0     H42024   4.043   9.367   9.001  1.3160  2.2032 -0.8476
  305MOL0     H42025   4.279   9.328   9.001  0.0834  0.8714  0.5097
  305MOL0     H42026   4.189   9.182   9.026 -1.0389 -0.8565 -2.4636
  305MOL0     H42027   4.209   9.132   8.783  1.1405 -0.1960 -3.5093
  305MOL0     H42028   4.332   9.256   8.779  1.7878 -0.2371  2.3214
  305MOL0     H42029   4.357   8.991   8.950  3.7005 -1.8102 -1.6025
  305MOL0     H42030   4.439   9.044   8.804 -2.6283 -0.6081 -2.3478
  305MOL0     H42031   4.570   9.050   9.029  2.0593  0.6847 -0.1066
  305MOL0     H42032   4.457   9.171   9.086  0.3690  1.3939 -0.0947
  305MOL0     H42033   4.512   9.337   8.938  0.8407  0.8985  4.9986
  305MOL0     H42034   4.643   9.283   9.030  0.4622 -2.0770  0.0552
  305MOL0     H42035   4.600   9.248   8.733  3.8688 -1.5819 -3.3856
  305MOL0     H42036   4.684   9.119   8.811  1.5605  1.5221 -3.1392
  305MOL0     H42037   4.779   9.401   8.809 -1.0189  0.0625  1.7512
  305MOL0     H42038   4.838   9.284   8.919 -0.8905  2.9788  0.9502
  305MOL0     H42039   4.962   9.061   8.792 -0.1870 -0.4130  0.8422
  305MOL0     H42040   5.123   9.027   8.437 -1.6762 -2.9166  0.5384
  305MOL0     H42041   5.066   8.940   8.556  1.1441 -0.1864 -2.6315
  305MOL0     H42042   5.234   8.947   8.704  0.2221  2.6415  0.9132
  305MOL0     H42043   5.311   8.956   8.544  1.8612  2.8183 -0.3688
  305MOL0     H42044   5.280   9.222   8.705  2.7293  0.2963  1.5408
  305MOL0     H42045   5.418   9.122   8.726  1.6360  0.6958  0.1842
  305MOL0     H42046   5.354   9.232   8.457  1.3253  1.2432 -0.0366
  305MOL0     H42047   5.462   9.293   8.595 -0.5387 -1.7311  3.2080
  305MOL0     H42048   5.681   9.013   8.357 -0.1765  1.4757 -1.4747
  305MOL0     H42049   5.911   8.983   8.268  4.3634 -1.4693 -1.5305
  305MOL0     H42050   6.037   9.014   8.365 -1.5866 -4.3248 -2.3694
  305MOL0     H42051   5.992   9.134   8.238  0.2628  1.3075  1.4277
  305MOL0     H42052   6.201   9.571   8.537 -1.6367 -0.3932  1.6548
  305MOL0     H42053   6.452   9.619   8.554  1.9041  0.9739  2.6175
  305MOL0     H42054   6.689   9.361   8.537 -0.0917 -0.3433  1.7456
  305MOL0     H42055   6.625   9.513   8.475 -2.9248 -1.4358  0.9963
  305MOL0     H42056   6.853   9.533   8.429  2.6733 -3.0601  0.2541
  305MOL0     H42057   6.853   9.623   8.582  0.4952  2.4267 -4.6268
  305MOL0     H42058   7.040   9.437   8.532 -0.5486  3.6083 -0.2417
  305MOL0     H42059   6.914   9.322   8.547 -0.9576 -0.7771  0.7190
  305MOL0     H42060   6.885   9.351   8.773  1.0536  1.5156  2.1604
  305MOL0     H42061   6.962   9.511   8.774  0.5585  0.1867 -0.0137
  305MOL0     H42062   7.057   9.235   8.720 -0.0804  1.2809 -1.3531
  305MOL0     H42063   7.181   9.365   8.707  1.3840 -0.4084  1.7207
  305MOL0     H42064   7.022   9.264   8.950  0.7521 -0.8710 -0.0678
  305MOL0     H42065   7.129   9.403   8.954 -0.1935 -0.3087  0.5980
  305MOL0     H42066   7.294   9.181   8.856  0.1052  1.7704 -0.3229
  305MOL0     H42067   7.176   9.114   8.955 -2.9887  1.2140 -0.5767
  305MOL0     H42068   7.349   9.161   9.097 -0.1689 -0.1136 -0.4857
  305MOL0     H42069   7.252   9.315   9.128  1.6431 -0.3093  1.8955
  305MOL0     H42070   6.523   9.268   8.777 -0.2131  0.0054 -0.4679
  305MOL0     H42071   6.280   9.208   8.758 -1.2107  0.6096  1.7531
  305MOL0     H42072   5.862   9.333   8.686  0.3731 -0.8030  0.4277
  305MOL0     H42073   5.636   9.251   8.696  0.8810 -0.1204  0.2605
  305MOL0     H42074   4.040   9.590   9.004 -0.2441  1.3627  0.8245
  305MOL0     H42075   4.140   9.817   9.014  1.6194 -2.5279  0.1754
  305MOL0     H42076   4.341  10.158   8.727 -1.5930  2.0107  1.5467
  305MOL0     H42077   4.443  10.383   8.702  1.5123 -0.2791 -1.2553
  305MOL0     H42078   4.795  10.609   8.746 -2.3768  0.3010 -0.0932
  305MOL0     H42079   4.840  10.509   8.881  1.0953  1.5134 -1.1243
  305MOL0     H42080   4.846  10.410   8.596 -2.9767  0.6600 -0.1273
  305MOL0     H42081   4.864  10.306   8.742  2.4686  1.0725  3.2223
  305MOL0     H42082   5.071  10.400   8.622  2.3180  0.4777  1.5031
  305MOL0     H42083   5.026  10.551   8.708 -2.1654  0.2479 -1.2652
  305MOL0     H42084   5.019  10.398   8.923 -1.3835 -1.7111 -0.8390
  305MOL0     H42085   5.179  10.442   8.833 -1.4859  2.3634 -1.0024
  305MOL0     H42086   5.112  10.012   8.812 -0.3243  0.3749  1.2841
  305MOL0     H42087   4.748  10.279   8.975  2.1786  0.1361 -2.0162
  305MOL0     H42088   4.694   9.930   8.996 -0.9179  1.4328 -0.9158
  305MOL0     H42089   4.804  10.048   9.014  0.2915 -3.2157  1.8591
  305MOL0     H42090   4.665  10.059   9.126  1.1739  2.7042  0.2865
  306MOL0     O42091   8.039   7.564   0.170  0.0807 -0.2465  0.2589
  306MOL0     C42092   7.938   7.551   0.238 -0.2973  0.4669  0.4258
  306MOL0     O42093   7.819   7.491   0.197 -0.1632  0.0504  0.2277
  306MOL0     C42094   7.819   7.456   0.060  0.3051  0.0774 -0.8772
  306MOL0     C42095   7.763   7.543  -0.031 -0.0913 -0.6955  0.0744
  306MOL0     C42096   7.742   7.504  -0.167 -0.5308  0.0930  0.0697
  306MOL0     C42097   7.776   7.374  -0.213 -0.3488 -0.6952  0.1173
  306MOL0     O42098   7.743   7.347  -0.336  0.6077  0.0474 -0.3309
  306MOL0     C42099   7.759   7.213  -0.387  0.7586 -0.0291  0.3828
  306MOL0     C42100   7.672   7.175  -0.505  0.7055  0.5650  0.2160
  306MOL0     C42101   7.670   7.282  -0.614 -0.3394 -0.3679 -0.6911
  306MOL0     C42102   7.653   7.216  -0.752 -0.5862  0.3718  0.3047
  306MOL0     C42103   7.700   7.302  -0.870 -0.3160 -0.3281 -0.4417
  306MOL0     C42104   7.643   7.280  -1.010 -0.4842  0.3392  0.0255
  306MOL0     C42105   7.742   7.183  -1.090  0.6763  0.0414 -0.0181
  306MOL0     C42106   7.658   7.082  -1.176  1.3735  0.6162 -0.3857
  306MOL0     N42107   7.570   7.002  -1.083  0.2325  0.8363 -0.4508
  306MOL0     C42108   7.599   6.955  -0.953 -0.5533 -0.6808  0.1789
  306MOL0     C42109   7.491   6.891  -0.908  0.8893 -0.4146 -0.3194
  306MOL0     C42110   7.481   6.807  -0.785 -0.1512 -0.2922  0.2592
  306MOL0     C42111   7.552   6.868  -0.664  0.2778  0.1018 -0.2267
  306MOL0     C42112   7.556   6.765  -0.551  0.0293 -0.4793  0.5779
  306MOL0     C42113   7.668   6.801  -0.450  0.0727  0.5515 -1.2110
  306MOL0     O42114   7.636   6.745  -0.317 -0.4035 -0.2934 -1.0478
  306MOL0     C42115   7.721   6.766  -0.209  0.2058  0.7939  0.1889
  306MOL0     C42116   7.680   6.716  -0.088 -0.5042  0.3347  0.4868
  306MOL0     C42117   7.756   6.719   0.031  0.0493 -0.5608 -0.3355
  306MOL0     C42118   7.687   6.659   0.154 -0.3462 -0.9296  0.2092
  306MOL0     C42119   7.883   6.781   0.024  1.2949 -0.9678  0.5894
  306MOL0     C42120   7.975   6.792   0.138  0.0197  0.1890  0.1868
  306MOL0     O42121   8.111   6.814   0.101 -0.3749 -0.2661 -0.1942
  306MOL0     C42122   8.185   6.808   0.213 -0.0576 -0.0967 -0.3779
  306MOL0     C42123   8.236   6.933   0.261  0.7328 -0.2127 -0.3404
  306MOL0     C42124   8.326   6.923   0.371  0.2147  0.9943  0.7369
  306MOL0     C42125   8.361   6.805   0.428  0.1953 -0.2610 -0.2446
  306MOL0     O42126   8.444   6.796   0.537  0.1220  0.3634  0.1561
  306MOL0     C42127   8.521   6.910   0.587  0.3795  0.2280 -0.5380
  306MOL0     C42128   8.635   6.848   0.674 -0.0791  0.2329  0.1452
  306MOL0     C42129   8.753   6.942   0.663 -1.0422  0.6538 -0.4139
  306MOL0     C42130   8.834   6.917   0.535  0.5227 -1.0066  0.3845
  306MOL0     C42131   8.961   7.005   0.542  0.2456  0.0845 -0.6245
  306MOL0     C42132   9.084   6.943   0.623  0.1583  1.1094 -0.2130
  306MOL0     C42133   9.145   6.816   0.558  0.2536  0.7901 -0.3530
  306MOL0     C42134   9.294   6.806   0.584 -0.3293 -0.3654  0.5647
  306MOL0    Cl42135   9.377   6.886   0.458  0.3117  0.1237  0.0063
  306MOL0     C42136   8.298   6.691   0.386  0.3691  0.5348 -0.8093
  306MOL0     C42137   8.211   6.689   0.275 -0.5831  0.0577  0.1353
  306MOL0     O42138   7.924   6.795   0.251 -0.0377 -0.0455  0.0187
  306MOL0     C42139   7.929   6.832  -0.107 -0.4192 -0.5190  0.5574
  306MOL0     C42140   7.847   6.818  -0.219 -0.1281 -0.0222  0.2545
  306MOL0     N42141   7.390   6.917  -1.001  0.3553 -0.9246 -0.0365
  306MOL0     N42142   7.437   6.984  -1.105  0.1401 -0.1546  0.5076
  306MOL0     C42143   7.829   7.284  -0.128  0.3857 -1.3094  0.8226
  306MOL0     C42144   7.848   7.327   0.011 -0.3838 -0.3102  0.1872
  306MOL0     C42145   7.955   7.602   0.373 -0.2868 -0.4188  0.2830
  306MOL0     C42146   8.060   7.565   0.445 -0.6379 -0.4289 -0.4000
  306MOL0     C42147   8.077   7.597   0.581  0.4290  0.2496  0.8119
  306MOL0     C42148   7.979   7.667   0.654 -0.2376  0.2317  0.5518
  306MOL0     O42149   7.983   7.685   0.790  0.3175 -0.4465 -0.2107
  306MOL0     C42150   7.999   7.820   0.835 -0.6415 -0.0976  0.3956
  306MOL0     C42151   7.913   7.835   0.966 -0.6728  0.1056  0.7787
  306MOL0     C42152   7.938   7.968   1.035  0.3343  0.1148  0.2388
  306MOL0     C42153   7.859   7.970   1.172 -0.2579 -0.3434  0.5635
  306MOL0     C42154   7.708   7.969   1.159 -0.5593 -0.1669 -0.4656
  306MOL0     C42155   7.589   7.970   1.149  0.0165  0.0449  0.7521
  306MOL0     C42156   7.875   7.719   0.572 -0.3220  0.5006  0.3026
  306MOL0     C42157   7.856   7.677   0.440 -0.2366 -0.1646  1.0656
  306MOL0     C42158   7.737   7.725   0.365  0.8910  0.6381  0.0822
  306MOL0     H42159   7.731   7.640   0.005 -0.2400 -1.0243  0.8555
  306MOL0     H42160   7.689   7.578  -0.228  0.9186 -1.1896 -2.9611
  306MOL0     H42161   7.736   7.147  -0.303  3.2886  1.7894  2.6753
  306MOL0     H42162   7.864   7.213  -0.418  1.0795  3.3807  1.0725
  306MOL0     H42163   7.716   7.090  -0.557 -1.3689 -0.3755 -0.0876
  306MOL0     H42164   7.570   7.142  -0.482  0.0945  1.6477 -0.8285
  306MOL0     H42165   7.585   7.347  -0.593 -0.9370 -1.1357 -0.6783
  306MOL0     H42166   7.761   7.342  -0.605 -2.4054  2.7664  0.8844
  306MOL0     H42167   7.707   7.120  -0.752  0.2836  0.8367 -0.9722
  306MOL0     H42168   7.546   7.193  -0.761 -0.7640 -0.2208  3.0693
  306MOL0     H42169   7.809   7.304  -0.876 -0.3919  0.0775 -2.0089
  306MOL0     H42170   7.665   7.402  -0.842 -0.1430 -0.0236 -1.2846
  306MOL0     H42171   7.538   7.248  -1.002 -0.8759  1.5859  0.0793
  306MOL0     H42172   7.634   7.374  -1.065 -1.1927 -0.0646 -0.5734
  306MOL0     H42173   7.820   7.134  -1.032  1.1932  0.5617 -0.2627
  306MOL0     H42174   7.802   7.237  -1.164  1.7276  0.3715  1.0590
  306MOL0     H42175   7.597   7.143  -1.244 -1.0745  0.1879  1.2956
  306MOL0     H42176   7.727   7.022  -1.236  2.7049  1.2629  0.4450
  306MOL0     H42177   7.701   6.940  -0.920 -0.0506 -2.8201 -2.0405
  306MOL0     H42178   7.519   6.707  -0.805 -0.7599 -1.2276  3.2880
  306MOL0     H42179   7.375   6.797  -0.760 -0.3423 -4.1709 -1.4610
  306MOL0     H42180   7.654   6.901  -0.684  1.3885 -2.0733  1.3808
  306MOL0     H42181   7.498   6.956  -0.628 -0.8266 -1.6706  2.8747
  306MOL0     H42182   7.456   6.771  -0.508  0.0937  0.3791  0.6293
  306MOL0     H42183   7.576   6.664  -0.590  0.2802 -0.6117  1.0398
  306MOL0     H42184   7.762   6.753  -0.479  1.6797  2.0144  1.1487
  306MOL0     H42185   7.681   6.910  -0.443  1.8449  0.3388 -0.5549
  306MOL0     H42186   7.584   6.666  -0.080 -0.6050  0.8214  3.8683
  306MOL0     H42187   7.645   6.744   0.207  3.8486  1.0237  0.7788
  306MOL0     H42188   7.762   6.606   0.214 -0.5744 -1.7020 -0.1688
  306MOL0     H42189   7.600   6.598   0.127 -1.5699  1.1003 -0.5897
  306MOL0     H42190   8.204   7.025   0.213  1.6051 -1.5030 -3.7140
  306MOL0     H42191   8.370   7.016   0.405  1.1216  0.5676  0.7475
  306MOL0     H42192   8.551   6.968   0.500 -1.0458 -1.4458 -2.2282
  306MOL0     H42193   8.448   6.969   0.644 -1.7868 -1.1795 -1.7175
  306MOL0     H42194   8.608   6.843   0.780 -1.2247  0.4442 -0.1288
  306MOL0     H42195   8.659   6.752   0.628 -0.1525  1.4464 -2.6050
  306MOL0     H42196   8.829   6.948   0.742 -0.1131  1.5402 -1.3490
  306MOL0     H42197   8.717   7.046   0.671 -2.1730  0.2111  0.5902
  306MOL0     H42198   8.763   6.953   0.459 -0.1660 -0.5894  1.1980
  306MOL0     H42199   8.857   6.811   0.531  2.4057 -0.7702  2.7695
  306MOL0     H42200   8.997   7.035   0.443 -0.0718 -0.6297 -0.9685
  306MOL0     H42201   8.932   7.098   0.590  0.5238 -0.7103  1.1635
  306MOL0     H42202   9.078   6.928   0.731  0.8683  2.1560 -0.0129
  306MOL0     H42203   9.164   7.017   0.611 -2.3679  3.7850 -1.8014
  306MOL0     H42204   9.128   6.824   0.450  1.7338  1.9683 -0.5279
  306MOL0     H42205   9.099   6.731   0.611  1.9828 -0.2359 -0.4182
  306MOL0     H42206   9.325   6.701   0.590  0.9732 -0.1962 -1.9289
  306MOL0     H42207   9.309   6.855   0.681 -0.2569 -1.3247  1.0598
  306MOL0     H42208   8.327   6.599   0.434 -2.9979 -0.4845 -0.4737
  306MOL0     H42209   8.158   6.599   0.243  0.5580  0.1235 -2.1410
  306MOL0     H42210   8.025   6.878  -0.124 -1.3257  1.5628  0.7717
  306MOL0     H42211   7.901   6.859  -0.304  3.3195 -1.4534  1.5486
  306MOL0     H42212   7.843   7.177  -0.140 -0.9149 -1.8264  3.3547
  306MOL0     H42213   7.889   7.248   0.072 -1.0580 -0.6863  0.1642
  306MOL0     H42214   8.144   7.516   0.397 -1.0498 -0.8233 -0.7239
  306MOL0     H42215   8.166   7.552   0.625  0.8730  0.6925  0.3761
  306MOL0     H42216   8.102   7.858   0.842  0.0354 -1.6844 -0.4891
  306MOL0     H42217   7.956   7.888   0.762  1.3161 -0.3667 -1.0904
  306MOL0     H42218   7.964   7.764   1.032  1.2593  1.5196  0.9016
  306MOL0     H42219   7.809   7.811   0.946 -0.6039  0.8822 -0.5908
  306MOL0     H42220   8.042   7.976   1.068  0.5848 -1.8298  0.0387
  306MOL0     H42221   7.903   8.056   0.980 -2.5024 -0.7445  0.4691
  306MOL0     H42222   7.884   8.064   1.223  0.3321 -0.4885  0.5580
  306MOL0     H42223   7.891   7.889   1.239 -1.4056  0.0485  1.6267
  306MOL0     H42224   7.482   7.969   1.150 -0.0850 -3.7593  1.0104
  306MOL0     H42225   7.815   7.792   0.624  0.9437  1.1568  0.8814
  306MOL0     H42226   7.764   7.780   0.274 -0.4740 -1.4032 -1.6854
  306MOL0     H42227   7.657   7.652   0.343  0.6572 -0.1582  3.1993
  306MOL0     H42228   7.687   7.798   0.429  0.9664  1.8985 -1.2551
  307MOL0     O42229   0.014  11.261   8.670 -0.2728 -0.2631 -0.3460
  307MOL0     C42230   0.111  11.326   8.638  0.3061 -0.2935  0.6842
  307MOL0     O42231   0.121  11.457   8.664  0.0377 -0.5455 -0.4496
  307MOL0     C42232   0.021  11.538   8.717 -0.2218  0.1154  0.6580
  307MOL0     C42233   0.036  11.620   8.822 -0.3796 -0.2452 -0.1418
  307MOL0     C42234  -0.067  11.694   8.884  0.3314  0.3265 -0.1268
  307MOL0     C42235  -0.196  11.690   8.834  0.1960 -0.6847 -0.3048
  307MOL0     O42236  -0.294  11.752   8.906 -0.0074 -0.0535  0.9553
  307MOL0     C42237  -0.429  11.700   8.888 -0.1976 -0.0547 -0.1673
  307MOL0     C42238  -0.523  11.774   8.977 -0.6421 -0.6100  0.2255
  307MOL0     C42239  -0.563  11.918   8.944 -0.1447  0.4956 -0.7562
  307MOL0     C42240  -0.463  12.019   9.004 -0.4338 -0.4645 -0.4750
  307MOL0     C42241  -0.479  12.164   8.949  0.1506 -1.1710  0.0277
  307MOL0     C42242  -0.420  12.267   9.047  0.6047 -0.1857 -0.4017
  307MOL0     C42243  -0.267  12.286   9.057  0.2080 -0.7667 -0.3906
  307MOL0     C42244  -0.204  12.354   8.933 -0.4501  0.6299 -0.4350
  307MOL0     N42245  -0.068  12.399   8.955 -0.3828 -0.6365 -0.2285
  307MOL0     C42246   0.043  12.358   8.885 -0.3954 -0.0666  0.2227
  307MOL0     C42247   0.149  12.434   8.929 -0.4108  1.1931  0.1607
  307MOL0     C42248   0.274  12.452   8.847 -0.0363  0.2811  0.1454
  307MOL0     C42249   0.340  12.330   8.817 -0.1724  0.0555 -0.6939
  307MOL0     C42250   0.456  12.293   8.914  0.2973 -0.2011 -0.0911
  307MOL0     C42251   0.400  12.289   9.058  0.4123  0.7668  0.6027
  307MOL0     O42252   0.502  12.262   9.153  0.0325 -0.6161 -0.6703
  307MOL0     C42253   0.473  12.274   9.287  0.0409  1.1004  0.4120
  307MOL0     C42254   0.572  12.322   9.370  0.1583  0.4104  0.1359
  307MOL0     C42255   0.548  12.333   9.509  0.4105 -0.2147 -1.2071
  307MOL0     C42256   0.664  12.365   9.598  0.2490  0.1241 -0.1807
  307MOL0     C42257   0.415  12.315   9.566 -0.0402 -0.8273  0.8790
  307MOL0     C42258   0.362  12.350   9.704  0.2658 -0.0252 -0.4802
  307MOL0     O42259   0.242  12.285   9.749  0.2458  0.1154  0.5796
  307MOL0     C42260   0.167  12.364   9.838 -0.0255 -1.0304 -0.2067
  307MOL0     C42261   0.151  12.340   9.973 -1.2636 -0.0265  0.1521
  307MOL0     C42262   0.075  12.425  10.058  0.4867 -0.5361  0.7744
  307MOL0     C42263   0.015  12.549  10.010 -0.3353  0.1570 -0.4113
  307MOL0     O42264  -0.062  12.640  10.079 -0.7561 -0.6746  0.7497
  307MOL0     C42265  -0.071  12.619  10.218  0.6128  0.8070 -0.0136
  307MOL0     C42266  -0.172  12.709  10.289  0.4398  0.2379  0.7658
  307MOL0     C42267  -0.135  12.853  10.317  0.0083 -0.3654 -0.0010
  307MOL0     C42268  -0.157  12.942  10.195  0.6170 -0.7377  0.4835
  307MOL0     C42269  -0.303  12.994  10.187 -0.5201  0.5424  0.4443
  307MOL0     C42270  -0.318  13.072  10.058  0.0694  0.4336  0.1984
  307MOL0     C42271  -0.455  13.147  10.061  0.6632 -0.6877 -0.0748
  307MOL0     C42272  -0.466  13.245   9.938 -0.2667  0.6672 -0.3946
  307MOL0    Cl42273  -0.625  13.317   9.910  0.1151 -0.1413 -0.1242
  307MOL0     C42274   0.043  12.579   9.873  0.9671  0.6385  0.4085
  307MOL0     C42275   0.103  12.483   9.789 -0.1728 -0.0535 -0.7713
  307MOL0     O42276   0.434  12.418   9.772 -0.0061 -0.5913  0.3540
  307MOL0     C42277   0.318  12.275   9.477  0.3181  0.8515  0.5023
  307MOL0     C42278   0.348  12.258   9.342 -0.1465  0.8316  0.0692
  307MOL0     N42279   0.105  12.513   9.041  0.4202  0.5074 -0.1144
  307MOL0     N42280  -0.021  12.483   9.058  0.5424  0.1044  0.5942
  307MOL0     C42281  -0.213  11.606   8.721  0.0930 -0.2586  0.4059
  307MOL0     C42282  -0.109  11.536   8.666  0.2527 -0.4295 -0.2706
  307MOL0     C42283   0.217  11.258   8.567  0.9131 -0.2978  0.7427
  307MOL0     C42284   0.331  11.330   8.522  0.2143  0.3485  0.0784
  307MOL0     C42285   0.444  11.275   8.450 -0.0122 -0.4811 -0.2837
  307MOL0     C42286   0.443  11.143   8.410 -0.1033 -0.1806 -0.1281
  307MOL0     O42287   0.545  11.078   8.338 -0.1317 -0.2556 -0.0763
  307MOL0     C42288   0.669  11.147   8.326 -0.4836  0.7564  1.5140
  307MOL0     C42289   0.765  11.059   8.241 -0.5167  0.7629 -0.2161
  307MOL0     C42290   0.753  11.093   8.092  0.8947 -0.0689 -0.3733
  307MOL0     C42291   0.836  10.995   7.999 -0.1200 -0.1749 -0.9693
  307MOL0     C42292   0.966  11.065   7.996 -0.3012 -0.1987  0.2570
  307MOL0     C42293   1.083  11.098   7.992  0.3794  0.4541  0.3662
  307MOL0     C42294   0.331  11.070   8.462 -0.5357  0.4372 -0.2472
  307MOL0     C42295   0.221  11.114   8.529  0.0855 -0.2517 -0.0068
  307MOL0     C42296   0.117  11.008   8.557 -0.4211 -0.5709 -0.3543
  307MOL0     H42297   0.136  11.624   8.865 -1.1311  1.1101  1.6104
  307MOL0     H42298  -0.047  11.749   8.976  1.0957 -1.4242  0.8144
  307MOL0     H42299  -0.428  11.593   8.911  1.1535 -0.1028 -0.3876
  307MOL0     H42300  -0.465  11.706   8.785 -3.1206 -2.2340  0.6054
  307MOL0     H42301  -0.617  11.719   8.978 -1.2602  0.4387  1.0151
  307MOL0     H42302  -0.480  11.776   9.077 -1.9585 -0.0785  0.7973
  307MOL0     H42303  -0.556  11.937   8.836  3.4413 -1.6027 -1.0749
  307MOL0     H42304  -0.663  11.937   8.983  0.2380 -0.8761  1.0337
  307MOL0     H42305  -0.474  12.010   9.112 -0.6186 -0.0831 -0.4641
  307MOL0     H42306  -0.359  11.994   8.980  0.6088  2.1546  0.9915
  307MOL0     H42307  -0.587  12.175   8.937  0.4230  1.5158 -0.4918
  307MOL0     H42308  -0.428  12.192   8.857 -0.2507 -1.0692 -0.1655
  307MOL0     H42309  -0.462  12.364   9.020  1.2420 -0.1241 -1.1927
  307MOL0     H42310  -0.464  12.243   9.145 -0.0671 -0.1210 -0.6784
  307MOL0     H42311  -0.209  12.196   9.075 -0.2632 -0.9359  0.3065
  307MOL0     H42312  -0.256  12.356   9.140  0.0138  0.4722 -1.3715
  307MOL0     H42313  -0.206  12.281   8.851 -3.4244  2.1382 -1.8605
  307MOL0     H42314  -0.261  12.445   8.911 -2.1199 -1.0095 -3.6372
  307MOL0     H42315   0.032  12.286   8.804 -1.1016 -0.2517  0.4779
  307MOL0     H42316   0.340  12.520   8.902 -2.1595  2.2297  0.4439
  307MOL0     H42317   0.251  12.496   8.750 -0.3864  0.3233  0.2460
  307MOL0     H42318   0.280  12.239   8.808  0.5522 -0.3063 -2.2475
  307MOL0     H42319   0.388  12.326   8.719  0.1120 -0.6423 -0.5321
  307MOL0     H42320   0.484  12.193   8.879  1.5142  0.4310 -0.9930
  307MOL0     H42321   0.544  12.357   8.913  0.0477  0.1746  0.9781
  307MOL0     H42322   0.342  12.378   9.083 -1.9553 -1.0166  1.8769
  307MOL0     H42323   0.334  12.202   9.055  1.4851 -0.1202  1.5978
  307MOL0     H42324   0.667  12.341   9.323  1.1269 -3.4644  0.1514
  307MOL0     H42325   0.687  12.471   9.614 -1.7603  0.5656 -0.0104
  307MOL0     H42326   0.757  12.325   9.556  1.0512  0.0735  1.5653
  307MOL0     H42327   0.661  12.322   9.698  1.8508  1.3531  0.4385
  307MOL0     H42328   0.197  12.248  10.007 -3.2873 -1.4026 -0.6594
  307MOL0     H42329   0.063  12.398  10.163 -0.4033  2.1661  1.4524
  307MOL0     H42330  -0.110  12.518  10.232 -0.9571  1.6390  2.1658
  307MOL0     H42331   0.027  12.636  10.262  0.8714  0.6720 -0.5334
  307MOL0     H42332  -0.269  12.701  10.241  0.8408  1.1960 -0.2337
  307MOL0     H42333  -0.187  12.654  10.383 -1.9503 -0.8771 -0.2079
  307MOL0     H42334  -0.029  12.865  10.340  0.5299 -0.0257 -2.3273
  307MOL0     H42335  -0.186  12.893  10.405  2.3807  1.1779  0.7555
  307MOL0     H42336  -0.142  12.890  10.100 -2.0908 -3.2062  1.2949
  307MOL0     H42337  -0.090  13.029  10.198 -0.5862  0.3126 -1.1226
  307MOL0     H42338  -0.369  12.908  10.172 -2.3095  2.2538 -2.4989
  307MOL0     H42339  -0.324  13.055  10.275 -1.9372 -0.3897  0.8020
  307MOL0     H42340  -0.319  13.010   9.968  0.0841  4.9498 -3.2816
  307MOL0     H42341  -0.236  13.144  10.048 -0.0563  0.6802  0.9159
  307MOL0     H42342  -0.474  13.206  10.151  2.6800  1.0067 -0.6861
  307MOL0     H42343  -0.538  13.075  10.061  0.8574 -0.9680  1.9854
  307MOL0     H42344  -0.436  13.188   9.849  0.3235 -2.6533  1.7497
  307MOL0     H42345  -0.393  13.325   9.950 -0.8009  0.9004  1.6192
  307MOL0     H42346   0.010  12.669   9.823  1.3962 -0.5205 -2.1298
  307MOL0     H42347   0.121  12.500   9.683  4.3849 -0.3951 -0.2542
  307MOL0     H42348   0.216  12.252   9.502 -1.4448  4.9017 -1.8577
  307MOL0     H42349   0.269  12.218   9.279  1.2751  1.2539 -2.0710
  307MOL0     H42350  -0.309  11.593   8.673  1.2358 -0.7784 -1.8913
  307MOL0     H42351  -0.139  11.481   8.577  3.3821 -4.9678  1.0976
  307MOL0     H42352   0.329  11.438   8.539  2.4794  0.4198  0.1300
  307MOL0     H42353   0.516  11.347   8.412 -2.4785  2.2498 -0.1518
  307MOL0     H42354   0.660  11.241   8.271  2.2421  1.4450  2.1220
  307MOL0     H42355   0.714  11.155   8.425 -2.1357 -0.7305  2.4490
  307MOL0     H42356   0.742  10.955   8.266 -0.2702  1.0742  1.4116
  307MOL0     H42357   0.866  11.073   8.279 -0.7326  0.9015  0.3127
  307MOL0     H42358   0.646  11.081   8.069  1.0422  1.8378 -2.3501
  307MOL0     H42359   0.770  11.199   8.072 -1.4929  0.0159 -2.4687
  307MOL0     H42360   0.789  10.979   7.902 -0.2586 -0.8286 -0.8005
  307MOL0     H42361   0.845  10.898   8.049  3.4105 -0.5734 -2.0776
  307MOL0     H42362   1.184  11.135   7.996  0.0969  1.2167  0.6311
  307MOL0     H42363   0.334  10.965   8.434 -1.8134  0.5998 -1.0545
  307MOL0     H42364   0.138  10.916   8.501 -0.1741 -1.1626  0.6868
  307MOL0     H42365   0.114  10.989   8.664 -0.1943  1.4129  0.0268
  307MOL0     H42366   0.020  11.042   8.520  0.1372 -0.9387 -2.3159
  308MOL0     O42367   2.130   0.766   3.231 -0.1669 -0.7763 -0.0180
  308MOL0     C42368   2.175   0.708   3.326 -0.0715  0.8539  0.6510
  308MOL0     O42369   2.303   0.646   3.334 -0.8681 -0.3505  0.5790
  308MOL0     C42370   2.380   0.636   3.219  0.0734  0.8110 -0.5312
  308MOL0     C42371   2.332   0.614   3.091  0.2260 -0.0776  0.2438
  308MOL0     C42372   2.422   0.607   2.975  0.4883 -0.8965 -0.3778
  308MOL0     C42373   2.566   0.605   3.000 -0.2570  0.1678 -0.3576
  308MOL0     O42374   2.658   0.595   2.890  0.8144  0.3139 -1.0912
  308MOL0     C42375   2.624   0.531   2.766  0.1377 -0.3938  1.3169
  308MOL0     C42376   2.684   0.617   2.647  0.4412  0.2588 -0.4661
  308MOL0     C42377   2.623   0.756   2.630 -0.0920 -0.3152 -0.2874
  308MOL0     C42378   2.485   0.749   2.569 -0.9306  0.5615 -0.4758
  308MOL0     C42379   2.423   0.885   2.532  1.0940  0.0608  0.2169
  308MOL0     C42380   2.272   0.870   2.548  0.0011  0.6301  0.7157
  308MOL0     C42381   2.238   0.911   2.695  0.1521  0.2116 -0.7267
  308MOL0     C42382   2.094   0.943   2.690  0.2826 -0.0503 -0.5079
  308MOL0     N42383   2.051   1.039   2.795 -0.4812 -0.6448  0.4075
  308MOL0     C42384   2.094   1.038   2.928  0.0536  0.6904  0.5062
  308MOL0     C42385   2.052   1.153   2.981  1.0361  0.7086  0.3608
  308MOL0     C42386   2.061   1.199   3.128  0.6971  0.0316 -0.1081
  308MOL0     C42387   1.935   1.160   3.210 -0.3606 -0.2008  0.2853
  308MOL0     C42388   1.956   1.180   3.358  0.3418 -0.9055 -0.4091
  308MOL0     C42389   1.940   1.329   3.394 -0.1161  0.6985  0.6276
  308MOL0     O42390   1.794   1.356   3.372  0.7051  0.1991 -0.7375
  308MOL0     C42391   1.748   1.487   3.375 -0.6332  0.3356  0.5079
  308MOL0     C42392   1.806   1.587   3.303  0.2619  1.0876 -0.5826
  308MOL0     C42393   1.759   1.717   3.296  0.1486 -0.2539 -0.6786
  308MOL0     C42394   1.846   1.815   3.225 -0.7487  0.3132  0.0427
  308MOL0     C42395   1.638   1.753   3.364  0.7427 -0.1626  0.5678
  308MOL0     C42396   1.568   1.886   3.349 -0.2317  0.7979 -0.0126
  308MOL0     O42397   1.439   1.890   3.385  0.0272  0.2243 -0.1240
  308MOL0     C42398   1.348   1.995   3.370 -1.7547  1.1383 -0.1608
  308MOL0     C42399   1.220   1.966   3.326  0.1028  0.8903  1.1077
  308MOL0     C42400   1.131   2.071   3.300 -0.3766  0.4383 -0.3831
  308MOL0     C42401   1.155   2.197   3.355  0.1723 -0.5040 -0.1777
  308MOL0     O42402   1.063   2.298   3.371  0.4139 -0.2431  0.1356
  308MOL0     C42403   0.923   2.261   3.345 -0.1535 -0.4878  0.0929
  308MOL0     C42404   0.815   2.366   3.379  0.4563 -0.4274 -0.1245
  308MOL0     C42405   0.792   2.396   3.525  0.3473  0.3080  0.3875
  308MOL0     C42406   0.748   2.268   3.610 -0.0493 -0.3803  0.6857
  308MOL0     C42407   0.713   2.312   3.752 -0.0840  0.0904 -0.1716
  308MOL0     C42408   0.693   2.199   3.849 -0.9414  0.4301 -0.4522
  308MOL0     C42409   0.691   2.233   4.000 -0.3319  0.0527 -0.1115
  308MOL0     C42410   0.705   2.112   4.090  0.4009 -0.4578  0.7393
  308MOL0    Cl42411   0.687   2.168   4.255  0.2176 -0.1702  0.3101
  308MOL0     C42412   1.279   2.222   3.401 -0.7029 -0.4393 -0.2628
  308MOL0     C42413   1.382   2.124   3.414  0.0807 -0.4817  0.6610
  308MOL0     O42414   1.625   1.978   3.295  0.1357 -0.1078  0.1350
  308MOL0     C42415   1.579   1.651   3.436  0.9199 -0.1218 -0.2671
  308MOL0     C42416   1.632   1.520   3.440 -0.7219  0.4499 -0.6503
  308MOL0     N42417   1.984   1.224   2.881  0.0370 -0.0594  0.1650
  308MOL0     N42418   1.987   1.157   2.774 -0.4693 -0.5565  0.4721
  308MOL0     C42419   2.612   0.612   3.135 -0.4252  0.4304 -0.2510
  308MOL0     C42420   2.517   0.645   3.236 -0.1093 -0.4286 -0.5200
  308MOL0     C42421   2.099   0.705   3.451  0.1927 -1.6530  0.0793
  308MOL0     C42422   2.159   0.729   3.578  0.5122  1.4052 -0.0263
  308MOL0     C42423   2.094   0.728   3.688 -0.3177 -0.1300 -0.3147
  308MOL0     C42424   1.955   0.717   3.688  0.4805 -0.1197 -0.6831
  308MOL0     O42425   1.887   0.705   3.798  0.2442  0.0998 -0.4968
  308MOL0     C42426   1.937   0.602   3.883  0.3952  0.0362 -0.0879
  308MOL0     C42427   1.828   0.556   3.981 -0.5154 -1.2322 -1.6350
  308MOL0     C42428   1.697   0.519   3.909  0.6130  0.6048  0.5676
  308MOL0     C42429   1.587   0.486   4.013  0.4029 -0.2979 -0.0676
  308MOL0     C42430   1.605   0.354   4.087  0.0825  0.3058 -0.9520
  308MOL0     C42431   1.636   0.254   4.150 -0.4003 -0.2957 -0.7955
  308MOL0     C42432   1.887   0.706   3.571  0.2754 -0.4441  0.1532
  308MOL0     C42433   1.958   0.692   3.455 -0.4754 -0.2624 -0.2943
  308MOL0     C42434   1.871   0.661   3.331  0.0295 -0.2204 -0.0628
  308MOL0     H42435   2.226   0.604   3.070  0.9487  0.5936 -4.7477
  308MOL0     H42436   2.376   0.620   2.878  0.6232  2.1140 -0.1633
  308MOL0     H42437   2.519   0.521   2.736  0.9447 -0.1418 -1.8823
  308MOL0     H42438   2.673   0.435   2.748 -3.5286 -2.3178  0.4090
  308MOL0     H42439   2.793   0.623   2.651  0.4618 -0.1421 -0.4208
  308MOL0     H42440   2.664   0.568   2.551  1.9395  1.6557 -1.5483
  308MOL0     H42441   2.612   0.808   2.726  2.9955 -2.0136  1.1082
  308MOL0     H42442   2.692   0.804   2.560  2.0127 -2.0059  0.5171
  308MOL0     H42443   2.487   0.687   2.479  0.3931  1.4245 -1.0584
  308MOL0     H42444   2.422   0.697   2.642 -4.1515  2.0665 -1.9476
  308MOL0     H42445   2.440   0.911   2.427 -2.3540 -0.9162 -0.7160
  308MOL0     H42446   2.459   0.969   2.592 -0.1850 -0.2844  1.5191
  308MOL0     H42447   2.224   0.951   2.491 -0.8386  0.4925  1.2031
  308MOL0     H42448   2.225   0.775   2.522  1.8289  0.1278 -0.9182
  308MOL0     H42449   2.308   0.990   2.725 -1.9976  1.1514  2.1512
  308MOL0     H42450   2.262   0.830   2.765 -2.4008  0.1200  0.1279
  308MOL0     H42451   2.067   0.991   2.596  1.1883  2.3128  0.3861
  308MOL0     H42452   2.036   0.852   2.710 -0.0970  0.9739  4.0966
  308MOL0     H42453   2.164   0.965   2.968  0.3181  0.4370 -0.4022
  308MOL0     H42454   2.072   1.308   3.131  0.1912  0.0713  1.6013
  308MOL0     H42455   2.145   1.140   3.164  0.2837 -1.0356 -0.8457
  308MOL0     H42456   1.854   1.223   3.173 -1.9269 -1.6288  1.1410
  308MOL0     H42457   1.919   1.055   3.183  1.9198 -0.6872  0.5869
  308MOL0     H42458   1.877   1.122   3.406 -1.8915  2.7481  0.6616
  308MOL0     H42459   2.047   1.124   3.383 -1.4363 -4.1925 -0.7111
  308MOL0     H42460   1.974   1.350   3.495  3.2551 -1.1031  0.0050
  308MOL0     H42461   2.000   1.384   3.320 -0.3066  0.8767  0.6055
  308MOL0     H42462   1.892   1.573   3.238 -1.1867  0.7199 -2.5003
  308MOL0     H42463   1.860   1.907   3.282  0.0927 -0.2069  0.6953
  308MOL0     H42464   1.803   1.853   3.132  0.8003  0.2752 -0.7115
  308MOL0     H42465   1.941   1.776   3.187  0.8140  1.5474  2.4479
  308MOL0     H42466   1.180   1.869   3.298  0.9179  1.4252 -2.3029
  308MOL0     H42467   1.035   2.055   3.252 -1.4225  1.7215  1.1787
  308MOL0     H42468   0.923   2.255   3.236 -0.7016  3.2607 -0.2433
  308MOL0     H42469   0.900   2.164   3.390 -1.7294  0.0354  0.4625
  308MOL0     H42470   0.835   2.464   3.335  1.5913 -0.8949 -0.6962
  308MOL0     H42471   0.717   2.340   3.339 -0.9639  2.4892  1.1796
  308MOL0     H42472   0.707   2.464   3.537 -2.4225 -2.9446  0.7288
  308MOL0     H42473   0.881   2.441   3.570  1.4477 -2.2025  0.9276
  308MOL0     H42474   0.832   2.198   3.611 -0.4386 -0.9569 -1.4323
  308MOL0     H42475   0.668   2.217   3.556  0.1344  0.7619 -0.7371
  308MOL0     H42476   0.797   2.370   3.791  1.3987 -0.0550 -2.9330
  308MOL0     H42477   0.625   2.377   3.762  0.5808  0.7411  1.9161
  308MOL0     H42478   0.786   2.142   3.838  0.9258  3.1917  0.1372
  308MOL0     H42479   0.609   2.133   3.824  0.1569 -2.4477  2.6747
  308MOL0     H42480   0.597   2.277   4.036  1.2096  0.6715  3.6113
  308MOL0     H42481   0.771   2.306   4.013 -1.6836  1.4445  0.7569
  308MOL0     H42482   0.804   2.065   4.089  1.2483  1.2605  0.4657
  308MOL0     H42483   0.629   2.039   4.060 -2.6100  1.8978  2.1289
  308MOL0     H42484   1.309   2.315   3.448  4.3698 -2.0570  0.4253
  308MOL0     H42485   1.475   2.128   3.468  0.8471 -3.8279 -0.1775
  308MOL0     H42486   1.482   1.656   3.484  1.1229 -1.6117  0.3669
  308MOL0     H42487   1.583   1.440   3.495 -2.0659  2.0649  0.5974
  308MOL0     H42488   2.718   0.593   3.150 -0.4142  1.3834  1.1102
  308MOL0     H42489   2.550   0.664   3.337  1.5425 -0.4086 -1.0312
  308MOL0     H42490   2.266   0.746   3.572  1.0201 -1.6096 -2.1276
  308MOL0     H42491   2.145   0.736   3.784 -0.1356 -0.9485 -0.3362
  308MOL0     H42492   1.970   0.523   3.815 -0.1014  0.2302 -0.5602
  308MOL0     H42493   2.023   0.631   3.944 -1.0431 -2.1905  3.3159
  308MOL0     H42494   1.817   0.643   4.047 -0.4795 -3.2358  1.1656
  308MOL0     H42495   1.868   0.469   4.033  0.1969 -1.3217 -2.3219
  308MOL0     H42496   1.671   0.592   3.832 -1.8212 -0.2580  0.4829
  308MOL0     H42497   1.708   0.434   3.843  1.3139  2.0342 -1.2368
  308MOL0     H42498   1.486   0.477   3.973  0.1462 -1.1829  0.7303
  308MOL0     H42499   1.591   0.565   4.089  0.6202  0.1866 -0.5750
  308MOL0     H42500   1.658   0.176   4.221 -2.7092 -2.5039 -2.3201
  308MOL0     H42501   1.779   0.694   3.568 -0.4249  4.2814 -1.1028
  308MOL0     H42502   1.892   0.731   3.250  0.7691  0.2507  0.5235
  308MOL0     H42503   1.907   0.569   3.282 -0.4149 -0.4158 -0.0241
  308MOL0     H42504   1.762   0.657   3.337  0.1018 -0.5242  1.5006
  309MOL0     O42505   0.013   3.433   4.788 -0.0539 -0.1912  0.2002
  309MOL0     C42506  -0.035   3.532   4.843 -0.5166  0.7201 -0.2776
  309MOL0     O42507   0.040   3.615   4.926  0.2184  0.5275  0.0498
  309MOL0     C42508   0.175   3.582   4.946  0.3971 -0.4818  0.2881
  309MOL0     C42509   0.262   3.565   4.840  0.2565  0.1169  1.0645
  309MOL0     C42510   0.398   3.534   4.855  0.2096  0.1985  0.6314
  309MOL0     C42511   0.455   3.516   4.983  0.1898  0.0545  0.6014
  309MOL0     O42512   0.585   3.493   5.016  0.3879  0.3284  0.1234
  309MOL0     C42513   0.674   3.505   4.908  0.9315 -0.1560  0.7780
  309MOL0     C42514   0.812   3.508   4.969  0.4198 -0.2442  0.0709
  309MOL0     C42515   0.864   3.369   5.037  1.3312 -0.1369 -0.1804
  309MOL0     C42516   0.996   3.327   4.976 -0.7086  0.1223  0.0665
  309MOL0     C42517   1.069   3.210   5.041  0.7396  0.8275  0.0492
  309MOL0     C42518   0.984   3.081   5.041 -0.0391 -0.1532 -0.0597
  309MOL0     C42519   0.978   3.006   4.898 -0.8722  0.6772  0.4055
  309MOL0     C42520   0.895   2.876   4.898 -0.0225  0.0047  1.0091
  309MOL0     N42521   0.887   2.832   4.764 -0.4789 -0.4080 -0.2288
  309MOL0     C42522   0.814   2.893   4.661  0.9394  0.1572  0.6864
  309MOL0     C42523   0.848   2.813   4.553 -0.6868 -0.2916  0.0742
  309MOL0     C42524   0.793   2.827   4.413 -0.4417 -0.6990 -0.0210
  309MOL0     C42525   0.875   2.942   4.344  0.4432 -0.6882  0.3881
  309MOL0     C42526   0.854   2.955   4.194  0.1118  0.5544  0.4795
  309MOL0     C42527   0.950   3.064   4.150 -0.0450  0.3518 -0.3027
  309MOL0     O42528   0.935   3.089   4.009  0.2514 -0.3365 -0.3118
  309MOL0     C42529   0.830   3.173   3.965  0.2359 -0.2942  0.0984
  309MOL0     C42530   0.802   3.177   3.830 -0.6064  0.0690  0.2922
  309MOL0     C42531   0.689   3.240   3.772 -0.1372 -0.2025 -0.1001
  309MOL0     C42532   0.673   3.230   3.622 -0.7712  0.6440 -0.4259
  309MOL0     C42533   0.602   3.325   3.859 -0.9640  0.4316 -0.9511
  309MOL0     C42534   0.483   3.396   3.823 -0.1290  0.7139  0.0881
  309MOL0     O42535   0.442   3.491   3.914  0.5389 -0.0467 -0.1645
  309MOL0     C42536   0.357   3.591   3.874  0.5742  0.5551  0.2157
  309MOL0     C42537   0.413   3.714   3.852  0.4820  0.4321 -0.1725
  309MOL0     C42538   0.331   3.814   3.801  0.4371 -0.2378 -0.2965
  309MOL0     C42539   0.196   3.793   3.792 -0.7181 -0.6173 -0.8350
  309MOL0     O42540   0.126   3.897   3.742  0.0294  0.0629 -0.0570
  309MOL0     C42541   0.091   3.878   3.605 -0.2385 -0.4139 -0.5527
  309MOL0     C42542   0.023   4.006   3.567  0.4395 -0.4851  0.3350
  309MOL0     C42543   0.110   4.145   3.563  0.5483 -0.6704 -0.3216
  309MOL0     C42544   0.023   4.269   3.578  0.0672 -0.8011 -0.1468
  309MOL0     C42545   0.103   4.401   3.586  0.1209 -0.1890 -0.2096
  309MOL0     C42546   0.003   4.521   3.583 -0.2084  0.3376 -0.1200
  309MOL0     C42547   0.061   4.668   3.607  0.9977  0.7394 -0.4589
  309MOL0     C42548  -0.055   4.765   3.614  0.3885  0.5557  0.5761
  309MOL0    Cl42549  -0.089   4.799   3.443  0.4131  0.4424  0.0236
  309MOL0     C42550   0.131   3.673   3.823 -0.8379 -0.0591  0.8097
  309MOL0     C42551   0.216   3.562   3.862 -0.3036  0.1175  0.9981
  309MOL0     O42552   0.423   3.375   3.721  0.4369  0.6135 -0.3111
  309MOL0     C42553   0.647   3.326   3.999  0.0715  0.1829 -0.3789
  309MOL0     C42554   0.749   3.247   4.047  0.9572 -0.0702  0.3871
  309MOL0     N42555   0.950   2.730   4.592 -0.2590  0.2505  0.2082
  309MOL0     N42556   0.975   2.752   4.713 -0.7606 -0.7076 -0.3189
  309MOL0     C42557   0.372   3.553   5.091  0.3581  0.8826 -0.1099
  309MOL0     C42558   0.235   3.583   5.067 -0.5727 -0.0287 -0.6212
  309MOL0     C42559  -0.175   3.573   4.819 -0.0342 -0.1086 -0.0564
  309MOL0     C42560  -0.235   3.635   4.923 -0.2499 -0.9579 -0.1229
  309MOL0     C42561  -0.374   3.664   4.918 -0.2980 -0.4723 -0.1984
  309MOL0     C42562  -0.459   3.628   4.815 -1.1986 -1.0149 -0.5251
  309MOL0     O42563  -0.595   3.645   4.834  0.1661 -0.3663  0.4738
  309MOL0     C42564  -0.683   3.555   4.763  0.3871 -0.5293 -0.5377
  309MOL0     C42565  -0.839   3.592   4.786 -0.8697 -0.8495  0.3473
  309MOL0     C42566  -0.874   3.561   4.933  0.7110  0.4152 -0.3602
  309MOL0     C42567  -1.014   3.599   4.981 -0.8122  0.0651 -0.7515
  309MOL0     C42568  -1.122   3.510   4.936  1.2141  0.0125 -0.0056
  309MOL0     C42569  -1.203   3.424   4.905 -0.5150 -0.2266  0.1195
  309MOL0     C42570  -0.396   3.564   4.702  0.1720 -0.2978  0.0189
  309MOL0     C42571  -0.251   3.538   4.709  0.6895 -0.6120 -0.3750
  309MOL0     C42572  -0.182   3.468   4.590  0.3667  0.3906 -0.0941
  309MOL0     H42573   0.225   3.561   4.738  0.7456 -2.0306  0.9218
  309MOL0     H42574   0.469   3.539   4.773 -0.3689 -2.8767 -0.1661
  309MOL0     H42575   0.663   3.606   4.867  1.4564  0.5849  2.3741
  309MOL0     H42576   0.655   3.436   4.825  2.3902  2.1323 -1.6199
  309MOL0     H42577   0.883   3.545   4.894  2.5269 -1.1094  1.5484
  309MOL0     H42578   0.804   3.585   5.046 -1.1738  0.8176 -1.0852
  309MOL0     H42579   0.865   3.383   5.146 -1.7333 -0.5928 -0.0197
  309MOL0     H42580   0.791   3.289   5.027  2.4784 -1.1601 -0.6632
  309MOL0     H42581   0.965   3.302   4.874 -2.3661 -1.4656  0.9007
  309MOL0     H42582   1.072   3.405   4.967  1.3090 -1.6570  0.6525
  309MOL0     H42583   1.088   3.229   5.147  0.4893 -4.3641  1.3140
  309MOL0     H42584   1.161   3.196   4.984  0.4665  0.8271 -0.3921
  309MOL0     H42585   1.030   3.015   5.115  0.7526 -1.0996 -1.3513
  309MOL0     H42586   0.882   3.103   5.074  0.7047 -1.9078  4.0980
  309MOL0     H42587   1.080   2.993   4.862 -1.8124  2.3703 -3.4080
  309MOL0     H42588   0.927   3.083   4.839 -0.2641  0.4702 -0.3992
  309MOL0     H42589   0.944   2.803   4.964 -0.0529  0.2277  1.2823
  309MOL0     H42590   0.794   2.902   4.931 -1.0585 -0.1264 -1.8099
  309MOL0     H42591   0.742   2.974   4.675 -1.6124 -1.5854 -1.2966
  309MOL0     H42592   0.684   2.834   4.410 -0.4875 -1.0542  0.5563
  309MOL0     H42593   0.820   2.737   4.357  4.2344  0.9049 -0.8103
  309MOL0     H42594   0.830   3.030   4.388 -1.4518 -2.5361  2.3777
  309MOL0     H42595   0.983   2.952   4.361  0.5585 -1.2642  0.0549
  309MOL0     H42596   0.882   2.863   4.144 -1.4088 -1.1530  2.5725
  309MOL0     H42597   0.749   2.975   4.174  0.0753  3.3780  2.7044
  309MOL0     H42598   0.933   3.155   4.208  0.3845  1.0786 -1.2937
  309MOL0     H42599   1.057   3.040   4.156 -0.4009 -2.5915 -3.1009
  309MOL0     H42600   0.872   3.134   3.759  1.0942  1.3307  1.1340
  309MOL0     H42601   0.746   3.161   3.579 -0.6602 -2.1951  3.7430
  309MOL0     H42602   0.689   3.331   3.585  0.5896  1.3344  1.8936
  309MOL0     H42603   0.571   3.196   3.596 -1.0777 -2.2646  3.6445
  309MOL0     H42604   0.518   3.720   3.876  0.2075 -2.3079  2.3753
  309MOL0     H42605   0.366   3.910   3.764 -1.5386  0.3132 -0.8830
  309MOL0     H42606   0.181   3.860   3.545  3.2381  3.3700  2.9388
  309MOL0     H42607   0.003   3.814   3.595 -1.0994  1.0764 -3.7648
  309MOL0     H42608  -0.008   3.979   3.466 -1.1518 -1.6531  1.0906
  309MOL0     H42609  -0.072   4.024   3.618  0.5315  3.5087 -0.5880
  309MOL0     H42610   0.147   4.142   3.461 -2.9000 -4.0441 -1.7409
  309MOL0     H42611   0.197   4.146   3.630  0.4034  2.1266 -0.0646
  309MOL0     H42612  -0.014   4.272   3.681  0.4724  0.6507 -0.0260
  309MOL0     H42613  -0.058   4.262   3.505  0.0103 -4.3571  0.1068
  309MOL0     H42614   0.156   4.400   3.681 -1.4590  0.8516  0.7407
  309MOL0     H42615   0.175   4.414   3.505 -1.3560 -0.6478 -1.6458
  309MOL0     H42616  -0.079   4.499   3.652 -1.1837 -0.0141 -1.3463
  309MOL0     H42617  -0.046   4.518   3.485  0.4141 -0.6313 -0.4141
  309MOL0     H42618   0.147   4.694   3.545  2.2884 -0.1634  0.8754
  309MOL0     H42619   0.100   4.662   3.709  1.3953 -2.8901 -0.6848
  309MOL0     H42620  -0.026   4.856   3.666  2.2392  0.3798 -0.0889
  309MOL0     H42621  -0.145   4.710   3.647  1.3477 -2.2911 -1.2090
  309MOL0     H42622   0.024   3.656   3.813 -0.3802 -1.6699 -3.7197
  309MOL0     H42623   0.181   3.462   3.888  4.4088 -2.8508 -2.4541
  309MOL0     H42624   0.594   3.378   4.078  0.9862 -1.2962  1.2909
  309MOL0     H42625   0.770   3.265   4.152 -0.7605 -1.9481  1.1384
  309MOL0     H42626   0.423   3.556   5.187  1.5203 -2.2844 -0.5101
  309MOL0     H42627   0.178   3.624   5.150  3.3408  1.0530  1.8092
  309MOL0     H42628  -0.174   3.669   5.006 -0.2445  3.4633 -1.6567
  309MOL0     H42629  -0.420   3.718   5.000  2.6640  1.1903  0.4967
  309MOL0     H42630  -0.661   3.572   4.657 -0.4708  0.4634 -0.5767
  309MOL0     H42631  -0.654   3.451   4.785  2.8016  0.2279  0.1726
  309MOL0     H42632  -0.892   3.530   4.713 -1.0180 -0.0346 -0.2498
  309MOL0     H42633  -0.864   3.697   4.766 -1.6461 -1.2104 -0.6483
  309MOL0     H42634  -0.883   3.457   4.965 -2.1077  0.7907  0.3537
  309MOL0     H42635  -0.797   3.605   4.997  1.9757  1.1386 -2.2785
  309MOL0     H42636  -1.037   3.699   4.945 -1.4421  0.1300 -0.1954
  309MOL0     H42637  -1.011   3.602   5.091 -0.8266  0.9538 -0.7760
  309MOL0     H42638  -1.273   3.348   4.875  0.2462 -1.5665  1.5937
  309MOL0     H42639  -0.448   3.514   4.620  3.1353 -1.7639 -1.1343
  309MOL0     H42640  -0.125   3.546   4.539 -2.2808  1.0300 -2.3572
  309MOL0     H42641  -0.140   3.369   4.607  1.7376  1.1044  0.8241
  309MOL0     H42642  -0.272   3.459   4.527 -1.4220 -2.6280  2.5833
  310MOL0     O42643   9.527   5.367   3.278  0.2405  0.3783 -0.2555
  310MOL0     C42644   9.497   5.249   3.262  1.0382  0.0336  0.0285
  310MOL0     O42645   9.489   5.154   3.368  0.1566  0.1972 -0.0755
  310MOL0     C42646   9.507   5.216   3.488  0.3671 -0.3219  0.2353
  310MOL0     C42647   9.401   5.269   3.557  0.3985  0.3660 -0.3354
  310MOL0     C42648   9.414   5.325   3.683 -0.4225  0.0895  1.0363
  310MOL0     C42649   9.545   5.337   3.736  0.7244 -0.4748  0.3290
  310MOL0     O42650   9.543   5.380   3.869  0.1575 -1.0315  0.1656
  310MOL0     C42651   9.626   5.497   3.895  0.0561  0.5367 -0.2812
  310MOL0     C42652   9.600   5.532   4.043  0.0377  0.1857  0.1183
  310MOL0     C42653   9.639   5.671   4.092  0.1652 -0.0589 -0.8004
  310MOL0     C42654   9.757   5.737   4.018  0.3955  0.3094 -0.7159
  310MOL0     C42655   9.791   5.887   4.079  0.6556  0.0390 -0.6927
  310MOL0     C42656   9.669   5.982   4.098 -0.3582  0.3776  0.5738
  310MOL0     C42657   9.719   6.127   4.098  0.6070  1.1521  0.0665
  310MOL0     C42658   9.813   6.157   4.219  0.2719 -0.2142 -0.2487
  310MOL0     N42659   9.823   6.303   4.238  0.2275 -0.3115  1.4741
  310MOL0     C42660   9.902   6.389   4.167 -0.7584 -0.0760  0.1160
  310MOL0     C42661   9.897   6.506   4.234 -0.5756 -0.6516  0.4310
  310MOL0     C42662   9.961   6.643   4.208 -0.5695  0.2927  0.5865
  310MOL0     C42663   9.924   6.685   4.063  0.5173 -1.1256 -0.2037
  310MOL0     C42664  10.010   6.807   4.018  0.6947  0.8870  0.3678
  310MOL0     C42665  10.002   6.922   4.102  0.7032  0.0470  0.1354
  310MOL0     O42666  10.088   6.898   4.221  0.1539  0.0494  0.2006
  310MOL0     C42667  10.218   6.920   4.213 -0.3193 -0.5948  0.1744
  310MOL0     C42668  10.271   7.047   4.202 -0.7067  0.0486 -0.1865
  310MOL0     C42669  10.410   7.080   4.200 -0.0628  0.7778 -0.8296
  310MOL0     C42670  10.454   7.227   4.188  0.3167 -0.0190  0.3124
  310MOL0     C42671  10.499   6.978   4.200  0.3966  0.8932 -0.2558
  310MOL0     C42672  10.647   6.998   4.215 -0.3190  0.3584  0.2993
  310MOL0     O42673  10.708   6.890   4.268  0.0832 -0.2507 -0.6330
  310MOL0     C42674  10.829   6.899   4.331  0.2209  0.1300  0.7225
  310MOL0     C42675  10.898   6.780   4.337 -0.1853  0.5821  0.0626
  310MOL0     C42676  11.019   6.774   4.417 -0.2728 -0.2056  0.6162
  310MOL0     C42677  11.073   6.893   4.472 -1.0846  1.1587 -0.7430
  310MOL0     O42678  11.191   6.896   4.533  0.1600 -0.4056  0.1243
  310MOL0     C42679  11.294   6.806   4.491 -0.2828 -0.8408  0.0730
  310MOL0     C42680  11.287   6.671   4.566 -0.7054 -0.2063 -0.1403
  310MOL0     C42681  11.354   6.557   4.484 -0.5408  0.5277 -0.4773
  310MOL0     C42682  11.324   6.426   4.551 -0.4753  0.2420 -0.4931
  310MOL0     C42683  11.417   6.308   4.509 -0.5387  0.1906  0.6339
  310MOL0     C42684  11.366   6.233   4.391  0.0827 -0.5553  1.1172
  310MOL0     C42685  11.275   6.120   4.417 -0.5229 -0.3493 -0.2054
  310MOL0     C42686  11.345   6.003   4.496 -0.1146 -0.0794  0.4160
  310MOL0    Cl42687  11.253   5.975   4.656 -0.0868  0.1863  0.2186
  310MOL0     C42688  10.999   7.009   4.464 -0.0985  0.9497 -0.0011
  310MOL0     C42689  10.884   7.015   4.394  0.7342 -0.4766 -0.1834
  310MOL0     O42690  10.709   7.092   4.167  0.2449  0.0110  0.6970
  310MOL0     C42691  10.450   6.842   4.209  0.2532 -0.1676  0.1080
  310MOL0     C42692  10.312   6.817   4.204 -0.1959 -0.7489 -0.3494
  310MOL0     N42693   9.815   6.482   4.342 -0.5828 -0.0437 -0.1417
  310MOL0     N42694   9.778   6.361   4.347  1.1274  0.2764  0.1453
  310MOL0     C42695   9.653   5.282   3.676  0.1916  0.0720 -0.4833
  310MOL0     C42696   9.632   5.221   3.556 -0.5406 -0.2576  0.0970
  310MOL0     C42697   9.461   5.200   3.130  0.3563  0.7406  0.0800
  310MOL0     C42698   9.510   5.259   3.018  1.1388 -0.1011  0.3030
  310MOL0     C42699   9.475   5.225   2.891  0.2752 -0.3958 -0.1027
  310MOL0     C42700   9.381   5.122   2.862  0.2383 -0.4219 -1.1637
  310MOL0     O42701   9.347   5.117   2.725  0.0254  0.5882  0.4587
  310MOL0     C42702   9.320   4.976   2.688  0.6126  0.0981  0.6748
  310MOL0     C42703   9.328   4.964   2.532 -0.8592  0.1511  0.0443
  310MOL0     C42704   9.216   5.035   2.463  0.0750  0.1238 -0.2389
  310MOL0     C42705   9.133   4.929   2.390  0.0305  0.5444  0.2152
  310MOL0     C42706   9.191   4.882   2.263  0.1389  0.8491 -0.0435
  310MOL0     C42707   9.249   4.835   2.159 -0.8534 -0.7956 -0.3876
  310MOL0     C42708   9.324   5.058   2.973 -0.2862 -0.3386 -0.2042
  310MOL0     C42709   9.370   5.088   3.102  0.1772 -0.4888 -0.4175
  310MOL0     C42710   9.306   4.998   3.209 -0.1108 -0.2107 -0.1102
  310MOL0     H42711   9.309   5.265   3.500  0.5897  2.3125 -0.8382
  310MOL0     H42712   9.326   5.364   3.732 -0.8004  0.8926 -0.2432
  310MOL0     H42713   9.583   5.580   3.837 -1.4298  1.0695  1.4689
  310MOL0     H42714   9.726   5.470   3.863 -0.5985  1.7121 -3.7628
  310MOL0     H42715   9.492   5.521   4.056 -0.0749 -1.3620 -1.6720
  310MOL0     H42716   9.649   5.454   4.102 -2.1787 -0.8332  0.6966
  310MOL0     H42717   9.553   5.736   4.069 -1.5444 -1.4629  1.1678
  310MOL0     H42718   9.658   5.661   4.199 -3.1179  0.6881 -0.0211
  310MOL0     H42719   9.841   5.666   4.023  0.5486  0.4945 -0.6301
  310MOL0     H42720   9.728   5.759   3.915 -0.7240  0.6556 -0.3403
  310MOL0     H42721   9.857   5.933   4.004 -0.3027  1.2426 -0.8275
  310MOL0     H42722   9.838   5.884   4.178 -1.1624  1.5830  0.2859
  310MOL0     H42723   9.601   5.959   4.016  2.0583  1.8539 -1.9996
  310MOL0     H42724   9.612   5.957   4.189 -4.2390  1.7816 -1.2656
  310MOL0     H42725   9.630   6.188   4.116  0.9422  1.2060  1.6642
  310MOL0     H42726   9.765   6.151   4.001  0.3653  4.3320  0.6241
  310MOL0     H42727   9.783   6.101   4.308 -1.6937  0.0557 -0.6918
  310MOL0     H42728   9.913   6.121   4.194  1.7666  2.1362  1.8621
  310MOL0     H42729   9.938   6.361   4.068 -1.0276  0.8097 -0.2445
  310MOL0     H42730  10.068   6.623   4.200 -0.7818 -0.1311 -2.5591
  310MOL0     H42731   9.948   6.714   4.290  1.6308  1.5646 -0.0861
  310MOL0     H42732   9.930   6.607   3.986 -0.9649 -0.5686 -0.9103
  310MOL0     H42733   9.818   6.708   4.056  0.9383  0.7442 -0.8951
  310MOL0     H42734  10.115   6.779   4.004 -0.1700 -1.3513 -2.3393
  310MOL0     H42735   9.973   6.836   3.919 -2.3256  0.0298  1.1349
  310MOL0     H42736  10.052   7.007   4.054 -1.1855  0.1958 -1.7621
  310MOL0     H42737   9.896   6.937   4.128  1.3391  2.9210  1.4940
  310MOL0     H42738  10.192   7.120   4.197 -0.3410  0.4870  0.3377
  310MOL0     H42739  10.475   7.250   4.083 -0.9211  0.2264  0.0966
  310MOL0     H42740  10.547   7.246   4.241  0.8740  0.4181 -0.7952
  310MOL0     H42741  10.373   7.290   4.227  0.2522  0.4498 -0.5583
  310MOL0     H42742  10.849   6.690   4.302  1.4564 -1.1812  1.9927
  310MOL0     H42743  11.068   6.678   4.409  2.8812  1.3784 -1.6468
  310MOL0     H42744  11.279   6.803   4.383 -0.8785 -0.3545  0.1355
  310MOL0     H42745  11.389   6.858   4.503 -0.7598 -0.2141  1.3965
  310MOL0     H42746  11.340   6.695   4.658 -0.5777 -1.0024 -0.0054
  310MOL0     H42747  11.186   6.636   4.590  0.4313 -1.9867  2.4600
  310MOL0     H42748  11.463   6.562   4.493 -0.6232  0.2927  0.8478
  310MOL0     H42749  11.338   6.554   4.375  0.2248 -0.0332 -0.5898
  310MOL0     H42750  11.220   6.404   4.525  0.9196 -3.7012 -3.8137
  310MOL0     H42751  11.338   6.436   4.659 -1.1395 -1.3949 -0.2202
  310MOL0     H42752  11.519   6.341   4.484 -0.8704  1.2098  0.5836
  310MOL0     H42753  11.423   6.235   4.591  1.2816  0.2427  0.5834
  310MOL0     H42754  11.443   6.187   4.329 -0.4025 -0.7780  0.6720
  310MOL0     H42755  11.304   6.304   4.336 -1.6727 -1.3046  2.0402
  310MOL0     H42756  11.248   6.086   4.316 -1.4771  0.7539 -0.3417
  310MOL0     H42757  11.183   6.146   4.471  0.1164  0.7950  0.3740
  310MOL0     H42758  11.450   6.032   4.512 -0.8107  3.4891 -0.5933
  310MOL0     H42759  11.345   5.917   4.429 -0.8707 -0.1299  0.4752
  310MOL0     H42760  11.046   7.104   4.489  0.3960  0.8479 -0.5423
  310MOL0     H42761  10.833   7.110   4.388 -1.5478 -1.6873 -1.0058
  310MOL0     H42762  10.512   6.753   4.208  0.4548 -0.0328  0.3836
  310MOL0     H42763  10.271   6.716   4.209 -1.9519 -0.1774 -2.0178
  310MOL0     H42764   9.753   5.278   3.718 -0.2605  3.5922  1.3337
  310MOL0     H42765   9.716   5.180   3.500  0.9038  0.3756  1.6899
  310MOL0     H42766   9.565   5.351   3.031 -3.0477  2.5873  0.7625
  310MOL0     H42767   9.517   5.293   2.818 -1.6293 -0.5364 -1.4248
  310MOL0     H42768   9.395   4.906   2.727  1.6858 -0.2138 -1.7557
  310MOL0     H42769   9.218   4.962   2.723  0.2353  0.6995 -0.1630
  310MOL0     H42770   9.333   4.859   2.502  0.2379  1.3194 -4.6232
  310MOL0     H42771   9.423   5.012   2.503 -1.7334  3.4589  2.0305
  310MOL0     H42772   9.160   5.089   2.539  0.1239  2.0744 -1.5056
  310MOL0     H42773   9.248   5.100   2.380 -2.0114 -0.8274 -1.8606
  310MOL0     H42774   9.034   4.967   2.362 -1.0242 -1.7780  0.5563
  310MOL0     H42775   9.126   4.841   2.453 -3.0996 -0.4542 -1.2981
  310MOL0     H42776   9.299   4.806   2.069  0.9331  3.6317 -1.1038
  310MOL0     H42777   9.256   4.974   2.960 -2.2369  1.3515 -1.6287
  310MOL0     H42778   9.247   5.042   3.290 -1.3546 -0.5027 -0.8301
  310MOL0     H42779   9.238   4.932   3.154  0.4541 -0.1857 -0.8578
  310MOL0     H42780   9.376   4.931   3.260 -0.7024  1.1615  2.7229
  311MOL0     O42781   7.021   4.240   2.722  0.3383  0.3290 -0.8776
  311MOL0     C42782   7.113   4.198   2.794  0.0314 -0.5101 -0.3827
  311MOL0     O42783   7.095   4.141   2.915 -0.2191  0.3286  0.5067
  311MOL0     C42784   6.973   4.110   2.958 -0.0709 -0.1329  0.0401
  311MOL0     C42785   6.870   4.057   2.873 -0.3279 -0.2593 -0.3322
  311MOL0     C42786   6.746   4.017   2.930 -0.0212  0.0561 -0.2111
  311MOL0     C42787   6.727   4.028   3.069  0.0237  0.7324 -0.2804
  311MOL0     O42788   6.599   3.992   3.101 -0.0476  0.6700 -0.7537
  311MOL0     C42789   6.582   3.959   3.245  0.3631 -0.3586  0.0724
  311MOL0     C42790   6.550   4.072   3.331 -0.2193 -0.8754  0.3615
  311MOL0     C42791   6.436   4.171   3.288  0.4784  0.1659  0.8783
  311MOL0     C42792   6.302   4.098   3.268 -0.0203 -0.3066 -0.4087
  311MOL0     C42793   6.190   4.194   3.223 -1.0644 -1.1257  0.7686
  311MOL0     C42794   6.072   4.122   3.166  0.1584 -0.8515 -0.3070
  311MOL0     C42795   5.990   4.038   3.260  0.4419  0.3082 -0.2425
  311MOL0     C42796   5.849   3.984   3.218 -0.1304 -0.4869 -0.2779
  311MOL0     N42797   5.744   4.089   3.199 -0.2039  1.3578  0.0035
  311MOL0     C42798   5.724   4.182   3.289 -0.0631  0.2759 -0.2549
  311MOL0     C42799   5.614   4.251   3.247  0.7912 -0.6795 -0.2053
  311MOL0     C42800   5.549   4.360   3.320  0.1305 -0.6155 -0.1267
  311MOL0     C42801   5.499   4.326   3.459 -0.7149  0.2957  0.1055
  311MOL0     C42802   5.400   4.423   3.524  0.1371  0.1173 -0.4960
  311MOL0     C42803   5.447   4.566   3.531  0.2375  0.0698  0.9397
  311MOL0     O42804   5.585   4.561   3.565 -0.3825 -0.0169 -0.3208
  311MOL0     C42805   5.661   4.676   3.537  0.2189  0.0779 -0.1037
  311MOL0     C42806   5.624   4.798   3.592  0.1465  0.0088  0.3119
  311MOL0     C42807   5.698   4.912   3.572  0.4678 -0.1706 -1.1983
  311MOL0     C42808   5.639   5.034   3.638 -0.7992 -0.3114 -0.3890
  311MOL0     C42809   5.819   4.904   3.493  0.9746  0.1118 -0.1107
  311MOL0     C42810   5.910   5.020   3.482 -0.3328  0.4441  0.1698
  311MOL0     O42811   6.004   5.019   3.379  0.2646 -0.1829 -0.5222
  311MOL0     C42812   6.121   5.102   3.368 -0.4349  0.6054 -0.1649
  311MOL0     C42813   6.141   5.233   3.408 -0.0225  0.5317  0.2478
  311MOL0     C42814   6.268   5.288   3.397  0.9607 -0.3181 -0.6587
  311MOL0     C42815   6.372   5.215   3.353 -0.1865 -0.2002 -0.9310
  311MOL0     O42816   6.489   5.281   3.363 -0.1461 -0.2436 -0.3363
  311MOL0     C42817   6.596   5.226   3.291  1.0173  0.0767  0.1112
  311MOL0     C42818   6.721   5.309   3.329 -0.9623 -0.4346  0.6974
  311MOL0     C42819   6.699   5.460   3.373  0.0519 -0.2183  0.7504
  311MOL0     C42820   6.770   5.552   3.274  0.1198  0.4763  0.5267
  311MOL0     C42821   6.912   5.547   3.317 -0.0072 -0.6703 -0.8347
  311MOL0     C42822   7.015   5.589   3.206 -0.7665 -0.4320  0.4398
  311MOL0     C42823   6.969   5.728   3.147  0.2243 -0.8156 -0.1871
  311MOL0     C42824   7.093   5.800   3.088  0.1930 -1.4844  0.0046
  311MOL0    Cl42825   7.167   5.683   2.972 -0.4951 -0.0973  0.4558
  311MOL0     C42826   6.348   5.087   3.301 -0.9662  0.5130 -0.9947
  311MOL0     C42827   6.223   5.029   3.313  0.0035  0.2242  0.5058
  311MOL0     O42828   5.904   5.113   3.563 -0.4214  0.4465  0.1637
  311MOL0     C42829   5.840   4.789   3.419 -0.0816 -0.3722 -0.1665
  311MOL0     C42830   5.768   4.668   3.447 -0.1131 -0.4181 -0.7004
  311MOL0     N42831   5.567   4.196   3.128  0.0754 -0.1293 -0.6908
  311MOL0     N42832   5.650   4.098   3.096  0.0411  0.0199  0.4702
  311MOL0     C42833   6.836   4.075   3.154  0.2721  0.4984  0.0670
  311MOL0     C42834   6.957   4.116   3.097 -0.7737 -0.0226  0.3648
  311MOL0     C42835   7.245   4.198   2.736  0.0400  0.8737 -0.4175
  311MOL0     C42836   7.337   4.101   2.779 -1.0668  0.1942 -0.2172
  311MOL0     C42837   7.466   4.077   2.728 -0.0077 -0.0985  0.5587
  311MOL0     C42838   7.513   4.175   2.637  0.2976  0.1529  0.1318
  311MOL0     O42839   7.648   4.163   2.594  0.3877 -0.1055  0.0322
  311MOL0     C42840   7.683   4.049   2.508  0.4350 -0.2090  0.0934
  311MOL0     C42841   7.624   4.071   2.365  0.4017  0.4135 -0.6760
  311MOL0     C42842   7.671   3.959   2.270  0.5398 -1.2779 -0.1594
  311MOL0     C42843   7.811   3.975   2.214 -0.2418 -0.6374 -0.6072
  311MOL0     C42844   7.849   3.850   2.154 -0.1777 -0.4975  0.3441
  311MOL0     C42845   7.878   3.758   2.089 -0.0784 -0.3636 -0.7743
  311MOL0     C42846   7.426   4.274   2.591 -0.5286 -0.6610 -0.0318
  311MOL0     C42847   7.295   4.291   2.642 -0.5440 -0.2649 -0.2754
  311MOL0     C42848   7.219   4.415   2.599 -0.3366  0.6634  1.1932
  311MOL0     H42849   6.897   4.038   2.769  0.4531  1.2993 -0.4438
  311MOL0     H42850   6.672   3.972   2.865 -2.1980  1.5430  1.1190
  311MOL0     H42851   6.658   3.897   3.292 -2.3444 -1.0953  3.9583
  311MOL0     H42852   6.494   3.894   3.248  1.1386 -1.5461 -1.2286
  311MOL0     H42853   6.520   4.046   3.433 -3.7848  0.4725 -0.2061
  311MOL0     H42854   6.641   4.132   3.344 -0.8594  0.2190 -0.0266
  311MOL0     H42855   6.419   4.247   3.365  2.2906  0.4699  1.0257
  311MOL0     H42856   6.457   4.226   3.196  1.2731 -0.4202  0.7044
  311MOL0     H42857   6.306   4.016   3.196 -1.0798 -1.0375  0.3306
  311MOL0     H42858   6.256   4.052   3.356 -2.0397 -1.1740 -1.8470
  311MOL0     H42859   6.228   4.260   3.145 -1.1283 -0.0406  1.6301
  311MOL0     H42860   6.175   4.249   3.316  1.2630 -3.4410  2.6646
  311MOL0     H42861   6.002   4.202   3.139 -1.0586 -0.1826  3.9798
  311MOL0     H42862   6.102   4.056   3.084 -0.4364 -1.4441 -0.0610
  311MOL0     H42863   5.979   4.083   3.359 -2.4546  1.8159 -1.1405
  311MOL0     H42864   6.053   3.949   3.274 -0.0326  0.2245  1.6345
  311MOL0     H42865   5.843   3.929   3.123 -1.7355  0.4198 -0.7322
  311MOL0     H42866   5.824   3.909   3.293  2.6894 -2.4062 -1.0821
  311MOL0     H42867   5.776   4.188   3.384 -1.0541 -2.0208  0.4970
  311MOL0     H42868   5.474   4.406   3.256  2.3745  3.1479 -0.3550
  311MOL0     H42869   5.620   4.442   3.334 -1.0253  0.4075 -0.1521
  311MOL0     H42870   5.451   4.228   3.445  0.6760 -0.2361 -1.1463
  311MOL0     H42871   5.579   4.313   3.533  0.7054 -0.7076 -1.5276
  311MOL0     H42872   5.303   4.426   3.473  0.0702  0.9504 -0.3329
  311MOL0     H42873   5.370   4.393   3.624 -0.9027 -0.5819 -0.9941
  311MOL0     H42874   5.435   4.615   3.434  0.3272  1.3945  1.5717
  311MOL0     H42875   5.395   4.635   3.598 -1.8098  0.8616 -1.3206
  311MOL0     H42876   5.530   4.795   3.646  0.2415 -2.5642  0.4765
  311MOL0     H42877   5.715   5.081   3.701  0.6551 -0.4641 -1.9574
  311MOL0     H42878   5.551   5.032   3.702 -0.3361  2.8051  0.4897
  311MOL0     H42879   5.612   5.107   3.562  2.3688  1.9268  0.3975
  311MOL0     H42880   6.063   5.299   3.445 -0.7977  0.3018 -0.9039
  311MOL0     H42881   6.278   5.387   3.442 -1.6815 -0.4644  0.4313
  311MOL0     H42882   6.612   5.118   3.301  1.7189  0.1589 -0.0464
  311MOL0     H42883   6.574   5.240   3.185  0.2460  2.8365  0.5650
  311MOL0     H42884   6.780   5.259   3.405  1.6739  2.3540  0.6618
  311MOL0     H42885   6.797   5.308   3.250 -0.0452 -2.5974  1.5557
  311MOL0     H42886   6.737   5.472   3.475  2.5470 -1.7135  0.0859
  311MOL0     H42887   6.594   5.489   3.378 -0.1900 -1.0710  0.8394
  311MOL0     H42888   6.730   5.654   3.275 -0.1011  0.5211 -2.7802
  311MOL0     H42889   6.748   5.511   3.175 -2.2787  1.2410  0.6921
  311MOL0     H42890   6.916   5.618   3.400  0.4071 -1.0674 -0.5133
  311MOL0     H42891   6.931   5.446   3.355 -3.6938 -0.7104  1.4615
  311MOL0     H42892   7.015   5.512   3.127  2.4121  1.5474 -1.7354
  311MOL0     H42893   7.113   5.595   3.255  0.1108 -1.2855 -1.1194
  311MOL0     H42894   6.918   5.792   3.219 -0.0360 -0.5496 -0.5992
  311MOL0     H42895   6.902   5.724   3.060 -0.8199 -2.3065  0.6450
  311MOL0     H42896   7.165   5.847   3.155 -0.2938 -0.1694 -0.3725
  311MOL0     H42897   7.063   5.887   3.029 -2.6014 -1.4914  1.2617
  311MOL0     H42898   6.423   5.022   3.258  0.2528  1.5119 -0.4440
  311MOL0     H42899   6.203   4.928   3.277  1.0720  0.5518 -1.1385
  311MOL0     H42900   5.920   4.784   3.346  0.6421 -1.3874  0.6724
  311MOL0     H42901   5.785   4.577   3.390 -1.5050 -0.7155 -0.6909
  311MOL0     H42902   6.823   4.079   3.261 -1.1233  1.0298 -0.0999
  311MOL0     H42903   7.047   4.137   3.153  1.4658  1.8267 -3.5239
  311MOL0     H42904   7.312   4.021   2.849  0.3273  0.0261  0.1262
  311MOL0     H42905   7.537   4.003   2.762 -0.2425 -1.1561 -1.1492
  311MOL0     H42906   7.792   4.041   2.506  0.3467 -1.4637 -0.0210
  311MOL0     H42907   7.644   3.959   2.556  3.3290 -1.7179 -0.1828
  311MOL0     H42908   7.640   4.167   2.313 -0.4246 -0.6482 -3.0494
  311MOL0     H42909   7.516   4.064   2.380  0.5837  1.6871  1.6934
  311MOL0     H42910   7.668   3.867   2.330 -0.8326  0.3421  2.4136
  311MOL0     H42911   7.595   3.951   2.191 -0.7673 -1.0521  1.0367
  311MOL0     H42912   7.875   4.006   2.298 -1.4997 -1.1320  0.5671
  311MOL0     H42913   7.823   4.055   2.140 -1.7756 -1.4647 -1.8050
  311MOL0     H42914   7.907   3.671   2.034  3.9371 -0.7510  1.5774
  311MOL0     H42915   7.454   4.351   2.519  0.0181 -1.4221 -0.6509
  311MOL0     H42916   7.282   4.494   2.556 -0.9642  1.7468  2.1886
  311MOL0     H42917   7.136   4.388   2.532  1.0288 -0.2545 -0.1927
  311MOL0     H42918   7.170   4.457   2.687 -0.5914  1.7116  0.5685
  312MOL0     O42919   6.173   8.052   7.181  0.2583 -0.6237  0.1323
  312MOL0     C42920   6.113   7.945   7.156 -1.4818  0.8208 -0.5984
  312MOL0     O42921   6.167   7.836   7.095  1.1257 -0.3946 -0.5444
  312MOL0     C42922   6.302   7.825   7.095 -0.1712 -0.5918 -0.4820
  312MOL0     C42923   6.362   7.715   7.164  0.2085  0.4228  0.1323
  312MOL0     C42924   6.492   7.698   7.175 -0.2964  0.5956 -0.2729
  312MOL0     C42925   6.580   7.783   7.108 -0.3696 -0.0086 -0.4210
  312MOL0     O42926   6.719   7.781   7.114 -0.3362  0.0553 -0.1561
  312MOL0     C42927   6.778   7.699   7.222  0.5733 -0.3534  0.2485
  312MOL0     C42928   6.760   7.743   7.374 -0.1683  0.0032  0.4866
  312MOL0     C42929   6.824   7.639   7.460 -1.2429 -0.0917  0.1350
  312MOL0     C42930   6.802   7.661   7.611  1.2086  0.2099  0.0885
  312MOL0     C42931   6.872   7.551   7.689 -0.1822  0.1881 -0.6062
  312MOL0     C42932   7.022   7.558   7.685 -0.2878  0.3739  0.8092
  312MOL0     C42933   7.078   7.459   7.787 -0.3700  0.1175  0.4635
  312MOL0     C42934   7.230   7.468   7.813  0.1315 -1.0519  0.1898
  312MOL0     N42935   7.265   7.606   7.843  0.0002  0.1819 -0.9640
  312MOL0     C42936   7.321   7.705   7.763  0.1267 -0.3410  0.4798
  312MOL0     C42937   7.331   7.820   7.845  0.5138  0.2570  0.1663
  312MOL0     C42938   7.374   7.962   7.818  1.0244 -1.0251  0.3616
  312MOL0     C42939   7.488   7.983   7.720  0.7666 -0.5833  1.1628
  312MOL0     C42940   7.518   8.125   7.692 -1.0576 -0.0174  1.0164
  312MOL0     C42941   7.669   8.155   7.664  1.4026  0.0810 -0.6383
  312MOL0     O42942   7.736   8.101   7.549 -1.0620 -0.2225  0.4325
  312MOL0     C42943   7.858   8.161   7.515  0.4036  0.5987  0.9470
  312MOL0     C42944   7.936   8.240   7.596  0.7481 -0.5536  0.2044
  312MOL0     C42945   8.062   8.292   7.559  0.0144  0.0492  1.2601
  312MOL0     C42946   8.130   8.375   7.659  0.4042 -1.2486  0.3340
  312MOL0     C42947   8.117   8.266   7.423 -1.0648  0.5810 -0.4046
  312MOL0     C42948   8.246   8.308   7.366 -0.1825 -0.4335 -0.3770
  312MOL0     O42949   8.239   8.391   7.261 -0.2826 -0.4845 -0.1695
  312MOL0     C42950   8.345   8.401   7.180 -1.0670 -0.3920 -0.8939
  312MOL0     C42951   8.347   8.321   7.068  0.0194 -0.3547  0.4523
  312MOL0     C42952   8.459   8.310   6.980 -0.3847 -0.4721  0.0638
  312MOL0     C42953   8.575   8.375   7.015  0.2832 -0.4240 -1.1045
  312MOL0     O42954   8.686   8.377   6.937 -0.3055  0.5449 -0.3340
  312MOL0     C42955   8.735   8.504   6.896 -0.5631 -0.9204  0.7052
  312MOL0     C42956   8.809   8.457   6.768 -0.2646 -0.2067 -0.2695
  312MOL0     C42957   8.714   8.394   6.660  0.7397 -0.4106 -0.4820
  312MOL0     C42958   8.787   8.383   6.523 -0.3585  0.5580  0.4659
  312MOL0     C42959   8.694   8.296   6.435 -0.5457  0.9998  0.7557
  312MOL0     C42960   8.756   8.274   6.300  0.9580  0.0609 -0.4552
  312MOL0     C42961   8.655   8.225   6.193 -0.1103 -0.9897 -0.5412
  312MOL0     C42962   8.721   8.232   6.061  0.3346 -0.5032 -0.1491
  312MOL0    Cl42963   8.850   8.116   6.055 -0.3197 -0.0356 -0.3327
  312MOL0     C42964   8.579   8.456   7.133 -0.3269 -1.0017  0.5111
  312MOL0     C42965   8.462   8.473   7.218  0.0145 -0.2515 -0.4456
  312MOL0     O42966   8.349   8.264   7.426  0.1191  0.5512  0.3871
  312MOL0     C42967   8.031   8.190   7.345 -0.3249  0.8387  0.0892
  312MOL0     C42968   7.905   8.137   7.382  0.2626  0.4415 -0.4180
  312MOL0     N42969   7.287   7.789   7.972  0.1392  0.1758 -0.4525
  312MOL0     N42970   7.246   7.664   7.970  0.5878  0.0072 -0.7112
  312MOL0     C42971   6.525   7.885   7.029  0.5845  0.5499 -0.7661
  312MOL0     C42972   6.386   7.910   7.026 -0.1603  0.4894 -0.7078
  312MOL0     C42973   5.970   7.938   7.206  0.8026  0.0095  0.0681
  312MOL0     C42974   5.904   8.056   7.226  1.6856  0.4631 -0.5416
  312MOL0     C42975   5.767   8.054   7.266 -0.1080  0.5867  0.1876
  312MOL0     C42976   5.705   7.935   7.299  0.3517  0.1246  0.7839
  312MOL0     O42977   5.577   7.922   7.347 -0.8795  0.9699  0.3363
  312MOL0     C42978   5.471   7.976   7.273 -0.7522  0.4076 -0.6916
  312MOL0     C42979   5.356   7.893   7.318 -0.0384  0.2369 -0.3282
  312MOL0     C42980   5.365   7.742   7.294 -0.1224 -0.5707  0.3827
  312MOL0     C42981   5.235   7.668   7.337  0.0107  0.4598  0.6806
  312MOL0     C42982   5.112   7.740   7.304 -0.5132 -0.3387  0.4419
  312MOL0     C42983   5.008   7.791   7.272  0.2236 -0.4298 -0.4679
  312MOL0     C42984   5.775   7.816   7.275 -0.0506 -0.2877 -0.2514
  312MOL0     C42985   5.899   7.817   7.226  0.6490  0.7805 -0.7252
  312MOL0     C42986   5.964   7.676   7.211  0.5748  0.0350 -0.0555
  312MOL0     H42987   6.294   7.633   7.185  1.5841 -0.3806  1.6262
  312MOL0     H42988   6.520   7.613   7.236  2.7607 -0.1817 -2.4905
  312MOL0     H42989   6.885   7.698   7.198  0.2661 -1.1974 -1.2374
  312MOL0     H42990   6.752   7.595   7.201  3.4634 -0.5884 -3.0905
  312MOL0     H42991   6.817   7.835   7.391 -0.3900  0.0837  0.7962
  312MOL0     H42992   6.656   7.762   7.399 -0.4675 -0.8286 -0.0831
  312MOL0     H42993   6.786   7.542   7.427  1.8309  0.0042 -4.5647
  312MOL0     H42994   6.930   7.655   7.440 -1.4783  0.3319 -0.8068
  312MOL0     H42995   6.817   7.765   7.645 -2.8280  1.3429 -1.0142
  312MOL0     H42996   6.695   7.653   7.633  1.0435  3.1120  0.7709
  312MOL0     H42997   6.839   7.454   7.649 -0.6919  1.0188 -2.2822
  312MOL0     H42998   6.837   7.557   7.792 -0.5224 -3.4850 -0.3706
  312MOL0     H42999   7.058   7.516   7.591 -0.4902 -2.4225  1.8801
  312MOL0     H43000   7.062   7.659   7.700  1.9276 -0.0574 -1.4952
  312MOL0     H43001   7.065   7.356   7.751  1.0811  1.0451 -3.1385
  312MOL0     H43002   7.039   7.470   7.889  2.3214  1.3860  1.4624
  312MOL0     H43003   7.257   7.408   7.900 -1.7946  0.4577  1.9251
  312MOL0     H43004   7.289   7.430   7.729 -0.8093 -1.0003 -0.5107
  312MOL0     H43005   7.350   7.700   7.659  0.5642 -0.0970  0.5906
  312MOL0     H43006   7.403   8.016   7.909  1.1393  0.1964 -0.3766
  312MOL0     H43007   7.285   8.020   7.791 -2.1673 -3.6570  3.9949
  312MOL0     H43008   7.580   7.946   7.766  0.5278 -0.3001  1.8838
  312MOL0     H43009   7.472   7.933   7.624  1.3646  1.5210 -0.1109
  312MOL0     H43010   7.466   8.155   7.600  0.8492 -0.3964 -0.2341
  312MOL0     H43011   7.473   8.184   7.773 -1.9531  2.1471 -0.9329
  312MOL0     H43012   7.677   8.264   7.664  4.8583  0.0220  1.6567
  312MOL0     H43013   7.720   8.124   7.756  0.0116  0.1203  0.1620
  312MOL0     H43014   7.911   8.260   7.699 -1.1222  0.8397 -0.4727
  312MOL0     H43015   8.233   8.388   7.627  0.0206  0.8540 -0.1614
  312MOL0     H43016   8.134   8.333   7.761  2.1909  0.3471  0.9839
  312MOL0     H43017   8.101   8.480   7.664 -0.0024 -1.3581  0.3096
  312MOL0     H43018   8.259   8.263   7.043  2.0134 -2.8158 -1.5398
  312MOL0     H43019   8.462   8.264   6.882 -1.5076  1.6712 -1.0514
  312MOL0     H43020   8.657   8.576   6.868  0.4340 -0.3495 -0.7844
  312MOL0     H43021   8.803   8.560   6.961 -0.7131  2.0870 -1.4895
  312MOL0     H43022   8.845   8.552   6.727 -2.4249  1.1995  0.9059
  312MOL0     H43023   8.903   8.406   6.790 -0.0314 -0.4168 -1.6263
  312MOL0     H43024   8.621   8.450   6.649  0.2056 -1.0289  0.6908
  312MOL0     H43025   8.683   8.293   6.688 -1.4683  0.1137 -0.8660
  312MOL0     H43026   8.887   8.340   6.534 -0.3057  0.4054 -0.5552
  312MOL0     H43027   8.799   8.484   6.482  2.0159  0.2100  0.1402
  312MOL0     H43028   8.662   8.205   6.487 -1.4556  0.1218 -1.2494
  312MOL0     H43029   8.602   8.353   6.425 -2.1236 -1.4232  0.7184
  312MOL0     H43030   8.836   8.201   6.314 -0.8327 -2.2777 -1.6855
  312MOL0     H43031   8.793   8.372   6.268  0.4804  0.2495 -0.4396
  312MOL0     H43032   8.566   8.289   6.200  1.1658  0.6923  0.9817
  312MOL0     H43033   8.629   8.120   6.211 -2.1422 -0.7663 -1.8167
  312MOL0     H43034   8.771   8.329   6.056 -0.8818  0.2596  1.4450
  312MOL0     H43035   8.652   8.223   5.977 -1.2276 -3.7999  1.3045
  312MOL0     H43036   8.665   8.521   7.148 -0.8454 -0.0917 -0.3892
  312MOL0     H43037   8.469   8.532   7.309 -1.2854 -0.5784 -0.1189
  312MOL0     H43038   8.068   8.184   7.243  2.2285  1.6208  0.8960
  312MOL0     H43039   7.853   8.075   7.310  1.0812 -0.3305 -0.3610
  312MOL0     H43040   6.600   7.947   6.980  0.3021 -0.9860 -3.3239
  312MOL0     H43041   6.338   7.985   6.963 -2.2559  2.2414  2.6532
  312MOL0     H43042   5.959   8.147   7.202  2.9836 -0.8766 -3.0597
  312MOL0     H43043   5.715   8.147   7.286 -1.1831  0.4148 -1.5974
  312MOL0     H43044   5.470   8.079   7.308 -0.0723  0.0123  0.5285
  312MOL0     H43045   5.484   7.952   7.167 -0.1909 -0.9911 -0.3338
  312MOL0     H43046   5.279   7.929   7.249 -0.1908  0.0305 -0.2654
  312MOL0     H43047   5.328   7.919   7.421  0.0677 -0.0973 -0.2152
  312MOL0     H43048   5.381   7.729   7.187  0.8207  2.8067  0.0079
  312MOL0     H43049   5.446   7.691   7.347 -1.5300 -1.9387  1.3021
  312MOL0     H43050   5.235   7.666   7.446  1.3399 -0.3258  0.6884
  312MOL0     H43051   5.241   7.566   7.298 -0.2475  1.1989 -1.4412
  312MOL0     H43052   4.911   7.824   7.240  0.9229  0.8213 -1.3669
  312MOL0     H43053   5.715   7.728   7.295 -2.5750  1.7099  1.6849
  312MOL0     H43054   5.896   7.594   7.238 -1.1152  0.8500 -1.5913
  312MOL0     H43055   5.992   7.650   7.109  2.0187  0.1819  0.2849
  312MOL0     H43056   6.055   7.679   7.271  0.1629  2.4549  0.5687
  313MOL0     O43057   1.672   2.877   5.651  0.3678  0.8280 -0.1814
  313MOL0     C43058   1.677   2.982   5.595  0.4543 -0.4652  0.8378
  313MOL0     O43059   1.762   3.088   5.626  0.0496  0.8413 -0.3600
  313MOL0     C43060   1.844   3.075   5.728  0.2113  0.3864  0.9286
  313MOL0     C43061   1.987   3.074   5.706 -0.7881  0.4375  0.0159
  313MOL0     C43062   2.077   3.066   5.812 -0.1971 -0.3301 -0.5336
  313MOL0     C43063   2.022   3.041   5.942 -1.5515  0.4126  0.4105
  313MOL0     O43064   2.120   3.017   6.036  0.6380  0.5372 -0.2542
  313MOL0     C43065   2.081   3.011   6.175  0.2773 -0.2831  0.0831
  313MOL0     C43066   2.045   2.867   6.219 -0.0726 -0.5246  0.6080
  313MOL0     C43067   2.049   2.847   6.366 -0.9761  0.3302  0.2461
  313MOL0     C43068   1.942   2.911   6.450  0.8534  0.5317  0.6438
  313MOL0     C43069   1.915   2.829   6.581 -0.9524 -0.4452  0.2706
  313MOL0     C43070   2.046   2.817   6.667 -0.7754 -0.5051 -1.1620
  313MOL0     C43071   2.012   2.755   6.797  0.0302 -0.1212 -0.6058
  313MOL0     C43072   2.090   2.822   6.916 -0.0475  0.0094  0.4159
  313MOL0     N43073   2.027   2.791   7.045  0.0551 -1.0620  0.3803
  313MOL0     C43074   2.065   2.687   7.128 -0.3494 -0.0543 -0.9818
  313MOL0     C43075   1.967   2.677   7.221  0.1972 -0.7689 -0.0514
  313MOL0     C43076   1.975   2.596   7.351  0.3973 -0.4368  0.1129
  313MOL0     C43077   2.061   2.465   7.358  0.3316  0.2692  0.4285
  313MOL0     C43078   2.215   2.466   7.367  0.2574  0.4871  0.8086
  313MOL0     C43079   2.272   2.562   7.468  0.0503 -0.5899 -0.0201
  313MOL0     O43080   2.413   2.587   7.451  0.8757  0.5141 -0.3064
  313MOL0     C43081   2.464   2.684   7.370 -1.2337 -0.6674 -0.5918
  313MOL0     C43082   2.398   2.755   7.270  0.3099  0.0029 -0.2369
  313MOL0     C43083   2.468   2.846   7.183  0.3595 -1.2361  0.3380
  313MOL0     C43084   2.383   2.906   7.077  0.0088  0.2811 -0.9616
  313MOL0     C43085   2.613   2.874   7.205  0.2157  0.0973 -0.0955
  313MOL0     C43086   2.685   2.976   7.129 -0.2261  0.8408  0.1732
  313MOL0     O43087   2.615   3.045   7.039 -0.5844 -0.3938 -0.0126
  313MOL0     C43088   2.681   3.120   6.948  0.3129  0.2373 -0.0473
  313MOL0     C43089   2.793   3.090   6.869 -0.9169 -0.1631 -1.4161
  313MOL0     C43090   2.840   3.170   6.771  0.2981  0.4485  0.1687
  313MOL0     C43091   2.785   3.291   6.749 -0.1029  1.4773  0.5556
  313MOL0     O43092   2.842   3.369   6.653  0.4287  0.2129  0.7580
  313MOL0     C43093   2.757   3.458   6.579 -0.7773 -0.2451  0.9603
  313MOL0     C43094   2.857   3.547   6.506  0.5104  0.0818  0.3775
  313MOL0     C43095   2.930   3.649   6.598 -0.4762  0.1026  0.1308
  313MOL0     C43096   3.050   3.720   6.535 -0.2573 -0.3520  0.2233
  313MOL0     C43097   2.999   3.826   6.438 -0.3327 -0.2512 -0.4155
  313MOL0     C43098   3.118   3.904   6.381 -0.0948  0.7617  0.0550
  313MOL0     C43099   3.074   4.029   6.313  0.0969  0.1614  0.5815
  313MOL0     C43100   3.201   4.093   6.239  0.2634 -0.1478 -0.2567
  313MOL0    Cl43101   3.137   4.235   6.138  0.6319  0.2662 -0.1818
  313MOL0     C43102   2.665   3.323   6.817  0.4863  0.1799  0.6088
  313MOL0     C43103   2.607   3.226   6.902 -0.4436  1.1056  0.2123
  313MOL0     O43104   2.806   2.984   7.146 -0.3448  0.0253  0.3170
  313MOL0     C43105   2.662   2.803   7.322 -0.3438 -0.7092 -0.8922
  313MOL0     C43106   2.600   2.709   7.391 -0.4454 -1.1950 -0.2933
  313MOL0     N43107   1.871   2.774   7.192  0.5835  0.0249  1.2948
  313MOL0     N43108   1.908   2.850   7.099 -1.0399 -0.2096 -0.5614
  313MOL0     C43109   1.887   3.046   5.960  0.2657 -1.0715 -0.1254
  313MOL0     C43110   1.796   3.070   5.857 -0.3008  0.0614 -0.3915
  313MOL0     C43111   1.603   3.012   5.469  0.7502 -0.2360  0.4883
  313MOL0     C43112   1.615   3.127   5.391 -0.6558  0.4689 -0.6073
  313MOL0     C43113   1.551   3.149   5.269  0.1051  1.0334 -0.2034
  313MOL0     C43114   1.473   3.046   5.220 -0.4639 -0.6474  1.0640
  313MOL0     O43115   1.407   3.065   5.098 -0.8041 -0.3472 -0.1117
  313MOL0     C43116   1.479   3.127   4.987 -0.9823  0.4989 -1.5424
  313MOL0     C43117   1.500   3.032   4.872 -0.6418 -0.7744 -0.1863
  313MOL0     C43118   1.602   3.099   4.779  0.2981 -0.0322  0.9268
  313MOL0     C43119   1.603   3.000   4.664 -0.2567 -0.7064  0.1341
  313MOL0     C43120   1.717   3.050   4.596  0.2893 -0.0396  0.7172
  313MOL0     C43121   1.816   3.094   4.545  0.1193  0.1906 -0.2116
  313MOL0     C43122   1.449   2.931   5.297 -1.1806 -0.7938  0.1013
  313MOL0     C43123   1.503   2.921   5.424  0.3957  0.2019 -0.0939
  313MOL0     C43124   1.441   2.824   5.515  0.1056  0.4007  0.4533
  313MOL0     H43125   2.046   3.068   5.615  2.0086  0.9495  1.6982
  313MOL0     H43126   2.184   3.075   5.801  0.6464 -2.4138  3.8891
  313MOL0     H43127   1.998   3.079   6.194  1.0734  0.8839 -0.5421
  313MOL0     H43128   2.165   3.047   6.236  1.6798 -2.3776 -0.4831
  313MOL0     H43129   1.949   2.846   6.170  0.3893  2.4767 -1.9212
  313MOL0     H43130   2.112   2.790   6.179 -0.1155 -0.2674  0.0248
  313MOL0     H43131   2.040   2.738   6.370 -3.4045  0.5132  1.4624
  313MOL0     H43132   2.150   2.877   6.397 -0.2609  1.0728 -2.5131
  313MOL0     H43133   1.970   3.017   6.459  2.5632  0.3846 -1.8987
  313MOL0     H43134   1.851   2.908   6.389  0.8992  4.2393  0.1578
  313MOL0     H43135   1.892   2.725   6.554 -4.0394  0.3971 -0.7747
  313MOL0     H43136   1.834   2.884   6.630  0.5842  2.4318 -0.2057
  313MOL0     H43137   2.123   2.756   6.618  0.3982 -1.4008  1.6170
  313MOL0     H43138   2.098   2.909   6.693  0.0768 -0.9787 -1.1589
  313MOL0     H43139   2.048   2.651   6.801  1.0886  0.2443  3.1742
  313MOL0     H43140   1.907   2.742   6.824  0.2441 -1.9543 -0.5147
  313MOL0     H43141   2.190   2.778   6.918 -0.5332 -1.2320 -0.8638
  313MOL0     H43142   2.099   2.931   6.909 -0.5102  0.4656  4.6529
  313MOL0     H43143   2.149   2.619   7.122  0.7805  1.3272 -1.4779
  313MOL0     H43144   1.870   2.579   7.375 -0.0342  0.8313 -0.7183
  313MOL0     H43145   2.015   2.671   7.420  1.0288  1.6192 -2.3181
  313MOL0     H43146   2.032   2.403   7.443  3.3853 -0.2443  1.2058
  313MOL0     H43147   2.043   2.408   7.267  2.7736  0.7435 -0.4159
  313MOL0     H43148   2.241   2.360   7.379 -0.8312 -0.4093 -3.1602
  313MOL0     H43149   2.260   2.493   7.271  1.5251  2.2819  1.8528
  313MOL0     H43150   2.215   2.655   7.459  0.9954  0.0038 -0.0233
  313MOL0     H43151   2.255   2.521   7.568  0.3957  0.0755  0.3141
  313MOL0     H43152   2.295   2.726   7.256 -0.4148  0.8615  2.8110
  313MOL0     H43153   2.377   3.014   7.095 -1.4371  0.0407  0.2402
  313MOL0     H43154   2.282   2.865   7.089 -1.0119  3.0103  1.0900
  313MOL0     H43155   2.424   2.875   6.981  0.4346  1.2186 -1.0975
  313MOL0     H43156   2.839   2.991   6.872 -1.3476 -0.3716 -1.6198
  313MOL0     H43157   2.922   3.130   6.712  1.9463  0.7668  2.1150
  313MOL0     H43158   2.684   3.409   6.515 -1.4497  0.9342  0.7912
  313MOL0     H43159   2.703   3.530   6.641  0.6447  0.7263  1.1486
  313MOL0     H43160   2.921   3.481   6.447  0.3900 -0.1264  0.4787
  313MOL0     H43161   2.804   3.603   6.429 -0.9351 -0.2825  1.0648
  313MOL0     H43162   2.971   3.593   6.682 -0.3452  0.3927  0.2648
  313MOL0     H43163   2.864   3.721   6.648  0.0679 -0.9404  2.4947
  313MOL0     H43164   3.107   3.648   6.476 -0.6490  0.3129 -0.9900
  313MOL0     H43165   3.115   3.766   6.610 -0.2519 -2.5076  1.6204
  313MOL0     H43166   2.930   3.788   6.361  0.1799  0.0429 -1.0304
  313MOL0     H43167   2.955   3.902   6.504  0.4380 -1.6159  1.7686
  313MOL0     H43168   3.157   3.840   6.301 -3.8368  1.8068 -2.8836
  313MOL0     H43169   3.186   3.921   6.465 -0.7446  1.8155  0.3801
  313MOL0     H43170   3.061   4.106   6.389  2.4569 -0.1977  1.4343
  313MOL0     H43171   2.994   4.011   6.241  2.3858 -0.9102 -1.8755
  313MOL0     H43172   3.245   4.024   6.167 -0.1518  1.9178 -2.6423
  313MOL0     H43173   3.281   4.139   6.298 -0.2844  1.6087 -0.7997
  313MOL0     H43174   2.618   3.415   6.787 -0.2152  0.1127  1.4658
  313MOL0     H43175   2.513   3.242   6.953 -1.9564 -1.2207 -1.6613
  313MOL0     H43176   2.766   2.829   7.337 -0.6720 -0.8711  2.2906
  313MOL0     H43177   2.658   2.650   7.460  2.4101  3.2835  1.5825
  313MOL0     H43178   1.847   3.023   6.058  1.7694 -1.7167  0.3630
  313MOL0     H43179   1.688   3.068   5.865 -0.5007  2.0185 -1.7591
  313MOL0     H43180   1.696   3.197   5.409  0.6266 -1.6300  2.8032
  313MOL0     H43181   1.588   3.236   5.215  3.5597  0.9161  1.6912
  313MOL0     H43182   1.422   3.214   4.951 -2.8574 -0.9364 -2.2017
  313MOL0     H43183   1.581   3.159   5.009 -0.4178 -1.5092 -1.0769
  313MOL0     H43184   1.407   3.017   4.815 -0.1657  0.0872 -1.2459
  313MOL0     H43185   1.537   2.932   4.893 -0.7893 -0.4888  1.5305
  313MOL0     H43186   1.553   3.194   4.754  0.3775 -0.0327  0.7674
  313MOL0     H43187   1.701   3.099   4.825  0.2116 -3.7595  1.3924
  313MOL0     H43188   1.509   3.007   4.608 -0.5621  1.5892  0.8100
  313MOL0     H43189   1.631   2.896   4.685  1.0985 -0.0381  1.9137
  313MOL0     H43190   1.900   3.142   4.498 -2.1007  1.4844 -3.1574
  313MOL0     H43191   1.377   2.863   5.252 -1.1220 -2.1739  1.9722
  313MOL0     H43192   1.505   2.736   5.506 -0.7240 -0.1344 -0.3714
  313MOL0     H43193   1.437   2.858   5.619 -0.2687 -1.3122  1.0215
  313MOL0     H43194   1.343   2.788   5.484  0.2544  1.7962 -1.8711
  314MOL0     O43195   8.091   0.428   6.462  0.4973 -0.6073  0.6273
  314MOL0     C43196   8.101   0.466   6.573  0.5131 -0.2118 -0.3827
  314MOL0     O43197   8.017   0.437   6.676  0.2627 -0.6591  0.2132
  314MOL0     C43198   7.900   0.367   6.662 -0.2889  0.6704  0.1290
  314MOL0     C43199   7.820   0.333   6.554 -0.0923 -0.0863  0.1298
  314MOL0     C43200   7.702   0.255   6.573 -0.2109 -0.4049  0.2712
  314MOL0     C43201   7.652   0.218   6.704 -0.0022  0.0087  0.5071
  314MOL0     O43202   7.539   0.146   6.728 -0.2351 -0.6079  0.3568
  314MOL0     C43203   7.451   0.123   6.613  0.9903 -0.4187  0.1394
  314MOL0     C43204   7.346   0.035   6.667  0.3167  0.4225  0.0821
  314MOL0     C43205   7.411  -0.106   6.704  0.1372 -0.0457 -0.5390
  314MOL0     C43206   7.452  -0.197   6.592 -0.2125  1.2250  0.2033
  314MOL0     C43207   7.434  -0.345   6.644  0.4378 -0.3338 -0.7975
  314MOL0     C43208   7.463  -0.443   6.534 -0.1502  0.7581 -0.8477
  314MOL0     C43209   7.415  -0.576   6.567  0.2475 -0.1813 -0.0179
  314MOL0     C43210   7.471  -0.643   6.694 -0.4179 -0.3078  0.2837
  314MOL0     N43211   7.432  -0.589   6.827 -0.1097 -0.3148  0.0613
  314MOL0     C43212   7.505  -0.536   6.923 -0.9269 -0.8343 -0.0161
  314MOL0     C43213   7.417  -0.491   7.005 -0.7664 -1.0072 -1.0456
  314MOL0     C43214   7.425  -0.390   7.126 -0.6827 -1.0609 -0.2472
  314MOL0     C43215   7.457  -0.247   7.066  0.8185  0.5666  1.0088
  314MOL0     C43216   7.452  -0.147   7.182 -0.6196 -0.0958  0.4823
  314MOL0     C43217   7.511  -0.021   7.128  0.0929 -0.3990  0.2848
  314MOL0     O43218   7.540   0.081   7.228  0.1513  0.1136  0.0603
  314MOL0     C43219   7.527   0.212   7.205 -0.8863 -0.4618  0.6385
  314MOL0     C43220   7.482   0.269   7.081 -0.8347 -0.5682 -0.5775
  314MOL0     C43221   7.458   0.403   7.077 -0.3149 -0.3084 -0.1185
  314MOL0     C43222   7.383   0.438   6.947 -0.3564 -1.0499  0.0541
  314MOL0     C43223   7.453   0.490   7.195 -0.6135 -0.7329  0.2699
  314MOL0     C43224   7.416   0.636   7.202 -0.2423  0.3139  0.8716
  314MOL0     O43225   7.389   0.705   7.084 -0.1574  0.1590 -0.7100
  314MOL0     C43226   7.364   0.836   7.083  0.7361 -1.0364  0.6487
  314MOL0     C43227   7.466   0.931   7.104 -0.8052  0.0893  0.6939
  314MOL0     C43228   7.436   1.068   7.097 -0.8082  0.3330 -0.2166
  314MOL0     C43229   7.303   1.117   7.085 -0.2318  0.2401 -0.5897
  314MOL0     O43230   7.276   1.248   7.068 -0.0269  0.5377 -0.1215
  314MOL0     C43231   7.155   1.302   7.113 -0.5271  0.2143 -0.3808
  314MOL0     C43232   7.154   1.448   7.124  0.0880 -0.2582 -0.4166
  314MOL0     C43233   7.183   1.529   7.005  0.6643  0.7973  0.2031
  314MOL0     C43234   7.202   1.677   7.021  0.5244 -0.6285 -0.0132
  314MOL0     C43235   7.251   1.742   6.896  0.2930  0.0408 -0.2072
  314MOL0     C43236   7.274   1.902   6.916  0.4367  0.3629  0.3567
  314MOL0     C43237   7.322   1.965   6.779  0.1002  0.3597 -1.4180
  314MOL0     C43238   7.284   2.111   6.772  0.1999  1.0567 -0.5570
  314MOL0    Cl43239   7.118   2.122   6.780 -0.7923 -0.2922 -0.0112
  314MOL0     C43240   7.200   1.019   7.083 -0.0972 -0.2012 -0.2142
  314MOL0     C43241   7.231   0.886   7.078 -0.3677 -0.1980 -1.0628
  314MOL0     O43242   7.402   0.681   7.321 -0.3982 -0.2458  1.2183
  314MOL0     C43243   7.510   0.428   7.315 -0.2820 -1.1841  0.4019
  314MOL0     C43244   7.542   0.296   7.313  0.4554  1.2228  0.3876
  314MOL0     N43245   7.289  -0.517   6.954 -1.0093 -0.2786  0.4669
  314MOL0     N43246   7.298  -0.577   6.847  0.1164  0.1245 -0.2902
  314MOL0     C43247   7.731   0.264   6.810 -0.0717 -0.0973 -0.0988
  314MOL0     C43248   7.856   0.324   6.784  0.5846 -0.4261 -0.9581
  314MOL0     C43249   8.213   0.540   6.624 -0.1061  0.2437 -0.2245
  314MOL0     C43250   8.234   0.550   6.771 -0.3438  0.0664  0.6268
  314MOL0     C43251   8.333   0.635   6.819 -0.1299  0.1040  0.0214
  314MOL0     C43252   8.430   0.699   6.741  0.5464 -0.1005 -0.8240
  314MOL0     O43253   8.539   0.752   6.809  0.2157  0.0946 -0.0314
  314MOL0     C43254   8.659   0.773   6.737  0.4233  0.4208  0.0564
  314MOL0     C43255   8.748   0.840   6.844 -0.0495 -0.7624  0.0068
  314MOL0     C43256   8.896   0.857   6.789  0.6086  0.1638 -0.1262
  314MOL0     C43257   9.008   0.866   6.899  0.1784 -0.0795  1.0881
  314MOL0     C43258   8.960   0.968   6.994  0.3683 -0.0787 -0.0251
  314MOL0     C43259   8.921   1.053   7.067 -0.9859 -1.1695  0.4528
  314MOL0     C43260   8.415   0.693   6.605  0.5970 -0.0946  0.0288
  314MOL0     C43261   8.312   0.612   6.546 -0.0153  0.1823 -0.0132
  314MOL0     C43262   8.301   0.633   6.398  0.8333  0.1432 -0.3733
  314MOL0     H43263   7.856   0.369   6.458  0.4477 -0.9254 -0.0014
  314MOL0     H43264   7.649   0.230   6.482  1.3322  3.4828 -1.9765
  314MOL0     H43265   7.505   0.088   6.525  2.7146 -0.4624  1.1666
  314MOL0     H43266   7.402   0.215   6.581  1.3964 -0.9737 -2.2275
  314MOL0     H43267   7.310   0.081   6.759  1.8231 -0.0399  0.9479
  314MOL0     H43268   7.262   0.020   6.598  0.9877 -0.8084 -0.5116
  314MOL0     H43269   7.491  -0.087   6.777 -1.3167 -2.5113  1.9041
  314MOL0     H43270   7.338  -0.167   6.758  1.6157 -2.0504 -0.7051
  314MOL0     H43271   7.382  -0.193   6.507 -1.7559  0.5847  1.3924
  314MOL0     H43272   7.559  -0.190   6.571  0.5340 -1.4235  2.4863
  314MOL0     H43273   7.335  -0.356   6.687  0.9245 -1.4659  0.0723
  314MOL0     H43274   7.512  -0.349   6.720  3.1350  0.9226 -3.2855
  314MOL0     H43275   7.408  -0.417   6.443 -1.1109 -2.3534 -1.2762
  314MOL0     H43276   7.570  -0.449   6.512 -0.3015  1.2920 -1.8155
  314MOL0     H43277   7.435  -0.637   6.478  0.5170  0.3490 -0.3252
  314MOL0     H43278   7.308  -0.578   6.586  0.3240  1.0899  0.6584
  314MOL0     H43279   7.452  -0.751   6.699  2.7279 -1.0146 -0.9125
  314MOL0     H43280   7.580  -0.642   6.686 -0.3854  0.3188  0.7572
  314MOL0     H43281   7.613  -0.523   6.926 -1.0578  0.1977  1.8081
  314MOL0     H43282   7.491  -0.413   7.210  0.7382 -2.7399 -1.7344
  314MOL0     H43283   7.323  -0.383   7.163  0.0765 -0.3314  1.8710
  314MOL0     H43284   7.548  -0.242   7.005  2.7099  3.1000  3.8250
  314MOL0     H43285   7.373  -0.224   7.000 -0.2509  2.4066  2.9221
  314MOL0     H43286   7.358  -0.105   7.218  1.3228  1.6460  4.0972
  314MOL0     H43287   7.511  -0.190   7.264 -0.7871 -0.9415  0.1691
  314MOL0     H43288   7.595  -0.037   7.060  1.4771  1.3330  1.4786
  314MOL0     H43289   7.439   0.013   7.053  0.5022  0.2105  0.1572
  314MOL0     H43290   7.477   0.212   6.989 -0.9732 -0.0044 -0.9228
  314MOL0     H43291   7.458   0.481   6.880 -0.9176 -0.7535 -0.3989
  314MOL0     H43292   7.297   0.503   6.967 -2.0901 -3.0723 -0.3848
  314MOL0     H43293   7.348   0.345   6.901  0.2866 -0.7864 -0.9898
  314MOL0     H43294   7.567   0.900   7.130 -0.7770  1.5941  2.5458
  314MOL0     H43295   7.526   1.128   7.106  0.3582 -1.5108  1.2775
  314MOL0     H43296   7.085   1.270   7.035  1.0076 -0.9083 -1.3422
  314MOL0     H43297   7.123   1.258   7.208 -1.9261  3.1216  0.6155
  314MOL0     H43298   7.053   1.470   7.158  1.0418  2.2389  1.0968
  314MOL0     H43299   7.216   1.474   7.211 -3.3438  0.5460  2.0030
  314MOL0     H43300   7.106   1.511   6.929  1.9633 -0.4591 -0.8542
  314MOL0     H43301   7.270   1.488   6.953 -0.8619 -0.9499 -1.1101
  314MOL0     H43302   7.283   1.687   7.094  1.2208 -0.0803 -0.8448
  314MOL0     H43303   7.103   1.717   7.046  1.0352  2.4916 -2.3832
  314MOL0     H43304   7.344   1.698   6.860  0.1044  0.7526 -1.6033
  314MOL0     H43305   7.174   1.738   6.819 -0.4315  0.6786  0.4598
  314MOL0     H43306   7.355   1.926   6.986  0.8215  0.1378 -0.0088
  314MOL0     H43307   7.174   1.940   6.941  0.7176  2.0164 -0.9054
  314MOL0     H43308   7.290   1.908   6.691 -1.4011 -0.3914 -0.4377
  314MOL0     H43309   7.430   1.954   6.790 -0.1967 -2.5648 -0.4193
  314MOL0     H43310   7.315   2.146   6.673 -2.6237 -0.7762 -2.2079
  314MOL0     H43311   7.339   2.163   6.851  4.8133 -4.8096  0.7196
  314MOL0     H43312   7.099   1.052   7.061 -0.4204 -2.3527 -2.2937
  314MOL0     H43313   7.148   0.818   7.063 -0.2385 -0.5072 -0.4366
  314MOL0     H43314   7.531   0.478   7.409 -0.6024 -0.4479  0.0888
  314MOL0     H43315   7.582   0.243   7.399 -1.0551 -0.3203  0.1979
  314MOL0     H43316   7.698   0.236   6.910 -2.8611  0.1434 -0.8621
  314MOL0     H43317   7.923   0.334   6.869  0.7904  2.5196 -1.3785
  314MOL0     H43318   8.174   0.484   6.833 -0.6272 -0.6654 -0.4061
  314MOL0     H43319   8.358   0.638   6.924 -1.9089  1.1887  0.4469
  314MOL0     H43320   8.685   0.669   6.716 -2.1879 -0.2152 -0.3080
  314MOL0     H43321   8.651   0.839   6.650  0.7448 -0.3768 -0.5957
  314MOL0     H43322   8.747   0.769   6.928  2.0621  2.0212  2.6267
  314MOL0     H43323   8.714   0.939   6.876  3.4723  0.3741  0.6767
  314MOL0     H43324   8.918   0.774   6.722  2.5834  0.1226  0.5322
  314MOL0     H43325   8.899   0.948   6.728 -0.5515  0.7077  0.5831
  314MOL0     H43326   9.103   0.896   6.852 -2.1666  1.4598 -3.2122
  314MOL0     H43327   9.034   0.773   6.951  1.1019  0.8435  2.3449
  314MOL0     H43328   8.883   1.124   7.137 -1.2250 -0.0552 -0.7766
  314MOL0     H43329   8.485   0.742   6.538 -2.8831  4.7676 -0.5949
  314MOL0     H43330   8.226   0.711   6.381  0.7344  1.2309  3.8823
  314MOL0     H43331   8.397   0.657   6.351  0.8902  2.6671  0.8569
  314MOL0     H43332   8.274   0.540   6.346  3.1837  1.3303 -4.1199
  315MOL0     O43333   0.845   3.085   6.070  0.2765  0.2042 -0.1415
  315MOL0     C43334   0.777   3.099   5.968 -0.9283  1.2307  0.2374
  315MOL0     O43335   0.749   3.219   5.911  0.4988 -0.1550 -0.0656
  315MOL0     C43336   0.737   3.323   5.993 -0.4240  0.5824  0.0497
  315MOL0     C43337   0.605   3.362   6.029  0.4630  0.5937  0.4660
  315MOL0     C43338   0.584   3.456   6.120  0.0835 -0.4047  0.2343
  315MOL0     C43339   0.685   3.524   6.176  0.1629 -0.4588  0.5039
  315MOL0     O43340   0.648   3.625   6.262  0.3292  0.2323  0.8523
  315MOL0     C43341   0.749   3.711   6.317 -0.4367 -0.1144 -0.2517
  315MOL0     C43342   0.697   3.779   6.441 -1.3550 -0.6182 -0.2390
  315MOL0     C43343   0.553   3.833   6.430  0.1106 -0.2642  0.1253
  315MOL0     C43344   0.524   3.930   6.544 -0.3845  0.0314 -0.6088
  315MOL0     C43345   0.388   3.998   6.522  0.9214 -0.2346  0.2199
  315MOL0     C43346   0.336   4.065   6.647 -0.0100 -0.5233 -1.0600
  315MOL0     C43347   0.429   4.185   6.661 -0.1122 -0.0625  0.8682
  315MOL0     C43348   0.372   4.281   6.756 -0.1304  1.1069 -0.2644
  315MOL0     N43349   0.342   4.230   6.890 -1.0475  0.2229 -0.4007
  315MOL0     C43350   0.426   4.147   6.966 -0.3781  0.3793  0.0614
  315MOL0     C43351   0.350   4.109   7.073  1.0179  0.4256 -0.0200
  315MOL0     C43352   0.398   4.015   7.175  1.3159  0.8959 -1.0742
  315MOL0     C43353   0.286   3.926   7.231  0.3657 -0.0411 -0.6374
  315MOL0     C43354   0.198   4.002   7.336 -0.3394 -0.3215  0.6571
  315MOL0     C43355   0.079   3.908   7.368 -0.1055  0.1098 -0.0549
  315MOL0     O43356   0.139   3.780   7.404  0.1467 -0.8977  0.4520
  315MOL0     C43357   0.120   3.748   7.531 -0.4880 -0.3143  0.4735
  315MOL0     C43358   0.195   3.792   7.637 -0.1289 -0.6474  1.0972
  315MOL0     C43359   0.180   3.746   7.765  0.0446  0.2564 -0.4042
  315MOL0     C43360   0.285   3.784   7.859  0.3430  0.0201 -0.3736
  315MOL0     C43361   0.082   3.647   7.802  0.1273 -0.2413  0.5601
  315MOL0     C43362   0.057   3.586   7.935  0.0654 -0.5751 -0.2093
  315MOL0     O43363  -0.011   3.471   7.942  0.0257  0.2914  0.2917
  315MOL0     C43364  -0.076   3.429   8.053  0.6128  0.0552  0.4274
  315MOL0     C43365  -0.136   3.520   8.144 -0.2454 -0.0849  0.0349
  315MOL0     C43366  -0.206   3.480   8.252 -0.1526  0.4300 -0.3681
  315MOL0     C43367  -0.228   3.341   8.276 -0.9416 -0.1491  0.4867
  315MOL0     O43368  -0.315   3.295   8.371 -0.5929  0.6549 -0.2884
  315MOL0     C43369  -0.347   3.365   8.493 -0.4742 -0.1881 -0.0021
  315MOL0     C43370  -0.261   3.299   8.600  0.2409 -1.0516 -0.0694
  315MOL0     C43371  -0.323   3.174   8.664  0.7389 -0.5588  0.4116
  315MOL0     C43372  -0.417   3.184   8.784 -0.2290 -0.1358 -0.8189
  315MOL0     C43373  -0.503   3.053   8.800  0.3856  0.2416  0.0531
  315MOL0     C43374  -0.424   2.925   8.808 -0.0355  0.6170  0.3723
  315MOL0     C43375  -0.533   2.816   8.766  0.8584 -0.2456 -0.0715
  315MOL0     C43376  -0.491   2.674   8.800 -0.0781 -0.2091 -0.1871
  315MOL0    Cl43377  -0.593   2.544   8.730  0.1527  0.2562 -0.1438
  315MOL0     C43378  -0.173   3.251   8.184  0.3640 -0.0761 -0.1221
  315MOL0     C43379  -0.093   3.292   8.077 -0.6028  0.7464  0.0719
  315MOL0     O43380   0.103   3.645   8.029 -0.8559  0.6882 -0.2147
  315MOL0     C43381   0.007   3.598   7.689 -0.0218  1.1444 -0.4140
  315MOL0     C43382   0.028   3.647   7.560  0.4448 -1.2003 -0.5261
  315MOL0     N43383   0.223   4.173   7.062 -1.3169  0.2032  0.3204
  315MOL0     N43384   0.220   4.234   6.950 -0.4965  0.0079 -0.0947
  315MOL0     C43385   0.820   3.484   6.153 -0.5693  0.2464  0.0445
  315MOL0     C43386   0.848   3.391   6.056  0.1771  0.2477 -0.1693
  315MOL0     C43387   0.751   2.976   5.901 -0.4234  0.3558  0.3321
  315MOL0     C43388   0.742   2.983   5.759 -0.5253 -0.4688  0.3334
  315MOL0     C43389   0.710   2.867   5.684 -0.2064 -0.0678  0.4268
  315MOL0     C43390   0.675   2.747   5.740  0.0547 -0.7390 -1.1116
  315MOL0     O43391   0.614   2.645   5.669  0.4850 -0.1291 -0.0290
  315MOL0     C43392   0.491   2.582   5.718  0.6326 -0.2698  0.5662
  315MOL0     C43393   0.362   2.645   5.675  0.3243 -0.2678 -0.3908
  315MOL0     C43394   0.340   2.692   5.535  0.1234 -1.1416  0.6376
  315MOL0     C43395   0.328   2.568   5.434  0.7718 -0.3142 -0.5293
  315MOL0     C43396   0.202   2.492   5.445  0.7229 -1.1527 -0.6629
  315MOL0     C43397   0.088   2.447   5.457  0.0207  0.6058  1.2504
  315MOL0     C43398   0.686   2.741   5.884  1.4340 -0.8793  0.4017
  315MOL0     C43399   0.736   2.845   5.962 -0.2852 -0.1007 -0.1124
  315MOL0     C43400   0.781   2.810   6.100 -0.6180 -0.2341  0.3690
  315MOL0     H43401   0.523   3.293   6.007 -0.4906  1.7675  0.2122
  315MOL0     H43402   0.487   3.497   6.148  1.2295  1.7874  1.3130
  315MOL0     H43403   0.789   3.782   6.245 -0.3671 -0.5655 -0.6583
  315MOL0     H43404   0.827   3.646   6.358  0.3758  0.6884 -0.4961
  315MOL0     H43405   0.709   3.701   6.516 -0.6945 -0.5447 -0.2637
  315MOL0     H43406   0.762   3.862   6.472 -1.7060  0.1018 -1.3781
  315MOL0     H43407   0.542   3.890   6.338 -0.1880  1.2463  1.0563
  315MOL0     H43408   0.475   3.757   6.421 -0.7296  0.7902 -1.9684
  315MOL0     H43409   0.512   3.877   6.639 -0.3561  2.3334  0.7516
  315MOL0     H43410   0.599   4.009   6.551 -0.7395  0.4346 -1.2974
  315MOL0     H43411   0.322   3.919   6.486 -1.1803  1.2886  0.5365
  315MOL0     H43412   0.383   4.071   6.440 -3.3144  0.9211  1.2878
  315MOL0     H43413   0.234   4.100   6.627 -0.3526 -1.3239 -0.7584
  315MOL0     H43414   0.341   3.997   6.733 -3.5552 -0.3411 -0.5418
  315MOL0     H43415   0.443   4.219   6.558  0.0780 -3.6490 -0.4393
  315MOL0     H43416   0.520   4.148   6.710 -1.7160 -0.1021  4.0272
  315MOL0     H43417   0.439   4.367   6.764  0.7796  0.2935  1.1861
  315MOL0     H43418   0.275   4.313   6.716 -1.0429  0.7844  1.5907
  315MOL0     H43419   0.525   4.111   6.942 -1.6832 -3.4028 -0.3366
  315MOL0     H43420   0.434   4.075   7.259  0.7062  0.0408 -0.1852
  315MOL0     H43421   0.481   3.950   7.143  1.0551  1.1618 -2.3707
  315MOL0     H43422   0.221   3.890   7.150  1.1953  0.4557 -1.5505
  315MOL0     H43423   0.331   3.839   7.280 -1.8933 -0.6010  0.5420
  315MOL0     H43424   0.256   4.011   7.428 -2.1284 -1.6534  1.9731
  315MOL0     H43425   0.171   4.101   7.298 -2.4494 -0.9680  0.3387
  315MOL0     H43426   0.008   3.952   7.439  1.5780 -0.4349  2.0641
  315MOL0     H43427   0.023   3.893   7.276 -0.6280 -0.2587  0.3192
  315MOL0     H43428   0.271   3.866   7.617  0.9500 -2.0307 -0.1443
  315MOL0     H43429   0.324   3.694   7.907  1.4971  0.3356 -0.6966
  315MOL0     H43430   0.234   3.841   7.938  0.7834 -3.6616  2.8880
  315MOL0     H43431   0.368   3.836   7.810  0.7184 -2.0833 -2.1143
  315MOL0     H43432  -0.133   3.626   8.124  0.3104  0.3535  2.2247
  315MOL0     H43433  -0.243   3.555   8.322 -2.9593 -1.7649  0.7077
  315MOL0     H43434  -0.345   3.475   8.489 -1.8243 -0.1278  0.2264
  315MOL0     H43435  -0.455   3.355   8.510 -0.7315  2.2518  0.2104
  315MOL0     H43436  -0.168   3.262   8.556 -0.2568 -3.5076  0.8139
  315MOL0     H43437  -0.233   3.367   8.682 -2.0976  0.0289 -0.0751
  315MOL0     H43438  -0.247   3.101   8.690  0.0594 -1.4453 -0.0352
  315MOL0     H43439  -0.380   3.133   8.579 -1.5953  0.1439  1.5417
  315MOL0     H43440  -0.480   3.273   8.780  1.7973  1.7363  3.0434
  315MOL0     H43441  -0.348   3.202   8.867  3.1479 -2.2443 -2.9218
  315MOL0     H43442  -0.571   3.064   8.885  1.1903  3.2741  0.4076
  315MOL0     H43443  -0.564   3.048   8.710 -2.1072  0.5800  1.6236
  315MOL0     H43444  -0.383   2.901   8.906 -0.1011  1.3251  0.5811
  315MOL0     H43445  -0.346   2.920   8.731  1.8770 -1.2996  2.2898
  315MOL0     H43446  -0.566   2.819   8.662 -0.5519  0.1949  0.3689
  315MOL0     H43447  -0.616   2.835   8.834  2.5452  3.8688  1.0968
  315MOL0     H43448  -0.491   2.662   8.909  1.4290 -1.1937 -0.2496
  315MOL0     H43449  -0.388   2.650   8.770 -0.7703 -3.3902 -0.4262
  315MOL0     H43450  -0.190   3.145   8.201 -1.0225 -0.4319 -3.0406
  315MOL0     H43451  -0.036   3.228   8.011  0.3441  1.4378  0.2009
  315MOL0     H43452  -0.075   3.533   7.718 -0.1846  1.4554 -0.1709
  315MOL0     H43453  -0.030   3.615   7.473 -0.2913 -0.1075 -0.4609
  315MOL0     H43454   0.906   3.516   6.210 -0.1066  1.9159 -1.4994
  315MOL0     H43455   0.945   3.349   6.031 -1.6372 -1.7546 -5.0398
  315MOL0     H43456   0.758   3.073   5.701  1.8233 -1.9812 -1.5191
  315MOL0     H43457   0.686   2.869   5.578 -0.3349 -3.2892  0.3020
  315MOL0     H43458   0.488   2.481   5.677 -4.9424 -0.4748  0.6754
  315MOL0     H43459   0.494   2.575   5.827  0.2014 -3.3388  0.4663
  315MOL0     H43460   0.343   2.730   5.742  2.8897  0.9044 -1.0497
  315MOL0     H43461   0.273   2.582   5.691  1.7658 -3.3896 -3.5015
  315MOL0     H43462   0.247   2.750   5.534 -0.0998 -1.4549  1.8180
  315MOL0     H43463   0.424   2.758   5.512 -1.2988  0.7380  0.6425
  315MOL0     H43464   0.412   2.499   5.436  0.1051 -1.1111  0.8012
  315MOL0     H43465   0.337   2.617   5.336  0.3313  0.8625  0.0028
  315MOL0     H43466  -0.004   2.394   5.471 -0.6894  0.4776 -2.7460
  315MOL0     H43467   0.688   2.643   5.932 -0.9086 -0.8877  0.5998
  315MOL0     H43468   0.732   2.875   6.173 -0.0751 -0.1223  0.6395
  315MOL0     H43469   0.779   2.704   6.127  1.9390 -0.5103 -0.2432
  315MOL0     H43470   0.884   2.846   6.108 -1.8953  4.1120  0.3337
  316MOL0     O43471   4.826   9.820   8.766 -0.3308 -0.1678  0.1821
  316MOL0     C43472   4.863   9.791   8.657 -0.2920  1.0473  0.0981
  316MOL0     O43473   4.988   9.741   8.624 -0.5934 -0.5767  0.6634
  316MOL0     C43474   5.070   9.696   8.720 -0.3913 -0.7447 -0.9870
  316MOL0     C43475   5.037   9.584   8.792  0.1688  0.4269 -0.2792
  316MOL0     C43476   5.119   9.536   8.892 -0.2869  0.0288  0.2711
  316MOL0     C43477   5.245   9.583   8.912 -0.0624 -0.6240  0.7190
  316MOL0     O43478   5.323   9.505   8.993  0.5158 -0.1098 -0.0087
  316MOL0     C43479   5.447   9.554   9.039  0.5070  0.3640 -0.4506
  316MOL0     C43480   5.546   9.480   8.953  0.0295  0.2801 -0.1942
  316MOL0     C43481   5.698   9.502   8.989 -0.4681  1.2170 -0.5323
  316MOL0     C43482   5.733   9.465   9.134 -0.7088 -0.1573  0.4269
  316MOL0     C43483   5.878   9.508   9.174  1.1904 -0.0201  0.0768
  316MOL0     C43484   5.886   9.516   9.328 -0.7864 -0.7148 -0.8546
  316MOL0     C43485   6.012   9.593   9.382 -0.0764 -0.1727  0.4109
  316MOL0     C43486   6.036   9.576   9.523  0.0857  0.3268 -0.2486
  316MOL0     N43487   5.936   9.649   9.606  0.5072 -0.2634  0.7685
  316MOL0     C43488   5.946   9.786   9.635  0.7467 -0.4082  0.3915
  316MOL0     C43489   5.819   9.830   9.645 -0.0929  0.6343 -0.3003
  316MOL0     C43490   5.769   9.961   9.686  0.0161 -1.4225  0.5123
  316MOL0     C43491   5.736   9.940   9.838  0.4291 -0.3870 -0.6714
  316MOL0     C43492   5.632  10.029   9.892  0.1817 -0.1158  0.9357
  316MOL0     C43493   5.505   9.943   9.916 -0.3346 -0.8338  0.4686
  316MOL0     O43494   5.516   9.846  10.021  0.1497  0.4054 -0.0712
  316MOL0     C43495   5.403   9.773  10.043 -0.2598  0.2332 -0.1410
  316MOL0     C43496   5.272   9.783   9.995  0.2112  0.0898  0.2592
  316MOL0     C43497   5.170   9.705  10.044 -0.2770  0.4419  0.4798
  316MOL0     C43498   5.024   9.731  10.017  0.4851 -0.8715  0.6074
  316MOL0     C43499   5.201   9.593  10.131  0.0232 -0.2855  0.6827
  316MOL0     C43500   5.114   9.498  10.193 -0.3265  0.3808 -0.7681
  316MOL0     O43501   5.165   9.389  10.253 -0.2244  0.8156  0.6987
  316MOL0     C43502   5.076   9.303  10.313 -1.0500  0.7478  0.7427
  316MOL0     C43503   5.044   9.184  10.248  0.2044  0.0789 -0.3846
  316MOL0     C43504   4.967   9.090  10.324  1.0130 -0.6662  0.4102
  316MOL0     C43505   4.910   9.115  10.443  0.6590 -0.0716 -0.0208
  316MOL0     O43506   4.824   9.020  10.504 -0.1100  0.3981  0.0707
  316MOL0     C43507   4.746   9.055  10.620  0.0237 -0.3796 -0.7026
  316MOL0     C43508   4.835   9.057  10.750  0.5521  0.2797 -0.2031
  316MOL0     C43509   4.771   9.110  10.871  0.7017  0.4576 -0.3584
  316MOL0     C43510   4.848   9.079  11.000 -0.0660  0.5523 -0.2163
  316MOL0     C43511   4.762   9.122  11.118 -0.1138  0.1511  0.4562
  316MOL0     C43512   4.738   9.275  11.128 -0.8651 -0.2455  0.1410
  316MOL0     C43513   4.623   9.303  11.217  0.3256 -0.4112  0.2909
  316MOL0     C43514   4.610   9.452  11.238  0.4819  1.3935  0.5565
  316MOL0    Cl43515   4.751   9.508  11.327  0.0817  0.1712  0.4814
  316MOL0     C43516   4.952   9.239  10.508 -0.0961  0.5502  0.0683
  316MOL0     C43517   5.031   9.331  10.440  0.3862  0.7583  0.0489
  316MOL0     O43518   5.004   9.549  10.223  0.2002 -0.1422 -0.2043
  316MOL0     C43519   5.340   9.571  10.159  0.4885  0.3613  0.1351
  316MOL0     C43520   5.431   9.661  10.121 -0.4581 -0.6742 -0.3716
  316MOL0     N43521   5.730   9.724   9.621  0.6617  0.4135 -0.3271
  316MOL0     N43522   5.802   9.619   9.604  0.5245  0.0843  0.4195
  316MOL0     C43523   5.277   9.701   8.840  0.6667  0.0089  0.6199
  316MOL0     C43524   5.194   9.757   8.744 -0.2894  0.9690  0.4772
  316MOL0     C43525   4.759   9.780   8.549  0.4524 -0.1739 -0.7588
  316MOL0     C43526   4.773   9.673   8.452  0.3506 -0.4136  0.0547
  316MOL0     C43527   4.683   9.661   8.349 -0.1208  0.1599  0.2096
  316MOL0     C43528   4.582   9.752   8.328  0.7033 -0.6252  0.3278
  316MOL0     O43529   4.494   9.755   8.226  0.4919  0.1012  0.2738
  316MOL0     C43530   4.402   9.641   8.242 -0.4409 -0.1275  0.2869
  316MOL0     C43531   4.258   9.671   8.213  0.5338 -1.0441 -0.2916
  316MOL0     C43532   4.154   9.575   8.261  0.8838  0.1176 -1.0201
  316MOL0     C43533   4.016   9.588   8.194 -0.0079 -0.1653 -0.2639
  316MOL0     C43534   3.941   9.470   8.209  0.4643 -0.5227 -0.3154
  316MOL0     C43535   3.871   9.374   8.215 -0.3154  1.0365  0.2766
  316MOL0     C43536   4.567   9.855   8.419 -0.1133 -0.2444  0.1985
  316MOL0     C43537   4.662   9.887   8.512 -0.0414  0.2344 -0.0159
  316MOL0     C43538   4.667  10.026   8.567 -0.2434  0.5084 -0.1925
  316MOL0     H43539   4.938   9.551   8.763 -0.0537 -0.6223  1.5153
  316MOL0     H43540   5.075   9.457   8.953 -1.6567  2.6927  2.9621
  316MOL0     H43541   5.442   9.526   9.145 -0.8638 -0.1657 -0.6295
  316MOL0     H43542   5.468   9.661   9.035  0.4194  0.4868  1.3665
  316MOL0     H43543   5.518   9.375   8.954 -2.4316  0.7869 -2.9790
  316MOL0     H43544   5.527   9.526   8.856 -3.4007 -1.3180 -0.4193
  316MOL0     H43545   5.756   9.421   8.945  0.6383  1.4217  0.4931
  316MOL0     H43546   5.730   9.603   8.963 -1.8674  2.1783  1.1816
  316MOL0     H43547   5.660   9.514   9.200 -1.4953  0.3592 -0.8051
  316MOL0     H43548   5.741   9.357   9.151  5.3246 -0.2432 -0.8658
  316MOL0     H43549   5.907   9.599   9.122  2.8449 -0.6136 -0.1058
  316MOL0     H43550   5.950   9.435   9.135 -1.8223 -3.7202  0.7831
  316MOL0     H43551   5.800   9.564   9.376 -1.0828 -1.3786 -0.6976
  316MOL0     H43552   5.889   9.416   9.374  0.1670  0.7698  2.6520
  316MOL0     H43553   6.010   9.702   9.367 -2.7957 -0.3652 -1.5866
  316MOL0     H43554   6.101   9.557   9.331 -0.2045 -0.7763  0.6130
  316MOL0     H43555   6.021   9.469   9.542  0.6924 -0.3533 -3.1805
  316MOL0     H43556   6.139   9.599   9.551  0.0868 -0.3796  0.3560
  316MOL0     H43557   6.036   9.846   9.641  0.2706  0.7801 -2.4455
  316MOL0     H43558   5.675   9.983   9.637  0.1622 -2.3586 -0.2187
  316MOL0     H43559   5.846  10.039   9.686 -0.0586 -1.3504  0.3005
  316MOL0     H43560   5.706   9.836   9.852  1.6196 -1.1214 -3.0632
  316MOL0     H43561   5.829   9.956   9.893 -0.2391  2.8016 -0.2784
  316MOL0     H43562   5.663  10.070   9.989 -1.3649 -0.7320  1.7297
  316MOL0     H43563   5.617  10.105   9.815 -2.5636 -1.7530 -0.2794
  316MOL0     H43564   5.428  10.014   9.946 -1.8573 -3.0178  2.0528
  316MOL0     H43565   5.460   9.903   9.825 -1.4136  2.9496 -0.8410
  316MOL0     H43566   5.240   9.864   9.931  0.7611  0.1404  0.0464
  316MOL0     H43567   4.975   9.634  10.008 -1.4244  0.1800 -0.7521
  316MOL0     H43568   5.015   9.776   9.918 -0.8471 -1.6843  0.3400
  316MOL0     H43569   4.966   9.796  10.084 -0.5626  2.0323 -2.8408
  316MOL0     H43570   5.091   9.161  10.153  1.2771  3.7098 -0.8776
  316MOL0     H43571   4.935   8.994  10.283  0.3364 -0.7980  1.2269
  316MOL0     H43572   4.697   9.151  10.600 -2.6722 -1.7204 -0.9538
  316MOL0     H43573   4.665   8.982  10.625  1.5176 -2.3667 -3.0366
  316MOL0     H43574   4.858   8.950  10.754 -0.5212 -0.0385 -1.5070
  316MOL0     H43575   4.925   9.114  10.724 -0.3805  1.3760 -1.1413
  316MOL0     H43576   4.662   9.095  10.868  0.8743 -0.8091 -0.8573
  316MOL0     H43577   4.781   9.215  10.842  1.3608 -0.2619 -3.0796
  316MOL0     H43578   4.950   9.118  11.006 -0.3952  1.3981  0.0522
  316MOL0     H43579   4.855   8.970  11.006  0.7732  0.6709  3.4004
  316MOL0     H43580   4.669   9.065  11.115 -0.9558  1.4475  1.2300
  316MOL0     H43581   4.811   9.078  11.206 -1.0303 -1.3816  0.2304
  316MOL0     H43582   4.724   9.333  11.036 -1.0733  1.1641  1.0344
  316MOL0     H43583   4.836   9.315  11.157  0.6511 -1.0058 -3.3399
  316MOL0     H43584   4.647   9.251  11.310  2.6721 -2.2559 -1.2299
  316MOL0     H43585   4.530   9.267  11.172 -1.6570  3.1228  1.1567
  316MOL0     H43586   4.518   9.467  11.296  0.6308  1.1175  0.8679
  316MOL0     H43587   4.606   9.505  11.142 -1.2177  3.3950  1.6562
  316MOL0     H43588   4.901   9.284  10.593 -0.9483  2.0194 -1.1559
  316MOL0     H43589   5.057   9.428  10.481 -0.0929  1.7878 -1.9568
  316MOL0     H43590   5.385   9.486  10.210  1.6610  1.2270  0.6000
  316MOL0     H43591   5.536   9.647  10.141  0.2261  2.0187 -1.6098
  316MOL0     H43592   5.372   9.752   8.851  0.3656  0.3738  1.6211
  316MOL0     H43593   5.228   9.842   8.686  2.6284 -0.7221 -0.5330
  316MOL0     H43594   4.842   9.590   8.455 -3.2833 -3.7149  1.1508
  316MOL0     H43595   4.690   9.581   8.276 -1.0482 -0.2900  0.5996
  316MOL0     H43596   4.422   9.561   8.170  0.7313 -1.2529  1.7985
  316MOL0     H43597   4.411   9.601   8.344  0.8208  0.9516  0.6270
  316MOL0     H43598   4.254   9.688   8.105  1.3635 -4.1779 -0.9062
  316MOL0     H43599   4.246   9.768   8.263  0.3424  0.5678 -3.2813
  316MOL0     H43600   4.210   9.482   8.248  0.4437 -0.4500  0.7123
  316MOL0     H43601   4.132   9.587   8.368  2.7447 -2.7299 -0.2119
  316MOL0     H43602   4.029   9.605   8.087  0.0796  0.5544 -0.1430
  316MOL0     H43603   3.962   9.673   8.236  3.3364  1.1603  1.7908
  316MOL0     H43604   3.814   9.286   8.238 -1.4613  1.2287 -1.6743
  316MOL0     H43605   4.485   9.920   8.391  0.1947  0.0591 -0.0170
  316MOL0     H43606   4.573  10.076   8.543 -1.6293 -1.6161  0.5082
  316MOL0     H43607   4.681  10.018   8.675  2.4416 -1.6418 -0.5756
  316MOL0     H43608   4.747  10.089   8.528  0.8413 -0.3486  0.5833
  317MOL0     O43609  10.826   4.471   1.528 -0.7007  0.5144 -0.7883
  317MOL0     C43610  10.718   4.518   1.568 -0.5659  0.0315  0.5267
  317MOL0     O43611  10.702   4.623   1.657  0.0563  0.5763 -0.1319
  317MOL0     C43612  10.820   4.676   1.716  0.1215  0.6100  0.7017
  317MOL0     C43613  10.821   4.813   1.736  0.6086  0.5190  0.3983
  317MOL0     C43614  10.926   4.874   1.795 -0.1766  0.0620  0.1800
  317MOL0     C43615  11.034   4.796   1.849  0.4235 -0.7546 -0.2224
  317MOL0     O43616  11.131   4.868   1.912  0.1816 -0.1214 -0.0574
  317MOL0     C43617  11.172   4.821   2.042 -0.3552  0.1488  0.3878
  317MOL0     C43618  11.188   4.941   2.127  0.4149  0.0825  0.0128
  317MOL0     C43619  11.304   5.033   2.097  0.2768 -0.0586 -0.2023
  317MOL0     C43620  11.319   5.147   2.203 -0.1703  0.9161  0.2999
  317MOL0     C43621  11.406   5.260   2.173  0.1564 -0.4260  0.5542
  317MOL0     C43622  11.435   5.332   2.305 -0.2241  0.8156  0.8804
  317MOL0     C43623  11.490   5.475   2.286 -0.9999  0.8395  0.5026
  317MOL0     C43624  11.377   5.586   2.304 -0.3225  0.3386  0.0540
  317MOL0     N43625  11.427   5.708   2.252  0.5425 -1.1097 -0.0424
  317MOL0     C43626  11.474   5.807   2.330  0.8552 -0.0518 -0.7210
  317MOL0     C43627  11.536   5.899   2.250  0.5523 -0.6369 -0.1605
  317MOL0     C43628  11.611   6.015   2.304  0.1639 -0.0220 -0.0266
  317MOL0     C43629  11.759   6.000   2.270  0.3472 -0.2907  0.4561
  317MOL0     C43630  11.826   5.878   2.330 -0.1157  0.6490  0.4680
  317MOL0     C43631  11.976   5.875   2.286  0.7905 -0.2973 -0.6577
  317MOL0     O43632  12.054   5.776   2.362  0.0542  0.2337 -0.6941
  317MOL0     C43633  12.190   5.779   2.340  0.1303 -0.3416 -1.3538
  317MOL0     C43634  12.268   5.720   2.438 -0.2815  0.8230  0.1237
  317MOL0     C43635  12.406   5.734   2.443 -0.0356  0.1041 -0.8840
  317MOL0     C43636  12.477   5.665   2.566  0.1032  0.4422  0.4509
  317MOL0     C43637  12.470   5.826   2.351 -0.5542  0.9733  0.7626
  317MOL0     C43638  12.615   5.865   2.358  0.4282  0.2152  0.4150
  317MOL0     O43639  12.649   5.970   2.276  0.5942  0.3413  0.4109
  317MOL0     C43640  12.783   5.996   2.265  0.5898 -0.3134 -0.5912
  317MOL0     C43641  12.847   6.073   2.355 -0.1231  0.6045  0.1131
  317MOL0     C43642  12.987   6.074   2.359  0.6238 -0.5691  0.0165
  317MOL0     C43643  13.063   6.018   2.260  0.5666  1.1083 -0.5281
  317MOL0     O43644  13.195   6.045   2.270 -0.4054 -0.3589 -0.0196
  317MOL0     C43645  13.299   5.970   2.199 -0.1996 -0.7365 -0.3811
  317MOL0     C43646  13.328   6.023   2.065  0.2427  0.9593  0.4801
  317MOL0     C43647  13.339   6.175   2.051  0.0196  0.3474 -0.3452
  317MOL0     C43648  13.350   6.219   1.904  0.3808  0.5348  0.2966
  317MOL0     C43649  13.343   6.371   1.895  0.0370 -0.8747 -0.5435
  317MOL0     C43650  13.360   6.421   1.750  0.0783 -0.4292 -0.2976
  317MOL0     C43651  13.308   6.566   1.743 -0.1207 -0.5430 -0.3177
  317MOL0     C43652  13.333   6.640   1.610  0.8333  0.4791 -0.3559
  317MOL0    Cl43653  13.498   6.704   1.588 -0.1643 -0.2620 -0.1323
  317MOL0     C43654  12.992   5.944   2.169 -0.1389  0.7437  0.3542
  317MOL0     C43655  12.854   5.924   2.172 -0.3290  0.2017 -0.0423
  317MOL0     O43656  12.698   5.807   2.435  0.3752  0.2750 -0.5095
  317MOL0     C43657  12.397   5.885   2.247  0.1814  0.1993  0.7656
  317MOL0     C43658  12.256   5.856   2.245  0.5770 -0.1370  0.0595
  317MOL0     N43659  11.506   5.856   2.118  0.0940 -0.0990 -0.5788
  317MOL0     N43660  11.454   5.739   2.124 -0.3655  0.2160  0.2693
  317MOL0     C43661  11.036   4.663   1.826 -0.7664 -0.0880 -0.8030
  317MOL0     C43662  10.927   4.601   1.767 -0.1394 -0.3114  0.2524
  317MOL0     C43663  10.591   4.474   1.500  0.6422 -0.0031 -0.0450
  317MOL0     C43664  10.598   4.345   1.443 -0.7039 -1.1892 -0.9923
  317MOL0     C43665  10.488   4.290   1.375 -0.1320 -1.1759  0.9076
  317MOL0     C43666  10.369   4.358   1.361 -0.5621 -0.7070 -0.2663
  317MOL0     O43667  10.252   4.313   1.298 -0.2138 -0.1870  1.0195
  317MOL0     C43668  10.262   4.215   1.196  0.8437  0.4131  0.2478
  317MOL0     C43669  10.134   4.230   1.109 -0.2100  0.5555  0.1299
  317MOL0     C43670   9.999   4.187   1.182 -0.1462 -0.4986  0.1203
  317MOL0     C43671   9.874   4.173   1.091  0.8554 -0.3303  0.4946
  317MOL0     C43672   9.896   4.059   1.004 -0.0312  0.2395 -0.3482
  317MOL0     C43673   9.912   3.961   0.931  0.5962 -0.3166  0.0705
  317MOL0     C43674  10.359   4.488   1.418 -1.0334  0.4575 -0.6052
  317MOL0     C43675  10.458   4.533   1.500 -0.3360  0.5863  0.4990
  317MOL0     C43676  10.422   4.657   1.588  0.4336  0.4356  0.6230
  317MOL0     H43677  10.729   4.864   1.710  0.7379  0.3712 -0.3646
  317MOL0     H43678  10.923   4.978   1.827 -2.6225  0.8962 -2.3598
  317MOL0     H43679  11.258   4.753   2.039 -2.5567 -2.7880 -1.3761
  317MOL0     H43680  11.096   4.764   2.096  0.2704  1.0928  2.3944
  317MOL0     H43681  11.095   4.999   2.118 -0.1314 -0.1126  3.2569
  317MOL0     H43682  11.198   4.909   2.231  0.9534 -1.4979 -0.4982
  317MOL0     H43683  11.400   4.981   2.102 -0.3466 -1.1490  1.2057
  317MOL0     H43684  11.287   5.090   2.005 -0.7058 -0.6531 -0.4011
  317MOL0     H43685  11.218   5.189   2.212 -0.6102  1.1532 -4.0310
  317MOL0     H43686  11.339   5.103   2.302 -4.1866  2.5564  2.1041
  317MOL0     H43687  11.357   5.328   2.103  1.5502  1.2317  1.1291
  317MOL0     H43688  11.502   5.234   2.127  0.5507  0.9172  0.5822
  317MOL0     H43689  11.346   5.341   2.368 -0.7972 -0.9789  0.3853
  317MOL0     H43690  11.509   5.272   2.359 -0.1606  1.1017  1.1137
  317MOL0     H43691  11.548   5.485   2.194  0.7121 -0.9002  1.3322
  317MOL0     H43692  11.565   5.484   2.365  0.8253 -1.4028 -0.8577
  317MOL0     H43693  11.286   5.556   2.251 -0.6682  0.9511  0.2985
  317MOL0     H43694  11.345   5.587   2.409  0.0491 -1.7172  0.2451
  317MOL0     H43695  11.468   5.809   2.438 -1.1106 -2.9947 -0.6582
  317MOL0     H43696  11.600   6.022   2.412 -4.5271 -0.8651 -0.2430
  317MOL0     H43697  11.555   6.100   2.264  0.5480  1.0491  1.6319
  317MOL0     H43698  11.768   5.994   2.161 -0.5452 -1.9092  0.4391
  317MOL0     H43699  11.816   6.087   2.302 -0.7678  0.7741 -0.3531
  317MOL0     H43700  11.832   5.881   2.439  3.2235  2.6067  0.3735
  317MOL0     H43701  11.778   5.785   2.297  0.1614  0.5498  0.3406
  317MOL0     H43702  11.983   5.853   2.179  2.3862 -0.2703 -0.5803
  317MOL0     H43703  12.016   5.975   2.302 -0.9793  0.4024 -0.3208
  317MOL0     H43704  12.220   5.660   2.515  2.0273 -2.0361 -0.4926
  317MOL0     H43705  12.561   5.609   2.524  1.2063  2.3545 -0.0136
  317MOL0     H43706  12.407   5.599   2.618  1.5077 -1.9677 -0.5355
  317MOL0     H43707  12.502   5.745   2.637 -2.0062  0.4975  1.2128
  317MOL0     H43708  12.777   6.121   2.423 -3.0931 -0.6650 -1.8098
  317MOL0     H43709  13.041   6.129   2.435 -0.4623  1.2219 -0.4546
  317MOL0     H43710  13.390   5.973   2.259 -0.9196 -0.6400  0.7477
  317MOL0     H43711  13.266   5.866   2.189  1.0563 -0.9820 -2.3996
  317MOL0     H43712  13.414   5.971   2.022 -1.0474 -0.9791  0.0938
  317MOL0     H43713  13.239   6.003   2.004 -0.8701  2.3182  1.5926
  317MOL0     H43714  13.411   6.225   2.116 -3.1016  1.4961  2.5518
  317MOL0     H43715  13.241   6.209   2.087 -1.4427 -1.4485 -2.3168
  317MOL0     H43716  13.269   6.171   1.849  0.8970 -0.3916  0.3271
  317MOL0     H43717  13.443   6.196   1.851  1.3404  1.9381  1.2597
  317MOL0     H43718  13.252   6.408   1.943  1.0014 -0.4958  1.0704
  317MOL0     H43719  13.415   6.418   1.961 -0.0199  0.3447 -1.3079
  317MOL0     H43720  13.298   6.348   1.698  1.9952 -4.0461  2.0691
  317MOL0     H43721  13.457   6.420   1.700  0.9463  2.2391  1.1066
  317MOL0     H43722  13.339   6.633   1.824  0.9719  1.7923 -2.4987
  317MOL0     H43723  13.199   6.564   1.751 -0.1310  1.1808  0.5324
  317MOL0     H43724  13.264   6.724   1.621 -0.3192 -0.5049  0.1640
  317MOL0     H43725  13.308   6.571   1.529  0.7103  2.8022 -2.4036
  317MOL0     H43726  13.043   5.906   2.081 -0.0426 -0.6584  0.9876
  317MOL0     H43727  12.804   5.871   2.091  0.9092  0.4751 -1.0207
  317MOL0     H43728  12.437   5.958   2.177  1.9406 -0.0269  1.4642
  317MOL0     H43729  12.197   5.909   2.171 -1.5657 -3.1052 -0.5359
  317MOL0     H43730  11.128   4.609   1.843 -0.3657 -0.0519 -2.6503
  317MOL0     H43731  10.924   4.492   1.767 -3.0591 -0.3158  0.0980
  317MOL0     H43732  10.691   4.289   1.445 -0.7171 -1.2694  1.9460
  317MOL0     H43733  10.505   4.186   1.348  1.5844 -0.5700 -0.5513
  317MOL0     H43734  10.334   4.242   1.118  0.3115  2.1884  0.3354
  317MOL0     H43735  10.263   4.113   1.235 -1.8148  0.4226  0.5154
  317MOL0     H43736  10.144   4.173   1.016 -4.8006  2.7065 -2.0242
  317MOL0     H43737  10.134   4.333   1.071 -1.7583  0.4188 -0.3215
  317MOL0     H43738  10.007   4.096   1.241 -2.4615 -1.3858 -0.8178
  317MOL0     H43739   9.987   4.267   1.256  0.0726  1.1250 -1.5198
  317MOL0     H43740   9.873   4.257   1.021 -0.3373 -0.6647  0.0762
  317MOL0     H43741   9.786   4.155   1.154  1.1580 -0.9825  0.7354
  317MOL0     H43742   9.925   3.880   0.861  0.0850  0.3590 -0.8345
  317MOL0     H43743  10.260   4.533   1.423  0.2052  3.3621 -0.1173
  317MOL0     H43744  10.389   4.626   1.687 -0.0443  1.2094  0.7163
  317MOL0     H43745  10.510   4.722   1.591 -1.2757  2.9144  0.1919
  317MOL0     H43746  10.350   4.722   1.538  0.5670 -1.8622 -2.9538
  318MOL0     O43747   9.903   9.935   5.806  0.2559 -0.8235 -0.3004
  318MOL0     C43748   9.982   9.846   5.836 -0.1400  0.0518  0.1463
  318MOL0     O43749   9.974   9.709   5.804  0.4651  0.1571  0.1269
  318MOL0     C43750   9.871   9.653   5.744 -0.0806  0.6849 -0.5639
  318MOL0     C43751   9.899   9.567   5.642  0.6330  0.0568  1.2038
  318MOL0     C43752   9.800   9.498   5.576  0.1281  0.0576  0.8000
  318MOL0     C43753   9.668   9.508   5.619  0.5825 -0.8371 -1.0659
  318MOL0     O43754   9.567   9.430   5.567  0.1267  0.6558  0.4240
  318MOL0     C43755   9.575   9.299   5.620 -0.1899 -0.2657  0.1082
  318MOL0     C43756   9.535   9.192   5.521 -0.1068 -0.3149  0.0364
  318MOL0     C43757   9.391   9.197   5.466 -0.7329 -0.0881  0.2618
  318MOL0     C43758   9.280   9.182   5.573  0.2503 -0.7503  0.0482
  318MOL0     C43759   9.135   9.135   5.517 -0.1737  0.4631  0.1540
  318MOL0     C43760   9.076   9.234   5.415  0.4998  0.4233  0.2587
  318MOL0     C43761   8.929   9.196   5.379 -0.3908  0.4967  1.0646
  318MOL0     C43762   8.821   9.219   5.485  0.3825 -0.2153 -0.7784
  318MOL0     N43763   8.698   9.139   5.456  0.1052 -1.0194 -0.4353
  318MOL0     C43764   8.605   9.180   5.368  0.5171 -0.0578 -0.9887
  318MOL0     C43765   8.501   9.092   5.388  0.1076 -0.1291 -0.9083
  318MOL0     C43766   8.364   9.112   5.331 -0.5874 -1.0411 -0.6211
  318MOL0     C43767   8.347   9.004   5.225 -0.6347  0.3854  0.2782
  318MOL0     C43768   8.212   9.016   5.141  0.8471 -0.2787 -0.4606
  318MOL0     C43769   8.175   8.886   5.068  0.3815 -0.8538  1.0530
  318MOL0     O43770   8.080   8.930   4.969 -0.8584 -0.7673  0.1289
  318MOL0     C43771   7.945   8.933   4.992 -0.2456  0.7488 -0.1989
  318MOL0     C43772   7.862   8.931   4.877 -0.8988 -0.5164 -0.9507
  318MOL0     C43773   7.725   8.952   4.888  0.0840 -0.1042 -0.3841
  318MOL0     C43774   7.651   8.974   4.757  0.5005  0.6466  0.5974
  318MOL0     C43775   7.658   8.968   5.008 -0.0344 -0.9190  0.2303
  318MOL0     C43776   7.506   8.965   5.021  0.1818  0.2229  0.3042
  318MOL0     O43777   7.462   8.913   5.140  0.1201  0.2299  0.1540
  318MOL0     C43778   7.328   8.919   5.151 -0.5365 -0.7106  0.1963
  318MOL0     C43779   7.276   9.006   5.249 -0.1642  0.1782  0.8928
  318MOL0     C43780   7.147   9.002   5.286  0.3311  0.4223 -1.0359
  318MOL0     C43781   7.062   8.913   5.223 -0.1394  0.1731 -0.1221
  318MOL0     O43782   6.932   8.890   5.266 -1.5843  0.8692  0.2138
  318MOL0     C43783   6.831   8.944   5.186  0.1566  0.2535 -0.3253
  318MOL0     C43784   6.771   9.061   5.263 -0.5932 -0.1396 -0.6803
  318MOL0     C43785   6.682   9.134   5.167  1.2465 -0.2981 -0.5162
  318MOL0     C43786   6.624   9.247   5.243  0.1656  0.5061 -0.4695
  318MOL0     C43787   6.543   9.334   5.153 -0.7353  1.0457 -0.4482
  318MOL0     C43788   6.448   9.431   5.225  0.6515 -0.1819 -0.6843
  318MOL0     C43789   6.340   9.489   5.136  0.6433 -0.7742 -0.1426
  318MOL0     C43790   6.226   9.569   5.210  0.2455 -0.5851  0.0326
  318MOL0    Cl43791   6.156   9.480   5.339 -0.4650 -0.2594 -0.0255
  318MOL0     C43792   7.114   8.819   5.132 -0.7479  0.1257  0.9850
  318MOL0     C43793   7.246   8.819   5.102  0.2515 -0.1191  1.0218
  318MOL0     O43794   7.433   9.020   4.936  0.2714  0.0754 -0.1145
  318MOL0     C43795   7.741   8.978   5.127  0.4539  0.2248  0.4823
  318MOL0     C43796   7.876   8.961   5.120 -0.5566  0.7925  0.1101
  318MOL0     N43797   8.542   8.998   5.482  0.2809 -0.0593 -0.6009
  318MOL0     N43798   8.652   9.033   5.531 -0.1676  0.0180 -0.1653
  318MOL0     C43799   9.632   9.596   5.718 -0.3503  0.1320 -0.3426
  318MOL0     C43800   9.733   9.665   5.789  0.0884 -0.8720  0.1065
  318MOL0     C43801  10.086   9.876   5.945  0.2086 -0.9686  0.7225
  318MOL0     C43802  10.189   9.789   5.952  1.2918 -0.4622  0.0454
  318MOL0     C43803  10.290   9.796   6.045  0.2324 -0.4550  0.2126
  318MOL0     C43804  10.287   9.894   6.148 -0.1334 -0.4620  0.4155
  318MOL0     O43805  10.375   9.903   6.246 -0.2470 -0.6306 -0.9626
  318MOL0     C43806  10.501   9.826   6.240 -0.0618 -0.3876  0.0992
  318MOL0     C43807  10.599   9.874   6.346  0.5997 -0.3945 -0.0275
  318MOL0     C43808  10.598   9.804   6.482 -0.1149  0.5417  0.1027
  318MOL0     C43809  10.496   9.859   6.580  0.6967 -0.4071  0.3874
  318MOL0     C43810  10.488   9.768   6.690  0.7006  0.3577 -0.3501
  318MOL0     C43811  10.477   9.679   6.773 -0.1262  1.0224 -0.2762
  318MOL0     C43812  10.187   9.990   6.133 -0.3242  0.9791 -0.3027
  318MOL0     C43813  10.081   9.981   6.043  0.3597  1.0005  0.5224
  318MOL0     C43814   9.969  10.077   6.057 -0.0068 -0.0468  0.3759
  318MOL0     H43815  10.001   9.567   5.606 -0.3232 -1.2650 -1.8999
  318MOL0     H43816   9.830   9.429   5.498  0.3888 -0.1679  1.0972
  318MOL0     H43817   9.510   9.294   5.707 -1.8401 -0.0920 -1.0705
  318MOL0     H43818   9.680   9.278   5.643  1.1901  4.6890 -0.4750
  318MOL0     H43819   9.610   9.195   5.442 -0.9336  3.1831 -0.7847
  318MOL0     H43820   9.553   9.095   5.570  1.2546  0.3140  0.8449
  318MOL0     H43821   9.363   9.284   5.407  0.5680  0.9747  1.1604
  318MOL0     H43822   9.386   9.120   5.389 -1.7039  0.3124 -0.0888
  318MOL0     H43823   9.320   9.127   5.659  0.2824  1.3178  1.4377
  318MOL0     H43824   9.254   9.275   5.625 -2.9774 -2.1751  1.2427
  318MOL0     H43825   9.066   9.122   5.601  0.0698 -2.9957 -0.0541
  318MOL0     H43826   9.138   9.029   5.494 -2.6247 -0.0991  1.9384
  318MOL0     H43827   9.078   9.334   5.460 -2.9901  0.6777  0.1011
  318MOL0     H43828   9.147   9.225   5.333  2.1163  2.5215  1.3195
  318MOL0     H43829   8.936   9.088   5.362 -2.1164 -0.0388  3.2161
  318MOL0     H43830   8.895   9.250   5.290  1.7225  2.6753  1.5011
  318MOL0     H43831   8.856   9.179   5.581  0.8892 -0.2953 -0.9943
  318MOL0     H43832   8.794   9.325   5.489 -0.4502 -0.4174 -0.7733
  318MOL0     H43833   8.616   9.249   5.285 -0.1041  1.0851 -0.1506
  318MOL0     H43834   8.351   9.211   5.287 -1.9987 -1.0477 -0.2640
  318MOL0     H43835   8.289   9.086   5.406  0.5352 -2.1353  0.1717
  318MOL0     H43836   8.438   9.003   5.163 -0.4217 -0.7876  0.5817
  318MOL0     H43837   8.336   8.912   5.283 -0.5472  0.5593  0.5702
  318MOL0     H43838   8.134   9.053   5.209  0.3077 -1.0538 -0.6471
  318MOL0     H43839   8.223   9.085   5.057 -2.6384 -0.5629 -1.2883
  318MOL0     H43840   8.252   8.856   4.995  1.7868  3.6739  0.3616
  318MOL0     H43841   8.144   8.805   5.134 -3.0586 -1.2120 -0.7759
  318MOL0     H43842   7.906   8.916   4.779 -3.3478 -0.0974 -2.1965
  318MOL0     H43843   7.635   9.080   4.736 -3.5398 -0.3581 -2.7019
  318MOL0     H43844   7.549   8.935   4.754  0.5823  0.4956 -0.9939
  318MOL0     H43845   7.709   8.927   4.677 -1.2092  1.0705 -0.9639
  318MOL0     H43846   7.335   9.076   5.307 -0.6801  0.5354  0.9956
  318MOL0     H43847   7.118   9.063   5.371 -2.3334  0.1972 -1.6943
  318MOL0     H43848   6.875   8.968   5.089  0.4092 -1.1009 -0.5684
  318MOL0     H43849   6.751   8.873   5.163  0.1516  0.8357 -2.2805
  318MOL0     H43850   6.714   9.016   5.344 -1.0548 -0.1699 -1.0163
  318MOL0     H43851   6.861   9.116   5.294 -0.7057 -0.6776  0.6484
  318MOL0     H43852   6.604   9.072   5.121  1.0255  1.3656 -2.5625
  318MOL0     H43853   6.749   9.187   5.098  1.0025  0.6611 -0.0320
  318MOL0     H43854   6.697   9.318   5.283  0.0364  1.8981 -2.5928
  318MOL0     H43855   6.569   9.212   5.332 -4.3397  1.3140 -2.6195
  318MOL0     H43856   6.613   9.376   5.079 -0.5045 -1.5576 -1.8191
  318MOL0     H43857   6.480   9.265   5.096 -0.1817  0.6159 -0.5484
  318MOL0     H43858   6.504   9.516   5.266  1.5648 -0.4436 -1.3365
  318MOL0     H43859   6.396   9.371   5.300 -1.3096  2.4090  0.1879
  318MOL0     H43860   6.282   9.409   5.089 -3.0893  1.2293  0.6168
  318MOL0     H43861   6.373   9.553   5.054 -0.0944 -0.9730 -0.5989
  318MOL0     H43862   6.157   9.596   5.130  0.1243  0.8972  0.6098
  318MOL0     H43863   6.261   9.666   5.248 -1.7829 -0.6271  2.2656
  318MOL0     H43864   7.061   8.737   5.084 -0.9009  1.5461 -1.4375
  318MOL0     H43865   7.292   8.757   5.025  2.4430  4.1909 -1.5409
  318MOL0     H43866   7.688   8.995   5.221 -0.1375  0.2824  0.1449
  318MOL0     H43867   7.931   8.970   5.213 -1.0035  0.9214  0.3618
  318MOL0     H43868   9.530   9.608   5.753  0.4507  0.3306  2.0902
  318MOL0     H43869   9.710   9.733   5.870 -0.0477 -0.0890 -0.5714
  318MOL0     H43870  10.197   9.708   5.880  2.4667 -1.0285  0.7741
  318MOL0     H43871  10.379   9.734   6.038  0.5339  0.0535 -0.5993
  318MOL0     H43872  10.481   9.719   6.243 -1.2849 -0.2597 -1.7122
  318MOL0     H43873  10.544   9.855   6.143 -1.3100 -0.6322 -0.5464
  318MOL0     H43874  10.600   9.982   6.355  0.1416 -0.5342  2.1042
  318MOL0     H43875  10.699   9.848   6.308  0.4434 -0.4071 -0.4328
  318MOL0     H43876  10.579   9.697   6.469 -0.9428  0.2532  2.9936
  318MOL0     H43877  10.699   9.810   6.523  1.1348 -4.1442 -1.6919
  318MOL0     H43878  10.400   9.873   6.529  0.7150 -3.9217 -0.8710
  318MOL0     H43879  10.521   9.959   6.616 -5.8266  1.5383  0.7770
  318MOL0     H43880  10.474   9.605   6.851 -0.2421  1.0007 -0.3009
  318MOL0     H43881  10.174  10.060   6.215  0.7786 -0.8293  1.5096
  318MOL0     H43882   9.983  10.157   5.983  1.2532 -1.1979 -0.6743
  318MOL0     H43883   9.873  10.024   6.055 -0.4465  0.7193  0.4064
  318MOL0     H43884   9.973  10.131   6.152  2.2729  1.7919 -0.6663
  319MOL0     O43885   9.566   9.151   2.720 -0.0236  0.5239 -0.5834
  319MOL0     C43886   9.545   9.043   2.657 -0.4166 -0.0258  0.9159
  319MOL0     O43887   9.590   9.019   2.528 -1.2890  0.0891  0.4714
  319MOL0     C43888   9.700   9.079   2.468 -0.2983  0.3239  0.2113
  319MOL0     C43889   9.722   9.061   2.327  1.2986  0.5198  0.6971
  319MOL0     C43890   9.830   9.124   2.260  0.7018 -0.3759 -0.9573
  319MOL0     C43891   9.931   9.187   2.331 -0.8450  0.6017  0.2915
  319MOL0     O43892  10.041   9.242   2.263  0.5474  0.0663  0.0364
  319MOL0     C43893  10.160   9.174   2.296  0.8529 -1.2145 -0.1394
  319MOL0     C43894  10.259   9.214   2.180  0.7242  0.3278  0.4974
  319MOL0     C43895  10.362   9.324   2.224  0.8485 -0.5497  0.6051
  319MOL0     C43896  10.300   9.460   2.277 -0.7651  0.8614 -0.1075
  319MOL0     C43897  10.395   9.585   2.251  0.3755  0.7571  0.1414
  319MOL0     C43898  10.509   9.610   2.346 -0.2849 -0.2899 -0.7036
  319MOL0     C43899  10.617   9.717   2.302 -0.8556 -0.9815  0.3335
  319MOL0     C43900  10.674   9.801   2.417  0.3256  0.3826 -0.1811
  319MOL0     N43901  10.813   9.747   2.466  0.4711  0.2970 -0.2308
  319MOL0     C43902  10.911   9.820   2.525  0.3836  0.1722  0.8497
  319MOL0     C43903  11.019   9.734   2.525 -0.3092 -0.1880  0.1486
  319MOL0     C43904  11.156   9.751   2.577  0.2185  0.4442 -0.5291
  319MOL0     C43905  11.260   9.724   2.467 -0.5378  0.3861  0.3808
  319MOL0     C43906  11.400   9.780   2.486 -0.4027 -0.7091  0.4171
  319MOL0     C43907  11.411   9.933   2.491  0.0190 -0.9192 -1.3564
  319MOL0     O43908  11.414   9.997   2.362  0.1155  0.3145  0.4084
  319MOL0     C43909  11.535  10.015   2.303  0.2581  0.2392 -0.3055
  319MOL0     C43910  11.610  10.129   2.338 -0.1077  0.8451 -0.2212
  319MOL0     C43911  11.731  10.157   2.274  1.0186  1.3264 -0.5187
  319MOL0     C43912  11.808  10.268   2.341  0.0118  0.0096  0.3845
  319MOL0     C43913  11.779  10.069   2.173 -0.1878 -0.2720 -0.0545
  319MOL0     C43914  11.923  10.079   2.131  0.8459 -0.7386  0.6523
  319MOL0     O43915  11.941  10.073   2.002 -0.3507  0.7798 -0.1910
  319MOL0     C43916  12.059  10.082   1.927 -0.6176 -0.5630  0.2445
  319MOL0     C43917  12.036  10.043   1.800 -0.5253 -0.3522  0.4317
  319MOL0     C43918  12.132  10.051   1.697 -0.3936  0.1672 -0.5023
  319MOL0     C43919  12.263  10.091   1.726 -0.0463 -0.3464 -0.6826
  319MOL0     O43920  12.356  10.083   1.625  0.0783 -0.2806 -0.9516
  319MOL0     C43921  12.504  10.110   1.659  0.2824  0.3251 -0.3227
  319MOL0     C43922  12.589  10.125   1.534  1.0499 -0.4642  0.1090
  319MOL0     C43923  12.732  10.186   1.560 -0.4538 -0.3254 -1.0253
  319MOL0     C43924  12.831  10.194   1.437 -0.1611 -0.2130  0.5439
  319MOL0     C43925  12.979  10.196   1.473 -1.0198  0.2390  0.2602
  319MOL0     C43926  13.023  10.334   1.512  0.8731 -0.0829  0.0024
  319MOL0     C43927  13.166  10.328   1.561  0.6885  0.2617  0.1837
  319MOL0     C43928  13.218  10.463   1.599  0.5303 -0.1725  0.6297
  319MOL0    Cl43929  13.293  10.553   1.455  0.6084 -0.4892  0.0788
  319MOL0     C43930  12.295  10.133   1.866 -0.2981  0.6193 -0.5301
  319MOL0     C43931  12.193  10.119   1.960 -0.2160 -0.7831 -1.2935
  319MOL0     O43932  12.004  10.095   2.219 -0.1208  0.2329  0.6206
  319MOL0     C43933  11.709   9.951   2.154  0.1800  0.5674 -0.0170
  319MOL0     C43934  11.578   9.932   2.201 -0.0798  0.6087 -0.9385
  319MOL0     N43935  10.980   9.617   2.459 -1.3322  0.1263 -0.9380
  319MOL0     N43936  10.854   9.622   2.430  0.1393  0.4200 -0.1093
  319MOL0     C43937   9.916   9.205   2.465 -0.0094 -0.0221 -0.4044
  319MOL0     C43938   9.804   9.150   2.533 -0.0015 -1.2249  0.2561
  319MOL0     C43939   9.454   8.933   2.707 -0.1966  0.0083 -0.0163
  319MOL0     C43940   9.382   8.843   2.617 -0.0368  0.5279  0.1312
  319MOL0     C43941   9.300   8.750   2.663 -0.0115  0.4007  0.8679
  319MOL0     C43942   9.261   8.743   2.798  0.0596 -0.7039 -0.3399
  319MOL0     O43943   9.167   8.654   2.845  0.0877  0.3815  0.2660
  319MOL0     C43944   9.141   8.542   2.760  0.5847  1.2481  0.3592
  319MOL0     C43945   9.053   8.443   2.837  0.3102  0.2787  0.2001
  319MOL0     C43946   9.043   8.311   2.761  0.2634  0.0558  0.1268
  319MOL0     C43947   9.006   8.322   2.613  0.1675 -0.4192 -0.3321
  319MOL0     C43948   8.941   8.197   2.564  0.5425 -0.1290 -0.4614
  319MOL0     C43949   8.893   8.094   2.526 -0.0537  0.0775  0.6480
  319MOL0     C43950   9.320   8.837   2.882 -0.3953  0.3260 -0.2188
  319MOL0     C43951   9.421   8.927   2.844  0.4305 -0.3731  0.2352
  319MOL0     C43952   9.490   8.998   2.956  0.1508  0.3115 -0.4231
  319MOL0     H43953   9.653   9.002   2.268 -0.0583  0.7903  1.9452
  319MOL0     H43954   9.847   9.124   2.152 -1.7002  4.9186 -1.6720
  319MOL0     H43955  10.132   9.068   2.298 -3.3716 -0.3925 -2.7223
  319MOL0     H43956  10.207   9.205   2.390 -3.8840 -1.7161  2.7532
  319MOL0     H43957  10.304   9.124   2.138  0.1199  0.4102 -0.3511
  319MOL0     H43958  10.197   9.261   2.103 -1.2061 -0.2219  1.6506
  319MOL0     H43959  10.426   9.279   2.300 -1.2965  0.7506  3.3480
  319MOL0     H43960  10.431   9.348   2.142 -0.2262  2.2675  0.3899
  319MOL0     H43961  10.209   9.475   2.218 -1.4900 -1.7374  0.2606
  319MOL0     H43962  10.280   9.444   2.383  1.4588  4.3000  1.0127
  319MOL0     H43963  10.332   9.673   2.268  1.4275  1.0998  2.6823
  319MOL0     H43964  10.430   9.600   2.148 -1.4218  6.3155 -0.0376
  319MOL0     H43965  10.459   9.639   2.440 -1.0565  0.8310 -1.4212
  319MOL0     H43966  10.547   9.508   2.357 -0.9672 -0.4564  0.2702
  319MOL0     H43967  10.561   9.791   2.244  0.0191 -2.6534 -2.8559
  319MOL0     H43968  10.688   9.669   2.234  1.0652 -2.2088  3.0355
  319MOL0     H43969  10.693   9.904   2.389 -0.8363  0.1918 -1.8457
  319MOL0     H43970  10.602   9.796   2.500  0.3482  3.0847  0.0634
  319MOL0     H43971  10.904   9.916   2.574  4.2103 -0.1812  2.4135
  319MOL0     H43972  11.175   9.682   2.661  0.3406  2.5901  1.3011
  319MOL0     H43973  11.161   9.852   2.618 -2.0523  0.3303  0.1331
  319MOL0     H43974  11.266   9.616   2.455  2.4491  0.2920  1.8122
  319MOL0     H43975  11.213   9.764   2.377  1.4106  2.0808  0.0414
  319MOL0     H43976  11.446   9.744   2.579 -0.3924 -0.6513  0.4347
  319MOL0     H43977  11.453   9.747   2.396 -1.7921  2.3659 -1.7009
  319MOL0     H43978  11.337   9.976   2.559  1.7159  0.3161 -0.1860
  319MOL0     H43979  11.493   9.960   2.559 -0.8503 -2.5984  0.4500
  319MOL0     H43980  11.574  10.192   2.419 -0.1209 -2.3924  2.4862
  319MOL0     H43981  11.743  10.338   2.394 -1.9585 -2.3748  1.3209
  319MOL0     H43982  11.878  10.313   2.269  0.6948  0.6184  1.4071
  319MOL0     H43983  11.873  10.209   2.406  0.8254 -0.0936 -0.4913
  319MOL0     H43984  11.932  10.018   1.780 -0.0057 -1.9099 -0.5506
  319MOL0     H43985  12.122  10.003   1.600 -0.0309 -0.8424 -0.0564
  319MOL0     H43986  12.509  10.206   1.711  1.2618 -1.4467  3.1481
  319MOL0     H43987  12.548  10.041   1.732 -0.3519  1.8119  1.5373
  319MOL0     H43988  12.587  10.024   1.494 -2.2378 -1.6521  2.8322
  319MOL0     H43989  12.536  10.192   1.466 -0.6960 -0.4064  1.4773
  319MOL0     H43990  12.796  10.133   1.631  0.3864 -0.5284 -1.9181
  319MOL0     H43991  12.716  10.287   1.599  0.2409  0.8290 -3.4886
  319MOL0     H43992  12.805  10.285   1.382  3.3070 -0.9592 -2.7456
  319MOL0     H43993  12.814  10.105   1.377  0.2999  0.3856 -0.4960
  319MOL0     H43994  13.002  10.125   1.553  0.4671  0.4684  0.0753
  319MOL0     H43995  13.022  10.157   1.380 -0.1958 -1.0626  1.1672
  319MOL0     H43996  12.952  10.384   1.578  2.8414  2.1913  0.5269
  319MOL0     H43997  13.009  10.403   1.428 -2.4955  0.0078  0.5399
  319MOL0     H43998  13.239  10.286   1.491  0.8330 -2.1099  1.6489
  319MOL0     H43999  13.168  10.274   1.656  0.6929  4.1379  2.6136
  319MOL0     H44000  13.297  10.455   1.674  0.9358  0.1002  0.2323
  319MOL0     H44001  13.138  10.520   1.648  2.4016  1.2645  2.2192
  319MOL0     H44002  12.398  10.153   1.895  1.0594 -4.5924 -0.7048
  319MOL0     H44003  12.224  10.144   2.061  1.4861 -1.4890 -1.6043
  319MOL0     H44004  11.763   9.878   2.095 -0.2064 -2.0922  2.6762
  319MOL0     H44005  11.527   9.839   2.180  2.1136 -0.5505 -1.4421
  319MOL0     H44006   9.978   9.274   2.522  0.6142 -1.6388  0.9550
  319MOL0     H44007   9.810   9.156   2.641 -1.3004 -4.2451  0.6026
  319MOL0     H44008   9.405   8.827   2.513 -2.3631 -1.1117 -0.2178
  319MOL0     H44009   9.252   8.678   2.597 -3.2332 -0.2393  3.6279
  319MOL0     H44010   9.090   8.589   2.676  2.5255 -1.3187 -2.4291
  319MOL0     H44011   9.224   8.483   2.721 -1.7324 -1.8456 -0.3084
  319MOL0     H44012   8.956   8.492   2.847 -0.4424 -0.5652 -2.3093
  319MOL0     H44013   9.105   8.431   2.933  0.7358 -0.2042 -0.0863
  319MOL0     H44014   9.134   8.254   2.785 -0.1092 -0.0223  1.4251
  319MOL0     H44015   8.964   8.255   2.812  1.6175 -3.0634 -0.9514
  319MOL0     H44016   9.102   8.344   2.567  0.3532 -0.1038  0.1995
  319MOL0     H44017   8.941   8.409   2.600  0.5733 -0.1764 -0.7444
  319MOL0     H44018   8.849   8.002   2.495  0.8575  0.2734 -1.3956
  319MOL0     H44019   9.302   8.826   2.989  1.4715 -3.1245 -0.1245
  319MOL0     H44020   9.482   9.106   2.944 -0.8442  0.2229 -0.5854
  319MOL0     H44021   9.452   8.976   3.056 -0.7986 -1.3177 -1.0986
  319MOL0     H44022   9.596   8.969   2.961 -0.2392 -1.0399  0.7057
  320MOL0     O44023   0.258   0.894   2.276  0.6952 -0.4777  0.3292
  320MOL0     C44024   0.207   0.782   2.245 -0.4218 -0.1928 -0.2264
  320MOL0     O44025   0.119   0.717   2.315  0.5834 -0.5696  0.0321
  320MOL0     C44026   0.078   0.777   2.435  0.6153  0.7067  0.3262
  320MOL0     C44027   0.142   0.741   2.553 -0.2495  0.3176  0.2821
  320MOL0     C44028   0.101   0.792   2.679  0.1216  0.4292  0.6272
  320MOL0     C44029   0.009   0.892   2.677 -0.3734  0.6676  0.1004
  320MOL0     O44030  -0.032   0.957   2.790  0.1262 -0.4713  0.2973
  320MOL0     C44031  -0.005   0.899   2.916 -0.9684  0.0364  0.1711
  320MOL0     C44032  -0.064   0.995   3.018  0.2796 -0.1187 -0.2414
  320MOL0     C44033   0.027   1.004   3.139 -0.6865  0.7270  0.5176
  320MOL0     C44034  -0.020   1.122   3.230  1.1657 -0.4904 -1.3304
  320MOL0     C44035   0.071   1.143   3.350 -0.2524  0.0929 -0.1701
  320MOL0     C44036   0.026   1.246   3.453 -0.3536 -0.3576 -0.9443
  320MOL0     C44037   0.118   1.242   3.579  0.4929 -0.6820  0.0979
  320MOL0     C44038   0.061   1.344   3.674  0.1487 -0.1217 -0.3658
  320MOL0     N44039   0.167   1.385   3.769  0.0479 -0.4319 -0.8583
  320MOL0     C44040   0.197   1.327   3.894 -0.4710  0.2027  0.3827
  320MOL0     C44041   0.300   1.398   3.948 -0.4520 -0.0667  0.5613
  320MOL0     C44042   0.372   1.357   4.073 -0.7091 -0.2351  0.1989
  320MOL0     C44043   0.280   1.348   4.206 -0.5159  0.4620  0.0784
  320MOL0     C44044   0.351   1.297   4.332 -0.9985  0.8572  0.2966
  320MOL0     C44045   0.312   1.373   4.454 -0.0151  0.0024  0.1408
  320MOL0     O44046   0.365   1.317   4.576 -0.9526  0.6978 -0.3105
  320MOL0     C44047   0.326   1.369   4.698 -0.4701 -0.5389 -0.3218
  320MOL0     C44048   0.400   1.329   4.812 -0.8205  0.2460  0.4908
  320MOL0     C44049   0.392   1.385   4.939  0.3119 -0.1489  0.2921
  320MOL0     C44050   0.461   1.303   5.043  0.7732 -0.0947  0.2319
  320MOL0     C44051   0.317   1.506   4.960  0.7517 -0.4581  0.2917
  320MOL0     C44052   0.310   1.573   5.095  0.1118  0.2434 -1.1672
  320MOL0     O44053   0.252   1.700   5.107  0.5430 -0.8627 -0.0100
  320MOL0     C44054   0.255   1.775   5.223 -0.6470  0.7126  0.5528
  320MOL0     C44055   0.181   1.891   5.217 -0.6607 -0.2357 -0.0662
  320MOL0     C44056   0.176   1.984   5.326 -0.0314 -0.0469 -0.0992
  320MOL0     C44057   0.249   1.960   5.434 -0.1635  0.2146 -0.5282
  320MOL0     O44058   0.240   2.053   5.536  0.1215  0.3726  0.7956
  320MOL0     C44059   0.307   2.030   5.655 -0.5613  0.2336 -0.8071
  320MOL0     C44060   0.304   2.155   5.734  0.4140  0.0987  1.0259
  320MOL0     C44061   0.161   2.200   5.752  0.3493 -0.5531  0.2535
  320MOL0     C44062   0.140   2.304   5.868  0.1513 -0.3222  0.1796
  320MOL0     C44063   0.166   2.252   6.002  0.5764  0.2335  0.4797
  320MOL0     C44064   0.124   2.357   6.109  0.1404 -0.5670  0.6014
  320MOL0     C44065   0.184   2.312   6.238 -0.8426  0.7025 -1.0094
  320MOL0     C44066   0.339   2.319   6.253  0.8735  0.0694 -0.0088
  320MOL0    Cl44067   0.409   2.463   6.171  0.1049  0.2825  0.3919
  320MOL0     C44068   0.349   1.855   5.439  0.4519 -0.5492  0.0003
  320MOL0     C44069   0.344   1.768   5.330  0.0942 -0.0830  0.1354
  320MOL0     O44070   0.360   1.508   5.186  0.0347 -0.1141  0.3003
  320MOL0     C44071   0.249   1.555   4.841  1.3654 -0.2811 -0.5508
  320MOL0     C44072   0.247   1.485   4.724 -0.5934 -0.4622 -1.3234
  320MOL0     N44073   0.336   1.496   3.851 -0.0854 -0.4246 -0.4810
  320MOL0     N44074   0.249   1.501   3.755  0.1315  0.6273 -0.1430
  320MOL0     C44075  -0.061   0.932   2.563 -0.3364  0.5637  0.5593
  320MOL0     C44076  -0.024   0.871   2.439 -0.0614  0.4371  0.1922
  320MOL0     C44077   0.261   0.716   2.126 -0.4287  0.5044  0.2124
  320MOL0     C44078   0.171   0.634   2.053  0.5479 -0.6009 -1.0674
  320MOL0     C44079   0.199   0.577   1.929  0.2704 -1.2129 -0.0112
  320MOL0     C44080   0.329   0.588   1.879 -0.7067  0.4331  0.5861
  320MOL0     O44081   0.361   0.527   1.753 -0.0574  0.7329  0.1472
  320MOL0     C44082   0.497   0.536   1.703  0.8348  0.3930 -0.1744
  320MOL0     C44083   0.520   0.437   1.590  0.6294  0.3515  0.1193
  320MOL0     C44084   0.503   0.283   1.634 -0.3915 -0.2850 -0.2554
  320MOL0     C44085   0.372   0.223   1.603  0.2581 -0.7251  0.5846
  320MOL0     C44086   0.373   0.163   1.463  0.7777  0.0367  0.1730
  320MOL0     C44087   0.345   0.099   1.364  0.5697  1.4722  0.2656
  320MOL0     C44088   0.432   0.642   1.962 -0.4447  0.4319 -0.5802
  320MOL0     C44089   0.398   0.715   2.085 -0.1696  1.1728  0.6067
  320MOL0     C44090   0.514   0.776   2.158 -0.8688  0.9124 -0.2644
  320MOL0     H44091   0.220   0.666   2.548 -2.3914 -1.9764 -4.0709
  320MOL0     H44092   0.149   0.754   2.769 -0.0773 -0.3868  0.4046
  320MOL0     H44093   0.102   0.877   2.917 -1.1684 -0.9964  1.0893
  320MOL0     H44094  -0.047   0.798   2.922 -1.0185 -0.1227 -1.9795
  320MOL0     H44095  -0.071   1.093   2.971  0.6913 -0.6461 -1.4429
  320MOL0     H44096  -0.161   0.972   3.063  0.5653 -0.5552  0.1672
  320MOL0     H44097   0.035   0.909   3.192  0.5295 -0.6614 -1.9574
  320MOL0     H44098   0.118   1.037   3.088 -2.1012 -0.7820 -3.3430
  320MOL0     H44099  -0.029   1.213   3.170  0.1651 -1.3162 -2.4548
  320MOL0     H44100  -0.116   1.110   3.281  2.1741 -2.4298  0.2843
  320MOL0     H44101   0.169   1.158   3.303  0.4839 -0.5730  1.0608
  320MOL0     H44102   0.069   1.048   3.405 -2.6237 -0.4505 -1.1075
  320MOL0     H44103   0.033   1.346   3.409  1.3507  1.1706  2.3927
  320MOL0     H44104  -0.075   1.231   3.492 -1.1070  0.1692 -2.6037
  320MOL0     H44105   0.220   1.268   3.550 -0.2921  1.9977 -0.5478
  320MOL0     H44106   0.115   1.139   3.615  2.2922 -1.7053 -2.3803
  320MOL0     H44107   0.025   1.430   3.617 -3.5896 -1.7394 -0.7778
  320MOL0     H44108  -0.024   1.306   3.732  1.2639 -2.2735 -0.0411
  320MOL0     H44109   0.141   1.251   3.948  1.5954 -1.2125  0.6276
  320MOL0     H44110   0.451   1.431   4.088  1.7786 -2.7603  0.3170
  320MOL0     H44111   0.431   1.267   4.055 -0.1202 -0.2561  2.0536
  320MOL0     H44112   0.224   1.441   4.218 -0.6138  0.2033  1.8133
  320MOL0     H44113   0.205   1.272   4.182  3.2313 -2.8585 -2.4336
  320MOL0     H44114   0.344   1.188   4.343 -0.4300  1.1025  6.2701
  320MOL0     H44115   0.455   1.311   4.299 -0.4309 -2.8233  0.1367
  320MOL0     H44116   0.343   1.478   4.467  0.3138 -0.4695  4.4920
  320MOL0     H44117   0.203   1.375   4.462  0.0836  0.1852  1.7193
  320MOL0     H44118   0.467   1.245   4.794 -0.1572  1.1691 -1.6584
  320MOL0     H44119   0.507   1.212   5.005  1.5748  1.0976 -1.8182
  320MOL0     H44120   0.390   1.276   5.121  1.1909 -2.0763 -0.0327
  320MOL0     H44121   0.542   1.363   5.086  3.3576 -1.9256 -1.7837
  320MOL0     H44122   0.131   1.893   5.120 -0.3734 -2.0475 -0.2834
  320MOL0     H44123   0.095   2.055   5.340 -0.7047 -1.1188  1.8483
  320MOL0     H44124   0.258   1.955   5.718 -0.4678  0.7664 -0.0802
  320MOL0     H44125   0.413   2.009   5.635 -0.9831 -2.3572 -0.5821
  320MOL0     H44126   0.355   2.128   5.827  1.5373  0.9100  0.6814
  320MOL0     H44127   0.364   2.235   5.688  0.8161 -0.7361  0.0848
  320MOL0     H44128   0.108   2.106   5.773  0.0033 -0.6177 -0.8327
  320MOL0     H44129   0.125   2.241   5.657  0.0654  0.2432  0.7044
  320MOL0     H44130   0.034   2.330   5.862  0.5204  2.1460  2.5824
  320MOL0     H44131   0.191   2.400   5.858  1.4639 -0.9286  0.7433
  320MOL0     H44132   0.124   2.153   6.017 -0.3800  0.7178  1.0680
  320MOL0     H44133   0.275   2.242   6.006  0.5231 -1.4334 -1.0146
  320MOL0     H44134   0.017   2.377   6.120 -0.1727 -2.0964  0.5907
  320MOL0     H44135   0.166   2.452   6.074 -0.4833 -1.2421 -2.2959
  320MOL0     H44136   0.139   2.217   6.269  0.0983  0.2439 -1.0249
  320MOL0     H44137   0.154   2.392   6.306 -0.8844 -0.9362  1.0133
  320MOL0     H44138   0.388   2.225   6.223 -0.2468 -0.5621  0.0729
  320MOL0     H44139   0.360   2.312   6.360 -1.1928 -1.6379  0.3628
  320MOL0     H44140   0.420   1.838   5.519 -1.2205  0.3257  1.7684
  320MOL0     H44141   0.419   1.690   5.322 -2.7611 -3.2125  1.4829
  320MOL0     H44142   0.188   1.643   4.860 -1.6428 -2.8211  3.2792
  320MOL0     H44143   0.199   1.527   4.636 -1.3530  1.1307 -0.1956
  320MOL0     H44144  -0.137   1.010   2.567  0.4294  1.6589 -2.7699
  320MOL0     H44145  -0.083   0.903   2.354  0.7786  1.3934 -0.0553
  320MOL0     H44146   0.064   0.629   2.071  0.7228  0.4949  0.5074
  320MOL0     H44147   0.130   0.511   1.878  0.5293 -3.7923  2.7464
  320MOL0     H44148   0.518   0.641   1.679  3.0263  0.0741  0.1135
  320MOL0     H44149   0.568   0.516   1.784  0.8589 -2.0000 -0.7062
  320MOL0     H44150   0.622   0.448   1.551  0.0661  3.3130 -0.8178
  320MOL0     H44151   0.451   0.460   1.508 -0.7665 -2.4580  0.3948
  320MOL0     H44152   0.582   0.238   1.573 -0.4042 -1.0561  0.2838
  320MOL0     H44153   0.531   0.281   1.740 -0.1280 -0.5277 -0.3276
  320MOL0     H44154   0.291   0.292   1.625 -0.2997 -0.7261 -1.2815
  320MOL0     H44155   0.367   0.137   1.670  2.9801 -2.2227 -0.9333
  320MOL0     H44156   0.342   0.037   1.277 -0.3279 -1.4073  2.1863
  320MOL0     H44157   0.538   0.633   1.941 -0.2560 -0.0748  0.5209
  320MOL0     H44158   0.480   0.801   2.259  1.7457  1.8426  0.4422
  320MOL0     H44159   0.596   0.704   2.162 -3.0976 -1.8951 -1.0086
  320MOL0     H44160   0.545   0.873   2.120  5.0069 -1.0219 -1.3588
  321MOL0     O44161   3.380   7.351  10.950 -0.0848  0.1298 -0.1144
  321MOL0     C44162   3.268   7.303  10.967 -0.6893  0.2083 -0.3626
  321MOL0     O44163   3.207   7.282  11.092 -0.7894  0.2279  0.3825
  321MOL0     C44164   3.261   7.346  11.193  0.3963 -0.3647  0.2207
  321MOL0     C44165   3.360   7.278  11.262 -0.3540  0.4011 -0.6493
  321MOL0     C44166   3.415   7.337  11.376 -0.3924 -0.2066 -0.2987
  321MOL0     C44167   3.384   7.467  11.412  0.9898  0.7133  0.5450
  321MOL0     O44168   3.422   7.543  11.525 -0.8655 -0.5095 -0.0156
  321MOL0     C44169   3.521   7.491  11.597 -0.6461  1.2209  0.8067
  321MOL0     C44170   3.574   7.589  11.706 -0.1015 -0.2879  0.1253
  321MOL0     C44171   3.695   7.657  11.654  0.3520 -0.6733 -0.0901
  321MOL0     C44172   3.671   7.749  11.541 -0.2648  0.1628  0.6591
  321MOL0     C44173   3.798   7.838  11.519 -0.9003 -0.0119 -1.0364
  321MOL0     C44174   3.794   7.923  11.387  0.2490 -0.7503  0.1724
  321MOL0     C44175   3.673   8.026  11.383  0.1866 -0.3189 -0.2231
  321MOL0     C44176   3.678   8.151  11.473  0.4690 -0.9445  0.4578
  321MOL0     N44177   3.798   8.223  11.432  0.8361 -0.2457 -0.3302
  321MOL0     C44178   3.911   8.246  11.514 -0.6779 -0.4533  0.1099
  321MOL0     C44179   4.000   8.298  11.431 -0.7522 -0.1041 -0.3594
  321MOL0     C44180   4.149   8.307  11.459 -0.0868  0.6827  0.7099
  321MOL0     C44181   4.217   8.165  11.428  0.1334  0.3296 -0.4841
  321MOL0     C44182   4.288   8.150  11.296 -0.3233 -0.5333  0.0537
  321MOL0     C44183   4.427   8.220  11.300 -0.1821  0.9391 -0.6734
  321MOL0     O44184   4.488   8.228  11.174  0.2045 -0.7871  0.5586
  321MOL0     C44185   4.555   8.124  11.106  1.2841 -0.4414 -1.4865
  321MOL0     C44186   4.580   7.993  11.144  0.2548  0.6550  0.1440
  321MOL0     C44187   4.625   7.894  11.054  0.6990  0.1411 -0.1435
  321MOL0     C44188   4.664   7.761  11.128  0.4663  0.8820 -0.1725
  321MOL0     C44189   4.656   7.933  10.919 -0.0668 -0.6626 -0.0335
  321MOL0     C44190   4.730   7.854  10.824 -0.3861  0.1189  0.8924
  321MOL0     O44191   4.791   7.921  10.729 -0.3718  0.0170 -0.0013
  321MOL0     C44192   4.901   7.863  10.679 -0.8758 -0.3810  1.4737
  321MOL0     C44193   4.906   7.849  10.537  0.2686  0.1676 -0.9189
  321MOL0     C44194   5.027   7.804  10.469  0.8736  0.5214  0.0693
  321MOL0     C44195   5.140   7.781  10.549 -0.1719 -0.5881  0.9275
  321MOL0     O44196   5.248   7.717  10.508 -0.1882  0.6391  0.7599
  321MOL0     C44197   5.344   7.799  10.445 -0.8741 -0.1983 -0.6150
  321MOL0     C44198   5.453   7.713  10.394 -0.2746  0.0191 -0.1184
  321MOL0     C44199   5.425   7.617  10.270  0.2187 -0.2274  0.7586
  321MOL0     C44200   5.368   7.483  10.310 -0.1690  0.7621  0.5606
  321MOL0     C44201   5.353   7.389  10.185 -0.3007  0.2294  0.2727
  321MOL0     C44202   5.258   7.268  10.198 -0.4210  0.2828 -0.5591
  321MOL0     C44203   5.303   7.164  10.314 -0.2141 -0.2533 -0.4249
  321MOL0     C44204   5.207   7.050  10.337 -0.2972  0.0246 -0.3999
  321MOL0    Cl44205   5.250   6.980  10.499 -0.1760  0.0971  0.0505
  321MOL0     C44206   5.139   7.812  10.685  0.4338 -0.1160  0.1992
  321MOL0     C44207   5.021   7.847  10.755 -0.3087  0.2619  0.3588
  321MOL0     O44208   4.731   7.733  10.836 -0.2759  0.3413 -0.5236
  321MOL0     C44209   4.645   8.078  10.885  0.7579  0.6593 -0.1012
  321MOL0     C44210   4.597   8.167  10.979 -0.0974  0.6222 -1.2279
  321MOL0     N44211   3.938   8.318  11.306 -0.9021 -0.2031  0.3094
  321MOL0     N44212   3.811   8.284  11.312 -0.8482 -0.0583  0.1519
  321MOL0     C44213   3.287   7.535  11.336  0.4876 -0.3743 -0.1028
  321MOL0     C44214   3.222   7.477  11.223  0.3215  0.3552  0.7687
  321MOL0     C44215   3.212   7.240  10.848 -0.1170 -0.2653 -0.4286
  321MOL0     C44216   3.131   7.125  10.868 -0.3640  0.0994  0.8821
  321MOL0     C44217   3.076   7.051  10.766  0.5861 -0.4299  0.3056
  321MOL0     C44218   3.098   7.096  10.633 -0.4958 -0.2330 -0.3793
  321MOL0     O44219   3.047   7.008  10.542  0.0796 -0.6402  0.0825
  321MOL0     C44220   3.020   7.058  10.402 -0.7613  0.8466 -1.7377
  321MOL0     C44221   2.927   6.954  10.344  0.2822 -0.5352 -0.2121
  321MOL0     C44222   3.003   6.824  10.307 -0.7687  0.1317 -0.0608
  321MOL0     C44223   2.965   6.708  10.395  0.1765 -1.2650  0.1622
  321MOL0     C44224   3.000   6.587  10.311 -0.0278  0.3756 -0.3732
  321MOL0     C44225   3.015   6.485  10.236  0.0652  0.6229 -0.1764
  321MOL0     C44226   3.166   7.219  10.606  0.6682  0.0550  1.3832
  321MOL0     C44227   3.216   7.293  10.715  0.2284  0.9521  0.2169
  321MOL0     C44228   3.280   7.424  10.689  0.1918  0.6173 -0.2419
  321MOL0     H44229   3.395   7.180  11.230  0.5517  0.4095  0.2634
  321MOL0     H44230   3.486   7.286  11.441 -0.9993 -1.3734 -0.5255
  321MOL0     H44231   3.601   7.463  11.528  0.2640  2.4409  1.3256
  321MOL0     H44232   3.469   7.406  11.640 -0.3927  0.4649 -0.3496
  321MOL0     H44233   3.493   7.658  11.729 -0.1922 -0.1960 -0.4554
  321MOL0     H44234   3.601   7.533  11.796  0.1987 -2.1480 -1.0648
  321MOL0     H44235   3.735   7.714  11.739 -2.8836  0.1645  1.0236
  321MOL0     H44236   3.769   7.592  11.607  0.1226  0.9983 -3.0139
  321MOL0     H44237   3.659   7.694  11.447 -0.1692  2.3328 -0.6965
  321MOL0     H44238   3.580   7.809  11.545 -0.4929  0.0868 -1.6968
  321MOL0     H44239   3.892   7.781  11.524 -1.1185 -0.2574  2.0796
  321MOL0     H44240   3.803   7.902  11.608 -2.1755 -0.6485 -0.4848
  321MOL0     H44241   3.886   7.982  11.378  0.7167 -1.1736  1.8080
  321MOL0     H44242   3.779   7.855  11.303 -1.9480  0.4489 -0.4953
  321MOL0     H44243   3.581   7.971  11.409  0.5965 -0.4514  1.0150
  321MOL0     H44244   3.650   8.058  11.281 -1.7798 -1.6565 -0.2705
  321MOL0     H44245   3.595   8.221  11.457  0.9696  0.1885  2.4274
  321MOL0     H44246   3.675   8.131  11.580  1.8801 -3.1105  0.1328
  321MOL0     H44247   3.935   8.213  11.615 -3.7874  0.2214  1.1604
  321MOL0     H44248   4.172   8.330  11.563  1.7462 -2.0033  0.9688
  321MOL0     H44249   4.186   8.383  11.389  0.5214 -1.6841 -1.7051
  321MOL0     H44250   4.286   8.138  11.508 -0.4358 -3.8720 -1.1546
  321MOL0     H44251   4.128   8.101  11.432 -1.7342  2.6423 -2.0768
  321MOL0     H44252   4.297   8.047  11.258 -1.8521 -0.1052 -1.6242
  321MOL0     H44253   4.236   8.215  11.226 -0.3926  0.0285  0.6207
  321MOL0     H44254   4.410   8.315  11.350  0.3926 -0.6398  2.7904
  321MOL0     H44255   4.481   8.159  11.373 -0.0296 -0.4537 -1.8934
  321MOL0     H44256   4.543   7.961  11.241 -2.3362 -0.8650 -1.2269
  321MOL0     H44257   4.644   7.765  11.235  0.3742 -5.6997  0.4931
  321MOL0     H44258   4.771   7.738  11.119  0.9441  2.7023  0.4439
  321MOL0     H44259   4.608   7.680  11.079  2.4832 -1.4106  1.1042
  321MOL0     H44260   4.818   7.873  10.478  0.7578  0.4828 -1.5308
  321MOL0     H44261   5.023   7.804  10.361 -0.3658  1.6154  0.0855
  321MOL0     H44262   5.293   7.846  10.360 -0.6292  4.7127  1.6168
  321MOL0     H44263   5.377   7.881  10.510  0.6684  0.8458 -2.5822
  321MOL0     H44264   5.527   7.782  10.353 -0.5669  0.2665 -0.2413
  321MOL0     H44265   5.505   7.664  10.476 -2.0023  0.6855  1.4385
  321MOL0     H44266   5.521   7.604  10.219 -0.8126  1.6976 -1.8643
  321MOL0     H44267   5.365   7.657  10.188  2.2686 -0.4564 -0.9498
  321MOL0     H44268   5.271   7.503  10.356 -1.1803  1.5207 -1.7663
  321MOL0     H44269   5.434   7.435  10.383 -1.8366 -2.3624  0.1900
  321MOL0     H44270   5.315   7.450  10.103  2.8365  2.0907  0.0157
  321MOL0     H44271   5.453   7.359  10.152  0.9211  2.2835  1.8505
  321MOL0     H44272   5.266   7.219  10.100 -1.4633 -0.3718 -0.3299
  321MOL0     H44273   5.152   7.292  10.203 -1.0134 -1.8816 -1.3835
  321MOL0     H44274   5.325   7.208  10.411  0.5489 -1.3006 -0.1108
  321MOL0     H44275   5.396   7.112  10.288 -1.8960 -4.9244  1.8158
  321MOL0     H44276   5.218   6.971  10.262 -0.2797  0.0877 -0.4652
  321MOL0     H44277   5.102   7.082  10.341  0.6784  3.4933  2.9335
  321MOL0     H44278   5.239   7.811  10.727  1.0410 -0.6168 -1.2286
  321MOL0     H44279   5.038   7.879  10.858  0.7023  0.8247  0.0405
  321MOL0     H44280   4.681   8.118  10.790 -3.7415 -3.2587 -3.9501
  321MOL0     H44281   4.614   8.273  10.966 -2.2431  1.4538  1.5750
  321MOL0     H44282   3.261   7.638  11.356  0.2884 -0.1853 -1.2515
  321MOL0     H44283   3.167   7.540  11.154  2.9964  2.4989  0.4049
  321MOL0     H44284   3.109   7.080  10.964 -0.0725 -1.4608  0.2586
  321MOL0     H44285   3.026   6.959  10.793 -0.1108 -0.9577 -2.4610
  321MOL0     H44286   2.956   7.147  10.409 -0.1003  1.1924  0.3968
  321MOL0     H44287   3.102   7.077  10.332  2.4176 -1.3385  1.1104
  321MOL0     H44288   2.878   6.981  10.251 -1.0753 -0.5454  0.4659
  321MOL0     H44289   2.852   6.936  10.422  0.9979 -2.2170  0.1401
  321MOL0     H44290   2.988   6.801  10.201  0.7629 -0.2320 -0.2250
  321MOL0     H44291   3.112   6.829  10.311 -0.5715 -0.8328 -2.5004
  321MOL0     H44292   2.862   6.709  10.432 -0.6508 -2.1171 -1.9622
  321MOL0     H44293   3.025   6.709  10.487  1.0556 -0.2165 -0.3993
  321MOL0     H44294   3.035   6.398  10.177  0.5658  0.2805  0.4945
  321MOL0     H44295   3.191   7.250  10.506 -0.2209 -1.9556  0.4750
  321MOL0     H44296   3.386   7.400  10.685 -0.2011 -1.1004 -1.3689
  321MOL0     H44297   3.243   7.465  10.594 -2.0357 -2.4191 -0.8292
  321MOL0     H44298   3.270   7.497  10.770  3.4720  0.4150  0.4596
  322MOL0     O44299   4.454   2.896   2.694 -0.6484  0.4696  0.9428
  322MOL0     C44300   4.334   2.881   2.674 -0.4830  0.3773 -0.4484
  322MOL0     O44301   4.283   2.806   2.571 -0.1940 -0.2488  0.4457
  322MOL0     C44302   4.370   2.775   2.467  0.5591  0.9834 -0.6318
  322MOL0     C44303   4.398   2.634   2.452 -0.4565  0.0591  0.2787
  322MOL0     C44304   4.496   2.591   2.369 -0.1038 -0.5377  0.2816
  322MOL0     C44305   4.551   2.683   2.273 -0.0276 -0.4646 -0.9466
  322MOL0     O44306   4.623   2.650   2.167 -0.2250  0.1337 -0.0311
  322MOL0     C44307   4.759   2.657   2.193  0.3236 -0.2850 -0.5587
  322MOL0     C44308   4.812   2.722   2.069 -0.3168 -0.5570  0.4100
  322MOL0     C44309   4.869   2.616   1.960  0.2062  0.0530  0.3157
  322MOL0     C44310   4.976   2.662   1.866 -0.0223 -0.9996  0.0314
  322MOL0     C44311   5.036   2.557   1.775  0.5303  0.0531  0.1273
  322MOL0     C44312   4.934   2.509   1.661  0.6703 -0.2685 -0.6119
  322MOL0     C44313   5.005   2.418   1.564  0.3537 -0.2352  0.3363
  322MOL0     C44314   5.044   2.285   1.636  0.2972  0.2924 -0.0742
  322MOL0     N44315   5.072   2.183   1.528 -0.9009  0.6604  0.3329
  322MOL0     C44316   5.205   2.143   1.504  0.3710 -0.1629  1.7293
  322MOL0     C44317   5.184   2.054   1.398  0.5606  0.4763  0.0693
  322MOL0     C44318   5.310   1.986   1.348 -0.4715  0.2419  0.3681
  322MOL0     C44319   5.374   2.048   1.224 -0.6501  0.6405 -0.4124
  322MOL0     C44320   5.523   1.998   1.201  0.4209 -0.3126  0.4576
  322MOL0     C44321   5.624   2.107   1.190 -0.2569 -0.8579  0.3327
  322MOL0     O44322   5.746   2.060   1.151 -0.3804 -0.1044  0.3783
  322MOL0     C44323   5.858   2.139   1.162 -0.3340  0.4307  0.4879
  322MOL0     C44324   5.980   2.077   1.121 -0.5523 -0.3891 -0.8361
  322MOL0     C44325   6.099   2.132   1.161  0.6913 -0.1701  0.3075
  322MOL0     C44326   6.229   2.052   1.144 -0.4132 -0.0736 -0.0480
  322MOL0     C44327   6.103   2.264   1.218 -0.2196  0.2346 -0.3866
  322MOL0     C44328   6.232   2.345   1.245 -0.4352  0.3636 -0.1983
  322MOL0     O44329   6.220   2.449   1.336 -0.0199 -0.4693 -0.0294
  322MOL0     C44330   6.336   2.506   1.379  0.7903 -0.4447  0.4922
  322MOL0     C44331   6.354   2.515   1.520 -0.3067 -1.0750 -0.5878
  322MOL0     C44332   6.471   2.582   1.576  0.1795 -0.3486 -0.2060
  322MOL0     C44333   6.548   2.661   1.496  0.2684 -0.3687  0.8002
  322MOL0     O44334   6.650   2.726   1.560 -0.5012 -0.1659  0.1422
  322MOL0     C44335   6.718   2.825   1.487  0.6409 -0.4948  0.4760
  322MOL0     C44336   6.825   2.887   1.573 -0.0091 -0.0533  0.4211
  322MOL0     C44337   6.873   3.009   1.498  0.7024 -0.3600  0.2070
  322MOL0     C44338   7.002   3.059   1.558 -0.7208  0.7680 -0.0491
  322MOL0     C44339   7.134   2.992   1.506  0.4836 -0.5800 -0.8909
  322MOL0     C44340   7.148   2.842   1.526 -0.8359  0.2309 -0.3255
  322MOL0     C44341   7.291   2.799   1.504 -0.2811  0.7044  0.2696
  322MOL0     C44342   7.313   2.658   1.566  0.0162 -0.4987 -0.5550
  322MOL0    Cl44343   7.341   2.664   1.743 -0.0764 -0.6637  0.3426
  322MOL0     C44344   6.532   2.653   1.354 -0.0718  0.6305 -0.1132
  322MOL0     C44345   6.424   2.576   1.295  0.2212  0.2824  0.4560
  322MOL0     O44346   6.329   2.323   1.177  0.2845 -0.4323  0.3261
  322MOL0     C44347   5.988   2.315   1.278 -0.4813 -0.3343  0.1456
  322MOL0     C44348   5.862   2.258   1.235  0.9278  0.3116  0.6689
  322MOL0     N44349   5.056   2.040   1.360  1.3514  1.0014 -0.1917
  322MOL0     N44350   4.987   2.113   1.447 -0.1904  0.0021 -0.7832
  322MOL0     C44351   4.515   2.826   2.285  0.0643  1.1743  0.3880
  322MOL0     C44352   4.427   2.868   2.383  0.5661 -0.4882 -0.5136
  322MOL0     C44353   4.240   2.960   2.760  0.4936  0.2742 -0.3333
  322MOL0     C44354   4.144   3.038   2.704 -0.0950 -0.8707 -0.3553
  322MOL0     C44355   4.063   3.108   2.796 -0.4725  0.8799  0.3126
  322MOL0     C44356   4.077   3.105   2.937 -0.7627 -0.4431  0.1642
  322MOL0     O44357   3.996   3.171   3.019  0.5100 -1.0159  0.0255
  322MOL0     C44358   3.898   3.264   2.966 -0.8175 -0.3773  0.4781
  322MOL0     C44359   3.783   3.309   3.065  0.4380  0.0493 -0.4085
  322MOL0     C44360   3.667   3.211   3.047 -0.2811 -0.2135 -0.0172
  322MOL0     C44361   3.569   3.214   3.160 -1.0222  0.6262  0.8430
  322MOL0     C44362   3.623   3.147   3.279 -0.0058  0.5868  0.0489
  322MOL0     C44363   3.675   3.080   3.365 -0.0462  0.6586  0.0813
  322MOL0     C44364   4.164   3.014   2.983 -0.5722 -0.2345 -0.5184
  322MOL0     C44365   4.253   2.945   2.897 -0.2308  0.0527 -0.2401
  322MOL0     C44366   4.348   2.859   2.968 -0.1853 -0.9324 -0.4312
  322MOL0     H44367   4.348   2.562   2.516  1.1063  1.0491  2.7851
  322MOL0     H44368   4.523   2.486   2.375  2.0794  0.0250  1.3469
  322MOL0     H44369   4.793   2.554   2.211  1.0578  0.4501  2.9363
  322MOL0     H44370   4.791   2.704   2.286 -0.1777  2.8421 -1.8452
  322MOL0     H44371   4.737   2.789   2.025 -1.6263 -1.6556  0.8931
  322MOL0     H44372   4.900   2.782   2.094 -0.1319 -0.1123 -1.1846
  322MOL0     H44373   4.904   2.529   2.016 -0.7594 -0.8992 -0.5089
  322MOL0     H44374   4.794   2.578   1.890  2.8093 -0.7391 -2.2786
  322MOL0     H44375   4.934   2.746   1.811  1.0881 -0.8237 -0.5708
  322MOL0     H44376   5.062   2.697   1.923  0.1478 -0.2280 -0.6905
  322MOL0     H44377   5.067   2.476   1.841 -0.3294 -1.4327 -1.2108
  322MOL0     H44378   5.121   2.599   1.721 -0.7109  0.2488 -1.7944
  322MOL0     H44379   4.854   2.451   1.709  0.5267 -0.5011 -1.1187
  322MOL0     H44380   4.890   2.593   1.608  0.7457 -0.6851 -1.3542
  322MOL0     H44381   5.091   2.463   1.513 -0.2677  1.1712  0.4920
  322MOL0     H44382   4.937   2.401   1.480 -0.3924  2.3223  0.3328
  322MOL0     H44383   5.127   2.299   1.706  0.6124 -2.5138  0.2301
  322MOL0     H44384   4.959   2.241   1.689 -0.5683  1.0383 -0.8109
  322MOL0     H44385   5.306   2.164   1.538  1.1138  0.6693 -0.7408
  322MOL0     H44386   5.277   1.890   1.307  0.4775 -0.0957  0.3735
  322MOL0     H44387   5.376   1.974   1.434  1.9935 -1.3273 -1.5977
  322MOL0     H44388   5.313   2.031   1.134 -1.5839  1.7120 -0.0068
  322MOL0     H44389   5.373   2.156   1.240 -1.1740  0.7302 -1.0032
  322MOL0     H44390   5.540   1.942   1.293  0.1436  0.4230  0.9581
  322MOL0     H44391   5.521   1.937   1.110 -1.9732  2.4287 -1.5168
  322MOL0     H44392   5.598   2.190   1.125 -1.6444 -1.0913  0.5446
  322MOL0     H44393   5.621   2.150   1.291 -1.5139 -1.8616  0.7498
  322MOL0     H44394   5.976   1.977   1.079 -2.5004 -2.0254  2.8063
  322MOL0     H44395   6.270   2.026   1.242  1.1008  3.4234  0.3671
  322MOL0     H44396   6.304   2.118   1.100 -0.9206 -0.4656 -1.5843
  322MOL0     H44397   6.214   1.967   1.076  2.3781 -2.0585  1.5873
  322MOL0     H44398   6.280   2.460   1.577 -0.3659 -1.4534 -1.0245
  322MOL0     H44399   6.495   2.578   1.682  3.9197  0.2492 -0.8678
  322MOL0     H44400   6.776   2.774   1.410 -0.2367  2.3525 -2.3264
  322MOL0     H44401   6.646   2.889   1.433  0.5551  0.0393  1.2119
  322MOL0     H44402   6.787   2.921   1.670  0.8737  0.9871  0.4203
  322MOL0     H44403   6.902   2.810   1.583  2.3458  1.9395 -1.2740
  322MOL0     H44404   6.796   3.086   1.504  1.7056  0.6900 -0.1753
  322MOL0     H44405   6.889   3.003   1.390 -0.0008  4.8615 -0.4132
  322MOL0     H44406   6.983   3.048   1.665 -3.5664 -3.3455 -0.7343
  322MOL0     H44407   7.004   3.166   1.538  1.6131  0.5156 -1.5151
  322MOL0     H44408   7.132   3.028   1.402 -1.2813 -0.4937 -0.8407
  322MOL0     H44409   7.214   3.031   1.570 -0.6041 -0.4985  0.4353
  322MOL0     H44410   7.089   2.793   1.448  1.6203 -0.6489 -1.7587
  322MOL0     H44411   7.116   2.824   1.629 -1.7859 -0.4366 -0.7216
  322MOL0     H44412   7.364   2.871   1.543  0.1330  0.4723 -0.0569
  322MOL0     H44413   7.303   2.791   1.395  0.0836 -0.5240  0.3839
  322MOL0     H44414   7.394   2.609   1.513 -1.3726  0.3917 -3.7849
  322MOL0     H44415   7.225   2.596   1.549 -1.3133  0.5328  1.9657
  322MOL0     H44416   6.602   2.711   1.294  2.0535  0.2776  1.9200
  322MOL0     H44417   6.421   2.569   1.187  0.3991  0.8826  0.4051
  322MOL0     H44418   5.990   2.409   1.333 -0.9320 -0.2606  0.0422
  322MOL0     H44419   5.771   2.310   1.263  1.4804  1.7784 -0.1326
  322MOL0     H44420   4.560   2.904   2.224  2.5713 -0.3762  0.1633
  322MOL0     H44421   4.405   2.974   2.395  0.6763 -0.6393  1.3176
  322MOL0     H44422   4.129   3.041   2.597  0.8745 -0.3357 -0.4865
  322MOL0     H44423   3.984   3.164   2.749 -0.5836  0.8026  0.4078
  322MOL0     H44424   3.958   3.355   2.957 -2.1045  0.5385  0.7755
  322MOL0     H44425   3.859   3.248   2.865 -0.5899  0.5776  0.2236
  322MOL0     H44426   3.741   3.406   3.034 -2.2573 -0.2854  1.8115
  322MOL0     H44427   3.826   3.309   3.166 -1.2262 -2.8179  0.4047
  322MOL0     H44428   3.601   3.235   2.964 -2.6291 -2.7016  0.9807
  322MOL0     H44429   3.712   3.113   3.025  0.7557  0.5397 -1.3925
  322MOL0     H44430   3.479   3.158   3.133 -0.3144 -0.2100  0.1418
  322MOL0     H44431   3.547   3.321   3.167  1.9227  1.3186  1.2627
  322MOL0     H44432   3.731   3.027   3.439  1.1042  1.5491 -0.1375
  322MOL0     H44433   4.168   3.008   3.091 -2.8398  0.7074 -0.3121
  322MOL0     H44434   4.287   2.794   3.032 -0.6066 -0.2602 -0.1392
  322MOL0     H44435   4.405   2.797   2.898  1.5332 -0.6286  0.6621
  322MOL0     H44436   4.417   2.904   3.040 -0.9725 -1.1795  0.5058
  323MOL0     O44437   3.108   0.024   5.343 -0.3473  0.4376  0.1473
  323MOL0     C44438   3.000   0.021   5.280  0.2688  0.5277  0.2327
  323MOL0     O44439   2.934  -0.087   5.244 -0.3671  0.0997  0.5147
  323MOL0     C44440   2.951  -0.198   5.323 -0.0963  0.0190 -0.0270
  323MOL0     C44441   3.049  -0.295   5.285  0.9534  0.3746  0.3514
  323MOL0     C44442   3.091  -0.399   5.379  0.6943  1.0306 -0.3010
  323MOL0     C44443   3.029  -0.406   5.504  0.1836  0.2384  0.4123
  323MOL0     O44444   3.053  -0.497   5.607 -0.5800 -0.3912 -0.6112
  323MOL0     C44445   3.155  -0.598   5.580 -0.2001 -0.4840  0.0128
  323MOL0     C44446   3.181  -0.697   5.694 -0.6602 -0.7248 -0.5890
  323MOL0     C44447   3.292  -0.796   5.671  1.0325  0.0405  0.4437
  323MOL0     C44448   3.327  -0.893   5.787 -0.4290 -0.4949 -1.0901
  323MOL0     C44449   3.208  -0.996   5.820 -0.5395 -0.9452 -0.3664
  323MOL0     C44450   3.259  -1.135   5.849  1.4416  0.3289 -0.0782
  323MOL0     C44451   3.357  -1.142   5.969 -0.4614 -0.6453  0.0726
  323MOL0     C44452   3.387  -1.280   6.015 -0.9706  0.3907 -0.3855
  323MOL0     N44453   3.464  -1.368   5.919 -0.8738 -0.0983  0.5555
  323MOL0     C44454   3.413  -1.452   5.822  0.6147 -0.1320 -0.3546
  323MOL0     C44455   3.520  -1.514   5.758  0.4248 -0.1740 -0.0282
  323MOL0     C44456   3.520  -1.584   5.635 -0.3678 -0.1347  0.3090
  323MOL0     C44457   3.532  -1.728   5.655 -0.2242 -0.6155  0.0685
  323MOL0     C44458   3.466  -1.813   5.545  0.0427 -0.2359  0.7672
  323MOL0     C44459   3.425  -1.949   5.589  0.0612  0.3664  0.4523
  323MOL0     O44460   3.540  -2.002   5.662 -0.0497  0.2705 -0.1781
  323MOL0     C44461   3.557  -2.129   5.702  0.4726  0.5794 -0.4640
  323MOL0     C44462   3.671  -2.177   5.779  0.3769 -1.3689 -0.1036
  323MOL0     C44463   3.683  -2.312   5.830  0.3172  0.2945  0.1028
  323MOL0     C44464   3.802  -2.341   5.918 -0.3779 -0.5050  0.4582
  323MOL0     C44465   3.581  -2.404   5.796  0.0285  0.2115  0.5873
  323MOL0     C44466   3.586  -2.549   5.837  1.1374  0.2746 -0.3354
  323MOL0     O44467   3.502  -2.637   5.765  0.1226 -0.0461 -0.7386
  323MOL0     C44468   3.483  -2.760   5.822 -0.1263  0.5923 -0.9441
  323MOL0     C44469   3.350  -2.802   5.822  0.2549 -0.1742 -0.7157
  323MOL0     C44470   3.321  -2.930   5.863  0.9639  0.1072  0.2458
  323MOL0     C44471   3.428  -3.022   5.893  0.4486  0.2958 -0.3007
  323MOL0     O44472   3.404  -3.147   5.939 -0.5807 -0.3595 -0.1240
  323MOL0     C44473   3.287  -3.215   5.912  0.3638  0.4070  0.0039
  323MOL0     C44474   3.280  -3.360   5.971 -0.0696  0.6481 -1.2670
  323MOL0     C44475   3.278  -3.371   6.119  1.4813  0.2024  0.0865
  323MOL0     C44476   3.414  -3.334   6.185 -0.0190  0.4131 -0.4945
  323MOL0     C44477   3.409  -3.342   6.335  1.1793  0.0696 -0.7228
  323MOL0     C44478   3.546  -3.341   6.405 -0.5571  0.4009  0.4674
  323MOL0     C44479   3.535  -3.352   6.557  0.0947 -0.8502  0.1582
  323MOL0     C44480   3.453  -3.469   6.601 -0.0763  0.0014  0.3988
  323MOL0    Cl44481   3.475  -3.507   6.762 -0.0062 -0.3519 -0.4890
  323MOL0     C44482   3.557  -2.977   5.889 -0.3082  0.2488  0.4941
  323MOL0     C44483   3.588  -2.848   5.860 -0.3778 -0.1215  0.1040
  323MOL0     O44484   3.666  -2.580   5.931  0.5040 -0.6763 -1.0510
  323MOL0     C44485   3.465  -2.361   5.721 -0.4470 -0.5097  0.2019
  323MOL0     C44486   3.468  -2.229   5.679  0.7834 -1.0619  0.6029
  323MOL0     N44487   3.623  -1.480   5.837 -0.8522  0.4692  0.0558
  323MOL0     N44488   3.599  -1.390   5.928 -0.4698 -0.2551 -0.4734
  323MOL0     C44489   2.931  -0.307   5.535 -0.1550  0.0199 -0.2313
  323MOL0     C44490   2.894  -0.205   5.448 -0.2381  0.1353 -0.5157
  323MOL0     C44491   2.946   0.154   5.239  0.1052  0.3228  0.5604
  323MOL0     C44492   3.026   0.269   5.265  0.9083 -0.4606  0.6688
  323MOL0     C44493   2.979   0.399   5.234  0.0475 -0.1024 -0.1445
  323MOL0     C44494   2.866   0.408   5.153  0.2926  0.3688  0.7794
  323MOL0     O44495   2.812   0.522   5.095 -0.0851  0.0322  0.1309
  323MOL0     C44496   2.831   0.638   5.175 -0.1899 -0.1837  0.0271
  323MOL0     C44497   2.745   0.638   5.300  0.8614 -0.3651 -0.1777
  323MOL0     C44498   2.748   0.791   5.344  0.3174 -0.4857  0.0188
  323MOL0     C44499   2.679   0.802   5.471 -0.4719  0.2164 -0.1116
  323MOL0     C44500   2.529   0.789   5.465  0.8537  0.2901  1.0345
  323MOL0     C44501   2.406   0.777   5.470 -0.6014 -0.1533 -0.5658
  323MOL0     C44502   2.792   0.292   5.118  0.0114 -0.3347  0.5245
  323MOL0     C44503   2.826   0.166   5.162 -0.4266 -0.0211  0.1635
  323MOL0     C44504   2.726   0.054   5.129 -1.0579 -1.2516 -0.0800
  323MOL0     H44505   3.086  -0.286   5.183  1.1282 -2.5399  0.0541
  323MOL0     H44506   3.172  -0.466   5.352  2.4790  2.7314  0.6270
  323MOL0     H44507   3.251  -0.554   5.552 -0.3853  1.1596  1.7189
  323MOL0     H44508   3.121  -0.664   5.500 -1.8697 -0.1812  0.4423
  323MOL0     H44509   3.212  -0.629   5.773 -1.4980 -0.2462 -0.6623
  323MOL0     H44510   3.084  -0.746   5.707 -2.4026  2.3857 -0.9851
  323MOL0     H44511   3.262  -0.846   5.578 -1.2329 -0.3826  1.3438
  323MOL0     H44512   3.380  -0.743   5.633  1.6711 -2.1849 -1.4629
  323MOL0     H44513   3.424  -0.938   5.763  0.2193  1.1189 -1.6082
  323MOL0     H44514   3.346  -0.831   5.874 -0.8412  2.5021 -3.0039
  323MOL0     H44515   3.139  -1.003   5.736 -1.5116  0.3959  0.2780
  323MOL0     H44516   3.154  -0.952   5.905  1.0075 -0.2494  0.3144
  323MOL0     H44517   3.172  -1.197   5.875  2.7270 -1.9836 -0.9929
  323MOL0     H44518   3.303  -1.172   5.756  1.8302 -0.0128  0.2369
  323MOL0     H44519   3.315  -1.090   6.055 -0.8870  0.9908 -1.0766
  323MOL0     H44520   3.449  -1.103   5.926 -3.3528  2.1653 -4.4823
  323MOL0     H44521   3.446  -1.271   6.107 -0.5749  0.2375 -0.6252
  323MOL0     H44522   3.292  -1.331   6.034 -0.7043 -0.6243 -1.7076
  323MOL0     H44523   3.308  -1.458   5.797  1.0819  0.4593 -2.7128
  323MOL0     H44524   3.603  -1.544   5.576  1.0843 -2.0055  0.9971
  323MOL0     H44525   3.426  -1.566   5.582 -1.9725 -1.1077  2.6746
  323MOL0     H44526   3.637  -1.752   5.671 -0.4604 -1.3069  0.6322
  323MOL0     H44527   3.492  -1.757   5.753  0.2109 -1.2474  0.0622
  323MOL0     H44528   3.375  -1.764   5.509 -0.2305 -1.6055 -0.5314
  323MOL0     H44529   3.537  -1.816   5.462  0.0391 -4.2742  0.7269
  323MOL0     H44530   3.327  -1.943   5.639 -0.2406  1.1377 -0.2014
  323MOL0     H44531   3.415  -2.010   5.499  0.8550 -1.2052  1.3920
  323MOL0     H44532   3.728  -2.092   5.818  0.5168  0.4969 -3.9693
  323MOL0     H44533   3.852  -2.435   5.891  1.6799  0.2569  1.3717
  323MOL0     H44534   3.777  -2.339   6.024 -1.1702  0.7458  0.2685
  323MOL0     H44535   3.877  -2.262   5.904  0.6135 -1.4820  0.1002
  323MOL0     H44536   3.279  -2.722   5.806  0.4534  0.6257  1.8750
  323MOL0     H44537   3.216  -2.954   5.865  0.3670  2.5141  0.9679
  323MOL0     H44538   3.197  -3.156   5.933  0.0857  0.5035 -1.4050
  323MOL0     H44539   3.297  -3.232   5.805  0.2462 -3.5288  0.4419
  323MOL0     H44540   3.188  -3.405   5.932  1.3046 -0.9117 -2.9176
  323MOL0     H44541   3.368  -3.415   5.937  0.7206 -0.6400  2.4013
  323MOL0     H44542   3.248  -3.468   6.159 -0.9391  0.7936 -0.1588
  323MOL0     H44543   3.203  -3.303   6.160 -0.3632 -0.5167 -1.9254
  323MOL0     H44544   3.451  -3.234   6.161  2.6074  0.0926  1.7892
  323MOL0     H44545   3.488  -3.402   6.143  0.8602  1.6217 -0.9613
  323MOL0     H44546   3.352  -3.264   6.387  0.5223 -1.1903  0.5117
  323MOL0     H44547   3.354  -3.431   6.367 -1.2407  1.1232 -1.6956
  323MOL0     H44548   3.602  -3.250   6.381  4.0430 -2.2166  0.0177
  323MOL0     H44549   3.596  -3.430   6.366  1.6753  0.6674  2.5299
  323MOL0     H44550   3.509  -3.261   6.611  0.9800 -0.9116  0.7225
  323MOL0     H44551   3.640  -3.367   6.586 -0.2261 -3.4443  0.2267
  323MOL0     H44552   3.452  -3.557   6.535 -1.5752  0.4541 -0.2019
  323MOL0     H44553   3.350  -3.437   6.589 -1.0639 -3.0436 -0.2792
  323MOL0     H44554   3.638  -3.045   5.914 -0.5698 -0.1840  0.1753
  323MOL0     H44555   3.690  -2.815   5.846 -0.7782  1.4892  0.7386
  323MOL0     H44556   3.389  -2.430   5.688  1.5921 -1.4035 -3.2263
  323MOL0     H44557   3.385  -2.201   5.615  0.9463 -2.0508 -0.0738
  323MOL0     H44558   2.890  -0.310   5.636  0.4534 -2.9020  0.0238
  323MOL0     H44559   2.817  -0.136   5.482 -1.8104 -1.3032 -1.0279
  323MOL0     H44560   3.117   0.258   5.324 -0.2177 -1.0318  2.3970
  323MOL0     H44561   3.034   0.484   5.272 -0.0741  0.5939 -1.4756
  323MOL0     H44562   2.932   0.653   5.214 -0.8152  1.0433  1.3041
  323MOL0     H44563   2.799   0.715   5.104  0.4056  0.6732  0.6612
  323MOL0     H44564   2.791   0.565   5.367 -1.7058 -2.4103 -0.4847
  323MOL0     H44565   2.641   0.613   5.278  0.0980  1.3724  1.2040
  323MOL0     H44566   2.851   0.826   5.355 -0.5198  3.0026 -1.7500
  323MOL0     H44567   2.682   0.846   5.277 -2.4497 -0.6810  2.3935
  323MOL0     H44568   2.707   0.901   5.507  2.3406 -0.4635 -0.2269
  323MOL0     H44569   2.705   0.722   5.541  0.3160  0.4242 -0.1621
  323MOL0     H44570   2.300   0.783   5.453 -0.2211 -1.8666 -4.5123
  323MOL0     H44571   2.709   0.300   5.049  0.7112 -3.8002 -0.9281
  323MOL0     H44572   2.632   0.099   5.095 -0.1806  0.1200 -0.7460
  323MOL0     H44573   2.767  -0.024   5.064  1.9623 -0.8030  1.1245
  323MOL0     H44574   2.714  -0.001   5.223  2.8791 -1.3607  0.5400
  324MOL0     O44575   0.022   1.208   4.667 -0.7552 -0.3246  0.7977
  324MOL0     C44576  -0.094   1.170   4.661 -0.5313  1.2485 -0.0042
  324MOL0     O44577  -0.201   1.254   4.673 -0.2584 -0.1880 -0.5074
  324MOL0     C44578  -0.191   1.392   4.705  0.0289  0.7528 -0.4380
  324MOL0     C44579  -0.271   1.445   4.809  1.1866 -0.4661  0.3014
  324MOL0     C44580  -0.287   1.585   4.840  0.1256 -0.2057 -0.1552
  324MOL0     C44581  -0.207   1.672   4.768  0.5112  0.2257  0.5697
  324MOL0     O44582  -0.226   1.807   4.810  0.0697  0.0111  0.1235
  324MOL0     C44583  -0.158   1.906   4.728  0.3195 -0.8248 -0.2693
  324MOL0     C44584  -0.015   1.926   4.788  0.4295  0.1979 -0.4563
  324MOL0     C44585   0.021   2.065   4.774 -0.0855 -0.4773 -0.7547
  324MOL0     C44586   0.053   2.086   4.624 -0.9020  1.1231  0.2770
  324MOL0     C44587   0.195   2.152   4.605  0.1595  0.2974 -0.4945
  324MOL0     C44588   0.229   2.183   4.462  0.4835 -0.5174  0.2046
  324MOL0     C44589   0.189   2.327   4.420  0.0255 -0.6594 -0.1141
  324MOL0     C44590   0.269   2.435   4.491 -0.1566 -0.3492  0.3740
  324MOL0     N44591   0.238   2.568   4.438  0.2505  0.5753  0.8901
  324MOL0     C44592   0.168   2.661   4.506 -0.8827  0.1093 -0.3740
  324MOL0     C44593   0.155   2.770   4.424  0.0850 -0.5373  0.2150
  324MOL0     C44594   0.093   2.912   4.444 -0.0347  0.0370  0.1056
  324MOL0     C44595  -0.057   2.914   4.450  0.2077  0.3188 -0.3161
  324MOL0     C44596  -0.099   3.049   4.539 -0.6852 -0.2827 -0.6987
  324MOL0     C44597  -0.249   3.045   4.544  0.6665 -0.8129  0.8664
  324MOL0     O44598  -0.300   3.159   4.629  0.2440  0.9987 -0.5994
  324MOL0     C44599  -0.438   3.166   4.625 -0.0038 -0.6553 -0.3878
  324MOL0     C44600  -0.508   3.236   4.528 -0.5178 -0.5996  0.3856
  324MOL0     C44601  -0.640   3.266   4.538  0.0455  0.1076 -0.1514
  324MOL0     C44602  -0.705   3.346   4.430 -0.4982 -0.3815 -0.2061
  324MOL0     C44603  -0.709   3.210   4.654  0.1402 -0.7905  0.8132
  324MOL0     C44604  -0.860   3.223   4.669  0.4492  0.0242 -0.3146
  324MOL0     O44605  -0.949   3.253   4.558 -0.5123  0.2360 -0.6126
  324MOL0     C44606  -1.080   3.259   4.575 -0.2720  0.6181  0.0914
  324MOL0     C44607  -1.138   3.372   4.536  0.2202 -0.6058 -0.1761
  324MOL0     C44608  -1.281   3.382   4.545  0.8704 -0.1211  0.3669
  324MOL0     C44609  -1.357   3.271   4.575 -0.5047 -0.1803 -0.4372
  324MOL0     O44610  -1.488   3.298   4.587  0.3889 -0.1631 -0.0687
  324MOL0     C44611  -1.577   3.200   4.642 -0.2986 -0.0895 -0.6607
  324MOL0     C44612  -1.723   3.248   4.648  0.5766  0.2321  0.3327
  324MOL0     C44613  -1.767   3.324   4.515  0.3139 -0.3547  0.0994
  324MOL0     C44614  -1.914   3.323   4.490  0.3797  0.1096  0.0438
  324MOL0     C44615  -1.946   3.372   4.356  0.3592 -0.3547 -0.1802
  324MOL0     C44616  -1.944   3.260   4.246 -0.7275 -0.0884  0.6360
  324MOL0     C44617  -1.960   3.319   4.104  0.3619 -0.1794 -0.0440
  324MOL0     C44618  -1.994   3.232   3.988 -0.2909  0.8583  0.3791
  324MOL0    Cl44619  -2.158   3.163   4.007  0.1001  0.0506  0.0769
  324MOL0     C44620  -1.291   3.149   4.609 -0.4493  0.7090 -0.0238
  324MOL0     C44621  -1.147   3.144   4.611  0.2289 -0.3400  0.2403
  324MOL0     O44622  -0.905   3.204   4.785 -0.0555 -0.2363  0.0390
  324MOL0     C44623  -0.639   3.127   4.746  0.6680 -0.1811 -1.2145
  324MOL0     C44624  -0.510   3.102   4.725  0.2948  0.1584 -0.6609
  324MOL0     N44625   0.232   2.732   4.313  1.3218  0.2971  0.1855
  324MOL0     N44626   0.272   2.608   4.315 -0.8646 -0.6692  0.7757
  324MOL0     C44627  -0.124   1.629   4.660  0.6395  0.7124  0.2794
  324MOL0     C44628  -0.115   1.486   4.630  0.0947  0.1611  0.8740
  324MOL0     C44629  -0.117   1.021   4.683 -0.7335  0.2397  0.2974
  324MOL0     C44630  -0.230   0.984   4.758 -0.4392 -0.9814  0.5321
  324MOL0     C44631  -0.257   0.849   4.785  0.3176 -0.2566  0.4037
  324MOL0     C44632  -0.158   0.751   4.752 -0.0196 -0.5838 -0.1695
  324MOL0     O44633  -0.155   0.616   4.784  0.0322 -0.0753 -0.2544
  324MOL0     C44634  -0.281   0.563   4.833 -0.6041 -0.4099 -0.7340
  324MOL0     C44635  -0.375   0.517   4.728  0.2144 -0.2435  0.0896
  324MOL0     C44636  -0.504   0.454   4.787  0.3497 -0.0227  0.8311
  324MOL0     C44637  -0.592   0.387   4.673  0.1728  0.3553 -0.4293
  324MOL0     C44638  -0.513   0.321   4.562  0.6296  0.6048  0.2378
  324MOL0     C44639  -0.444   0.270   4.476 -0.6563  0.1099 -0.4758
  324MOL0     C44640  -0.062   0.788   4.668 -0.7983  0.0985  0.5038
  324MOL0     C44641  -0.041   0.915   4.625  0.0620  0.1630 -1.0701
  324MOL0     C44642   0.072   0.948   4.513  0.4158 -0.2421  0.2596
  324MOL0     H44643  -0.325   1.368   4.862  1.0324 -0.4858  0.1152
  324MOL0     H44644  -0.348   1.622   4.921  0.7729  2.7065 -0.9014
  324MOL0     H44645  -0.220   1.996   4.738 -1.0968 -1.5729 -1.7435
  324MOL0     H44646  -0.159   1.876   4.622  1.3382 -2.4223  0.1350
  324MOL0     H44647  -0.024   1.899   4.893  0.5395  0.7932 -0.2915
  324MOL0     H44648   0.053   1.855   4.739  1.7096  2.7078 -2.5706
  324MOL0     H44649  -0.062   2.125   4.814 -1.0121 -3.8930  3.0392
  324MOL0     H44650   0.111   2.092   4.831 -0.6369 -2.3056  1.0942
  324MOL0     H44651   0.055   1.995   4.564 -0.0844  0.6788  0.9540
  324MOL0     H44652  -0.015   2.148   4.564 -1.5734  0.6286  0.5110
  324MOL0     H44653   0.268   2.080   4.644  0.7092  3.4264  5.5356
  324MOL0     H44654   0.211   2.242   4.666 -2.0240 -1.1899  2.5550
  324MOL0     H44655   0.335   2.174   4.439  0.4684  1.0105 -0.6216
  324MOL0     H44656   0.179   2.117   4.391  0.2908  1.1262 -1.2433
  324MOL0     H44657   0.085   2.345   4.447  0.1710 -1.4079  1.0391
  324MOL0     H44658   0.196   2.333   4.311 -1.0848 -0.9143 -0.2061
  324MOL0     H44659   0.247   2.435   4.598  2.2942  1.0280  0.9507
  324MOL0     H44660   0.377   2.422   4.480  0.3028 -0.5948  4.0451
  324MOL0     H44661   0.128   2.656   4.606  0.1684  2.6128  0.2641
  324MOL0     H44662   0.135   2.982   4.371  3.9065 -0.7651  1.3400
  324MOL0     H44663   0.134   2.955   4.536  2.5845  1.1993 -1.4690
  324MOL0     H44664  -0.080   2.912   4.343  3.2259  2.2701 -1.1205
  324MOL0     H44665  -0.086   2.822   4.502 -1.5341  1.0655  0.1134
  324MOL0     H44666  -0.067   3.038   4.643  1.1317 -0.0904 -1.2075
  324MOL0     H44667  -0.053   3.135   4.488 -2.2999 -0.2373 -2.1925
  324MOL0     H44668  -0.286   3.051   4.442 -0.6703 -0.5547  1.3448
  324MOL0     H44669  -0.292   2.951   4.581 -0.9178 -1.2810 -1.9239
  324MOL0     H44670  -0.453   3.281   4.446  0.7085 -2.4231  0.1506
  324MOL0     H44671  -0.749   3.287   4.349  0.8902 -4.3198  1.6128
  324MOL0     H44672  -0.622   3.402   4.386  1.2504 -1.8257  1.0849
  324MOL0     H44673  -0.783   3.410   4.473  1.5570 -1.2003  5.7235
  324MOL0     H44674  -1.078   3.458   4.509 -2.1707  1.0185 -0.6857
  324MOL0     H44675  -1.339   3.467   4.512  0.1529 -0.2828  1.1604
  324MOL0     H44676  -1.589   3.110   4.581 -2.1200 -2.7182  3.1165
  324MOL0     H44677  -1.555   3.166   4.744 -0.5538 -0.1078 -0.6110
  324MOL0     H44678  -1.790   3.162   4.651 -0.0611  0.6409 -1.2800
  324MOL0     H44679  -1.738   3.312   4.736 -2.2434 -0.0837  0.1806
  324MOL0     H44680  -1.726   3.270   4.429  1.1901  2.8881 -1.6751
  324MOL0     H44681  -1.731   3.426   4.500 -0.0922 -0.5979 -3.3263
  324MOL0     H44682  -1.963   3.383   4.567  0.5461 -0.7525  0.8431
  324MOL0     H44683  -1.945   3.221   4.513 -0.4229  0.7536  1.9928
  324MOL0     H44684  -2.049   3.409   4.362 -0.3886 -2.4322  1.5143
  324MOL0     H44685  -1.876   3.451   4.331  0.7996  0.1463  2.3563
  324MOL0     H44686  -2.033   3.198   4.255 -0.6661 -0.4574 -0.9503
  324MOL0     H44687  -1.850   3.204   4.251  1.1726  2.5744 -1.7471
  324MOL0     H44688  -1.865   3.370   4.084 -0.4369  1.3284 -0.1725
  324MOL0     H44689  -2.034   3.400   4.106  2.2042  1.6200 -0.5882
  324MOL0     H44690  -1.917   3.155   3.982 -2.2097 -1.2071  0.9216
  324MOL0     H44691  -2.010   3.290   3.897 -0.9986  2.2012  1.3370
  324MOL0     H44692  -1.352   3.075   4.659 -0.1648  2.0749  2.5534
  324MOL0     H44693  -1.093   3.052   4.635  1.1827 -0.0840 -0.8396
  324MOL0     H44694  -0.683   3.064   4.822  0.3128  0.3750 -0.9507
  324MOL0     H44695  -0.468   3.048   4.809 -2.5987  0.3812  1.0464
  324MOL0     H44696  -0.056   1.692   4.603  0.8039 -2.5382 -3.5473
  324MOL0     H44697  -0.056   1.458   4.544 -1.8106  2.7073 -1.4314
  324MOL0     H44698  -0.302   1.059   4.788 -0.4811  1.0406 -3.8067
  324MOL0     H44699  -0.339   0.816   4.848  1.4007 -3.3298  0.3617
  324MOL0     H44700  -0.244   0.474   4.886  0.8190  1.4229  1.5333
  324MOL0     H44701  -0.340   0.626   4.901  0.0692  1.1600 -1.5622
  324MOL0     H44702  -0.327   0.451   4.656 -0.4650 -0.8084  0.1346
  324MOL0     H44703  -0.391   0.607   4.669  4.3370  0.7586  0.2670
  324MOL0     H44704  -0.483   0.384   4.869  0.3909  1.2660  1.9505
  324MOL0     H44705  -0.559   0.535   4.835  0.3512  0.5760 -0.1495
  324MOL0     H44706  -0.648   0.467   4.625 -1.7352  0.3859  1.6847
  324MOL0     H44707  -0.671   0.320   4.710  0.0467  0.2705 -0.8385
  324MOL0     H44708  -0.371   0.225   4.412  1.7894 -0.5977  2.5838
  324MOL0     H44709   0.011   0.714   4.637  0.3088  1.5331 -0.4906
  324MOL0     H44710   0.131   0.857   4.504  1.1443 -0.3503  4.2045
  324MOL0     H44711   0.033   0.972   4.414  0.6443 -3.0205 -0.5860
  324MOL0     H44712   0.143   1.029   4.531  0.6173 -0.3884  0.1251
  325MOL0     O44713   8.287   6.632   2.668 -0.1471 -0.0552 -0.8025
  325MOL0     C44714   8.248   6.736   2.611  0.2022  0.5521  0.2386
  325MOL0     O44715   8.275   6.868   2.648 -0.1761 -0.2982 -0.5652
  325MOL0     C44716   8.342   6.893   2.767 -0.6539 -0.4939 -0.0471
  325MOL0     C44717   8.269   6.922   2.879  0.8823 -0.7070  0.4436
  325MOL0     C44718   8.328   6.940   3.003 -0.6471 -0.9745 -0.3178
  325MOL0     C44719   8.463   6.930   3.011  0.1623  0.0749 -0.2526
  325MOL0     O44720   8.517   6.950   3.137 -0.2312 -0.4457 -0.3288
  325MOL0     C44721   8.653   6.998   3.155  0.0019 -0.0944  0.7055
  325MOL0     C44722   8.706   6.978   3.301  0.4639 -0.6361  0.5763
  325MOL0     C44723   8.741   6.841   3.336  0.2134 -0.0936 -0.6962
  325MOL0     C44724   8.771   6.816   3.487 -0.7826  0.7384  0.0226
  325MOL0     C44725   8.858   6.695   3.509  0.0329  0.7727 -0.5092
  325MOL0     C44726   8.902   6.700   3.657  0.0446  0.2962  0.1031
  325MOL0     C44727   9.007   6.599   3.702  0.8589  0.1957  0.2410
  325MOL0     C44728   9.140   6.608   3.628  0.0894  0.2780  0.0525
  325MOL0     N44729   9.195   6.738   3.629  0.2842 -0.6185 -0.9993
  325MOL0     C44730   9.250   6.807   3.734  0.7574 -0.6969  0.0173
  325MOL0     C44731   9.334   6.902   3.684  0.7192  0.5602 -0.1899
  325MOL0     C44732   9.427   6.977   3.761 -0.9822  0.0397 -0.2841
  325MOL0     C44733   9.525   6.889   3.838 -0.0887 -0.5623 -0.5442
  325MOL0     C44734   9.593   6.966   3.955  0.5496  1.6148 -0.1731
  325MOL0     C44735   9.687   7.080   3.910  0.1758  0.3497 -0.6352
  325MOL0     O44736   9.761   7.118   4.032 -0.4581 -0.1705 -0.4060
  325MOL0     C44737   9.865   7.214   4.022  0.0753 -0.5399  0.2237
  325MOL0     C44738   9.924   7.259   4.134 -0.9863 -0.0014 -0.0826
  325MOL0     C44739  10.012   7.368   4.143  0.6769  0.2787  0.0812
  325MOL0     C44740  10.043   7.429   4.279  0.3793  0.8661  0.0035
  325MOL0     C44741  10.058   7.425   4.022 -0.6459  0.1761 -0.7015
  325MOL0     C44742  10.162   7.533   4.016 -0.2321 -0.2644  0.9422
  325MOL0     O44743  10.143   7.621   3.910 -0.4841 -0.2366 -0.8677
  325MOL0     C44744  10.221   7.731   3.920  0.1041 -0.2658 -0.0295
  325MOL0     C44745  10.164   7.849   3.940  0.5437  0.1576 -0.0441
  325MOL0     C44746  10.240   7.970   3.939  0.3805 -1.2109 -0.3700
  325MOL0     C44747  10.374   7.967   3.910 -0.0202  0.2062 -0.1466
  325MOL0     O44748  10.442   8.089   3.896  0.0613 -0.3689  0.3702
  325MOL0     C44749  10.577   8.081   3.925  0.1436  0.1721  0.8003
  325MOL0     C44750  10.619   8.223   3.875 -0.4598  0.3878  0.2987
  325MOL0     C44751  10.767   8.235   3.904 -0.2320 -0.4186 -0.5373
  325MOL0     C44752  10.799   8.326   4.021  0.7757 -0.5363 -0.6152
  325MOL0     C44753  10.749   8.274   4.153  0.4226 -0.4529  0.6187
  325MOL0     C44754  10.813   8.346   4.270  1.0866  0.1271 -0.8162
  325MOL0     C44755  10.744   8.327   4.402 -0.9278  0.0868  0.7842
  325MOL0     C44756  10.817   8.421   4.495 -0.5342 -0.9994  0.2280
  325MOL0    Cl44757  10.773   8.601   4.491  0.0347  0.3260 -0.5690
  325MOL0     C44758  10.437   7.841   3.893  0.3252 -1.1334  0.3058
  325MOL0     C44759  10.359   7.719   3.904 -0.5399 -0.1995  0.4107
  325MOL0     O44760  10.259   7.535   4.097  0.4117  0.0388 -0.0509
  325MOL0     C44761   9.987   7.386   3.907 -0.1145 -0.1974 -0.2306
  325MOL0     C44762   9.885   7.292   3.912 -0.5303 -0.7774  0.7080
  325MOL0     N44763   9.336   6.883   3.546  0.0974  0.1921  0.1328
  325MOL0     N44764   9.254   6.786   3.515 -0.8917  0.8074 -0.1154
  325MOL0     C44765   8.538   6.900   2.900  0.0981 -1.1538 -0.3272
  325MOL0     C44766   8.483   6.883   2.777  0.5390 -0.2174 -0.0459
  325MOL0     C44767   8.165   6.701   2.493  0.0631  0.7359 -0.0971
  325MOL0     C44768   8.166   6.796   2.379 -0.5103  0.9175 -1.3425
  325MOL0     C44769   8.082   6.781   2.277 -0.3387 -0.2148 -0.3131
  325MOL0     C44770   7.988   6.681   2.274  0.5693 -0.7076  0.2790
  325MOL0     O44771   7.887   6.672   2.181 -0.7221  0.2908  0.3751
  325MOL0     C44772   7.893   6.747   2.045  0.2568 -0.5413 -0.5124
  325MOL0     C44773   7.793   6.702   1.935  0.7444  0.0827 -0.6628
  325MOL0     C44774   7.830   6.764   1.796  0.5336  0.1262 -0.3929
  325MOL0     C44775   7.797   6.681   1.675 -0.2742  0.3268  0.8959
  325MOL0     C44776   7.672   6.615   1.682 -1.1367  0.1919 -0.2018
  325MOL0     C44777   7.571   6.554   1.680  0.8652  0.4611 -0.7511
  325MOL0     C44778   7.983   6.589   2.371 -0.6596 -0.1091 -0.2880
  325MOL0     C44779   8.065   6.598   2.486 -1.1177 -0.5306  0.9833
  325MOL0     C44780   8.032   6.507   2.600  0.3832 -0.6214  0.3651
  325MOL0     H44781   8.162   6.935   2.869  1.0212 -0.2704 -0.5780
  325MOL0     H44782   8.270   6.957   3.092  1.3421  1.1422  0.6704
  325MOL0     H44783   8.655   7.105   3.131 -0.7372  0.4786  2.9674
  325MOL0     H44784   8.721   6.943   3.088 -1.6142 -2.7992  1.1546
  325MOL0     H44785   8.795   7.039   3.322  0.0168  0.7013 -1.1390
  325MOL0     H44786   8.622   7.003   3.367 -1.8887 -1.5428 -1.8694
  325MOL0     H44787   8.653   6.780   3.313  0.8209 -1.1004 -0.4130
  325MOL0     H44788   8.820   6.799   3.274 -0.2251 -0.6316 -0.8973
  325MOL0     H44789   8.821   6.904   3.527 -0.0939  0.3529  0.0214
  325MOL0     H44790   8.675   6.810   3.539 -1.4782  4.0445 -0.6138
  325MOL0     H44791   8.947   6.703   3.446 -1.0574  2.8975 -1.8599
  325MOL0     H44792   8.811   6.596   3.508  2.3858 -0.4202  0.1870
  325MOL0     H44793   8.935   6.803   3.674 -0.9408  1.0767 -2.3436
  325MOL0     H44794   8.802   6.687   3.699 -0.2838  2.2765 -0.0032
  325MOL0     H44795   8.959   6.501   3.693 -0.9663  0.7259  3.0917
  325MOL0     H44796   9.020   6.627   3.807 -1.1859  2.4140  0.0002
  325MOL0     H44797   9.210   6.534   3.669 -0.6134 -0.4593 -0.0485
  325MOL0     H44798   9.126   6.575   3.525  1.2356 -0.1321  0.0076
  325MOL0     H44799   9.235   6.765   3.833 -2.0090 -0.2736 -0.1282
  325MOL0     H44800   9.366   7.033   3.833 -0.2267 -1.9386  2.0542
  325MOL0     H44801   9.469   7.041   3.683  0.3611  0.0368  0.4011
  325MOL0     H44802   9.486   6.797   3.882  2.4767 -1.0307  0.9757
  325MOL0     H44803   9.612   6.854   3.781  0.5110 -2.4055  1.3541
  325MOL0     H44804   9.524   7.005   4.029  2.4494  2.4679  1.2409
  325MOL0     H44805   9.648   6.889   4.009 -1.8521  0.5209  0.7905
  325MOL0     H44806   9.758   7.050   3.833 -1.1142 -0.0310 -1.7207
  325MOL0     H44807   9.625   7.164   3.877 -0.5538 -0.0030 -0.2125
  325MOL0     H44808   9.901   7.212   4.230 -1.4490  1.4499  0.5482
  325MOL0     H44809   9.959   7.401   4.343  2.1097 -0.5586  1.8096
  325MOL0     H44810  10.057   7.537   4.290  1.8324  0.5561  1.8240
  325MOL0     H44811  10.126   7.372   4.322 -2.6778 -2.3084  2.2603
  325MOL0     H44812  10.059   7.845   3.965  0.5689 -0.5551 -0.0302
  325MOL0     H44813  10.199   8.067   3.966 -1.2900 -1.8565 -0.4775
  325MOL0     H44814  10.593   8.059   4.031 -0.7146  2.0987  1.3744
  325MOL0     H44815  10.622   8.013   3.851 -0.4826  1.6280 -0.9960
  325MOL0     H44816  10.595   8.236   3.769  0.1558  2.5039  0.3651
  325MOL0     H44817  10.573   8.303   3.935  0.7130  3.5317 -2.6895
  325MOL0     H44818  10.812   8.267   3.809  2.6283 -1.0001  0.5391
  325MOL0     H44819  10.808   8.134   3.912 -0.8581 -0.5550  1.2689
  325MOL0     H44820  10.739   8.415   3.997 -2.0833 -2.1446  0.1068
  325MOL0     H44821  10.906   8.346   4.031  1.0945 -0.4299 -3.5003
  325MOL0     H44822  10.642   8.296   4.143  0.9148  1.0285 -2.9416
  325MOL0     H44823  10.771   8.167   4.149  1.8831 -0.1752 -3.2965
  325MOL0     H44824  10.808   8.448   4.233 -0.5983  0.4413  0.1329
  325MOL0     H44825  10.915   8.309   4.286  0.7560 -0.2674  0.4876
  325MOL0     H44826  10.763   8.226   4.441  1.0105  1.3852  3.6412
  325MOL0     H44827  10.637   8.344   4.412 -1.1948  0.2853 -1.9281
  325MOL0     H44828  10.925   8.410   4.478 -0.4530  0.8301 -0.6782
  325MOL0     H44829  10.801   8.391   4.599 -1.4464  3.7755  1.6843
  325MOL0     H44830  10.544   7.825   3.884  0.2991 -2.7024  2.0128
  325MOL0     H44831  10.413   7.625   3.902  1.3647  0.8538 -1.2021
  325MOL0     H44832  10.004   7.430   3.810 -1.9884 -0.2297 -0.6027
  325MOL0     H44833   9.832   7.300   3.818  3.1557  2.2892 -1.3829
  325MOL0     H44834   8.644   6.920   2.916 -0.7981  2.7286  1.8636
  325MOL0     H44835   8.544   6.863   2.690 -0.1984 -1.8458 -0.2253
  325MOL0     H44836   8.252   6.861   2.370  1.4616 -1.2857  0.4224
  325MOL0     H44837   8.101   6.841   2.188 -1.7325 -0.3176 -0.6979
  325MOL0     H44838   7.887   6.855   2.060 -3.4041 -0.3950 -2.1079
  325MOL0     H44839   7.986   6.720   1.994 -0.5880 -0.1360 -2.3251
  325MOL0     H44840   7.687   6.721   1.959  0.5592 -2.2612  0.6590
  325MOL0     H44841   7.803   6.594   1.939  0.8108  0.0884 -0.6788
  325MOL0     H44842   7.783   6.861   1.778  0.8523  0.4544  0.5140
  325MOL0     H44843   7.937   6.786   1.797  0.1973  2.2840  3.1066
  325MOL0     H44844   7.868   6.601   1.653 -2.8405 -1.6679 -0.8685
  325MOL0     H44845   7.814   6.752   1.595  1.8364  0.8375  1.7357
  325MOL0     H44846   7.479   6.500   1.693  1.4800 -1.1758 -2.6478
  325MOL0     H44847   7.905   6.514   2.376 -0.3879 -0.3414  3.9298
  325MOL0     H44848   7.924   6.487   2.602  0.2857 -0.0875  0.4679
  325MOL0     H44849   8.082   6.411   2.584  5.6672  1.5072  2.0849
  325MOL0     H44850   8.053   6.541   2.702  0.1593  1.6295 -0.2943
  326MOL0     O44851   2.412   6.542   7.048  0.2738  0.5029  0.1782
  326MOL0     C44852   2.506   6.492   7.105 -0.5781 -0.3441 -0.4556
  326MOL0     O44853   2.612   6.434   7.042  0.0368 -0.1680  0.4427
  326MOL0     C44854   2.614   6.464   6.902 -0.4437  0.6068  0.1669
  326MOL0     C44855   2.736   6.527   6.868 -0.1410 -0.1953  0.6317
  326MOL0     C44856   2.758   6.541   6.725  0.2591 -0.3446  0.7892
  326MOL0     C44857   2.672   6.500   6.630  0.7945  0.2370 -0.6352
  326MOL0     O44858   2.693   6.508   6.490  0.9050 -0.0892 -0.7488
  326MOL0     C44859   2.644   6.629   6.439 -0.6402 -0.0611  0.5757
  326MOL0     C44860   2.649   6.614   6.286  0.0064 -0.4357 -0.3058
  326MOL0     C44861   2.537   6.521   6.241  0.8742 -0.4029  0.1451
  326MOL0     C44862   2.579   6.438   6.125  1.0116 -0.0683  0.4571
  326MOL0     C44863   2.462   6.339   6.083 -0.6814  0.8844 -0.5542
  326MOL0     C44864   2.489   6.266   5.946  0.3664  0.0271 -0.0581
  326MOL0     C44865   2.358   6.219   5.871 -0.0982 -0.0187 -1.9043
  326MOL0     C44866   2.284   6.086   5.927  0.5068 -0.7908  0.1636
  326MOL0     N44867   2.367   5.979   5.972  0.3475 -0.4232  0.3344
  326MOL0     C44868   2.473   5.938   5.901  0.3174 -0.2506  0.1163
  326MOL0     C44869   2.554   5.874   5.993 -0.1784 -0.8396  0.7070
  326MOL0     C44870   2.694   5.827   5.979 -0.0884  0.6619  0.3625
  326MOL0     C44871   2.753   5.807   5.839  0.0047 -0.0120 -0.1844
  326MOL0     C44872   2.892   5.752   5.847 -0.2702  0.7126 -0.2878
  326MOL0     C44873   2.943   5.700   5.709  0.3448  0.1976 -0.4137
  326MOL0     O44874   2.981   5.795   5.617 -0.1759  0.0883 -0.4557
  326MOL0     C44875   3.048   5.744   5.515 -0.3380  0.4266  0.2348
  326MOL0     C44876   3.190   5.741   5.515 -0.5421  0.3104  0.3796
  326MOL0     C44877   3.261   5.683   5.411 -0.2731  1.0597  1.0443
  326MOL0     C44878   3.414   5.687   5.433 -0.2611 -0.2203 -0.4699
  326MOL0     C44879   3.195   5.627   5.300  0.4984  0.2658 -0.5336
  326MOL0     C44880   3.260   5.562   5.187  0.2842  0.4475 -0.2830
  326MOL0     O44881   3.185   5.536   5.078 -0.0290 -0.3717  0.0128
  326MOL0     C44882   3.230   5.432   4.988 -0.4192  0.1666 -1.1351
  326MOL0     C44883   3.246   5.462   4.854  0.3308 -0.5043  0.7824
  326MOL0     C44884   3.287   5.359   4.764  0.2438 -0.1972  0.1567
  326MOL0     C44885   3.329   5.235   4.813 -0.3104  0.1029  1.1444
  326MOL0     O44886   3.400   5.143   4.744 -0.3361  0.6131  0.7510
  326MOL0     C44887   3.386   5.138   4.601  0.0642  0.3242  0.5642
  326MOL0     C44888   3.459   5.012   4.537  1.3784 -0.1167 -0.4617
  326MOL0     C44889   3.606   5.023   4.557  0.3912  0.5594  0.7006
  326MOL0     C44890   3.679   4.922   4.463  0.9437  0.6143 -0.4758
  326MOL0     C44891   3.829   4.932   4.489 -0.5126  0.4292 -0.1865
  326MOL0     C44892   3.905   4.831   4.394  0.7540 -0.6728  0.3355
  326MOL0     C44893   4.044   4.817   4.431  0.2113 -0.2746 -0.2411
  326MOL0     C44894   4.146   4.812   4.317 -0.0668  0.2137 -0.1836
  326MOL0    Cl44895   4.311   4.839   4.366  0.0936 -0.0420  0.0257
  326MOL0     C44896   3.326   5.210   4.949  0.3839 -1.2257 -0.7957
  326MOL0     C44897   3.282   5.312   5.032 -1.1345  0.2505 -0.4854
  326MOL0     O44898   3.371   5.519   5.201 -0.2436  0.6375 -0.5376
  326MOL0     C44899   3.056   5.640   5.296  1.0646 -0.2423 -0.5330
  326MOL0     C44900   2.986   5.702   5.395 -0.4205 -1.4171 -0.7125
  326MOL0     N44901   2.493   5.872   6.117  0.1361 -0.3151 -0.6534
  326MOL0     N44902   2.371   5.928   6.100  0.2319 -0.7329  0.4374
  326MOL0     C44903   2.549   6.457   6.664 -0.4492  0.5487 -1.0543
  326MOL0     C44904   2.524   6.429   6.794 -0.6123  1.1297 -0.6039
  326MOL0     C44905   2.502   6.494   7.254  0.2540 -0.4513  0.2116
  326MOL0     C44906   2.621   6.468   7.313  0.7160 -0.1482 -0.5774
  326MOL0     C44907   2.638   6.480   7.457 -1.0360  0.0207 -0.3875
  326MOL0     C44908   2.523   6.516   7.535 -0.2857  0.2793 -0.8436
  326MOL0     O44909   2.519   6.529   7.671  0.9757 -0.2002  0.3802
  326MOL0     C44910   2.640   6.548   7.746 -0.3380 -0.6227  0.4340
  326MOL0     C44911   2.708   6.682   7.723  0.0112  0.5700 -0.0539
  326MOL0     C44912   2.835   6.715   7.808  0.4828  0.9571 -0.0089
  326MOL0     C44913   2.884   6.856   7.793 -0.3365  0.9007 -0.1865
  326MOL0     C44914   2.798   6.936   7.881  0.3780 -1.1631  0.0264
  326MOL0     C44915   2.736   7.020   7.945 -0.1847  0.1646 -0.2821
  326MOL0     C44916   2.406   6.514   7.473  0.5652 -0.5327  0.8524
  326MOL0     C44917   2.388   6.508   7.331 -0.6197 -0.0560 -0.8403
  326MOL0     C44918   2.250   6.538   7.290 -0.5029  0.1045 -0.3470
  326MOL0     H44919   2.817   6.549   6.937  2.0029  0.7089 -2.0009
  326MOL0     H44920   2.854   6.580   6.692 -0.2414  0.7469  0.6056
  326MOL0     H44921   2.716   6.708   6.462  0.1175 -0.5416 -0.1038
  326MOL0     H44922   2.544   6.658   6.471 -0.6648 -1.3866  1.7837
  326MOL0     H44923   2.634   6.714   6.243  2.3496  0.5039  0.8645
  326MOL0     H44924   2.749   6.593   6.245  0.9347  3.8438 -0.7965
  326MOL0     H44925   2.495   6.471   6.328 -1.3331  0.8824 -0.1040
  326MOL0     H44926   2.451   6.583   6.215  0.3933 -1.5698 -1.1217
  326MOL0     H44927   2.601   6.498   6.036  1.5620 -1.2010 -0.1967
  326MOL0     H44928   2.673   6.385   6.145  1.0762 -1.9959 -3.8544
  326MOL0     H44929   2.368   6.395   6.077 -2.6326 -2.0670  0.6210
  326MOL0     H44930   2.445   6.265   6.161  1.3214 -0.5817 -1.4280
  326MOL0     H44931   2.536   6.341   5.882  0.3940  0.2218  0.1837
  326MOL0     H44932   2.553   6.179   5.960 -1.7442 -1.8545 -1.4845
  326MOL0     H44933   2.387   6.199   5.768  0.2717 -3.7232 -1.2223
  326MOL0     H44934   2.290   6.304   5.880  0.4505  0.2567  0.3822
  326MOL0     H44935   2.213   6.114   6.006 -0.9590 -4.3600  0.3015
  326MOL0     H44936   2.228   6.038   5.846  1.7377 -1.2739 -0.4274
  326MOL0     H44937   2.494   5.940   5.794  1.3506 -2.7610  0.1951
  326MOL0     H44938   2.697   5.728   6.025 -0.7541 -1.2301 -3.2858
  326MOL0     H44939   2.758   5.897   6.034  2.1942 -1.8502  1.1230
  326MOL0     H44940   2.693   5.732   5.786  1.1877 -0.8174 -0.4290
  326MOL0     H44941   2.760   5.905   5.791  1.9941  1.2709  2.4873
  326MOL0     H44942   2.960   5.821   5.899  1.0430 -1.5354  1.1391
  326MOL0     H44943   2.876   5.667   5.914 -2.2244  0.8362 -0.5554
  326MOL0     H44944   3.027   5.634   5.732 -0.0717  0.0440  0.7856
  326MOL0     H44945   2.861   5.639   5.670 -0.3776  1.1909 -0.5002
  326MOL0     H44946   3.241   5.796   5.593 -0.1695 -2.0787  1.9171
  326MOL0     H44947   3.463   5.753   5.362 -1.9687  3.7462  1.7263
  326MOL0     H44948   3.455   5.587   5.419 -0.2220 -0.0641 -1.5572
  326MOL0     H44949   3.449   5.700   5.535  0.3240  0.0565 -0.7004
  326MOL0     H44950   3.217   5.555   4.806  2.4267  0.1985  0.7836
  326MOL0     H44951   3.284   5.390   4.660 -0.1367  0.9858  0.5045
  326MOL0     H44952   3.280   5.135   4.576  0.4768 -1.1903 -1.2848
  326MOL0     H44953   3.431   5.231   4.566  0.9338  0.2696  1.4890
  326MOL0     H44954   3.415   4.917   4.567  1.1055 -0.0671 -0.6989
  326MOL0     H44955   3.425   5.025   4.434 -0.9424  0.9708  0.3700
  326MOL0     H44956   3.638   5.010   4.661 -0.1965 -1.2917  0.6812
  326MOL0     H44957   3.623   5.127   4.529  3.0174 -0.1922 -0.8449
  326MOL0     H44958   3.664   4.961   4.362  0.2553  0.4852 -0.4246
  326MOL0     H44959   3.642   4.820   4.477 -0.7752  1.4551  1.5205
  326MOL0     H44960   3.860   5.034   4.468  0.3091  0.7944  2.4230
  326MOL0     H44961   3.865   4.911   4.590  2.5279 -0.4974 -1.3495
  326MOL0     H44962   3.892   4.872   4.293 -0.7151  0.3470  0.9034
  326MOL0     H44963   3.850   4.736   4.396 -3.2748  1.3904 -0.8062
  326MOL0     H44964   4.058   4.734   4.501  1.4334  1.4867  1.7204
  326MOL0     H44965   4.067   4.905   4.492  0.7433  0.2788 -1.2156
  326MOL0     H44966   4.111   4.876   4.235 -4.0180 -1.0883  0.2982
  326MOL0     H44967   4.147   4.708   4.283 -0.4149 -0.5703  2.0825
  326MOL0     H44968   3.354   5.113   4.990  0.9293 -1.0172 -0.6700
  326MOL0     H44969   3.279   5.298   5.140  2.0946  2.2759 -0.0197
  326MOL0     H44970   2.990   5.606   5.216 -1.1621 -2.3630  2.0077
  326MOL0     H44971   2.882   5.733   5.387 -0.1523 -0.4506 -0.6515
  326MOL0     H44972   2.473   6.438   6.589  0.1832  0.0096 -1.5816
  326MOL0     H44973   2.429   6.391   6.831 -0.3260  1.4141  0.4727
  326MOL0     H44974   2.710   6.438   7.258  1.4877 -1.2724  1.1897
  326MOL0     H44975   2.733   6.469   7.507 -0.4697  0.0777 -1.4364
  326MOL0     H44976   2.628   6.527   7.853 -0.4248 -1.3294  0.2873
  326MOL0     H44977   2.715   6.474   7.717 -0.6621 -0.2979 -1.3301
  326MOL0     H44978   2.638   6.764   7.737  0.9475  1.1925  1.1613
  326MOL0     H44979   2.751   6.676   7.623  0.9166  0.4533  0.3281
  326MOL0     H44980   2.821   6.689   7.914  0.7916 -1.2578 -0.4637
  326MOL0     H44981   2.908   6.639   7.779 -0.7765  0.4301 -2.0410
  326MOL0     H44982   2.882   6.881   7.687 -1.1403 -0.1833 -0.4417
  326MOL0     H44983   2.986   6.865   7.831 -0.8820 -2.2309  2.4340
  326MOL0     H44984   2.670   7.096   7.980 -0.8573 -1.0413  1.2036
  326MOL0     H44985   2.310   6.524   7.521  0.3141 -1.0361  0.4635
  326MOL0     H44986   2.201   6.467   7.223 -0.4671  0.2130 -0.4876
  326MOL0     H44987   2.182   6.558   7.374  0.3252  1.0699  0.1216
  326MOL0     H44988   2.245   6.634   7.238 -0.5214  1.0528  1.3271
  327MOL0     O44989   5.768   0.480   6.193 -0.2324 -1.0173  0.4835
  327MOL0     C44990   5.693   0.558   6.250  0.4237  0.2842 -0.2008
  327MOL0     O44991   5.727   0.682   6.302 -0.4396 -0.2040 -0.0633
  327MOL0     C44992   5.846   0.747   6.284  0.1620 -0.6961 -0.9455
  327MOL0     C44993   5.834   0.883   6.328  0.0369  0.3290 -0.0614
  327MOL0     C44994   5.953   0.957   6.333 -0.7417 -0.6286 -1.3636
  327MOL0     C44995   6.073   0.912   6.284 -0.4272 -0.3691 -0.1989
  327MOL0     O44996   6.185   0.995   6.279 -0.4683  0.9326 -0.4137
  327MOL0     C44997   6.179   1.110   6.365  0.2382 -0.3086 -0.5374
  327MOL0     C44998   6.313   1.189   6.367 -0.1873  0.0789  0.2420
  327MOL0     C44999   6.375   1.214   6.229  0.5194 -0.0302 -0.2216
  327MOL0     C45000   6.469   1.109   6.175  0.2338 -0.5783  0.6255
  327MOL0     C45001   6.449   1.090   6.030  0.3496  0.8651  1.0245
  327MOL0     C45002   6.551   0.988   5.978 -0.0644  0.0254  0.3825
  327MOL0     C45003   6.476   0.856   5.937 -0.5097  0.2166 -1.1585
  327MOL0     C45004   6.388   0.855   5.811  0.1514 -0.6966 -0.2001
  327MOL0     N45005   6.457   0.904   5.688 -0.7334  0.1227  0.4516
  327MOL0     C45006   6.554   0.837   5.612 -1.1319  0.6205 -0.4345
  327MOL0     C45007   6.594   0.918   5.512 -0.6036 -0.6213 -0.1717
  327MOL0     C45008   6.700   0.882   5.413  0.1914 -0.3694 -0.1674
  327MOL0     C45009   6.839   0.900   5.465 -0.8995 -0.4956 -0.6091
  327MOL0     C45010   6.874   1.049   5.470 -0.9709 -0.2141 -0.2489
  327MOL0     C45011   7.008   1.082   5.527 -0.3606  0.8989  0.8403
  327MOL0     O45012   7.115   1.006   5.461 -0.0236  0.9814 -0.2934
  327MOL0     C45013   7.245   1.018   5.493 -0.2024  0.8169 -0.3497
  327MOL0     C45014   7.288   1.104   5.588  0.1278  0.6496  0.1456
  327MOL0     C45015   7.425   1.114   5.618  0.2595  0.2584 -0.1288
  327MOL0     C45016   7.476   1.230   5.700 -0.8922 -0.2684 -0.8333
  327MOL0     C45017   7.511   1.015   5.562 -1.3620  0.1219  0.3114
  327MOL0     C45018   7.661   1.009   5.590  0.0254  0.3307  0.0298
  327MOL0     O45019   7.713   1.085   5.693  0.4726  0.3036 -0.0781
  327MOL0     C45020   7.845   1.076   5.713 -0.1964  0.4540 -0.5262
  327MOL0     C45021   7.914   1.197   5.713 -0.9498 -0.1271  0.0902
  327MOL0     C45022   8.051   1.201   5.728 -0.1454 -0.4359  0.9921
  327MOL0     C45023   8.129   1.093   5.742 -0.7520 -0.4279  0.1701
  327MOL0     O45024   8.264   1.109   5.735  0.5849 -0.2061  0.2067
  327MOL0     C45025   8.316   1.046   5.616  0.0587  0.3347  0.1826
  327MOL0     C45026   8.445   1.109   5.568  0.1541  0.3662 -0.7469
  327MOL0     C45027   8.547   1.134   5.675 -0.2466 -0.2191  0.2085
  327MOL0     C45028   8.622   1.002   5.729 -0.9911 -0.2400  0.0525
  327MOL0     C45029   8.693   1.017   5.869  0.2216  0.0589 -0.3721
  327MOL0     C45030   8.808   1.112   5.866 -0.6215  0.6179  0.7975
  327MOL0     C45031   8.880   1.121   5.998 -1.1971 -0.1287 -0.0198
  327MOL0     C45032   8.803   1.182   6.116  0.3012 -0.4168 -0.3940
  327MOL0    Cl45033   8.743   1.348   6.102 -0.1751  0.1184 -0.0920
  327MOL0     C45034   8.064   0.966   5.738  0.9722 -0.1887  1.0942
  327MOL0     C45035   7.925   0.961   5.726 -0.0902 -1.0311  0.3260
  327MOL0     O45036   7.725   0.967   5.496  0.1814 -0.2490 -0.1138
  327MOL0     C45037   7.466   0.921   5.467 -0.3118 -1.2153 -0.5446
  327MOL0     C45038   7.334   0.927   5.430 -0.3488  0.7692  1.2190
  327MOL0     N45039   6.518   1.036   5.528 -0.4116  0.2699  0.0920
  327MOL0     N45040   6.447   1.034   5.642  0.3117  0.6859  0.1852
  327MOL0     C45041   6.074   0.792   6.217  0.4407  0.5099  0.7338
  327MOL0     C45042   5.963   0.706   6.218  0.4226 -0.3978  0.7356
  327MOL0     C45043   5.560   0.497   6.276 -0.3048  0.7858 -0.2951
  327MOL0     C45044   5.551   0.366   6.287  0.9426  0.2488  0.6231
  327MOL0     C45045   5.430   0.295   6.297  0.8796 -0.7828  0.2599
  327MOL0     C45046   5.318   0.372   6.333  0.0621  0.2266  0.2526
  327MOL0     O45047   5.190   0.322   6.345 -1.0981 -0.0424  0.1882
  327MOL0     C45048   5.176   0.181   6.378 -0.0986 -0.4789 -0.0530
  327MOL0     C45049   5.044   0.160   6.439  0.2292 -0.6565  0.7550
  327MOL0     C45050   4.922   0.148   6.328 -1.2206 -0.2763 -0.9290
  327MOL0     C45051   4.782   0.159   6.388  0.2197  0.7247  0.5070
  327MOL0     C45052   4.677   0.090   6.309  0.4423  0.2000  0.6585
  327MOL0     C45053   4.598   0.021   6.257  0.0941 -0.0391  0.6370
  327MOL0     C45054   5.326   0.509   6.315 -0.2345  0.0370 -0.6068
  327MOL0     C45055   5.443   0.573   6.273 -0.7645  0.1939 -0.4826
  327MOL0     C45056   5.444   0.721   6.242  0.0905  0.4055 -0.1970
  327MOL0     H45057   5.743   0.915   6.377 -1.5510 -1.2843 -1.8354
  327MOL0     H45058   5.952   1.059   6.371  1.5867 -0.1517 -2.3837
  327MOL0     H45059   6.155   1.087   6.469  1.9138  0.6214  0.0937
  327MOL0     H45060   6.109   1.181   6.320 -0.3069  0.5431  1.5727
  327MOL0     H45061   6.289   1.290   6.403 -1.4600  0.1551 -0.7389
  327MOL0     H45062   6.383   1.137   6.433 -0.3714  0.7656  0.9964
  327MOL0     H45063   6.292   1.235   6.161  0.4061 -0.5960 -0.2565
  327MOL0     H45064   6.440   1.302   6.237  1.8071 -1.0892  1.5857
  327MOL0     H45065   6.570   1.151   6.180  0.1155  0.0221 -1.0619
  327MOL0     H45066   6.443   1.028   6.243 -1.1206  0.9132  1.9718
  327MOL0     H45067   6.483   1.170   5.963  2.5389 -0.1636  0.7965
  327MOL0     H45068   6.346   1.073   6.000  1.0964 -0.4488 -1.0297
  327MOL0     H45069   6.603   1.031   5.892 -1.1149  2.6383  0.9709
  327MOL0     H45070   6.632   0.974   6.050 -0.3605  1.3218  0.9971
  327MOL0     H45071   6.408   0.831   6.020  2.1712 -1.2411  0.7645
  327MOL0     H45072   6.554   0.779   5.935  0.7299  1.2381  1.9830
  327MOL0     H45073   6.349   0.753   5.798  1.7022 -1.3667  0.1380
  327MOL0     H45074   6.309   0.926   5.835 -0.7865 -0.9990 -2.1561
  327MOL0     H45075   6.579   0.734   5.639 -0.3308  1.1115  0.8208
  327MOL0     H45076   6.676   0.939   5.323  0.9028  1.1057  0.5380
  327MOL0     H45077   6.680   0.776   5.395  0.8861 -1.0687  2.6904
  327MOL0     H45078   6.841   0.857   5.565  0.1101 -2.4261 -1.4124
  327MOL0     H45079   6.907   0.837   5.407  1.7508 -0.5730  2.3252
  327MOL0     H45080   6.874   1.098   5.372  2.2625  2.4232  0.8775
  327MOL0     H45081   6.810   1.110   5.534  0.4535 -0.6757  1.7114
  327MOL0     H45082   7.028   1.189   5.510 -1.7909  1.2161  1.0103
  327MOL0     H45083   7.004   1.058   5.634  0.5446 -1.0405  0.4699
  327MOL0     H45084   7.220   1.166   5.645  3.2790  1.6037  3.2772
  327MOL0     H45085   7.395   1.301   5.721 -0.6203  0.4295 -2.0015
  327MOL0     H45086   7.542   1.300   5.647 -1.0039  0.5067  0.0327
  327MOL0     H45087   7.525   1.194   5.791  3.1014  0.0695 -2.5955
  327MOL0     H45088   7.863   1.293   5.707  0.3232  0.5826  0.2667
  327MOL0     H45089   8.113   1.290   5.731  0.0649 -0.6017  1.8724
  327MOL0     H45090   8.330   0.941   5.642 -4.6739 -0.5982 -0.0844
  327MOL0     H45091   8.243   1.043   5.534  0.5208  0.7838 -0.2525
  327MOL0     H45092   8.495   1.048   5.492  2.2367 -1.6492  1.9757
  327MOL0     H45093   8.413   1.204   5.525 -0.8917  0.8364  0.9619
  327MOL0     H45094   8.493   1.183   5.757  0.2177  0.0940  0.3259
  327MOL0     H45095   8.623   1.208   5.651  1.0567 -1.8872 -1.0920
  327MOL0     H45096   8.701   0.974   5.659 -2.2255 -1.9006 -0.7424
  327MOL0     H45097   8.555   0.916   5.736  0.6135 -1.4642  1.2922
  327MOL0     H45098   8.614   1.049   5.938  1.0117 -0.1500  0.6565
  327MOL0     H45099   8.733   0.920   5.901 -2.0425  0.1290  3.3450
  327MOL0     H45100   8.780   1.215   5.842 -3.0563 -0.3338 -0.8145
  327MOL0     H45101   8.874   1.072   5.789 -0.9573 -1.0675  1.3449
  327MOL0     H45102   8.970   1.179   5.974 -2.2692  0.3143 -3.4334
  327MOL0     H45103   8.908   1.021   6.035 -1.2106  0.6532  2.2723
  327MOL0     H45104   8.880   1.185   6.195 -1.4547  1.8782  1.3607
  327MOL0     H45105   8.722   1.118   6.152  1.4442 -1.3862  0.5826
  327MOL0     H45106   8.127   0.878   5.736  0.0320 -0.9443 -1.9494
  327MOL0     H45107   7.885   0.861   5.735 -1.6574 -0.3747  1.2012
  327MOL0     H45108   7.525   0.837   5.433  2.1737  0.5026 -0.7866
  327MOL0     H45109   7.295   0.845   5.370  0.2131  1.4009 -0.0633
  327MOL0     H45110   6.167   0.754   6.176  0.2570 -0.6133  1.3220
  327MOL0     H45111   5.963   0.609   6.169 -0.7529 -0.0106 -0.0801
  327MOL0     H45112   5.637   0.301   6.273  1.0168  0.2022  1.2465
  327MOL0     H45113   5.410   0.188   6.300 -2.7892 -0.4112 -2.8528
  327MOL0     H45114   5.183   0.127   6.284  0.1597  1.4860 -1.2041
  327MOL0     H45115   5.256   0.136   6.437  1.8950  1.5912 -1.0604
  327MOL0     H45116   5.000   0.247   6.490 -2.9630 -0.4509 -1.9770
  327MOL0     H45117   5.026   0.065   6.490 -1.9457 -0.8155 -0.1819
  327MOL0     H45118   4.934   0.230   6.255  1.0251  1.0740  0.7954
  327MOL0     H45119   4.930   0.059   6.266  0.9416 -0.1410 -0.9393
  327MOL0     H45120   4.757   0.264   6.399  1.9779  1.0196  2.2979
  327MOL0     H45121   4.792   0.112   6.487  3.3442 -0.2514 -0.1338
  327MOL0     H45122   4.528  -0.043   6.207  0.7224 -1.4905  1.5460
  327MOL0     H45123   5.233   0.564   6.325  0.3578  1.2154 -1.3338
  327MOL0     H45124   5.343   0.763   6.235  0.3770  0.8501 -2.2107
  327MOL0     H45125   5.502   0.777   6.315  1.6815  0.9457 -1.7889
  327MOL0     H45126   5.492   0.732   6.144  2.2988 -2.8410  0.3604
  328MOL0     O45127   0.967   1.629   3.982  0.7431 -0.0600  0.1732
  328MOL0     C45128   1.026   1.526   4.024 -0.1977  0.1828  0.2676
  328MOL0     O45129   1.064   1.417   3.958  0.0905  0.2891 -0.2829
  328MOL0     C45130   0.973   1.364   3.865 -0.8942  0.3771 -0.0874
  328MOL0     C45131   0.838   1.388   3.863 -0.0809  0.6844  0.2734
  328MOL0     C45132   0.762   1.327   3.758 -0.6635 -0.3935 -0.3641
  328MOL0     C45133   0.822   1.238   3.660 -0.5840 -0.2983 -0.8803
  328MOL0     O45134   0.756   1.180   3.550  0.3740 -0.0021  0.6627
  328MOL0     C45135   0.614   1.167   3.547  0.2590  0.4027 -0.1200
  328MOL0     C45136   0.560   1.116   3.417 -0.8470  0.3637 -0.6625
  328MOL0     C45137   0.548   1.201   3.294  0.3484 -0.0683 -0.0049
  328MOL0     C45138   0.452   1.320   3.292 -0.7298  0.0778  0.1525
  328MOL0     C45139   0.469   1.417   3.168 -0.0360 -0.5938 -1.0766
  328MOL0     C45140   0.451   1.347   3.030 -0.0712 -1.5443  1.4566
  328MOL0     C45141   0.318   1.279   2.993 -0.4766  0.8252 -0.5450
  328MOL0     C45142   0.336   1.199   2.862  0.0102 -0.1289 -1.1172
  328MOL0     N45143   0.405   1.070   2.887 -0.0401 -0.3033  0.9060
  328MOL0     C45144   0.536   1.045   2.864  0.3051  0.0414 -0.5005
  328MOL0     C45145   0.560   0.915   2.893  0.4043 -0.1551  1.0903
  328MOL0     C45146   0.690   0.839   2.907 -0.0422  0.3037  0.1196
  328MOL0     C45147   0.779   0.880   3.027  0.1631  0.3308  0.1324
  328MOL0     C45148   0.711   0.854   3.162 -0.9100 -0.5401 -0.3889
  328MOL0     C45149   0.720   0.717   3.210 -0.1805  0.2610 -1.0593
  328MOL0     O45150   0.848   0.688   3.265 -0.6132 -0.5050 -0.0592
  328MOL0     C45151   0.871   0.565   3.337 -0.8525  0.4762  1.0283
  328MOL0     C45152   0.766   0.465   3.352 -1.4791  1.4419  0.1560
  328MOL0     C45153   0.784   0.347   3.423  0.1124 -0.2240  0.0629
  328MOL0     C45154   0.659   0.267   3.451  0.3878  0.5011  0.1046
  328MOL0     C45155   0.908   0.330   3.492 -0.7213 -0.3296 -0.2900
  328MOL0     C45156   0.925   0.200   3.573 -0.3537 -0.5266  0.1417
  328MOL0     O45157   1.050   0.129   3.565  0.0645 -0.1626 -0.2229
  328MOL0     C45158   1.064   0.003   3.623  1.1385 -0.3174 -0.7055
  328MOL0     C45159   1.179  -0.017   3.695 -0.1555  0.5520 -0.0202
  328MOL0     C45160   1.212  -0.148   3.745 -0.0411  0.3317 -0.1071
  328MOL0     C45161   1.123  -0.250   3.724 -0.3856  0.1868  0.1790
  328MOL0     O45162   1.149  -0.380   3.772 -0.4877 -0.2018  0.4231
  328MOL0     C45163   1.241  -0.407   3.874 -0.6302 -0.5467 -0.3507
  328MOL0     C45164   1.233  -0.551   3.915 -0.5439  1.1632 -0.9194
  328MOL0     C45165   1.329  -0.593   4.029 -0.0965  0.0293  0.5889
  328MOL0     C45166   1.474  -0.597   4.000  0.3061  0.6192 -0.3102
  328MOL0     C45167   1.549  -0.658   4.116 -0.0554  0.0451  0.0315
  328MOL0     C45168   1.542  -0.578   4.247  0.4232 -0.2495 -0.1076
  328MOL0     C45169   1.591  -0.648   4.371 -0.1352  1.0964 -0.0364
  328MOL0     C45170   1.570  -0.557   4.505 -0.0217  0.6662  0.8317
  328MOL0    Cl45171   1.395  -0.545   4.531 -0.0751  0.4456  0.1360
  328MOL0     C45172   1.000  -0.222   3.657 -0.1672  0.0826  0.1268
  328MOL0     C45173   0.979  -0.101   3.607  0.1304 -1.1334  0.4693
  328MOL0     O45174   0.831   0.157   3.641  0.4929 -0.3518 -0.2107
  328MOL0     C45175   1.009   0.426   3.487 -0.2253  0.9670 -0.1274
  328MOL0     C45176   0.996   0.541   3.409  0.1480 -0.6174  0.7942
  328MOL0     N45177   0.440   0.864   2.935  0.0915  0.2401  0.1456
  328MOL0     N45178   0.344   0.952   2.922 -0.0611 -1.2103 -0.6688
  328MOL0     C45179   0.958   1.212   3.677  0.6382  0.0274 -0.7013
  328MOL0     C45180   1.035   1.278   3.774  0.3021 -0.2683  0.0203
  328MOL0     C45181   1.060   1.546   4.170 -0.2593  0.1250 -0.3811
  328MOL0     C45182   1.056   1.431   4.251  0.1829  0.6934 -0.6297
  328MOL0     C45183   1.084   1.440   4.388  0.1129 -0.5419 -0.2463
  328MOL0     C45184   1.103   1.567   4.448  0.2540  0.2791 -0.8686
  328MOL0     O45185   1.100   1.565   4.585 -0.6040 -0.9645 -0.7160
  328MOL0     C45186   1.104   1.681   4.673  0.0151  0.2998 -0.6404
  328MOL0     C45187   0.965   1.745   4.681  0.4741 -0.3298 -0.8919
  328MOL0     C45188   0.959   1.857   4.791  0.3264 -0.2633 -0.8034
  328MOL0     C45189   0.832   1.950   4.778  0.4117 -0.1486 -0.2561
  328MOL0     C45190   0.866   2.063   4.684 -0.7179  0.2113 -0.2575
  328MOL0     C45191   0.906   2.145   4.596 -0.0534  0.3300  0.2425
  328MOL0     C45192   1.118   1.680   4.367  1.2456 -0.1480 -0.0086
  328MOL0     C45193   1.103   1.667   4.226  0.5048 -0.6246  0.5971
  328MOL0     C45194   1.120   1.795   4.143 -0.5202 -0.4114  0.1790
  328MOL0     H45195   0.777   1.447   3.931 -0.8673 -0.7635  0.8632
  328MOL0     H45196   0.655   1.343   3.768 -0.4173  2.0548 -1.0421
  328MOL0     H45197   0.558   1.259   3.568  0.7345  1.3069 -2.4254
  328MOL0     H45198   0.603   1.089   3.622  1.7934  0.1287 -0.1614
  328MOL0     H45199   0.606   1.021   3.390  0.4522 -0.2004  2.9580
  328MOL0     H45200   0.454   1.091   3.429 -1.2079  2.3458  0.9261
  328MOL0     H45201   0.646   1.241   3.269  0.7854 -1.6692 -1.0789
  328MOL0     H45202   0.521   1.131   3.214  5.7274 -3.0659  0.3301
  328MOL0     H45203   0.356   1.268   3.282 -0.3067 -0.4528 -1.6088
  328MOL0     H45204   0.445   1.390   3.376 -3.4293  1.2512 -0.9071
  328MOL0     H45205   0.569   1.460   3.183  0.3051 -1.5273 -0.5793
  328MOL0     H45206   0.394   1.497   3.170  1.2388  0.6351 -1.0077
  328MOL0     H45207   0.460   1.436   2.967 -1.5652 -0.5670  2.5479
  328MOL0     H45208   0.538   1.285   3.007  0.4674 -0.1433 -0.5654
  328MOL0     H45209   0.234   1.348   2.999 -0.9807  0.1470  0.3103
  328MOL0     H45210   0.296   1.208   3.072  0.0199 -0.7991 -1.8181
  328MOL0     H45211   0.242   1.173   2.812 -0.4450 -3.3095  1.0908
  328MOL0     H45212   0.402   1.262   2.800 -1.9851  0.9349 -2.2832
  328MOL0     H45213   0.617   1.108   2.828  4.0632 -3.8468  0.2611
  328MOL0     H45214   0.756   0.858   2.822  1.5816  1.6374  1.6028
  328MOL0     H45215   0.668   0.733   2.924  0.1022  0.1174 -0.8312
  328MOL0     H45216   0.873   0.828   3.009  0.4666  0.6197  0.8415
  328MOL0     H45217   0.793   0.988   3.022 -2.9379  0.9004  1.1432
  328MOL0     H45218   0.770   0.914   3.233 -0.1954 -1.0864 -0.5158
  328MOL0     H45219   0.610   0.898   3.164 -0.7396 -0.1140 -0.8369
  328MOL0     H45220   0.643   0.690   3.283 -0.5009 -1.6517 -2.0293
  328MOL0     H45221   0.706   0.642   3.132 -0.2606 -1.8615  0.9059
  328MOL0     H45222   0.670   0.470   3.302 -0.4294  2.0688 -1.8731
  328MOL0     H45223   0.639   0.263   3.558  3.5162 -0.1720  0.7570
  328MOL0     H45224   0.686   0.166   3.419 -1.7747 -0.3803  0.8548
  328MOL0     H45225   0.574   0.300   3.389  0.1724  0.5212  0.4122
  328MOL0     H45226   1.257   0.057   3.710 -1.1313  1.9586 -1.4766
  328MOL0     H45227   1.309  -0.161   3.793  0.8574  0.8332 -1.6801
  328MOL0     H45228   1.343  -0.393   3.840 -0.1819 -1.3720  0.5905
  328MOL0     H45229   1.228  -0.352   3.968 -0.0929 -0.8336 -0.1001
  328MOL0     H45230   1.132  -0.575   3.950 -0.0653  0.3032 -0.1072
  328MOL0     H45231   1.242  -0.610   3.823 -1.0086 -0.3427 -0.0192
  328MOL0     H45232   1.289  -0.692   4.051 -0.7986  0.6435  2.2698
  328MOL0     H45233   1.316  -0.526   4.114 -4.9665 -0.1286  0.2527
  328MOL0     H45234   1.508  -0.496   3.976 -0.1710  0.8573  0.0176
  328MOL0     H45235   1.499  -0.647   3.905  2.3791 -1.0212  1.0121
  328MOL0     H45236   1.519  -0.763   4.128 -3.2023  0.8274  0.0217
  328MOL0     H45237   1.654  -0.668   4.089  0.4465 -1.9784  2.3693
  328MOL0     H45238   1.437  -0.560   4.270  0.0169 -1.6984 -0.7280
  328MOL0     H45239   1.596  -0.483   4.252 -0.3290  0.1421  3.7400
  328MOL0     H45240   1.700  -0.659   4.366 -0.2221 -1.2652  1.7365
  328MOL0     H45241   1.560  -0.752   4.384  1.3404  0.6161 -0.1812
  328MOL0     H45242   1.618  -0.460   4.496  2.2272 -0.2415  2.1611
  328MOL0     H45243   1.610  -0.605   4.595 -0.3509  0.6004  0.9433
  328MOL0     H45244   0.927  -0.301   3.644  0.7024 -0.7310  0.0602
  328MOL0     H45245   0.891  -0.081   3.548  1.3924 -0.0368 -1.1167
  328MOL0     H45246   1.093   0.402   3.552 -1.7402 -4.0438  0.4116
  328MOL0     H45247   1.079   0.611   3.403  2.8261 -3.6454 -0.7482
  328MOL0     H45248   0.998   1.153   3.595 -0.9826  0.9759 -2.2381
  328MOL0     H45249   1.140   1.252   3.767  0.1923 -1.5795  2.1709
  328MOL0     H45250   1.038   1.330   4.215 -0.2848 -0.0260  1.4869
  328MOL0     H45251   1.074   1.351   4.449  2.6281 -0.7007  0.0741
  328MOL0     H45252   1.132   1.647   4.774 -0.8061 -0.2298 -0.5835
  328MOL0     H45253   1.173   1.752   4.629  1.6111 -0.6032  0.2913
  328MOL0     H45254   0.890   1.668   4.702  2.6756 -2.4121 -0.2012
  328MOL0     H45255   0.942   1.805   4.593  0.6007 -1.1833 -1.5156
  328MOL0     H45256   0.950   1.811   4.890  1.9516  1.3722  0.1540
  328MOL0     H45257   1.048   1.920   4.783 -0.4289  1.3726  2.1117
  328MOL0     H45258   0.802   1.990   4.875 -1.2339 -1.4220 -0.1986
  328MOL0     H45259   0.750   1.887   4.745 -1.9653  1.5187  2.0750
  328MOL0     H45260   0.940   2.206   4.514  0.6651  1.6631  1.4779
  328MOL0     H45261   1.134   1.774   4.418 -1.8671  1.7261 -2.1296
  328MOL0     H45262   1.198   1.842   4.205  0.5938 -0.5942 -1.0454
  328MOL0     H45263   1.172   1.776   4.049  1.8835 -1.7750  1.6903
  328MOL0     H45264   1.035   1.862   4.126 -0.3078  0.3834  1.9767
  329MOL0     O45265   3.316   5.987   4.762 -0.1659 -0.0481 -0.2401
  329MOL0     C45266   3.409   6.069   4.792  0.4993  0.9159 -0.4110
  329MOL0     O45267   3.540   6.038   4.808  0.0080 -0.3363  0.3701
  329MOL0     C45268   3.555   5.893   4.808 -0.4729 -0.9959  0.1545
  329MOL0     C45269   3.535   5.820   4.925 -0.5792  0.4861  0.9871
  329MOL0     C45270   3.567   5.684   4.922 -0.3418  0.9112  0.0011
  329MOL0     C45271   3.622   5.619   4.805 -0.9738  0.6401  0.2939
  329MOL0     O45272   3.652   5.482   4.797 -0.3659 -0.4456 -0.1723
  329MOL0     C45273   3.610   5.387   4.903  0.3234 -0.4254  0.1268
  329MOL0     C45274   3.726   5.378   5.000 -0.3621  1.0464  0.5322
  329MOL0     C45275   3.695   5.280   5.114 -0.7143 -1.1734 -0.4366
  329MOL0     C45276   3.656   5.136   5.069  0.2195 -0.8881 -0.2494
  329MOL0     C45277   3.614   5.056   5.196 -0.3429 -0.0500  0.4002
  329MOL0     C45278   3.739   5.017   5.284  1.2022 -0.1157  0.0627
  329MOL0     C45279   3.706   4.944   5.411 -0.2155 -0.0089  0.2102
  329MOL0     C45280   3.669   5.041   5.527  0.6456  0.1470 -0.2826
  329MOL0     N45281   3.608   4.964   5.633  0.4876 -0.1614  0.6203
  329MOL0     C45282   3.629   4.984   5.763 -0.3327  0.2697 -0.6619
  329MOL0     C45283   3.543   4.885   5.812 -0.3384 -0.2763 -0.9076
  329MOL0     C45284   3.523   4.852   5.957  0.3075  0.6549  0.5539
  329MOL0     C45285   3.626   4.913   6.057 -0.4884  0.3932 -0.4203
  329MOL0     C45286   3.629   4.839   6.188 -0.6295 -0.2736  0.0273
  329MOL0     C45287   3.720   4.717   6.174  0.6459 -0.5141  0.4059
  329MOL0     O45288   3.856   4.741   6.144  0.0199 -0.4797 -0.3920
  329MOL0     C45289   3.940   4.743   6.253 -0.6396  0.7643  1.0468
  329MOL0     C45290   4.073   4.734   6.212 -0.0956 -0.4114  0.2763
  329MOL0     C45291   4.178   4.726   6.299  0.3755  0.1071 -1.8458
  329MOL0     C45292   4.317   4.731   6.234 -0.2065 -0.0017  0.9768
  329MOL0     C45293   4.158   4.712   6.436  0.4212  0.2216 -0.2911
  329MOL0     C45294   4.261   4.714   6.544  0.3040 -0.2084  0.2546
  329MOL0     O45295   4.387   4.764   6.514  0.2333 -0.4765 -0.7128
  329MOL0     C45296   4.493   4.755   6.605  0.3307 -0.2341 -0.0419
  329MOL0     C45297   4.542   4.635   6.657 -0.1665 -1.4042  0.3103
  329MOL0     C45298   4.650   4.638   6.745 -0.1870 -0.6604  0.4448
  329MOL0     C45299   4.710   4.762   6.789  0.1780 -0.1349 -0.2311
  329MOL0     O45300   4.826   4.785   6.870 -0.3712  0.3973  0.0747
  329MOL0     C45301   4.831   4.696   6.988 -1.1247 -1.0412  0.3985
  329MOL0     C45302   4.949   4.603   6.991  0.0342  0.2951  0.0410
  329MOL0     C45303   5.092   4.657   6.994 -0.2050 -0.9924  0.0184
  329MOL0     C45304   5.127   4.719   7.127 -0.0450  0.4441  0.2583
  329MOL0     C45305   5.210   4.848   7.126  1.0795 -0.0681 -0.3105
  329MOL0     C45306   5.200   4.913   7.264  0.5364  0.0483 -0.0679
  329MOL0     C45307   5.236   4.845   7.397  0.3567  0.7889  0.2686
  329MOL0     C45308   5.200   4.935   7.518  0.1756  0.1427  0.3801
  329MOL0    Cl45309   5.027   4.988   7.533  0.5499 -0.4238 -0.6309
  329MOL0     C45310   4.649   4.873   6.739  0.9017 -0.0266  0.1649
  329MOL0     C45311   4.540   4.874   6.652  0.4058  0.2823 -1.3047
  329MOL0     O45312   4.221   4.683   6.654 -0.2769  0.0148  0.3447
  329MOL0     C45313   4.019   4.720   6.484 -0.0130 -0.1678  0.3311
  329MOL0     C45314   3.912   4.738   6.395 -0.2785 -0.3410 -0.3194
  329MOL0     N45315   3.466   4.831   5.720 -0.1384 -0.3581 -0.4477
  329MOL0     N45316   3.501   4.871   5.602 -0.5319 -0.2547 -0.4279
  329MOL0     C45317   3.660   5.703   4.693  0.7075  1.1882  0.0551
  329MOL0     C45318   3.625   5.835   4.696 -0.6602 -1.1447 -0.1701
  329MOL0     C45319   3.377   6.204   4.833 -0.2559  1.0848 -0.4672
  329MOL0     C45320   3.466   6.271   4.915 -0.3544 -0.3109 -0.4737
  329MOL0     C45321   3.438   6.409   4.956 -0.8548  0.5053  0.0934
  329MOL0     C45322   3.320   6.465   4.906  0.2366  0.2089 -0.1462
  329MOL0     O45323   3.282   6.593   4.952  0.2180  0.5395 -0.3697
  329MOL0     C45324   3.364   6.686   5.025  0.4079 -0.3118 -0.0308
  329MOL0     C45325   3.288   6.787   5.092  0.0883 -0.5291 -0.5983
  329MOL0     C45326   3.203   6.722   5.195 -0.5077  0.2917  0.1044
  329MOL0     C45327   3.131   6.808   5.292  0.6253 -0.2153 -0.3996
  329MOL0     C45328   3.040   6.726   5.366  0.3016 -0.1221 -1.0179
  329MOL0     C45329   2.945   6.659   5.407 -0.8010  0.6357 -1.1934
  329MOL0     C45330   3.233   6.395   4.820 -0.0344  0.1434  0.7524
  329MOL0     C45331   3.256   6.265   4.779 -0.5182  0.6212 -0.8869
  329MOL0     C45332   3.163   6.211   4.672  0.1913 -0.4344 -0.4207
  329MOL0     H45333   3.485   5.860   5.013 -3.7883 -1.7080  0.3229
  329MOL0     H45334   3.556   5.628   5.015  3.0607  0.6138  0.3580
  329MOL0     H45335   3.586   5.295   4.850 -0.5637  0.1734 -0.5305
  329MOL0     H45336   3.515   5.415   4.949  1.3373  1.5452  1.2041
  329MOL0     H45337   3.821   5.347   4.956 -0.5976  1.1398 -0.0496
  329MOL0     H45338   3.749   5.476   5.043  0.9766  0.5863  0.9247
  329MOL0     H45339   3.789   5.281   5.170  0.6350  1.0231 -2.5692
  329MOL0     H45340   3.624   5.324   5.184  0.0870 -1.9602  0.9110
  329MOL0     H45341   3.573   5.124   4.999 -1.5344 -0.1733  1.6067
  329MOL0     H45342   3.748   5.101   5.024  0.3248 -1.6775  0.5449
  329MOL0     H45343   3.589   4.954   5.166 -1.4017 -2.1228  6.6888
  329MOL0     H45344   3.534   5.098   5.257  1.8636  2.6469  1.6719
  329MOL0     H45345   3.798   4.950   5.222  0.0846 -1.6674  0.6011
  329MOL0     H45346   3.790   5.107   5.320  0.1520  0.6714 -0.3660
  329MOL0     H45347   3.792   4.884   5.444 -0.6524 -0.8172 -0.0828
  329MOL0     H45348   3.624   4.875   5.387  0.5047 -0.8421  0.0727
  329MOL0     H45349   3.757   5.085   5.574  2.6716 -2.0225 -1.8365
  329MOL0     H45350   3.595   5.118   5.505  1.9882  1.0657 -1.7699
  329MOL0     H45351   3.696   5.056   5.808 -0.5383  1.2847 -1.9144
  329MOL0     H45352   3.522   4.743   5.962  1.8440  0.3298 -3.0001
  329MOL0     H45353   3.433   4.908   5.984  1.7534  1.7490  3.6586
  329MOL0     H45354   3.730   4.914   6.025  0.7862  1.7555  3.2884
  329MOL0     H45355   3.599   5.017   6.076  0.3322  0.2966  1.4146
  329MOL0     H45356   3.667   4.914   6.258 -1.7866  0.7850 -0.4410
  329MOL0     H45357   3.524   4.813   6.206 -2.1474  2.6782 -3.2285
  329MOL0     H45358   3.706   4.651   6.259 -0.7141 -0.8076 -0.0088
  329MOL0     H45359   3.677   4.664   6.088  1.7483 -0.0166 -0.4752
  329MOL0     H45360   4.108   4.755   6.111  0.2987 -0.2359  0.4477
  329MOL0     H45361   4.368   4.635   6.231 -1.8685 -0.9513 -2.3767
  329MOL0     H45362   4.382   4.807   6.278 -0.6569  1.8841 -1.3978
  329MOL0     H45363   4.295   4.767   6.132 -4.3871 -0.5614  1.4921
  329MOL0     H45364   4.509   4.542   6.612 -0.8213 -0.3710 -1.4328
  329MOL0     H45365   4.691   4.549   6.791  1.2337 -0.0656  0.4033
  329MOL0     H45366   4.831   4.756   7.079  0.0527 -0.2260 -0.1140
  329MOL0     H45367   4.753   4.620   6.987 -1.9871 -0.3167  3.3573
  329MOL0     H45368   4.921   4.548   7.081  0.5279 -1.0116 -0.5706
  329MOL0     H45369   4.940   4.534   6.906 -1.2002  1.4488 -0.8022
  329MOL0     H45370   5.084   4.734   6.916  1.1114 -1.4953 -0.6321
  329MOL0     H45371   5.171   4.586   6.971 -0.3404 -1.5149  1.1120
  329MOL0     H45372   5.161   4.643   7.198 -3.1362  0.3587  1.8504
  329MOL0     H45373   5.032   4.753   7.170 -2.0409 -2.4671 -1.4414
  329MOL0     H45374   5.313   4.831   7.093  0.9898 -1.1555 -0.0649
  329MOL0     H45375   5.167   4.906   7.044  2.7585  0.7116 -0.6885
  329MOL0     H45376   5.096   4.948   7.265  1.2277  2.1999  0.0422
  329MOL0     H45377   5.269   4.997   7.252  1.3198 -0.6151 -0.3506
  329MOL0     H45378   5.342   4.826   7.413  0.2588 -0.2203 -0.2215
  329MOL0     H45379   5.181   4.752   7.413  0.7205  0.7378  1.3046
  329MOL0     H45380   5.263   5.023   7.500 -0.8054  0.3428 -2.5109
  329MOL0     H45381   5.220   4.878   7.609  2.9085  0.9497  0.3973
  329MOL0     H45382   4.679   4.975   6.761 -1.2449  0.3168  1.8423
  329MOL0     H45383   4.505   4.972   6.620  3.4946  2.8637  2.3204
  329MOL0     H45384   3.992   4.708   6.588  1.0777 -4.4531  0.3191
  329MOL0     H45385   3.815   4.757   6.440 -0.5023 -0.3237 -0.8016
  329MOL0     H45386   3.710   5.656   4.609  0.4953 -0.5868  0.8878
  329MOL0     H45387   3.648   5.906   4.618 -3.6749 -0.1263 -0.2816
  329MOL0     H45388   3.552   6.222   4.958 -1.5207 -2.2431 -0.1989
  329MOL0     H45389   3.512   6.456   5.020 -1.2729 -0.3332  1.2188
  329MOL0     H45390   3.429   6.634   5.097 -2.2205 -1.8523  1.3668
  329MOL0     H45391   3.438   6.738   4.963 -0.0284 -1.3544 -1.4843
  329MOL0     H45392   3.226   6.838   5.018 -1.1995  2.0256  2.0466
  329MOL0     H45393   3.357   6.859   5.137  0.7787 -2.1504  1.0617
  329MOL0     H45394   3.128   6.662   5.143 -1.1268  0.4748  0.7793
  329MOL0     H45395   3.272   6.659   5.253 -1.0362  0.5470  1.0278
  329MOL0     H45396   3.066   6.877   5.237  1.3685 -0.4978 -1.6539
  329MOL0     H45397   3.201   6.855   5.361  0.3421 -0.7823  0.2906
  329MOL0     H45398   2.852   6.621   5.444 -1.5122  3.0188 -0.3779
  329MOL0     H45399   3.152   6.460   4.787 -1.2526 -2.2826 -1.4111
  329MOL0     H45400   3.098   6.291   4.637  1.5765  2.5356  3.1438
  329MOL0     H45401   3.224   6.177   4.588  0.8158 -1.1692  0.3093
  329MOL0     H45402   3.101   6.126   4.704  0.6524 -1.9199 -3.1786
  330MOL0     O45403   7.530   6.504   2.441 -0.0257  0.7761 -0.3116
  330MOL0     C45404   7.438   6.425   2.406 -1.1009  0.4713  1.0956
  330MOL0     O45405   7.380   6.331   2.481 -0.7219 -0.3036 -0.5948
  330MOL0     C45406   7.439   6.310   2.607 -0.3487  0.1639 -0.8677
  330MOL0     C45407   7.361   6.309   2.723  0.9515 -0.5925  0.0411
  330MOL0     C45408   7.416   6.275   2.848  0.6414  0.0476  0.0842
  330MOL0     C45409   7.546   6.238   2.857  0.6901  0.9053 -0.3452
  330MOL0     O45410   7.604   6.190   2.973 -0.2345  0.5305  0.5825
  330MOL0     C45411   7.527   6.169   3.086 -0.6409 -0.2864 -0.2035
  330MOL0     C45412   7.606   6.092   3.197 -0.0844 -0.1311  0.3516
  330MOL0     C45413   7.660   5.951   3.169  0.8547 -0.3405 -1.1140
  330MOL0     C45414   7.541   5.851   3.172 -0.3340 -0.2698 -0.1792
  330MOL0     C45415   7.602   5.716   3.130 -0.7385  0.5882 -0.0696
  330MOL0     C45416   7.493   5.613   3.083 -0.5912 -0.4213 -0.6635
  330MOL0     C45417   7.568   5.484   3.019 -0.0784 -0.8656 -0.6139
  330MOL0     C45418   7.633   5.509   2.876  0.3854  0.4058  0.2377
  330MOL0     N45419   7.692   5.377   2.834 -0.5717 -0.1349 -1.0996
  330MOL0     C45420   7.821   5.342   2.864 -0.4063 -0.3620 -0.3881
  330MOL0     C45421   7.839   5.219   2.819  0.1254 -1.0642 -0.6428
  330MOL0     C45422   7.952   5.125   2.850  0.1880  0.4755 -0.1380
  330MOL0     C45423   8.086   5.140   2.779 -0.3229 -0.0677  0.2764
  330MOL0     C45424   8.144   5.289   2.807 -0.6310 -0.1055 -0.8904
  330MOL0     C45425   8.295   5.289   2.781  0.5385 -0.9046 -0.2926
  330MOL0     O45426   8.361   5.187   2.857 -0.0140 -0.2218 -0.1484
  330MOL0     C45427   8.390   5.211   2.979 -0.1660 -0.2565  0.1078
  330MOL0     C45428   8.398   5.094   3.063 -1.3832 -0.7955  0.2556
  330MOL0     C45429   8.431   5.092   3.190 -0.5214  1.5659  0.3535
  330MOL0     C45430   8.430   4.951   3.254 -0.3706  0.0147  0.7860
  330MOL0     C45431   8.483   5.208   3.248 -0.4941  0.4365 -0.1241
  330MOL0     C45432   8.535   5.218   3.389  0.0756  0.8509 -0.4428
  330MOL0     O45433   8.604   5.114   3.455 -0.1781 -0.0977 -0.3627
  330MOL0     C45434   8.656   5.134   3.578 -0.0615  0.4047  0.0904
  330MOL0     C45435   8.794   5.176   3.592 -0.5028 -0.6260 -0.4738
  330MOL0     C45436   8.851   5.187   3.723  0.4014 -0.1837  0.1371
  330MOL0     C45437   8.779   5.159   3.839 -0.2363  0.7470 -0.1612
  330MOL0     O45438   8.838   5.155   3.962 -0.2788  0.0312 -0.2828
  330MOL0     C45439   8.939   5.255   3.999  0.5242  0.1665  0.5920
  330MOL0     C45440   9.077   5.193   3.996  0.4614  0.1257 -0.1613
  330MOL0     C45441   9.182   5.302   4.037  1.1684  0.6474 -0.6249
  330MOL0     C45442   9.196   5.295   4.188  0.8137 -0.4513 -0.7377
  330MOL0     C45443   9.300   5.396   4.240  0.3950 -0.3291  0.4256
  330MOL0     C45444   9.282   5.430   4.398  0.0399  0.3381  0.0300
  330MOL0     C45445   9.233   5.305   4.483  0.7841 -0.2085 -0.1927
  330MOL0     C45446   9.231   5.346   4.625  0.6188 -0.1077 -0.1393
  330MOL0    Cl45447   9.391   5.406   4.684 -0.7302 -0.6894  0.1554
  330MOL0     C45448   8.647   5.128   3.827 -0.2104  0.0174 -0.3001
  330MOL0     C45449   8.583   5.119   3.697  0.4498 -0.3472  0.4152
  330MOL0     O45450   8.505   5.320   3.443 -0.0366  0.5450 -1.1931
  330MOL0     C45451   8.498   5.324   3.167  0.7262  0.7174 -0.3533
  330MOL0     C45452   8.461   5.324   3.030 -0.3192  0.9473  0.0702
  330MOL0     N45453   7.730   5.185   2.743 -0.3524 -0.1133  0.0528
  330MOL0     N45454   7.635   5.280   2.754 -0.3684 -0.1612  0.3397
  330MOL0     C45455   7.626   6.240   2.746  0.6487  0.2301 -0.6993
  330MOL0     C45456   7.575   6.271   2.617 -0.6268  0.0389 -0.4057
  330MOL0     C45457   7.389   6.446   2.265  0.6596  0.8124 -1.1989
  330MOL0     C45458   7.399   6.569   2.199  0.2423  0.1212  0.0933
  330MOL0     C45459   7.340   6.591   2.072 -0.0262 -0.7892 -0.4115
  330MOL0     C45460   7.268   6.495   2.002  0.2757  0.2782 -0.1763
  330MOL0     O45461   7.209   6.515   1.874  0.8409 -0.1236 -0.9516
  330MOL0     C45462   7.203   6.644   1.811 -1.0502 -0.3413 -0.4919
  330MOL0     C45463   7.135   6.634   1.681 -0.4112  0.6717  0.1782
  330MOL0     C45464   7.200   6.533   1.580  0.1751 -0.4818 -0.6008
  330MOL0     C45465   7.095   6.467   1.492  0.6716 -0.9398  0.6858
  330MOL0     C45466   6.990   6.380   1.541  0.3738 -0.0435  0.3308
  330MOL0     C45467   6.899   6.316   1.600 -0.4149  0.1627 -0.2111
  330MOL0     C45468   7.263   6.370   2.063 -0.1279 -0.0174  0.3748
  330MOL0     C45469   7.324   6.343   2.193 -1.5965 -0.0724 -0.2701
  330MOL0     C45470   7.314   6.198   2.239  0.3701  0.2543  0.5453
  330MOL0     H45471   7.256   6.332   2.715  1.2046  0.3482 -0.7356
  330MOL0     H45472   7.349   6.274   2.933 -0.3948 -2.2257 -0.6852
  330MOL0     H45473   7.436   6.110   3.070 -2.0873  2.2196 -1.9469
  330MOL0     H45474   7.500   6.270   3.118  2.0346  0.7010 -0.8725
  330MOL0     H45475   7.691   6.159   3.212 -0.6342  1.0281 -1.3301
  330MOL0     H45476   7.547   6.084   3.289 -0.7565 -0.2933 -0.0858
  330MOL0     H45477   7.726   5.951   3.082  1.4860  0.4901 -0.6493
  330MOL0     H45478   7.728   5.929   3.252 -0.1331 -3.4517 -1.0052
  330MOL0     H45479   7.497   5.840   3.272  0.1305  2.7770  0.4484
  330MOL0     H45480   7.458   5.873   3.104 -1.6595 -1.5606  0.9648
  330MOL0     H45481   7.649   5.671   3.218 -0.8702  1.1190  0.2754
  330MOL0     H45482   7.675   5.726   3.048 -2.1502  1.8408 -1.2351
  330MOL0     H45483   7.432   5.578   3.166  0.4264 -2.5444 -0.7419
  330MOL0     H45484   7.427   5.651   3.004  1.8928 -0.4967 -2.9244
  330MOL0     H45485   7.489   5.408   3.015 -2.1541  1.1784 -1.1819
  330MOL0     H45486   7.646   5.452   3.089 -1.0475 -0.9923  0.4372
  330MOL0     H45487   7.559   5.525   2.797  2.2393 -4.3534 -2.9169
  330MOL0     H45488   7.706   5.590   2.879  0.3809  0.4009  0.5170
  330MOL0     H45489   7.895   5.404   2.915 -1.4158  2.9931 -2.6738
  330MOL0     H45490   7.920   5.023   2.827 -1.5656  1.4250 -2.1496
  330MOL0     H45491   7.972   5.124   2.958 -2.0272  0.2523  0.3052
  330MOL0     H45492   8.137   5.063   2.838  0.7363  0.0623 -0.4595
  330MOL0     H45493   8.081   5.120   2.672  0.3254  2.0236 -0.1799
  330MOL0     H45494   8.078   5.363   2.761 -1.0595  0.5006  0.6290
  330MOL0     H45495   8.139   5.302   2.916  0.6015  0.6838 -0.9024
  330MOL0     H45496   8.310   5.265   2.676 -1.6426  2.3717 -1.5167
  330MOL0     H45497   8.326   5.391   2.808 -0.2302 -0.1134 -2.2024
  330MOL0     H45498   8.376   4.998   3.016  4.0151 -1.8647 -0.8303
  330MOL0     H45499   8.520   4.893   3.230 -2.5769 -3.2766 -0.1079
  330MOL0     H45500   8.355   4.884   3.213  0.1633 -0.5893  0.7808
  330MOL0     H45501   8.438   4.954   3.363 -0.0256  1.0924  0.7475
  330MOL0     H45502   8.868   5.197   3.516 -1.4448 -0.3027 -1.3264
  330MOL0     H45503   8.958   5.201   3.724  0.4262 -0.3081 -0.4032
  330MOL0     H45504   8.943   5.341   3.932  0.4475 -0.6577 -0.5014
  330MOL0     H45505   8.921   5.285   4.103  2.7753  1.4933  0.6618
  330MOL0     H45506   9.080   5.105   4.061  2.2547  0.1162 -0.1938
  330MOL0     H45507   9.080   5.164   3.891 -3.7634 -0.2835 -0.3265
  330MOL0     H45508   9.155   5.397   3.991  0.4128  0.0717 -1.4080
  330MOL0     H45509   9.277   5.281   3.986  0.6900 -0.3818 -1.1299
  330MOL0     H45510   9.217   5.191   4.213  1.8260 -0.2104 -0.5531
  330MOL0     H45511   9.102   5.324   4.236  2.0442  2.3393  0.2106
  330MOL0     H45512   9.403   5.363   4.227  1.0806  1.4572  1.0096
  330MOL0     H45513   9.292   5.487   4.180  1.3232 -0.3718  0.2241
  330MOL0     H45514   9.214   5.515   4.414 -2.2283 -1.2495 -0.5812
  330MOL0     H45515   9.383   5.461   4.425  0.5754  0.2924 -1.8386
  330MOL0     H45516   9.301   5.221   4.469  1.1909  0.0647  0.1210
  330MOL0     H45517   9.132   5.271   4.457  0.2214  2.1696 -1.3794
  330MOL0     H45518   9.209   5.259   4.688  1.7913  4.1554  7.3187
  330MOL0     H45519   9.161   5.427   4.642  4.1275  3.2008 -0.0835
  330MOL0     H45520   8.580   5.114   3.910 -0.4591  0.3601 -0.4377
  330MOL0     H45521   8.475   5.114   3.689  0.3652 -0.6014  1.5331
  330MOL0     H45522   8.543   5.411   3.212  1.8143 -0.9980  2.0700
  330MOL0     H45523   8.458   5.410   2.965  2.6981  1.0252 -0.0978
  330MOL0     H45524   7.729   6.211   2.760  1.3618  2.6424 -0.5929
  330MOL0     H45525   7.624   6.250   2.523 -1.6673 -0.2865 -0.8909
  330MOL0     H45526   7.457   6.655   2.229  0.4328  0.0878 -0.1697
  330MOL0     H45527   7.356   6.690   2.029 -3.0585 -0.5338 -1.1792
  330MOL0     H45528   7.146   6.717   1.869 -1.0796 -0.5100 -0.3076
  330MOL0     H45529   7.305   6.680   1.796 -0.9956 -0.0967  0.4145
  330MOL0     H45530   7.122   6.736   1.645 -1.5110  2.4255  4.8151
  330MOL0     H45531   7.031   6.605   1.696 -0.2327 -0.6024 -0.8967
  330MOL0     H45532   7.260   6.595   1.512 -0.9730  1.0202 -0.3145
  330MOL0     H45533   7.251   6.452   1.632 -2.9400 -2.6054 -0.5897
  330MOL0     H45534   7.161   6.416   1.421  1.5471 -0.2185  0.9678
  330MOL0     H45535   7.049   6.552   1.441 -0.0476 -2.1835 -0.8735
  330MOL0     H45536   6.842   6.259   1.670 -1.5247  1.1090 -0.3087
  330MOL0     H45537   7.204   6.295   2.010 -0.6038  0.8444 -0.3503
  330MOL0     H45538   7.403   6.159   2.289  0.6373  0.2166  0.0480
  330MOL0     H45539   7.231   6.191   2.310 -0.0546 -0.9493 -0.0428
  330MOL0     H45540   7.283   6.140   2.152  1.4590 -1.4586  1.2353
  331MOL0     O45541   6.126   4.576   3.008  0.1549 -1.0072  0.4999
  331MOL0     C45542   6.106   4.487   2.928  0.3914  0.4998 -0.0738
  331MOL0     O45543   6.201   4.407   2.864 -0.3383 -0.3802  0.0088
  331MOL0     C45544   6.336   4.435   2.893  0.8887  0.4228  0.3532
  331MOL0     C45545   6.396   4.566   2.872  0.4858 -0.7058 -0.0115
  331MOL0     C45546   6.532   4.587   2.883 -0.4816 -0.0909  1.0668
  331MOL0     C45547   6.615   4.482   2.901  0.5708 -0.6110 -0.1563
  331MOL0     O45548   6.745   4.522   2.915 -0.1172  0.2722 -0.0580
  331MOL0     C45549   6.830   4.430   2.988  0.0067  0.1194 -0.3733
  331MOL0     C45550   6.941   4.502   3.053  0.3416 -1.1680 -0.2906
  331MOL0     C45551   7.040   4.568   2.960 -0.4987  1.0609  0.4869
  331MOL0     C45552   7.130   4.675   3.017  0.4501  0.6230  0.2451
  331MOL0     C45553   7.244   4.710   2.922  0.3982  0.4260  0.1633
  331MOL0     C45554   7.329   4.828   2.966 -0.2547 -0.1374  0.2011
  331MOL0     C45555   7.432   4.877   2.857 -0.8759 -0.0244  0.6152
  331MOL0     C45556   7.543   4.957   2.924 -0.4367 -1.0060 -0.9517
  331MOL0     N45557   7.624   4.879   3.026 -0.6665 -0.0979 -0.3476
  331MOL0     C45558   7.745   4.808   2.999  0.4111  0.3121  0.7955
  331MOL0     C45559   7.803   4.772   3.109 -0.1981  0.1567 -0.3713
  331MOL0     C45560   7.935   4.700   3.108 -0.3174 -0.5068 -0.1894
  331MOL0     C45561   8.044   4.805   3.093  0.6141 -0.2404 -0.0365
  331MOL0     C45562   8.063   4.900   3.215 -0.2704  0.1603 -0.1534
  331MOL0     C45563   8.110   4.828   3.348  0.0999  0.1409  0.4793
  331MOL0     O45564   8.147   4.924   3.446  0.3028 -0.6823  0.0988
  331MOL0     C45565   8.049   4.986   3.523 -0.0497  0.7886  0.1791
  331MOL0     C45566   8.095   5.078   3.618  0.2918 -0.9080  1.2202
  331MOL0     C45567   8.006   5.138   3.703  0.7076 -0.1152 -0.5312
  331MOL0     C45568   8.067   5.215   3.818 -0.3412  0.0337 -0.3028
  331MOL0     C45569   7.863   5.128   3.693 -0.4969 -0.1192  0.6029
  331MOL0     C45570   7.765   5.202   3.779 -0.3368 -0.7274  0.7149
  331MOL0     O45571   7.814   5.285   3.876 -0.0989  0.4152 -0.4543
  331MOL0     C45572   7.732   5.381   3.936 -0.0528  1.6749  0.1138
  331MOL0     C45573   7.607   5.357   4.005  0.4578  0.1424 -0.3694
  331MOL0     C45574   7.545   5.459   4.086 -0.8662 -0.2777 -0.2342
  331MOL0     C45575   7.593   5.595   4.092  0.1793 -0.1723 -0.2678
  331MOL0     O45576   7.524   5.675   4.179  0.0987  0.2771  0.1187
  331MOL0     C45577   7.576   5.813   4.180 -0.1735 -0.7406  0.6460
  331MOL0     C45578   7.503   5.901   4.081  0.2428  0.3303  0.3913
  331MOL0     C45579   7.543   6.042   4.089 -0.2119  0.5122 -0.3427
  331MOL0     C45580   7.461   6.125   3.982  0.1277 -0.6619  0.0582
  331MOL0     C45581   7.540   6.253   3.955 -0.2926  0.4083 -0.0893
  331MOL0     C45582   7.541   6.363   4.067  0.1490 -0.1111 -0.0134
  331MOL0     C45583   7.397   6.410   4.096  0.2726 -0.1618  0.1391
  331MOL0     C45584   7.306   6.473   3.987  0.0322  0.2973 -0.2825
  331MOL0    Cl45585   7.142   6.478   4.065  0.3414  0.3878  0.2807
  331MOL0     C45586   7.704   5.626   4.006  0.2130  0.2467 -0.4456
  331MOL0     C45587   7.766   5.519   3.935  0.8059  0.0391  1.1593
  331MOL0     O45588   7.642   5.185   3.758 -0.8162  0.9820  0.0189
  331MOL0     C45589   7.820   5.034   3.595 -0.5209 -0.6778 -0.1297
  331MOL0     C45590   7.906   4.969   3.510 -0.9203 -0.0931  0.2518
  331MOL0     N45591   7.727   4.824   3.213 -0.0675 -0.4133  0.5138
  331MOL0     N45592   7.614   4.877   3.161 -1.0595 -0.2120 -0.3204
  331MOL0     C45593   6.559   4.355   2.917 -0.7907  0.2570  0.1835
  331MOL0     C45594   6.429   4.330   2.914 -0.4063 -0.0065 -1.2394
  331MOL0     C45595   5.967   4.461   2.882 -0.5797 -0.2998  0.6341
  331MOL0     C45596   5.955   4.443   2.740  0.8943  0.0892  0.2164
  331MOL0     C45597   5.831   4.411   2.683  0.0649  0.1116 -0.2268
  331MOL0     C45598   5.716   4.376   2.765  0.0213  0.0389 -0.8508
  331MOL0     O45599   5.586   4.341   2.725 -0.2922  0.7434 -0.6041
  331MOL0     C45600   5.527   4.226   2.796 -0.6488  0.2267  0.7809
  331MOL0     C45601   5.420   4.155   2.705 -0.4843  0.3073 -0.1221
  331MOL0     C45602   5.317   4.258   2.656 -0.7314  0.7978 -1.1604
  331MOL0     C45603   5.194   4.191   2.595 -0.6220 -0.1879  0.3402
  331MOL0     C45604   5.087   4.146   2.687 -0.3326  0.6524 -1.0891
  331MOL0     C45605   4.996   4.113   2.758 -0.1721  0.2127  0.1088
  331MOL0     C45606   5.733   4.410   2.898  0.9169  1.2184 -0.2571
  331MOL0     C45607   5.855   4.452   2.961 -0.2485 -0.5907 -1.2061
  331MOL0     C45608   5.853   4.470   3.111 -0.7690 -0.6017  0.5099
  331MOL0     H45609   6.329   4.649   2.854  0.0143 -1.1924 -0.5170
  331MOL0     H45610   6.586   4.679   2.859  1.7192 -1.3837  0.8348
  331MOL0     H45611   6.869   4.345   2.932 -1.7024 -1.8024  1.1832
  331MOL0     H45612   6.773   4.380   3.067  0.6202 -0.7742 -0.4796
  331MOL0     H45613   6.890   4.585   3.104  1.0588  0.5084 -2.1639
  331MOL0     H45614   6.997   4.442   3.126  0.6892  2.6451  2.9534
  331MOL0     H45615   7.116   4.494   2.932  0.6364  2.3589  0.0285
  331MOL0     H45616   6.982   4.598   2.873 -2.0493 -2.1406  0.2788
  331MOL0     H45617   7.078   4.770   3.033 -2.1612 -0.4859 -1.0526
  331MOL0     H45618   7.164   4.639   3.114 -0.8677 -1.5997 -0.0607
  331MOL0     H45619   7.206   4.734   2.822  0.1145 -1.1823 -0.1440
  331MOL0     H45620   7.306   4.622   2.903  1.2680  1.1724 -0.5592
  331MOL0     H45621   7.266   4.916   2.983  1.0922  0.4582  2.6511
  331MOL0     H45622   7.369   4.804   3.065  0.7501 -0.3581 -0.2416
  331MOL0     H45623   7.391   4.936   2.775 -1.3863  0.7636  1.4091
  331MOL0     H45624   7.485   4.793   2.811 -1.9353  1.0124 -2.8159
  331MOL0     H45625   7.605   4.999   2.845 -1.4588 -1.3329 -1.9666
  331MOL0     H45626   7.508   5.040   2.986  1.2792 -1.2656  0.4316
  331MOL0     H45627   7.796   4.789   2.905  1.6078 -1.0018  1.6706
  331MOL0     H45628   7.939   4.632   3.022 -0.7388 -0.3448 -0.3382
  331MOL0     H45629   7.938   4.649   3.204  1.8282  1.9970  1.2144
  331MOL0     H45630   8.136   4.746   3.083  0.7258  0.1737 -1.7486
  331MOL0     H45631   8.026   4.854   2.997  2.0779 -0.9376 -0.6924
  331MOL0     H45632   8.143   4.969   3.186  0.6518 -0.9787 -0.4069
  331MOL0     H45633   7.970   4.958   3.219  0.4053  1.3680 -1.2486
  331MOL0     H45634   8.028   4.762   3.376 -1.3630  0.2480 -3.0115
  331MOL0     H45635   8.201   4.770   3.330  0.9328  1.6217 -0.2149
  331MOL0     H45636   8.202   5.094   3.611  0.3605 -2.2345 -2.7992
  331MOL0     H45637   8.019   5.185   3.911  0.8578 -1.9236 -0.2731
  331MOL0     H45638   8.065   5.323   3.801  0.4478 -0.2588 -2.7091
  331MOL0     H45639   8.173   5.191   3.828 -0.3055 -0.6703 -1.9975
  331MOL0     H45640   7.568   5.258   4.026  0.4470 -0.1921 -1.8948
  331MOL0     H45641   7.454   5.436   4.142 -1.8199  1.6062 -0.9273
  331MOL0     H45642   7.575   5.860   4.278 -0.0792 -1.1120  0.8301
  331MOL0     H45643   7.684   5.820   4.162 -0.6821  3.1770 -2.0056
  331MOL0     H45644   7.517   5.859   3.981 -0.7979  1.6642 -0.3417
  331MOL0     H45645   7.396   5.887   4.103 -0.0263  0.4360 -0.7784
  331MOL0     H45646   7.651   6.047   4.075 -0.4344 -0.0850 -2.5504
  331MOL0     H45647   7.515   6.084   4.187  0.1257  0.7098 -0.3291
  331MOL0     H45648   7.364   6.155   4.023  0.8943  2.2792 -0.0666
  331MOL0     H45649   7.448   6.073   3.887  2.1646  0.0251 -0.6580
  331MOL0     H45650   7.644   6.223   3.941 -0.7055 -1.3863  0.4687
  331MOL0     H45651   7.505   6.294   3.860 -0.6664 -1.5714 -0.8464
  331MOL0     H45652   7.602   6.447   4.031 -0.4872 -0.6371 -2.5316
  331MOL0     H45653   7.587   6.324   4.158  1.2400  0.6626 -0.2127
  331MOL0     H45654   7.400   6.484   4.176 -0.4838 -0.5521  0.5354
  331MOL0     H45655   7.335   6.327   4.131 -1.1236 -0.0300 -1.8758
  331MOL0     H45656   7.301   6.416   3.893  0.1420 -1.8583  0.9710
  331MOL0     H45657   7.338   6.577   3.981  0.6262  0.2378  1.5183
  331MOL0     H45658   7.748   5.725   3.998 -0.4768  0.5109 -1.0732
  331MOL0     H45659   7.854   5.549   3.880 -0.7776  1.6963 -0.6242
  331MOL0     H45660   7.714   5.016   3.577 -0.4490 -2.5272  1.0024
  331MOL0     H45661   7.854   4.910   3.436 -0.1586 -2.0413  1.1994
  331MOL0     H45662   6.620   4.269   2.944  0.5726  1.9815  3.1926
  331MOL0     H45663   6.391   4.229   2.910  1.1287 -0.5859 -2.2457
  331MOL0     H45664   6.028   4.461   2.662  0.3859 -2.3819 -0.9262
  331MOL0     H45665   5.827   4.404   2.575 -2.7164 -0.2672 -0.1708
  331MOL0     H45666   5.613   4.161   2.813  0.3622  1.4887  0.6222
  331MOL0     H45667   5.485   4.272   2.886 -0.3058  2.7370 -0.2482
  331MOL0     H45668   5.379   4.077   2.770  4.8326 -2.5806  0.4012
  331MOL0     H45669   5.471   4.116   2.616 -0.4632  1.5791 -0.6721
  331MOL0     H45670   5.285   4.325   2.736 -0.1447 -0.8616  0.5369
  331MOL0     H45671   5.365   4.317   2.578  0.6793 -3.2016 -3.6074
  331MOL0     H45672   5.223   4.101   2.540 -0.3915  0.1681 -0.1240
  331MOL0     H45673   5.162   4.267   2.524 -2.7820 -0.8274  0.5391
  331MOL0     H45674   4.909   4.101   2.818  0.5911 -0.3211  1.1448
  331MOL0     H45675   5.651   4.393   2.967 -0.2900 -0.2788 -1.9641
  331MOL0     H45676   5.764   4.535   3.119 -1.0956 -0.7086 -1.6262
  331MOL0     H45677   5.839   4.369   3.150  2.5724 -2.1682 -1.8611
  331MOL0     H45678   5.942   4.519   3.150 -0.6732  1.1177 -1.6350
  332MOL0     O45679   6.587   8.169   6.049 -0.4138 -0.4185 -0.0636
  332MOL0     C45680   6.657   8.252   5.997  0.3212  0.0140  0.4590
  332MOL0     O45681   6.788   8.282   6.029 -0.4074 -0.2711  0.2022
  332MOL0     C45682   6.867   8.206   6.120  0.5467  0.1522  0.4285
  332MOL0     C45683   6.813   8.130   6.222 -0.4076 -0.2250  0.4400
  332MOL0     C45684   6.895   8.076   6.317  0.1901  0.0823 -0.5617
  332MOL0     C45685   7.032   8.094   6.302  0.1428  0.2846 -0.3165
  332MOL0     O45686   7.112   8.024   6.395  0.2131  0.2230 -0.0438
  332MOL0     C45687   7.254   8.043   6.386  0.0112  0.4627  0.2586
  332MOL0     C45688   7.326   7.979   6.508  0.3087  0.2099 -0.3216
  332MOL0     C45689   7.470   8.025   6.506  0.4677  0.1927 -0.5889
  332MOL0     C45690   7.552   7.975   6.626  0.0728  0.8076  0.3964
  332MOL0     C45691   7.503   8.023   6.766 -0.0573  0.1655  0.5833
  332MOL0     C45692   7.533   8.172   6.798  0.2150 -0.2637  0.5306
  332MOL0     C45693   7.685   8.207   6.813 -0.5819  0.4491  0.1593
  332MOL0     C45694   7.742   8.162   6.951  0.5767 -0.7582  0.0453
  332MOL0     N45695   7.877   8.110   6.954 -0.0791  0.5372  0.0752
  332MOL0     C45696   7.915   7.983   6.908  0.4982  0.2310 -0.8648
  332MOL0     C45697   8.047   7.973   6.933  0.1337 -0.1506 -0.4150
  332MOL0     C45698   8.139   7.865   6.883 -0.7919 -1.1372 -0.0610
  332MOL0     C45699   8.268   7.935   6.835  0.2619  0.4765  0.0597
  332MOL0     C45700   8.361   7.842   6.756 -0.5629 -0.1102  0.4867
  332MOL0     C45701   8.491   7.919   6.725  1.2922  0.7643  0.4887
  332MOL0     O45702   8.566   7.837   6.630  1.0061  1.1242 -0.2678
  332MOL0     C45703   8.693   7.891   6.597 -0.7137 -0.8070  0.1127
  332MOL0     C45704   8.787   7.965   6.679 -0.6293  0.1116 -0.2182
  332MOL0     C45705   8.910   7.997   6.630 -0.4822 -0.1583 -0.0049
  332MOL0     C45706   9.011   8.070   6.712  0.1639  0.0748  0.2480
  332MOL0     C45707   8.949   7.957   6.501 -0.2521  0.0311  0.7731
  332MOL0     C45708   9.084   7.971   6.437 -0.5185 -0.3604  0.7024
  332MOL0     O45709   9.176   8.061   6.488  0.2459  0.6969 -0.0951
  332MOL0     C45710   9.301   8.045   6.439 -1.1440  0.2048  0.2607
  332MOL0     C45711   9.385   7.945   6.495  0.4105 -0.9529 -0.4795
  332MOL0     C45712   9.520   7.935   6.458 -0.4023  0.4031  0.9138
  332MOL0     C45713   9.576   8.015   6.358  0.2234 -0.7460  0.5226
  332MOL0     O45714   9.693   7.986   6.299  0.0721 -0.3084 -0.5561
  332MOL0     C45715   9.710   7.848   6.267  0.5951  0.0374 -0.5663
  332MOL0     C45716   9.781   7.835   6.133  0.0696 -0.2329 -0.6898
  332MOL0     C45717   9.738   7.933   6.020  0.1394  0.2761  1.0690
  332MOL0     C45718   9.586   7.954   5.980  0.2942  0.2634  0.2781
  332MOL0     C45719   9.552   8.051   5.856  0.4287 -0.1909  0.8687
  332MOL0     C45720   9.395   8.082   5.823 -0.4261 -0.7589  0.8342
  332MOL0     C45721   9.313   8.098   5.950  0.5799  0.6704 -0.2149
  332MOL0     C45722   9.168   8.155   5.914 -0.1962 -0.5671 -0.1844
  332MOL0    Cl45723   9.174   8.329   5.906  0.2067 -0.1074 -0.1176
  332MOL0     C45724   9.486   8.115   6.302 -0.4873  0.2452 -0.0384
  332MOL0     C45725   9.357   8.127   6.338 -0.1342 -0.1271  0.5098
  332MOL0     O45726   9.113   7.891   6.344  0.3106 -0.1837 -0.2643
  332MOL0     C45727   8.856   7.894   6.417  1.1650 -0.1642 -0.8870
  332MOL0     C45728   8.733   7.866   6.471 -0.5559  1.5657  0.3894
  332MOL0     N45729   8.090   8.086   7.000 -0.2957  0.1969  0.0233
  332MOL0     N45730   7.988   8.169   7.008 -0.5123  0.1683 -0.4565
  332MOL0     C45731   7.086   8.161   6.192 -0.4458 -0.1514  0.7065
  332MOL0     C45732   7.009   8.224   6.100  0.6110 -0.1292 -0.3665
  332MOL0     C45733   6.603   8.310   5.866 -0.3216  0.6236  0.2774
  332MOL0     C45734   6.701   8.372   5.789 -0.7464 -0.3299  0.2082
  332MOL0     C45735   6.662   8.457   5.682  1.0813  0.7048  0.4279
  332MOL0     C45736   6.530   8.468   5.641 -0.2247  0.4831 -0.6392
  332MOL0     O45737   6.502   8.554   5.539  0.0896 -0.6954 -0.2019
  332MOL0     C45738   6.371   8.595   5.528 -0.7628 -1.1056  1.2344
  332MOL0     C45739   6.385   8.739   5.473  1.0186 -0.1368 -0.6031
  332MOL0     C45740   6.276   8.824   5.546 -0.6552  0.0070  0.7429
  332MOL0     C45741   6.266   8.959   5.475  0.0443 -0.3736  0.2884
  332MOL0     C45742   6.180   9.047   5.564  0.8518 -0.1819  1.0204
  332MOL0     C45743   6.108   9.112   5.637 -0.1960  1.2808 -0.6994
  332MOL0     C45744   6.433   8.384   5.704  0.6578 -1.4834  0.3675
  332MOL0     C45745   6.467   8.320   5.823 -0.0752  1.1120  0.0239
  332MOL0     C45746   6.352   8.276   5.906  0.1412  0.2678  0.5830
  332MOL0     H45747   6.710   8.143   6.253  0.4844  1.1881  3.1570
  332MOL0     H45748   6.863   8.020   6.404  0.0781  1.5105  0.3598
  332MOL0     H45749   7.276   8.150   6.380  0.6603  0.2633 -1.3099
  332MOL0     H45750   7.292   8.008   6.290 -1.5657 -0.9453  0.1013
  332MOL0     H45751   7.272   8.015   6.596  2.3277  0.5990  0.8219
  332MOL0     H45752   7.333   7.871   6.489  2.6452  0.6905 -2.9669
  332MOL0     H45753   7.495   7.961   6.421 -4.5355 -1.5056 -1.1662
  332MOL0     H45754   7.488   8.132   6.491  2.1090  0.1921  1.0054
  332MOL0     H45755   7.532   7.868   6.635  1.8511  0.4219  0.0682
  332MOL0     H45756   7.658   7.991   6.606 -0.0221  3.1257  1.4234
  332MOL0     H45757   7.539   7.962   6.849 -0.2563 -1.6443 -0.6086
  332MOL0     H45758   7.395   8.008   6.759 -0.4800  3.3190 -2.8163
  332MOL0     H45759   7.500   8.241   6.720 -0.8418 -1.2767  0.0424
  332MOL0     H45760   7.472   8.189   6.887 -0.7279 -1.6332  0.1796
  332MOL0     H45761   7.711   8.312   6.800  2.0794 -0.2053 -0.2698
  332MOL0     H45762   7.740   8.161   6.731 -4.2288 -0.7848 -1.8181
  332MOL0     H45763   7.732   8.239   7.028  2.1196  1.3733 -1.7599
  332MOL0     H45764   7.682   8.073   6.974  1.4338 -0.6802  2.8821
  332MOL0     H45765   7.851   7.937   6.833  2.1590 -0.9535 -1.6198
  332MOL0     H45766   8.091   7.812   6.800  0.7654  0.3831 -2.0514
  332MOL0     H45767   8.159   7.798   6.967 -1.2557  0.5624  1.4695
  332MOL0     H45768   8.228   8.005   6.761 -0.8535  2.6046  2.5043
  332MOL0     H45769   8.324   7.989   6.912  0.9868 -0.0409 -0.0962
  332MOL0     H45770   8.378   7.755   6.820 -3.2122 -0.4743  0.8407
  332MOL0     H45771   8.309   7.808   6.666 -1.8876  0.7042  0.9019
  332MOL0     H45772   8.469   8.019   6.686 -2.9196 -0.0191  0.4085
  332MOL0     H45773   8.547   7.927   6.819  3.0954 -1.6377 -0.2657
  332MOL0     H45774   8.767   8.001   6.779  2.6880  0.7462  0.3128
  332MOL0     H45775   9.020   8.178   6.695  1.5654  0.0000  0.4083
  332MOL0     H45776   9.109   8.024   6.707 -0.1563 -0.5259 -0.6523
  332MOL0     H45777   8.991   8.044   6.817 -3.7908 -1.6334 -0.7383
  332MOL0     H45778   9.349   7.878   6.573  2.2598 -0.2556  1.0630
  332MOL0     H45779   9.580   7.862   6.511 -1.7125 -0.1807  1.6394
  332MOL0     H45780   9.763   7.798   6.348 -0.7494 -1.7823 -0.7540
  332MOL0     H45781   9.611   7.802   6.258 -0.4078  2.0615 -0.5946
  332MOL0     H45782   9.879   7.878   6.158 -1.0145  1.9515  0.0446
  332MOL0     H45783   9.793   7.730   6.107 -0.8355 -1.2099  2.4334
  332MOL0     H45784   9.791   7.890   5.935  0.4803 -0.8705  1.8415
  332MOL0     H45785   9.787   8.029   6.036  0.9361 -0.0071  0.4004
  332MOL0     H45786   9.530   7.982   6.070 -2.4967 -0.2644 -1.1740
  332MOL0     H45787   9.546   7.857   5.949 -0.7510  0.8726 -0.3512
  332MOL0     H45788   9.599   8.147   5.881  0.4213 -0.1062  0.5602
  332MOL0     H45789   9.604   8.007   5.771  1.3066 -0.7283  1.6569
  332MOL0     H45790   9.348   8.000   5.768  0.0405  0.5275 -1.5975
  332MOL0     H45791   9.390   8.168   5.756 -1.4195 -1.1734  0.3620
  332MOL0     H45792   9.363   8.160   6.025  1.3103 -1.6518  1.3367
  332MOL0     H45793   9.303   7.996   5.989  1.3951  0.5940 -0.1867
  332MOL0     H45794   9.091   8.127   5.987 -1.4068  0.5642 -0.9775
  332MOL0     H45795   9.130   8.106   5.824  0.7457 -0.8873 -0.4175
  332MOL0     H45796   9.514   8.185   6.223  0.9289  1.1256  1.1959
  332MOL0     H45797   9.299   8.203   6.287  1.9064  0.1506 -1.6063
  332MOL0     H45798   8.882   7.871   6.314 -0.7028  0.3545 -1.5094
  332MOL0     H45799   8.669   7.813   6.401  0.0005  0.4399  0.7034
  332MOL0     H45800   7.191   8.174   6.172  0.2614 -3.9971  1.0153
  332MOL0     H45801   7.052   8.297   6.032 -0.4007 -1.1671 -2.1628
  332MOL0     H45802   6.806   8.375   5.814 -1.0510 -1.9082  1.9524
  332MOL0     H45803   6.743   8.512   5.636  1.5704  0.5590  1.0968
  332MOL0     H45804   6.316   8.534   5.457  0.7338 -1.4876  0.3647
  332MOL0     H45805   6.311   8.595   5.620 -2.7874 -2.0593 -0.0313
  332MOL0     H45806   6.370   8.747   5.365  2.3686  1.5048 -0.7200
  332MOL0     H45807   6.481   8.782   5.505 -0.9169  2.4668  2.3903
  332MOL0     H45808   6.174   8.786   5.544 -1.0258  0.9969 -0.5011
  332MOL0     H45809   6.312   8.830   5.649 -0.9122 -3.0672  1.1035
  332MOL0     H45810   6.218   8.959   5.377 -0.3329  1.0874  0.4417
  332MOL0     H45811   6.366   9.001   5.460 -0.7456  1.9055  0.9991
  332MOL0     H45812   6.049   9.176   5.700 -0.0645  2.9039 -2.1560
  332MOL0     H45813   6.326   8.396   5.687  1.1088  3.3968 -0.5159
  332MOL0     H45814   6.305   8.182   5.878  2.9920 -1.8938  2.4983
  332MOL0     H45815   6.379   8.285   6.012  0.6125 -0.3833  0.5223
  332MOL0     H45816   6.275   8.353   5.895  0.8143  1.4902  3.4113
  333MOL0     O45817  10.519   0.600  10.598  0.0988  0.0762 -0.0263
  333MOL0     C45818  10.533   0.610  10.476 -0.0161  0.2864 -0.7140
  333MOL0     O45819  10.651   0.581  10.410 -0.5405 -0.1707  0.9991
  333MOL0     C45820  10.773   0.569  10.468 -0.3149 -0.4616 -0.8573
  333MOL0     C45821  10.888   0.595  10.392  0.3874  0.0340  0.0120
  333MOL0     C45822  11.017   0.575  10.447  1.2436 -0.1404 -0.0228
  333MOL0     C45823  11.034   0.521  10.573  0.5443 -0.1585  0.2939
  333MOL0     O45824  11.159   0.518  10.636  0.3074 -0.7243  0.0866
  333MOL0     C45825  11.200   0.386  10.698  1.1406 -0.3054 -0.3535
  333MOL0     C45826  11.350   0.375  10.717 -0.0845 -0.0475 -0.5984
  333MOL0     C45827  11.429   0.423  10.601 -0.6863 -0.5962  0.0535
  333MOL0     C45828  11.405   0.340  10.473  0.3413 -0.6084  0.3346
  333MOL0     C45829  11.469   0.410  10.349 -0.2075 -0.7039  0.0004
  333MOL0     C45830  11.384   0.526  10.292 -0.3952  0.8380  0.0657
  333MOL0     C45831  11.452   0.582  10.171 -1.0194  0.2970  0.4977
  333MOL0     C45832  11.363   0.668  10.086 -1.1579 -0.3079 -0.1786
  333MOL0     N45833  11.254   0.595  10.031  0.4288  0.0685 -0.2954
  333MOL0     C45834  11.266   0.495   9.947 -0.4249 -0.0274 -0.2782
  333MOL0     C45835  11.145   0.469   9.901  0.4503  0.4657 -0.7031
  333MOL0     C45836  11.133   0.360   9.792 -0.0795 -0.1540 -0.3344
  333MOL0     C45837  11.087   0.413   9.657  0.5844  0.0159  0.2291
  333MOL0     C45838  10.940   0.424   9.644  0.0652 -0.1436 -0.6217
  333MOL0     C45839  10.898   0.450   9.501 -0.7477 -0.1557 -0.3063
  333MOL0     O45840  10.758   0.483   9.498  0.7035 -0.0310  0.3413
  333MOL0     C45841  10.727   0.563   9.391  0.4857 -1.4878 -0.5472
  333MOL0     C45842  10.731   0.699   9.414 -0.4162 -0.8965 -0.1709
  333MOL0     C45843  10.710   0.799   9.311 -0.3519 -0.3201 -0.7272
  333MOL0     C45844  10.718   0.940   9.340  0.8055 -0.9108  0.1198
  333MOL0     C45845  10.683   0.754   9.176 -0.1662  0.3735  0.7514
  333MOL0     C45846  10.659   0.840   9.060 -1.6230  0.2251 -0.7309
  333MOL0     O45847  10.560   0.799   8.976  0.6050  0.3303  0.2704
  333MOL0     C45848  10.512   0.897   8.887 -0.2887 -0.6262 -0.5563
  333MOL0     C45849  10.542   0.880   8.755 -0.4438 -0.5889  0.3347
  333MOL0     C45850  10.491   0.961   8.659  0.4831 -0.5298  0.2713
  333MOL0     C45851  10.402   1.062   8.689  0.3734 -0.4176  0.1462
  333MOL0     O45852  10.348   1.146   8.595  0.1706  0.2213 -0.6287
  333MOL0     C45853  10.352   1.114   8.454  0.7692 -0.3234 -0.5129
  333MOL0     C45854  10.255   1.197   8.365  0.8765 -0.6786 -0.9353
  333MOL0     C45855  10.311   1.338   8.372  1.1217  0.2585 -0.0972
  333MOL0     C45856  10.222   1.435   8.290  0.1167 -0.4402  0.5404
  333MOL0     C45857  10.321   1.540   8.236  0.3693 -0.5308  0.1622
  333MOL0     C45858  10.238   1.659   8.193 -0.7507 -0.0034  0.9137
  333MOL0     C45859  10.329   1.732   8.096  0.0586 -0.7254  0.3928
  333MOL0     C45860  10.262   1.833   8.007  0.5051  0.3597  0.3881
  333MOL0    Cl45861  10.372   1.875   7.873 -0.0486  0.1219  0.4242
  333MOL0     C45862  10.375   1.086   8.824  0.5419 -0.4140 -0.6244
  333MOL0     C45863  10.434   1.005   8.934 -0.4302  0.4037  0.1713
  333MOL0     O45864  10.721   0.951   9.055  0.1378  0.0237 -0.6319
  333MOL0     C45865  10.685   0.613   9.151 -0.3534 -0.5234 -0.7091
  333MOL0     C45866  10.703   0.528   9.264 -0.1266  0.6492  0.7664
  333MOL0     N45867  11.061   0.560   9.954  1.1411 -0.7617 -0.3463
  333MOL0     N45868  11.123   0.635  10.036 -0.4727 -0.0038 -0.5198
  333MOL0     C45869  10.920   0.474  10.642  0.1329  0.0662  0.5476
  333MOL0     C45870  10.792   0.495  10.590 -0.4175  0.1409  0.4911
  333MOL0     C45871  10.427   0.621  10.386  0.9452  0.4936 -0.1207
  333MOL0     C45872  10.456   0.700  10.272  0.4043  0.0125  0.0701
  333MOL0     C45873  10.356   0.737  10.182 -0.7459 -0.2209 -0.1582
  333MOL0     C45874  10.223   0.694  10.207 -0.8259  0.0737  0.2324
  333MOL0     O45875  10.114   0.715  10.128 -0.0400  0.8761 -0.5753
  333MOL0     C45876  10.124   0.814  10.021 -0.2598  0.2180 -0.3147
  333MOL0     C45877   9.978   0.851   9.977  0.0730 -0.7334  0.5595
  333MOL0     C45878   9.986   0.964   9.875  0.5720  0.1037 -0.5374
  333MOL0     C45879   9.987   0.901   9.730 -0.3022 -0.5227  0.4038
  333MOL0     C45880   9.995   1.014   9.634  0.0784 -0.6278  0.2549
  333MOL0     C45881  10.015   1.103   9.556  0.0821  0.5683 -0.3460
  333MOL0     C45882  10.199   0.607  10.311  0.5580 -0.4022 -0.1496
  333MOL0     C45883  10.295   0.567  10.403  0.0525 -0.0833 -0.0091
  333MOL0     C45884  10.269   0.470  10.511  0.4537 -0.2883  0.1075
  333MOL0     H45885  10.882   0.635  10.292  3.3617  1.9734  0.4832
  333MOL0     H45886  11.103   0.594  10.383  0.6767  2.0156 -0.2330
  333MOL0     H45887  11.183   0.303  10.628 -2.4029  1.0991 -1.3653
  333MOL0     H45888  11.139   0.369  10.787 -0.6299 -0.3459 -1.5273
  333MOL0     H45889  11.368   0.434  10.808 -0.5243 -1.3660  0.3812
  333MOL0     H45890  11.372   0.271  10.742  0.1244  0.4386  1.3797
  333MOL0     H45891  11.422   0.530  10.583 -0.7596 -0.5563  0.3163
  333MOL0     H45892  11.535   0.413  10.627 -1.2548 -0.5152  2.6925
  333MOL0     H45893  11.456   0.245  10.492  1.0848 -0.4368 -0.6803
  333MOL0     H45894  11.302   0.305  10.463 -0.3894  1.3895  0.5783
  333MOL0     H45895  11.486   0.334  10.273  1.7095  0.0156 -0.3440
  333MOL0     H45896  11.562   0.450  10.389 -0.0838 -0.7712 -0.2237
  333MOL0     H45897  11.290   0.476  10.267 -0.6525  1.7037 -0.7475
  333MOL0     H45898  11.365   0.604  10.366  2.8101  0.3566  1.6088
  333MOL0     H45899  11.488   0.494  10.117  1.0542  0.3756  1.6473
  333MOL0     H45900  11.545   0.625  10.210  0.6554 -1.8398 -0.8681
  333MOL0     H45901  11.324   0.749  10.148  1.4260  0.0091  1.1730
  333MOL0     H45902  11.421   0.720  10.008 -1.1217  1.6417  1.0758
  333MOL0     H45903  11.351   0.437   9.912 -1.9016 -2.0093 -0.7825
  333MOL0     H45904  11.069   0.276   9.823 -0.4839 -0.5657 -2.1551
  333MOL0     H45905  11.228   0.308   9.776 -0.3243  0.2900 -4.0513
  333MOL0     H45906  11.129   0.509   9.624 -0.0074  0.4020  0.5832
  333MOL0     H45907  11.124   0.346   9.579  1.3271  1.0322 -0.3181
  333MOL0     H45908  10.897   0.338   9.696  0.5403  0.7212  1.2930
  333MOL0     H45909  10.910   0.513   9.701  1.5166 -0.3422  0.5205
  333MOL0     H45910  10.957   0.531   9.456 -0.5459 -2.0764 -3.8046
  333MOL0     H45911  10.911   0.361   9.439 -1.5089 -0.7991  0.4314
  333MOL0     H45912  10.749   0.719   9.519 -1.3537  0.2742 -0.2125
  333MOL0     H45913  10.720   0.957   9.448 -2.3821  0.6918  0.0614
  333MOL0     H45914  10.626   0.990   9.308  2.0141  0.8042 -0.8204
  333MOL0     H45915  10.809   0.982   9.297 -0.5910  3.0966  0.7068
  333MOL0     H45916  10.591   0.792   8.716 -3.4397 -1.6730 -1.3735
  333MOL0     H45917  10.525   0.925   8.563  0.1636 -2.3007  0.7848
  333MOL0     H45918  10.452   1.123   8.411  0.6235 -1.1502 -1.0432
  333MOL0     H45919  10.328   1.008   8.448  1.4330 -0.5284  0.3026
  333MOL0     H45920  10.246   1.164   8.261  0.3819 -0.4051 -0.9863
  333MOL0     H45921  10.154   1.195   8.408  0.0815 -1.1619 -2.7110
  333MOL0     H45922  10.412   1.334   8.330  0.7620 -1.5245 -0.8776
  333MOL0     H45923  10.326   1.377   8.473 -0.2480 -1.4463  0.8122
  333MOL0     H45924  10.146   1.488   8.349 -0.0068 -1.5693  1.4223
  333MOL0     H45925  10.168   1.385   8.209 -0.9922  2.5354 -0.7367
  333MOL0     H45926  10.396   1.574   8.308  0.5388  0.2998 -0.3912
  333MOL0     H45927  10.373   1.491   8.153 -0.1987 -0.0542 -0.4957
  333MOL0     H45928  10.203   1.731   8.268 -0.5515  1.6460 -0.5215
  333MOL0     H45929  10.150   1.621   8.140  0.4983 -1.2786 -0.3314
  333MOL0     H45930  10.375   1.657   8.032 -1.2237 -0.6141 -0.6967
  333MOL0     H45931  10.408   1.795   8.139 -1.8788  2.3456 -0.2501
  333MOL0     H45932  10.239   1.931   8.050  2.4583  0.0520  2.3130
  333MOL0     H45933  10.172   1.791   7.963  2.3724 -1.2038 -2.2080
  333MOL0     H45934  10.301   1.159   8.855 -0.6816 -2.1371  0.7030
  333MOL0     H45935  10.415   1.015   9.040  1.6179  3.1035  0.3995
  333MOL0     H45936  10.670   0.567   9.053 -3.3140 -0.5540 -0.3352
  333MOL0     H45937  10.709   0.421   9.246 -2.0327 -0.4545  5.3102
  333MOL0     H45938  10.924   0.425  10.739 -1.1992 -0.3037  0.4398
  333MOL0     H45939  10.705   0.463  10.646  0.0558  0.0894  1.2151
  333MOL0     H45940  10.553   0.737  10.242 -0.1165 -0.8904 -3.1998
  333MOL0     H45941  10.366   0.799  10.094  1.1883 -1.8800 -1.2092
  333MOL0     H45942  10.178   0.904  10.053 -2.1065  0.6012  1.9749
  333MOL0     H45943  10.175   0.762   9.939 -1.3794  1.1640 -1.6551
  333MOL0     H45944   9.938   0.898  10.067  0.5078  0.7546  0.0132
  333MOL0     H45945   9.914   0.764   9.963 -1.5330 -0.0528  2.9777
  333MOL0     H45946   9.890   1.016   9.881  0.8291  0.4355  1.0567
  333MOL0     H45947  10.074   1.028   9.884  2.7443 -2.3643 -2.4125
  333MOL0     H45948   9.900   0.837   9.712  0.8126 -1.5538 -1.7329
  333MOL0     H45949  10.070   0.833   9.708  0.8950  0.0014  2.9113
  333MOL0     H45950  10.036   1.176   9.480  3.2298  0.2079  0.0619
  333MOL0     H45951  10.096   0.572  10.316  1.1827 -2.5238 -1.0756
  333MOL0     H45952  10.352   0.400  10.524 -1.8786 -3.2971 -0.1165
  333MOL0     H45953  10.251   0.533  10.598 -0.6976  1.2621 -1.1867
  333MOL0     H45954  10.181   0.406  10.504  0.6797 -0.8533  1.9293
  334MOL0     O45955   7.333   0.536   9.831  0.6263 -0.4136 -0.5776
  334MOL0     C45956   7.298   0.651   9.866  0.2809  0.1213  0.1025
  334MOL0     O45957   7.247   0.686   9.996 -0.5341 -0.6087 -0.0705
  334MOL0     C45958   7.256   0.602  10.096 -0.0563  0.7174  0.2541
  334MOL0     C45959   7.141   0.593  10.175 -0.5122  0.1623  1.2346
  334MOL0     C45960   7.122   0.500  10.275  0.7214 -0.0708  0.0262
  334MOL0     C45961   7.217   0.405  10.297  0.3996 -0.3317 -0.5210
  334MOL0     O45962   7.201   0.320  10.403  0.0366 -0.4257  0.2922
  334MOL0     C45963   7.303   0.341  10.502  0.6910  0.4563 -1.5101
  334MOL0     C45964   7.270   0.238  10.618 -0.5439 -0.3126  0.4394
  334MOL0     C45965   7.386   0.204  10.707 -0.1954 -0.0703  0.7061
  334MOL0     C45966   7.356   0.161  10.842  0.9271 -0.1313  0.4722
  334MOL0     C45967   7.469   0.120  10.927  0.2632  0.9686 -0.1370
  334MOL0     C45968   7.604   0.200  10.928  0.5967 -0.3026  0.2781
  334MOL0     C45969   7.696   0.145  11.030  0.4524 -0.1980 -0.4707
  334MOL0     C45970   7.755   0.016  10.962  0.0985  0.5448  1.2932
  334MOL0     N45971   7.905   0.017  10.969 -0.6524  0.5557 -0.4880
  334MOL0     C45972   7.981   0.062  10.864  0.8822  0.3748 -0.8877
  334MOL0     C45973   8.108   0.076  10.909  1.1734  0.1427  0.4203
  334MOL0     C45974   8.232   0.082  10.824 -0.6175  0.0214 -0.0506
  334MOL0     C45975   8.347   0.149  10.907  0.7469 -0.6474  0.1843
  334MOL0     C45976   8.449   0.206  10.807  0.2929  0.3826 -0.3814
  334MOL0     C45977   8.562   0.265  10.882  0.1913 -0.5577 -0.2294
  334MOL0     O45978   8.669   0.171  10.912 -0.2288 -0.7813  0.4564
  334MOL0     C45979   8.793   0.216  10.942  0.0271  0.2648 -0.3561
  334MOL0     C45980   8.818   0.306  11.039  0.4178  0.4302 -0.3477
  334MOL0     C45981   8.948   0.333  11.077 -0.2705  0.1883  0.2798
  334MOL0     C45982   8.974   0.418  11.198 -0.2642  0.5874 -0.0424
  334MOL0     C45983   9.054   0.283  10.997 -0.1024 -1.1707 -0.3603
  334MOL0     C45984   9.201   0.307  11.021  1.3802 -0.3913 -0.3255
  334MOL0     O45985   9.280   0.261  10.924  0.5064  0.3276 -0.8943
  334MOL0     C45986   9.418   0.257  10.934  0.0540  0.8288  0.2713
  334MOL0     C45987   9.496   0.238  11.054 -0.0031  0.4723 -0.1606
  334MOL0     C45988   9.629   0.260  11.052 -0.8535  0.4818  0.2342
  334MOL0     C45989   9.696   0.289  10.938 -0.9069 -0.1259 -0.5944
  334MOL0     O45990   9.834   0.298  10.915 -0.4570 -0.8793 -0.7842
  334MOL0     C45991   9.927   0.218  10.993  0.6210  0.1211  0.2154
  334MOL0     C45992  10.062   0.197  10.927  0.5772 -0.9461 -0.3860
  334MOL0     C45993  10.149   0.321  10.915 -0.3546 -1.0063  0.2163
  334MOL0     C45994  10.298   0.295  10.909  0.7578 -0.2611 -0.5485
  334MOL0     C45995  10.370   0.433  10.923  0.6282 -0.1504 -0.0211
  334MOL0     C45996  10.528   0.434  10.955  0.5092 -0.1353 -0.0379
  334MOL0     C45997  10.598   0.570  10.973 -0.4631  0.0605 -0.1150
  334MOL0     C45998  10.708   0.554  11.076 -0.0840 -0.0955  0.5280
  334MOL0    Cl45999  10.850   0.434  11.031  0.0535  0.2856 -0.0235
  334MOL0     C46000   9.625   0.311  10.823 -0.0927 -0.5944 -0.4133
  334MOL0     C46001   9.487   0.296  10.820  0.8284  0.5701 -0.3512
  334MOL0     O46002   9.241   0.363  11.120 -0.2043 -0.6531 -0.3464
  334MOL0     C46003   9.023   0.190  10.892 -0.2431 -0.0708 -0.4406
  334MOL0     C46004   8.891   0.157  10.861  0.3646 -0.0748 -0.0596
  334MOL0     N46005   8.087   0.061  11.043 -0.4437  0.0891  0.4636
  334MOL0     N46006   7.974   0.018  11.080  0.1627 -0.0763  0.2612
  334MOL0     C46007   7.343   0.421  10.231 -0.8842  0.1771 -0.3881
  334MOL0     C46008   7.360   0.517  10.128  0.4155 -0.5349  0.6113
  334MOL0     C46009   7.286   0.755   9.760  0.1639 -0.2598 -0.7320
  334MOL0     C46010   7.159   0.792   9.723  0.7387 -0.1898  0.2099
  334MOL0     C46011   7.135   0.894   9.641 -0.2087  0.4647 -0.1776
  334MOL0     C46012   7.246   0.961   9.585  0.0285  0.3818  0.0685
  334MOL0     O46013   7.225   1.062   9.495 -1.0224  0.2901 -0.2553
  334MOL0     C46014   7.122   1.163   9.527 -0.5780 -0.3874 -0.4127
  334MOL0     C46015   7.146   1.301   9.457  0.2775 -0.2300  0.6202
  334MOL0     C46016   7.259   1.373   9.521 -0.0682  0.3926 -1.3109
  334MOL0     C46017   7.291   1.507   9.470 -0.0697  0.8063  0.8508
  334MOL0     C46018   7.413   1.551   9.546  1.3044 -0.7035  0.6122
  334MOL0     C46019   7.530   1.568   9.585 -0.1294 -0.5852  0.6038
  334MOL0     C46020   7.371   0.920   9.616  0.3936 -0.1200  0.4333
  334MOL0     C46021   7.401   0.822   9.710  0.7979  0.3492 -0.6262
  334MOL0     C46022   7.546   0.779   9.745  0.2744 -0.1829  0.3329
  334MOL0     H46023   7.067   0.665  10.144  0.6221 -0.2332 -3.1654
  334MOL0     H46024   7.037   0.519  10.340  2.3925 -2.1366  3.0465
  334MOL0     H46025   7.301   0.439  10.549 -2.4016 -0.2548  0.1468
  334MOL0     H46026   7.405   0.316  10.472  2.0690  1.4970  1.8164
  334MOL0     H46027   7.195   0.281  10.684  0.8562 -1.0128  2.5924
  334MOL0     H46028   7.225   0.144  10.585 -1.9220  0.1237  1.0183
  334MOL0     H46029   7.447   0.127  10.660 -1.0373  0.7109 -1.8644
  334MOL0     H46030   7.448   0.294  10.697 -0.1326 -0.1652  0.1902
  334MOL0     H46031   7.304   0.245  10.889  1.8078  2.1494 -2.2732
  334MOL0     H46032   7.288   0.077  10.827 -1.0876  1.0895  2.2087
  334MOL0     H46033   7.489   0.014  10.907  1.8470  0.3636  3.6432
  334MOL0     H46034   7.436   0.116  11.031  1.6600  0.8853  0.3254
  334MOL0     H46035   7.654   0.211  10.831  0.7521  0.3818  0.4310
  334MOL0     H46036   7.588   0.305  10.956  1.1266  0.2883 -1.4398
  334MOL0     H46037   7.642   0.134  11.124  1.5055  2.9516  0.6155
  334MOL0     H46038   7.777   0.217  11.048  0.5019  0.1861 -2.1166
  334MOL0     H46039   7.729  -0.076  11.014  3.9450 -0.6829  1.3321
  334MOL0     H46040   7.715  -0.009  10.863  0.6314  1.1381  0.9154
  334MOL0     H46041   7.957   0.053  10.759 -0.4436 -1.0177 -0.5015
  334MOL0     H46042   8.213   0.159  10.748  0.3838  2.7822  2.2785
  334MOL0     H46043   8.268  -0.013  10.785  0.9116 -0.9693  3.3795
  334MOL0     H46044   8.310   0.237  10.959 -0.5515 -0.8260 -0.3881
  334MOL0     H46045   8.383   0.080  10.984 -1.7412 -0.4709  1.6343
  334MOL0     H46046   8.488   0.142  10.727  2.0247 -0.7061  1.2519
  334MOL0     H46047   8.396   0.286  10.754 -0.6214 -1.5426 -2.6178
  334MOL0     H46048   8.603   0.346  10.822 -1.0698 -1.3980 -2.3181
  334MOL0     H46049   8.531   0.311  10.976  1.9308  0.8743 -0.2966
  334MOL0     H46050   8.730   0.336  11.094  0.8679 -0.6705  1.0167
  334MOL0     H46051   9.023   0.352  11.269 -0.1000  0.3815 -0.3435
  334MOL0     H46052   8.879   0.439  11.249  1.5006  0.6207  3.5310
  334MOL0     H46053   9.028   0.511  11.176  1.0495  0.1828  1.3621
  334MOL0     H46054   9.442   0.200  11.139  3.0358 -3.9632  0.0895
  334MOL0     H46055   9.682   0.247  11.145 -1.6132  2.2913  0.9723
  334MOL0     H46056   9.953   0.275  11.083 -3.3064  1.8621  0.4249
  334MOL0     H46057   9.881   0.121  11.017  0.1624  0.5353  1.0617
  334MOL0     H46058  10.116   0.124  10.989  1.1075 -2.0703 -2.0978
  334MOL0     H46059  10.047   0.153  10.828  0.7562 -0.7381 -0.5052
  334MOL0     H46060  10.124   0.379  11.004  0.3356 -0.0603 -0.1841
  334MOL0     H46061  10.115   0.364  10.820 -2.5861  0.1694  1.4752
  334MOL0     H46062  10.312   0.238  10.817  2.2330 -0.5137 -0.1953
  334MOL0     H46063  10.331   0.238  10.997  2.9224  1.7101  0.0275
  334MOL0     H46064  10.370   0.491  10.830  2.5031  3.8714  2.2330
  334MOL0     H46065  10.323   0.494  11.001 -1.8538  4.4488 -4.4594
  334MOL0     H46066  10.574   0.385  10.869  0.1096  1.9284 -1.5252
  334MOL0     H46067  10.550   0.373  11.043  0.6783  2.2468  1.6741
  334MOL0     H46068  10.521   0.639  11.010  0.7069 -0.4444  3.7288
  334MOL0     H46069  10.642   0.620  10.887  1.2590 -2.8664 -1.0815
  334MOL0     H46070  10.652   0.545  11.169 -0.8170  0.1315  0.1180
  334MOL0     H46071  10.751   0.654  11.079 -0.8176  0.4083 -2.3042
  334MOL0     H46072   9.674   0.353  10.736 -0.7124  0.1029 -0.4385
  334MOL0     H46073   9.430   0.310  10.728 -0.2441  0.2672  0.2559
  334MOL0     H46074   9.107   0.134  10.850 -0.9034 -1.1286 -0.4004
  334MOL0     H46075   8.860   0.081  10.790 -1.6171  0.3982  0.2484
  334MOL0     H46076   7.428   0.353  10.238  0.0889  1.4378  0.7014
  334MOL0     H46077   7.452   0.515  10.070 -0.3165 -0.3313 -0.5769
  334MOL0     H46078   7.079   0.743   9.778  0.2814  0.2609 -0.0486
  334MOL0     H46079   7.035   0.927   9.614 -0.2828  2.2144  1.9964
  334MOL0     H46080   7.028   1.122   9.487 -0.1363  0.9225 -3.0652
  334MOL0     H46081   7.093   1.179   9.631 -2.3051 -1.1431 -0.7304
  334MOL0     H46082   7.053   1.357   9.475 -1.0782 -2.1719  0.0195
  334MOL0     H46083   7.161   1.287   9.350  0.6122  0.3601  0.5870
  334MOL0     H46084   7.241   1.387   9.628  0.3763  0.6799 -1.2741
  334MOL0     H46085   7.344   1.307   9.504  0.1719  0.4804 -0.4941
  334MOL0     H46086   7.202   1.568   9.491  1.6924  3.2002  1.7660
  334MOL0     H46087   7.305   1.506   9.362 -0.1388  3.9199  0.7158
  334MOL0     H46088   7.629   1.578   9.625 -0.4998 -0.9455  1.6337
  334MOL0     H46089   7.459   0.962   9.567 -0.3140  1.2974  0.3338
  334MOL0     H46090   7.606   0.863   9.711 -2.7117  2.2604  0.7063
  334MOL0     H46091   7.559   0.766   9.852 -3.0340  0.8308  0.9765
  334MOL0     H46092   7.554   0.692   9.678  1.4242  0.9033 -1.0013
  335MOL0     O46093   1.385   6.014   8.014 -0.1104  0.4541  0.4596
  335MOL0     C46094   1.319   5.980   8.115 -0.9606  0.3509  0.6398
  335MOL0     O46095   1.359   6.006   8.241  0.0379 -0.0488 -0.2606
  335MOL0     C46096   1.478   6.061   8.274 -0.3539  0.2649 -0.5913
  335MOL0     C46097   1.539   6.169   8.220  0.0144 -0.4317  0.9199
  335MOL0     C46098   1.670   6.209   8.253 -0.6622  0.1794 -0.8574
  335MOL0     C46099   1.745   6.142   8.350 -0.2818  0.3432 -0.3767
  335MOL0     O46100   1.876   6.175   8.374 -0.0849 -0.0439 -0.0684
  335MOL0     C46101   1.954   6.141   8.490 -0.3211  0.4984  0.0951
  335MOL0     C46102   1.890   6.202   8.611  0.0191  0.6012  0.0940
  335MOL0     C46103   1.865   6.110   8.731 -0.7986  0.0774 -0.2785
  335MOL0     C46104   1.831   6.205   8.842  1.0081  0.1385  0.0315
  335MOL0     C46105   1.833   6.136   8.982  0.0141 -0.0764  0.8372
  335MOL0     C46106   1.701   6.062   9.026 -0.7181 -1.0986 -0.5282
  335MOL0     C46107   1.582   6.152   9.062 -0.3492 -0.4970 -1.3363
  335MOL0     C46108   1.466   6.067   9.125 -0.0186  0.3031 -0.0345
  335MOL0     N46109   1.345   6.150   9.145 -0.4284  0.0185  0.1376
  335MOL0     C46110   1.256   6.131   9.252  0.0457  0.2145 -1.2260
  335MOL0     C46111   1.144   6.212   9.226 -0.2267 -0.0686  0.4118
  335MOL0     C46112   1.018   6.196   9.300 -0.0990 -0.0996  0.4330
  335MOL0     C46113   0.912   6.133   9.222  0.1596  0.7865 -0.6905
  335MOL0     C46114   0.775   6.167   9.266  0.5137 -0.1752 -0.0688
  335MOL0     C46115   0.748   6.105   9.400 -0.0010  0.2827  0.5746
  335MOL0     O46116   0.630   6.160   9.449 -0.1395  1.1350  0.6936
  335MOL0     C46117   0.523   6.071   9.447 -0.1653 -0.2218  0.2397
  335MOL0     C46118   0.430   6.092   9.548 -0.1229 -0.1357 -0.3861
  335MOL0     C46119   0.316   6.019   9.572 -0.0666  0.6907 -0.6063
  335MOL0     C46120   0.232   6.059   9.693 -0.3827  1.2000 -0.1596
  335MOL0     C46121   0.279   5.922   9.472 -0.6862  0.7059  1.0908
  335MOL0     C46122   0.158   5.842   9.468 -0.0523  0.4225  0.4769
  335MOL0     O46123   0.061   5.892   9.545 -0.2647  0.2325 -0.4757
  335MOL0     C46124  -0.058   5.825   9.551  0.0348 -0.0354  0.1580
  335MOL0     C46125  -0.084   5.716   9.635 -0.1664 -0.1840  0.1566
  335MOL0     C46126  -0.211   5.649   9.633  0.5087 -0.2974 -0.2297
  335MOL0     C46127  -0.301   5.686   9.537  0.5877  0.6626  1.2042
  335MOL0     O46128  -0.413   5.611   9.510 -0.3637  0.5891  0.1684
  335MOL0     C46129  -0.406   5.464   9.500  0.3665  0.0755  0.3498
  335MOL0     C46130  -0.544   5.405   9.510  1.0921 -0.4506 -0.4739
  335MOL0     C46131  -0.636   5.435   9.391 -0.0477  0.2600 -0.8424
  335MOL0     C46132  -0.785   5.400   9.422 -0.6800 -0.0623  0.0847
  335MOL0     C46133  -0.888   5.473   9.336 -0.6255  0.0268  0.5074
  335MOL0     C46134  -1.040   5.460   9.374 -0.2158  0.1245 -0.7603
  335MOL0     C46135  -1.073   5.564   9.484 -0.4269 -1.1200 -0.2666
  335MOL0     C46136  -1.122   5.707   9.435  0.9958 -0.2016 -0.1086
  335MOL0    Cl46137  -1.176   5.798   9.576  0.0194 -0.0251 -0.0875
  335MOL0     C46138  -0.278   5.803   9.461  0.4844  1.1557  1.0311
  335MOL0     C46139  -0.156   5.863   9.463 -0.2666  0.1876  0.9684
  335MOL0     O46140   0.147   5.739   9.400 -0.1950 -0.1805 -0.1111
  335MOL0     C46141   0.372   5.906   9.357  0.8570 -0.2492  0.1498
  335MOL0     C46142   0.487   5.979   9.346  0.0398 -0.4606 -0.8433
  335MOL0     N46143   1.168   6.274   9.105 -0.4656 -0.5497 -0.0479
  335MOL0     N46144   1.288   6.242   9.061 -0.3036  0.5058  0.0671
  335MOL0     C46145   1.670   6.041   8.420 -0.1724  0.8663  0.0777
  335MOL0     C46146   1.539   6.010   8.389  0.4842 -0.0025 -0.1980
  335MOL0     C46147   1.199   5.902   8.097  0.6864  0.5750 -0.0429
  335MOL0     C46148   1.136   5.842   8.213  0.2262  0.1147 -0.2209
  335MOL0     C46149   1.016   5.773   8.199 -0.2117 -0.1702  0.2758
  335MOL0     C46150   0.947   5.772   8.079 -0.8872  0.1578 -0.4143
  335MOL0     O46151   0.821   5.717   8.085 -0.2918  0.1502 -0.6167
  335MOL0     C46152   0.768   5.646   7.977  0.2921 -0.0434 -1.1813
  335MOL0     C46153   0.653   5.553   8.040 -0.7271 -0.0634  0.4191
  335MOL0     C46154   0.554   5.636   8.120 -0.7126  0.1337  0.7686
  335MOL0     C46155   0.438   5.548   8.161 -0.3371 -0.1010  0.2883
  335MOL0     C46156   0.340   5.527   8.059  0.0588  0.0510 -0.0078
  335MOL0     C46157   0.254   5.522   7.976 -0.3238 -0.5550  0.5173
  335MOL0     C46158   0.997   5.830   7.964 -0.5877 -0.1361  0.6536
  335MOL0     C46159   1.129   5.886   7.971 -0.8811 -0.4671 -0.4396
  335MOL0     C46160   1.178   5.945   7.842  0.6357 -0.0728  0.3548
  335MOL0     H46161   1.499   6.211   8.129  3.7740  1.3686 -0.1204
  335MOL0     H46162   1.715   6.296   8.205  0.7876 -0.2065 -0.2468
  335MOL0     H46163   2.055   6.171   8.462 -0.7661  0.5687 -1.5233
  335MOL0     H46164   1.960   6.034   8.512 -2.4049  0.2061 -0.5396
  335MOL0     H46165   1.959   6.277   8.651 -1.1972  0.6935  2.1661
  335MOL0     H46166   1.793   6.241   8.579 -0.5511 -1.7122 -1.2567
  335MOL0     H46167   1.794   6.027   8.721  1.0263 -2.0876  2.9056
  335MOL0     H46168   1.958   6.055   8.744 -0.9198 -0.3780 -1.2272
  335MOL0     H46169   1.893   6.295   8.841 -1.5082  2.0055  0.5439
  335MOL0     H46170   1.728   6.236   8.824  0.6122 -0.1026  1.7815
  335MOL0     H46171   1.835   6.208   9.064 -2.3864  1.1720 -0.1086
  335MOL0     H46172   1.923   6.073   8.989 -0.1978 -0.3920  0.7552
  335MOL0     H46173   1.674   5.986   8.952 -1.2422 -0.7022 -0.7552
  335MOL0     H46174   1.727   6.014   9.121 -0.7119 -2.4573 -1.1942
  335MOL0     H46175   1.541   6.188   8.967  1.0550 -1.4521 -2.3477
  335MOL0     H46176   1.604   6.231   9.134 -0.1362 -1.4593 -0.3203
  335MOL0     H46177   1.454   5.973   9.071 -0.6658 -0.4830  1.4220
  335MOL0     H46178   1.509   6.043   9.223  0.0073  0.1931 -0.0730
  335MOL0     H46179   1.261   6.060   9.333 -2.2710 -1.6743 -2.6242
  335MOL0     H46180   0.978   6.296   9.322 -1.3392 -0.6398  0.7561
  335MOL0     H46181   1.038   6.142   9.393  0.1946  1.1818  1.1346
  335MOL0     H46182   0.907   6.156   9.116 -2.0960  0.2360 -0.7561
  335MOL0     H46183   0.924   6.024   9.223  3.0472  1.0135 -1.0179
  335MOL0     H46184   0.778   6.276   9.272  0.7730  0.0405 -2.9032
  335MOL0     H46185   0.699   6.132   9.196 -1.2674  1.8295  0.7671
  335MOL0     H46186   0.755   5.997   9.384  0.1011  0.2811  0.6198
  335MOL0     H46187   0.834   6.136   9.462 -0.8566  3.3514  0.3989
  335MOL0     H46188   0.453   6.170   9.620 -4.5452  0.1359  1.0126
  335MOL0     H46189   0.214   5.970   9.753 -1.8936  0.8645 -1.0743
  335MOL0     H46190   0.139   6.108   9.664 -0.5699  0.7215 -0.3771
  335MOL0     H46191   0.294   6.129   9.750  0.7527  1.8714 -2.1133
  335MOL0     H46192  -0.012   5.675   9.705  2.0159 -2.4670 -3.1024
  335MOL0     H46193  -0.220   5.563   9.698  2.5019 -1.7889 -1.8303
  335MOL0     H46194  -0.358   5.435   9.406 -0.0762 -0.0048  0.1446
  335MOL0     H46195  -0.357   5.426   9.590  1.3692  0.3219 -0.0734
  335MOL0     H46196  -0.533   5.298   9.531 -0.4316 -0.0613  2.9997
  335MOL0     H46197  -0.595   5.453   9.594  2.5410  1.1108 -0.4413
  335MOL0     H46198  -0.605   5.367   9.312 -2.0419 -1.5698 -0.1448
  335MOL0     H46199  -0.635   5.539   9.358 -0.5977  0.3784 -0.5109
  335MOL0     H46200  -0.804   5.440   9.522 -0.2920  0.1770  0.0636
  335MOL0     H46201  -0.797   5.291   9.424  2.1770 -0.4987  3.2024
  335MOL0     H46202  -0.858   5.578   9.328  0.8627 -0.5103 -2.6209
  335MOL0     H46203  -0.875   5.451   9.230  1.5247  0.7002  0.6009
  335MOL0     H46204  -1.066   5.360   9.408 -0.5199  0.8226  1.2460
  335MOL0     H46205  -1.099   5.488   9.286 -1.5592 -0.2815 -0.0151
  335MOL0     H46206  -0.978   5.586   9.534 -0.3535  0.8272 -1.1600
  335MOL0     H46207  -1.153   5.523   9.545 -0.5214  0.6997  0.9072
  335MOL0     H46208  -1.209   5.696   9.370 -1.2417  0.7013  2.5649
  335MOL0     H46209  -1.047   5.768   9.383  3.1273 -1.4429  1.3340
  335MOL0     H46210  -0.355   5.831   9.390 -0.9305 -2.8156  0.7319
  335MOL0     H46211  -0.123   5.949   9.406 -0.0826 -1.1850 -1.0975
  335MOL0     H46212   0.348   5.829   9.285 -2.1782  0.3277  0.4143
  335MOL0     H46213   0.548   5.961   9.258 -0.1556 -1.8905 -0.7184
  335MOL0     H46214   1.714   5.981   8.499  1.0678  0.7746 -0.6595
  335MOL0     H46215   1.507   5.920   8.441 -0.2257  0.9735  1.1062
  335MOL0     H46216   1.187   5.859   8.307  0.5381 -1.1048 -0.1608
  335MOL0     H46217   0.954   5.745   8.283 -2.1293  2.1202 -0.2689
  335MOL0     H46218   0.724   5.725   7.915 -1.2931  1.2806  1.4479
  335MOL0     H46219   0.853   5.589   7.939  1.0037 -0.2979  0.7134
  335MOL0     H46220   0.682   5.472   8.107 -1.0758  1.2938  2.2981
  335MOL0     H46221   0.610   5.511   7.948  3.0341 -2.0000 -0.6587
  335MOL0     H46222   0.599   5.672   8.213 -1.1027 -0.2917  1.1298
  335MOL0     H46223   0.516   5.725   8.069  2.3791  1.0518 -0.1691
  335MOL0     H46224   0.383   5.593   8.245  1.0924 -0.1161  1.2620
  335MOL0     H46225   0.464   5.446   8.190 -1.4508 -0.9156 -1.4490
  335MOL0     H46226   0.182   5.502   7.899  1.4406 -0.3185 -1.2802
  335MOL0     H46227   0.947   5.819   7.868  2.0419  0.1593 -0.8412
  335MOL0     H46228   1.252   5.887   7.786  3.0676 -1.8380  4.8816
  335MOL0     H46229   1.090   5.972   7.782  1.0172 -0.8140 -0.5742
  335MOL0     H46230   1.226   6.041   7.860 -1.2187  0.6428  1.7754
  336MOL0     O46231   0.384   1.902   9.238 -0.4609 -0.7280  0.2858
  336MOL0     C46232   0.369   1.956   9.129  0.5035  0.2677  0.1060
  336MOL0     O46233   0.467   2.011   9.053  0.4346 -0.0644 -0.0149
  336MOL0     C46234   0.567   2.092   9.090 -0.2920  0.5809 -0.1341
  336MOL0     C46235   0.659   2.121   8.984  0.4463 -0.7327 -0.0449
  336MOL0     C46236   0.774   2.187   9.012  0.1976  0.7839 -0.9703
  336MOL0     C46237   0.792   2.240   9.145 -0.9871  0.0249  0.3971
  336MOL0     O46238   0.906   2.299   9.193 -0.1053 -0.3171 -0.5567
  336MOL0     C46239   1.015   2.330   9.102  0.1024 -0.2470  0.5141
  336MOL0     C46240   1.117   2.411   9.178  0.6923  1.0824  0.5312
  336MOL0     C46241   1.197   2.493   9.087 -0.5596 -0.1755 -0.3843
  336MOL0     C46242   1.296   2.588   9.158  0.8536  0.4507  0.2675
  336MOL0     C46243   1.430   2.513   9.175 -0.3061  0.5634  0.2002
  336MOL0     C46244   1.523   2.600   9.262  0.0583 -0.9927  0.0325
  336MOL0     C46245   1.580   2.718   9.183 -0.3175  0.0553 -0.0676
  336MOL0     C46246   1.694   2.780   9.266 -0.0545 -0.4631  0.3824
  336MOL0     N46247   1.777   2.871   9.187  0.7770 -0.3770 -0.1699
  336MOL0     C46248   1.861   2.964   9.239  0.2439 -0.0481 -0.6701
  336MOL0     C46249   1.924   3.022   9.131 -0.1093  0.1352  0.3461
  336MOL0     C46250   2.032   3.132   9.134 -0.2516  0.5006 -0.3214
  336MOL0     C46251   2.163   3.102   9.061 -0.0880 -0.3528  0.3832
  336MOL0     C46252   2.259   3.208   9.098  0.0411  1.1562  0.3870
  336MOL0     C46253   2.399   3.213   9.030  0.9052  0.5503 -0.8410
  336MOL0     O46254   2.458   3.080   9.061 -0.9764  0.1625  0.7580
  336MOL0     C46255   2.597   3.086   9.071 -0.4944  1.0192 -0.1884
  336MOL0     C46256   2.657   3.014   9.171  0.2923 -0.5794 -0.6075
  336MOL0     C46257   2.799   3.004   9.181  0.1580  0.3294 -0.9724
  336MOL0     C46258   2.852   2.942   9.306  0.7660  0.3039 -0.6010
  336MOL0     C46259   2.884   3.076   9.092  1.2335 -0.3159 -0.7672
  336MOL0     C46260   3.032   3.099   9.110  1.0864 -0.0582  0.0435
  336MOL0     O46261   3.106   3.150   9.011  0.1421  0.6686 -0.7738
  336MOL0     C46262   3.244   3.142   9.022 -0.0246 -0.3079  0.2168
  336MOL0     C46263   3.319   3.017   8.984 -0.1827 -0.2309 -0.3788
  336MOL0     C46264   3.459   3.017   8.988 -1.6361 -0.7773 -0.3647
  336MOL0     C46265   3.527   3.129   9.037  0.1427 -0.3544  0.1706
  336MOL0     O46266   3.662   3.135   9.043  0.6285  0.8702 -0.1297
  336MOL0     C46267   3.738   3.021   9.097 -0.6462  0.1330  0.2421
  336MOL0     C46268   3.862   3.070   9.167 -0.3506  0.5700  0.0977
  336MOL0     C46269   3.822   3.124   9.304  0.1498 -0.8372  0.3868
  336MOL0     C46270   3.800   3.002   9.395 -0.0000  0.2628  0.8225
  336MOL0     C46271   3.835   3.038   9.551  0.0173  0.3080  0.1556
  336MOL0     C46272   3.809   2.908   9.624  0.0430  0.2550 -0.3913
  336MOL0     C46273   3.857   2.909   9.763 -0.7649 -0.9355  0.2081
  336MOL0     C46274   3.895   2.774   9.830 -0.0628 -0.3522 -0.4204
  336MOL0    Cl46275   3.770   2.661   9.820  0.4280 -0.0415  0.3633
  336MOL0     C46276   3.451   3.245   9.074 -0.5750 -0.2502  0.7033
  336MOL0     C46277   3.315   3.249   9.062 -0.1428 -0.6851 -0.7109
  336MOL0     O46278   3.078   3.076   9.220 -0.3036  0.4858 -0.7704
  336MOL0     C46279   2.821   3.147   8.988 -0.5271 -0.6424  0.2893
  336MOL0     C46280   2.687   3.156   8.984  0.7937 -1.2895 -0.0749
  336MOL0     N46281   1.882   2.954   9.014 -0.0538 -0.0587  1.4361
  336MOL0     N46282   1.802   2.863   9.053  0.2722 -1.0749 -0.2956
  336MOL0     C46283   0.692   2.222   9.242 -0.1660  0.0563 -0.5865
  336MOL0     C46284   0.578   2.152   9.215 -0.0360  0.9552  0.3805
  336MOL0     C46285   0.240   1.942   9.057  0.5146  0.3442  0.2193
  336MOL0     C46286   0.230   1.988   8.921 -0.3784  0.0199  0.4895
  336MOL0     C46287   0.109   1.982   8.847 -0.1645  0.2462  0.5198
  336MOL0     C46288  -0.012   1.943   8.898  0.1181  0.9716 -0.1187
  336MOL0     O46289  -0.122   1.909   8.825 -0.5299  0.3767 -0.5788
  336MOL0     C46290  -0.249   1.915   8.888 -0.0508  0.3972  0.1424
  336MOL0     C46291  -0.354   1.908   8.778  1.3717 -0.5021 -0.4351
  336MOL0     C46292  -0.492   1.895   8.843  0.4519  0.3608  0.3404
  336MOL0     C46293  -0.608   1.867   8.753  1.1406 -0.0556  0.2240
  336MOL0     C46294  -0.644   1.976   8.655 -0.3821 -0.1073  0.2457
  336MOL0     C46295  -0.679   2.067   8.583 -1.0839  0.7263  0.9575
  336MOL0     C46296  -0.000   1.890   9.034  0.0975  0.4919  0.6459
  336MOL0     C46297   0.114   1.889   9.111  0.0381 -0.0713  0.1002
  336MOL0     C46298   0.103   1.844   9.259  0.0193 -0.0986  0.3971
  336MOL0     H46299   0.646   2.067   8.891  1.6689  2.6250 -2.3904
  336MOL0     H46300   0.852   2.173   8.938  1.3668 -2.2577  0.6612
  336MOL0     H46301   0.973   2.388   9.019  1.1361  1.2730  1.0029
  336MOL0     H46302   1.054   2.243   9.050 -1.5638 -0.4577 -0.4453
  336MOL0     H46303   1.058   2.473   9.245 -0.8064 -0.7227  0.9645
  336MOL0     H46304   1.185   2.352   9.241  1.3249 -0.2011 -1.2537
  336MOL0     H46305   1.248   2.431   9.012  0.7248  0.5530 -0.1451
  336MOL0     H46306   1.130   2.554   9.026 -0.3685  1.5070  1.0031
  336MOL0     H46307   1.297   2.685   9.107  0.5903  1.5584  2.2354
  336MOL0     H46308   1.259   2.605   9.260 -1.1861 -1.7208 -0.0372
  336MOL0     H46309   1.471   2.482   9.079 -1.2963  1.0348 -0.3991
  336MOL0     H46310   1.423   2.432   9.247 -0.1511  0.7034  0.3726
  336MOL0     H46311   1.470   2.627   9.354 -1.4538  0.8788 -1.3023
  336MOL0     H46312   1.612   2.541   9.288  1.2685  0.3791 -0.8284
  336MOL0     H46313   1.501   2.792   9.166 -0.5146 -0.3581 -1.0382
  336MOL0     H46314   1.608   2.690   9.081 -1.7449  3.6207 -1.6246
  336MOL0     H46315   1.646   2.835   9.348 -1.7786 -1.5563  0.1661
  336MOL0     H46316   1.760   2.701   9.303  0.1627 -0.1197  0.7355
  336MOL0     H46317   1.869   2.988   9.345 -1.2860  3.1632 -1.1438
  336MOL0     H46318   2.047   3.167   9.236 -3.4165  0.2146  0.3515
  336MOL0     H46319   1.989   3.217   9.080 -0.6246 -0.2306 -1.2069
  336MOL0     H46320   2.203   3.008   9.101 -0.8038  0.6604  3.9185
  336MOL0     H46321   2.135   3.102   8.956  2.1255 -3.2475 -0.3229
  336MOL0     H46322   2.227   3.312   9.087  0.0773  1.1978  0.6820
  336MOL0     H46323   2.275   3.196   9.205  0.7022 -0.0144  0.1724
  336MOL0     H46324   2.377   3.222   8.923  1.9496 -1.0516 -1.2192
  336MOL0     H46325   2.458   3.293   9.076  0.1444 -0.1338  1.4643
  336MOL0     H46326   2.604   2.961   9.249  1.2841  1.4909  1.6088
  336MOL0     H46327   2.770   2.883   9.348  1.4270 -0.9049 -0.9355
  336MOL0     H46328   2.875   3.027   9.371 -0.0043  1.9528 -2.4029
  336MOL0     H46329   2.937   2.875   9.289  0.6174  0.1768 -0.8519
  336MOL0     H46330   3.263   2.926   8.964  0.9019 -1.1862  0.7524
  336MOL0     H46331   3.518   2.929   8.964 -0.4738 -0.6608  1.8150
  336MOL0     H46332   3.679   2.952   9.159 -2.9134  2.2627  0.5666
  336MOL0     H46333   3.779   2.961   9.015 -1.7455 -0.9607  0.4701
  336MOL0     H46334   3.940   2.996   9.183  0.8316  1.9540  1.0328
  336MOL0     H46335   3.913   3.147   9.108  1.3615  0.6357  1.5799
  336MOL0     H46336   3.728   3.180   9.308 -0.3415 -1.5560 -0.7871
  336MOL0     H46337   3.906   3.185   9.339  1.3914 -1.8181 -0.8159
  336MOL0     H46338   3.865   2.921   9.361  2.6001  1.7304  1.9721
  336MOL0     H46339   3.697   2.970   9.380  0.4443 -0.5817 -0.6811
  336MOL0     H46340   3.935   3.079   9.566 -0.0710  0.2823  0.8849
  336MOL0     H46341   3.762   3.114   9.583  0.5586  0.9255 -0.0479
  336MOL0     H46342   3.857   2.839   9.554  0.3004  0.6001 -0.5573
  336MOL0     H46343   3.706   2.872   9.615 -1.2019  2.9620  1.7611
  336MOL0     H46344   3.783   2.956   9.829 -0.4021  1.3900 -0.9501
  336MOL0     H46345   3.940   2.980   9.764 -1.9826  0.7219  3.9874
  336MOL0     H46346   3.919   2.788   9.936 -0.0609 -2.2870 -0.1230
  336MOL0     H46347   3.979   2.736   9.771 -1.4202 -0.6818 -2.2405
  336MOL0     H46348   3.501   3.331   9.118 -1.4056 -0.4178  1.9961
  336MOL0     H46349   3.256   3.327   9.110  2.4539  0.6003  0.6284
  336MOL0     H46350   2.871   3.203   8.909  1.1478  1.5801  2.7582
  336MOL0     H46351   2.631   3.207   8.907 -2.8961 -2.0192  1.8752
  336MOL0     H46352   0.692   2.259   9.344 -0.3650 -1.7627  0.1066
  336MOL0     H46353   0.508   2.140   9.297  0.2851  0.2013  0.5470
  336MOL0     H46354   0.316   2.027   8.868 -1.2431  0.8084 -0.3713
  336MOL0     H46355   0.132   2.011   8.745 -0.4771  2.6580  1.0889
  336MOL0     H46356  -0.265   1.838   8.963  1.2407 -1.5239 -1.4340
  336MOL0     H46357  -0.266   2.010   8.939  1.0595  1.8292 -1.9835
  336MOL0     H46358  -0.325   1.822   8.718 -0.1670 -0.3427 -1.4553
  336MOL0     H46359  -0.362   1.997   8.714  0.2523  2.4537  3.3977
  336MOL0     H46360  -0.488   1.802   8.901  1.9290 -0.1529 -0.5418
  336MOL0     H46361  -0.513   1.980   8.908  0.2493  1.3284 -0.9674
  336MOL0     H46362  -0.701   1.831   8.800  1.1928 -1.1804 -0.5151
  336MOL0     H46363  -0.581   1.776   8.698 -0.7200 -0.9640  0.7127
  336MOL0     H46364  -0.700   2.138   8.505 -2.7678 -0.3220  0.4062
  336MOL0     H46365  -0.084   1.844   9.086 -1.8010  2.2568 -0.6881
  336MOL0     H46366   0.144   1.742   9.254  0.5038  0.1263 -0.3388
  336MOL0     H46367   0.157   1.907   9.330 -1.7075  2.1041 -0.1557
  336MOL0     H46368   0.006   1.838   9.309  1.8894 -4.8430  4.3628
  337MOL0     O46369   7.436   6.584   0.548 -0.1738  0.3681  0.0717
  337MOL0     C46370   7.411   6.500   0.456  0.6418 -0.1302 -0.6252
  337MOL0     O46371   7.507   6.432   0.386  0.0473 -0.0625 -0.2815
  337MOL0     C46372   7.643   6.446   0.416  0.3016 -0.2161  0.9403
  337MOL0     C46373   7.719   6.546   0.494  0.4840 -0.2681  0.5028
  337MOL0     C46374   7.863   6.534   0.494  0.1299 -0.8972  0.8149
  337MOL0     C46375   7.930   6.429   0.428 -0.0964 -0.5484 -0.2866
  337MOL0     O46376   8.071   6.414   0.436  0.2830  0.3286  0.3434
  337MOL0     C46377   8.141   6.438   0.561 -0.8626  0.3316  1.0620
  337MOL0     C46378   8.117   6.320   0.663 -0.0704  0.0209 -0.4200
  337MOL0     C46379   8.231   6.291   0.761 -0.3197 -0.4684 -0.0557
  337MOL0     C46380   8.356   6.243   0.707 -0.7883  0.2875  0.0935
  337MOL0     C46381   8.446   6.199   0.826  0.6739  0.1926  0.3198
  337MOL0     C46382   8.565   6.134   0.764 -0.0922  0.6123 -0.0172
  337MOL0     C46383   8.690   6.119   0.862  0.1336  0.2332  0.2407
  337MOL0     C46384   8.651   6.002   0.965 -0.1946  0.3862  0.2178
  337MOL0     N46385   8.743   5.987   1.084 -1.3495  0.0189  0.3775
  337MOL0     C46386   8.858   5.914   1.084  0.1108  0.3131 -0.3172
  337MOL0     C46387   8.905   5.917   1.207 -0.0420  0.2815 -0.6277
  337MOL0     C46388   9.022   5.845   1.255 -0.5651  0.1229 -0.0434
  337MOL0     C46389   9.079   5.887   1.396 -0.6704 -1.1909  0.1481
  337MOL0     C46390   9.231   5.855   1.403 -0.2476 -0.3843 -0.5954
  337MOL0     C46391   9.290   5.907   1.529 -0.0002 -0.1131  0.1204
  337MOL0     O46392   9.253   5.836   1.645  0.0442  0.3288  0.0554
  337MOL0     C46393   9.264   5.901   1.766  0.4683  0.5216 -0.1110
  337MOL0     C46394   9.312   6.028   1.806 -0.0952 -1.2527  0.7915
  337MOL0     C46395   9.304   6.068   1.942  0.6928 -0.3493 -0.1262
  337MOL0     C46396   9.355   6.208   1.960 -0.3355 -0.5136 -0.6064
  337MOL0     C46397   9.260   5.982   2.045 -0.0914 -0.1201  0.1641
  337MOL0     C46398   9.254   6.004   2.191 -0.3399  0.1291  0.4598
  337MOL0     O46399   9.156   5.939   2.265 -0.2422 -0.5380  0.3942
  337MOL0     C46400   9.155   5.955   2.404  0.4418  0.0536  0.4267
  337MOL0     C46401   9.210   5.851   2.480  0.6658 -0.3214  0.0164
  337MOL0     C46402   9.196   5.855   2.620 -0.0384  0.3022 -1.1992
  337MOL0     C46403   9.128   5.955   2.691  0.6158 -1.1221  0.4520
  337MOL0     O46404   9.100   5.948   2.823 -0.0750 -0.4626  0.3923
  337MOL0     C46405   9.189   5.908   2.917  0.0083 -1.0216 -0.4895
  337MOL0     C46406   9.113   5.914   3.058  0.2489 -0.1806 -0.0764
  337MOL0     C46407   9.219   5.935   3.161 -0.4946 -0.4267  0.8567
  337MOL0     C46408   9.163   5.907   3.294  0.1767  0.5603  0.7441
  337MOL0     C46409   9.077   6.015   3.350  0.5748 -0.2664  0.4918
  337MOL0     C46410   9.001   5.972   3.477  0.6159 -0.2886 -0.0073
  337MOL0     C46411   8.946   6.108   3.537  0.5164 -0.1009 -0.1729
  337MOL0     C46412   8.855   6.083   3.660 -0.2164  0.2747 -0.7157
  337MOL0    Cl46413   8.794   6.247   3.695  0.1185  0.0277 -0.4822
  337MOL0     C46414   9.072   6.051   2.612 -1.0246  0.7268 -0.8571
  337MOL0     C46415   9.087   6.049   2.470 -0.5417 -0.4167  0.0656
  337MOL0     O46416   9.326   6.092   2.234  0.1628 -0.2509 -0.9304
  337MOL0     C46417   9.211   5.853   2.002 -0.8558  1.0980  0.4663
  337MOL0     C46418   9.219   5.817   1.869  0.2125 -1.0040 -0.1207
  337MOL0     N46419   8.818   6.002   1.281  0.5211  0.5317  0.3498
  337MOL0     N46420   8.714   6.035   1.207 -0.0216 -0.3031 -0.5750
  337MOL0     C46421   7.851   6.335   0.360 -0.4146  0.2054 -0.7043
  337MOL0     C46422   7.713   6.339   0.356  0.6919 -1.0361  0.5891
  337MOL0     C46423   7.276   6.484   0.406 -0.4898 -0.0900 -0.4477
  337MOL0     C46424   7.254   6.415   0.283  0.0039  0.0302  0.3441
  337MOL0     C46425   7.130   6.408   0.219 -0.5206 -0.2064  0.3105
  337MOL0     C46426   7.022   6.475   0.276 -0.2483 -0.0432 -0.1245
  337MOL0     O46427   6.891   6.475   0.227 -0.1859  0.2276 -0.6655
  337MOL0     C46428   6.888   6.457   0.088 -0.4654 -0.1871 -0.3872
  337MOL0     C46429   6.763   6.522   0.041 -0.7688  0.0897 -0.1676
  337MOL0     C46430   6.763   6.527  -0.111  0.5036  0.0840 -0.0103
  337MOL0     C46431   6.633   6.591  -0.160  0.5472 -0.6857  0.1559
  337MOL0     C46432   6.594   6.561  -0.296 -0.1639  0.4417  0.2828
  337MOL0     C46433   6.574   6.529  -0.411 -0.0614 -0.6473 -0.3442
  337MOL0     C46434   7.035   6.540   0.399 -1.3020 -0.1734 -0.8547
  337MOL0     C46435   7.157   6.547   0.470 -0.4003  0.0055  0.2295
  337MOL0     C46436   7.148   6.623   0.599  0.3683 -0.2919 -0.7616
  337MOL0     H46437   7.664   6.617   0.554 -1.5467 -1.0485 -0.3114
  337MOL0     H46438   7.922   6.612   0.542 -0.8752  0.3849  0.0456
  337MOL0     H46439   8.121   6.537   0.604  0.5628  1.7023 -1.1862
  337MOL0     H46440   8.246   6.429   0.533  0.0942  1.7055  3.7513
  337MOL0     H46441   8.029   6.349   0.720 -2.2194  1.1542 -3.9794
  337MOL0     H46442   8.094   6.232   0.603 -1.0232  1.6959 -2.6672
  337MOL0     H46443   8.244   6.383   0.819 -1.0872 -0.1300 -0.4023
  337MOL0     H46444   8.182   6.224   0.832 -0.9930 -0.0295 -0.0973
  337MOL0     H46445   8.345   6.157   0.640 -1.2674  3.0491 -3.7122
  337MOL0     H46446   8.405   6.327   0.658  0.0005  1.1502  2.2216
  337MOL0     H46447   8.403   6.127   0.896  0.1031  0.0689 -0.1630
  337MOL0     H46448   8.474   6.294   0.875  2.4852  0.2481 -0.7132
  337MOL0     H46449   8.535   6.037   0.725  0.8222  0.2961  0.0346
  337MOL0     H46450   8.590   6.203   0.682  4.8534  1.1062  1.5657
  337MOL0     H46451   8.711   6.214   0.912 -1.8997  0.8448  0.0124
  337MOL0     H46452   8.783   6.094   0.809  0.8425  2.0819  0.5376
  337MOL0     H46453   8.548   6.011   0.999 -1.3103  2.3188 -3.2162
  337MOL0     H46454   8.663   5.909   0.908 -1.0811 -0.4129  1.3019
  337MOL0     H46455   8.884   5.851   1.000  0.7092 -1.6884  1.2836
  337MOL0     H46456   9.090   5.871   1.173 -0.3115  1.1852  0.4795
  337MOL0     H46457   8.993   5.740   1.254 -0.7308  0.1459  1.0595
  337MOL0     H46458   9.065   5.995   1.409  0.9722 -1.1504  1.9113
  337MOL0     H46459   9.020   5.848   1.479 -1.1848  0.4706  0.6100
  337MOL0     H46460   9.239   5.746   1.399 -1.5984 -0.5560  0.6206
  337MOL0     H46461   9.287   5.898   1.319  0.0613 -1.3862 -0.9136
  337MOL0     H46462   9.399   5.915   1.519 -0.2964  0.6557 -3.7977
  337MOL0     H46463   9.245   6.005   1.547  0.7896  0.3074 -0.1423
  337MOL0     H46464   9.354   6.087   1.726  0.9525 -0.5300  1.8291
  337MOL0     H46465   9.292   6.264   2.030  0.2332  1.3283 -1.5032
  337MOL0     H46466   9.345   6.259   1.864  2.4607 -1.0195 -1.2446
  337MOL0     H46467   9.463   6.209   1.978 -0.4487 -1.6232  0.2087
  337MOL0     H46468   9.272   5.782   2.423  0.3115  0.7453 -1.7309
  337MOL0     H46469   9.257   5.783   2.672 -2.3795 -0.6720  0.3721
  337MOL0     H46470   9.226   5.807   2.900 -1.8471 -1.6762 -0.8565
  337MOL0     H46471   9.273   5.978   2.913 -1.1603  0.4395 -0.2875
  337MOL0     H46472   9.054   6.006   3.063  1.6734  0.8274 -1.2023
  337MOL0     H46473   9.044   5.829   3.067 -3.3265  2.3496 -0.9394
  337MOL0     H46474   9.254   6.038   3.171 -2.5804  0.2527  1.5761
  337MOL0     H46475   9.296   5.858   3.142 -2.2155 -1.6108 -1.9995
  337MOL0     H46476   9.251   5.894   3.358  2.2414 -0.7381 -2.1130
  337MOL0     H46477   9.109   5.812   3.284  2.1110 -0.3377 -3.1513
  337MOL0     H46478   9.138   6.102   3.373 -0.7468  1.4284 -1.9212
  337MOL0     H46479   9.007   6.047   3.272  1.6437  0.7462 -0.0837
  337MOL0     H46480   9.073   5.931   3.549 -2.1810  1.9628  4.5651
  337MOL0     H46481   8.927   5.892   3.469  0.4070 -0.1865  0.7708
  337MOL0     H46482   8.882   6.152   3.460  0.0609  1.0905  0.8524
  337MOL0     H46483   9.034   6.172   3.548  1.2550 -0.3122 -3.6142
  337MOL0     H46484   8.919   6.052   3.744 -0.2547  0.5350 -0.5909
  337MOL0     H46485   8.774   6.010   3.649  0.3152 -0.7575  1.4961
  337MOL0     H46486   9.024   6.137   2.657 -2.4344 -0.8051  0.6983
  337MOL0     H46487   9.044   6.128   2.411  0.8511  0.1562 -0.2236
  337MOL0     H46488   9.172   5.776   2.067 -3.3504  2.4229  0.6467
  337MOL0     H46489   9.201   5.719   1.827  0.0867 -0.4517 -1.4103
  337MOL0     H46490   7.893   6.255   0.301 -0.0594 -1.2342  1.4158
  337MOL0     H46491   7.655   6.265   0.303 -2.7793  1.5625  0.4389
  337MOL0     H46492   7.337   6.370   0.231 -1.4698 -2.1874 -0.2002
  337MOL0     H46493   7.127   6.352   0.127  2.0165 -0.1446  0.1011
  337MOL0     H46494   6.959   6.513   0.027 -0.6449  0.5666  0.0803
  337MOL0     H46495   6.896   6.352   0.059 -2.1135 -1.2096  2.4303
  337MOL0     H46496   6.764   6.619   0.092  0.4266  0.2745 -0.5153
  337MOL0     H46497   6.672   6.466   0.067 -0.6873 -0.4463 -0.9954
  337MOL0     H46498   6.855   6.577  -0.141 -1.1077  2.0290 -2.0635
  337MOL0     H46499   6.768   6.420  -0.135  1.1031 -0.8159  3.5226
  337MOL0     H46500   6.635   6.700  -0.152  1.4205 -0.6355 -0.6078
  337MOL0     H46501   6.543   6.561  -0.105  1.2685 -1.2361  1.0694
  337MOL0     H46502   6.569   6.506  -0.516  6.1016 -0.1797 -1.1234
  337MOL0     H46503   6.943   6.584   0.435 -0.8046  0.2679 -0.0911
  337MOL0     H46504   7.065   6.583   0.659 -0.5502  0.2293 -1.6524
  337MOL0     H46505   7.242   6.607   0.653 -0.0288 -0.7944 -0.2038
  337MOL0     H46506   7.139   6.732   0.592 -0.7149 -0.3087  0.0484
  338MOL0     O46507  10.353   8.637   5.493 -0.3189  0.1015 -0.3985
  338MOL0     C46508  10.361   8.663   5.609 -0.3313  0.0594 -0.4399
  338MOL0     O46509  10.433   8.774   5.664  0.3608  0.5126 -0.0801
  338MOL0     C46510  10.496   8.862   5.590 -0.5852  1.2517 -0.0190
  338MOL0     C46511  10.600   8.826   5.511  0.4271 -0.6063 -0.7809
  338MOL0     C46512  10.681   8.922   5.454 -0.6724 -0.7349  0.4697
  338MOL0     C46513  10.651   9.056   5.467  0.5765  0.4392  0.6477
  338MOL0     O46514  10.724   9.153   5.411 -0.1418  0.5417 -0.3600
  338MOL0     C46515  10.756   9.141   5.269 -0.9447  0.2024  0.1896
  338MOL0     C46516  10.637   9.153   5.177 -0.0000  0.0008 -0.5611
  338MOL0     C46517  10.675   9.140   5.027  0.1466 -0.3986 -0.3315
  338MOL0     C46518  10.582   9.228   4.935 -0.3408 -0.1752  0.2613
  338MOL0     C46519  10.609   9.167   4.799 -0.6118 -0.4677 -0.5504
  338MOL0     C46520  10.544   9.250   4.686  0.6483 -0.1408 -0.1783
  338MOL0     C46521  10.608   9.387   4.657  0.7618  0.6266  0.8547
  338MOL0     C46522  10.753   9.370   4.595  0.6060 -0.6996 -0.2953
  338MOL0     N46523  10.766   9.271   4.487  0.2935  0.9411  0.3482
  338MOL0     C46524  10.673   9.239   4.393  0.4863 -0.0529  0.4910
  338MOL0     C46525  10.733   9.147   4.311  0.2844 -0.5091 -0.0157
  338MOL0     C46526  10.666   9.087   4.188  1.5509 -0.3320  0.9164
  338MOL0     C46527  10.766   9.029   4.082  0.1359 -0.7078 -0.6457
  338MOL0     C46528  10.826   8.888   4.111  0.9470  0.0565 -0.0998
  338MOL0     C46529  10.724   8.781   4.157 -0.1107  0.3398 -0.4034
  338MOL0     O46530  10.590   8.782   4.095  0.8235 -0.2814 -0.1342
  338MOL0     C46531  10.588   8.757   3.961 -0.1443  0.2030  0.0504
  338MOL0     C46532  10.685   8.676   3.892 -0.3310  0.0718 -0.6380
  338MOL0     C46533  10.677   8.652   3.755 -0.5679 -0.3168 -0.5770
  338MOL0     C46534  10.800   8.575   3.695 -0.9777 -0.4534 -0.6971
  338MOL0     C46535  10.586   8.723   3.684  0.9476 -0.3701  0.6796
  338MOL0     C46536  10.573   8.720   3.532  0.1445 -0.8515 -1.0076
  338MOL0     O46537  10.449   8.741   3.472 -0.1472 -0.3758 -0.4012
  338MOL0     C46538  10.421   8.688   3.350 -0.1732 -0.0915 -0.1524
  338MOL0     C46539  10.298   8.727   3.289 -0.5985 -0.6929  0.5160
  338MOL0     C46540  10.246   8.676   3.174 -0.2493  0.7807  0.1908
  338MOL0     C46541  10.320   8.578   3.102  0.0496 -0.3044 -0.2204
  338MOL0     O46542  10.291   8.525   2.978  0.0426  0.5210  0.3575
  338MOL0     C46543  10.162   8.552   2.927 -0.4952 -0.6401 -0.0152
  338MOL0     C46544  10.124   8.477   2.808 -0.4089 -0.1328  0.1761
  338MOL0     C46545  10.089   8.340   2.849  0.3689 -0.4312  0.3891
  338MOL0     C46546  10.039   8.277   2.721  0.3844  0.2847 -0.2690
  338MOL0     C46547   9.969   8.148   2.764 -1.1459  0.3158  0.9347
  338MOL0     C46548   9.879   8.110   2.645 -0.0659 -0.1983 -0.3107
  338MOL0     C46549   9.781   8.006   2.689  0.3501 -0.2364  0.1076
  338MOL0     C46550   9.700   7.950   2.572  0.0450 -0.2934 -0.2086
  338MOL0    Cl46551   9.808   7.881   2.454 -0.2495 -0.2880  0.4388
  338MOL0     C46552  10.434   8.530   3.167  0.3154  0.3784 -0.8392
  338MOL0     C46553  10.490   8.582   3.293  0.5356 -0.4171  0.1788
  338MOL0     O46554  10.679   8.714   3.474  0.7627 -0.1939 -0.8680
  338MOL0     C46555  10.488   8.797   3.750 -0.0962 -0.6594  0.1228
  338MOL0     C46556  10.487   8.812   3.889 -0.1882 -0.7681 -1.3071
  338MOL0     N46557  10.857   9.119   4.372  0.2130  0.1302 -0.1124
  338MOL0     N46558  10.872   9.186   4.471  0.2015 -0.6799 -0.1520
  338MOL0     C46559  10.551   9.092   5.558 -0.3736 -0.1916 -0.5719
  338MOL0     C46560  10.468   8.995   5.615 -0.8087  0.4986  0.3527
  338MOL0     C46561  10.292   8.573   5.699  0.2895 -0.6382 -0.5488
  338MOL0     C46562  10.330   8.437   5.705  0.2942 -0.3067  0.6018
  338MOL0     C46563  10.251   8.358   5.775  0.2188 -0.1209 -0.5343
  338MOL0     C46564  10.150   8.412   5.859  0.4285  0.9404  0.5057
  338MOL0     O46565  10.071   8.343   5.946 -0.3409 -0.2842 -0.2164
  338MOL0     C46566  10.114   8.213   5.996 -0.4079 -0.7699  0.4656
  338MOL0     C46567  10.030   8.192   6.125  0.0548  0.6130 -0.3327
  338MOL0     C46568  10.021   8.315   6.227 -0.4619 -0.3670  0.2078
  338MOL0     C46569   9.878   8.320   6.289 -0.1300 -0.4127 -0.5929
  338MOL0     C46570   9.786   8.375   6.188 -0.8504  0.3683  0.4112
  338MOL0     C46571   9.728   8.417   6.089  0.8793 -0.6919 -0.0266
  338MOL0     C46572  10.118   8.544   5.859  0.7662  1.0076 -0.3061
  338MOL0     C46573  10.182   8.631   5.774 -0.2264 -0.7182  0.4795
  338MOL0     C46574  10.135   8.775   5.748 -0.1827 -0.3841  0.3943
  338MOL0     H46575  10.630   8.726   5.482  3.0548 -0.4334  1.0552
  338MOL0     H46576  10.769   8.900   5.394 -0.3276 -0.9123  1.0350
  338MOL0     H46577  10.823   9.057   5.247  0.0612  0.7014  1.2181
  338MOL0     H46578  10.822   9.226   5.250  0.4187 -1.1871 -1.6564
  338MOL0     H46579  10.559   9.083   5.209 -0.0543 -1.4087 -3.4942
  338MOL0     H46580  10.598   9.254   5.197  1.9188  0.5063  0.9603
  338MOL0     H46581  10.778   9.174   5.016  1.0122 -1.6556  2.8106
  338MOL0     H46582  10.678   9.035   4.996  1.3941  0.2758 -2.7179
  338MOL0     H46583  10.477   9.217   4.965 -1.0112 -2.0592 -2.4301
  338MOL0     H46584  10.611   9.333   4.924 -1.1754  0.2197  1.6065
  338MOL0     H46585  10.562   9.068   4.800 -0.7197 -0.4911 -2.8072
  338MOL0     H46586  10.709   9.133   4.773  0.3944 -1.5666  3.9717
  338MOL0     H46587  10.551   9.187   4.596 -2.5070 -0.6365 -0.1791
  338MOL0     H46588  10.442   9.260   4.723  0.9398 -1.0872  0.9577
  338MOL0     H46589  10.598   9.457   4.740  0.9676  2.3550 -0.4981
  338MOL0     H46590  10.551   9.437   4.577  0.4453  1.4303  1.5650
  338MOL0     H46591  10.784   9.468   4.557  2.7552 -0.7055  1.2701
  338MOL0     H46592  10.825   9.354   4.675  1.4268  1.6703 -0.4916
  338MOL0     H46593  10.573   9.280   4.390  0.5757  0.2592  1.3787
  338MOL0     H46594  10.604   9.168   4.148  1.8983 -0.2099  0.6194
  338MOL0     H46595  10.598   9.005   4.211  0.3748 -1.4928 -5.0256
  338MOL0     H46596  10.704   9.021   3.993 -1.5886 -0.3935  0.4791
  338MOL0     H46597  10.849   9.100   4.075 -1.3555  1.0876 -0.8754
  338MOL0     H46598  10.872   8.869   4.014  3.7534 -0.2378  1.1638
  338MOL0     H46599  10.911   8.886   4.181 -0.5398  1.8424  1.8772
  338MOL0     H46600  10.776   8.684   4.157  1.6626  1.2494 -0.2432
  338MOL0     H46601  10.710   8.809   4.262 -1.5614 -1.3643 -0.0967
  338MOL0     H46602  10.760   8.626   3.952 -2.9969 -3.0425  0.3694
  338MOL0     H46603  10.852   8.531   3.780  1.0197  2.4390 -0.3071
  338MOL0     H46604  10.875   8.640   3.648  0.7579  0.2222  2.7417
  338MOL0     H46605  10.776   8.501   3.617  0.1817 -0.3777 -1.1447
  338MOL0     H46606  10.232   8.786   3.353 -0.5423 -0.3963  0.3005
  338MOL0     H46607  10.153   8.721   3.141 -1.5868 -0.2683  2.2647
  338MOL0     H46608  10.096   8.530   3.012  0.4746 -2.2076  0.3791
  338MOL0     H46609  10.153   8.659   2.908 -0.7025 -0.7584 -0.6405
  338MOL0     H46610  10.046   8.525   2.747  1.2274  0.9884 -1.1379
  338MOL0     H46611  10.208   8.452   2.742 -0.2601 -1.6984  0.9321
  338MOL0     H46612  10.003   8.359   2.913 -1.0188  0.4856 -1.6240
  338MOL0     H46613  10.177   8.298   2.899 -0.9650 -1.0521  2.3462
  338MOL0     H46614  10.124   8.262   2.654  2.6372  0.4682  2.3428
  338MOL0     H46615   9.967   8.341   2.669 -0.2012 -0.8028 -0.8423
  338MOL0     H46616  10.034   8.061   2.779 -4.2301 -2.0283  1.7634
  338MOL0     H46617   9.904   8.162   2.851 -0.8857 -0.1401  1.2021
  338MOL0     H46618   9.947   8.080   2.565 -1.3812 -2.4919 -0.6560
  338MOL0     H46619   9.816   8.192   2.610  0.3482 -0.5418 -1.9676
  338MOL0     H46620   9.704   8.060   2.745 -0.5124  0.1240 -1.3708
  338MOL0     H46621   9.824   7.919   2.740 -2.8999 -1.6185  0.7368
  338MOL0     H46622   9.652   8.033   2.520  0.8761  0.0928 -0.3806
  338MOL0     H46623   9.630   7.875   2.607 -0.1115  0.4053  1.0235
  338MOL0     H46624  10.491   8.450   3.121  0.2539 -0.2728  0.1755
  338MOL0     H46625  10.590   8.552   3.321  1.3331 -0.6599 -2.7080
  338MOL0     H46626  10.412   8.848   3.692  2.0965  1.5301 -0.9772
  338MOL0     H46627  10.404   8.865   3.935  1.6151  0.6984  0.4587
  338MOL0     H46628  10.526   9.197   5.572  1.5298  0.0138  1.9634
  338MOL0     H46629  10.388   9.017   5.686 -1.0216 -3.5356  1.5763
  338MOL0     H46630  10.426   8.408   5.665 -0.0236 -0.8600  0.2292
  338MOL0     H46631  10.282   8.255   5.779  3.0887  0.3040 -5.0119
  338MOL0     H46632  10.115   8.137   5.917  1.2249  0.9478 -1.2726
  338MOL0     H46633  10.216   8.217   6.033 -0.5903 -1.1828  1.0269
  338MOL0     H46634  10.075   8.108   6.179 -0.2243 -0.4182 -1.6494
  338MOL0     H46635   9.930   8.169   6.089  0.3100 -1.2157  0.0458
  338MOL0     H46636  10.105   8.319   6.297  0.6393 -1.0262 -1.0490
  338MOL0     H46637  10.030   8.413   6.180  1.1553  0.3623  1.8975
  338MOL0     H46638   9.886   8.393   6.370  2.2838  0.9368 -1.9471
  338MOL0     H46639   9.832   8.226   6.320 -1.4714  0.9098  1.6898
  338MOL0     H46640   9.687   8.458   5.999  0.6712  0.8710  0.7587
  338MOL0     H46641  10.033   8.571   5.922  0.7468 -0.2154  0.2142
  338MOL0     H46642  10.173   8.820   5.656  0.3923 -1.2839  0.1748
  338MOL0     H46643  10.026   8.776   5.742 -0.1254  1.4106 -1.2814
  338MOL0     H46644  10.162   8.845   5.828 -3.3534  3.2172 -1.3572
  339MOL0     O46645   5.365  11.061   8.372 -0.2713  0.1371  0.9130
  339MOL0     C46646   5.261  11.051   8.434  0.1723 -0.4341  0.0336
  339MOL0     O46647   5.256  11.004   8.556  0.2851 -0.2376  0.2862
  339MOL0     C46648   5.364  10.986   8.641  0.0897  0.5575  0.2244
  339MOL0     C46649   5.459  11.094   8.666 -0.8370  0.3239  0.8376
  339MOL0     C46650   5.551  11.062   8.772 -0.6569 -0.8297  1.1733
  339MOL0     C46651   5.559  10.941   8.835  0.1113  0.0358  0.1534
  339MOL0     O46652   5.651  10.901   8.924 -0.0736  0.1131 -0.4047
  339MOL0     C46653   5.719  10.993   9.016 -0.8460 -0.5284  0.0475
  339MOL0     C46654   5.618  11.057   9.116 -0.8345  0.1155 -0.0605
  339MOL0     C46655   5.528  10.948   9.172  0.5089  0.3365  0.6359
  339MOL0     C46656   5.443  10.989   9.297  1.0089 -0.2087 -0.3572
  339MOL0     C46657   5.517  11.032   9.422 -0.8771  0.0819  0.6637
  339MOL0     C46658   5.443  11.023   9.558  0.3206 -0.8447 -0.7261
  339MOL0     C46659   5.299  11.076   9.549  0.0729  0.3173  0.3911
  339MOL0     C46660   5.239  11.100   9.690 -0.4537  0.7416  0.2466
  339MOL0     N46661   5.104  11.147   9.686 -0.0303  0.1550 -0.2195
  339MOL0     C46662   5.071  11.278   9.715  0.0824 -0.1223  0.5435
  339MOL0     C46663   4.942  11.293   9.673  0.2995  0.7765  0.2721
  339MOL0     C46664   4.860  11.417   9.701  0.4307  0.2704  0.1814
  339MOL0     C46665   4.925  11.543   9.635 -0.2148  0.2498  0.0206
  339MOL0     C46666   4.828  11.654   9.690  0.0839 -0.7089  0.2006
  339MOL0     C46667   4.874  11.778   9.609  0.3690 -0.5533 -1.2521
  339MOL0     O46668   4.793  11.883   9.652 -0.1168  0.6749  0.0293
  339MOL0     C46669   4.823  12.000   9.603 -0.2192  0.6257  1.3465
  339MOL0     C46670   4.912  12.035   9.502  0.0819 -0.0128 -0.3022
  339MOL0     C46671   4.919  12.171   9.456  0.6926 -0.5163  0.5529
  339MOL0     C46672   5.007  12.189   9.332 -0.0718  0.8211  0.7583
  339MOL0     C46673   4.846  12.271   9.522 -0.8496 -0.2420 -0.8875
  339MOL0     C46674   4.855  12.411   9.482 -0.7645 -0.5142 -0.1909
  339MOL0     O46675   4.749  12.495   9.514 -0.7628  0.0488 -0.5750
  339MOL0     C46676   4.767  12.622   9.459 -0.4252  0.1464  0.6345
  339MOL0     C46677   4.850  12.716   9.524 -0.3905  1.6057 -0.1012
  339MOL0     C46678   4.871  12.842   9.463 -0.1106 -0.9098  0.2017
  339MOL0     C46679   4.824  12.879   9.337  0.1244  0.8419  0.2252
  339MOL0     O46680   4.828  13.006   9.288  0.6473  0.3207  0.0095
  339MOL0     C46681   4.963  13.041   9.240 -0.1617 -0.3535 -0.6157
  339MOL0     C46682   4.990  13.179   9.297 -0.0655 -0.4514 -0.0984
  339MOL0     C46683   5.115  13.249   9.244  0.0266  0.4458 -0.5266
  339MOL0     C46684   5.142  13.379   9.322 -0.6277  0.4371 -0.3685
  339MOL0     C46685   5.290  13.406   9.324 -0.5304 -0.0023 -0.2454
  339MOL0     C46686   5.330  13.461   9.195 -0.8589 -0.0330  0.1200
  339MOL0     C46687   5.483  13.494   9.175 -0.0313 -0.6050  0.1015
  339MOL0     C46688   5.493  13.538   9.031  0.6706  0.5705  0.1610
  339MOL0    Cl46689   5.496  13.717   9.016  0.2438  0.3711 -0.3959
  339MOL0     C46690   4.738  12.787   9.272 -0.9165 -0.0854 -0.0114
  339MOL0     C46691   4.717  12.657   9.338 -0.5589  0.3671  0.0777
  339MOL0     O46692   4.952  12.448   9.423 -0.1344  0.3736  0.0325
  339MOL0     C46693   4.751  12.233   9.622 -0.1231  0.1696  0.0011
  339MOL0     C46694   4.745  12.097   9.666 -1.0956 -0.0140 -0.5571
  339MOL0     N46695   4.895  11.170   9.633 -1.2214 -0.5866  0.4648
  339MOL0     N46696   4.991  11.078   9.639 -0.2701 -0.5920 -0.3861
  339MOL0     C46697   5.469  10.846   8.797 -0.1111  0.6319 -0.2085
  339MOL0     C46698   5.374  10.864   8.703 -0.0274  0.2684 -0.0785
  339MOL0     C46699   5.141  11.119   8.394  0.0157 -0.9059  0.0672
  339MOL0     C46700   5.052  11.162   8.495  0.0613  0.3099 -0.0049
  339MOL0     C46701   4.936  11.238   8.463 -0.2532 -0.6843 -1.0045
  339MOL0     C46702   4.923  11.283   8.336 -0.2087 -0.4344 -0.2048
  339MOL0     O46703   4.805  11.367   8.323  0.2545  0.5608  0.7722
  339MOL0     C46704   4.789  11.450   8.202  0.6091 -0.1390  0.3661
  339MOL0     C46705   4.886  11.567   8.176  1.4111  0.2090  0.0302
  339MOL0     C46706   4.867  11.660   8.304  0.1708  0.1125  0.7079
  339MOL0     C46707   4.908  11.801   8.281  0.7805 -0.7539 -0.0330
  339MOL0     C46708   5.047  11.822   8.310 -0.6638  1.0536  0.0725
  339MOL0     C46709   5.171  11.839   8.314 -0.6034  0.0423 -0.1201
  339MOL0     C46710   5.020  11.259   8.240 -0.3925 -0.5713  0.8569
  339MOL0     C46711   5.123  11.169   8.263  0.8144  0.4762 -0.3911
  339MOL0     C46712   5.218  11.144   8.148 -0.0147  0.0456  0.6515
  339MOL0     H46713   5.451  11.192   8.620 -1.7969 -0.0238  0.2299
  339MOL0     H46714   5.604  11.149   8.809 -1.9943  0.2927  0.5416
  339MOL0     H46715   5.771  11.074   8.965  0.7406 -0.5737  1.5206
  339MOL0     H46716   5.799  10.942   9.071  0.4813  0.6292 -0.7471
  339MOL0     H46717   5.677  11.094   9.200 -0.6645 -0.4835  0.0893
  339MOL0     H46718   5.565  11.144   9.077  0.7982  2.0914  1.8659
  339MOL0     H46719   5.469  10.927   9.082  2.8491 -4.7979 -0.0390
  339MOL0     H46720   5.584  10.860   9.203  2.3636  0.5684 -1.7263
  339MOL0     H46721   5.372  11.069   9.275 -0.0802 -0.6306  1.3758
  339MOL0     H46722   5.389  10.900   9.331 -1.7259  0.7438 -1.9171
  339MOL0     H46723   5.537  11.140   9.415  0.2872 -0.2085 -1.5779
  339MOL0     H46724   5.615  10.983   9.428  0.6653  2.5686 -1.7034
  339MOL0     H46725   5.434  10.921   9.594  1.1585  0.1933  2.7859
  339MOL0     H46726   5.509  11.073   9.629  0.7200  0.2682 -1.8258
  339MOL0     H46727   5.234  11.003   9.500 -0.2605  0.8905 -0.0279
  339MOL0     H46728   5.303  11.168   9.490  0.1447 -1.1966 -2.1202
  339MOL0     H46729   5.245  11.002   9.739  2.2490  1.3635  1.3728
  339MOL0     H46730   5.289  11.171   9.756 -1.0807  1.4897 -0.0715
  339MOL0     H46731   5.129  11.364   9.744 -0.3978  0.6743 -0.7820
  339MOL0     H46732   4.840  11.430   9.808 -1.1961 -1.2511  0.1037
  339MOL0     H46733   4.763  11.409   9.652 -0.2011 -0.3936  1.4939
  339MOL0     H46734   5.025  11.550   9.678  0.3680 -1.0438 -1.0766
  339MOL0     H46735   4.926  11.535   9.526  1.8466 -2.3172  0.1314
  339MOL0     H46736   4.724  11.640   9.659 -0.3364  1.9876  0.1593
  339MOL0     H46737   4.829  11.663   9.799  0.6557  0.4644  0.1139
  339MOL0     H46738   4.979  11.792   9.635  0.3552 -1.1834 -0.8281
  339MOL0     H46739   4.855  11.754   9.504 -1.3657 -0.6737 -0.9474
  339MOL0     H46740   4.966  11.960   9.446  0.9549  0.6495 -0.3847
  339MOL0     H46741   5.096  12.252   9.343  0.6875  0.4229 -2.1523
  339MOL0     H46742   4.946  12.227   9.250  0.1186  0.0404  0.2402
  339MOL0     H46743   5.037  12.090   9.294 -1.1301  0.4632  0.8411
  339MOL0     H46744   4.901  12.676   9.611  0.3095  5.3649  1.3746
  339MOL0     H46745   4.934  12.900   9.530 -0.9443 -1.4395  1.4694
  339MOL0     H46746   5.050  12.981   9.268  0.1711 -0.3188 -1.5203
  339MOL0     H46747   4.965  13.041   9.130 -1.4904 -0.3362 -0.6507
  339MOL0     H46748   4.911  13.253   9.278 -0.5113 -1.1897 -1.1869
  339MOL0     H46749   5.000  13.170   9.405 -1.9288  1.4888  0.3176
  339MOL0     H46750   5.112  13.269   9.136 -0.0742  0.3172 -0.5466
  339MOL0     H46751   5.201  13.184   9.264 -0.5896 -0.1513  0.2168
  339MOL0     H46752   5.103  13.373   9.424 -1.5164 -2.1468 -0.7858
  339MOL0     H46753   5.089  13.467   9.285 -0.4997 -0.0319 -1.7186
  339MOL0     H46754   5.316  13.482   9.398 -0.2743  1.9376 -2.2016
  339MOL0     H46755   5.344  13.313   9.341 -0.7584 -0.0199  0.3819
  339MOL0     H46756   5.277  13.557   9.187 -0.6452  0.3005  2.2206
  339MOL0     H46757   5.301  13.399   9.110  2.0449  0.5070 -1.4135
  339MOL0     H46758   5.541  13.403   9.192  0.8849  0.5036  3.9823
  339MOL0     H46759   5.524  13.571   9.241 -1.2380  1.7201 -1.7095
  339MOL0     H46760   5.423  13.491   8.961  3.3089  0.5716 -2.7185
  339MOL0     H46761   5.589  13.509   8.987  1.4728  0.7914  1.7024
  339MOL0     H46762   4.687  12.805   9.178  1.6391 -1.1886 -1.7208
  339MOL0     H46763   4.654  12.584   9.289 -1.1293 -0.0726  1.4217
  339MOL0     H46764   4.711  12.314   9.682  0.2607 -0.2032  0.7812
  339MOL0     H46765   4.681  12.074   9.750  0.6041 -1.1216  0.4949
  339MOL0     H46766   5.484  10.748   8.841 -0.0506  0.2983 -0.9560
  339MOL0     H46767   5.311  10.781   8.673 -3.1054  2.0552  0.9633
  339MOL0     H46768   5.068  11.137   8.600 -0.0171  1.0026  0.1755
  339MOL0     H46769   4.863  11.278   8.532 -0.4095  3.5004 -3.2751
  339MOL0     H46770   4.790  11.389   8.111  1.1310 -0.3926  0.5378
  339MOL0     H46771   4.687  11.485   8.218  0.3279 -0.3617 -0.8144
  339MOL0     H46772   4.864  11.617   8.082  2.6077  2.0259  0.6505
  339MOL0     H46773   4.990  11.536   8.162  1.3549 -0.0840  0.2529
  339MOL0     H46774   4.765  11.653   8.344 -0.3535 -0.1522 -0.5995
  339MOL0     H46775   4.923  11.616   8.387  1.4309  1.3341  0.5330
  339MOL0     H46776   4.850  11.871   8.342 -1.4164 -6.1568  4.9821
  339MOL0     H46777   4.893  11.821   8.174  1.2100 -1.7558 -0.2828
  339MOL0     H46778   5.275  11.863   8.324 -0.0390 -2.0581 -0.5511
  339MOL0     H46779   5.029  11.312   8.146  1.0791  0.4864  1.5529
  339MOL0     H46780   5.318  11.185   8.169  0.2141 -1.0065  1.6852
  339MOL0     H46781   5.242  11.039   8.131  0.1395  0.2592 -0.5490
  339MOL0     H46782   5.182  11.186   8.053 -1.1047 -1.2943  0.4434
  340MOL0     O46783   6.175   6.673   7.192 -0.0093 -0.0191  0.1543
  340MOL0     C46784   6.269   6.738   7.159 -0.2826  0.0254  0.3229
  340MOL0     O46785   6.269   6.819   7.050  0.3963 -0.3174 -0.0066
  340MOL0     C46786   6.159   6.852   6.975 -0.0452 -1.1022 -0.7147
  340MOL0     C46787   6.102   6.752   6.899  1.0622 -0.8103  0.8414
  340MOL0     C46788   5.995   6.785   6.813 -0.6174  0.4848 -0.1870
  340MOL0     C46789   5.954   6.913   6.799  1.1560 -0.6417  0.5542
  340MOL0     O46790   5.857   6.949   6.702  0.6146 -0.4916 -0.1648
  340MOL0     C46791   5.730   6.934   6.750  0.1281 -0.1448  0.0517
  340MOL0     C46792   5.623   6.951   6.640  0.0642  0.2528  0.5857
  340MOL0     C46793   5.675   6.883   6.517  0.8243 -0.0596 -0.4394
  340MOL0     C46794   5.573   6.845   6.410  0.0055  0.1024 -0.3437
  340MOL0     C46795   5.650   6.785   6.293  0.3154  0.1400  0.7994
  340MOL0     C46796   5.563   6.740   6.183  0.2368 -0.0406 -0.8080
  340MOL0     C46797   5.619   6.774   6.054  0.2377 -0.1955 -0.8208
  340MOL0     C46798   5.510   6.756   5.948  1.0238  0.1487  0.4805
  340MOL0     N46799   5.459   6.616   5.946 -0.6791  0.5968  0.5112
  340MOL0     C46800   5.330   6.578   5.978  0.0317 -0.0054  0.2924
  340MOL0     C46801   5.324   6.445   5.930  0.2214  0.0178 -0.5907
  340MOL0     C46802   5.210   6.351   5.938  1.3344  0.3109  0.4854
  340MOL0     C46803   5.159   6.327   5.792  0.3651 -0.5338  0.3019
  340MOL0     C46804   5.067   6.205   5.772 -0.4689 -0.1785 -0.6778
  340MOL0     C46805   5.122   6.074   5.824  0.3227  0.7699  0.0467
  340MOL0     O46806   5.230   6.044   5.734  0.3843 -0.2197  0.4882
  340MOL0     C46807   5.353   6.004   5.791 -0.4092 -0.1518  0.8065
  340MOL0     C46808   5.364   5.910   5.894  1.1257  0.7966 -1.5249
  340MOL0     C46809   5.474   5.829   5.910  0.2043  0.0911 -0.3261
  340MOL0     C46810   5.454   5.724   6.012 -0.1517  0.0382 -0.4711
  340MOL0     C46811   5.596   5.858   5.848 -0.8401 -0.1933 -0.2105
  340MOL0     C46812   5.718   5.771   5.875 -0.0515  0.2499 -0.0947
  340MOL0     O46813   5.825   5.795   5.787  0.2899  0.0423 -0.0096
  340MOL0     C46814   5.936   5.717   5.790  0.2747  0.5849  0.0594
  340MOL0     C46815   5.937   5.589   5.752  0.7851  0.8228 -0.6916
  340MOL0     C46816   6.055   5.512   5.747 -0.3435 -0.0287  1.0670
  340MOL0     C46817   6.178   5.576   5.775  0.4968  0.2913  0.0079
  340MOL0     O46818   6.295   5.515   5.794  0.2595 -0.0154 -0.1748
  340MOL0     C46819   6.321   5.411   5.698 -0.4312  0.0619  0.0400
  340MOL0     C46820   6.475   5.373   5.695 -0.2588 -0.1184 -0.0208
  340MOL0     C46821   6.521   5.238   5.637  0.4372  0.0498  0.4219
  340MOL0     C46822   6.670   5.209   5.635  0.3506  0.4553 -0.1948
  340MOL0     C46823   6.703   5.066   5.579 -0.0796  1.2737  0.0385
  340MOL0     C46824   6.743   5.061   5.437  0.2340 -0.4421  0.1132
  340MOL0     C46825   6.741   4.916   5.381  0.8061  0.2297 -0.2373
  340MOL0     C46826   6.802   4.903   5.236  0.8656 -0.0622 -0.2806
  340MOL0    Cl46827   6.677   4.975   5.125  0.0800 -0.2788  0.1971
  340MOL0     C46828   6.177   5.711   5.810 -0.5055 -0.1936  0.7485
  340MOL0     C46829   6.053   5.783   5.830 -0.3572  0.3301  0.3675
  340MOL0     O46830   5.727   5.691   5.968  0.4467  0.4494  0.3952
  340MOL0     C46831   5.589   5.954   5.737 -0.0888  0.7957 -0.4210
  340MOL0     C46832   5.467   6.022   5.712 -0.6645 -1.0490 -0.0448
  340MOL0     N46833   5.448   6.419   5.872  0.2636 -0.4068 -0.1382
  340MOL0     N46834   5.523   6.524   5.874  0.8228  0.2170  0.2452
  340MOL0     C46835   6.034   7.014   6.856  0.0428  0.5398  0.1830
  340MOL0     C46836   6.136   6.990   6.947  0.4018  0.1707 -0.2371
  340MOL0     C46837   6.398   6.718   7.234  0.1617  0.5272  0.5966
  340MOL0     C46838   6.393   6.645   7.354 -0.6027  0.0578 -0.3238
  340MOL0     C46839   6.512   6.640   7.436 -0.5150  0.5548 -0.1014
  340MOL0     C46840   6.630   6.712   7.397  0.4136 -0.0700 -0.0127
  340MOL0     O46841   6.738   6.728   7.477  0.0680 -0.0080 -0.2740
  340MOL0     C46842   6.765   6.619   7.573 -0.1519 -0.4259  0.0253
  340MOL0     C46843   6.889   6.650   7.663 -0.3320  0.9866 -0.0460
  340MOL0     C46844   6.901   6.795   7.697  0.8670  0.1596 -0.1882
  340MOL0     C46845   7.014   6.844   7.783 -0.1297  0.2164  0.9220
  340MOL0     C46846   6.982   6.964   7.863  0.2550  0.0064  0.3621
  340MOL0     C46847   6.971   7.062   7.938 -0.4085 -0.3800  0.5151
  340MOL0     C46848   6.630   6.792   7.290  0.6691  0.2101  0.6480
  340MOL0     C46849   6.520   6.785   7.200  0.1076 -0.4167  0.9538
  340MOL0     C46850   6.532   6.866   7.067  0.6528  1.1982  0.4844
  340MOL0     H46851   6.116   6.645   6.914 -2.5664 -0.9168  5.7571
  340MOL0     H46852   5.945   6.705   6.759 -1.1615 -1.7143  3.2293
  340MOL0     H46853   5.713   7.004   6.832  1.0749  0.6843 -0.4257
  340MOL0     H46854   5.718   6.835   6.794  0.5979 -1.4488 -2.5242
  340MOL0     H46855   5.527   6.919   6.682  0.5080  1.7008  2.8925
  340MOL0     H46856   5.618   7.053   6.600  2.1095 -0.9890 -3.3073
  340MOL0     H46857   5.753   6.946   6.473  3.7554 -1.7702  1.8678
  340MOL0     H46858   5.720   6.788   6.550 -3.4827 -1.3810  2.5315
  340MOL0     H46859   5.506   6.773   6.458 -0.3606  1.6865  1.6625
  340MOL0     H46860   5.510   6.934   6.394  2.4271  1.7119 -1.4752
  340MOL0     H46861   5.705   6.695   6.323  0.0978 -0.7339 -1.2504
  340MOL0     H46862   5.721   6.859   6.256 -1.3021  1.5107  0.3257
  340MOL0     H46863   5.558   6.631   6.197 -0.4479  0.0392 -0.4327
  340MOL0     H46864   5.466   6.781   6.208  0.7589  1.9694 -1.8988
  340MOL0     H46865   5.708   6.722   6.018  1.6039  2.5213 -1.6841
  340MOL0     H46866   5.638   6.882   6.046 -1.5492  0.3700  1.4285
  340MOL0     H46867   5.426   6.816   5.985  1.3617  0.2203  1.1601
  340MOL0     H46868   5.545   6.781   5.848 -0.4947  1.0566  0.1391
  340MOL0     H46869   5.255   6.640   6.026  1.3866 -0.1874  2.8214
  340MOL0     H46870   5.129   6.388   6.000  1.9738  1.1525  0.8360
  340MOL0     H46871   5.260   6.260   5.974  1.9546  0.9458  1.2520
  340MOL0     H46872   5.096   6.412   5.764 -0.1497 -1.0830 -0.2483
  340MOL0     H46873   5.249   6.326   5.730  1.1786  3.1198  1.2162
  340MOL0     H46874   4.978   6.231   5.831  0.2325  0.7230  0.0097
  340MOL0     H46875   5.046   6.201   5.664  2.7392  4.0764 -1.7065
  340MOL0     H46876   5.156   6.091   5.926 -0.9071  2.0118  0.2769
  340MOL0     H46877   5.049   5.993   5.826 -0.2895  1.3169  0.3400
  340MOL0     H46878   5.271   5.878   5.940  1.4331  2.2747  0.2230
  340MOL0     H46879   5.505   5.629   5.997 -0.1007 -0.2894  1.5193
  340MOL0     H46880   5.349   5.700   6.029  0.1189  0.2291  1.7562
  340MOL0     H46881   5.476   5.762   6.112  0.0642 -1.8827  0.2466
  340MOL0     H46882   5.847   5.536   5.722  0.9744  0.7901 -1.2202
  340MOL0     H46883   6.041   5.408   5.722 -3.1604  0.5689 -0.1463
  340MOL0     H46884   6.262   5.328   5.738 -0.7389 -0.4676 -1.4334
  340MOL0     H46885   6.268   5.438   5.605  1.0915 -0.7080 -1.0896
  340MOL0     H46886   6.533   5.450   5.644  1.6588  1.6787  4.3518
  340MOL0     H46887   6.503   5.371   5.801 -1.5295 -0.4755  0.3365
  340MOL0     H46888   6.474   5.220   5.540  3.0654  2.4698 -1.4656
  340MOL0     H46889   6.473   5.161   5.698 -1.8217  1.7771  0.9659
  340MOL0     H46890   6.721   5.211   5.732 -0.3992 -0.9328  0.2621
  340MOL0     H46891   6.726   5.285   5.579  1.4351 -1.3145 -1.6239
  340MOL0     H46892   6.793   5.038   5.636  2.0796  3.3025 -2.1224
  340MOL0     H46893   6.628   4.989   5.597  1.8955 -0.7260  0.0648
  340MOL0     H46894   6.830   5.119   5.404 -1.0514  2.0599  0.8325
  340MOL0     H46895   6.658   5.106   5.384  1.8580 -0.1813 -2.4566
  340MOL0     H46896   6.643   4.868   5.387  0.5907  0.8035  1.3052
  340MOL0     H46897   6.812   4.875   5.454  1.8813  1.0161 -0.8201
  340MOL0     H46898   6.812   4.796   5.217 -0.1796  0.0878 -1.8270
  340MOL0     H46899   6.893   4.962   5.220 -0.7327  2.7698  0.3935
  340MOL0     H46900   6.272   5.759   5.831  0.0417  0.3606 -2.4621
  340MOL0     H46901   6.049   5.887   5.860 -1.0965  0.2946  0.4204
  340MOL0     H46902   5.674   5.955   5.670 -0.9765  0.7223 -1.5780
  340MOL0     H46903   5.459   6.086   5.625  1.4588 -3.1255 -1.8979
  340MOL0     H46904   6.007   7.117   6.832 -1.4975 -0.2285 -1.5978
  340MOL0     H46905   6.185   7.080   6.983  0.7001 -0.2974  0.5613
  340MOL0     H46906   6.294   6.610   7.382 -1.4496  2.1071 -0.5822
  340MOL0     H46907   6.504   6.597   7.535  0.1489  0.1339 -0.2268
  340MOL0     H46908   6.676   6.599   7.635 -0.0088 -2.3084 -0.3124
  340MOL0     H46909   6.786   6.528   7.517 -0.6823 -1.5120  1.5335
  340MOL0     H46910   6.980   6.619   7.611 -0.3220  0.7693  0.1000
  340MOL0     H46911   6.864   6.588   7.750  0.5113  1.3483  0.4586
  340MOL0     H46912   6.907   6.847   7.601  2.6892 -0.0825 -0.2400
  340MOL0     H46913   6.805   6.815   7.746 -1.3156 -2.7952 -2.8593
  340MOL0     H46914   7.089   6.886   7.716  0.3278 -1.6331  0.2069
  340MOL0     H46915   7.054   6.760   7.841  0.1053 -1.6049 -1.7407
  340MOL0     H46916   6.944   7.154   7.986  2.2256  0.8682 -0.2087
  340MOL0     H46917   6.707   6.867   7.274 -2.7752  3.6584 -1.3750
  340MOL0     H46918   6.498   6.813   6.978  1.9616 -0.9650  1.2060
  340MOL0     H46919   6.490   6.967   7.079  0.3082  1.1801 -0.4574
  340MOL0     H46920   6.637   6.893   7.048  1.2767 -0.9760  0.6233
  341MOL0     O46921   4.007   6.842   9.557 -1.2502 -0.9785  0.1908
  341MOL0     C46922   4.121   6.818   9.580 -0.2477  0.0261  0.2758
  341MOL0     O46923   4.223   6.797   9.491 -0.5593 -0.3520  1.3718
  341MOL0     C46924   4.218   6.777   9.356  0.0310  0.1053 -0.2216
  341MOL0     C46925   4.106   6.798   9.275 -0.8331  0.1232 -0.7081
  341MOL0     C46926   4.105   6.798   9.135  0.3915 -1.4134 -0.1599
  341MOL0     C46927   4.232   6.773   9.077  0.5449  0.0324 -0.5749
  341MOL0     O46928   4.254   6.774   8.938  0.0658 -0.1257 -0.2382
  341MOL0     C46929   4.169   6.870   8.861 -0.7909 -0.8232 -0.2182
  341MOL0     C46930   4.176   6.847   8.714  0.2854  0.1921  0.0707
  341MOL0     C46931   4.167   6.703   8.666  0.5834 -0.4787 -0.1255
  341MOL0     C46932   4.218   6.695   8.520 -0.4186  0.3939  0.6651
  341MOL0     C46933   4.375   6.721   8.484  0.8043  0.0145 -0.2796
  341MOL0     C46934   4.466   6.626   8.558  0.7211 -0.1725  0.1897
  341MOL0     C46935   4.613   6.670   8.543  0.5258 -0.0546 -0.1488
  341MOL0     C46936   4.672   6.672   8.400  0.9229  0.3526 -0.1439
  341MOL0     N46937   4.676   6.539   8.332 -0.2209  0.0353  0.5372
  341MOL0     C46938   4.791   6.487   8.287  0.1399 -0.0344  0.2016
  341MOL0     C46939   4.769   6.361   8.242  0.5050 -0.0053  0.0564
  341MOL0     C46940   4.875   6.277   8.184 -0.1637 -0.6687 -0.6979
  341MOL0     C46941   4.962   6.352   8.080  0.2736 -0.7064  0.0501
  341MOL0     C46942   5.042   6.243   8.007  0.1833  0.8028 -0.7079
  341MOL0     C46943   5.130   6.307   7.896  0.0945 -0.0719 -0.9643
  341MOL0     O46944   5.054   6.384   7.800  0.0356 -0.5674  0.1297
  341MOL0     C46945   5.102   6.402   7.668  0.3750 -0.3659 -0.4028
  341MOL0     C46946   5.234   6.401   7.641 -0.0461 -0.4701  0.3096
  341MOL0     C46947   5.282   6.359   7.522 -0.5514  1.1752 -0.4715
  341MOL0     C46948   5.435   6.341   7.511 -0.1605  0.8540  1.1016
  341MOL0     C46949   5.193   6.337   7.410 -0.0898 -0.4478  0.1104
  341MOL0     C46950   5.232   6.292   7.272 -1.1531 -0.0729 -0.4786
  341MOL0     O46951   5.367   6.308   7.232 -0.0065 -0.2637 -0.1401
  341MOL0     C46952   5.396   6.248   7.110 -0.4894 -0.3332 -0.1806
  341MOL0     C46953   5.463   6.124   7.096  0.0429 -1.0474 -0.8076
  341MOL0     C46954   5.497   6.061   6.967 -0.9492 -0.7237  0.5335
  341MOL0     C46955   5.472   6.132   6.851 -0.4073  0.2686 -0.7164
  341MOL0     O46956   5.483   6.074   6.731 -0.8893  0.5030  0.3220
  341MOL0     C46957   5.591   6.120   6.638  0.8207 -0.1851 -0.0822
  341MOL0     C46958   5.734   6.105   6.697 -0.1507  0.3036  0.4566
  341MOL0     C46959   5.757   5.953   6.728 -0.4689  0.0391  0.5259
  341MOL0     C46960   5.885   5.934   6.811 -0.3906  0.9342  1.0031
  341MOL0     C46961   5.929   5.785   6.801 -0.6479  0.0654 -0.0278
  341MOL0     C46962   6.053   5.774   6.891 -0.7815  0.2051 -0.2123
  341MOL0     C46963   6.100   5.626   6.889  0.7453  0.9287  0.1087
  341MOL0     C46964   6.193   5.596   7.002 -0.1623  0.1772 -0.1411
  341MOL0    Cl46965   6.120   5.621   7.155 -0.2504 -0.0930 -0.1952
  341MOL0     C46966   5.407   6.260   6.863  0.2322  0.1141  0.2762
  341MOL0     C46967   5.366   6.310   6.984 -0.1862  0.2180 -0.3333
  341MOL0     O46968   5.140   6.237   7.207 -0.1853 -0.0780 -0.4260
  341MOL0     C46969   5.062   6.370   7.431 -0.3102 -0.8932  0.4104
  341MOL0     C46970   5.015   6.386   7.560 -0.5790 -0.5857  0.2832
  341MOL0     N46971   4.630   6.343   8.247 -0.0738  0.2302 -0.3842
  341MOL0     N46972   4.580   6.446   8.316 -0.8769 -0.3867  0.4614
  341MOL0     C46973   4.348   6.729   9.153 -0.5474 -0.5660  0.4359
  341MOL0     C46974   4.337   6.751   9.290  0.1809  0.1459  0.1436
  341MOL0     C46975   4.158   6.833   9.720  0.6459 -0.2299 -0.3104
  341MOL0     C46976   4.288   6.867   9.768  0.5160  0.1217  0.0584
  341MOL0     C46977   4.314   6.903   9.905 -0.3697  0.0120 -0.5274
  341MOL0     C46978   4.207   6.924   9.996  0.6913  0.2329  0.2730
  341MOL0     O46979   4.222   6.962  10.128 -0.0670 -0.1585 -0.1599
  341MOL0     C46980   4.342   6.952  10.203  0.1943  1.2275 -0.5599
  341MOL0     C46981   4.315   6.995  10.351 -0.0035 -0.2285 -0.4986
  341MOL0     C46982   4.267   6.890  10.451 -0.1392 -0.6523  0.8315
  341MOL0     C46983   4.137   6.825  10.412 -0.2854 -0.8172  0.2580
  341MOL0     C46984   4.083   6.736  10.524 -0.0569 -0.4069 -0.0257
  341MOL0     C46985   4.025   6.670  10.610  0.0019  0.4944  0.0025
  341MOL0     C46986   4.079   6.901   9.951 -0.3421  0.1941  0.2833
  341MOL0     C46987   4.061   6.842   9.821  0.7387  0.2678 -0.1586
  341MOL0     C46988   3.916   6.788   9.814  0.2490  0.9840 -0.4349
  341MOL0     H46989   4.006   6.804   9.316 -0.8589 -1.2166 -0.5309
  341MOL0     H46990   4.015   6.824   9.079 -0.9854 -2.3794  1.5089
  341MOL0     H46991   4.217   6.966   8.878  1.5773 -2.2967  2.1299
  341MOL0     H46992   4.064   6.877   8.890 -0.4722 -2.7741  1.6567
  341MOL0     H46993   4.110   6.920   8.665 -1.4852 -0.8791  0.7585
  341MOL0     H46994   4.275   6.874   8.677 -0.0531  1.1693 -0.1611
  341MOL0     H46995   4.232   6.644   8.731  0.0251  0.8575  1.7304
  341MOL0     H46996   4.065   6.663   8.665  0.9119 -1.3634 -1.6515
  341MOL0     H46997   4.184   6.595   8.493 -1.5474  0.7146  0.8513
  341MOL0     H46998   4.164   6.768   8.459  3.2536  1.8519 -1.1840
  341MOL0     H46999   4.388   6.826   8.513  2.6293 -0.3920  0.5251
  341MOL0     H47000   4.396   6.712   8.377 -0.0386  0.8045 -0.5268
  341MOL0     H47001   4.451   6.640   8.666  0.4882 -0.0665  0.1448
  341MOL0     H47002   4.455   6.519   8.538  1.6746 -0.4209  0.9371
  341MOL0     H47003   4.668   6.599   8.605 -1.1264  0.0996  1.6087
  341MOL0     H47004   4.620   6.772   8.581  2.1099  0.3781 -1.5002
  341MOL0     H47005   4.608   6.740   8.344  2.6079  0.8184 -1.5871
  341MOL0     H47006   4.774   6.712   8.393  1.1529  0.3431  2.3175
  341MOL0     H47007   4.890   6.530   8.296  0.6093 -1.1034  0.2918
  341MOL0     H47008   4.827   6.185   8.150 -0.9945 -2.0444  3.6313
  341MOL0     H47009   4.954   6.247   8.253  0.6438  1.2454 -0.7163
  341MOL0     H47010   4.902   6.412   8.011 -0.2397 -1.1561  0.0983
  341MOL0     H47011   5.027   6.415   8.140  3.0451 -2.7988 -0.5420
  341MOL0     H47012   5.113   6.184   8.067  0.4717  2.0841  0.2514
  341MOL0     H47013   4.970   6.181   7.953 -0.4284  1.5551 -0.7633
  341MOL0     H47014   5.204   6.366   7.950 -0.3262 -0.6671  0.3096
  341MOL0     H47015   5.186   6.230   7.842  3.1490 -0.0878  1.9580
  341MOL0     H47016   5.298   6.417   7.728 -0.7997 -0.0125  0.7906
  341MOL0     H47017   5.500   6.347   7.599  1.2295  4.5435  0.0028
  341MOL0     H47018   5.475   6.423   7.452  3.1775 -0.1763  1.7120
  341MOL0     H47019   5.456   6.248   7.457  2.2513  1.7637  0.3501
  341MOL0     H47020   5.497   6.076   7.186 -2.0167  0.9155  1.1562
  341MOL0     H47021   5.550   5.967   6.962  0.8267  0.2552  0.0615
  341MOL0     H47022   5.591   6.066   6.543 -1.1050  0.1026 -0.2803
  341MOL0     H47023   5.575   6.225   6.611  1.2201 -0.2678 -0.6625
  341MOL0     H47024   5.798   6.144   6.617 -0.1795 -0.1291  0.2178
  341MOL0     H47025   5.741   6.170   6.785  0.0717  0.4075  0.3630
  341MOL0     H47026   5.756   5.895   6.635 -1.1947  0.7400  0.0742
  341MOL0     H47027   5.674   5.916   6.788 -1.5487  3.1003  1.1044
  341MOL0     H47028   5.862   5.951   6.917 -1.9640 -1.3012  1.1045
  341MOL0     H47029   5.959   6.006   6.775 -1.0503  1.7194  1.1962
  341MOL0     H47030   5.849   5.727   6.848 -2.7920  3.0803  0.3093
  341MOL0     H47031   5.955   5.754   6.699  0.8020  0.8879  0.0702
  341MOL0     H47032   6.036   5.806   6.994  3.9842  2.4785  0.1413
  341MOL0     H47033   6.128   5.840   6.847  0.0475  0.3236  1.3319
  341MOL0     H47034   6.142   5.615   6.789  1.2856 -0.5427  0.4826
  341MOL0     H47035   6.019   5.552   6.891  2.6389 -1.3517 -1.5583
  341MOL0     H47036   6.285   5.656   7.001 -0.8987  1.3566 -1.9154
  341MOL0     H47037   6.224   5.493   6.984  0.8945  0.3805  0.4279
  341MOL0     H47038   5.382   6.326   6.781 -0.0002  0.2123  0.4258
  341MOL0     H47039   5.315   6.406   6.987 -2.1525 -0.7714  3.0357
  341MOL0     H47040   4.988   6.369   7.351 -0.3811  1.9181  0.3696
  341MOL0     H47041   4.910   6.375   7.583 -0.4183  2.1574  2.8785
  341MOL0     H47042   4.446   6.715   9.108 -0.0165  0.5362  1.2075
  341MOL0     H47043   4.423   6.719   9.348 -0.8241 -4.2375 -0.4317
  341MOL0     H47044   4.381   6.873   9.713  2.2459 -2.3637  2.4708
  341MOL0     H47045   4.411   6.936   9.941 -1.2272  1.0672  0.8966
  341MOL0     H47046   4.379   6.849  10.203 -3.0548 -0.0703  0.4764
  341MOL0     H47047   4.414   7.016  10.151  0.1698 -0.2113 -2.4900
  341MOL0     H47048   4.243   7.077  10.345  0.7323  0.3480 -2.2294
  341MOL0     H47049   4.406   7.035  10.396 -0.5076 -1.7538  2.0581
  341MOL0     H47050   4.348   6.817  10.463 -0.0781 -0.7308 -0.0148
  341MOL0     H47051   4.252   6.947  10.544 -0.5097  1.0035 -0.2030
  341MOL0     H47052   4.147   6.758  10.327  1.8114  0.7853 -0.8444
  341MOL0     H47053   4.068   6.900  10.373 -0.0875 -1.6495 -1.8129
  341MOL0     H47054   3.978   6.602  10.678 -1.1985 -0.7384 -1.9370
  341MOL0     H47055   3.999   6.910  10.023 -2.0675 -0.5445 -1.4460
  341MOL0     H47056   3.851   6.870   9.784 -0.0078  1.3867  1.1128
  341MOL0     H47057   3.901   6.708   9.742  0.1760  0.1087  0.5264
  341MOL0     H47058   3.890   6.769   9.919 -0.5394 -0.8966 -0.9363
  342MOL0     O47059   9.685  11.508   3.637 -0.0220 -0.0902  0.4436
  342MOL0     C47060   9.775  11.473   3.549  0.0406 -0.4583 -0.6431
  342MOL0     O47061   9.788  11.350   3.492 -0.1563 -0.2038  0.4371
  342MOL0     C47062   9.754  11.241   3.558 -0.0435 -0.5362  0.1237
  342MOL0     C47063   9.745  11.130   3.484  0.0535 -0.1377 -0.7186
  342MOL0     C47064   9.697  11.012   3.534 -1.4985 -0.0493  1.0173
  342MOL0     C47065   9.656  10.999   3.661  0.0585 -1.0365 -0.2184
  342MOL0     O47066   9.612  10.878   3.702 -0.3115 -0.1301  0.9359
  342MOL0     C47067   9.640  10.840   3.831 -0.1589 -0.6087  0.0601
  342MOL0     C47068   9.663  10.682   3.848 -1.0749  0.7805  0.6882
  342MOL0     C47069   9.542  10.589   3.828 -0.3042 -0.0060  0.7586
  342MOL0     C47070   9.592  10.445   3.781  0.0821 -0.8299 -0.4589
  342MOL0     C47071   9.700  10.381   3.862 -0.0487  0.4680 -0.1122
  342MOL0     C47072   9.716  10.235   3.840 -1.5517 -0.0753  0.3343
  342MOL0     C47073   9.851  10.183   3.892 -0.8650  0.5254  0.4845
  342MOL0     C47074   9.849  10.031   3.886 -0.0596  0.7488  0.3815
  342MOL0     N47075   9.968   9.955   3.933 -0.3603 -0.2241  0.5843
  342MOL0     C47076   9.985   9.819   3.913  0.7535  0.3476 -0.2565
  342MOL0     C47077  10.110   9.793   3.950 -0.0566  0.0490  0.0603
  342MOL0     C47078  10.180   9.664   3.907  0.3542 -0.8288 -0.5905
  342MOL0     C47079  10.202   9.680   3.748  0.2037  0.7383  0.1654
  342MOL0     C47080  10.308   9.582   3.691  0.2716  0.1496 -0.3121
  342MOL0     C47081  10.310   9.594   3.535 -0.6775  0.0961  0.0522
  342MOL0     O47082  10.191   9.523   3.492 -0.3663 -0.1256  0.0913
  342MOL0     C47083  10.157   9.517   3.360 -0.6335 -0.1106 -0.3416
  342MOL0     C47084  10.247   9.543   3.263  0.4251  0.0254 -0.6291
  342MOL0     C47085  10.227   9.515   3.134  0.7977  0.2541  0.5357
  342MOL0     C47086  10.331   9.548   3.035 -0.5543 -0.7194 -0.7375
  342MOL0     C47087  10.103   9.448   3.097 -0.2927 -0.9033 -0.8743
  342MOL0     C47088  10.079   9.382   2.968  0.9329  0.9988 -0.1103
  342MOL0     O47089   9.998   9.273   2.971  0.4925 -0.7200 -0.0064
  342MOL0     C47090  10.003   9.178   2.880  0.3157  0.7384  0.2212
  342MOL0     C47091   9.910   9.074   2.886 -0.5208 -0.3651 -0.2436
  342MOL0     C47092   9.913   8.954   2.810  0.5831  0.1899 -0.0781
  342MOL0     C47093  10.022   8.940   2.722  0.3338  0.5219  0.8535
  342MOL0     O47094  10.037   8.823   2.655 -0.5668  0.1570  0.3778
  342MOL0     C47095  10.123   8.803   2.544 -0.2884  0.3578  0.8528
  342MOL0     C47096  10.095   8.669   2.467 -0.1720  0.2553 -0.6673
  342MOL0     C47097   9.953   8.688   2.397  0.7747 -0.2451  0.0685
  342MOL0     C47098   9.913   8.566   2.317  0.1074  0.7303 -0.4105
  342MOL0     C47099   9.806   8.588   2.216  0.3907 -0.2281  0.8809
  342MOL0     C47100   9.735   8.462   2.171 -1.1765  0.1240 -1.1919
  342MOL0     C47101   9.645   8.505   2.057  0.1910  0.3538  1.2828
  342MOL0     C47102   9.573   8.384   1.989 -0.8363  0.2997  1.1004
  342MOL0    Cl47103   9.470   8.438   1.863 -0.1260 -0.0452  0.0484
  342MOL0     C47104  10.114   9.040   2.713 -0.0164 -0.2879  0.5471
  342MOL0     C47105  10.108   9.156   2.795 -0.2587 -0.2808  0.8237
  342MOL0     O47106  10.129   9.426   2.864 -0.1407 -0.2692  0.5911
  342MOL0     C47107   9.996   9.447   3.192 -0.3063  0.4389  0.3165
  342MOL0     C47108  10.025   9.490   3.323 -0.3384  0.0134 -0.2897
  342MOL0     N47109  10.168   9.907   4.003 -0.2700 -0.5369 -0.2007
  342MOL0     N47110  10.080  10.002   3.992 -0.0152  0.1402 -0.0946
  342MOL0     C47111   9.673  11.114   3.746  0.4834  0.3361 -0.3124
  342MOL0     C47112   9.715  11.231   3.702 -1.3102  0.5778  0.7526
  342MOL0     C47113   9.862  11.584   3.494 -0.2347 -0.3689  0.3246
  342MOL0     C47114   9.890  11.591   3.353  0.1304 -0.2510 -0.8007
  342MOL0     C47115   9.962  11.694   3.307 -0.1995 -0.2863  0.1489
  342MOL0     C47116   9.994  11.803   3.389 -1.1890 -0.4330  1.5470
  342MOL0     O47117  10.069  11.912   3.354 -0.1757  0.1146  0.1755
  342MOL0     C47118  10.051  11.971   3.224 -0.1095  0.4327  0.5105
  342MOL0     C47119  10.084  12.119   3.227 -1.2126 -0.3624  0.1563
  342MOL0     C47120  10.238  12.139   3.265 -0.4143  0.0526 -0.1382
  342MOL0     C47121  10.349  12.103   3.170 -0.0836  0.2434 -0.0889
  342MOL0     C47122  10.313  12.123   3.029  0.0946 -0.0523 -1.0423
  342MOL0     C47123  10.280  12.147   2.919  0.8127  0.0029  0.0416
  342MOL0     C47124   9.967  11.804   3.519 -0.8086 -0.1689 -0.9869
  342MOL0     C47125   9.906  11.691   3.575 -0.6142  0.1709 -0.4027
  342MOL0     C47126   9.885  11.683   3.722  1.1734 -0.5310 -0.9377
  342MOL0     H47127   9.783  11.117   3.383 -2.8235 -1.4106 -1.7447
  342MOL0     H47128   9.709  10.932   3.462  0.2956  1.0163  0.0606
  342MOL0     H47129   9.560  10.875   3.897  1.1930  1.6297  0.6178
  342MOL0     H47130   9.739  10.878   3.857 -0.9240  2.6838 -1.3956
  342MOL0     H47131   9.732  10.641   3.774  0.1496 -1.2090  2.7997
  342MOL0     H47132   9.702  10.677   3.950  3.3048  1.7665 -0.7215
  342MOL0     H47133   9.490  10.566   3.922 -0.8940 -2.0823 -0.0089
  342MOL0     H47134   9.472  10.639   3.761 -0.7881 -2.3409 -0.6063
  342MOL0     H47135   9.506  10.380   3.799 -1.5622  1.6933  1.4111
  342MOL0     H47136   9.620  10.451   3.675  3.4762 -1.9602  0.2471
  342MOL0     H47137   9.666  10.392   3.965 -0.2196 -0.8474 -0.0072
  342MOL0     H47138   9.795  10.432   3.842 -0.7857  1.7792 -0.3857
  342MOL0     H47139   9.634  10.186   3.893  1.3002 -2.0811  3.2566
  342MOL0     H47140   9.713  10.203   3.735 -0.2555 -0.0609  0.2688
  342MOL0     H47141   9.858  10.224   3.993 -0.0409 -0.7715  0.9785
  342MOL0     H47142   9.937  10.211   3.831  0.3590  1.1555  2.3969
  342MOL0     H47143   9.769   9.977   3.937  1.4591  0.9210  3.1327
  342MOL0     H47144   9.842   9.995   3.783 -2.5493 -0.2290  0.8086
  342MOL0     H47145   9.909   9.759   3.865  1.7826  0.1547 -1.7265
  342MOL0     H47146  10.114   9.580   3.931 -0.9554  0.2821 -0.1840
  342MOL0     H47147  10.273   9.652   3.963 -0.9200 -1.1637  1.5696
  342MOL0     H47148  10.111   9.667   3.689 -0.6847  0.6732  1.4865
  342MOL0     H47149  10.228   9.785   3.731 -0.2051  0.5422 -1.9042
  342MOL0     H47150  10.402   9.602   3.744 -1.3837 -0.4606  3.0907
  342MOL0     H47151  10.292   9.479   3.721  2.8517  0.2937  1.9225
  342MOL0     H47152  10.297   9.702   3.523  0.4744  0.0695 -1.8486
  342MOL0     H47153  10.407   9.561   3.497  0.3484  0.5288  2.1440
  342MOL0     H47154  10.348   9.575   3.287  1.3400 -0.1827 -3.7231
  342MOL0     H47155  10.349   9.454   2.982 -0.6261 -2.2766  1.8092
  342MOL0     H47156  10.422   9.572   3.091 -0.8577 -0.2723 -0.4278
  342MOL0     H47157  10.302   9.629   2.967  0.3757  0.9383  0.7325
  342MOL0     H47158   9.824   9.084   2.951 -0.6486 -0.3200 -0.4176
  342MOL0     H47159   9.841   8.874   2.812  0.2590  0.4708 -0.3428
  342MOL0     H47160  10.107   8.883   2.470 -1.2332  0.9622  1.6853
  342MOL0     H47161  10.230   8.808   2.565 -0.3441  2.1129  0.8871
  342MOL0     H47162  10.167   8.645   2.388  1.3057 -1.8215  1.1856
  342MOL0     H47163  10.085   8.585   2.537 -4.8064 -1.4451 -2.9863
  342MOL0     H47164   9.954   8.767   2.321  5.2869  0.8703  0.9965
  342MOL0     H47165   9.870   8.703   2.468 -0.4985 -1.5545 -1.0731
  342MOL0     H47166   9.878   8.487   2.385  4.3028  1.3831  2.8643
  342MOL0     H47167  10.002   8.534   2.261  3.8930  1.6736  4.4246
  342MOL0     H47168   9.732   8.659   2.256  1.6694  1.1178  0.9523
  342MOL0     H47169   9.846   8.638   2.127 -1.1349 -1.6450 -0.6627
  342MOL0     H47170   9.679   8.420   2.254  2.1508 -1.4547  0.4692
  342MOL0     H47171   9.806   8.383   2.143 -2.2108 -0.8763 -1.0710
  342MOL0     H47172   9.704   8.566   1.987  0.6167  0.1467  1.4627
  342MOL0     H47173   9.563   8.571   2.088  0.2170  0.9983  0.0479
  342MOL0     H47174   9.508   8.338   2.065 -0.5486  0.2009  1.2879
  342MOL0     H47175   9.643   8.307   1.953 -0.9989  1.4644 -2.0243
  342MOL0     H47176  10.201   9.035   2.649  0.7811 -1.4419  1.6931
  342MOL0     H47177  10.193   9.224   2.793 -0.7665  0.3363 -0.4454
  342MOL0     H47178   9.901   9.403   3.161 -1.8694  3.1463  0.8897
  342MOL0     H47179   9.948   9.486   3.399 -1.5922  2.6859 -1.2719
  342MOL0     H47180   9.638  11.112   3.849 -0.3077 -1.1854 -0.5749
  342MOL0     H47181   9.692  11.319   3.761 -2.0553  1.1717 -0.3726
  342MOL0     H47182   9.866  11.514   3.281 -2.4052  1.4726 -1.9445
  342MOL0     H47183   9.992  11.689   3.202 -0.5641 -0.5879  0.0580
  342MOL0     H47184  10.112  11.925   3.147  0.0090  1.0246  0.2434
  342MOL0     H47185   9.945  11.958   3.200 -0.3754  0.4423  1.6044
  342MOL0     H47186  10.020  12.166   3.303 -0.1251  0.5339  0.5448
  342MOL0     H47187  10.066  12.174   3.134  0.0921 -1.6809 -0.9165
  342MOL0     H47188  10.248  12.247   3.281  0.0923  0.0778 -0.6246
  342MOL0     H47189  10.257  12.090   3.361 -1.4256 -0.1842 -0.0393
  342MOL0     H47190  10.385  12.002   3.194  1.5292  1.4382  3.0353
  342MOL0     H47191  10.435  12.168   3.187 -0.9105  1.0759  1.0290
  342MOL0     H47192  10.251  12.175   2.820  0.3948  2.0557  0.7006
  342MOL0     H47193   9.981  11.893   3.578  1.5610 -0.6656 -0.7149
  342MOL0     H47194   9.944  11.756   3.777 -0.1934 -2.5719  3.6682
  342MOL0     H47195   9.781  11.694   3.752  1.7575  1.5568  0.5034
  342MOL0     H47196   9.918  11.588   3.765 -0.9409 -0.1771  1.7061
  343MOL0     O47197   7.449   4.903   8.456  0.3780 -0.0986  0.3364
  343MOL0     C47198   7.518   4.833   8.532 -0.9391 -0.8890 -0.4453
  343MOL0     O47199   7.489   4.708   8.581 -0.1574 -0.3846  0.1013
  343MOL0     C47200   7.359   4.662   8.556  0.6137  0.7125  0.1930
  343MOL0     C47201   7.259   4.672   8.649  0.5652 -0.4094  0.0468
  343MOL0     C47202   7.126   4.629   8.623  0.6285  0.8282  0.0876
  343MOL0     C47203   7.101   4.548   8.520  0.6834 -1.3333  0.1026
  343MOL0     O47204   6.975   4.497   8.499 -0.6233  0.0682  0.1590
  343MOL0     C47205   6.922   4.550   8.369 -0.4092 -0.2769 -0.3112
  343MOL0     C47206   6.808   4.469   8.344  0.0176 -0.2479  0.0437
  343MOL0     C47207   6.692   4.509   8.438 -0.4197 -0.2378 -0.0003
  343MOL0     C47208   6.584   4.396   8.454 -0.5143 -0.0841 -0.3903
  343MOL0     C47209   6.475   4.425   8.352  0.2953 -0.4841 -0.3550
  343MOL0     C47210   6.339   4.348   8.358 -0.1162  0.3995 -0.3130
  343MOL0     C47211   6.361   4.197   8.372  0.9242  0.4885  0.2396
  343MOL0     C47212   6.352   4.158   8.514 -0.5356  0.2891 -0.4187
  343MOL0     N47213   6.316   4.014   8.544 -0.0655  0.0438 -1.3253
  343MOL0     C47214   6.360   3.905   8.478 -0.1200 -0.0479  0.6071
  343MOL0     C47215   6.316   3.798   8.544 -0.2332  0.1962 -0.2965
  343MOL0     C47216   6.328   3.651   8.502 -0.1448  0.6572  0.2021
  343MOL0     C47217   6.470   3.588   8.508  0.3461 -0.2191 -0.5245
  343MOL0     C47218   6.564   3.629   8.399 -0.3752 -0.1432 -0.5816
  343MOL0     C47219   6.700   3.576   8.424  1.0525  0.3175 -0.0487
  343MOL0     O47220   6.801   3.633   8.333  0.9819  0.3993 -0.8734
  343MOL0     C47221   6.927   3.580   8.354  0.3481  0.2540 -0.5410
  343MOL0     C47222   7.029   3.673   8.366 -0.1222  0.2658 -0.6096
  343MOL0     C47223   7.160   3.635   8.409  0.2800 -0.8019 -0.0357
  343MOL0     C47224   7.270   3.745   8.408  0.1526 -0.9908  0.7177
  343MOL0     C47225   7.183   3.502   8.452 -0.2546 -0.2847  1.1015
  343MOL0     C47226   7.315   3.450   8.488  0.4527 -0.1405  0.3211
  343MOL0     O47227   7.410   3.540   8.532 -0.2215  0.3988 -0.0550
  343MOL0     C47228   7.535   3.506   8.565 -0.9546 -0.4250  0.9632
  343MOL0     C47229   7.592   3.547   8.681  0.5165 -0.2477  0.3261
  343MOL0     C47230   7.721   3.520   8.715 -0.3274  0.6832 -0.4023
  343MOL0     C47231   7.799   3.442   8.627 -0.4151  0.6829  0.1868
  343MOL0     O47232   7.932   3.400   8.650  0.2297  0.3418  0.8198
  343MOL0     C47233   7.949   3.329   8.773  0.2077 -0.0202 -0.0256
  343MOL0     C47234   8.045   3.215   8.751  0.8519  0.0932  0.3115
  343MOL0     C47235   8.116   3.171   8.878  1.4222  0.1053 -0.0021
  343MOL0     C47236   8.021   3.098   8.978  0.0050 -0.5508 -0.8096
  343MOL0     C47237   7.999   2.951   8.928 -0.3234 -0.1492  0.4660
  343MOL0     C47238   7.960   2.844   9.039 -0.0745  0.6374  0.3005
  343MOL0     C47239   7.919   2.701   8.999  0.0153  0.6729  0.2289
  343MOL0     C47240   7.802   2.695   8.906  0.5838  0.6581  0.1767
  343MOL0    Cl47241   7.749   2.527   8.900  0.1255 -0.1851  0.4977
  343MOL0     C47242   7.736   3.399   8.498  0.4544 -0.1802 -0.7029
  343MOL0     C47243   7.608   3.438   8.467  0.1724 -0.6331 -0.3725
  343MOL0     O47244   7.328   3.333   8.461 -0.0509  0.9498  0.0439
  343MOL0     C47245   7.073   3.406   8.439  0.1370  0.3201 -0.4035
  343MOL0     C47246   6.951   3.445   8.387 -0.6374  0.4062  0.0568
  343MOL0     N47247   6.244   3.841   8.651 -0.4421  0.3150 -0.4392
  343MOL0     N47248   6.233   3.970   8.642 -0.0374  0.3073 -0.1545
  343MOL0     C47249   7.210   4.519   8.431 -0.0925 -0.0052  0.0246
  343MOL0     C47250   7.330   4.588   8.448 -0.0650 -0.6674  0.4965
  343MOL0     C47251   7.644   4.910   8.597  0.1607 -0.8819 -0.0192
  343MOL0     C47252   7.690   4.870   8.726  0.5536  0.4522 -0.5413
  343MOL0     C47253   7.782   4.944   8.794 -0.5616  0.5001  0.0082
  343MOL0     C47254   7.833   5.064   8.747  0.2956 -0.3612  0.1566
  343MOL0     O47255   7.916   5.150   8.814 -0.8121 -0.5325 -0.6722
  343MOL0     C47256   7.996   5.094   8.923  0.3712  0.1950  0.1366
  343MOL0     C47257   8.091   5.205   8.965 -0.2853 -0.3596  0.3290
  343MOL0     C47258   8.210   5.156   9.040 -0.4010  0.5445  0.5618
  343MOL0     C47259   8.335   5.239   9.015  0.1576  0.0274 -0.1043
  343MOL0     C47260   8.315   5.376   9.079  0.0671 -0.1307  0.6901
  343MOL0     C47261   8.320   5.495   9.104 -1.2360 -0.6934  0.2346
  343MOL0     C47262   7.795   5.100   8.615  0.4091  0.7014 -0.3009
  343MOL0     C47263   7.705   5.020   8.538  0.2553 -1.0175  0.4014
  343MOL0     C47264   7.668   5.077   8.409  0.2540  1.3808 -0.1796
  343MOL0     H47265   7.278   4.726   8.742  1.0398  1.2675 -0.9923
  343MOL0     H47266   7.043   4.661   8.686  0.4233  0.3924  0.0432
  343MOL0     H47267   6.991   4.548   8.284 -0.5383  0.6282 -0.4477
  343MOL0     H47268   6.897   4.653   8.394  0.5579 -0.3479  1.0760
  343MOL0     H47269   6.780   4.481   8.239 -2.1699 -4.4849 -0.0801
  343MOL0     H47270   6.835   4.364   8.357 -3.1204 -1.0686  0.9181
  343MOL0     H47271   6.744   4.534   8.531  1.8181 -0.0928 -1.2270
  343MOL0     H47272   6.637   4.595   8.397 -0.4019 -0.8190 -1.3027
  343MOL0     H47273   6.624   4.296   8.438 -0.2595  0.0216 -0.4164
  343MOL0     H47274   6.554   4.392   8.560 -3.6567 -3.7144 -1.2049
  343MOL0     H47275   6.506   4.405   8.250  1.2166  0.4726 -0.2794
  343MOL0     H47276   6.456   4.533   8.353  0.1050 -0.5039 -1.3945
  343MOL0     H47277   6.296   4.376   8.455  1.7995 -3.5192  1.9429
  343MOL0     H47278   6.273   4.377   8.277 -1.7469  1.1454  1.2123
  343MOL0     H47279   6.458   4.162   8.334  0.9763  1.1307 -0.2493
  343MOL0     H47280   6.283   4.148   8.313  0.0752  2.0270  0.0258
  343MOL0     H47281   6.448   4.182   8.560  1.0064  1.8020 -4.1217
  343MOL0     H47282   6.277   4.218   8.567  0.5473 -0.0593  1.6027
  343MOL0     H47283   6.398   3.900   8.376  2.0088  2.5774  1.1687
  343MOL0     H47284   6.304   3.639   8.396  0.4390 -0.5191  0.1858
  343MOL0     H47285   6.249   3.599   8.557  1.5307  0.0298  2.1875
  343MOL0     H47286   6.508   3.620   8.606  0.9690 -2.6570  0.1151
  343MOL0     H47287   6.463   3.479   8.504 -2.2279 -0.2186  1.3977
  343MOL0     H47288   6.525   3.593   8.304  1.5680 -3.3709 -0.2788
  343MOL0     H47289   6.574   3.738   8.394 -0.3508 -0.1859 -1.5456
  343MOL0     H47290   6.735   3.596   8.525  0.3221  1.1439  0.0513
  343MOL0     H47291   6.694   3.468   8.408 -1.4942  0.5664 -1.4302
  343MOL0     H47292   7.002   3.774   8.341 -0.2960  0.5767  0.7644
  343MOL0     H47293   7.360   3.725   8.349  1.0146  1.0003  1.2853
  343MOL0     H47294   7.304   3.768   8.509  1.0548  1.7274 -0.1127
  343MOL0     H47295   7.240   3.841   8.365  0.5890  1.2288  4.8742
  343MOL0     H47296   7.535   3.603   8.755  0.9035 -1.4593  1.5948
  343MOL0     H47297   7.768   3.573   8.797  1.4705 -3.3090  1.4017
  343MOL0     H47298   7.994   3.409   8.833  0.8034 -0.4890  0.1582
  343MOL0     H47299   7.853   3.299   8.815 -0.9587  4.1363  0.7244
  343MOL0     H47300   7.995   3.135   8.695  1.5648 -0.3816  0.3369
  343MOL0     H47301   8.119   3.251   8.678 -1.1074  1.0088 -1.3339
  343MOL0     H47302   8.149   3.265   8.924  0.8465 -0.0155  0.6825
  343MOL0     H47303   8.203   3.109   8.855  1.0084 -1.0551  1.3843
  343MOL0     H47304   7.926   3.149   8.995  0.3783  0.1525 -0.7826
  343MOL0     H47305   8.072   3.096   9.075 -0.8827  0.0430 -0.3178
  343MOL0     H47306   7.922   2.939   8.851 -3.5644  0.6240  3.2924
  343MOL0     H47307   8.100   2.921   8.900  2.4996  2.5858  6.0620
  343MOL0     H47308   7.873   2.886   9.090 -0.8505 -1.4352  0.7600
  343MOL0     H47309   8.044   2.837   9.109  0.7407  2.9971 -0.3272
  343MOL0     H47310   7.890   2.650   9.092 -0.5874  1.6379  0.5940
  343MOL0     H47311   8.009   2.652   8.961 -0.4428 -1.3943  1.6636
  343MOL0     H47312   7.815   2.713   8.799  2.7024 -2.7952 -0.3229
  343MOL0     H47313   7.717   2.750   8.947 -0.9333 -1.7521  0.4824
  343MOL0     H47314   7.789   3.344   8.421  0.6676 -1.3742  0.2728
  343MOL0     H47315   7.569   3.408   8.371 -0.8366 -1.6589  0.3322
  343MOL0     H47316   7.078   3.303   8.470  0.8398  0.5479  0.2910
  343MOL0     H47317   6.879   3.365   8.376 -0.5080  0.5292 -2.2204
  343MOL0     H47318   7.215   4.452   8.346 -0.1532  1.0712 -0.8514
  343MOL0     H47319   7.413   4.574   8.379 -0.2912 -1.4036  0.3686
  343MOL0     H47320   7.635   4.783   8.762 -1.2528  2.5174  2.1377
  343MOL0     H47321   7.813   4.911   8.893 -1.0652 -0.6642 -0.2070
  343MOL0     H47322   7.934   5.059   9.006 -0.0946  1.4236  0.3231
  343MOL0     H47323   8.044   5.002   8.887 -1.5568 -0.6819 -0.3446
  343MOL0     H47324   8.023   5.273   9.015 -0.3488 -0.2347  0.0706
  343MOL0     H47325   8.144   5.237   8.875  2.9892 -2.0643  1.4856
  343MOL0     H47326   8.184   5.158   9.147  0.2918 -1.7963  0.8315
  343MOL0     H47327   8.247   5.059   9.008  2.3530  1.6814  0.0651
  343MOL0     H47328   8.369   5.254   8.912 -2.6270 -0.6363 -1.2093
  343MOL0     H47329   8.415   5.185   9.065  0.0415 -2.9277 -2.8152
  343MOL0     H47330   8.319   5.601   9.121 -1.0116 -0.9482  2.1289
  343MOL0     H47331   7.834   5.192   8.572  1.0093  1.0648  0.9661
  343MOL0     H47332   7.757   5.127   8.369  1.5203 -2.1336 -2.2595
  343MOL0     H47333   7.649   4.999   8.334  0.5675  0.4953  0.6393
  343MOL0     H47334   7.592   5.156   8.414  0.3360  1.4202  0.4556
  344MOL0     O47335   4.730   1.774   5.109 -0.5946  0.3188 -0.2583
  344MOL0     C47336   4.753   1.846   5.012  0.0192  0.0324  0.0696
  344MOL0     O47337   4.666   1.938   4.953  0.1058  0.0735  0.6336
  344MOL0     C47338   4.555   1.988   5.023 -0.5682  0.1009 -0.0719
  344MOL0     C47339   4.473   2.075   4.953  0.0856  0.0106 -0.1226
  344MOL0     C47340   4.370   2.147   5.019 -0.8997  0.5530 -0.2531
  344MOL0     C47341   4.350   2.130   5.161 -0.4422  0.2040 -0.1745
  344MOL0     O47342   4.253   2.209   5.220  0.0722  0.5821 -0.3864
  344MOL0     C47343   4.261   2.237   5.362 -0.1853  0.5105  0.5772
  344MOL0     C47344   4.167   2.344   5.399  0.5643 -0.6623  0.8900
  344MOL0     C47345   4.219   2.483   5.383  0.0492  0.4622  0.3702
  344MOL0     C47346   4.114   2.581   5.437 -0.7165 -0.0850  0.2394
  344MOL0     C47347   4.187   2.701   5.490 -0.5363 -0.0985 -0.3732
  344MOL0     C47348   4.212   2.804   5.380 -0.0880  0.0634 -0.4557
  344MOL0     C47349   4.252   2.942   5.429 -0.5351  0.2594  0.0091
  344MOL0     C47350   4.405   2.951   5.461 -0.8541  0.0233 -0.6373
  344MOL0     N47351   4.434   2.896   5.597  0.4863  0.5212  0.6682
  344MOL0     C47352   4.375   2.941   5.718  0.1201  0.4975  0.1276
  344MOL0     C47353   4.449   2.875   5.810 -0.4343  0.6628  0.6542
  344MOL0     C47354   4.437   2.892   5.960 -0.7074 -0.9258  0.2274
  344MOL0     C47355   4.571   2.917   6.029 -0.0194 -0.4974 -0.0746
  344MOL0     C47356   4.646   2.787   6.043 -0.7354 -0.6497  0.8514
  344MOL0     C47357   4.785   2.808   6.100 -0.2424  0.1920 -0.7378
  344MOL0     O47358   4.768   2.852   6.234 -0.5205  0.4963  0.0686
  344MOL0     C47359   4.845   2.958   6.269  0.1102 -0.2286  0.6027
  344MOL0     C47360   4.786   3.084   6.297  0.4624  0.1592  0.5496
  344MOL0     C47361   4.866   3.198   6.326  0.3140 -0.0968  0.0688
  344MOL0     C47362   4.805   3.335   6.344 -0.1693 -1.3934  0.3375
  344MOL0     C47363   5.013   3.188   6.327  0.7153  0.1463 -0.4222
  344MOL0     C47364   5.108   3.292   6.349 -0.7842  0.8421 -0.2971
  344MOL0     O47365   5.207   3.265   6.443 -0.1609  0.8406  0.4866
  344MOL0     C47366   5.291   3.368   6.474 -0.1711 -0.5655 -0.3387
  344MOL0     C47367   5.239   3.495   6.529 -0.9860  0.3667  0.0744
  344MOL0     C47368   5.325   3.600   6.560  0.2771 -0.2093  0.6713
  344MOL0     C47369   5.467   3.584   6.545  0.3027 -0.5412  1.3401
  344MOL0     O47370   5.552   3.689   6.563  0.0964  0.8596 -0.1373
  344MOL0     C47371   5.684   3.676   6.617 -0.4870 -0.1033 -1.2233
  344MOL0     C47372   5.749   3.810   6.645 -0.0068 -0.2366  0.5077
  344MOL0     C47373   5.868   3.792   6.736  0.5981 -0.2193 -0.5538
  344MOL0     C47374   6.000   3.802   6.660  0.2375  1.3703  0.0823
  344MOL0     C47375   6.111   3.769   6.758  0.2480  0.7196  0.2883
  344MOL0     C47376   6.254   3.757   6.686  0.8923 -0.3023 -0.6923
  344MOL0     C47377   6.368   3.690   6.777  0.7856 -0.6729 -0.6136
  344MOL0     C47378   6.370   3.538   6.802  0.7895 -0.0252  0.1200
  344MOL0    Cl47379   6.263   3.491   6.929 -0.4968  0.2917 -0.5342
  344MOL0     C47380   5.510   3.466   6.478 -0.4311 -0.0758 -0.4997
  344MOL0     C47381   5.424   3.362   6.447 -0.3231  0.2030 -0.5096
  344MOL0     O47382   5.102   3.391   6.278  0.7711 -0.0852  0.7234
  344MOL0     C47383   5.060   3.056   6.316 -0.7171  0.9244 -0.2936
  344MOL0     C47384   4.983   2.946   6.286  0.4328 -0.2978  0.8436
  344MOL0     N47385   4.535   2.789   5.743  0.3024  0.4075  0.4620
  344MOL0     N47386   4.520   2.796   5.619 -0.1982 -0.0898 -0.1230
  344MOL0     C47387   4.429   2.033   5.227 -0.4047  0.6020 -0.0551
  344MOL0     C47388   4.536   1.972   5.155 -0.0992 -0.2827 -0.3112
  344MOL0     C47389   4.868   1.808   4.930 -0.8085  0.2286 -0.4134
  344MOL0     C47390   4.846   1.779   4.795  0.1347  0.0212 -0.1039
  344MOL0     C47391   4.949   1.739   4.708  0.8463  0.4871  0.2379
  344MOL0     C47392   5.080   1.720   4.754  0.3345  0.1148 -0.4439
  344MOL0     O47393   5.178   1.667   4.667 -0.1860 -0.1480 -0.7996
  344MOL0     C47394   5.308   1.645   4.715  0.1675  0.2236  0.9217
  344MOL0     C47395   5.394   1.548   4.630  0.4913  0.0180  0.2424
  344MOL0     C47396   5.534   1.523   4.689 -0.0031 -0.3768  0.5000
  344MOL0     C47397   5.628   1.464   4.586  0.3751 -0.3758  0.3404
  344MOL0     C47398   5.764   1.423   4.637 -0.7119 -0.5553 -0.1194
  344MOL0     C47399   5.874   1.397   4.680  0.7059  0.9115  0.8358
  344MOL0     C47400   5.102   1.742   4.892 -0.3672  0.5866 -0.2675
  344MOL0     C47401   4.998   1.790   4.980  0.0108  0.5579  0.3603
  344MOL0     C47402   5.043   1.846   5.116 -0.0873 -0.7373  0.5443
  344MOL0     H47403   4.502   2.097   4.851  0.1004  0.3538 -0.0456
  344MOL0     H47404   4.308   2.211   4.957  0.2294  2.3522  0.4050
  344MOL0     H47405   4.366   2.261   5.384  0.3159  0.0046 -1.0798
  344MOL0     H47406   4.226   2.145   5.410  0.1232 -1.0525 -2.0161
  344MOL0     H47407   4.081   2.336   5.332  1.9889 -0.7535 -1.0137
  344MOL0     H47408   4.120   2.318   5.494  0.6484  0.7636  1.3460
  344MOL0     H47409   4.305   2.487   5.451  0.0518 -0.9745  0.4757
  344MOL0     H47410   4.240   2.514   5.281 -2.1475  0.9190  0.0080
  344MOL0     H47411   4.048   2.606   5.354  1.0724 -0.5089 -1.3739
  344MOL0     H47412   4.056   2.540   5.520  0.3192 -0.6663  0.7069
  344MOL0     H47413   4.278   2.659   5.533 -0.3061  2.1314  1.5851
  344MOL0     H47414   4.125   2.749   5.567  1.2912  2.2680 -0.2741
  344MOL0     H47415   4.282   2.770   5.303  0.6262  3.3184 -1.3679
  344MOL0     H47416   4.117   2.825   5.330 -0.2303  0.5344  0.0122
  344MOL0     H47417   4.191   2.970   5.516 -1.1804  1.2659 -0.7494
  344MOL0     H47418   4.223   3.008   5.347 -0.1465  1.3169  0.7006
  344MOL0     H47419   4.460   2.895   5.386  1.0641  0.0839  0.6496
  344MOL0     H47420   4.441   3.054   5.461  0.5154 -0.3443  2.2491
  344MOL0     H47421   4.290   3.008   5.727  0.9290  1.5281  0.2607
  344MOL0     H47422   4.372   2.814   6.000  0.5170 -1.6754  0.8153
  344MOL0     H47423   4.368   2.974   5.977 -2.6995 -1.8277 -2.7759
  344MOL0     H47424   4.640   2.984   5.977  1.5434 -0.9650  1.3191
  344MOL0     H47425   4.546   2.964   6.124  2.1911  2.5227 -0.8226
  344MOL0     H47426   4.593   2.715   6.107 -1.1876 -0.9708  0.1385
  344MOL0     H47427   4.661   2.739   5.946 -1.4603  2.0529 -0.6839
  344MOL0     H47428   4.842   2.715   6.108  2.0592  1.6604  1.3962
  344MOL0     H47429   4.856   2.870   6.045  0.2179 -2.5014 -3.4094
  344MOL0     H47430   4.684   3.118   6.283  1.2463  1.9575 -1.3813
  344MOL0     H47431   4.727   3.337   6.421  0.3976  0.0902  0.9048
  344MOL0     H47432   4.764   3.360   6.245 -2.0636  2.1777  1.8339
  344MOL0     H47433   4.875   3.411   6.380 -0.8015 -1.0517  0.8662
  344MOL0     H47434   5.137   3.504   6.564 -2.1566 -1.5162 -2.5873
  344MOL0     H47435   5.280   3.688   6.604  0.7137  1.4475 -1.9430
  344MOL0     H47436   5.667   3.640   6.719  1.7462  1.9183 -0.0297
  344MOL0     H47437   5.753   3.617   6.555 -1.4491 -0.4950 -1.9545
  344MOL0     H47438   5.779   3.841   6.544  2.1438  1.1923  1.5085
  344MOL0     H47439   5.681   3.885   6.685 -0.3845 -0.5661  0.4947
  344MOL0     H47440   5.853   3.692   6.777  1.5634 -0.4314 -0.7027
  344MOL0     H47441   5.865   3.862   6.820 -0.4027  0.8316 -1.4346
  344MOL0     H47442   6.017   3.904   6.623  1.4010 -0.1119 -3.9749
  344MOL0     H47443   6.014   3.737   6.574 -2.4456  1.3378 -0.4267
  344MOL0     H47444   6.118   3.842   6.839 -2.1564 -1.0355  2.1942
  344MOL0     H47445   6.088   3.672   6.803  0.3536  0.5502 -0.0153
  344MOL0     H47446   6.284   3.854   6.644  2.0709 -1.1543 -1.8741
  344MOL0     H47447   6.244   3.689   6.601 -2.5176 -1.9585  0.8219
  344MOL0     H47448   6.367   3.745   6.871  0.7186 -1.8179  0.0803
  344MOL0     H47449   6.458   3.716   6.720  1.1084 -0.8834 -0.2016
  344MOL0     H47450   6.472   3.507   6.825  1.0257  0.7199  0.0914
  344MOL0     H47451   6.336   3.494   6.707 -0.3978  1.1934 -0.0509
  344MOL0     H47452   5.618   3.468   6.469 -0.0772  1.3983  2.6460
  344MOL0     H47453   5.456   3.268   6.403 -1.4507 -2.0749  3.1047
  344MOL0     H47454   5.167   3.039   6.317 -0.4069  2.6633 -0.1104
  344MOL0     H47455   5.032   2.855   6.251  0.6545  0.1322  0.0209
  344MOL0     H47456   4.418   2.005   5.331 -2.2032  1.5467  0.0560
  344MOL0     H47457   4.598   1.927   5.232  1.2548  1.2421 -0.4560
  344MOL0     H47458   4.753   1.811   4.749 -0.4547  0.6180  1.4444
  344MOL0     H47459   4.922   1.713   4.606 -0.9612 -2.8167  1.4190
  344MOL0     H47460   5.363   1.739   4.727 -0.9164  1.0567 -0.4224
  344MOL0     H47461   5.310   1.599   4.815 -3.7417  0.7042  1.3671
  344MOL0     H47462   5.404   1.582   4.527 -0.7330 -0.8951 -0.1869
  344MOL0     H47463   5.336   1.456   4.619  1.0376 -0.2102 -0.8829
  344MOL0     H47464   5.571   1.619   4.726  1.1667 -1.6149  2.7598
  344MOL0     H47465   5.541   1.446   4.767  4.6334 -1.3418 -0.5919
  344MOL0     H47466   5.636   1.541   4.509  0.0142 -2.8529 -2.3168
  344MOL0     H47467   5.586   1.380   4.530 -0.4325 -0.4327  1.0160
  344MOL0     H47468   5.965   1.365   4.727 -0.5925 -0.3236  2.5827
  344MOL0     H47469   5.186   1.709   4.951 -2.7942 -1.7234  2.1705
  344MOL0     H47470   5.140   1.893   5.099 -0.1036 -1.6514 -3.0559
  344MOL0     H47471   4.971   1.923   5.145 -1.2199 -1.0868 -1.1671
  344MOL0     H47472   5.049   1.770   5.194  2.1274 -1.0170  0.1566
  345MOL0     O47473   3.114   9.442   6.378  0.1764  0.0998 -0.2169
  345MOL0     C47474   3.155   9.339   6.434 -0.1076 -0.5839 -1.2643
  345MOL0     O47475   3.288   9.317   6.476  0.4905 -0.3113 -0.7547
  345MOL0     C47476   3.398   9.406   6.481  1.6215  0.8210 -0.7347
  345MOL0     C47477   3.390   9.545   6.487  0.0371 -0.4413  0.3534
  345MOL0     C47478   3.516   9.612   6.489  0.4550 -0.7354 -0.0340
  345MOL0     C47479   3.640   9.544   6.486  0.8190 -0.1721 -0.0357
  345MOL0     O47480   3.753   9.621   6.481  1.1421 -0.6043  0.1749
  345MOL0     C47481   3.882   9.573   6.430 -0.2889  0.8408 -0.5678
  345MOL0     C47482   3.998   9.626   6.514 -0.0379  0.1328  0.2960
  345MOL0     C47483   3.997   9.582   6.655 -0.2528 -0.1677 -0.3931
  345MOL0     C47484   4.123   9.648   6.729 -0.4944  0.4011  0.2738
  345MOL0     C47485   4.169   9.570   6.851  0.4715  0.0726  0.6620
  345MOL0     C47486   4.304   9.628   6.882 -0.9723  0.5165 -0.1388
  345MOL0     C47487   4.355   9.584   7.031  0.5150 -1.0679 -0.2309
  345MOL0     C47488   4.354   9.435   7.060  0.6274 -0.7051 -0.4320
  345MOL0     N47489   4.459   9.363   6.992 -0.1007 -0.6233 -0.0281
  345MOL0     C47490   4.600   9.356   7.039 -0.9152 -0.7686  0.2254
  345MOL0     C47491   4.644   9.252   6.970 -0.8775  0.2110 -0.2071
  345MOL0     C47492   4.781   9.177   6.992 -0.5977  0.7889 -0.4332
  345MOL0     C47493   4.898   9.218   6.897 -0.1678 -0.3155 -0.4146
  345MOL0     C47494   4.853   9.234   6.750 -0.7675  0.6069  0.8346
  345MOL0     C47495   4.804   9.096   6.689 -1.2150 -0.1016 -0.4008
  345MOL0     O47496   4.917   9.008   6.682 -0.5524  0.0065  0.2867
  345MOL0     C47497   4.895   8.887   6.639  0.1933 -0.5707 -0.5929
  345MOL0     C47498   4.994   8.800   6.680 -0.2089 -0.1950 -0.2994
  345MOL0     C47499   4.976   8.663   6.667 -0.5652  0.5644  0.1837
  345MOL0     C47500   5.093   8.570   6.707 -0.5410 -0.2165 -0.5278
  345MOL0     C47501   4.851   8.611   6.610 -1.0347  0.4566  0.7321
  345MOL0     C47502   4.836   8.469   6.560  0.1730 -0.5159 -0.0409
  345MOL0     O47503   4.769   8.454   6.443  0.5513 -0.4439  0.4978
  345MOL0     C47504   4.741   8.334   6.377 -0.0153  0.1706  0.1060
  345MOL0     C47505   4.627   8.331   6.297 -0.1855  0.5256  0.3959
  345MOL0     C47506   4.608   8.229   6.215 -0.4010  0.1469  0.0399
  345MOL0     C47507   4.692   8.118   6.212  0.2450 -0.2743  0.5892
  345MOL0     O47508   4.668   8.007   6.126 -0.7457 -0.4429  0.5174
  345MOL0     C47509   4.531   7.979   6.112  0.3693  0.0058 -0.1563
  345MOL0     C47510   4.477   8.015   5.978 -0.9382  0.1133  0.2909
  345MOL0     C47511   4.325   7.983   5.979 -0.5052 -0.0058 -0.1402
  345MOL0     C47512   4.254   7.999   5.842 -1.0267 -0.2183 -0.6690
  345MOL0     C47513   4.187   7.876   5.784 -0.1904  1.0771  0.6857
  345MOL0     C47514   4.293   7.768   5.746 -0.4096  0.6377  0.4496
  345MOL0     C47515   4.237   7.670   5.644  1.0455  0.0967 -1.6261
  345MOL0     C47516   4.292   7.533   5.660  0.4476  0.5529  0.3908
  345MOL0    Cl47517   4.441   7.517   5.560  0.0903 -0.0769  0.7558
  345MOL0     C47518   4.807   8.119   6.287  0.2867  0.9230 -0.1063
  345MOL0     C47519   4.833   8.220   6.371 -0.9861 -0.3504 -1.1627
  345MOL0     O47520   4.868   8.380   6.637 -0.7483 -0.3731 -0.0191
  345MOL0     C47521   4.763   8.706   6.557  0.0024 -0.0714 -0.7962
  345MOL0     C47522   4.777   8.843   6.582  1.1050  0.2952  0.8106
  345MOL0     N47523   4.549   9.219   6.872 -0.8925 -0.3349  0.2446
  345MOL0     N47524   4.447   9.272   6.893  0.7307 -0.1497  0.0265
  345MOL0     C47525   3.643   9.403   6.498  0.7058 -0.1281  0.2158
  345MOL0     C47526   3.521   9.341   6.493 -1.4164 -0.1908 -0.2762
  345MOL0     C47527   3.061   9.225   6.458  0.0202  0.5529 -0.6347
  345MOL0     C47528   3.108   9.092   6.492  0.0189 -0.7913  0.2995
  345MOL0     C47529   3.025   8.983   6.500 -0.3925  0.0770  0.2732
  345MOL0     C47530   2.892   8.998   6.476  1.5179  0.0677 -0.9343
  345MOL0     O47531   2.790   8.908   6.494 -0.0500 -0.3972  1.1441
  345MOL0     C47532   2.771   8.856   6.625  1.2847  0.3165 -0.9294
  345MOL0     C47533   2.671   8.930   6.707  0.1637 -0.0971  0.4633
  345MOL0     C47534   2.727   9.040   6.798  0.4867 -1.0044  0.7559
  345MOL0     C47535   2.606   9.124   6.862 -0.3732  0.8785  0.6899
  345MOL0     C47536   2.661   9.238   6.933 -0.1799 -0.2171  0.6868
  345MOL0     C47537   2.706   9.343   6.983  0.6235 -0.3232 -0.4063
  345MOL0     C47538   2.848   9.118   6.425  1.0715 -0.4877  0.4005
  345MOL0     C47539   2.925   9.232   6.423  0.0166 -0.2975 -0.8055
  345MOL0     C47540   2.857   9.360   6.399  0.8554  0.1415 -1.4263
  345MOL0     H47541   3.302   9.608   6.497 -0.9735 -1.7229 -0.1531
  345MOL0     H47542   3.522   9.720   6.500 -1.7619 -0.7636  2.5086
  345MOL0     H47543   3.891   9.608   6.327  0.9969 -1.1144 -1.1787
  345MOL0     H47544   3.881   9.464   6.437 -1.3947  0.9115  4.1252
  345MOL0     H47545   4.090   9.589   6.468  0.0552  0.3122  0.3417
  345MOL0     H47546   3.994   9.733   6.496 -1.2924 -0.5910 -6.5138
  345MOL0     H47547   3.903   9.623   6.696 -1.3202  0.9275 -3.6523
  345MOL0     H47548   4.005   9.473   6.659  0.1336 -0.1507 -0.6751
  345MOL0     H47549   4.209   9.652   6.663 -1.1331 -0.1282 -0.6061
  345MOL0     H47550   4.090   9.750   6.754  0.6252  1.1798 -1.2793
  345MOL0     H47551   4.174   9.462   6.832 -1.1064 -0.1546  1.4084
  345MOL0     H47552   4.099   9.601   6.929 -0.2808  1.2280 -0.4303
  345MOL0     H47553   4.379   9.591   6.812 -0.8696  1.5440 -0.5902
  345MOL0     H47554   4.306   9.737   6.873  0.1010  0.3949 -1.8021
  345MOL0     H47555   4.285   9.633   7.099 -0.9216 -0.9774 -1.7195
  345MOL0     H47556   4.454   9.628   7.051  2.0067 -4.2451 -0.0230
  345MOL0     H47557   4.355   9.420   7.168  0.0340 -1.8629 -0.5669
  345MOL0     H47558   4.264   9.385   7.021 -2.0519  1.7770  2.0741
  345MOL0     H47559   4.650   9.413   7.118  3.2423 -2.9904 -0.5307
  345MOL0     H47560   4.764   9.068   6.987 -0.4861  0.6107  1.9844
  345MOL0     H47561   4.820   9.177   7.094 -1.1935 -2.2242 -0.0952
  345MOL0     H47562   4.935   9.317   6.925 -2.1858  0.4201 -0.1910
  345MOL0     H47563   4.979   9.145   6.902 -0.6585 -0.8394  4.4037
  345MOL0     H47564   4.782   9.316   6.734  1.2435  2.1643 -0.7334
  345MOL0     H47565   4.947   9.264   6.704 -0.8872  0.2361  0.3405
  345MOL0     H47566   4.719   9.061   6.748 -0.7143  1.4014  1.2588
  345MOL0     H47567   4.776   9.114   6.584  0.0611 -0.8115 -0.8832
  345MOL0     H47568   5.086   8.846   6.714  0.7732 -2.2166 -0.0592
  345MOL0     H47569   5.153   8.551   6.618  2.8778  2.2928  1.0249
  345MOL0     H47570   5.046   8.478   6.744 -1.7471 -0.0124 -1.4887
  345MOL0     H47571   5.163   8.601   6.785  0.1446 -1.3145 -0.6907
  345MOL0     H47572   4.565   8.420   6.298 -0.8141  0.1335 -1.1511
  345MOL0     H47573   4.545   8.239   6.127  0.0402  2.7051 -0.0590
  345MOL0     H47574   4.523   7.871   6.127 -0.5240 -0.2630 -2.3154
  345MOL0     H47575   4.477   8.030   6.192  1.6983  1.6745 -0.2628
  345MOL0     H47576   4.492   8.122   5.961 -3.5071  0.3788 -0.7746
  345MOL0     H47577   4.522   7.958   5.896 -0.1707  1.3925 -0.2180
  345MOL0     H47578   4.285   8.045   6.060 -1.0587 -3.5559  2.5580
  345MOL0     H47579   4.322   7.877   6.005 -0.3138 -0.3264 -1.3770
  345MOL0     H47580   4.336   8.029   5.776  0.8566 -1.5955  0.9269
  345MOL0     H47581   4.170   8.068   5.849 -0.6973  0.1078  0.1753
  345MOL0     H47582   4.119   7.819   5.848  0.1212 -3.0630 -2.2651
  345MOL0     H47583   4.126   7.915   5.701  0.4217  1.4547  0.4027
  345MOL0     H47584   4.324   7.710   5.833  4.1756 -0.9290 -1.9295
  345MOL0     H47585   4.384   7.813   5.706 -1.1984 -0.1550 -2.4413
  345MOL0     H47586   4.237   7.684   5.535 -1.8997  0.0738 -1.7078
  345MOL0     H47587   4.129   7.665   5.658  0.7202  2.8563 -2.4638
  345MOL0     H47588   4.211   7.478   5.612  1.4249 -1.9305  1.3919
  345MOL0     H47589   4.300   7.488   5.759 -2.0930 -0.8747  0.0398
  345MOL0     H47590   4.886   8.049   6.265  0.9922  1.3033  1.1489
  345MOL0     H47591   4.931   8.219   6.417  0.1946  0.1274 -3.5432
  345MOL0     H47592   4.672   8.664   6.515  0.2218 -0.8571 -0.4906
  345MOL0     H47593   4.704   8.914   6.544  2.7419  2.3214  1.2601
  345MOL0     H47594   3.726   9.334   6.502 -0.1058 -1.0986  0.7263
  345MOL0     H47595   3.523   9.232   6.491  3.2489 -0.2884 -1.2103
  345MOL0     H47596   3.214   9.076   6.508  0.3711  1.0054  0.0258
  345MOL0     H47597   3.060   8.883   6.524 -1.4470 -0.8643 -1.8278
  345MOL0     H47598   2.746   8.749   6.632 -0.4251  0.8067  2.7590
  345MOL0     H47599   2.868   8.860   6.676  1.1273  0.7680 -0.6668
  345MOL0     H47600   2.619   8.856   6.768 -0.0589  0.8481  1.4423
  345MOL0     H47601   2.594   8.973   6.641 -0.8973 -1.6361  0.6677
  345MOL0     H47602   2.792   8.990   6.870  0.6901  0.5461  1.6850
  345MOL0     H47603   2.788   9.111   6.742 -1.6999 -0.4980 -1.1897
  345MOL0     H47604   2.540   9.079   6.937 -2.7354 -1.9393 -2.6972
  345MOL0     H47605   2.546   9.163   6.779  0.3991 -1.9262 -1.3462
  345MOL0     H47606   2.739   9.437   7.024  0.2251 -0.8681  1.2453
  345MOL0     H47607   2.751   9.125   6.375  2.7927  2.1728 -3.0175
  345MOL0     H47608   2.885   9.440   6.468 -3.7938 -0.0684  1.0844
  345MOL0     H47609   2.863   9.394   6.295 -0.7451 -0.5214 -1.7681
  345MOL0     H47610   2.752   9.342   6.424  1.7915 -3.7712  0.5422
  346MOL0     O47611   2.598   4.864   9.303 -0.8832 -0.3686  0.8592
  346MOL0     C47612   2.595   4.739   9.287  0.7273  0.2819  0.3972
  346MOL0     O47613   2.645   4.643   9.366  0.1449 -0.3191  0.6059
  346MOL0     C47614   2.673   4.663   9.496  0.2123 -0.0106  0.0440
  346MOL0     C47615   2.727   4.775   9.552  0.0086  0.4382 -0.3868
  346MOL0     C47616   2.780   4.768   9.676  0.2903 -0.3025 -0.0887
  346MOL0     C47617   2.760   4.647   9.752 -0.1448 -0.1265 -0.0479
  346MOL0     O47618   2.810   4.640   9.880 -0.0780  0.4591  0.0334
  346MOL0     C47619   2.946   4.688   9.887 -0.5104 -0.4302  0.3316
  346MOL0     C47620   3.013   4.632  10.014 -0.1471  0.1587  0.4614
  346MOL0     C47621   2.967   4.689  10.148  0.5273  0.0172  0.3475
  346MOL0     C47622   3.041   4.596  10.251  0.0455  0.1862 -0.0274
  346MOL0     C47623   2.952   4.575  10.385 -1.0018  0.0438  0.3766
  346MOL0     C47624   3.039   4.503  10.495  0.7372  0.2118  0.1029
  346MOL0     C47625   3.117   4.604  10.586  0.1167 -0.3890  0.2399
  346MOL0     C47626   3.163   4.554  10.723 -0.5456 -0.0034  0.1000
  346MOL0     N47627   3.244   4.656  10.802 -0.4917  0.2796  0.3745
  346MOL0     C47628   3.219   4.787  10.825 -0.0722  0.4059 -0.0140
  346MOL0     C47629   3.315   4.825  10.912 -0.3773  0.1625 -0.0984
  346MOL0     C47630   3.309   4.970  10.957 -0.2483  0.0429  0.0831
  346MOL0     C47631   3.447   5.036  10.933  0.3218  0.1877  0.6284
  346MOL0     C47632   3.528   5.033  11.067  0.0164  0.1626 -0.3751
  346MOL0     C47633   3.680   5.048  11.050 -0.1388  1.1568  1.4401
  346MOL0     O47634   3.741   4.925  11.013 -0.4436  0.3595  0.0677
  346MOL0     C47635   3.869   4.920  10.974 -0.5986 -1.0580 -0.9988
  346MOL0     C47636   3.903   4.808  10.907 -0.4355 -0.7636 -0.8934
  346MOL0     C47637   4.036   4.799  10.857 -0.7663  0.8297  0.4233
  346MOL0     C47638   4.063   4.674  10.764  0.6397 -0.3872  0.1731
  346MOL0     C47639   4.133   4.905  10.867  0.1409  0.5824 -0.3430
  346MOL0     C47640   4.270   4.907  10.803 -0.6790  0.1857  0.5533
  346MOL0     O47641   4.350   5.014  10.839 -0.1720  0.1112 -0.0112
  346MOL0     C47642   4.453   5.038  10.744  0.7500  0.0043  0.2104
  346MOL0     C47643   4.420   5.123  10.640 -0.0710  0.3642  0.5367
  346MOL0     C47644   4.521   5.142  10.542 -0.1302 -0.0331 -0.4795
  346MOL0     C47645   4.644   5.072  10.541 -1.1921  0.1797 -0.1952
  346MOL0     O47646   4.750   5.062  10.453  0.2517 -1.1129  0.3652
  346MOL0     C47647   4.779   5.181  10.380  0.2040  0.0251  0.3203
  346MOL0     C47648   4.878   5.273  10.449 -1.2898 -0.2052  0.1754
  346MOL0     C47649   5.015   5.200  10.472 -0.7012  0.9277 -0.1901
  346MOL0     C47650   5.098   5.242  10.591  0.3668 -0.4005  0.7635
  346MOL0     C47651   5.028   5.206  10.725  1.3554 -0.3766  0.0098
  346MOL0     C47652   5.087   5.280  10.841 -0.2467  0.2286 -0.2380
  346MOL0     C47653   5.063   5.212  10.979  0.1687 -0.5371 -0.0383
  346MOL0     C47654   4.926   5.236  11.031 -0.1312  0.7984  0.0177
  346MOL0    Cl47655   4.915   5.416  11.061 -0.2546 -0.0199  0.3308
  346MOL0     C47656   4.669   4.993  10.652 -0.1232  0.1661 -0.5327
  346MOL0     C47657   4.573   4.967  10.756  0.5660  0.4286  0.6872
  346MOL0     O47658   4.304   4.818  10.725  0.3416  0.0196 -0.1443
  346MOL0     C47659   4.091   5.005  10.955 -0.9061  0.4937 -0.3159
  346MOL0     C47660   3.964   5.021  10.996  0.6129 -0.3398  0.3812
  346MOL0     N47661   3.408   4.725  10.938  0.3553  0.0134  0.4664
  346MOL0     N47662   3.351   4.623  10.883 -0.2251 -0.2090 -0.2010
  346MOL0     C47663   2.690   4.543   9.705 -0.7061  0.2636 -0.3502
  346MOL0     C47664   2.650   4.544   9.571 -0.1045 -0.1951 -1.1168
  346MOL0     C47665   2.531   4.698   9.158  0.6199  0.1277 -0.3477
  346MOL0     C47666   2.568   4.585   9.097  0.1295 -0.0465  0.4255
  346MOL0     C47667   2.526   4.547   8.970  0.9339 -0.6762 -0.2214
  346MOL0     C47668   2.433   4.618   8.908 -0.4463  0.4633  0.3105
  346MOL0     O47669   2.397   4.576   8.788 -0.0468 -0.0319 -0.3775
  346MOL0     C47670   2.270   4.509   8.787  0.1163 -0.4297 -0.5472
  346MOL0     C47671   2.285   4.394   8.684 -0.0140  0.3644  0.1456
  346MOL0     C47672   2.310   4.252   8.733  0.3755 -0.1341  0.3878
  346MOL0     C47673   2.434   4.241   8.819 -0.4819  0.0890  0.7111
  346MOL0     C47674   2.472   4.099   8.821 -0.3928  0.8690 -0.4191
  346MOL0     C47675   2.497   3.978   8.819  0.3323 -0.2724  0.4674
  346MOL0     C47676   2.382   4.735   8.963 -0.5034 -0.2830  0.3346
  346MOL0     C47677   2.428   4.770   9.089 -0.2202  1.0453  0.0598
  346MOL0     C47678   2.361   4.893   9.149  1.3574  0.6475  1.5350
  346MOL0     H47679   2.729   4.868   9.495  2.0575  0.1897 -0.7790
  346MOL0     H47680   2.828   4.855   9.720  1.7356 -0.6623 -0.9042
  346MOL0     H47681   2.937   4.796   9.901 -1.5550 -0.8102  3.0147
  346MOL0     H47682   3.011   4.663   9.802 -0.1750  1.4885 -0.0059
  346MOL0     H47683   2.999   4.524  10.002 -1.1292  0.3498 -0.2479
  346MOL0     H47684   3.120   4.651  10.010 -0.3002  0.8035 -1.6113
  346MOL0     H47685   3.003   4.791  10.165  0.1009  0.0988  0.7891
  346MOL0     H47686   2.858   4.685  10.147  0.5551 -1.6397  0.2267
  346MOL0     H47687   3.059   4.492  10.224  0.1475  0.5229 -1.3254
  346MOL0     H47688   3.131   4.651  10.280  0.8154 -0.9348 -0.2454
  346MOL0     H47689   2.870   4.507  10.359 -0.7155  0.0899 -0.7043
  346MOL0     H47690   2.914   4.672  10.419  1.9985  1.0006  1.2657
  346MOL0     H47691   2.957   4.463  10.556 -0.2413  4.4606  1.9433
  346MOL0     H47692   3.110   4.439  10.441 -1.4556 -0.6370 -1.9824
  346MOL0     H47693   3.045   4.686  10.599 -0.8606 -1.1931  0.0026
  346MOL0     H47694   3.204   4.641  10.531 -0.7637  1.2681 -0.1167
  346MOL0     H47695   3.073   4.513  10.770  0.4712 -3.7754 -0.9411
  346MOL0     H47696   3.233   4.471  10.716 -2.4368 -1.7829  1.0372
  346MOL0     H47697   3.158   4.857  10.769  1.2973  0.6261 -1.2816
  346MOL0     H47698   3.283   4.964  11.063  0.8206 -3.0700  0.2687
  346MOL0     H47699   3.226   5.021  10.907 -2.7469 -0.6626  3.1983
  346MOL0     H47700   3.491   4.988  10.846 -1.8712 -0.9784  0.0964
  346MOL0     H47701   3.415   5.138  10.911  1.2277  0.3970  0.2802
  346MOL0     H47702   3.495   5.113  11.134 -0.2958 -0.3672  0.1164
  346MOL0     H47703   3.500   4.942  11.122  1.3761 -1.1473 -1.7876
  346MOL0     H47704   3.684   5.125  10.973  0.5425 -0.3334 -0.0718
  346MOL0     H47705   3.722   5.078  11.147 -0.7338  0.7813  1.8256
  346MOL0     H47706   3.834   4.728  10.885 -0.1988 -0.2629 -3.8919
  346MOL0     H47707   4.092   4.703  10.663  1.6330 -0.7841  0.3416
  346MOL0     H47708   3.970   4.616  10.761  1.3718 -1.6189 -3.6971
  346MOL0     H47709   4.147   4.610  10.788 -0.7502 -2.0850  0.7097
  346MOL0     H47710   4.330   5.183  10.641  1.2351  2.4107  0.7906
  346MOL0     H47711   4.490   5.213  10.466  2.0323  3.1477  1.3633
  346MOL0     H47712   4.833   5.166  10.286  1.7933  1.3948  0.9424
  346MOL0     H47713   4.683   5.227  10.357  0.0120 -1.2980 -1.8053
  346MOL0     H47714   4.882   5.367  10.395  1.1658 -1.1975 -1.5376
  346MOL0     H47715   4.834   5.298  10.546 -1.8271  0.6649 -0.2852
  346MOL0     H47716   5.077   5.222  10.385 -0.5484  0.6021 -0.1615
  346MOL0     H47717   4.999   5.092  10.473  0.2119  0.6751  3.5924
  346MOL0     H47718   5.109   5.351  10.588 -1.9384 -0.0733  1.5976
  346MOL0     H47719   5.194   5.190  10.587  0.6942  0.2134  0.4554
  346MOL0     H47720   4.923   5.236  10.722  1.9635  1.9440 -0.4272
  346MOL0     H47721   5.021   5.097  10.734 -0.1065 -0.2429  0.7847
  346MOL0     H47722   5.067   5.388  10.832 -0.2920  0.2150 -0.3051
  346MOL0     H47723   5.195   5.274  10.825 -0.0506 -2.3316  1.5244
  346MOL0     H47724   5.133   5.242  11.058 -1.5045 -1.4444  1.8926
  346MOL0     H47725   5.063   5.105  10.957 -1.3423 -0.1741 -2.0348
  346MOL0     H47726   4.904   5.175  11.119 -1.6344  0.4317 -0.5884
  346MOL0     H47727   4.857   5.198  10.956  1.6171 -0.4226 -1.0539
  346MOL0     H47728   4.760   4.934  10.656 -0.4718 -0.4544 -1.4066
  346MOL0     H47729   4.590   4.900  10.840  0.3835  2.2705  2.2779
  346MOL0     H47730   4.165   5.083  10.968 -0.3270 -0.1481  0.2992
  346MOL0     H47731   3.938   5.113  11.047  2.3568 -0.6336  1.9067
  346MOL0     H47732   2.684   4.446   9.752  0.4249  0.0731 -0.5749
  346MOL0     H47733   2.597   4.459   9.529  0.3121  0.3023 -2.6982
  346MOL0     H47734   2.646   4.522   9.139 -0.8058 -2.0948 -0.7616
  346MOL0     H47735   2.569   4.459   8.923  0.3320  0.0797 -2.2982
  346MOL0     H47736   2.231   4.466   8.879 -3.5606 -0.6070 -2.0413
  346MOL0     H47737   2.197   4.573   8.737 -1.4289 -3.5725 -2.6239
  346MOL0     H47738   2.368   4.427   8.621  0.0877 -1.1771 -0.5540
  346MOL0     H47739   2.198   4.381   8.619  0.5082 -2.1966 -0.1238
  346MOL0     H47740   2.220   4.214   8.783  0.2298  0.8220  0.8757
  346MOL0     H47741   2.326   4.190   8.645  2.8234  2.1216 -0.9118
  346MOL0     H47742   2.404   4.268   8.921  1.2316 -7.4700  3.8494
  346MOL0     H47743   2.516   4.300   8.778  0.3423  0.4720  2.8039
  346MOL0     H47744   2.517   3.873   8.821 -3.2601 -1.1193  3.8655
  346MOL0     H47745   2.304   4.788   8.909 -1.7002 -1.7114  0.5673
  346MOL0     H47746   2.264   4.910   9.103  1.0369  1.0612  2.3465
  346MOL0     H47747   2.340   4.885   9.256 -0.0982 -0.5394  1.2036
  346MOL0     H47748   2.418   4.986   9.146  0.8142  1.0280  2.5586
  347MOL0     O47749   8.134   4.801  11.113 -0.6671  0.1512 -0.6608
  347MOL0     C47750   8.111   4.805  10.993  0.8188 -1.3709  0.0040
  347MOL0     O47751   8.089   4.925  10.925 -0.0358 -0.0163  1.0649
  347MOL0     C47752   8.080   5.042  11.004 -0.4796 -0.4502 -0.7965
  347MOL0     C47753   8.171   5.148  10.983  0.2518  1.1144 -0.1149
  347MOL0     C47754   8.168   5.265  11.053  0.5352 -0.5794 -0.3652
  347MOL0     C47755   8.074   5.279  11.157 -1.2487  0.4118  0.1038
  347MOL0     O47756   8.061   5.394  11.236 -0.8577 -0.1840  0.3396
  347MOL0     C47757   8.180   5.444  11.309  1.0605 -0.1909  0.6150
  347MOL0     C47758   8.146   5.448  11.458 -0.8040 -0.2247 -0.7837
  347MOL0     C47759   8.029   5.540  11.479  0.9135 -0.0992 -0.4713
  347MOL0     C47760   8.063   5.688  11.460  0.5450 -0.1492 -0.0200
  347MOL0     C47761   7.972   5.769  11.551  1.0116 -1.4131 -0.2118
  347MOL0     C47762   7.823   5.736  11.546 -0.5163 -0.1725 -0.0505
  347MOL0     C47763   7.742   5.863  11.530  0.2573  0.4378 -0.4498
  347MOL0     C47764   7.591   5.846  11.530  1.0692 -0.4438  0.3183
  347MOL0     N47765   7.531   5.881  11.661 -0.0201 -0.4713 -0.3021
  347MOL0     C47766   7.538   5.822  11.781 -1.1724  0.6057  0.5443
  347MOL0     C47767   7.477   5.911  11.859 -0.1009  0.3404  0.5067
  347MOL0     C47768   7.481   5.897  12.009 -0.0651 -0.3456 -0.5554
  347MOL0     C47769   7.544   6.030  12.067  0.3827  0.9302  0.3663
  347MOL0     C47770   7.698   6.046  12.041  0.0861 -0.0229 -0.2404
  347MOL0     C47771   7.775   5.953  12.137  0.6407 -0.8148  0.2617
  347MOL0     O47772   7.915   5.980  12.124 -0.1268 -0.7955 -0.8249
  347MOL0     C47773   8.000   5.927  12.214  0.0716  0.4206 -0.0798
  347MOL0     C47774   7.964   5.852  12.330  0.1084  0.9338  0.1001
  347MOL0     C47775   8.053   5.797  12.421 -0.9669 -0.3292 -0.3160
  347MOL0     C47776   8.001   5.729  12.547 -0.0063  0.6449  0.6771
  347MOL0     C47777   8.198   5.804  12.388 -0.4926 -0.2922  0.3316
  347MOL0     C47778   8.310   5.755  12.468 -1.3797  0.7047 -0.0371
  347MOL0     O47779   8.279   5.687  12.582 -0.8187  0.0562 -0.3219
  347MOL0     C47780   8.365   5.664  12.690 -0.7534  0.8647  0.1550
  347MOL0     C47781   8.464   5.758  12.724 -0.0121 -0.0459 -0.4303
  347MOL0     C47782   8.551   5.744  12.835 -0.1857 -0.5792 -0.0541
  347MOL0     C47783   8.545   5.625  12.909  0.7049  0.5743  0.6955
  347MOL0     O47784   8.611   5.595  13.032 -0.3161  0.1740 -0.2004
  347MOL0     C47785   8.684   5.709  13.085 -0.7503  1.0249  0.0676
  347MOL0     C47786   8.684   5.687  13.238 -0.0572  0.1895  0.0530
  347MOL0     C47787   8.803   5.763  13.300  0.4886  0.4350  0.4526
  347MOL0     C47788   8.806   5.723  13.451  0.2969 -0.6101 -0.7240
  347MOL0     C47789   8.715   5.814  13.545 -0.3653  0.1657 -0.5470
  347MOL0     C47790   8.712   5.781  13.696 -0.5494 -0.6735 -0.6434
  347MOL0     C47791   8.855   5.787  13.751 -0.6540 -0.0887 -0.6821
  347MOL0     C47792   8.842   5.768  13.907  0.6522  0.2302 -0.0784
  347MOL0    Cl47793   8.841   5.591  13.941 -0.3106 -0.3962  0.1007
  347MOL0     C47794   8.440   5.528  12.878 -0.5196  0.3392 -1.0196
  347MOL0     C47795   8.352   5.551  12.777 -0.5472 -0.7259  0.7732
  347MOL0     O47796   8.428   5.787  12.432  0.1466 -0.5813 -0.5180
  347MOL0     C47797   8.232   5.883  12.273  0.0841  0.2561 -0.2210
  347MOL0     C47798   8.134   5.937  12.193 -0.4375  0.7363 -1.0320
  347MOL0     N47799   7.423   6.013  11.796  0.4737 -0.1299  0.1824
  347MOL0     N47800   7.468   5.998  11.673  0.3625 -0.5693 -0.1355
  347MOL0     C47801   7.977   5.182  11.174 -0.1174  0.6207 -0.0471
  347MOL0     C47802   7.975   5.068  11.095  0.4923  0.8475 -0.1341
  347MOL0     C47803   8.123   4.686  10.917  0.2727  0.2947  0.4883
  347MOL0     C47804   8.178   4.697  10.795  0.5054  1.3182  0.6449
  347MOL0     C47805   8.202   4.580  10.717 -0.6409 -0.2242 -0.5338
  347MOL0     C47806   8.159   4.454  10.766  0.1706 -0.8820 -0.4791
  347MOL0     O47807   8.185   4.336  10.716 -0.2340  0.0586 -0.6313
  347MOL0     C47808   8.220   4.336  10.579 -0.7951 -0.5359  0.6169
  347MOL0     C47809   8.098   4.379  10.496  0.7596 -0.4002  0.1828
  347MOL0     C47810   7.973   4.294  10.519  0.6283  0.7076 -0.4068
  347MOL0     C47811   7.853   4.342  10.429 -0.5593  0.0619 -0.5852
  347MOL0     C47812   7.769   4.448  10.484 -0.6620 -0.6158  0.2848
  347MOL0     C47813   7.715   4.543  10.529 -0.4146  0.4175 -0.1513
  347MOL0     C47814   8.092   4.443  10.884 -0.0880 -0.0858 -0.2132
  347MOL0     C47815   8.080   4.557  10.965 -0.2578  0.1033  0.3940
  347MOL0     C47816   8.019   4.520  11.100 -0.0411 -0.2539  0.4003
  347MOL0     H47817   8.245   5.142  10.903  2.0798  3.2690  1.2959
  347MOL0     H47818   8.243   5.341  11.035  2.6962 -2.0446  1.7990
  347MOL0     H47819   8.212   5.542  11.274  1.3316 -1.1897 -2.2440
  347MOL0     H47820   8.269   5.384  11.288  0.9807 -0.5065  1.1727
  347MOL0     H47821   8.126   5.346  11.493 -1.4553  0.3991  0.7903
  347MOL0     H47822   8.236   5.484  11.509 -0.6593  1.7412 -2.2927
  347MOL0     H47823   7.940   5.502  11.427  0.1014  0.8792  0.1769
  347MOL0     H47824   8.000   5.520  11.582 -0.6533  1.3768 -0.5908
  347MOL0     H47825   8.167   5.713  11.479  0.3296  1.3127 -0.6942
  347MOL0     H47826   8.046   5.712  11.355  1.6148  0.5082 -0.0483
  347MOL0     H47827   8.004   5.868  11.515  1.8977 -2.0443 -1.2073
  347MOL0     H47828   8.005   5.759  11.655 -2.9267  2.7721  1.8031
  347MOL0     H47829   7.807   5.674  11.457 -0.6350 -0.7638  0.3865
  347MOL0     H47830   7.792   5.692  11.641  0.0528  1.1075  0.7540
  347MOL0     H47831   7.769   5.917  11.439  2.1803  0.1867 -0.0595
  347MOL0     H47832   7.767   5.937  11.606 -1.6366 -0.6091  1.3154
  347MOL0     H47833   7.550   5.919  11.461 -1.7840  0.4217  2.7151
  347MOL0     H47834   7.547   5.748  11.509 -2.7185  0.9891  0.7609
  347MOL0     H47835   7.573   5.725  11.816  1.6675  1.4200  0.1430
  347MOL0     H47836   7.531   5.807  12.046 -3.2841 -1.6366  1.0319
  347MOL0     H47837   7.383   5.886  12.056  1.5231 -1.0059  2.9237
  347MOL0     H47838   7.489   6.116  12.028 -0.9566 -0.0329  0.0628
  347MOL0     H47839   7.526   6.028  12.175 -1.7371  0.7923  0.0481
  347MOL0     H47840   7.731   6.029  11.939  0.6678 -1.7121  0.1992
  347MOL0     H47841   7.734   6.149  12.057  1.4823 -0.0418 -2.7280
  347MOL0     H47842   7.737   5.969  12.239  1.2000  0.8696  0.2326
  347MOL0     H47843   7.763   5.847  12.110  2.5164 -0.6146 -1.5770
  347MOL0     H47844   7.859   5.847  12.359  0.4603 -2.7481  1.2575
  347MOL0     H47845   8.026   5.623  12.546  3.7935  1.3687 -1.5080
  347MOL0     H47846   7.893   5.742  12.560 -0.4550 -2.4673  0.8049
  347MOL0     H47847   8.058   5.763  12.634  0.5844 -2.3799  1.5933
  347MOL0     H47848   8.465   5.846  12.660  0.4894  1.2312  1.2668
  347MOL0     H47849   8.614   5.830  12.855 -1.5933  0.0277  2.1038
  347MOL0     H47850   8.782   5.711  13.037 -1.1165 -1.0955 -0.8837
  347MOL0     H47851   8.640   5.808  13.070 -1.3261  0.7649  0.0247
  347MOL0     H47852   8.589   5.717  13.284 -0.7149 -0.7494 -0.6740
  347MOL0     H47853   8.700   5.580  13.252 -0.1142 -0.0886 -1.8269
  347MOL0     H47854   8.788   5.871  13.288 -1.9118 -0.1337 -4.8541
  347MOL0     H47855   8.896   5.744  13.246 -0.0780  0.1897 -0.4598
  347MOL0     H47856   8.907   5.720  13.493  0.3622  2.3426 -0.4553
  347MOL0     H47857   8.772   5.621  13.471  0.8116 -0.1780  3.1971
  347MOL0     H47858   8.752   5.916  13.530  2.8888 -0.0612  3.9573
  347MOL0     H47859   8.615   5.798  13.503  0.5209 -2.9950 -1.6902
  347MOL0     H47860   8.675   5.678  13.704  0.1388 -0.8925 -0.1385
  347MOL0     H47861   8.657   5.859  13.751 -1.6942 -2.7602  1.3662
  347MOL0     H47862   8.889   5.889  13.732  2.8051 -0.4484  2.5233
  347MOL0     H47863   8.920   5.708  13.713 -3.0134 -2.5487  0.0304
  347MOL0     H47864   8.764   5.824  13.957  2.1730  0.8644  1.7147
  347MOL0     H47865   8.931   5.808  13.957  1.8603 -0.2344 -1.7552
  347MOL0     H47866   8.429   5.432  12.929 -1.4177  1.5438  1.1854
  347MOL0     H47867   8.270   5.483  12.753 -1.6903  0.6794  0.5288
  347MOL0     H47868   8.336   5.902  12.248  0.5373 -2.5174 -0.7864
  347MOL0     H47869   8.172   5.992  12.107  2.1515 -1.4650 -1.4244
  347MOL0     H47870   7.910   5.193  11.259  2.4062 -0.1076  2.1810
  347MOL0     H47871   7.903   4.991  11.123 -0.0385  1.8103  1.2690
  347MOL0     H47872   8.198   4.794  10.752 -0.7345  0.7910 -1.2701
  347MOL0     H47873   8.250   4.601  10.622 -2.4908 -2.1751 -1.9855
  347MOL0     H47874   8.298   4.404  10.546 -0.1961 -1.0544  0.9304
  347MOL0     H47875   8.246   4.234  10.549  0.9277  0.7231 -2.6743
  347MOL0     H47876   8.115   4.365  10.389  0.2904  1.9781 -0.2687
  347MOL0     H47877   8.079   4.486  10.511 -0.3972 -0.7566  1.5067
  347MOL0     H47878   7.995   4.189  10.498  0.4265  0.6728 -0.4414
  347MOL0     H47879   7.934   4.301  10.621  2.1003  1.6816  0.1313
  347MOL0     H47880   7.803   4.246  10.411  3.4259 -2.6096  1.1419
  347MOL0     H47881   7.883   4.377  10.329  1.0341  1.0045  0.1798
  347MOL0     H47882   7.677   4.636  10.567 -1.2895  0.2157 -0.5096
  347MOL0     H47883   8.052   4.347  10.913  2.9851 -2.1612 -2.1328
  347MOL0     H47884   7.965   4.608  11.137  0.0444 -0.7629  1.7801
  347MOL0     H47885   7.950   4.435  11.098 -0.4265 -0.0312  2.3518
  347MOL0     H47886   8.107   4.508  11.164 -0.0998 -2.3716  0.1729
  348MOL0     O47887   5.946   2.211   4.886 -0.8656  0.2314  0.4459
  348MOL0     C47888   6.025   2.142   4.813 -0.4352 -0.6176  0.3778
  348MOL0     O47889   6.038   2.153   4.681 -1.6559  0.7373 -0.1290
  348MOL0     C47890   6.009   2.265   4.611 -0.3722 -0.3467 -0.0348
  348MOL0     C47891   5.983   2.254   4.475 -0.0582  0.2174 -0.2473
  348MOL0     C47892   5.990   2.357   4.387 -0.1055 -0.2738 -1.3177
  348MOL0     C47893   6.001   2.482   4.441 -0.7456 -0.3190  0.3727
  348MOL0     O47894   5.986   2.581   4.351  0.1976 -0.3360  0.1881
  348MOL0     C47895   5.899   2.687   4.378  0.4276 -0.2904 -0.5561
  348MOL0     C47896   5.946   2.804   4.291  0.2649  0.0213  0.3287
  348MOL0     C47897   5.871   2.937   4.320  1.0676  0.3911 -0.3726
  348MOL0     C47898   5.935   3.053   4.254  1.0748 -1.1470 -0.0528
  348MOL0     C47899   5.849   3.178   4.259 -0.0800 -1.0851 -0.5992
  348MOL0     C47900   5.906   3.302   4.180  0.7075 -0.3038  0.2643
  348MOL0     C47901   5.792   3.401   4.145 -0.2678  0.2795 -0.2512
  348MOL0     C47902   5.840   3.493   4.029  0.2392 -0.4585  0.0837
  348MOL0     N47903   5.754   3.602   4.015 -0.1530 -0.9445 -1.1095
  348MOL0     C47904   5.734   3.707   4.105 -0.4455  0.3340 -0.8458
  348MOL0     C47905   5.633   3.782   4.060  0.2223  0.7790  0.0664
  348MOL0     C47906   5.564   3.896   4.125 -0.2562 -0.8322 -0.3384
  348MOL0     C47907   5.524   3.881   4.278  0.6395  0.0731 -0.8804
  348MOL0     C47908   5.436   4.007   4.312  0.5666 -0.5490 -0.2153
  348MOL0     C47909   5.390   4.004   4.460  0.3589 -0.2082  0.5260
  348MOL0     O47910   5.356   4.132   4.509  0.5037 -0.1637 -0.1144
  348MOL0     C47911   5.239   4.192   4.482  0.8768  0.1137  0.2352
  348MOL0     C47912   5.155   4.163   4.373 -0.1804 -0.7412 -0.3196
  348MOL0     C47913   5.057   4.250   4.327 -0.5145 -0.1906 -0.0838
  348MOL0     C47914   4.972   4.194   4.218  0.2476 -0.3330 -0.0224
  348MOL0     C47915   5.047   4.379   4.390 -0.2079  0.4602 -0.2288
  348MOL0     C47916   4.958   4.491   4.327 -0.3317 -0.3379 -0.6633
  348MOL0     O47917   4.937   4.596   4.417  0.3768  0.2951 -0.1096
  348MOL0     C47918   4.859   4.701   4.392 -1.1345 -0.1304  0.6886
  348MOL0     C47919   4.910   4.800   4.315  0.6353  0.3373  0.3866
  348MOL0     C47920   4.844   4.922   4.309  0.2465  0.5841 -0.6203
  348MOL0     C47921   4.717   4.945   4.365  0.0776  0.6321 -1.0264
  348MOL0     O47922   4.658   5.064   4.337 -0.0117 -0.1750 -0.3137
  348MOL0     C47923   4.572   5.106   4.439 -0.1566  0.1791  0.4373
  348MOL0     C47924   4.526   5.246   4.418  0.4739 -1.1917  0.5374
  348MOL0     C47925   4.487   5.318   4.550 -0.1207 -0.0218 -0.4973
  348MOL0     C47926   4.387   5.244   4.640 -0.6358  0.4105  0.6706
  348MOL0     C47927   4.255   5.214   4.562 -0.5888  0.0244  0.2030
  348MOL0     C47928   4.158   5.127   4.645 -0.5217  0.3020 -0.0599
  348MOL0     C47929   4.112   5.199   4.770  0.1648 -0.1075 -0.5130
  348MOL0     C47930   3.983   5.142   4.834 -0.1512  0.2331 -0.0186
  348MOL0    Cl47931   4.014   4.979   4.888  0.0532  0.1255 -0.0245
  348MOL0     C47932   4.668   4.839   4.447  0.3290 -0.7802 -0.0451
  348MOL0     C47933   4.741   4.722   4.466 -0.1226 -0.7025 -0.4732
  348MOL0     O47934   4.914   4.485   4.212 -0.6142 -0.0485  0.0230
  348MOL0     C47935   5.123   4.406   4.500 -0.0784  0.4689  0.3086
  348MOL0     C47936   5.212   4.310   4.551 -0.7704  0.4866  0.5059
  348MOL0     N47937   5.586   3.724   3.944 -0.7102  0.0008 -0.0874
  348MOL0     N47938   5.663   3.624   3.912  0.1626 -0.0199  0.0673
  348MOL0     C47939   6.020   2.510   4.579 -0.1567 -0.6150 -0.1970
  348MOL0     C47940   6.030   2.397   4.663  0.4774 -0.3686 -0.0530
  348MOL0     C47941   6.125   2.056   4.876  0.4927 -0.3533 -0.0242
  348MOL0     C47942   6.238   2.008   4.796  0.0486 -0.2666 -0.0389
  348MOL0     C47943   6.341   1.932   4.848  0.1877 -0.3089 -0.2608
  348MOL0     C47944   6.350   1.898   4.984  0.6026  0.3884 -0.4638
  348MOL0     O47945   6.444   1.811   5.042  0.3219  0.3243  0.0311
  348MOL0     C47946   6.559   1.761   4.967  0.0113  0.3201  0.5809
  348MOL0     C47947   6.634   1.658   5.052  0.3971 -0.4575  0.1135
  348MOL0     C47948   6.745   1.586   4.972  0.6654 -0.0449  1.0295
  348MOL0     C47949   6.698   1.452   4.907  0.6742 -0.8192 -0.0677
  348MOL0     C47950   6.805   1.398   4.822 -0.0509  0.0503  0.1908
  348MOL0     C47951   6.898   1.352   4.765  0.1686  0.1632  0.9376
  348MOL0     C47952   6.238   1.933   5.054 -0.4943 -0.8038  0.7340
  348MOL0     C47953   6.125   2.015   5.012 -0.2081  0.2375 -1.3750
  348MOL0     C47954   6.002   2.031   5.108  0.0159 -1.0256  0.8367
  348MOL0     H47955   5.987   2.154   4.432 -1.7367  0.6676 -1.5545
  348MOL0     H47956   5.981   2.343   4.280 -3.6355  0.3813 -1.2088
  348MOL0     H47957   5.900   2.724   4.481  0.6865  1.0945 -1.0286
  348MOL0     H47958   5.796   2.660   4.354  0.4088  1.1744 -2.3039
  348MOL0     H47959   6.052   2.818   4.314  0.6280 -3.7454  1.6747
  348MOL0     H47960   5.935   2.779   4.185 -0.3928  3.7361 -0.6263
  348MOL0     H47961   5.768   2.910   4.294  0.9648  1.5840 -1.2849
  348MOL0     H47962   5.872   2.953   4.428  1.5044 -0.5255 -0.2289
  348MOL0     H47963   6.031   3.066   4.305 -0.4015 -1.0525  2.9039
  348MOL0     H47964   5.950   3.048   4.145  3.0356  3.6561 -0.2519
  348MOL0     H47965   5.849   3.212   4.363 -1.7734  0.5885 -1.1028
  348MOL0     H47966   5.748   3.156   4.225 -0.6178  1.3842 -0.7686
  348MOL0     H47967   5.976   3.359   4.243  1.3677  1.1424 -1.6808
  348MOL0     H47968   5.961   3.272   4.091  2.0089 -1.1768  1.3265
  348MOL0     H47969   5.764   3.464   4.230 -0.5186  1.5925 -1.2663
  348MOL0     H47970   5.700   3.351   4.113  0.0329  1.0143 -2.4823
  348MOL0     H47971   5.943   3.527   4.043  0.3447 -0.3120 -0.9905
  348MOL0     H47972   5.824   3.443   3.933 -0.6785  0.8137 -0.4482
  348MOL0     H47973   5.778   3.733   4.201 -2.1243 -1.3594  0.4679
  348MOL0     H47974   5.480   3.925   4.061 -0.1407 -2.9358 -1.5479
  348MOL0     H47975   5.633   3.978   4.106 -1.1836 -0.0855 -0.5802
  348MOL0     H47976   5.463   3.791   4.286  1.2404 -0.2861 -0.3037
  348MOL0     H47977   5.605   3.858   4.346  0.2354 -0.5778 -0.6191
  348MOL0     H47978   5.505   4.091   4.298 -0.6746  0.9610  2.0016
  348MOL0     H47979   5.348   4.016   4.248 -0.4658  0.6044  1.2844
  348MOL0     H47980   5.303   3.939   4.478 -2.9629  2.9900 -2.2169
  348MOL0     H47981   5.475   3.980   4.524  1.0923  0.1189 -0.3101
  348MOL0     H47982   5.171   4.062   4.336 -1.1052 -1.3232  0.8108
  348MOL0     H47983   4.948   4.265   4.138 -2.2951  0.3068  1.2323
  348MOL0     H47984   4.885   4.144   4.261  1.0636 -2.1377 -0.3364
  348MOL0     H47985   5.020   4.110   4.166 -1.4036 -1.3440  0.0423
  348MOL0     H47986   5.008   4.788   4.270  0.5820 -3.5907  0.9879
  348MOL0     H47987   4.865   5.007   4.244 -0.8051  2.4112  1.2947
  348MOL0     H47988   4.481   5.046   4.450 -0.4797  0.6231  0.2085
  348MOL0     H47989   4.630   5.104   4.532  1.9150  1.8027 -0.7390
  348MOL0     H47990   4.601   5.313   4.375 -3.8030  2.2794 -2.4860
  348MOL0     H47991   4.447   5.244   4.342  0.1944 -2.2006  0.8365
  348MOL0     H47992   4.433   5.412   4.532  1.0828  1.2192  1.8186
  348MOL0     H47993   4.574   5.343   4.612 -0.8348 -0.5525  0.7471
  348MOL0     H47994   4.354   5.313   4.718 -1.3654 -0.3026  1.0122
  348MOL0     H47995   4.420   5.151   4.688 -1.2885  0.3938  1.0928
  348MOL0     H47996   4.197   5.300   4.529 -0.4095  0.1489  0.2132
  348MOL0     H47997   4.277   5.141   4.483 -1.6532  0.3299 -0.3798
  348MOL0     H47998   4.208   5.036   4.679 -2.3365  0.1412  2.4921
  348MOL0     H47999   4.084   5.104   4.568 -1.8951  3.0626  0.3221
  348MOL0     H48000   4.090   5.305   4.759  2.2501  0.2316 -2.0898
  348MOL0     H48001   4.189   5.195   4.848  1.0455 -0.8534 -1.3949
  348MOL0     H48002   3.887   5.158   4.785 -2.2212  1.2216  3.9140
  348MOL0     H48003   3.969   5.202   4.924 -1.1128  2.4617 -1.5818
  348MOL0     H48004   4.569   4.845   4.492  0.8216  1.0311  0.9000
  348MOL0     H48005   4.690   4.643   4.520 -1.2380  0.5301  0.3364
  348MOL0     H48006   5.112   4.501   4.552  0.8558 -0.0203  1.4488
  348MOL0     H48007   5.280   4.344   4.629 -0.4741 -0.9283  0.9045
  348MOL0     H48008   6.027   2.612   4.616  1.4471 -0.8553  0.2533
  348MOL0     H48009   6.057   2.414   4.767 -2.2137  0.5170  0.5812
  348MOL0     H48010   6.249   2.048   4.695 -0.4910  0.6785  0.2596
  348MOL0     H48011   6.422   1.892   4.789 -0.9345 -3.5921  0.2126
  348MOL0     H48012   6.536   1.707   4.875  1.1556  0.4066  0.2377
  348MOL0     H48013   6.630   1.842   4.949 -0.6570  1.1343  1.4420
  348MOL0     H48014   6.569   1.584   5.099 -0.5765  1.5172  2.0326
  348MOL0     H48015   6.681   1.706   5.138  0.8933  1.6046 -1.2296
  348MOL0     H48016   6.801   1.658   4.911  0.2837  0.9694  1.8468
  348MOL0     H48017   6.814   1.548   5.049  0.9149  0.4971  1.0777
  348MOL0     H48018   6.614   1.465   4.838  0.0473 -0.1311  0.8110
  348MOL0     H48019   6.668   1.383   4.985  2.7738 -4.0641 -1.9065
  348MOL0     H48020   6.984   1.318   4.710 -0.3198  2.4900 -1.5112
  348MOL0     H48021   6.221   1.878   5.146  0.3433 -1.1196  0.7098
  348MOL0     H48022   5.982   2.137   5.127  1.4768 -0.7148  0.7512
  348MOL0     H48023   5.913   1.988   5.061 -0.9533  1.9946 -0.3195
  348MOL0     H48024   6.031   1.987   5.204  0.8065  1.3107  1.7408
  349MOL0     O48025   6.597   2.648   9.625  0.7770  0.3927 -0.7104
  349MOL0     C48026   6.568   2.648   9.743  0.8735  0.5527  0.1128
  349MOL0     O48027   6.647   2.708   9.841 -0.3887 -0.2422 -0.5545
  349MOL0     C48028   6.757   2.784   9.806 -0.2446  0.5828 -0.1580
  349MOL0     C48029   6.885   2.726   9.803 -0.5534  0.4093  1.2192
  349MOL0     C48030   6.985   2.809   9.751 -0.1459 -0.4218 -1.1189
  349MOL0     C48031   6.965   2.942   9.722 -0.6065 -0.3616 -0.2644
  349MOL0     O48032   7.076   3.018   9.697 -0.4476 -0.0097 -0.3035
  349MOL0     C48033   7.065   3.114   9.585  0.6410 -0.1301 -0.6393
  349MOL0     C48034   7.197   3.180   9.567  0.3659 -0.8781  0.8187
  349MOL0     C48035   7.301   3.075   9.515  0.8676 -0.4930  0.8276
  349MOL0     C48036   7.423   3.145   9.466  1.2240  0.2764  0.9117
  349MOL0     C48037   7.499   3.053   9.374 -0.5101 -0.8583  0.5913
  349MOL0     C48038   7.542   2.914   9.426 -0.1324 -0.2559 -0.0421
  349MOL0     C48039   7.646   2.856   9.326 -0.5650 -1.4537 -0.4536
  349MOL0     C48040   7.727   2.744   9.377  0.3523  0.5629 -0.5549
  349MOL0     N48041   7.830   2.774   9.477  0.6336  0.4968  0.5071
  349MOL0     C48042   7.854   2.681   9.574  0.5615  0.7040  0.5698
  349MOL0     C48043   7.961   2.740   9.633 -0.6284  0.6665 -0.5858
  349MOL0     C48044   8.044   2.683   9.743  0.2458  0.0180  0.3661
  349MOL0     C48045   7.957   2.622   9.854 -0.0678 -0.4566 -0.4066
  349MOL0     C48046   7.875   2.707   9.947 -0.2210  0.8811  0.0371
  349MOL0     C48047   7.937   2.852   9.961  0.6164 -0.5842  0.6987
  349MOL0     O48048   7.856   2.938  10.040 -0.1848 -0.4399  0.0104
  349MOL0     C48049   7.920   3.063  10.072  0.3465  0.1559  0.8489
  349MOL0     C48050   7.831   3.160  10.121  0.3638 -0.2648  0.7479
  349MOL0     C48051   7.877   3.291  10.134  0.6983  0.5419 -0.5089
  349MOL0     C48052   7.770   3.385  10.182 -0.2937  0.3810  0.3476
  349MOL0     C48053   8.006   3.326  10.097  0.3060  0.4216 -0.1334
  349MOL0     C48054   8.051   3.467  10.099 -0.0919 -0.5463 -0.7218
  349MOL0     O48055   8.184   3.502  10.127  0.1161 -0.4589 -0.1825
  349MOL0     C48056   8.239   3.453  10.242 -0.2122  0.4333  0.1850
  349MOL0     C48057   8.370   3.393  10.250 -0.0435 -0.2397  0.1110
  349MOL0     C48058   8.420   3.341  10.369  0.4552 -0.1311 -0.2478
  349MOL0     C48059   8.336   3.346  10.481 -0.8848 -0.2982  0.3462
  349MOL0     O48060   8.408   3.307  10.589 -0.1713  0.2421 -0.4035
  349MOL0     C48061   8.403   3.166  10.633  0.2396  0.0615 -1.0715
  349MOL0     C48062   8.539   3.105  10.607  0.0971  0.5752 -0.9956
  349MOL0     C48063   8.571   2.993  10.707  0.1261  0.3490 -0.1898
  349MOL0     C48064   8.479   2.860  10.708 -0.1000 -0.9598  0.2841
  349MOL0     C48065   8.498   2.780  10.837  0.0011 -0.2739  0.0336
  349MOL0     C48066   8.640   2.724  10.861  0.1708  0.2956 -0.1650
  349MOL0     C48067   8.716   2.664  10.736 -0.3052 -0.1868  0.2484
  349MOL0     C48068   8.868   2.639  10.763 -0.2214 -0.4722  0.7029
  349MOL0    Cl48069   8.903   2.584  10.929  0.6429 -0.4009  0.3084
  349MOL0     C48070   8.215   3.410  10.478 -0.8559 -0.7154 -0.5091
  349MOL0     C48071   8.170   3.465  10.360  0.8850 -0.5355  0.0657
  349MOL0     O48072   7.977   3.553  10.056  0.1922  0.1588  0.6536
  349MOL0     C48073   8.099   3.228  10.045  0.3818 -0.5822 -0.3914
  349MOL0     C48074   8.059   3.095  10.047 -0.2383 -0.7724  0.7222
  349MOL0     N48075   7.986   2.862   9.582  0.3434  0.1853  0.7569
  349MOL0     N48076   7.916   2.878   9.477 -0.2879 -1.2267 -0.4881
  349MOL0     C48077   6.835   2.990   9.715  0.0734 -0.0808  0.7316
  349MOL0     C48078   6.734   2.906   9.750  0.2137  0.1355 -0.3419
  349MOL0     C48079   6.461   2.556   9.777 -0.4124 -1.2457 -0.5440
  349MOL0     C48080   6.446   2.523   9.910 -0.5505  1.2873  0.0897
  349MOL0     C48081   6.341   2.434   9.956 -0.3026 -0.1746 -0.8198
  349MOL0     C48082   6.244   2.398   9.870  0.2624 -0.0449  0.2338
  349MOL0     O48083   6.151   2.305   9.925  0.3044  0.8351  0.2688
  349MOL0     C48084   6.023   2.293   9.851 -0.5377 -0.0835 -0.4371
  349MOL0     C48085   5.926   2.201   9.925  0.5745 -0.9117  0.1386
  349MOL0     C48086   5.910   2.052   9.865 -0.9177  0.3579  0.3140
  349MOL0     C48087   6.044   1.981   9.851  0.7375  0.6216 -0.6308
  349MOL0     C48088   6.019   1.857   9.783  0.4876 -0.6499 -0.0042
  349MOL0     C48089   5.997   1.753   9.732  0.2413 -0.1934 -0.1057
  349MOL0     C48090   6.244   2.435   9.737 -0.3529  0.9354 -0.4393
  349MOL0     C48091   6.350   2.516   9.690 -0.0148  0.1461 -0.4533
  349MOL0     C48092   6.338   2.559   9.548  0.6749 -0.1521  0.3651
  349MOL0     H48093   6.910   2.622   9.821  1.4312  0.3652 -1.1365
  349MOL0     H48094   7.082   2.762   9.748  0.7096  1.2827 -0.9559
  349MOL0     H48095   7.002   3.198   9.614 -0.8375 -2.3182  3.2273
  349MOL0     H48096   7.021   3.061   9.500  2.2629 -1.5075 -0.6903
  349MOL0     H48097   7.191   3.262   9.494 -0.3342 -0.4496  1.3386
  349MOL0     H48098   7.250   3.221   9.653  3.2229  1.6344 -1.8569
  349MOL0     H48099   7.340   3.020   9.601 -0.4436 -0.0503  1.7471
  349MOL0     H48100   7.263   3.006   9.439  0.5631  1.0854 -0.5068
  349MOL0     H48101   7.399   3.229   9.401  1.0819 -0.0687  0.5193
  349MOL0     H48102   7.477   3.183   9.554  2.8054 -2.2238  1.1069
  349MOL0     H48103   7.586   3.109   9.338  1.1336 -2.9608  1.1287
  349MOL0     H48104   7.438   3.033   9.286  2.4716  0.5656 -2.0296
  349MOL0     H48105   7.591   2.917   9.524 -2.6863 -1.7901  1.3945
  349MOL0     H48106   7.459   2.844   9.438 -0.1886 -0.4232 -1.2588
  349MOL0     H48107   7.704   2.940   9.287 -0.9509 -2.0696 -2.5083
  349MOL0     H48108   7.585   2.824   9.241 -1.5315 -0.4771 -0.1442
  349MOL0     H48109   7.670   2.668   9.432  5.4980 -1.3280  2.9818
  349MOL0     H48110   7.774   2.696   9.290  0.1677 -3.8301  1.4974
  349MOL0     H48111   7.795   2.591   9.591 -0.3706  1.2637  0.4188
  349MOL0     H48112   8.119   2.756   9.776 -1.1330  1.2080  1.0253
  349MOL0     H48113   8.094   2.595   9.704 -2.0730 -0.8323 -0.8744
  349MOL0     H48114   7.889   2.545   9.817  2.1098 -2.7094  0.0156
  349MOL0     H48115   8.025   2.578   9.928 -0.6116 -0.9211 -0.1698
  349MOL0     H48116   7.780   2.720   9.895 -1.1024  1.4361  1.6966
  349MOL0     H48117   7.848   2.655  10.039  0.2738 -2.4414 -1.5468
  349MOL0     H48118   8.034   2.837  10.009  2.8601 -0.2232 -3.2957
  349MOL0     H48119   7.964   2.894   9.864  5.5408 -2.9387  0.7255
  349MOL0     H48120   7.730   3.129  10.149  0.5127  0.0070  1.6240
  349MOL0     H48121   7.808   3.443  10.267  1.6977 -2.0557  1.2687
  349MOL0     H48122   7.693   3.329  10.236  2.2287 -1.1293  2.6487
  349MOL0     H48123   7.721   3.440  10.102 -1.2615 -0.0466  0.6344
  349MOL0     H48124   8.431   3.376  10.162 -0.0966  1.9135 -0.4133
  349MOL0     H48125   8.508   3.277  10.371 -2.1341 -3.9849  1.1719
  349MOL0     H48126   8.377   3.169  10.739 -1.4087  0.3613 -1.4577
  349MOL0     H48127   8.326   3.101  10.592 -1.3586  0.4817  1.1000
  349MOL0     H48128   8.547   3.056  10.510  2.3521 -0.1574 -0.5177
  349MOL0     H48129   8.610   3.188  10.611 -2.0385  2.5619 -2.1713
  349MOL0     H48130   8.575   3.033  10.809 -3.5145 -0.1707  0.2949
  349MOL0     H48131   8.669   2.962  10.669 -0.2917 -2.2606  0.6555
  349MOL0     H48132   8.497   2.814  10.610  1.0701  1.4830 -0.7355
  349MOL0     H48133   8.376   2.896  10.700  0.2325 -0.3305 -2.0256
  349MOL0     H48134   8.480   2.849  10.920 -1.6504  0.5820 -0.9890
  349MOL0     H48135   8.418   2.705  10.844 -0.2648  0.0435  0.4094
  349MOL0     H48136   8.638   2.638  10.929 -1.1000  1.2700  1.1224
  349MOL0     H48137   8.700   2.802  10.910  1.3123 -0.4386 -0.3615
  349MOL0     H48138   8.702   2.723  10.644  0.4152  0.4437  0.5282
  349MOL0     H48139   8.674   2.565  10.719 -3.0752  0.6629  1.5205
  349MOL0     H48140   8.921   2.729  10.733  0.0199 -0.9090 -0.2243
  349MOL0     H48141   8.913   2.561  10.701 -5.3448 -4.4826  1.3217
  349MOL0     H48142   8.165   3.421  10.574 -1.3901  0.8882 -0.9391
  349MOL0     H48143   8.077   3.520  10.351 -1.9074 -4.9327 -1.4381
  349MOL0     H48144   8.200   3.257  10.020 -0.0691  1.6987  0.1835
  349MOL0     H48145   8.130   3.026  10.002  0.1535  0.7624 -1.1186
  349MOL0     H48146   6.818   3.091   9.680  2.6114  0.4365  0.8032
  349MOL0     H48147   6.636   2.951   9.739  0.1379 -0.4968 -3.0428
  349MOL0     H48148   6.518   2.565   9.979  1.5415 -0.5790 -0.8158
  349MOL0     H48149   6.355   2.398  10.057 -1.1659  2.8443  0.5104
  349MOL0     H48150   5.980   2.391   9.828 -0.6818 -0.2449 -0.8650
  349MOL0     H48151   6.040   2.250   9.752 -0.4098 -0.9477 -0.0567
  349MOL0     H48152   5.831   2.255   9.938 -1.2476 -3.9619  0.4083
  349MOL0     H48153   5.963   2.179  10.026  0.3012 -2.2320 -0.0427
  349MOL0     H48154   5.840   1.993   9.925  0.6789 -0.4178  1.4925
  349MOL0     H48155   5.862   2.060   9.767  2.6382  1.4484 -1.5055
  349MOL0     H48156   6.102   1.960   9.941 -0.2599  0.0310 -0.1155
  349MOL0     H48157   6.115   2.035   9.787  0.9266  1.6468  0.4185
  349MOL0     H48158   5.986   1.659   9.681  2.4290  0.0633 -1.1743
  349MOL0     H48159   6.168   2.404   9.667  0.3303  2.7780 -2.1079
  349MOL0     H48160   6.254   2.516   9.493 -1.1191  2.5699  0.7419
  349MOL0     H48161   6.310   2.665   9.545 -2.1209 -0.8350 -0.0011
  349MOL0     H48162   6.430   2.535   9.494  0.2652  0.3609 -0.5898
  350MOL0     O48163   0.499  11.285   0.725  0.2395 -0.4296 -0.5059
  350MOL0     C48164   0.601  11.345   0.749 -0.7263 -0.3712 -0.1172
  350MOL0     O48165   0.728  11.291   0.756 -0.1327  1.1235  0.6162
  350MOL0     C48166   0.729  11.156   0.735 -1.2341  0.2568  0.1643
  350MOL0     C48167   0.731  11.103   0.604  0.4762  0.1930  0.1175
  350MOL0     C48168   0.739  10.959   0.579  0.7171 -0.5097 -0.5092
  350MOL0     C48169   0.723  10.873   0.694  0.2868 -0.6484 -0.2594
  350MOL0     O48170   0.694  10.738   0.662  0.1594 -0.1670  0.2437
  350MOL0     C48171   0.750  10.640   0.746 -0.5793 -0.2252 -0.7675
  350MOL0     C48172   0.786  10.532   0.652 -0.6712  0.6952 -0.3027
  350MOL0     C48173   0.909  10.584   0.565 -0.2254 -0.1234 -1.0858
  350MOL0     C48174   0.876  10.597   0.418  0.1495 -0.2370 -0.8077
  350MOL0     C48175   0.976  10.697   0.354  0.6019  0.6013 -0.5910
  350MOL0     C48176   1.124  10.658   0.358  0.7862 -0.9168 -0.0221
  350MOL0     C48177   1.158  10.523   0.295  0.1290 -0.9737  0.3962
  350MOL0     C48178   1.311  10.480   0.306 -0.0242 -0.3697 -0.0785
  350MOL0     N48179   1.403  10.564   0.228  1.9656 -0.2803  0.6579
  350MOL0     C48180   1.527  10.598   0.271  0.6427  0.0199  0.1150
  350MOL0     C48181   1.590  10.632   0.158 -0.8623  0.1011 -0.4638
  350MOL0     C48182   1.727  10.691   0.151  0.0114 -0.1992  0.2960
  350MOL0     C48183   1.716  10.838   0.088 -0.3009 -0.0743  0.3862
  350MOL0     C48184   1.847  10.875   0.015  1.0520 -1.5966  0.5554
  350MOL0     C48185   1.973  10.865   0.104  0.2512  0.5914 -0.0465
  350MOL0     O48186   2.088  10.887   0.017 -0.3605 -0.3706 -0.6368
  350MOL0     C48187   2.201  10.925   0.075 -0.8495 -0.6424 -0.3685
  350MOL0     C48188   2.237  10.905   0.210  0.5947 -0.1017 -0.3531
  350MOL0     C48189   2.356  10.951   0.267 -0.0014  0.1244  0.9934
  350MOL0     C48190   2.375  10.922   0.410 -0.9301 -0.1102 -0.2831
  350MOL0     C48191   2.464  10.989   0.177  0.2057  0.3517  0.1131
  350MOL0     C48192   2.606  11.010   0.201 -0.2605  1.3288 -0.6539
  350MOL0     O48193   2.679  11.061   0.102 -0.2861 -0.3340 -0.0549
  350MOL0     C48194   2.812  11.073   0.123  0.2643 -0.1284  0.3074
  350MOL0     C48195   2.902  10.973   0.067  0.7952 -0.0405  0.4476
  350MOL0     C48196   3.041  10.986   0.095 -1.0670  0.6301 -0.2141
  350MOL0     C48197   3.090  11.092   0.169 -0.0684 -0.1269 -0.2086
  350MOL0     O48198   3.225  11.093   0.203  0.0786  0.5317 -0.0189
  350MOL0     C48199   3.296  11.199   0.274  0.4303  0.3870 -0.4466
  350MOL0     C48200   3.445  11.194   0.236 -0.0241  0.0092  0.2905
  350MOL0     C48201   3.520  11.089   0.320  0.9164 -0.3284  0.4878
  350MOL0     C48202   3.527  11.142   0.464 -0.3462 -0.7512 -0.5634
  350MOL0     C48203   3.646  11.083   0.546  0.8793  0.2912  0.1421
  350MOL0     C48204   3.791  11.130   0.502 -0.9412 -0.4757  0.0890
  350MOL0     C48205   3.799  11.284   0.490 -0.3331  0.2516  0.1351
  350MOL0     C48206   3.931  11.320   0.428  0.3891 -0.2128 -0.6139
  350MOL0    Cl48207   3.933  11.260   0.262  0.1723 -0.1757 -0.0162
  350MOL0     C48208   3.007  11.188   0.225 -0.3130  0.3535  0.1424
  350MOL0     C48209   2.868  11.179   0.200 -1.1122 -0.4793 -0.1581
  350MOL0     O48210   2.653  10.965   0.308 -0.2579 -0.0980 -0.1895
  350MOL0     C48211   2.416  11.003   0.040 -0.9990 -0.0920  0.6335
  350MOL0     C48212   2.289  10.975  -0.010 -0.2602 -0.4018  0.7105
  350MOL0     N48213   1.497  10.627   0.051 -0.3591  0.3203  0.1132
  350MOL0     N48214   1.381  10.581   0.091  0.0522 -0.8328 -0.0142
  350MOL0     C48215   0.718  10.929   0.826  0.3163  0.0745  0.0572
  350MOL0     C48216   0.731  11.075   0.847 -0.7925  0.0771  1.1096
  350MOL0     C48217   0.600  11.494   0.769  0.6707  0.0316  0.0483
  350MOL0     C48218   0.539  11.581   0.673 -0.1937 -0.0041  0.4468
  350MOL0     C48219   0.570  11.719   0.661  0.1077  0.2339 -0.2227
  350MOL0     C48220   0.653  11.777   0.757  0.0411  0.5163 -0.7877
  350MOL0     O48221   0.690  11.911   0.758 -0.5248 -0.3353  0.0232
  350MOL0     C48222   0.601  11.998   0.830  0.1025  0.8502 -0.3601
  350MOL0     C48223   0.573  12.119   0.749  0.0857  0.2305 -0.7970
  350MOL0     C48224   0.487  12.216   0.837 -0.7597  0.8578  0.3742
  350MOL0     C48225   0.425  12.330   0.761  0.6278 -1.2206  0.2554
  350MOL0     C48226   0.528  12.424   0.702 -0.4736 -0.2745 -1.2240
  350MOL0     C48227   0.609  12.494   0.651  1.0498 -0.1996 -0.0776
  350MOL0     C48228   0.697  11.690   0.860 -0.2644  0.7036 -0.0288
  350MOL0     C48229   0.688  11.551   0.861 -0.3667 -0.5758 -0.6255
  350MOL0     C48230   0.760  11.472   0.973  0.1642  0.1823 -0.0837
  350MOL0     H48231   0.740  11.159   0.511 -0.6737 -1.7619 -1.2541
  350MOL0     H48232   0.743  10.914   0.480  0.2980  0.6934 -1.0994
  350MOL0     H48233   0.682  10.605   0.824 -1.7511  2.6489 -0.3710
  350MOL0     H48234   0.836  10.680   0.800 -1.8744 -0.0250  1.2415
  350MOL0     H48235   0.822  10.440   0.699  0.7647  0.5972 -1.4985
  350MOL0     H48236   0.703  10.506   0.585  0.1766  1.5448 -1.7276
  350MOL0     H48237   0.956  10.672   0.609  0.7650 -2.0652  2.0466
  350MOL0     H48238   0.980  10.501   0.567 -1.3107 -1.0816  2.0163
  350MOL0     H48239   0.870  10.499   0.370 -2.0555 -0.6125  0.1365
  350MOL0     H48240   0.779  10.645   0.402  0.4427 -0.4685 -3.8005
  350MOL0     H48241   0.958  10.798   0.392 -1.3635  1.3711 -3.3260
  350MOL0     H48242   0.940  10.702   0.252 -1.1559 -1.3237 -0.1215
  350MOL0     H48243   1.185  10.732   0.306  0.0993 -0.4554 -0.1808
  350MOL0     H48244   1.153  10.664   0.463  0.2034  2.5512  0.0481
  350MOL0     H48245   1.139  10.520   0.187 -0.7864  2.8433  0.2886
  350MOL0     H48246   1.101  10.453   0.356 -2.3309  2.0663  1.8634
  350MOL0     H48247   1.339  10.496   0.411  0.5601  3.9444 -0.6723
  350MOL0     H48248   1.328  10.376   0.278 -0.7282 -0.8633  1.2625
  350MOL0     H48249   1.564  10.588   0.373 -0.0221  0.8423  0.4518
  350MOL0     H48250   1.782  10.628   0.080 -1.2417  1.9914 -2.8619
  350MOL0     H48251   1.773  10.684   0.250  1.1451 -1.2000 -0.2668
  350MOL0     H48252   1.630  10.858   0.024 -0.8828  0.8977  1.4296
  350MOL0     H48253   1.681  10.916   0.157 -0.9345  1.3451 -1.4544
  350MOL0     H48254   1.859  10.803  -0.067 -0.0007 -1.6230  0.4190
  350MOL0     H48255   1.844  10.971  -0.037 -0.2958 -2.3946 -0.9433
  350MOL0     H48256   1.961  10.940   0.182 -2.5283 -0.4888  0.7069
  350MOL0     H48257   1.990  10.766   0.148  2.1739  1.0028  0.2088
  350MOL0     H48258   2.171  10.851   0.278 -0.0129 -0.7978 -1.4536
  350MOL0     H48259   2.444  10.840   0.433 -0.1026  1.4349  3.6446
  350MOL0     H48260   2.276  10.900   0.451 -1.1412  0.4470 -0.4899
  350MOL0     H48261   2.423  11.010   0.454  3.5793 -1.9811 -0.9360
  350MOL0     H48262   2.861  10.886   0.017 -0.3534 -0.3204  1.8243
  350MOL0     H48263   3.110  10.911   0.058 -0.1915  1.5951 -0.5826
  350MOL0     H48264   3.250  11.292   0.239  1.7181  1.1438 -0.2051
  350MOL0     H48265   3.281  11.202   0.382  1.6878 -1.8596 -0.1521
  350MOL0     H48266   3.455  11.164   0.132  0.6638  0.9397  0.0745
  350MOL0     H48267   3.488  11.293   0.252  2.5539 -0.9539 -0.2806
  350MOL0     H48268   3.623  11.080   0.282  2.2715  1.3043  3.4015
  350MOL0     H48269   3.470  10.993   0.326 -0.2660  0.2305 -0.1357
  350MOL0     H48270   3.436  11.118   0.519  0.6528  1.7396  2.4365
  350MOL0     H48271   3.515  11.250   0.469 -3.3025 -1.0147  0.0964
  350MOL0     H48272   3.631  11.113   0.650  1.7488  0.4551  0.2261
  350MOL0     H48273   3.635  10.974   0.548 -2.1342  0.4853 -1.1298
  350MOL0     H48274   3.824  11.080   0.411 -1.8075 -1.7848  0.4526
  350MOL0     H48275   3.863  11.091   0.575 -0.5967  0.7330  0.4120
  350MOL0     H48276   3.777  11.324   0.590 -2.5483  2.2193 -1.0295
  350MOL0     H48277   3.715  11.322   0.431 -1.5160 -0.2800  1.4240
  350MOL0     H48278   4.008  11.276   0.492  0.8302  1.4896  0.0899
  350MOL0     H48279   3.945  11.429   0.425 -1.9025  0.1193 -2.5151
  350MOL0     H48280   3.059  11.256   0.291 -2.8119  1.8828  0.6682
  350MOL0     H48281   2.792  11.249   0.234 -0.7835 -0.3367  0.2891
  350MOL0     H48282   2.489  11.021  -0.038 -1.0351 -1.6271  0.2205
  350MOL0     H48283   2.272  10.987  -0.117  1.0060 -2.2895  0.2453
  350MOL0     H48284   0.709  10.874   0.919 -1.2229 -0.5157 -0.4085
  350MOL0     H48285   0.735  11.121   0.945  1.8760  1.4963  0.4160
  350MOL0     H48286   0.463  11.547   0.604  0.0741 -1.0427  0.6446
  350MOL0     H48287   0.532  11.780   0.579 -1.3906  1.0516  1.0220
  350MOL0     H48288   0.509  11.953   0.868 -0.6461  1.8848 -0.8948
  350MOL0     H48289   0.668  12.019   0.914  1.9812  0.0984 -1.6040
  350MOL0     H48290   0.513  12.086   0.663  0.9256 -2.9069 -0.3138
  350MOL0     H48291   0.669  12.161   0.718  0.1679  1.1119  0.6032
  350MOL0     H48292   0.409  12.159   0.890 -1.1832 -2.7149 -3.5900
  350MOL0     H48293   0.552  12.258   0.915  1.2468  3.1564 -2.3447
  350MOL0     H48294   0.361  12.383   0.833 -2.1431 -0.5155 -2.5086
  350MOL0     H48295   0.358  12.295   0.682  1.9957 -0.6695 -1.2246
  350MOL0     H48296   0.685  12.545   0.595  0.2147 -1.6779 -2.7253
  350MOL0     H48297   0.761  11.733   0.937 -0.0904  1.6904 -0.6992
  350MOL0     H48298   0.775  11.525   1.067  0.0701 -1.0327  0.6497
  350MOL0     H48299   0.701  11.385   1.005 -1.0295  0.3921 -1.6096
  350MOL0     H48300   0.854  11.426   0.941 -0.9149 -3.6401  1.5703
  351MOL0     O48301   4.057  10.250   3.082 -0.6389 -0.2711  0.3197
  351MOL0     C48302   4.133  10.340   3.045  0.2169 -0.2742 -0.1970
  351MOL0     O48303   4.205  10.432   3.120  0.4208  0.3186 -0.6188
  351MOL0     C48304   4.188  10.449   3.259 -0.3607 -0.1844 -0.0001
  351MOL0     C48305   4.298  10.480   3.348 -0.5003 -0.3615  0.3266
  351MOL0     C48306   4.273  10.510   3.487  0.0161  0.8044  0.8903
  351MOL0     C48307   4.141  10.500   3.538 -0.2141 -0.0320  0.2802
  351MOL0     O48308   4.103  10.540   3.660  1.1025 -0.9758 -1.3427
  351MOL0     C48309   4.188  10.617   3.747  0.9352 -0.0677 -0.1668
  351MOL0     C48310   4.137  10.614   3.898 -0.5335  0.5280  0.9420
  351MOL0     C48311   4.244  10.667   3.997  0.2768  0.5033 -0.3458
  351MOL0     C48312   4.268  10.813   3.969 -0.6599 -0.0155  0.3257
  351MOL0     C48313   4.380  10.885   4.052 -0.7221  0.8092 -0.3691
  351MOL0     C48314   4.349  10.904   4.208  0.0604 -0.2072  0.1079
  351MOL0     C48315   4.460  10.976   4.285  0.3985  0.0528  0.0806
  351MOL0     C48316   4.479  11.119   4.241  1.0748  0.9053 -0.0983
  351MOL0     N48317   4.577  11.204   4.317 -0.6970  0.6101 -0.2954
  351MOL0     C48318   4.699  11.249   4.276 -0.9106 -1.3544 -0.7690
  351MOL0     C48319   4.737  11.330   4.381  0.1302  0.2516  0.6339
  351MOL0     C48320   4.879  11.393   4.378  0.4516 -0.8756  0.2942
  351MOL0     C48321   4.870  11.538   4.318 -0.2891 -0.5326  0.5024
  351MOL0     C48322   5.003  11.606   4.310  0.3357 -0.0010 -0.1799
  351MOL0     C48323   5.081  11.607   4.435  0.6748  0.2966 -0.4029
  351MOL0     O48324   5.219  11.657   4.422  0.5258  0.5840 -0.3670
  351MOL0     C48325   5.226  11.794   4.421 -0.5142 -0.0961  0.5472
  351MOL0     C48326   5.215  11.874   4.541  0.9664 -0.0898  0.1251
  351MOL0     C48327   5.234  12.011   4.530  0.8449  0.9994  0.5768
  351MOL0     C48328   5.207  12.092   4.650  0.0345  1.2336 -0.2974
  351MOL0     C48329   5.272  12.064   4.406 -0.4554  0.3677  0.5403
  351MOL0     C48330   5.310  12.208   4.393  0.1032 -0.1139  0.2689
  351MOL0     O48331   5.381  12.250   4.275 -0.0230  0.7169 -0.5678
  351MOL0     C48332   5.395  12.384   4.261 -0.1188  0.2917 -0.9299
  351MOL0     C48333   5.520  12.449   4.265 -0.7759  0.7100  0.9759
  351MOL0     C48334   5.537  12.581   4.237  0.1261  0.3665 -0.1780
  351MOL0     C48335   5.423  12.662   4.207 -1.0036 -0.1691  0.5211
  351MOL0     O48336   5.435  12.792   4.172  0.1735 -0.0119  0.2738
  351MOL0     C48337   5.508  12.815   4.047 -0.4961  0.3251  0.1290
  351MOL0     C48338   5.659  12.838   4.069 -0.2302  0.9344  0.9439
  351MOL0     C48339   5.686  12.915   4.190 -0.3969 -0.5104  0.5497
  351MOL0     C48340   5.833  12.934   4.210  0.6190  0.0184 -0.2258
  351MOL0     C48341   5.900  12.811   4.268  0.6828  0.1204 -0.0796
  351MOL0     C48342   6.046  12.856   4.305 -0.5790  0.2421  0.5265
  351MOL0     C48343   6.140  12.735   4.323  0.9441 -0.4681 -0.1541
  351MOL0     C48344   6.275  12.765   4.387 -0.1941 -0.1599  0.6623
  351MOL0    Cl48345   6.382  12.888   4.317  0.3149  0.3310  0.2086
  351MOL0     C48346   5.298  12.600   4.191  0.4141 -0.0909  0.2528
  351MOL0     C48347   5.284  12.465   4.224 -0.2190  0.5226  0.3344
  351MOL0     O48348   5.269  12.288   4.480  0.9463  0.5257  0.4078
  351MOL0     C48349   5.290  11.988   4.292 -0.0585  0.0429  0.5840
  351MOL0     C48350   5.263  11.859   4.304 -0.8981  0.1857  0.3646
  351MOL0     N48351   4.649  11.337   4.480  0.6042 -0.2021 -0.2186
  351MOL0     N48352   4.545  11.271   4.440  0.1663  0.3610 -0.5632
  351MOL0     C48353   4.041  10.463   3.452  0.5311  0.2836  0.8497
  351MOL0     C48354   4.062  10.435   3.320  0.5567 -0.2012  0.7663
  351MOL0     C48355   4.154  10.355   2.894 -0.7531  0.0114 -0.1343
  351MOL0     C48356   4.288  10.362   2.850 -0.3483 -0.4024  0.2371
  351MOL0     C48357   4.320  10.350   2.709  0.4275  1.0314 -0.4506
  351MOL0     C48358   4.219  10.327   2.620  1.3693 -0.5818 -0.0280
  351MOL0     O48359   4.240  10.343   2.483  0.2773 -0.6347 -0.5346
  351MOL0     C48360   4.340  10.249   2.439  0.6860 -0.5841 -0.9114
  351MOL0     C48361   4.393  10.262   2.294  0.5564 -0.4406  0.2287
  351MOL0     C48362   4.264  10.257   2.204 -0.2108 -0.4404 -0.6326
  351MOL0     C48363   4.285  10.298   2.065 -0.8393 -0.2606 -0.6856
  351MOL0     C48364   4.308  10.449   2.059  0.4374  1.0505  0.1654
  351MOL0     C48365   4.314  10.568   2.053 -0.4392  0.2495  0.2656
  351MOL0     C48366   4.090  10.320   2.669  0.5792  1.1269 -0.2119
  351MOL0     C48367   4.049  10.339   2.796 -0.3788  0.2368 -0.4621
  351MOL0     C48368   3.909  10.337   2.825  0.4614 -0.5843  0.2820
  351MOL0     H48369   4.400  10.498   3.316 -0.0951  1.5006  2.4445
  351MOL0     H48370   4.361  10.536   3.544  0.7520  0.6299 -0.1379
  351MOL0     H48371   4.183  10.722   3.714 -4.0213 -0.2409 -0.7797
  351MOL0     H48372   4.291  10.583   3.733  2.0314  2.0954  1.8721
  351MOL0     H48373   4.046  10.674   3.907 -1.0992 -0.3158  0.9424
  351MOL0     H48374   4.126  10.507   3.920  1.5792  0.1051  0.1195
  351MOL0     H48375   4.217  10.641   4.100  1.4700 -1.5198 -0.4867
  351MOL0     H48376   4.333  10.604   3.983 -0.4215 -0.9311  1.3189
  351MOL0     H48377   4.297  10.825   3.865  0.5801 -1.8864  0.4103
  351MOL0     H48378   4.172  10.865   3.976 -1.3055 -0.6236 -2.6546
  351MOL0     H48379   4.393  10.987   4.013  3.4010  0.7756  0.4555
  351MOL0     H48380   4.472  10.827   4.042 -1.3301 -0.4825  1.2949
  351MOL0     H48381   4.264  10.973   4.207  0.0053 -0.2793 -0.5277
  351MOL0     H48382   4.311  10.812   4.254 -0.7110  0.1223  0.1491
  351MOL0     H48383   4.550  10.914   4.291 -0.3583 -1.0860 -0.0671
  351MOL0     H48384   4.434  10.988   4.390  1.0842  3.7124 -0.0321
  351MOL0     H48385   4.514  11.118   4.137 -0.9577  1.6036 -0.8376
  351MOL0     H48386   4.381  11.166   4.229 -0.5787 -2.3082 -0.2681
  351MOL0     H48387   4.739  11.226   4.178 -0.6377  2.9303 -1.8543
  351MOL0     H48388   4.935  11.332   4.306  1.8271  0.9508 -0.2699
  351MOL0     H48389   4.923  11.392   4.478  2.0636  1.2938 -0.3142
  351MOL0     H48390   4.828  11.536   4.217  0.8568  2.6186 -0.1654
  351MOL0     H48391   4.799  11.602   4.373  0.1137  2.9480 -2.6779
  351MOL0     H48392   5.058  11.562   4.227 -2.0745 -0.5483 -1.5892
  351MOL0     H48393   4.984  11.707   4.272  0.1412 -1.3289 -4.0544
  351MOL0     H48394   5.031  11.660   4.517 -0.4256 -1.2253 -0.0426
  351MOL0     H48395   5.101  11.507   4.476 -0.0674 -0.0130 -0.7897
  351MOL0     H48396   5.195  11.822   4.635 -2.4946 -0.6691 -0.7677
  351MOL0     H48397   5.174  12.025   4.730  0.7879  1.1101 -0.0825
  351MOL0     H48398   5.116  12.153   4.640 -1.1968 -0.6173 -0.9846
  351MOL0     H48399   5.295  12.150   4.679  1.0172 -0.3576 -0.0050
  351MOL0     H48400   5.607  12.394   4.301 -0.6057  1.3304  1.5424
  351MOL0     H48401   5.641  12.611   4.241  0.1507  0.1283  1.4930
  351MOL0     H48402   5.488  12.729   3.983 -0.8102 -0.2455  0.9677
  351MOL0     H48403   5.479  12.907   3.997 -1.0467  0.0637 -0.0390
  351MOL0     H48404   5.710  12.741   4.066  0.3839  1.2428  1.3783
  351MOL0     H48405   5.694  12.894   3.982  0.3059  0.0167  0.5489
  351MOL0     H48406   5.650  12.863   4.279  0.9238 -2.7718 -0.1525
  351MOL0     H48407   5.637  13.011   4.170  2.9441  1.2438  0.0524
  351MOL0     H48408   5.836  13.003   4.295  2.7834 -1.1731  0.7591
  351MOL0     H48409   5.887  12.969   4.122  1.6845 -1.8750 -0.3858
  351MOL0     H48410   5.844  12.778   4.355  0.8545 -1.9081 -0.6719
  351MOL0     H48411   5.903  12.731   4.193  0.3937 -1.4478  1.5130
  351MOL0     H48412   6.047  12.901   4.405  1.2736 -1.0136  1.1330
  351MOL0     H48413   6.077  12.937   4.238 -1.4747  0.5527  0.4769
  351MOL0     H48414   6.143  12.675   4.232  2.2098 -1.7794  0.7117
  351MOL0     H48415   6.091  12.666   4.393 -1.0041  1.4213  0.4649
  351MOL0     H48416   6.343  12.680   4.395  2.0112  1.6739  3.9912
  351MOL0     H48417   6.260  12.799   4.490 -1.0917 -1.7369  1.0746
  351MOL0     H48418   5.211  12.655   4.156  0.2710  0.1795  1.0107
  351MOL0     H48419   5.186  12.419   4.228 -0.5912  0.8738 -2.6534
  351MOL0     H48420   5.314  12.026   4.193 -1.7016 -0.2358  0.0481
  351MOL0     H48421   5.277  11.802   4.213  0.8172  3.9742 -1.9955
  351MOL0     H48422   3.936  10.461   3.479 -0.1510 -4.0413 -1.3113
  351MOL0     H48423   3.979  10.400   3.259 -0.5016  1.7502  1.0047
  351MOL0     H48424   4.370  10.364   2.921 -0.0276  2.3614 -0.1053
  351MOL0     H48425   4.422  10.360   2.675 -0.2905 -0.3527 -3.4374
  351MOL0     H48426   4.422  10.250   2.511 -2.3662  1.0202  2.9532
  351MOL0     H48427   4.293  10.151   2.440 -1.9194  0.5765 -1.2739
  351MOL0     H48428   4.467  10.195   2.250  3.0795  2.2073  0.1118
  351MOL0     H48429   4.437  10.362   2.291  0.3187 -0.2344  2.1935
  351MOL0     H48430   4.224  10.156   2.206  0.5563 -0.7394  0.4960
  351MOL0     H48431   4.186  10.321   2.246 -1.4821 -0.0079 -3.4107
  351MOL0     H48432   4.204  10.272   1.997 -2.6236  3.1668 -0.0594
  351MOL0     H48433   4.374  10.244   2.030 -0.1568  1.4560 -1.7020
  351MOL0     H48434   4.312  10.675   2.056  0.9227  0.3597 -1.2111
  351MOL0     H48435   4.012  10.311   2.594  0.7765 -0.2430 -0.2710
  351MOL0     H48436   3.877  10.389   2.916  0.2432 -2.9792  1.6806
  351MOL0     H48437   3.860  10.372   2.734  0.7829 -0.7193  0.0544
  351MOL0     H48438   3.882  10.234   2.852  0.9777 -0.6117  0.7058
  352MOL0     O48439   1.935   2.208   4.480 -0.5317  0.3821 -0.2319
  352MOL0     C48440   1.941   2.330   4.473  0.6541 -1.5379 -0.4646
  352MOL0     O48441   2.012   2.409   4.376  0.7579  0.9009  0.0852
  352MOL0     C48442   2.121   2.344   4.320 -0.2709 -0.3179 -0.3308
  352MOL0     C48443   2.240   2.347   4.397 -0.1048  0.8288  0.3502
  352MOL0     C48444   2.363   2.318   4.346 -0.2811 -0.0481 -0.2056
  352MOL0     C48445   2.371   2.273   4.214  0.1111 -0.7014  0.4812
  352MOL0     O48446   2.491   2.248   4.151  0.2296  0.4162 -0.2172
  352MOL0     C48447   2.597   2.173   4.209  0.5865 -0.6962  0.6816
  352MOL0     C48448   2.711   2.143   4.111  0.6540  0.0313  0.1140
  352MOL0     C48449   2.810   2.250   4.088 -0.5527 -0.3000 -0.5027
  352MOL0     C48450   2.937   2.215   4.008 -0.0868 -0.3942 -0.0747
  352MOL0     C48451   3.050   2.308   4.044 -0.5319  0.7339  0.2547
  352MOL0     C48452   3.166   2.284   3.948 -0.0976 -1.1372 -0.7375
  352MOL0     C48453   3.263   2.396   3.950  0.2336 -0.7654 -0.0039
  352MOL0     C48454   3.317   2.431   4.085 -0.5344 -1.1411 -0.0124
  352MOL0     N48455   3.444   2.508   4.064 -0.2225  0.7192 -0.2302
  352MOL0     C48456   3.474   2.632   4.004  0.1784 -0.4103 -0.2596
  352MOL0     C48457   3.612   2.641   3.993  0.0896  0.2667 -0.1045
  352MOL0     C48458   3.698   2.748   3.937 -0.1772 -0.6485  0.6522
  352MOL0     C48459   3.635   2.792   3.807  0.0365 -0.9129 -0.8354
  352MOL0     C48460   3.610   2.680   3.707  0.3378  0.6246  0.4387
  352MOL0     C48461   3.555   2.721   3.567 -0.0504 -0.9935 -0.5315
  352MOL0     O48462   3.489   2.609   3.504 -0.4399  0.1327  1.0780
  352MOL0     C48463   3.405   2.650   3.413  1.1909 -0.2434 -0.1042
  352MOL0     C48464   3.427   2.752   3.313  0.2893  0.3144  0.1299
  352MOL0     C48465   3.339   2.778   3.207 -0.3159 -0.1494 -0.8188
  352MOL0     C48466   3.372   2.886   3.104 -0.4839  0.0131  0.1667
  352MOL0     C48467   3.222   2.708   3.207  0.4836  0.9564 -0.7645
  352MOL0     C48468   3.109   2.739   3.126 -0.3757  1.0131 -0.2291
  352MOL0     O48469   3.060   2.638   3.055 -0.1478  0.4864  0.0407
  352MOL0     C48470   2.932   2.654   3.001  0.3603 -0.1873 -0.5068
  352MOL0     C48471   2.841   2.551   3.030  0.1207  0.2931 -0.5991
  352MOL0     C48472   2.722   2.554   2.963 -0.8915 -0.6141  0.0299
  352MOL0     C48473   2.691   2.659   2.864  0.8546 -0.9384 -0.4577
  352MOL0     O48474   2.564   2.678   2.805  0.4705  0.3385 -0.5163
  352MOL0     C48475   2.457   2.667   2.898  0.1528  0.3710  1.0525
  352MOL0     C48476   2.332   2.730   2.839 -0.1271 -0.1794 -0.1909
  352MOL0     C48477   2.338   2.882   2.798 -0.0426  0.8493 -0.1307
  352MOL0     C48478   2.205   2.948   2.774  0.9551  0.0041  0.6321
  352MOL0     C48479   2.226   3.096   2.758  1.4306  0.4203 -1.2324
  352MOL0     C48480   2.090   3.158   2.723 -0.3715  0.1310 -0.4231
  352MOL0     C48481   2.096   3.308   2.751  0.0057 -0.2698  0.0392
  352MOL0     C48482   1.962   3.380   2.732  0.7332  0.1596  1.1147
  352MOL0    Cl48483   1.934   3.414   2.563  0.1260  0.4900  0.1792
  352MOL0     C48484   2.783   2.764   2.837  0.9512  0.9941 -0.0841
  352MOL0     C48485   2.903   2.759   2.910 -0.3626  0.7313 -0.0495
  352MOL0     O48486   3.048   2.844   3.148  0.4912 -0.0969 -0.1036
  352MOL0     C48487   3.195   2.608   3.307 -0.4523 -0.0307  0.0236
  352MOL0     C48488   3.287   2.580   3.414 -0.3349 -0.9564 -0.6290
  352MOL0     N48489   3.659   2.517   4.026 -0.4784  0.9979 -0.9044
  352MOL0     N48490   3.569   2.444   4.082 -0.0930  1.3544  0.5788
  352MOL0     C48491   2.256   2.274   4.139  0.2190  0.1175  0.4610
  352MOL0     C48492   2.128   2.304   4.192  0.8302  0.9610 -0.2371
  352MOL0     C48493   1.826   2.400   4.542  0.5534  1.3860  0.0831
  352MOL0     C48494   1.695   2.338   4.539 -0.4175 -0.3182  0.4560
  352MOL0     C48495   1.589   2.414   4.603  0.3540  0.7022 -0.0220
  352MOL0     C48496   1.601   2.547   4.653  0.0678  0.7773 -0.3003
  352MOL0     O48497   1.503   2.627   4.692  0.5644 -0.4147 -0.0452
  352MOL0     C48498   1.367   2.598   4.650 -0.7452  0.2941 -0.1715
  352MOL0     C48499   1.297   2.498   4.746 -0.2136  0.1360 -0.5744
  352MOL0     C48500   1.372   2.491   4.885 -0.1885 -0.1479  0.4992
  352MOL0     C48501   1.365   2.620   4.975 -0.8668 -0.9471  0.4843
  352MOL0     C48502   1.429   2.609   5.108 -0.7194  0.2282  0.3312
  352MOL0     C48503   1.488   2.597   5.217 -0.5409  0.3997 -1.3860
  352MOL0     C48504   1.729   2.594   4.649 -0.3830  0.1836 -0.7762
  352MOL0     C48505   1.840   2.525   4.601 -0.4225 -0.5112 -0.8458
  352MOL0     C48506   1.979   2.586   4.632 -0.1404 -0.1162 -0.5985
  352MOL0     H48507   2.243   2.387   4.498  1.9486 -0.5758  0.9120
  352MOL0     H48508   2.447   2.335   4.413 -0.5682 -0.9605  0.4106
  352MOL0     H48509   2.565   2.073   4.240 -2.8320 -0.9565 -2.8603
  352MOL0     H48510   2.635   2.215   4.303 -1.1400 -0.5856  1.3714
  352MOL0     H48511   2.756   2.050   4.147 -0.7546 -2.2107 -3.3583
  352MOL0     H48512   2.660   2.125   4.015 -2.3066  0.7272  1.4345
  352MOL0     H48513   2.761   2.331   4.033  2.4546 -0.9095 -4.5331
  352MOL0     H48514   2.841   2.284   4.187 -0.3348 -0.6051 -0.4615
  352MOL0     H48515   2.965   2.112   4.031 -0.0612 -1.0447 -2.6183
  352MOL0     H48516   2.912   2.208   3.901 -3.0229  0.7717  0.4306
  352MOL0     H48517   3.077   2.283   4.147  0.7330 -2.2353 -0.6925
  352MOL0     H48518   3.011   2.410   4.036  2.7815  2.0043 -1.5516
  352MOL0     H48519   3.218   2.191   3.973  1.0420 -1.3244 -3.4612
  352MOL0     H48520   3.136   2.270   3.844 -0.6180 -1.0811 -0.5934
  352MOL0     H48521   3.211   2.485   3.914 -1.3900 -0.9502  1.7050
  352MOL0     H48522   3.341   2.368   3.877  0.3292  0.6333 -0.4529
  352MOL0     H48523   3.239   2.497   4.123 -0.4437  0.3630 -2.2743
  352MOL0     H48524   3.330   2.339   4.143  0.1707 -0.7682  0.4240
  352MOL0     H48525   3.410   2.711   3.966  2.2059  1.0797 -0.7487
  352MOL0     H48526   3.802   2.716   3.927 -0.0706 -0.2014  0.2722
  352MOL0     H48527   3.712   2.831   4.007  0.0324  1.8905 -2.1804
  352MOL0     H48528   3.538   2.831   3.836 -0.3167 -2.2626 -0.1352
  352MOL0     H48529   3.682   2.878   3.757 -1.8559 -0.7917 -2.5237
  352MOL0     H48530   3.710   2.643   3.681 -0.3088 -0.8776 -0.0320
  352MOL0     H48531   3.550   2.600   3.751 -1.7621  1.0151 -1.5499
  352MOL0     H48532   3.479   2.798   3.585  0.8385 -0.1337 -0.3488
  352MOL0     H48533   3.626   2.774   3.501 -0.9925  3.8630  1.8675
  352MOL0     H48534   3.513   2.816   3.299 -1.1289  2.6445  1.2610
  352MOL0     H48535   3.331   2.857   3.006  2.2264 -0.6000 -0.8811
  352MOL0     H48536   3.480   2.904   3.097 -0.7736  2.3348  0.8678
  352MOL0     H48537   3.330   2.984   3.129 -1.5126  0.3429 -2.4988
  352MOL0     H48538   2.853   2.465   3.095 -2.3673  0.8294  0.6477
  352MOL0     H48539   2.651   2.475   2.985  1.6016 -2.2472  3.0594
  352MOL0     H48540   2.438   2.561   2.913 -0.9780  0.0895 -1.7645
  352MOL0     H48541   2.486   2.710   2.994  1.1415  1.6754  0.2173
  352MOL0     H48542   2.287   2.677   2.755 -0.6737 -0.3513  0.1993
  352MOL0     H48543   2.261   2.711   2.920  1.7736 -6.1636  0.6021
  352MOL0     H48544   2.404   2.897   2.713 -0.0921  0.2631 -0.2720
  352MOL0     H48545   2.375   2.931   2.889  1.5466  1.7832 -1.2135
  352MOL0     H48546   2.130   2.919   2.848 -1.1840 -2.7050 -2.3290
  352MOL0     H48547   2.157   2.906   2.685  0.1509 -3.4958  2.5099
  352MOL0     H48548   2.254   3.122   2.861 -1.2744  1.6279 -0.7121
  352MOL0     H48549   2.309   3.130   2.696 -0.9367  2.2744 -3.6386
  352MOL0     H48550   2.000   3.123   2.774 -2.8849  3.4975 -2.1502
  352MOL0     H48551   2.068   3.134   2.619 -0.5473 -0.1057 -0.3309
  352MOL0     H48552   2.176   3.355   2.692  0.0971 -0.1969  0.2195
  352MOL0     H48553   2.124   3.324   2.855  2.7305 -4.3140  0.1512
  352MOL0     H48554   1.964   3.481   2.773 -0.6626  0.3212  0.8206
  352MOL0     H48555   1.885   3.326   2.788  1.1192  0.5295  2.0190
  352MOL0     H48556   2.740   2.834   2.766 -1.1077 -0.9096 -0.8589
  352MOL0     H48557   2.973   2.842   2.910  1.6134 -0.8374 -0.3992
  352MOL0     H48558   3.105   2.547   3.308 -2.9539  3.2676  2.7976
  352MOL0     H48559   3.273   2.495   3.480 -0.0750 -1.5960 -1.3899
  352MOL0     H48560   2.270   2.241   4.036  1.6333 -3.5155  1.6683
  352MOL0     H48561   2.041   2.295   4.128  0.7857  0.2357 -0.0821
  352MOL0     H48562   1.679   2.237   4.501 -1.9550  0.3903 -0.8351
  352MOL0     H48563   1.497   2.356   4.593  0.6402  0.2145  0.1612
  352MOL0     H48564   1.308   2.690   4.643 -2.7058 -1.0302 -4.7762
  352MOL0     H48565   1.368   2.563   4.546  0.2393  3.3802 -1.3062
  352MOL0     H48566   1.271   2.399   4.708 -0.6960  0.5184 -1.2616
  352MOL0     H48567   1.200   2.536   4.779 -0.4803 -1.5510  0.7894
  352MOL0     H48568   1.336   2.409   4.948  1.0442 -1.1688 -0.0806
  352MOL0     H48569   1.478   2.469   4.867 -0.6981 -1.2779 -1.4215
  352MOL0     H48570   1.263   2.648   5.003 -1.1565 -1.0092 -0.4882
  352MOL0     H48571   1.409   2.697   4.912 -0.4754 -0.1322  1.7267
  352MOL0     H48572   1.534   2.578   5.312  0.3918 -1.8082 -2.2223
  352MOL0     H48573   1.755   2.695   4.680 -1.5287  0.4912 -0.7881
  352MOL0     H48574   1.993   2.609   4.738  0.9302 -1.2341 -0.4714
  352MOL0     H48575   2.068   2.531   4.601  0.0041 -0.6574  0.6809
  352MOL0     H48576   1.986   2.674   4.567  2.4817  0.3421  0.1455
  353MOL0     O48577   9.048  10.081   3.017 -0.4446 -0.3018 -0.3809
  353MOL0     C48578   9.049   9.992   2.932  0.6553 -0.1126 -0.3622
  353MOL0     O48579   9.149   9.957   2.848  0.5933 -0.2226  0.0172
  353MOL0     C48580   9.270  10.000   2.886 -0.1033 -0.9904 -0.1787
  353MOL0     C48581   9.319   9.990   3.025  0.1542 -0.2774  0.3659
  353MOL0     C48582   9.441  10.047   3.070 -0.5725 -0.2499 -0.0821
  353MOL0     C48583   9.526  10.108   2.982  0.0219 -0.1059 -0.8768
  353MOL0     O48584   9.632  10.156   3.038 -0.6395  0.3264  0.3933
  353MOL0     C48585   9.737  10.213   2.958 -0.3449 -0.5317 -0.3380
  353MOL0     C48586   9.828  10.113   2.901 -0.0653  0.2178 -0.1089
  353MOL0     C48587   9.948  10.147   2.809 -0.0633 -0.3912 -0.5168
  353MOL0     C48588   9.908  10.250   2.691  0.7962  0.9512 -0.5878
  353MOL0     C48589   9.979  10.385   2.702 -0.2340  0.1227  0.4215
  353MOL0     C48590  10.108  10.373   2.621 -0.7890 -0.4649 -0.6479
  353MOL0     C48591  10.172  10.511   2.615 -0.2195 -0.0807 -0.3082
  353MOL0     C48592  10.305  10.503   2.545  0.2504 -0.1742  0.5217
  353MOL0     N48593  10.367  10.631   2.529  0.1785 -0.4421 -0.1355
  353MOL0     C48594  10.468  10.670   2.601 -0.0727 -0.6755 -0.2874
  353MOL0     C48595  10.499  10.792   2.551  0.4856  0.3205 -0.6443
  353MOL0     C48596  10.599  10.868   2.618 -0.0290  0.2664 -0.0887
  353MOL0     C48597  10.589  11.011   2.558 -1.0946 -0.8725  0.8553
  353MOL0     C48598  10.466  11.085   2.611 -0.4824 -0.4289 -0.1113
  353MOL0     C48599  10.465  11.235   2.568 -0.7725 -1.2624 -0.6788
  353MOL0     O48600  10.558  11.313   2.656  0.7767  0.3868  0.3706
  353MOL0     C48601  10.543  11.450   2.657  0.4120 -0.1100  0.2083
  353MOL0     C48602  10.440  11.524   2.595  0.0718 -0.3471 -0.0053
  353MOL0     C48603  10.424  11.661   2.620  0.3183  0.7037 -0.7357
  353MOL0     C48604  10.295  11.713   2.569 -0.8765  0.4189  0.0335
  353MOL0     C48605  10.524  11.739   2.679  0.2114 -0.5668  0.2116
  353MOL0     C48606  10.532  11.893   2.674 -1.2914  0.1701 -0.1604
  353MOL0     O48607  10.643  11.952   2.723 -0.7567 -0.4781 -0.1670
  353MOL0     C48608  10.647  12.085   2.700 -0.6254  0.0717  0.2227
  353MOL0     C48609  10.705  12.139   2.584  0.0447 -0.4627 -0.4094
  353MOL0     C48610  10.725  12.278   2.571 -0.2765  0.6275  0.7840
  353MOL0     C48611  10.683  12.370   2.668 -0.1969 -0.3970 -1.2430
  353MOL0     O48612  10.714  12.500   2.659 -0.2830  0.3010  0.1686
  353MOL0     C48613  10.662  12.598   2.754 -0.7608 -0.4530  0.0659
  353MOL0     C48614  10.651  12.734   2.688  1.3081 -0.1901  0.2649
  353MOL0     C48615  10.602  12.854   2.773  0.0115  0.9131  0.5164
  353MOL0     C48616  10.720  12.930   2.840 -0.6314  0.2422  0.8465
  353MOL0     C48617  10.734  13.068   2.787  0.5138  0.2827  0.8309
  353MOL0     C48618  10.670  13.184   2.865  0.5806 -0.6092 -0.5391
  353MOL0     C48619  10.529  13.159   2.937  0.3237 -0.3413 -0.1758
  353MOL0     C48620  10.479  13.300   3.005  0.1389  0.2387 -0.7743
  353MOL0    Cl48621  10.312  13.302   3.081  0.3375 -0.3028 -0.3365
  353MOL0     C48622  10.618  12.311   2.782 -0.2618  0.4838 -0.6286
  353MOL0     C48623  10.600  12.174   2.791 -0.4399  0.2496 -1.2558
  353MOL0     O48624  10.434  11.954   2.633  0.4510 -0.8791 -0.1920
  353MOL0     C48625  10.629  11.662   2.740 -0.1748  0.0199 -0.0525
  353MOL0     C48626  10.638  11.522   2.730  0.2391  0.3699  0.4657
  353MOL0     N48627  10.431  10.815   2.431  0.2726  0.4371 -0.1631
  353MOL0     N48628  10.341  10.723   2.427 -0.2837 -0.6526  0.7358
  353MOL0     C48629   9.478  10.121   2.845  0.3215 -0.0848 -1.3778
  353MOL0     C48630   9.355  10.073   2.798 -0.1029 -1.5149  0.0660
  353MOL0     C48631   8.923   9.906   2.922  0.7810  1.0999  0.7231
  353MOL0     C48632   8.924   9.788   2.850 -0.6044  0.4473  0.2585
  353MOL0     C48633   8.815   9.710   2.836  0.0332 -0.2348 -0.0252
  353MOL0     C48634   8.686   9.748   2.882  0.7997  0.1088 -0.3489
  353MOL0     O48635   8.566   9.676   2.859 -0.3063 -0.7492  0.8761
  353MOL0     C48636   8.581   9.535   2.826 -0.2403  0.5109  0.5158
  353MOL0     C48637   8.603   9.529   2.672 -0.3487  0.5774 -0.0879
  353MOL0     C48638   8.643   9.392   2.619  0.0250 -0.7225 -0.7371
  353MOL0     C48639   8.526   9.291   2.621  1.1487 -0.2103  0.5438
  353MOL0     C48640   8.571   9.159   2.572 -0.0310 -0.2511  0.0388
  353MOL0     C48641   8.628   9.059   2.536 -0.1711  0.1412 -1.2740
  353MOL0     C48642   8.680   9.861   2.953 -0.4643  0.1650  0.1008
  353MOL0     C48643   8.792   9.939   2.979 -0.1876 -0.1402  0.9164
  353MOL0     C48644   8.769  10.069   3.051  0.6231  0.1357  0.6328
  353MOL0     H48645   9.240   9.948   3.086 -0.1640 -2.0634 -1.1646
  353MOL0     H48646   9.461  10.035   3.176 -1.0623 -2.2365 -0.1694
  353MOL0     H48647   9.798  10.267   3.031 -0.9246 -2.9653  2.0858
  353MOL0     H48648   9.704  10.287   2.884  3.5947  2.2259  0.3033
  353MOL0     H48649   9.868  10.053   2.983  0.2173 -0.1658 -0.5206
  353MOL0     H48650   9.768  10.042   2.842  1.6663 -1.0035 -0.4658
  353MOL0     H48651  10.022  10.189   2.878 -1.3188 -3.2985  2.8365
  353MOL0     H48652   9.990  10.053   2.774  2.5790  0.4757  0.0580
  353MOL0     H48653   9.940  10.201   2.598  0.5610 -1.4494  0.5011
  353MOL0     H48654   9.799  10.258   2.683  0.4172 -1.5506  0.8971
  353MOL0     H48655  10.004  10.422   2.802  0.7055 -1.5008  0.8309
  353MOL0     H48656   9.916  10.459   2.653 -1.7312  0.4813  2.7120
  353MOL0     H48657  10.171  10.302   2.675 -0.8792  0.9553  1.4566
  353MOL0     H48658  10.093  10.336   2.520  1.3124 -2.0962 -0.4222
  353MOL0     H48659  10.186  10.557   2.713  1.1937 -1.4205  0.1783
  353MOL0     H48660  10.101  10.575   2.563 -2.0000  1.6485  3.8242
  353MOL0     H48661  10.374  10.438   2.599 -1.6653 -2.1916  0.6713
  353MOL0     H48662  10.286  10.452   2.450 -0.7781 -0.0573  0.6532
  353MOL0     H48663  10.520  10.617   2.681 -1.1024  0.4040  1.1613
  353MOL0     H48664  10.702  10.831   2.612 -0.1970 -0.0947 -0.9796
  353MOL0     H48665  10.570  10.868   2.723 -4.0197  0.0539 -1.0193
  353MOL0     H48666  10.690  11.052   2.569  0.1149 -2.4699 -2.6458
  353MOL0     H48667  10.591  11.003   2.449 -1.3918  3.0606  0.4280
  353MOL0     H48668  10.372  11.049   2.568 -2.0262  1.1800  1.7711
  353MOL0     H48669  10.465  11.078   2.720  0.1516  0.3131 -0.0469
  353MOL0     H48670  10.499  11.250   2.465  2.2115 -1.5133  0.1772
  353MOL0     H48671  10.364  11.275   2.570  0.2923  1.7408 -1.6376
  353MOL0     H48672  10.368  11.470   2.534 -0.3948  2.3528 -2.0296
  353MOL0     H48673  10.226  11.631   2.547  0.0961 -1.7791  4.0626
  353MOL0     H48674  10.312  11.771   2.478 -0.4561  3.0622  1.6884
  353MOL0     H48675  10.243  11.767   2.649  2.3085  0.0738  2.5889
  353MOL0     H48676  10.750  12.077   2.508  0.0171 -2.3683  1.0495
  353MOL0     H48677  10.769  12.312   2.478  1.4350 -1.8436  0.5893
  353MOL0     H48678  10.563  12.571   2.791 -0.2152 -1.7708  0.6376
  353MOL0     H48679  10.729  12.605   2.840 -1.8532 -1.0836  0.9866
  353MOL0     H48680  10.749  12.761   2.647  0.7607  3.5570  1.1116
  353MOL0     H48681  10.578  12.731   2.607  0.7374 -0.9545  0.7982
  353MOL0     H48682  10.531  12.820   2.849 -1.7873  3.0753 -0.0950
  353MOL0     H48683  10.541  12.918   2.710  1.1597  1.8149  0.2959
  353MOL0     H48684  10.819  12.887   2.820  0.4088  2.7549  0.1892
  353MOL0     H48685  10.709  12.923   2.948  1.1461 -1.6525  0.9764
  353MOL0     H48686  10.836  13.103   2.772  0.0728  0.7522 -1.4277
  353MOL0     H48687  10.695  13.079   2.685  2.1130  1.6757  0.3262
  353MOL0     H48688  10.651  13.279   2.813  1.0515  1.6051  3.0033
  353MOL0     H48689  10.745  13.208   2.941 -2.4422 -1.7102  3.0448
  353MOL0     H48690  10.543  13.077   3.008  0.1207 -0.2913 -0.0768
  353MOL0     H48691  10.465  13.124   2.856  0.1743  0.6702 -0.5154
  353MOL0     H48692  10.476  13.382   2.932  4.1051  2.2556  1.0369
  353MOL0     H48693  10.547  13.327   3.086  1.9957 -3.1718 -1.0114
  353MOL0     H48694  10.590  12.389   2.851  0.2685  1.5240 -1.5622
  353MOL0     H48695  10.549  12.142   2.881 -0.3457  0.4230 -1.1396
  353MOL0     H48696  10.701  11.718   2.799 -0.0224 -0.1888 -0.0402
  353MOL0     H48697  10.719  11.468   2.778 -0.3669 -0.2768  0.7787
  353MOL0     H48698   9.553  10.158   2.776 -0.2665 -1.0578 -2.5596
  353MOL0     H48699   9.325  10.087   2.694  2.8779  0.5234 -0.6274
  353MOL0     H48700   9.018   9.748   2.814 -1.2738  2.4435 -4.3468
  353MOL0     H48701   8.836   9.623   2.774  6.0851  0.6587  0.1196
  353MOL0     H48702   8.665   9.486   2.875  0.1782 -0.2824 -0.9337
  353MOL0     H48703   8.497   9.473   2.858 -0.1674  0.5187  0.7209
  353MOL0     H48704   8.678   9.600   2.636  1.3335 -2.3753 -2.8820
  353MOL0     H48705   8.504   9.552   2.631 -0.6995 -0.9375 -0.1592
  353MOL0     H48706   8.691   9.388   2.521 -0.7427 -0.8516 -1.1210
  353MOL0     H48707   8.709   9.349   2.695 -1.9830  1.4394  2.5052
  353MOL0     H48708   8.458   9.324   2.541  4.1470  0.0039 -2.1407
  353MOL0     H48709   8.474   9.286   2.717  0.0989 -1.8417 -0.0746
  353MOL0     H48710   8.658   8.959   2.510 -1.2615 -0.8130  0.9284
  353MOL0     H48711   8.580   9.884   2.990 -0.4741 -0.8797  0.7584
  353MOL0     H48712   8.836  10.074   3.137  0.4064 -1.1399  0.8905
  353MOL0     H48713   8.797  10.155   2.989 -1.6091 -2.5436 -4.8497
  353MOL0     H48714   8.664  10.076   3.083  1.5515  0.1142  4.1096
  354MOL0     O48715   3.015   0.622   0.302  0.6634 -1.0129  0.1015
  354MOL0     C48716   3.034   0.732   0.250  0.3414  1.0429 -0.6455
  354MOL0     O48717   3.134   0.816   0.295  0.1198 -0.9294  0.1170
  354MOL0     C48718   3.228   0.771   0.386 -0.2296 -0.3376  0.0963
  354MOL0     C48719   3.196   0.783   0.524 -0.2321 -0.5462  0.2964
  354MOL0     C48720   3.300   0.758   0.623 -0.1685  0.4460 -0.1666
  354MOL0     C48721   3.422   0.701   0.585  0.4390 -0.3435  0.1009
  354MOL0     O48722   3.501   0.661   0.689 -0.2405 -0.2641 -0.2556
  354MOL0     C48723   3.536   0.520   0.656 -0.4588  0.1532  0.4920
  354MOL0     C48724   3.679   0.478   0.702  0.3537  0.9746  0.4323
  354MOL0     C48725   3.708   0.510   0.842 -0.7621 -0.7600  0.3806
  354MOL0     C48726   3.796   0.410   0.911 -0.3955 -1.0387 -0.5760
  354MOL0     C48727   3.841   0.461   1.042 -0.1991 -0.6606  0.2865
  354MOL0     C48728   3.924   0.366   1.135 -0.2183 -0.0931 -0.4446
  354MOL0     C48729   3.941   0.431   1.275  0.2280  0.5931  0.4039
  354MOL0     C48730   4.043   0.553   1.278  0.4671  0.1008 -0.3525
  354MOL0     N48731   4.020   0.637   1.400 -0.1376 -0.0732 -0.1824
  354MOL0     C48732   4.013   0.585   1.523  0.4027  0.5157 -0.1100
  354MOL0     C48733   3.989   0.692   1.604  0.0481 -0.5012 -0.6968
  354MOL0     C48734   3.971   0.673   1.758 -0.0363 -0.3431  0.6227
  354MOL0     C48735   3.954   0.816   1.806 -0.1570  0.0687 -0.4209
  354MOL0     C48736   3.909   0.799   1.953 -0.2009 -0.2031  0.3004
  354MOL0     C48737   3.871   0.936   2.007  0.4227 -0.3756 -0.2159
  354MOL0     O48738   3.966   1.044   1.987 -0.8412  0.7229 -0.2587
  354MOL0     C48739   4.063   1.067   2.081 -0.5195 -0.8219  0.2599
  354MOL0     C48740   4.122   1.184   2.067 -0.1711 -0.7514 -0.4754
  354MOL0     C48741   4.211   1.225   2.160  0.2729 -0.8102  0.1909
  354MOL0     C48742   4.279   1.359   2.136 -0.6387  0.3910  0.3147
  354MOL0     C48743   4.259   1.139   2.264 -0.0784 -0.5000  0.4731
  354MOL0     C48744   4.376   1.167   2.329  0.6378 -0.2415  0.0450
  354MOL0     O48745   4.373   1.213   2.460 -0.0458 -0.4064 -0.7669
  354MOL0     C48746   4.265   1.285   2.505 -0.1663  0.8862  0.3884
  354MOL0     C48747   4.257   1.425   2.489  0.3377 -0.4303  0.2759
  354MOL0     C48748   4.154   1.505   2.546 -0.4487  0.0518  0.2291
  354MOL0     C48749   4.052   1.442   2.610 -1.0933 -0.8094 -0.1661
  354MOL0     O48750   3.947   1.523   2.650 -1.2118 -0.2063 -0.3325
  354MOL0     C48751   3.823   1.454   2.684 -0.9677  0.8758 -0.0644
  354MOL0     C48752   3.726   1.556   2.745 -0.0466 -0.6080 -0.5028
  354MOL0     C48753   3.689   1.659   2.637  0.5542  0.1172 -0.2317
  354MOL0     C48754   3.627   1.799   2.694 -0.8655 -0.2196 -0.3570
  354MOL0     C48755   3.659   1.919   2.606  0.0191 -0.1936  0.7312
  354MOL0     C48756   3.602   1.926   2.469 -0.5680  0.3067  0.1815
  354MOL0     C48757   3.445   1.911   2.455  0.2274 -0.3936 -0.0167
  354MOL0     C48758   3.387   1.923   2.322 -0.2718 -0.0600 -0.5367
  354MOL0    Cl48759   3.400   1.775   2.218  0.1343 -0.3125 -0.2048
  354MOL0     C48760   4.068   1.311   2.646  0.1986 -0.8714 -0.8589
  354MOL0     C48761   4.178   1.233   2.597 -0.6108  0.0591  0.6595
  354MOL0     O48762   4.478   1.144   2.259 -0.2127 -1.1873 -0.0387
  354MOL0     C48763   4.204   1.006   2.266 -0.2588  0.1774 -0.6117
  354MOL0     C48764   4.102   0.978   2.179  0.2131 -0.5270  0.7206
  354MOL0     N48765   3.995   0.810   1.526 -0.4385 -0.6431  0.4321
  354MOL0     N48766   4.007   0.774   1.405  0.0244  0.5777 -0.5965
  354MOL0     C48767   3.449   0.691   0.447 -0.1781 -0.0218  0.3744
  354MOL0     C48768   3.358   0.731   0.350  0.0532 -0.3508  0.2518
  354MOL0     C48769   2.951   0.770   0.132 -0.7150 -0.3889  0.4566
  354MOL0     C48770   3.007   0.848   0.028  0.5409  0.9269 -0.0829
  354MOL0     C48771   2.923   0.891  -0.073  0.1406  0.4952  0.1485
  354MOL0     C48772   2.802   0.833  -0.099  0.1031 -0.1539  0.5930
  354MOL0     O48773   2.731   0.858  -0.216 -0.0939  0.0748  0.6289
  354MOL0     C48774   2.662   0.763  -0.303 -0.5661 -0.6519 -0.5517
  354MOL0     C48775   2.680   0.800  -0.448  1.4028  0.2431 -0.0514
  354MOL0     C48776   2.830   0.817  -0.478 -0.6353 -0.7080 -0.4541
  354MOL0     C48777   2.848   0.906  -0.604 -0.0491  0.7347 -0.2493
  354MOL0     C48778   2.781   0.856  -0.727  0.3613  0.2402 -0.6454
  354MOL0     C48779   2.719   0.820  -0.825  0.3440  0.1046 -0.0016
  354MOL0     C48780   2.738   0.771   0.012 -0.5291 -0.0778  0.5768
  354MOL0     C48781   2.811   0.738   0.130  1.2220  0.0393 -0.1697
  354MOL0     C48782   2.742   0.660   0.244  0.5076 -0.0697 -0.7502
  354MOL0     H48783   3.102   0.820   0.563  1.0967  3.1498  0.3990
  354MOL0     H48784   3.279   0.770   0.729 -0.1075  0.9363 -0.2089
  354MOL0     H48785   3.549   0.499   0.549  0.5042  1.4645  0.3224
  354MOL0     H48786   3.457   0.452   0.690 -2.0673  0.0427 -2.9581
  354MOL0     H48787   3.686   0.369   0.689  0.5691  1.0019  0.3075
  354MOL0     H48788   3.752   0.525   0.635  0.4806 -0.5457 -0.5398
  354MOL0     H48789   3.751   0.610   0.838  1.5779 -1.7319 -1.4191
  354MOL0     H48790   3.617   0.528   0.899  0.4190  1.7070  1.6534
  354MOL0     H48791   3.730   0.323   0.922 -2.1308  0.0240 -2.0511
  354MOL0     H48792   3.883   0.379   0.852 -0.9047 -1.9294 -0.8763
  354MOL0     H48793   3.746   0.484   1.091  0.1289  1.1196  0.1669
  354MOL0     H48794   3.894   0.557   1.036 -0.4428 -0.5893 -1.2499
  354MOL0     H48795   3.876   0.269   1.141  0.1807 -0.2215  1.1000
  354MOL0     H48796   4.023   0.357   1.090 -0.0341  0.6396 -0.2065
  354MOL0     H48797   3.970   0.356   1.350 -2.1984  1.4066  2.2742
  354MOL0     H48798   3.841   0.462   1.306  0.0889 -0.1447  0.7026
  354MOL0     H48799   4.142   0.507   1.282 -0.0869 -1.2574  4.2967
  354MOL0     H48800   4.025   0.623   1.196 -0.8382 -2.1177 -2.0682
  354MOL0     H48801   4.006   0.484   1.561 -1.2873  0.8629  0.5871
  354MOL0     H48802   4.066   0.638   1.798  0.4773  2.8046  2.4825
  354MOL0     H48803   3.884   0.608   1.777 -2.7062  3.0544  1.0555
  354MOL0     H48804   4.053   0.864   1.805  0.0424 -0.1803  1.9651
  354MOL0     H48805   3.876   0.874   1.756 -0.5945  0.2243  0.4210
  354MOL0     H48806   3.832   0.722   1.954  0.8779 -1.3440 -0.4093
  354MOL0     H48807   3.988   0.755   2.015 -1.5185 -1.5960  1.0727
  354MOL0     H48808   3.778   0.964   1.955 -1.6425 -4.2739  0.9779
  354MOL0     H48809   3.850   0.925   2.114  0.8882  1.1986  0.0752
  354MOL0     H48810   4.102   1.251   1.984  1.4880 -0.8604 -0.9990
  354MOL0     H48811   4.332   1.346   2.041 -0.7896 -2.5614  0.5350
  354MOL0     H48812   4.352   1.392   2.211  0.0997 -0.2570 -0.1008
  354MOL0     H48813   4.199   1.434   2.135 -0.4701  0.5681  0.2198
  354MOL0     H48814   4.337   1.471   2.432  1.5038  1.1745  2.9798
  354MOL0     H48815   4.151   1.613   2.540  0.9017  0.1993  1.8436
  354MOL0     H48816   3.781   1.411   2.593 -0.8298  0.9489 -0.1624
  354MOL0     H48817   3.836   1.384   2.767 -3.1720  0.7246  0.2141
  354MOL0     H48818   3.639   1.501   2.783  2.0448 -1.3895  3.6775
  354MOL0     H48819   3.771   1.602   2.833 -1.1348 -0.1230 -0.1776
  354MOL0     H48820   3.627   1.609   2.562  1.0494 -0.0105 -0.5585
  354MOL0     H48821   3.782   1.689   2.588  2.2292 -2.7300  0.9516
  354MOL0     H48822   3.675   1.806   2.792  2.5229 -2.6982 -1.6317
  354MOL0     H48823   3.519   1.786   2.708 -0.5334 -0.9395  1.9989
  354MOL0     H48824   3.623   2.005   2.663 -2.0823 -2.8008  3.6578
  354MOL0     H48825   3.768   1.923   2.595 -0.0771 -1.0757 -1.0339
  354MOL0     H48826   3.652   1.854   2.403 -1.4231  0.3294 -0.5188
  354MOL0     H48827   3.626   2.025   2.429  0.7719  0.0094  0.2307
  354MOL0     H48828   3.398   1.988   2.518 -0.2920 -1.5294  1.0153
  354MOL0     H48829   3.405   1.818   2.496 -0.4245  1.3645  3.7978
  354MOL0     H48830   3.414   2.014   2.268  1.9742 -0.3152  0.0490
  354MOL0     H48831   3.278   1.933   2.332 -0.2940 -0.9647  0.3714
  354MOL0     H48832   4.006   1.251   2.712  1.2587 -1.6777 -0.5621
  354MOL0     H48833   4.180   1.124   2.607 -2.0357 -0.0392  0.0287
  354MOL0     H48834   4.251   0.932   2.330  1.3564  1.5164 -0.1495
  354MOL0     H48835   4.038   0.892   2.197  0.6048 -1.2421 -1.0750
  354MOL0     H48836   3.548   0.663   0.413  0.2479  2.4088 -0.5292
  354MOL0     H48837   3.392   0.720   0.247 -0.1298  0.1155  0.1408
  354MOL0     H48838   3.107   0.891   0.037  0.7646  0.1711  1.2904
  354MOL0     H48839   2.963   0.953  -0.153 -0.9084  1.2372  0.1718
  354MOL0     H48840   2.710   0.665  -0.295  1.2123  0.2146 -0.2088
  354MOL0     H48841   2.554   0.756  -0.289 -0.5977 -0.8054 -0.8672
  354MOL0     H48842   2.628   0.893  -0.472  1.0068 -0.6615 -3.1170
  354MOL0     H48843   2.625   0.731  -0.512 -0.8370  2.4003 -0.5936
  354MOL0     H48844   2.895   0.859  -0.402 -1.5255 -0.3549  0.1299
  354MOL0     H48845   2.862   0.715  -0.501 -4.9983 -1.5964 -4.0015
  354MOL0     H48846   2.952   0.930  -0.626 -1.2209  5.9926 -1.4749
  354MOL0     H48847   2.810   1.006  -0.579  0.9102  1.4745 -1.6577
  354MOL0     H48848   2.660   0.797  -0.912 -1.2901  0.3809  0.9853
  354MOL0     H48849   2.635   0.740  -0.003 -0.4882  0.8765 -2.3345
  354MOL0     H48850   2.633   0.672   0.243  0.8013  4.9296  0.9984
  354MOL0     H48851   2.762   0.553   0.248 -1.4839 -0.4289  1.2276
  354MOL0     H48852   2.778   0.691   0.342  1.5081 -0.9888 -0.8128
  355MOL0     O48853  10.763   8.551   0.790 -0.3807 -0.1788 -0.0204
  355MOL0     C48854  10.680   8.461   0.766  0.1197 -0.1937 -0.3355
  355MOL0     O48855  10.561   8.479   0.707 -0.7572 -0.5184 -1.2814
  355MOL0     C48856  10.509   8.607   0.686 -0.4223  0.6346 -0.1857
  355MOL0     C48857  10.431   8.630   0.572 -0.8451  0.2416 -0.2508
  355MOL0     C48858  10.351   8.742   0.552  0.0418  0.2858 -0.2860
  355MOL0     C48859  10.352   8.843   0.642 -0.2573 -0.5887  0.6593
  355MOL0     O48860  10.276   8.948   0.655  0.2338 -1.0430 -0.3151
  355MOL0     C48861  10.176   8.975   0.553 -0.8175  1.1999  1.0552
  355MOL0     C48862  10.082   9.086   0.592  0.3892  0.2022  0.6305
  355MOL0     C48863  10.154   9.208   0.643 -0.5403  0.0461  0.7658
  355MOL0     C48864  10.061   9.335   0.646 -0.5105  0.0035  0.7242
  355MOL0     C48865  10.125   9.458   0.730  0.4354  0.6200  1.1168
  355MOL0     C48866  10.216   9.545   0.639 -0.2816  1.2719  0.1998
  355MOL0     C48867  10.360   9.489   0.635  0.2172  1.1084  0.2024
  355MOL0     C48868  10.459   9.576   0.555 -0.6898 -0.9637  0.3730
  355MOL0     N48869  10.600   9.564   0.586  0.1787 -0.4465 -0.3961
  355MOL0     C48870  10.692   9.653   0.638  0.5677  0.4853 -0.8900
  355MOL0     C48871  10.802   9.583   0.636  0.2255 -0.6523  0.5269
  355MOL0     C48872  10.923   9.636   0.695  0.6552  0.6268  0.5687
  355MOL0     C48873  10.971   9.574   0.824 -0.4660  0.5147  0.9056
  355MOL0     C48874  11.040   9.438   0.799  0.1028 -0.2231  1.2290
  355MOL0     C48875  11.173   9.449   0.732 -0.1220 -0.0965  0.0321
  355MOL0     O48876  11.280   9.458   0.832 -0.3145 -0.2016  0.7809
  355MOL0     C48877  11.412   9.449   0.794  0.2958 -0.0700 -0.8996
  355MOL0     C48878  11.501   9.424   0.892 -0.2509  0.7292 -0.0913
  355MOL0     C48879  11.639   9.404   0.862 -0.1429  1.0880  0.0855
  355MOL0     C48880  11.731   9.353   0.973  0.6991  0.7109 -0.5519
  355MOL0     C48881  11.690   9.439   0.735 -0.1383 -1.0835  0.3666
  355MOL0     C48882  11.829   9.448   0.697  0.4739 -0.7409  0.2453
  355MOL0     O48883  11.924   9.419   0.795  0.4023 -0.3436  0.2835
  355MOL0     C48884  12.054   9.413   0.756  0.5704  0.2809 -0.3596
  355MOL0     C48885  12.112   9.373   0.630  0.1654 -0.0975  0.1381
  355MOL0     C48886  12.252   9.353   0.618 -0.0377 -0.6295 -0.1078
  355MOL0     C48887  12.333   9.341   0.728 -0.0387 -0.4555 -0.6278
  355MOL0     O48888  12.465   9.290   0.743  0.2605 -0.9216  0.2694
  355MOL0     C48889  12.546   9.295   0.621  0.8401  0.0556 -0.7637
  355MOL0     C48890  12.677   9.236   0.653  0.2975 -0.6270  0.5206
  355MOL0     C48891  12.772   9.210   0.530  0.0196 -0.4838 -0.0168
  355MOL0     C48892  12.924   9.188   0.570  0.7620  0.7595 -0.0188
  355MOL0     C48893  13.003   9.315   0.620 -0.7806 -0.0966  0.3374
  355MOL0     C48894  13.127   9.277   0.696 -0.0213  0.3657 -0.8027
  355MOL0     C48895  13.236   9.222   0.599 -1.2190 -0.5835  0.5762
  355MOL0     C48896  13.347   9.143   0.679  0.1791  0.6838  0.3817
  355MOL0    Cl48897  13.467   9.266   0.696 -0.1697  0.2155 -0.1169
  355MOL0     C48898  12.278   9.384   0.846 -0.9067  0.1879  0.0186
  355MOL0     C48899  12.139   9.415   0.863 -0.1301 -0.0075 -0.5392
  355MOL0     O48900  11.848   9.487   0.587 -0.3213 -0.4258  0.3382
  355MOL0     C48901  11.592   9.465   0.637  0.9843  0.3648 -0.1809
  355MOL0     C48902  11.456   9.461   0.668 -0.5072 -0.7124 -0.2207
  355MOL0     N48903  10.777   9.455   0.592  0.1478  0.2655 -0.2230
  355MOL0     N48904  10.649   9.446   0.554  0.0502  0.3047  0.3735
  355MOL0     C48905  10.441   8.832   0.749 -0.5338  0.7444 -0.4079
  355MOL0     C48906  10.513   8.709   0.780 -0.2778 -0.6488 -0.1180
  355MOL0     C48907  10.714   8.320   0.807 -0.4736 -0.1569  0.9241
  355MOL0     C48908  10.631   8.223   0.749 -0.4173  0.2487 -0.5514
  355MOL0     C48909  10.648   8.085   0.785 -0.3895 -0.6994  0.3535
  355MOL0     C48910  10.736   8.043   0.883 -0.8467  0.0521 -0.1703
  355MOL0     O48911  10.743   7.912   0.927 -0.3110 -0.7338  0.1130
  355MOL0     C48912  10.686   7.888   1.055 -0.3777  0.0699  0.3307
  355MOL0     C48913  10.543   7.858   1.050  0.1210 -0.2498  0.1474
  355MOL0     C48914  10.459   7.914   1.151 -0.2518 -0.2996 -1.0092
  355MOL0     C48915  10.484   7.878   1.300  0.2828 -0.2016  0.5408
  355MOL0     C48916  10.449   7.743   1.338 -0.5643  1.0021 -0.1533
  355MOL0     C48917  10.442   7.631   1.396 -0.6229  0.3622 -0.1235
  355MOL0     C48918  10.824   8.139   0.938 -0.7808  0.2880  0.6863
  355MOL0     C48919  10.822   8.276   0.902  0.3543 -0.1702  0.3300
  355MOL0     C48920  10.925   8.372   0.971 -0.5289 -0.3234  0.2717
  355MOL0     H48921  10.443   8.557   0.493 -0.5467 -1.2893  1.1612
  355MOL0     H48922  10.287   8.744   0.464  2.4546  0.8428 -2.1211
  355MOL0     H48923  10.119   8.882   0.539  0.5398  0.4418  0.3804
  355MOL0     H48924  10.225   9.011   0.462 -1.8239  3.6524  1.3994
  355MOL0     H48925  10.023   9.112   0.503  2.1762 -1.2609 -1.0513
  355MOL0     H48926  10.013   9.043   0.665 -0.9089  1.0023 -0.0895
  355MOL0     H48927  10.212   9.182   0.731 -0.8538 -2.0875  0.4109
  355MOL0     H48928  10.227   9.228   0.564  0.2946  0.4918  1.6349
  355MOL0     H48929  10.032   9.363   0.544 -0.8416 -0.9325  0.5500
  355MOL0     H48930   9.968   9.304   0.695 -1.5381  1.9753  0.1049
  355MOL0     H48931  10.173   9.414   0.818  1.0172 -1.0094  0.0273
  355MOL0     H48932  10.051   9.529   0.770 -0.2331 -0.0426  1.0870
  355MOL0     H48933  10.165   9.543   0.542 -1.5795 -1.2524  0.8522
  355MOL0     H48934  10.223   9.647   0.678 -2.0734  0.9565  1.4526
  355MOL0     H48935  10.369   9.393   0.583  0.5005  2.0999 -1.6610
  355MOL0     H48936  10.393   9.479   0.739 -0.3900  2.7467  0.5801
  355MOL0     H48937  10.446   9.557   0.448  2.3452 -2.1873  0.1075
  355MOL0     H48938  10.439   9.682   0.568  1.0789 -0.2303 -2.0838
  355MOL0     H48939  10.673   9.754   0.674  1.8836 -0.1460  1.7685
  355MOL0     H48940  10.916   9.744   0.710 -0.5391  0.7264 -0.5224
  355MOL0     H48941  11.000   9.621   0.619  0.5139 -2.6812  0.9455
  355MOL0     H48942  11.050   9.636   0.868  1.6280 -1.3051 -0.0931
  355MOL0     H48943  10.884   9.568   0.889 -1.6666  0.5819 -0.6488
  355MOL0     H48944  11.049   9.381   0.893  2.3078 -1.2923  0.4289
  355MOL0     H48945  10.975   9.369   0.745  0.0144  0.2116  0.7771
  355MOL0     H48946  11.190   9.359   0.673  2.9251  1.2749 -1.4237
  355MOL0     H48947  11.184   9.536   0.666 -2.5531 -0.1762 -0.5677
  355MOL0     H48948  11.465   9.423   0.995 -0.1457  3.0447  0.0016
  355MOL0     H48949  11.786   9.265   0.938  1.6586  0.6942  0.9206
  355MOL0     H48950  11.673   9.323   1.061 -0.0518 -2.8052 -2.0450
  355MOL0     H48951  11.800   9.430   1.005 -0.7673  1.8626 -0.0303
  355MOL0     H48952  12.051   9.346   0.544  1.9639  0.4543 -1.3840
  355MOL0     H48953  12.288   9.318   0.522  4.8225  1.3244  0.7284
  355MOL0     H48954  12.507   9.246   0.532  1.2177 -1.9288  0.1047
  355MOL0     H48955  12.569   9.397   0.590  1.9209  0.0176 -0.1369
  355MOL0     H48956  12.729   9.302   0.723  0.0335  2.3433 -1.8631
  355MOL0     H48957  12.662   9.134   0.690  0.7233 -1.3403 -1.1868
  355MOL0     H48958  12.755   9.294   0.462  0.8383  0.1907  0.5846
  355MOL0     H48959  12.723   9.123   0.484 -2.5760 -0.0832  1.7472
  355MOL0     H48960  12.980   9.132   0.495  0.5975 -2.6989  2.2343
  355MOL0     H48961  12.902   9.105   0.638 -4.6969 -1.0751 -3.4109
  355MOL0     H48962  13.031   9.371   0.530 -0.0176 -1.9629 -0.6240
  355MOL0     H48963  12.935   9.380   0.677 -1.0911  1.7923 -2.0084
  355MOL0     H48964  13.106   9.201   0.772  1.6548  0.4605 -0.1844
  355MOL0     H48965  13.163   9.365   0.751 -0.7571  1.7104 -2.3996
  355MOL0     H48966  13.287   9.308   0.557 -1.2096 -0.1947  1.3653
  355MOL0     H48967  13.204   9.158   0.516  2.0193  2.0339 -3.0482
  355MOL0     H48968  13.390   9.058   0.626 -0.4499  1.3333 -1.2309
  355MOL0     H48969  13.322   9.105   0.779 -1.0654  2.0990  0.6442
  355MOL0     H48970  12.334   9.370   0.938 -1.4353 -1.9884  0.0643
  355MOL0     H48971  12.097   9.431   0.961 -1.9072 -0.6151 -1.1680
  355MOL0     H48972  11.616   9.462   0.531  1.2297 -4.2123 -0.2105
  355MOL0     H48973  11.389   9.472   0.583 -0.1782 -0.8429 -0.4977
  355MOL0     H48974  10.437   8.907   0.828  0.1287  0.4582 -0.0968
  355MOL0     H48975  10.578   8.703   0.866 -1.4397  2.0117  1.0681
  355MOL0     H48976  10.558   8.253   0.674  0.8991  1.3075 -1.4785
  355MOL0     H48977  10.573   8.019   0.743 -1.8818  2.0279 -1.5407
  355MOL0     H48978  10.725   7.809   1.120  0.7511  0.2875 -0.0652
  355MOL0     H48979  10.705   7.975   1.119 -1.3771 -0.5517  1.5103
  355MOL0     H48980  10.522   7.752   1.031 -2.6879  0.2346  0.1626
  355MOL0     H48981  10.501   7.905   0.961  1.4802  0.3104 -0.2218
  355MOL0     H48982  10.469   8.023   1.152  1.4477 -0.3781 -3.0611
  355MOL0     H48983  10.359   7.877   1.128  1.2724 -3.7856 -2.7932
  355MOL0     H48984  10.414   7.944   1.353  1.9188  3.5149 -1.4948
  355MOL0     H48985  10.590   7.898   1.314  1.1061 -1.7089 -2.6809
  355MOL0     H48986  10.450   7.535   1.441  0.4517  0.7299  0.5036
  355MOL0     H48987  10.892   8.108   1.016 -0.5023 -1.4764 -0.1938
  355MOL0     H48988  10.997   8.306   1.020 -0.4956 -0.8059 -0.4235
  355MOL0     H48989  10.985   8.440   0.910  1.1072 -1.4234  0.5873
  355MOL0     H48990  10.871   8.437   1.040 -1.7062 -0.7115 -0.2600
  356MOL0     O48991   5.496   9.922   9.096 -0.6650  0.4432  0.7126
  356MOL0     C48992   5.522   9.890   9.212  1.3316  0.0149 -0.2748
  356MOL0     O48993   5.637   9.911   9.275 -0.4732  0.1340  0.2791
  356MOL0     C48994   5.746   9.968   9.217 -0.1074 -0.0606 -0.6748
  356MOL0     C48995   5.738  10.097   9.155  0.4815 -0.2799 -1.0042
  356MOL0     C48996   5.859  10.166   9.119  0.8130  0.2341  0.6381
  356MOL0     C48997   5.982  10.100   9.145 -0.7904 -0.1349  0.6128
  356MOL0     O48998   6.106  10.151   9.111 -0.5359  0.2021  0.5218
  356MOL0     C48999   6.114  10.290   9.074 -0.5059 -0.5658 -0.3484
  356MOL0     C49000   6.256  10.335   9.078 -0.2629  0.0736  0.9803
  356MOL0     C49001   6.248  10.476   9.032  0.3130 -0.7791  0.1123
  356MOL0     C49002   6.389  10.537   9.015  0.3956 -0.8015 -0.4560
  356MOL0     C49003   6.372  10.663   8.918  0.9943 -0.4418  0.3423
  356MOL0     C49004   6.492  10.759   8.935 -0.1230 -0.8946  0.2849
  356MOL0     C49005   6.630  10.701   8.894  0.4801 -0.0569 -0.6322
  356MOL0     C49006   6.637  10.619   8.767  0.2559  0.1516 -1.0950
  356MOL0     N49007   6.774  10.561   8.757  0.9484  0.0955 -0.1836
  356MOL0     C49008   6.884  10.629   8.725 -0.8303 -0.9760  0.1613
  356MOL0     C49009   6.989  10.540   8.718 -0.2017  0.2489 -0.8419
  356MOL0     C49010   7.138  10.546   8.693 -0.1356 -0.5393  0.1393
  356MOL0     C49011   7.208  10.581   8.822  0.9815 -0.5065 -0.0028
  356MOL0     C49012   7.361  10.567   8.816 -0.2888 -0.4934  0.4622
  356MOL0     C49013   7.430  10.659   8.720 -0.3539 -0.5150 -0.0338
  356MOL0     O49014   7.417  10.791   8.775  0.4572  0.1558 -0.8148
  356MOL0     C49015   7.497  10.904   8.757 -0.5950  0.1335 -0.1489
  356MOL0     C49016   7.468  11.027   8.815  0.8551 -0.5359  0.4205
  356MOL0     C49017   7.532  11.146   8.779 -0.9860 -0.6596  1.4308
  356MOL0     C49018   7.503  11.273   8.849  1.1769  0.8302  0.7866
  356MOL0     C49019   7.627  11.146   8.668 -0.7273 -0.5944 -0.5362
  356MOL0     C49020   7.701  11.268   8.608 -0.2031  0.4657  0.5352
  356MOL0     O49021   7.706  11.375   8.676 -0.7666 -0.4790  0.3681
  356MOL0     C49022   7.757  11.486   8.623  0.5602  1.0002 -0.5035
  356MOL0     C49023   7.878  11.497   8.560 -0.0316 -0.5309 -0.8155
  356MOL0     C49024   7.911  11.602   8.472  0.4610 -0.5206  0.7925
  356MOL0     C49025   7.811  11.691   8.433  0.7189 -0.4568  0.5756
  356MOL0     O49026   7.834  11.789   8.344 -0.8915  0.4968 -0.1421
  356MOL0     C49027   7.889  11.761   8.214 -0.2365  0.0928  0.3546
  356MOL0     C49028   8.035  11.815   8.197 -0.4623 -0.0149  0.8532
  356MOL0     C49029   8.088  11.780   8.049 -0.0210  0.5014 -0.0837
  356MOL0     C49030   8.235  11.833   8.028  0.6406 -0.7787 -0.2897
  356MOL0     C49031   8.285  11.847   7.888  0.5286 -0.5865 -0.3627
  356MOL0     C49032   8.242  11.987   7.835 -0.8526  0.3052 -0.8406
  356MOL0     C49033   8.277  12.006   7.684 -0.6587  0.8370  0.0807
  356MOL0     C49034   8.223  12.141   7.627 -0.2217 -0.7108 -0.0413
  356MOL0    Cl49035   8.275  12.169   7.459  0.0699 -0.0518 -0.4683
  356MOL0     C49036   7.694  11.688   8.506 -0.6327  0.9951 -0.0062
  356MOL0     C49037   7.657  11.581   8.594 -0.0609 -0.9119 -0.1356
  356MOL0     O49038   7.738  11.250   8.490  0.6647 -0.3437  0.0109
  356MOL0     C49039   7.661  11.016   8.615  0.1846  0.9594  0.1603
  356MOL0     C49040   7.590  10.901   8.658  0.0197  0.3795  0.3370
  356MOL0     N49041   6.929  10.415   8.744 -0.1894 -1.1034 -0.2662
  356MOL0     N49042   6.801  10.427   8.772  0.7034  0.1432 -0.4943
  356MOL0     C49043   5.989   9.975   9.199 -0.4850  0.6349  0.5075
  356MOL0     C49044   5.869   9.912   9.233  0.3776  0.9154  0.0563
  356MOL0     C49045   5.422   9.807   9.288 -0.1792  0.1270  0.7462
  356MOL0     C49046   5.459   9.722   9.393 -0.2337 -0.4073  0.3968
  356MOL0     C49047   5.378   9.631   9.457  0.0757  0.3193  0.0046
  356MOL0     C49048   5.245   9.621   9.418 -0.8405  0.9816  0.0312
  356MOL0     O49049   5.176   9.525   9.489 -0.2404  0.0819 -0.0821
  356MOL0     C49050   5.053   9.485   9.417 -0.5787 -0.4221  0.4764
  356MOL0     C49051   5.003   9.362   9.478  0.2283  0.7334  0.5850
  356MOL0     C49052   5.027   9.346   9.632 -0.1425  0.2110 -0.8475
  356MOL0     C49053   4.958   9.225   9.689 -0.9098 -0.2702 -0.3224
  356MOL0     C49054   4.959   9.109   9.596 -1.0891  0.1202 -0.4353
  356MOL0     C49055   4.981   9.015   9.525 -0.0394 -0.1060  0.3333
  356MOL0     C49056   5.198   9.713   9.323  0.3383 -0.4329 -0.7782
  356MOL0     C49057   5.283   9.800   9.254  1.0014 -0.4838  0.3447
  356MOL0     C49058   5.226   9.906   9.159 -0.6830  0.9560 -0.1359
  356MOL0     H49059   5.641  10.144   9.146 -0.8843 -2.3627  1.2893
  356MOL0     H49060   5.844  10.264   9.074 -0.8747 -0.0494  0.5415
  356MOL0     H49061   6.058  10.339   9.154 -2.2263 -0.3127 -1.6473
  356MOL0     H49062   6.064  10.314   8.979 -1.6802  1.3134  0.6935
  356MOL0     H49063   6.299  10.323   9.178  1.4394 -1.3049  0.1297
  356MOL0     H49064   6.317  10.278   9.008 -0.3395  1.5534 -0.3629
  356MOL0     H49065   6.199  10.486   8.935  1.9958 -1.6102 -0.8703
  356MOL0     H49066   6.194  10.538   9.105  1.8736 -2.9058  3.3094
  356MOL0     H49067   6.417  10.578   9.112  0.3468 -1.4883 -0.1499
  356MOL0     H49068   6.457  10.455   8.992 -0.6595 -1.5291 -1.0964
  356MOL0     H49069   6.282  10.715   8.951  0.5568 -2.0171  1.7413
  356MOL0     H49070   6.363  10.640   8.812  3.9436  1.1627 -0.3770
  356MOL0     H49071   6.479  10.851   8.878 -2.2761 -1.3238 -0.0349
  356MOL0     H49072   6.492  10.787   9.040  1.0519  0.9039 -0.1475
  356MOL0     H49073   6.669  10.647   8.981 -0.5928  1.0011  0.5604
  356MOL0     H49074   6.697  10.787   8.887  1.7740 -1.1367 -2.3558
  356MOL0     H49075   6.568  10.535   8.766  1.0490 -0.5830 -4.2329
  356MOL0     H49076   6.596  10.685   8.690  0.9471  0.3299 -1.3210
  356MOL0     H49077   6.901  10.736   8.717 -0.5630 -1.1325 -2.1745
  356MOL0     H49078   7.162  10.629   8.625 -2.6027  0.9643  0.9675
  356MOL0     H49079   7.175  10.455   8.646  2.1286  1.4842 -2.3956
  356MOL0     H49080   7.184  10.684   8.853  0.1112 -0.5510 -0.5027
  356MOL0     H49081   7.152  10.524   8.898 -0.8780 -0.6416 -1.3981
  356MOL0     H49082   7.402  10.595   8.914  0.4241  0.5686 -0.1140
  356MOL0     H49083   7.410  10.472   8.795  1.3699 -0.3506  3.1468
  356MOL0     H49084   7.535  10.632   8.723 -0.5879 -1.3849  1.0468
  356MOL0     H49085   7.388  10.659   8.619  1.4169 -2.8560 -0.8608
  356MOL0     H49086   7.389  11.025   8.889 -3.5223  0.0242 -3.7271
  356MOL0     H49087   7.429  11.260   8.929  0.2418 -0.7724 -0.2817
  356MOL0     H49088   7.452  11.333   8.773 -2.1312 -3.3033 -0.6667
  356MOL0     H49089   7.593  11.320   8.890  2.1736  0.8042 -1.2312
  356MOL0     H49090   7.949  11.422   8.590  0.4240  0.6306  1.2069
  356MOL0     H49091   8.004  11.603   8.417 -0.8570 -2.5983 -1.6544
  356MOL0     H49092   7.889  11.661   8.168  1.4239  0.5194 -0.6771
  356MOL0     H49093   7.815  11.810   8.151 -1.2474 -0.7219  0.8651
  356MOL0     H49094   8.033  11.923   8.212 -1.2335  0.4042 -1.7504
  356MOL0     H49095   8.095  11.774   8.279  0.5895  0.1399  0.1880
  356MOL0     H49096   8.032  11.833   7.972  1.0677  0.7664 -0.7169
  356MOL0     H49097   8.077  11.676   8.019  1.6044 -0.5220  2.5491
  356MOL0     H49098   8.311  11.777   8.084  1.1696 -3.1273 -3.1469
  356MOL0     H49099   8.254  11.924   8.086 -1.3061 -0.0799 -0.6855
  356MOL0     H49100   8.394  11.836   7.885  1.1705  3.6256  0.4583
  356MOL0     H49101   8.234  11.773   7.827 -0.0028  0.6743 -1.5002
  356MOL0     H49102   8.287  12.064   7.899 -0.9165 -0.1674 -0.2125
  356MOL0     H49103   8.133  11.998   7.840 -0.9670  1.1188 -3.6556
  356MOL0     H49104   8.248  11.917   7.628  1.8993 -0.3108  0.4614
  356MOL0     H49105   8.386  12.000   7.682 -0.7434 -0.8857 -1.6733
  356MOL0     H49106   8.261  12.217   7.696 -2.8069 -1.2696  2.1265
  356MOL0     H49107   8.114  12.135   7.622 -0.0980 -2.8034 -3.2836
  356MOL0     H49108   7.616  11.755   8.470 -0.2167  0.6264 -1.6526
  356MOL0     H49109   7.556  11.563   8.630  0.4055 -0.8317  1.2556
  356MOL0     H49110   7.730  11.010   8.531 -1.3079 -0.7684 -1.0095
  356MOL0     H49111   7.600  10.805   8.609 -1.5096  0.0834  0.5318
  356MOL0     H49112   6.091   9.944   9.222 -1.2069 -3.8239 -1.2965
  356MOL0     H49113   5.855   9.813   9.274 -0.0482  1.3063  0.8975
  356MOL0     H49114   5.566   9.725   9.412  0.0247  0.3475 -0.9941
  356MOL0     H49115   5.419   9.562   9.531 -0.5066 -1.1718 -1.0197
  356MOL0     H49116   4.977   9.564   9.428  0.7611  0.6814  2.7762
  356MOL0     H49117   5.071   9.474   9.310 -0.9393  0.3837  0.3186
  356MOL0     H49118   5.049   9.284   9.417 -2.0210  1.6165 -2.4547
  356MOL0     H49119   4.900   9.368   9.444 -0.0119  3.4992  1.5344
  356MOL0     H49120   5.134   9.349   9.652 -0.6617  3.1946  2.4768
  356MOL0     H49121   4.984   9.440   9.668  2.2085  1.1162 -0.2014
  356MOL0     H49122   4.851   9.243   9.703 -1.0163 -0.8914 -0.2859
  356MOL0     H49123   5.004   9.193   9.783  1.6440 -2.9682 -2.3013
  356MOL0     H49124   5.005   8.935   9.458  0.7419 -0.2266  0.7434
  356MOL0     H49125   5.097   9.702   9.285  0.8797 -1.3156 -2.0330
  356MOL0     H49126   5.251  10.002   9.206  2.5749  0.3323 -0.3300
  356MOL0     H49127   5.262   9.901   9.055  2.3310 -0.5919  0.8509
  356MOL0     H49128   5.117   9.907   9.162 -0.9021 -1.3066 -2.9504
  357MOL0     O49129   0.768   4.911   5.546 -0.2954  0.9683  0.1132
  357MOL0     C49130   0.667   4.893   5.614 -0.9150  0.4216  0.2762
  357MOL0     O49131   0.634   4.977   5.719  0.3749  0.3046  0.1734
  357MOL0     C49132   0.691   5.098   5.739  0.6763 -0.3483  0.2644
  357MOL0     C49133   0.760   5.173   5.639  0.2601 -0.5703  0.0723
  357MOL0     C49134   0.810   5.301   5.676  0.2076 -0.6345 -0.0947
  357MOL0     C49135   0.801   5.353   5.802 -0.0936  0.1991 -1.6213
  357MOL0     O49136   0.864   5.473   5.823  0.9387  0.2371  0.3421
  357MOL0     C49137   0.944   5.488   5.951 -0.2599 -0.7637  0.5406
  357MOL0     C49138   1.001   5.632   5.963  0.3033  0.7415  0.4072
  357MOL0     C49139   1.117   5.634   6.056  0.3652 -0.2606 -1.2623
  357MOL0     C49140   1.176   5.777   6.062 -0.0463  1.0526  0.0780
  357MOL0     C49141   1.307   5.753   6.140 -0.0429 -0.3443 -0.0254
  357MOL0     C49142   1.384   5.892   6.155 -0.1578  0.0706 -0.4451
  357MOL0     C49143   1.501   5.871   6.255  0.1628 -0.4001  0.7318
  357MOL0     C49144   1.592   5.994   6.243 -0.0287  0.3880 -0.3938
  357MOL0     N49145   1.733   5.958   6.283  0.0642 -0.3123  0.4428
  357MOL0     C49146   1.814   5.865   6.219  0.3570  0.0545 -1.0718
  357MOL0     C49147   1.905   5.846   6.315 -0.2955  1.2792  0.8419
  357MOL0     C49148   1.998   5.736   6.296  0.0843 -0.1748 -0.8843
  357MOL0     C49149   2.003   5.648   6.428  0.8595  0.3357  0.2234
  357MOL0     C49150   2.089   5.527   6.414  0.2215  0.0783  0.1241
  357MOL0     C49151   2.235   5.570   6.380 -0.1637  0.0255 -0.7280
  357MOL0     O49152   2.327   5.529   6.480  1.0578  0.0841  0.5466
  357MOL0     C49153   2.459   5.566   6.464  0.5063  0.5403 -0.8661
  357MOL0     C49154   2.541   5.546   6.570 -0.0131 -0.2632 -0.1055
  357MOL0     C49155   2.679   5.567   6.558  1.2355  0.1226 -0.1179
  357MOL0     C49156   2.765   5.515   6.668 -0.4808  0.2545 -0.4759
  357MOL0     C49157   2.728   5.616   6.438 -0.1678 -0.1413  0.1317
  357MOL0     C49158   2.866   5.612   6.403  0.8176  0.1096  0.0372
  357MOL0     O49159   2.916   5.731   6.368 -0.4746  0.7142 -0.1838
  357MOL0     C49160   3.049   5.770   6.379 -0.2208 -0.0413 -0.2548
  357MOL0     C49161   3.081   5.902   6.397  0.2895  0.9007 -0.6583
  357MOL0     C49162   3.214   5.931   6.441  0.1790  0.1462  0.4020
  357MOL0     C49163   3.319   5.837   6.435 -0.1539  0.4757  0.2451
  357MOL0     O49164   3.444   5.846   6.478  0.2377  0.0045  0.3081
  357MOL0     C49165   3.504   5.972   6.463  0.9341  0.1038 -0.3260
  357MOL0     C49166   3.655   5.960   6.466  0.0725 -0.9048 -0.3390
  357MOL0     C49167   3.724   6.092   6.498  0.2277  0.1198  0.2977
  357MOL0     C49168   3.875   6.085   6.482  0.9444 -0.6787  0.2414
  357MOL0     C49169   3.933   6.212   6.547 -0.1355  0.4202  0.3941
  357MOL0     C49170   3.923   6.338   6.465  0.2671 -0.0786 -0.2735
  357MOL0     C49171   3.970   6.466   6.535  0.3035  0.4570  0.0753
  357MOL0     C49172   3.854   6.536   6.610 -0.1373 -0.6387  0.7260
  357MOL0    Cl49173   3.912   6.700   6.668  0.3075  0.0291 -0.4148
  357MOL0     C49174   3.289   5.703   6.396  0.0769 -0.4906  0.2045
  357MOL0     C49175   3.157   5.679   6.360 -0.5141 -0.2261  0.0933
  357MOL0     O49176   2.926   5.501   6.413  0.5870 -0.8694 -0.2862
  357MOL0     C49177   2.641   5.645   6.332  0.2719  0.8035  0.1252
  357MOL0     C49178   2.510   5.629   6.354 -0.2263 -0.0295 -0.5894
  357MOL0     N49179   1.881   5.934   6.418 -0.2295  0.2511 -0.9444
  357MOL0     N49180   1.777   6.006   6.395 -0.3677  0.2487 -0.4298
  357MOL0     C49181   0.722   5.283   5.894  0.3338  0.1301 -0.7870
  357MOL0     C49182   0.668   5.152   5.859  0.0374 -0.2849 -0.1831
  357MOL0     C49183   0.585   4.769   5.599 -0.8113  0.1227 -0.6462
  357MOL0     C49184   0.658   4.654   5.579 -0.4448 -0.0145  0.1099
  357MOL0     C49185   0.601   4.528   5.566  0.3450  0.1293 -0.7368
  357MOL0     C49186   0.467   4.511   5.580  0.2690  0.1662  0.5450
  357MOL0     O49187   0.407   4.389   5.577  0.2310  0.9478 -0.0116
  357MOL0     C49188   0.486   4.271   5.550 -0.1633  0.0022 -0.2937
  357MOL0     C49189   0.406   4.146   5.536 -0.6389  0.1455 -0.0044
  357MOL0     C49190   0.310   4.158   5.425 -0.0745 -0.6510  0.7306
  357MOL0     C49191   0.213   4.042   5.413  0.1328 -0.3791  0.2329
  357MOL0     C49192   0.305   3.929   5.376  0.3469  0.6789 -0.2211
  357MOL0     C49193   0.373   3.830   5.355  0.3004  1.2212 -1.0506
  357MOL0     C49194   0.393   4.629   5.607 -0.1701 -0.0507 -0.1806
  357MOL0     C49195   0.452   4.756   5.619 -0.3836 -0.6969  0.2023
  357MOL0     C49196   0.358   4.867   5.653  0.6132 -0.1000  0.0453
  357MOL0     H49197   0.771   5.141   5.536 -4.1600 -1.6087 -0.2970
  357MOL0     H49198   0.850   5.368   5.601 -0.5486 -1.7704 -1.5529
  357MOL0     H49199   1.024   5.414   5.953  1.8776  1.4426  2.2738
  357MOL0     H49200   0.893   5.458   6.043 -0.1558 -1.6747  0.3042
  357MOL0     H49201   1.029   5.664   5.863 -0.9131 -1.2216 -0.6390
  357MOL0     H49202   0.919   5.691   6.005 -1.9991 -2.0244  0.1856
  357MOL0     H49203   1.077   5.604   6.153  0.6633  0.3426 -0.9479
  357MOL0     H49204   1.199   5.567   6.029  0.8837 -0.0056 -0.3473
  357MOL0     H49205   1.192   5.800   5.956 -0.5478 -3.6433 -1.2627
  357MOL0     H49206   1.121   5.849   6.123 -1.8267 -1.7230  1.9798
  357MOL0     H49207   1.376   5.679   6.098 -1.5799 -1.4329 -0.7638
  357MOL0     H49208   1.276   5.711   6.236  0.5328  0.8194  0.6807
  357MOL0     H49209   1.431   5.917   6.060  1.2481 -0.4045  0.0852
  357MOL0     H49210   1.313   5.970   6.185 -2.3529 -1.5401 -1.1890
  357MOL0     H49211   1.550   5.778   6.227  0.0449  0.7914 -4.4318
  357MOL0     H49212   1.467   5.854   6.358 -2.0878  0.6526  0.2256
  357MOL0     H49213   1.591   6.028   6.139  0.8077  0.0190 -0.5305
  357MOL0     H49214   1.558   6.074   6.309 -1.0864 -0.7062  0.4162
  357MOL0     H49215   1.806   5.832   6.116 -0.3548  1.1213 -1.3713
  357MOL0     H49216   2.095   5.779   6.269  0.4462 -2.0031 -2.8141
  357MOL0     H49217   1.975   5.668   6.213  0.5041 -1.1202 -0.2426
  357MOL0     H49218   2.037   5.705   6.515 -1.5957  4.7874 -1.3573
  357MOL0     H49219   1.899   5.622   6.453  0.3096  1.3788 -0.8239
  357MOL0     H49220   2.079   5.460   6.500  0.0574 -0.0409  0.0124
  357MOL0     H49221   2.051   5.468   6.330 -1.7601 -1.7659  2.1860
  357MOL0     H49222   2.266   5.518   6.289  1.4187 -3.6181  1.6312
  357MOL0     H49223   2.251   5.678   6.370 -0.7045  0.0079 -1.9752
  357MOL0     H49224   2.501   5.488   6.653  1.2965  1.7160  2.0372
  357MOL0     H49225   2.829   5.433   6.634 -0.5443  1.6340 -4.4334
  357MOL0     H49226   2.708   5.487   6.757  0.2348 -1.8111 -0.6121
  357MOL0     H49227   2.832   5.595   6.701  0.1419 -0.1774 -0.6690
  357MOL0     H49228   3.009   5.984   6.395  1.2004  1.6902 -1.6926
  357MOL0     H49229   3.222   6.034   6.474 -0.8860  0.2570  0.3665
  357MOL0     H49230   3.486   6.013   6.363 -2.3017  1.5251  0.7111
  357MOL0     H49231   3.471   6.046   6.537 -0.0731 -0.7524  0.1009
  357MOL0     H49232   3.683   5.887   6.542  4.8597 -0.3904 -1.3296
  357MOL0     H49233   3.689   5.912   6.374  1.2841 -3.5380  1.3735
  357MOL0     H49234   3.717   6.112   6.605  2.6705  1.4629  0.2753
  357MOL0     H49235   3.675   6.164   6.433  0.6000  2.6630  2.6920
  357MOL0     H49236   3.902   6.094   6.376  2.5911 -0.7318  0.6276
  357MOL0     H49237   3.912   5.995   6.531 -1.4948 -1.9829 -0.1506
  357MOL0     H49238   3.875   6.223   6.640 -0.2530 -1.7119  0.6231
  357MOL0     H49239   4.038   6.197   6.573 -0.0222 -2.5726 -1.3573
  357MOL0     H49240   3.821   6.348   6.427 -0.5138 -0.1747  1.6741
  357MOL0     H49241   3.983   6.321   6.375 -1.2646 -0.5804 -1.2357
  357MOL0     H49242   4.008   6.541   6.465  0.4413  0.8279  0.5395
  357MOL0     H49243   4.053   6.456   6.606 -1.1412  0.0459  1.7641
  357MOL0     H49244   3.825   6.473   6.695  0.6739 -0.6219  1.0231
  357MOL0     H49245   3.763   6.543   6.548  0.5574 -3.2544 -0.7635
  357MOL0     H49246   3.365   5.626   6.388 -0.9556 -1.4969 -0.1792
  357MOL0     H49247   3.143   5.576   6.330 -0.2826  0.0866 -1.1243
  357MOL0     H49248   2.676   5.675   6.234  2.7503 -3.4156 -0.5128
  357MOL0     H49249   2.441   5.661   6.277  0.7160 -0.3574 -1.5899
  357MOL0     H49250   0.711   5.320   5.996 -1.3089 -0.9630 -0.5180
  357MOL0     H49251   0.612   5.098   5.935  1.0835 -1.2025 -0.0417
  357MOL0     H49252   0.765   4.659   5.569 -0.0277 -2.5763  2.1881
  357MOL0     H49253   0.662   4.439   5.558 -0.9585 -0.7101 -1.7075
  357MOL0     H49254   0.541   4.297   5.458  0.6657  2.9331  0.8869
  357MOL0     H49255   0.547   4.268   5.640 -2.6523  1.1183  1.5376
  357MOL0     H49256   0.355   4.134   5.632 -1.3147  1.1020 -0.2326
  357MOL0     H49257   0.463   4.054   5.520  0.4393  1.2378 -3.5408
  357MOL0     H49258   0.242   4.243   5.430  0.4179 -0.2128  0.2002
  357MOL0     H49259   0.360   4.173   5.328  1.9360 -1.2485  1.6092
  357MOL0     H49260   0.128   4.064   5.348 -1.9941 -0.6224  2.8062
  357MOL0     H49261   0.169   4.024   5.511 -0.3652  1.9025  0.4791
  357MOL0     H49262   0.431   3.741   5.343 -0.5783  0.4143  0.3934
  357MOL0     H49263   0.287   4.632   5.631 -0.3650  2.3037 -1.0769
  357MOL0     H49264   0.252   4.840   5.652  0.0325  1.9760  0.7744
  357MOL0     H49265   0.376   4.920   5.747  1.2521  1.8545 -1.1140
  357MOL0     H49266   0.361   4.948   5.580  1.0688 -1.7224 -1.8227
  358MOL0     O49267   9.239   4.016   0.141 -0.3181  0.0763  0.2331
  358MOL0     C49268   9.260   4.139   0.153 -0.3908 -0.6995  0.4167
  358MOL0     O49269   9.266   4.221   0.046 -0.5152 -0.9625 -0.4923
  358MOL0     C49270   9.323   4.165  -0.060 -0.3099 -0.4407  1.0841
  358MOL0     C49271   9.243   4.101  -0.155  0.5255 -0.1775 -0.8433
  358MOL0     C49272   9.294   4.055  -0.275 -1.3632 -0.0246 -0.1521
  358MOL0     C49273   9.432   4.060  -0.305 -0.3090 -0.5494  1.0071
  358MOL0     O49274   9.480   4.014  -0.425  1.3790  0.1988  0.2793
  358MOL0     C49275   9.578   4.090  -0.497  1.0545 -0.5885  0.1916
  358MOL0     C49276   9.537   4.220  -0.557  0.1144  0.8699 -0.1432
  358MOL0     C49277   9.620   4.267  -0.673 -0.1454 -0.3050 -0.5016
  358MOL0     C49278   9.773   4.248  -0.662 -0.3366  0.1943 -0.9744
  358MOL0     C49279   9.856   4.313  -0.772 -0.0736 -0.2710 -0.2089
  358MOL0     C49280   9.808   4.288  -0.917 -0.9637  0.4900 -0.0238
  358MOL0     C49281   9.815   4.135  -0.956  0.2955  0.8171  0.6653
  358MOL0     C49282   9.775   4.095  -1.100  0.7881 -0.0569  0.0514
  358MOL0     N49283   9.864   4.152  -1.206 -0.7888 -0.0340 -1.1748
  358MOL0     C49284   9.816   4.256  -1.288 -0.6492  0.5354 -0.9243
  358MOL0     C49285   9.917   4.282  -1.368 -0.8002  0.0872  0.5184
  358MOL0     C49286   9.917   4.391  -1.468 -0.2675  0.0523 -0.3856
  358MOL0     C49287   9.857   4.356  -1.610 -1.0132  0.6269  0.8131
  358MOL0     C49288   9.911   4.220  -1.661 -0.7993 -0.1414 -0.4433
  358MOL0     C49289   9.881   4.203  -1.812  0.0054 -1.1156 -0.1910
  358MOL0     O49290   9.992   4.271  -1.886 -0.1833 -0.0606 -1.3155
  358MOL0     C49291  10.091   4.215  -1.953  0.3297 -0.1152  0.3646
  358MOL0     C49292  10.172   4.292  -2.035  0.3898 -0.5804 -0.1296
  358MOL0     C49293  10.280   4.239  -2.112  0.1377  0.5691 -0.5699
  358MOL0     C49294  10.349   4.344  -2.193 -0.7883  0.8689 -0.4601
  358MOL0     C49295  10.304   4.102  -2.113  0.5900 -0.4802  0.0271
  358MOL0     C49296  10.428   4.041  -2.161 -0.1061  0.7478  1.1988
  358MOL0     O49297  10.436   3.909  -2.159  0.2196 -0.1796 -0.3817
  358MOL0     C49298  10.555   3.851  -2.175  0.2029  0.1498  0.1465
  358MOL0     C49299  10.647   3.863  -2.068 -0.2404 -0.4284 -0.4394
  358MOL0     C49300  10.761   3.787  -2.081 -0.2788  0.5960 -0.2519
  358MOL0     C49301  10.795   3.714  -2.195 -0.1999 -0.3503  0.6662
  358MOL0     O49302  10.911   3.646  -2.213  0.7098  0.7879  0.4259
  358MOL0     C49303  11.027   3.675  -2.129  0.2525  0.1374  0.5619
  358MOL0     C49304  11.156   3.638  -2.201  0.0039  0.5242  0.2233
  358MOL0     C49305  11.282   3.697  -2.129 -0.0534 -0.7196  0.2542
  358MOL0     C49306  11.323   3.606  -2.006  0.3565  0.1677 -0.1538
  358MOL0     C49307  11.441   3.658  -1.927 -0.0141  0.6556  0.1761
  358MOL0     C49308  11.507   3.554  -1.826  0.5643 -0.2234 -0.2187
  358MOL0     C49309  11.526   3.412  -1.882 -1.1390 -0.0146 -0.3364
  358MOL0     C49310  11.618   3.330  -1.775  0.1830  0.1612 -0.0155
  358MOL0    Cl49311  11.782   3.394  -1.755 -0.1598 -0.3784 -0.0792
  358MOL0     C49312  10.702   3.708  -2.296 -0.1324  0.0226  0.7671
  358MOL0     C49313  10.581   3.770  -2.287 -0.5819 -0.3921 -0.0207
  358MOL0     O49314  10.519   4.116  -2.199 -0.2283 -0.5284  0.3878
  358MOL0     C49315  10.217   4.017  -2.033  0.0723  0.0837 -0.1052
  358MOL0     C49316  10.114   4.074  -1.951  0.6735 -0.4249 -0.3457
  358MOL0     N49317  10.026   4.196  -1.336 -0.2345  0.2452  0.7944
  358MOL0     N49318   9.987   4.118  -1.244  0.7329  0.5355  0.9463
  358MOL0     C49319   9.513   4.123  -0.215 -0.2837  0.1194 -0.8718
  358MOL0     C49320   9.457   4.177  -0.090  0.0100  0.8343  1.0595
  358MOL0     C49321   9.286   4.190   0.283 -0.2272 -0.4447  0.1065
  358MOL0     C49322   9.327   4.322   0.288 -0.2743 -0.2072  0.1992
  358MOL0     C49323   9.360   4.373   0.411  1.4843  0.2644 -0.1341
  358MOL0     C49324   9.340   4.305   0.529  0.2948  0.2592  0.3458
  358MOL0     O49325   9.388   4.376   0.638 -0.3330  0.2569 -0.0134
  358MOL0     C49326   9.414   4.304   0.757  0.5029 -0.4755 -0.0022
  358MOL0     C49327   9.473   4.407   0.850 -0.6150 -0.3031  0.7138
  358MOL0     C49328   9.549   4.341   0.959  0.1041  0.4279  0.5139
  358MOL0     C49329   9.621   4.440   1.055  0.7922  0.9056  0.5750
  358MOL0     C49330   9.754   4.488   0.996  0.8955 -0.4285 -0.2469
  358MOL0     C49331   9.856   4.533   0.951 -0.1270  0.3092  0.3184
  358MOL0     C49332   9.289   4.171   0.531  0.0221  0.2559  0.1595
  358MOL0     C49333   9.261   4.114   0.405  0.2217  0.1016  0.1640
  358MOL0     C49334   9.207   3.969   0.405  0.3180 -0.2338 -0.4289
  358MOL0     H49335   9.135   4.111  -0.147  0.6066  0.0486  0.1112
  358MOL0     H49336   9.229   4.008  -0.349 -0.7161  1.2453 -1.5865
  358MOL0     H49337   9.608   4.038  -0.589  0.9417  1.2145 -0.9098
  358MOL0     H49338   9.669   4.099  -0.438  0.5699  0.2913  0.8379
  358MOL0     H49339   9.434   4.205  -0.591  0.3421  1.2815 -1.0378
  358MOL0     H49340   9.532   4.306  -0.489 -3.4693  1.9555 -1.5755
  358MOL0     H49341   9.590   4.203  -0.756  0.5218 -2.7027  1.0053
  358MOL0     H49342   9.591   4.372  -0.682 -0.6655 -0.4918 -1.0408
  358MOL0     H49343   9.800   4.310  -0.575 -0.9710  1.8622 -1.9158
  358MOL0     H49344   9.802   4.143  -0.658 -3.3323 -0.7900 -2.7255
  358MOL0     H49345   9.960   4.279  -0.769  0.7267  1.4147 -3.2669
  358MOL0     H49346   9.856   4.417  -0.738 -3.3475  0.0829 -0.9573
  358MOL0     H49347   9.701   4.307  -0.923 -1.0405 -0.3066 -1.7874
  358MOL0     H49348   9.856   4.358  -0.986 -1.3488  0.4220 -0.3689
  358MOL0     H49349   9.743   4.080  -0.895 -1.0771  1.9467  0.1180
  358MOL0     H49350   9.914   4.089  -0.943 -0.5308 -0.8220  1.5291
  358MOL0     H49351   9.772   3.986  -1.112 -1.4769 -0.4309  2.7573
  358MOL0     H49352   9.675   4.139  -1.113  0.5124 -0.6091  0.2559
  358MOL0     H49353   9.716   4.300  -1.284 -1.1842 -0.7531  1.7477
  358MOL0     H49354  10.017   4.435  -1.473 -0.6554  0.8940 -0.9747
  358MOL0     H49355   9.855   4.471  -1.425 -0.6764 -1.4915  2.1029
  358MOL0     H49356   9.748   4.357  -1.606 -1.1740  2.9939 -1.3613
  358MOL0     H49357   9.898   4.434  -1.674  2.7211 -0.1088  2.0642
  358MOL0     H49358  10.018   4.231  -1.643 -1.2489  5.1843  0.7185
  358MOL0     H49359   9.844   4.150  -1.609 -2.4230  1.5299 -0.1638
  358MOL0     H49360   9.868   4.099  -1.842  0.7650 -1.2325 -0.1346
  358MOL0     H49361   9.786   4.251  -1.837 -0.7403 -3.3976 -2.2143
  358MOL0     H49362  10.145   4.397  -2.035  0.9780 -0.2904  3.3513
  358MOL0     H49363  10.286   4.430  -2.216  1.8987  3.7298  1.8734
  358MOL0     H49364  10.373   4.292  -2.287 -2.4910 -2.5869  0.8295
  358MOL0     H49365  10.442   4.374  -2.144 -0.6865 -0.1547  0.0152
  358MOL0     H49366  10.622   3.923  -1.981 -0.3681 -0.9427 -0.1140
  358MOL0     H49367  10.827   3.772  -1.996 -0.0994  1.9875 -0.1291
  358MOL0     H49368  11.031   3.782  -2.105 -0.8727  0.2972  0.1233
  358MOL0     H49369  11.016   3.629  -2.030 -1.6310  2.0036  1.3073
  358MOL0     H49370  11.159   3.529  -2.209  2.4670  0.6317 -1.6749
  358MOL0     H49371  11.154   3.673  -2.304 -1.4094 -2.0206 -0.7142
  358MOL0     H49372  11.252   3.791  -2.083  0.4574 -1.3844  2.0278
  358MOL0     H49373  11.368   3.706  -2.196 -0.2547  1.8081  0.2412
  358MOL0     H49374  11.347   3.500  -2.022 -1.2999 -0.4542  1.2002
  358MOL0     H49375  11.236   3.601  -1.941  1.9033 -0.1330  1.9945
  358MOL0     H49376  11.522   3.699  -1.988 -0.3400 -1.8825 -2.0975
  358MOL0     H49377  11.404   3.743  -1.867 -0.8047 -1.2526  2.5624
  358MOL0     H49378  11.454   3.561  -1.731 -0.8327  3.1008 -1.1016
  358MOL0     H49379  11.603   3.597  -1.798 -0.3554  0.8867  1.3451
  358MOL0     H49380  11.584   3.405  -1.974  2.0500 -2.3309  1.6198
  358MOL0     H49381  11.430   3.360  -1.879 -0.1861 -1.9708  3.5120
  358MOL0     H49382  11.627   3.235  -1.829 -0.4502 -0.8485  1.5954
  358MOL0     H49383  11.570   3.309  -1.679 -0.6823 -2.8644 -1.0053
  358MOL0     H49384  10.723   3.645  -2.383 -1.9692  1.2836 -0.6738
  358MOL0     H49385  10.509   3.771  -2.368  0.4057  0.1716 -0.9185
  358MOL0     H49386  10.239   3.910  -2.031 -0.4310 -0.0133  0.8974
  358MOL0     H49387  10.057   4.026  -1.872  1.2355 -2.6944 -1.2303
  358MOL0     H49388   9.621   4.130  -0.227 -0.0846  1.5189  1.2286
  358MOL0     H49389   9.517   4.223  -0.012 -0.3142 -1.5654  2.8100
  358MOL0     H49390   9.315   4.389   0.203 -3.7080  0.1343  0.8262
  358MOL0     H49391   9.413   4.468   0.405  2.5194 -0.1282  1.8467
  358MOL0     H49392   9.318   4.285   0.806 -0.3160 -0.3425 -1.5195
  358MOL0     H49393   9.482   4.220   0.743  0.6419 -0.6143  1.3686
  358MOL0     H49394   9.391   4.461   0.899 -1.3465  0.0783 -0.8684
  358MOL0     H49395   9.537   4.469   0.786  0.8126 -0.8702  1.5419
  358MOL0     H49396   9.473   4.289   1.019 -1.3173  0.5196 -1.1232
  358MOL0     H49397   9.624   4.267   0.930 -0.0790 -0.1105  1.3761
  358MOL0     H49398   9.642   4.382   1.145 -2.8422 -2.1841 -0.3232
  358MOL0     H49399   9.560   4.525   1.086 -0.0068  0.7491 -0.5160
  358MOL0     H49400   9.948   4.574   0.915  0.4936 -1.1406  0.1920
  358MOL0     H49401   9.282   4.115   0.624 -0.7748 -2.9340 -1.6529
  358MOL0     H49402   9.186   3.935   0.507 -2.7357  2.0206 -0.1554
  358MOL0     H49403   9.108   3.967   0.358 -1.4635  0.8053  2.9501
  358MOL0     H49404   9.275   3.899   0.356 -1.1998 -2.0535 -0.0458
  359MOL0     O49405  11.009   5.741   7.804 -0.1882  0.2665  0.2701
  359MOL0     C49406  11.048   5.841   7.753  0.0271 -1.0550 -0.0941
  359MOL0     O49407  11.174   5.864   7.703 -0.2561 -0.0039  0.1434
  359MOL0     C49408  11.270   5.761   7.694  0.3002  0.4779 -0.5394
  359MOL0     C49409  11.246   5.624   7.660  0.4631 -0.2025 -0.3848
  359MOL0     C49410  11.351   5.526   7.648  0.1417 -0.0725  0.8324
  359MOL0     C49411  11.490   5.568   7.660  0.4892 -0.7054  0.3657
  359MOL0     O49412  11.608   5.494   7.655 -0.8418 -0.4900  0.0771
  359MOL0     C49413  11.616   5.355   7.642 -0.4936 -0.2600 -0.3599
  359MOL0     C49414  11.762   5.309   7.628  0.3290 -0.0449  0.3217
  359MOL0     C49415  11.798   5.159   7.647  0.1327  0.9695 -0.2749
  359MOL0     C49416  11.738   5.080   7.530  0.5610  0.9193 -0.0331
  359MOL0     C49417  11.787   4.932   7.523 -0.5777  0.8779  1.3900
  359MOL0     C49418  11.803   4.859   7.652  0.9249 -0.6272 -0.5316
  359MOL0     C49419  11.813   4.707   7.637  0.0240 -0.0761 -0.1301
  359MOL0     C49420  11.935   4.674   7.558 -0.9255 -0.2396  0.6796
  359MOL0     N49421  12.060   4.716   7.631  0.6432 -0.1479  0.8623
  359MOL0     C49422  12.108   4.672   7.752 -0.1693  0.9189 -0.7144
  359MOL0     C49423  12.242   4.705   7.755  0.1972 -0.8016 -0.3726
  359MOL0     C49424  12.336   4.676   7.869 -0.7663 -0.1506  0.5906
  359MOL0     C49425  12.336   4.531   7.890 -0.0024  0.3012 -1.0677
  359MOL0     C49426  12.409   4.450   7.777  0.1510 -1.3010 -0.6064
  359MOL0     C49427  12.394   4.296   7.795 -0.3677 -0.0431 -0.8156
  359MOL0     O49428  12.438   4.275   7.931  0.0803 -0.2003 -0.4195
  359MOL0     C49429  12.570   4.285   7.957  0.4815 -0.4901  0.0977
  359MOL0     C49430  12.614   4.342   8.071  0.1163 -0.1638  0.5386
  359MOL0     C49431  12.751   4.343   8.110 -0.3925  0.6822  0.4718
  359MOL0     C49432  12.779   4.382   8.246 -0.1608  0.0564 -0.2048
  359MOL0     C49433  12.854   4.299   8.018  0.2116  0.2091  0.5533
  359MOL0     C49434  12.996   4.280   8.050 -0.9738 -0.6468  1.2934
  359MOL0     O49435  13.069   4.246   7.945  0.2830 -0.1590 -0.7424
  359MOL0     C49436  13.203   4.231   7.945  0.5207 -0.4269 -0.2038
  359MOL0     C49437  13.246   4.122   7.878  0.0487 -0.1727  0.3873
  359MOL0     C49438  13.388   4.086   7.875  0.5306 -0.4346  0.9599
  359MOL0     C49439  13.476   4.165   7.941 -0.1426 -0.3641 -1.3736
  359MOL0     O49440  13.604   4.127   7.941 -0.2926  0.0246 -0.4197
  359MOL0     C49441  13.692   4.205   8.025 -0.1030  0.4275  0.1259
  359MOL0     C49442  13.831   4.131   8.026  0.7329  0.7454 -0.0790
  359MOL0     C49443  13.840   4.021   8.127  1.1578  0.3612  0.6011
  359MOL0     C49444  13.861   4.061   8.276  0.3986  0.0172  0.7952
  359MOL0     C49445  13.883   3.951   8.383  0.0250 -0.4536  0.8541
  359MOL0     C49446  13.746   3.881   8.426  0.3291 -0.6127 -1.1790
  359MOL0     C49447  13.762   3.773   8.532  0.7745 -0.1927 -0.1987
  359MOL0     C49448  13.639   3.738   8.624 -0.9769  0.5126  0.5951
  359MOL0    Cl49449  13.515   3.630   8.545  0.3690  0.3621 -0.1604
  359MOL0     C49450  13.430   4.282   8.003  0.1960  0.6341  0.6233
  359MOL0     C49451  13.296   4.313   8.010  0.3086 -1.1928  0.6149
  359MOL0     O49452  13.044   4.317   8.157 -0.1380  0.1284  0.0894
  359MOL0     C49453  12.809   4.257   7.891 -0.7873 -0.5317  0.2950
  359MOL0     C49454  12.671   4.253   7.868 -0.0056  0.0669  0.1537
  359MOL0     N49455  12.273   4.749   7.629 -0.5492 -0.6057 -0.4551
  359MOL0     N49456  12.162   4.753   7.555 -0.5347 -0.6433 -0.7550
  359MOL0     C49457  11.509   5.704   7.672 -0.3925 -0.3463 -0.5503
  359MOL0     C49458  11.405   5.796   7.689  0.6199 -0.1475  0.0104
  359MOL0     C49459  10.957   5.963   7.755  0.5468 -0.3905 -0.8426
  359MOL0     C49460  10.830   5.942   7.817 -1.3905  0.1927 -0.1235
  359MOL0     C49461  10.734   6.038   7.844  0.7599 -0.6375  0.1770
  359MOL0     C49462  10.759   6.168   7.785 -0.5869  0.1915  0.5584
  359MOL0     O49463  10.674   6.270   7.794  0.6345 -0.2068  0.0396
  359MOL0     C49464  10.554   6.264   7.869 -0.3040  0.6072 -0.8321
  359MOL0     C49465  10.457   6.381   7.835 -0.3249  1.1036 -0.3056
  359MOL0     C49466  10.519   6.512   7.880 -0.1310  0.3635  0.2772
  359MOL0     C49467  10.584   6.525   8.022  1.1003  1.4775  0.5932
  359MOL0     C49468  10.475   6.508   8.121 -1.0198 -0.8993 -0.3142
  359MOL0     C49469  10.384   6.512   8.195  0.2644 -0.3396  0.3592
  359MOL0     C49470  10.876   6.182   7.714  0.7661 -0.1889  0.1934
  359MOL0     C49471  10.971   6.088   7.689 -0.5993  0.0266 -0.6455
  359MOL0     C49472  11.088   6.119   7.599  0.8781 -0.3600 -0.2918
  359MOL0     H49473  11.145   5.586   7.653  0.4481 -0.0860 -0.8212
  359MOL0     H49474  11.322   5.422   7.641  0.2620 -0.0882  0.5504
  359MOL0     H49475  11.566   5.326   7.549  0.2400  0.4383 -0.9870
  359MOL0     H49476  11.578   5.299   7.728 -0.0547 -3.6956 -2.2449
  359MOL0     H49477  11.789   5.336   7.526 -2.7280 -1.8569 -1.0866
  359MOL0     H49478  11.825   5.359   7.702  1.1357 -1.2624  0.4939
  359MOL0     H49479  11.904   5.139   7.665  0.1585  3.3233  3.1766
  359MOL0     H49480  11.749   5.129   7.740 -0.4984  1.5638 -0.4136
  359MOL0     H49481  11.629   5.072   7.542  0.7071 -1.3672  0.3454
  359MOL0     H49482  11.762   5.120   7.432  0.1829 -2.7643 -1.8016
  359MOL0     H49483  11.879   4.930   7.464 -1.8879 -0.3765 -0.7738
  359MOL0     H49484  11.714   4.880   7.461  0.6511 -0.4354  0.9986
  359MOL0     H49485  11.900   4.893   7.690  1.5573 -2.1775 -0.7102
  359MOL0     H49486  11.734   4.881   7.734  5.2480  1.6336  2.9661
  359MOL0     H49487  11.719   4.672   7.591 -0.0982  1.1076 -0.8213
  359MOL0     H49488  11.810   4.662   7.737 -4.7331 -2.3522 -1.0097
  359MOL0     H49489  11.933   4.565   7.550  1.0343 -0.3439  1.1584
  359MOL0     H49490  11.937   4.705   7.453  0.1014 -1.8734  0.1812
  359MOL0     H49491  12.054   4.620   7.831  2.2137  0.0950  0.4424
  359MOL0     H49492  12.314   4.738   7.956  1.7062  1.1403  0.3569
  359MOL0     H49493  12.432   4.715   7.836 -1.1486  0.4577  0.1580
  359MOL0     H49494  12.368   4.516   7.993 -2.5918  4.6999  0.6860
  359MOL0     H49495  12.232   4.499   7.899  0.1027  0.4987  1.7435
  359MOL0     H49496  12.369   4.487   7.682  0.3874  0.7115  0.0405
  359MOL0     H49497  12.517   4.459   7.789  0.0866 -2.2279  0.9928
  359MOL0     H49498  12.287   4.275   7.793 -1.3628  3.8818  1.1328
  359MOL0     H49499  12.444   4.234   7.720 -3.7862 -1.0985 -2.4314
  359MOL0     H49500  12.542   4.377   8.144  0.7665  2.0332  0.1980
  359MOL0     H49501  12.690   4.422   8.294  0.3503  0.4859  0.3992
  359MOL0     H49502  12.854   4.463   8.248  0.1442 -0.2117 -0.5186
  359MOL0     H49503  12.805   4.298   8.311  1.0701  0.2127 -0.4609
  359MOL0     H49504  13.173   4.061   7.825  0.2051 -0.4577  0.5009
  359MOL0     H49505  13.424   3.996   7.827 -0.2867  0.1895 -0.8915
  359MOL0     H49506  13.708   4.307   7.988 -0.4504  0.8992  1.2402
  359MOL0     H49507  13.654   4.211   8.127  1.9075 -0.1693  0.9666
  359MOL0     H49508  13.845   4.089   7.926 -2.9249 -2.2459  0.4515
  359MOL0     H49509  13.910   4.200   8.056  2.6667 -0.8183 -1.2979
  359MOL0     H49510  13.914   3.947   8.094  0.7571  0.0150  0.4701
  359MOL0     H49511  13.744   3.969   8.125  1.0175  0.3977  3.3314
  359MOL0     H49512  13.773   4.116   8.313 -2.9817 -3.4918 -1.2740
  359MOL0     H49513  13.946   4.129   8.283  1.6068 -1.3374 -0.2730
  359MOL0     H49514  13.955   3.878   8.345  0.0305 -1.3818  2.5468
  359MOL0     H49515  13.928   4.011   8.462  0.4443  2.3086 -1.2907
  359MOL0     H49516  13.701   3.825   8.343 -1.7339 -4.4328  2.1507
  359MOL0     H49517  13.670   3.952   8.460 -2.2198 -3.1375 -1.1628
  359MOL0     H49518  13.841   3.803   8.602 -0.7832  1.5212  0.9374
  359MOL0     H49519  13.785   3.676   8.489 -3.8961 -1.1650 -1.0161
  359MOL0     H49520  13.582   3.829   8.647 -0.4892  1.7349 -2.6517
  359MOL0     H49521  13.681   3.687   8.712  0.2008  0.3817 -0.0334
  359MOL0     H49522  13.503   4.347   8.051  1.0010  0.0279  0.2384
  359MOL0     H49523  13.272   4.402   8.067  2.2319 -0.1599 -0.1020
  359MOL0     H49524  12.873   4.218   7.813  1.0257  0.3057  1.3001
  359MOL0     H49525  12.646   4.217   7.769  0.9047  0.3828 -0.1989
  359MOL0     H49526  11.607   5.749   7.675  0.0665 -1.2548 -1.3671
  359MOL0     H49527  11.435   5.898   7.709 -0.4220  0.5117 -1.5760
  359MOL0     H49528  10.808   5.848   7.867  2.9643 -1.7846 -1.3550
  359MOL0     H49529  10.674   6.027   7.934 -1.0001 -0.1363 -0.8871
  359MOL0     H49530  10.499   6.172   7.846  0.4239  0.0912 -0.5207
  359MOL0     H49531  10.584   6.273   7.974  0.3093  0.0179 -0.9530
  359MOL0     H49532  10.358   6.364   7.878  0.8977 -1.0613  1.9111
  359MOL0     H49533  10.436   6.375   7.728 -0.2342 -2.4000 -0.2333
  359MOL0     H49534  10.604   6.546   7.820  1.2559 -1.9898  0.7944
  359MOL0     H49535  10.446   6.592   7.862  0.8789  0.7471 -2.7325
  359MOL0     H49536  10.632   6.623   8.026  5.4756 -0.4408  0.2675
  359MOL0     H49537  10.667   6.455   8.038  1.9944  2.1510 -0.9644
  359MOL0     H49538  10.309   6.499   8.271 -0.9181  2.3425 -0.2488
  359MOL0     H49539  10.885   6.278   7.665  1.7351 -0.8513 -0.9792
  359MOL0     H49540  11.186   6.099   7.643 -0.3035 -2.4314  1.6694
  359MOL0     H49541  11.070   6.060   7.508 -0.9834  2.2415 -1.7705
  359MOL0     H49542  11.085   6.220   7.556  3.3719  0.9001  2.1852
  360MOL0     O49543   0.095  10.209  10.887  0.2994 -0.3419  0.8128
  360MOL0     C49544   0.063  10.245  10.782  0.6881  0.0930 -0.4216
  360MOL0     O49545   0.130  10.219  10.669 -0.2613 -0.1386 -0.2438
  360MOL0     C49546   0.267  10.207  10.677 -0.5636  0.7403  0.7290
  360MOL0     C49547   0.357  10.319  10.662 -0.4832 -0.7235  0.4676
  360MOL0     C49548   0.496  10.303  10.664 -0.5534 -0.3026 -0.4103
  360MOL0     C49549   0.548  10.173  10.674 -0.3244  0.5690 -0.5370
  360MOL0     O49550   0.685  10.171  10.681 -0.3544 -0.2795 -0.7319
  360MOL0     C49551   0.757  10.045  10.687 -0.6487 -0.9134  0.1544
  360MOL0     C49552   0.904  10.060  10.704  0.5379 -0.7428 -0.1346
  360MOL0     C49553   0.986   9.939  10.697 -0.0365 -0.2920 -0.0885
  360MOL0     C49554   1.146   9.969  10.722  1.1307  0.2094  0.4947
  360MOL0     C49555   1.224   9.846  10.675 -0.8703  0.5392  0.3206
  360MOL0     C49556   1.379   9.855  10.675 -0.1678  0.4594 -0.9848
  360MOL0     C49557   1.440   9.728  10.615  0.0782 -0.0355 -0.2815
  360MOL0     C49558   1.596   9.717  10.640  0.0575  0.6827  0.1176
  360MOL0     N49559   1.660   9.584  10.609 -0.4064  0.0766  0.5205
  360MOL0     C49560   1.682   9.545  10.480 -0.3585  0.2051  1.1291
  360MOL0     C49561   1.739   9.424  10.483  0.1786  0.0970 -0.4602
  360MOL0     C49562   1.802   9.348  10.372 -0.6257  0.6499  0.2827
  360MOL0     C49563   1.930   9.406  10.318  1.3702  0.5685  0.6327
  360MOL0     C49564   2.051   9.401  10.418 -0.1485  0.0093  0.4145
  360MOL0     C49565   2.179   9.401  10.336 -0.0861 -0.4157  0.1177
  360MOL0     O49566   2.289   9.428  10.419 -0.5993  0.5865 -0.2307
  360MOL0     C49567   2.384   9.328  10.432  0.5191 -1.0266  0.2718
  360MOL0     C49568   2.507   9.348  10.367 -0.8046 -0.2901 -0.2809
  360MOL0     C49569   2.609   9.249  10.378  0.6325  0.0049 -0.1701
  360MOL0     C49570   2.734   9.264  10.290  0.1194 -0.1292 -0.1661
  360MOL0     C49571   2.592   9.143  10.474  0.5094 -0.8845 -0.0715
  360MOL0     C49572   2.691   9.038  10.502 -0.3391  0.3246  0.7484
  360MOL0     O49573   2.669   8.946  10.602  0.0199 -0.1818  1.3230
  360MOL0     C49574   2.776   8.878  10.659  0.2873 -0.2324  0.6024
  360MOL0     C49575   2.909   8.935  10.678 -0.0710  0.0873  0.8013
  360MOL0     C49576   3.021   8.860  10.735  1.0953  0.5505  0.2845
  360MOL0     C49577   2.997   8.722  10.774  0.1770 -0.7064 -0.4624
  360MOL0     O49578   3.107   8.648  10.820  0.3130  0.1729 -0.3422
  360MOL0     C49579   3.078   8.522  10.880  0.0658 -0.2835  0.5052
  360MOL0     C49580   3.080   8.409  10.766  0.4120 -0.8276 -0.5791
  360MOL0     C49581   3.075   8.262  10.808 -0.1957  0.4008 -0.4101
  360MOL0     C49582   3.163   8.234  10.934 -0.3035  0.9419 -0.2706
  360MOL0     C49583   3.175   8.080  10.949 -0.5372  0.5548  0.1255
  360MOL0     C49584   3.258   8.040  11.066 -0.7550  0.0808 -0.1450
  360MOL0     C49585   3.295   7.887  11.042  0.5680  0.4450  0.0399
  360MOL0     C49586   3.385   7.836  11.149  0.1694 -0.1811 -0.2103
  360MOL0    Cl49587   3.545   7.868  11.108 -0.5689 -0.1247  0.0217
  360MOL0     C49588   2.866   8.673  10.770  0.2549 -0.6318 -0.0314
  360MOL0     C49589   2.754   8.746  10.709  0.2350  0.0466 -0.9920
  360MOL0     O49590   2.791   9.035  10.436 -0.3059 -0.2353  0.1487
  360MOL0     C49591   2.472   9.141  10.553 -0.2336  0.2071  0.4607
  360MOL0     C49592   2.369   9.218  10.522 -1.0240  0.5434 -0.8717
  360MOL0     N49593   1.733   9.389  10.614  0.7729 -0.5554 -0.1856
  360MOL0     N49594   1.678   9.478  10.691 -0.2869 -0.2404 -0.3967
  360MOL0     C49595   0.461  10.065  10.695  0.3919 -0.2818  0.7399
  360MOL0     C49596   0.324  10.081  10.695 -0.0149 -0.3435  0.6772
  360MOL0     C49597  -0.086  10.271  10.774  0.2948  1.3605  0.7270
  360MOL0     C49598  -0.140  10.274  10.643  0.2084  0.1392  0.7221
  360MOL0     C49599  -0.267  10.332  10.623  0.1585  0.4801  0.1414
  360MOL0     C49600  -0.353  10.367  10.725  0.7340  0.1435 -0.1397
  360MOL0     O49601  -0.485  10.397  10.697  0.3027 -0.2519  0.4559
  360MOL0     C49602  -0.576  10.401  10.810 -0.0140  0.1120 -0.1595
  360MOL0     C49603  -0.590  10.552  10.852 -0.0239 -0.0996 -0.2537
  360MOL0     C49604  -0.664  10.551  10.985 -0.3426 -0.2733 -0.5884
  360MOL0     C49605  -0.697  10.692  11.040 -0.3079 -0.4207 -0.2895
  360MOL0     C49606  -0.811  10.747  10.968 -0.3927  0.1415 -0.2916
  360MOL0     C49607  -0.898  10.784  10.890 -0.4267 -0.3881  0.5030
  360MOL0     C49608  -0.292  10.359  10.855  0.0108  0.2238 -0.1219
  360MOL0     C49609  -0.166  10.319  10.886 -0.2929  0.6158  0.7398
  360MOL0     C49610  -0.120  10.322  11.024 -0.6768 -0.3678 -0.3351
  360MOL0     H49611   0.300  10.412  10.658 -0.9021 -0.9347  1.3321
  360MOL0     H49612   0.551  10.396  10.663 -2.8542  1.2967 -4.5409
  360MOL0     H49613   0.726   9.997  10.594 -1.3765 -0.4028  0.1179
  360MOL0     H49614   0.714   9.987  10.770 -0.1306  0.2997  1.3175
  360MOL0     H49615   0.937  10.131  10.628  1.0898  0.5366  1.2257
  360MOL0     H49616   0.925  10.099  10.805  0.2078  3.8011 -1.5801
  360MOL0     H49617   0.953   9.866  10.772 -2.8802  2.7311  1.8646
  360MOL0     H49618   0.967   9.883  10.605 -0.2113 -1.1968  0.4826
  360MOL0     H49619   1.174  10.065  10.677  0.7978  0.2830  0.4368
  360MOL0     H49620   1.137   9.975  10.831  0.6470  0.2539  0.4542
  360MOL0     H49621   1.186   9.804  10.581  1.9594 -1.8816  0.1040
  360MOL0     H49622   1.198   9.776  10.754  3.0015 -1.5921 -0.0188
  360MOL0     H49623   1.412   9.944  10.620  3.3962 -0.4405 -0.5575
  360MOL0     H49624   1.411   9.876  10.778  0.4067  2.5345 -1.5418
  360MOL0     H49625   1.420   9.727  10.507 -2.0433 -1.1206  0.0549
  360MOL0     H49626   1.396   9.640  10.662  2.5348 -0.6708  0.9963
  360MOL0     H49627   1.639   9.796  10.579 -0.3134 -0.2251 -1.3615
  360MOL0     H49628   1.604   9.728  10.749 -2.6158 -1.3085  0.6443
  360MOL0     H49629   1.666   9.616  10.399 -1.3456  0.7349  1.7751
  360MOL0     H49630   1.722   9.332  10.298  0.0846 -1.4559 -0.1045
  360MOL0     H49631   1.823   9.251  10.418 -2.7989  1.5233  3.4647
  360MOL0     H49632   1.958   9.370  10.219 -0.1383  2.6641 -0.6302
  360MOL0     H49633   1.918   9.510  10.287  3.3802  1.1836  1.7242
  360MOL0     H49634   2.051   9.490  10.480  0.8979  1.5433 -1.6711
  360MOL0     H49635   2.041   9.307  10.474  0.4094 -2.0450 -2.6705
  360MOL0     H49636   2.188   9.306  10.284  1.8196  2.7138 -6.2520
  360MOL0     H49637   2.178   9.481  10.261  0.0113  0.1131  0.6689
  360MOL0     H49638   2.518   9.429  10.295  0.9002  0.2069  0.4986
  360MOL0     H49639   2.732   9.359  10.236 -0.0809 -0.9677 -1.6793
  360MOL0     H49640   2.741   9.180  10.221  1.9416 -0.7790  0.7339
  360MOL0     H49641   2.822   9.263  10.355 -0.7836 -1.3002  1.0868
  360MOL0     H49642   2.915   9.038  10.643 -2.8566  0.2271  0.5108
  360MOL0     H49643   3.117   8.908  10.752  2.6482 -1.8779 -0.9401
  360MOL0     H49644   3.166   8.492  10.936 -1.2542 -0.5399  2.5553
  360MOL0     H49645   2.996   8.517  10.953 -0.2310 -2.9308  0.0797
  360MOL0     H49646   2.988   8.431  10.711 -1.2722  2.6664  3.1096
  360MOL0     H49647   3.165   8.427  10.700  0.7952 -1.5100 -0.2847
  360MOL0     H49648   3.110   8.194  10.730  0.6270 -0.1754  0.4385
  360MOL0     H49649   2.975   8.231  10.838  0.1291  0.7783  1.1519
  360MOL0     H49650   3.120   8.271  11.028  0.5628 -0.0803  0.5503
  360MOL0     H49651   3.265   8.268  10.915  0.7602 -1.7538  0.1841
  360MOL0     H49652   3.072   8.046  10.956  0.0596 -1.8082 -1.5571
  360MOL0     H49653   3.225   8.042  10.860 -0.0541  2.1178 -0.3147
  360MOL0     H49654   3.203   8.058  11.159 -2.0379  1.3892 -1.1239
  360MOL0     H49655   3.351   8.098  11.065 -1.4633  1.2143 -0.7688
  360MOL0     H49656   3.349   7.874  10.947  1.6051  0.0827  0.6604
  360MOL0     H49657   3.197   7.839  11.037  1.3190 -1.2320 -4.8882
  360MOL0     H49658   3.381   7.727  11.157  0.3979 -0.2963 -1.4136
  360MOL0     H49659   3.351   7.874  11.246  0.2635 -0.7087  0.0329
  360MOL0     H49660   2.838   8.575  10.805  0.5646 -0.3211  1.1352
  360MOL0     H49661   2.656   8.701  10.702  1.1068 -1.7725 -2.4018
  360MOL0     H49662   2.454   9.072  10.635 -0.0181  1.2132  1.3728
  360MOL0     H49663   2.272   9.199  10.568  0.5287 -3.3551  1.3538
  360MOL0     H49664   0.500   9.965  10.707  1.8620 -0.1639 -2.2024
  360MOL0     H49665   0.262   9.994  10.715  0.9143 -0.8461  1.4458
  360MOL0     H49666  -0.078  10.246  10.558 -1.6096 -1.6263 -0.0976
  360MOL0     H49667  -0.298  10.347  10.520  0.2802 -1.5972 -0.2345
  360MOL0     H49668  -0.673  10.357  10.782 -0.1039  1.1056 -1.5459
  360MOL0     H49669  -0.546  10.341  10.896 -1.7870 -1.5196 -0.5828
  360MOL0     H49670  -0.646  10.617  10.784 -1.2249  0.9556  1.6528
  360MOL0     H49671  -0.494  10.603  10.864  1.1629 -2.1611 -0.4276
  360MOL0     H49672  -0.754  10.488  10.987  2.2583 -4.3812 -0.2695
  360MOL0     H49673  -0.595  10.495  11.050  0.4108  0.6479 -0.5780
  360MOL0     H49674  -0.609  10.757  11.037 -0.4544 -0.0745  1.5455
  360MOL0     H49675  -0.727  10.700  11.145 -1.9817 -1.6580 -0.6276
  360MOL0     H49676  -0.960  10.840  10.823  1.7488  2.1360  0.4289
  360MOL0     H49677  -0.359  10.388  10.935 -0.9288  1.3537 -1.2669
  360MOL0     H49678  -0.197  10.334  11.100  1.2461 -2.3205  2.0765
  360MOL0     H49679  -0.075  10.228  11.056  2.6253 -0.8857 -5.3796
  360MOL0     H49680  -0.049  10.399  11.053  0.0573 -0.4507 -1.7884
  361MOL0     O49681   3.846   1.578   7.970  0.3894  0.7996  0.4739
  361MOL0     C49682   3.796   1.668   7.910 -0.7394 -0.0185  0.1257
  361MOL0     O49683   3.760   1.786   7.966 -0.5578  0.2117  0.2560
  361MOL0     C49684   3.739   1.788   8.095  0.2514 -0.5582 -0.4171
  361MOL0     C49685   3.618   1.743   8.147  0.0136  1.1351  0.2346
  361MOL0     C49686   3.582   1.758   8.284  0.0685 -0.0193  0.4045
  361MOL0     C49687   3.672   1.824   8.365 -0.5078  0.3259 -0.5283
  361MOL0     O49688   3.630   1.829   8.496 -0.0658  0.2686 -0.1891
  361MOL0     C49689   3.723   1.841   8.603  0.4432 -0.7030 -0.3192
  361MOL0     C49690   3.672   1.875   8.745  0.3844  0.3888  0.1339
  361MOL0     C49691   3.533   1.814   8.771 -0.6505  0.6748  0.0477
  361MOL0     C49692   3.420   1.909   8.729  0.4479  0.7059  0.2582
  361MOL0     C49693   3.301   1.886   8.836 -0.7358  0.0020  0.7243
  361MOL0     C49694   3.182   1.976   8.803 -0.5494 -0.5051  0.4287
  361MOL0     C49695   3.136   1.985   8.650 -0.7476  0.0104 -0.7776
  361MOL0     C49696   3.117   1.846   8.596  0.2736 -0.5299  0.3517
  361MOL0     N49697   3.098   1.857   8.452 -0.5620 -0.0046  0.1427
  361MOL0     C49698   3.198   1.854   8.359  0.2121  0.5366 -0.3507
  361MOL0     C49699   3.143   1.894   8.239  1.0276 -0.1746 -0.1768
  361MOL0     C49700   3.228   1.904   8.115 -0.4219  0.0362 -0.0017
  361MOL0     C49701   3.218   2.041   8.044 -0.5240 -0.5184  0.7113
  361MOL0     C49702   3.268   2.046   7.900  0.4029  0.0837  0.2293
  361MOL0     C49703   3.420   2.011   7.887 -0.7025  0.2354  0.1199
  361MOL0     O49704   3.447   1.999   7.747 -0.6947  0.4628  0.2586
  361MOL0     C49705   3.583   2.008   7.712 -0.0233  0.6377  0.2297
  361MOL0     C49706   3.689   2.046   7.787 -0.1132  0.2468  1.2701
  361MOL0     C49707   3.815   2.070   7.731  0.3420 -0.6741 -0.1401
  361MOL0     C49708   3.921   2.116   7.829  0.6595  0.3201  0.0804
  361MOL0     C49709   3.837   2.061   7.587  0.4560  0.3323 -0.2828
  361MOL0     C49710   3.962   2.086   7.515  0.2384  0.2943  0.6029
  361MOL0     O49711   4.058   2.160   7.578 -0.3299  0.7537  0.0485
  361MOL0     C49712   4.176   2.205   7.530  0.4704  0.2578  0.1283
  361MOL0     C49713   4.230   2.184   7.403 -0.5121 -0.1136 -0.3955
  361MOL0     C49714   4.357   2.239   7.364  0.0366  0.9104 -0.6678
  361MOL0     C49715   4.424   2.323   7.454  0.7823 -0.3441  0.1501
  361MOL0     O49716   4.555   2.353   7.429 -0.1990 -0.0474 -0.2716
  361MOL0     C49717   4.637   2.416   7.533 -0.2429  0.4003 -0.1088
  361MOL0     C49718   4.771   2.466   7.470  0.3711 -0.4413  0.0526
  361MOL0     C49719   4.847   2.552   7.566 -0.9092 -0.0467 -0.5271
  361MOL0     C49720   4.966   2.624   7.502 -0.0656  0.7873 -0.1186
  361MOL0     C49721   5.064   2.532   7.423 -0.4934  0.2083 -0.5062
  361MOL0     C49722   5.151   2.451   7.527  0.4660  0.0533  0.3108
  361MOL0     C49723   5.236   2.356   7.452 -0.9353  0.1389 -0.4582
  361MOL0     C49724   5.318   2.267   7.547 -0.0312 -0.0945  0.1177
  361MOL0    Cl49725   5.205   2.164   7.643  0.3930  0.0821 -0.3160
  361MOL0     C49726   4.357   2.362   7.567  0.4982 -0.0869 -0.0679
  361MOL0     C49727   4.241   2.302   7.601 -0.0436 -0.7478 -0.0829
  361MOL0     O49728   3.969   2.046   7.395 -0.0282  0.3946 -0.2431
  361MOL0     C49729   3.731   2.013   7.513 -0.3775 -1.0680  0.2213
  361MOL0     C49730   3.603   1.990   7.569 -0.1832  0.0467 -0.8545
  361MOL0     N49731   3.015   1.937   8.263 -0.4206  0.4271  0.6018
  361MOL0     N49732   2.991   1.918   8.392 -0.5267 -0.0839 -0.2160
  361MOL0     C49733   3.792   1.881   8.313  0.1839 -0.8075  0.1039
  361MOL0     C49734   3.823   1.862   8.179  0.1286 -0.3140  0.0334
  361MOL0     C49735   3.776   1.643   7.762  0.3935 -0.0952 -0.5046
  361MOL0     C49736   3.649   1.673   7.720 -0.4439  0.5876  0.1849
  361MOL0     C49737   3.606   1.661   7.593  0.7371  1.2069 -0.3751
  361MOL0     C49738   3.687   1.591   7.500  0.5461  0.2646  0.1799
  361MOL0     O49739   3.626   1.555   7.379  0.5694 -0.7369 -0.4247
  361MOL0     C49740   3.692   1.580   7.257  0.1892 -0.1756 -0.0509
  361MOL0     C49741   3.668   1.724   7.211  0.7287  0.1529 -0.8301
  361MOL0     C49742   3.713   1.756   7.070  0.4316  0.8719 -0.9698
  361MOL0     C49743   3.655   1.889   7.048  0.1109 -0.2309 -0.2962
  361MOL0     C49744   3.701   1.948   6.924 -0.8625 -0.7064  0.3850
  361MOL0     C49745   3.750   1.985   6.818  0.0886 -1.3619 -1.0883
  361MOL0     C49746   3.813   1.544   7.538 -0.7448  0.0535 -0.2750
  361MOL0     C49747   3.857   1.569   7.672 -0.0513  0.7786 -0.1752
  361MOL0     C49748   4.005   1.527   7.701 -0.4316 -0.1050 -0.1566
  361MOL0     H49749   3.548   1.690   8.083  1.3277  0.2452 -0.5136
  361MOL0     H49750   3.492   1.713   8.325  0.6089 -1.6123 -0.0900
  361MOL0     H49751   3.800   1.915   8.578 -1.0282  1.0126  0.0447
  361MOL0     H49752   3.775   1.745   8.606  1.2876 -0.4790 -3.3961
  361MOL0     H49753   3.750   1.838   8.811  0.3294 -0.5204 -0.2966
  361MOL0     H49754   3.660   1.982   8.765  0.6963  1.2708 -3.5853
  361MOL0     H49755   3.529   1.713   8.729 -2.1470  0.5365  0.4822
  361MOL0     H49756   3.530   1.805   8.880  0.1028 -0.6654 -0.0086
  361MOL0     H49757   3.449   2.015   8.734  0.8963  0.5669  0.6157
  361MOL0     H49758   3.394   1.885   8.625 -0.7633 -0.5901  0.8266
  361MOL0     H49759   3.326   1.908   8.940  1.4455 -2.7366  0.8869
  361MOL0     H49760   3.274   1.780   8.832 -0.4370 -0.1368  1.9614
  361MOL0     H49761   3.098   1.942   8.864 -0.6469 -0.9766  0.0355
  361MOL0     H49762   3.208   2.077   8.837 -1.2877 -0.4605  0.8720
  361MOL0     H49763   3.220   2.040   8.606  2.9263 -1.4863  3.6012
  361MOL0     H49764   3.047   2.047   8.635 -0.0942  2.1119  2.9301
  361MOL0     H49765   3.209   1.788   8.602 -1.0350 -3.4286 -3.2253
  361MOL0     H49766   3.039   1.786   8.644  0.1153  0.8845  1.9521
  361MOL0     H49767   3.298   1.820   8.384  0.1793  0.9431  0.3579
  361MOL0     H49768   3.200   1.829   8.040  2.1738 -0.3006 -0.7422
  361MOL0     H49769   3.331   1.882   8.143  0.7991  4.3033 -0.4415
  361MOL0     H49770   3.116   2.080   8.039  0.5237  2.2963 -1.9031
  361MOL0     H49771   3.280   2.109   8.105 -1.9290  0.8280  0.6988
  361MOL0     H49772   3.207   1.979   7.838 -0.7646  0.9136  0.4527
  361MOL0     H49773   3.250   2.140   7.848 -3.0023 -0.6123 -0.1116
  361MOL0     H49774   3.479   2.086   7.939 -1.9977  1.3246  0.0851
  361MOL0     H49775   3.438   1.912   7.929 -1.4671  0.3107  0.6510
  361MOL0     H49776   3.690   2.041   7.895  3.7756  0.9373  1.3725
  361MOL0     H49777   3.957   2.219   7.816 -1.5282  0.8812 -2.5034
  361MOL0     H49778   4.002   2.044   7.820 -1.2084 -1.8273 -0.3947
  361MOL0     H49779   3.880   2.099   7.929  2.3328 -0.0808  0.7175
  361MOL0     H49780   4.185   2.112   7.336 -0.1259 -0.6727 -0.0629
  361MOL0     H49781   4.412   2.207   7.277  2.7041  1.5172  0.6870
  361MOL0     H49782   4.585   2.503   7.574 -1.5796 -0.1525 -0.5807
  361MOL0     H49783   4.660   2.349   7.616  0.5879  2.8271  1.7693
  361MOL0     H49784   4.823   2.378   7.430  1.6106 -0.2514  1.2042
  361MOL0     H49785   4.754   2.543   7.394 -0.0968 -2.6032 -2.1559
  361MOL0     H49786   4.901   2.484   7.633 -2.1754 -2.4971 -1.8811
  361MOL0     H49787   4.775   2.619   7.615 -0.1767  2.3822 -2.5661
  361MOL0     H49788   5.027   2.673   7.579  1.5819 -0.1929 -0.7288
  361MOL0     H49789   4.948   2.705   7.432  0.9180  0.2935 -0.9806
  361MOL0     H49790   5.014   2.462   7.355 -0.2460 -2.3867  1.7645
  361MOL0     H49791   5.133   2.588   7.360  0.3599 -1.3111 -0.9883
  361MOL0     H49792   5.085   2.389   7.588 -1.2096  1.6696  0.2320
  361MOL0     H49793   5.208   2.509   7.600  0.2364  0.0242  0.5141
  361MOL0     H49794   5.302   2.408   7.383 -0.2315  0.2321  0.2720
  361MOL0     H49795   5.167   2.299   7.389  0.8962 -2.3638 -0.3595
  361MOL0     H49796   5.376   2.334   7.612  1.7816 -1.5618  0.1061
  361MOL0     H49797   5.394   2.202   7.501  1.2055  0.8040  0.8278
  361MOL0     H49798   4.396   2.432   7.641  1.4938 -2.3304  1.6616
  361MOL0     H49799   4.192   2.321   7.696 -1.1430 -3.8626  0.0780
  361MOL0     H49800   3.739   2.002   7.405 -1.0084 -3.6007  0.3725
  361MOL0     H49801   3.526   1.950   7.504 -2.4488  0.3014  1.5125
  361MOL0     H49802   3.855   1.934   8.384  0.0351 -2.1484  1.2740
  361MOL0     H49803   3.917   1.900   8.139  0.4991 -0.0932  1.0771
  361MOL0     H49804   3.572   1.717   7.784 -1.9390  0.4771 -1.4782
  361MOL0     H49805   3.513   1.705   7.558  2.4406  3.1044 -2.9640
  361MOL0     H49806   3.801   1.572   7.263  0.0534 -1.8225  0.5191
  361MOL0     H49807   3.653   1.507   7.186 -1.1362 -0.8945  1.3483
  361MOL0     H49808   3.730   1.779   7.282  3.3522 -1.5168 -1.6725
  361MOL0     H49809   3.560   1.739   7.222  0.1108 -2.4384 -2.4494
  361MOL0     H49810   3.821   1.754   7.056  0.4907  3.1815 -1.1639
  361MOL0     H49811   3.671   1.687   6.996 -3.6877  2.2305 -0.1659
  361MOL0     H49812   3.669   1.954   7.135 -3.0994 -0.9564  0.9182
  361MOL0     H49813   3.546   1.880   7.041  0.0877  0.8656 -2.1221
  361MOL0     H49814   3.770   2.011   6.716 -0.2789 -3.0695 -1.6425
  361MOL0     H49815   3.858   1.474   7.469  0.8752 -0.5571  1.3100
  361MOL0     H49816   4.026   1.520   7.808  1.6362 -0.1204 -0.5208
  361MOL0     H49817   4.034   1.435   7.651  1.2632  0.6278 -0.5989
  361MOL0     H49818   4.065   1.609   7.661  0.2829 -1.1844 -1.3878
  362MOL0     O49819   4.513   0.038   0.181 -0.0313 -0.4087  0.0378
  362MOL0     C49820   4.432  -0.044   0.127 -0.6275 -1.0029 -0.5766
  362MOL0     O49821   4.299  -0.021   0.093 -0.6843 -0.4510 -0.2442
  362MOL0     C49822   4.251   0.104   0.090  0.0005  0.6243  0.6200
  362MOL0     C49823   4.297   0.217   0.154 -0.0198  0.4216  0.3558
  362MOL0     C49824   4.227   0.341   0.136 -0.2958  0.4923 -1.0989
  362MOL0     C49825   4.121   0.355   0.047  1.2975 -0.2709 -0.9469
  362MOL0     O49826   4.076   0.486   0.031 -0.3894  0.9890  0.2257
  362MOL0     C49827   4.029   0.532  -0.099  0.0319 -0.4830 -0.2424
  362MOL0     C49828   4.138   0.590  -0.182 -0.0981  0.2805 -0.2570
  362MOL0     C49829   4.209   0.711  -0.112  0.2150  0.5700  0.6406
  362MOL0     C49830   4.123   0.836  -0.142 -0.3405  0.1662 -0.1217
  362MOL0     C49831   4.191   0.949  -0.076  0.5509 -0.2919  0.1280
  362MOL0     C49832   4.149   1.086  -0.129  0.5648 -1.2901 -0.4485
  362MOL0     C49833   3.999   1.122  -0.162 -0.9649  0.2157 -0.1663
  362MOL0     C49834   3.895   1.130  -0.044 -0.4326  0.0791 -0.3708
  362MOL0     N49835   3.759   1.140  -0.097  0.8177 -0.2430  0.4354
  362MOL0     C49836   3.679   1.226  -0.036  0.2944  0.6990 -0.2770
  362MOL0     C49837   3.563   1.230  -0.109  0.6816  0.7046  0.2191
  362MOL0     C49838   3.434   1.312  -0.082 -0.0390  0.8218 -0.2461
  362MOL0     C49839   3.327   1.222  -0.026  0.2682 -0.2662 -0.7444
  362MOL0     C49840   3.193   1.295  -0.027 -0.4912 -0.3526  0.5581
  362MOL0     C49841   3.104   1.227   0.070 -0.4628 -0.4734  1.1288
  362MOL0     O49842   2.993   1.304   0.098  1.2283 -0.1316 -0.4958
  362MOL0     C49843   2.881   1.312   0.012 -0.0857 -0.0085  0.0624
  362MOL0     C49844   2.863   1.241  -0.102 -0.2263 -0.4056 -0.2743
  362MOL0     C49845   2.742   1.264  -0.173 -0.3924  0.3656  0.6133
  362MOL0     C49846   2.734   1.181  -0.302  0.0253 -0.1955 -0.7695
  362MOL0     C49847   2.631   1.344  -0.132 -0.5326  0.2044 -0.7733
  362MOL0     C49848   2.501   1.367  -0.201 -0.7230 -0.0664 -1.3354
  362MOL0     O49849   2.409   1.450  -0.133 -1.0755 -0.3453  0.0547
  362MOL0     C49850   2.286   1.471  -0.195  0.3540 -0.1602 -0.2011
  362MOL0     C49851   2.180   1.516  -0.114  0.0574 -0.8852  1.1459
  362MOL0     C49852   2.055   1.563  -0.171 -0.7375  0.2456 -0.2486
  362MOL0     C49853   2.028   1.539  -0.304  0.6667  0.4585  1.2374
  362MOL0     O49854   1.893   1.572  -0.353 -0.4895  0.8346 -0.7460
  362MOL0     C49855   1.860   1.556  -0.488 -0.6391 -0.4385 -0.4174
  362MOL0     C49856   1.738   1.643  -0.512  0.2979 -0.9234  0.4265
  362MOL0     C49857   1.775   1.789  -0.534 -0.1900 -0.3053  0.2776
  362MOL0     C49858   1.653   1.886  -0.550 -0.1243 -0.4505  0.1908
  362MOL0     C49859   1.687   2.013  -0.620 -0.3034 -0.3897 -0.4720
  362MOL0     C49860   1.559   2.098  -0.633  0.2396 -0.3840  0.2587
  362MOL0     C49861   1.503   2.153  -0.497 -0.0546  0.1777  0.4880
  362MOL0     C49862   1.586   2.251  -0.415 -0.0271  0.4985 -0.5953
  362MOL0    Cl49863   1.507   2.290  -0.251  0.1540 -0.2277  0.2589
  362MOL0     C49864   2.129   1.494  -0.393 -0.3505  0.5703  0.2330
  362MOL0     C49865   2.253   1.471  -0.337  1.3752 -0.0448 -0.1316
  362MOL0     O49866   2.480   1.317  -0.305  0.0927 -0.5800  0.6963
  362MOL0     C49867   2.657   1.411  -0.004 -0.0850  1.0256  0.3847
  362MOL0     C49868   2.781   1.393   0.060  0.1070  0.1265 -0.2577
  362MOL0     N49869   3.579   1.153  -0.226 -0.2008 -0.2590 -0.5103
  362MOL0     N49870   3.705   1.116  -0.224  0.2606 -0.6568  0.6745
  362MOL0     C49871   4.075   0.240  -0.006 -0.0385  0.2131 -0.5218
  362MOL0     C49872   4.125   0.108   0.023  0.2801  0.6068 -0.9695
  362MOL0     C49873   4.483  -0.173   0.087  0.5444 -0.5677  0.7871
  362MOL0     C49874   4.389  -0.278   0.062 -0.2112 -0.6281 -0.3764
  362MOL0     C49875   4.432  -0.403   0.035  0.2787 -0.5941 -0.1582
  362MOL0     C49876   4.572  -0.436   0.024  0.2629 -0.0925 -0.1486
  362MOL0     O49877   4.620  -0.557  -0.020 -0.1646 -0.0562  0.0873
  362MOL0     C49878   4.532  -0.647  -0.080 -0.2995  0.1745 -0.4605
  362MOL0     C49879   4.482  -0.756   0.029  0.0838 -0.2988  0.0629
  362MOL0     C49880   4.393  -0.860  -0.046  0.2963  0.1425 -0.0397
  362MOL0     C49881   4.341  -0.951   0.063 -1.0086  0.5000  0.3898
  362MOL0     C49882   4.244  -1.049   0.015 -0.3284  0.0476 -0.1208
  362MOL0     C49883   4.153  -1.127  -0.019  1.1175  0.3030  0.0237
  362MOL0     C49884   4.658  -0.336   0.058 -0.6322 -0.4984 -0.0881
  362MOL0     C49885   4.623  -0.203   0.083  0.0708  0.0990 -0.1671
  362MOL0     C49886   4.734  -0.100   0.115 -0.8347 -0.0751  0.0792
  362MOL0     H49887   4.386   0.213   0.216  0.5261 -1.0734 -0.4851
  362MOL0     H49888   4.281   0.428   0.172 -0.3239  0.7759 -1.7203
  362MOL0     H49889   3.956   0.612  -0.081  0.8039  0.5562 -1.5069
  362MOL0     H49890   3.982   0.457  -0.163 -0.7201  0.7331 -1.1633
  362MOL0     H49891   4.214   0.513  -0.201 -3.2109 -2.2715 -4.0324
  362MOL0     H49892   4.095   0.619  -0.278 -1.3031  2.5060  0.8853
  362MOL0     H49893   4.224   0.680  -0.008 -0.0062 -0.4127  0.3944
  362MOL0     H49894   4.306   0.736  -0.154 -0.1890  1.1324  0.0290
  362MOL0     H49895   4.126   0.855  -0.250 -2.8452  0.8964 -0.1353
  362MOL0     H49896   4.020   0.818  -0.110  0.0604 -1.0878  0.5291
  362MOL0     H49897   4.299   0.951  -0.093  0.5090  2.2028 -0.3133
  362MOL0     H49898   4.162   0.951   0.030  0.4804  2.2698  0.1434
  362MOL0     H49899   4.195   1.167  -0.071  0.7464  0.8971 -3.4468
  362MOL0     H49900   4.201   1.086  -0.225 -0.3617  0.9194 -1.0127
  362MOL0     H49901   3.966   1.052  -0.239  2.3590 -0.0011 -1.5677
  362MOL0     H49902   4.010   1.223  -0.204  0.5419  0.3392  0.4542
  362MOL0     H49903   3.916   1.060   0.037 -0.0124  0.1478 -0.4199
  362MOL0     H49904   3.917   1.227   0.001 -0.6450  0.1703 -0.4599
  362MOL0     H49905   3.705   1.267   0.061 -0.6379 -1.8899  1.1630
  362MOL0     H49906   3.408   1.350  -0.182 -2.5635 -1.4382 -0.5569
  362MOL0     H49907   3.455   1.391  -0.010  1.9636 -1.1845  1.5131
  362MOL0     H49908   3.322   1.128  -0.082  0.9091 -1.3182  0.8900
  362MOL0     H49909   3.362   1.207   0.077 -3.4765  1.8237  1.0207
  362MOL0     H49910   3.198   1.402  -0.002 -0.8634 -0.3527  0.6394
  362MOL0     H49911   3.154   1.279  -0.128  1.7204 -2.1961 -0.0896
  362MOL0     H49912   3.080   1.126   0.034  1.0646 -0.8941  1.2189
  362MOL0     H49913   3.157   1.213   0.165  2.6079 -2.1057 -0.6988
  362MOL0     H49914   2.935   1.175  -0.149 -1.3380  0.6352 -3.7380
  362MOL0     H49915   2.816   1.109  -0.310 -0.9056 -1.6854  1.7739
  362MOL0     H49916   2.725   1.248  -0.387 -0.8945  0.4644 -0.1793
  362MOL0     H49917   2.646   1.116  -0.297  0.5616 -0.8864 -0.1398
  362MOL0     H49918   2.202   1.505  -0.008 -0.4332  0.3224  1.3852
  362MOL0     H49919   1.978   1.587  -0.098  0.7886  1.8860  0.8839
  362MOL0     H49920   1.945   1.594  -0.545  1.3407 -0.3242  2.3975
  362MOL0     H49921   1.831   1.454  -0.514 -0.0809 -0.6259 -0.3172
  362MOL0     H49922   1.689   1.620  -0.607 -2.6413  2.5687  0.8580
  362MOL0     H49923   1.660   1.640  -0.435 -0.8507  2.8462 -0.3674
  362MOL0     H49924   1.826   1.807  -0.629 -1.7141  2.7001 -0.0944
  362MOL0     H49925   1.842   1.831  -0.459  1.9348 -0.8385 -1.2250
  362MOL0     H49926   1.629   1.916  -0.448  1.9854  1.3974  0.2069
  362MOL0     H49927   1.565   1.834  -0.590  1.2602 -3.4737  0.7175
  362MOL0     H49928   1.770   2.065  -0.572  1.1430 -0.5682 -2.6640
  362MOL0     H49929   1.725   1.991  -0.720  1.4430 -1.8759  0.4441
  362MOL0     H49930   1.484   2.042  -0.688  1.5085 -0.4435 -1.5036
  362MOL0     H49931   1.569   2.186  -0.697 -2.0611 -0.5512 -0.4052
  362MOL0     H49932   1.473   2.067  -0.437 -0.7530 -0.0764 -0.2169
  362MOL0     H49933   1.416   2.211  -0.526  2.1306  2.3747 -2.2568
  362MOL0     H49934   1.605   2.345  -0.468 -0.2243  1.3242  0.7656
  362MOL0     H49935   1.689   2.215  -0.409  0.3172  1.6541  1.4946
  362MOL0     H49936   2.119   1.477  -0.500 -3.4513 -1.1283  0.6705
  362MOL0     H49937   2.324   1.451  -0.416 -1.1377  0.6372 -2.7349
  362MOL0     H49938   2.580   1.470   0.045 -1.1778 -0.3992  0.4711
  362MOL0     H49939   2.785   1.449   0.154 -0.2572 -0.3058  0.0201
  362MOL0     H49940   3.979   0.238  -0.056  0.2640 -2.6016 -1.2045
  362MOL0     H49941   4.079   0.019  -0.018 -2.1865  1.1724  0.4144
  362MOL0     H49942   4.283  -0.256   0.058  0.1451  1.0062 -2.8684
  362MOL0     H49943   4.357  -0.481   0.026  0.9043 -1.8700  3.6552
  362MOL0     H49944   4.448  -0.598  -0.131 -1.8459 -2.0265 -0.1948
  362MOL0     H49945   4.594  -0.694  -0.156 -1.0638 -0.6317 -0.5939
  362MOL0     H49946   4.404  -0.704   0.086  0.6825  0.4480  0.2156
  362MOL0     H49947   4.556  -0.802   0.094  1.4808  2.2684  0.3983
  362MOL0     H49948   4.308  -0.805  -0.087  0.8169 -0.6267 -2.2863
  362MOL0     H49949   4.443  -0.911  -0.128 -0.0250 -2.5292  1.3299
  362MOL0     H49950   4.280  -0.887   0.128 -2.8813  0.3414 -1.1276
  362MOL0     H49951   4.419  -0.995   0.125 -1.0481 -0.6415 -0.3445
  362MOL0     H49952   4.073  -1.190  -0.052  3.2933 -0.5458 -4.4617
  362MOL0     H49953   4.765  -0.355   0.053 -0.6039 -0.6681  1.0142
  362MOL0     H49954   4.836  -0.137   0.106  0.2577  2.7738 -0.1633
  362MOL0     H49955   4.720  -0.013   0.050 -2.0553 -1.6532 -1.9060
  362MOL0     H49956   4.722  -0.085   0.223 -0.8443  0.2326  0.0339
  363MOL0     O49957   1.121   2.456   3.825  0.6470  0.0117 -0.6842
  363MOL0     C49958   1.217   2.438   3.749 -0.2202 -0.0233  0.6840
  363MOL0     O49959   1.266   2.526   3.648  0.8705  0.0159  0.8019
  363MOL0     C49960   1.189   2.629   3.604 -0.1821  0.2536  0.1017
  363MOL0     C49961   1.113   2.621   3.491 -0.3140 -0.2287  0.1331
  363MOL0     C49962   1.025   2.726   3.449 -0.9108 -0.5650  0.2336
  363MOL0     C49963   1.031   2.850   3.517  0.3222 -0.7410  0.3605
  363MOL0     O49964   0.949   2.956   3.484 -0.4355  0.1093  0.4953
  363MOL0     C49965   0.840   2.949   3.381 -0.8589 -0.7333 -0.8727
  363MOL0     C49966   0.711   2.887   3.442 -0.4152 -0.4007  0.2182
  363MOL0     C49967   0.621   2.836   3.330  0.2284 -0.7558  0.2168
  363MOL0     C49968   0.479   2.831   3.390 -0.2562  0.1793 -0.5467
  363MOL0     C49969   0.417   2.971   3.387  0.7340  1.5709 -1.1368
  363MOL0     C49970   0.294   2.963   3.478  0.0183  0.5419  0.1462
  363MOL0     C49971   0.191   2.871   3.412  0.1958 -0.0356 -0.2924
  363MOL0     C49972   0.072   2.839   3.506  0.1298 -0.7232 -1.0045
  363MOL0     N49973  -0.024   2.742   3.454 -0.4595  0.5615  0.3297
  363MOL0     C49974   0.010   2.609   3.422  0.2109  0.1123  0.7181
  363MOL0     C49975  -0.108   2.539   3.396  0.9444  0.9310 -1.0263
  363MOL0     C49976  -0.129   2.388   3.372 -0.1385 -0.3309  1.1806
  363MOL0     C49977  -0.230   2.316   3.468 -0.3561  0.0663 -0.3758
  363MOL0     C49978  -0.168   2.307   3.606  0.2368  0.1313 -0.5256
  363MOL0     C49979  -0.254   2.248   3.712  1.3134 -0.1038  0.2572
  363MOL0     O49980  -0.296   2.119   3.674 -0.7007  0.0186  0.0232
  363MOL0     C49981  -0.397   2.054   3.738 -0.0199  0.3365 -0.4094
  363MOL0     C49982  -0.454   1.940   3.682 -0.6127  0.6316 -0.3737
  363MOL0     C49983  -0.564   1.872   3.733  0.0419 -0.5454  0.2990
  363MOL0     C49984  -0.599   1.728   3.671 -0.3768  0.1068 -0.3076
  363MOL0     C49985  -0.633   1.939   3.837  0.5204 -0.2519 -0.1323
  363MOL0     C49986  -0.761   1.879   3.891 -1.7439 -0.5186 -0.8284
  363MOL0     O49987  -0.870   1.965   3.923 -0.1666  0.2854 -0.5335
  363MOL0     C49988  -0.997   1.939   3.888 -0.7572  0.2639 -0.3489
  363MOL0     C49989  -1.048   1.845   3.804  0.3717  0.6295  0.1300
  363MOL0     C49990  -1.188   1.848   3.776  0.1248 -0.2866 -0.0503
  363MOL0     C49991  -1.276   1.921   3.850  0.4165 -0.8631 -0.4928
  363MOL0     O49992  -1.410   1.922   3.827 -0.1909  0.0708  0.0139
  363MOL0     C49993  -1.464   1.809   3.757 -0.3762  0.5383 -0.9161
  363MOL0     C49994  -1.606   1.792   3.792  0.7286  0.1048  0.2655
  363MOL0     C49995  -1.642   1.761   3.935 -0.2964 -1.5694  0.4947
  363MOL0     C49996  -1.666   1.613   3.958 -0.0150 -0.0103 -0.4079
  363MOL0     C49997  -1.735   1.589   4.103  0.3361  0.2542 -0.5184
  363MOL0     C49998  -1.745   1.438   4.138  0.1126  0.2092 -0.4325
  363MOL0     C49999  -1.824   1.431   4.278  0.1457 -0.0679  0.1998
  363MOL0     C50000  -1.979   1.407   4.251 -0.3612 -0.6627  0.0223
  363MOL0    Cl50001  -1.994   1.246   4.164  0.2160  0.3176 -0.2349
  363MOL0     C50002  -1.223   2.005   3.943 -0.2950  0.3084 -1.0987
  363MOL0     C50003  -1.089   2.022   3.962 -0.0938  0.2721  0.3119
  363MOL0     O50004  -0.763   1.759   3.910  0.4749  0.3679  0.7702
  363MOL0     C50005  -0.585   2.059   3.895  0.6013  0.6714 -0.5562
  363MOL0     C50006  -0.470   2.112   3.840 -0.3944  0.5202 -0.4396
  363MOL0     N50007  -0.213   2.629   3.419  0.3456  1.0646  0.4792
  363MOL0     N50008  -0.161   2.747   3.447 -1.0398 -0.4021 -0.9232
  363MOL0     C50009   1.125   2.871   3.617  1.5196 -0.6467 -0.3526
  363MOL0     C50010   1.198   2.762   3.667  0.1439 -0.3427 -0.4845
  363MOL0     C50011   1.289   2.310   3.773  0.1387 -0.8975  0.2221
  363MOL0     C50012   1.210   2.196   3.814  0.0754 -0.1463 -0.3352
  363MOL0     C50013   1.269   2.076   3.847  0.5413  0.3309  0.6257
  363MOL0     C50014   1.409   2.064   3.842 -0.2643  0.5072 -0.5199
  363MOL0     O50015   1.439   1.928   3.853  0.3814  0.4762 -0.3251
  363MOL0     C50016   1.574   1.918   3.903  0.4864 -0.7924  1.4169
  363MOL0     C50017   1.601   1.780   3.964  0.6680  0.1993  0.0764
  363MOL0     C50018   1.603   1.657   3.858 -0.5350 -0.0501 -0.6018
  363MOL0     C50019   1.467   1.583   3.829  0.4027 -0.6998  0.0802
  363MOL0     C50020   1.412   1.510   3.945 -0.8187 -0.0933  1.0324
  363MOL0     C50021   1.381   1.435   4.036  0.5794  0.2763 -0.4075
  363MOL0     C50022   1.490   2.173   3.810  0.1522  0.0864  0.5590
  363MOL0     C50023   1.426   2.290   3.769 -0.5424  0.0196  0.5123
  363MOL0     C50024   1.509   2.403   3.736  0.2009  0.7830 -0.1544
  363MOL0     H50025   1.109   2.522   3.446 -3.9112  0.7776 -2.1463
  363MOL0     H50026   0.948   2.714   3.374 -0.1444  0.6307 -0.7746
  363MOL0     H50027   0.873   2.883   3.301  0.4584 -2.5987  1.0920
  363MOL0     H50028   0.817   3.051   3.347 -1.3425  0.3551  2.3138
  363MOL0     H50029   0.741   2.796   3.497  1.1952 -0.8066 -1.2606
  363MOL0     H50030   0.664   2.962   3.507  0.0344  0.5920 -0.5866
  363MOL0     H50031   0.629   2.893   3.237  1.5511  0.3083  0.9344
  363MOL0     H50032   0.645   2.733   3.303 -0.1732 -0.8965  0.3792
  363MOL0     H50033   0.429   2.753   3.332 -3.3815  0.5115  1.4621
  363MOL0     H50034   0.484   2.787   3.490  0.7740  1.6436  0.0831
  363MOL0     H50035   0.397   3.006   3.285 -0.1291  3.0957 -0.4655
  363MOL0     H50036   0.486   3.045   3.430 -1.0303  2.3649  0.4458
  363MOL0     H50037   0.333   2.917   3.568  1.9883  2.8128  0.5530
  363MOL0     H50038   0.254   3.064   3.496 -1.7577 -0.1290  0.1610
  363MOL0     H50039   0.225   2.772   3.380 -0.2943  0.0913 -1.2291
  363MOL0     H50040   0.154   2.912   3.318 -2.4331 -1.5103 -0.0162
  363MOL0     H50041   0.107   2.798   3.601 -0.0562 -0.0216 -0.6252
  363MOL0     H50042   0.025   2.929   3.547  1.5565  0.1265 -1.1668
  363MOL0     H50043   0.111   2.570   3.423  0.0524 -0.8381 -3.0780
  363MOL0     H50044  -0.030   2.344   3.388 -1.1793 -2.1084  3.1513
  363MOL0     H50045  -0.148   2.377   3.265 -0.2563  1.3334  1.0032
  363MOL0     H50046  -0.331   2.358   3.463 -0.0771  0.9389  0.8582
  363MOL0     H50047  -0.249   2.212   3.438  3.0079 -1.1808  1.2417
  363MOL0     H50048  -0.072   2.255   3.600  1.2838  1.8358  0.7140
  363MOL0     H50049  -0.141   2.410   3.628 -0.6297 -0.0876  1.8735
  363MOL0     H50050  -0.200   2.228   3.805  0.6952 -0.3260  0.5747
  363MOL0     H50051  -0.343   2.309   3.729  0.2850 -1.6619  0.7059
  363MOL0     H50052  -0.402   1.908   3.592  2.8850  1.2644  1.2413
  363MOL0     H50053  -0.571   1.716   3.566 -1.2229 -2.4206 -0.3223
  363MOL0     H50054  -0.708   1.716   3.670 -0.2076 -1.7809 -0.0576
  363MOL0     H50055  -0.563   1.639   3.723 -1.4334  0.0409  0.3516
  363MOL0     H50056  -0.981   1.775   3.754 -0.1780  0.2200 -0.0351
  363MOL0     H50057  -1.216   1.783   3.694  0.3599 -0.6795  0.1739
  363MOL0     H50058  -1.453   1.824   3.650 -0.9941  2.3026 -0.7581
  363MOL0     H50059  -1.425   1.713   3.793  0.0535  0.4820 -1.5194
  363MOL0     H50060  -1.666   1.876   3.755 -3.4738 -2.6316  0.2170
  363MOL0     H50061  -1.645   1.706   3.737  0.3098  0.6631 -0.3296
  363MOL0     H50062  -1.730   1.820   3.960  1.5186  1.7462 -0.3810
  363MOL0     H50063  -1.563   1.783   4.008 -0.7259 -2.1104  1.1318
  363MOL0     H50064  -1.570   1.563   3.949 -0.7706 -1.4724 -0.6244
  363MOL0     H50065  -1.729   1.579   3.876  1.3885 -0.0271 -1.5172
  363MOL0     H50066  -1.674   1.647   4.172  0.7922 -0.5764 -0.2118
  363MOL0     H50067  -1.836   1.630   4.111  0.3558 -0.0128  1.5591
  363MOL0     H50068  -1.643   1.400   4.149  0.1592  0.6761  0.8953
  363MOL0     H50069  -1.806   1.396   4.058 -2.5443 -0.4041  1.7932
  363MOL0     H50070  -1.809   1.524   4.334  3.9866  1.1149 -2.3517
  363MOL0     H50071  -1.791   1.347   4.340  0.7313  0.8399  1.1741
  363MOL0     H50072  -2.017   1.489   4.190  1.7283 -0.2072 -0.7419
  363MOL0     H50073  -2.037   1.399   4.344 -1.0518  0.3281 -0.3185
  363MOL0     H50074  -1.287   2.066   4.006 -2.0326 -1.2509 -1.2700
  363MOL0     H50075  -1.063   2.098   4.035  1.7586  0.3690 -0.4179
  363MOL0     H50076  -0.634   2.091   3.987  1.3796 -2.4817  1.1018
  363MOL0     H50077  -0.427   2.193   3.898  1.8001 -1.2477  0.5782
  363MOL0     H50078   1.118   2.969   3.663  2.1369 -1.4063  1.4706
  363MOL0     H50079   1.257   2.784   3.756 -2.7170  0.7634  1.2862
  363MOL0     H50080   1.103   2.213   3.814  0.1115  0.1281  0.7351
  363MOL0     H50081   1.201   1.997   3.875 -1.5125  2.7260  2.9701
  363MOL0     H50082   1.647   1.931   3.823 -2.3842  1.3547 -1.0526
  363MOL0     H50083   1.586   1.998   3.977  1.2791 -0.6223  1.1115
  363MOL0     H50084   1.523   1.753   4.036 -1.3141  2.6369 -0.9671
  363MOL0     H50085   1.692   1.786   4.024 -0.3830  2.2617  1.6022
  363MOL0     H50086   1.655   1.690   3.768  0.9246 -2.6054 -0.7714
  363MOL0     H50087   1.678   1.592   3.905 -0.8668 -1.0387 -1.4341
  363MOL0     H50088   1.466   1.503   3.755 -3.7291 -1.4461  0.6897
  363MOL0     H50089   1.400   1.665   3.800  0.6912  0.3404  2.1404
  363MOL0     H50090   1.363   1.379   4.126  1.6280 -1.3987 -1.1833
  363MOL0     H50091   1.594   2.152   3.789 -0.1591 -0.2418 -0.7196
  363MOL0     H50092   1.504   2.440   3.634  0.7801 -1.5565 -1.0910
  363MOL0     H50093   1.479   2.486   3.800 -2.4328 -0.1535 -0.0622
  363MOL0     H50094   1.613   2.386   3.768 -1.0204 -1.4905  3.1900
  364MOL0     O50095  10.935   5.338   6.861 -0.3640  0.1303 -0.5970
  364MOL0     C50096  10.831   5.339   6.921  0.3503 -0.0473  0.5814
  364MOL0     O50097  10.734   5.439   6.902 -0.3036  0.6956  0.2917
  364MOL0     C50098  10.761   5.536   6.816  0.1431  0.0035  0.7137
  364MOL0     C50099  10.719   5.525   6.684  0.2458 -0.5124  0.0856
  364MOL0     C50100  10.743   5.630   6.593 -0.0919  0.5598 -0.4474
  364MOL0     C50101  10.818   5.745   6.637  0.4948  0.7086  0.5945
  364MOL0     O50102  10.863   5.840   6.553 -0.1998 -0.3093 -0.5891
  364MOL0     C50103  10.860   5.833   6.412 -0.9242 -1.0534  1.0065
  364MOL0     C50104  10.923   5.976   6.365 -0.5957  0.3712 -0.2833
  364MOL0     C50105  11.006   5.958   6.238  0.1877 -0.6145  0.0107
  364MOL0     C50106  10.928   5.917   6.110  0.0610 -0.1047 -0.2255
  364MOL0     C50107  11.003   5.936   5.979 -0.1269 -0.0473 -0.9246
  364MOL0     C50108  11.108   5.835   5.949 -0.1719  0.2294  0.1935
  364MOL0     C50109  11.177   5.879   5.815 -0.1410  0.2964  0.0539
  364MOL0     C50110  11.325   5.845   5.822 -0.5274 -0.0032  0.2653
  364MOL0     N50111  11.391   5.952   5.898 -0.8460  0.8923  0.1483
  364MOL0     C50112  11.426   6.070   5.834  0.4271  0.9530  0.5816
  364MOL0     C50113  11.474   6.144   5.940  0.4912  0.0237 -0.2677
  364MOL0     C50114  11.520   6.286   5.928 -0.1751  0.2405 -0.6583
  364MOL0     C50115  11.634   6.307   6.020 -0.6952 -0.7386 -0.0797
  364MOL0     C50116  11.698   6.449   5.993  0.6136 -0.1329  0.3077
  364MOL0     C50117  11.832   6.465   6.062 -0.7312 -0.0512 -0.2606
  364MOL0     O50118  11.814   6.439   6.205  0.8077 -0.5197  0.0450
  364MOL0     C50119  11.928   6.400   6.280 -0.4453 -0.5893  0.9770
  364MOL0     C50120  12.058   6.375   6.237 -1.3068  0.0530 -0.5570
  364MOL0     C50121  12.168   6.342   6.326  0.8907  0.3262  0.9695
  364MOL0     C50122  12.308   6.332   6.263  0.4343  0.5246  0.1096
  364MOL0     C50123  12.138   6.323   6.463  0.1793 -0.6757 -0.3315
  364MOL0     C50124  12.232   6.285   6.572 -0.0813  0.8427  0.0815
  364MOL0     O50125  12.184   6.261   6.695  0.3577 -0.3605 -0.7499
  364MOL0     C50126  12.278   6.231   6.795  0.4745  1.2116  0.0225
  364MOL0     C50127  12.268   6.098   6.851 -0.4735  0.3241 -0.6045
  364MOL0     C50128  12.376   6.054   6.933 -0.1424 -0.6428  0.5345
  364MOL0     C50129  12.487   6.134   6.957 -0.1724  0.2266 -0.1467
  364MOL0     O50130  12.605   6.095   7.022  0.3624  0.8313  0.4326
  364MOL0     C50131  12.614   5.954   7.060  0.7786  0.2964 -0.3082
  364MOL0     C50132  12.750   5.915   7.121  0.8501 -0.7272 -0.2732
  364MOL0     C50133  12.751   5.934   7.276  0.7996 -0.6467  0.5756
  364MOL0     C50134  12.889   5.958   7.325  0.1798 -0.4634 -0.3224
  364MOL0     C50135  12.903   5.992   7.481  0.5254  0.1689  0.8841
  364MOL0     C50136  13.051   6.020   7.524  0.4934  0.9934 -0.0158
  364MOL0     C50137  13.060   6.075   7.673  0.1865  0.4572  0.2603
  364MOL0     C50138  13.176   6.164   7.694  0.2541  0.0627  0.0925
  364MOL0    Cl50139  13.179   6.230   7.869  0.4428 -0.0553  0.2822
  364MOL0     C50140  12.486   6.265   6.898  0.3758  0.3625 -0.6782
  364MOL0     C50141  12.372   6.320   6.828 -1.1948  0.1631  0.5250
  364MOL0     O50142  12.347   6.291   6.545 -0.4757 -0.0976  0.0771
  364MOL0     C50143  12.004   6.330   6.504 -0.0249 -0.1482  0.9094
  364MOL0     C50144  11.910   6.375   6.412 -0.5107 -0.1026 -0.3988
  364MOL0     N50145  11.475   6.063   6.050  0.1160  0.0521  0.5765
  364MOL0     N50146  11.431   5.946   6.027 -0.0787  0.2974 -0.5635
  364MOL0     C50147  10.853   5.748   6.773  0.3433 -1.0570  0.1107
  364MOL0     C50148  10.815   5.653   6.864  0.5048 -0.3184 -1.3094
  364MOL0     C50149  10.802   5.231   7.023 -0.1234 -0.3974 -0.3151
  364MOL0     C50150  10.874   5.111   7.011  0.4227  0.4512  0.1540
  364MOL0     C50151  10.871   5.010   7.103 -0.1873 -1.5251  0.2456
  364MOL0     C50152  10.786   5.021   7.206  0.9305 -0.1451 -0.1249
  364MOL0     O50153  10.773   4.902   7.279  0.6827 -0.5619  0.9741
  364MOL0     C50154  10.645   4.827   7.251 -0.3623  0.0558 -0.4327
  364MOL0     C50155  10.639   4.755   7.116 -0.1331  1.0168  0.4645
  364MOL0     C50156  10.719   4.617   7.122  0.4043 -0.3706 -0.3864
  364MOL0     C50157  10.852   4.626   7.198 -0.7763  0.5215 -0.2337
  364MOL0     C50158  10.946   4.514   7.169 -0.5010 -0.6257  0.4175
  364MOL0     C50159  11.021   4.419   7.146  0.5759  0.2779  0.3977
  364MOL0     C50160  10.713   5.139   7.233  0.3802 -0.1125  0.3627
  364MOL0     C50161  10.718   5.250   7.139 -0.4996 -0.1370  0.9360
  364MOL0     C50162  10.657   5.380   7.181  0.1181  0.8016  0.1507
  364MOL0     H50163  10.671   5.433   6.653 -2.6050  0.5554  1.0164
  364MOL0     H50164  10.723   5.611   6.488 -2.0427 -2.7197  0.3855
  364MOL0     H50165  10.759   5.823   6.372 -0.6556  0.1781 -0.0515
  364MOL0     H50166  10.915   5.749   6.370 -0.4680 -0.6606  0.8137
  364MOL0     H50167  10.837   6.042   6.353  0.2507  1.6265  0.3812
  364MOL0     H50168  10.986   6.016   6.444  1.5607 -0.9535 -1.2202
  364MOL0     H50169  11.054   6.055   6.224 -3.3794  1.3476  0.1420
  364MOL0     H50170  11.077   5.882   6.271  0.3170  0.2065  1.7057
  364MOL0     H50171  10.895   5.814   6.125 -0.1185 -0.2200 -1.3197
  364MOL0     H50172  10.836   5.974   6.094  0.9628  1.6794  0.6447
  364MOL0     H50173  11.059   6.029   5.993  2.3397 -1.4206 -1.0260
  364MOL0     H50174  10.932   5.944   5.897  0.5378 -1.0302 -1.6187
  364MOL0     H50175  11.171   5.828   6.038 -0.5314  2.5332  0.7124
  364MOL0     H50176  11.055   5.744   5.918  1.0783 -0.3070 -0.4218
  364MOL0     H50177  11.163   5.985   5.794 -0.4204  0.6504  1.8665
  364MOL0     H50178  11.124   5.832   5.732  0.2773  0.9595 -0.6013
  364MOL0     H50179  11.342   5.742   5.855 -3.2383 -0.9797 -1.0567
  364MOL0     H50180  11.364   5.855   5.720 -1.1038 -0.9015 -0.0659
  364MOL0     H50181  11.407   6.090   5.729 -1.1439  0.5226  0.7463
  364MOL0     H50182  11.438   6.354   5.954 -0.8066 -1.2073  1.3648
  364MOL0     H50183  11.548   6.314   5.825 -0.4091  2.7212 -0.1257
  364MOL0     H50184  11.602   6.302   6.124  1.5354 -2.6430  0.6165
  364MOL0     H50185  11.711   6.229   6.010 -0.8492 -0.7426 -1.3706
  364MOL0     H50186  11.719   6.471   5.888  3.8341  2.4078  1.3316
  364MOL0     H50187  11.616   6.514   6.025  1.2746  0.0147  1.7717
  364MOL0     H50188  11.903   6.395   6.016  2.6321  2.1818  1.1109
  364MOL0     H50189  11.872   6.567   6.057 -1.5226  0.2395 -0.7506
  364MOL0     H50190  12.088   6.406   6.138  0.6099  3.7821  1.0140
  364MOL0     H50191  12.320   6.353   6.157 -0.7056 -2.3697 -0.6865
  364MOL0     H50192  12.355   6.234   6.278  3.8031  1.9506 -0.2196
  364MOL0     H50193  12.373   6.403   6.315  1.1558  1.3999 -1.9185
  364MOL0     H50194  12.179   6.037   6.841  1.1956 -2.4034 -0.0576
  364MOL0     H50195  12.366   5.954   6.974  1.1652 -0.6673  0.8184
  364MOL0     H50196  12.526   5.937   7.122  0.8054  0.7511 -0.1418
  364MOL0     H50197  12.596   5.891   6.973  0.2733  0.2936 -0.2002
  364MOL0     H50198  12.776   5.810   7.105 -0.0185 -0.8279 -1.1344
  364MOL0     H50199  12.830   5.970   7.070  0.6049 -0.0878  0.0218
  364MOL0     H50200  12.708   5.850   7.331 -2.1057  1.2264  1.3725
  364MOL0     H50201  12.690   6.022   7.300 -3.1643 -3.1791  0.7745
  364MOL0     H50202  12.952   6.016   7.258  2.1652 -2.3712 -0.2069
  364MOL0     H50203  12.934   5.858   7.320 -2.8170 -2.0349  0.9296
  364MOL0     H50204  12.847   6.082   7.506 -1.3279 -0.3648 -0.9808
  364MOL0     H50205  12.858   5.910   7.537  1.8669  1.1042  3.4783
  364MOL0     H50206  13.076   6.103   7.456 -0.5681  2.4692  1.3181
  364MOL0     H50207  13.113   5.933   7.505 -1.5044 -0.1994 -1.4609
  364MOL0     H50208  13.058   5.995   7.748 -3.0712  2.3919  2.5069
  364MOL0     H50209  12.968   6.129   7.698 -0.1521  0.5017 -1.0140
  364MOL0     H50210  13.163   6.257   7.637 -2.2772 -0.7978 -0.8710
  364MOL0     H50211  13.261   6.105   7.660 -0.7504 -1.3685 -0.0167
  364MOL0     H50212  12.568   6.334   6.916 -1.7507  3.4945 -1.9831
  364MOL0     H50213  12.383   6.413   6.774  3.0077 -0.9038 -0.8898
  364MOL0     H50214  11.971   6.333   6.608 -3.4151  0.8255 -0.0549
  364MOL0     H50215  11.807   6.398   6.438 -2.0498 -2.8780 -3.2890
  364MOL0     H50216  10.903   5.838   6.809 -0.0897 -1.2283  1.1831
  364MOL0     H50217  10.849   5.662   6.966 -0.2104 -0.1315 -1.0825
  364MOL0     H50218  10.939   5.114   6.924 -1.0373  4.5803 -1.0308
  364MOL0     H50219  10.927   4.919   7.084 -0.9798 -1.9624 -0.0298
  364MOL0     H50220  10.634   4.752   7.329 -1.9749 -0.1330 -0.8028
  364MOL0     H50221  10.561   4.897   7.259  1.7226  3.3360 -3.6499
  364MOL0     H50222  10.672   4.818   7.033  2.0989 -0.9768 -0.2663
  364MOL0     H50223  10.532   4.741   7.099  0.2693 -0.0915 -1.4978
  364MOL0     H50224  10.650   4.549   7.174 -0.8429  0.4290 -0.9481
  364MOL0     H50225  10.734   4.583   7.019 -4.0635 -0.3033 -1.2500
  364MOL0     H50226  10.835   4.624   7.307 -0.9419 -0.9058 -0.2594
  364MOL0     H50227  10.906   4.721   7.195  2.3176 -0.8716  3.2000
  364MOL0     H50228  11.095   4.345   7.124 -1.7402 -2.0273 -0.0801
  364MOL0     H50229  10.675   5.160   7.333  4.7082  2.7336  1.7102
  364MOL0     H50230  10.572   5.406   7.117 -0.1424  0.8554  0.5197
  364MOL0     H50231  10.630   5.367   7.285 -0.9158 -4.5509 -0.5069
  364MOL0     H50232  10.722   5.467   7.172 -0.5856  1.1846 -6.6093
  365MOL0     O50233   1.348  10.251  10.188  0.7250 -0.2183  0.2396
  365MOL0     C50234   1.327  10.291  10.302  0.0576  0.2663 -0.1740
  365MOL0     O50235   1.420  10.277  10.400 -0.0879  0.1969  0.2410
  365MOL0     C50236   1.531  10.209  10.364 -0.3048 -0.3432 -0.0836
  365MOL0     C50237   1.520  10.076  10.332 -0.5284  0.2290  0.0885
  365MOL0     C50238   1.628  10.000  10.310 -0.0245 -1.1453  0.4715
  365MOL0     C50239   1.763  10.055  10.311 -0.5320 -0.4739  0.1323
  365MOL0     O50240   1.885   9.987  10.293 -0.0209 -0.2868 -0.4833
  365MOL0     C50241   1.878   9.862  10.232  0.0945  0.4174  0.1793
  365MOL0     C50242   2.005   9.844  10.162 -0.2271  0.1794 -0.2499
  365MOL0     C50243   2.138   9.825  10.238  0.5249  0.2190  0.3413
  365MOL0     C50244   2.243   9.749  10.149 -0.7387  0.5912 -0.6897
  365MOL0     C50245   2.382   9.737  10.220 -0.6872  0.0925  0.7952
  365MOL0     C50246   2.495   9.750  10.112  0.2183 -0.2930 -0.2533
  365MOL0     C50247   2.636   9.723  10.176 -0.0431  0.4632  0.4144
  365MOL0     C50248   2.747   9.721  10.071 -0.2744  0.1278  0.4849
  365MOL0     N50249   2.760   9.849  10.001  0.5258  0.4832 -0.1836
  365MOL0     C50250   2.781   9.971  10.065 -0.2761  0.6610 -0.0832
  365MOL0     C50251   2.835  10.049   9.979  0.0098  0.4717  1.0173
  365MOL0     C50252   2.881  10.187  10.019  0.5753  0.2827 -0.2809
  365MOL0     C50253   2.977  10.241   9.912  0.5995  0.5424  0.4855
  365MOL0     C50254   3.051  10.365   9.959 -0.6783  0.5107  0.0465
  365MOL0     C50255   3.134  10.429   9.851 -0.2849 -0.1077 -0.3019
  365MOL0     O50256   3.217  10.351   9.771  0.0884  0.2806  0.0647
  365MOL0     C50257   3.350  10.378   9.755  0.0638  0.4421 -0.2213
  365MOL0     C50258   3.416  10.375   9.632 -0.2536 -0.2467 -0.2240
  365MOL0     C50259   3.554  10.402   9.619  0.2894  0.3806 -0.2497
  365MOL0     C50260   3.607  10.377   9.476  0.4748 -0.3632 -0.0518
  365MOL0     C50261   3.627  10.442   9.735 -0.6954 -0.7120  0.6827
  365MOL0     C50262   3.767  10.464   9.726 -0.2103 -0.2269 -0.0342
  365MOL0     O50263   3.833  10.477   9.614 -0.0369  0.3830  0.2329
  365MOL0     C50264   3.953  10.534   9.597 -0.2235 -0.0193  0.0832
  365MOL0     C50265   4.023  10.625   9.687 -0.0953  0.0750  0.0653
  365MOL0     C50266   4.153  10.657   9.662 -0.0324  0.2095 -0.0652
  365MOL0     C50267   4.217  10.602   9.549 -0.3337  0.0421  0.8226
  365MOL0     O50268   4.349  10.627   9.503  0.0298  0.0037 -0.7274
  365MOL0     C50269   4.425  10.721   9.579  0.1421 -0.9328 -0.3839
  365MOL0     C50270   4.571  10.700   9.557  0.4466 -0.8394 -0.0635
  365MOL0     C50271   4.659  10.789   9.641 -0.2762  0.0999  0.6810
  365MOL0     C50272   4.804  10.747   9.619  0.4115  0.0958  0.7882
  365MOL0     C50273   4.833  10.613   9.677 -0.0329 -0.4332 -0.1488
  365MOL0     C50274   4.975  10.585   9.694 -0.5068  0.2326 -0.1030
  365MOL0     C50275   5.066  10.580   9.571 -0.2831  0.5894  0.5641
  365MOL0     C50276   5.210  10.553   9.610  0.3912  0.7990  1.1974
  365MOL0    Cl50277   5.285  10.697   9.674 -0.4657  0.3922  0.1409
  365MOL0     C50278   4.144  10.527   9.460  0.2162  0.4824  0.1989
  365MOL0     C50279   4.019  10.484   9.483 -0.3049 -0.1603  0.0314
  365MOL0     O50280   3.818  10.483   9.833 -0.0437  0.5183 -0.0118
  365MOL0     C50281   3.560  10.436   9.862 -1.0310  0.7106  0.3461
  365MOL0     C50282   3.429  10.400   9.869  0.1598 -0.8548  0.1013
  365MOL0     N50283   2.862   9.972   9.864 -0.6554 -1.5523  0.2223
  365MOL0     N50284   2.810   9.861   9.869  0.3403  0.3058 -0.5941
  365MOL0     C50285   1.775  10.193  10.337  0.5023 -0.3243 -0.3569
  365MOL0     C50286   1.659  10.267  10.372 -0.0490 -0.4143 -0.0088
  365MOL0     C50287   1.197  10.365  10.330 -0.3890  0.0213 -0.3934
  365MOL0     C50288   1.196  10.432  10.458 -0.1235 -0.1192 -0.4256
  365MOL0     C50289   1.091  10.516  10.497  0.6594  0.1868 -0.6603
  365MOL0     C50290   0.981  10.532  10.413  0.6274 -1.2663 -0.4368
  365MOL0     O50291   0.874  10.606  10.449  0.5402 -0.1952 -0.9413
  365MOL0     C50292   0.818  10.556  10.569  0.2454  0.0130  0.6607
  365MOL0     C50293   0.687  10.630  10.607 -0.3073 -0.8474 -0.5930
  365MOL0     C50294   0.573  10.634  10.502 -0.5597  0.0672  0.7419
  365MOL0     C50295   0.585  10.535  10.384  0.5365 -0.1361 -0.3934
  365MOL0     C50296   0.462  10.530  10.307  1.1952  0.2567  0.5756
  365MOL0     C50297   0.365  10.534  10.232 -0.7257  0.0335  0.6103
  365MOL0     C50298   0.980  10.476  10.284  0.0862 -1.4338  0.5247
  365MOL0     C50299   1.082  10.389  10.243  0.2771 -0.3375 -0.7555
  365MOL0     C50300   1.065  10.315  10.110 -0.6214  0.3941  0.8370
  365MOL0     H50301   1.424  10.026  10.347  1.4046 -4.2172 -0.7241
  365MOL0     H50302   1.623   9.892  10.302 -2.0028 -1.0610  0.0636
  365MOL0     H50303   1.794   9.855  10.162  0.4646 -0.8820 -0.1636
  365MOL0     H50304   1.868   9.790  10.313  1.7076 -0.1740 -0.1022
  365MOL0     H50305   1.991   9.763  10.089  0.0741  0.2173 -0.3512
  365MOL0     H50306   2.012   9.934  10.100 -2.4046 -0.0879 -0.9852
  365MOL0     H50307   2.172   9.920  10.281 -0.8319  0.5167  0.8018
  365MOL0     H50308   2.115   9.765  10.326  3.4287  0.1150  1.1459
  365MOL0     H50309   2.216   9.646  10.126  0.7652 -0.1429  0.5719
  365MOL0     H50310   2.255   9.788  10.048 -0.4175  0.8897 -0.5385
  365MOL0     H50311   2.402   9.638  10.264  0.6686 -1.0498 -2.1254
  365MOL0     H50312   2.387   9.814  10.297  0.6838 -0.0104  0.8342
  365MOL0     H50313   2.484   9.682  10.027 -1.9189  1.4746 -1.4633
  365MOL0     H50314   2.481   9.852  10.076  0.3607 -0.1061  0.2081
  365MOL0     H50315   2.641   9.623  10.222  1.6627  1.6064  2.9274
  365MOL0     H50316   2.661   9.789  10.259  1.0052 -0.1749  0.6286
  365MOL0     H50317   2.840   9.700  10.126 -0.2780 -1.8938 -0.1878
  365MOL0     H50318   2.745   9.638  10.000  0.3217  0.6412 -0.1388
  365MOL0     H50319   2.750   9.993  10.167 -1.4678  0.0703 -0.2958
  365MOL0     H50320   2.931  10.170  10.115 -1.4605 -5.2451  0.1482
  365MOL0     H50321   2.797  10.257  10.030  2.4800  2.7431 -0.3768
  365MOL0     H50322   3.054  10.164   9.898 -1.7421 -1.9123  0.4171
  365MOL0     H50323   2.937  10.253   9.811  1.4504 -1.5982 -0.1772
  365MOL0     H50324   2.989  10.449   9.995 -2.0782 -0.0832 -0.8935
  365MOL0     H50325   3.118  10.331  10.038  0.7469 -2.8586 -2.4145
  365MOL0     H50326   3.065  10.471   9.778 -1.6269 -1.4745  0.1345
  365MOL0     H50327   3.193  10.505   9.904 -0.1477 -1.3312  1.4099
  365MOL0     H50328   3.367  10.350   9.538 -0.9870 -1.9825  0.5724
  365MOL0     H50329   3.681  10.451   9.443  0.0327 -0.3326 -1.0246
  365MOL0     H50330   3.523  10.375   9.406  0.8544  0.7145 -0.5623
  365MOL0     H50331   3.641  10.273   9.483 -0.0730 -0.5642 -0.2655
  365MOL0     H50332   3.969  10.689   9.756 -1.7140  2.0363 -2.7989
  365MOL0     H50333   4.192  10.731   9.731 -0.3578 -0.7132  1.1439
  365MOL0     H50334   4.393  10.823   9.556  0.2819 -1.0867 -1.2834
  365MOL0     H50335   4.412  10.711   9.687  1.8117  1.8347  0.1579
  365MOL0     H50336   4.590  10.593   9.572  1.6274 -0.6098  0.1817
  365MOL0     H50337   4.593  10.734   9.456 -0.3605  2.2780  0.7076
  365MOL0     H50338   4.639  10.772   9.747  0.8995 -0.2570  0.8613
  365MOL0     H50339   4.660  10.896   9.618 -0.0810 -0.1369 -0.4961
  365MOL0     H50340   4.859  10.817   9.683  1.0394 -0.4889  0.8987
  365MOL0     H50341   4.850  10.753   9.519  1.9271  2.5218  1.5149
  365MOL0     H50342   4.783  10.600   9.774  2.5634 -2.5036  1.0456
  365MOL0     H50343   4.795  10.532   9.614  0.5633 -1.1771  0.4324
  365MOL0     H50344   4.999  10.491   9.744  1.7464  0.8178  0.0209
  365MOL0     H50345   5.010  10.666   9.759 -1.9954 -0.5991  1.8330
  365MOL0     H50346   5.062  10.679   9.525 -1.0407  0.1600 -0.3238
  365MOL0     H50347   5.039  10.514   9.488  0.2438  1.5014 -0.3572
  365MOL0     H50348   5.268  10.530   9.521  1.2831 -1.1946  2.2356
  365MOL0     H50349   5.209  10.474   9.685  2.2226  1.4840  2.0100
  365MOL0     H50350   4.192  10.496   9.367 -3.0626  0.4408 -1.6370
  365MOL0     H50351   3.985  10.408   9.414  1.0053 -0.7231 -0.0171
  365MOL0     H50352   3.619  10.452   9.952 -0.5614 -0.7249  0.3244
  365MOL0     H50353   3.383  10.393   9.967 -2.6746  1.3383 -0.9278
  365MOL0     H50354   1.869  10.247  10.347 -0.4077  1.2073  0.2111
  365MOL0     H50355   1.671  10.374  10.388  0.9966 -0.3854 -0.8847
  365MOL0     H50356   1.282  10.434  10.523  1.1153 -2.0788 -1.8738
  365MOL0     H50357   1.102  10.583  10.582  0.4430  0.8923 -1.1719
  365MOL0     H50358   0.804  10.448  10.552  1.6466  0.1793 -2.0187
  365MOL0     H50359   0.881  10.561  10.659  1.1676 -2.4592  0.2298
  365MOL0     H50360   0.715  10.734  10.629 -1.9326 -0.5318  0.0509
  365MOL0     H50361   0.651  10.571  10.691  1.6572 -0.8768  0.2973
  365MOL0     H50362   0.479  10.626  10.556 -0.5537 -0.9512  0.6239
  365MOL0     H50363   0.563  10.731  10.454 -3.1091  0.0795  1.1942
  365MOL0     H50364   0.611  10.445  10.440  2.0982  0.3035 -0.3590
  365MOL0     H50365   0.674  10.547  10.321 -0.4903 -0.4104 -1.9378
  365MOL0     H50366   0.276  10.535  10.173  0.7177  2.5248 -1.7640
  365MOL0     H50367   0.904  10.491  10.209  1.0359  0.1176 -0.1788
  365MOL0     H50368   1.058  10.210  10.142  0.6669 -1.7525 -4.7845
  365MOL0     H50369   0.981  10.335  10.043  0.1999  2.8581  0.4426
  365MOL0     H50370   1.154  10.330  10.049 -2.0188  1.1278 -1.1483
  366MOL0     O50371   3.224   7.772   0.470 -0.0148  0.2105 -0.2250
  366MOL0     C50372   3.224   7.659   0.519 -0.1389 -0.5949  0.1609
  366MOL0     O50373   3.144   7.555   0.484 -0.4868 -0.2818 -0.1350
  366MOL0     C50374   3.068   7.562   0.367  0.1691  0.1930  0.2250
  366MOL0     C50375   3.134   7.561   0.240  0.2720 -0.3788 -0.4924
  366MOL0     C50376   3.059   7.552   0.122 -0.5530  0.0316 -0.1313
  366MOL0     C50377   2.922   7.547   0.125 -0.1658  0.3078  0.1955
  366MOL0     O50378   2.858   7.518   0.006 -0.3205 -0.4196 -0.3048
  366MOL0     C50379   2.738   7.454   0.030 -0.5536  0.7957  0.1005
  366MOL0     C50380   2.681   7.401  -0.104  0.1961  0.3135  0.3720
  366MOL0     C50381   2.643   7.507  -0.204  0.5322  0.8661  0.9744
  366MOL0     C50382   2.598   7.434  -0.332  0.0470 -0.8640 -0.5982
  366MOL0     C50383   2.516   7.522  -0.433  0.0450  0.0159 -1.1474
  366MOL0     C50384   2.602   7.631  -0.500 -0.8234  0.9404 -0.1122
  366MOL0     C50385   2.514   7.723  -0.587  0.1802  0.0159  0.0350
  366MOL0     C50386   2.458   7.643  -0.704  0.4988 -0.5880 -0.3854
  366MOL0     N50387   2.320   7.599  -0.680 -1.0267  0.1124 -0.7397
  366MOL0     C50388   2.222   7.686  -0.707  0.5335 -0.6540 -1.2548
  366MOL0     C50389   2.120   7.605  -0.730  0.5403  0.5157  0.3811
  366MOL0     C50390   1.984   7.659  -0.765  0.0297 -1.1981 -0.8408
  366MOL0     C50391   1.975   7.682  -0.912 -0.0076 -0.0909  1.5693
  366MOL0     C50392   1.974   7.560  -0.992  0.2420 -0.1116 -0.4406
  366MOL0     C50393   1.958   7.567  -1.145 -0.5827 -0.3587 -0.7930
  366MOL0     O50394   2.036   7.674  -1.215  0.1758 -0.4478  0.0341
  366MOL0     C50395   2.178   7.697  -1.203  0.8490  0.1294  0.6640
  366MOL0     C50396   2.232   7.812  -1.269 -0.6507  0.5421  0.3585
  366MOL0     C50397   2.359   7.858  -1.241 -0.6129 -0.4943 -0.2463
  366MOL0     C50398   2.394   7.994  -1.296 -0.3434 -0.3403  0.0736
  366MOL0     C50399   2.439   7.776  -1.158  0.3946 -0.0276  0.2797
  366MOL0     C50400   2.570   7.813  -1.136 -0.9883 -0.0867 -0.5163
  366MOL0     O50401   2.652   7.866  -1.237 -0.2916 -0.2759  0.2210
  366MOL0     C50402   2.781   7.910  -1.202  0.3637  0.8315 -0.5367
  366MOL0     C50403   2.805   8.016  -1.120  0.2840  0.1181 -0.3851
  366MOL0     C50404   2.929   8.068  -1.083  0.0903  0.3402 -1.0853
  366MOL0     C50405   3.036   7.999  -1.137  0.4275  0.8245  0.9253
  366MOL0     O50406   3.163   8.037  -1.113 -0.0326  0.5869  0.1447
  366MOL0     C50407   3.268   7.941  -1.089  0.3084  0.1729 -0.5535
  366MOL0     C50408   3.380   8.009  -1.009  0.4558 -0.6040  0.0833
  366MOL0     C50409   3.468   7.904  -0.954  0.2719 -0.2324  0.7939
  366MOL0     C50410   3.602   7.964  -0.912 -0.2527  0.3888  0.9384
  366MOL0     C50411   3.605   8.000  -0.763 -0.3208 -0.4204 -0.1935
  366MOL0     C50412   3.743   8.060  -0.719 -0.0904  0.0262 -0.7891
  366MOL0     C50413   3.744   8.128  -0.581 -0.8360  0.4837 -0.3785
  366MOL0     C50414   3.845   8.235  -0.565 -0.4285 -0.5976 -0.2228
  366MOL0    Cl50415   4.001   8.164  -0.628  0.3839 -0.4734 -0.2513
  366MOL0     C50416   3.008   7.884  -1.224 -1.0144 -0.4415  0.3422
  366MOL0     C50417   2.879   7.836  -1.248 -0.4528  0.4745  0.6021
  366MOL0     O50418   2.599   7.793  -1.019 -0.6399 -0.1917  0.1345
  366MOL0     C50419   2.396   7.652  -1.110  0.5528 -0.1439 -0.1698
  366MOL0     C50420   2.262   7.608  -1.125  0.1954  0.1106  0.5802
  366MOL0     N50421   2.157   7.473  -0.730  0.2606  0.3572  0.1385
  366MOL0     N50422   2.280   7.469  -0.707 -0.5254 -0.1931 -0.2922
  366MOL0     C50423   2.854   7.558   0.246  0.2158 -1.2512 -1.7696
  366MOL0     C50424   2.929   7.549   0.371  0.7518 -0.3102 -0.3912
  366MOL0     C50425   3.347   7.621   0.592 -0.0335 -0.0241  0.2725
  366MOL0     C50426   3.444   7.716   0.604 -0.6841 -0.4607  0.0336
  366MOL0     C50427   3.558   7.695   0.684 -0.4114 -0.1069 -0.3422
  366MOL0     C50428   3.590   7.566   0.723  0.2202  0.1273  0.2468
  366MOL0     O50429   3.712   7.535   0.791  0.6650 -0.5485 -0.4584
  366MOL0     C50430   3.813   7.634   0.787 -1.0081 -0.0708 -0.0921
  366MOL0     C50431   3.950   7.579   0.782  0.0778 -0.3514 -0.3012
  366MOL0     C50432   4.051   7.695   0.794  0.3176 -0.7217 -0.5997
  366MOL0     C50433   4.187   7.643   0.827 -1.1258 -0.3460  0.0822
  366MOL0     C50434   4.268   7.744   0.889 -1.0640 -0.6268  0.7070
  366MOL0     C50435   4.330   7.839   0.930 -0.7232 -0.3447 -0.2012
  366MOL0     C50436   3.509   7.467   0.694  0.5540 -0.2495  0.1976
  366MOL0     C50437   3.383   7.493   0.638  0.0536 -0.0658 -0.0155
  366MOL0     C50438   3.290   7.373   0.638 -1.3026  0.0239 -0.7566
  366MOL0     H50439   3.241   7.548   0.246  0.1469 -1.0462  0.5557
  366MOL0     H50440   3.118   7.547   0.031  1.1577 -0.8038  0.9648
  366MOL0     H50441   2.664   7.523   0.072 -0.0561  0.3728  1.7588
  366MOL0     H50442   2.759   7.374   0.102 -1.1172  0.4772 -0.0756
  366MOL0     H50443   2.757   7.346  -0.160 -2.0526  0.4367 -3.0750
  366MOL0     H50444   2.597   7.336  -0.080  1.6259 -0.9866  2.1961
  366MOL0     H50445   2.557   7.551  -0.152 -0.5339  1.3528 -1.1075
  366MOL0     H50446   2.726   7.577  -0.215 -0.6322  2.6954  2.9615
  366MOL0     H50447   2.686   7.395  -0.382  1.0894  2.6696 -1.8357
  366MOL0     H50448   2.534   7.351  -0.302 -1.9684  1.6296  2.8840
  366MOL0     H50449   2.434   7.563  -0.374  1.9246  1.0163  0.9244
  366MOL0     H50450   2.469   7.456  -0.506 -0.3956  0.2232 -1.0489
  366MOL0     H50451   2.670   7.680  -0.429 -0.4519 -1.5857  1.4070
  366MOL0     H50452   2.677   7.583  -0.564 -1.7270 -1.5887  0.6106
  366MOL0     H50453   2.571   7.810  -0.620  2.2175 -0.0801  2.9161
  366MOL0     H50454   2.441   7.762  -0.516  3.7853  1.1353  3.5047
  366MOL0     H50455   2.460   7.705  -0.794 -3.0117 -2.3047 -1.8218
  366MOL0     H50456   2.532   7.565  -0.725  1.7701  1.3329 -3.8516
  366MOL0     H50457   2.216   7.795  -0.711 -1.0641 -0.6875 -0.4179
  366MOL0     H50458   1.973   7.754  -0.711  0.9949  1.4423 -4.8887
  366MOL0     H50459   1.905   7.587  -0.740 -1.4882  0.5426 -0.3726
  366MOL0     H50460   1.879   7.734  -0.926 -0.1865 -0.0389  2.9089
  366MOL0     H50461   2.046   7.754  -0.954 -0.7682 -1.0591 -1.6587
  366MOL0     H50462   2.057   7.497  -0.959 -1.2560 -1.9259  0.0325
  366MOL0     H50463   1.892   7.494  -0.963  0.1244 -1.1082 -2.7549
  366MOL0     H50464   1.993   7.469  -1.178  1.2816  0.7808 -2.4115
  366MOL0     H50465   1.852   7.579  -1.170 -1.0829  1.5523  1.7824
  366MOL0     H50466   2.165   7.867  -1.335  1.2423  0.6735 -1.5905
  366MOL0     H50467   2.420   8.064  -1.216  0.9403 -2.5533  1.7026
  366MOL0     H50468   2.310   8.035  -1.353  1.2968  0.7863 -1.7085
  366MOL0     H50469   2.468   7.989  -1.377 -2.1090  0.1582 -1.6497
  366MOL0     H50470   2.713   8.053  -1.075  1.0917  0.5362  0.9862
  366MOL0     H50471   2.938   8.133  -0.997 -2.0534  1.8849 -1.9352
  366MOL0     H50472   3.225   7.854  -1.040  1.8564 -0.6030 -0.5170
  366MOL0     H50473   3.308   7.909  -1.186  0.9292 -0.5537 -0.0639
  366MOL0     H50474   3.441   8.074  -1.072  0.1750 -0.6813 -0.2718
  366MOL0     H50475   3.335   8.077  -0.936  0.2996 -1.1857  0.5372
  366MOL0     H50476   3.478   7.830  -1.033  0.4768 -0.1764  0.7666
  366MOL0     H50477   3.419   7.854  -0.870  0.0002 -2.4317 -0.5898
  366MOL0     H50478   3.623   8.047  -0.979  0.0940 -1.0143 -0.7482
  366MOL0     H50479   3.682   7.892  -0.933  0.9149  2.3525 -1.9037
  366MOL0     H50480   3.524   8.073  -0.757  0.0069 -0.0932  0.3294
  366MOL0     H50481   3.583   7.916  -0.697  1.0008  0.1507  1.0355
  366MOL0     H50482   3.777   8.130  -0.796 -2.1101 -0.9906 -2.7460
  366MOL0     H50483   3.823   7.986  -0.731  0.9990  1.3832 -2.3829
  366MOL0     H50484   3.768   8.046  -0.513 -0.9821  2.8757  2.7491
  366MOL0     H50485   3.642   8.162  -0.564 -0.4803  1.8828 -0.9224
  366MOL0     H50486   3.867   8.268  -0.463  0.0328  0.3274 -0.6026
  366MOL0     H50487   3.811   8.322  -0.622  2.1186 -1.3624 -3.2558
  366MOL0     H50488   3.089   7.835  -1.277 -1.4877  0.2514 -1.0712
  366MOL0     H50489   2.856   7.757  -1.318 -1.5109  1.2154  0.0771
  366MOL0     H50490   2.456   7.574  -1.065 -1.5195 -0.1540  2.9417
  366MOL0     H50491   2.231   7.515  -1.077  0.0232 -1.0275 -1.6388
  366MOL0     H50492   2.746   7.552   0.252  0.3376 -2.2983  1.2375
  366MOL0     H50493   2.885   7.529   0.468  1.5113 -0.7996 -0.1315
  366MOL0     H50494   3.426   7.810   0.554  3.1093  0.1476 -0.5358
  366MOL0     H50495   3.627   7.777   0.698 -1.5017  0.5722  1.3929
  366MOL0     H50496   3.805   7.701   0.700 -1.9458  0.1096  0.1233
  366MOL0     H50497   3.801   7.708   0.867 -0.0415 -1.4689  1.3919
  366MOL0     H50498   3.970   7.532   0.685 -1.4540  0.4868 -1.0511
  366MOL0     H50499   3.960   7.510   0.866 -0.3064  0.0539  0.0781
  366MOL0     H50500   4.049   7.765   0.710 -0.2620  0.7017  0.5416
  366MOL0     H50501   4.014   7.766   0.869 -3.1592 -0.1010 -2.6476
  366MOL0     H50502   4.228   7.601   0.735 -1.1978 -1.4583  0.5483
  366MOL0     H50503   4.187   7.565   0.903 -4.8911  1.2449  2.0010
  366MOL0     H50504   4.395   7.913   0.970 -0.1596 -1.9556  2.0880
  366MOL0     H50505   3.525   7.368   0.734 -1.0694 -0.3033  0.8119
  366MOL0     H50506   3.311   7.285   0.700 -4.2595 -1.2848 -1.4306
  366MOL0     H50507   3.194   7.405   0.678 -0.3954  0.7872  0.9036
  366MOL0     H50508   3.279   7.335   0.536  0.3296 -2.6207 -0.0671
  367MOL0     O50509   7.888   5.574   1.947 -0.0497  0.2904 -0.2777
  367MOL0     C50510   7.844   5.469   1.892  0.5201 -1.3443  0.0993
  367MOL0     O50511   7.720   5.458   1.832 -0.1907  0.8097 -0.7655
  367MOL0     C50512   7.624   5.546   1.852  0.8848 -0.3662 -0.9881
  367MOL0     C50513   7.574   5.568   1.979  0.1402  0.7446  0.2696
  367MOL0     C50514   7.455   5.633   2.009  0.2867 -1.2293  0.0295
  367MOL0     C50515   7.388   5.706   1.894 -0.0559  0.6423 -0.2942
  367MOL0     O50516   7.288   5.797   1.916 -0.0734 -1.2517 -0.0549
  367MOL0     C50517   7.194   5.753   2.019 -0.7079  0.2388 -0.2507
  367MOL0     C50518   7.065   5.832   2.020 -0.8968  0.1880  0.5801
  367MOL0     C50519   7.032   5.881   1.887  0.3216  0.1479  0.5020
  367MOL0     C50520   6.889   5.929   1.882  0.8258  0.9879 -0.4475
  367MOL0     C50521   6.828   5.928   1.743 -0.5397  0.2714 -0.2126
  367MOL0     C50522   6.677   5.964   1.745  0.2541  0.4578  0.3007
  367MOL0     C50523   6.639   5.989   1.596  0.4195 -0.4577  0.0220
  367MOL0     C50524   6.493   6.038   1.584 -0.2454 -0.1865 -0.7880
  367MOL0     N50525   6.467   6.179   1.633 -0.5695 -0.3739  0.2207
  367MOL0     C50526   6.340   6.213   1.678 -0.4215  0.3186  0.6994
  367MOL0     C50527   6.340   6.347   1.686 -0.6018 -0.2641 -0.8533
  367MOL0     C50528   6.219   6.442   1.718 -0.1152 -0.0428 -0.2323
  367MOL0     C50529   6.152   6.491   1.592 -0.2332 -0.4977  0.3394
  367MOL0     C50530   6.210   6.613   1.522 -0.3709  0.3860 -0.4602
  367MOL0     C50531   6.335   6.587   1.446  0.1912 -0.1084 -0.2285
  367MOL0     O50532   6.314   6.511   1.326  0.0295  0.5598 -0.1291
  367MOL0     C50533   6.422   6.469   1.249 -0.9541  0.4385  0.3679
  367MOL0     C50534   6.414   6.440   1.118 -0.2257 -0.7665 -0.2720
  367MOL0     C50535   6.514   6.415   1.036 -0.0628  0.0059  0.1261
  367MOL0     C50536   6.474   6.389   0.892 -0.6317 -0.3058 -0.0228
  367MOL0     C50537   6.648   6.385   1.089  0.5323  0.0566 -0.8200
  367MOL0     C50538   6.767   6.338   1.012 -0.2342  0.5988 -0.3126
  367MOL0     O50539   6.741   6.313   0.884  1.1151 -0.5438  0.0304
  367MOL0     C50540   6.825   6.242   0.797  0.0754  0.1813  0.2251
  367MOL0     C50541   6.806   6.259   0.664 -1.3795 -1.6361  0.4106
  367MOL0     C50542   6.881   6.194   0.562 -0.8596  0.9467  0.1228
  367MOL0     C50543   6.992   6.113   0.592 -0.1178  0.1931  0.3102
  367MOL0     O50544   7.083   6.062   0.507  0.3748 -0.1728  0.2349
  367MOL0     C50545   7.107   6.124   0.378  0.1365  0.1109 -0.0515
  367MOL0     C50546   7.097   6.022   0.266  0.2042  0.4123 -0.1801
  367MOL0     C50547   6.953   5.981   0.249  1.1881  0.1510 -0.4485
  367MOL0     C50548   6.953   5.864   0.165 -0.2667  0.3646  1.0725
  367MOL0     C50549   6.985   5.881   0.005 -0.1523 -0.9668 -0.1147
  367MOL0     C50550   6.910   6.001  -0.056  0.1013  0.3764  0.6728
  367MOL0     C50551   6.935   6.000  -0.209  1.0895  0.1448 -0.6277
  367MOL0     C50552   6.886   6.120  -0.283  0.7717  0.1941  0.3207
  367MOL0    Cl50553   6.977   6.269  -0.240 -0.4009 -0.1795  0.1936
  367MOL0     C50554   7.021   6.098   0.733  0.5324  0.1319 -0.0724
  367MOL0     C50555   6.937   6.161   0.827  0.5235 -0.2145 -0.0167
  367MOL0     O50556   6.873   6.323   1.065  0.2177  0.6781  0.3927
  367MOL0     C50557   6.654   6.398   1.230 -0.3197  0.4928  0.0439
  367MOL0     C50558   6.544   6.440   1.308 -0.0349  0.0717 -0.2680
  367MOL0     N50559   6.472   6.388   1.683 -0.6189  0.7804  0.8219
  367MOL0     N50560   6.551   6.289   1.646  0.4209  0.1987 -1.3379
  367MOL0     C50561   7.451   5.695   1.768 -0.4830  0.8344  1.1716
  367MOL0     C50562   7.562   5.608   1.747 -0.1915  0.6052  0.3169
  367MOL0     C50563   7.926   5.349   1.867 -0.2229  0.1929 -0.5614
  367MOL0     C50564   8.029   5.324   1.968 -0.4221 -0.4081  0.1499
  367MOL0     C50565   8.108   5.213   1.963  0.5702 -0.2755 -0.1191
  367MOL0     C50566   8.085   5.113   1.871 -0.4998 -0.0608  0.0913
  367MOL0     O50567   8.171   5.001   1.892  0.8457  0.0892  0.4526
  367MOL0     C50568   8.121   4.873   1.841  0.2005  0.7821 -0.0279
  367MOL0     C50569   8.241   4.772   1.839  0.0731 -0.8881 -0.2951
  367MOL0     C50570   8.306   4.760   1.985  0.8562  0.1657 -0.2512
  367MOL0     C50571   8.424   4.665   1.999 -0.2749 -0.1355  0.1342
  367MOL0     C50572   8.373   4.532   1.975  0.3384 -0.0488 -0.1512
  367MOL0     C50573   8.318   4.421   1.973  0.2679 -0.0988  0.4353
  367MOL0     C50574   7.988   5.136   1.776  0.0106  0.4528 -0.5655
  367MOL0     C50575   7.908   5.247   1.767  0.0921 -0.2351  0.9291
  367MOL0     C50576   7.819   5.255   1.649  0.6524 -0.5403  1.1462
  367MOL0     H50577   7.623   5.520   2.063 -3.3451  0.9555  2.6636
  367MOL0     H50578   7.419   5.631   2.111 -1.5732  1.2382 -0.5073
  367MOL0     H50579   7.240   5.765   2.118  0.1727 -0.3960 -0.5722
  367MOL0     H50580   7.163   5.650   1.999  0.1532 -0.2504  0.8024
  367MOL0     H50581   6.992   5.773   2.075  0.7087  0.5529  3.3446
  367MOL0     H50582   7.075   5.918   2.087  0.4998 -0.4241  1.2084
  367MOL0     H50583   7.101   5.961   1.858  1.3671 -0.9775 -0.1907
  367MOL0     H50584   7.046   5.801   1.814 -0.3365  1.2619 -0.9021
  367MOL0     H50585   6.828   5.855   1.936 -0.7219 -0.1945 -3.5599
  367MOL0     H50586   6.877   6.031   1.920 -0.0160  0.4645  0.7455
  367MOL0     H50587   6.847   5.832   1.694 -1.1468 -0.2681  0.6068
  367MOL0     H50588   6.882   6.008   1.690  2.3746  0.3751  2.6357
  367MOL0     H50589   6.612   5.886   1.786  0.1037 -0.7241 -2.0525
  367MOL0     H50590   6.667   6.051   1.811  2.6733 -0.1968  1.6489
  367MOL0     H50591   6.635   5.892   1.546 -1.6242 -0.5124  0.1790
  367MOL0     H50592   6.706   6.060   1.546 -1.2267  0.9099 -0.3706
  367MOL0     H50593   6.476   6.044   1.476 -2.8508 -0.3761 -0.4532
  367MOL0     H50594   6.427   5.962   1.628 -0.5395  0.1814 -0.5804
  367MOL0     H50595   6.252   6.152   1.697  0.0052 -0.1315  1.2598
  367MOL0     H50596   6.248   6.534   1.769  0.6102  0.6311 -1.8154
  367MOL0     H50597   6.146   6.401   1.790  1.3217 -0.2114  1.1838
  367MOL0     H50598   6.151   6.404   1.526  2.7834 -0.1371 -0.3665
  367MOL0     H50599   6.051   6.521   1.620 -0.4391 -2.8595  2.4378
  367MOL0     H50600   6.137   6.662   1.456  0.5250  1.3367 -0.7685
  367MOL0     H50601   6.218   6.681   1.607 -1.9894 -0.1202  0.1424
  367MOL0     H50602   6.382   6.681   1.416  2.7119 -1.2264 -0.0355
  367MOL0     H50603   6.416   6.543   1.505  2.7549  1.3952 -2.3942
  367MOL0     H50604   6.314   6.457   1.080  0.1387  0.1244 -0.8484
  367MOL0     H50605   6.368   6.402   0.871 -0.3111  2.7774 -0.1775
  367MOL0     H50606   6.492   6.283   0.871  0.0122  0.0936 -1.6483
  367MOL0     H50607   6.547   6.440   0.828  0.9438 -2.4192 -0.0268
  367MOL0     H50608   6.732   6.335   0.642  1.6585  1.0675 -1.2829
  367MOL0     H50609   6.857   6.214   0.458  2.1678  3.7771 -0.1777
  367MOL0     H50610   7.042   6.211   0.362 -0.3770 -0.1717  0.4688
  367MOL0     H50611   7.208   6.168   0.377 -0.5592  1.7873 -0.0535
  367MOL0     H50612   7.132   6.074   0.176  0.5824 -1.7631 -1.3645
  367MOL0     H50613   7.158   5.937   0.299 -3.4325 -1.8876  1.3390
  367MOL0     H50614   6.893   6.067   0.216  1.5754  1.4255  1.9260
  367MOL0     H50615   6.903   5.955   0.343 -2.2852  3.4779 -1.1262
  367MOL0     H50616   6.857   5.811   0.165 -0.0303 -0.0773  1.8270
  367MOL0     H50617   7.022   5.791   0.208 -0.2374 -0.8885 -0.9608
  367MOL0     H50618   7.093   5.893  -0.003 -0.0991 -1.5286 -0.2559
  367MOL0     H50619   6.950   5.790  -0.046 -0.9102  0.1854 -1.7600
  367MOL0     H50620   6.946   6.091  -0.006  0.0295  0.8649 -0.1391
  367MOL0     H50621   6.803   5.989  -0.035  0.7609 -2.5366  3.0568
  367MOL0     H50622   6.886   5.909  -0.245  0.2355 -1.6232  4.1396
  367MOL0     H50623   7.043   5.985  -0.214  1.0092 -0.2757 -1.2194
  367MOL0     H50624   6.781   6.137  -0.257  0.4938  1.9060 -1.6946
  367MOL0     H50625   6.888   6.090  -0.388  1.1388  0.3837  0.2729
  367MOL0     H50626   7.101   6.031   0.761 -1.5119 -1.4835  2.3148
  367MOL0     H50627   6.968   6.153   0.931  0.9559  3.4267  0.2570
  367MOL0     H50628   6.746   6.379   1.284  1.1491  1.4636 -1.9911
  367MOL0     H50629   6.564   6.453   1.414 -0.8500  1.0190 -0.2104
  367MOL0     H50630   7.406   5.749   1.685  0.1399 -0.8886 -0.3400
  367MOL0     H50631   7.601   5.603   1.646 -1.3709 -0.7953 -0.1011
  367MOL0     H50632   8.039   5.400   2.046 -1.1501 -2.0847  1.9665
  367MOL0     H50633   8.167   5.198   2.053 -0.2352 -0.1423  0.4391
  367MOL0     H50634   8.031   4.827   1.884  0.3307 -1.3092 -1.8128
  367MOL0     H50635   8.097   4.867   1.734  0.8713 -1.3384 -0.0975
  367MOL0     H50636   8.317   4.812   1.771 -1.3378 -1.1518 -2.1026
  367MOL0     H50637   8.205   4.679   1.794  0.8891 -0.6002 -1.5889
  367MOL0     H50638   8.345   4.854   2.025  1.3597 -0.0705 -0.1860
  367MOL0     H50639   8.224   4.723   2.047  0.5694  3.4194  1.4956
  367MOL0     H50640   8.470   4.677   2.097 -0.5963 -1.5890  0.4904
  367MOL0     H50641   8.499   4.695   1.926  0.9159  2.3177  2.1890
  367MOL0     H50642   8.269   4.326   1.972  0.2844 -0.1469 -2.0233
  367MOL0     H50643   7.986   5.054   1.704 -4.2429 -1.5573  1.4839
  367MOL0     H50644   7.855   5.199   1.562 -1.6030 -0.5501  0.1275
  367MOL0     H50645   7.727   5.201   1.674 -0.3843 -0.1966 -1.5138
  367MOL0     H50646   7.793   5.355   1.612 -2.0946  0.0351  4.2074
  368MOL0     O50647   7.735   5.018   0.460  0.4202  0.1503 -0.2037
  368MOL0     C50648   7.679   4.968   0.558 -0.1898 -0.1783  0.3494
  368MOL0     O50649   7.542   4.979   0.581 -0.2761  0.2230 -0.5102
  368MOL0     C50650   7.461   5.019   0.475 -0.4379 -0.0817  0.4691
  368MOL0     C50651   7.349   5.106   0.499 -0.6695  0.3047  0.5444
  368MOL0     C50652   7.257   5.124   0.390  0.1262 -0.1830 -0.6343
  368MOL0     C50653   7.256   5.042   0.279 -0.3117 -0.4697 -0.1018
  368MOL0     O50654   7.165   5.044   0.173 -0.2834  0.2533  0.1756
  368MOL0     C50655   7.028   5.046   0.220  0.4895 -1.1335 -0.5238
  368MOL0     C50656   6.982   5.186   0.227  0.7907  0.1315  0.5279
  368MOL0     C50657   6.825   5.204   0.238  0.4037  0.4295  0.6156
  368MOL0     C50658   6.782   5.350   0.239 -0.2538  0.1666  0.6015
  368MOL0     C50659   6.627   5.353   0.240 -0.2749 -0.3334 -0.1152
  368MOL0     C50660   6.563   5.493   0.209 -0.7597  0.0049  0.0393
  368MOL0     C50661   6.636   5.610   0.278 -0.6147  0.2347  0.1909
  368MOL0     C50662   6.549   5.735   0.272 -0.6027  0.2006 -0.1577
  368MOL0     N50663   6.506   5.774   0.134 -0.1679  0.3843  0.4217
  368MOL0     C50664   6.590   5.784   0.031  0.7123 -0.0261 -0.2690
  368MOL0     C50665   6.502   5.810  -0.065 -0.0086  0.3893  0.8667
  368MOL0     C50666   6.546   5.841  -0.212  0.4913  0.7914  0.1716
  368MOL0     C50667   6.489   5.973  -0.260  0.8119  0.6764  0.0903
  368MOL0     C50668   6.511   5.984  -0.419  0.6200 -0.4320  0.7836
  368MOL0     C50669   6.419   6.092  -0.473  0.4719 -0.0221  0.6257
  368MOL0     O50670   6.278   6.077  -0.435  0.5501 -0.2483  0.0633
  368MOL0     C50671   6.207   6.189  -0.453 -0.0959 -0.4837  0.0339
  368MOL0     C50672   6.253   6.298  -0.524 -0.4182 -0.0692 -0.2542
  368MOL0     C50673   6.168   6.413  -0.546  0.0914 -0.5479  0.4217
  368MOL0     C50674   6.228   6.508  -0.659 -0.0070 -1.0189 -0.5027
  368MOL0     C50675   6.045   6.433  -0.480 -1.0272 -0.1789  0.2490
  368MOL0     C50676   5.958   6.553  -0.487 -0.8387  0.0429 -0.3284
  368MOL0     O50677   5.949   6.603  -0.613  0.4877 -0.4291  0.6331
  368MOL0     C50678   5.889   6.723  -0.625  0.6019  0.0050  0.2437
  368MOL0     C50679   5.744   6.727  -0.619  0.0537 -0.4743  0.1786
  368MOL0     C50680   5.684   6.842  -0.667 -0.1154  0.0227 -0.4724
  368MOL0     C50681   5.754   6.951  -0.713 -0.3882  0.2536 -1.0551
  368MOL0     O50682   5.700   7.069  -0.765 -0.0704  0.5992 -0.1282
  368MOL0     C50683   5.561   7.104  -0.744 -0.4589 -0.5500 -0.0046
  368MOL0     C50684   5.526   7.241  -0.785 -0.7621  0.6209 -0.1165
  368MOL0     C50685   5.379   7.267  -0.766  0.5118 -0.0833 -0.3179
  368MOL0     C50686   5.341   7.390  -0.834  0.5128 -0.3822 -0.0955
  368MOL0     C50687   5.197   7.433  -0.805  0.3522 -0.0528  0.1147
  368MOL0     C50688   5.093   7.331  -0.841  0.0197  0.2381  0.3841
  368MOL0     C50689   4.945   7.363  -0.801 -1.4121 -0.8141  0.1823
  368MOL0     C50690   4.889   7.502  -0.845 -0.3575 -0.3745  0.9567
  368MOL0    Cl50691   4.898   7.499  -1.026 -0.3720  0.1639 -0.0054
  368MOL0     C50692   5.892   6.944  -0.718 -0.6466 -0.1489 -0.8672
  368MOL0     C50693   5.956   6.830  -0.679 -0.4790  0.3104 -0.0903
  368MOL0     O50694   5.906   6.593  -0.388  0.0176 -0.8735 -0.7870
  368MOL0     C50695   6.005   6.323  -0.403  0.6859  0.5924  0.1825
  368MOL0     C50696   6.081   6.201  -0.388 -0.1138 -1.1903  0.7034
  368MOL0     N50697   6.366   5.783  -0.027  0.1573 -0.2015  0.7396
  368MOL0     N50698   6.378   5.762   0.094  0.1456  0.1358  0.2047
  368MOL0     C50699   7.371   4.959   0.259  0.0362 -0.3010  0.1397
  368MOL0     C50700   7.470   4.953   0.355 -0.3490  0.2582  0.9223
  368MOL0     C50701   7.763   4.893   0.656 -0.4999 -0.8095  0.1673
  368MOL0     C50702   7.730   4.888   0.785  0.7666  0.0698 -0.4820
  368MOL0     C50703   7.812   4.835   0.884  0.6486 -0.6923  0.4748
  368MOL0     C50704   7.935   4.776   0.856 -0.4920 -0.0394 -0.6083
  368MOL0     O50705   8.012   4.710   0.957  0.3953  0.1438  0.8778
  368MOL0     C50706   8.119   4.622   0.916 -0.7225 -0.3637  0.5795
  368MOL0     C50707   8.193   4.582   1.032 -0.3397  0.3866  0.8117
  368MOL0     C50708   8.306   4.483   0.990  0.3096 -0.5718  0.4609
  368MOL0     C50709   8.392   4.442   1.121 -0.0781 -0.3814  0.0950
  368MOL0     C50710   8.443   4.312   1.115 -0.1558 -0.1710 -0.1187
  368MOL0     C50711   8.501   4.205   1.123  1.1551 -0.2984 -0.4351
  368MOL0     C50712   7.976   4.786   0.721  0.3529 -0.2278  0.8098
  368MOL0     C50713   7.889   4.840   0.626  0.8400  0.3637 -0.0186
  368MOL0     C50714   7.952   4.848   0.493  0.3485  0.2342  0.5044
  368MOL0     H50715   7.348   5.157   0.595 -1.2121  2.0562 -0.3495
  368MOL0     H50716   7.177   5.193   0.412  2.0693  2.4450 -1.2219
  368MOL0     H50717   7.015   4.988   0.311 -0.8918 -3.5431 -2.1393
  368MOL0     H50718   6.957   4.997   0.153 -0.2048 -2.2858  1.0011
  368MOL0     H50719   7.016   5.237   0.318  4.1134  0.0371 -0.5451
  368MOL0     H50720   7.015   5.243   0.140 -0.5978  0.8572  0.4438
  368MOL0     H50721   6.791   5.155   0.147 -0.8590  0.1718  1.2115
  368MOL0     H50722   6.789   5.143   0.321 -2.0810 -1.7424 -1.8525
  368MOL0     H50723   6.823   5.391   0.332  1.6699  3.1087 -1.3701
  368MOL0     H50724   6.830   5.399   0.154 -0.2058 -1.5290 -0.3765
  368MOL0     H50725   6.582   5.302   0.326 -0.7503  1.6556  0.8727
  368MOL0     H50726   6.604   5.291   0.153  0.2828 -0.1152 -0.4210
  368MOL0     H50727   6.563   5.506   0.100 -1.1211  2.6142  0.2855
  368MOL0     H50728   6.459   5.487   0.244  0.0004 -2.5018  2.1799
  368MOL0     H50729   6.728   5.632   0.223  0.4564  0.7245  2.0853
  368MOL0     H50730   6.659   5.586   0.382 -0.1042  0.8279  0.2224
  368MOL0     H50731   6.452   5.723   0.322 -1.0442 -2.3982 -1.4546
  368MOL0     H50732   6.603   5.820   0.313 -3.1413  2.3974 -1.0824
  368MOL0     H50733   6.699   5.782   0.025  0.7175  1.3116 -1.1065
  368MOL0     H50734   6.516   5.764  -0.283 -1.5191  0.6595  1.1063
  368MOL0     H50735   6.654   5.854  -0.212  0.6384 -0.2473  1.3205
  368MOL0     H50736   6.381   5.970  -0.242  0.9262 -1.5091  0.6909
  368MOL0     H50737   6.535   6.059  -0.211  1.7085  0.6972 -0.7599
  368MOL0     H50738   6.611   6.015  -0.448  0.7087 -0.2020  1.3175
  368MOL0     H50739   6.505   5.888  -0.471  1.8473 -0.2511  0.2834
  368MOL0     H50740   6.464   6.186  -0.439 -0.3242  0.7163 -0.2787
  368MOL0     H50741   6.427   6.092  -0.583 -4.5341  1.2462  0.0440
  368MOL0     H50742   6.348   6.292  -0.576  0.9221 -1.2369  2.1319
  368MOL0     H50743   6.195   6.612  -0.651  3.2125  0.0774 -0.0398
  368MOL0     H50744   6.197   6.463  -0.754 -0.5929 -0.7302 -0.4469
  368MOL0     H50745   6.337   6.517  -0.658 -0.0844  0.1009 -0.7794
  368MOL0     H50746   5.692   6.649  -0.562 -6.4917  4.0517  1.6163
  368MOL0     H50747   5.576   6.827  -0.662 -0.0812 -1.4326 -2.6285
  368MOL0     H50748   5.516   7.033  -0.814 -0.0140  0.5080 -1.4271
  368MOL0     H50749   5.523   7.086  -0.643 -0.5307  0.6011  0.1945
  368MOL0     H50750   5.582   7.311  -0.723 -0.7617  0.1594  0.4087
  368MOL0     H50751   5.553   7.250  -0.891 -0.9925 -1.3995 -0.3934
  368MOL0     H50752   5.362   7.279  -0.659 -1.0125  2.9041 -0.7746
  368MOL0     H50753   5.320   7.184  -0.806  2.2518 -0.2052 -2.8787
  368MOL0     H50754   5.344   7.377  -0.942  1.8147  1.1546 -0.2798
  368MOL0     H50755   5.410   7.472  -0.813 -0.1985  0.1443  0.2748
  368MOL0     H50756   5.188   7.459  -0.699 -1.9907 -0.4945  0.0819
  368MOL0     H50757   5.175   7.526  -0.857  2.9058  1.8505  2.1366
  368MOL0     H50758   5.123   7.232  -0.805 -1.1801  0.2750  1.5999
  368MOL0     H50759   5.083   7.321  -0.949 -0.1994  2.6955  0.1351
  368MOL0     H50760   4.943   7.357  -0.692 -0.5472  5.3567  0.9080
  368MOL0     H50761   4.884   7.291  -0.856 -1.9946  1.1551 -1.9597
  368MOL0     H50762   4.960   7.577  -0.811  0.3104  0.6524 -2.3262
  368MOL0     H50763   4.786   7.522  -0.816  0.6905  3.2739  2.7347
  368MOL0     H50764   5.947   7.031  -0.750  0.0159  0.5869  1.9847
  368MOL0     H50765   6.061   6.825  -0.706 -0.2877 -1.3751  0.8634
  368MOL0     H50766   5.914   6.314  -0.345  1.0536  0.9161  0.8283
  368MOL0     H50767   6.039   6.113  -0.340 -1.4608 -1.2137 -0.4706
  368MOL0     H50768   7.374   4.890   0.176  2.7070 -2.5055  1.8918
  368MOL0     H50769   7.559   4.897   0.329  0.3683  1.7248  0.0780
  368MOL0     H50770   7.635   4.919   0.827  1.5020  1.6623  0.1061
  368MOL0     H50771   7.771   4.821   0.983 -4.7806 -3.4930 -1.7388
  368MOL0     H50772   8.076   4.531   0.872 -2.8580  0.9963 -0.3235
  368MOL0     H50773   8.190   4.674   0.852  2.7283 -0.6631  3.8158
  368MOL0     H50774   8.118   4.531   1.092 -0.2372 -1.2729 -0.3949
  368MOL0     H50775   8.235   4.669   1.084  1.1908  0.5802 -0.6541
  368MOL0     H50776   8.260   4.394   0.945  1.5929 -0.4074 -1.3180
  368MOL0     H50777   8.360   4.532   0.908 -2.8034  0.5751 -1.0632
  368MOL0     H50778   8.340   4.447   1.217  3.5154  1.5608  2.1152
  368MOL0     H50779   8.468   4.520   1.135  0.1223 -0.4711 -0.4588
  368MOL0     H50780   8.553   4.112   1.114 -0.5255 -1.1069 -2.5489
  368MOL0     H50781   8.070   4.744   0.688  0.5934  1.3485 -0.6186
  368MOL0     H50782   7.879   4.819   0.418 -0.0444  1.5221  0.3521
  368MOL0     H50783   7.988   4.950   0.475  0.4753  0.1421  0.2348
  368MOL0     H50784   8.043   4.788   0.483  1.4209  1.6474  1.3807
  369MOL0     O50785   6.358   7.484   6.878 -0.1117  0.2862  0.1998
  369MOL0     C50786   6.341   7.405   6.972  0.0188  1.0986  0.2511
  369MOL0     O50787   6.441   7.325   7.028 -0.3860  0.1030 -0.0661
  369MOL0     C50788   6.573   7.344   7.006 -0.3593 -0.1290  0.2260
  369MOL0     C50789   6.636   7.391   6.887 -0.2952 -0.8278 -0.0408
  369MOL0     C50790   6.771   7.421   6.889 -0.1772  1.2407 -0.1318
  369MOL0     C50791   6.846   7.377   6.993 -0.7614  0.0676 -0.1877
  369MOL0     O50792   6.983   7.393   6.989  0.5758 -0.4043  0.3570
  369MOL0     C50793   7.049   7.323   6.880 -0.3327 -0.3474 -0.0606
  369MOL0     C50794   7.188   7.286   6.927 -0.3671 -0.1994  0.0565
  369MOL0     C50795   7.259   7.216   6.814 -0.3463 -0.6826 -0.8988
  369MOL0     C50796   7.393   7.153   6.871 -0.6551 -0.3814 -0.4593
  369MOL0     C50797   7.479   7.244   6.955 -0.7854  1.1221 -0.0837
  369MOL0     C50798   7.604   7.173   6.998  0.0499  0.3218 -1.1269
  369MOL0     C50799   7.700   7.253   7.093  0.0071  0.7673 -0.2057
  369MOL0     C50800   7.831   7.195   7.101 -0.2372  0.6191 -0.8245
  369MOL0     N50801   7.844   7.059   7.162  0.6343 -0.1476  0.2370
  369MOL0     C50802   7.812   6.939   7.106 -0.1337  0.1482 -0.3756
  369MOL0     C50803   7.865   6.848   7.189 -1.1605  0.0605  0.8113
  369MOL0     C50804   7.864   6.699   7.173 -0.0791  0.4989  0.0327
  369MOL0     C50805   7.815   6.621   7.296  1.2083 -0.1657 -0.3533
  369MOL0     C50806   7.669   6.615   7.343  0.4649  0.0169 -0.1186
  369MOL0     C50807   7.560   6.580   7.240  0.5710  0.4327  0.0303
  369MOL0     O50808   7.445   6.558   7.313  0.4196 -1.2877 -0.0059
  369MOL0     C50809   7.332   6.511   7.262 -0.2787  0.0525  0.3151
  369MOL0     C50810   7.325   6.455   7.137 -0.3714  0.0486  0.1656
  369MOL0     C50811   7.193   6.413   7.095  0.4770  1.0431 -1.1670
  369MOL0     C50812   7.204   6.340   6.959  0.0797 -0.3010 -0.0487
  369MOL0     C50813   7.075   6.435   7.178  0.4269  0.8997 -0.2659
  369MOL0     C50814   6.937   6.393   7.138  0.1424 -0.3355 -0.3499
  369MOL0     O50815   6.838   6.401   7.233  0.1708 -0.0886 -0.1389
  369MOL0     C50816   6.710   6.372   7.200 -0.1779 -0.5760 -0.9769
  369MOL0     C50817   6.636   6.280   7.271  0.6242 -1.0175 -0.7409
  369MOL0     C50818   6.495   6.274   7.256  0.3348  0.4202  0.0678
  369MOL0     C50819   6.424   6.356   7.170  0.1486 -0.9416  0.1413
  369MOL0     O50820   6.289   6.339   7.147 -0.5831  0.2384  0.4688
  369MOL0     C50821   6.268   6.265   7.024  0.5438 -0.1393  0.0190
  369MOL0     C50822   6.117   6.218   7.015 -0.7943  0.2238 -0.0926
  369MOL0     C50823   6.016   6.325   7.031  0.0741 -0.5449 -1.1205
  369MOL0     C50824   5.873   6.268   7.023  0.4178  0.0184 -0.3795
  369MOL0     C50825   5.769   6.378   7.029 -0.7271  0.7496  0.1004
  369MOL0     C50826   5.734   6.424   7.170  0.2893 -0.6170  0.5922
  369MOL0     C50827   5.624   6.534   7.161 -0.3721 -0.8552 -0.8938
  369MOL0     C50828   5.676   6.673   7.164 -0.0699 -0.0698  0.5393
  369MOL0    Cl50829   5.574   6.775   7.273  0.0419 -0.4782 -0.1726
  369MOL0     C50830   6.497   6.450   7.106  0.1900 -0.5609  0.6756
  369MOL0     C50831   6.644   6.463   7.121  0.1766 -0.9182  0.7857
  369MOL0     O50832   6.922   6.340   7.029 -1.3050 -0.0973  0.2778
  369MOL0     C50833   7.092   6.484   7.310  0.7060  0.1586  0.1375
  369MOL0     C50834   7.221   6.511   7.352 -0.2886  0.0613 -0.7173
  369MOL0     N50835   7.939   6.922   7.279  0.2611  0.0751  0.4325
  369MOL0     N50836   7.910   7.046   7.271  0.2697 -1.0063 -0.1255
  369MOL0     C50837   6.794   7.308   7.100 -0.2268  0.2204 -0.2199
  369MOL0     C50838   6.658   7.307   7.112 -0.2800  0.0967  0.4598
  369MOL0     C50839   6.201   7.370   7.025 -0.5468  0.0880 -0.5871
  369MOL0     C50840   6.191   7.321   7.158 -1.0511 -1.2299  0.2547
  369MOL0     C50841   6.075   7.289   7.215  1.1684  0.4545 -0.4043
  369MOL0     C50842   5.946   7.284   7.150  0.1204  0.7179 -0.4270
  369MOL0     O50843   5.840   7.236   7.228 -0.3800  0.6139  0.0705
  369MOL0     C50844   5.719   7.209   7.152  0.5941 -0.1670  0.4495
  369MOL0     C50845   5.602   7.171   7.243  0.2031  0.0422 -0.0455
  369MOL0     C50846   5.493   7.120   7.149 -0.0403 -0.8015 -0.0100
  369MOL0     C50847   5.373   7.078   7.246 -0.7139 -0.0886  1.0608
  369MOL0     C50848   5.255   7.029   7.180  0.5363 -0.6667 -0.0010
  369MOL0     C50849   5.149   7.004   7.126 -0.0688  0.0255 -0.5126
  369MOL0     C50850   5.956   7.328   7.011 -0.4252  0.6585 -1.0142
  369MOL0     C50851   6.074   7.378   6.955 -0.4347  0.9503  0.5197
  369MOL0     C50852   6.069   7.428   6.816 -0.8063 -0.2332  0.0194
  369MOL0     H50853   6.577   7.422   6.801 -1.0608  0.3777  0.8809
  369MOL0     H50854   6.821   7.464   6.803 -0.0802  2.2761  0.4223
  369MOL0     H50855   7.055   7.397   6.799 -2.6965  1.7273  1.5287
  369MOL0     H50856   7.000   7.232   6.846 -0.6758 -0.8022  1.5745
  369MOL0     H50857   7.243   7.371   6.968  1.5681 -1.2354 -0.2670
  369MOL0     H50858   7.164   7.221   7.012  0.8610 -1.5304 -0.5693
  369MOL0     H50859   7.198   7.138   6.769 -2.6844  0.6366 -0.1718
  369MOL0     H50860   7.279   7.293   6.738 -1.5819  1.0329  0.4314
  369MOL0     H50861   7.369   7.073   6.942  0.5230 -1.2075 -0.9609
  369MOL0     H50862   7.450   7.114   6.787 -0.4958 -3.8541  1.0650
  369MOL0     H50863   7.424   7.277   7.044 -0.3528  5.2796 -1.1542
  369MOL0     H50864   7.505   7.336   6.902  2.9333  2.0956  2.9827
  369MOL0     H50865   7.593   7.074   7.043  2.3209  0.8181  0.7639
  369MOL0     H50866   7.659   7.152   6.906  1.1918 -0.7975 -0.2411
  369MOL0     H50867   7.653   7.255   7.191 -0.3232  1.0815 -0.3678
  369MOL0     H50868   7.726   7.354   7.058  3.9352  0.5159  1.4469
  369MOL0     H50869   7.878   7.198   7.002 -0.3680  3.2331 -0.8713
  369MOL0     H50870   7.891   7.262   7.164 -2.0496  0.7111  0.8943
  369MOL0     H50871   7.750   6.916   7.020 -1.9485  2.4801  0.1920
  369MOL0     H50872   7.965   6.657   7.179 -0.7735 -1.0010  3.4928
  369MOL0     H50873   7.822   6.677   7.074  0.8260  2.6342 -0.9008
  369MOL0     H50874   7.849   6.518   7.284 -1.2481 -1.0358 -0.2153
  369MOL0     H50875   7.877   6.659   7.378 -4.0713  1.2342  3.5603
  369MOL0     H50876   7.668   6.532   7.415  0.8597  0.2079  0.1122
  369MOL0     H50877   7.633   6.701   7.400 -0.8710 -1.2606  1.0404
  369MOL0     H50878   7.545   6.669   7.178  0.5299  2.4621  2.7732
  369MOL0     H50879   7.584   6.496   7.174 -2.2359 -1.3115  1.0546
  369MOL0     H50880   7.411   6.436   7.074 -1.7032 -1.0797 -1.3816
  369MOL0     H50881   7.302   6.293   6.949  0.2459 -0.5246  2.1075
  369MOL0     H50882   7.186   6.404   6.872 -3.5986 -0.8098  0.1863
  369MOL0     H50883   7.128   6.262   6.953 -1.3969  1.0442  0.3363
  369MOL0     H50884   6.694   6.223   7.344  1.4220  1.5207  0.7330
  369MOL0     H50885   6.446   6.184   7.292  2.8300 -0.7449  0.7418
  369MOL0     H50886   6.289   6.332   6.941  0.3374 -0.7214 -0.5106
  369MOL0     H50887   6.344   6.189   7.006 -0.8891 -1.2545 -1.6141
  369MOL0     H50888   6.116   6.180   6.912  2.4371  1.9433 -0.9163
  369MOL0     H50889   6.113   6.142   7.094  4.5662 -2.6948 -2.0968
  369MOL0     H50890   6.036   6.390   6.945  0.4853  2.4738  1.1005
  369MOL0     H50891   6.017   6.389   7.119 -3.9221 -1.5685 -0.1140
  369MOL0     H50892   5.863   6.189   7.099  0.9762 -0.5357 -0.8711
  369MOL0     H50893   5.868   6.226   6.922  3.7410 -1.1451 -0.1928
  369MOL0     H50894   5.806   6.460   6.966 -1.3906  0.7622 -0.2808
  369MOL0     H50895   5.676   6.339   6.985 -3.7794  5.0910  1.9778
  369MOL0     H50896   5.817   6.462   7.230  0.1243  2.9777 -1.1693
  369MOL0     H50897   5.697   6.331   7.214  0.1447 -2.6701 -3.4109
  369MOL0     H50898   5.547   6.511   7.235  0.4694  0.0720  0.3082
  369MOL0     H50899   5.585   6.520   7.059  2.6543  0.8680 -2.4150
  369MOL0     H50900   5.678   6.726   7.068 -0.8540  0.8804  1.0171
  369MOL0     H50901   5.780   6.679   7.195  2.9918 -0.4516 -7.4256
  369MOL0     H50902   6.441   6.523   7.048  0.9743 -1.0821 -0.7832
  369MOL0     H50903   6.708   6.536   7.074 -0.0771 -1.0788  0.1896
  369MOL0     H50904   7.011   6.501   7.381  0.4622  0.8666 -0.3006
  369MOL0     H50905   7.233   6.546   7.454 -0.7349  0.5310 -0.8241
  369MOL0     H50906   6.862   7.255   7.166  0.0958  1.3122  0.3448
  369MOL0     H50907   6.615   7.268   7.204  0.9543  1.6138  1.7373
  369MOL0     H50908   6.284   7.309   7.212 -1.2926 -0.6505  0.8052
  369MOL0     H50909   6.074   7.259   7.319 -0.4792  1.0963 -0.2133
  369MOL0     H50910   5.687   7.294   7.091  0.6969 -0.3664  0.1181
  369MOL0     H50911   5.752   7.129   7.086  2.9926  2.9275 -2.4682
  369MOL0     H50912   5.571   7.265   7.290  1.5106  1.0163 -1.0234
  369MOL0     H50913   5.621   7.100   7.323 -2.2605  0.3714  0.9105
  369MOL0     H50914   5.474   7.201   7.078  0.6783 -0.8720 -0.2968
  369MOL0     H50915   5.526   7.031   7.094  0.2408 -1.0399  0.5428
  369MOL0     H50916   5.336   7.161   7.306 -2.5803  0.1325 -0.2970
  369MOL0     H50917   5.406   6.995   7.309 -1.9797 -2.2092 -0.8952
  369MOL0     H50918   5.049   6.998   7.086  0.0927 -0.8884 -0.8037
  369MOL0     H50919   5.864   7.335   6.953 -0.6277 -0.4870 -0.8559
  369MOL0     H50920   6.098   7.346   6.751  2.0721  0.1355  0.6950
  369MOL0     H50921   5.970   7.469   6.793 -0.5263 -0.0841 -0.9571
  369MOL0     H50922   6.131   7.517   6.802 -1.4713  0.2400  0.0035
  370MOL0     O50923   5.400   7.542   9.222  0.1166  0.1702 -0.5921
  370MOL0     C50924   5.350   7.472   9.136  1.0082 -0.3525 -1.2212
  370MOL0     O50925   5.411   7.381   9.052 -0.5335  0.1293  0.7172
  370MOL0     C50926   5.550   7.380   9.067 -0.0615  0.5641 -0.5954
  370MOL0     C50927   5.603   7.300   9.169 -0.2022 -0.0759  0.4462
  370MOL0     C50928   5.744   7.278   9.165  0.5792  0.5286 -0.2188
  370MOL0     C50929   5.837   7.338   9.075  0.1992 -0.7956  0.3665
  370MOL0     O50930   5.970   7.307   9.080  0.1855  0.0343 -0.9435
  370MOL0     C50931   6.049   7.288   8.957  0.4213  0.4495 -0.1655
  370MOL0     C50932   6.119   7.420   8.904 -0.1974  0.8029 -0.2859
  370MOL0     C50933   6.263   7.428   8.959 -0.9688 -0.0050  0.9202
  370MOL0     C50934   6.327   7.564   8.929  0.8854 -0.0371  0.8807
  370MOL0     C50935   6.466   7.571   8.983 -0.0913 -0.1590 -0.3098
  370MOL0     C50936   6.569   7.469   8.911  1.0050  0.7509 -0.4175
  370MOL0     C50937   6.698   7.481   8.973 -0.5844 -0.7265 -0.8612
  370MOL0     C50938   6.764   7.614   8.955 -0.3056 -0.3517  0.8545
  370MOL0     N50939   6.856   7.651   9.061  0.1712 -0.4365  0.2618
  370MOL0     C50940   6.817   7.690   9.185  0.0592  0.0182 -0.7000
  370MOL0     C50941   6.929   7.716   9.260 -0.4168  0.0869 -0.1344
  370MOL0     C50942   6.933   7.777   9.396  0.7022  0.1906 -0.5768
  370MOL0     C50943   7.068   7.750   9.466 -0.3328 -0.5320 -0.0147
  370MOL0     C50944   7.071   7.785   9.611  0.6427  0.1099  0.3108
  370MOL0     C50945   7.213   7.771   9.679  0.0190 -0.2957  0.3466
  370MOL0     O50946   7.227   7.628   9.698 -0.7938 -0.4017  0.7510
  370MOL0     C50947   7.325   7.602   9.786 -1.1730 -0.0671 -0.6667
  370MOL0     C50948   7.333   7.471   9.840  0.5040 -0.9136  0.8069
  370MOL0     C50949   7.434   7.424   9.916  0.6983 -0.2926 -0.0905
  370MOL0     C50950   7.431   7.288   9.988 -0.2905 -0.3698 -0.1674
  370MOL0     C50951   7.546   7.507   9.929  0.5071 -0.6370 -0.7566
  370MOL0     C50952   7.659   7.467  10.012 -0.4407  0.6074 -0.5598
  370MOL0     O50953   7.777   7.432   9.948 -0.4510 -0.9595 -0.5943
  370MOL0     C50954   7.890   7.405  10.025 -0.2744 -0.5622  0.4025
  370MOL0     C50955   7.921   7.457  10.154 -0.3725  0.0260 -0.3402
  370MOL0     C50956   8.050   7.424  10.207 -0.4911 -0.3178 -0.4610
  370MOL0     C50957   8.145   7.337  10.140 -0.0137  0.1467 -0.2385
  370MOL0     O50958   8.269   7.313  10.199 -0.5488  0.1221  0.0638
  370MOL0     C50959   8.354   7.200  10.163 -0.0315 -0.8088  0.3692
  370MOL0     C50960   8.465   7.183  10.271  0.6191  0.3819  0.0768
  370MOL0     C50961   8.588   7.120  10.208  0.0643  0.0428 -0.0550
  370MOL0     C50962   8.582   6.966  10.202  0.2478  0.3966  0.6569
  370MOL0     C50963   8.617   6.892  10.327  0.1722 -0.4123  0.5666
  370MOL0     C50964   8.769   6.880  10.343  0.2473  0.2528  0.3078
  370MOL0     C50965   8.801   6.804  10.468 -0.0921 -0.6291  0.1119
  370MOL0     C50966   8.935   6.739  10.446  0.2609 -0.6545 -0.2182
  370MOL0    Cl50967   8.971   6.634  10.569  0.0020  0.2839 -0.2682
  370MOL0     C50968   8.116   7.300  10.013  0.8547  0.3784  0.6674
  370MOL0     C50969   7.992   7.332   9.953  0.4475  0.5016 -0.9071
  370MOL0     O50970   7.637   7.483  10.130 -0.0074 -0.2524  0.6471
  370MOL0     C50971   7.546   7.637   9.878  0.1138  0.1837 -0.0450
  370MOL0     C50972   7.437   7.689   9.809  0.6743  0.3987  0.3872
  370MOL0     N50973   7.040   7.689   9.177  0.4627 -0.1516 -0.0201
  370MOL0     N50974   6.990   7.648   9.064 -0.4899  0.5307 -0.8959
  370MOL0     C50975   5.775   7.428   8.984 -0.1497 -0.4094  1.4105
  370MOL0     C50976   5.633   7.452   8.980 -0.5659  0.0851  0.3813
  370MOL0     C50977   5.198   7.469   9.136 -1.0090 -1.3013  0.0229
  370MOL0     C50978   5.138   7.344   9.119  1.3749  0.4438  0.1251
  370MOL0     C50979   5.002   7.336   9.118  0.5211  1.1869  0.2504
  370MOL0     C50980   4.921   7.443   9.157 -0.1000 -0.1136 -0.8826
  370MOL0     O50981   4.788   7.409   9.166  0.0833 -0.4437 -0.0333
  370MOL0     C50982   4.748   7.378   9.299 -0.0157 -0.6533  0.3492
  370MOL0     C50983   4.647   7.483   9.338 -0.1217 -0.1538 -0.4419
  370MOL0     C50984   4.603   7.481   9.486  0.5196 -0.9192 -0.4502
  370MOL0     C50985   4.482   7.570   9.510 -0.8133  0.2481 -1.3340
  370MOL0     C50986   4.431   7.549   9.650  0.2868 -0.5233  0.5541
  370MOL0     C50987   4.379   7.514   9.750  0.6007 -0.6856  0.4509
  370MOL0     C50988   4.981   7.572   9.177  0.0580  0.0760 -1.0589
  370MOL0     C50989   5.124   7.585   9.166 -0.1158  0.1603  0.6485
  370MOL0     C50990   5.186   7.726   9.176  0.6173 -0.0928  0.6739
  370MOL0     H50991   5.520   7.265   9.230  0.6086 -0.4834  1.3400
  370MOL0     H50992   5.785   7.214   9.242  2.1229  1.5439 -0.1581
  370MOL0     H50993   5.975   7.255   8.884 -1.3867  2.2635  0.7343
  370MOL0     H50994   6.123   7.209   8.976  0.7875  0.8369  0.0424
  370MOL0     H50995   6.111   7.418   8.795 -1.2772 -1.9345 -0.2336
  370MOL0     H50996   6.064   7.507   8.941  0.9679  1.5656 -0.3090
  370MOL0     H50997   6.253   7.408   9.066  1.5675 -1.9275  0.8946
  370MOL0     H50998   6.328   7.347   8.926 -1.0750  0.7937 -1.4449
  370MOL0     H50999   6.317   7.579   8.821 -2.2303  2.2079  1.3633
  370MOL0     H51000   6.266   7.640   8.978 -0.4764 -0.4031 -0.2075
  370MOL0     H51001   6.464   7.541   9.088 -0.0989  0.7442 -0.0516
  370MOL0     H51002   6.493   7.676   8.973  1.1220 -0.3577  0.7530
  370MOL0     H51003   6.535   7.366   8.923  0.5095  1.0726  1.2106
  370MOL0     H51004   6.572   7.496   8.805  0.6448  0.9746 -0.3750
  370MOL0     H51005   6.772   7.407   8.941  1.7544  0.4155  1.5585
  370MOL0     H51006   6.682   7.463   9.080 -1.6448  1.0408 -0.6858
  370MOL0     H51007   6.813   7.612   8.858  0.6814 -5.2441  1.1769
  370MOL0     H51008   6.692   7.697   8.951  1.3294  1.0736  0.1484
  370MOL0     H51009   6.713   7.703   9.214  0.4619  1.4208  0.1983
  370MOL0     H51010   6.852   7.728   9.453  2.3147 -0.5107  1.2246
  370MOL0     H51011   6.885   7.875   9.385 -2.0501 -1.0312 -0.3043
  370MOL0     H51012   7.093   7.646   9.444 -1.0909 -0.0081 -4.1626
  370MOL0     H51013   7.149   7.807   9.419 -0.2209 -1.6262 -1.2098
  370MOL0     H51014   7.032   7.887   9.621 -1.7110 -0.8478  1.9926
  370MOL0     H51015   7.000   7.721   9.664 -0.5066  0.5886 -0.6075
  370MOL0     H51016   7.292   7.815   9.618  3.7729 -0.2929  4.6944
  370MOL0     H51017   7.221   7.825   9.774  0.9881  0.1310  0.0406
  370MOL0     H51018   7.249   7.403   9.829 -2.6952  2.6360  1.3573
  370MOL0     H51019   7.447   7.293  10.096  0.9270 -0.0655 -0.3489
  370MOL0     H51020   7.504   7.229   9.932 -0.5888  1.2033 -2.3408
  370MOL0     H51021   7.343   7.224   9.972 -0.8970  0.7747 -1.6572
  370MOL0     H51022   7.856   7.524  10.208  1.8748  3.4735 -1.5970
  370MOL0     H51023   8.088   7.467  10.300 -1.2425  0.0151 -0.3010
  370MOL0     H51024   8.290   7.111  10.158 -1.5627  0.1570  1.6125
  370MOL0     H51025   8.394   7.221  10.063 -2.3344 -2.0836 -0.9276
  370MOL0     H51026   8.488   7.286  10.300  0.7242 -0.1862  2.1399
  370MOL0     H51027   8.416   7.140  10.359 -4.7037  1.2338 -2.0908
  370MOL0     H51028   8.675   7.148  10.268 -0.5647  0.4183  0.6998
  370MOL0     H51029   8.598   7.171  10.111 -1.1356  2.5438  1.0449
  370MOL0     H51030   8.651   6.954  10.118 -0.0991  1.1836  0.2502
  370MOL0     H51031   8.482   6.946  10.164 -0.7284  3.8097  1.1213
  370MOL0     H51032   8.561   6.952  10.401 -0.4390 -1.1329  0.6985
  370MOL0     H51033   8.577   6.791  10.332  1.8284 -1.1415 -0.4331
  370MOL0     H51034   8.817   6.978  10.342 -1.3473  1.1014  1.6082
  370MOL0     H51035   8.799   6.828  10.252  0.5801  3.1167 -1.3190
  370MOL0     H51036   8.731   6.727  10.500  0.9181 -1.2540  0.8944
  370MOL0     H51037   8.803   6.877  10.549 -1.8113 -0.5139  0.0791
  370MOL0     H51038   9.017   6.812  10.438  1.9566 -2.3635  0.6650
  370MOL0     H51039   8.934   6.681  10.353 -3.2903 -1.8938  0.4613
  370MOL0     H51040   8.181   7.242   9.948 -1.0441  0.8326 -1.7958
  370MOL0     H51041   7.981   7.276   9.860  0.1249 -0.7348 -0.1598
  370MOL0     H51042   7.630   7.706   9.880  0.5112  0.2119 -4.9809
  370MOL0     H51043   7.436   7.790   9.771  0.9952 -0.3861 -1.8406
  370MOL0     H51044   5.837   7.479   8.911 -1.8139 -0.0883  0.1463
  370MOL0     H51045   5.597   7.517   8.900 -2.0942 -0.1612  0.8354
  370MOL0     H51046   5.203   7.262   9.090 -1.4693 -2.0747  0.3526
  370MOL0     H51047   4.966   7.234   9.103  0.8835  1.2326 -1.0554
  370MOL0     H51048   4.705   7.278   9.308  0.3450 -0.6765  2.1234
  370MOL0     H51049   4.824   7.378   9.378 -1.8538 -1.6925  2.2197
  370MOL0     H51050   4.566   7.470   9.265 -0.0409  2.7563 -1.1964
  370MOL0     H51051   4.694   7.578   9.310 -0.8964  0.2761 -0.3394
  370MOL0     H51052   4.581   7.380   9.522  0.5516 -1.4519 -1.8764
  370MOL0     H51053   4.688   7.519   9.543 -0.9100 -0.0783  1.2236
  370MOL0     H51054   4.401   7.550   9.439  1.4160  1.4770 -4.4294
  370MOL0     H51055   4.512   7.675   9.512  0.7390 -0.1890  0.7357
  370MOL0     H51056   4.319   7.481   9.833 -3.0838  0.6332 -1.4679
  370MOL0     H51057   4.918   7.658   9.196 -1.7461 -1.7910  2.2673
  370MOL0     H51058   5.206   7.763   9.277 -0.3400  1.1650  0.4296
  370MOL0     H51059   5.278   7.737   9.118  0.3850 -1.9308 -0.1238
  370MOL0     H51060   5.112   7.797   9.137  1.8450  0.1425 -1.3833
  371MOL0     O51061   7.105   1.376   1.997 -0.1594  0.0797 -0.3233
  371MOL0     C51062   7.044   1.442   1.913 -0.8771 -0.3921  0.1361
  371MOL0     O51063   6.935   1.399   1.848 -0.0353  0.5396 -0.3660
  371MOL0     C51064   6.888   1.284   1.898  0.5361  1.2792  0.8545
  371MOL0     C51065   6.955   1.166   1.892 -0.4168  0.1231 -0.5400
  371MOL0     C51066   6.900   1.045   1.944 -0.3176 -0.7491 -0.3126
  371MOL0     C51067   6.779   1.043   2.013 -0.0266 -0.8202  0.4379
  371MOL0     O51068   6.726   0.919   2.052  0.1971 -0.3128  0.0486
  371MOL0     C51069   6.605   0.919   2.129 -0.4732 -0.0168 -0.7174
  371MOL0     C51070   6.580   0.786   2.210  0.4862 -0.3896 -0.1681
  371MOL0     C51071   6.602   0.659   2.121 -0.6216  0.5777 -0.0627
  371MOL0     C51072   6.542   0.529   2.174 -0.8230  1.1387 -0.2110
  371MOL0     C51073   6.403   0.491   2.112  0.5486  0.3650 -0.4231
  371MOL0     C51074   6.291   0.583   2.165 -0.0698 -0.1482 -0.9108
  371MOL0     C51075   6.275   0.567   2.319 -0.3252  0.3255 -0.1140
  371MOL0     C51076   6.138   0.611   2.376 -0.5783  0.7442 -0.1346
  371MOL0     N51077   6.122   0.740   2.326  0.2862 -0.5704  0.2855
  371MOL0     C51078   6.189   0.855   2.371 -1.0002  1.0997 -0.0051
  371MOL0     C51079   6.135   0.956   2.315  0.4410  0.9737 -0.2402
  371MOL0     C51080   6.167   1.110   2.321  0.4901  0.5234 -0.2440
  371MOL0     C51081   6.291   1.136   2.230 -0.3623  1.0962  0.8517
  371MOL0     C51082   6.302   1.280   2.200  0.8558 -0.3543  0.2968
  371MOL0     C51083   6.373   1.372   2.302  0.0425  0.7920 -0.7755
  371MOL0     O51084   6.410   1.496   2.247 -0.5743  0.0844 -0.3752
  371MOL0     C51085   6.498   1.561   2.339  0.1798 -0.5381  0.1506
  371MOL0     C51086   6.435   1.622   2.442  0.4337 -0.3058 -0.6031
  371MOL0     C51087   6.509   1.695   2.538 -0.1033 -0.1828 -0.4392
  371MOL0     C51088   6.434   1.741   2.656  0.3874 -0.3672  0.6739
  371MOL0     C51089   6.647   1.710   2.513 -0.3397  0.0929 -0.2179
  371MOL0     C51090   6.733   1.795   2.602 -0.8246  0.3202  0.2297
  371MOL0     O51091   6.784   1.903   2.541 -0.0477 -0.6030 -0.2195
  371MOL0     C51092   6.868   1.993   2.607  0.2859  0.8083  0.3331
  371MOL0     C51093   6.831   2.127   2.622 -0.2192  0.3644  0.3801
  371MOL0     C51094   6.908   2.220   2.691 -0.0127  0.1422 -0.0306
  371MOL0     C51095   7.019   2.177   2.756  0.7441 -0.2911 -0.3709
  371MOL0     O51096   7.094   2.251   2.843 -0.3265 -0.1934 -0.4540
  371MOL0     C51097   7.064   2.384   2.877 -0.0555 -0.2752 -0.1781
  371MOL0     C51098   7.179   2.464   2.948  0.3117  0.0783  0.0633
  371MOL0     C51099   7.296   2.470   2.841  0.7493 -0.3904 -0.6200
  371MOL0     C51100   7.425   2.497   2.915 -0.4493  0.4456  0.2712
  371MOL0     C51101   7.556   2.471   2.831 -0.7410  0.3124 -0.0717
  371MOL0     C51102   7.694   2.509   2.900  0.4338  0.3428  0.2783
  371MOL0     C51103   7.721   2.435   3.030  0.5289 -0.6473  0.3529
  371MOL0     C51104   7.839   2.490   3.109 -0.4196  0.0443 -0.1654
  371MOL0    Cl51105   7.997   2.476   3.007  0.5639  0.2012  0.1451
  371MOL0     C51106   7.050   2.037   2.757  0.3512 -1.1423  0.3771
  371MOL0     C51107   6.978   1.944   2.679 -0.1744 -0.8254 -0.7232
  371MOL0     O51108   6.740   1.762   2.722  0.6857  0.6791  0.0839
  371MOL0     C51109   6.708   1.656   2.399  0.7625 -0.2830  0.1539
  371MOL0     C51110   6.636   1.584   2.312 -0.0370 -0.2218 -0.0013
  371MOL0     N51111   6.042   0.923   2.231  1.1181 -0.5913 -0.3954
  371MOL0     N51112   6.029   0.791   2.235  0.1128  0.1112  0.2946
  371MOL0     C51113   6.718   1.175   2.033  0.6644 -0.8629 -0.6122
  371MOL0     C51114   6.770   1.290   1.973 -0.0211  0.5909 -0.9808
  371MOL0     C51115   7.097   1.577   1.883 -0.6043 -0.6743 -0.4915
  371MOL0     C51116   7.062   1.622   1.749 -0.5210 -0.1144 -0.0704
  371MOL0     C51117   7.125   1.737   1.697 -0.5345  0.3696 -0.8174
  371MOL0     C51118   7.191   1.822   1.790  0.3057  0.7241  0.1536
  371MOL0     O51119   7.223   1.954   1.744  0.2814 -0.0630  0.8729
  371MOL0     C51120   7.241   2.046   1.852 -0.0001  0.2055  0.0314
  371MOL0     C51121   7.261   2.188   1.799  0.3958 -0.6230 -0.4317
  371MOL0     C51122   7.126   2.246   1.758  0.8483 -0.0830  0.5085
  371MOL0     C51123   7.133   2.389   1.717 -0.1348  0.1951  0.4301
  371MOL0     C51124   7.014   2.433   1.653  0.6317 -0.3173  0.3429
  371MOL0     C51125   6.909   2.458   1.602 -0.2503 -0.9134  1.2292
  371MOL0     C51126   7.216   1.778   1.920  0.0298  0.1668 -0.1946
  371MOL0     C51127   7.178   1.656   1.971  0.1502 -0.0644 -0.7939
  371MOL0     C51128   7.191   1.626   2.118 -0.6112 -0.7187  0.2090
  371MOL0     H51129   7.046   1.150   1.835 -0.8222 -3.4729 -0.4406
  371MOL0     H51130   6.954   0.952   1.929  1.1123  0.2138 -1.3885
  371MOL0     H51131   6.508   0.949   2.090 -1.1321 -3.8218 -2.4440
  371MOL0     H51132   6.619   0.983   2.217  3.0192 -1.1073 -0.3122
  371MOL0     H51133   6.640   0.781   2.301 -2.2429 -0.5625  1.7611
  371MOL0     H51134   6.480   0.783   2.253  0.1872  2.4329 -0.4791
  371MOL0     H51135   6.554   0.682   2.025 -1.1862 -2.3052 -0.5613
  371MOL0     H51136   6.708   0.634   2.106 -0.3389  2.2816 -1.2908
  371MOL0     H51137   6.603   0.439   2.161 -4.2114 -1.1029 -1.9768
  371MOL0     H51138   6.545   0.533   2.284  2.8146  0.4866 -0.1533
  371MOL0     H51139   6.386   0.385   2.132  0.0531  0.3520 -0.8937
  371MOL0     H51140   6.401   0.502   2.003 -2.2446 -0.0102 -0.4736
  371MOL0     H51141   6.309   0.685   2.129  1.7936  0.0085  0.3165
  371MOL0     H51142   6.195   0.545   2.130 -1.1462 -0.0079  1.6798
  371MOL0     H51143   6.355   0.626   2.364  1.9153 -2.3030 -0.3812
  371MOL0     H51144   6.304   0.465   2.349  0.4534  1.0477  1.7103
  371MOL0     H51145   6.071   0.534   2.335  0.3449  0.0219 -0.3417
  371MOL0     H51146   6.135   0.619   2.485 -2.8842  0.5271 -0.1348
  371MOL0     H51147   6.272   0.840   2.439  0.6560  1.3515 -1.8629
  371MOL0     H51148   6.184   1.144   2.424 -0.8424 -3.6185  1.5544
  371MOL0     H51149   6.077   1.162   2.286  0.5883  1.4200  0.7726
  371MOL0     H51150   6.380   1.098   2.281  0.8612  2.3555 -0.2680
  371MOL0     H51151   6.284   1.086   2.133  2.0770 -0.7436  1.5395
  371MOL0     H51152   6.348   1.291   2.102 -0.3011 -0.4261 -0.2700
  371MOL0     H51153   6.204   1.323   2.176  1.0527 -0.2849 -0.4031
  371MOL0     H51154   6.314   1.390   2.392  1.0826  0.6284 -0.0413
  371MOL0     H51155   6.454   1.319   2.352 -0.9592 -0.3617 -0.3321
  371MOL0     H51156   6.327   1.612   2.453  0.2065  1.1113 -1.3707
  371MOL0     H51157   6.440   1.651   2.718  2.1291 -0.2331  0.7398
  371MOL0     H51158   6.330   1.769   2.639  0.5410  1.3538  2.2402
  371MOL0     H51159   6.488   1.822   2.706 -0.5891  0.1845  0.8641
  371MOL0     H51160   6.741   2.166   2.574 -0.4383  0.0182  0.5130
  371MOL0     H51161   6.879   2.322   2.713  0.7126  0.1288  1.0589
  371MOL0     H51162   7.046   2.425   2.777  0.6995 -1.8422 -0.9964
  371MOL0     H51163   6.973   2.404   2.933  0.9343  0.6698  1.1856
  371MOL0     H51164   7.144   2.564   2.974 -0.6753 -0.9580  3.2294
  371MOL0     H51165   7.193   2.406   3.040 -0.5595 -1.4258 -0.7121
  371MOL0     H51166   7.279   2.554   2.774  0.6698 -0.7323 -1.0297
  371MOL0     H51167   7.311   2.378   2.782 -1.6965 -1.3933  0.1812
  371MOL0     H51168   7.422   2.440   3.009  1.7126 -2.3094 -1.1640
  371MOL0     H51169   7.423   2.602   2.944  3.0887  0.3731  1.2185
  371MOL0     H51170   7.566   2.366   2.801  0.6410  1.4637 -4.4214
  371MOL0     H51171   7.555   2.519   2.733  0.3489 -1.6937 -1.1239
  371MOL0     H51172   7.709   2.618   2.906  0.0535  0.3374  1.5453
  371MOL0     H51173   7.768   2.482   2.824  0.9926  4.0567 -0.7226
  371MOL0     H51174   7.730   2.328   3.008 -0.7664 -0.4278 -1.4783
  371MOL0     H51175   7.639   2.443   3.101 -0.0972  0.0810 -0.4222
  371MOL0     H51176   7.846   2.424   3.196 -3.4279 -1.6682 -1.0740
  371MOL0     H51177   7.822   2.590   3.148 -1.9604 -0.7016  1.1705
  371MOL0     H51178   7.136   2.009   2.816 -0.0441 -2.6760  0.2609
  371MOL0     H51179   7.013   1.842   2.682 -1.2568 -1.2428 -1.7457
  371MOL0     H51180   6.809   1.691   2.381 -0.1729  4.3275  2.1856
  371MOL0     H51181   6.674   1.531   2.226 -0.2083 -0.8362  0.2963
  371MOL0     H51182   6.628   1.191   2.090  1.7499 -2.8092  1.8028
  371MOL0     H51183   6.721   1.385   1.993 -1.9732 -0.6865  0.7720
  371MOL0     H51184   6.996   1.567   1.682 -0.3217  0.7382 -0.9882
  371MOL0     H51185   7.109   1.771   1.595  1.5930 -0.3316 -1.4412
  371MOL0     H51186   7.157   2.049   1.922  0.1094  1.9313  0.1351
  371MOL0     H51187   7.331   2.025   1.910 -0.1782  0.4469  0.3997
  371MOL0     H51188   7.326   2.190   1.711 -2.2194  0.3497 -2.4841
  371MOL0     H51189   7.305   2.259   1.870  0.1669  2.3799 -3.0510
  371MOL0     H51190   7.087   2.191   1.672  2.3681 -1.4225  0.6496
  371MOL0     H51191   7.059   2.244   1.845 -0.0623  0.5145 -0.1481
  371MOL0     H51192   7.206   2.400   1.636 -1.7503  0.9416 -1.0004
  371MOL0     H51193   7.164   2.450   1.801 -3.0121  2.5393 -0.0548
  371MOL0     H51194   6.816   2.485   1.556  0.7240 -0.7134 -0.7535
  371MOL0     H51195   7.276   1.842   1.984 -3.0492  4.3720 -1.1057
  371MOL0     H51196   7.270   1.555   2.144  0.5932  0.6234  0.3373
  371MOL0     H51197   7.217   1.718   2.172 -0.7353 -0.0982 -0.7701
  371MOL0     H51198   7.105   1.578   2.165 -0.5590 -0.3835  0.6569
  372MOL0     O51199   0.456  10.818   3.156  0.1613  0.4121  0.1525
  372MOL0     C51200   0.479  10.726   3.074  0.5349  0.3544 -0.1968
  372MOL0     O51201   0.593  10.725   2.984  0.1737 -0.6880  0.1521
  372MOL0     C51202   0.671  10.842   2.974 -0.0850 -0.0022  0.0725
  372MOL0     C51203   0.802  10.824   2.963 -0.7576  0.2185 -0.0905
  372MOL0     C51204   0.891  10.928   2.952 -0.5695 -0.3155  0.1712
  372MOL0     C51205   0.847  11.062   2.936 -0.3805  0.5376 -1.0042
  372MOL0     O51206   0.927  11.173   2.916 -0.9390  0.6221  0.0292
  372MOL0     C51207   1.043  11.177   3.009  0.3516  0.0007 -0.1170
  372MOL0     C51208   1.143  11.277   2.952 -0.6408 -0.1741  0.0376
  372MOL0     C51209   1.163  11.251   2.800  0.5753 -0.4725 -0.3209
  372MOL0     C51210   1.202  11.106   2.764  0.8650 -0.1387 -0.4336
  372MOL0     C51211   1.255  11.097   2.626 -0.1668  0.5669  0.7384
  372MOL0     C51212   1.325  10.963   2.606  0.0863 -0.2827  0.1858
  372MOL0     C51213   1.234  10.839   2.631  0.7737  0.0076  0.2454
  372MOL0     C51214   1.123  10.820   2.527  0.3203  0.0882 -0.0690
  372MOL0     N51215   1.017  10.731   2.576 -0.1423  0.3238 -0.2321
  372MOL0     C51216   0.889  10.721   2.515  0.4146  0.3635 -0.1046
  372MOL0     C51217   0.825  10.625   2.587 -0.5018  0.1920  0.2332
  372MOL0     C51218   0.677  10.584   2.571  0.4353  0.1011  0.7085
  372MOL0     C51219   0.668  10.439   2.520 -0.8329 -0.3696  0.4137
  372MOL0     C51220   0.639  10.339   2.631  0.6268  0.5157 -0.5975
  372MOL0     C51221   0.742  10.325   2.749  0.2543 -0.3290  0.2209
  372MOL0     O51222   0.700  10.225   2.848 -0.2871  0.2969  0.3668
  372MOL0     C51223   0.746  10.227   2.974  0.6016  0.6383  0.1815
  372MOL0     C51224   0.682  10.135   3.059 -0.3089  0.5515  0.1269
  372MOL0     C51225   0.720  10.107   3.192  0.5451 -0.2120 -0.1460
  372MOL0     C51226   0.636  10.003   3.265 -0.1355 -0.1528  0.3397
  372MOL0     C51227   0.833  10.180   3.242  0.2325  0.8059 -0.0097
  372MOL0     C51228   0.890  10.143   3.376  0.0348 -0.4098 -0.5644
  372MOL0     O51229   0.979  10.232   3.420 -0.2137 -0.0307 -0.3732
  372MOL0     C51230   1.010  10.248   3.553 -0.1330 -0.3077 -0.1298
  372MOL0     C51231   1.130  10.312   3.572  0.0546 -0.4107  0.2526
  372MOL0     C51232   1.167  10.365   3.696  0.1440  0.5248  0.5019
  372MOL0     C51233   1.088  10.335   3.807 -0.5097 -0.9819  1.1212
  372MOL0     O51234   1.129  10.376   3.930 -0.3314 -0.2168 -0.6083
  372MOL0     C51235   1.078  10.508   3.969 -0.8777  0.2917 -0.8360
  372MOL0     C51236   1.056  10.518   4.127  1.0354 -0.5725  0.0445
  372MOL0     C51237   0.995  10.656   4.159 -0.4223  0.0574  0.0490
  372MOL0     C51238   0.969  10.676   4.306 -0.9213 -0.5676  0.0946
  372MOL0     C51239   0.928  10.820   4.331  0.6236  0.1633 -0.2051
  372MOL0     C51240   1.038  10.915   4.386  0.2736  0.3546 -0.1556
  372MOL0     C51241   0.974  11.047   4.414 -0.0016  0.2358  0.6343
  372MOL0     C51242   0.912  11.053   4.554  1.0218 -1.1325 -0.0116
  372MOL0    Cl51243   0.760  10.977   4.563 -0.1109 -0.1332 -0.1470
  372MOL0     C51244   0.971  10.266   3.792 -0.6260 -0.1328  0.8933
  372MOL0     C51245   0.927  10.220   3.662 -1.0617 -0.9226  0.3747
  372MOL0     O51246   0.872  10.035   3.428  0.3653 -0.5610  0.4038
  372MOL0     C51247   0.884  10.290   3.170 -0.0864 -0.2521  0.6491
  372MOL0     C51248   0.847  10.312   3.032 -0.7341  0.3375 -1.1548
  372MOL0     N51249   0.908  10.583   2.689  0.9821 -0.2134  0.1407
  372MOL0     N51250   1.020  10.647   2.684  0.6422  0.8382 -0.0873
  372MOL0     C51251   0.701  11.081   2.945 -0.3150  0.0650  0.1022
  372MOL0     C51252   0.616  10.973   2.951 -0.5074  0.3421 -0.2543
  372MOL0     C51253   0.397  10.601   3.075  0.5097  1.1766  0.0512
  372MOL0     C51254   0.443  10.471   3.028 -0.7320  0.4246  0.3690
  372MOL0     C51255   0.364  10.353   3.024  0.2559 -0.7313 -0.2471
  372MOL0     C51256   0.236  10.357   3.069  0.2902  0.0295  0.2341
  372MOL0     O51257   0.150  10.247   3.081 -0.6799  0.0625 -0.9199
  372MOL0     C51258   0.077  10.227   3.204 -0.0280 -0.4046 -0.9564
  372MOL0     C51259   0.096  10.078   3.255  0.1969 -0.2448  0.9855
  372MOL0     C51260   0.250  10.043   3.254  0.6209  0.1411 -0.2224
  372MOL0     C51261   0.254   9.894   3.300 -0.1739  0.3717  0.2746
  372MOL0     C51262   0.242   9.871   3.440 -0.3241  0.8953 -0.0094
  372MOL0     C51263   0.223   9.853   3.561  0.2543 -0.4571  0.2856
  372MOL0     C51264   0.185  10.483   3.110  0.4012  0.3677 -0.6072
  372MOL0     C51265   0.256  10.597   3.126 -0.1898 -0.5387  0.3912
  372MOL0     C51266   0.184  10.712   3.182  0.1132 -0.2005  0.2401
  372MOL0     H51267   0.832  10.720   2.956  1.1595  0.8478 -2.4740
  372MOL0     H51268   0.997  10.907   2.935 -0.7423  1.3120 -4.5518
  372MOL0     H51269   1.100  11.084   3.015  0.1281 -0.1376 -0.1136
  372MOL0     H51270   1.017  11.214   3.108  1.6301  2.6363 -0.6880
  372MOL0     H51271   1.132  11.384   2.972  0.0812  0.1001 -0.9298
  372MOL0     H51272   1.235  11.248   3.004 -1.0072  0.1879  0.9024
  372MOL0     H51273   1.075  11.283   2.743 -1.1476 -1.9319  1.3739
  372MOL0     H51274   1.245  11.319   2.776 -0.4261  1.7276  2.0432
  372MOL0     H51275   1.284  11.076   2.831 -0.1761  2.3139  2.1445
  372MOL0     H51276   1.119  11.037   2.780 -0.6079  1.9730  1.6328
  372MOL0     H51277   1.334  11.171   2.608  1.6144 -1.2085  0.8886
  372MOL0     H51278   1.171  11.108   2.558 -1.1466 -0.6880  1.7016
  372MOL0     H51279   1.360  10.965   2.502  0.4108  1.7922  0.2919
  372MOL0     H51280   1.413  10.968   2.670  0.6939  0.4329 -0.6757
  372MOL0     H51281   1.184  10.849   2.728  0.1122  0.2620 -0.1118
  372MOL0     H51282   1.300  10.753   2.634  0.5952 -0.2559 -1.8945
  372MOL0     H51283   1.072  10.917   2.522  1.2776  0.5749 -0.6556
  372MOL0     H51284   1.143  10.796   2.422 -1.0698 -2.1857  0.1173
  372MOL0     H51285   0.857  10.758   2.418 -0.2198 -0.3879 -0.1965
  372MOL0     H51286   0.623  10.635   2.490 -2.0426 -1.9567  0.9387
  372MOL0     H51287   0.607  10.604   2.653 -0.2533  4.0677 -0.6064
  372MOL0     H51288   0.600  10.429   2.435 -1.0952 -3.1041  0.8492
  372MOL0     H51289   0.767  10.417   2.479 -0.3014  1.5575  0.5723
  372MOL0     H51290   0.539  10.345   2.673  0.8163 -0.6840  0.0885
  372MOL0     H51291   0.644  10.243   2.577  1.5736  1.4728 -2.3006
  372MOL0     H51292   0.837  10.306   2.698 -0.8109 -1.9411 -1.2735
  372MOL0     H51293   0.755  10.423   2.797 -0.9607 -0.6593  1.2783
  372MOL0     H51294   0.606  10.068   3.019 -1.8486  3.3402 -2.0432
  372MOL0     H51295   0.545   9.972   3.213 -0.9027  1.3102  0.7389
  372MOL0     H51296   0.611  10.025   3.370  4.8112 -1.3613  2.0442
  372MOL0     H51297   0.697   9.914   3.278 -0.1283 -0.4172 -1.3317
  372MOL0     H51298   1.187  10.344   3.486 -0.5480  3.0705  0.9788
  372MOL0     H51299   1.255  10.427   3.707  0.0301  0.4051  2.5509
  372MOL0     H51300   1.132  10.594   3.930 -1.1673  0.9098  0.0867
  372MOL0     H51301   0.974  10.512   3.936 -1.7102 -0.8134  1.4135
  372MOL0     H51302   0.971  10.454   4.154 -2.1496  3.1616 -0.1364
  372MOL0     H51303   1.146  10.515   4.189  0.1589  1.6101  1.5320
  372MOL0     H51304   0.901  10.680   4.108 -0.4397 -1.8628 -0.8955
  372MOL0     H51305   1.065  10.732   4.124  0.0963 -0.4415 -0.0141
  372MOL0     H51306   1.058  10.664   4.369 -0.5708 -0.1075 -0.2987
  372MOL0     H51307   0.896  10.604   4.343 -0.3341 -0.8278  0.7661
  372MOL0     H51308   0.876  10.867   4.247 -1.6651  0.0896  1.0986
  372MOL0     H51309   0.843  10.811   4.399  1.0529 -0.8452  0.2119
  372MOL0     H51310   1.124  10.922   4.319 -0.1392  2.1992 -0.5513
  372MOL0     H51311   1.077  10.879   4.482 -1.5988  0.9244  0.8776
  372MOL0     H51312   0.897  11.082   4.345 -0.0793  2.4125  1.7355
  372MOL0     H51313   1.051  11.124   4.402 -1.6900  1.6465 -2.0243
  372MOL0     H51314   0.917  11.158   4.586  1.3138 -1.4649  1.0645
  372MOL0     H51315   0.978  11.024   4.636 -0.1777 -0.4325  1.2432
  372MOL0     H51316   0.911  10.242   3.879 -2.5369  0.0643 -0.3206
  372MOL0     H51317   0.830  10.171   3.652 -1.7995  0.7805 -1.5780
  372MOL0     H51318   0.949  10.360   3.222 -1.1486 -0.6380  2.5873
  372MOL0     H51319   0.901  10.383   2.971  0.2344 -0.1872 -0.9193
  372MOL0     H51320   0.667  11.179   2.912  5.3494  1.1855 -3.9323
  372MOL0     H51321   0.509  10.989   2.942 -0.4201  0.6272 -0.8632
  372MOL0     H51322   0.547  10.469   2.997 -0.5716 -0.9257  0.9483
  372MOL0     H51323   0.417  10.261   2.999  1.3914  0.3438 -2.0938
  372MOL0     H51324   0.116  10.287   3.287  0.9732 -2.1229 -0.1018
  372MOL0     H51325  -0.030  10.246   3.196  0.3262  1.7093 -1.2246
  372MOL0     H51326   0.038  10.025   3.179  3.0421 -1.9132 -0.1933
  372MOL0     H51327   0.049  10.065   3.352  2.5460  2.4045  2.6389
  372MOL0     H51328   0.297  10.046   3.156 -2.5114 -1.3745 -1.9210
  372MOL0     H51329   0.303  10.112   3.321  2.6232 -3.0252  1.7452
  372MOL0     H51330   0.351   9.855   3.271 -0.4140  0.5000 -0.7576
  372MOL0     H51331   0.171   9.838   3.257 -0.0237  0.9374 -0.7796
  372MOL0     H51332   0.205   9.847   3.666 -2.6552 -0.4750 -0.1388
  372MOL0     H51333   0.080  10.481   3.136 -0.3763 -0.7742 -3.3912
  372MOL0     H51334   0.100  10.683   3.246  1.0862 -0.4855  1.4252
  372MOL0     H51335   0.244  10.780   3.243 -1.1508  2.1763 -1.0641
  372MOL0     H51336   0.151  10.776   3.100  0.8298 -0.4223 -0.2392
  373MOL0     O51337   3.068   0.077   2.803 -0.0865  0.0450  1.0416
  373MOL0     C51338   3.045   0.139   2.695  0.4696 -0.2100 -0.3272
  373MOL0     O51339   3.026   0.274   2.690  0.3447  0.8388  1.3705
  373MOL0     C51340   3.070   0.363   2.784 -1.2506 -0.6832  0.9745
  373MOL0     C51341   3.193   0.344   2.850  0.0832 -0.7017  0.1308
  373MOL0     C51342   3.226   0.431   2.951  0.4288 -0.6077 -0.4334
  373MOL0     C51343   3.136   0.534   2.989 -0.6635 -0.4340  0.3454
  373MOL0     O51344   3.173   0.625   3.088  0.0646  0.2551 -0.7018
  373MOL0     C51345   3.311   0.635   3.106 -0.4353  0.0808  0.4698
  373MOL0     C51346   3.359   0.743   3.204  0.5773  0.4001  0.0148
  373MOL0     C51347   3.403   0.875   3.150 -0.1519  0.3567  0.4712
  373MOL0     C51348   3.451   0.969   3.263  0.9801 -0.1506  0.4514
  373MOL0     C51349   3.582   0.914   3.324 -0.2679 -0.4753  0.1592
  373MOL0     C51350   3.695   0.876   3.233  0.4213 -0.1286 -0.9504
  373MOL0     C51351   3.835   0.867   3.303 -0.2019 -0.4447 -0.0415
  373MOL0     C51352   3.847   0.758   3.403  0.5445 -0.1538 -0.2210
  373MOL0     N51353   3.836   0.631   3.335 -0.5680  0.2897  0.5343
  373MOL0     C51354   3.934   0.588   3.256  0.5837 -0.5853  0.9493
  373MOL0     C51355   3.890   0.465   3.217  0.5167  0.8613 -0.1251
  373MOL0     C51356   3.959   0.369   3.117 -0.5803  0.2518  0.0491
  373MOL0     C51357   4.108   0.325   3.146  0.5227 -0.0412 -0.5488
  373MOL0     C51358   4.154   0.217   3.056 -0.5797 -0.4535 -0.2470
  373MOL0     C51359   4.203   0.249   2.915 -0.2513 -0.2223 -0.9053
  373MOL0     O51360   4.346   0.278   2.917  0.2870 -0.1862  0.0223
  373MOL0     C51361   4.407   0.285   2.798 -0.8057 -0.0991 -0.4381
  373MOL0     C51362   4.496   0.178   2.776  0.9002 -1.0949  0.1150
  373MOL0     C51363   4.567   0.165   2.660 -0.3663 -1.0220  0.2998
  373MOL0     C51364   4.647   0.040   2.652 -0.8111  0.5338 -0.5238
  373MOL0     C51365   4.553   0.261   2.552 -0.8116 -0.1301  0.3964
  373MOL0     C51366   4.644   0.273   2.435  0.3579 -0.4272  0.0958
  373MOL0     O51367   4.612   0.370   2.352 -0.2478  1.0461  0.1509
  373MOL0     C51368   4.681   0.393   2.229  0.2431  0.0891 -0.3984
  373MOL0     C51369   4.680   0.307   2.124 -0.6566  0.8588 -0.4698
  373MOL0     C51370   4.752   0.331   2.008  0.2796 -0.1895 -0.6309
  373MOL0     C51371   4.830   0.449   1.995 -0.2120  1.0651  0.2349
  373MOL0     O51372   4.885   0.494   1.879 -0.1531 -0.7589  0.4179
  373MOL0     C51373   4.931   0.405   1.778  0.0700  0.8877 -0.1668
  373MOL0     C51374   5.011   0.481   1.676  0.6646 -0.3274  0.2267
  373MOL0     C51375   5.083   0.381   1.577 -0.2471 -0.3250 -0.2726
  373MOL0     C51376   5.132   0.446   1.447 -0.1074 -0.8667 -0.1349
  373MOL0     C51377   5.206   0.583   1.450 -0.1416 -0.3863 -1.2447
  373MOL0     C51378   5.259   0.628   1.313 -0.4609 -0.7727 -0.1572
  373MOL0     C51379   5.387   0.539   1.276  0.4396  0.4934  0.6808
  373MOL0     C51380   5.407   0.514   1.123  0.2994  0.0693 -1.0095
  373MOL0    Cl51381   5.421   0.662   1.021  0.7755 -0.0960 -0.1735
  373MOL0     C51382   4.841   0.524   2.112 -0.3085 -0.6069 -0.1890
  373MOL0     C51383   4.771   0.496   2.223 -0.0558 -0.5874 -0.4905
  373MOL0     O51384   4.733   0.191   2.419  0.0001  0.1069  0.0597
  373MOL0     C51385   4.464   0.368   2.578  0.2875  0.2901 -0.7708
  373MOL0     C51386   4.398   0.383   2.705  0.5205 -0.3535  0.7535
  373MOL0     N51387   3.766   0.445   3.278 -0.1779 -0.3077 -0.0491
  373MOL0     N51388   3.733   0.548   3.350  0.1442 -0.6291 -0.1032
  373MOL0     C51389   3.021   0.552   2.920  0.4772 -0.2422  0.4598
  373MOL0     C51390   2.984   0.460   2.822  0.1301 -0.5716  0.6622
  373MOL0     C51391   3.063   0.066   2.558 -0.0953  0.0731  0.4804
  373MOL0     C51392   3.090   0.146   2.440  0.3864  0.4247 -0.3270
  373MOL0     C51393   3.095   0.081   2.312 -0.5576  0.5550  1.0400
  373MOL0     C51394   3.084  -0.056   2.303 -0.0264  0.2899 -0.0226
  373MOL0     O51395   3.090  -0.127   2.190 -0.3662  0.5075 -0.1939
  373MOL0     C51396   3.126  -0.064   2.062  0.4995  0.7898 -0.1133
  373MOL0     C51397   3.192  -0.177   1.976  0.2112  0.3184 -0.1053
  373MOL0     C51398   3.303  -0.238   2.055 -0.7027 -0.6587  0.4103
  373MOL0     C51399   3.404  -0.307   1.963  0.4663  0.7852 -0.8215
  373MOL0     C51400   3.350  -0.394   1.857 -0.6209 -0.6208 -0.0186
  373MOL0     C51401   3.311  -0.488   1.792  0.5690 -0.4044 -0.6847
  373MOL0     C51402   3.049  -0.128   2.418 -0.3880  0.6308 -0.8199
  373MOL0     C51403   3.041  -0.072   2.546  0.4328 -0.3456 -0.3505
  373MOL0     C51404   2.996  -0.160   2.657  0.3862  0.1640 -0.6188
  373MOL0     H51405   3.261   0.261   2.832  3.3611  1.4240  1.5748
  373MOL0     H51406   3.328   0.430   2.988  0.2473  2.4476  0.4266
  373MOL0     H51407   3.358   0.650   3.008 -0.1478 -0.6843  0.4831
  373MOL0     H51408   3.341   0.541   3.154  0.3618 -0.3885 -0.8673
  373MOL0     H51409   3.270   0.769   3.261  1.1780 -0.6222  1.4935
  373MOL0     H51410   3.422   0.684   3.271  0.6364  0.6487  0.1758
  373MOL0     H51411   3.480   0.872   3.072  0.8581  0.6918  1.4363
  373MOL0     H51412   3.315   0.920   3.103 -0.6379 -0.2192  0.8165
  373MOL0     H51413   3.479   1.069   3.232  0.8085 -0.1111  0.4257
  373MOL0     H51414   3.378   0.981   3.344  2.3651 -1.1317  1.9219
  373MOL0     H51415   3.552   0.836   3.394 -0.1837 -1.3061 -0.7215
  373MOL0     H51416   3.632   0.991   3.385  2.6723 -2.9206  1.0817
  373MOL0     H51417   3.675   0.772   3.205  0.4974 -0.8782  1.5274
  373MOL0     H51418   3.688   0.931   3.139 -1.2491 -0.9534 -1.3316
  373MOL0     H51419   3.862   0.961   3.352  3.1058 -0.0109 -2.2924
  373MOL0     H51420   3.918   0.866   3.232 -0.1157  1.3484 -0.0140
  373MOL0     H51421   3.935   0.757   3.468 -1.1917  0.3168  2.2975
  373MOL0     H51422   3.767   0.768   3.478  1.3596 -1.1152  0.7997
  373MOL0     H51423   4.024   0.644   3.233 -0.3837  0.1718 -1.2751
  373MOL0     H51424   3.935   0.406   3.017 -1.5760  0.7948  0.4660
  373MOL0     H51425   3.908   0.272   3.123 -2.0665  0.8715 -1.6334
  373MOL0     H51426   4.175   0.411   3.142 -0.4939  0.9132  1.4542
  373MOL0     H51427   4.103   0.281   3.246 -1.4009  1.3399  0.0271
  373MOL0     H51428   4.237   0.164   3.105 -1.1536 -0.8701  0.2874
  373MOL0     H51429   4.065   0.154   3.050 -1.3026  0.7091 -3.2724
  373MOL0     H51430   4.182   0.161   2.854 -2.6923 -1.7598  1.9115
  373MOL0     H51431   4.149   0.339   2.882 -0.9065  0.4525  1.7328
  373MOL0     H51432   4.502   0.106   2.857 -0.0326  2.6711  3.8454
  373MOL0     H51433   4.645  -0.014   2.747 -0.9916  0.2779 -0.6741
  373MOL0     H51434   4.753   0.055   2.628 -0.8776  3.2523  0.5346
  373MOL0     H51435   4.597  -0.035   2.590 -1.3624 -1.1852  1.8677
  373MOL0     H51436   4.609   0.225   2.132 -0.5833  0.5493 -2.3699
  373MOL0     H51437   4.742   0.260   1.927 -3.8470  1.1728 -1.5289
  373MOL0     H51438   4.996   0.333   1.829  0.2380  1.5880  0.6442
  373MOL0     H51439   4.842   0.365   1.730  1.1309 -0.8572 -0.7717
  373MOL0     H51440   4.946   0.546   1.615 -0.5970  1.3660  3.1376
  373MOL0     H51441   5.087   0.538   1.729  1.2289 -0.4021 -0.4892
  373MOL0     H51442   5.011   0.303   1.551  0.2050 -0.1860 -2.0114
  373MOL0     H51443   5.167   0.330   1.624 -1.1977 -2.2149 -0.5533
  373MOL0     H51444   5.044   0.463   1.384 -1.3650 -0.4713  1.6538
  373MOL0     H51445   5.189   0.370   1.393  0.7198 -0.1994 -0.2109
  373MOL0     H51446   5.133   0.659   1.475 -0.5403 -0.4540 -2.1679
  373MOL0     H51447   5.293   0.583   1.517  0.3381  1.1222 -1.8280
  373MOL0     H51448   5.298   0.729   1.299  0.8567 -1.3118 -0.5777
  373MOL0     H51449   5.185   0.603   1.237 -0.0273  0.0240 -0.8576
  373MOL0     H51450   5.371   0.447   1.333 -3.2810 -0.6534 -1.8027
  373MOL0     H51451   5.477   0.586   1.316 -0.1303 -1.5667  5.0075
  373MOL0     H51452   5.308   0.473   1.101  0.0233 -0.4214  0.9177
  373MOL0     H51453   5.477   0.432   1.103 -1.6040 -2.0627  0.5673
  373MOL0     H51454   4.910   0.609   2.114 -2.2592  1.0686 -0.7575
  373MOL0     H51455   4.771   0.576   2.297  2.9690 -1.3886  0.5304
  373MOL0     H51456   4.438   0.443   2.504  0.4501  0.6146 -0.5072
  373MOL0     H51457   4.336   0.472   2.717  0.7034 -0.2591  1.0091
  373MOL0     H51458   2.953   0.631   2.950  0.9365  0.5021 -0.3899
  373MOL0     H51459   2.886   0.476   2.779  0.1970 -1.6039  0.0918
  373MOL0     H51460   3.091   0.254   2.451 -2.2977  0.5275 -0.3457
  373MOL0     H51461   3.111   0.145   2.225 -1.6531  0.2321  0.5882
  373MOL0     H51462   3.036  -0.035   2.007  0.5303 -0.0229 -0.6199
  373MOL0     H51463   3.181   0.030   2.071  0.5114  0.8346 -0.6101
  373MOL0     H51464   3.229  -0.131   1.883  0.4585  1.8374  0.7145
  373MOL0     H51465   3.129  -0.264   1.959  1.0973 -0.2053 -0.7638
  373MOL0     H51466   3.349  -0.155   2.109 -2.5978 -0.2098  1.4056
  373MOL0     H51467   3.279  -0.298   2.143 -0.7352  0.3525  1.1112
  373MOL0     H51468   3.469  -0.354   2.037  1.5470  1.9186 -1.0195
  373MOL0     H51469   3.465  -0.232   1.912 -1.0914  0.0309 -4.0616
  373MOL0     H51470   3.288  -0.582   1.747  2.5599 -1.2149 -0.1322
  373MOL0     H51471   3.053  -0.236   2.407 -2.4600  0.2738  1.1028
  373MOL0     H51472   2.973  -0.263   2.631  2.6138 -0.7420  0.7106
  373MOL0     H51473   3.076  -0.162   2.732  0.7043  2.5481 -0.8159
  373MOL0     H51474   2.903  -0.127   2.703 -1.2955 -1.0402 -2.9830
  374MOL0     O51475   9.719  11.290   1.378 -0.4209  0.2467  0.6211
  374MOL0     C51476   9.721  11.251   1.497  0.3985 -0.2838 -0.5154
  374MOL0     O51477   9.675  11.329   1.603 -0.3555  0.3257  0.3353
  374MOL0     C51478   9.632  11.451   1.564 -0.3165 -0.0251 -0.4850
  374MOL0     C51479   9.505  11.491   1.591  0.5347 -0.8286 -0.2939
  374MOL0     C51480   9.463  11.626   1.562 -0.5631 -0.0044 -0.8112
  374MOL0     C51481   9.547  11.714   1.495 -0.7824  0.3301  0.7429
  374MOL0     O51482   9.505  11.838   1.459  0.9077 -0.4692 -0.1515
  374MOL0     C51483   9.585  11.929   1.385 -0.4925  0.1490 -0.7828
  374MOL0     C51484   9.517  12.063   1.360 -0.1567  0.5379  1.1889
  374MOL0     C51485   9.621  12.157   1.298  0.5257 -0.8442  0.0691
  374MOL0     C51486   9.568  12.298   1.274 -0.7290  0.0316  0.6934
  374MOL0     C51487   9.678  12.399   1.226 -0.1064  0.2700  0.5779
  374MOL0     C51488   9.617  12.535   1.181 -0.0754  0.0985 -0.5162
  374MOL0     C51489   9.720  12.651   1.195  0.1102  0.3342 -0.5216
  374MOL0     C51490   9.702  12.712   1.337  0.2730  0.4350 -0.3211
  374MOL0     N51491   9.578  12.794   1.344  0.6102 -0.5949 -0.7428
  374MOL0     C51492   9.552  12.919   1.286  0.5567  1.2462 -0.1366
  374MOL0     C51493   9.420  12.938   1.320 -0.4031  0.5848 -0.0077
  374MOL0     C51494   9.331  13.053   1.301 -0.1124  0.2455 -0.0632
  374MOL0     C51495   9.244  13.032   1.176 -0.2845 -0.8388  0.3303
  374MOL0     C51496   9.307  13.025   1.039 -0.1992 -0.0303 -0.2924
  374MOL0     C51497   9.355  13.171   0.989 -0.1597  0.3913 -0.3575
  374MOL0     O51498   9.240  13.253   0.963  0.2225  0.2831  0.1063
  374MOL0     C51499   9.272  13.383   0.961 -0.6978  1.0392  0.2934
  374MOL0     C51500   9.243  13.464   1.070 -0.0166  0.2912  0.2713
  374MOL0     C51501   9.274  13.600   1.060 -0.0486 -0.2945 -0.4931
  374MOL0     C51502   9.242  13.679   1.175  0.4186  0.1128 -0.1511
  374MOL0     C51503   9.338  13.656   0.940  0.1025  0.5228 -0.6403
  374MOL0     C51504   9.376  13.804   0.943  0.0814 -0.2155  0.1373
  374MOL0     O51505   9.288  13.898   0.992 -0.1575  0.9755  0.5593
  374MOL0     C51506   9.328  14.027   1.021  0.5265  0.2731 -0.7196
  374MOL0     C51507   9.462  14.071   1.054  0.2491  0.0826  0.0395
  374MOL0     C51508   9.485  14.198   1.097 -0.3375 -0.1050  0.7821
  374MOL0     C51509   9.382  14.294   1.116 -0.1507 -0.0114  1.0317
  374MOL0     O51510   9.391  14.412   1.174 -0.2990 -0.1632  0.0402
  374MOL0     C51511   9.504  14.505   1.142  0.6749 -0.2766 -0.3244
  374MOL0     C51512   9.516  14.598   1.247  1.1716  0.2654  1.0088
  374MOL0     C51513   9.575  14.536   1.380  0.4775  0.2708  0.3331
  374MOL0     C51514   9.472  14.457   1.454  0.7593 -0.7580 -0.2496
  374MOL0     C51515   9.518  14.435   1.599 -0.8450  0.4195  0.5295
  374MOL0     C51516   9.642  14.360   1.618 -0.7702  0.0853 -0.0370
  374MOL0     C51517   9.627  14.210   1.611  0.5880 -0.4569  0.7756
  374MOL0     C51518   9.759  14.136   1.613 -0.0780  1.3901  0.6637
  374MOL0    Cl51519   9.843  14.178   1.776 -0.1276  0.0734  0.2016
  374MOL0     C51520   9.254  14.254   1.080  0.4675 -0.1722  0.4886
  374MOL0     C51521   9.228  14.116   1.055  0.3754  0.1843 -0.6121
  374MOL0     O51522   9.485  13.828   0.898  0.1279  0.0734  0.2596
  374MOL0     C51523   9.370  13.574   0.832  0.9719 -0.5002 -0.1738
  374MOL0     C51524   9.333  13.438   0.843  0.7520 -0.9331  0.6911
  374MOL0     N51525   9.382  12.839   1.410  0.6038 -0.1641  0.3927
  374MOL0     N51526   9.474  12.747   1.418 -0.2465  0.0299 -0.3338
  374MOL0     C51527   9.673  11.667   1.463 -0.6417 -0.4013 -0.0404
  374MOL0     C51528   9.716  11.538   1.497  0.0152 -0.5959 -0.0650
  374MOL0     C51529   9.778  11.116   1.523 -0.3644 -0.6485 -0.2090
  374MOL0     C51530   9.716  11.004   1.468  0.0459 -1.0112 -1.0314
  374MOL0     C51531   9.725  10.881   1.528 -0.2912  0.4368 -0.6444
  374MOL0     C51532   9.817  10.870   1.634 -0.1775  0.0410 -0.2947
  374MOL0     O51533   9.836  10.745   1.689 -0.1300  0.2365 -0.3458
  374MOL0     C51534   9.932  10.670   1.625 -1.2390 -0.0671  0.4496
  374MOL0     C51535   9.990  10.562   1.717 -0.4281 -0.8101  0.6457
  374MOL0     C51536  10.073  10.624   1.825  0.6398 -0.4256  0.8740
  374MOL0     C51537  10.164  10.518   1.893  0.9362 -0.0048 -0.5497
  374MOL0     C51538  10.248  10.572   2.002 -0.5254 -0.2905 -0.1409
  374MOL0     C51539  10.322  10.608   2.087  0.2053 -0.6311 -0.6803
  374MOL0     C51540   9.882  10.980   1.690  0.0001  0.3562  0.3622
  374MOL0     C51541   9.866  11.107   1.634  0.0019 -0.4440  0.1611
  374MOL0     C51542   9.967  11.215   1.675  0.4789  0.0941 -0.8016
  374MOL0     H51543   9.441  11.423   1.646 -1.1515  0.9422  0.0063
  374MOL0     H51544   9.364  11.657   1.595 -1.4521 -1.7668 -1.6717
  374MOL0     H51545   9.604  11.885   1.287  0.6889 -0.2636 -0.3844
  374MOL0     H51546   9.678  11.945   1.440 -1.4429 -2.1861  1.6898
  374MOL0     H51547   9.428  12.061   1.296  0.8909  0.3466 -0.2980
  374MOL0     H51548   9.486  12.098   1.460  1.3435 -0.2172  1.9539
  374MOL0     H51549   9.705  12.158   1.367  0.1281  1.6839  0.6447
  374MOL0     H51550   9.659  12.112   1.206  0.8463 -1.2796  0.4175
  374MOL0     H51551   9.480  12.295   1.208 -3.0585 -1.0685  3.5904
  374MOL0     H51552   9.525  12.332   1.369  0.2568  0.8221  0.8676
  374MOL0     H51553   9.733  12.350   1.145  1.4729 -0.8407  2.2527
  374MOL0     H51554   9.746  12.414   1.310 -1.9651 -0.4320  2.2577
  374MOL0     H51555   9.586  12.529   1.076 -0.5043 -3.6897 -0.3019
  374MOL0     H51556   9.526  12.565   1.233 -0.1888  0.6588 -1.0240
  374MOL0     H51557   9.711  12.724   1.114  2.2898  1.6766  0.3544
  374MOL0     H51558   9.820  12.606   1.192 -0.2496 -0.6130  0.8757
  374MOL0     H51559   9.702  12.643   1.422  0.5568  0.8094 -0.0174
  374MOL0     H51560   9.791  12.776   1.347  0.5639 -0.0545  0.2836
  374MOL0     H51561   9.606  12.992   1.227 -3.1476  0.5194 -5.1681
  374MOL0     H51562   9.396  13.140   1.289 -0.9420  0.6215 -2.1844
  374MOL0     H51563   9.266  13.066   1.388 -1.4779 -0.9073 -0.8587
  374MOL0     H51564   9.177  12.950   1.203  0.1166 -0.7560  1.6638
  374MOL0     H51565   9.185  13.124   1.168  1.4968  0.2917 -0.7115
  374MOL0     H51566   9.391  12.957   1.049 -0.3325  0.0810  2.1546
  374MOL0     H51567   9.229  12.992   0.969 -0.9843  0.7115  0.1980
  374MOL0     H51568   9.415  13.203   1.074  2.8341 -0.5464 -1.9615
  374MOL0     H51569   9.415  13.166   0.898 -0.0813  0.5275 -0.3132
  374MOL0     H51570   9.205  13.421   1.162 -0.1790 -1.0303 -0.3999
  374MOL0     H51571   9.331  13.711   1.231 -1.3411  2.7910  1.3720
  374MOL0     H51572   9.170  13.629   1.241 -0.9442  1.9779 -0.1449
  374MOL0     H51573   9.193  13.772   1.146  0.7252  1.1302  2.3343
  374MOL0     H51574   9.542  13.999   1.038 -0.3113 -0.5181 -0.1117
  374MOL0     H51575   9.585  14.220   1.131 -0.3277  2.5001 -0.6550
  374MOL0     H51576   9.597  14.448   1.132  0.6521 -0.4950  0.5885
  374MOL0     H51577   9.495  14.559   1.048 -1.4256  1.9189  1.0484
  374MOL0     H51578   9.578  14.680   1.210 -0.7608  0.9600 -0.8618
  374MOL0     H51579   9.424  14.655   1.259  0.6076 -0.3030 -0.4398
  374MOL0     H51580   9.607  14.621   1.441  0.2572  0.4428  0.2081
  374MOL0     H51581   9.667  14.478   1.364 -0.3858 -0.5657 -1.8552
  374MOL0     H51582   9.458  14.359   1.407  1.3028 -0.2775 -1.4566
  374MOL0     H51583   9.379  14.514   1.452 -0.0779 -2.1064 -0.5880
  374MOL0     H51584   9.523  14.526   1.658  1.5996  1.2560 -0.8151
  374MOL0     H51585   9.434  14.383   1.646  0.0500 -1.1485  0.4618
  374MOL0     H51586   9.657  14.368   1.726  2.3692  2.3837 -0.4799
  374MOL0     H51587   9.731  14.379   1.557 -0.0978 -5.2455 -1.2808
  374MOL0     H51588   9.576  14.186   1.517  1.7718 -0.8112  0.2052
  374MOL0     H51589   9.558  14.177   1.688  1.4528 -2.3996  0.7819
  374MOL0     H51590   9.824  14.169   1.530 -1.1549 -1.2567 -1.3595
  374MOL0     H51591   9.739  14.033   1.584 -1.0637  1.0665  2.4185
  374MOL0     H51592   9.185  14.337   1.088  0.1009 -0.2159 -1.6019
  374MOL0     H51593   9.129  14.076   1.034  1.6534 -4.4095  0.8521
  374MOL0     H51594   9.417  13.618   0.745 -0.6110  0.7450 -0.4567
  374MOL0     H51595   9.330  13.376   0.754  0.0098 -2.8017  1.9779
  374MOL0     H51596   9.736  11.739   1.412 -1.2363  0.0463 -0.1545
  374MOL0     H51597   9.813  11.516   1.453  1.7936  5.2454  0.1026
  374MOL0     H51598   9.637  11.019   1.395 -0.5895  0.1221 -0.1328
  374MOL0     H51599   9.659  10.797   1.508 -1.0580  0.4606  1.5109
  374MOL0     H51600   9.897  10.628   1.531  0.9492  1.5794 -1.2201
  374MOL0     H51601  10.019  10.728   1.591  0.2794 -1.0964  2.3656
  374MOL0     H51602  10.061  10.503   1.658 -1.3164 -3.1850  1.8328
  374MOL0     H51603   9.916  10.490   1.753 -0.8937  0.0226  1.3963
  374MOL0     H51604  10.133  10.703   1.779 -1.1866 -0.3473 -1.5820
  374MOL0     H51605  10.007  10.675   1.896  2.0234 -1.0237  2.6639
  374MOL0     H51606  10.229  10.465   1.824  1.3406 -1.6919  1.0557
  374MOL0     H51607  10.108  10.436   1.938  3.6817 -1.0214  1.2436
  374MOL0     H51608  10.363  10.630   2.183 -3.1477 -3.3227  1.5678
  374MOL0     H51609   9.965  10.967   1.759  2.4489 -0.8731 -2.5934
  374MOL0     H51610  10.009  11.193   1.773  0.9617  0.1515 -0.9919
  374MOL0     H51611  10.055  11.220   1.610  0.8296 -1.7076 -0.5041
  374MOL0     H51612   9.921  11.315   1.677  1.3084  0.4656  0.5337
  375MOL0     O51613  11.374   7.061   1.344  0.4624  0.0381 -0.7014
  375MOL0     C51614  11.342   7.181   1.309 -0.5267  0.1556  0.0142
  375MOL0     O51615  11.414   7.281   1.253 -0.3407  0.3604 -1.0625
  375MOL0     C51616  11.549   7.267   1.243 -0.1828  0.4495  0.5207
  375MOL0     C51617  11.609   7.153   1.193  0.9238  1.0097 -0.1559
  375MOL0     C51618  11.744   7.136   1.205  0.1727 -0.3501  0.5564
  375MOL0     C51619  11.830   7.241   1.234 -0.0124  0.5982  0.1204
  375MOL0     O51620  11.967   7.218   1.226  0.1610 -0.0743 -0.1802
  375MOL0     C51621  12.054   7.334   1.242  0.4020 -0.2365  0.5298
  375MOL0     C51622  12.191   7.287   1.199 -0.1627  0.1083 -0.1315
  375MOL0     C51623  12.318   7.374   1.211 -0.1024  0.7301 -0.1544
  375MOL0     C51624  12.350   7.410   1.354 -0.8483  0.0857 -0.0673
  375MOL0     C51625  12.333   7.560   1.377  0.1758  1.1154  0.3711
  375MOL0     C51626  12.454   7.653   1.382  1.0325 -0.1810  0.3330
  375MOL0     C51627  12.536   7.680   1.256  0.2876 -0.7750 -0.5628
  375MOL0     C51628  12.685   7.708   1.268 -0.5706  0.7437 -0.2020
  375MOL0     N51629  12.768   7.592   1.300  0.0611  0.6678 -0.0068
  375MOL0     C51630  12.789   7.474   1.233 -0.5760  0.0809  0.5270
  375MOL0     C51631  12.867   7.394   1.317 -0.2422 -0.5169  0.2812
  375MOL0     C51632  12.899   7.250   1.295 -0.7260  0.4265 -0.6988
  375MOL0     C51633  12.811   7.135   1.356  0.4863  0.6034 -0.1708
  375MOL0     C51634  12.675   7.108   1.286  0.2594 -0.5122 -0.3424
  375MOL0     C51635  12.605   6.984   1.340 -0.2421  0.2067  0.3406
  375MOL0     O51636  12.693   6.869   1.308 -0.2442  0.0256  0.0470
  375MOL0     C51637  12.615   6.755   1.337  0.0446 -0.6341 -0.2295
  375MOL0     C51638  12.556   6.696   1.225 -0.5790  0.2381  0.6335
  375MOL0     C51639  12.475   6.577   1.236  0.5450 -0.3267 -0.0767
  375MOL0     C51640  12.410   6.533   1.103 -0.5137 -0.3021 -0.6998
  375MOL0     C51641  12.444   6.522   1.363 -0.2505  0.1122 -0.1004
  375MOL0     C51642  12.358   6.405   1.394 -0.5062  0.1505 -0.7788
  375MOL0     O51643  12.339   6.317   1.292 -0.1392  0.3154 -1.0696
  375MOL0     C51644  12.247   6.218   1.302 -0.7074 -0.0049  0.1898
  375MOL0     C51645  12.284   6.099   1.380  0.5609 -0.1694 -0.0791
  375MOL0     C51646  12.192   5.991   1.375  0.1680 -0.8009 -0.2496
  375MOL0     C51647  12.063   6.004   1.310 -1.1662  0.4215 -0.2975
  375MOL0     O51648  11.968   5.910   1.298 -0.5622 -0.8183  0.3653
  375MOL0     C51649  12.005   5.779   1.333 -0.9178  0.8534  0.4522
  375MOL0     C51650  11.897   5.678   1.317  0.1861 -0.5241  0.3587
  375MOL0     C51651  11.935   5.533   1.337 -0.7696 -0.5555  0.0184
  375MOL0     C51652  11.828   5.446   1.266 -0.0077  0.3709 -0.3897
  375MOL0     C51653  11.884   5.306   1.268 -0.0434 -0.1446 -0.0211
  375MOL0     C51654  11.898   5.243   1.133  0.1316  0.4505  0.6564
  375MOL0     C51655  11.998   5.312   1.035  1.0472  0.1797  0.4205
  375MOL0     C51656  12.028   5.208   0.926  0.1968 -0.2524 -0.4642
  375MOL0    Cl51657  12.125   5.061   0.986  0.0395 -0.0783 -0.0312
  375MOL0     C51658  12.034   6.123   1.254 -0.0037 -0.4053  1.1083
  375MOL0     C51659  12.122   6.229   1.247 -0.0017  0.0731  0.3531
  375MOL0     O51660  12.316   6.394   1.510 -0.3225 -0.7066  0.5678
  375MOL0     C51661  12.506   6.591   1.479  0.6026  0.2636  0.3416
  375MOL0     C51662  12.587   6.702   1.463  0.0240  0.3184 -1.0457
  375MOL0     N51663  12.896   7.463   1.431 -0.0733 -0.2709  0.5408
  375MOL0     N51664  12.835   7.576   1.420 -0.0895  0.1813  0.1307
  375MOL0     C51665  11.769   7.366   1.271  0.1456 -0.0540 -0.3255
  375MOL0     C51666  11.628   7.374   1.279 -0.1916 -0.2393 -0.1490
  375MOL0     C51667  11.194   7.207   1.303 -0.2757 -0.0662  1.2823
  375MOL0     C51668  11.140   7.316   1.235  0.2421 -0.2971 -0.2033
  375MOL0     C51669  10.999   7.337   1.227 -0.0154 -0.5638 -0.0071
  375MOL0     C51670  10.908   7.262   1.295  0.4242 -0.8845  0.5758
  375MOL0     O51671  10.779   7.299   1.276 -0.3034 -0.4910  0.0200
  375MOL0     C51672  10.673   7.195   1.291  0.0436 -0.0580 -0.1892
  375MOL0     C51673  10.530   7.231   1.248 -0.5702  0.1581 -0.1508
  375MOL0     C51674  10.506   7.246   1.101  0.0546  0.7180  0.1071
  375MOL0     C51675  10.502   7.116   1.019 -0.1765 -0.2620  0.3569
  375MOL0     C51676  10.384   7.030   1.054  0.2145  0.3943  1.1562
  375MOL0     C51677  10.290   6.967   1.093  0.6633 -0.8709  0.0324
  375MOL0     C51678  10.958   7.158   1.374  0.6182 -0.6547 -0.1061
  375MOL0     C51679  11.104   7.127   1.374  0.9004 -0.2934 -0.2068
  375MOL0     C51680  11.137   7.016   1.472 -0.2447  0.6661  1.0967
  375MOL0     H51681  11.549   7.072   1.154  2.6397 -1.0818  1.3247
  375MOL0     H51682  11.777   7.037   1.178  4.1031  1.4370 -2.1770
  375MOL0     H51683  12.058   7.384   1.339 -0.9403  4.0178 -1.3396
  375MOL0     H51684  12.027   7.404   1.163  3.3857 -0.9152 -1.2523
  375MOL0     H51685  12.216   7.196   1.254 -1.8094 -1.4330 -1.7510
  375MOL0     H51686  12.190   7.251   1.096  0.1265 -1.3261  0.3447
  375MOL0     H51687  12.402   7.321   1.164 -2.2923 -0.6750 -2.7591
  375MOL0     H51688  12.302   7.468   1.156 -2.0543  1.2921  1.2545
  375MOL0     H51689  12.294   7.353   1.429  1.3750 -1.7557  0.2880
  375MOL0     H51690  12.453   7.375   1.364 -1.7803 -3.0943 -0.4619
  375MOL0     H51691  12.296   7.575   1.478  0.2866  0.4324  0.5190
  375MOL0     H51692  12.267   7.597   1.298 -0.2278 -2.2908 -1.0664
  375MOL0     H51693  12.423   7.751   1.419  1.6890 -0.9178  3.0337
  375MOL0     H51694  12.512   7.623   1.470  0.7010  2.5065  1.5642
  375MOL0     H51695  12.501   7.768   1.202  1.8958  1.4406  1.7684
  375MOL0     H51696  12.530   7.594   1.189 -2.3472  0.7024 -2.4075
  375MOL0     H51697  12.712   7.745   1.169 -2.1916  0.7213 -0.6798
  375MOL0     H51698  12.715   7.770   1.353  0.0579 -3.5780  3.1143
  375MOL0     H51699  12.747   7.438   1.140 -0.0806  0.2717  0.2223
  375MOL0     H51700  12.989   7.230   1.354 -0.9992 -2.0225 -1.0189
  375MOL0     H51701  12.904   7.227   1.188 -0.6750 -2.5899 -0.1288
  375MOL0     H51702  12.869   7.042   1.346 -1.3302 -0.3765 -3.0348
  375MOL0     H51703  12.800   7.160   1.462 -1.0724 -1.1710  0.1425
  375MOL0     H51704  12.610   7.195   1.303 -0.4583 -1.3126  1.2610
  375MOL0     H51705  12.696   7.100   1.179 -1.7114  1.5201 -0.9518
  375MOL0     H51706  12.590   6.999   1.447  0.0940  1.5579  0.2051
  375MOL0     H51707  12.504   6.989   1.298 -0.9392  2.1522  2.1088
  375MOL0     H51708  12.573   6.746   1.130 -2.6833  0.5812  0.3934
  375MOL0     H51709  12.304   6.512   1.121 -0.6149  1.8877  1.8426
  375MOL0     H51710  12.463   6.446   1.063 -2.5118 -2.4522  1.0028
  375MOL0     H51711  12.422   6.609   1.026 -1.7010 -0.1669 -0.7610
  375MOL0     H51712  12.370   6.098   1.446  1.1578 -5.7412 -0.4378
  375MOL0     H51713  12.227   5.891   1.401  0.5240 -1.2211 -2.2021
  375MOL0     H51714  12.088   5.748   1.268 -0.3032  3.1718  0.0274
  375MOL0     H51715  12.043   5.764   1.434 -0.2448 -3.3493 -0.2670
  375MOL0     H51716  11.817   5.705   1.386  0.0483  0.6805 -0.2337
  375MOL0     H51717  11.870   5.699   1.213 -1.2911  1.2061  1.0383
  375MOL0     H51718  11.935   5.501   1.442  0.6587  3.4335  1.4096
  375MOL0     H51719  12.034   5.519   1.294 -0.9107  2.5254 -1.5166
  375MOL0     H51720  11.815   5.478   1.162  0.6319 -0.7146 -0.8187
  375MOL0     H51721  11.733   5.451   1.321  1.4695 -0.5075  2.4096
  375MOL0     H51722  11.980   5.297   1.321 -0.5383 -3.1564  0.5470
  375MOL0     H51723  11.812   5.244   1.323 -1.1105  2.8455  2.2102
  375MOL0     H51724  11.800   5.231   1.085  0.2199  1.5255  0.1776
  375MOL0     H51725  11.948   5.148   1.151  0.4412  0.5258  0.2351
  375MOL0     H51726  12.093   5.340   1.080  1.1640  2.2199 -0.9406
  375MOL0     H51727  11.961   5.403   0.986  0.7562  0.3477  0.9402
  375MOL0     H51728  12.094   5.243   0.846 -2.5394 -1.4016 -3.5051
  375MOL0     H51729  11.931   5.182   0.880  1.1778 -1.8056 -1.7804
  375MOL0     H51730  11.935   6.147   1.216  1.2050 -0.5131 -2.4481
  375MOL0     H51731  12.094   6.319   1.193 -1.3773 -0.8138 -0.4693
  375MOL0     H51732  12.479   6.560   1.579 -0.5064  0.2715  0.0555
  375MOL0     H51733  12.619   6.749   1.556 -0.0133  1.0418 -1.3927
  375MOL0     H51734  11.828   7.456   1.283 -1.2457  0.7737  0.5476
  375MOL0     H51735  11.570   7.459   1.314  0.4649 -0.2654  1.0695
  375MOL0     H51736  11.195   7.388   1.175 -1.4438  2.2887  1.1842
  375MOL0     H51737  10.962   7.426   1.177  1.3374 -1.6472 -3.1750
  375MOL0     H51738  10.704   7.114   1.224  0.8145 -1.1077  1.3753
  375MOL0     H51739  10.671   7.145   1.389 -0.0513 -1.4307 -0.8743
  375MOL0     H51740  10.513   7.326   1.300  1.1427 -0.0229  0.8378
  375MOL0     H51741  10.453   7.158   1.276 -0.1266 -0.1081  0.3990
  375MOL0     H51742  10.413   7.297   1.076  0.5530  1.0348 -1.1613
  375MOL0     H51743  10.584   7.314   1.065  1.6374 -0.4353  1.1790
  375MOL0     H51744  10.592   7.055   1.029 -2.0308 -2.9014  2.2174
  375MOL0     H51745  10.500   7.149   0.914  1.7511 -3.2149 -0.7039
  375MOL0     H51746  10.199   6.918   1.123 -0.1022  0.0613 -0.6988
  375MOL0     H51747  10.887   7.102   1.435  1.1980 -0.3477  0.8745
  375MOL0     H51748  11.150   6.918   1.426 -1.4947  0.5431  0.9800
  375MOL0     H51749  11.226   7.042   1.530  0.1400  1.5734  0.1156
  375MOL0     H51750  11.051   7.004   1.539 -3.7240  3.2405 -2.4803
  376MOL0     O51751  10.334  10.485   1.549 -0.0904 -0.6369 -0.1721
  376MOL0     C51752  10.357  10.407   1.454 -0.2035 -0.1687  0.6448
  376MOL0     O51753  10.268  10.392   1.349  0.7649  0.0757  0.6433
  376MOL0     C51754  10.202  10.507   1.308 -0.2436  0.4157  0.5818
  376MOL0     C51755  10.286  10.601   1.253  0.6874  0.4697 -0.1215
  376MOL0     C51756  10.229  10.716   1.200 -1.0360  0.3372 -0.1211
  376MOL0     C51757  10.090  10.738   1.193 -0.3686  0.0725 -0.8884
  376MOL0     O51758  10.052  10.858   1.139  0.6053 -0.0728 -0.8553
  376MOL0     C51759   9.918  10.897   1.173 -0.1393 -0.0429 -0.1200
  376MOL0     C51760   9.905  11.043   1.141  0.0219 -0.5867  0.2342
  376MOL0     C51761  10.004  11.124   1.224  0.1846  0.2686 -0.7265
  376MOL0     C51762   9.993  11.274   1.182  0.0853  0.3980  0.6124
  376MOL0     C51763  10.045  11.382   1.275 -0.1061 -0.7452 -0.8408
  376MOL0     C51764  10.123  11.497   1.206 -0.0259  0.3729  0.3518
  376MOL0     C51765  10.055  11.602   1.117  0.9550  0.7443 -0.0321
  376MOL0     C51766   9.907  11.621   1.162 -0.2566 -0.8413  0.5935
  376MOL0     N51767   9.835  11.725   1.076  0.3394  0.5575 -0.0604
  376MOL0     C51768   9.743  11.696   0.972 -0.0929 -0.6675  0.9228
  376MOL0     C51769   9.692  11.819   0.951  0.1970  0.7730 -0.0640
  376MOL0     C51770   9.613  11.865   0.831  0.4598  0.2022  0.6999
  376MOL0     C51771   9.485  11.943   0.872  0.7147  0.3791  0.8077
  376MOL0     C51772   9.377  11.986   0.763 -0.6299  0.4638 -0.5707
  376MOL0     C51773   9.434  12.088   0.664  0.1389 -0.4585 -0.7548
  376MOL0     O51774   9.338  12.107   0.557 -0.3227  0.5035 -0.2560
  376MOL0     C51775   9.227  12.182   0.576 -0.0655 -0.1850  0.1152
  376MOL0     C51776   9.142  12.202   0.469  0.0314 -0.3837  0.9936
  376MOL0     C51777   9.028  12.277   0.478  0.6630 -0.7509  0.0067
  376MOL0     C51778   8.929  12.281   0.364 -0.5793  0.8032  0.4526
  376MOL0     C51779   8.992  12.332   0.606 -0.1115 -0.1318  0.0719
  376MOL0     C51780   8.868  12.400   0.640  0.4790 -0.1685  0.3792
  376MOL0     O51781   8.834  12.491   0.548  0.1973  0.2026  0.1560
  376MOL0     C51782   8.703  12.541   0.526  0.0991  0.1518 -0.1299
  376MOL0     C51783   8.674  12.673   0.485  0.0741  0.7270  0.3314
  376MOL0     C51784   8.540  12.707   0.447 -0.1728 -0.2509 -0.4768
  376MOL0     C51785   8.435  12.613   0.427 -0.0922 -0.5416  1.0594
  376MOL0     O51786   8.315  12.658   0.376 -0.7069  0.3932 -0.3788
  376MOL0     C51787   8.232  12.557   0.317 -0.1963 -0.4205 -0.7174
  376MOL0     C51788   8.103  12.617   0.267  0.9382 -0.2569 -0.8886
  376MOL0     C51789   7.994  12.509   0.236  0.9337  0.2701  0.0207
  376MOL0     C51790   7.863  12.587   0.199 -0.2025  0.1571 -0.5062
  376MOL0     C51791   7.726  12.512   0.211  0.3856  0.7291 -0.5211
  376MOL0     C51792   7.722  12.369   0.151 -0.2310  0.3713  0.5687
  376MOL0     C51793   7.587  12.312   0.159  1.0633 -0.2815  0.3297
  376MOL0     C51794   7.564  12.167   0.124  0.0887 -0.2509  0.5723
  376MOL0    Cl51795   7.697  12.066   0.190  0.0995 -0.0722  0.2075
  376MOL0     C51796   8.469  12.483   0.469  0.3453 -0.3246 -0.7327
  376MOL0     C51797   8.594  12.451   0.518  0.1916  0.3804  0.3982
  376MOL0     O51798   8.793  12.371   0.735  0.2232 -0.4489  0.3660
  376MOL0     C51799   9.078  12.296   0.714  0.3994 -0.6146 -0.0738
  376MOL0     C51800   9.189  12.232   0.704 -0.4730  0.4016  0.2534
  376MOL0     N51801   9.744  11.909   1.040 -0.0570 -0.9433 -0.1709
  376MOL0     N51802   9.825  11.851   1.117 -0.4023 -0.4097  0.0124
  376MOL0     C51803  10.007  10.643   1.260  0.5124 -0.0903 -0.0064
  376MOL0     C51804  10.066  10.532   1.318  0.4555  0.6857  1.0495
  376MOL0     C51805  10.471  10.317   1.459 -0.2794  0.2035 -0.1114
  376MOL0     C51806  10.513  10.248   1.343  0.8063 -0.5353 -0.8510
  376MOL0     C51807  10.620  10.175   1.340 -0.9376 -0.4829  0.2129
  376MOL0     C51808  10.702  10.150   1.454  0.8609  0.6665 -0.2775
  376MOL0     O51809  10.812  10.074   1.457 -0.0107  0.4585  0.5337
  376MOL0     C51810  10.848   9.994   1.340  0.1606  0.0191  0.3056
  376MOL0     C51811  10.941  10.080   1.254  0.1258 -0.6659 -0.0243
  376MOL0     C51812  11.007   9.989   1.150  0.4747  0.2713  0.4289
  376MOL0     C51813  11.108  10.067   1.064  1.0935  0.0350  0.2171
  376MOL0     C51814  11.237  10.069   1.120  0.3898  0.4171  0.1460
  376MOL0     C51815  11.353  10.063   1.139  0.3600 -0.7884 -0.0053
  376MOL0     C51816  10.664  10.206   1.569  0.4869  1.4302 -0.2645
  376MOL0     C51817  10.561  10.296   1.579  1.1262 -0.0439  1.0764
  376MOL0     C51818  10.538  10.367   1.706  0.1219  0.5143  0.8691
  376MOL0     H51819  10.394  10.595   1.250  0.5875 -1.8377 -0.8886
  376MOL0     H51820  10.296  10.798   1.173  1.2142 -1.3443  0.0352
  376MOL0     H51821   9.901  10.884   1.280  3.8610 -2.9522  0.4012
  376MOL0     H51822   9.849  10.835   1.114  0.7403 -2.1959  0.9996
  376MOL0     H51823   9.924  11.060   1.035  0.4772  2.6547  0.7332
  376MOL0     H51824   9.800  11.070   1.156  0.1949 -0.1560  0.6996
  376MOL0     H51825   9.969  11.114   1.327  3.3890  1.0061  0.5580
  376MOL0     H51826  10.106  11.085   1.222  1.0956  2.2732  1.6461
  376MOL0     H51827  10.029  11.279   1.079  0.0916 -0.6776  0.5502
  376MOL0     H51828   9.887  11.292   1.163 -0.0386 -0.5165  0.3847
  376MOL0     H51829  10.113  11.344   1.352  2.5690  1.7183 -1.8103
  376MOL0     H51830   9.960  11.420   1.333  0.8396  0.8249 -0.4417
  376MOL0     H51831  10.162  11.553   1.292 -0.3990 -0.6584  1.2078
  376MOL0     H51832  10.205  11.457   1.146 -1.5716 -0.6974 -1.1280
  376MOL0     H51833  10.055  11.554   1.018 -2.9986 -0.7447  0.4899
  376MOL0     H51834  10.108  11.697   1.116  0.9567  0.7504  0.5613
  376MOL0     H51835   9.845  11.531   1.157  0.3161 -1.1981 -2.8528
  376MOL0     H51836   9.895  11.655   1.265 -3.6347  0.0812  0.0445
  376MOL0     H51837   9.733  11.609   0.907 -0.6030 -0.6733  1.0058
  376MOL0     H51838   9.585  11.783   0.764 -3.0584  2.6913 -1.2045
  376MOL0     H51839   9.667  11.940   0.772 -0.5097  1.1090  0.9338
  376MOL0     H51840   9.428  11.865   0.923 -0.4357 -0.5963 -1.8399
  376MOL0     H51841   9.514  12.032   0.930  0.7878  0.2370  0.9895
  376MOL0     H51842   9.355  11.900   0.700  0.2849  1.8368 -2.8577
  376MOL0     H51843   9.286  12.013   0.819 -0.8555  0.3309 -0.8670
  376MOL0     H51844   9.459  12.182   0.714  3.6432 -1.9063  0.4851
  376MOL0     H51845   9.531  12.059   0.622  1.5985  0.8751  1.4977
  376MOL0     H51846   9.180  12.173   0.371 -2.0565  2.5190 -0.8702
  376MOL0     H51847   8.832  12.329   0.381 -1.2382  0.1585 -1.2792
  376MOL0     H51848   8.893  12.187   0.321 -1.4550  0.9882  0.7591
  376MOL0     H51849   8.984  12.333   0.285  0.7182  3.0912  2.6921
  376MOL0     H51850   8.751  12.750   0.488  0.3420  0.5728 -1.4047
  376MOL0     H51851   8.515  12.807   0.414 -0.8988  0.0864  1.0396
  376MOL0     H51852   8.282  12.510   0.232 -1.1944 -3.2925  0.1721
  376MOL0     H51853   8.212  12.488   0.399  4.2257  1.0923  2.0229
  376MOL0     H51854   8.062  12.680   0.346 -1.1163 -1.4253 -0.9552
  376MOL0     H51855   8.119  12.674   0.175  0.4924  2.1161  0.4208
  376MOL0     H51856   7.977  12.443   0.322  1.2963 -2.2210 -1.7155
  376MOL0     H51857   8.028  12.444   0.154 -1.6698  0.7020 -1.5148
  376MOL0     H51858   7.869  12.614   0.093  1.6554  2.1433  0.0316
  376MOL0     H51859   7.857  12.678   0.259 -1.7939 -0.6562  0.6345
  376MOL0     H51860   7.698  12.500   0.316  3.5425  0.5056  0.3895
  376MOL0     H51861   7.648  12.571   0.161  0.1203 -0.0259 -1.0283
  376MOL0     H51862   7.796  12.309   0.204 -1.3405 -1.0078  0.5867
  376MOL0     H51863   7.757  12.374   0.047  2.8999 -0.1964  1.4891
  376MOL0     H51864   7.523  12.374   0.096  0.2822 -2.5965 -1.2849
  376MOL0     H51865   7.555  12.324   0.263 -1.4273 -0.1493 -0.3927
  376MOL0     H51866   7.560  12.153   0.016  0.5005  2.4833  0.1351
  376MOL0     H51867   7.473  12.126   0.167  0.5895 -3.5393 -1.2210
  376MOL0     H51868   8.387  12.413   0.459 -1.1689  0.2013  4.6082
  376MOL0     H51869   8.619  12.346   0.532 -0.0118  0.4814  1.6673
  376MOL0     H51870   9.046  12.320   0.815 -1.5514  2.9671 -1.3392
  376MOL0     H51871   9.243  12.222   0.798 -0.2438  0.0192  0.0784
  376MOL0     H51872   9.899  10.658   1.256  0.6656  1.2373  0.5514
  376MOL0     H51873   9.997  10.454   1.348 -0.9806  0.0141 -3.2329
  376MOL0     H51874  10.455  10.259   1.252  0.3173  0.8325 -0.3908
  376MOL0     H51875  10.638  10.126   1.245  0.2000  0.3944 -0.0373
  376MOL0     H51876  10.894   9.904   1.382 -3.2433 -1.2326  1.7374
  376MOL0     H51877  10.759   9.957   1.288  1.8848  0.3760 -3.1428
  376MOL0     H51878  11.011  10.123   1.326 -0.4704  1.4373 -0.6394
  376MOL0     H51879  10.889  10.154   1.193 -1.2399 -0.7287  1.0281
  376MOL0     H51880  11.057   9.905   1.200  0.4514  0.1794  0.2993
  376MOL0     H51881  10.927   9.955   1.084 -1.2338  0.3071  2.3654
  376MOL0     H51882  11.067  10.166   1.040  1.1829 -0.1675 -0.8341
  376MOL0     H51883  11.116  10.025   0.963 -3.6098  1.1909 -0.9022
  376MOL0     H51884  11.460  10.058   1.148  0.2718 -1.5441  0.7663
  376MOL0     H51885  10.706  10.166   1.661 -0.2499 -0.2556 -0.6443
  376MOL0     H51886  10.448  10.327   1.754  1.6169 -0.8353  2.7285
  376MOL0     H51887  10.623  10.357   1.773  2.2878 -0.6990 -1.8557
  376MOL0     H51888  10.523  10.475   1.701  0.9493  0.5994 -0.0935
  377MOL0     O51889   2.953   8.822   9.637  0.3738  0.0376  0.3846
  377MOL0     C51890   3.014   8.766   9.727 -0.5743 -0.1837  0.3058
  377MOL0     O51891   2.999   8.794   9.860  0.0052  0.3526 -0.8111
  377MOL0     C51892   2.872   8.808   9.918  0.1169  0.3253  0.4520
  377MOL0     C51893   2.880   8.834  10.061  0.4210 -0.7656 -0.7661
  377MOL0     C51894   2.767   8.819  10.136  0.4489 -0.8941  0.3886
  377MOL0     C51895   2.642   8.803  10.076 -0.4999  0.5395  0.2928
  377MOL0     O51896   2.530   8.777  10.157 -0.0015 -1.1247  0.2589
  377MOL0     C51897   2.513   8.871  10.267 -0.4203  0.3114  0.1876
  377MOL0     C51898   2.363   8.874  10.293 -0.2762  0.1558 -0.1795
  377MOL0     C51899   2.280   8.921  10.166 -0.0540  0.1303 -0.2167
  377MOL0     C51900   2.130   8.933  10.201 -0.4971 -0.4790 -0.0833
  377MOL0     C51901   2.032   9.004  10.108  0.1020  0.1115  0.1101
  377MOL0     C51902   2.052   8.938   9.976 -1.2820 -0.2900  0.0274
  377MOL0     C51903   2.004   8.790   9.979 -0.1152  0.5158  0.1350
  377MOL0     C51904   2.010   8.733   9.838  0.2799  0.5203 -0.2099
  377MOL0     N51905   1.980   8.589   9.824  0.0348 -0.2464  0.3784
  377MOL0     C51906   2.015   8.476   9.904 -0.2505 -0.5344  0.4956
  377MOL0     C51907   1.951   8.368   9.844 -0.5432  0.2745 -0.1481
  377MOL0     C51908   1.954   8.222   9.890 -0.1111 -0.0574 -1.3203
  377MOL0     C51909   2.094   8.161   9.869  1.6246 -0.3307 -0.1612
  377MOL0     C51910   2.110   8.085   9.733 -1.5696  0.3931 -0.8423
  377MOL0     C51911   2.249   8.029   9.725 -0.9906 -0.0494  1.7184
  377MOL0     O51912   2.345   8.130   9.688  0.4241  0.2079 -0.1282
  377MOL0     C51913   2.463   8.071   9.645 -1.0776 -0.8696 -1.4397
  377MOL0     C51914   2.563   8.031   9.745 -0.4937 -0.3157  0.4357
  377MOL0     C51915   2.687   7.976   9.708  0.2254 -0.4611 -0.1753
  377MOL0     C51916   2.786   7.949   9.821  0.4124  0.2095 -0.1785
  377MOL0     C51917   2.709   7.954   9.573  0.3187  0.4525 -0.0411
  377MOL0     C51918   2.827   7.877   9.531 -0.2395 -1.0053  0.5128
  377MOL0     O51919   2.862   7.907   9.401  0.2771 -0.3395 -0.6229
  377MOL0     C51920   2.977   7.852   9.352  0.4488  0.9297  0.7218
  377MOL0     C51921   2.963   7.753   9.258  0.1039 -0.2245  0.1406
  377MOL0     C51922   3.081   7.678   9.228 -0.6102 -0.4625  0.1650
  377MOL0     C51923   3.200   7.707   9.285  0.1136  0.4816  0.2813
  377MOL0     O51924   3.291   7.613   9.254  0.0467  0.2380  0.2011
  377MOL0     C51925   3.429   7.633   9.300  1.3699 -0.6737  0.0588
  377MOL0     C51926   3.450   7.528   9.405  0.1098 -0.7573  0.9647
  377MOL0     C51927   3.576   7.548   9.482 -0.3878  0.1170  0.2055
  377MOL0     C51928   3.607   7.417   9.541 -0.2186 -0.2662  0.7299
  377MOL0     C51929   3.752   7.433   9.584 -0.3254 -0.2722  0.4368
  377MOL0     C51930   3.813   7.310   9.649  0.2211  0.1316 -0.0553
  377MOL0     C51931   3.969   7.326   9.665 -0.2523 -0.2151  0.5041
  377MOL0     C51932   4.052   7.195   9.650  0.4374 -0.2306  0.0931
  377MOL0    Cl51933   4.220   7.238   9.605 -0.4277 -0.1293 -0.2099
  377MOL0     C51934   3.220   7.825   9.356  0.4921 -1.1111  0.6478
  377MOL0     C51935   3.107   7.896   9.391  0.9641  0.1619 -0.2397
  377MOL0     O51936   2.888   7.803   9.600  0.2412 -1.1318 -0.3939
  377MOL0     C51937   2.615   7.998   9.478 -0.6473  0.1254 -0.7244
  377MOL0     C51938   2.498   8.068   9.510 -0.0808  0.1526 -0.2128
  377MOL0     N51939   1.896   8.412   9.728 -0.4232 -0.0035 -0.6766
  377MOL0     N51940   1.911   8.536   9.719  0.1015  0.1081  0.1621
  377MOL0     C51941   2.631   8.806   9.933  0.6664  0.9594 -0.0003
  377MOL0     C51942   2.746   8.794   9.856 -1.1310  0.4503 -0.2107
  377MOL0     C51943   3.142   8.694   9.679 -0.4954 -1.1217  1.1448
  377MOL0     C51944   3.250   8.707   9.767 -0.6419  0.3554 -0.1319
  377MOL0     C51945   3.368   8.636   9.751 -0.1229 -0.3579  0.6287
  377MOL0     C51946   3.394   8.564   9.638 -0.5113 -0.1364  0.3759
  377MOL0     O51947   3.515   8.500   9.624 -0.1003  0.4120  0.6856
  377MOL0     C51948   3.539   8.426   9.503 -0.5082  1.4017 -0.0842
  377MOL0     C51949   3.688   8.406   9.491  0.9226 -0.5764 -0.3465
  377MOL0     C51950   3.718   8.308   9.378 -0.3610 -0.0224  0.1095
  377MOL0     C51951   3.855   8.330   9.328  1.5079  0.0201  0.7442
  377MOL0     C51952   3.890   8.250   9.214  0.2831 -0.7906 -0.4699
  377MOL0     C51953   3.928   8.170   9.130 -0.6995  0.4066 -0.9444
  377MOL0     C51954   3.286   8.554   9.544  1.0274  0.5804 -0.4037
  377MOL0     C51955   3.165   8.621   9.559  0.5931  0.9511  0.3556
  377MOL0     C51956   3.051   8.603   9.457  0.2113 -0.7545 -0.1641
  377MOL0     H51957   2.981   8.851  10.096 -0.2660 -0.8434  1.4350
  377MOL0     H51958   2.765   8.815  10.245  1.2994  0.4729  0.4757
  377MOL0     H51959   2.539   8.972  10.232 -2.0785  0.4397 -0.7646
  377MOL0     H51960   2.573   8.836  10.352  1.6883  1.8944 -0.5355
  377MOL0     H51961   2.339   8.770  10.317  1.3897 -0.1187  0.4318
  377MOL0     H51962   2.348   8.936  10.381  4.3604 -2.2536  2.7087
  377MOL0     H51963   2.314   9.010  10.111  3.1969  0.2847  1.8131
  377MOL0     H51964   2.282   8.834  10.100 -1.1167 -0.9959  1.1606
  377MOL0     H51965   2.093   8.831  10.218 -1.2617 -1.2304 -4.6819
  377MOL0     H51966   2.133   8.994  10.291 -1.1527  0.7544 -0.8618
  377MOL0     H51967   2.058   9.110  10.116  0.9551 -0.2235  2.7096
  377MOL0     H51968   1.934   8.983  10.151  1.1299 -1.9359  1.6691
  377MOL0     H51969   2.008   9.000   9.897 -0.1408 -1.6759 -1.7757
  377MOL0     H51970   2.155   8.932   9.941 -0.7271 -0.2735  1.5895
  377MOL0     H51971   1.904   8.782  10.022  0.1942  1.2161  1.0110
  377MOL0     H51972   2.068   8.720  10.034 -1.5466 -1.4709 -0.6086
  377MOL0     H51973   1.943   8.786   9.771 -0.6892  0.5153  0.7287
  377MOL0     H51974   2.115   8.733   9.805  0.5792 -1.7696  0.5307
  377MOL0     H51975   2.084   8.464   9.987  2.5588 -3.5928 -2.0239
  377MOL0     H51976   1.880   8.151   9.851  2.7957 -2.6566 -2.5935
  377MOL0     H51977   1.925   8.240   9.993 -2.7074  1.2837 -2.1842
  377MOL0     H51978   2.167   8.243   9.867 -1.1426  2.2832 -1.8960
  377MOL0     H51979   2.108   8.090   9.952 -0.5497  0.7828  1.2596
  377MOL0     H51980   2.047   7.996   9.737  0.5188 -1.1999 -1.6973
  377MOL0     H51981   2.088   8.149   9.646  0.6469 -0.7964 -2.3784
  377MOL0     H51982   2.274   7.977   9.818  2.1464 -2.7011 -0.4125
  377MOL0     H51983   2.253   7.959   9.641  2.2564  2.9462 -0.9468
  377MOL0     H51984   2.549   8.050   9.851  1.2448  3.2088  0.2012
  377MOL0     H51985   2.791   7.843   9.844  0.0625  0.2856  0.2499
  377MOL0     H51986   2.756   8.007   9.909  2.0691  1.6264 -0.4740
  377MOL0     H51987   2.887   7.979   9.789  0.2590 -0.8878 -1.7628
  377MOL0     H51988   2.867   7.719   9.221  0.1410  1.4484 -1.6875
  377MOL0     H51989   3.080   7.600   9.152 -3.6236 -1.7024  1.2797
  377MOL0     H51990   3.492   7.623   9.211  1.1022 -0.0978 -0.1996
  377MOL0     H51991   3.457   7.728   9.346  2.5521 -0.6349 -0.6972
  377MOL0     H51992   3.369   7.540   9.477 -1.8264 -0.7586 -1.0913
  377MOL0     H51993   3.447   7.431   9.355 -1.9919 -0.0491 -0.4227
  377MOL0     H51994   3.570   7.628   9.557  0.8804  1.2201 -0.8102
  377MOL0     H51995   3.663   7.570   9.419  1.2379 -3.1869  1.0790
  377MOL0     H51996   3.598   7.337   9.467  2.6741  1.5318 -1.7889
  377MOL0     H51997   3.545   7.393   9.628 -1.5130 -4.1584 -1.0807
  377MOL0     H51998   3.817   7.441   9.496 -0.0584  1.2990  0.7578
  377MOL0     H51999   3.770   7.518   9.650 -1.8882  1.1012 -0.8112
  377MOL0     H52000   3.785   7.218   9.596 -0.8225  0.3762  0.0522
  377MOL0     H52001   3.769   7.305   9.749  1.2479  0.7194  0.4285
  377MOL0     H52002   3.985   7.383   9.757 -3.4658 -1.3007  1.8399
  377MOL0     H52003   4.001   7.395   9.586  0.1964 -1.1386 -0.1439
  377MOL0     H52004   4.009   7.137   9.569 -2.9601 -1.8835  2.8303
  377MOL0     H52005   4.045   7.140   9.744 -1.1583 -0.5110 -0.1584
  377MOL0     H52006   3.313   7.856   9.404  0.9911 -0.9010 -0.4304
  377MOL0     H52007   3.109   7.968   9.472  1.4502  1.0461 -1.0192
  377MOL0     H52008   2.641   7.968   9.377 -0.2483 -0.7102 -0.3735
  377MOL0     H52009   2.437   8.117   9.435  4.1209  3.2990 -1.9924
  377MOL0     H52010   2.532   8.781   9.895  0.6592  0.2756  0.4414
  377MOL0     H52011   2.747   8.767   9.751 -1.0300 -0.9210  0.1147
  377MOL0     H52012   3.241   8.758   9.863  2.1814 -0.4117  0.6306
  377MOL0     H52013   3.441   8.628   9.831  0.7048 -0.4922 -0.1212
  377MOL0     H52014   3.497   8.325   9.505  2.8928 -0.1433  0.4774
  377MOL0     H52015   3.492   8.470   9.414 -1.7630 -4.7751 -2.9995
  377MOL0     H52016   3.716   8.352   9.582  0.2665 -0.8687 -0.3142
  377MOL0     H52017   3.737   8.503   9.475 -1.1261  0.7146  0.8328
  377MOL0     H52018   3.727   8.209   9.423 -4.9530 -1.0462 -0.7953
  377MOL0     H52019   3.650   8.307   9.293  0.0247  1.2052 -0.2363
  377MOL0     H52020   3.917   8.295   9.411  1.4979 -0.8869  0.3836
  377MOL0     H52021   3.879   8.435   9.305 -0.3614 -0.2173 -3.1360
  377MOL0     H52022   3.979   8.093   9.076 -2.1312 -1.4609  0.2460
  377MOL0     H52023   3.298   8.481   9.465 -0.9925 -1.2461  0.8532
  377MOL0     H52024   3.051   8.691   9.392  1.4676 -1.5120 -1.2595
  377MOL0     H52025   3.059   8.523   9.382 -1.4726 -0.4546 -0.7101
  377MOL0     H52026   2.954   8.588   9.505  0.5233  0.3093  0.8197
  378MOL0     O52027   7.222   7.562   4.942 -0.8138 -0.1134 -0.3179
  378MOL0     C52028   7.199   7.674   4.906  0.5442  0.0086  1.2442
  378MOL0     O52029   7.129   7.704   4.795 -0.7540 -0.4161 -0.0879
  378MOL0     C52030   7.153   7.618   4.688 -0.4422 -0.9381  1.1214
  378MOL0     C52031   7.267   7.624   4.601 -0.3796 -0.5293 -0.0315
  378MOL0     C52032   7.275   7.541   4.489  0.0095 -0.1764  0.7082
  378MOL0     C52033   7.172   7.452   4.453 -0.5356 -0.0719  0.3646
  378MOL0     O52034   7.181   7.371   4.345  0.0353 -0.0258  0.3946
  378MOL0     C52035   7.271   7.403   4.236  0.3434  0.4132  0.0213
  378MOL0     C52036   7.287   7.293   4.127  0.8100 -0.0943 -0.2217
  378MOL0     C52037   7.292   7.338   3.983  0.1934 -0.1052  0.5218
  378MOL0     C52038   7.182   7.434   3.937  0.7620 -1.3419 -0.3638
  378MOL0     C52039   7.156   7.416   3.786  0.5780  0.9917 -0.0793
  378MOL0     C52040   7.028   7.500   3.759  0.2743  0.0505  0.3474
  378MOL0     C52041   7.048   7.651   3.782  0.1112 -0.4770  0.6613
  378MOL0     C52042   6.935   7.738   3.721 -0.8022 -0.7771 -0.8306
  378MOL0     N52043   6.976   7.882   3.743  0.8786  1.2208  0.4063
  378MOL0     C52044   6.964   7.950   3.860  0.1173  0.7270  0.4417
  378MOL0     C52045   7.032   8.066   3.833  0.5303 -0.3486  0.5342
  378MOL0     C52046   7.074   8.173   3.929 -0.5655 -0.6718 -0.5550
  378MOL0     C52047   6.983   8.189   4.054 -0.0592  0.1844  0.0865
  378MOL0     C52048   6.839   8.211   4.004 -0.2985  0.4813 -0.3729
  378MOL0     C52049   6.740   8.171   4.118  0.3494  0.0330  0.7321
  378MOL0     O52050   6.756   8.031   4.158 -0.2599 -0.0015 -0.3303
  378MOL0     C52051   6.703   7.918   4.091 -0.0953 -0.5967  0.6969
  378MOL0     C52052   6.739   7.792   4.140 -0.1834  0.5239 -0.5998
  378MOL0     C52053   6.683   7.675   4.083  0.9040  0.2446  0.1191
  378MOL0     C52054   6.720   7.545   4.152 -0.9437 -0.4867 -0.2628
  378MOL0     C52055   6.595   7.678   3.976  0.0301  0.6355  1.1227
  378MOL0     C52056   6.523   7.561   3.920 -0.6264 -0.6965  0.2513
  378MOL0     O52057   6.514   7.574   3.781  0.3373 -0.0396 -0.8353
  378MOL0     C52058   6.436   7.485   3.704 -0.2933 -0.4368  0.4380
  378MOL0     C52059   6.328   7.536   3.639  0.4492  0.0792  0.7643
  378MOL0     C52060   6.248   7.458   3.553 -0.5526  0.5678  0.6185
  378MOL0     C52061   6.275   7.319   3.552  0.2347  0.3644  0.1771
  378MOL0     O52062   6.193   7.235   3.478  0.8119 -0.1535  0.5332
  378MOL0     C52063   6.173   7.092   3.522 -0.4133 -0.2367  1.1606
  378MOL0     C52064   6.031   7.049   3.473  0.1946 -0.0985  0.2803
  378MOL0     C52065   5.959   6.980   3.583  0.5856  0.1422  0.3935
  378MOL0     C52066   5.808   6.992   3.564 -0.7385 -0.7778 -0.7346
  378MOL0     C52067   5.738   6.941   3.688 -0.1809  0.3081  0.1912
  378MOL0     C52068   5.589   6.979   3.670 -0.1901  0.7584 -0.7998
  378MOL0     C52069   5.510   6.949   3.803  0.4115 -0.3246 -0.5270
  378MOL0     C52070   5.447   6.809   3.808  0.4646 -0.0677  0.9486
  378MOL0    Cl52071   5.322   6.787   3.678 -0.2817  0.4102 -0.0068
  378MOL0     C52072   6.383   7.272   3.625 -0.1882  0.1537  0.7055
  378MOL0     C52073   6.462   7.352   3.704  0.5330 -0.0401  0.3248
  378MOL0     O52074   6.481   7.470   3.991  0.1158 -1.3263  0.0504
  378MOL0     C52075   6.580   7.802   3.921  0.3513  0.3949 -0.3660
  378MOL0     C52076   6.621   7.923   3.978  0.0802 -0.2210 -0.1945
  378MOL0     N52077   7.094   8.060   3.708 -0.0140 -0.1382 -1.0600
  378MOL0     N52078   7.062   7.941   3.658  0.5098  0.1592 -0.0561
  378MOL0     C52079   7.069   7.442   4.550 -1.0162  0.8511  0.3276
  378MOL0     C52080   7.053   7.525   4.658  0.3179 -0.5909  0.5315
  378MOL0     C52081   7.216   7.777   5.012 -0.0482 -0.9299 -0.0107
  378MOL0     C52082   7.310   7.754   5.116 -0.8961  0.5031  0.9167
  378MOL0     C52083   7.357   7.844   5.209 -0.2248 -0.3337 -0.0515
  378MOL0     C52084   7.293   7.971   5.212  1.0658  0.5460 -1.0539
  378MOL0     O52085   7.334   8.058   5.301 -0.2147  0.4884 -0.6012
  378MOL0     C52086   7.241   8.144   5.364  0.9794 -0.4258 -0.0775
  378MOL0     C52087   7.303   8.198   5.492 -0.2403 -0.3299  0.4276
  378MOL0     C52088   7.305   8.087   5.598 -0.5849 -0.0471  0.4794
  378MOL0     C52089   7.377   8.127   5.727  0.2372  0.2260  0.4448
  378MOL0     C52090   7.502   8.191   5.708 -0.6923 -0.2673 -0.1891
  378MOL0     C52091   7.610   8.234   5.683 -0.1890  0.2464  0.4674
  378MOL0     C52092   7.184   7.990   5.125 -0.2179  0.0376 -0.0522
  378MOL0     C52093   7.151   7.900   5.024 -0.0151 -0.5710  0.1693
  378MOL0     C52094   7.039   7.935   4.929  0.4846 -0.6527  0.2660
  378MOL0     H52095   7.337   7.703   4.624 -1.6834  0.1481  1.8610
  378MOL0     H52096   7.362   7.568   4.430  0.5952 -0.1969  1.5289
  378MOL0     H52097   7.376   7.414   4.263  1.2358 -3.4825 -1.1908
  378MOL0     H52098   7.238   7.494   4.185  2.2510  0.4788 -1.1799
  378MOL0     H52099   7.378   7.235   4.143  1.7378  1.1405 -0.8289
  378MOL0     H52100   7.199   7.229   4.133  0.5443  0.3273  0.4369
  378MOL0     H52101   7.383   7.397   3.975  0.5521 -0.8874 -2.0013
  378MOL0     H52102   7.295   7.260   3.906  3.8509  0.8077 -0.4420
  378MOL0     H52103   7.087   7.421   3.988  0.2105  1.7997 -0.3853
  378MOL0     H52104   7.219   7.537   3.939  1.5058 -1.4398 -3.4274
  378MOL0     H52105   7.137   7.311   3.764 -1.0326  0.4216  3.3764
  378MOL0     H52106   7.234   7.461   3.724  1.1382 -0.6696 -0.6204
  378MOL0     H52107   6.988   7.479   3.659  1.9806  0.9322 -0.5637
  378MOL0     H52108   6.951   7.464   3.828  0.1908 -0.1298  0.1617
  378MOL0     H52109   7.139   7.679   3.728 -0.4699  3.3503  1.4405
  378MOL0     H52110   7.057   7.679   3.887  3.2689  1.4713  0.0028
  378MOL0     H52111   6.912   7.706   3.619 -1.6335 -1.5007 -0.4322
  378MOL0     H52112   6.840   7.714   3.768 -0.5609  0.3923  0.3040
  378MOL0     H52113   6.911   7.924   3.951 -1.3329 -0.7049 -0.7461
  378MOL0     H52114   7.092   8.266   3.875 -0.4464 -0.0998  0.4525
  378MOL0     H52115   7.173   8.152   3.968  0.3020  0.2062 -2.1786
  378MOL0     H52116   6.994   8.105   4.123  0.1843  0.7983  0.8058
  378MOL0     H52117   7.022   8.276   4.108  1.5337 -1.1792  1.2786
  378MOL0     H52118   6.822   8.316   3.977 -1.1902  0.5696  0.4719
  378MOL0     H52119   6.807   8.155   3.916 -4.7269  0.1083  1.2530
  378MOL0     H52120   6.755   8.243   4.200 -1.0426  0.6039  0.5140
  378MOL0     H52121   6.637   8.191   4.088 -0.1282 -0.9255  1.6614
  378MOL0     H52122   6.807   7.785   4.224  0.3733  2.3766 -0.8424
  378MOL0     H52123   6.717   7.463   4.080 -0.9789  0.2573 -1.1360
  378MOL0     H52124   6.645   7.524   4.229 -1.6220 -2.1692 -1.3272
  378MOL0     H52125   6.816   7.554   4.203 -0.9420  1.4332 -0.5016
  378MOL0     H52126   6.300   7.641   3.646  2.8934  0.8464  0.0244
  378MOL0     H52127   6.155   7.500   3.516 -0.7921  0.0009  0.5636
  378MOL0     H52128   6.257   7.033   3.485  0.3739  1.9214 -0.7260
  378MOL0     H52129   6.179   7.083   3.631  0.1770  2.3501  1.3906
  378MOL0     H52130   5.970   7.133   3.438 -0.8563  0.5945  3.4754
  378MOL0     H52131   6.039   6.984   3.386 -1.6254 -0.8218  0.6219
  378MOL0     H52132   5.978   7.019   3.683  2.7739 -1.4568  0.6822
  378MOL0     H52133   5.992   6.876   3.577 -0.6396 -0.2387 -0.1100
  378MOL0     H52134   5.776   6.932   3.478 -0.7432  0.4735 -1.6312
  378MOL0     H52135   5.784   7.095   3.539 -1.1378 -1.1590 -2.0065
  378MOL0     H52136   5.759   6.834   3.677  1.8812  0.8490 -2.2659
  378MOL0     H52137   5.782   6.993   3.774  1.0524  1.1445 -0.9041
  378MOL0     H52138   5.551   6.917   3.589 -1.6166  0.4818  0.0431
  378MOL0     H52139   5.574   7.085   3.647  0.0599  0.5921 -1.7850
  378MOL0     H52140   5.430   7.024   3.814  2.0197  1.9042 -2.8864
  378MOL0     H52141   5.584   6.960   3.882  0.7522  1.0319 -1.0075
  378MOL0     H52142   5.393   6.799   3.903  1.7073  2.1257  1.9759
  378MOL0     H52143   5.524   6.732   3.800 -2.4905 -3.3924  1.8850
  378MOL0     H52144   6.404   7.166   3.615  0.1615  0.4618 -3.7306
  378MOL0     H52145   6.550   7.312   3.754 -0.1800 -2.7845 -0.4533
  378MOL0     H52146   6.505   7.814   3.844 -1.0263 -1.4959  0.5844
  378MOL0     H52147   6.587   8.019   3.941 -0.4942  0.5652  2.1883
  378MOL0     H52148   6.995   7.366   4.527  1.1237 -2.3197  3.0956
  378MOL0     H52149   6.964   7.532   4.720 -1.3007  0.4123 -1.7562
  378MOL0     H52150   7.372   7.665   5.121 -0.1732  0.9509  0.1177
  378MOL0     H52151   7.441   7.819   5.274 -1.9888 -3.5764  1.2529
  378MOL0     H52152   7.221   8.226   5.295 -2.9057 -1.3674 -0.3305
  378MOL0     H52153   7.142   8.098   5.373  0.5745  0.1177 -1.4273
  378MOL0     H52154   7.246   8.283   5.532 -1.0813  1.1634 -3.4774
  378MOL0     H52155   7.398   8.237   5.456  0.6114 -1.1009  1.7511
  378MOL0     H52156   7.201   8.063   5.621 -1.1367  0.0778 -1.6385
  378MOL0     H52157   7.356   7.998   5.561  0.5247 -0.3756  2.6436
  378MOL0     H52158   7.382   8.035   5.786  1.7953  0.1561  0.2650
  378MOL0     H52159   7.322   8.200   5.788  1.3667  0.3822  1.3122
  378MOL0     H52160   7.706   8.262   5.643 -0.0957  1.3790  1.4507
  378MOL0     H52161   7.128   8.083   5.131  0.3686  0.7423 -3.5567
  378MOL0     H52162   7.067   7.951   4.824 -1.1490  1.5239  0.0941
  378MOL0     H52163   6.969   7.851   4.934 -1.3852  0.9152  2.0096
  378MOL0     H52164   6.989   8.025   4.965 -0.2546 -0.0184 -2.1280
  379MOL0     O52165   4.289   6.526   0.985  0.0293  0.6357 -0.6864
  379MOL0     C52166   4.298   6.533   1.106  0.2113 -0.6281  0.0761
  379MOL0     O52167   4.414   6.561   1.176 -0.3772  0.2044 -0.1706
  379MOL0     C52168   4.497   6.647   1.118  0.4597 -0.0617 -0.1298
  379MOL0     C52169   4.631   6.618   1.079 -0.6671 -0.3179  0.4518
  379MOL0     C52170   4.702   6.711   1.013 -0.0156  0.3546 -0.6092
  379MOL0     C52171   4.644   6.830   0.972  0.2515  0.1878 -0.0142
  379MOL0     O52172   4.703   6.922   0.890 -0.6891  0.2055 -0.6321
  379MOL0     C52173   4.702   6.893   0.754 -0.0006  0.1391  0.3443
  379MOL0     C52174   4.767   7.003   0.677 -1.4694 -0.0617  0.0746
  379MOL0     C52175   4.658   7.106   0.631 -0.8300 -0.1817 -0.1822
  379MOL0     C52176   4.731   7.210   0.532 -0.3623  0.0235  0.1834
  379MOL0     C52177   4.826   7.308   0.603  0.5421  0.9365 -0.6360
  379MOL0     C52178   4.949   7.350   0.513 -0.2428 -0.3012 -0.9881
  379MOL0     C52179   4.924   7.473   0.423  0.9324 -0.4036 -0.0808
  379MOL0     C52180   5.059   7.535   0.386  0.3209 -1.0995 -0.4884
  379MOL0     N52181   5.129   7.457   0.289  0.4035  0.2669 -0.3746
  379MOL0     C52182   5.259   7.403   0.304 -0.2514  0.0312  0.2460
  379MOL0     C52183   5.288   7.336   0.188  0.4306  0.0433 -0.1199
  379MOL0     C52184   5.414   7.258   0.152 -0.4585  0.3171  0.7273
  379MOL0     C52185   5.534   7.349   0.156 -0.6925 -0.1777  0.9228
  379MOL0     C52186   5.669   7.279   0.141  0.0804  0.6846 -0.0085
  379MOL0     C52187   5.797   7.363   0.142 -0.2447 -0.5267  0.4046
  379MOL0     O52188   5.900   7.312   0.237 -0.0691  0.6418  0.1747
  379MOL0     C52189   6.005   7.395   0.272  0.6856  0.2636  0.1034
  379MOL0     C52190   6.050   7.505   0.196 -1.3955 -0.2061 -0.4323
  379MOL0     C52191   6.146   7.601   0.253  0.0602  0.5771  0.1551
  379MOL0     C52192   6.180   7.723   0.176  0.3113  1.5087  1.0903
  379MOL0     C52193   6.212   7.563   0.378 -0.4487 -0.7325 -0.2398
  379MOL0     C52194   6.319   7.649   0.431 -0.2540 -1.4658  0.1980
  379MOL0     O52195   6.442   7.621   0.380 -0.0355  0.0876  0.0217
  379MOL0     C52196   6.548   7.686   0.446 -0.6678  0.0332 -0.4485
  379MOL0     C52197   6.599   7.676   0.582  0.2377 -0.0923  1.3726
  379MOL0     C52198   6.692   7.764   0.638  0.5039 -0.0474 -0.7627
  379MOL0     C52199   6.735   7.873   0.559  0.7193  0.3298 -0.8361
  379MOL0     O52200   6.810   7.975   0.596 -0.4876  0.8117  0.1354
  379MOL0     C52201   6.903   7.952   0.712  0.0563 -0.2989  0.0644
  379MOL0     C52202   6.963   8.091   0.743 -0.3679  0.9295 -0.0433
  379MOL0     C52203   7.066   8.140   0.642 -0.2267 -0.2857  1.2283
  379MOL0     C52204   7.099   8.282   0.677 -0.1168 -0.4847 -0.1995
  379MOL0     C52205   7.199   8.325   0.562  0.3776 -0.1067  0.1005
  379MOL0     C52206   7.239   8.476   0.573  0.4269 -0.4324  0.0807
  379MOL0     C52207   7.349   8.516   0.470 -0.4214  1.0281 -0.3978
  379MOL0     C52208   7.363   8.661   0.461 -0.9094  0.6747  0.4079
  379MOL0    Cl52209   7.423   8.733   0.614 -0.6115 -0.0573 -0.7734
  379MOL0     C52210   6.680   7.894   0.434 -0.3994  0.2591  0.2464
  379MOL0     C52211   6.592   7.801   0.379  0.0169  0.1659 -0.3528
  379MOL0     O52212   6.300   7.726   0.522 -0.0875  0.5753 -0.6413
  379MOL0     C52213   6.176   7.446   0.443  0.6467  0.4363 -0.3210
  379MOL0     C52214   6.068   7.364   0.388 -0.8446  0.1958 -0.2384
  379MOL0     N52215   5.184   7.360   0.098  0.0932  0.4169  0.0687
  379MOL0     N52216   5.097   7.437   0.160  0.6507  0.2895 -0.3539
  379MOL0     C52217   4.518   6.864   1.002  0.9529 -0.3644  0.3897
  379MOL0     C52218   4.446   6.776   1.083 -0.4500  0.2127  0.1735
  379MOL0     C52219   4.174   6.510   1.183 -0.3592 -0.0316 -1.0849
  379MOL0     C52220   4.055   6.544   1.126  0.3478  0.1195  0.7951
  379MOL0     C52221   3.932   6.526   1.197 -0.7021 -0.4431  0.2963
  379MOL0     C52222   3.930   6.471   1.324  1.0119 -0.0924  0.0731
  379MOL0     O52223   3.796   6.448   1.371 -0.4427  0.0821  0.5918
  379MOL0     C52224   3.768   6.413   1.504 -0.5491 -1.0111 -0.5869
  379MOL0     C52225   3.733   6.550   1.576  1.0139  0.5092  0.4771
  379MOL0     C52226   3.602   6.614   1.533  0.4730  0.3046  0.6179
  379MOL0     C52227   3.544   6.701   1.646 -0.0244 -0.4843 -1.0473
  379MOL0     C52228   3.642   6.789   1.713 -0.4561  0.1423  0.0497
  379MOL0     C52229   3.730   6.856   1.765  0.0234  0.3434 -0.2987
  379MOL0     C52230   4.052   6.430   1.384  0.4575 -0.0013  0.1244
  379MOL0     C52231   4.172   6.444   1.305  0.1949 -0.6746 -0.4165
  379MOL0     C52232   4.296   6.357   1.342 -0.5418 -1.0892  0.5011
  379MOL0     H52233   4.680   6.522   1.094  1.6234  0.8862  1.1257
  379MOL0     H52234   4.799   6.685   0.973  0.8621 -0.8434  2.0942
  379MOL0     H52235   4.600   6.878   0.717 -0.1066  1.9982 -0.2236
  379MOL0     H52236   4.771   6.809   0.739  0.6039  0.6594  0.1624
  379MOL0     H52237   4.843   7.043   0.745 -0.6852 -2.7836  0.9173
  379MOL0     H52238   4.828   6.969   0.593 -0.7180 -0.4062  0.7574
  379MOL0     H52239   4.587   7.054   0.565 -3.1309  2.3950  0.0871
  379MOL0     H52240   4.613   7.160   0.714  0.9736  2.3745 -0.7603
  379MOL0     H52241   4.798   7.152   0.468  0.0000 -0.8802  1.3509
  379MOL0     H52242   4.660   7.267   0.472  1.2861  1.0090 -0.9355
  379MOL0     H52243   4.868   7.272   0.697  1.0316  0.5080 -1.0068
  379MOL0     H52244   4.765   7.396   0.623  1.9625  2.8013 -3.7541
  379MOL0     H52245   5.022   7.373   0.591 -2.4650 -1.4253  1.5657
  379MOL0     H52246   4.981   7.259   0.463  0.6250 -0.9521  0.6691
  379MOL0     H52247   4.869   7.551   0.477  1.4175 -0.0458 -0.1072
  379MOL0     H52248   4.856   7.447   0.341 -1.2313 -1.1764  1.8508
  379MOL0     H52249   5.052   7.636   0.345  1.0933  0.9775  3.9051
  379MOL0     H52250   5.116   7.549   0.478  1.0836  2.7582 -1.3742
  379MOL0     H52251   5.317   7.412   0.395  3.6886  0.4651 -2.0572
  379MOL0     H52252   5.401   7.213   0.054  0.8115  2.0696 -0.3092
  379MOL0     H52253   5.434   7.182   0.228  1.6325  1.4033  1.3365
  379MOL0     H52254   5.525   7.415   0.069  2.3399 -2.7120 -1.5124
  379MOL0     H52255   5.523   7.416   0.242 -0.5106  3.9763 -1.9760
  379MOL0     H52256   5.666   7.199   0.216  0.0741 -0.6428 -1.3792
  379MOL0     H52257   5.661   7.242   0.038 -1.7495  0.9138  0.0222
  379MOL0     H52258   5.849   7.366   0.046 -0.1111  1.0394  0.4972
  379MOL0     H52259   5.773   7.466   0.169  0.9244 -0.7132  2.3858
  379MOL0     H52260   6.015   7.515   0.094  0.5735  0.6000 -1.0799
  379MOL0     H52261   6.168   7.820   0.225  0.4557  2.5191 -0.7691
  379MOL0     H52262   6.098   7.735   0.105  0.4309  2.0972  1.0447
  379MOL0     H52263   6.272   7.726   0.117  0.1220  1.8566  0.8076
  379MOL0     H52264   6.556   7.590   0.632  1.7134 -1.0638  1.0197
  379MOL0     H52265   6.718   7.746   0.742 -1.3280  1.1611 -0.0563
  379MOL0     H52266   6.853   7.920   0.804 -1.2256  1.8064  0.1679
  379MOL0     H52267   6.986   7.885   0.691  3.2467  2.7997  1.7482
  379MOL0     H52268   6.885   8.166   0.762 -1.7163  0.2237 -2.4305
  379MOL0     H52269   7.022   8.072   0.833 -0.0583  1.1264 -0.2048
  379MOL0     H52270   7.019   8.139   0.544  0.0714  0.6759  1.0697
  379MOL0     H52271   7.152   8.072   0.641 -1.5453 -2.0143  0.4419
  379MOL0     H52272   7.146   8.286   0.775  1.8433 -1.9990 -1.0048
  379MOL0     H52273   7.015   8.350   0.666  0.9865  0.8254 -0.9188
  379MOL0     H52274   7.291   8.266   0.571 -0.2941 -1.2762 -0.4393
  379MOL0     H52275   7.157   8.303   0.464 -0.3803 -1.0390  0.6189
  379MOL0     H52276   7.270   8.509   0.672  1.6013  0.7504 -0.6568
  379MOL0     H52277   7.160   8.547   0.548  3.3487  2.6034 -1.1565
  379MOL0     H52278   7.329   8.465   0.376  1.9228 -3.4750  1.2390
  379MOL0     H52279   7.445   8.480   0.510  0.8515  3.3759 -1.1040
  379MOL0     H52280   7.272   8.716   0.435 -2.2026 -1.3417  0.4409
  379MOL0     H52281   7.428   8.687   0.377 -2.5290 -0.0083 -1.1028
  379MOL0     H52282   6.714   7.975   0.370 -1.4035 -1.6428 -2.9173
  379MOL0     H52283   6.558   7.841   0.284  1.6006  0.1556 -0.9506
  379MOL0     H52284   6.232   7.425   0.534  1.0256 -1.6905 -0.9962
  379MOL0     H52285   6.039   7.275   0.443 -1.6063 -1.2688 -2.8330
  379MOL0     H52286   4.466   6.953   0.967 -2.0553 -1.8365  0.7913
  379MOL0     H52287   4.342   6.795   1.106 -0.9298 -1.6624 -0.2486
  379MOL0     H52288   4.056   6.580   1.024  1.5979 -1.8311  0.0605
  379MOL0     H52289   3.839   6.562   1.156 -0.8312  1.2146  1.9648
  379MOL0     H52290   3.697   6.330   1.512  1.2674 -2.6748 -1.1085
  379MOL0     H52291   3.860   6.381   1.554  0.8105 -0.3867 -2.5618
  379MOL0     H52292   3.818   6.617   1.561 -0.7405  2.7470 -0.0219
  379MOL0     H52293   3.726   6.513   1.679 -0.6068 -1.7877 -0.3471
  379MOL0     H52294   3.615   6.678   1.445  0.1207  1.0168  1.0648
  379MOL0     H52295   3.530   6.536   1.505  1.2557  0.1613 -1.1217
  379MOL0     H52296   3.497   6.648   1.729 -2.6830  4.6862  1.2274
  379MOL0     H52297   3.460   6.760   1.609  0.0408 -1.4401 -2.8534
  379MOL0     H52298   3.804   6.899   1.830  1.3724 -4.5759  1.9216
  379MOL0     H52299   4.053   6.375   1.478  1.7818  1.3247  0.9348
  379MOL0     H52300   4.265   6.278   1.411 -2.3896 -1.0464 -0.2258
  379MOL0     H52301   4.336   6.306   1.254 -1.4573  1.3164 -1.4352
  379MOL0     H52302   4.376   6.421   1.381 -0.3492 -2.0441  1.7433
  380MOL0     O52303   2.505   5.863   5.520 -0.7204  0.9008  0.4768
  380MOL0     C52304   2.441   5.953   5.452 -0.6294  0.2902 -0.4598
  380MOL0     O52305   2.473   6.091   5.454 -0.4307  0.8746  0.4587
  380MOL0     C52306   2.574   6.141   5.529  0.4117 -0.6771  0.0938
  380MOL0     C52307   2.555   6.275   5.546  0.8839 -0.1138  0.1700
  380MOL0     C52308   2.642   6.354   5.608 -0.0100  0.2294  0.1716
  380MOL0     C52309   2.750   6.303   5.671 -0.6133  0.1716 -0.9674
  380MOL0     O52310   2.842   6.387   5.730  0.7757 -0.6556 -0.6822
  380MOL0     C52311   2.788   6.467   5.840  0.7504 -0.1084 -0.4089
  380MOL0     C52312   2.850   6.603   5.868  0.3753 -0.4299 -0.5514
  380MOL0     C52313   2.842   6.706   5.759  0.5251 -0.8012  0.0894
  380MOL0     C52314   2.884   6.841   5.821 -1.0940 -0.4085  0.4363
  380MOL0     C52315   2.877   6.947   5.711  0.2950 -0.0069  0.4095
  380MOL0     C52316   2.741   7.012   5.692 -0.7452  0.4806 -0.0251
  380MOL0     C52317   2.727   7.099   5.564 -0.4041  0.3896 -0.4679
  380MOL0     C52318   2.728   7.013   5.433  0.0842  0.5014 -0.4136
  380MOL0     N52319   2.624   6.919   5.422  0.3949  0.1764  1.0367
  380MOL0     C52320   2.506   6.942   5.366  0.2742 -0.4437 -0.8264
  380MOL0     C52321   2.444   6.826   5.357 -0.6626 -0.2923  1.0705
  380MOL0     C52322   2.320   6.791   5.289  0.3894  0.0163 -0.2827
  380MOL0     C52323   2.345   6.763   5.141  0.5065 -0.2952 -0.2505
  380MOL0     C52324   2.227   6.786   5.049  0.0735 -0.6565  0.3507
  380MOL0     C52325   2.261   6.778   4.902 -0.5271  0.9795  0.7831
  380MOL0     O52326   2.383   6.837   4.862 -0.4945 -0.4223  0.0383
  380MOL0     C52327   2.415   6.964   4.906  0.1882  0.6044  0.9087
  380MOL0     C52328   2.319   7.066   4.909  0.4107  0.5140 -0.7885
  380MOL0     C52329   2.350   7.192   4.969 -1.4861 -0.0458  0.5852
  380MOL0     C52330   2.241   7.299   4.967 -0.9356 -0.3962 -0.8381
  380MOL0     C52331   2.467   7.215   5.046 -0.3772  0.0947  0.6833
  380MOL0     C52332   2.491   7.335   5.133  0.1253  0.2314 -0.8342
  380MOL0     O52333   2.604   7.319   5.208  0.6896 -0.6278  0.6918
  380MOL0     C52334   2.621   7.391   5.320  0.3615  0.6817  0.3123
  380MOL0     C52335   2.732   7.475   5.323  1.2287  0.5126  0.1619
  380MOL0     C52336   2.759   7.558   5.435  0.4851  0.9382 -0.4705
  380MOL0     C52337   2.672   7.533   5.549  0.0593  0.4938 -0.2808
  380MOL0     O52338   2.694   7.595   5.668  0.1581  0.5601  0.7016
  380MOL0     C52339   2.801   7.539   5.743 -0.1434  0.2444  0.9040
  380MOL0     C52340   2.764   7.568   5.885 -0.1067 -0.2972  0.8032
  380MOL0     C52341   2.840   7.488   5.989 -0.1507 -0.4899  0.8502
  380MOL0     C52342   2.798   7.545   6.123 -0.5496 -0.9541  0.3820
  380MOL0     C52343   2.844   7.691   6.149 -0.1030 -0.3458 -0.5691
  380MOL0     C52344   2.839   7.735   6.290 -1.1743  0.8132  0.7579
  380MOL0     C52345   2.868   7.884   6.302  0.8674  0.4242 -0.0452
  380MOL0     C52346   2.844   7.926   6.446 -0.4259 -0.8329 -0.2809
  380MOL0    Cl52347   2.849   8.103   6.475  0.1281  0.3921  0.0313
  380MOL0     C52348   2.566   7.441   5.549  0.3896  0.4894  0.4397
  380MOL0     C52349   2.536   7.378   5.425 -0.2085 -0.0343 -0.6174
  380MOL0     O52350   2.425   7.437   5.136 -0.1040 -0.7876  0.5558
  380MOL0     C52351   2.570   7.118   5.029 -0.1736 -0.3967 -0.3701
  380MOL0     C52352   2.545   7.000   4.962  0.5538 -0.4320 -0.0218
  380MOL0     N52353   2.529   6.730   5.414 -0.4245  0.1020  0.2221
  380MOL0     N52354   2.643   6.786   5.446  0.6826  0.4699  0.1655
  380MOL0     C52355   2.777   6.167   5.664  0.0306  0.3435 -0.6513
  380MOL0     C52356   2.685   6.082   5.589  0.7660  0.1643  0.8717
  380MOL0     C52357   2.334   5.912   5.364 -0.8881  0.5313 -0.9380
  380MOL0     C52358   2.209   5.901   5.412  0.3088 -1.9638 -0.3712
  380MOL0     C52359   2.095   5.871   5.340  0.0142  0.4591 -0.1943
  380MOL0     C52360   2.116   5.834   5.201  0.8501 -0.2784  1.0811
  380MOL0     O52361   2.017   5.787   5.114 -0.0285 -1.0076  0.5990
  380MOL0     C52362   1.896   5.750   5.168  0.7108  0.6193 -0.2166
  380MOL0     C52363   1.811   5.721   5.045  0.5912  0.3914  0.2744
  380MOL0     C52364   1.832   5.568   4.993  0.4937  0.3872 -0.3069
  380MOL0     C52365   1.945   5.543   4.886  0.1874  0.0468  0.0927
  380MOL0     C52366   1.978   5.398   4.869  0.6606  0.4329 -0.1987
  380MOL0     C52367   2.004   5.278   4.875  0.4525 -0.6473 -0.2957
  380MOL0     C52368   2.244   5.842   5.149  0.5147  0.3763  0.3175
  380MOL0     C52369   2.358   5.888   5.228 -0.2755  1.4154  0.1577
  380MOL0     C52370   2.494   5.891   5.166 -0.0709 -0.4027  0.1342
  380MOL0     H52371   2.471   6.320   5.495 -0.7249  0.9947  3.5203
  380MOL0     H52372   2.619   6.460   5.602  0.2496  0.4397  2.3331
  380MOL0     H52373   2.800   6.414   5.935 -0.6840 -0.8289 -0.6004
  380MOL0     H52374   2.680   6.482   5.831  0.3304 -3.0336 -1.2965
  380MOL0     H52375   2.785   6.635   5.951 -0.7844  0.3105 -1.7088
  380MOL0     H52376   2.954   6.582   5.893  0.2227 -0.9589 -0.3165
  380MOL0     H52377   2.909   6.688   5.675  0.6398 -0.3545  0.0842
  380MOL0     H52378   2.736   6.717   5.732  0.6385  1.5179  0.4273
  380MOL0     H52379   2.825   6.880   5.905  2.7897  2.9651  1.9312
  380MOL0     H52380   2.990   6.838   5.849 -1.0974  3.1866  1.4218
  380MOL0     H52381   2.903   6.900   5.616  0.9105 -0.0663  0.5980
  380MOL0     H52382   2.953   7.026   5.718 -1.1715  1.5708 -0.6896
  380MOL0     H52383   2.659   6.942   5.676 -0.3805 -0.1821  0.9127
  380MOL0     H52384   2.729   7.070   5.784  1.7043 -0.4384  0.9703
  380MOL0     H52385   2.799   7.181   5.561 -0.8695  0.8940  1.2984
  380MOL0     H52386   2.624   7.134   5.573 -0.1795  1.1043 -0.6462
  380MOL0     H52387   2.733   7.092   5.358  2.5750 -0.0331 -0.9076
  380MOL0     H52388   2.824   6.959   5.431 -0.5776 -0.6714 -1.6374
  380MOL0     H52389   2.481   7.040   5.326  4.2136  0.7941 -0.7257
  380MOL0     H52390   2.241   6.867   5.294 -0.0884 -0.4953  0.1006
  380MOL0     H52391   2.280   6.702   5.339 -0.0055 -1.0052 -2.2834
  380MOL0     H52392   2.421   6.840   5.122 -1.5565  1.6215 -1.2070
  380MOL0     H52393   2.380   6.660   5.145  0.7361 -0.2226 -0.3628
  380MOL0     H52394   2.150   6.708   5.052  2.4545 -3.3460 -2.0250
  380MOL0     H52395   2.189   6.885   5.078  0.3344 -1.2669  3.0189
  380MOL0     H52396   2.267   6.674   4.869 -0.4582  1.6683 -1.5740
  380MOL0     H52397   2.174   6.823   4.852 -1.7370  0.4224  2.3092
  380MOL0     H52398   2.223   7.045   4.864 -0.1137  1.5455 -0.1824
  380MOL0     H52399   2.283   7.395   4.933  0.1943 -1.0921 -1.4715
  380MOL0     H52400   2.212   7.318   5.070 -0.6752 -1.1317 -0.6270
  380MOL0     H52401   2.151   7.267   4.913 -0.4605 -1.9407 -0.7567
  380MOL0     H52402   2.791   7.498   5.235  1.7096 -0.0602  0.3252
  380MOL0     H52403   2.845   7.622   5.444  2.8540 -2.0637  0.0177
  380MOL0     H52404   2.817   7.433   5.726 -1.6596  0.2090 -0.4785
  380MOL0     H52405   2.884   7.605   5.715 -1.6346  0.4786 -3.8702
  380MOL0     H52406   2.766   7.677   5.896 -2.4538 -0.0821 -0.4308
  380MOL0     H52407   2.659   7.541   5.893  0.9849 -4.7839  4.7510
  380MOL0     H52408   2.949   7.478   5.978 -0.4342 -2.0724 -1.2743
  380MOL0     H52409   2.798   7.387   5.985  0.0598 -0.6791  2.7013
  380MOL0     H52410   2.834   7.486   6.208  3.9097  1.9582  0.8300
  380MOL0     H52411   2.688   7.543   6.121 -0.5742  0.4609 -0.8409
  380MOL0     H52412   2.950   7.701   6.126  0.1017 -0.3535  0.3268
  380MOL0     H52413   2.782   7.766   6.099  1.0159 -0.2147 -1.7937
  380MOL0     H52414   2.907   7.675   6.351  1.1540 -0.5842 -2.8660
  380MOL0     H52415   2.742   7.706   6.332 -0.1256 -0.9692  2.0637
  380MOL0     H52416   2.803   7.940   6.235 -0.3081  1.6345  1.9965
  380MOL0     H52417   2.972   7.896   6.270  1.0931 -2.9370 -1.0055
  380MOL0     H52418   2.908   7.881   6.522 -3.2029  1.3880  3.7168
  380MOL0     H52419   2.747   7.888   6.479 -1.7812  1.2104 -1.6695
  380MOL0     H52420   2.507   7.408   5.634 -0.7345 -1.4698 -1.0245
  380MOL0     H52421   2.453   7.309   5.413 -0.8936  0.6371  0.1209
  380MOL0     H52422   2.668   7.134   5.073  0.3265  0.1983 -1.6746
  380MOL0     H52423   2.623   6.925   4.952 -0.2584 -1.1556 -1.5181
  380MOL0     H52424   2.868   6.125   5.706 -0.4710 -1.5541 -1.3611
  380MOL0     H52425   2.702   5.979   5.561 -1.9908  0.1768 -1.3514
  380MOL0     H52426   2.206   5.921   5.519 -1.8070  0.3049 -0.7557
  380MOL0     H52427   1.997   5.867   5.387 -0.2000 -2.4552 -0.7068
  380MOL0     H52428   1.901   5.677   5.248 -1.7750  1.3907  0.7485
  380MOL0     H52429   1.840   5.837   5.205 -1.4215 -1.0380  0.6207
  380MOL0     H52430   1.825   5.793   4.964  3.8909  0.6348  0.9116
  380MOL0     H52431   1.708   5.727   5.080  0.8392 -0.9383  1.3427
  380MOL0     H52432   1.877   5.516   5.078  2.5074 -1.8582 -2.5672
  380MOL0     H52433   1.741   5.523   4.953  1.4388 -0.2836 -1.7753
  380MOL0     H52434   2.034   5.598   4.917  0.2122 -1.4498  2.9954
  380MOL0     H52435   1.910   5.586   4.791 -1.9334 -2.5930 -0.4832
  380MOL0     H52436   2.017   5.172   4.888  0.8299 -0.4212  1.4210
  380MOL0     H52437   2.270   5.813   5.048 -2.1934 -0.0210 -0.3375
  380MOL0     H52438   2.503   5.808   5.095 -1.9632  0.1573 -0.8186
  380MOL0     H52439   2.511   5.984   5.112 -2.7842  1.8540  2.8567
  380MOL0     H52440   2.566   5.894   5.248 -0.4113  1.7033  0.4080
  381MOL0     O52441   8.714   1.480   7.703 -0.1652 -0.4311 -0.4733
  381MOL0     C52442   8.613   1.547   7.707  0.4985  0.2069  0.3413
  381MOL0     O52443   8.493   1.507   7.763 -0.2261  0.4576  0.3669
  381MOL0     C52444   8.508   1.399   7.848  0.3184  1.0960  0.6283
  381MOL0     C52445   8.460   1.275   7.809 -0.4519 -0.2754  0.4874
  381MOL0     C52446   8.475   1.162   7.884 -0.3987  0.3747  1.0871
  381MOL0     C52447   8.551   1.167   8.005 -0.1577  0.8152  0.4101
  381MOL0     O52448   8.571   1.066   8.093 -0.1233 -0.2537  0.1827
  381MOL0     C52449   8.501   0.940   8.071  0.6603  0.6173  0.2270
  381MOL0     C52450   8.494   0.851   8.199  0.5359 -0.5053  0.0882
  381MOL0     C52451   8.621   0.771   8.208 -0.9308 -0.3217 -0.8227
  381MOL0     C52452   8.628   0.685   8.346 -0.0904  0.0695  0.0213
  381MOL0     C52453   8.757   0.603   8.333 -0.1743 -0.4594  0.8928
  381MOL0     C52454   8.786   0.520   8.450  0.4209  0.0092 -0.5667
  381MOL0     C52455   8.914   0.439   8.428  0.0231 -0.2145 -0.6952
  381MOL0     C52456   8.960   0.350   8.546 -0.0907  0.6002 -0.3687
  381MOL0     N52457   8.861   0.259   8.602 -0.2771 -0.8411  0.6994
  381MOL0     C52458   8.751   0.294   8.672 -0.6370 -0.0318 -0.5657
  381MOL0     C52459   8.691   0.178   8.705 -0.7806 -0.0578  0.0111
  381MOL0     C52460   8.568   0.162   8.789 -0.0507 -0.4833 -1.0325
  381MOL0     C52461   8.603   0.063   8.898  0.7802 -0.3637  0.4741
  381MOL0     C52462   8.697   0.127   9.005  0.0350 -0.0153  0.7284
  381MOL0     C52463   8.768   0.033   9.094  0.3062 -0.6076  0.4119
  381MOL0     O52464   8.911   0.047   9.087  0.5520  0.3596 -0.1589
  381MOL0     C52465   8.979  -0.063   9.046  0.3008 -0.3849  0.2016
  381MOL0     C52466   8.995  -0.076   8.913  0.0765 -0.6449 -0.1646
  381MOL0     C52467   9.073  -0.179   8.859  0.0373 -0.5521  0.0597
  381MOL0     C52468   9.077  -0.186   8.710 -0.2701  0.3866 -0.6337
  381MOL0     C52469   9.136  -0.273   8.947 -0.0992  0.2034  0.0689
  381MOL0     C52470   9.233  -0.379   8.904 -0.0028 -0.3485 -0.0303
  381MOL0     O52471   9.311  -0.439   9.008 -0.2019 -0.2912  0.4628
  381MOL0     C52472   9.405  -0.534   8.974  0.4237  0.1824 -0.5725
  381MOL0     C52473   9.381  -0.665   9.018 -0.5862 -0.0259 -0.7441
  381MOL0     C52474   9.472  -0.762   8.995 -0.4089 -0.1809 -0.2146
  381MOL0     C52475   9.574  -0.734   8.904  0.0476 -0.5257  0.5311
  381MOL0     O52476   9.664  -0.828   8.872 -0.3627  0.4793 -0.3377
  381MOL0     C52477   9.755  -0.853   8.981 -1.0849  0.2024 -0.3300
  381MOL0     C52478   9.857  -0.952   8.943  0.8041 -0.3373 -0.1682
  381MOL0     C52479   9.946  -0.991   9.071  0.2777 -0.5934  0.9224
  381MOL0     C52480  10.002  -0.875   9.148 -0.6900 -0.2701  0.1036
  381MOL0     C52481  10.104  -0.930   9.247  0.3215 -0.2508 -0.5302
  381MOL0     C52482  10.255  -0.927   9.228  0.4447  0.4844  0.5429
  381MOL0     C52483  10.301  -1.015   9.112 -0.2437  0.1843  0.8524
  381MOL0     C52484  10.443  -1.062   9.145 -0.0307 -0.0102 -0.0639
  381MOL0    Cl52485  10.464  -1.201   9.030 -0.0902  0.0164 -0.1110
  381MOL0     C52486   9.599  -0.600   8.859  0.3452 -0.4621 -1.3829
  381MOL0     C52487   9.508  -0.496   8.896 -0.3147 -0.3861 -0.2442
  381MOL0     O52488   9.232  -0.419   8.793 -0.3192 -0.5353 -0.5403
  381MOL0     C52489   9.127  -0.249   9.090  0.1440 -0.0424  1.6026
  381MOL0     C52490   9.044  -0.151   9.138  0.6858 -0.1451  0.4853
  381MOL0     N52491   8.757   0.072   8.637  0.3824  0.2585 -0.8256
  381MOL0     N52492   8.855   0.124   8.580  0.1812 -0.1404  0.9239
  381MOL0     C52493   8.606   1.289   8.042 -0.3215 -0.8288 -0.3243
  381MOL0     C52494   8.577   1.407   7.969  0.3775  0.2336 -1.3917
  381MOL0     C52495   8.629   1.691   7.637 -0.6086  0.2986  0.3435
  381MOL0     C52496   8.514   1.767   7.617  0.6704 -0.5379 -1.1221
  381MOL0     C52497   8.525   1.895   7.565 -0.3560  1.0029  0.4389
  381MOL0     C52498   8.642   1.954   7.523  0.5426  0.0069 -0.3278
  381MOL0     O52499   8.624   2.084   7.493 -0.6591  0.1585 -0.2889
  381MOL0     C52500   8.739   2.168   7.437 -0.7605  0.5806 -0.0208
  381MOL0     C52501   8.690   2.255   7.330 -1.2317 -0.4490  0.1290
  381MOL0     C52502   8.583   2.355   7.363 -0.1350 -0.2791  0.0346
  381MOL0     C52503   8.513   2.402   7.240 -1.0219  0.2824 -0.5381
  381MOL0     C52504   8.615   2.458   7.139 -1.1814  0.1189 -0.2568
  381MOL0     C52505   8.709   2.500   7.073 -0.3506 -0.3159 -0.8444
  381MOL0     C52506   8.755   1.875   7.519 -0.9380  0.3904  0.1654
  381MOL0     C52507   8.749   1.748   7.586  0.0739  0.3695 -0.6316
  381MOL0     C52508   8.877   1.672   7.596  0.5807 -0.5865 -0.1246
  381MOL0     H52509   8.398   1.283   7.721 -1.3623  0.5780  1.1825
  381MOL0     H52510   8.430   1.068   7.852  0.2519  0.3697  0.1040
  381MOL0     H52511   8.560   0.887   7.996 -0.8942 -2.9177  1.2704
  381MOL0     H52512   8.395   0.949   8.042  0.6712  3.9695  0.8849
  381MOL0     H52513   8.477   0.909   8.291 -0.9942 -0.0876 -0.4218
  381MOL0     H52514   8.413   0.779   8.184  1.2904 -1.0619 -1.4982
  381MOL0     H52515   8.619   0.704   8.122  0.0970  0.8189 -1.7697
  381MOL0     H52516   8.712   0.832   8.197  0.4969 -1.5032  2.7539
  381MOL0     H52517   8.628   0.752   8.433  1.1905 -0.7801  0.7138
  381MOL0     H52518   8.545   0.615   8.344 -0.7878  0.8861 -1.5429
  381MOL0     H52519   8.843   0.671   8.324 -1.1178  1.3411  3.8806
  381MOL0     H52520   8.760   0.540   8.244  0.5721 -0.0724  0.6312
  381MOL0     H52521   8.784   0.576   8.544  2.3911  1.3904 -1.2728
  381MOL0     H52522   8.702   0.452   8.467  0.3025 -0.0367 -1.3247
  381MOL0     H52523   8.992   0.511   8.404  1.8196 -0.3186  3.7997
  381MOL0     H52524   8.904   0.369   8.345  0.0345 -1.7332  0.5230
  381MOL0     H52525   9.045   0.289   8.516 -0.7241 -0.9920  0.8984
  381MOL0     H52526   8.996   0.417   8.625  1.4293 -0.7333  0.1232
  381MOL0     H52527   8.724   0.395   8.702  0.9255  0.3130 -0.2598
  381MOL0     H52528   8.493   0.119   8.722 -2.4682 -0.6740  1.6015
  381MOL0     H52529   8.531   0.257   8.830  1.8294  0.6412 -1.8061
  381MOL0     H52530   8.510   0.023   8.941 -0.2707  1.4016 -0.0225
  381MOL0     H52531   8.659  -0.019   8.854 -1.8420 -1.1461 -1.6318
  381MOL0     H52532   8.773   0.190   8.958  0.3840 -1.7798 -1.2303
  381MOL0     H52533   8.648   0.195   9.075 -0.6886 -1.1351  1.3321
  381MOL0     H52534   8.728   0.040   9.195 -0.1667 -0.4979  0.2218
  381MOL0     H52535   8.731  -0.067   9.069 -1.0546  0.3787 -1.9801
  381MOL0     H52536   8.931  -0.007   8.858  0.2374  0.9672  1.5770
  381MOL0     H52537   9.183  -0.179   8.684 -0.2008 -2.2110 -1.3970
  381MOL0     H52538   9.012  -0.114   8.660  1.1612 -0.3614 -3.8076
  381MOL0     H52539   9.051  -0.283   8.665 -0.6674  0.3487 -0.3286
  381MOL0     H52540   9.297  -0.673   9.086 -0.5424 -1.6112 -0.8419
  381MOL0     H52541   9.481  -0.865   9.028  2.1305 -1.0486 -3.1575
  381MOL0     H52542   9.811  -0.762   9.007 -0.4583 -0.6345  1.4321
  381MOL0     H52543   9.707  -0.882   9.075 -0.0309 -1.9867 -0.4067
  381MOL0     H52544   9.801  -1.041   8.914  0.5805 -0.5579  0.8997
  381MOL0     H52545   9.911  -0.909   8.859  1.2436  1.8866  1.1626
  381MOL0     H52546  10.026  -1.060   9.042  0.1424  0.1835 -1.5221
  381MOL0     H52547   9.882  -1.056   9.132 -1.0306 -0.4499 -0.2440
  381MOL0     H52548   9.928  -0.815   9.202  2.4850  2.4919  1.7546
  381MOL0     H52549  10.059  -0.806   9.085 -3.8927  2.9142  0.3240
  381MOL0     H52550  10.102  -0.874   9.342  3.5468 -2.1925  0.8369
  381MOL0     H52551  10.070  -1.031   9.272  3.6760 -1.4203 -0.1305
  381MOL0     H52552  10.302  -0.950   9.324  1.9976 -1.1107 -0.5360
  381MOL0     H52553  10.275  -0.821   9.213 -0.4503  0.6725  0.6641
  381MOL0     H52554  10.305  -0.968   9.013  0.7745 -1.9033 -0.1627
  381MOL0     H52555  10.235  -1.101   9.103  1.3674 -0.9298 -0.9128
  381MOL0     H52556  10.455  -1.091   9.249  1.0534 -0.0934 -0.2021
  381MOL0     H52557  10.520  -0.989   9.117  1.0311 -0.8057  0.7025
  381MOL0     H52558   9.690  -0.595   8.801  0.4244 -0.9520 -1.3058
  381MOL0     H52559   9.519  -0.391   8.871 -2.9391  0.2016  0.7714
  381MOL0     H52560   9.180  -0.316   9.157  2.0522 -3.7638 -3.0465
  381MOL0     H52561   9.032  -0.139   9.245 -2.7741  1.1971  0.0914
  381MOL0     H52562   8.673   1.293   8.128 -2.6921 -2.1514  1.7384
  381MOL0     H52563   8.625   1.501   7.991  2.3123 -1.2327  1.2101
  381MOL0     H52564   8.414   1.735   7.644  0.7871 -0.0784 -0.0785
  381MOL0     H52565   8.433   1.952   7.567 -1.1883 -0.3082  1.7622
  381MOL0     H52566   8.779   2.236   7.513  0.9333 -1.3194  0.8988
  381MOL0     H52567   8.822   2.109   7.396 -1.0455  0.0070  0.2144
  381MOL0     H52568   8.642   2.201   7.248 -3.9096 -0.0544  1.3257
  381MOL0     H52569   8.778   2.307   7.292 -0.8758 -2.0512 -1.3482
  381MOL0     H52570   8.510   2.311   7.431 -1.4282 -1.2056 -1.8882
  381MOL0     H52571   8.623   2.437   7.424  1.7938  0.0107 -1.4940
  381MOL0     H52572   8.437   2.478   7.261  0.0816  1.0255  0.9607
  381MOL0     H52573   8.468   2.313   7.196  4.0569 -2.1889 -1.4342
  381MOL0     H52574   8.801   2.545   7.045 -0.0151 -1.1563 -1.1358
  381MOL0     H52575   8.853   1.908   7.487 -0.8933 -0.8374 -1.0579
  381MOL0     H52576   8.872   1.579   7.537  0.4692 -0.7390  0.1218
  381MOL0     H52577   8.957   1.730   7.550  0.5018  0.9429  1.5570
  381MOL0     H52578   8.911   1.640   7.695  0.4545  3.0334  1.2461
  382MOL0     O52579   0.080   6.852   0.342 -0.8149 -1.1467 -0.1699
  382MOL0     C52580   0.090   6.794   0.243  0.2365  0.3477  0.1461
  382MOL0     O52581   0.192   6.801   0.147 -0.1468 -0.7137  0.2436
  382MOL0     C52582   0.283   6.899   0.180 -0.7505  0.0345  0.0446
  382MOL0     C52583   0.339   6.973   0.082 -0.4117 -0.4710 -0.2293
  382MOL0     C52584   0.452   7.060   0.112  0.0823 -0.1103 -0.2268
  382MOL0     C52585   0.518   7.046   0.232  0.3170 -0.6407 -0.1881
  382MOL0     O52586   0.618   7.134   0.267  0.3492 -0.6453 -0.4143
  382MOL0     C52587   0.746   7.127   0.196 -0.8288  0.3624  0.5195
  382MOL0     C52588   0.838   7.233   0.269 -0.8394  0.3085 -0.4637
  382MOL0     C52589   0.986   7.202   0.250  0.7317 -0.0988 -0.1986
  382MOL0     C52590   1.029   7.220   0.099 -0.5546  0.1662 -0.3216
  382MOL0     C52591   1.183   7.245   0.088 -0.1576 -0.4422  0.7482
  382MOL0     C52592   1.230   7.252  -0.063 -0.0501  0.3898  0.3817
  382MOL0     C52593   1.381   7.212  -0.071 -0.2363  0.4064 -0.5497
  382MOL0     C52594   1.476   7.324  -0.050 -0.0469  0.6567 -0.2442
  382MOL0     N52595   1.620   7.288  -0.057  0.0954 -0.8068 -1.1198
  382MOL0     C52596   1.686   7.205   0.033  0.1540  0.2242  0.4507
  382MOL0     C52597   1.802   7.179  -0.029 -0.9169 -1.3269  0.2602
  382MOL0     C52598   1.908   7.086   0.019 -0.4103 -0.0378 -0.3719
  382MOL0     C52599   1.858   6.956  -0.038 -0.6153 -0.3482  0.4669
  382MOL0     C52600   1.956   6.843  -0.001 -0.0350 -0.1330 -0.1002
  382MOL0     C52601   1.929   6.697  -0.052  0.0228 -0.1243  0.1904
  382MOL0     O52602   1.822   6.637   0.017  0.0729 -0.0338 -0.3414
  382MOL0     C52603   1.795   6.506  -0.009 -0.9288 -0.1820  1.0438
  382MOL0     C52604   1.674   6.465   0.040  0.3557  0.5523  0.7156
  382MOL0     C52605   1.615   6.339   0.013 -0.5759  0.7066  0.5791
  382MOL0     C52606   1.483   6.325   0.072 -0.1919  0.5501  0.2080
  382MOL0     C52607   1.702   6.247  -0.061  0.5413  0.1566 -0.2815
  382MOL0     C52608   1.664   6.095  -0.078  0.0540  0.5035  0.4306
  382MOL0     O52609   1.769   6.009  -0.081  0.6246 -0.1759 -0.0114
  382MOL0     C52610   1.747   5.879  -0.120 -0.1163 -0.4804 -0.9257
  382MOL0     C52611   1.795   5.769  -0.045 -0.1720 -0.2513  0.9513
  382MOL0     C52612   1.758   5.640  -0.066 -0.9587  0.5046  0.7744
  382MOL0     C52613   1.676   5.618  -0.179 -0.5595 -0.0030 -1.3152
  382MOL0     O52614   1.633   5.494  -0.213  0.5033  0.7947  0.8202
  382MOL0     C52615   1.606   5.385  -0.125  0.1273 -0.8130 -0.0007
  382MOL0     C52616   1.728   5.290  -0.120 -1.6492  0.8596  0.8553
  382MOL0     C52617   1.707   5.172  -0.025  0.3750 -0.3684 -0.3366
  382MOL0     C52618   1.829   5.083  -0.027  0.1466 -0.0590 -0.4088
  382MOL0     C52619   1.837   4.980   0.079  0.1983 -0.6652  1.1799
  382MOL0     C52620   1.861   5.045   0.210  0.2075 -0.5956  0.2663
  382MOL0     C52621   1.918   4.941   0.318  0.5497 -0.6388  0.3822
  382MOL0     C52622   1.895   4.995   0.459  0.2100  0.2500 -0.1275
  382MOL0    Cl52623   1.970   4.882   0.582  0.0798  0.0795  0.0982
  382MOL0     C52624   1.635   5.717  -0.269 -0.6712  0.3339  0.8459
  382MOL0     C52625   1.670   5.847  -0.235 -1.0400 -0.1099  0.5738
  382MOL0     O52626   1.544   6.059  -0.076 -0.4486 -1.4663  0.3727
  382MOL0     C52627   1.825   6.291  -0.114 -0.9498 -0.6684  0.4417
  382MOL0     C52628   1.872   6.421  -0.087 -0.3135  0.0597  0.1466
  382MOL0     N52629   1.806   7.244  -0.151 -0.4634 -0.0603 -0.7133
  382MOL0     N52630   1.698   7.297  -0.172 -0.1152  0.0280 -0.6627
  382MOL0     C52631   0.473   6.951   0.319 -0.4784 -0.3465 -0.0065
  382MOL0     C52632   0.365   6.879   0.298  0.2102  0.6706  0.3670
  382MOL0     C52633  -0.017   6.695   0.218 -0.5565 -0.5225 -0.2656
  382MOL0     C52634  -0.087   6.704   0.088 -0.5527 -0.1197 -0.7531
  382MOL0     C52635  -0.189   6.618   0.052  0.1206 -0.4695 -0.2619
  382MOL0     C52636  -0.223   6.519   0.149  0.7404  0.2151  0.0787
  382MOL0     O52637  -0.328   6.435   0.116  0.4953 -0.2364  0.6348
  382MOL0     C52638  -0.401   6.349   0.203 -0.1237  0.1563  0.2997
  382MOL0     C52639  -0.539   6.350   0.147 -0.7472  0.4304  0.0883
  382MOL0     C52640  -0.555   6.270   0.016 -0.4871  0.4345  0.6235
  382MOL0     C52641  -0.564   6.109   0.027 -0.5523 -0.8000  0.3398
  382MOL0     C52642  -0.539   6.066  -0.116 -0.0695  0.0337 -0.9486
  382MOL0     C52643  -0.498   6.027  -0.221  0.2605  0.0739  0.0638
  382MOL0     C52644  -0.161   6.516   0.275  0.3321  0.4380  0.0762
  382MOL0     C52645  -0.061   6.599   0.310  0.2698 -0.0794 -0.1740
  382MOL0     C52646   0.001   6.593   0.448 -0.0200 -1.0862 -0.3445
  382MOL0     H52647   0.280   6.987  -0.008 -1.9685 -0.7615  0.7020
  382MOL0     H52648   0.468   7.135   0.035  0.2342 -0.6838 -0.7584
  382MOL0     H52649   0.735   7.127   0.087 -0.7023  1.1152  0.5024
  382MOL0     H52650   0.793   7.029   0.210 -1.2312 -0.3469 -2.3784
  382MOL0     H52651   0.811   7.334   0.234  2.4862  0.7343 -2.1658
  382MOL0     H52652   0.817   7.212   0.374 -3.2228  0.8483 -0.7577
  382MOL0     H52653   1.031   7.278   0.315  1.1110 -0.7498  0.3180
  382MOL0     H52654   1.012   7.104   0.291  5.6262  0.2633 -1.7616
  382MOL0     H52655   0.999   7.130   0.045 -4.7787  0.8588  0.5115
  382MOL0     H52656   0.967   7.297   0.053 -0.1850  0.9837  0.5205
  382MOL0     H52657   1.240   7.160   0.129  1.3611 -0.2413 -0.8170
  382MOL0     H52658   1.211   7.338   0.138  1.4941  0.4683 -1.6427
  382MOL0     H52659   1.158   7.194  -0.122  1.0374  0.1433 -0.7247
  382MOL0     H52660   1.217   7.354  -0.100 -2.4532  0.3676  0.9615
  382MOL0     H52661   1.395   7.163  -0.168 -3.0247 -1.6463 -0.0699
  382MOL0     H52662   1.398   7.130  -0.000  0.6614 -2.6515 -3.9890
  382MOL0     H52663   1.458   7.408  -0.119 -0.5603  1.5666  0.9473
  382MOL0     H52664   1.460   7.373   0.047 -0.4138 -0.4373  0.2586
  382MOL0     H52665   1.655   7.184   0.134  2.1761  1.9341  1.5123
  382MOL0     H52666   1.908   7.083   0.129 -0.2675  1.2514 -0.3180
  382MOL0     H52667   2.006   7.113  -0.019  1.3291 -2.8744  1.6985
  382MOL0     H52668   1.763   6.924   0.006 -0.0006 -0.8302  1.4912
  382MOL0     H52669   1.849   6.973  -0.145  0.3318  2.3168  0.7308
  382MOL0     H52670   2.041   6.887  -0.054  1.1341 -1.3064  0.7294
  382MOL0     H52671   1.972   6.850   0.107  0.3296  0.4645 -0.1886
  382MOL0     H52672   1.924   6.695  -0.161  1.5551  0.3434  0.0849
  382MOL0     H52673   2.018   6.638  -0.028 -0.8278 -0.4441  2.9866
  382MOL0     H52674   1.627   6.535   0.108 -0.4956  0.9235 -0.2167
  382MOL0     H52675   1.448   6.415   0.122 -3.6397 -0.6705  0.2382
  382MOL0     H52676   1.475   6.238   0.137  2.4333 -2.2900 -2.8815
  382MOL0     H52677   1.416   6.300  -0.011  0.0366  1.1520 -0.1617
  382MOL0     H52678   1.851   5.791   0.045 -0.4857  1.3904  0.7864
  382MOL0     H52679   1.807   5.561  -0.010  2.1147  2.6753  1.4555
  382MOL0     H52680   1.588   5.436  -0.030 -1.9067  1.2600 -1.3981
  382MOL0     H52681   1.515   5.326  -0.140  1.2037 -2.2305 -1.2585
  382MOL0     H52682   1.754   5.258  -0.222 -0.0983 -0.0371  1.5023
  382MOL0     H52683   1.820   5.336  -0.082 -0.1647 -1.5169  0.3796
  382MOL0     H52684   1.621   5.116  -0.062  1.3790 -0.9324 -1.9366
  382MOL0     H52685   1.682   5.208   0.075  1.5597 -0.9742  0.1967
  382MOL0     H52686   1.913   5.152  -0.019 -0.5524  0.6317  1.9264
  382MOL0     H52687   1.831   5.041  -0.128  0.7113  4.5571 -2.5696
  382MOL0     H52688   1.741   4.928   0.087 -1.0110  1.3692  0.5083
  382MOL0     H52689   1.927   4.920   0.064  0.4703 -0.0537  0.2580
  382MOL0     H52690   1.759   5.062   0.245 -0.5541 -0.6017 -1.8156
  382MOL0     H52691   1.900   5.147   0.204 -4.0041  1.2121  0.3989
  382MOL0     H52692   2.025   4.943   0.299  0.7514  0.7184  1.4676
  382MOL0     H52693   1.876   4.842   0.301  0.1080 -0.2027 -1.3045
  382MOL0     H52694   1.791   5.010   0.490  1.0752  2.4219  2.0127
  382MOL0     H52695   1.951   5.089   0.462 -0.2188  0.5393  3.7315
  382MOL0     H52696   1.571   5.694  -0.354 -0.7191 -3.8343  1.8060
  382MOL0     H52697   1.638   5.931  -0.296 -0.2350  1.9843  2.8803
  382MOL0     H52698   1.883   6.216  -0.167  2.6237  1.7374  0.6055
  382MOL0     H52699   1.965   6.455  -0.131  0.4877 -2.6011 -0.3609
  382MOL0     H52700   0.528   6.943   0.412  0.8853  0.4497 -0.7190
  382MOL0     H52701   0.339   6.793   0.360  1.7238 -0.9793 -1.1575
  382MOL0     H52702  -0.064   6.785   0.019  0.6790  0.0071 -0.2148
  382MOL0     H52703  -0.242   6.619  -0.043  1.2726  0.5202 -0.9308
  382MOL0     H52704  -0.354   6.250   0.194 -0.4015  0.1011 -0.7581
  382MOL0     H52705  -0.406   6.385   0.306 -1.9386  0.0212  0.2879
  382MOL0     H52706  -0.576   6.452   0.138  1.4532  1.1343 -2.2300
  382MOL0     H52707  -0.606   6.303   0.219 -2.3574  0.2548 -1.4455
  382MOL0     H52708  -0.643   6.301  -0.041  0.0146 -0.0666 -0.4675
  382MOL0     H52709  -0.474   6.297  -0.053  0.6724 -2.0987  0.8863
  382MOL0     H52710  -0.657   6.082   0.077  0.0019  0.7423  2.3157
  382MOL0     H52711  -0.491   6.057   0.090 -0.3076  0.1320  0.8312
  382MOL0     H52712  -0.462   5.990  -0.315 -1.9149 -1.1469 -0.3429
  382MOL0     H52713  -0.193   6.442   0.347 -4.3334  0.8810 -1.2299
  382MOL0     H52714  -0.059   6.663   0.508  2.3471 -1.1915  2.3611
  382MOL0     H52715  -0.000   6.495   0.496 -1.1102 -0.2912  1.3632
  382MOL0     H52716   0.105   6.624   0.436  0.2085 -2.1603 -1.2233
  383MOL0     O52717   4.585   4.193   4.675 -0.2181  0.4770  0.1699
  383MOL0     C52718   4.498   4.274   4.639 -0.5895  0.2781  0.3436
  383MOL0     O52719   4.403   4.314   4.724  0.4372 -0.3464  0.4399
  383MOL0     C52720   4.425   4.324   4.863  0.2970  1.0775  0.2834
  383MOL0     C52721   4.547   4.375   4.917  0.2900 -0.4548 -0.2937
  383MOL0     C52722   4.561   4.400   5.056  0.9215 -0.2699 -0.4755
  383MOL0     C52723   4.452   4.362   5.143 -0.9737 -0.9779 -0.2212
  383MOL0     O52724   4.455   4.393   5.270  0.2676 -0.1621  0.0588
  383MOL0     C52725   4.536   4.503   5.314 -0.3085  0.2745 -1.4915
  383MOL0     C52726   4.555   4.533   5.469 -0.1409  0.3942 -0.0747
  383MOL0     C52727   4.548   4.403   5.562 -0.1385 -0.0985 -0.7269
  383MOL0     C52728   4.652   4.291   5.523 -0.0082  0.1837 -0.2916
  383MOL0     C52729   4.661   4.159   5.597  0.7389 -1.5137 -0.0589
  383MOL0     C52730   4.704   4.178   5.744  0.5144  1.2602  0.3332
  383MOL0     C52731   4.852   4.195   5.760  0.5430 -0.0456 -0.3257
  383MOL0     C52732   4.922   4.061   5.769 -0.3844 -0.2898  0.5070
  383MOL0     N52733   5.062   4.079   5.805  0.1150  0.0558 -0.1018
  383MOL0     C52734   5.119   4.105   5.929  0.0080 -0.0132 -0.0921
  383MOL0     C52735   5.253   4.128   5.906 -0.7308 -0.3911 -0.2339
  383MOL0     C52736   5.356   4.128   6.017  0.4110 -0.0960 -0.0747
  383MOL0     C52737   5.502   4.096   5.972 -0.2351  0.1858 -0.5802
  383MOL0     C52738   5.515   3.964   5.902  0.6420  0.7068  1.6808
  383MOL0     C52739   5.660   3.931   5.889 -0.1487 -0.2047 -0.3114
  383MOL0     O52740   5.670   3.795   5.839  0.6494 -0.0705  0.6473
  383MOL0     C52741   5.784   3.729   5.850 -0.1362  0.5594 -0.1433
  383MOL0     C52742   5.914   3.797   5.865 -0.2923  0.0244  0.2993
  383MOL0     C52743   6.033   3.729   5.860 -1.0350  0.7559  0.0685
  383MOL0     C52744   6.169   3.805   5.871  0.9009 -0.3990 -0.5360
  383MOL0     C52745   6.036   3.587   5.849  0.5515 -0.1434  0.7911
  383MOL0     C52746   6.162   3.516   5.835 -1.1937  0.5450  0.3694
  383MOL0     O52747   6.253   3.568   5.750  0.1763  0.0273 -0.5746
  383MOL0     C52748   6.352   3.479   5.701  0.2457  0.0287  0.1979
  383MOL0     C52749   6.349   3.340   5.678 -0.0980  0.1606 -0.2165
  383MOL0     C52750   6.456   3.273   5.620 -0.2621 -0.1089 -1.5945
  383MOL0     C52751   6.570   3.339   5.571 -0.7183 -0.2079 -0.9596
  383MOL0     O52752   6.664   3.269   5.500 -0.2867  0.1699  0.0342
  383MOL0     C52753   6.745   3.338   5.401 -0.5706  0.2457 -0.4775
  383MOL0     C52754   6.796   3.236   5.289  0.3887 -0.0876 -0.2041
  383MOL0     C52755   6.858   3.312   5.179  0.4088 -0.9128  0.4609
  383MOL0     C52756   6.997   3.366   5.216  0.1224 -0.1471 -0.1130
  383MOL0     C52757   7.007   3.516   5.204 -0.1572  0.1214  0.5322
  383MOL0     C52758   7.136   3.568   5.258  0.1351  0.0403 -0.0875
  383MOL0     C52759   7.263   3.507   5.200 -0.5417  0.3461 -0.2577
  383MOL0     C52760   7.267   3.505   5.048 -0.0734 -0.5696 -0.1892
  383MOL0    Cl52761   7.417   3.432   4.976  0.2815  0.1980  0.0236
  383MOL0     C52762   6.578   3.474   5.607  0.0115  1.3260 -0.2714
  383MOL0     C52763   6.476   3.544   5.670  0.0233 -0.1089 -0.6059
  383MOL0     O52764   6.181   3.406   5.894  0.8588 -0.1540 -0.2932
  383MOL0     C52765   5.911   3.521   5.833 -0.5820  1.1717 -0.0406
  383MOL0     C52766   5.789   3.592   5.828  0.1077  0.4342  0.4525
  383MOL0     N52767   5.269   4.117   5.764  0.2089 -0.5014 -0.8267
  383MOL0     N52768   5.157   4.072   5.712  0.0675 -0.6766  0.2296
  383MOL0     C52769   4.346   4.295   5.097 -0.0755 -0.3335 -1.0270
  383MOL0     C52770   4.334   4.270   4.960  0.2217 -0.0021 -0.7620
  383MOL0     C52771   4.500   4.345   4.503  0.1868  0.5116  0.2557
  383MOL0     C52772   4.601   4.302   4.412 -0.0337  0.6876  0.2685
  383MOL0     C52773   4.612   4.356   4.289  0.2975  0.6721 -0.1330
  383MOL0     C52774   4.522   4.456   4.251 -0.2949  0.5459 -0.8445
  383MOL0     O52775   4.541   4.526   4.133 -0.5398  0.8688  0.3049
  383MOL0     C52776   4.601   4.654   4.152  0.5937  0.6477 -0.1729
  383MOL0     C52777   4.634   4.720   4.019  0.2346  0.2074 -0.0598
  383MOL0     C52778   4.520   4.734   3.914 -0.5719 -0.0685  0.0479
  383MOL0     C52779   4.382   4.777   3.987 -0.1418 -0.1657 -0.0961
  383MOL0     C52780   4.407   4.907   4.056  0.3442  0.2760  0.1655
  383MOL0     C52781   4.432   5.014   4.106 -0.1379 -0.6800 -0.3897
  383MOL0     C52782   4.410   4.483   4.329  0.4356 -0.8207  0.3637
  383MOL0     C52783   4.401   4.434   4.457  0.5457 -0.9603  0.2518
  383MOL0     C52784   4.287   4.483   4.533  0.0706 -0.7447  0.8252
  383MOL0     H52785   4.615   4.408   4.839  0.4419 -2.3002 -0.9958
  383MOL0     H52786   4.654   4.446   5.088  0.4529  0.3527  0.0263
  383MOL0     H52787   4.495   4.594   5.270  0.0930  0.6487 -1.1032
  383MOL0     H52788   4.639   4.484   5.283 -0.4019 -0.6880 -1.2467
  383MOL0     H52789   4.647   4.589   5.490  2.1182 -3.0264 -0.0642
  383MOL0     H52790   4.472   4.597   5.501  0.0577  1.0900 -0.9227
  383MOL0     H52791   4.568   4.434   5.665  0.7724 -1.5876 -0.4326
  383MOL0     H52792   4.445   4.366   5.566  0.2446 -1.3562  3.8009
  383MOL0     H52793   4.635   4.272   5.416  0.5379  1.2872 -0.5968
  383MOL0     H52794   4.748   4.344   5.529 -2.2104  4.3364  1.8861
  383MOL0     H52795   4.734   4.097   5.544  1.4473  0.3312 -1.3255
  383MOL0     H52796   4.564   4.111   5.581  0.2139 -0.5358  0.1199
  383MOL0     H52797   4.632   4.254   5.776 -3.4511 -1.2192 -1.9970
  383MOL0     H52798   4.685   4.091   5.807 -2.0139  1.0499 -0.6393
  383MOL0     H52799   4.867   4.241   5.858  3.4051  0.4686 -0.9165
  383MOL0     H52800   4.886   4.265   5.682 -0.9984  1.5360  0.3360
  383MOL0     H52801   4.874   3.990   5.837  1.1043 -3.2900 -1.3600
  383MOL0     H52802   4.906   4.015   5.671 -1.8156  0.6083  0.2762
  383MOL0     H52803   5.075   4.121   6.027 -3.8518 -1.6568 -1.3288
  383MOL0     H52804   5.332   4.054   6.094  0.5444 -0.2126 -0.1427
  383MOL0     H52805   5.350   4.228   6.060 -1.3146  1.0335 -2.6826
  383MOL0     H52806   5.546   4.173   5.908  3.3239 -0.1565  1.1919
  383MOL0     H52807   5.560   4.106   6.064 -0.3033  0.3783 -0.5578
  383MOL0     H52808   5.467   3.884   5.959  0.0388 -0.4743 -0.3624
  383MOL0     H52809   5.476   3.965   5.800 -3.4186 -3.6758  2.8462
  383MOL0     H52810   5.712   4.000   5.822 -2.0441 -0.5766 -2.2910
  383MOL0     H52811   5.706   3.930   5.988 -2.7679 -1.8030  1.0003
  383MOL0     H52812   5.926   3.904   5.878 -0.5495  0.0637  0.2179
  383MOL0     H52813   6.211   3.812   5.769  0.3957  1.0779 -0.6762
  383MOL0     H52814   6.234   3.745   5.935 -2.4422 -0.5064  3.1105
  383MOL0     H52815   6.152   3.906   5.909 -0.3385 -0.7818 -0.0569
  383MOL0     H52816   6.268   3.270   5.697  2.2809 -2.3136  1.7116
  383MOL0     H52817   6.464   3.165   5.625 -3.4982 -0.4122 -1.1732
  383MOL0     H52818   6.691   3.421   5.355  0.9874  2.2355  1.1242
  383MOL0     H52819   6.834   3.380   5.449 -1.7613  0.6404  1.5214
  383MOL0     H52820   6.862   3.159   5.332  2.5234  2.8381  2.2236
  383MOL0     H52821   6.710   3.180   5.251 -2.1504  1.6779  2.4562
  383MOL0     H52822   6.788   3.385   5.138  1.9121  1.1111  1.2847
  383MOL0     H52823   6.870   3.235   5.102  4.2043  1.2870 -1.4379
  383MOL0     H52824   7.071   3.311   5.157  0.2430 -1.2270  0.9876
  383MOL0     H52825   7.014   3.342   5.322 -2.3076  0.4256  0.4661
  383MOL0     H52826   6.996   3.534   5.097 -0.9922  0.4492  0.6613
  383MOL0     H52827   6.928   3.561   5.265 -1.2256  0.7815 -1.2607
  383MOL0     H52828   7.139   3.539   5.364 -2.1073  1.7601  0.5011
  383MOL0     H52829   7.143   3.677   5.256  0.1223  0.1313  2.3324
  383MOL0     H52830   7.283   3.403   5.227  0.6998  0.9045  1.0810
  383MOL0     H52831   7.348   3.566   5.234 -0.6425  0.0431  0.5348
  383MOL0     H52832   7.251   3.611   5.025  4.1487  0.2498 -0.1010
  383MOL0     H52833   7.179   3.449   5.015 -1.3420  0.8225  0.6545
  383MOL0     H52834   6.674   3.521   5.586  0.0371  1.2503 -0.3246
  383MOL0     H52835   6.478   3.647   5.704 -0.3745 -0.8248  1.7483
  383MOL0     H52836   5.912   3.413   5.818 -1.1536  1.2493 -0.6886
  383MOL0     H52837   5.701   3.539   5.794  1.1136 -0.3928 -0.9712
  383MOL0     H52838   4.276   4.271   5.176  4.1328 -1.2413  2.8402
  383MOL0     H52839   4.248   4.212   4.930  0.7000 -1.4302  0.4966
  383MOL0     H52840   4.655   4.217   4.452 -4.0162 -1.0278  2.5700
  383MOL0     H52841   4.695   4.328   4.224  1.0633 -1.7143  1.7029
  383MOL0     H52842   4.536   4.714   4.215 -2.3266 -1.1618 -1.2577
  383MOL0     H52843   4.695   4.626   4.201 -0.6435 -2.6441  0.5987
  383MOL0     H52844   4.709   4.656   3.972  0.0315 -0.7797  0.9164
  383MOL0     H52845   4.673   4.821   4.034 -1.5020  0.9881 -0.6210
  383MOL0     H52846   4.539   4.793   3.824  0.8477 -1.2283 -0.4441
  383MOL0     H52847   4.506   4.629   3.884  0.4128 -0.6060  1.3842
  383MOL0     H52848   4.353   4.703   4.062  2.1392  2.1974  3.3856
  383MOL0     H52849   4.309   4.789   3.906 -0.6927  0.7960  0.5226
  383MOL0     H52850   4.431   5.104   4.163 -3.7174  0.8642 -2.5674
  383MOL0     H52851   4.339   4.553   4.287  1.9432  0.3474 -0.3183
  383MOL0     H52852   4.242   4.565   4.477  2.1566 -0.6344 -0.8338
  383MOL0     H52853   4.220   4.397   4.542 -0.7746 -0.1330  0.4604
  383MOL0     H52854   4.304   4.532   4.630 -1.7422  2.0320 -0.1638
  384MOL0     O52855   6.595   3.761   2.076  0.7903  0.0838  0.0108
  384MOL0     C52856   6.700   3.821   2.076  0.4706 -0.3896 -0.2753
  384MOL0     O52857   6.825   3.769   2.104 -0.0324 -1.1201 -0.5581
  384MOL0     C52858   6.841   3.641   2.154 -0.1316 -1.0769  0.7253
  384MOL0     C52859   6.745   3.566   2.227  0.2384  0.2720  0.5109
  384MOL0     C52860   6.780   3.429   2.267 -0.5383 -0.8685 -0.2211
  384MOL0     C52861   6.904   3.375   2.235 -0.0869 -0.1996  0.2096
  384MOL0     O52862   6.932   3.240   2.266 -0.1575  0.0760 -0.0544
  384MOL0     C52863   7.023   3.172   2.175  0.2129  0.1014 -0.4168
  384MOL0     C52864   6.959   3.029   2.165  0.1601  0.3164 -0.5221
  384MOL0     C52865   7.056   2.937   2.103 -0.5152  0.4658 -0.1610
  384MOL0     C52866   6.973   2.833   2.016 -0.4280  0.2108 -0.2549
  384MOL0     C52867   6.882   2.735   2.091 -0.8801 -0.4666 -0.0315
  384MOL0     C52868   6.840   2.637   1.980  0.0426 -0.5999 -0.1296
  384MOL0     C52869   6.728   2.558   2.039  1.0254 -0.4072 -0.7426
  384MOL0     C52870   6.692   2.430   1.964  0.2478 -0.4954 -0.2211
  384MOL0     N52871   6.572   2.362   2.012 -0.1239 -0.3043 -1.4115
  384MOL0     C52872   6.570   2.261   2.097  0.4383 -0.4178 -0.7613
  384MOL0     C52873   6.451   2.204   2.091  0.6353 -0.3389  1.5874
  384MOL0     C52874   6.401   2.090   2.178  0.6832  0.1553  0.0811
  384MOL0     C52875   6.307   2.120   2.294  0.0231 -0.2789 -0.9496
  384MOL0     C52876   6.276   1.999   2.389 -0.0880  1.1322  0.2144
  384MOL0     C52877   6.204   2.059   2.507  0.5075  1.0349 -0.2193
  384MOL0     O52878   6.289   2.165   2.560  0.1938  0.7286 -0.3477
  384MOL0     C52879   6.324   2.153   2.693  0.6887  0.6266  0.0854
  384MOL0     C52880   6.444   2.100   2.726 -1.5934 -0.1608 -0.4792
  384MOL0     C52881   6.478   2.070   2.858 -0.4379 -0.0636 -0.6417
  384MOL0     C52882   6.627   2.034   2.888 -0.2954  0.2808 -0.2889
  384MOL0     C52883   6.385   2.090   2.966 -0.0511  0.0225 -0.4047
  384MOL0     C52884   6.421   2.068   3.117  0.3584  0.0299  0.1627
  384MOL0     O52885   6.332   2.124   3.200  0.4696  0.9034 -1.0490
  384MOL0     C52886   6.354   2.165   3.331 -0.5389 -0.9085 -0.0762
  384MOL0     C52887   6.484   2.232   3.364  0.5110 -0.5943 -0.3051
  384MOL0     C52888   6.485   2.310   3.485 -0.0411  1.5281  0.0160
  384MOL0     C52889   6.377   2.304   3.578 -0.0148 -0.0949  1.0130
  384MOL0     O52890   6.394   2.373   3.690 -1.5630 -0.4308 -0.6665
  384MOL0     C52891   6.406   2.293   3.818 -0.1283  0.1234 -0.4264
  384MOL0     C52892   6.549   2.244   3.835 -0.3541  0.5699 -1.3422
  384MOL0     C52893   6.646   2.345   3.904  0.1929 -0.3832 -0.8089
  384MOL0     C52894   6.674   2.480   3.836 -1.0060 -0.2562  0.1536
  384MOL0     C52895   6.803   2.546   3.907  0.3801 -0.5042 -1.1359
  384MOL0     C52896   6.939   2.519   3.834  0.2110 -0.7004 -0.9128
  384MOL0     C52897   7.056   2.604   3.905  0.0293  1.0443 -0.0401
  384MOL0     C52898   7.196   2.593   3.829  0.2837 -0.1516 -0.4244
  384MOL0    Cl52899   7.273   2.443   3.866 -0.3051 -0.0008 -0.1281
  384MOL0     C52900   6.265   2.230   3.545  0.7291 -1.0127  0.1220
  384MOL0     C52901   6.256   2.160   3.421 -0.1346  1.2743 -0.4881
  384MOL0     O52902   6.519   1.995   3.149  0.1457  0.1200  0.0037
  384MOL0     C52903   6.251   2.130   2.935  0.7130 -1.5514  0.0863
  384MOL0     C52904   6.227   2.176   2.799  0.7063 -0.1756  0.3657
  384MOL0     N52905   6.373   2.260   1.994  0.6320  0.6347  0.1817
  384MOL0     N52906   6.449   2.367   1.954  0.7334  0.5117 -0.3135
  384MOL0     C52907   6.992   3.452   2.167  0.6742  0.7313  0.2354
  384MOL0     C52908   6.961   3.578   2.123 -0.4674  0.3943  0.5832
  384MOL0     C52909   6.696   3.959   2.020 -0.2610  0.0217  0.0663
  384MOL0     C52910   6.823   4.022   1.974 -0.4314  0.0307 -0.3552
  384MOL0     C52911   6.820   4.133   1.893 -0.3375 -0.4388  0.0148
  384MOL0     C52912   6.697   4.198   1.868 -0.4279  0.2581 -0.4984
  384MOL0     O52913   6.691   4.306   1.784 -0.0527 -0.3042  0.3397
  384MOL0     C52914   6.648   4.434   1.828 -0.5650  0.1169  0.1612
  384MOL0     C52915   6.766   4.529   1.836  0.0589 -0.6838 -0.0909
  384MOL0     C52916   6.878   4.470   1.920 -0.2713  0.0322 -1.0961
  384MOL0     C52917   6.993   4.575   1.919  0.9114  0.4391 -0.0546
  384MOL0     C52918   7.112   4.530   1.981  0.3935 -0.2007 -0.0779
  384MOL0     C52919   7.211   4.501   2.038  0.1302 -0.4056  0.2384
  384MOL0     C52920   6.578   4.152   1.925 -0.0004 -0.0438  0.5816
  384MOL0     C52921   6.579   4.031   1.992  0.3032  0.1818 -0.3249
  384MOL0     C52922   6.440   3.985   2.027 -0.0988 -0.3376 -0.1381
  384MOL0     H52923   6.648   3.607   2.251 -0.4349 -0.6983 -0.4617
  384MOL0     H52924   6.716   3.372   2.333 -3.0249  0.7464 -1.0714
  384MOL0     H52925   7.125   3.177   2.212  0.3221 -0.0674 -0.6920
  384MOL0     H52926   7.022   3.220   2.076 -2.0630 -0.7836 -0.8844
  384MOL0     H52927   6.929   2.977   2.257  0.0189 -3.7745 -2.6652
  384MOL0     H52928   6.873   3.039   2.098  1.2960  1.0359 -1.9160
  384MOL0     H52929   7.120   2.996   2.037  0.5503 -0.6757 -0.1786
  384MOL0     H52930   7.112   2.874   2.172 -2.1868 -3.9929 -2.4165
  384MOL0     H52931   6.936   2.877   1.923  2.9089  0.4374 -1.6184
  384MOL0     H52932   7.055   2.771   1.978  0.8442  2.4389 -1.3799
  384MOL0     H52933   6.810   2.806   2.132  2.4429  2.1691  1.6752
  384MOL0     H52934   6.929   2.685   2.176 -0.8999  0.9476  0.8376
  384MOL0     H52935   6.806   2.685   1.887  2.4047 -0.3387 -0.9427
  384MOL0     H52936   6.926   2.572   1.961 -0.9130 -2.1443  0.6774
  384MOL0     H52937   6.639   2.621   2.048  3.1775  2.5663  2.4333
  384MOL0     H52938   6.754   2.545   2.144 -0.1047 -0.6898 -0.4802
  384MOL0     H52939   6.676   2.454   1.859  1.2458  3.1539  0.3154
  384MOL0     H52940   6.780   2.365   1.964  0.8659  0.3222 -0.1670
  384MOL0     H52941   6.651   2.223   2.159 -0.9381  0.7160  1.9026
  384MOL0     H52942   6.492   2.048   2.223  1.0725  0.3361 -0.5203
  384MOL0     H52943   6.366   2.018   2.104  1.4876  1.7825 -2.0111
  384MOL0     H52944   6.354   2.208   2.339  1.2980 -0.3329 -2.1407
  384MOL0     H52945   6.207   2.152   2.262 -0.4957 -1.1987 -0.3105
  384MOL0     H52946   6.213   1.923   2.342  1.9986  0.5520 -1.8630
  384MOL0     H52947   6.370   1.951   2.419 -0.0699  0.6834 -0.5355
  384MOL0     H52948   6.113   2.112   2.478 -0.1355 -0.0705 -0.2620
  384MOL0     H52949   6.177   1.989   2.587  0.4031  1.3630  0.0327
  384MOL0     H52950   6.513   2.089   2.643 -2.2363 -2.4117 -0.7742
  384MOL0     H52951   6.671   2.089   2.972  2.3841  0.7812 -1.8804
  384MOL0     H52952   6.689   2.053   2.799 -0.2616 -1.8421 -0.7588
  384MOL0     H52953   6.635   1.928   2.913  0.0239 -0.9597 -4.7443
  384MOL0     H52954   6.572   2.242   3.302  1.2053  2.4886  1.0030
  384MOL0     H52955   6.579   2.355   3.514  1.4571 -1.3342 -0.0732
  384MOL0     H52956   6.388   2.367   3.897 -2.9164  0.0171 -0.8743
  384MOL0     H52957   6.335   2.211   3.831  1.0517 -0.4939  3.2493
  384MOL0     H52958   6.542   2.164   3.910 -0.0651  0.5444 -1.3400
  384MOL0     H52959   6.584   2.197   3.743 -1.4639 -0.8719 -1.0821
  384MOL0     H52960   6.739   2.296   3.932 -0.0907  0.2813  1.5625
  384MOL0     H52961   6.597   2.377   3.997 -0.6798  2.0880 -2.0204
  384MOL0     H52962   6.585   2.544   3.831 -1.0800 -0.1830  1.9271
  384MOL0     H52963   6.712   2.475   3.733  3.2671  1.7835  1.3842
  384MOL0     H52964   6.778   2.653   3.907 -1.9690 -1.0018 -1.5806
  384MOL0     H52965   6.807   2.526   4.014 -2.2334  0.8676 -0.6936
  384MOL0     H52966   6.932   2.553   3.730  3.0234 -0.4265 -1.0812
  384MOL0     H52967   6.961   2.413   3.845  0.1203 -0.5394  1.4330
  384MOL0     H52968   7.059   2.572   4.009 -0.4009  2.1687  0.3342
  384MOL0     H52969   7.017   2.705   3.890  1.3914  1.2639 -2.6922
  384MOL0     H52970   7.259   2.677   3.860  2.0898 -0.7261 -2.3353
  384MOL0     H52971   7.186   2.603   3.721  1.5653  0.0435 -0.5380
  384MOL0     H52972   6.179   2.211   3.608 -0.5775  0.5522 -1.0896
  384MOL0     H52973   6.163   2.106   3.409  0.8207 -0.6399  0.3681
  384MOL0     H52974   6.180   2.155   3.014  3.3225  1.3965  1.7099
  384MOL0     H52975   6.133   2.212   2.759 -0.0945 -2.6681 -0.1291
  384MOL0     H52976   7.092   3.415   2.147  0.4160 -0.0923  0.4241
  384MOL0     H52977   7.038   3.635   2.073 -0.1869 -0.8708 -0.4490
  384MOL0     H52978   6.915   3.967   1.994 -0.9084  0.6406  5.1392
  384MOL0     H52979   6.914   4.167   1.852 -0.8160  0.9434 -0.0069
  384MOL0     H52980   6.574   4.472   1.756 -0.9717 -1.7045 -0.4413
  384MOL0     H52981   6.603   4.427   1.928  1.7850 -3.8959  1.1311
  384MOL0     H52982   6.743   4.629   1.875 -4.8639 -2.0765  1.3483
  384MOL0     H52983   6.800   4.545   1.733 -3.7711  2.3143 -1.1714
  384MOL0     H52984   6.849   4.444   2.023 -0.7014  0.1150 -1.1929
  384MOL0     H52985   6.917   4.383   1.866  2.2436  2.2825 -3.2202
  384MOL0     H52986   6.961   4.666   1.969  0.8791 -1.0628  2.8691
  384MOL0     H52987   7.017   4.605   1.816 -2.0925  1.7307 -0.4762
  384MOL0     H52988   7.298   4.466   2.091  1.5946 -0.4429 -2.0178
  384MOL0     H52989   6.487   4.206   1.902  0.0820  0.0574  0.4905
  384MOL0     H52990   6.371   4.068   2.043 -3.8609 -3.1803 -0.4568
  384MOL0     H52991   6.393   3.940   1.939 -1.2829  3.1830 -1.4973
  384MOL0     H52992   6.432   3.929   2.121  2.6428 -0.2846  0.2299
  385MOL0     O52993   4.213  11.336   7.597  0.7266 -0.2822 -0.7900
  385MOL0     C52994   4.253  11.396   7.495  0.0721 -1.0044 -0.0829
  385MOL0     O52995   4.335  11.346   7.402  0.3357  0.7466  0.0925
  385MOL0     C52996   4.400  11.230   7.430 -0.6746 -0.0292 -0.8251
  385MOL0     C52997   4.379  11.120   7.347 -0.3055  0.2736  0.8591
  385MOL0     C52998   4.454  11.000   7.348 -1.2450  0.4234 -0.1415
  385MOL0     C52999   4.544  10.980   7.451 -0.2947 -0.3445 -0.4642
  385MOL0     O53000   4.612  10.864   7.455 -0.6553  0.6574  0.3549
  385MOL0     C53001   4.679  10.833   7.577  0.8054 -0.2391 -0.6204
  385MOL0     C53002   4.743  10.691   7.558  0.1849  0.2287  0.0712
  385MOL0     C53003   4.837  10.660   7.665 -0.5689  0.0536  0.9435
  385MOL0     C53004   4.865  10.514   7.695  0.0734  1.0493 -0.1070
  385MOL0     C53005   4.987  10.503   7.786 -0.0973 -0.3817  0.4967
  385MOL0     C53006   5.125  10.527   7.724  0.0808 -0.6033 -0.2286
  385MOL0     C53007   5.235  10.505   7.837  0.5446 -0.3244 -0.6286
  385MOL0     C53008   5.374  10.561   7.797 -0.4342  0.3037 -0.2311
  385MOL0     N53009   5.466  10.598   7.910 -0.4463 -0.6723  0.5539
  385MOL0     C53010   5.452  10.687   8.018 -0.3290 -1.2720  0.4673
  385MOL0     C53011   5.564  10.680   8.094  0.4929 -0.5499  0.8104
  385MOL0     C53012   5.585  10.750   8.228  0.3337 -0.0413 -0.5187
  385MOL0     C53013   5.722  10.817   8.236 -1.1525 -0.1461  0.9235
  385MOL0     C53014   5.722  10.917   8.353  0.6834 -0.5742 -0.4169
  385MOL0     C53015   5.724  10.847   8.488 -0.5615 -0.8114  1.2079
  385MOL0     O53016   5.842  10.763   8.499 -0.0981  0.3817  0.0244
  385MOL0     C53017   5.860  10.745   8.637  0.0819  0.0081  0.7457
  385MOL0     C53018   5.770  10.671   8.714 -0.5772 -0.4467  0.2017
  385MOL0     C53019   5.803  10.657   8.854  0.2500  1.1727 -0.1821
  385MOL0     C53020   5.716  10.562   8.936  0.3608  0.4012  0.4198
  385MOL0     C53021   5.929  10.692   8.909  0.4138 -0.2763  1.4527
  385MOL0     C53022   5.955  10.698   9.055  0.6201 -0.1696 -0.0702
  385MOL0     O53023   6.015  10.804   9.111 -0.7751 -0.1626  0.0335
  385MOL0     C53024   6.010  10.822   9.247  0.0656 -0.3385  0.8367
  385MOL0     C53025   5.901  10.777   9.331 -0.5832 -0.9879 -0.1681
  385MOL0     C53026   5.908  10.810   9.475  0.0642  0.9702 -0.1883
  385MOL0     C53027   6.017  10.870   9.533 -0.1270 -0.0388 -0.1567
  385MOL0     O53028   6.005  10.895   9.666  0.3692  0.7083 -0.8669
  385MOL0     C53029   6.015  11.034   9.694 -0.0348  0.5959 -0.2217
  385MOL0     C53030   5.904  11.075   9.791  0.4456  0.3013 -0.6783
  385MOL0     C53031   5.940  11.203   9.881  0.0427  0.0720 -0.2975
  385MOL0     C53032   5.813  11.240   9.960  1.2605 -0.2276  0.2233
  385MOL0     C53033   5.809  11.379  10.040 -0.1497  0.4448 -0.5005
  385MOL0     C53034   5.872  11.333  10.174  0.2851 -0.6286 -0.0208
  385MOL0     C53035   5.903  11.452  10.269  0.1487 -0.7304 -0.0513
  385MOL0     C53036   5.926  11.395  10.412 -0.5072 -0.7155  0.2593
  385MOL0    Cl53037   6.073  11.292  10.412  0.2601  0.0594 -0.2188
  385MOL0     C53038   6.120  10.913   9.447 -0.7106  0.4988 -0.1099
  385MOL0     C53039   6.119  10.893   9.308 -0.9420  0.5339  0.9502
  385MOL0     O53040   5.930  10.592   9.120  0.0235  0.4163  0.1014
  385MOL0     C53041   6.020  10.754   8.826  0.3059  0.7537  0.0002
  385MOL0     C53042   5.987  10.781   8.697 -0.7822  0.4641  1.0720
  385MOL0     N53043   5.642  10.577   8.042  0.3180 -0.2314  0.1709
  385MOL0     N53044   5.590  10.535   7.922  0.4388 -0.2996  0.4096
  385MOL0     C53045   4.564  11.087   7.543  0.0526  0.1815  0.9936
  385MOL0     C53046   4.496  11.209   7.532 -0.7685 -0.5017  0.0850
  385MOL0     C53047   4.189  11.520   7.456  0.0878 -0.4326 -0.1277
  385MOL0     C53048   4.231  11.584   7.338 -0.1606  0.7321  0.1284
  385MOL0     C53049   4.180  11.705   7.291  0.3112  0.8883  0.5298
  385MOL0     C53050   4.085  11.784   7.358  0.0298  0.7849 -0.3998
  385MOL0     O53051   4.033  11.911   7.327 -0.4569 -0.2344 -0.0743
  385MOL0     C53052   3.982  11.918   7.194  0.3590 -0.3682  0.5857
  385MOL0     C53053   3.882  11.816   7.143  0.1826  0.0921  0.3215
  385MOL0     C53054   3.745  11.824   7.205  0.2511  0.4188 -0.5912
  385MOL0     C53055   3.662  11.938   7.151  0.2585 -1.1264 -0.0726
  385MOL0     C53056   3.521  11.911   7.191  0.1605  0.2388 -0.1616
  385MOL0     C53057   3.402  11.889   7.218  0.1589 -0.3783 -0.0386
  385MOL0     C53058   4.041  11.720   7.481 -0.5118 -0.2681 -0.0538
  385MOL0     C53059   4.094  11.599   7.533  0.8710 -0.6215  0.3980
  385MOL0     C53060   4.017  11.544   7.646  0.6123 -0.0281 -0.2469
  385MOL0     H53061   4.315  11.141   7.261  0.4283 -0.2922  0.1546
  385MOL0     H53062   4.444  10.925   7.270  0.5590 -0.7221  0.6731
  385MOL0     H53063   4.607  10.817   7.658  0.4813  1.1626 -0.5941
  385MOL0     H53064   4.748  10.913   7.607  0.5534 -1.0929  2.6217
  385MOL0     H53065   4.660  10.619   7.563  1.6859 -1.5442  0.6272
  385MOL0     H53066   4.789  10.673   7.461  2.6170 -0.2072  1.2347
  385MOL0     H53067   4.936  10.702   7.642  0.1428 -1.7755  0.4909
  385MOL0     H53068   4.820  10.714   7.758  1.9049  1.3057  0.7725
  385MOL0     H53069   4.776  10.469   7.739  0.4374 -1.2964 -1.5817
  385MOL0     H53070   4.885  10.449   7.609 -0.5415 -1.2831  1.4308
  385MOL0     H53071   4.981  10.405   7.833  0.8376 -0.4959  0.4029
  385MOL0     H53072   4.958  10.575   7.863 -2.6794 -0.3822 -0.3738
  385MOL0     H53073   5.146  10.457   7.643  0.9713 -1.3080  0.5911
  385MOL0     H53074   5.119  10.630   7.687 -1.6316 -0.2790  0.8444
  385MOL0     H53075   5.233  10.396   7.852 -1.2877 -0.1086  1.1441
  385MOL0     H53076   5.209  10.555   7.931  0.8230  0.6510 -1.0598
  385MOL0     H53077   5.430  10.494   7.730 -0.1583 -3.6544  3.5133
  385MOL0     H53078   5.343  10.653   7.747 -0.2742  1.5174  1.8152
  385MOL0     H53079   5.373  10.760   8.034  0.8613  0.8421 -2.4476
  385MOL0     H53080   5.580  10.670   8.303  1.5586  1.7593  1.6129
  385MOL0     H53081   5.505  10.822   8.247  0.0556 -0.8527  1.7050
  385MOL0     H53082   5.802  10.743   8.246 -0.7460 -0.1226 -1.5229
  385MOL0     H53083   5.731  10.870   8.141 -2.9142  0.7266  1.2067
  385MOL0     H53084   5.800  10.993   8.349 -0.4995  0.7588  0.7598
  385MOL0     H53085   5.624  10.966   8.355 -1.3494 -4.2122 -0.4048
  385MOL0     H53086   5.726  10.923   8.566  0.5161 -1.5194  1.8938
  385MOL0     H53087   5.633  10.788   8.505  0.7401 -2.5120  2.6079
  385MOL0     H53088   5.685  10.626   8.664 -1.0244 -0.3965  0.9058
  385MOL0     H53089   5.679  10.623   9.019  0.6960 -1.0795  1.7051
  385MOL0     H53090   5.781  10.480   8.967  1.7820  1.2144 -0.3002
  385MOL0     H53091   5.622  10.531   8.889 -0.0634  0.4184  1.2299
  385MOL0     H53092   5.814  10.730   9.286  1.3382 -2.6513 -2.4121
  385MOL0     H53093   5.830  10.773   9.541  1.8431  1.3119  2.2026
  385MOL0     H53094   6.106  11.059   9.749 -0.6059  2.4845 -0.0772
  385MOL0     H53095   6.003  11.097   9.605 -2.9870  0.9191  0.3024
  385MOL0     H53096   5.815  11.101   9.732 -0.2934  2.7764  1.3158
  385MOL0     H53097   5.883  10.992   9.859 -0.9469  0.9778 -0.2330
  385MOL0     H53098   5.974  11.292   9.827 -1.6190  0.3675 -0.9100
  385MOL0     H53099   6.022  11.168   9.945 -0.4627  0.0723  0.3565
  385MOL0     H53100   5.789  11.161  10.031  1.3981 -3.1428 -2.7481
  385MOL0     H53101   5.731  11.237   9.889 -1.9519 -2.8922  3.6560
  385MOL0     H53102   5.865  11.455   9.986  0.7243 -0.4093 -0.8432
  385MOL0     H53103   5.705  11.412  10.040 -0.0644  0.8072  1.1331
  385MOL0     H53104   5.970  11.292  10.147  0.8814  1.3858 -1.1986
  385MOL0     H53105   5.814  11.257  10.226 -0.3309  0.4588  0.9300
  385MOL0     H53106   5.822  11.525  10.265 -0.8190 -1.7033  1.0107
  385MOL0     H53107   5.994  11.505  10.238 -0.7688  1.0622  0.1887
  385MOL0     H53108   5.840  11.338  10.451 -1.4697  0.0491 -0.6825
  385MOL0     H53109   5.934  11.489  10.468 -3.1520  0.1516 -0.6518
  385MOL0     H53110   6.210  10.958   9.488 -2.5324  1.8656  2.8086
  385MOL0     H53111   6.203  10.935   9.253 -2.8236  1.2858 -1.5182
  385MOL0     H53112   6.100  10.810   8.872 -0.7014  1.3680  1.0770
  385MOL0     H53113   6.066  10.839   8.650  0.2981 -3.1834 -2.2817
  385MOL0     H53114   4.643  11.085   7.617 -0.0206  1.5968  1.1373
  385MOL0     H53115   4.500  11.286   7.608 -2.7983 -1.6456  1.4416
  385MOL0     H53116   4.307  11.529   7.283  0.8710  2.1544  0.0664
  385MOL0     H53117   4.217  11.727   7.191 -1.4893  0.3713 -0.3076
  385MOL0     H53118   3.937  12.016   7.178 -0.6346 -0.7959  0.7173
  385MOL0     H53119   4.061  11.913   7.118 -2.0246  0.0036 -2.0838
  385MOL0     H53120   3.920  11.716   7.165  0.3297  0.2294  0.7161
  385MOL0     H53121   3.863  11.822   7.036  0.3617 -0.6523  0.2427
  385MOL0     H53122   3.701  11.728   7.178  1.8123 -0.2064 -0.9951
  385MOL0     H53123   3.751  11.823   7.315  0.8153 -2.6611 -0.5589
  385MOL0     H53124   3.667  11.953   7.043  1.0837 -0.0945  0.0925
  385MOL0     H53125   3.698  12.032   7.195  0.7480  0.5366 -3.5997
  385MOL0     H53126   3.297  11.878   7.238  0.3570 -2.3851  0.0605
  385MOL0     H53127   3.962  11.778   7.529 -0.0334  0.0312  0.3788
  385MOL0     H53128   3.917  11.587   7.634  0.5014 -0.3563 -0.4943
  385MOL0     H53129   4.011  11.436   7.660 -0.1714  0.2400  2.0419
  385MOL0     H53130   4.054  11.574   7.745 -2.5219  3.2063  0.1493
  386MOL0     O53131   7.108   5.243   5.866 -0.2274 -0.0227 -0.6549
  386MOL0     C53132   7.201   5.329   5.856  1.0023 -0.6246 -0.0760
  386MOL0     O53133   7.317   5.330   5.919 -0.3882  0.2074 -0.4074
  386MOL0     C53134   7.325   5.285   6.054  0.3980  0.1639 -0.3286
  386MOL0     C53135   7.224   5.292   6.153 -0.1502  0.0864 -0.1711
  386MOL0     C53136   7.254   5.244   6.277  0.6730 -0.1529 -0.1792
  386MOL0     C53137   7.377   5.187   6.316 -0.5235 -0.3786 -0.1272
  386MOL0     O53138   7.408   5.128   6.435  0.5347  0.3355  0.1520
  386MOL0     C53139   7.321   5.128   6.543  0.0279  0.5309 -0.4601
  386MOL0     C53140   7.318   5.255   6.625 -0.8208 -0.4169  0.2102
  386MOL0     C53141   7.460   5.271   6.684 -0.3631  0.1287 -0.4340
  386MOL0     C53142   7.462   5.410   6.754 -0.2320 -0.1103 -0.7478
  386MOL0     C53143   7.572   5.421   6.858 -0.4429 -0.2053 -0.2467
  386MOL0     C53144   7.548   5.549   6.952 -0.0980 -1.2892  0.9542
  386MOL0     C53145   7.429   5.547   7.046 -0.2041  0.7313 -0.1731
  386MOL0     C53146   7.456   5.621   7.169 -0.1504  0.3190 -0.3364
  386MOL0     N53147   7.541   5.553   7.270 -0.2153  1.4057  0.3116
  386MOL0     C53148   7.502   5.438   7.336 -0.6463 -0.0009 -0.6045
  386MOL0     C53149   7.611   5.408   7.422  0.0627 -0.3447  0.2364
  386MOL0     C53150   7.629   5.298   7.517  0.0918  0.5374  0.4263
  386MOL0     C53151   7.632   5.345   7.660 -0.5613 -0.1469 -0.5999
  386MOL0     C53152   7.638   5.212   7.740 -0.0254 -0.3716 -0.1818
  386MOL0     C53153   7.499   5.148   7.764 -0.1336 -0.6728  0.0896
  386MOL0     O53154   7.517   5.023   7.832  0.3336  0.5490  0.3953
  386MOL0     C53155   7.408   4.963   7.879  0.6256  1.0994  0.1221
  386MOL0     C53156   7.381   4.948   8.007  0.3035  0.4313  0.5195
  386MOL0     C53157   7.263   4.886   8.055 -0.4241  0.0996 -0.2369
  386MOL0     C53158   7.245   4.866   8.211  0.0990  0.6640  0.7266
  386MOL0     C53159   7.168   4.842   7.957  0.1126 -0.5594  0.4534
  386MOL0     C53160   7.043   4.771   7.997  0.0167  0.4847  0.3974
  386MOL0     O53161   6.936   4.816   7.927 -0.6863 -0.0771  0.1161
  386MOL0     C53162   6.830   4.727   7.906  0.5699 -0.8829 -0.5375
  386MOL0     C53163   6.778   4.715   7.780 -0.3704 -0.1008  0.1686
  386MOL0     C53164   6.668   4.635   7.740 -0.5232 -0.4589 -0.8923
  386MOL0     C53165   6.594   4.573   7.842 -0.5150  0.7580  0.2150
  386MOL0     O53166   6.483   4.497   7.828 -0.0182 -0.3530  0.3186
  386MOL0     C53167   6.398   4.523   7.719  0.1796 -1.0643  0.3464
  386MOL0     C53168   6.280   4.422   7.704 -0.3686  0.0170 -0.0754
  386MOL0     C53169   6.181   4.430   7.819  0.3530  0.5624  0.3577
  386MOL0     C53170   6.207   4.308   7.914  0.1704  0.0549 -0.2126
  386MOL0     C53171   6.076   4.284   7.994  0.2354 -0.5479 -1.7072
  386MOL0     C53172   5.953   4.229   7.919 -0.9582 -0.5293  0.5571
  386MOL0     C53173   5.841   4.191   8.017 -0.2192 -0.9162 -0.5999
  386MOL0     C53174   5.726   4.112   7.946  0.2185  0.3221 -0.7982
  386MOL0    Cl53175   5.612   4.227   7.867  0.4131  0.2058  0.1520
  386MOL0     C53176   6.652   4.583   7.976 -1.1229  0.6820 -0.0378
  386MOL0     C53177   6.761   4.657   8.002  0.8580 -0.5917 -0.1421
  386MOL0     O53178   7.055   4.659   8.045 -0.1096  0.0796  0.2851
  386MOL0     C53179   7.199   4.855   7.819 -0.0705 -0.5058 -0.1790
  386MOL0     C53180   7.316   4.918   7.782 -0.5462 -0.7450 -0.6864
  386MOL0     N53181   7.712   5.499   7.389 -0.0562  0.7206 -0.7770
  386MOL0     N53182   7.671   5.575   7.299 -0.1610  0.0973  0.7270
  386MOL0     C53183   7.482   5.201   6.221  0.7484 -0.1373  0.7331
  386MOL0     C53184   7.455   5.253   6.096  0.2223  0.2345  0.4551
  386MOL0     C53185   7.185   5.416   5.734  0.9729  0.3837  0.3853
  386MOL0     C53186   7.057   5.429   5.679 -0.5519 -0.3396  0.3003
  386MOL0     C53187   7.031   5.511   5.572 -1.1993 -0.7647 -0.1216
  386MOL0     C53188   7.142   5.585   5.515  0.1518 -0.2671 -0.0459
  386MOL0     O53189   7.112   5.677   5.424 -0.3862  0.7848 -0.1564
  386MOL0     C53190   7.204   5.707   5.310 -0.4148 -0.3488 -0.5728
  386MOL0     C53191   7.132   5.678   5.180  0.7120 -0.6203  0.1986
  386MOL0     C53192   6.990   5.735   5.178  0.7031  0.8104  0.3658
  386MOL0     C53193   6.918   5.706   5.040  0.2552 -0.3464 -0.4880
  386MOL0     C53194   6.772   5.747   5.037  0.5100  0.5980 -0.5331
  386MOL0     C53195   6.658   5.784   5.051  0.2508 -0.2040  0.0170
  386MOL0     C53196   7.270   5.579   5.565 -0.2714 -0.4076  0.0618
  386MOL0     C53197   7.289   5.493   5.676  0.3520 -0.9030  0.3766
  386MOL0     C53198   7.426   5.502   5.736  0.2147 -0.1225  0.4912
  386MOL0     H53199   7.122   5.327   6.138 -0.3410  0.4103  1.6609
  386MOL0     H53200   7.173   5.242   6.348  0.1450  1.9489 -0.6557
  386MOL0     H53201   7.338   5.051   6.619  2.6229  1.4750 -0.0139
  386MOL0     H53202   7.221   5.108   6.502 -0.2988 -0.4541  0.7639
  386MOL0     H53203   7.295   5.342   6.563 -0.1110  0.2350  0.8400
  386MOL0     H53204   7.244   5.238   6.704 -0.2170  3.0590  1.7318
  386MOL0     H53205   7.489   5.188   6.749 -0.4802  1.8146  1.8913
  386MOL0     H53206   7.532   5.269   6.601 -1.7031 -2.0387 -1.6622
  386MOL0     H53207   7.478   5.488   6.680 -3.0482 -0.0904 -1.4240
  386MOL0     H53208   7.363   5.430   6.796  0.3034  0.3053  0.3714
  386MOL0     H53209   7.675   5.423   6.820 -0.5271 -1.9721 -0.6605
  386MOL0     H53210   7.574   5.337   6.928  2.9686 -0.4641 -0.4731
  386MOL0     H53211   7.643   5.559   7.007 -1.0116  0.3879  2.3077
  386MOL0     H53212   7.561   5.636   6.886 -1.3513 -2.1601 -0.4880
  386MOL0     H53213   7.400   5.445   7.070 -1.0053  1.3400  1.6278
  386MOL0     H53214   7.340   5.582   6.994  0.1363  1.5237 -0.2422
  386MOL0     H53215   7.489   5.720   7.138  0.7772  0.8756  2.2684
  386MOL0     H53216   7.362   5.639   7.222  1.0840  0.2973  1.9691
  386MOL0     H53217   7.409   5.386   7.317  0.7889 -1.9860 -2.7307
  386MOL0     H53218   7.720   5.244   7.487  1.1083  2.4733 -0.1481
  386MOL0     H53219   7.558   5.218   7.495  0.9078  0.1258 -0.8378
  386MOL0     H53220   7.731   5.391   7.665 -0.4829  0.3104 -3.9118
  386MOL0     H53221   7.553   5.413   7.692 -1.2472 -1.7827  1.4525
  386MOL0     H53222   7.707   5.148   7.684  1.5889  0.2817  0.9696
  386MOL0     H53223   7.678   5.221   7.842 -0.4662 -0.7589  0.0256
  386MOL0     H53224   7.438   5.225   7.812  0.6108  0.0424 -0.0919
  386MOL0     H53225   7.450   5.124   7.670  0.5460 -0.9627 -0.1945
  386MOL0     H53226   7.459   4.980   8.075  1.7468  1.7281 -1.5977
  386MOL0     H53227   7.311   4.940   8.258 -0.5501  1.9480 -0.3103
  386MOL0     H53228   7.280   4.766   8.238 -0.1628  0.5157  0.5184
  386MOL0     H53229   7.139   4.874   8.237 -0.8239 -1.8035 -1.7980
  386MOL0     H53230   6.832   4.753   7.694  1.9850 -4.0797 -0.3796
  386MOL0     H53231   6.654   4.611   7.635  2.8820  1.2768 -1.8695
  386MOL0     H53232   6.353   4.623   7.728  4.9904  1.4355 -0.3902
  386MOL0     H53233   6.456   4.522   7.627 -0.9769 -0.1683 -0.4262
  386MOL0     H53234   6.238   4.456   7.609  0.1597  0.3437 -0.1973
  386MOL0     H53235   6.307   4.317   7.691  0.3269  0.3157 -1.1326
  386MOL0     H53236   6.080   4.443   7.778 -0.2787 -1.6511  1.0655
  386MOL0     H53237   6.193   4.526   7.869 -0.5154  0.5247  0.6471
  386MOL0     H53238   6.285   4.340   7.983 -0.0193  0.7138 -0.2913
  386MOL0     H53239   6.240   4.218   7.862 -0.6164 -0.3283 -0.0705
  386MOL0     H53240   6.094   4.221   8.082 -0.7228 -1.5879 -2.2234
  386MOL0     H53241   6.056   4.378   8.047  3.6853 -0.6125 -0.0332
  386MOL0     H53242   5.989   4.146   7.858 -2.5782  0.5274 -2.0131
  386MOL0     H53243   5.919   4.308   7.851 -2.9852 -2.1761 -0.4729
  386MOL0     H53244   5.810   4.276   8.078  2.5623 -1.2350  1.4080
  386MOL0     H53245   5.890   4.128   8.091  2.8611  1.5402 -0.3481
  386MOL0     H53246   5.678   4.053   8.024  0.4036  0.2559 -0.7355
  386MOL0     H53247   5.753   4.040   7.868  1.1949  1.4013 -1.4806
  386MOL0     H53248   6.598   4.535   8.057  1.3635 -0.2359  1.1790
  386MOL0     H53249   6.797   4.677   8.102  0.4278  0.5502 -0.2062
  386MOL0     H53250   7.123   4.820   7.751 -2.3382 -1.1174  2.4882
  386MOL0     H53251   7.337   4.925   7.676  2.5746  0.2371 -0.1197
  386MOL0     H53252   7.572   5.152   6.256  0.3054 -1.1458  0.5262
  386MOL0     H53253   7.532   5.261   6.021  1.1705  1.0669  1.4824
  386MOL0     H53254   6.973   5.372   5.719 -0.2152 -2.9176 -2.3405
  386MOL0     H53255   6.928   5.513   5.539 -1.8912 -1.1134  1.8596
  386MOL0     H53256   7.216   5.816   5.313 -2.1678 -0.1439  1.4793
  386MOL0     H53257   7.299   5.654   5.320 -1.4412 -2.0012  1.2880
  386MOL0     H53258   7.131   5.570   5.164  2.2021 -0.5713 -0.3100
  386MOL0     H53259   7.189   5.729   5.102  2.8600  1.0207  2.6929
  386MOL0     H53260   6.933   5.679   5.253 -0.4818 -1.9507 -2.3540
  386MOL0     H53261   6.991   5.842   5.197 -0.3963  1.5352 -3.0059
  386MOL0     H53262   6.924   5.601   5.011  0.0214 -0.9522  1.4758
  386MOL0     H53263   6.965   5.766   4.962  1.9092  1.0805  1.4746
  386MOL0     H53264   6.556   5.811   5.064  1.1440  2.5407  2.3617
  386MOL0     H53265   7.340   5.653   5.529 -0.6670 -1.4149 -3.0370
  386MOL0     H53266   7.455   5.398   5.755 -0.3731 -1.1709 -3.3663
  386MOL0     H53267   7.506   5.549   5.678  1.4285 -0.1715  2.0701
  386MOL0     H53268   7.422   5.568   5.823 -0.6834  3.0505 -1.7838
  387MOL0     O53269   2.116   8.515   5.365 -0.4747 -0.4523  0.1307
  387MOL0     C53270   2.071   8.437   5.447 -0.0201  0.2307  0.7920
  387MOL0     O53271   2.141   8.339   5.504  0.3083 -0.0811 -0.2544
  387MOL0     C53272   2.268   8.314   5.466  0.5430  0.7461  0.5384
  387MOL0     C53273   2.372   8.391   5.509  1.0536  0.1963 -0.4730
  387MOL0     C53274   2.506   8.350   5.491  0.6609 -0.1824 -0.1230
  387MOL0     C53275   2.532   8.244   5.408 -0.0277 -0.3955  0.5771
  387MOL0     O53276   2.655   8.221   5.369 -1.2112 -0.4074  0.0566
  387MOL0     C53277   2.675   8.222   5.227  0.6674  0.2399  0.4023
  387MOL0     C53278   2.821   8.261   5.193  0.5630  0.3151 -0.2678
  387MOL0     C53279   2.825   8.413   5.222 -0.6836 -1.1099  0.0984
  387MOL0     C53280   2.822   8.502   5.094 -0.3241  0.6043 -0.2734
  387MOL0     C53281   2.852   8.644   5.136  0.4497  0.1663  0.2721
  387MOL0     C53282   2.819   8.750   5.037 -0.2975 -1.0770 -0.4114
  387MOL0     C53283   2.868   8.891   5.072 -0.1525  0.2176 -0.1075
  387MOL0     C53284   2.830   8.998   4.975 -0.0011  0.0831  0.3150
  387MOL0     N53285   2.916   9.115   4.992 -0.3422  0.1227 -0.5864
  387MOL0     C53286   3.055   9.119   4.998 -0.5567 -0.5066  0.4926
  387MOL0     C53287   3.069   9.229   5.080 -0.1854  0.6411  0.0147
  387MOL0     C53288   3.209   9.261   5.121  0.0062  0.1857  1.0437
  387MOL0     C53289   3.243   9.409   5.105  0.4927  0.2564 -0.4622
  387MOL0     C53290   3.400   9.450   5.097  0.2913 -0.7331 -0.0043
  387MOL0     C53291   3.502   9.412   5.203 -0.4103  0.4004  0.2647
  387MOL0     O53292   3.628   9.473   5.171  0.4279 -0.1466 -0.0670
  387MOL0     C53293   3.701   9.521   5.279 -1.0785 -0.3633  1.2080
  387MOL0     C53294   3.728   9.660   5.297  0.2859  0.4510  0.3314
  387MOL0     C53295   3.822   9.702   5.393 -0.2125 -0.1076  0.2992
  387MOL0     C53296   3.850   9.851   5.390  0.2365  0.0457  0.0439
  387MOL0     C53297   3.861   9.613   5.496 -0.2519  0.0879  0.1434
  387MOL0     C53298   3.932   9.661   5.616 -0.2115  0.6864  0.0876
  387MOL0     O53299   3.877   9.768   5.682  0.4084  0.1020 -0.2172
  387MOL0     C53300   3.936   9.818   5.802 -0.4700  0.9702 -0.4027
  387MOL0     C53301   3.909   9.766   5.926  0.6097 -0.8892  0.6640
  387MOL0     C53302   3.968   9.806   6.037 -0.0480  0.0604 -0.2199
  387MOL0     C53303   4.069   9.913   6.036  0.4394  0.0448 -0.3638
  387MOL0     O53304   4.146   9.952   6.145  0.1430  0.0510  1.0198
  387MOL0     C53305   4.145   9.863   6.264  0.5593  0.1275  0.5877
  387MOL0     C53306   4.276   9.866   6.333 -0.4556  0.5344  0.4171
  387MOL0     C53307   4.305   9.997   6.422 -0.3577  0.4817  0.3074
  387MOL0     C53308   4.212  10.003   6.535  0.3482  0.3556 -0.4070
  387MOL0     C53309   4.272  10.116   6.637 -0.7220  0.6256 -0.2638
  387MOL0     C53310   4.237  10.255   6.589  0.4908  0.5301  0.6331
  387MOL0     C53311   4.304  10.351   6.684 -0.6719 -0.3848  0.8510
  387MOL0     C53312   4.327  10.497   6.641  0.1266 -0.7641 -0.7712
  387MOL0    Cl53313   4.181  10.604   6.644  0.2571  0.1633 -0.2111
  387MOL0     C53314   4.087   9.979   5.914 -0.4353  0.0890 -0.3279
  387MOL0     C53315   4.028   9.924   5.799  0.5907 -0.7793 -0.2786
  387MOL0     O53316   4.028   9.591   5.652  0.8876  0.1214 -0.4425
  387MOL0     C53317   3.814   9.483   5.490 -0.4600 -0.0473 -0.4924
  387MOL0     C53318   3.748   9.442   5.371  0.2943  0.0329 -0.2852
  387MOL0     N53319   2.955   9.291   5.117 -0.1437  0.4955 -0.2327
  387MOL0     N53320   2.861   9.217   5.063 -0.0250 -0.7943  0.6705
  387MOL0     C53321   2.429   8.156   5.369  0.4846  0.0879  0.9270
  387MOL0     C53322   2.291   8.184   5.406 -0.0053 -0.0841 -0.6350
  387MOL0     C53323   1.931   8.450   5.487  0.3989 -0.7560 -0.3260
  387MOL0     C53324   1.870   8.572   5.488  0.3345 -0.0223 -0.0645
  387MOL0     C53325   1.745   8.601   5.553  0.0068 -0.1280 -0.0211
  387MOL0     C53326   1.674   8.501   5.605  0.6294 -0.6169  0.4234
  387MOL0     O53327   1.549   8.517   5.665  0.0198  0.8930 -0.3307
  387MOL0     C53328   1.498   8.657   5.660  0.7135  0.8014 -0.1203
  387MOL0     C53329   1.341   8.667   5.683 -0.2452 -0.0470 -0.0309
  387MOL0     C53330   1.294   8.637   5.820 -0.0956  0.3446 -0.0718
  387MOL0     C53331   1.315   8.763   5.920 -0.6804 -0.0739  0.3190
  387MOL0     C53332   1.270   8.743   6.059  0.3822 -0.0493  0.2563
  387MOL0     C53333   1.225   8.732   6.164  0.2804 -0.1455 -0.1514
  387MOL0     C53334   1.720   8.368   5.585  0.2659  0.1224 -0.7140
  387MOL0     C53335   1.842   8.348   5.531 -0.6354  0.5099 -0.0337
  387MOL0     C53336   1.893   8.204   5.530 -0.2159 -0.2134 -0.3186
  387MOL0     H53337   2.342   8.482   5.559 -2.8676 -1.5569  0.7881
  387MOL0     H53338   2.569   8.433   5.520 -0.8182  2.9403 -4.5964
  387MOL0     H53339   2.608   8.286   5.169 -0.8571 -1.3153  0.3914
  387MOL0     H53340   2.676   8.121   5.186 -0.4396  0.6359 -0.6658
  387MOL0     H53341   2.884   8.197   5.255 -2.0183 -2.4359 -0.2683
  387MOL0     H53342   2.845   8.243   5.088  1.9917 -0.3888  0.1503
  387MOL0     H53343   2.741   8.439   5.288 -0.5681  0.3776 -0.3203
  387MOL0     H53344   2.917   8.431   5.279 -0.1337 -1.2185 -0.7408
  387MOL0     H53345   2.884   8.470   5.010 -0.4265 -0.2721 -0.0244
  387MOL0     H53346   2.720   8.503   5.054 -0.8508 -0.0578  1.0019
  387MOL0     H53347   2.961   8.651   5.141  0.8043 -1.5444 -2.7693
  387MOL0     H53348   2.806   8.666   5.232 -1.4918 -1.9709 -0.0762
  387MOL0     H53349   2.857   8.724   4.938  0.7390  2.0617 -0.9361
  387MOL0     H53350   2.709   8.752   5.037 -0.3742  2.0031 -2.7706
  387MOL0     H53351   2.976   8.890   5.086 -0.3205 -1.1168  1.3971
  387MOL0     H53352   2.833   8.917   5.173  3.0506  0.3329  1.1065
  387MOL0     H53353   2.853   8.968   4.873 -2.5870 -0.1624 -0.2722
  387MOL0     H53354   2.722   9.013   4.990 -0.3205 -2.7894  1.3720
  387MOL0     H53355   3.131   9.068   4.940  0.4368  0.9513  0.4685
  387MOL0     H53356   3.275   9.197   5.062 -2.9915 -1.5518 -0.6672
  387MOL0     H53357   3.214   9.227   5.225 -1.5765  0.2468  1.1761
  387MOL0     H53358   3.189   9.455   5.022  1.3990 -4.3094 -3.9779
  387MOL0     H53359   3.198   9.450   5.197  0.2089 -2.0548  0.4988
  387MOL0     H53360   3.437   9.401   5.006 -0.1778 -0.6885 -0.2211
  387MOL0     H53361   3.411   9.558   5.083  2.5672 -0.5952  2.1367
  387MOL0     H53362   3.465   9.440   5.302  2.9323  0.2605  1.6688
  387MOL0     H53363   3.512   9.303   5.200  1.3363  0.5258  0.3521
  387MOL0     H53364   3.681   9.731   5.229  1.1560  1.9330  1.2164
  387MOL0     H53365   3.764   9.911   5.424  1.3288  1.2045  0.8917
  387MOL0     H53366   3.856   9.887   5.287  2.0302  0.8522  0.3944
  387MOL0     H53367   3.933   9.888   5.451 -0.2639  0.6046  0.4020
  387MOL0     H53368   3.843   9.680   5.921  0.9729 -1.1173 -2.5533
  387MOL0     H53369   3.951   9.754   6.131 -0.6830  0.2059 -0.2548
  387MOL0     H53370   4.060   9.883   6.331  0.7229 -0.8141  1.0893
  387MOL0     H53371   4.141   9.760   6.230 -0.0624  0.7829 -1.4876
  387MOL0     H53372   4.259   9.779   6.397  0.1863 -0.2455 -0.4355
  387MOL0     H53373   4.361   9.838   6.270  0.5014 -1.3020  2.4160
  387MOL0     H53374   4.295  10.085   6.358 -3.3312 -0.1053 -0.1862
  387MOL0     H53375   4.405   9.996   6.465 -1.4015  2.0252  3.0360
  387MOL0     H53376   4.223   9.902   6.575  0.6797  1.2081  1.8416
  387MOL0     H53377   4.107  10.011   6.506  0.2055  0.7524  0.1978
  387MOL0     H53378   4.240  10.102   6.741 -0.0669 -0.9302 -0.2531
  387MOL0     H53379   4.381  10.111   6.641 -0.4759  1.6926 -3.3043
  387MOL0     H53380   4.130  10.271   6.576  0.5249  0.3201  0.0512
  387MOL0     H53381   4.282  10.272   6.490 -0.1875 -0.8035  0.0694
  387MOL0     H53382   4.407  10.324   6.713 -0.4143 -0.6822 -0.2712
  387MOL0     H53383   4.248  10.342   6.777 -2.9571  1.2137 -0.2921
  387MOL0     H53384   4.366  10.487   6.539 -0.3155 -0.7099 -0.9458
  387MOL0     H53385   4.398  10.544   6.711  0.9943 -0.4284 -1.8420
  387MOL0     H53386   4.151  10.066   5.920 -0.4008  0.0899 -0.6641
  387MOL0     H53387   4.051   9.969   5.703 -0.2823  2.8644  1.0457
  387MOL0     H53388   3.843   9.411   5.566  2.2070  2.0827  0.6701
  387MOL0     H53389   3.727   9.336   5.360  0.0373  0.1199 -0.6519
  387MOL0     H53390   2.458   8.074   5.304  0.8582  2.3722 -1.9881
  387MOL0     H53391   2.215   8.113   5.375  1.0473 -0.8883 -1.4566
  387MOL0     H53392   1.928   8.660   5.464  2.3996 -0.3407  3.0799
  387MOL0     H53393   1.718   8.706   5.564 -0.1016 -0.3563  2.6079
  387MOL0     H53394   1.545   8.707   5.745  2.3430 -0.5671 -0.1483
  387MOL0     H53395   1.529   8.713   5.572  0.3869 -1.3073 -1.6528
  387MOL0     H53396   1.290   8.601   5.613  3.2142  1.0859 -4.0453
  387MOL0     H53397   1.320   8.770   5.651  1.6324  0.9865  1.8196
  387MOL0     H53398   1.196   8.593   5.839 -0.4746  1.6586  1.2965
  387MOL0     H53399   1.355   8.556   5.861 -1.9335 -0.8095  0.4652
  387MOL0     H53400   1.266   8.847   5.870  0.5919 -0.6142 -1.9631
  387MOL0     H53401   1.423   8.779   5.920 -0.4447 -0.9200 -2.9170
  387MOL0     H53402   1.173   8.726   6.257  0.9614 -0.6932  0.2014
  387MOL0     H53403   1.659   8.288   5.624 -0.1409 -1.6161 -4.5239
  387MOL0     H53404   1.809   8.138   5.553 -2.3764  2.8452  1.2084
  387MOL0     H53405   1.940   8.168   5.437 -0.6852  1.3681 -1.2038
  387MOL0     H53406   1.964   8.204   5.614 -2.7033 -0.3263  1.9130
  388MOL0     O53407   5.087   6.631   1.605  0.2482  0.3775  0.8223
  388MOL0     C53408   5.069   6.524   1.654  0.0620 -0.3264 -0.9533
  388MOL0     O53409   5.132   6.405   1.633 -0.2931 -0.0443 -0.1369
  388MOL0     C53410   5.239   6.387   1.546  0.5165  0.9605 -0.0366
  388MOL0     C53411   5.348   6.301   1.570 -0.2575 -0.5370  1.0717
  388MOL0     C53412   5.451   6.288   1.476  0.8675 -0.5892  0.4887
  388MOL0     C53413   5.464   6.370   1.363  0.0876  0.0424  0.7211
  388MOL0     O53414   5.570   6.346   1.278  0.9147 -0.3130 -0.1000
  388MOL0     C53415   5.562   6.354   1.132  0.3037 -0.6572 -0.6775
  388MOL0     C53416   5.660   6.252   1.076 -0.5609 -0.3643 -0.5478
  388MOL0     C53417   5.662   6.286   0.931 -0.1688  0.6975  0.3139
  388MOL0     C53418   5.718   6.180   0.844  0.9036  0.3744 -0.1026
  388MOL0     C53419   5.744   6.231   0.698  1.0299 -0.4072 -0.1691
  388MOL0     C53420   5.624   6.315   0.653 -0.1611  0.2211 -0.7248
  388MOL0     C53421   5.609   6.316   0.495 -0.1977  0.3431  0.2610
  388MOL0     C53422   5.489   6.396   0.451  0.7213  1.2326 -0.5999
  388MOL0     N53423   5.365   6.334   0.481  0.4349 -0.2235 -0.1528
  388MOL0     C53424   5.290   6.273   0.386  0.3207 -0.1045 -0.6354
  388MOL0     C53425   5.176   6.231   0.456 -0.7679  0.9248 -0.7434
  388MOL0     C53426   5.065   6.153   0.406 -0.0386  0.9925  0.5117
  388MOL0     C53427   4.995   6.229   0.294 -0.2750  0.5699 -0.1976
  388MOL0     C53428   4.881   6.145   0.222 -0.4540  0.0928 -0.4508
  388MOL0     C53429   4.775   6.109   0.328 -0.6603 -0.9861  0.2659
  388MOL0     O53430   4.693   6.002   0.285 -0.0850 -0.9460  0.3964
  388MOL0     C53431   4.601   5.952   0.375 -0.1104  0.2170 -0.1293
  388MOL0     C53432   4.551   6.027   0.477  0.4737  0.1518  0.0191
  388MOL0     C53433   4.458   5.974   0.565 -0.6080 -0.1194 -0.9807
  388MOL0     C53434   4.413   6.067   0.676  1.1553  0.2760 -0.5342
  388MOL0     C53435   4.405   5.845   0.556 -0.1895  0.0122  0.9469
  388MOL0     C53436   4.303   5.783   0.643 -0.0149 -0.1591  0.6075
  388MOL0     O53437   4.248   5.666   0.595 -0.4777  0.3433  0.1223
  388MOL0     C53438   4.166   5.600   0.677 -0.9596 -0.2677 -0.4742
  388MOL0     C53439   4.215   5.479   0.739  0.0041 -0.9790 -0.1091
  388MOL0     C53440   4.144   5.414   0.836  0.2119  0.6115 -0.6679
  388MOL0     C53441   4.030   5.475   0.876 -0.1231  0.2663  0.6407
  388MOL0     O53442   3.964   5.425   0.990 -0.3197 -0.3108  0.4931
  388MOL0     C53443   3.834   5.383   0.959 -0.1623 -0.1568  0.3578
  388MOL0     C53444   3.746   5.354   1.085 -0.3897 -0.4968  0.5178
  388MOL0     C53445   3.600   5.308   1.059  0.1309  0.6929  0.0703
  388MOL0     C53446   3.494   5.408   1.037 -0.9284 -0.3081 -0.2450
  388MOL0     C53447   3.364   5.342   1.060  0.4874  0.2316 -0.3766
  388MOL0     C53448   3.240   5.422   1.021 -1.0368 -0.3738 -0.4683
  388MOL0     C53449   3.106   5.342   1.007  0.1314  0.8460  0.1953
  388MOL0     C53450   3.113   5.229   0.899  0.1792  0.5634 -0.1350
  388MOL0    Cl53451   2.953   5.158   0.871 -0.2559  0.0585 -0.1712
  388MOL0     C53452   3.978   5.595   0.826 -0.1099 -0.4207  0.3133
  388MOL0     C53453   4.046   5.654   0.720 -0.0595 -0.7678 -0.0965
  388MOL0     O53454   4.268   5.832   0.746 -0.8833 -0.0967 -0.3301
  388MOL0     C53455   4.439   5.782   0.443 -1.1014  1.1630 -0.4030
  388MOL0     C53456   4.542   5.826   0.355  0.5020 -0.0709 -0.4175
  388MOL0     N53457   5.188   6.280   0.583  0.7654  0.0185 -0.4533
  388MOL0     N53458   5.298   6.351   0.597  0.0693 -0.2852 -0.6625
  388MOL0     C53459   5.352   6.455   1.334 -0.4734 -0.5036 -0.8849
  388MOL0     C53460   5.245   6.461   1.429 -0.2039 -0.3729  0.1215
  388MOL0     C53461   4.971   6.525   1.763 -0.4235  0.4195  0.0090
  388MOL0     C53462   5.014   6.465   1.872  0.6820 -0.3512 -0.4579
  388MOL0     C53463   4.937   6.464   1.988 -0.1893 -0.4085  0.2286
  388MOL0     C53464   4.799   6.501   1.982  0.8212 -0.8098  0.3680
  388MOL0     O53465   4.720   6.500   2.090  0.3269 -0.2633 -0.4472
  388MOL0     C53466   4.747   6.413   2.198 -0.4509 -0.5204  0.2110
  388MOL0     C53467   4.612   6.379   2.262 -0.5946 -1.1576  0.3641
  388MOL0     C53468   4.631   6.296   2.389 -0.3845  0.8079  0.0201
  388MOL0     C53469   4.639   6.143   2.355 -0.5780 -0.6366  0.1436
  388MOL0     C53470   4.526   6.057   2.391 -0.7072 -1.2174 -0.1307
  388MOL0     C53471   4.434   5.987   2.423  0.9737 -0.3397 -0.6040
  388MOL0     C53472   4.754   6.565   1.863 -0.5810  0.1502 -0.2602
  388MOL0     C53473   4.839   6.583   1.764  0.0736 -0.6894 -0.7135
  388MOL0     C53474   4.796   6.668   1.651  0.1522  0.3880 -0.2378
  388MOL0     H53475   5.341   6.255   1.667 -1.4551  0.2524  1.3867
  388MOL0     H53476   5.529   6.219   1.507  2.8930  1.9568  1.4535
  388MOL0     H53477   5.591   6.454   1.097  1.5461 -0.8686 -0.2928
  388MOL0     H53478   5.465   6.325   1.090  0.3791 -0.0169 -1.3114
  388MOL0     H53479   5.759   6.271   1.118 -1.0323  0.7687  0.0816
  388MOL0     H53480   5.629   6.147   1.085 -0.0832 -0.5483 -1.0234
  388MOL0     H53481   5.570   6.323   0.884  1.4513  1.5219 -2.4876
  388MOL0     H53482   5.731   6.370   0.920  1.3397 -0.4442  0.7184
  388MOL0     H53483   5.812   6.148   0.891  1.2891  3.8090  1.7424
  388MOL0     H53484   5.650   6.095   0.848  2.5012 -0.9699 -0.3945
  388MOL0     H53485   5.749   6.144   0.631  3.8369 -0.9606  0.6347
  388MOL0     H53486   5.841   6.280   0.691  0.3728  1.7751  3.3088
  388MOL0     H53487   5.530   6.278   0.697  1.0591 -1.6037  0.4890
  388MOL0     H53488   5.634   6.415   0.696  1.9958 -0.1731 -0.2142
  388MOL0     H53489   5.583   6.216   0.459 -3.4242  1.3557 -0.6188
  388MOL0     H53490   5.697   6.358   0.446 -0.4398  0.1249 -0.3812
  388MOL0     H53491   5.491   6.493   0.502  0.5307  0.8098  0.2233
  388MOL0     H53492   5.502   6.412   0.343  1.7917 -2.9558 -1.2880
  388MOL0     H53493   5.319   6.240   0.286  0.4592 -1.4538 -0.1666
  388MOL0     H53494   4.991   6.145   0.487 -1.8382  3.8410 -0.7074
  388MOL0     H53495   5.107   6.057   0.373 -2.6939  0.3908 -1.4259
  388MOL0     H53496   4.968   6.329   0.329 -0.2458  0.2947  0.6196
  388MOL0     H53497   5.063   6.245   0.210 -1.7202  0.6165 -1.3999
  388MOL0     H53498   4.830   6.191   0.137  0.2352 -0.1621 -1.0135
  388MOL0     H53499   4.921   6.057   0.172 -3.0618 -0.6380 -1.3972
  388MOL0     H53500   4.811   6.085   0.428 -3.3331  4.2670  2.9328
  388MOL0     H53501   4.707   6.194   0.340 -1.7338 -1.6404 -0.9017
  388MOL0     H53502   4.576   6.132   0.487  0.1094  0.2077  0.3901
  388MOL0     H53503   4.425   6.174   0.655 -2.5117  1.3334  1.7884
  388MOL0     H53504   4.455   6.053   0.777  0.2025  1.5311  0.0530
  388MOL0     H53505   4.307   6.066   0.701  1.1056  0.4984 -0.7350
  388MOL0     H53506   4.317   5.455   0.708  1.0977 -0.5429  2.8472
  388MOL0     H53507   4.169   5.313   0.866  2.2582 -0.2989 -4.7413
  388MOL0     H53508   3.779   5.457   0.900  0.0288  0.7890  1.3260
  388MOL0     H53509   3.843   5.281   0.921  1.3662  0.5206 -1.2467
  388MOL0     H53510   3.788   5.284   1.158 -0.7115 -0.4448  0.7532
  388MOL0     H53511   3.751   5.453   1.130  1.5852  0.7408 -2.1450
  388MOL0     H53512   3.569   5.244   1.143  2.4815  1.3659  1.5479
  388MOL0     H53513   3.589   5.251   0.966  1.7613 -0.7327  0.7064
  388MOL0     H53514   3.493   5.460   0.940 -0.7654 -0.2145 -0.1957
  388MOL0     H53515   3.499   5.487   1.112 -1.2446 -1.6060  1.1840
  388MOL0     H53516   3.367   5.245   1.009 -2.0283  0.0935 -0.3844
  388MOL0     H53517   3.348   5.323   1.166 -2.2206  0.0554 -0.7398
  388MOL0     H53518   3.249   5.461   0.920  1.5674 -2.6358 -1.2055
  388MOL0     H53519   3.222   5.500   1.095 -2.3617 -1.4297  0.3868
  388MOL0     H53520   3.022   5.408   0.981 -0.5985 -0.4192 -0.7447
  388MOL0     H53521   3.085   5.288   1.100 -0.3933 -1.0001 -0.9444
  388MOL0     H53522   3.180   5.152   0.940  2.1829  2.3281  0.0900
  388MOL0     H53523   3.163   5.257   0.805  1.9009 -0.6946  0.3465
  388MOL0     H53524   3.899   5.660   0.861  1.4707  1.4353  0.5652
  388MOL0     H53525   4.000   5.745   0.683  0.1495 -1.0354 -1.0521
  388MOL0     H53526   4.390   5.688   0.419  2.0153 -1.6409  2.9911
  388MOL0     H53527   4.577   5.757   0.279 -0.1778 -0.6458 -0.2180
  388MOL0     H53528   5.337   6.531   1.258 -0.4029  0.2384 -0.1705
  388MOL0     H53529   5.164   6.529   1.405  2.3444  2.6645 -0.5774
  388MOL0     H53530   5.114   6.423   1.881  1.3050  1.0115 -0.7957
  388MOL0     H53531   4.979   6.424   2.080 -0.3606 -0.2082  0.3941
  388MOL0     H53532   4.800   6.324   2.163 -0.9902 -0.7923  0.0791
  388MOL0     H53533   4.816   6.457   2.271  2.7886 -2.3215 -1.5141
  388MOL0     H53534   4.550   6.320   2.195  0.3235 -1.4903 -0.2238
  388MOL0     H53535   4.552   6.466   2.291  1.2298  0.6331 -0.9193
  388MOL0     H53536   4.724   6.327   2.436 -2.1477  2.3588  2.7332
  388MOL0     H53537   4.555   6.313   2.465  0.4851  0.5855  0.9598
  388MOL0     H53538   4.737   6.108   2.389  0.0663  0.3502 -0.6601
  388MOL0     H53539   4.648   6.133   2.246  1.5597  1.9095 -0.0060
  388MOL0     H53540   4.355   5.919   2.447 -1.3380  1.8027 -1.6432
  388MOL0     H53541   4.646   6.577   1.862 -1.1906 -4.0358 -0.5966
  388MOL0     H53542   4.688   6.687   1.659 -0.0556 -1.4806  3.1292
  388MOL0     H53543   4.842   6.767   1.655  2.8788 -0.8427  1.3328
  388MOL0     H53544   4.824   6.623   1.555 -1.7830 -1.3994 -0.0393
  389MOL0     O53545   9.991   1.035   1.421 -1.0600  0.1644 -0.5473
  389MOL0     C53546  10.075   1.052   1.508 -1.3745 -0.4476  0.1602
  389MOL0     O53547  10.193   1.138   1.506 -0.0935 -0.0400 -0.1892
  389MOL0     C53548  10.229   1.214   1.398 -0.1967  1.1566 -0.4703
  389MOL0     C53549  10.335   1.302   1.417 -0.3662 -0.9395  0.2729
  389MOL0     C53550  10.377   1.399   1.322 -0.3531  0.8365 -0.0107
  389MOL0     C53551  10.316   1.410   1.191  0.1475 -0.2026  0.0908
  389MOL0     O53552  10.366   1.510   1.109  0.8470  0.0563 -0.5425
  389MOL0     C53553  10.327   1.503   0.963 -0.5843 -0.0551 -0.2318
  389MOL0     C53554  10.398   1.604   0.877  1.6058  0.0955  0.5898
  389MOL0     C53555  10.306   1.706   0.797 -0.5665  0.2517  0.9240
  389MOL0     C53556  10.217   1.618   0.703 -0.4460 -1.3483 -0.6306
  389MOL0     C53557  10.116   1.710   0.628 -0.3404  0.1833 -0.3473
  389MOL0     C53558  10.028   1.623   0.536 -0.2845 -0.4670 -0.9195
  389MOL0     C53559   9.906   1.707   0.484  1.1079 -0.5339  0.5647
  389MOL0     C53560   9.819   1.625   0.383 -0.1622 -0.1799  0.3023
  389MOL0     N53561   9.738   1.717   0.310  0.2769 -0.2049  0.3247
  389MOL0     C53562   9.781   1.811   0.219 -0.4065 -1.0190  0.2424
  389MOL0     C53563   9.678   1.889   0.186  2.0352  0.2435  0.1985
  389MOL0     C53564   9.666   2.007   0.088  0.4892 -0.1529  1.0610
  389MOL0     C53565   9.674   1.976  -0.056 -0.3150 -0.6219  0.1976
  389MOL0     C53566   9.558   1.905  -0.106  0.5333 -0.0794  0.3856
  389MOL0     C53567   9.553   1.900  -0.262 -0.2170  0.7926 -0.2608
  389MOL0     O53568   9.436   1.830  -0.299 -1.0607  0.5448  0.1951
  389MOL0     C53569   9.402   1.805  -0.431  0.0945 -0.3251  0.3119
  389MOL0     C53570   9.472   1.862  -0.540  0.0911 -0.6547  0.7285
  389MOL0     C53571   9.414   1.854  -0.671  0.4857 -0.0090  0.1024
  389MOL0     C53572   9.503   1.918  -0.762 -0.0513 -0.4476  0.2441
  389MOL0     C53573   9.294   1.781  -0.694  0.5998 -1.0179  0.2857
  389MOL0     C53574   9.242   1.753  -0.829  0.3541 -0.2058  0.7240
  389MOL0     O53575   9.148   1.652  -0.846  0.6573 -1.1124  0.1083
  389MOL0     C53576   9.114   1.605  -0.971 -0.0309  0.2711  0.6420
  389MOL0     C53577   9.216   1.593  -1.069  0.1159 -0.8013  1.4126
  389MOL0     C53578   9.167   1.545  -1.196 -0.0298 -0.4797  0.3104
  389MOL0     C53579   9.035   1.481  -1.208  0.4038  0.4731 -0.0583
  389MOL0     O53580   8.982   1.443  -1.322 -0.3269  0.2291  0.2809
  389MOL0     C53581   9.067   1.420  -1.437  0.2408  0.0276 -0.6371
  389MOL0     C53582   8.997   1.320  -1.534 -0.3208  0.0047 -0.4567
  389MOL0     C53583   8.845   1.340  -1.551 -0.7199 -0.1044  0.6678
  389MOL0     C53584   8.824   1.471  -1.634 -0.4732  0.7970 -0.5142
  389MOL0     C53585   8.683   1.516  -1.651 -0.7148  0.4967 -0.7311
  389MOL0     C53586   8.606   1.415  -1.750  0.7334  0.3073 -0.4771
  389MOL0     C53587   8.470   1.469  -1.801  0.2511 -0.5337  0.1908
  389MOL0     C53588   8.419   1.381  -1.912  0.5905  0.7070 -0.0986
  389MOL0    Cl53589   8.249   1.408  -1.913  0.1518 -0.1305 -0.2359
  389MOL0     C53590   8.948   1.499  -1.112 -0.3053  0.2906  0.5611
  389MOL0     C53591   8.985   1.562  -0.992  0.4349  0.1992  0.1560
  389MOL0     O53592   9.284   1.826  -0.921 -0.1996 -0.4127 -0.1505
  389MOL0     C53593   9.233   1.727  -0.584 -0.5373 -0.6752 -0.7465
  389MOL0     C53594   9.280   1.737  -0.456  0.2473  0.0801  0.6024
  389MOL0     N53595   9.573   1.839   0.261 -0.2617 -0.1685 -0.2565
  389MOL0     N53596   9.606   1.738   0.334 -0.5802 -0.2875 -0.2083
  389MOL0     C53597  10.211   1.318   1.166 -0.5458  0.4889 -0.5186
  389MOL0     C53598  10.168   1.222   1.267  0.1158  0.2121  0.6873
  389MOL0     C53599  10.084   0.951   1.615  0.3527 -0.3166 -0.0543
  389MOL0     C53600  10.205   0.940   1.690  0.1338  1.0388 -0.0277
  389MOL0     C53601  10.220   0.865   1.805  0.8224  0.5315  0.2002
  389MOL0     C53602  10.107   0.783   1.851  0.6468 -0.2325 -0.5863
  389MOL0     O53603  10.105   0.703   1.967  0.5197 -0.4872  0.3998
  389MOL0     C53604  10.220   0.621   1.974 -0.0948  0.0796 -0.6060
  389MOL0     C53605  10.223   0.528   2.096 -0.4999 -0.6092 -0.7293
  389MOL0     C53606  10.086   0.477   2.128 -0.0809  0.3839 -0.7104
  389MOL0     C53607  10.088   0.360   2.222 -0.2476  0.3618  0.6450
  389MOL0     C53608   9.948   0.299   2.234  0.4365 -1.4764  0.1053
  389MOL0     C53609   9.843   0.243   2.240  1.3611  0.1621  0.5001
  389MOL0     C53610  10.000   0.788   1.760 -0.2096  0.3261  0.0787
  389MOL0     C53611   9.987   0.853   1.642  0.4709 -0.2901  0.7481
  389MOL0     C53612   9.861   0.835   1.563 -0.3699  0.1753 -0.0664
  389MOL0     H53613  10.376   1.300   1.518  1.3667 -1.4868 -0.4065
  389MOL0     H53614  10.451   1.473   1.351  3.4789 -2.3921 -0.6824
  389MOL0     H53615  10.218   1.499   0.959 -0.7769  1.6326  1.4406
  389MOL0     H53616  10.361   1.407   0.924 -3.7443 -1.2463 -0.3711
  389MOL0     H53617  10.481   1.649   0.932  3.9531  1.1048 -3.3852
  389MOL0     H53618  10.440   1.550   0.791  0.0003 -0.6897  0.2415
  389MOL0     H53619  10.244   1.768   0.863 -2.7314  1.8552 -2.3820
  389MOL0     H53620  10.361   1.772   0.730 -1.5476  1.2333  1.0704
  389MOL0     H53621  10.278   1.558   0.636  3.5895  1.2547  0.3181
  389MOL0     H53622  10.160   1.555   0.771  0.5473 -0.4184  1.1688
  389MOL0     H53623  10.180   1.773   0.565  3.2983 -0.0837  2.7415
  389MOL0     H53624  10.058   1.755   0.709  1.4765  0.2183  0.9848
  389MOL0     H53625  10.076   1.582   0.447 -3.6499  1.8847 -4.1154
  389MOL0     H53626   9.987   1.546   0.602  1.7767  0.9949  2.3717
  389MOL0     H53627   9.947   1.794   0.431  1.7405 -1.5196 -0.6318
  389MOL0     H53628   9.844   1.745   0.565  1.8700  1.1584  0.3867
  389MOL0     H53629   9.884   1.576   0.310 -0.0564  3.1385 -2.0568
  389MOL0     H53630   9.748   1.561   0.437 -1.2815  1.7023  1.1441
  389MOL0     H53631   9.884   1.822   0.186 -0.1985 -0.4423  1.0589
  389MOL0     H53632   9.737   2.084   0.121  0.3495  0.7153 -0.5564
  389MOL0     H53633   9.568   2.049   0.109 -0.2543 -1.2651 -0.1001
  389MOL0     H53634   9.691   2.065  -0.118  0.4184 -3.8253 -4.8449
  389MOL0     H53635   9.763   1.915  -0.078 -0.8671 -1.0225 -0.9995
  389MOL0     H53636   9.559   1.802  -0.070  0.9755 -0.1540  0.1706
  389MOL0     H53637   9.463   1.951  -0.076  0.5118 -0.3490  0.7320
  389MOL0     H53638   9.548   2.004  -0.294  0.6101  0.9499  0.1084
  389MOL0     H53639   9.640   1.847  -0.304 -1.2134  0.3984 -1.9325
  389MOL0     H53640   9.567   1.911  -0.524  0.0924 -1.1092  2.2423
  389MOL0     H53641   9.560   1.837  -0.806  0.0097 -1.1394  1.5551
  389MOL0     H53642   9.577   1.985  -0.716  2.5467 -2.2060 -1.1345
  389MOL0     H53643   9.439   1.979  -0.828  1.3551 -1.4818 -2.2279
  389MOL0     H53644   9.323   1.613  -1.073  0.4009 -2.3351 -0.4741
  389MOL0     H53645   9.236   1.537  -1.280 -0.4109 -2.3198  0.1305
  389MOL0     H53646   9.064   1.516  -1.490 -2.9739  0.5453  0.2711
  389MOL0     H53647   9.170   1.390  -1.415 -0.0857 -0.0249  0.9927
  389MOL0     H53648   9.037   1.311  -1.636 -2.4927 -1.8385 -1.2162
  389MOL0     H53649   9.016   1.221  -1.491 -1.6756 -1.0018 -2.0564
  389MOL0     H53650   8.799   1.348  -1.452  3.3470  0.6954  2.7299
  389MOL0     H53651   8.797   1.262  -1.610 -0.0569 -0.6789  0.8745
  389MOL0     H53652   8.869   1.457  -1.733  0.6909  2.1348 -0.2069
  389MOL0     H53653   8.888   1.536  -1.573  1.1516 -4.2215  3.8644
  389MOL0     H53654   8.631   1.521  -1.555 -1.7632  3.3675 -1.3453
  389MOL0     H53655   8.676   1.617  -1.692  2.0862  0.5597 -1.2719
  389MOL0     H53656   8.588   1.330  -1.684  1.3848  1.2186  0.9435
  389MOL0     H53657   8.670   1.382  -1.832  0.4847 -0.7573 -0.2566
  389MOL0     H53658   8.475   1.566  -1.851  1.8424 -2.4099 -3.7004
  389MOL0     H53659   8.399   1.466  -1.718 -0.1930 -0.6305 -0.1864
  389MOL0     H53660   8.430   1.274  -1.899 -1.9619  0.3151 -0.6020
  389MOL0     H53661   8.469   1.407  -2.006  1.9770 -3.4282 -0.6756
  389MOL0     H53662   8.844   1.468  -1.112 -0.7015  1.3680 -1.8662
  389MOL0     H53663   8.920   1.570  -0.905 -1.8340 -3.8964 -0.9039
  389MOL0     H53664   9.147   1.661  -0.578  0.2064 -1.5231  1.8224
  389MOL0     H53665   9.214   1.693  -0.382 -0.2286 -0.8853 -0.3707
  389MOL0     H53666  10.154   1.319   1.073 -2.1181  0.8862  0.4165
  389MOL0     H53667  10.091   1.157   1.228  0.2174  0.6670 -0.3054
  389MOL0     H53668  10.289   1.002   1.660  1.9004 -1.9902 -1.8005
  389MOL0     H53669  10.317   0.867   1.854  0.5287 -0.9000  0.8696
  389MOL0     H53670  10.221   0.560   1.883  2.4254  0.5638 -0.9812
  389MOL0     H53671  10.318   0.668   1.971  1.8477 -3.1362  2.9828
  389MOL0     H53672  10.248   0.591   2.182 -3.3966  0.7711 -0.7768
  389MOL0     H53673  10.285   0.438   2.086 -2.8036 -2.1714 -1.8620
  389MOL0     H53674  10.013   0.544   2.174 -2.1921 -1.1084 -1.7102
  389MOL0     H53675  10.035   0.451   2.035 -0.3918  0.2586 -0.5070
  389MOL0     H53676  10.122   0.384   2.323  3.1049  1.1243 -0.5210
  389MOL0     H53677  10.159   0.282   2.191 -1.6647  0.1519 -2.4257
  389MOL0     H53678   9.742   0.207   2.240  0.8107  1.4616 -1.9459
  389MOL0     H53679   9.922   0.720   1.795  2.7262 -3.6994 -0.5608
  389MOL0     H53680   9.786   0.771   1.610 -0.1777  1.3169  1.9428
  389MOL0     H53681   9.822   0.937   1.565 -0.7814  0.0946 -2.2378
  389MOL0     H53682   9.885   0.795   1.465  4.4237  0.5565  0.7060
  390MOL0     O53683   7.363   5.759   8.650  0.4195  0.5786  0.7516
  390MOL0     C53684   7.318   5.656   8.601  0.5549 -0.4596 -0.4277
  390MOL0     O53685   7.387   5.569   8.526  0.7688 -0.6194  0.5852
  390MOL0     C53686   7.524   5.570   8.554 -0.2570 -0.1475 -0.1532
  390MOL0     C53687   7.612   5.667   8.497 -0.2853 -0.3443  0.7479
  390MOL0     C53688   7.750   5.669   8.519 -0.1320  0.7468 -0.7225
  390MOL0     C53689   7.806   5.563   8.598  0.5029  0.2596 -0.1443
  390MOL0     O53690   7.933   5.573   8.630  0.7423  0.1695  0.1286
  390MOL0     C53691   8.006   5.456   8.662 -0.2784  0.1860 -0.2811
  390MOL0     C53692   8.152   5.463   8.638  0.4802 -0.1457  0.4581
  390MOL0     C53693   8.234   5.575   8.704 -0.5236 -0.6928 -0.1650
  390MOL0     C53694   8.379   5.554   8.682  0.4809 -0.0164 -0.6149
  390MOL0     C53695   8.464   5.636   8.770  0.3843 -0.3780  0.0480
  390MOL0     C53696   8.573   5.548   8.831 -0.4436  0.1260 -0.9083
  390MOL0     C53697   8.654   5.619   8.943  0.2272 -1.4601 -0.2002
  390MOL0     C53698   8.771   5.544   9.007  0.7273  0.6220  0.5628
  390MOL0     N53699   8.727   5.412   9.062 -0.4518  0.3366  0.0493
  390MOL0     C53700   8.641   5.392   9.165  0.3487 -1.3879 -0.0160
  390MOL0     C53701   8.645   5.258   9.191  0.3434 -0.6871 -0.1545
  390MOL0     C53702   8.574   5.185   9.302  0.0990  0.4556 -0.7347
  390MOL0     C53703   8.667   5.129   9.399 -1.1982  0.2915 -0.3435
  390MOL0     C53704   8.722   5.244   9.481  0.0623 -1.1165  0.6798
  390MOL0     C53705   8.807   5.183   9.603  0.0334  0.3092  0.3573
  390MOL0     O53706   8.843   5.286   9.702  0.3300  0.8894 -0.7863
  390MOL0     C53707   8.920   5.242   9.808  0.1517 -0.6730  0.5660
  390MOL0     C53708   8.958   5.115   9.839  0.9105  0.5799  0.6758
  390MOL0     C53709   9.045   5.087   9.947 -0.1379 -0.2556 -0.1883
  390MOL0     C53710   9.077   4.951   9.978 -0.2823  0.7040 -0.0646
  390MOL0     C53711   9.104   5.190  10.021 -0.6157 -0.2450 -0.1737
  390MOL0     C53712   9.205   5.171  10.134  0.1107  0.2628  0.1302
  390MOL0     O53713   9.218   5.285  10.212 -1.1044  0.0214 -0.0516
  390MOL0     C53714   9.323   5.282  10.301 -0.6526  0.2288 -0.1253
  390MOL0     C53715   9.323   5.196  10.409  0.9227 -0.8318  0.3284
  390MOL0     C53716   9.427   5.199  10.506 -0.5407  0.1608 -0.0436
  390MOL0     C53717   9.541   5.283  10.481 -0.0959  0.5506  0.5518
  390MOL0     O53718   9.650   5.271  10.571  0.1079 -0.1058 -0.4590
  390MOL0     C53719   9.637   5.216  10.707  1.9930 -0.8668  0.2766
  390MOL0     C53720   9.546   5.309  10.798  0.9540  0.3816 -0.2313
  390MOL0     C53721   9.592   5.452  10.810 -0.8889 -0.5739 -0.6256
  390MOL0     C53722   9.489   5.537  10.885 -0.5522 -1.3033 -0.0896
  390MOL0     C53723   9.469   5.672  10.811  0.1540  0.0777  0.1261
  390MOL0     C53724   9.382   5.638  10.686 -0.0104  0.5107 -0.0945
  390MOL0     C53725   9.361   5.750  10.594  0.6720  0.1932  0.5579
  390MOL0     C53726   9.226   5.742  10.516 -0.4606  0.2148  0.3430
  390MOL0    Cl53727   9.208   5.598  10.412 -0.2676  0.3521  0.3474
  390MOL0     C53728   9.544   5.364  10.360 -0.5482  0.0646  0.9515
  390MOL0     C53729   9.430   5.367  10.278 -1.0587 -0.7033  0.3571
  390MOL0     O53730   9.253   5.061  10.155  0.3006 -0.7612 -0.7644
  390MOL0     C53731   9.063   5.317   9.990 -0.0899 -0.2867  0.7489
  390MOL0     C53732   8.964   5.350   9.888  0.3196 -0.5422  0.2770
  390MOL0     N53733   8.721   5.199   9.091 -0.2774  0.4204 -0.1591
  390MOL0     N53734   8.782   5.291   9.023  0.0415 -1.0023 -0.5525
  390MOL0     C53735   7.726   5.465   8.660  0.0295 -0.7725 -0.3333
  390MOL0     C53736   7.586   5.474   8.637 -0.1812  0.0085  0.5955
  390MOL0     C53737   7.184   5.615   8.638  0.0779 -0.2285  0.0445
  390MOL0     C53738   7.079   5.635   8.543 -0.5913  0.2929 -0.8939
  390MOL0     C53739   6.949   5.600   8.573 -0.7761  0.4247 -0.0213
  390MOL0     C53740   6.924   5.564   8.699 -0.0746 -0.4430  0.5867
  390MOL0     O53741   6.788   5.535   8.726 -0.1017 -0.7149 -0.0222
  390MOL0     C53742   6.739   5.522   8.859  0.0542 -0.2977  0.0383
  390MOL0     C53743   6.615   5.446   8.849 -0.6459  0.8308 -1.0927
  390MOL0     C53744   6.506   5.538   8.795 -0.3585 -0.2002 -0.5157
  390MOL0     C53745   6.374   5.469   8.805  0.0657  0.4186 -0.1835
  390MOL0     C53746   6.351   5.341   8.726 -0.7871 -0.0896 -0.4241
  390MOL0     C53747   6.327   5.232   8.678 -0.2957  0.1793  0.0766
  390MOL0     C53748   7.019   5.570   8.801  0.0025  1.0044  0.0535
  390MOL0     C53749   7.157   5.583   8.769 -0.8533  0.2015  0.3106
  390MOL0     C53750   7.259   5.574   8.880 -0.6809  0.0272 -0.3685
  390MOL0     H53751   7.572   5.747   8.434  1.2839 -0.0648  0.0359
  390MOL0     H53752   7.810   5.752   8.485  0.1688  1.1929  0.7884
  390MOL0     H53753   7.969   5.371   8.604  0.5695 -0.5034  0.1683
  390MOL0     H53754   7.992   5.428   8.767 -1.3090 -1.6533 -0.8707
  390MOL0     H53755   8.196   5.364   8.654 -2.8456 -2.4930 -3.1002
  390MOL0     H53756   8.160   5.472   8.529 -2.0229  1.1122  0.3056
  390MOL0     H53757   8.189   5.661   8.654 -0.9178 -1.3719 -1.0021
  390MOL0     H53758   8.212   5.582   8.811 -1.6642  1.6157 -0.4868
  390MOL0     H53759   8.405   5.448   8.685  1.1848  0.1395 -0.8117
  390MOL0     H53760   8.396   5.583   8.578 -0.1175  0.7852 -0.4982
  390MOL0     H53761   8.405   5.680   8.852  0.3615 -0.2829 -0.0199
  390MOL0     H53762   8.511   5.717   8.714  0.6385 -0.7471 -0.2735
  390MOL0     H53763   8.528   5.463   8.884  0.3833 -0.2054 -0.7250
  390MOL0     H53764   8.641   5.505   8.756  1.5557 -0.2621  1.0477
  390MOL0     H53765   8.589   5.658   9.022  1.5005  1.6493 -0.5147
  390MOL0     H53766   8.699   5.705   8.893 -0.3978  0.2275  1.9839
  390MOL0     H53767   8.852   5.540   8.934  0.8194  0.2485  0.6822
  390MOL0     H53768   8.806   5.602   9.093 -2.0603  2.9493  0.2605
  390MOL0     H53769   8.577   5.466   9.212  1.2805 -1.4810  1.4838
  390MOL0     H53770   8.507   5.103   9.274 -0.3324  1.3925 -2.5582
  390MOL0     H53771   8.510   5.259   9.351  2.4516 -0.2038  3.9611
  390MOL0     H53772   8.625   5.059   9.472 -0.0405  1.8197  1.8719
  390MOL0     H53773   8.753   5.081   9.351 -0.8055  0.3721  0.2731
  390MOL0     H53774   8.774   5.315   9.416 -2.2347 -1.5439 -1.8064
  390MOL0     H53775   8.645   5.311   9.520  0.3302  1.6809 -3.0504
  390MOL0     H53776   8.741   5.111   9.652  1.6320 -3.4294 -2.5228
  390MOL0     H53777   8.888   5.117   9.571 -3.1354 -4.0642  0.5294
  390MOL0     H53778   8.933   5.037   9.767  0.0601 -0.2315  1.8189
  390MOL0     H53779   9.067   4.925  10.084 -0.8321 -0.6841 -0.4277
  390MOL0     H53780   9.183   4.929   9.961 -0.9507 -3.2672 -0.1468
  390MOL0     H53781   9.022   4.877   9.920  1.2175 -0.0747 -0.5656
  390MOL0     H53782   9.243   5.124  10.423 -0.5593  0.8414  0.8415
  390MOL0     H53783   9.426   5.132  10.592  3.1946  0.6025  0.5089
  390MOL0     H53784   9.595   5.115  10.698  2.4841 -1.1853  1.3235
  390MOL0     H53785   9.732   5.205  10.760  0.7998 -1.7981  2.3502
  390MOL0     H53786   9.456   5.311  10.737  1.7948  1.3315 -1.4932
  390MOL0     H53787   9.529   5.261  10.895 -2.2964  2.5445  0.4167
  390MOL0     H53788   9.620   5.496  10.714  1.0456 -1.3715 -0.4765
  390MOL0     H53789   9.681   5.456  10.874 -3.4302 -1.7033  3.3798
  390MOL0     H53790   9.523   5.560  10.986  0.6421  0.1049 -0.7727
  390MOL0     H53791   9.398   5.478  10.899 -0.7202 -0.6008  2.1951
  390MOL0     H53792   9.412   5.741  10.875  1.4950 -0.0892  1.5488
  390MOL0     H53793   9.566   5.713  10.783 -1.5554  2.2356 -3.5237
  390MOL0     H53794   9.287   5.590  10.712  0.6396 -1.2140 -0.7456
  390MOL0     H53795   9.432   5.561  10.625 -2.0858  0.1145 -1.3916
  390MOL0     H53796   9.435   5.748  10.513 -0.5350 -0.8150 -0.5697
  390MOL0     H53797   9.371   5.851  10.635 -3.5751  1.0627 -0.0173
  390MOL0     H53798   9.227   5.828  10.448  0.8982  0.4814  0.6754
  390MOL0     H53799   9.134   5.740  10.575 -0.7007 -1.4130 -0.0290
  390MOL0     H53800   9.612   5.444  10.333 -2.0052  0.9982 -0.1270
  390MOL0     H53801   9.444   5.437  10.197 -0.4551 -1.2178  0.0076
  390MOL0     H53802   9.104   5.406  10.036  0.0808  1.8103 -3.0681
  390MOL0     H53803   8.943   5.455   9.870  1.2321 -0.6767 -1.7798
  390MOL0     H53804   7.765   5.383   8.720 -1.2399 -0.7707  0.5292
  390MOL0     H53805   7.524   5.392   8.671 -2.4076  1.6477  0.7633
  390MOL0     H53806   7.091   5.647   8.436 -0.8703 -2.8440 -1.3778
  390MOL0     H53807   6.873   5.597   8.496  1.2150  1.0253 -2.1136
  390MOL0     H53808   6.810   5.460   8.915 -1.2173 -0.4495  1.5602
  390MOL0     H53809   6.732   5.616   8.916 -2.7321 -1.4913  1.9178
  390MOL0     H53810   6.592   5.420   8.953  0.8894 -0.9793 -1.1453
  390MOL0     H53811   6.640   5.360   8.787 -0.3651 -0.1971  0.3922
  390MOL0     H53812   6.500   5.624   8.863  0.2308  0.9151 -1.8213
  390MOL0     H53813   6.541   5.566   8.695  1.8427  2.0310  0.7634
  390MOL0     H53814   6.301   5.543   8.771  1.8515  1.3485 -2.2862
  390MOL0     H53815   6.349   5.453   8.910  1.6673  1.1677  0.3417
  390MOL0     H53816   6.293   5.149   8.620 -1.3647  0.9713 -0.4866
  390MOL0     H53817   6.987   5.549   8.903 -0.7567 -0.4753 -0.4687
  390MOL0     H53818   7.309   5.670   8.900  2.9501 -1.8586  0.3985
  390MOL0     H53819   7.215   5.549   8.977 -0.0526  3.4168  0.9459
  390MOL0     H53820   7.343   5.507   8.857  0.1119  0.5958  0.7966
  391MOL0     O53821   6.363   3.282  11.374  0.5416  0.4873 -0.8498
  391MOL0     C53822   6.336   3.386  11.446  0.4405 -0.4369 -0.4284
  391MOL0     O53823   6.343   3.394  11.589  0.4959 -0.0822  1.0482
  391MOL0     C53824   6.359   3.283  11.662 -0.2212 -0.7067 -0.4564
  391MOL0     C53825   6.255   3.231  11.732  0.7685 -0.8065  0.1779
  391MOL0     C53826   6.259   3.111  11.801  0.4465  0.2070 -0.4043
  391MOL0     C53827   6.379   3.037  11.816 -0.0590  0.3634 -0.7346
  391MOL0     O53828   6.395   2.923  11.876 -0.5034  0.1633  0.0274
  391MOL0     C53829   6.300   2.887  11.980  1.1513 -0.3315  0.6057
  391MOL0     C53830   6.374   2.821  12.095 -0.4591 -0.6814 -0.8428
  391MOL0     C53831   6.460   2.703  12.049 -0.2548 -0.1692 -0.1835
  391MOL0     C53832   6.596   2.702  12.124 -0.5435  0.2667 -0.9397
  391MOL0     C53833   6.686   2.833  12.116 -0.6109 -0.0757  0.6308
  391MOL0     C53834   6.756   2.821  11.973 -0.2979  0.0810 -0.7916
  391MOL0     C53835   6.839   2.951  11.940 -0.3157  0.5758  0.4347
  391MOL0     C53836   6.942   2.920  11.834 -0.5623 -0.9877 -0.5877
  391MOL0     N53837   6.866   2.895  11.714  0.7302 -0.5774 -0.3299
  391MOL0     C53838   6.806   2.980  11.626  0.5838  0.1819 -0.2237
  391MOL0     C53839   6.763   2.902  11.524  0.3576 -0.7223 -0.2431
  391MOL0     C53840   6.694   2.954  11.397 -0.1899  0.1021 -0.2630
  391MOL0     C53841   6.786   2.967  11.281 -0.5247  0.4061  0.0007
  391MOL0     C53842   6.902   3.067  11.310 -0.5003  0.9050  0.6598
  391MOL0     C53843   6.954   3.120  11.181  0.1727  0.5130  0.0273
  391MOL0     O53844   7.008   3.014  11.102 -0.3301 -0.1742 -0.0024
  391MOL0     C53845   7.148   2.991  11.096 -0.9040 -0.2848 -0.8157
  391MOL0     C53846   7.251   3.061  11.161  0.1128 -0.3406 -0.4196
  391MOL0     C53847   7.386   3.024  11.161  0.3394  0.0625 -0.1697
  391MOL0     C53848   7.486   3.115  11.229  0.5970  0.8676  0.7429
  391MOL0     C53849   7.427   2.906  11.090  0.6597  0.4709 -0.0839
  391MOL0     C53850   7.564   2.865  11.061  0.3062  0.3820  0.4360
  391MOL0     O53851   7.580   2.773  10.965 -0.2270  0.7404 -0.0244
  391MOL0     C53852   7.695   2.736  10.900 -0.3981 -0.4614 -0.1614
  391MOL0     C53853   7.686   2.612  10.839 -0.1056 -0.3215 -1.2653
  391MOL0     C53854   7.794   2.577  10.754 -0.7330 -1.2645  0.5158
  391MOL0     C53855   7.915   2.656  10.747  0.2845 -0.2630  0.6114
  391MOL0     O53856   8.016   2.615  10.671  0.0113 -0.3021 -0.5332
  391MOL0     C53857   8.074   2.479  10.682 -0.1489  0.2957 -1.2639
  391MOL0     C53858   8.173   2.447  10.574 -0.6826 -0.6794  0.6038
  391MOL0     C53859   8.291   2.539  10.571 -0.2724  0.1604  0.2439
  391MOL0     C53860   8.399   2.507  10.465 -0.5828  0.4647 -0.1310
  391MOL0     C53861   8.473   2.374  10.503 -0.1459 -0.2637 -0.3342
  391MOL0     C53862   8.587   2.336  10.402  0.3323 -0.1811 -0.3123
  391MOL0     C53863   8.680   2.221  10.443  0.6249 -0.2624  1.0316
  391MOL0     C53864   8.772   2.179  10.326  0.2082 -0.2916 -0.3863
  391MOL0    Cl53865   8.913   2.297  10.311 -0.5867  0.4597  0.2018
  391MOL0     C53866   7.923   2.776  10.822 -0.3258  0.1959 -0.2186
  391MOL0     C53867   7.812   2.820  10.899 -0.8511  0.2608  0.5261
  391MOL0     O53868   7.653   2.898  11.134  0.3923  0.0774  0.1429
  391MOL0     C53869   7.319   2.831  11.029  0.4505 -0.2112  0.7315
  391MOL0     C53870   7.187   2.870  11.038  0.0597 -0.2415 -0.1922
  391MOL0     N53871   6.799   2.773  11.550  0.3215  0.7097  0.1252
  391MOL0     N53872   6.845   2.771  11.668 -0.5412 -0.3752 -0.5745
  391MOL0     C53873   6.493   3.087  11.750  0.3881  1.3569 -0.0874
  391MOL0     C53874   6.480   3.206  11.673  0.5496 -0.2472 -1.1236
  391MOL0     C53875   6.309   3.521  11.381  0.3568 -0.2697  0.9688
  391MOL0     C53876   6.339   3.637  11.451  0.4876  1.0413 -0.5843
  391MOL0     C53877   6.309   3.761  11.396 -0.2762  0.5232  0.0667
  391MOL0     C53878   6.263   3.779  11.265 -0.7082  0.2139 -0.7711
  391MOL0     O53879   6.234   3.909  11.219  0.9263  0.4166 -0.0415
  391MOL0     C53880   6.193   3.951  11.086 -0.0258 -0.5422  0.1201
  391MOL0     C53881   6.269   3.883  10.974 -0.2416  0.5420  0.1750
  391MOL0     C53882   6.306   3.993  10.875 -0.4061  0.8691 -0.4473
  391MOL0     C53883   6.184   4.066  10.819  0.1908 -0.3109 -0.2931
  391MOL0     C53884   6.049   4.010  10.832  0.1991  0.1884  0.2731
  391MOL0     C53885   5.936   3.963  10.833  1.0720 -0.3583 -0.1647
  391MOL0     C53886   6.216   3.671  11.197 -0.1871  0.2444  0.4147
  391MOL0     C53887   6.247   3.540  11.248  0.2856 -0.5087  0.3084
  391MOL0     C53888   6.200   3.428  11.147 -0.2953 -0.9187 -0.2680
  391MOL0     H53889   6.160   3.284  11.734  2.1576  1.8601 -0.6247
  391MOL0     H53890   6.165   3.089  11.851  1.4780  0.1420  1.5850
  391MOL0     H53891   6.225   2.823  11.934  0.3822  1.2997 -0.5242
  391MOL0     H53892   6.247   2.976  12.016 -0.6023 -1.1817  0.2338
  391MOL0     H53893   6.424   2.893  12.160 -1.0045 -1.2087  0.1791
  391MOL0     H53894   6.299   2.770  12.155 -1.0545 -0.1789 -1.1502
  391MOL0     H53895   6.403   2.610  12.061  0.6252 -0.8574 -1.1837
  391MOL0     H53896   6.472   2.704  11.940  0.3534 -1.8141 -0.1563
  391MOL0     H53897   6.584   2.694  12.232 -1.0141  1.3318 -0.9043
  391MOL0     H53898   6.644   2.614  12.080 -1.2804  0.3846 -2.0302
  391MOL0     H53899   6.756   2.841  12.199  0.5383 -2.1503 -0.0524
  391MOL0     H53900   6.615   2.916  12.117 -1.1088 -0.4077  4.4364
  391MOL0     H53901   6.822   2.734  11.958  1.9331  1.8197 -1.6120
  391MOL0     H53902   6.667   2.811  11.911 -2.0562  2.2822  1.2258
  391MOL0     H53903   6.885   2.988  12.032 -0.7365  0.7810  0.5668
  391MOL0     H53904   6.772   3.030  11.903  0.6287  1.3371  0.3163
  391MOL0     H53905   7.006   3.008  11.822 -0.2585 -1.3365 -1.6736
  391MOL0     H53906   6.993   2.826  11.856 -3.5983 -2.2379  1.8399
  391MOL0     H53907   6.789   3.087  11.637  1.7459  0.4213 -0.5570
  391MOL0     H53908   6.647   3.052  11.406 -1.4340 -0.5151  0.1922
  391MOL0     H53909   6.606   2.892  11.379 -0.6428 -0.2303  2.5555
  391MOL0     H53910   6.825   2.869  11.253 -1.5513 -0.2106  0.6523
  391MOL0     H53911   6.736   2.995  11.188  2.6117  2.7920 -1.1177
  391MOL0     H53912   6.859   3.147  11.372  0.6230 -0.3457  3.1914
  391MOL0     H53913   6.976   3.020  11.375 -1.5250 -0.0243  1.1974
  391MOL0     H53914   6.871   3.169  11.129 -1.1574 -0.2434  1.3660
  391MOL0     H53915   7.027   3.200  11.191  0.2776  0.3753  0.3664
  391MOL0     H53916   7.223   3.152  11.213 -1.1503  1.4110 -3.8419
  391MOL0     H53917   7.531   3.067  11.317 -2.2029 -0.5109  1.5247
  391MOL0     H53918   7.432   3.202  11.268 -0.7316  0.8324 -0.9130
  391MOL0     H53919   7.554   3.152  11.152  0.4261 -2.0467 -0.9629
  391MOL0     H53920   7.592   2.560  10.856 -1.1318  1.9420  0.5202
  391MOL0     H53921   7.779   2.481  10.705 -3.5862 -0.7433  0.1810
  391MOL0     H53922   8.127   2.475  10.778 -3.6410  2.8368  1.0445
  391MOL0     H53923   8.000   2.399  10.675  0.8648 -0.9012  0.6600
  391MOL0     H53924   8.215   2.348  10.595 -1.5847 -1.4922 -1.1852
  391MOL0     H53925   8.135   2.428  10.473  3.5246 -1.1125 -1.0840
  391MOL0     H53926   8.337   2.532  10.670 -0.9461  0.6844  0.6043
  391MOL0     H53927   8.262   2.644  10.560 -0.0689  0.4115  1.8629
  391MOL0     H53928   8.476   2.583  10.481  1.5779 -2.0234  2.1268
  391MOL0     H53929   8.362   2.514  10.362  1.5260 -0.8647 -1.0385
  391MOL0     H53930   8.510   2.382  10.605  2.2442 -0.5132 -1.1059
  391MOL0     H53931   8.403   2.291  10.499  0.9872 -1.2421 -0.4698
  391MOL0     H53932   8.649   2.425  10.383 -0.0721  0.3266  0.6935
  391MOL0     H53933   8.533   2.308  10.311 -0.6177  0.7779 -0.0568
  391MOL0     H53934   8.619   2.137  10.476 -1.7037  0.9242 -0.0282
  391MOL0     H53935   8.751   2.250  10.520 -0.4931  0.1040  1.9483
  391MOL0     H53936   8.711   2.166  10.236  1.2859 -0.8479 -1.0578
  391MOL0     H53937   8.816   2.081  10.350  0.5427  0.4846  2.6047
  391MOL0     H53938   8.018   2.827  10.814 -0.3324  0.7052  2.3917
  391MOL0     H53939   7.830   2.909  10.958  2.8582  1.0725 -1.4911
  391MOL0     H53940   7.324   2.747  10.960  2.0312  1.0823 -0.8103
  391MOL0     H53941   7.111   2.804  10.997  1.3593 -2.4338  0.7166
  391MOL0     H53942   6.584   3.029  11.749 -0.0407  0.6903 -1.1523
  391MOL0     H53943   6.564   3.238  11.612  1.9511 -1.6008  0.0218
  391MOL0     H53944   6.371   3.626  11.554  4.1404 -2.1603 -1.8015
  391MOL0     H53945   6.318   3.838  11.472  0.0771  1.3477 -0.8022
  391MOL0     H53946   6.088   3.921  11.077  0.1771 -0.6775 -2.6516
  391MOL0     H53947   6.211   4.059  11.086  1.3483 -0.7259  1.5264
  391MOL0     H53948   6.212   3.798  10.935  0.4866  0.0019  0.2782
  391MOL0     H53949   6.355   3.830  11.016  0.3962 -0.3630 -2.1692
  391MOL0     H53950   6.387   4.055  10.913  1.7772 -3.7417  3.4238
  391MOL0     H53951   6.353   3.943  10.790 -1.4624 -0.4136 -0.3064
  391MOL0     H53952   6.200   4.089  10.713 -0.9482 -0.2249 -0.4508
  391MOL0     H53953   6.176   4.148  10.891  4.1546  2.8811 -2.9683
  391MOL0     H53954   5.834   3.931  10.841  0.5324  1.2014 -0.5793
  391MOL0     H53955   6.154   3.681  11.107  0.5958  0.1526 -0.1432
  391MOL0     H53956   6.213   3.331  11.196  0.7089  0.3107  2.0879
  391MOL0     H53957   6.092   3.442  11.132 -0.3216 -2.9448 -2.4263
  391MOL0     H53958   6.250   3.424  11.050 -0.2165 -0.4386 -0.2507
  392MOL0     O53959   0.182   1.828   8.317 -0.3455 -0.2595  0.3241
  392MOL0     C53960   0.138   1.925   8.384  1.0093  0.3805  0.0863
  392MOL0     O53961   0.187   1.982   8.496  0.0039 -0.0344  0.2446
  392MOL0     C53962   0.305   1.919   8.531  0.2876  0.2311 -1.1834
  392MOL0     C53963   0.319   1.783   8.545  0.0352 -0.3040  0.1145
  392MOL0     C53964   0.447   1.739   8.588 -0.3824 -0.2044  0.0085
  392MOL0     C53965   0.554   1.822   8.618  0.7790 -1.3782  0.6994
  392MOL0     O53966   0.679   1.773   8.645 -0.1094  0.8477  0.7200
  392MOL0     C53967   0.784   1.855   8.704  0.8318  0.0116 -0.9112
  392MOL0     C53968   0.863   1.934   8.602  0.4404 -0.5460  0.5134
  392MOL0     C53969   0.930   2.061   8.654  0.4768  0.4362  0.4187
  392MOL0     C53970   1.042   2.037   8.759 -0.1178 -0.9282 -0.4227
  392MOL0     C53971   1.177   2.006   8.697 -0.1645 -0.0516  0.7582
  392MOL0     C53972   1.302   2.014   8.779 -1.1246  0.5474 -0.0916
  392MOL0     C53973   1.416   1.942   8.693 -0.2594 -0.0115  0.7081
  392MOL0     C53974   1.418   1.785   8.701 -0.1308  0.8030  0.4092
  392MOL0     N53975   1.433   1.740   8.842  0.1995  0.1779  0.8392
  392MOL0     C53976   1.561   1.749   8.899 -0.1494 -0.1866  0.6900
  392MOL0     C53977   1.539   1.697   9.015 -0.5125 -0.1895 -0.5673
  392MOL0     C53978   1.654   1.687   9.118  0.5071 -0.0506 -0.7103
  392MOL0     C53979   1.610   1.687   9.258  0.6280 -0.0641 -0.5194
  392MOL0     C53980   1.692   1.766   9.354 -0.4126  0.6674  0.1125
  392MOL0     C53981   1.812   1.691   9.413  0.3013  0.6572 -0.4757
  392MOL0     O53982   1.851   1.771   9.527  0.4135 -0.6537 -0.4992
  392MOL0     C53983   1.983   1.756   9.569  0.5066 -0.0045 -0.0179
  392MOL0     C53984   2.059   1.641   9.535 -0.0183 -0.5548  0.7851
  392MOL0     C53985   2.194   1.637   9.569 -0.4321  0.2437  0.8135
  392MOL0     C53986   2.260   1.497   9.537  0.1675 -0.6646 -1.3181
  392MOL0     C53987   2.261   1.742   9.632  0.0653 -0.5334  1.0228
  392MOL0     C53988   2.401   1.752   9.667  0.1254  0.3518  0.6980
  392MOL0     O53989   2.441   1.857   9.742 -0.3282  0.2467  0.6962
  392MOL0     C53990   2.566   1.866   9.793  0.1952 -0.8955  0.1106
  392MOL0     C53991   2.640   1.977   9.760  0.0805  0.2246  1.0276
  392MOL0     C53992   2.766   1.984   9.803 -0.1699  0.3935  0.4530
  392MOL0     C53993   2.818   1.884   9.895 -1.0908 -0.3530  0.3512
  392MOL0     O53994   2.954   1.894   9.934 -0.5039  0.1979 -0.3352
  392MOL0     C53995   3.019   2.021   9.969  0.5104  0.4637 -0.5129
  392MOL0     C53996   3.169   2.006   9.967  0.0041  0.3295 -0.6995
  392MOL0     C53997   3.217   1.873  10.031 -0.4801 -0.6925 -0.1646
  392MOL0     C53998   3.207   1.877  10.184  0.1771  0.3657 -0.6290
  392MOL0     C53999   3.230   1.739  10.256 -0.0984  0.7494  0.0926
  392MOL0     C54000   3.171   1.611  10.179 -0.3067 -0.2072 -0.7475
  392MOL0     C54001   3.018   1.617  10.177  0.0432  0.6286  0.8114
  392MOL0     C54002   2.952   1.473  10.142 -0.0010 -0.7014 -0.3570
  392MOL0    Cl54003   2.774   1.485  10.181  0.1335 -0.1949  0.1505
  392MOL0     C54004   2.737   1.783   9.934 -0.5443 -0.2892 -0.6132
  392MOL0     C54005   2.609   1.765   9.878 -0.8709  0.0050 -0.3159
  392MOL0     O54006   2.478   1.674   9.618  1.0531  0.6312 -0.5554
  392MOL0     C54007   2.177   1.850   9.661 -0.1075 -0.4118  0.9288
  392MOL0     C54008   2.042   1.860   9.636 -0.1809  0.0487 -0.2070
  392MOL0     N54009   1.410   1.650   9.026 -0.0140  0.1146  0.5949
  392MOL0     N54010   1.339   1.678   8.922 -0.7109 -0.8759 -0.2840
  392MOL0     C54011   0.523   1.960   8.607 -0.8338 -0.1437 -0.0193
  392MOL0     C54012   0.401   2.010   8.568 -0.2304  0.7958 -0.2391
  392MOL0     C54013   0.000   1.963   8.354  0.1133 -0.4921  0.3781
  392MOL0     C54014  -0.093   1.982   8.461 -1.0881 -0.3474 -1.5097
  392MOL0     C54015  -0.228   2.013   8.424 -0.1071  0.1438  0.5383
  392MOL0     C54016  -0.270   2.012   8.291  0.3641  0.0419 -0.8121
  392MOL0     O54017  -0.400   2.047   8.277 -0.1269  0.7426 -0.4648
  392MOL0     C54018  -0.447   2.107   8.156  0.3421  0.2279 -0.2938
  392MOL0     C54019  -0.379   2.248   8.125  0.9181  0.0025 -0.2459
  392MOL0     C54020  -0.417   2.349   8.225  0.6791 -0.2140  0.0957
  392MOL0     C54021  -0.574   2.376   8.230 -0.4503  0.7585 -1.7614
  392MOL0     C54022  -0.612   2.482   8.327 -0.7961 -0.4321  0.5393
  392MOL0     C54023  -0.648   2.574   8.400  0.4899  0.3066 -0.2586
  392MOL0     C54024  -0.179   1.999   8.190  0.2797 -0.6116  0.3764
  392MOL0     C54025  -0.040   1.978   8.216 -0.4415 -0.5757 -0.5715
  392MOL0     C54026   0.051   1.957   8.096 -0.0252  0.4115 -1.0281
  392MOL0     H54027   0.234   1.717   8.531 -1.0296  0.8569  0.9315
  392MOL0     H54028   0.474   1.635   8.600 -0.1235 -0.0994  0.3655
  392MOL0     H54029   0.844   1.779   8.753 -0.5706 -0.7055 -0.2353
  392MOL0     H54030   0.739   1.908   8.788  0.0708 -1.5647 -0.3039
  392MOL0     H54031   0.939   1.867   8.561 -1.1206 -0.5370 -2.7338
  392MOL0     H54032   0.812   1.977   8.516  4.1109 -2.2518 -2.8366
  392MOL0     H54033   0.966   2.113   8.565 -0.1625 -1.0886 -0.7806
  392MOL0     H54034   0.851   2.126   8.692 -1.0643 -0.8442 -0.5129
  392MOL0     H54035   1.044   2.130   8.817  0.5168 -0.8746 -0.5228
  392MOL0     H54036   1.011   1.956   8.825  1.6071 -0.5478  0.9029
  392MOL0     H54037   1.186   2.080   8.618  0.2844 -1.1374 -0.2419
  392MOL0     H54038   1.172   1.906   8.652  0.8899 -0.0843  0.6870
  392MOL0     H54039   1.328   2.118   8.798 -0.0826  0.8118 -2.6197
  392MOL0     H54040   1.288   1.949   8.866  0.4795 -1.2269 -1.0569
  392MOL0     H54041   1.514   1.985   8.713  0.1182 -0.1669 -0.7273
  392MOL0     H54042   1.397   1.967   8.588 -0.0507  0.4468  0.7755
  392MOL0     H54043   1.329   1.741   8.654  1.6091 -3.1706  0.4707
  392MOL0     H54044   1.495   1.731   8.645 -1.3939 -0.3041 -0.3564
  392MOL0     H54045   1.659   1.778   8.862  0.7616 -1.0530  2.2934
  392MOL0     H54046   1.727   1.767   9.103 -0.3750  1.0210  0.4718
  392MOL0     H54047   1.713   1.599   9.091  1.9633  0.3199  1.1051
  392MOL0     H54048   1.512   1.732   9.275  0.0370 -1.7837  0.9700
  392MOL0     H54049   1.618   1.582   9.289  5.5585  0.3240  0.3698
  392MOL0     H54050   1.728   1.855   9.301  1.8115 -0.5253 -0.5270
  392MOL0     H54051   1.631   1.793   9.441 -1.7479 -0.3175 -0.5046
  392MOL0     H54052   1.774   1.597   9.454 -1.0641 -0.1444 -3.3291
  392MOL0     H54053   1.898   1.677   9.346 -0.1668 -0.3884 -0.8739
  392MOL0     H54054   2.012   1.556   9.486 -2.2317  2.3683 -2.6608
  392MOL0     H54055   2.311   1.471   9.630  3.5166  3.0573 -1.8196
  392MOL0     H54056   2.328   1.497   9.451 -0.4034 -2.5366 -1.8239
  392MOL0     H54057   2.189   1.417   9.515  1.1296 -1.6432 -0.9512
  392MOL0     H54058   2.593   2.053   9.698 -0.3468 -0.1044  0.9367
  392MOL0     H54059   2.835   2.059   9.765 -0.8483  0.4023 -0.8252
  392MOL0     H54060   2.985   2.099   9.900 -0.2197 -1.6512 -2.6649
  392MOL0     H54061   2.977   2.035  10.069  1.0743 -3.4390  0.4180
  392MOL0     H54062   3.214   2.010   9.867 -1.2951 -0.5393 -1.3463
  392MOL0     H54063   3.214   2.099  10.003 -1.7705  1.5639 -1.5081
  392MOL0     H54064   3.325   1.862  10.016 -0.7110 -1.9960 -1.0004
  392MOL0     H54065   3.169   1.787   9.984 -1.6536 -0.3088  0.2776
  392MOL0     H54066   3.105   1.901  10.215 -1.5130 -0.7079 -4.7600
  392MOL0     H54067   3.271   1.954  10.228 -0.4328 -0.4827  1.9316
  392MOL0     H54068   3.338   1.742  10.273  0.4836  1.9985 -3.1697
  392MOL0     H54069   3.188   1.746  10.357  0.7633  0.6440  0.4640
  392MOL0     H54070   3.200   1.518  10.229 -1.0622  1.0632  2.2379
  392MOL0     H54071   3.205   1.605  10.075 -1.9934  0.7642 -1.3886
  392MOL0     H54072   2.984   1.704  10.121  1.5656  2.4522  2.5635
  392MOL0     H54073   2.971   1.638  10.273  2.0509 -1.2985  2.3113
  392MOL0     H54074   3.005   1.398  10.201  0.9966 -0.9957 -1.5820
  392MOL0     H54075   2.965   1.451  10.036 -2.5297  1.1352 -1.1451
  392MOL0     H54076   2.762   1.710  10.010 -3.0228  0.0388  0.6097
  392MOL0     H54077   2.550   1.676   9.896  0.2476 -0.8789 -0.9266
  392MOL0     H54078   2.221   1.941   9.701  1.6613  0.7588 -3.1256
  392MOL0     H54079   1.970   1.938   9.661 -4.0761 -3.8242  2.2052
  392MOL0     H54080   0.600   2.036   8.615 -1.2447  0.2042  0.7882
  392MOL0     H54081   0.387   2.117   8.555  2.5252  1.3642  0.8158
  392MOL0     H54082  -0.062   1.959   8.563  0.0637 -0.1072 -1.7986
  392MOL0     H54083  -0.302   2.007   8.504  0.5738  0.3906  1.1947
  392MOL0     H54084  -0.423   2.039   8.074  2.5553 -1.3198  1.5044
  392MOL0     H54085  -0.556   2.110   8.166  0.1044 -0.4819 -2.2651
  392MOL0     H54086  -0.407   2.270   8.021  0.7958 -0.8651 -0.4061
  392MOL0     H54087  -0.270   2.248   8.122  0.9427  1.7588 -2.4803
  392MOL0     H54088  -0.377   2.336   8.326  2.5606  0.5059 -0.5251
  392MOL0     H54089  -0.376   2.446   8.198  1.8432 -0.2318  1.6860
  392MOL0     H54090  -0.631   2.288   8.263  1.7302 -0.9532 -2.2746
  392MOL0     H54091  -0.603   2.410   8.131  1.5101  1.6754 -2.0640
  392MOL0     H54092  -0.673   2.637   8.482 -1.0999  1.6990 -1.7307
  392MOL0     H54093  -0.213   2.001   8.087  0.8517 -0.5045  0.1872
  392MOL0     H54094   0.090   1.855   8.096 -1.3650 -0.1303 -0.7655
  392MOL0     H54095  -0.005   1.984   8.006 -2.2139 -1.9852 -0.5099
  392MOL0     H54096   0.136   2.025   8.112  0.2181  0.2128 -1.4938
  393MOL0     O54097   9.993   5.951   1.270  0.1084 -0.6662  0.2826
  393MOL0     C54098   9.924   5.856   1.304 -0.3187 -0.4645  0.6749
  393MOL0     O54099   9.951   5.777   1.407  0.1624 -0.2793  0.6021
  393MOL0     C54100  10.076   5.756   1.452 -0.5257  0.5304  0.7308
  393MOL0     C54101  10.202   5.792   1.388  0.8536 -0.4255  0.0269
  393MOL0     C54102  10.316   5.748   1.437  0.2234 -0.0597 -0.3605
  393MOL0     C54103  10.321   5.668   1.558 -0.3926 -0.6832  0.1476
  393MOL0     O54104  10.438   5.615   1.601 -0.4178 -0.7208  0.0388
  393MOL0     C54105  10.517   5.725   1.654  0.8893  1.8440 -0.2479
  393MOL0     C54106  10.597   5.656   1.772  0.7443  0.0092 -0.3120
  393MOL0     C54107  10.653   5.519   1.741 -1.0570 -0.1796  0.4693
  393MOL0     C54108  10.759   5.531   1.633 -0.1756 -0.3863 -1.1413
  393MOL0     C54109  10.729   5.464   1.501 -0.0312 -0.1218  0.3215
  393MOL0     C54110  10.726   5.317   1.532 -0.2429  0.1463 -0.1822
  393MOL0     C54111  10.718   5.219   1.411 -0.9336 -0.0619  0.2751
  393MOL0     C54112  10.619   5.254   1.299  0.2808  0.6256  0.1510
  393MOL0     N54113  10.483   5.229   1.330 -0.8724 -0.2318  0.0858
  393MOL0     C54114  10.399   5.315   1.396  0.2535  0.1516  0.3250
  393MOL0     C54115  10.290   5.236   1.430  0.3096 -0.6627  0.5696
  393MOL0     C54116  10.169   5.285   1.509 -0.5119 -0.7796 -0.3482
  393MOL0     C54117  10.038   5.278   1.440 -0.0956  0.1055  0.4441
  393MOL0     C54118  10.023   5.372   1.323 -0.4426 -0.0753  0.9894
  393MOL0     C54119   9.887   5.374   1.260  0.4879 -0.6602  0.0960
  393MOL0     O54120   9.885   5.462   1.147  0.4623  0.8243 -0.1535
  393MOL0     C54121   9.797   5.427   1.049  0.8828  0.0663  0.5401
  393MOL0     C54122   9.802   5.309   0.976 -0.6721  0.1348  0.0955
  393MOL0     C54123   9.711   5.284   0.871  0.0833 -0.0079  0.8838
  393MOL0     C54124   9.742   5.175   0.776  0.4556 -0.2714 -0.2664
  393MOL0     C54125   9.604   5.363   0.835 -0.8170 -0.4508 -0.1311
  393MOL0     C54126   9.496   5.330   0.737 -0.1163 -0.7128 -0.6459
  393MOL0     O54127   9.421   5.435   0.687  0.0074  0.7711 -0.5854
  393MOL0     C54128   9.345   5.407   0.578 -0.9057 -0.3529  0.7604
  393MOL0     C54129   9.241   5.314   0.585  0.0114  0.1083  0.4271
  393MOL0     C54130   9.173   5.274   0.465  0.0092  0.8583 -0.0484
  393MOL0     C54131   9.191   5.345   0.347  0.1114 -0.0668  0.0796
  393MOL0     O54132   9.120   5.321   0.233  0.7803  0.1734  0.0487
  393MOL0     C54133   9.048   5.202   0.207  0.4812  0.4729  0.2547
  393MOL0     C54134   8.984   5.213   0.069  0.7591  0.5640 -0.3154
  393MOL0     C54135   8.909   5.085   0.027  0.2519 -0.5400  0.1910
  393MOL0     C54136   8.814   5.113  -0.085 -0.0993  0.2735  0.4886
  393MOL0     C54137   8.770   4.983  -0.154 -0.5046 -0.0383 -0.0517
  393MOL0     C54138   8.683   5.032  -0.270 -0.2443 -0.2260 -0.7448
  393MOL0     C54139   8.561   5.121  -0.215  0.2227  0.0695 -0.0060
  393MOL0     C54140   8.458   5.101  -0.323  0.6182 -0.2933 -0.0667
  393MOL0    Cl54141   8.506   5.196  -0.460  0.0156 -0.1277 -0.1111
  393MOL0     C54142   9.293   5.439   0.344  0.4554  0.7842  0.6755
  393MOL0     C54143   9.376   5.467   0.454 -0.4306 -0.1879  0.1484
  393MOL0     O54144   9.469   5.214   0.708 -0.6065  0.3586  0.3349
  393MOL0     C54145   9.601   5.487   0.901 -0.1793  0.6808  0.7649
  393MOL0     C54146   9.693   5.515   1.008  0.3777  0.4786  0.2602
  393MOL0     N54147  10.309   5.112   1.375 -0.2314  0.7617 -0.3877
  393MOL0     N54148  10.423   5.110   1.312  0.0581  0.0851 -0.4478
  393MOL0     C54149  10.201   5.635   1.623  0.0016 -0.2298  0.3474
  393MOL0     C54150  10.087   5.685   1.569 -0.3244  0.1790 -0.3673
  393MOL0     C54151   9.796   5.859   1.240 -0.1261  1.3720 -0.5947
  393MOL0     C54152   9.691   5.804   1.315 -0.4068 -0.6394  0.3377
  393MOL0     C54153   9.555   5.801   1.269 -0.7558  0.2660 -0.4211
  393MOL0     C54154   9.519   5.848   1.142 -0.8427 -0.3134  0.3174
  393MOL0     O54155   9.401   5.806   1.093  0.6988 -0.9454 -0.4688
  393MOL0     C54156   9.381   5.835   0.950  1.1080 -0.4070 -0.1544
  393MOL0     C54157   9.243   5.821   0.910  0.5169  0.4223  0.1319
  393MOL0     C54158   9.222   5.828   0.763 -0.6417  0.2637  0.4665
  393MOL0     C54159   9.098   5.880   0.703  0.1641  0.5257  0.1742
  393MOL0     C54160   9.065   6.013   0.754  0.5351  0.8299 -0.2080
  393MOL0     C54161   9.041   6.123   0.798  0.1886 -0.2236 -0.2248
  393MOL0     C54162   9.627   5.910   1.073  1.0456 -0.2330  0.4835
  393MOL0     C54163   9.760   5.915   1.120 -0.8231 -0.3388 -0.2519
  393MOL0     C54164   9.853   5.991   1.026  0.0331  0.2946  0.9334
  393MOL0     H54165  10.209   5.835   1.289  1.6150 -0.6539 -0.0275
  393MOL0     H54166  10.411   5.765   1.386 -0.2173  3.2381 -0.3093
  393MOL0     H54167  10.453   5.799   1.703 -2.9590 -1.7926  0.8848
  393MOL0     H54168  10.583   5.768   1.579  1.4657 -0.1313 -0.9353
  393MOL0     H54169  10.685   5.717   1.798  1.2754 -0.4962 -0.8964
  393MOL0     H54170  10.538   5.653   1.865 -1.7928  1.0039 -1.7990
  393MOL0     H54171  10.707   5.479   1.827  1.4127  0.6517 -0.6074
  393MOL0     H54172  10.574   5.450   1.710  0.4024 -1.3371 -0.8797
  393MOL0     H54173  10.793   5.633   1.611  1.6212 -0.9644 -1.1996
  393MOL0     H54174  10.847   5.481   1.675 -0.4752 -1.6724 -1.9998
  393MOL0     H54175  10.807   5.489   1.428 -1.3303  1.9263 -0.4650
  393MOL0     H54176  10.635   5.494   1.454  0.1716  0.6181  0.3714
  393MOL0     H54177  10.817   5.289   1.585  1.2453 -0.2225 -2.7612
  393MOL0     H54178  10.641   5.305   1.600 -0.5822 -0.8424 -0.7551
  393MOL0     H54179  10.709   5.116   1.445 -0.8393 -0.2804 -0.3435
  393MOL0     H54180  10.816   5.232   1.365 -0.8571  3.8711  1.1564
  393MOL0     H54181  10.630   5.351   1.250  1.0629 -0.6762 -2.4467
  393MOL0     H54182  10.644   5.191   1.213 -1.6050  0.2028 -0.1179
  393MOL0     H54183  10.417   5.415   1.434 -3.1201  1.0663 -0.1353
  393MOL0     H54184  10.196   5.389   1.531  2.8210 -1.6644  0.2097
  393MOL0     H54185  10.160   5.221   1.597 -1.3281 -1.7882 -1.1328
  393MOL0     H54186  10.024   5.179   1.397 -1.1407  0.7471 -0.7680
  393MOL0     H54187   9.960   5.305   1.512 -0.5362  0.4284 -0.1447
  393MOL0     H54188  10.050   5.473   1.355  2.8542  0.2127 -2.0091
  393MOL0     H54189  10.098   5.350   1.246 -2.1778 -1.5154 -0.3822
  393MOL0     H54190   9.845   5.275   1.239 -0.0124 -0.9043  2.0877
  393MOL0     H54191   9.824   5.400   1.345  1.8634 -5.2745  2.8939
  393MOL0     H54192   9.882   5.239   0.997 -0.8453 -0.1725 -0.2425
  393MOL0     H54193   9.666   5.097   0.788 -2.2277  2.3402  0.9655
  393MOL0     H54194   9.841   5.132   0.789  1.1017  1.4239  0.7520
  393MOL0     H54195   9.742   5.217   0.675 -3.0374 -0.2172 -0.3597
  393MOL0     H54196   9.215   5.274   0.682 -0.2211 -1.4392 -0.2476
  393MOL0     H54197   9.099   5.195   0.467  3.4642 -2.7179  2.3999
  393MOL0     H54198   9.107   5.111   0.219 -0.2099  0.2375  2.1904
  393MOL0     H54199   8.968   5.188   0.281  0.2802  1.1295  0.1663
  393MOL0     H54200   8.912   5.295   0.074  0.6850  0.6109 -1.8303
  393MOL0     H54201   9.058   5.246  -0.005  0.1874 -0.1874 -1.2422
  393MOL0     H54202   8.861   5.043   0.116 -0.4435 -0.3276 -0.0800
  393MOL0     H54203   8.990   5.019  -0.006  0.4051  0.7725 -2.2894
  393MOL0     H54204   8.861   5.190  -0.147  1.3129  0.7472  2.0584
  393MOL0     H54205   8.719   5.156  -0.053 -1.9301 -1.5551 -2.0887
  393MOL0     H54206   8.850   4.917  -0.187 -0.4959 -0.2473  0.3858
  393MOL0     H54207   8.717   4.921  -0.082  1.1284 -1.0941  0.2808
  393MOL0     H54208   8.638   4.939  -0.307  1.9528 -2.5794  2.0504
  393MOL0     H54209   8.731   5.089  -0.350 -0.5192 -0.3286 -0.9864
  393MOL0     H54210   8.582   5.227  -0.199 -1.7346  0.6591 -1.0478
  393MOL0     H54211   8.512   5.079  -0.127 -1.4142 -0.9244 -1.3116
  393MOL0     H54212   8.359   5.127  -0.285 -0.5488 -1.0646 -2.4278
  393MOL0     H54213   8.450   4.998  -0.359  2.6906  0.3689 -2.7880
  393MOL0     H54214   9.306   5.494   0.251  1.6475  1.5791  1.2844
  393MOL0     H54215   9.458   5.537   0.446  0.9561 -1.7928 -0.2029
  393MOL0     H54216   9.513   5.547   0.879 -2.2366 -2.5015 -0.4073
  393MOL0     H54217   9.684   5.592   1.084 -0.2029 -1.1515  1.9338
  393MOL0     H54218  10.208   5.568   1.709 -1.5437 -0.9711 -0.0600
  393MOL0     H54219   9.995   5.675   1.627 -0.5445  0.0234 -0.7436
  393MOL0     H54220   9.697   5.765   1.416 -1.7950  1.3232  1.2499
  393MOL0     H54221   9.477   5.756   1.328 -0.3255 -1.5526 -1.1659
  393MOL0     H54222   9.416   5.934   0.922 -1.1620  0.5299  0.1138
  393MOL0     H54223   9.444   5.768   0.890 -0.6908 -0.8423 -1.6840
  393MOL0     H54224   9.188   5.900   0.961 -0.6380 -1.1223  1.3745
  393MOL0     H54225   9.199   5.725   0.938  0.7303 -0.1637 -1.4075
  393MOL0     H54226   9.297   5.900   0.731  0.1572 -0.1721  1.3142
  393MOL0     H54227   9.257   5.742   0.705  0.9768  1.5611 -0.5782
  393MOL0     H54228   9.024   5.803   0.724  0.4700  0.6473  1.7945
  393MOL0     H54229   9.104   5.897   0.595  0.4689 -0.7461 -0.0210
  393MOL0     H54230   9.003   6.215   0.837  2.4146  0.9046 -0.5538
  393MOL0     H54231   9.612   5.948   0.973  2.9243  0.0117  0.2695
  393MOL0     H54232   9.955   5.952   1.032  0.3383  1.2646  2.2362
  393MOL0     H54233   9.822   5.993   0.921  1.9282 -2.1658  0.2288
  393MOL0     H54234   9.858   6.097   1.052 -0.9327  0.4611  0.5035
  394MOL0     O54235   3.920   1.212   5.527  0.3847 -0.9234 -0.1816
  394MOL0     C54236   3.822   1.271   5.582  0.3776 -0.4695  0.5760
  394MOL0     O54237   3.789   1.253   5.711  0.2562 -0.5595 -1.3437
  394MOL0     C54238   3.860   1.172   5.794  0.3052  0.0774 -0.0804
  394MOL0     C54239   3.843   1.033   5.774 -0.0340  0.0580  0.2561
  394MOL0     C54240   3.915   0.951   5.867 -0.0653  1.4843 -0.2658
  394MOL0     C54241   4.004   1.006   5.973  0.9571  0.0666  1.2024
  394MOL0     O54242   4.070   0.922   6.059  0.1579  0.0655  0.2486
  394MOL0     C54243   4.042   0.931   6.201  0.2747  0.3824  0.4560
  394MOL0     C54244   4.151   0.849   6.281  0.2731  0.0583  0.8121
  394MOL0     C54245   4.289   0.919   6.265  0.3328 -0.1737 -0.4934
  394MOL0     C54246   4.402   0.811   6.264  0.3164  0.2507  0.3389
  394MOL0     C54247   4.539   0.875   6.256  0.6309  0.5846 -0.3757
  394MOL0     C54248   4.558   0.967   6.138  0.7005  0.2003 -0.1521
  394MOL0     C54249   4.704   1.003   6.121 -0.7051  0.5419 -0.4745
  394MOL0     C54250   4.762   0.974   5.979 -0.1890  1.1478 -0.0995
  394MOL0     N54251   4.907   0.959   5.966 -0.2129 -0.8433  0.0420
  394MOL0     C54252   5.002   1.053   5.997 -0.3984 -0.5721 -0.3638
  394MOL0     C54253   5.125   0.993   5.970  0.2520 -0.6699  0.1693
  394MOL0     C54254   5.265   1.053   5.967 -0.0233  0.4147  0.0240
  394MOL0     C54255   5.310   1.145   6.088 -0.0943 -0.1523 -0.9331
  394MOL0     C54256   5.241   1.283   6.101 -1.2028  0.4259  0.3426
  394MOL0     C54257   5.288   1.364   5.980  1.3027 -0.2296  0.1826
  394MOL0     O54258   5.225   1.490   5.960 -0.2349 -0.2699 -0.1655
  394MOL0     C54259   5.239   1.593   6.060 -0.6258  0.0595 -0.4860
  394MOL0     C54260   5.366   1.617   6.112  0.5367 -0.3967  0.1029
  394MOL0     C54261   5.372   1.726   6.204  0.3192  0.6476 -0.1436
  394MOL0     C54262   5.507   1.740   6.268  0.0201 -0.5853 -0.1526
  394MOL0     C54263   5.268   1.820   6.223 -0.4707 -0.7199  0.3310
  394MOL0     C54264   5.272   1.943   6.304 -0.8110 -0.7401 -0.2206
  394MOL0     O54265   5.189   2.054   6.273 -0.7865 -0.5420  0.5369
  394MOL0     C54266   5.218   2.176   6.325 -0.0596 -0.0319  0.1737
  394MOL0     C54267   5.242   2.215   6.459 -0.4749 -1.2121  0.2468
  394MOL0     C54268   5.250   2.354   6.495  0.2544 -1.5505  0.0573
  394MOL0     C54269   5.217   2.449   6.395 -0.3929  0.2169 -0.2844
  394MOL0     O54270   5.235   2.578   6.422 -0.4422  0.1526  1.0544
  394MOL0     C54271   5.299   2.648   6.316 -0.1945  0.1128 -0.1403
  394MOL0     C54272   5.355   2.787   6.364  0.6817  0.3416  0.8682
  394MOL0     C54273   5.478   2.788   6.446 -0.7382 -0.4747  1.0503
  394MOL0     C54274   5.542   2.928   6.431  0.6328 -0.6756  0.2967
  394MOL0     C54275   5.675   2.946   6.505 -0.0779  0.2069 -0.5820
  394MOL0     C54276   5.728   3.096   6.505  0.5633 -0.0922 -0.5713
  394MOL0     C54277   5.838   3.080   6.605  0.2690 -0.2103  0.2692
  394MOL0     C54278   5.911   3.205   6.608  0.2796  0.7358 -0.3087
  394MOL0    Cl54279   5.848   3.330   6.712 -0.2690 -0.1160  0.0555
  394MOL0     C54280   5.190   2.402   6.265 -0.1672 -0.4595  0.3997
  394MOL0     C54281   5.201   2.274   6.222  0.1174 -0.0464 -1.0253
  394MOL0     O54282   5.359   1.949   6.388  0.0057 -0.2218 -0.0918
  394MOL0     C54283   5.146   1.791   6.161  0.3392  0.9601 -1.0468
  394MOL0     C54284   5.127   1.674   6.087 -1.1900  0.1504  0.2218
  394MOL0     N54285   5.099   0.864   5.928  0.2877  0.6707  0.4718
  394MOL0     N54286   4.972   0.844   5.921  0.1737 -0.7144  0.4559
  394MOL0     C54287   4.008   1.144   5.981 -0.1880  0.5485 -0.9392
  394MOL0     C54288   3.938   1.228   5.887  0.3910 -0.3691 -0.4948
  394MOL0     C54289   3.740   1.373   5.516 -0.7333  0.3949 -0.4065
  394MOL0     C54290   3.631   1.431   5.576 -0.1001  0.5191 -1.1018
  394MOL0     C54291   3.546   1.515   5.515  0.4624  0.7555  0.2146
  394MOL0     C54292   3.568   1.558   5.388 -0.1421  0.0129  0.0106
  394MOL0     O54293   3.488   1.641   5.322  0.2215 -0.1844 -0.4202
  394MOL0     C54294   3.371   1.692   5.388 -0.2008  0.5617  0.5733
  394MOL0     C54295   3.312   1.792   5.294  0.6108 -0.7178  0.4186
  394MOL0     C54296   3.216   1.886   5.363  0.0499 -0.1323 -0.2731
  394MOL0     C54297   3.163   1.974   5.246  0.4492 -0.1107  0.2580
  394MOL0     C54298   3.054   2.064   5.296 -0.3877  0.1992 -0.0678
  394MOL0     C54299   2.976   2.145   5.335  0.3086  0.1114  0.3265
  394MOL0     C54300   3.679   1.513   5.322  0.8790 -0.7257 -0.3551
  394MOL0     C54301   3.764   1.423   5.379  0.1941  0.3306 -0.9366
  394MOL0     C54302   3.887   1.377   5.305  0.0213 -0.5866  0.8065
  394MOL0     H54303   3.756   0.995   5.721 -1.1250 -0.9638  2.6161
  394MOL0     H54304   3.894   0.845   5.857  1.8934  1.0534 -0.2628
  394MOL0     H54305   3.944   0.884   6.217  0.7543 -1.6196 -1.9005
  394MOL0     H54306   4.028   1.036   6.227 -2.4141  0.3502 -0.4752
  394MOL0     H54307   4.122   0.855   6.387 -0.8046  2.0039  0.4488
  394MOL0     H54308   4.158   0.746   6.246 -4.4916 -0.0680 -0.5313
  394MOL0     H54309   4.298   0.988   6.180  1.0177  1.1199  0.5917
  394MOL0     H54310   4.316   0.979   6.352 -3.4925  0.3032  0.5399
  394MOL0     H54311   4.401   0.743   6.351 -1.5223 -0.7407 -0.3961
  394MOL0     H54312   4.394   0.736   6.185 -3.5736  0.2868  0.4987
  394MOL0     H54313   4.618   0.800   6.255 -1.6974 -2.0764  0.1507
  394MOL0     H54314   4.546   0.933   6.349  1.8937  2.4682 -1.5822
  394MOL0     H54315   4.526   0.917   6.046 -1.7803  1.8965 -0.3378
  394MOL0     H54316   4.495   1.055   6.157  0.1246  0.4104 -2.6363
  394MOL0     H54317   4.770   0.960   6.197  1.4234 -0.7756 -2.9020
  394MOL0     H54318   4.705   1.112   6.135  0.3317  0.3082  1.5201
  394MOL0     H54319   4.719   0.876   5.955  2.4320 -0.5722  1.6835
  394MOL0     H54320   4.738   1.059   5.914  0.2061 -0.7516 -2.9077
  394MOL0     H54321   5.002   1.157   6.025  2.1532 -0.8530  1.0483
  394MOL0     H54322   5.268   1.107   5.871 -0.5044 -0.9270 -0.7632
  394MOL0     H54323   5.350   0.984   5.965  1.6598  2.3460  0.0166
  394MOL0     H54324   5.300   1.076   6.173 -2.7031 -0.3226 -1.2727
  394MOL0     H54325   5.415   1.168   6.070 -0.0863  0.2481 -0.4026
  394MOL0     H54326   5.132   1.286   6.091 -1.1564  1.8401  0.0931
  394MOL0     H54327   5.278   1.339   6.187  1.6567  0.1464 -0.6082
  394MOL0     H54328   5.397   1.377   5.987  1.4305 -0.0846 -1.6819
  394MOL0     H54329   5.263   1.321   5.883  1.3433 -1.7783  0.8408
  394MOL0     H54330   5.457   1.566   6.083 -0.1419 -1.0581 -0.9015
  394MOL0     H54331   5.545   1.842   6.252 -0.9853 -0.5178 -2.4027
  394MOL0     H54332   5.580   1.677   6.216  0.7813  0.7471 -0.7503
  394MOL0     H54333   5.507   1.736   6.377  0.1735  1.2025 -0.0524
  394MOL0     H54334   5.259   2.158   6.550 -0.7383  5.4241  5.1398
  394MOL0     H54335   5.275   2.379   6.597 -0.8205 -1.4363  0.3004
  394MOL0     H54336   5.388   2.592   6.287  0.3109  0.8363 -0.0342
  394MOL0     H54337   5.228   2.661   6.233 -0.6252  3.1064  0.5682
  394MOL0     H54338   5.381   2.833   6.268 -2.3029 -0.6929 -0.5775
  394MOL0     H54339   5.280   2.834   6.428 -1.5838  0.1151 -1.4775
  394MOL0     H54340   5.555   2.719   6.411 -0.8392 -0.0208 -0.1273
  394MOL0     H54341   5.454   2.748   6.545 -2.5207 -1.8011  0.1399
  394MOL0     H54342   5.467   2.993   6.478  1.3313  0.8148 -0.5878
  394MOL0     H54343   5.544   2.952   6.325  0.1587  0.4197  0.5205
  394MOL0     H54344   5.667   2.899   6.604 -0.3883 -0.3685 -0.8769
  394MOL0     H54345   5.748   2.885   6.452  0.9285  1.1921 -0.3834
  394MOL0     H54346   5.645   3.158   6.539  0.1455 -0.3410 -1.1459
  394MOL0     H54347   5.763   3.119   6.404  0.6802 -1.4056 -0.8527
  394MOL0     H54348   5.908   3.007   6.564 -1.7515 -0.4558 -3.1646
  394MOL0     H54349   5.808   3.052   6.706  2.7433 -3.0140  0.3765
  394MOL0     H54350   5.921   3.236   6.503 -1.4108 -1.6333 -1.2615
  394MOL0     H54351   6.008   3.176   6.649  0.5480 -1.0220 -2.0161
  394MOL0     H54352   5.170   2.469   6.183 -1.5732 -1.5858 -0.2107
  394MOL0     H54353   5.201   2.246   6.117  0.7403  0.6252 -1.2144
  394MOL0     H54354   5.059   1.850   6.185 -1.2688 -1.4511 -0.5376
  394MOL0     H54355   5.040   1.649   6.027  0.6440 -2.0645 -1.7093
  394MOL0     H54356   4.078   1.190   6.050  0.4249  2.9159 -2.9870
  394MOL0     H54357   3.957   1.335   5.887 -0.9526 -0.1215 -0.5263
  394MOL0     H54358   3.606   1.394   5.675  2.1457 -0.6436 -0.9007
  394MOL0     H54359   3.456   1.551   5.565 -0.1903 -0.5956  0.0518
  394MOL0     H54360   3.297   1.613   5.405  4.0252 -3.5758  2.2985
  394MOL0     H54361   3.388   1.745   5.483 -1.3777 -0.4948  1.4053
  394MOL0     H54362   3.263   1.735   5.215 -3.5078  1.2005  1.3155
  394MOL0     H54363   3.392   1.854   5.251 -0.6882  0.6989 -0.0333
  394MOL0     H54364   3.133   1.829   5.406 -0.9194  0.5521 -1.1714
  394MOL0     H54365   3.260   1.947   5.442  1.4366  0.8284 -1.7224
  394MOL0     H54366   3.128   1.920   5.158 -1.1027 -1.3468  1.5707
  394MOL0     H54367   3.245   2.039   5.214 -0.3588 -0.1290 -2.0595
  394MOL0     H54368   2.901   2.218   5.359  0.0969  0.8247 -2.2868
  394MOL0     H54369   3.690   1.561   5.225 -2.4500 -0.5217 -0.7344
  394MOL0     H54370   3.871   1.284   5.249 -5.0248  2.6926 -4.2976
  394MOL0     H54371   3.909   1.460   5.238 -1.4220  2.1341  3.4861
  394MOL0     H54372   3.980   1.366   5.362  0.3325 -2.9112 -0.0414
  395MOL0     O54373   1.654   3.751   7.507  0.5199  0.6139 -0.1577
  395MOL0     C54374   1.744   3.832   7.516 -0.1236 -0.0921 -1.3004
  395MOL0     O54375   1.806   3.865   7.634  0.3712 -0.1463  0.1654
  395MOL0     C54376   1.759   3.799   7.743  0.4172 -0.4608 -0.1831
  395MOL0     C54377   1.845   3.737   7.829 -0.4334 -0.6896  0.4289
  395MOL0     C54378   1.802   3.693   7.953 -0.2453  0.7610 -0.0974
  395MOL0     C54379   1.673   3.711   8.007  0.0716 -0.0697  1.3639
  395MOL0     O54380   1.631   3.675   8.126 -0.3082  0.7792 -0.7568
  395MOL0     C54381   1.723   3.643   8.236 -0.1970 -0.5110 -0.8969
  395MOL0     C54382   1.811   3.764   8.274  0.3867 -0.8864 -0.6199
  395MOL0     C54383   1.722   3.884   8.324  0.8942 -0.1391 -0.1599
  395MOL0     C54384   1.812   4.008   8.359  0.2676  0.9270 -1.1071
  395MOL0     C54385   1.732   4.124   8.437  0.0461  0.1572 -0.9377
  395MOL0     C54386   1.718   4.101   8.586 -0.0817 -0.4095  0.8360
  395MOL0     C54387   1.845   4.118   8.672 -0.1102  0.4160  0.1623
  395MOL0     C54388   1.837   4.047   8.813 -0.4017 -0.0900 -0.0981
  395MOL0     N54389   1.929   4.090   8.925  0.8408  0.2290 -0.2810
  395MOL0     C54390   1.926   4.227   8.968 -0.0052  0.2402  1.2812
  395MOL0     C54391   2.040   4.217   9.049 -0.7036  0.2989  0.5022
  395MOL0     C54392   2.079   4.341   9.123 -1.2675 -0.6309 -0.0581
  395MOL0     C54393   2.179   4.308   9.234 -0.3713 -0.0606 -0.3313
  395MOL0     C54394   2.203   4.426   9.328  0.2185  0.2198 -0.5161
  395MOL0     C54395   2.313   4.388   9.437  0.4805  0.5397 -0.3040
  395MOL0     O54396   2.289   4.269   9.510 -0.1404  0.7016 -0.3389
  395MOL0     C54397   2.391   4.263   9.609  0.1768 -0.8812 -0.4018
  395MOL0     C54398   2.489   4.175   9.584  0.2439  0.3826 -0.0854
  395MOL0     C54399   2.581   4.130   9.685  0.3286 -0.3079  0.3537
  395MOL0     C54400   2.678   4.026   9.657  0.2577 -1.1031 -0.0358
  395MOL0     C54401   2.576   4.204   9.798  0.0100  0.4652 -0.6452
  395MOL0     C54402   2.666   4.177   9.912  0.2460  0.8440 -0.9574
  395MOL0     O54403   2.617   4.185  10.037  0.4163 -0.1377 -0.3563
  395MOL0     C54404   2.696   4.134  10.137 -0.1293 -0.2697 -0.2248
  395MOL0     C54405   2.811   4.207  10.189 -0.2316  0.0658  0.7115
  395MOL0     C54406   2.888   4.151  10.293  0.2641 -0.5678 -0.4549
  395MOL0     C54407   2.845   4.034  10.352 -0.3003  0.0089  0.2501
  395MOL0     O54408   2.919   3.983  10.459  0.5546 -0.3002 -0.4943
  395MOL0     C54409   2.942   4.075  10.567 -0.2897  0.3129 -0.4501
  395MOL0     C54410   2.868   4.029  10.689 -0.4321 -0.7273  0.1055
  395MOL0     C54411   2.880   4.138  10.799  0.3632 -0.0472  0.3706
  395MOL0     C54412   3.002   4.109  10.880  0.6058  0.4371 -1.5178
  395MOL0     C54413   3.026   4.222  10.988  0.7370  0.1223 -0.0953
  395MOL0     C54414   3.171   4.239  10.995  0.3773  0.1120  0.0178
  395MOL0     C54415   3.209   4.325  11.115  0.0778  0.0125  0.3247
  395MOL0     C54416   3.151   4.466  11.118 -0.2892  0.0594  0.0267
  395MOL0    Cl54417   2.982   4.474  11.202 -0.0833  0.4637 -0.0883
  395MOL0     C54418   2.736   3.963  10.295 -0.0194 -0.2035  1.0815
  395MOL0     C54419   2.668   4.011  10.191  0.6385 -0.6500 -0.8696
  395MOL0     O54420   2.785   4.156   9.882  0.6746 -0.2825  1.0423
  395MOL0     C54421   2.482   4.304   9.820  0.2745  0.3544  0.6189
  395MOL0     C54422   2.382   4.336   9.719 -0.1373 -0.1482 -0.4108
  395MOL0     N54423   2.112   4.106   9.036  0.0566 -0.4430 -0.4675
  395MOL0     N54424   2.039   4.020   8.973  0.0770 -0.3789 -0.5544
  395MOL0     C54425   1.583   3.785   7.922 -0.6835  0.3902  0.6756
  395MOL0     C54426   1.626   3.821   7.792 -1.0802 -0.0673  0.3999
  395MOL0     C54427   1.796   3.900   7.396 -0.1231 -0.2382  0.5469
  395MOL0     C54428   1.922   3.961   7.415  0.1005 -0.1529 -0.7856
  395MOL0     C54429   1.986   4.039   7.319  0.0672 -0.2483 -0.5565
  395MOL0     C54430   1.922   4.059   7.199 -0.5047  0.5996  0.5261
  395MOL0     O54431   1.995   4.136   7.113 -0.0549  0.4625 -0.0235
  395MOL0     C54432   1.971   4.124   6.971 -0.7869  0.2589 -0.8362
  395MOL0     C54433   2.022   3.986   6.941  0.6845 -0.5508 -0.2795
  395MOL0     C54434   2.013   3.959   6.790 -0.0031 -0.2518  0.9925
  395MOL0     C54435   2.048   3.818   6.719 -0.0169 -0.2680 -0.1009
  395MOL0     C54436   1.943   3.728   6.760  0.3308 -0.4926  0.2101
  395MOL0     C54437   1.856   3.658   6.801 -0.3353  0.5381 -0.1223
  395MOL0     C54438   1.795   4.010   7.174 -0.7539  0.3864 -0.1410
  395MOL0     C54439   1.730   3.915   7.267  1.0024 -0.1227  0.5777
  395MOL0     C54440   1.591   3.858   7.231 -0.5651 -0.2305 -0.3338
  395MOL0     H54441   1.946   3.707   7.801 -0.1546  0.3661  0.2626
  395MOL0     H54442   1.875   3.649   8.019  0.6068  2.1566 -0.0761
  395MOL0     H54443   1.781   3.553   8.212  0.6915  0.0319 -0.7913
  395MOL0     H54444   1.658   3.628   8.323  2.5746  0.4508  1.4834
  395MOL0     H54445   1.871   3.727   8.358  0.4778 -2.5347 -1.3757
  395MOL0     H54446   1.875   3.792   8.189 -2.7137  3.4256 -1.9282
  395MOL0     H54447   1.660   3.918   8.241  2.0148  1.0153 -0.5675
  395MOL0     H54448   1.663   3.859   8.412 -1.1988  5.1577  0.3029
  395MOL0     H54449   1.903   3.976   8.410 -1.8763 -1.1248  1.7830
  395MOL0     H54450   1.848   4.051   8.265  2.8600 -0.5053 -0.8757
  395MOL0     H54451   1.627   4.125   8.406  0.0443 -4.2058 -1.6813
  395MOL0     H54452   1.789   4.214   8.410  1.6281 -1.0551 -1.8391
  395MOL0     H54453   1.637   4.165   8.622  1.0506  0.4271  1.9909
  395MOL0     H54454   1.677   4.000   8.588  1.6070 -1.1432 -0.0786
  395MOL0     H54455   1.869   4.222   8.692  1.4416 -0.4797  3.7120
  395MOL0     H54456   1.931   4.066   8.628 -1.0328 -0.6518 -0.4281
  395MOL0     H54457   1.734   4.047   8.849 -0.8743 -1.2516 -1.3592
  395MOL0     H54458   1.870   3.943   8.812  0.0212  0.0281  0.6082
  395MOL0     H54459   1.858   4.308   8.942  1.4434  1.3738  0.9150
  395MOL0     H54460   1.987   4.389   9.160 -1.4072  0.1112 -1.3196
  395MOL0     H54461   2.123   4.419   9.060 -0.4310 -1.2517 -0.2516
  395MOL0     H54462   2.135   4.229   9.296 -3.7026  1.5060 -0.4910
  395MOL0     H54463   2.280   4.281   9.202  0.4334 -1.6754  3.0884
  395MOL0     H54464   2.245   4.508   9.271  1.1040 -0.5178 -0.9523
  395MOL0     H54465   2.111   4.463   9.373  0.7266  0.0229  0.7370
  395MOL0     H54466   2.412   4.394   9.391  0.8891  3.2862  0.7211
  395MOL0     H54467   2.305   4.474   9.505 -0.4584  0.7354 -0.6488
  395MOL0     H54468   2.487   4.121   9.490  2.5312  0.4148 -0.2031
  395MOL0     H54469   2.763   4.070   9.605  1.0391  0.0425  2.0652
  395MOL0     H54470   2.636   3.945   9.597 -0.2540 -2.5233  2.0978
  395MOL0     H54471   2.715   3.986   9.752 -1.6565  1.1582  1.7965
  395MOL0     H54472   2.828   4.301  10.137  1.5032 -0.9302 -0.6286
  395MOL0     H54473   2.981   4.196  10.327  0.5014 -3.2908  3.0569
  395MOL0     H54474   3.050   4.074  10.583 -0.5478 -0.9522  1.5617
  395MOL0     H54475   2.899   4.173  10.546 -3.1411 -0.7503 -0.1392
  395MOL0     H54476   2.766   4.005  10.658  0.5766 -2.8362 -1.9435
  395MOL0     H54477   2.901   3.929  10.721 -1.6711 -1.1901  0.0055
  395MOL0     H54478   2.801   4.136  10.874  1.4789 -0.6420  1.5847
  395MOL0     H54479   2.890   4.241  10.764  1.1276 -0.1006  0.4039
  395MOL0     H54480   3.087   4.124  10.812  2.0641 -0.2465  0.0674
  395MOL0     H54481   3.002   4.017  10.939 -0.3560  1.0782 -0.4996
  395MOL0     H54482   2.974   4.317  10.971  1.2343  0.3199 -0.5487
  395MOL0     H54483   2.984   4.192  11.084  0.8895  2.5534  0.8207
  395MOL0     H54484   3.202   4.273  10.896 -1.1163 -1.7423 -1.1449
  395MOL0     H54485   3.218   4.141  11.009 -0.3193  0.1307  3.2496
  395MOL0     H54486   3.317   4.340  11.116  0.2479 -0.6811 -1.7008
  395MOL0     H54487   3.184   4.272  11.207  1.4246 -1.5632 -0.1664
  395MOL0     H54488   3.152   4.506  11.016  1.2524  3.7416  1.3293
  395MOL0     H54489   3.225   4.526  11.172  0.6375 -0.7729 -0.2788
  395MOL0     H54490   2.701   3.876  10.350  2.4687 -1.6182  0.5753
  395MOL0     H54491   2.587   3.950  10.152 -0.7018 -0.0763  0.8821
  395MOL0     H54492   2.473   4.345   9.920 -0.8054 -0.1780  0.7527
  395MOL0     H54493   2.303   4.410   9.730  0.9500  0.8449  1.1184
  395MOL0     H54494   1.488   3.812   7.966  0.6848  1.2493  3.3063
  395MOL0     H54495   1.558   3.865   7.719 -0.1072 -0.2003 -0.6129
  395MOL0     H54496   1.971   3.959   7.512 -0.3607  0.6923 -0.5216
  395MOL0     H54497   2.085   4.076   7.343  1.9734 -2.4683 -4.2264
  395MOL0     H54498   1.865   4.135   6.945 -0.7076  0.9272 -0.9069
  395MOL0     H54499   2.035   4.199   6.922  2.9161 -2.5257 -0.6491
  395MOL0     H54500   1.955   3.917   6.993  0.5563 -1.3937 -1.5293
  395MOL0     H54501   2.122   3.976   6.983 -0.7690 -1.6495  3.2324
  395MOL0     H54502   1.916   3.994   6.752  0.7917 -2.0111 -3.1630
  395MOL0     H54503   2.083   4.018   6.730 -1.2163 -2.3527 -2.8504
  395MOL0     H54504   2.142   3.773   6.754  1.8005  0.7147 -3.2905
  395MOL0     H54505   2.046   3.842   6.612 -0.3061  1.8893  0.3471
  395MOL0     H54506   1.779   3.587   6.820  0.0744 -0.1603 -1.0550
  395MOL0     H54507   1.751   4.049   7.083  1.6009  2.0479 -0.6588
  395MOL0     H54508   1.602   3.858   7.122  0.8132 -1.4670 -0.2253
  395MOL0     H54509   1.566   3.756   7.261 -1.9121 -0.4127 -1.9591
  395MOL0     H54510   1.505   3.915   7.265 -0.8277 -1.1406  0.5886
  396MOL0     O54511   2.841   7.580   2.031  1.0060  0.9380 -0.2308
  396MOL0     C54512   2.757   7.605   1.942  1.1197 -0.0949  0.6424
  396MOL0     O54513   2.792   7.648   1.805 -1.1002  0.2912  0.0097
  396MOL0     C54514   2.923   7.637   1.745  0.0076 -0.0866 -0.8017
  396MOL0     C54515   3.047   7.638   1.821  0.0992  0.5321  0.5085
  396MOL0     C54516   3.174   7.642   1.768  0.4620  0.2270 -0.6902
  396MOL0     C54517   3.184   7.649   1.635  0.0882 -0.9543  0.3089
  396MOL0     O54518   3.304   7.649   1.571 -0.8673 -0.7609  0.3301
  396MOL0     C54519   3.423   7.658   1.645 -0.5144 -0.4945 -0.5730
  396MOL0     C54520   3.509   7.738   1.556 -0.1509 -0.8039 -0.1634
  396MOL0     C54521   3.643   7.800   1.614 -0.2761  1.1560 -0.2057
  396MOL0     C54522   3.606   7.916   1.699  0.4018 -0.0902 -0.1008
  396MOL0     C54523   3.711   8.033   1.691  0.3532 -0.3515 -0.8515
  396MOL0     C54524   3.848   7.991   1.747  0.1126 -0.3899 -0.7172
  396MOL0     C54525   3.970   8.072   1.704 -0.2869 -0.2069 -0.1384
  396MOL0     C54526   4.101   8.023   1.762  0.7949  0.3803 -0.4835
  396MOL0     N54527   4.222   8.074   1.716  0.0174  0.1199  0.1282
  396MOL0     C54528   4.345   8.014   1.735  0.1421 -0.1850 -0.2341
  396MOL0     C54529   4.427   8.110   1.689  0.0647 -0.2528  1.1568
  396MOL0     C54530   4.577   8.098   1.685 -0.0320  0.6350  1.1600
  396MOL0     C54531   4.621   8.047   1.548 -0.4535 -0.0258  0.1973
  396MOL0     C54532   4.783   8.049   1.528  0.4723 -0.2849 -0.5299
  396MOL0     C54533   4.808   8.022   1.379 -0.1050  0.6643  0.4070
  396MOL0     O54534   4.938   7.976   1.337  0.0264 -0.3046 -0.2988
  396MOL0     C54535   5.048   8.057   1.333 -0.1011  0.4248 -0.4644
  396MOL0     C54536   5.165   8.005   1.288 -0.4831 -0.1711  0.6625
  396MOL0     C54537   5.281   8.076   1.290  0.0133 -0.3691  0.0113
  396MOL0     C54538   5.401   8.010   1.223  0.3380 -0.0774  0.0376
  396MOL0     C54539   5.282   8.206   1.341  0.3458 -0.1108 -0.2199
  396MOL0     C54540   5.397   8.292   1.353 -0.6558 -1.1543  0.3879
  396MOL0     O54541   5.515   8.235   1.376 -0.0489  0.4880  0.1353
  396MOL0     C54542   5.630   8.308   1.338  0.4943 -0.6320 -0.0639
  396MOL0     C54543   5.667   8.298   1.200  0.4073 -1.2220  0.1242
  396MOL0     C54544   5.770   8.385   1.152  0.3363 -0.0691  0.0477
  396MOL0     C54545   5.837   8.471   1.245 -0.4204  0.7167  0.5747
  396MOL0     O54546   5.939   8.555   1.210 -0.1914 -0.0022  0.0842
  396MOL0     C54547   5.990   8.534   1.074 -0.6717 -0.0050 -0.6132
  396MOL0     C54548   6.134   8.588   1.055 -0.1521  0.0342 -0.1757
  396MOL0     C54549   6.170   8.725   1.112  0.5500 -1.0548  0.0201
  396MOL0     C54550   6.309   8.767   1.055 -0.4439 -0.4844 -0.7550
  396MOL0     C54551   6.345   8.900   1.115  0.5843  0.0316  0.3065
  396MOL0     C54552   6.475   8.944   1.064  0.0863  1.2807 -0.4830
  396MOL0     C54553   6.516   9.084   1.099  0.4777 -0.2594  0.0106
  396MOL0     C54554   6.590   9.167   0.991  0.9061  0.3579  0.2740
  396MOL0    Cl54555   6.729   9.075   0.920  0.4793  0.1284 -0.1457
  396MOL0     C54556   5.796   8.475   1.379  0.5710  0.4925 -0.2291
  396MOL0     C54557   5.694   8.396   1.429 -0.6214 -0.4000  0.2995
  396MOL0     O54558   5.385   8.415   1.335  0.3426  1.5615  0.2473
  396MOL0     C54559   5.159   8.267   1.394 -0.7595  0.5537  0.6786
  396MOL0     C54560   5.044   8.189   1.389 -0.1543  0.3285  0.8567
  396MOL0     N54561   4.368   8.231   1.670 -0.6784 -0.5382  0.3750
  396MOL0     N54562   4.248   8.207   1.694 -0.6421 -0.6268  0.3328
  396MOL0     C54563   3.070   7.651   1.557 -0.2207 -0.0625 -0.0194
  396MOL0     C54564   2.936   7.644   1.603 -0.6829 -0.6871  0.1839
  396MOL0     C54565   2.607   7.635   1.975  0.5499  0.6716 -0.0141
  396MOL0     C54566   2.539   7.726   1.897  0.6511  0.1851  1.0822
  396MOL0     C54567   2.409   7.774   1.932 -0.2532 -0.2694 -0.1031
  396MOL0     C54568   2.333   7.711   2.026 -0.8658  0.1971 -0.1224
  396MOL0     O54569   2.201   7.747   2.041  0.2682 -0.4040  0.1897
  396MOL0     C54570   2.112   7.670   2.122 -0.0921 -0.2448 -0.4126
  396MOL0     C54571   1.978   7.749   2.136 -1.0032 -0.3442 -0.6755
  396MOL0     C54572   1.863   7.666   2.177  0.3259  0.5646  0.4422
  396MOL0     C54573   1.820   7.575   2.056 -0.2347 -0.2055 -0.3346
  396MOL0     C54574   1.685   7.521   2.075  0.0808 -0.2550 -0.8370
  396MOL0     C54575   1.576   7.477   2.098 -0.5246 -0.3224 -0.6034
  396MOL0     C54576   2.398   7.601   2.091 -0.2906 -1.3890  0.0155
  396MOL0     C54577   2.528   7.561   2.066  0.2351  0.6754  0.7009
  396MOL0     C54578   2.585   7.448   2.150  0.2663  0.5343  0.2144
  396MOL0     H54579   3.034   7.646   1.928  0.2247 -3.0338  0.9134
  396MOL0     H54580   3.255   7.641   1.840  0.4927 -0.7047 -0.7337
  396MOL0     H54581   3.451   7.555   1.664 -1.1617 -0.7629 -1.0303
  396MOL0     H54582   3.419   7.713   1.740  1.4314 -0.2944 -0.5758
  396MOL0     H54583   3.514   7.688   1.458 -3.3206  1.6448 -1.7567
  396MOL0     H54584   3.445   7.822   1.529 -1.6117 -2.2484 -1.4258
  396MOL0     H54585   3.691   7.716   1.666 -1.3982  0.9108  0.4731
  396MOL0     H54586   3.703   7.832   1.529 -0.9697  1.3379 -0.6376
  396MOL0     H54587   3.509   7.959   1.672 -0.1683 -1.8966 -1.0696
  396MOL0     H54588   3.601   7.890   1.805 -0.1765  0.8950  0.1346
  396MOL0     H54589   3.664   8.115   1.747 -2.3489 -0.7396 -2.3653
  396MOL0     H54590   3.728   8.074   1.591  2.8772  0.1699 -0.2713
  396MOL0     H54591   3.841   7.999   1.856 -0.8193 -1.2501 -0.6944
  396MOL0     H54592   3.866   7.885   1.725  0.9224 -0.6988  1.2304
  396MOL0     H54593   3.947   8.176   1.728  2.4948  0.1232  1.6821
  396MOL0     H54594   3.981   8.067   1.595 -0.8643  0.4181 -0.2291
  396MOL0     H54595   4.089   8.035   1.870  1.9594  0.1061 -0.3099
  396MOL0     H54596   4.109   7.915   1.746 -1.5275  0.1974 -0.7525
  396MOL0     H54597   4.379   7.925   1.788 -0.2289 -0.8376 -1.0715
  396MOL0     H54598   4.611   8.017   1.750 -0.5848 -1.6873 -1.2925
  396MOL0     H54599   4.620   8.197   1.705 -2.5981  2.0473  0.1560
  396MOL0     H54600   4.579   7.947   1.533 -0.8972  0.3218 -1.0308
  396MOL0     H54601   4.572   8.110   1.473  0.4346  2.9698  1.9876
  396MOL0     H54602   4.815   8.151   1.550 -2.6555  1.0140 -1.4044
  396MOL0     H54603   4.832   7.972   1.587  2.7484  1.2079 -0.3625
  396MOL0     H54604   4.743   7.940   1.349  2.1381 -2.6989  3.8194
  396MOL0     H54605   4.778   8.113   1.326  0.2691  0.9963  0.7584
  396MOL0     H54606   5.171   7.911   1.233  2.0624  0.4683 -0.2703
  396MOL0     H54607   5.495   8.045   1.266 -0.9155  3.7712  0.0103
  396MOL0     H54608   5.402   8.038   1.117  0.0002  1.4343  0.4050
  396MOL0     H54609   5.397   7.901   1.232 -0.6675 -0.1791 -1.3281
  396MOL0     H54610   5.611   8.236   1.131 -2.7002  0.8911  0.5463
  396MOL0     H54611   5.788   8.392   1.045  3.4444 -0.3728  0.4413
  396MOL0     H54612   5.994   8.431   1.039  0.2230 -1.1142  2.4184
  396MOL0     H54613   5.926   8.574   0.995 -1.5672 -1.2866 -0.5653
  396MOL0     H54614   6.203   8.523   1.108  1.2323 -0.9302 -2.9411
  396MOL0     H54615   6.155   8.577   0.948 -1.5353  1.0943 -0.5858
  396MOL0     H54616   6.196   8.712   1.217  0.0578  3.7958  0.9534
  396MOL0     H54617   6.089   8.799   1.106  2.2999  1.0977  1.3566
  396MOL0     H54618   6.307   8.786   0.947 -2.0002 -0.1702 -0.7007
  396MOL0     H54619   6.373   8.685   1.086 -1.6872 -0.7895  1.1346
  396MOL0     H54620   6.268   8.972   1.087  0.8729  0.0612 -0.4507
  396MOL0     H54621   6.351   8.902   1.224  4.2064 -1.1200  0.2461
  396MOL0     H54622   6.471   8.924   0.957 -2.1848  2.1356 -0.6214
  396MOL0     H54623   6.553   8.879   1.105 -2.1623 -0.9724  0.5202
  396MOL0     H54624   6.579   9.083   1.188  0.8949  1.7265 -0.2076
  396MOL0     H54625   6.430   9.148   1.121  1.5209  0.5240  2.0674
  396MOL0     H54626   6.631   9.257   1.037 -1.5953 -0.3026  4.2441
  396MOL0     H54627   6.530   9.185   0.901 -0.1581 -2.9139  0.2011
  396MOL0     H54628   5.845   8.542   1.449  0.4988 -2.4843  2.9230
  396MOL0     H54629   5.671   8.402   1.535  0.0023  0.1480  0.4062
  396MOL0     H54630   5.163   8.368   1.432 -1.5089  0.8505  0.0145
  396MOL0     H54631   4.959   8.235   1.439 -1.7122  0.0650 -1.4259
  396MOL0     H54632   3.078   7.664   1.450  1.2655 -2.1578 -0.2177
  396MOL0     H54633   2.846   7.647   1.542 -1.9468  0.0338  2.0084
  396MOL0     H54634   2.586   7.760   1.805 -0.4829  1.1933  0.8412
  396MOL0     H54635   2.357   7.844   1.867  1.1339  1.0982  0.2001
  396MOL0     H54636   2.090   7.569   2.086 -0.9636 -1.4998  3.2409
  396MOL0     H54637   2.146   7.652   2.225 -3.3595  1.3531  1.1003
  396MOL0     H54638   1.949   7.798   2.043  0.2400  0.6166 -0.5902
  396MOL0     H54639   1.993   7.825   2.214 -1.9357  0.0894 -0.9163
  396MOL0     H54640   1.881   7.596   2.259  0.4855 -2.5116 -2.0256
  396MOL0     H54641   1.779   7.735   2.189 -1.5280 -1.4867 -0.0074
  396MOL0     H54642   1.896   7.496   2.047 -1.8425 -1.6683 -1.8477
  396MOL0     H54643   1.831   7.638   1.968  3.5550  1.6722  1.2617
  396MOL0     H54644   1.478   7.433   2.097 -1.0817  0.6169  2.2303
  396MOL0     H54645   2.343   7.547   2.168 -1.5299 -0.3948 -0.1412
  396MOL0     H54646   2.667   7.486   2.213  2.7649  1.1031 -3.0758
  396MOL0     H54647   2.509   7.389   2.199  0.0102 -0.7088 -1.5772
  396MOL0     H54648   2.635   7.380   2.080 -1.0691  0.2858 -0.5326
  397MOL0     O54649   3.148   9.578   5.401  0.1138 -0.2258 -0.4250
  397MOL0     C54650   3.025   9.577   5.403 -0.8721  0.1975 -0.7511
  397MOL0     O54651   2.939   9.493   5.460 -0.2238 -0.5217  0.8300
  397MOL0     C54652   2.977   9.365   5.493 -0.3001  0.0771  0.9661
  397MOL0     C54653   3.061   9.335   5.596  0.5431  0.0092 -0.8522
  397MOL0     C54654   3.092   9.206   5.636  0.2969 -0.1672  0.0144
  397MOL0     C54655   3.044   9.099   5.559  1.1002 -0.5595  0.9025
  397MOL0     O54656   3.064   8.972   5.599  0.2883 -0.2975  0.3159
  397MOL0     C54657   3.063   8.867   5.501  0.6838  1.1168  0.2086
  397MOL0     C54658   3.113   8.738   5.558  0.2125  0.1144  0.6220
  397MOL0     C54659   3.105   8.622   5.460 -0.9014 -0.3830  0.9379
  397MOL0     C54660   3.208   8.644   5.352 -0.1935 -1.3762  0.5281
  397MOL0     C54661   3.207   8.528   5.256 -0.3779 -0.2394 -0.3260
  397MOL0     C54662   3.323   8.524   5.161 -0.3424 -0.1916 -0.8513
  397MOL0     C54663   3.346   8.379   5.100 -0.7233 -0.3761 -0.6325
  397MOL0     C54664   3.232   8.348   5.002  0.9370  0.2966  0.6011
  397MOL0     N54665   3.234   8.209   4.963 -0.3950 -0.1660 -1.0377
  397MOL0     C54666   3.142   8.120   5.010  0.3533  0.0703  0.5881
  397MOL0     C54667   3.156   8.009   4.926 -0.0714 -1.4937 -0.0858
  397MOL0     C54668   3.082   7.875   4.943  0.1565  0.4146 -0.5052
  397MOL0     C54669   3.135   7.773   4.845 -0.1791  0.5744  1.0135
  397MOL0     C54670   3.080   7.631   4.879 -0.0014  0.5136 -0.1494
  397MOL0     C54671   3.194   7.550   4.941 -0.0860  0.1457  0.3436
  397MOL0     O54672   3.221   7.597   5.062 -0.3804  0.0942  0.7979
  397MOL0     C54673   3.183   7.528   5.173 -0.6001 -0.3521 -1.1895
  397MOL0     C54674   3.118   7.404   5.187 -0.6676  0.0422  0.8263
  397MOL0     C54675   3.103   7.339   5.301  0.2538  1.2501  0.0396
  397MOL0     C54676   3.020   7.210   5.295  0.1005  0.2392 -0.5522
  397MOL0     C54677   3.144   7.394   5.416  0.6960 -0.2952 -0.3162
  397MOL0     C54678   3.139   7.314   5.536 -1.1346 -0.7358 -0.3403
  397MOL0     O54679   3.255   7.321   5.602  0.3878  0.7923  0.0763
  397MOL0     C54680   3.269   7.268   5.729 -0.0943  0.4025 -0.6011
  397MOL0     C54681   3.327   7.359   5.824 -0.4443  0.5488 -0.4048
  397MOL0     C54682   3.339   7.321   5.957  0.0692  0.0301 -0.1741
  397MOL0     C54683   3.292   7.191   6.004  0.1010 -0.1389  0.1672
  397MOL0     O54684   3.307   7.147   6.133  0.5382  0.1961 -1.0971
  397MOL0     C54685   3.293   7.236   6.249  1.0091 -1.0066 -0.4670
  397MOL0     C54686   3.176   7.340   6.225  0.0287  0.8131 -0.1659
  397MOL0     C54687   3.139   7.398   6.356  0.1410  0.8216 -0.7332
  397MOL0     C54688   3.226   7.522   6.397  0.9538  0.1613 -0.0013
  397MOL0     C54689   3.193   7.552   6.546 -0.2363 -0.0422  1.1898
  397MOL0     C54690   3.289   7.646   6.602  0.2081  0.1396 -0.2552
  397MOL0     C54691   3.256   7.667   6.761  0.0159  0.2517  0.4091
  397MOL0     C54692   3.149   7.771   6.792  1.0268  0.2383  0.2444
  397MOL0    Cl54693   3.160   7.775   6.974  0.0912 -0.0418 -0.9532
  397MOL0     C54694   3.240   7.103   5.914 -0.5340 -0.4120  0.0162
  397MOL0     C54695   3.220   7.140   5.778  0.1664 -0.2289  0.5408
  397MOL0     O54696   3.034   7.268   5.583 -0.6733 -0.5131 -0.5305
  397MOL0     C54697   3.201   7.521   5.417 -0.4040  0.2866 -0.7471
  397MOL0     C54698   3.221   7.589   5.294  0.9108  0.3211  0.3821
  397MOL0     N54699   3.277   8.026   4.853  0.1310  0.7164 -0.1217
  397MOL0     N54700   3.326   8.145   4.882 -0.3869  0.3818 -0.4407
  397MOL0     C54701   2.957   9.133   5.452 -0.1231 -0.3065  0.5645
  397MOL0     C54702   2.922   9.264   5.421  0.6339 -0.3798  0.4749
  397MOL0     C54703   2.954   9.698   5.335  0.2934 -0.4908  0.0155
  397MOL0     C54704   3.017   9.834   5.337 -1.3279  0.5334 -0.5844
  397MOL0     C54705   2.955   9.945   5.275  0.3441  0.7070  0.1698
  397MOL0     C54706   2.836   9.930   5.207 -0.2625 -0.1757  0.3270
  397MOL0     O54707   2.757  10.039   5.158 -0.0275  0.3462 -0.6709
  397MOL0     C54708   2.821  10.120   5.060 -1.0639  0.2331  0.3234
  397MOL0     C54709   2.729  10.159   4.950 -0.8159 -0.0909  1.0171
  397MOL0     C54710   2.654  10.285   4.991  0.2870  0.0593 -0.4653
  397MOL0     C54711   2.577  10.341   4.874  0.3932 -0.5582  0.5788
  397MOL0     C54712   2.482  10.254   4.811  0.9951 -0.3396  0.3144
  397MOL0     C54713   2.387  10.187   4.779  0.5995 -0.0086 -0.2506
  397MOL0     C54714   2.773   9.807   5.212  0.2847 -0.4222 -0.5003
  397MOL0     C54715   2.830   9.688   5.268 -0.0979  0.2571 -0.3777
  397MOL0     C54716   2.760   9.555   5.250  0.9062  0.1240  0.2940
  397MOL0     H54717   3.084   9.418   5.662 -3.1241  0.0114  0.7136
  397MOL0     H54718   3.134   9.189   5.734  2.5364  0.6451 -0.7284
  397MOL0     H54719   3.125   8.909   5.421 -0.7090  2.7815 -0.0489
  397MOL0     H54720   2.962   8.844   5.468 -0.7121  0.2449  4.5314
  397MOL0     H54721   3.214   8.749   5.599  0.4229 -1.5514  0.6441
  397MOL0     H54722   3.058   8.702   5.646  1.5181  1.8202  2.2073
  397MOL0     H54723   3.117   8.527   5.513 -1.7572 -1.1363 -0.1595
  397MOL0     H54724   3.011   8.628   5.403  0.3170  0.5881 -1.0943
  397MOL0     H54725   3.194   8.736   5.295 -0.9092 -3.2644 -2.6237
  397MOL0     H54726   3.295   8.666   5.415 -1.0482  2.1500  0.6795
  397MOL0     H54727   3.114   8.535   5.198 -1.0595 -0.0440  0.7761
  397MOL0     H54728   3.200   8.438   5.317 -1.7715  0.2597  0.2711
  397MOL0     H54729   3.301   8.594   5.080  2.6017  2.1243  0.1651
  397MOL0     H54730   3.415   8.557   5.209  1.1326 -2.4829 -1.8834
  397MOL0     H54731   3.348   8.303   5.179  0.1331 -0.4213 -0.6989
  397MOL0     H54732   3.439   8.367   5.044 -1.4066 -0.0371 -1.8768
  397MOL0     H54733   3.130   8.367   5.037  1.1606 -0.0353  1.4468
  397MOL0     H54734   3.245   8.405   4.909 -2.9520 -0.4243 -0.5388
  397MOL0     H54735   3.072   8.131   5.093  1.5973 -1.4258  1.8750
  397MOL0     H54736   2.976   7.895   4.927 -0.4208 -1.1761  0.9993
  397MOL0     H54737   3.089   7.842   5.047 -0.6298 -0.1790 -0.6316
  397MOL0     H54738   3.097   7.791   4.744  1.8298 -1.2185 -0.1211
  397MOL0     H54739   3.244   7.778   4.850 -0.1910  1.0695  0.8277
  397MOL0     H54740   2.984   7.634   4.931  0.5743  0.6629  0.9349
  397MOL0     H54741   3.050   7.590   4.782 -0.5887  1.3392 -0.3262
  397MOL0     H54742   3.170   7.445   4.929  0.2241  0.4041 -4.1935
  397MOL0     H54743   3.278   7.569   4.874  0.6878 -4.7567 -0.4227
  397MOL0     H54744   3.077   7.364   5.095 -0.9816  2.0613  0.0343
  397MOL0     H54745   3.023   7.180   5.190  1.2693  1.7242 -0.9995
  397MOL0     H54746   2.917   7.227   5.326  0.2330 -0.2789  0.1983
  397MOL0     H54747   3.076   7.138   5.355  1.8248  0.2669 -2.0139
  397MOL0     H54748   3.377   7.448   5.788  1.4955  0.2979  1.4535
  397MOL0     H54749   3.373   7.400   6.024 -3.1469  1.6043 -0.2175
  397MOL0     H54750   3.257   7.180   6.335 -0.9802 -0.5431 -0.9551
  397MOL0     H54751   3.388   7.284   6.275  0.5279 -0.5054  0.3962
  397MOL0     H54752   3.196   7.417   6.151  3.1939 -1.3610 -1.8118
  397MOL0     H54753   3.085   7.287   6.196  0.0606  0.2885  0.6541
  397MOL0     H54754   3.142   7.323   6.435 -0.7558  1.2711 -0.2544
  397MOL0     H54755   3.040   7.444   6.348 -0.6043 -0.6805 -0.4117
  397MOL0     H54756   3.194   7.610   6.342  2.6836 -0.5796 -2.3702
  397MOL0     H54757   3.331   7.497   6.381  1.1982  0.5862  0.8807
  397MOL0     H54758   3.087   7.577   6.554 -0.2242 -0.1612  1.7978
  397MOL0     H54759   3.203   7.451   6.586 -3.7430 -2.2579 -2.7537
  397MOL0     H54760   3.285   7.743   6.552  1.3985  1.2926  1.7407
  397MOL0     H54761   3.387   7.597   6.601 -0.6411 -1.8184  1.7809
  397MOL0     H54762   3.348   7.711   6.800  1.6935 -1.0615 -1.8201
  397MOL0     H54763   3.228   7.573   6.810  0.3322  0.5115  1.0912
  397MOL0     H54764   3.045   7.740   6.776  1.0264  0.2728  0.1796
  397MOL0     H54765   3.153   7.865   6.737  0.0209  0.9673  1.3431
  397MOL0     H54766   3.214   7.002   5.941 -1.8568  0.0031  0.3752
  397MOL0     H54767   3.173   7.077   5.702 -0.8731 -0.5605  1.4415
  397MOL0     H54768   3.246   7.559   5.508 -0.2286  0.3738 -0.8690
  397MOL0     H54769   3.278   7.682   5.295  2.1034 -0.3845  0.4457
  397MOL0     H54770   2.919   9.054   5.388 -1.2538  1.8684 -1.5919
  397MOL0     H54771   2.861   9.277   5.332 -2.3182 -1.5985  2.1831
  397MOL0     H54772   3.110   9.853   5.390  0.2249 -2.5220 -1.9972
  397MOL0     H54773   2.983  10.048   5.293 -0.2279  0.4545  2.9962
  397MOL0     H54774   2.883  10.198   5.106  2.3702 -2.9242  1.5919
  397MOL0     H54775   2.891  10.055   5.007 -1.4162  2.1795 -2.7374
  397MOL0     H54776   2.658  10.079   4.930 -1.1747  0.2433  0.9386
  397MOL0     H54777   2.790  10.175   4.861 -0.1072 -3.7268  0.6800
  397MOL0     H54778   2.599  10.270   5.084  0.9519  4.4581  0.8232
  397MOL0     H54779   2.728  10.359   5.019  1.7337 -0.0594 -3.6123
  397MOL0     H54780   2.639  10.399   4.805 -1.2908  0.1891 -0.3704
  397MOL0     H54781   2.516  10.421   4.917 -1.4708 -1.1564 -0.8723
  397MOL0     H54782   2.303  10.136   4.735  1.8294 -1.1956 -1.3380
  397MOL0     H54783   2.674   9.791   5.172  0.1675 -2.0456  0.3601
  397MOL0     H54784   2.691   9.543   5.334 -0.7812 -0.8441 -1.1575
  397MOL0     H54785   2.708   9.552   5.154 -0.4968 -2.6555  1.0191
  397MOL0     H54786   2.837   9.477   5.254 -0.7604 -1.5921  0.9094
  398MOL0     O54787   0.198   3.750   0.794 -0.5491 -0.8954  0.0669
  398MOL0     C54788   0.147   3.829   0.871 -0.0213 -0.4237  0.3666
  398MOL0     O54789   0.125   3.961   0.838  0.5926 -0.2554 -0.3572
  398MOL0     C54790   0.192   4.009   0.733  1.1422  0.7746 -0.8236
  398MOL0     C54791   0.330   4.031   0.736  0.4315  0.3965 -0.2266
  398MOL0     C54792   0.401   4.099   0.630 -0.4392 -0.5503  0.6891
  398MOL0     C54793   0.321   4.135   0.518  0.3273 -0.0676 -0.1165
  398MOL0     O54794   0.372   4.190   0.403 -0.5795 -1.0677  0.4922
  398MOL0     C54795   0.458   4.305   0.426  0.5731  0.5165 -1.3640
  398MOL0     C54796   0.520   4.364   0.299  0.3332  0.2425  0.3772
  398MOL0     C54797   0.421   4.447   0.209  0.0909 -0.8027 -0.6748
  398MOL0     C54798   0.410   4.597   0.257 -0.4058 -0.0893 -0.5166
  398MOL0     C54799   0.354   4.686   0.161  0.8361  0.0057  0.2507
  398MOL0     C54800   0.213   4.649   0.108 -0.5695  0.3433 -0.1603
  398MOL0     C54801   0.111   4.617   0.209 -0.1809  1.0797  0.0634
  398MOL0     C54802  -0.024   4.577   0.140 -0.3063 -0.2607  0.1933
  398MOL0     N54803  -0.117   4.529   0.251  0.2879 -0.1154  0.5327
  398MOL0     C54804  -0.161   4.396   0.265 -0.1896 -0.1284 -0.1891
  398MOL0     C54805  -0.234   4.396   0.380 -0.5991 -0.5554  0.3693
  398MOL0     C54806  -0.290   4.273   0.446 -0.5801  0.0978 -0.3805
  398MOL0     C54807  -0.316   4.289   0.594  0.0181  0.2997  0.9531
  398MOL0     C54808  -0.181   4.313   0.672 -0.0810  0.1795 -0.4116
  398MOL0     C54809  -0.198   4.276   0.819  0.3021  0.0163 -0.1106
  398MOL0     O54810  -0.214   4.138   0.843  0.2212 -0.0662 -0.7896
  398MOL0     C54811  -0.251   4.100   0.975 -0.3069  0.2442  0.1088
  398MOL0     C54812  -0.289   4.183   1.082  0.1674  0.0169 -0.3032
  398MOL0     C54813  -0.323   4.137   1.210 -0.0041 -0.6704 -0.0246
  398MOL0     C54814  -0.387   4.241   1.300  0.6789  0.0850 -0.1378
  398MOL0     C54815  -0.317   4.006   1.244  1.0944  0.9290 -0.4818
  398MOL0     C54816  -0.340   3.940   1.374 -0.8857  0.9927 -0.1413
  398MOL0     O54817  -0.336   3.802   1.375  0.6877 -0.3960  0.0089
  398MOL0     C54818  -0.396   3.744   1.480  0.2617  0.1756 -0.2907
  398MOL0     C54819  -0.492   3.645   1.463 -0.1144  0.0875  0.5849
  398MOL0     C54820  -0.550   3.574   1.567 -0.4858 -0.1003 -0.6956
  398MOL0     C54821  -0.500   3.597   1.702  0.2859  0.1797  0.2591
  398MOL0     O54822  -0.578   3.526   1.793  0.1610  0.7557  0.3854
  398MOL0     C54823  -0.598   3.588   1.921  0.3874  0.5097 -0.3746
  398MOL0     C54824  -0.748   3.563   1.959 -0.2433  0.8028 -0.8832
  398MOL0     C54825  -0.772   3.609   2.106 -0.2155  0.8983 -1.0218
  398MOL0     C54826  -0.902   3.559   2.173 -0.8787 -0.9589 -0.0811
  398MOL0     C54827  -0.908   3.591   2.323  0.0494 -0.1908  0.0921
  398MOL0     C54828  -1.041   3.557   2.379  0.7779  0.1351  0.2921
  398MOL0     C54829  -1.060   3.585   2.525 -0.1414  0.3366  0.1468
  398MOL0     C54830  -1.208   3.625   2.556 -0.3315 -0.1881  0.2354
  398MOL0    Cl54831  -1.236   3.656   2.728 -0.1149  0.0975  0.2028
  398MOL0     C54832  -0.397   3.691   1.721  0.7170  1.0322  0.1153
  398MOL0     C54833  -0.344   3.763   1.608 -0.5585  0.5104  0.6079
  398MOL0     O54834  -0.370   4.009   1.471  0.7905  0.0291  0.7440
  398MOL0     C54835  -0.268   3.918   1.136  1.0107 -0.2313 -1.0219
  398MOL0     C54836  -0.245   3.964   1.003  0.1667 -0.5766  0.5779
  398MOL0     N54837  -0.230   4.526   0.431 -0.3117  0.4705 -0.6840
  398MOL0     N54838  -0.161   4.599   0.358 -0.9437 -0.1392 -0.0076
  398MOL0     C54839   0.185   4.113   0.523  0.1539  0.3596  0.2477
  398MOL0     C54840   0.118   4.061   0.633 -0.3823  0.0194 -0.3123
  398MOL0     C54841   0.099   3.792   1.004 -0.4407  0.0908  0.4867
  398MOL0     C54842   0.099   3.895   1.104  0.2240  0.3367  0.6445
  398MOL0     C54843   0.063   3.869   1.236 -0.3683 -0.3847  0.5897
  398MOL0     C54844   0.019   3.746   1.278 -0.1187 -0.9577  0.1809
  398MOL0     O54845  -0.006   3.736   1.410  0.0794  0.0231 -0.4597
  398MOL0     C54846   0.022   3.605   1.471 -0.4746 -0.7261  0.4338
  398MOL0     C54847   0.074   3.628   1.621 -0.9314 -0.5357  0.6531
  398MOL0     C54848   0.203   3.721   1.628 -0.8783  0.2940  0.5112
  398MOL0     C54849   0.280   3.699   1.750 -0.2713 -0.4223 -0.7921
  398MOL0     C54850   0.361   3.569   1.756  1.0486 -0.7092  0.1906
  398MOL0     C54851   0.416   3.465   1.744  0.0282 -0.9308 -0.1149
  398MOL0     C54852   0.013   3.645   1.181  0.3953  0.0324 -0.4254
  398MOL0     C54853   0.054   3.661   1.045  0.2752 -0.7864  0.0754
  398MOL0     C54854   0.060   3.542   0.952  0.2309  0.7088 -0.0497
  398MOL0     H54855   0.386   4.017   0.828 -1.2182 -0.8642  0.6371
  398MOL0     H54856   0.502   4.134   0.645 -1.1414  0.6519  3.1051
  398MOL0     H54857   0.539   4.285   0.497 -1.6563  0.3386  1.3197
  398MOL0     H54858   0.391   4.378   0.472 -1.6052 -2.2427  0.1538
  398MOL0     H54859   0.600   4.435   0.326  3.6095 -2.6484 -0.9208
  398MOL0     H54860   0.572   4.295   0.232 -1.2663  1.0701 -1.8300
  398MOL0     H54861   0.457   4.442   0.106 -3.1387  5.9195 -2.6832
  398MOL0     H54862   0.318   4.411   0.202 -0.3731  0.4611 -0.6982
  398MOL0     H54863   0.348   4.599   0.347  1.0748 -1.5711  0.6123
  398MOL0     H54864   0.509   4.637   0.280 -0.1726 -0.8081 -0.2407
  398MOL0     H54865   0.426   4.683   0.079  0.3909  2.9734 -0.3802
  398MOL0     H54866   0.345   4.787   0.202 -0.3819 -0.5439  1.3943
  398MOL0     H54867   0.182   4.737   0.050  0.6691  1.3622  0.6628
  398MOL0     H54868   0.235   4.562   0.046  0.0367 -0.3453  0.9955
  398MOL0     H54869   0.099   4.694   0.285  0.9440  1.1389  0.2009
  398MOL0     H54870   0.141   4.526   0.262  0.6481  0.5694 -1.2502
  398MOL0     H54871  -0.068   4.666   0.096  1.9475  0.7083 -0.2517
  398MOL0     H54872  -0.015   4.502   0.061 -0.0874  0.1416 -0.1639
  398MOL0     H54873  -0.158   4.322   0.187  0.7347  2.0700 -2.3745
  398MOL0     H54874  -0.220   4.191   0.428  0.7470  1.2611 -0.6577
  398MOL0     H54875  -0.387   4.249   0.402  0.8346 -1.6276 -2.7997
  398MOL0     H54876  -0.377   4.377   0.615 -1.4949 -0.6384  0.6576
  398MOL0     H54877  -0.355   4.197   0.639  3.0696 -2.1728 -1.0583
  398MOL0     H54878  -0.101   4.254   0.628  0.3495 -1.2392  2.1270
  398MOL0     H54879  -0.152   4.418   0.662  0.4023 -0.0882 -2.3020
  398MOL0     H54880  -0.109   4.300   0.877  0.1454 -0.1597  0.2065
  398MOL0     H54881  -0.282   4.341   0.846  0.0360  0.1835 -1.2617
  398MOL0     H54882  -0.295   4.291   1.068 -1.0210 -0.2640 -2.3872
  398MOL0     H54883  -0.333   4.234   1.395  0.1206 -1.7041  0.0709
  398MOL0     H54884  -0.495   4.220   1.302  0.7589 -0.6320 -1.8649
  398MOL0     H54885  -0.372   4.337   1.249  0.7905  0.0418 -0.1842
  398MOL0     H54886  -0.525   3.632   1.360 -0.1755  2.5670  0.2262
  398MOL0     H54887  -0.612   3.490   1.537  2.8218 -1.8787 -3.1842
  398MOL0     H54888  -0.524   3.557   1.995 -1.7047 -1.7476  0.9355
  398MOL0     H54889  -0.592   3.697   1.914 -1.1898  0.6215 -0.4058
  398MOL0     H54890  -0.817   3.615   1.892 -1.9014 -0.2205 -0.0421
  398MOL0     H54891  -0.767   3.456   1.948  0.4511  0.3956  1.4081
  398MOL0     H54892  -0.776   3.718   2.101  1.2990  0.9430 -2.4823
  398MOL0     H54893  -0.696   3.587   2.182 -2.8091  1.5081  1.9672
  398MOL0     H54894  -0.924   3.453   2.156  0.0051 -1.1875  0.1259
  398MOL0     H54895  -0.983   3.605   2.116  0.2473 -1.5537 -2.3072
  398MOL0     H54896  -0.833   3.529   2.373 -0.0460 -1.7990 -1.6370
  398MOL0     H54897  -0.883   3.696   2.340  3.7477 -0.9361  0.1709
  398MOL0     H54898  -1.063   3.454   2.350  2.6560  0.8688 -4.8224
  398MOL0     H54899  -1.109   3.613   2.315  0.0485 -1.3808 -0.3064
  398MOL0     H54900  -0.993   3.662   2.562  1.0910 -0.5512 -0.1632
  398MOL0     H54901  -1.039   3.492   2.580  2.7376  1.7421  1.6483
  398MOL0     H54902  -1.278   3.545   2.530 -1.1012 -0.5863  3.2477
  398MOL0     H54903  -1.233   3.717   2.502 -1.3953 -0.1210  0.8139
  398MOL0     H54904  -0.341   3.705   1.814  2.1844 -0.7345 -0.4380
  398MOL0     H54905  -0.257   3.826   1.626  1.0558 -1.0139 -1.3790
  398MOL0     H54906  -0.251   3.811   1.140 -1.2923 -0.6784 -1.5818
  398MOL0     H54907  -0.218   3.895   0.924 -3.8266 -1.8581  0.1183
  398MOL0     H54908   0.126   4.146   0.439 -2.1497  1.1470  2.0528
  398MOL0     H54909   0.010   4.064   0.643 -0.2224 -0.8921  2.3826
  398MOL0     H54910   0.140   3.990   1.072 -1.7511 -0.1506 -4.1930
  398MOL0     H54911   0.075   3.956   1.300 -1.3764  0.2321 -0.0244
  398MOL0     H54912  -0.075   3.555   1.467 -0.3605 -1.2069 -6.1040
  398MOL0     H54913   0.082   3.531   1.417 -2.7810 -1.1998 -1.6934
  398MOL0     H54914   0.088   3.531   1.668 -2.8750 -0.6360  1.1069
  398MOL0     H54915  -0.007   3.685   1.668 -0.4029  3.9551 -3.0526
  398MOL0     H54916   0.273   3.697   1.548 -1.4620  3.6029 -1.1430
  398MOL0     H54917   0.173   3.826   1.624 -2.2211 -0.0953 -0.3114
  398MOL0     H54918   0.205   3.713   1.829 -0.2345  0.3869 -0.8948
  398MOL0     H54919   0.339   3.790   1.764 -3.1193  1.4329  0.1550
  398MOL0     H54920   0.462   3.371   1.720  0.3201 -0.6687 -0.6061
  398MOL0     H54921  -0.026   3.552   1.221 -1.6391  2.6081  4.3908
  398MOL0     H54922   0.002   3.456   0.986  2.2268 -1.5629 -1.9817
  398MOL0     H54923   0.027   3.557   0.848  0.4642 -1.0460 -0.4153
  398MOL0     H54924   0.166   3.514   0.951  0.7312  2.4560 -0.3878
  399MOL0     O54925   5.156   2.929   7.898 -0.5675 -0.4993  0.8494
  399MOL0     C54926   5.181   2.914   8.010  0.3974 -0.2451 -0.0339
  399MOL0     O54927   5.293   2.958   8.065 -0.2398  0.7391 -0.1569
  399MOL0     C54928   5.377   3.040   7.997 -0.2324  1.0366 -0.4701
  399MOL0     C54929   5.498   2.981   7.959 -0.3650  0.4078  0.0985
  399MOL0     C54930   5.597   3.058   7.903 -0.1550 -0.0146  0.3083
  399MOL0     C54931   5.569   3.200   7.896  0.3701 -0.3221  0.4231
  399MOL0     O54932   5.665   3.287   7.851  0.0908  0.6192 -0.1207
  399MOL0     C54933   5.795   3.272   7.920  0.2417  0.1397  0.8398
  399MOL0     C54934   5.849   3.400   7.987 -0.4047  0.6805  0.0302
  399MOL0     C54935   5.998   3.390   8.023  0.0803 -0.3092  0.1394
  399MOL0     C54936   6.023   3.305   8.145 -0.2543  0.5516 -0.6027
  399MOL0     C54937   6.166   3.344   8.203 -0.7207  0.1190  0.3866
  399MOL0     C54938   6.219   3.220   8.279  0.1557  0.7289 -0.4526
  399MOL0     C54939   6.353   3.245   8.345 -0.0641 -0.4350 -0.3476
  399MOL0     C54940   6.427   3.125   8.410 -0.4801  1.1475  0.8027
  399MOL0     N54941   6.560   3.148   8.460  0.3901 -0.1193 -1.2988
  399MOL0     C54942   6.626   3.063   8.546  1.5113 -0.4778  0.7576
  399MOL0     C54943   6.758   3.074   8.529  0.3836  0.0702 -0.4004
  399MOL0     C54944   6.870   3.023   8.616  0.2206  1.3734  0.0994
  399MOL0     C54945   7.014   3.020   8.557  0.9025 -0.0384 -0.6002
  399MOL0     C54946   7.134   2.947   8.626 -0.5422 -0.5512  0.3343
  399MOL0     C54947   7.127   2.792   8.628  1.0626 -0.4572  0.3683
  399MOL0     O54948   7.023   2.754   8.718  0.5712  0.5220 -0.3701
  399MOL0     C54949   6.954   2.631   8.715  0.0999  0.2928 -0.2743
  399MOL0     C54950   6.993   2.532   8.621  0.5240 -0.2505  0.3680
  399MOL0     C54951   6.904   2.428   8.577 -0.3290  0.2931  1.3204
  399MOL0     C54952   6.970   2.326   8.488 -1.2632  0.2202  1.0243
  399MOL0     C54953   6.776   2.421   8.624 -0.3795 -0.0826  0.1702
  399MOL0     C54954   6.675   2.323   8.582  0.3755 -0.2994  0.8162
  399MOL0     O54955   6.562   2.307   8.668 -0.1396  0.2672 -0.8984
  399MOL0     C54956   6.461   2.226   8.636  0.3717  0.6061  0.7531
  399MOL0     C54957   6.329   2.252   8.685  0.3307 -0.0115 -0.9573
  399MOL0     C54958   6.226   2.164   8.671 -0.2958 -0.1166  0.1773
  399MOL0     C54959   6.241   2.040   8.601 -0.1338  0.2096 -0.5744
  399MOL0     O54960   6.139   1.956   8.566  0.5718  0.8239  0.3410
  399MOL0     C54961   6.022   1.956   8.645  0.2114  0.5795 -0.0858
  399MOL0     C54962   5.934   1.835   8.611 -1.2254  0.3100  0.7080
  399MOL0     C54963   5.790   1.847   8.655 -0.8845  1.3882 -0.1915
  399MOL0     C54964   5.723   1.709   8.628 -0.9791 -0.0805  0.5100
  399MOL0     C54965   5.571   1.707   8.649  0.7375  0.7328 -0.5274
  399MOL0     C54966   5.481   1.595   8.594  0.0821  0.9266  0.7716
  399MOL0     C54967   5.547   1.456   8.612 -0.1438  0.1652 -0.3481
  399MOL0     C54968   5.475   1.349   8.537 -0.1399 -0.7489  0.0133
  399MOL0    Cl54969   5.322   1.336   8.621  0.0764  0.4827 -0.0303
  399MOL0     C54970   6.372   2.011   8.548  0.1930 -0.4118 -0.9525
  399MOL0     C54971   6.474   2.104   8.563  0.1408  0.0614 -0.1691
  399MOL0     O54972   6.688   2.277   8.468  0.1730  0.0188  0.4939
  399MOL0     C54973   6.742   2.513   8.723 -0.1804  1.0628  0.5876
  399MOL0     C54974   6.823   2.612   8.767 -0.0499  0.0482  0.1299
  399MOL0     N54975   6.769   3.168   8.425  0.1760  0.2324 -0.4380
  399MOL0     N54976   6.653   3.218   8.393  0.7339 -0.6362  0.0238
  399MOL0     C54977   5.450   3.258   7.940  0.2513 -0.1026  0.0750
  399MOL0     C54978   5.346   3.176   7.992 -0.0358  0.3393  0.2745
  399MOL0     C54979   5.087   2.821   8.084 -0.0822  1.1152 -0.1122
  399MOL0     C54980   5.150   2.761   8.193 -0.0977  0.9181 -0.0786
  399MOL0     C54981   5.079   2.677   8.280  0.0532  0.2882 -0.2371
  399MOL0     C54982   4.940   2.658   8.268 -0.1297 -0.4356  0.1308
  399MOL0     O54983   4.860   2.585   8.351  0.3047 -0.8578  0.1615
  399MOL0     C54984   4.910   2.456   8.393  1.0251 -0.3304 -0.2316
  399MOL0     C54985   4.815   2.355   8.341 -0.4410 -1.0051 -0.8130
  399MOL0     C54986   4.678   2.385   8.401 -0.7008  0.6520  0.4597
  399MOL0     C54987   4.585   2.272   8.368  0.8107 -0.3131  0.4788
  399MOL0     C54988   4.593   2.149   8.444  0.2256  0.5245 -0.7913
  399MOL0     C54989   4.578   2.040   8.492 -0.8435  0.3311  0.3432
  399MOL0     C54990   4.880   2.724   8.162 -0.1559 -0.6607  0.0396
  399MOL0     C54991   4.947   2.802   8.063 -0.4890  0.0615 -0.4624
  399MOL0     C54992   4.871   2.864   7.953 -0.6892  0.6754 -0.2257
  399MOL0     H54993   5.516   2.874   7.959  0.5131  0.4827 -2.7167
  399MOL0     H54994   5.698   3.026   7.881 -0.0898 -0.1085  0.7310
  399MOL0     H54995   5.867   3.237   7.846  0.5297  0.2112  1.0811
  399MOL0     H54996   5.788   3.199   8.001 -1.8905 -0.1964  0.3991
  399MOL0     H54997   5.834   3.474   7.908 -2.5027 -2.5359 -2.9194
  399MOL0     H54998   5.790   3.435   8.072  0.2939 -0.9690  1.2526
  399MOL0     H54999   6.070   3.356   7.947  1.7291  1.6300  0.7489
  399MOL0     H55000   6.024   3.493   8.046 -1.3742  0.7781 -2.6520
  399MOL0     H55001   5.943   3.319   8.218 -2.6530 -1.6539 -2.5923
  399MOL0     H55002   6.029   3.200   8.117 -1.1545  0.6526 -1.2523
  399MOL0     H55003   6.168   3.435   8.264  0.7851  0.2223  0.2214
  399MOL0     H55004   6.242   3.360   8.126 -1.0374  0.8907  0.2252
  399MOL0     H55005   6.138   3.184   8.343  2.5600 -3.3500  0.6464
  399MOL0     H55006   6.229   3.140   8.205 -1.5442  0.3771 -0.3594
  399MOL0     H55007   6.337   3.323   8.420 -2.2398 -0.8622 -0.2942
  399MOL0     H55008   6.411   3.295   8.267 -1.3134  1.1790 -0.2901
  399MOL0     H55009   6.351   3.089   8.480 -1.2479  0.0016 -0.5711
  399MOL0     H55010   6.432   3.051   8.330 -0.6663  2.0049 -0.0059
  399MOL0     H55011   6.586   2.995   8.621 -1.4684  2.1775  1.7914
  399MOL0     H55012   6.836   2.928   8.657  0.1232  0.9590 -0.9121
  399MOL0     H55013   6.874   3.097   8.696 -0.0291 -0.3306  1.7384
  399MOL0     H55014   7.013   2.978   8.456  1.1902  2.7815 -1.8786
  399MOL0     H55015   7.044   3.124   8.541 -1.7659  0.4369 -3.5650
  399MOL0     H55016   7.217   2.989   8.569 -0.7549  1.1452  1.2092
  399MOL0     H55017   7.148   2.985   8.728  1.2155  1.3496 -0.5640
  399MOL0     H55018   7.113   2.750   8.528  0.3245 -0.5204  0.4920
  399MOL0     H55019   7.222   2.757   8.670  1.4385  1.9494  1.7399
  399MOL0     H55020   7.098   2.529   8.594  0.2094  0.0092 -0.9849
  399MOL0     H55021   7.079   2.319   8.493 -1.3395 -1.6054  0.9507
  399MOL0     H55022   6.949   2.336   8.381  2.1694  1.6796  0.3523
  399MOL0     H55023   6.948   2.219   8.498  1.3175 -1.0880 -4.0055
  399MOL0     H55024   6.309   2.349   8.729  0.1786 -1.0345  1.3998
  399MOL0     H55025   6.127   2.187   8.709  0.1457  0.3598  1.0826
  399MOL0     H55026   6.049   1.961   8.751 -1.5353 -0.6046  0.4583
  399MOL0     H55027   5.963   2.049   8.641  0.4475  0.8114  1.3246
  399MOL0     H55028   5.932   1.820   8.502 -0.5284  2.1625  0.4198
  399MOL0     H55029   6.000   1.753   8.642 -1.1086  0.5088  0.9822
  399MOL0     H55030   5.743   1.915   8.584 -3.0877 -2.0643 -2.3552
  399MOL0     H55031   5.774   1.891   8.754 -0.7330 -3.5934  2.4018
  399MOL0     H55032   5.764   1.624   8.684 -2.3118 -0.7744  0.4786
  399MOL0     H55033   5.742   1.694   8.521 -3.5520  0.5075 -0.1065
  399MOL0     H55034   5.550   1.718   8.756  2.8392  1.6814 -0.1570
  399MOL0     H55035   5.546   1.803   8.603  6.4813  0.8277 -4.4725
  399MOL0     H55036   5.445   1.610   8.492 -1.2454 -3.4319  0.3929
  399MOL0     H55037   5.384   1.603   8.644  0.2748 -2.0056  1.8462
  399MOL0     H55038   5.555   1.437   8.720 -1.5875 -0.8852 -0.3898
  399MOL0     H55039   5.651   1.454   8.581  1.1599 -1.3916  3.4548
  399MOL0     H55040   5.533   1.258   8.551  0.8820  0.1454  2.3096
  399MOL0     H55041   5.450   1.378   8.435  0.5000 -3.6424 -1.0514
  399MOL0     H55042   6.375   1.917   8.494  0.3692 -0.1493 -1.4148
  399MOL0     H55043   6.573   2.072   8.533  0.6664  0.2291  1.3111
  399MOL0     H55044   6.641   2.521   8.761  0.5173  3.4822  2.1654
  399MOL0     H55045   6.790   2.686   8.840  2.1252  0.8471  0.3904
  399MOL0     H55046   5.432   3.365   7.940  0.6316 -0.0360  0.2951
  399MOL0     H55047   5.250   3.221   8.016  1.2882  3.0088  0.9814
  399MOL0     H55048   5.257   2.765   8.212 -0.0752 -0.6065  0.2553
  399MOL0     H55049   5.135   2.636   8.363  0.1920  0.3566 -0.2971
  399MOL0     H55050   5.008   2.432   8.353  0.2864 -1.8968 -1.1635
  399MOL0     H55051   4.920   2.462   8.502  3.6322  2.7989 -0.5020
  399MOL0     H55052   4.843   2.249   8.347 -1.5964 -1.2648  2.8247
  399MOL0     H55053   4.804   2.390   8.238 -1.6620  1.4147  0.0527
  399MOL0     H55054   4.683   2.400   8.509 -1.3096  0.2458  0.5473
  399MOL0     H55055   4.628   2.469   8.352 -1.3230  0.5281  0.8710
  399MOL0     H55056   4.594   2.241   8.264  3.2094 -0.4058  0.6629
  399MOL0     H55057   4.490   2.322   8.388  1.3290  1.0773 -0.4470
  399MOL0     H55058   4.579   1.938   8.524 -1.1128  0.0667 -0.4431
  399MOL0     H55059   4.772   2.715   8.155 -0.7285  1.7888  3.1837
  399MOL0     H55060   4.881   2.972   7.961  0.9384  0.4265  2.0225
  399MOL0     H55061   4.914   2.832   7.858  0.3925 -1.9392  1.0403
  399MOL0     H55062   4.767   2.829   7.961  0.5661 -3.6443  0.0347
  400MOL0     O55063   4.015   8.632   9.328  0.2909  0.4737  0.3386
  400MOL0     C55064   4.054   8.737   9.278 -0.5416  0.2562  1.1975
  400MOL0     O55065   3.990   8.861   9.269  0.0678  0.4556 -0.0963
  400MOL0     C55066   3.882   8.875   9.354  0.0699  0.0654  0.6475
  400MOL0     C55067   3.772   8.789   9.328  0.1873 -0.7752 -0.8543
  400MOL0     C55068   3.651   8.804   9.408 -0.7107  0.2028  0.4391
  400MOL0     C55069   3.650   8.894   9.517  0.7314  0.5326  0.5369
  400MOL0     O55070   3.535   8.893   9.594 -0.1829  0.7755  0.2881
  400MOL0     C55071   3.525   8.980   9.713 -0.4880 -0.3196  1.2022
  400MOL0     C55072   3.434   9.103   9.671 -0.2454  0.7801  0.3791
  400MOL0     C55073   3.290   9.068   9.670  0.0330  0.9034 -0.9710
  400MOL0     C55074   3.209   9.202   9.639  0.0032 -0.5278 -0.4231
  400MOL0     C55075   3.062   9.163   9.658  0.7415  0.4540  0.3762
  400MOL0     C55076   2.997   9.172   9.793 -0.7728  0.2893  0.5682
  400MOL0     C55077   2.859   9.216   9.801 -0.2427 -0.0809 -0.3821
  400MOL0     C55078   2.809   9.198   9.945 -0.8331  0.5954  0.1700
  400MOL0     N55079   2.674   9.251   9.964 -0.3555 -0.4327  0.0904
  400MOL0     C55080   2.553   9.190   9.993  0.1948 -0.2313  0.3526
  400MOL0     C55081   2.464   9.289  10.009 -0.2304  0.1327 -0.4328
  400MOL0     C55082   2.317   9.279  10.025 -0.9943 -0.0272 -0.4080
  400MOL0     C55083   2.244   9.237   9.896 -0.0956  0.2351  0.4580
  400MOL0     C55084   2.264   9.332   9.770  0.5732  0.1579 -0.3971
  400MOL0     C55085   2.375   9.300   9.669 -0.1485 -1.8639  0.1210
  400MOL0     O55086   2.412   9.165   9.641  0.5118 -0.2360  0.0057
  400MOL0     C55087   2.521   9.165   9.554 -0.4459  1.0759 -0.2746
  400MOL0     C55088   2.538   9.247   9.448  0.3478  1.3222 -0.8544
  400MOL0     C55089   2.646   9.229   9.360 -0.0817 -0.1416  0.0366
  400MOL0     C55090   2.646   9.317   9.237 -0.4550 -0.0353 -0.1577
  400MOL0     C55091   2.740   9.127   9.386 -0.8049 -0.3548 -0.9573
  400MOL0     C55092   2.870   9.103   9.315  0.5418  0.0632 -0.2523
  400MOL0     O55093   2.914   8.980   9.338  0.1738  0.9516 -0.1938
  400MOL0     C55094   3.034   8.950   9.273 -0.6330 -1.1490  0.3501
  400MOL0     C55095   3.161   8.946   9.336 -0.4746 -0.0834 -0.2533
  400MOL0     C55096   3.275   8.891   9.270  0.2215  0.0541 -0.4361
  400MOL0     C55097   3.267   8.857   9.134 -0.6706  0.5066  0.7852
  400MOL0     O55098   3.383   8.814   9.086 -0.4997  0.5143  0.3434
  400MOL0     C55099   3.395   8.757   8.954  0.3906 -0.6358  0.0786
  400MOL0     C55100   3.501   8.644   8.960  0.4324  0.0719  0.2143
  400MOL0     C55101   3.643   8.699   8.939 -0.2612 -0.6453  0.1637
  400MOL0     C55102   3.746   8.592   8.910 -0.0875  1.0868  0.0441
  400MOL0     C55103   3.888   8.655   8.884 -0.4285  0.3200  0.5488
  400MOL0     C55104   3.987   8.544   8.848  0.5911  0.3004 -0.1262
  400MOL0     C55105   3.955   8.483   8.713 -0.2819 -0.1554 -0.6929
  400MOL0     C55106   4.050   8.371   8.682 -0.4028  0.6859 -0.8914
  400MOL0    Cl55107   4.068   8.262   8.832  0.4859 -0.4342 -0.0386
  400MOL0     C55108   3.140   8.869   9.068 -0.6830 -0.3276 -0.0410
  400MOL0     C55109   3.032   8.902   9.147  0.3537 -0.4544  0.6549
  400MOL0     O55110   2.937   9.192   9.257  0.4639 -0.5062 -0.8552
  400MOL0     C55111   2.714   9.049   9.503 -0.0469 -0.9821  0.5148
  400MOL0     C55112   2.610   9.064   9.578  0.1088  0.6854 -0.3519
  400MOL0     N55113   2.520   9.408   9.994  0.4222 -1.1589  0.0918
  400MOL0     N55114   2.645   9.386   9.960  0.0871  0.5917  0.2478
  400MOL0     C55115   3.762   8.962   9.539 -0.2828 -0.6352 -0.1981
  400MOL0     C55116   3.875   8.967   9.461  0.3600  0.6256 -0.6650
  400MOL0     C55117   4.177   8.718   9.191  0.1621  0.4116  0.1679
  400MOL0     C55118   4.196   8.592   9.126 -0.8387  0.5299  1.0241
  400MOL0     C55119   4.322   8.552   9.070 -0.2975  0.2417 -0.5865
  400MOL0     C55120   4.423   8.650   9.069 -0.6039  0.8433  0.1562
  400MOL0     O55121   4.552   8.622   9.028 -0.3222 -0.5894  0.5771
  400MOL0     C55122   4.573   8.576   8.894 -0.2569  1.0422  0.5947
  400MOL0     C55123   4.716   8.578   8.861 -0.1275 -0.5409 -0.1183
  400MOL0     C55124   4.796   8.486   8.950  0.1326 -0.1634  0.2124
  400MOL0     C55125   4.937   8.473   8.884  0.3425 -1.1327  0.0635
  400MOL0     C55126   5.004   8.597   8.851  0.8873 -0.7510 -0.1667
  400MOL0     C55127   5.062   8.698   8.816  0.6205 -0.1504  0.0371
  400MOL0     C55128   4.398   8.781   9.117  0.0425 -0.7338  0.2239
  400MOL0     C55129   4.280   8.814   9.179 -0.2189  0.1330  0.6848
  400MOL0     C55130   4.276   8.945   9.253  0.4195  0.7920 -0.1955
  400MOL0     H55131   3.778   8.725   9.241  0.2843  1.0739 -2.2899
  400MOL0     H55132   3.570   8.735   9.384 -1.8945  2.0010 -1.0093
  400MOL0     H55133   3.618   9.019   9.755 -2.6343  5.1472  1.7220
  400MOL0     H55134   3.476   8.924   9.792  4.4446 -3.0375  2.7626
  400MOL0     H55135   3.445   9.186   9.741 -0.6098  1.0268  0.1398
  400MOL0     H55136   3.460   9.137   9.571  1.1896 -1.5552 -0.1174
  400MOL0     H55137   3.276   8.986   9.599 -0.2926  1.3855 -1.4701
  400MOL0     H55138   3.261   9.018   9.763 -1.1172  1.5791 -0.9458
  400MOL0     H55139   3.247   9.283   9.701 -1.4778 -1.4987  1.9288
  400MOL0     H55140   3.224   9.230   9.535  1.0598  0.5403 -0.0018
  400MOL0     H55141   3.028   9.070   9.611 -2.4143  1.1505  1.0634
  400MOL0     H55142   3.012   9.242   9.600 -0.0427  0.4673  1.0456
  400MOL0     H55143   3.014   9.076   9.842 -2.6085  0.7530  2.2083
  400MOL0     H55144   3.065   9.239   9.847  1.5524  0.0979 -1.9134
  400MOL0     H55145   2.791   9.160   9.737 -2.8902  1.0942  1.2164
  400MOL0     H55146   2.839   9.319   9.768  2.2998  0.5883 -0.0366
  400MOL0     H55147   2.814   9.095   9.981  3.0494  1.0365  1.3181
  400MOL0     H55148   2.874   9.249  10.016 -2.7544  2.3067  0.7983
  400MOL0     H55149   2.541   9.083  10.004  1.9206 -0.8988 -2.8637
  400MOL0     H55150   2.288   9.379  10.059 -0.0704 -0.3623  1.4861
  400MOL0     H55151   2.285   9.226  10.115 -0.3960 -0.1454 -0.2594
  400MOL0     H55152   2.274   9.136   9.870 -3.4522 -0.4957 -1.1600
  400MOL0     H55153   2.141   9.241   9.932  0.4304 -0.0909  2.0685
  400MOL0     H55154   2.172   9.318   9.712 -0.0156  1.7767  0.0794
  400MOL0     H55155   2.277   9.436   9.802  3.2695  1.2616 -4.2950
  400MOL0     H55156   2.347   9.368   9.587  3.5115  0.8266  0.8461
  400MOL0     H55157   2.465   9.348   9.707  0.5953 -2.3209 -1.0097
  400MOL0     H55158   2.468   9.326   9.425  1.7265  2.7232 -0.4294
  400MOL0     H55159   2.553   9.302   9.180  1.0573  1.6619 -3.2902
  400MOL0     H55160   2.731   9.303   9.170  0.4315  2.4019  0.3874
  400MOL0     H55161   2.647   9.420   9.272  1.1256 -0.8871  2.6338
  400MOL0     H55162   3.148   8.968   9.441 -0.6143  3.3093 -0.8784
  400MOL0     H55163   3.368   8.876   9.323 -0.1832 -0.7054  0.0779
  400MOL0     H55164   3.297   8.727   8.918  0.8351  1.2023 -2.9839
  400MOL0     H55165   3.430   8.840   8.891  1.6781  0.8386  2.5812
  400MOL0     H55166   3.501   8.589   9.054  1.8405  0.4026  0.4353
  400MOL0     H55167   3.487   8.571   8.880  3.0017  0.6982 -0.9331
  400MOL0     H55168   3.671   8.760   9.025 -1.6108 -1.3998  1.1709
  400MOL0     H55169   3.662   8.765   8.854  5.2318  0.5209  1.8915
  400MOL0     H55170   3.701   8.535   8.828 -1.1334  1.7067  0.1632
  400MOL0     H55171   3.753   8.529   8.999  0.0879  0.9667 -0.0567
  400MOL0     H55172   3.903   8.734   8.810  2.4000 -0.9500 -0.3740
  400MOL0     H55173   3.933   8.694   8.975  1.1629 -0.5025  0.1471
  400MOL0     H55174   3.986   8.465   8.922  0.0112 -1.6638 -2.1205
  400MOL0     H55175   4.088   8.587   8.837  0.6855 -0.0603 -0.7241
  400MOL0     H55176   3.952   8.557   8.633 -0.8536 -0.6631 -1.1535
  400MOL0     H55177   3.852   8.448   8.718 -0.5524  0.8162  3.0083
  400MOL0     H55178   4.147   8.420   8.671 -0.1337 -0.0641 -2.0934
  400MOL0     H55179   4.033   8.319   8.587 -1.7243 -0.7776  0.0775
  400MOL0     H55180   3.123   8.832   8.967 -0.9637 -1.8827  0.5414
  400MOL0     H55181   2.935   8.893   9.099  0.3978  0.4732  0.3694
  400MOL0     H55182   2.792   8.982   9.539 -0.2187  0.3247  3.6422
  400MOL0     H55183   2.612   9.022   9.678  2.9500  0.9519 -0.2183
  400MOL0     H55184   3.765   9.032   9.621 -1.9235 -1.3736  0.5585
  400MOL0     H55185   3.962   9.029   9.482 -1.9206  2.8676  3.5690
  400MOL0     H55186   4.116   8.520   9.117  0.6200 -0.9261 -0.8894
  400MOL0     H55187   4.348   8.457   9.024 -0.8541  0.1225 -0.6661
  400MOL0     H55188   4.533   8.474   8.897 -2.0136  1.2570 -4.6000
  400MOL0     H55189   4.517   8.623   8.813 -0.8426 -0.8179 -0.1296
  400MOL0     H55190   4.752   8.681   8.870  1.6298 -0.9711 -1.5812
  400MOL0     H55191   4.727   8.535   8.761  1.1986 -0.1013 -0.1786
  400MOL0     H55192   4.817   8.530   9.048 -0.9654 -0.0491  0.4098
  400MOL0     H55193   4.735   8.396   8.961 -2.1283  1.2937  0.2951
  400MOL0     H55194   4.937   8.419   8.789  3.8187  0.7441 -1.1843
  400MOL0     H55195   5.006   8.416   8.947  0.0449 -2.5530 -0.8647
  400MOL0     H55196   5.111   8.786   8.779  2.2992 -1.7814 -1.8908
  400MOL0     H55197   4.471   8.858   9.094 -0.5361 -1.3946 -5.0893
  400MOL0     H55198   4.215   9.022   9.205 -0.8046 -1.3546 -2.2823
  400MOL0     H55199   4.226   8.921   9.348 -0.9728 -1.1930 -1.3668
  400MOL0     H55200   4.369   9.000   9.267  1.3493 -0.1624 -2.2143
  401MOL0     O55201  11.300  10.671   2.456 -0.6661  0.1634 -0.2680
  401MOL0     C55202  11.199  10.741   2.487 -0.0318 -0.1775 -0.5163
  401MOL0     O55203  11.162  10.778   2.613  0.2242  0.5066 -0.4683
  401MOL0     C55204  11.277  10.809   2.688 -0.7337  1.1211 -0.3436
  401MOL0     C55205  11.352  10.919   2.655  0.1617 -0.2731  1.0565
  401MOL0     C55206  11.461  10.955   2.727  0.1206  0.1878 -0.0023
  401MOL0     C55207  11.492  10.894   2.849  0.4233 -0.2536  0.0223
  401MOL0     O55208  11.589  10.942   2.929  0.2826  0.5572 -0.7048
  401MOL0     C55209  11.608  11.080   2.912  0.0177 -0.2360  0.8073
  401MOL0     C55210  11.702  11.132   3.018  0.9414 -0.5561 -0.1249
  401MOL0     C55211  11.615  11.134   3.146 -0.2568 -0.4745 -0.9112
  401MOL0     C55212  11.700  11.137   3.282  0.4184 -0.1341 -1.0334
  401MOL0     C55213  11.615  11.164   3.413 -0.7626  0.2336  0.0760
  401MOL0     C55214  11.508  11.066   3.443 -0.0796  0.3571 -0.2385
  401MOL0     C55215  11.550  10.922   3.470  0.7779 -1.1418  0.6450
  401MOL0     C55216  11.436  10.827   3.505 -0.3100 -0.2218 -0.5659
  401MOL0     N55217  11.488  10.689   3.502  0.1029 -1.2506 -0.1860
  401MOL0     C55218  11.600  10.648   3.569  0.8199  0.2787 -0.7257
  401MOL0     C55219  11.612  10.521   3.529 -0.2106 -0.6958 -0.2958
  401MOL0     C55220  11.718  10.425   3.573 -0.3532 -0.5112  0.5064
  401MOL0     C55221  11.832  10.408   3.460 -0.2304  0.1535 -0.9670
  401MOL0     C55222  11.951  10.318   3.487 -0.6436  0.1783 -0.5197
  401MOL0     C55223  12.059  10.344   3.374  0.0932 -0.2601 -0.2850
  401MOL0     O55224  12.098  10.478   3.355 -0.2082  0.2236 -0.2142
  401MOL0     C55225  12.218  10.505   3.415 -0.8878 -1.0209 -0.2215
  401MOL0     C55226  12.306  10.577   3.328 -0.1117  0.2308 -0.7469
  401MOL0     C55227  12.435  10.624   3.362  0.0699  0.0955  0.9886
  401MOL0     C55228  12.516  10.693   3.250 -0.2016  0.2384 -0.0741
  401MOL0     C55229  12.482  10.597   3.497  0.2577 -0.0548 -0.0485
  401MOL0     C55230  12.609  10.647   3.557 -0.8886 -0.0224  0.0707
  401MOL0     O55231  12.705  10.679   3.465 -0.5024 -0.8426  0.4037
  401MOL0     C55232  12.837  10.713   3.493  0.3334 -0.1971  0.0374
  401MOL0     C55233  12.940  10.634   3.451 -0.9809  0.1763 -0.4439
  401MOL0     C55234  13.067  10.657   3.478 -0.0935 -0.1488  0.7522
  401MOL0     C55235  13.100  10.764   3.552 -0.7098  0.2157 -0.2604
  401MOL0     O55236  13.225  10.810   3.566  0.5230  0.2554 -0.2998
  401MOL0     C55237  13.269  10.811   3.704  0.2387 -0.4409 -0.8515
  401MOL0     C55238  13.418  10.785   3.722 -0.4105  0.6306  0.4658
  401MOL0     C55239  13.499  10.909   3.674  0.3673  1.3920 -0.5355
  401MOL0     C55240  13.643  10.877   3.679 -0.4135 -1.0356  1.0562
  401MOL0     C55241  13.720  10.994   3.624 -0.4467  0.0802  0.7971
  401MOL0     C55242  13.874  10.996   3.645 -0.3584  0.2851 -0.0248
  401MOL0     C55243  13.939  11.120   3.581 -0.1916 -0.5800  0.6741
  401MOL0     C55244  14.087  11.081   3.537 -0.0717 -0.9079 -0.3470
  401MOL0    Cl55245  14.189  11.039   3.678  0.5947 -0.2525 -0.3677
  401MOL0     C55246  13.002  10.854   3.594  0.2171  0.3839 -0.3254
  401MOL0     C55247  12.869  10.829   3.569 -1.0411 -0.2516  1.0393
  401MOL0     O55248  12.626  10.651   3.680  0.0541  0.2048  0.6447
  401MOL0     C55249  12.387  10.546   3.592 -0.1580  0.3402 -0.0973
  401MOL0     C55250  12.258  10.491   3.549 -0.4955  0.4389  0.2161
  401MOL0     N55251  11.511  10.485   3.437 -0.0489 -0.2494 -0.3208
  401MOL0     N55252  11.442  10.597   3.421  0.8754  0.3722 -0.0449
  401MOL0     C55253  11.410  10.783   2.885  0.3793  0.4554  0.2317
  401MOL0     C55254  11.304  10.737   2.807 -1.3470  0.4176  0.9423
  401MOL0     C55255  11.097  10.757   2.376  0.1672 -0.6629 -0.9357
  401MOL0     C55256  11.096  10.656   2.270 -1.1829 -0.2328 -0.2955
  401MOL0     C55257  11.015  10.677   2.158  1.0330 -0.1163 -0.8514
  401MOL0     C55258  10.918  10.776   2.152 -0.7757 -0.3897  0.8780
  401MOL0     O55259  10.856  10.789   2.026 -0.2020 -0.1939 -0.3948
  401MOL0     C55260  10.765  10.891   2.006 -0.1115 -0.2258 -0.4948
  401MOL0     C55261  10.631  10.852   2.065 -0.5769 -0.7523  0.7370
  401MOL0     C55262  10.518  10.952   2.010 -0.2249 -0.7778 -0.2290
  401MOL0     C55263  10.407  10.963   2.111  0.3803 -0.1416 -0.4854
  401MOL0     C55264  10.277  10.962   2.038  0.1671  0.1284  1.2239
  401MOL0     C55265  10.163  10.963   1.996 -0.3503 -0.7584 -0.6534
  401MOL0     C55266  10.912  10.865   2.267  0.0687 -0.3031  1.3545
  401MOL0     C55267  11.009  10.866   2.367  0.0022  0.5584 -0.1414
  401MOL0     C55268  11.000  10.968   2.471 -0.1791  0.0088 -0.1817
  401MOL0     H55269  11.327  10.979   2.568  0.1274 -0.2100  1.1099
  401MOL0     H55270  11.531  11.031   2.692  1.6562 -1.9589 -1.9463
  401MOL0     H55271  11.518  11.142   2.910 -2.1223 -3.1404  1.4162
  401MOL0     H55272  11.666  11.107   2.823  0.8673 -1.4836  0.9656
  401MOL0     H55273  11.793  11.070   3.017  0.6593 -0.9719 -0.5973
  401MOL0     H55274  11.721  11.239   3.005  3.3450 -0.9960 -0.7130
  401MOL0     H55275  11.550  11.222   3.142 -0.4321 -0.6336 -1.8422
  401MOL0     H55276  11.544  11.051   3.151 -2.3743  1.2259 -1.2189
  401MOL0     H55277  11.760  11.046   3.293 -1.4719 -1.5494 -1.7959
  401MOL0     H55278  11.775  11.216   3.276  0.8325 -0.5941 -2.1025
  401MOL0     H55279  11.582  11.267   3.401  1.9918  0.9187 -3.2482
  401MOL0     H55280  11.682  11.164   3.499  0.4358 -1.9840 -0.7477
  401MOL0     H55281  11.455  11.106   3.530 -1.4379  1.9282 -1.7132
  401MOL0     H55282  11.442  11.070   3.356 -0.3975  0.6499  0.0108
  401MOL0     H55283  11.623  10.925   3.551  0.6925  1.0200  0.7184
  401MOL0     H55284  11.587  10.894   3.371 -1.1041 -4.2780  0.7235
  401MOL0     H55285  11.390  10.849   3.601 -1.1739 -0.7242 -0.8569
  401MOL0     H55286  11.359  10.831   3.428  0.0547 -0.9161 -0.9814
  401MOL0     H55287  11.655  10.692   3.651  3.9732 -1.5940 -1.6739
  401MOL0     H55288  11.662  10.331   3.581 -1.7698 -0.0290 -2.5096
  401MOL0     H55289  11.761  10.457   3.669 -3.3079  1.4494  1.3378
  401MOL0     H55290  11.790  10.372   3.366 -2.0859 -3.4222  1.0253
  401MOL0     H55291  11.870  10.506   3.427  2.2194 -1.1700 -2.4207
  401MOL0     H55292  11.994  10.363   3.577  3.2494 -0.3419 -1.9001
  401MOL0     H55293  11.934  10.211   3.500  1.1925  0.0628  1.4821
  401MOL0     H55294  12.147  10.283   3.401  0.2968 -0.1613 -0.7241
  401MOL0     H55295  12.012  10.320   3.278 -2.4377  0.4668  0.6989
  401MOL0     H55296  12.263  10.584   3.228 -0.3936 -0.5050 -0.6805
  401MOL0     H55297  12.447  10.723   3.170 -0.7304  1.7512  0.8822
  401MOL0     H55298  12.593  10.633   3.202 -0.3444  1.4921 -1.9825
  401MOL0     H55299  12.563  10.786   3.284 -1.8491  0.1663  2.7076
  401MOL0     H55300  12.920  10.556   3.379  2.0447  0.5154 -1.7786
  401MOL0     H55301  13.139  10.597   3.424 -2.0809 -2.4765  0.5391
  401MOL0     H55302  13.247  10.904   3.758 -1.4215 -3.3646  4.2355
  401MOL0     H55303  13.220  10.734   3.763  0.1180  1.2561  1.4082
  401MOL0     H55304  13.449  10.767   3.825  2.9992  1.3448 -0.3162
  401MOL0     H55305  13.449  10.697   3.666 -2.5982 -0.1193  0.3534
  401MOL0     H55306  13.483  10.997   3.737 -0.8201  0.4099  0.5899
  401MOL0     H55307  13.479  10.933   3.569  0.1034  3.0312 -0.1471
  401MOL0     H55308  13.667  10.795   3.611  0.7900  1.0104 -1.1497
  401MOL0     H55309  13.678  10.853   3.780  2.3891 -1.2017  0.1389
  401MOL0     H55310  13.693  10.993   3.518  0.6430  0.7067  0.4994
  401MOL0     H55311  13.683  11.090   3.661 -2.7735  0.2256 -1.6018
  401MOL0     H55312  13.916  10.901   3.610  0.8486 -0.5251  3.1925
  401MOL0     H55313  13.886  10.994   3.754 -2.5484  1.6426  0.2945
  401MOL0     H55314  13.935  11.202   3.654 -2.1937  0.1785 -0.2281
  401MOL0     H55315  13.896  11.153   3.487 -0.6300 -2.4087  0.1988
  401MOL0     H55316  14.133  11.171   3.493 -0.2669 -0.9697 -0.6865
  401MOL0     H55317  14.089  11.005   3.459  0.3721 -0.6808 -0.5617
  401MOL0     H55318  13.030  10.950   3.636  0.5248  0.0592  0.2300
  401MOL0     H55319  12.778  10.879   3.599 -2.6752 -2.5629  0.2362
  401MOL0     H55320  12.422  10.537   3.694  3.6376  2.8625 -0.9668
  401MOL0     H55321  12.189  10.453   3.623  1.0790 -1.0013  1.0182
  401MOL0     H55322  11.430  10.732   2.978 -0.4879 -0.3190  0.0187
  401MOL0     H55323  11.237  10.655   2.831  1.8800 -3.1307 -1.1557
  401MOL0     H55324  11.171  10.578   2.278  0.1845  0.7348 -2.5736
  401MOL0     H55325  11.039  10.607   2.078  1.3658 -3.6040  2.0296
  401MOL0     H55326  10.800  10.989   2.040  2.6278 -0.9978 -0.8483
  401MOL0     H55327  10.741  10.910   1.901 -0.6014  0.8876 -0.2027
  401MOL0     H55328  10.628  10.850   2.175 -3.9670 -3.2036  0.7771
  401MOL0     H55329  10.606  10.753   2.025  1.6008 -0.8792 -0.4687
  401MOL0     H55330  10.573  11.046   2.003  1.7343 -1.6820  1.5580
  401MOL0     H55331  10.489  10.923   1.909  2.6772  1.0333 -1.7347
  401MOL0     H55332  10.416  11.063   2.154  1.5390  0.0348 -1.0981
  401MOL0     H55333  10.411  10.886   2.189 -0.0538  0.0882 -0.2346
  401MOL0     H55334  10.063  10.975   1.962 -0.5395 -1.5348 -0.4032
  401MOL0     H55335  10.842  10.948   2.258 -0.8185 -1.2259 -1.4420
  401MOL0     H55336  10.937  11.054   2.448 -0.0596 -0.1042 -0.9917
  401MOL0     H55337  10.980  10.920   2.567 -0.2911 -1.8931 -1.1059
  401MOL0     H55338  11.104  11.001   2.480 -0.2850  0.9221 -1.8326
  402MOL0     O55339   8.134   5.014   1.512 -0.0115 -0.1301  0.5451
  402MOL0     C55340   8.257   5.041   1.510  1.0297  0.1528  0.6297
  402MOL0     O55341   8.305   5.165   1.523 -0.0274 -0.0555  0.4390
  402MOL0     C55342   8.221   5.271   1.512  0.5170 -0.9490  0.1707
  402MOL0     C55343   8.205   5.367   1.609 -1.2442 -0.4225 -0.2815
  402MOL0     C55344   8.132   5.483   1.585  0.1350 -0.5317  0.5198
  402MOL0     C55345   8.050   5.494   1.465 -0.6895 -0.1647  0.6636
  402MOL0     O55346   7.979   5.608   1.452 -0.0462  1.0197 -0.9189
  402MOL0     C55347   7.911   5.669   1.574  0.3085 -0.3218  0.1169
  402MOL0     C55348   7.826   5.789   1.540  0.3979 -0.8634  0.1278
  402MOL0     C55349   7.735   5.773   1.416  0.0335 -0.2572  0.4742
  402MOL0     C55350   7.642   5.896   1.400 -0.1387 -0.2508 -0.3348
  402MOL0     C55351   7.525   5.867   1.292  0.6955 -0.3239 -0.8421
  402MOL0     C55352   7.576   5.880   1.151  0.5199  0.3968  0.3379
  402MOL0     C55353   7.443   5.876   1.064  0.0812 -0.3696  0.3650
  402MOL0     C55354   7.475   5.865   0.911 -0.6034  0.0128 -0.7702
  402MOL0     N55355   7.529   5.738   0.861  0.5224  0.8609  0.3028
  402MOL0     C55356   7.496   5.612   0.915  0.2830  0.5321 -0.3618
  402MOL0     C55357   7.532   5.523   0.818  0.3621  0.8129  0.2483
  402MOL0     C55358   7.492   5.378   0.835  0.6972  1.6952  0.6554
  402MOL0     C55359   7.605   5.281   0.775  0.6017 -0.3607  0.3410
  402MOL0     C55360   7.715   5.273   0.880  0.4739 -0.6075 -0.2462
  402MOL0     C55361   7.852   5.219   0.838  0.1534 -0.4718  1.2731
  402MOL0     O55362   7.929   5.186   0.954 -0.0799  0.1456 -0.5035
  402MOL0     C55363   8.049   5.119   0.933 -0.0934 -0.5311  0.5932
  402MOL0     C55364   8.106   5.094   0.813  0.5355  0.5958 -0.1539
  402MOL0     C55365   8.235   5.024   0.810 -0.2103  0.3848  0.1268
  402MOL0     C55366   8.300   5.003   0.679  0.6665  0.2180  0.0659
  402MOL0     C55367   8.297   4.978   0.935  0.4939  0.8369 -0.5341
  402MOL0     C55368   8.438   4.918   0.951  0.5619  0.1219  0.7681
  402MOL0     O55369   8.489   4.889   1.081 -0.3005  0.5654 -0.0972
  402MOL0     C55370   8.615   4.829   1.092  0.5510 -0.5656  0.3279
  402MOL0     C55371   8.735   4.872   1.019 -0.5075 -0.0022 -0.2555
  402MOL0     C55372   8.864   4.831   1.050  0.4381  0.6985 -0.0811
  402MOL0     C55373   8.896   4.752   1.168 -0.4102 -0.7135 -0.5440
  402MOL0     O55374   9.025   4.721   1.207  0.2136 -0.4409  0.0392
  402MOL0     C55375   9.132   4.771   1.127  0.4847  1.2363  0.4146
  402MOL0     C55376   9.268   4.714   1.156 -0.1091 -0.0700 -0.3590
  402MOL0     C55377   9.289   4.712   1.309  0.0318 -0.5164  0.1480
  402MOL0     C55378   9.411   4.618   1.348 -0.6242 -0.2792  0.1691
  402MOL0     C55379   9.375   4.470   1.339 -0.6323 -0.0534 -0.2462
  402MOL0     C55380   9.286   4.435   1.463  0.3044  0.5511 -0.1572
  402MOL0     C55381   9.263   4.284   1.482  0.0935 -0.2725 -0.1690
  402MOL0     C55382   9.179   4.256   1.611  0.1069  1.2603 -0.5386
  402MOL0    Cl55383   9.168   4.085   1.642 -0.6258 -0.0351  0.6004
  402MOL0     C55384   8.783   4.703   1.231  0.2600 -0.0977  0.0527
  402MOL0     C55385   8.646   4.748   1.202 -0.3534  0.3529 -0.3604
  402MOL0     O55386   8.501   4.901   0.845  0.2754  0.3343 -0.9297
  402MOL0     C55387   8.229   5.016   1.056  0.2248  0.1146  0.5110
  402MOL0     C55388   8.102   5.075   1.053 -0.8375  0.6496  0.2626
  402MOL0     N55389   7.591   5.593   0.712 -0.7890  0.4642 -0.1155
  402MOL0     N55390   7.600   5.717   0.743  0.1868  0.0180 -0.0728
  402MOL0     C55391   8.065   5.401   1.363  1.2245  1.1363 -0.7157
  402MOL0     C55392   8.152   5.291   1.385  0.4724  0.0081 -0.2666
  402MOL0     C55393   8.351   4.926   1.501 -0.2332 -1.3321  0.0716
  402MOL0     C55394   8.486   4.951   1.548 -0.6993  1.0343  0.4617
  402MOL0     C55395   8.572   4.838   1.562  0.1306 -0.6045 -0.3858
  402MOL0     C55396   8.529   4.710   1.528 -0.0892 -0.2764  0.1160
  402MOL0     O55397   8.618   4.607   1.541 -0.2383  0.5684  0.6069
  402MOL0     C55398   8.687   4.597   1.671 -0.6029 -0.9982 -0.2768
  402MOL0     C55399   8.835   4.599   1.645  0.2181  0.2505 -0.8225
  402MOL0     C55400   8.899   4.737   1.622 -0.5707  0.1573 -0.4017
  402MOL0     C55401   9.056   4.728   1.634  0.3602 -0.4254  0.4657
  402MOL0     C55402   9.097   4.658   1.753  0.3412 -0.0785  0.3947
  402MOL0     C55403   9.139   4.619   1.861  0.4702  0.5082  0.1161
  402MOL0     C55404   8.399   4.692   1.477 -0.9000 -0.4693 -0.3551
  402MOL0     C55405   8.315   4.796   1.457  0.2202 -0.2668  0.1482
  402MOL0     C55406   8.177   4.761   1.401 -0.4581  0.2851  0.2210
  402MOL0     H55407   8.251   5.341   1.704  1.2970 -1.0421 -1.5956
  402MOL0     H55408   8.118   5.553   1.667  4.3334  2.1504 -0.7305
  402MOL0     H55409   7.991   5.711   1.636  2.8336  0.8751 -3.6169
  402MOL0     H55410   7.851   5.599   1.633 -0.2214  1.1379  1.3803
  402MOL0     H55411   7.760   5.812   1.623  1.7275  1.5752  0.6378
  402MOL0     H55412   7.886   5.879   1.523 -1.1798  0.2253  0.1369
  402MOL0     H55413   7.803   5.758   1.332  0.6321 -2.0340  1.2262
  402MOL0     H55414   7.667   5.688   1.428 -3.1434  1.9863 -0.1118
  402MOL0     H55415   7.606   5.915   1.502  1.7289 -1.8800  0.6916
  402MOL0     H55416   7.695   5.989   1.378 -1.4605  1.1619  2.0141
  402MOL0     H55417   7.445   5.937   1.317  1.1449  1.0679 -2.9776
  402MOL0     H55418   7.491   5.765   1.310 -0.3531 -0.2245 -2.1283
  402MOL0     H55419   7.642   5.967   1.137  2.5245 -0.3201  4.0283
  402MOL0     H55420   7.632   5.787   1.134 -2.0174 -0.9460 -1.2126
  402MOL0     H55421   7.399   5.975   1.081  0.4521 -0.6238  3.5596
  402MOL0     H55422   7.365   5.800   1.079  0.1883 -0.8773 -1.4530
  402MOL0     H55423   7.394   5.888   0.840  1.0783 -0.6247 -3.0347
  402MOL0     H55424   7.540   5.950   0.886 -0.5399  0.1988  0.0153
  402MOL0     H55425   7.437   5.595   1.004  1.4917  2.4390  0.8816
  402MOL0     H55426   7.396   5.357   0.786  1.6814 -1.7082 -0.0900
  402MOL0     H55427   7.465   5.347   0.936 -1.7821  1.8664  0.1225
  402MOL0     H55428   7.569   5.184   0.741  0.7381  0.4385 -2.3259
  402MOL0     H55429   7.652   5.330   0.689 -4.1710 -0.7553 -2.9390
  402MOL0     H55430   7.745   5.375   0.907  3.1003 -1.0661 -1.1704
  402MOL0     H55431   7.681   5.212   0.965 -1.9338  0.1796 -0.5758
  402MOL0     H55432   7.837   5.134   0.771 -1.1382 -0.3073  1.3252
  402MOL0     H55433   7.892   5.304   0.781 -2.6544  0.3397  0.3735
  402MOL0     H55434   8.054   5.125   0.723  1.5746  2.3319 -0.2027
  402MOL0     H55435   8.344   4.904   0.664  1.7162  0.7526 -0.5547
  402MOL0     H55436   8.390   5.063   0.661  0.8945 -0.8628 -3.0932
  402MOL0     H55437   8.236   5.033   0.595 -0.2403 -0.9672  0.3054
  402MOL0     H55438   8.728   4.934   0.930 -0.5345  0.4241  0.0358
  402MOL0     H55439   8.937   4.859   0.975  1.6121 -0.9724  0.3925
  402MOL0     H55440   9.111   4.744   1.023  2.7011  0.6114  0.0682
  402MOL0     H55441   9.131   4.879   1.145 -2.2850  1.2821  0.3488
  402MOL0     H55442   9.268   4.619   1.102  1.4395 -0.4322  0.2296
  402MOL0     H55443   9.345   4.766   1.098 -0.0927 -0.5186 -0.7464
  402MOL0     H55444   9.196   4.683   1.359 -0.8153  1.0825 -0.4047
  402MOL0     H55445   9.306   4.814   1.347  0.9256 -1.1527  1.5211
  402MOL0     H55446   9.449   4.646   1.446 -0.8924  2.7976 -0.5200
  402MOL0     H55447   9.483   4.649   1.271 -0.8009  0.1968  0.1921
  402MOL0     H55448   9.321   4.437   1.250  1.3297 -1.0046 -1.1507
  402MOL0     H55449   9.463   4.406   1.352  0.2373  0.9533 -1.0081
  402MOL0     H55450   9.185   4.476   1.455 -1.3515 -2.3305  3.1946
  402MOL0     H55451   9.336   4.487   1.545  0.3330 -0.7117  0.6550
  402MOL0     H55452   9.355   4.240   1.520 -0.2806  0.3462  1.5398
  402MOL0     H55453   9.219   4.234   1.396  1.9500 -1.0486 -0.7226
  402MOL0     H55454   9.080   4.301   1.601 -1.9892 -3.1622 -3.0009
  402MOL0     H55455   9.232   4.310   1.690 -1.0569 -0.5752  1.6025
  402MOL0     H55456   8.798   4.625   1.305  3.0663  2.0622  1.9652
  402MOL0     H55457   8.565   4.713   1.265 -0.7800  1.6338 -0.1745
  402MOL0     H55458   8.259   4.993   1.158 -1.0568 -1.1751  0.6378
  402MOL0     H55459   8.048   5.092   1.145  1.1529 -2.2042  2.1166
  402MOL0     H55460   8.002   5.410   1.274 -1.1216 -0.5132  0.6693
  402MOL0     H55461   8.165   5.212   1.312  1.3160  1.0563 -1.2891
  402MOL0     H55462   8.515   5.051   1.579 -3.8498  2.5363 -0.9498
  402MOL0     H55463   8.671   4.851   1.605 -1.6761 -0.1063  4.2261
  402MOL0     H55464   8.664   4.679   1.739  0.7967  1.2582 -2.3862
  402MOL0     H55465   8.651   4.512   1.730  0.1872 -0.7281  0.6215
  402MOL0     H55466   8.850   4.542   1.553 -0.2483  1.4257 -1.6386
  402MOL0     H55467   8.874   4.557   1.738 -1.8925  0.8878  0.4244
  402MOL0     H55468   8.875   4.778   1.524 -1.4126 -1.8359 -1.0833
  402MOL0     H55469   8.866   4.798   1.707 -0.6749 -1.1729  0.5531
  402MOL0     H55470   9.092   4.831   1.645 -1.1683  0.3265 -1.1610
  402MOL0     H55471   9.098   4.690   1.541  1.5618 -1.3118  1.3428
  402MOL0     H55472   9.166   4.570   1.952 -3.0845  1.1628  1.7035
  402MOL0     H55473   8.376   4.595   1.435 -0.9635 -0.6317  0.0512
  402MOL0     H55474   8.150   4.841   1.331  1.5398  0.4031 -0.4797
  402MOL0     H55475   8.174   4.671   1.338 -3.6190  2.2255 -2.8020
  402MOL0     H55476   8.116   4.756   1.492  1.7528  3.8865  2.1366
  403MOL0     O55477   8.539   3.597  11.434  0.5759 -0.4131  0.4048
  403MOL0     C55478   8.427   3.548  11.403  0.0646 -0.6313 -0.8837
  403MOL0     O55479   8.402   3.428  11.345  0.1829 -0.2576  0.6267
  403MOL0     C55480   8.495   3.345  11.284 -0.3263 -1.4529  1.6412
  403MOL0     C55481   8.614   3.399  11.225  0.4698 -0.1184 -0.7981
  403MOL0     C55482   8.699   3.314  11.153 -1.1279  0.8290 -0.1269
  403MOL0     C55483   8.673   3.180  11.134  0.6177  0.7512 -0.0657
  403MOL0     O55484   8.755   3.083  11.076  0.0489  0.0397  0.9520
  403MOL0     C55485   8.846   3.153  10.986 -0.5913  1.4019  0.1663
  403MOL0     C55486   8.918   3.042  10.897  0.5599 -0.2281  0.4947
  403MOL0     C55487   8.987   2.934  10.985 -1.1912 -0.7464  0.0889
  403MOL0     C55488   9.100   2.985  11.089  0.4622  0.2699  0.7197
  403MOL0     C55489   9.146   2.871  11.187 -0.5970 -0.2065 -0.4702
  403MOL0     C55490   9.074   2.876  11.320 -0.7961 -0.4864  0.2844
  403MOL0     C55491   8.926   2.835  11.326  0.5014 -0.5067  0.0103
  403MOL0     C55492   8.857   2.856  11.461 -0.4393  0.1667 -0.1189
  403MOL0     N55493   8.720   2.787  11.469 -1.0609  1.0309 -0.2704
  403MOL0     C55494   8.627   2.800  11.366  0.7618  0.1350 -0.0199
  403MOL0     C55495   8.525   2.728  11.413 -0.4965  0.3230 -0.5750
  403MOL0     C55496   8.401   2.689  11.346  0.5478  0.5197  0.0836
  403MOL0     C55497   8.278   2.758  11.404  0.0669 -0.3781  0.4371
  403MOL0     C55498   8.163   2.739  11.314 -0.2294 -0.1217 -0.5186
  403MOL0     C55499   8.175   2.801  11.179  0.6571  0.1975  0.1025
  403MOL0     O55500   8.232   2.929  11.179 -0.2342  0.1584  0.1234
  403MOL0     C55501   8.154   3.041  11.161  0.7172  0.0345 -0.7403
  403MOL0     C55502   8.203   3.137  11.075 -0.0501 -0.3164 -0.3089
  403MOL0     C55503   8.128   3.251  11.037 -0.9762 -0.4900  0.1312
  403MOL0     C55504   8.218   3.336  10.945  0.1066  0.8857  0.2735
  403MOL0     C55505   8.010   3.283  11.101  0.8039 -0.2471 -0.0653
  403MOL0     C55506   7.936   3.406  11.074 -0.9408 -1.3118 -0.1411
  403MOL0     O55507   7.968   3.481  10.956  0.4784  0.5702  0.3713
  403MOL0     C55508   7.912   3.604  10.936 -0.6643 -0.0323 -1.6725
  403MOL0     C55509   7.793   3.619  10.862 -0.1667  0.1533 -0.2469
  403MOL0     C55510   7.737   3.753  10.863 -1.5114  0.0208 -0.4420
  403MOL0     C55511   7.799   3.862  10.920  0.2437  0.3355 -0.1723
  403MOL0     O55512   7.746   3.988  10.932 -0.4367  1.1476  0.2499
  403MOL0     C55513   7.753   4.063  10.809 -0.0321 -0.2097 -0.5508
  403MOL0     C55514   7.717   4.205  10.848 -0.1118 -0.2739 -0.3780
  403MOL0     C55515   7.589   4.232  10.925 -0.5373  0.2835  0.3558
  403MOL0     C55516   7.568   4.378  10.973 -0.1738 -0.0959  0.3498
  403MOL0     C55517   7.591   4.470  10.849  0.1877 -0.5684 -0.1614
  403MOL0     C55518   7.534   4.620  10.884 -0.7477  0.2385 -0.7247
  403MOL0     C55519   7.648   4.708  10.920  0.4518  0.9111  0.2789
  403MOL0     C55520   7.607   4.852  10.927  0.3877  0.2930  0.3000
  403MOL0    Cl55521   7.645   4.945  10.781  0.0865  0.2315  0.1169
  403MOL0     C55522   7.922   3.842  10.988  0.1036  0.5411  0.3087
  403MOL0     C55523   7.972   3.713  10.996  0.4853 -0.1501  1.1340
  403MOL0     O55524   7.863   3.454  11.161 -0.2692  0.5411  0.2210
  403MOL0     C55525   7.971   3.187  11.200 -0.1055 -0.0028 -0.0759
  403MOL0     C55526   8.042   3.069  11.229 -0.9056 -0.8490 -0.2497
  403MOL0     N55527   8.565   2.671  11.535 -0.5477  0.5636 -0.3117
  403MOL0     N55528   8.687   2.701  11.562  0.4747 -0.3663 -0.1554
  403MOL0     C55529   8.550   3.129  11.175 -0.0662  0.3092  0.0631
  403MOL0     C55530   8.464   3.210  11.262 -0.3175 -0.1146  0.2415
  403MOL0     C55531   8.311   3.647  11.415  0.4323  0.1885  0.7811
  403MOL0     C55532   8.210   3.644  11.316  0.0946  0.2588  0.1907
  403MOL0     C55533   8.101   3.723  11.324  0.7476  0.5283 -0.3264
  403MOL0     C55534   8.084   3.798  11.441  0.4358  0.3500 -0.0254
  403MOL0     O55535   7.974   3.881  11.466 -0.0659  0.0699  0.2126
  403MOL0     C55536   7.855   3.871  11.384  0.3867  0.2325  0.6280
  403MOL0     C55537   7.731   3.933  11.450 -0.3199 -0.3189 -0.1676
  403MOL0     C55538   7.757   4.078  11.480 -0.6344  0.0301  0.0572
  403MOL0     C55539   7.648   4.132  11.567  0.5681  0.2532  0.7037
  403MOL0     C55540   7.669   4.277  11.580 -0.4178 -0.4331  1.1934
  403MOL0     C55541   7.699   4.397  11.592 -1.6498 -0.4896 -0.1977
  403MOL0     C55542   8.183   3.794  11.542  0.0707 -0.1962  0.2385
  403MOL0     C55543   8.299   3.729  11.527 -0.2755  0.2090  0.1686
  403MOL0     C55544   8.399   3.726  11.639 -0.5970  0.5496 -0.0748
  403MOL0     H55545   8.655   3.498  11.239  0.2172  0.0470 -1.2026
  403MOL0     H55546   8.784   3.362  11.106  0.0501  0.5442  1.6377
  403MOL0     H55547   8.926   3.216  11.026  1.6547 -0.2281 -1.4439
  403MOL0     H55548   8.792   3.217  10.916 -0.1932  1.9270  0.3335
  403MOL0     H55549   8.845   3.002  10.827  0.7181  0.9840 -0.4034
  403MOL0     H55550   8.992   3.087  10.829  1.9669 -2.4698  0.4611
  403MOL0     H55551   8.928   2.857  11.035 -2.7568  0.3805  0.0345
  403MOL0     H55552   9.040   2.878  10.908  1.5273  1.6401  0.0552
  403MOL0     H55553   9.183   3.021  11.026  0.2132 -0.9225 -0.3392
  403MOL0     H55554   9.062   3.078  11.131 -2.5805  0.3472 -1.8211
  403MOL0     H55555   9.253   2.893  11.201 -0.9547 -0.4980  4.2160
  403MOL0     H55556   9.136   2.771  11.145 -1.0717  0.7645 -2.8243
  403MOL0     H55557   9.136   2.820  11.390  1.7565  1.8759  0.0749
  403MOL0     H55558   9.084   2.981  11.349  1.5339 -0.5805  0.0644
  403MOL0     H55559   8.918   2.726  11.318  0.6783 -0.8067  2.7450
  403MOL0     H55560   8.873   2.893  11.250 -0.3530  0.6242  1.3975
  403MOL0     H55561   8.917   2.821  11.545 -1.2793  0.6605  0.7038
  403MOL0     H55562   8.850   2.964  11.477 -0.7902 -0.1447  2.0052
  403MOL0     H55563   8.636   2.861  11.277  2.3648  2.0516  1.3353
  403MOL0     H55564   8.380   2.582  11.350 -3.1415  1.0640 -0.4173
  403MOL0     H55565   8.406   2.727  11.243 -0.3437  0.8147  0.1396
  403MOL0     H55566   8.259   2.717  11.503  1.1136  0.2997  0.9411
  403MOL0     H55567   8.302   2.865  11.409 -0.5264  0.1258 -3.8413
  403MOL0     H55568   8.147   2.631  11.314 -1.3603  0.0097  1.4090
  403MOL0     H55569   8.075   2.776  11.366 -2.0563 -2.0525 -2.0633
  403MOL0     H55570   8.231   2.744  11.104 -0.3778  3.1518 -3.2019
  403MOL0     H55571   8.079   2.803  11.127  2.8071  1.4375 -4.3459
  403MOL0     H55572   8.294   3.103  11.026 -0.2480 -0.8384 -0.3178
  403MOL0     H55573   8.179   3.358  10.845  0.0639 -0.1955  0.0455
  403MOL0     H55574   8.314   3.286  10.931  0.7518  1.0710  3.3925
  403MOL0     H55575   8.241   3.433  10.990 -2.5568  1.4617  0.5676
  403MOL0     H55576   7.765   3.525  10.815  1.7242 -1.5876  1.9057
  403MOL0     H55577   7.646   3.782  10.812 -1.1202  3.0820  0.4210
  403MOL0     H55578   7.851   4.061  10.762  0.4372  4.5798 -0.2865
  403MOL0     H55579   7.685   4.020  10.735  0.8221 -1.2108 -0.7745
  403MOL0     H55580   7.803   4.251  10.898  0.0635 -1.0392  0.0336
  403MOL0     H55581   7.715   4.247  10.747  0.3173 -1.5049 -0.9160
  403MOL0     H55582   7.580   4.176  11.018  1.5428  0.8382  0.9484
  403MOL0     H55583   7.502   4.212  10.862 -1.4779 -4.1223  2.6486
  403MOL0     H55584   7.638   4.397  11.054  0.3482  0.4387 -0.2234
  403MOL0     H55585   7.467   4.384  11.016 -0.2837 -0.4181  0.1494
  403MOL0     H55586   7.694   4.468  10.814 -0.3092  1.2771 -1.9099
  403MOL0     H55587   7.527   4.424  10.773 -0.7986 -1.2511  1.0351
  403MOL0     H55588   7.451   4.617  10.955 -0.3569 -1.9067 -0.2794
  403MOL0     H55589   7.505   4.649  10.783 -0.5962  3.0469 -0.0429
  403MOL0     H55590   7.727   4.707  10.845  0.2645 -0.5148  0.0706
  403MOL0     H55591   7.693   4.672  11.013  4.3668  3.0053 -0.5932
  403MOL0     H55592   7.666   4.904  11.003  1.1405  2.8793 -1.8948
  403MOL0     H55593   7.501   4.871  10.944  0.6599  2.0698  0.2039
  403MOL0     H55594   7.958   3.921  11.054 -2.0208 -0.1353  2.4389
  403MOL0     H55595   8.062   3.693  11.054  1.3179 -3.7580 -1.1186
  403MOL0     H55596   7.873   3.203  11.244 -1.1267 -0.1094 -2.1841
  403MOL0     H55597   8.002   3.005  11.308 -4.5151 -0.8426 -1.9231
  403MOL0     H55598   8.521   3.029  11.147 -1.0220  1.1031 -2.0545
  403MOL0     H55599   8.371   3.175  11.307  0.6058 -0.3507  2.0872
  403MOL0     H55600   8.227   3.575  11.234 -2.0449 -0.7619  0.5282
  403MOL0     H55601   8.021   3.722  11.251  1.6480 -1.6698 -1.3677
  403MOL0     H55602   7.864   3.922  11.287 -3.4789 -2.1054 -1.2209
  403MOL0     H55603   7.834   3.766  11.360  3.8179 -0.1598 -1.2885
  403MOL0     H55604   7.716   3.877  11.542  1.3641 -0.2865  0.1690
  403MOL0     H55605   7.644   3.919  11.386 -1.1847 -2.7803  1.4272
  403MOL0     H55606   7.848   4.101  11.536 -0.9165 -0.1577  0.5904
  403MOL0     H55607   7.760   4.130  11.383  0.3975 -1.6682 -0.8704
  403MOL0     H55608   7.633   4.083  11.664  0.3334 -1.9935 -0.4076
  403MOL0     H55609   7.554   4.115  11.514  0.4729 -0.7623  1.1551
  403MOL0     H55610   7.726   4.500  11.609  1.7636 -1.4826  1.3706
  403MOL0     H55611   8.164   3.852  11.632  2.3554 -3.9782  3.5076
  403MOL0     H55612   8.390   3.809  11.708  1.3093  0.7916 -0.0549
  403MOL0     H55613   8.384   3.631  11.693 -1.6024 -0.1007 -1.4336
  403MOL0     H55614   8.502   3.725  11.602 -0.8070 -3.4357 -1.0341
  404MOL0     O55615   5.014   2.723   3.386 -0.7619  0.3877 -0.3081
  404MOL0     C55616   5.027   2.600   3.384 -0.6574 -0.2923 -0.3253
  404MOL0     O55617   5.146   2.537   3.346 -0.0431  0.2752 -0.5268
  404MOL0     C55618   5.250   2.611   3.289  0.0002  0.5462  0.0467
  404MOL0     C55619   5.381   2.607   3.336 -0.3364 -0.0251 -0.2375
  404MOL0     C55620   5.481   2.673   3.262 -0.2834 -0.2122  0.3183
  404MOL0     C55621   5.450   2.746   3.147 -0.1977 -0.0958 -0.2316
  404MOL0     O55622   5.556   2.795   3.077 -0.8442 -0.6194  0.2680
  404MOL0     C55623   5.543   2.928   3.020  0.2480  0.0241  0.2945
  404MOL0     C55624   5.689   2.969   3.000  0.6535 -0.2876  0.0503
  404MOL0     C55625   5.761   2.935   2.873 -0.5004  0.9022 -0.1390
  404MOL0     C55626   5.910   2.982   2.886  0.3250 -0.5623  1.1861
  404MOL0     C55627   5.973   2.954   2.756 -0.4377 -0.1212  1.4025
  404MOL0     C55628   6.118   2.993   2.776 -0.7035 -0.8985 -0.0574
  404MOL0     C55629   6.210   2.976   2.660 -0.7707  0.1806  0.2619
  404MOL0     C55630   6.349   3.011   2.701  0.5835  0.1276  0.1857
  404MOL0     N55631   6.445   3.005   2.591 -0.0999 -0.0893 -0.1470
  404MOL0     C55632   6.462   3.104   2.508 -0.3145 -0.6851 -0.2649
  404MOL0     C55633   6.537   3.051   2.405  0.3597 -0.0871 -1.3786
  404MOL0     C55634   6.574   3.124   2.277  0.3807  0.1717  0.2851
  404MOL0     C55635   6.489   3.082   2.162  0.6473 -0.8574 -0.6958
  404MOL0     C55636   6.562   3.000   2.056 -0.4903 -0.1463 -0.9455
  404MOL0     C55637   6.499   3.007   1.915  0.3076  0.5441 -1.2168
  404MOL0     O55638   6.357   2.960   1.910 -0.1105 -0.0950 -0.2780
  404MOL0     C55639   6.301   2.969   1.781 -0.5279 -0.3972  0.1499
  404MOL0     C55640   6.179   3.040   1.776 -0.3639  0.5150  0.3948
  404MOL0     C55641   6.112   3.068   1.655  0.0189  0.5357 -0.9798
  404MOL0     C55642   5.987   3.147   1.677  0.4286  0.3130 -0.0577
  404MOL0     C55643   6.190   3.059   1.540 -0.0717 -0.4794  0.0825
  404MOL0     C55644   6.152   3.127   1.409  0.6395 -0.3456 -0.0438
  404MOL0     O55645   6.025   3.160   1.382 -0.3137 -0.3953 -0.1505
  404MOL0     C55646   6.000   3.192   1.256  1.0630  0.3997 -0.2497
  404MOL0     C55647   6.037   3.322   1.215  0.1196  0.3624 -0.1576
  404MOL0     C55648   5.965   3.361   1.098 -0.2946 -1.1880  0.4389
  404MOL0     C55649   5.885   3.286   1.022 -1.0972  0.8672 -0.2948
  404MOL0     O55650   5.830   3.325   0.908  0.7470 -0.2223 -0.5753
  404MOL0     C55651   5.755   3.449   0.911 -0.5844 -0.4333  0.2837
  404MOL0     C55652   5.626   3.446   0.824  0.0021 -0.1202 -0.4412
  404MOL0     C55653   5.578   3.594   0.818  0.8803  0.0455  0.1585
  404MOL0     C55654   5.463   3.604   0.717  1.0266 -0.6357 -0.8264
  404MOL0     C55655   5.372   3.718   0.772  0.3761 -0.5733  0.4254
  404MOL0     C55656   5.415   3.863   0.768  0.4905  0.1248 -0.0515
  404MOL0     C55657   5.290   3.941   0.837  0.5948  0.1080 -0.8772
  404MOL0     C55658   5.317   4.085   0.852 -0.0760  0.4174 -0.0843
  404MOL0    Cl55659   5.456   4.122   0.955  0.3605 -0.1698  0.4423
  404MOL0     C55660   5.867   3.155   1.063 -0.1206 -0.3732 -0.3695
  404MOL0     C55661   5.917   3.105   1.184  1.0548 -0.9220 -0.0833
  404MOL0     O55662   6.248   3.150   1.339 -0.6244  0.2097  0.0377
  404MOL0     C55663   6.310   2.988   1.536 -0.1350 -1.0964 -0.5056
  404MOL0     C55664   6.367   2.943   1.658  0.0801  0.0209 -0.0498
  404MOL0     N55665   6.569   2.921   2.441 -0.1462 -0.7783 -0.2318
  404MOL0     N55666   6.519   2.895   2.558  0.2070 -0.1572 -0.2938
  404MOL0     C55667   5.313   2.751   3.105  0.1527  0.2546 -0.0839
  404MOL0     C55668   5.216   2.680   3.174 -0.7351  0.0708 -0.1266
  404MOL0     C55669   4.921   2.529   3.446  0.7012 -0.7247 -0.3724
  404MOL0     C55670   4.789   2.597   3.456 -0.2797 -0.7614  0.0047
  404MOL0     C55671   4.689   2.546   3.536 -0.4362 -0.1004  0.6381
  404MOL0     C55672   4.704   2.429   3.610  0.0301 -0.0475  0.4401
  404MOL0     O55673   4.587   2.402   3.677 -0.4264 -0.1301  0.0610
  404MOL0     C55674   4.585   2.280   3.744  0.0026 -0.5132 -0.2323
  404MOL0     C55675   4.427   2.262   3.759 -0.9320 -0.3745  0.1089
  404MOL0     C55676   4.370   2.138   3.817  0.9789  0.2168 -0.5824
  404MOL0     C55677   4.432   2.008   3.786  0.2528  0.3708 -0.0067
  404MOL0     C55678   4.477   1.978   3.645  0.5430  0.6786 -0.2483
  404MOL0     C55679   4.518   1.939   3.531  0.6509  0.3651  0.2577
  404MOL0     C55680   4.821   2.359   3.594 -0.4409  0.4338 -0.9409
  404MOL0     C55681   4.930   2.413   3.523  0.6163  0.2378  0.0547
  404MOL0     C55682   5.055   2.335   3.537 -0.5577 -0.2876 -0.2404
  404MOL0     H55683   5.401   2.552   3.427  4.0732 -1.8287 -2.0259
  404MOL0     H55684   5.583   2.660   3.297 -0.5096 -2.7633  0.2350
  404MOL0     H55685   5.491   2.990   3.093  0.5147  2.0132 -1.1095
  404MOL0     H55686   5.491   2.941   2.924  1.7532  0.5209 -0.4853
  404MOL0     H55687   5.684   3.078   3.013  2.2376  0.0429 -1.6792
  404MOL0     H55688   5.749   2.939   3.086  0.9080 -1.4030 -0.5027
  404MOL0     H55689   5.759   2.827   2.856 -0.3951  1.1241 -1.7394
  404MOL0     H55690   5.698   2.967   2.789 -3.0970 -1.3388  0.8154
  404MOL0     H55691   5.917   3.089   2.910  0.1288  0.1316 -1.4731
  404MOL0     H55692   5.953   2.917   2.963  1.0111 -1.9327 -0.3060
  404MOL0     H55693   5.924   3.014   2.679  0.4647  0.3553  1.1807
  404MOL0     H55694   5.952   2.852   2.720 -2.0808  0.4611  0.6167
  404MOL0     H55695   6.128   3.094   2.815  0.5005 -0.9106 -0.2906
  404MOL0     H55696   6.159   2.924   2.850  1.3471 -1.9268 -2.0052
  404MOL0     H55697   6.178   3.041   2.578 -2.0860 -2.8342 -1.7928
  404MOL0     H55698   6.199   2.870   2.634  0.0060 -0.5436  2.6190
  404MOL0     H55699   6.343   3.116   2.730 -2.8370  0.2627 -0.5902
  404MOL0     H55700   6.379   2.949   2.786 -0.7821 -0.3331  0.3590
  404MOL0     H55701   6.410   3.200   2.513 -3.4602 -2.2788  0.0534
  404MOL0     H55702   6.680   3.104   2.254  1.2404  3.6111  0.7306
  404MOL0     H55703   6.551   3.227   2.303  0.5033 -0.3634  2.6853
  404MOL0     H55704   6.403   3.027   2.202 -0.1479  0.3041 -0.7376
  404MOL0     H55705   6.457   3.173   2.110  1.7661  0.8158  1.4160
  404MOL0     H55706   6.661   3.036   2.027 -0.4255 -0.0261 -0.5893
  404MOL0     H55707   6.552   2.896   2.087 -3.4032  0.3520  0.1542
  404MOL0     H55708   6.505   3.108   1.873  0.0316  1.6131  1.1499
  404MOL0     H55709   6.559   2.934   1.860  0.8160 -0.6138  0.8063
  404MOL0     H55710   6.142   3.052   1.877 -1.1897  0.3538  0.1227
  404MOL0     H55711   5.910   3.095   1.621  1.4637 -0.7883 -0.5011
  404MOL0     H55712   6.001   3.247   1.635 -1.2942  0.2440 -0.8729
  404MOL0     H55713   5.958   3.148   1.783  1.4366  1.1516  0.2307
  404MOL0     H55714   6.096   3.385   1.280 -2.1707  0.9485  1.4779
  404MOL0     H55715   5.978   3.462   1.059  0.3503 -1.5139 -0.2066
  404MOL0     H55716   5.717   3.459   1.013 -3.2265 -4.3844 -0.1037
  404MOL0     H55717   5.826   3.525   0.876 -1.1017 -1.2592 -2.7722
  404MOL0     H55718   5.635   3.402   0.724 -0.1703 -2.4646  0.5179
  404MOL0     H55719   5.554   3.381   0.875  1.1152 -1.9170 -1.0636
  404MOL0     H55720   5.657   3.665   0.793  0.3596  2.3680  4.1703
  404MOL0     H55721   5.554   3.617   0.922  3.0700 -1.0420  0.9675
  404MOL0     H55722   5.406   3.510   0.716  0.8602 -0.6452  1.8540
  404MOL0     H55723   5.496   3.614   0.613  3.2150  0.9359 -0.0365
  404MOL0     H55724   5.284   3.706   0.709 -0.3690  0.1951  1.3070
  404MOL0     H55725   5.344   3.685   0.873  2.5304  0.2779  1.3769
  404MOL0     H55726   5.438   3.910   0.672  1.6385 -0.4658 -0.0766
  404MOL0     H55727   5.501   3.872   0.835  0.3347 -0.8640  0.2909
  404MOL0     H55728   5.276   3.907   0.940 -1.7092  1.5789 -0.6241
  404MOL0     H55729   5.194   3.930   0.786 -1.1668  1.1679  1.9474
  404MOL0     H55730   5.232   4.141   0.892  1.0968  0.4140  2.6603
  404MOL0     H55731   5.341   4.130   0.755  1.7087  1.2271  0.6832
  404MOL0     H55732   5.785   3.101   1.016 -0.5815  0.6069 -0.7044
  404MOL0     H55733   5.881   3.010   1.222 -3.0100  0.6954  0.6246
  404MOL0     H55734   6.376   2.977   1.451  2.2355 -1.8284  1.2847
  404MOL0     H55735   6.460   2.887   1.657 -0.7184 -1.4032  0.7715
  404MOL0     H55736   5.286   2.799   3.011 -0.2152 -1.6177 -0.9675
  404MOL0     H55737   5.114   2.687   3.136 -1.4697  0.4752  1.7827
  404MOL0     H55738   4.781   2.699   3.419  2.2078 -1.1332 -1.8115
  404MOL0     H55739   4.590   2.587   3.528 -0.3492 -0.2108 -1.9348
  404MOL0     H55740   4.640   2.212   3.679  2.7356  2.0748 -0.8672
  404MOL0     H55741   4.636   2.273   3.840  1.2080 -2.2037 -0.9410
  404MOL0     H55742   4.380   2.280   3.662  1.1159 -1.1894 -1.0938
  404MOL0     H55743   4.375   2.337   3.819 -1.6218  1.3750 -2.4883
  404MOL0     H55744   4.380   2.148   3.926  1.9421 -0.5824 -0.5852
  404MOL0     H55745   4.263   2.140   3.798  0.7975 -0.5947  0.2667
  404MOL0     H55746   4.358   1.930   3.804 -0.6188  0.8820 -1.2520
  404MOL0     H55747   4.504   1.985   3.865  0.9396  1.7938 -0.1852
  404MOL0     H55748   4.556   1.917   3.433 -0.7962 -1.5670  0.0646
  404MOL0     H55749   4.832   2.273   3.659 -0.4612  0.2460 -1.1865
  404MOL0     H55750   5.047   2.244   3.596  2.0565 -2.0459 -2.3504
  404MOL0     H55751   5.104   2.302   3.445 -0.2225  0.9049 -0.5124
  404MOL0     H55752   5.115   2.410   3.590 -1.9997  0.2189  0.7255
  405MOL0     O55753   3.475   3.786   0.564  0.2226  0.2638  0.6275
  405MOL0     C55754   3.588   3.808   0.510  0.1748 -0.7055  0.1135
  405MOL0     O55755   3.594   3.874   0.390  0.0082  0.2700  0.3040
  405MOL0     C55756   3.477   3.908   0.326  0.2575  0.5654  0.1063
  405MOL0     C55757   3.451   3.848   0.205 -1.0266  0.8062 -0.1908
  405MOL0     C55758   3.331   3.863   0.136  0.9624  0.4570  0.1798
  405MOL0     C55759   3.230   3.949   0.186  1.2006 -0.0524 -0.0240
  405MOL0     O55760   3.111   3.959   0.115  0.8403 -0.4216  0.2344
  405MOL0     C55761   2.990   3.989   0.199  0.2573 -0.7461  0.5022
  405MOL0     C55762   2.871   3.966   0.111  0.4989 -0.2007  1.4480
  405MOL0     C55763   2.854   4.073  -0.005 -0.9680  0.0729 -0.5071
  405MOL0     C55764   2.780   4.012  -0.122 -0.5408 -0.6516 -0.1832
  405MOL0     C55765   2.763   4.104  -0.235 -0.4831  0.1798  0.4105
  405MOL0     C55766   2.634   4.189  -0.225 -0.0159  0.1495 -0.7047
  405MOL0     C55767   2.603   4.277  -0.349 -0.3091  0.3213 -0.4729
  405MOL0     C55768   2.504   4.394  -0.331 -0.3200  0.4503 -0.6658
  405MOL0     N55769   2.378   4.347  -0.267 -0.5996  0.1987  0.3199
  405MOL0     C55770   2.288   4.261  -0.316  0.3192  0.5377 -0.2812
  405MOL0     C55771   2.183   4.266  -0.235 -0.6135 -0.6247 -0.0027
  405MOL0     C55772   2.064   4.190  -0.252  1.1532 -0.7534 -1.0740
  405MOL0     C55773   1.979   4.249  -0.357  1.1022 -0.3309 -0.1807
  405MOL0     C55774   2.047   4.234  -0.498  0.6714 -0.2408 -0.4524
  405MOL0     C55775   1.950   4.236  -0.620 -1.1881  0.6338  0.0634
  405MOL0     O55776   2.030   4.249  -0.741  0.5723 -0.5692  0.3805
  405MOL0     C55777   1.968   4.256  -0.870  0.2414  0.6448 -0.5040
  405MOL0     C55778   2.038   4.254  -0.983 -0.8168 -0.6651 -0.8601
  405MOL0     C55779   1.991   4.247  -1.109 -0.2549  0.1496  0.1424
  405MOL0     C55780   2.098   4.233  -1.212  0.1258  0.2645  0.2065
  405MOL0     C55781   1.847   4.263  -1.120 -0.3423 -1.4847 -0.0195
  405MOL0     C55782   1.788   4.270  -1.253 -0.1581  0.4703 -0.2806
  405MOL0     O55783   1.657   4.233  -1.258  0.2759  0.0619 -0.3250
  405MOL0     C55784   1.589   4.224  -1.371  0.4051  0.2721 -0.3623
  405MOL0     C55785   1.633   4.185  -1.499 -0.0966  0.5046 -0.5778
  405MOL0     C55786   1.552   4.211  -1.612 -1.1472  0.0363 -0.5581
  405MOL0     C55787   1.424   4.250  -1.610 -0.3935  0.6145 -0.2528
  405MOL0     O55788   1.368   4.266  -1.734 -0.0016 -0.4084 -0.1764
  405MOL0     C55789   1.227   4.263  -1.754  0.7292 -0.3967 -0.3993
  405MOL0     C55790   1.197   4.236  -1.908 -1.1352  0.8452 -0.2790
  405MOL0     C55791   1.046   4.221  -1.946  0.7520  0.2823  0.2210
  405MOL0     C55792   1.030   4.248  -2.089 -0.0765  1.2600  0.4844
  405MOL0     C55793   0.885   4.267  -2.137  0.3175 -0.5269  0.1254
  405MOL0     C55794   0.806   4.139  -2.178  0.1267 -0.8683 -1.2266
  405MOL0     C55795   0.854   4.085  -2.310 -0.4680  0.6968  0.2606
  405MOL0     C55796   0.809   4.170  -2.436 -0.5229  0.0903 -1.3240
  405MOL0    Cl55797   0.638   4.217  -2.431 -0.2297  0.2358  0.1520
  405MOL0     C55798   1.378   4.296  -1.484 -0.1579 -0.0761 -0.2210
  405MOL0     C55799   1.459   4.285  -1.369 -0.1388  0.7813 -0.1411
  405MOL0     O55800   1.854   4.313  -1.355  0.2255 -0.2497 -0.4128
  405MOL0     C55801   1.771   4.262  -1.004  0.2005  0.5473 -1.1132
  405MOL0     C55802   1.828   4.248  -0.876  0.3735 -0.2087 -0.3342
  405MOL0     N55803   2.203   4.360  -0.142 -0.4997  0.1453  0.1370
  405MOL0     N55804   2.327   4.399  -0.156  0.0589 -0.4789 -0.0422
  405MOL0     C55805   3.257   4.024   0.300  0.6277 -0.5709  0.3234
  405MOL0     C55806   3.381   4.002   0.368 -1.2831  0.1944  0.5830
  405MOL0     C55807   3.713   3.745   0.552  1.1914 -0.5656 -0.0526
  405MOL0     C55808   3.811   3.711   0.461  0.0696 -0.1841 -0.1372
  405MOL0     C55809   3.932   3.645   0.508 -0.0331  0.1245  0.0226
  405MOL0     C55810   3.954   3.621   0.640  0.5368 -0.4715 -0.2722
  405MOL0     O55811   4.076   3.564   0.690  0.6467 -0.1575 -0.3301
  405MOL0     C55812   4.137   3.453   0.629 -0.1533 -0.5721  0.2160
  405MOL0     C55813   4.059   3.321   0.611  0.4743  0.3373  0.9124
  405MOL0     C55814   4.017   3.270   0.757 -0.9840 -0.9040  0.9307
  405MOL0     C55815   4.134   3.259   0.866  0.1880  0.3452  0.0655
  405MOL0     C55816   4.192   3.128   0.875 -0.8391 -0.4480 -0.1751
  405MOL0     C55817   4.250   3.025   0.895  0.7368 -0.1856  0.7386
  405MOL0     C55818   3.852   3.659   0.734  0.5798 -0.5571 -0.9326
  405MOL0     C55819   3.733   3.722   0.687  0.5350  0.0731  0.8199
  405MOL0     C55820   3.641   3.752   0.798 -0.2633 -0.0833  1.2186
  405MOL0     H55821   3.537   3.797   0.162  0.8755  3.2401  0.4463
  405MOL0     H55822   3.302   3.809   0.046  1.4728  2.3482 -1.1774
  405MOL0     H55823   2.986   4.093   0.231 -0.0806  0.2944 -2.5542
  405MOL0     H55824   2.993   3.922   0.285  0.2293 -1.8351 -0.3098
  405MOL0     H55825   2.878   3.866   0.067 -0.0073  0.4959 -0.2947
  405MOL0     H55826   2.777   3.965   0.167 -0.5357  1.2078 -0.1812
  405MOL0     H55827   2.796   4.158   0.033  0.8518  1.2736 -0.2978
  405MOL0     H55828   2.952   4.116  -0.026  0.4412 -1.8844  1.6716
  405MOL0     H55829   2.823   3.918  -0.158  1.3450  0.5977 -1.3804
  405MOL0     H55830   2.682   3.986  -0.081 -0.5795  0.4040  0.4320
  405MOL0     H55831   2.747   4.039  -0.322 -0.3357 -3.3907  2.8471
  405MOL0     H55832   2.848   4.171  -0.254 -0.6771  0.0739 -0.9099
  405MOL0     H55833   2.549   4.121  -0.211 -2.6930  3.2017 -0.9245
  405MOL0     H55834   2.644   4.257  -0.140 -0.0232  0.6931 -1.1332
  405MOL0     H55835   2.562   4.210  -0.425 -1.4068 -1.1318  1.3094
  405MOL0     H55836   2.699   4.319  -0.378 -0.8581  2.7259  0.9163
  405MOL0     H55837   2.549   4.468  -0.264  2.7519  0.5449 -2.6275
  405MOL0     H55838   2.503   4.453  -0.423  4.6165 -0.0060 -1.2988
  405MOL0     H55839   2.298   4.181  -0.389  2.9187 -0.5046  1.0708
  405MOL0     H55840   1.999   4.187  -0.163  0.0393 -0.2034 -1.8425
  405MOL0     H55841   2.092   4.087  -0.273  3.1565 -0.3389 -0.6480
  405MOL0     H55842   1.881   4.200  -0.354 -0.6188  2.4492 -3.3405
  405MOL0     H55843   1.954   4.353  -0.332 -0.4815 -0.4682 -1.0542
  405MOL0     H55844   2.107   4.325  -0.509  0.3049  0.3642  1.9713
  405MOL0     H55845   2.120   4.152  -0.503  0.9768 -0.0448  0.5540
  405MOL0     H55846   1.893   4.143  -0.608  0.1031 -0.1120  0.7280
  405MOL0     H55847   1.890   4.326  -0.629 -0.7924  0.7863 -1.1214
  405MOL0     H55848   2.145   4.254  -0.966 -0.7438  1.3346 -1.1410
  405MOL0     H55849   2.046   4.193  -1.300 -0.2542  2.2211 -0.5142
  405MOL0     H55850   2.176   4.163  -1.180  1.4834  2.3325  1.6229
  405MOL0     H55851   2.133   4.335  -1.230  2.0941 -0.3741  0.1620
  405MOL0     H55852   1.732   4.141  -1.505 -0.5739 -0.6759 -0.0559
  405MOL0     H55853   1.590   4.193  -1.713 -0.1561  0.7325 -0.3285
  405MOL0     H55854   1.190   4.187  -1.684  1.5332 -1.1163 -0.7303
  405MOL0     H55855   1.174   4.353  -1.724  3.2058  0.2658  2.5443
  405MOL0     H55856   1.254   4.315  -1.959  0.6091  0.7825  1.4245
  405MOL0     H55857   1.259   4.149  -1.931 -1.6537  0.5970 -0.7264
  405MOL0     H55858   0.989   4.296  -1.891  0.2664  0.7482 -0.8910
  405MOL0     H55859   0.996   4.130  -1.909  2.0328  0.0356  1.4632
  405MOL0     H55860   1.066   4.162  -2.145  1.5325  2.3430 -0.2088
  405MOL0     H55861   1.081   4.341  -2.116  0.7528  1.0391  1.2649
  405MOL0     H55862   0.819   4.303  -2.058  0.9200  2.5056 -0.6318
  405MOL0     H55863   0.869   4.342  -2.215 -2.8175 -1.6543 -0.4939
  405MOL0     H55864   0.701   4.169  -2.174  1.2298  3.5399  0.1246
  405MOL0     H55865   0.836   4.064  -2.105  1.8668 -0.0984 -1.0919
  405MOL0     H55866   0.802   3.988  -2.316  0.2173  0.1563  2.1932
  405MOL0     H55867   0.962   4.078  -2.322 -0.6932 -1.6545 -0.9748
  405MOL0     H55868   0.820   4.106  -2.525  0.8021  0.9419 -1.7949
  405MOL0     H55869   0.868   4.261  -2.450  0.9921 -0.7249 -0.4443
  405MOL0     H55870   1.279   4.342  -1.485  0.0731  0.6442  2.2330
  405MOL0     H55871   1.414   4.320  -1.276 -3.8990 -3.4052 -0.0683
  405MOL0     H55872   1.663   4.263  -1.015 -0.3551  0.7394  2.9121
  405MOL0     H55873   1.759   4.240  -0.793 -1.8315 -2.0480 -2.1923
  405MOL0     H55874   3.182   4.092   0.339  1.4638  0.7743 -0.3659
  405MOL0     H55875   3.404   4.065   0.454  0.4809  0.0830  0.2259
  405MOL0     H55876   3.783   3.722   0.356  1.2066 -2.9215 -0.8171
  405MOL0     H55877   3.997   3.603   0.433 -1.4003  0.2779 -1.3126
  405MOL0     H55878   4.174   3.474   0.528 -1.2865  1.4656  0.1628
  405MOL0     H55879   4.232   3.441   0.682 -0.5772  0.9606  1.4081
  405MOL0     H55880   4.115   3.242   0.561  0.5540  1.4748 -0.8937
  405MOL0     H55881   3.969   3.330   0.549  1.1818  1.1457 -0.0185
  405MOL0     H55882   3.940   3.338   0.792  0.6127  3.2080 -2.6256
  405MOL0     H55883   3.965   3.177   0.730 -3.5362  1.0278 -1.3910
  405MOL0     H55884   4.101   3.292   0.965  1.2794  0.9857  0.2366
  405MOL0     H55885   4.221   3.320   0.839  0.3400  0.2212  0.2728
  405MOL0     H55886   4.289   2.927   0.917 -1.0284 -0.5406  2.6410
  405MOL0     H55887   3.858   3.635   0.839 -4.0276 -1.2683 -0.6338
  405MOL0     H55888   3.567   3.827   0.769 -0.6188 -1.6033 -2.2997
  405MOL0     H55889   3.583   3.664   0.828  1.1878 -1.8358 -0.7959
  405MOL0     H55890   3.699   3.787   0.883  3.0982 -0.4537 -0.7499
  406MOL0     O55891   3.497   7.762   3.053  0.3229  0.6546 -0.4349
  406MOL0     C55892   3.490   7.879   3.041  0.3005  0.3914 -0.1535
  406MOL0     O55893   3.599   7.965   3.061 -0.2794  0.3855  1.0692
  406MOL0     C55894   3.717   7.916   3.104  0.0315 -0.1688  0.2360
  406MOL0     C55895   3.720   7.823   3.205 -0.1887 -0.6905 -0.1130
  406MOL0     C55896   3.841   7.763   3.236 -0.8238 -0.3703 -0.0559
  406MOL0     C55897   3.965   7.820   3.188  0.0055  0.0255 -0.1541
  406MOL0     O55898   4.086   7.768   3.213 -0.4577  0.2926 -0.1275
  406MOL0     C55899   4.114   7.656   3.299 -0.8804  0.3664  0.3763
  406MOL0     C55900   4.271   7.618   3.286 -0.0520 -0.7336 -0.0266
  406MOL0     C55901   4.329   7.594   3.141  0.0351 -1.1678  0.6617
  406MOL0     C55902   4.467   7.535   3.158 -0.3709 -0.3966 -0.0999
  406MOL0     C55903   4.535   7.520   3.026  0.2429  0.2088 -0.2944
  406MOL0     C55904   4.677   7.481   3.039 -0.7444 -0.4207  0.3111
  406MOL0     C55905   4.742   7.458   2.906  0.4358  0.9103  0.5382
  406MOL0     C55906   4.688   7.332   2.839  0.8062  0.3498 -0.2654
  406MOL0     N55907   4.780   7.265   2.738  0.8586 -0.3921  0.1390
  406MOL0     C55908   4.830   7.320   2.623  0.7210 -1.0340 -0.5862
  406MOL0     C55909   4.898   7.224   2.570 -0.4500  1.2525 -0.1816
  406MOL0     C55910   4.981   7.250   2.446  0.4262  0.3365 -0.4938
  406MOL0     C55911   4.912   7.228   2.311 -0.2251  0.9642  0.7822
  406MOL0     C55912   5.001   7.260   2.187  0.3853  0.0869 -0.2927
  406MOL0     C55913   5.003   7.412   2.167 -0.6867 -0.0967  0.3929
  406MOL0     O55914   5.095   7.485   2.253  0.0733  0.3492 -0.4517
  406MOL0     C55915   5.185   7.576   2.204  0.2856  0.4347 -0.4694
  406MOL0     C55916   5.154   7.711   2.218 -0.3043 -0.8535  0.2280
  406MOL0     C55917   5.250   7.808   2.170  0.0600  0.1314 -0.2833
  406MOL0     C55918   5.225   7.946   2.215 -0.5424  0.5094  0.2897
  406MOL0     C55919   5.363   7.765   2.102 -0.1114  0.0245  0.5828
  406MOL0     C55920   5.482   7.854   2.077 -0.4721 -0.0809 -0.3601
  406MOL0     O55921   5.604   7.783   2.047 -0.3469 -0.4406 -0.5463
  406MOL0     C55922   5.700   7.867   2.004  0.5071 -0.4047  0.2501
  406MOL0     C55923   5.780   7.950   2.079 -0.2535 -0.2154 -0.2509
  406MOL0     C55924   5.858   8.051   2.010  0.2437  0.7425  0.1215
  406MOL0     C55925   5.877   8.053   1.871  0.0867 -0.6373  0.4702
  406MOL0     O55926   5.950   8.159   1.818 -0.0975  0.6785  0.3454
  406MOL0     C55927   6.004   8.165   1.686  0.0329  0.0790  0.0547
  406MOL0     C55928   6.059   8.304   1.672 -0.2409  0.2060 -0.0511
  406MOL0     C55929   6.099   8.322   1.523  1.2505 -1.1672  0.3497
  406MOL0     C55930   6.185   8.447   1.505  0.7315 -0.0496  0.6062
  406MOL0     C55931   6.328   8.413   1.514  0.7789  0.1354  0.5527
  406MOL0     C55932   6.404   8.529   1.446 -0.6502  0.1269  0.9650
  406MOL0     C55933   6.555   8.526   1.481 -0.4366 -0.1334  0.2034
  406MOL0     C55934   6.644   8.635   1.419  0.0227  0.3690  0.6933
  406MOL0    Cl55935   6.622   8.611   1.244  0.1886 -0.0768  0.0615
  406MOL0     C55936   5.813   7.952   1.802  0.0172  0.0004  0.9811
  406MOL0     C55937   5.724   7.862   1.862 -0.1780  0.1163  0.2376
  406MOL0     O55938   5.470   7.977   2.089 -0.3300 -0.6417 -0.2234
  406MOL0     C55939   5.387   7.623   2.083  0.3791 -0.8118 -0.6444
  406MOL0     C55940   5.295   7.532   2.133 -0.8565 -0.2743 -0.2447
  406MOL0     N55941   4.888   7.108   2.645 -0.2870 -0.1390  1.2572
  406MOL0     N55942   4.807   7.134   2.739  0.9827  0.4039  0.2723
  406MOL0     C55943   3.952   7.928   3.102 -1.1413 -1.2225 -0.2463
  406MOL0     C55944   3.830   7.974   3.058  0.0498  0.1597  1.3133
  406MOL0     C55945   3.367   7.943   3.042  0.3100 -0.0311  0.5418
  406MOL0     C55946   3.356   8.072   2.988  0.6900  0.2305 -0.4969
  406MOL0     C55947   3.240   8.144   2.977 -0.2713  0.1552  0.0889
  406MOL0     C55948   3.124   8.088   3.012 -0.3903 -0.3576  0.0729
  406MOL0     O55949   3.012   8.164   2.987  0.1868 -0.1994 -0.3095
  406MOL0     C55950   2.895   8.132   3.062 -0.0960  0.1573 -0.0398
  406MOL0     C55951   2.806   8.255   3.056 -0.7072  0.1176 -0.3434
  406MOL0     C55952   2.719   8.257   3.171  0.3431 -0.8064  0.3834
  406MOL0     C55953   2.768   8.357   3.286  0.5300 -0.2925  1.3612
  406MOL0     C55954   2.881   8.291   3.353  0.3428  0.3500  0.1107
  406MOL0     C55955   2.974   8.224   3.396  0.3082 -0.4665  0.1789
  406MOL0     C55956   3.128   7.961   3.083  0.9412 -0.1623  0.9514
  406MOL0     C55957   3.245   7.887   3.092  0.0606  0.2755 -0.6616
  406MOL0     C55958   3.236   7.756   3.167 -0.1267 -0.2613  1.3669
  406MOL0     H55959   3.623   7.785   3.237 -1.1033 -1.7048 -3.6061
  406MOL0     H55960   3.846   7.683   3.309  4.7071 -1.2032 -0.9086
  406MOL0     H55961   4.054   7.572   3.262  0.3138 -0.2660 -0.1717
  406MOL0     H55962   4.102   7.668   3.407  2.9002 -1.5247  1.1488
  406MOL0     H55963   4.329   7.693   3.341  0.2042 -0.4585 -0.6574
  406MOL0     H55964   4.266   7.526   3.346 -2.3481  1.3357  3.2771
  406MOL0     H55965   4.263   7.527   3.086 -2.0892 -0.4779  2.2220
  406MOL0     H55966   4.328   7.691   3.089 -0.5392  0.5734  3.6529
  406MOL0     H55967   4.524   7.602   3.223  1.4700 -0.7508 -1.2927
  406MOL0     H55968   4.455   7.432   3.194  2.0090 -0.3871  0.8696
  406MOL0     H55969   4.534   7.612   2.967  1.8032  1.9309  2.1702
  406MOL0     H55970   4.470   7.451   2.971 -0.0115 -0.5073  0.8714
  406MOL0     H55971   4.736   7.559   3.089 -1.5626 -1.6151  3.3744
  406MOL0     H55972   4.696   7.389   3.094 -0.7143 -1.7001 -1.7437
  406MOL0     H55973   4.851   7.448   2.909  0.4530 -0.4258 -1.8513
  406MOL0     H55974   4.724   7.544   2.841 -0.9974 -2.3730 -3.9680
  406MOL0     H55975   4.674   7.251   2.911  1.1081 -2.7819 -3.4357
  406MOL0     H55976   4.593   7.358   2.792 -0.3797 -2.8966  0.1352
  406MOL0     H55977   4.828   7.424   2.592  2.0903 -1.3100 -1.7019
  406MOL0     H55978   5.071   7.187   2.445  0.9523  1.0491  0.4678
  406MOL0     H55979   5.020   7.352   2.454 -1.3029  1.3076 -2.9880
  406MOL0     H55980   4.893   7.120   2.313  0.6497  0.7577 -0.5225
  406MOL0     H55981   4.823   7.291   2.303 -1.5821 -0.7402  1.8761
  406MOL0     H55982   5.102   7.219   2.200 -0.1016 -0.5650  1.8960
  406MOL0     H55983   4.968   7.218   2.092  1.6379 -3.3079  0.6137
  406MOL0     H55984   5.047   7.416   2.067  3.4843 -1.7185  1.9215
  406MOL0     H55985   4.900   7.448   2.170 -1.8457 -3.0892  0.9556
  406MOL0     H55986   5.071   7.747   2.278 -0.3583  0.6665 -0.7136
  406MOL0     H55987   5.305   7.969   2.286 -0.3027  1.8690 -0.3865
  406MOL0     H55988   5.129   7.969   2.263 -0.5949 -0.5939  0.7362
  406MOL0     H55989   5.238   8.011   2.128  2.0996 -3.1166 -2.3057
  406MOL0     H55990   5.761   7.950   2.186 -1.3692 -0.5676 -0.4372
  406MOL0     H55991   5.891   8.136   2.070 -0.5240  1.7652 -0.8462
  406MOL0     H55992   6.088   8.097   1.670 -0.8923 -1.1738  0.3045
  406MOL0     H55993   5.926   8.143   1.613 -2.8342  0.4922  2.7495
  406MOL0     H55994   5.981   8.372   1.706  0.2304  0.8552 -0.2474
  406MOL0     H55995   6.148   8.315   1.735  0.3413  1.2721 -1.0264
  406MOL0     H55996   6.005   8.343   1.470  2.9068 -0.1461 -2.3967
  406MOL0     H55997   6.150   8.231   1.489  1.4877 -0.6298 -0.7962
  406MOL0     H55998   6.165   8.521   1.582 -0.9017  1.4048 -1.0992
  406MOL0     H55999   6.150   8.491   1.411 -2.8572 -3.2137  0.2241
  406MOL0     H56000   6.364   8.390   1.614  0.6186 -0.3045  0.5125
  406MOL0     H56001   6.351   8.326   1.451  1.5657 -0.3173  1.4389
  406MOL0     H56002   6.354   8.619   1.482  1.5211  1.9898 -0.3800
  406MOL0     H56003   6.401   8.533   1.337  0.2594  3.3445  0.9748
  406MOL0     H56004   6.599   8.428   1.462  0.2061  0.1661  0.1276
  406MOL0     H56005   6.563   8.541   1.589 -0.7161  0.3874  0.1573
  406MOL0     H56006   6.750   8.618   1.438 -0.1750 -2.0734 -0.0708
  406MOL0     H56007   6.616   8.735   1.455  3.4570  1.4624  0.6709
  406MOL0     H56008   5.834   7.942   1.696 -1.3217 -2.8129  0.8903
  406MOL0     H56009   5.661   7.799   1.800 -0.7899  2.2458 -1.4701
  406MOL0     H56010   5.479   7.590   2.035  2.0686  1.9361  0.4332
  406MOL0     H56011   5.316   7.425   2.134 -1.5546 -0.4208 -0.4993
  406MOL0     H56012   4.041   7.984   3.078 -0.1680 -2.0139  1.3715
  406MOL0     H56013   3.824   8.054   2.985 -0.8102  0.8905  2.1558
  406MOL0     H56014   3.442   8.122   2.946  1.8560 -0.7709  0.6286
  406MOL0     H56015   3.223   8.231   2.914 -2.7846 -2.2006 -2.7834
  406MOL0     H56016   2.862   8.032   3.032 -0.9829 -0.2720  2.1919
  406MOL0     H56017   2.918   8.122   3.168  0.8460  2.5605  0.0456
  406MOL0     H56018   2.748   8.246   2.964 -1.2145  0.7990 -0.0996
  406MOL0     H56019   2.862   8.350   3.063  0.4627 -0.5163 -0.7980
  406MOL0     H56020   2.627   8.307   3.137  0.2881 -0.3142  1.2296
  406MOL0     H56021   2.692   8.156   3.204 -2.8906 -1.3056 -3.0230
  406MOL0     H56022   2.682   8.344   3.353 -0.7259 -1.6689 -0.4089
  406MOL0     H56023   2.784   8.461   3.255  0.0268  0.0330  2.1409
  406MOL0     H56024   3.046   8.169   3.453 -1.3924 -2.4010  0.6161
  406MOL0     H56025   3.033   7.921   3.116 -0.6075  0.8337 -1.8916
  406MOL0     H56026   3.236   7.676   3.092 -0.7649 -1.6935  2.8472
  406MOL0     H56027   3.326   7.734   3.224  1.2956 -1.3336 -1.1177
  406MOL0     H56028   3.142   7.747   3.223 -0.6864  3.4472  1.2847
  407MOL0     O56029   5.277   8.884   1.818 -0.8295 -0.1515  0.8161
  407MOL0     C56030   5.192   8.804   1.799 -0.2582 -0.2082  0.0073
  407MOL0     O56031   5.152   8.756   1.671  0.1082  0.9387 -0.1055
  407MOL0     C56032   5.200   8.821   1.565  0.1351 -0.7468  0.3283
  407MOL0     C56033   5.259   8.759   1.463  0.4518 -0.2992  0.2795
  407MOL0     C56034   5.292   8.817   1.342  0.0752 -0.5981 -0.0924
  407MOL0     C56035   5.271   8.955   1.325  0.3587 -0.1911 -0.3457
  407MOL0     O56036   5.330   9.011   1.219 -0.8099  0.0012  0.3551
  407MOL0     C56037   5.345   9.154   1.210  0.3103  0.3885 -0.7797
  407MOL0     C56038   5.422   9.182   1.076 -0.0337 -0.3962  0.4219
  407MOL0     C56039   5.460   9.328   1.037 -0.4636  0.1047  0.7271
  407MOL0     C56040   5.521   9.335   0.897  0.7127  0.7589 -0.6379
  407MOL0     C56041   5.585   9.472   0.865  0.9953 -0.6311 -0.9341
  407MOL0     C56042   5.649   9.468   0.720  0.0617 -0.2584  0.2993
  407MOL0     C56043   5.556   9.444   0.604  0.1710 -0.5086  0.8385
  407MOL0     C56044   5.468   9.565   0.592 -0.6568 -1.3246  0.1312
  407MOL0     N56045   5.410   9.587   0.469 -0.0244 -0.9057  1.1585
  407MOL0     C56046   5.485   9.617   0.363  0.6084  0.5006  0.1852
  407MOL0     C56047   5.396   9.649   0.265  0.5614 -0.1616 -0.0067
  407MOL0     C56048   5.434   9.673   0.118  0.0609  0.3890  0.2018
  407MOL0     C56049   5.548   9.774   0.119  1.0192 -0.5863  0.3453
  407MOL0     C56050   5.540   9.869   0.005 -0.2696  0.4955 -0.5289
  407MOL0     C56051   5.656   9.967   0.019 -0.6606  0.0770 -0.5348
  407MOL0     O56052   5.769   9.910  -0.056 -0.0392 -0.2571 -0.3946
  407MOL0     C56053   5.845   9.980  -0.144  0.1828  0.5077  0.1061
  407MOL0     C56054   5.874   9.918  -0.274 -0.5495 -0.4997 -0.7690
  407MOL0     C56055   5.939   9.983  -0.373 -0.6813 -0.8934 -0.5469
  407MOL0     C56056   6.000   9.897  -0.477  0.0938  0.4451  0.5299
  407MOL0     C56057   5.974  10.121  -0.355  0.0579 -0.2932 -0.1491
  407MOL0     C56058   6.049  10.210  -0.452  1.0092 -0.3810 -0.2480
  407MOL0     O56059   6.110  10.314  -0.401 -0.0194  0.1627  0.6704
  407MOL0     C56060   6.216  10.361  -0.470  0.3302 -0.5461  0.9032
  407MOL0     C56061   6.305  10.277  -0.539 -0.5642  0.1145 -0.3850
  407MOL0     C56062   6.419  10.333  -0.591 -0.7191  0.1234  0.8434
  407MOL0     C56063   6.455  10.474  -0.572 -0.1724 -0.5735  0.1125
  407MOL0     O56064   6.575  10.517  -0.623 -0.2006 -0.8284 -0.3670
  407MOL0     C56065   6.613  10.658  -0.585  0.0581  0.6467  0.6008
  407MOL0     C56066   6.743  10.681  -0.646 -0.8369  0.0005  0.4431
  407MOL0     C56067   6.722  10.742  -0.782 -0.4866  0.0903 -0.2148
  407MOL0     C56068   6.861  10.758  -0.865  0.3872  0.2944 -0.1140
  407MOL0     C56069   6.878  10.905  -0.923 -0.1438 -0.3243 -0.6803
  407MOL0     C56070   6.935  11.001  -0.821  0.1944 -0.2094 -0.3979
  407MOL0     C56071   6.908  11.147  -0.852 -0.0101 -0.2440  0.0511
  407MOL0     C56072   6.971  11.200  -0.978 -0.5290  0.1492 -0.0330
  407MOL0    Cl56073   6.880  11.170  -1.116  0.2733 -0.3468  0.5685
  407MOL0     C56074   6.355  10.551  -0.504 -0.0673  0.1898 -0.6454
  407MOL0     C56075   6.235  10.500  -0.453 -0.1633 -0.0579  0.7918
  407MOL0     O56076   6.032  10.184  -0.571 -0.9443 -0.1398 -0.3085
  407MOL0     C56077   5.925  10.185  -0.241  0.2076  1.0471  0.0860
  407MOL0     C56078   5.866  10.116  -0.136 -0.2400 -0.5475  0.8787
  407MOL0     N56079   5.271   9.639   0.314 -0.5010  0.0939  0.2829
  407MOL0     N56080   5.279   9.601   0.438 -0.7335  0.4845  0.4067
  407MOL0     C56081   5.227   9.028   1.436  0.2428 -0.0970 -1.3880
  407MOL0     C56082   5.178   8.960   1.546  0.1672  0.1296  0.7240
  407MOL0     C56083   5.133   8.735   1.919 -0.4250  1.4190  0.7041
  407MOL0     C56084   5.116   8.589   1.920 -0.6840  0.2294  0.2307
  407MOL0     C56085   5.073   8.517   2.039 -0.0009  0.9428 -0.4949
  407MOL0     C56086   5.047   8.592   2.158  0.7608  1.1435 -1.0220
  407MOL0     O56087   5.007   8.533   2.271  0.3260  0.7422 -1.1350
  407MOL0     C56088   5.007   8.389   2.291 -0.8947 -0.6159  0.1097
  407MOL0     C56089   5.148   8.325   2.283 -0.2012 -0.1601 -0.4118
  407MOL0     C56090   5.222   8.368   2.410  0.4580  0.0425  0.0950
  407MOL0     C56091   5.273   8.508   2.432  0.2865  0.5515 -0.2718
  407MOL0     C56092   5.387   8.518   2.527  0.3208  0.4203  0.3819
  407MOL0     C56093   5.488   8.529   2.597  0.5373  0.5224  0.1334
  407MOL0     C56094   5.049   8.729   2.156 -0.6033  0.0389  0.5642
  407MOL0     C56095   5.094   8.798   2.039  0.0260  0.8534 -0.5188
  407MOL0     C56096   5.093   8.949   2.047  0.4214  0.3825 -0.0560
  407MOL0     H56097   5.277   8.653   1.478 -1.7672 -0.4448  2.5756
  407MOL0     H56098   5.360   8.773   1.269 -0.2973  2.1050 -2.2201
  407MOL0     H56099   5.416   9.176   1.290  1.1415 -0.7335 -1.1897
  407MOL0     H56100   5.249   9.205   1.221 -0.6506 -1.5659  0.6929
  407MOL0     H56101   5.514   9.124   1.070 -1.4692 -2.7488 -0.2733
  407MOL0     H56102   5.358   9.149   0.993  1.6176 -2.7652 -0.0205
  407MOL0     H56103   5.373   9.393   1.049  0.3874  1.3137  0.5687
  407MOL0     H56104   5.538   9.374   1.100 -1.9250  0.8689  2.0473
  407MOL0     H56105   5.595   9.256   0.883 -0.2375  0.4219 -5.5173
  407MOL0     H56106   5.452   9.307   0.817 -0.5285  1.8571  0.0050
  407MOL0     H56107   5.666   9.490   0.937  0.6907 -3.2902  0.1696
  407MOL0     H56108   5.512   9.554   0.867  1.9480  0.2752  1.5491
  407MOL0     H56109   5.702   9.563   0.703 -1.3698  0.1094 -2.7223
  407MOL0     H56110   5.726   9.391   0.719  0.2240 -0.1233 -2.2322
  407MOL0     H56111   5.489   9.359   0.618 -0.2703 -0.3849 -0.4032
  407MOL0     H56112   5.605   9.437   0.507 -1.4425  0.4776 -0.0873
  407MOL0     H56113   5.396   9.553   0.673  0.2365 -1.9493  0.8674
  407MOL0     H56114   5.523   9.655   0.622 -0.7417 -0.7099 -1.4640
  407MOL0     H56115   5.593   9.609   0.367  0.5119 -0.9764  3.8483
  407MOL0     H56116   5.350   9.703   0.056  0.7247  0.9133 -0.4610
  407MOL0     H56117   5.472   9.582   0.071 -0.2003 -0.3975  1.4582
  407MOL0     H56118   5.529   9.830   0.211 -0.3091 -0.7131  0.1652
  407MOL0     H56119   5.642   9.718   0.117  2.7162  2.0516 -2.9058
  407MOL0     H56120   5.552   9.813  -0.088 -0.1934 -0.9331  0.3138
  407MOL0     H56121   5.447   9.926   0.003  1.0558  2.7670 -0.5666
  407MOL0     H56122   5.631  10.063  -0.027  2.1587  1.3013  0.2918
  407MOL0     H56123   5.676   9.986   0.125 -2.2147 -2.9217  0.4236
  407MOL0     H56124   5.839   9.815  -0.280 -0.9404 -0.3586 -0.9834
  407MOL0     H56125   6.108   9.915  -0.481  0.1028  0.3629  0.4126
  407MOL0     H56126   5.960   9.906  -0.578 -0.6060 -3.5213  0.2864
  407MOL0     H56127   5.981   9.794  -0.447  2.1861  0.3675  1.7186
  407MOL0     H56128   6.287  10.170  -0.539 -0.6235  0.0644 -2.7382
  407MOL0     H56129   6.499  10.275  -0.634  0.3882  2.9628 -1.2645
  407MOL0     H56130   6.539  10.726  -0.627 -1.0655 -1.4994 -1.1005
  407MOL0     H56131   6.617  10.679  -0.478  2.5307  3.0565  0.1500
  407MOL0     H56132   6.801  10.752  -0.588  0.1198  0.7217 -1.3345
  407MOL0     H56133   6.804  10.590  -0.641 -0.7337  0.0977  4.4834
  407MOL0     H56134   6.679  10.840  -0.761  1.3485  0.9300 -0.1361
  407MOL0     H56135   6.655  10.675  -0.837 -0.5247 -1.2254  1.3472
  407MOL0     H56136   6.859  10.695  -0.954  1.2418 -1.4640  1.0685
  407MOL0     H56137   6.944  10.730  -0.800  0.0600  2.7067  1.4635
  407MOL0     H56138   6.940  10.908  -1.013  2.7291  1.3362  1.1933
  407MOL0     H56139   6.784  10.947  -0.959 -0.0890  0.6105  0.2328
  407MOL0     H56140   7.044  10.996  -0.818  0.2640  0.2253 -1.7103
  407MOL0     H56141   6.896  10.984  -0.720  1.2208  3.6246  0.8382
  407MOL0     H56142   6.946  11.203  -0.767  1.5057 -0.6253 -0.3517
  407MOL0     H56143   6.802  11.174  -0.857  0.1866  0.3680 -2.1296
  407MOL0     H56144   7.069  11.154  -0.993 -0.1734  0.9761 -0.3237
  407MOL0     H56145   6.992  11.307  -0.970  1.3811 -0.0787 -1.2055
  407MOL0     H56146   6.366  10.658  -0.497 -2.0202  0.4171 -0.4202
  407MOL0     H56147   6.161  10.562  -0.403 -2.6587 -0.9271 -1.5701
  407MOL0     H56148   5.932  10.293  -0.234  2.0492  0.8446  2.5230
  407MOL0     H56149   5.851  10.151  -0.034  0.7670  1.1627  0.4911
  407MOL0     H56150   5.211   9.135   1.427 -1.7577 -0.4316 -2.1877
  407MOL0     H56151   5.131   9.021   1.622  0.0633  0.4051  0.4388
  407MOL0     H56152   5.135   8.523   1.836 -1.0722 -0.4968  0.6983
  407MOL0     H56153   5.049   8.411   2.039  0.3132  0.8244  1.4358
  407MOL0     H56154   4.965   8.377   2.392  0.9017 -0.6278  0.8958
  407MOL0     H56155   4.938   8.333   2.227  2.0534 -4.4224 -0.1137
  407MOL0     H56156   5.202   8.346   2.191 -0.5382 -1.3251 -0.8952
  407MOL0     H56157   5.128   8.217   2.280 -1.5444  0.0848 -0.8620
  407MOL0     H56158   5.164   8.341   2.498  0.4845 -1.7816 -0.3987
  407MOL0     H56159   5.303   8.294   2.404 -0.6385 -1.3000  1.2408
  407MOL0     H56160   5.198   8.574   2.478 -0.4063  0.5469 -1.3674
  407MOL0     H56161   5.299   8.561   2.340 -0.7113  1.5883  0.0181
  407MOL0     H56162   5.580   8.534   2.652  1.1442 -4.2320 -0.0379
  407MOL0     H56163   5.019   8.789   2.242 -0.6456  3.5632 -1.6899
  407MOL0     H56164   5.191   8.972   2.089 -0.0579 -0.9279  1.9067
  407MOL0     H56165   5.079   9.008   1.955  0.9427  2.0548  0.8835
  407MOL0     H56166   5.011   8.977   2.113 -0.3210 -0.3926 -0.6363
  408MOL0     O56167   3.932   9.583   3.597  0.6203  0.2883 -0.1967
  408MOL0     C56168   3.965   9.593   3.718 -0.3595 -0.3868 -0.2925
  408MOL0     O56169   4.092   9.593   3.763 -0.5156  0.5072 -0.7890
  408MOL0     C56170   4.189   9.577   3.672 -0.3738  0.6649  0.1733
  408MOL0     C56171   4.207   9.447   3.603 -0.7852 -0.5458  0.7530
  408MOL0     C56172   4.320   9.433   3.520  0.9506 -0.1483 -0.1699
  408MOL0     C56173   4.402   9.545   3.487 -0.0348 -0.9883 -1.2373
  408MOL0     O56174   4.508   9.533   3.399  0.5748  0.5145  0.2435
  408MOL0     C56175   4.486   9.603   3.278  0.0056 -0.6437  0.0379
  408MOL0     C56176   4.613   9.598   3.186  0.6167 -0.5197 -0.1909
  408MOL0     C56177   4.737   9.653   3.257  0.3319  0.2668 -0.1851
  408MOL0     C56178   4.721   9.796   3.303 -0.0705  0.3167 -0.1254
  408MOL0     C56179   4.852   9.877   3.310 -0.3340  0.4107  0.3078
  408MOL0     C56180   4.860   9.973   3.423 -0.6138 -0.0153  0.4550
  408MOL0     C56181   4.737  10.068   3.409 -0.1514  0.0369 -0.6799
  408MOL0     C56182   4.751  10.161   3.530  0.1601  1.1363  0.0558
  408MOL0     N56183   4.620  10.209   3.581 -0.5757  0.4667  0.7733
  408MOL0     C56184   4.548  10.133   3.668 -0.6550 -0.0657  0.3849
  408MOL0     C56185   4.467  10.219   3.726 -0.0276  0.2567  0.2825
  408MOL0     C56186   4.360  10.193   3.827  0.7090  0.2098  0.4472
  408MOL0     C56187   4.382  10.102   3.943  0.2211 -0.3774 -0.1405
  408MOL0     C56188   4.246  10.074   4.008 -0.4416 -1.0902  0.2113
  408MOL0     C56189   4.275   9.994   4.136  0.1230  0.7105  0.5279
  408MOL0     O56190   4.149   9.970   4.194  0.3679 -0.0979  0.8705
  408MOL0     C56191   4.074  10.080   4.234  0.0863 -0.2832 -0.4879
  408MOL0     C56192   4.098  10.139   4.352  0.0666 -0.5481 -0.1488
  408MOL0     C56193   4.029  10.253   4.396 -0.8859 -0.6373  0.3102
  408MOL0     C56194   4.077  10.347   4.507  0.0352  1.2282 -0.1958
  408MOL0     C56195   3.919  10.300   4.314  0.4768  0.6208 -0.1968
  408MOL0     C56196   3.821  10.398   4.362  0.1011 -0.7897 -0.3410
  408MOL0     O56197   3.746  10.448   4.265  0.2424  0.3996  0.6215
  408MOL0     C56198   3.630  10.512   4.278  0.5205 -0.0558 -0.6932
  408MOL0     C56199   3.623  10.646   4.313  0.1972 -0.6646  0.6394
  408MOL0     C56200   3.498  10.718   4.307  0.0882  0.9448  0.5557
  408MOL0     C56201   3.377  10.658   4.290  1.3548  0.8076  0.7256
  408MOL0     O56202   3.251  10.714   4.289  0.6347  0.5868 -0.0214
  408MOL0     C56203   3.244  10.858   4.293  0.3839  0.2674 -0.3031
  408MOL0     C56204   3.087  10.890   4.288  0.1413  0.7159  0.1772
  408MOL0     C56205   3.061  11.035   4.308 -0.3048 -0.2572  0.5455
  408MOL0     C56206   2.905  11.073   4.315  0.0479  0.4664 -0.5248
  408MOL0     C56207   2.880  11.218   4.348  0.2470 -0.0622 -0.2890
  408MOL0     C56208   2.950  11.315   4.252 -0.9084 -0.1581 -0.2711
  408MOL0     C56209   2.914  11.462   4.301 -0.1455  0.5490  0.0659
  408MOL0     C56210   2.983  11.588   4.230  0.3352 -0.0323 -0.8996
  408MOL0    Cl56211   2.909  11.744   4.265  0.8063  0.2304  0.3034
  408MOL0     C56212   3.385  10.512   4.277 -0.1091 -0.0434 -0.5951
  408MOL0     C56213   3.510  10.448   4.267 -0.1422  0.0012 -1.0422
  408MOL0     O56214   3.804  10.424   4.484  0.1390 -0.4314  0.3095
  408MOL0     C56215   3.874  10.221   4.208 -0.1247  0.4280  0.2049
  408MOL0     C56216   3.947  10.106   4.171 -0.0440  0.0069  0.6238
  408MOL0     N56217   4.506  10.346   3.692 -0.4432 -0.0061  0.0803
  408MOL0     N56218   4.587  10.337   3.589 -0.2697 -0.5119 -0.3650
  408MOL0     C56219   4.390   9.660   3.561  0.4617 -0.2918  0.1099
  408MOL0     C56220   4.279   9.676   3.637 -0.3581  0.4586  0.1654
  408MOL0     C56221   3.860   9.600   3.816  0.3427  0.0226  0.2158
  408MOL0     C56222   3.733   9.564   3.768 -0.0119  0.0034 -0.5009
  408MOL0     C56223   3.626   9.561   3.855 -0.0550 -0.3841 -0.1067
  408MOL0     C56224   3.637   9.607   3.987  0.1649  0.1821  0.3966
  408MOL0     O56225   3.554   9.610   4.088  0.8391  0.0964  0.9424
  408MOL0     C56226   3.436   9.526   4.096 -0.1159  0.0319  0.6778
  408MOL0     C56227   3.363   9.547   4.226 -0.2834 -0.3167 -0.3669
  408MOL0     C56228   3.309   9.693   4.241 -0.2037 -0.0211  0.1175
  408MOL0     C56229   3.180   9.694   4.318  0.8022 -0.0212 -0.5119
  408MOL0     C56230   3.070   9.633   4.253 -0.2167  0.0182 -0.3719
  408MOL0     C56231   2.955   9.602   4.209 -0.6011  0.4131  0.2540
  408MOL0     C56232   3.755   9.657   4.025  0.1363  0.0928 -0.3595
  408MOL0     C56233   3.873   9.652   3.944 -0.4599 -0.6392 -0.4234
  408MOL0     C56234   4.001   9.731   3.988 -1.1039  0.6287 -0.9295
  408MOL0     H56235   4.140   9.363   3.616 -2.4735  0.7808  0.8851
  408MOL0     H56236   4.349   9.340   3.473 -0.7202 -1.3509  1.0750
  408MOL0     H56237   4.467   9.709   3.292  3.3410  0.2653 -1.2586
  408MOL0     H56238   4.413   9.558   3.210  0.6804  0.8440 -1.7567
  408MOL0     H56239   4.633   9.498   3.146  0.7157  0.1926 -2.0444
  408MOL0     H56240   4.593   9.660   3.098 -2.6619 -1.7277 -0.4500
  408MOL0     H56241   4.754   9.583   3.340  0.9959 -0.9087 -1.2672
  408MOL0     H56242   4.829   9.644   3.199  3.3570  1.9591  3.8961
  408MOL0     H56243   4.661   9.846   3.226  0.0500 -0.5846 -0.8237
  408MOL0     H56244   4.672   9.792   3.400  0.7102  1.5963  0.3433
  408MOL0     H56245   4.847   9.940   3.222 -1.4304 -0.1496 -0.0530
  408MOL0     H56246   4.945   9.819   3.314 -0.3484  0.4536  2.3479
  408MOL0     H56247   4.863   9.916   3.517 -1.5154 -2.2618 -0.8117
  408MOL0     H56248   4.955  10.026   3.418  0.5962 -2.1004  0.0365
  408MOL0     H56249   4.644  10.011   3.412 -1.1444  1.6137  0.4375
  408MOL0     H56250   4.732  10.128   3.318 -0.6847 -0.9022 -1.2786
  408MOL0     H56251   4.803  10.110   3.611 -1.7289  0.1862  0.7342
  408MOL0     H56252   4.813  10.248   3.505  0.6205  0.1081 -2.6306
  408MOL0     H56253   4.547  10.026   3.684  1.9790 -0.2264 -0.0715
  408MOL0     H56254   4.272  10.155   3.774  1.9824  0.4680 -1.9995
  408MOL0     H56255   4.338  10.296   3.857  0.0507  0.2829 -0.2359
  408MOL0     H56256   4.435  10.009   3.921 -0.3655 -0.6620 -0.3565
  408MOL0     H56257   4.449  10.162   4.006 -0.2400  0.5260 -0.4978
  408MOL0     H56258   4.195  10.163   4.045 -3.0779 -1.9410 -1.0931
  408MOL0     H56259   4.176  10.025   3.939 -1.7967  2.3552 -1.0781
  408MOL0     H56260   4.320   9.898   4.109  1.4633  1.5141 -0.2256
  408MOL0     H56261   4.346  10.058   4.191  1.3569  0.2954 -0.5293
  408MOL0     H56262   4.185  10.097   4.402 -0.3705 -1.0061  0.2255
  408MOL0     H56263   4.098  10.448   4.471 -0.1475  1.0417 -0.8229
  408MOL0     H56264   4.175  10.305   4.532 -1.1084 -2.2232 -0.9690
  408MOL0     H56265   4.016  10.358   4.597  0.6104  0.7163  0.2708
  408MOL0     H56266   3.716  10.697   4.334 -0.3723  0.7542 -0.1633
  408MOL0     H56267   3.509  10.825   4.323  3.8048  0.8323 -0.3231
  408MOL0     H56268   3.286  10.911   4.379  0.6513  1.9890 -1.4273
  408MOL0     H56269   3.308  10.894   4.212  2.2537 -1.5920  0.2755
  408MOL0     H56270   3.050  10.854   4.191  2.0558  2.0037 -1.1061
  408MOL0     H56271   3.039  10.832   4.367  0.8919 -0.0167  0.1063
  408MOL0     H56272   3.099  11.086   4.219 -0.7883  1.6304  1.3751
  408MOL0     H56273   3.108  11.077   4.397  0.4148  1.5723 -0.6478
  408MOL0     H56274   2.860  11.014   4.395  1.4988  1.9467  1.4612
  408MOL0     H56275   2.861  11.046   4.218  2.6906  1.4816 -2.1084
  408MOL0     H56276   2.774  11.245   4.340  0.0630 -0.4271  0.7430
  408MOL0     H56277   2.923  11.230   4.448  0.7374  1.0125 -0.6065
  408MOL0     H56278   2.916  11.302   4.149  0.8082  0.3444 -0.9463
  408MOL0     H56279   3.059  11.306   4.258 -0.9233  0.5515  2.3711
  408MOL0     H56280   2.944  11.474   4.405 -1.2355  0.4416  0.4004
  408MOL0     H56281   2.805  11.469   4.290 -0.0020  1.3874 -1.0518
  408MOL0     H56282   2.990  11.577   4.121  1.7852 -2.3423 -0.6358
  408MOL0     H56283   3.089  11.595   4.257 -0.0230  2.9707  0.1493
  408MOL0     H56284   3.295  10.454   4.258  1.1833 -2.1717 -0.4699
  408MOL0     H56285   3.520  10.342   4.248  0.2233 -0.0390 -0.6303
  408MOL0     H56286   3.775  10.221   4.163 -0.2002 -0.4437  0.3631
  408MOL0     H56287   3.920  10.047   4.084 -1.2033  0.3295  0.7597
  408MOL0     H56288   4.459   9.742   3.542 -1.3448  1.0519 -0.9494
  408MOL0     H56289   4.257   9.772   3.683 -1.2694 -0.2105  1.1815
  408MOL0     H56290   3.714   9.536   3.665  1.6788 -1.7907 -0.3760
  408MOL0     H56291   3.532   9.525   3.814 -2.4987  3.9289  1.1455
  408MOL0     H56292   3.377   9.575   4.018  1.3253  1.4920  0.4536
  408MOL0     H56293   3.453   9.421   4.072 -1.1168 -0.1491  0.6956
  408MOL0     H56294   3.424   9.521   4.313 -2.2141  1.4520  1.6121
  408MOL0     H56295   3.274   9.484   4.236 -1.3788  1.4653  2.4249
  408MOL0     H56296   3.373   9.754   4.305 -2.3717 -0.0298  2.4531
  408MOL0     H56297   3.298   9.730   4.139  2.4477 -0.9714 -0.5996
  408MOL0     H56298   3.152   9.799   4.333 -2.4198 -0.9629  0.6714
  408MOL0     H56299   3.201   9.660   4.420  1.8731  2.3941  0.1539
  408MOL0     H56300   2.864   9.583   4.155  0.0977 -0.2305 -0.7344
  408MOL0     H56301   3.766   9.699   4.125  0.8170  2.0383 -1.1874
  408MOL0     H56302   4.026   9.809   3.916  3.7066  0.4858  0.2459
  408MOL0     H56303   4.000   9.770   4.090  3.3835 -2.7630  0.7494
  408MOL0     H56304   4.089   9.666   3.994  0.6120  2.6663 -2.5592
  409MOL0     O56305  10.502   1.628   5.401 -0.3309 -0.2534 -0.2594
  409MOL0     C56306  10.537   1.650   5.289 -0.2855 -0.8732  0.0682
  409MOL0     O56307  10.636   1.745   5.259  0.4042 -0.2125 -0.5409
  409MOL0     C56308  10.723   1.784   5.360 -0.1370 -0.3142  1.6857
  409MOL0     C56309  10.737   1.922   5.386  0.1444  0.6795  0.3296
  409MOL0     C56310  10.833   1.969   5.464  0.7426  0.4920  0.6276
  409MOL0     C56311  10.909   1.873   5.534 -0.2408  0.5409  1.0845
  409MOL0     O56312  11.007   1.907   5.630  0.2532 -0.0432  0.0633
  409MOL0     C56313  11.093   2.019   5.598 -0.3642  0.5588  0.1574
  409MOL0     C56314  11.236   2.022   5.665  0.3674  1.2429  0.0610
  409MOL0     C56315  11.325   1.915   5.599 -0.9536  0.0172  0.7214
  409MOL0     C56316  11.314   1.786   5.678  0.9934 -0.1622  0.1473
  409MOL0     C56317  11.413   1.693   5.612  0.5385  0.1106  0.7536
  409MOL0     C56318  11.427   1.547   5.661  1.5618 -0.1511  0.0950
  409MOL0     C56319  11.444   1.523   5.818 -0.5359  0.7168  0.0684
  409MOL0     C56320  11.591   1.559   5.859  0.4567 -0.0587 -0.2958
  409MOL0     N56321  11.585   1.675   5.954  0.9149  0.2162  0.1132
  409MOL0     C56322  11.533   1.671   6.083  0.1162  0.1330 -0.0367
  409MOL0     C56323  11.591   1.781   6.146  0.3311 -1.0491  0.5482
  409MOL0     C56324  11.598   1.813   6.292 -0.2548 -0.4851 -0.2193
  409MOL0     C56325  11.733   1.766   6.358  0.2161 -0.8125 -0.9387
  409MOL0     C56326  11.840   1.884   6.362 -0.3470 -1.1649 -1.1240
  409MOL0     C56327  11.983   1.837   6.352 -0.3889  0.8876  0.0028
  409MOL0     O56328  12.086   1.929   6.322 -0.1207 -0.1576 -0.4627
  409MOL0     C56329  12.214   1.875   6.312  0.1450 -0.4945 -0.4080
  409MOL0     C56330  12.226   1.785   6.207  0.1563  1.5429  0.0204
  409MOL0     C56331  12.337   1.708   6.195 -0.6941  1.0304  0.8570
  409MOL0     C56332  12.333   1.613   6.078  0.3170 -0.2907  0.2094
  409MOL0     C56333  12.440   1.723   6.286  0.3314 -0.3703 -0.4867
  409MOL0     C56334  12.566   1.650   6.277 -1.3171  0.4012 -0.2296
  409MOL0     O56335  12.628   1.632   6.396  0.6756 -0.3144  0.2018
  409MOL0     C56336  12.748   1.560   6.386 -0.0594 -0.0913  0.4638
  409MOL0     C56337  12.861   1.620   6.324  0.4151  0.0973  0.1637
  409MOL0     C56338  12.980   1.551   6.311  0.5223  0.2282  0.2766
  409MOL0     C56339  12.985   1.418   6.352 -0.5055  0.1174  0.5538
  409MOL0     O56340  13.102   1.358   6.316  0.4100 -0.1351 -0.3275
  409MOL0     C56341  13.177   1.282   6.415  0.6143 -0.4780  0.5375
  409MOL0     C56342  13.321   1.297   6.387  0.3752 -0.1443  0.5430
  409MOL0     C56343  13.400   1.245   6.512 -0.4591  0.4932  0.7943
  409MOL0     C56344  13.517   1.329   6.558  0.6350 -0.0627  0.0627
  409MOL0     C56345  13.619   1.254   6.656 -0.0106 -1.0004 -0.4550
  409MOL0     C56346  13.744   1.337   6.680 -0.1720  0.2353 -0.6579
  409MOL0     C56347  13.792   1.307   6.830 -0.1579 -0.5744  1.4163
  409MOL0     C56348  13.937   1.376   6.852 -0.2763 -0.2008  0.2690
  409MOL0    Cl56349  13.961   1.534   6.774  0.1583 -0.0831 -0.0269
  409MOL0     C56350  12.877   1.362   6.423  0.1705 -0.6146 -0.5928
  409MOL0     C56351  12.759   1.431   6.439  0.1204 -0.4823 -0.8232
  409MOL0     O56352  12.613   1.609   6.168 -0.2633  0.3018 -0.7691
  409MOL0     C56353  12.431   1.814   6.393 -0.2538  0.0274  0.4063
  409MOL0     C56354  12.318   1.886   6.405 -0.3976 -0.6246  0.0918
  409MOL0     N56355  11.670   1.851   6.052 -0.4426  0.2552 -0.1137
  409MOL0     N56356  11.661   1.785   5.945 -0.3346  0.1974 -0.5505
  409MOL0     C56357  10.889   1.731   5.515  1.1660 -0.1162 -1.3324
  409MOL0     C56358  10.805   1.686   5.420  0.5620  0.6343  0.6487
  409MOL0     C56359  10.452   1.593   5.176 -0.2077 -0.5581  0.4634
  409MOL0     C56360  10.488   1.639   5.045  0.1595  0.4304 -0.7757
  409MOL0     C56361  10.424   1.594   4.932 -1.0862 -0.5565 -0.1459
  409MOL0     C56362  10.325   1.489   4.939  0.1755  0.8788  0.1737
  409MOL0     O56363  10.250   1.436   4.831 -0.4148  0.2429 -0.5123
  409MOL0     C56364  10.281   1.470   4.689 -0.5247 -0.7584 -0.3557
  409MOL0     C56365  10.216   1.609   4.647 -0.2456 -0.3217  0.6655
  409MOL0     C56366  10.060   1.596   4.647 -1.0854 -0.3887  0.6618
  409MOL0     C56367  10.008   1.550   4.502  0.8023  0.8020  0.1809
  409MOL0     C56368  10.033   1.407   4.473  0.1000  0.8353  0.0906
  409MOL0     C56369  10.049   1.280   4.454 -0.3626 -0.0613 -0.4073
  409MOL0     C56370  10.295   1.434   5.064  1.1784  0.1274  0.5316
  409MOL0     C56371  10.351   1.493   5.174 -0.0752 -0.8587  0.5917
  409MOL0     C56372  10.301   1.443   5.313  0.7604  1.0019 -0.1536
  409MOL0     H56373  10.667   1.993   5.344 -1.8531 -1.7196 -0.6550
  409MOL0     H56374  10.830   2.075   5.489  2.5416  0.9800 -1.0067
  409MOL0     H56375  11.038   2.103   5.644  0.4120  0.4452  1.3290
  409MOL0     H56376  11.107   2.032   5.490  1.3391  0.1415  0.3086
  409MOL0     H56377  11.276   2.122   5.646 -0.9318  1.7902  0.1633
  409MOL0     H56378  11.219   2.015   5.773 -1.4934  4.1877  0.0446
  409MOL0     H56379  11.292   1.896   5.497 -3.2438  2.4221  0.9086
  409MOL0     H56380  11.429   1.949   5.610 -0.3505 -0.5689 -2.2893
  409MOL0     H56381  11.325   1.797   5.786 -2.2459  1.4787  0.4360
  409MOL0     H56382  11.220   1.731   5.669  0.9617  0.1456 -1.8980
  409MOL0     H56383  11.516   1.726   5.628  1.1861 -3.0646  4.9234
  409MOL0     H56384  11.401   1.685   5.504 -0.7752 -3.0833  1.0040
  409MOL0     H56385  11.336   1.492   5.632  1.6604 -0.3732  0.2047
  409MOL0     H56386  11.500   1.500   5.595 -0.0115  0.1474 -1.9471
  409MOL0     H56387  11.426   1.415   5.813 -1.4714  0.9126 -1.2115
  409MOL0     H56388  11.362   1.571   5.871 -1.6741  0.2123 -1.1800
  409MOL0     H56389  11.648   1.480   5.910 -0.2638  1.1545  2.6042
  409MOL0     H56390  11.650   1.584   5.771  0.4518  0.8267 -0.0520
  409MOL0     H56391  11.468   1.602   6.137  1.0232  0.0465  0.9857
  409MOL0     H56392  11.522   1.750   6.339  0.4268 -1.5046 -0.4546
  409MOL0     H56393  11.585   1.921   6.307  1.1490 -0.6507  2.8749
  409MOL0     H56394  11.711   1.744   6.463 -0.2629  0.1163 -0.8318
  409MOL0     H56395  11.769   1.673   6.315  1.9787 -1.0923  0.9839
  409MOL0     H56396  11.831   1.947   6.273  3.2681 -0.4708 -1.1522
  409MOL0     H56397  11.833   1.960   6.440  1.4908  0.4237 -2.3971
  409MOL0     H56398  12.010   1.788   6.445 -1.6906  0.4894  0.1886
  409MOL0     H56399  11.974   1.751   6.285 -0.7520 -1.6624  3.0987
  409MOL0     H56400  12.150   1.786   6.129  1.7619  0.9031 -1.6288
  409MOL0     H56401  12.373   1.665   5.990 -3.4566  1.0624 -0.8867
  409MOL0     H56402  12.229   1.585   6.063  0.3554 -1.5622  2.0404
  409MOL0     H56403  12.387   1.522   6.106  0.1100  0.0879  1.9393
  409MOL0     H56404  12.840   1.719   6.284  2.8043  0.0013 -1.5776
  409MOL0     H56405  13.059   1.592   6.249  0.9116  2.1522  1.9089
  409MOL0     H56406  13.165   1.329   6.513  1.0939 -0.2302  0.4792
  409MOL0     H56407  13.159   1.174   6.409  0.1828 -0.4220  0.7507
  409MOL0     H56408  13.358   1.239   6.302 -1.0170  0.3649 -0.4483
  409MOL0     H56409  13.336   1.402   6.359  2.3906 -0.8439 -1.2737
  409MOL0     H56410  13.425   1.141   6.488  1.1345  0.9425  0.3509
  409MOL0     H56411  13.334   1.234   6.598 -0.7076 -1.7411  0.3553
  409MOL0     H56412  13.478   1.423   6.598  0.0302  0.4330 -1.5975
  409MOL0     H56413  13.584   1.358   6.477  0.8188  2.5051  1.0503
  409MOL0     H56414  13.562   1.231   6.746 -1.5658  0.2637 -1.0852
  409MOL0     H56415  13.654   1.160   6.611  2.6577 -0.8585  1.1177
  409MOL0     H56416  13.732   1.444   6.658  1.9525  0.5581 -0.5238
  409MOL0     H56417  13.823   1.300   6.614  1.2631  0.7043  0.7163
  409MOL0     H56418  13.799   1.200   6.850 -3.3118 -1.1897 -0.1228
  409MOL0     H56419  13.725   1.345   6.907 -0.7822  2.2685 -0.3651
  409MOL0     H56420  14.019   1.314   6.816 -0.4098 -0.3843  0.2790
  409MOL0     H56421  13.956   1.384   6.960  0.0117 -0.2423  0.2210
  409MOL0     H56422  12.878   1.261   6.463 -2.6264 -0.5733 -0.1554
  409MOL0     H56423  12.677   1.382   6.492  2.2878 -1.7094  1.6376
  409MOL0     H56424  12.510   1.813   6.467  0.1194 -1.0973  0.0161
  409MOL0     H56425  12.314   1.960   6.484 -0.7798  3.0598 -3.0685
  409MOL0     H56426  10.942   1.663   5.582 -4.8715 -3.2233  1.0147
  409MOL0     H56427  10.797   1.583   5.388  1.6532  1.1447 -1.4651
  409MOL0     H56428  10.560   1.719   5.036 -2.6168  3.2091  0.0904
  409MOL0     H56429  10.453   1.636   4.836 -1.3565 -1.5735 -0.6838
  409MOL0     H56430  10.388   1.471   4.667 -0.6562 -1.5771 -1.0812
  409MOL0     H56431  10.241   1.390   4.626  0.5478  0.2005 -2.3668
  409MOL0     H56432  10.246   1.638   4.546  1.1985  0.3428  1.2538
  409MOL0     H56433  10.245   1.686   4.720 -0.8585 -0.2231  0.8040
  409MOL0     H56434  10.028   1.521   4.720 -1.6899 -1.5472 -0.7430
  409MOL0     H56435  10.015   1.695   4.658 -1.2905 -0.1020 -1.9903
  409MOL0     H56436  10.061   1.609   4.426 -0.8885  0.8648 -1.0172
  409MOL0     H56437   9.899   1.558   4.490  0.7288 -1.4545 -1.2796
  409MOL0     H56438  10.049   1.177   4.425  0.3680 -0.6873  1.6507
  409MOL0     H56439  10.231   1.347   5.067 -0.4076  1.1969 -0.8048
  409MOL0     H56440  10.212   1.383   5.290  0.3363  1.4253  0.3493
  409MOL0     H56441  10.377   1.384   5.365  1.3058  4.6131  3.6925
  409MOL0     H56442  10.267   1.524   5.378 -3.9461 -0.9265  0.1673
  410MOL0     O56443   2.513   3.523   7.645  1.1355 -0.4964 -0.0853
  410MOL0     C56444   2.494   3.589   7.540  1.0108  0.3360 -0.2169
  410MOL0     O56445   2.553   3.549   7.426  0.4977  0.4427 -0.2663
  410MOL0     C56446   2.673   3.485   7.426  0.0097 -0.9544 -0.0432
  410MOL0     C56447   2.773   3.501   7.525 -0.3542 -0.0565 -0.0069
  410MOL0     C56448   2.889   3.414   7.520  0.5461 -0.5622 -1.1426
  410MOL0     C56449   2.906   3.327   7.415 -0.2396  0.1452  0.6239
  410MOL0     O56450   3.021   3.250   7.415 -0.2563 -0.0517 -1.0389
  410MOL0     C56451   3.041   3.133   7.338 -0.0388 -1.2438  1.1649
  410MOL0     C56452   3.186   3.092   7.362 -0.4015 -0.3530  0.0165
  410MOL0     C56453   3.208   2.951   7.304  0.2792  0.4292 -0.7083
  410MOL0     C56454   3.356   2.907   7.320  0.2465 -0.2578  0.3382
  410MOL0     C56455   3.379   2.771   7.257 -0.4151  0.4135  0.6603
  410MOL0     C56456   3.534   2.745   7.244 -0.2590 -0.3410 -0.4945
  410MOL0     C56457   3.566   2.650   7.132 -0.8838 -0.6798 -0.6986
  410MOL0     C56458   3.565   2.732   7.002  0.5359  0.4187 -0.2224
  410MOL0     N56459   3.532   2.635   6.896  0.3307  0.2657  0.1532
  410MOL0     C56460   3.406   2.572   6.885 -0.3577  0.3649  0.4329
  410MOL0     C56461   3.445   2.460   6.810  0.3460 -0.1386 -0.1643
  410MOL0     C56462   3.343   2.352   6.761 -0.5190  0.0362 -0.6808
  410MOL0     C56463   3.391   2.286   6.628 -0.7996  0.7533 -0.4644
  410MOL0     C56464   3.403   2.366   6.495  0.5975  0.5912  1.8104
  410MOL0     C56465   3.271   2.428   6.439  0.0700 -1.2884  0.0517
  410MOL0     O56466   3.303   2.535   6.352  0.1985 -0.6501 -0.9825
  410MOL0     C56467   3.315   2.515   6.215  0.1212 -0.3887  0.0050
  410MOL0     C56468   3.309   2.636   6.145  1.2083 -0.4855 -0.4313
  410MOL0     C56469   3.313   2.638   6.000 -1.1138  0.2905 -0.5835
  410MOL0     C56470   3.302   2.766   5.925  0.0813 -0.7512  0.0014
  410MOL0     C56471   3.331   2.510   5.938 -0.2321 -0.7037 -0.4250
  410MOL0     C56472   3.354   2.494   5.792  0.1426 -0.0732  0.1290
  410MOL0     O56473   3.238   2.541   5.727 -0.1341 -0.4988 -0.6089
  410MOL0     C56474   3.251   2.554   5.592  0.4074  1.8552 -0.2040
  410MOL0     C56475   3.268   2.459   5.498 -0.9824  0.4411  0.0877
  410MOL0     C56476   3.319   2.490   5.367  0.1955 -0.1699 -0.5234
  410MOL0     C56477   3.361   2.626   5.342 -0.4749  0.3001 -0.0608
  410MOL0     O56478   3.415   2.663   5.225 -0.5020  0.2287  0.2464
  410MOL0     C56479   3.465   2.566   5.137 -0.9220  0.0859 -0.3753
  410MOL0     C56480   3.551   2.643   5.034 -0.3735  1.1752  0.5259
  410MOL0     C56481   3.615   2.557   4.924  0.3520  0.6370 -0.2994
  410MOL0     C56482   3.496   2.507   4.836 -0.0763  0.1621 -0.3279
  410MOL0     C56483   3.534   2.423   4.707 -0.5890 -0.4166 -0.8295
  410MOL0     C56484   3.656   2.468   4.627  0.1776  0.3453 -0.2076
  410MOL0     C56485   3.667   2.612   4.577 -0.1181  0.3040 -0.0545
  410MOL0     C56486   3.698   2.606   4.428  0.0571  0.1831 -0.4103
  410MOL0    Cl56487   3.736   2.767   4.356  0.1523  0.1368 -0.0207
  410MOL0     C56488   3.325   2.722   5.438 -0.1699  0.2255  0.2695
  410MOL0     C56489   3.268   2.684   5.555 -0.4836  0.8700 -1.0059
  410MOL0     O56490   3.448   2.432   5.748  0.6711  0.5006  0.1072
  410MOL0     C56491   3.336   2.393   6.010  0.3197 -0.2851 -0.5606
  410MOL0     C56492   3.319   2.394   6.150 -1.0631 -0.2065  1.0133
  410MOL0     N56493   3.579   2.462   6.785 -0.4339 -0.6116 -0.1710
  410MOL0     N56494   3.626   2.560   6.845  1.1678  0.5748  0.3302
  410MOL0     C56495   2.807   3.329   7.308 -0.6443 -0.2943  0.0237
  410MOL0     C56496   2.692   3.399   7.320 -0.6105  0.0193  0.5048
  410MOL0     C56497   2.418   3.719   7.542  0.7215 -0.1435  0.2963
  410MOL0     C56498   2.429   3.812   7.426  0.2717  0.5059  0.6953
  410MOL0     C56499   2.380   3.938   7.432  0.1095  0.5919  0.9569
  410MOL0     C56500   2.296   3.982   7.532 -0.1914  0.5903 -0.2620
  410MOL0     O56501   2.241   4.103   7.510  0.5416  0.5498 -0.1353
  410MOL0     C56502   2.163   4.153   7.622 -0.7718  0.7174 -0.2038
  410MOL0     C56503   2.116   4.296   7.603 -0.0340 -0.6187 -0.7111
  410MOL0     C56504   2.231   4.399   7.584  0.0009  0.1426  0.9575
  410MOL0     C56505   2.310   4.421   7.715  0.2707  0.3748  0.1882
  410MOL0     C56506   2.394   4.541   7.695  0.2297  0.4728  0.5228
  410MOL0     C56507   2.465   4.639   7.691  0.2893 -0.2256 -0.7090
  410MOL0     C56508   2.262   3.888   7.631 -0.4684 -0.2996  0.2693
  410MOL0     C56509   2.317   3.758   7.637  0.7646 -1.1666 -0.4056
  410MOL0     C56510   2.271   3.671   7.753 -0.2846 -0.6219  0.8032
  410MOL0     H56511   2.762   3.549   7.622 -1.6994 -1.2388  0.4643
  410MOL0     H56512   2.970   3.409   7.592  0.7466 -0.3101 -1.3460
  410MOL0     H56513   3.032   3.158   7.232 -0.7571  1.1661  1.7240
  410MOL0     H56514   2.965   3.063   7.374 -2.8348  0.0032 -1.8098
  410MOL0     H56515   3.256   3.160   7.314 -2.5768  1.8612 -0.2198
  410MOL0     H56516   3.205   3.082   7.470 -0.9361 -3.5530 -0.0732
  410MOL0     H56517   3.155   2.875   7.362  3.2154 -0.4826  0.9776
  410MOL0     H56518   3.181   2.952   7.198 -5.9405  1.9680  0.4791
  410MOL0     H56519   3.422   2.982   7.276  0.9591 -1.2541 -0.3167
  410MOL0     H56520   3.392   2.908   7.424  1.6426  0.2763 -0.1260
  410MOL0     H56521   3.326   2.758   7.162 -0.6460  2.9402  0.3762
  410MOL0     H56522   3.327   2.695   7.316 -1.8989  1.6861  1.0650
  410MOL0     H56523   3.595   2.833   7.220 -1.4785  0.1019 -2.1014
  410MOL0     H56524   3.578   2.721   7.341 -1.6507  1.5997  0.6763
  410MOL0     H56525   3.507   2.558   7.129 -0.2715 -1.1394  0.7361
  410MOL0     H56526   3.669   2.612   7.137 -1.2957 -1.6703  1.1160
  410MOL0     H56527   3.495   2.814   6.987  1.7645  1.9182  1.7348
  410MOL0     H56528   3.669   2.765   7.000  0.9749 -0.8666  0.1276
  410MOL0     H56529   3.313   2.604   6.930 -2.5669 -1.0402 -2.7849
  410MOL0     H56530   3.243   2.393   6.744 -0.6086 -0.2340 -0.8053
  410MOL0     H56531   3.335   2.276   6.839  2.5980 -1.3380 -1.5215
  410MOL0     H56532   3.489   2.245   6.654  0.2860  3.1780 -0.5216
  410MOL0     H56533   3.318   2.205   6.616  0.4252 -0.4742  0.0829
  410MOL0     H56534   3.480   2.443   6.508  2.0552 -0.5686  0.4165
  410MOL0     H56535   3.434   2.303   6.411 -3.5868  2.7517 -1.7733
  410MOL0     H56536   3.209   2.355   6.387  1.2097 -1.6803 -0.7988
  410MOL0     H56537   3.228   2.474   6.529  1.9192  1.5898 -0.3990
  410MOL0     H56538   3.297   2.730   6.199 -0.6074 -0.5423 -0.6827
  410MOL0     H56539   3.316   2.851   5.992 -1.7673 -1.2660  1.0874
  410MOL0     H56540   3.200   2.769   5.886  0.5218  0.0340 -1.1689
  410MOL0     H56541   3.365   2.770   5.835  0.2443 -1.8361  0.0503
  410MOL0     H56542   3.241   2.357   5.523  1.6416 -0.2707  0.3752
  410MOL0     H56543   3.334   2.413   5.292  2.4716  1.4438 -1.8284
  410MOL0     H56544   3.520   2.482   5.180 -1.4360 -0.4124 -0.6650
  410MOL0     H56545   3.387   2.516   5.079 -0.2440  0.2061 -1.4147
  410MOL0     H56546   3.488   2.714   4.981  0.1713  1.0801 -0.2681
  410MOL0     H56547   3.637   2.684   5.088  0.5086 -1.9126  1.7197
  410MOL0     H56548   3.662   2.477   4.982 -2.3804  2.0190  4.3342
  410MOL0     H56549   3.684   2.614   4.861 -2.6393  2.1762 -2.4490
  410MOL0     H56550   3.436   2.594   4.809 -2.0376 -0.8160  0.6539
  410MOL0     H56551   3.428   2.433   4.879  1.1102 -0.3771  0.7093
  410MOL0     H56552   3.546   2.320   4.743  2.5429  0.8027  2.1801
  410MOL0     H56553   3.452   2.432   4.636 -0.9079  2.6288 -0.2153
  410MOL0     H56554   3.661   2.403   4.540  2.2105 -0.7469  0.6387
  410MOL0     H56555   3.740   2.454   4.696 -0.4768  0.1689  0.5778
  410MOL0     H56556   3.742   2.672   4.630  0.7179 -0.3791 -0.4461
  410MOL0     H56557   3.571   2.661   4.596  0.6494  1.8045  0.1523
  410MOL0     H56558   3.612   2.561   4.376  0.0669 -3.0153  2.0742
  410MOL0     H56559   3.782   2.539   4.407 -0.0745  0.6478 -2.7206
  410MOL0     H56560   3.351   2.826   5.422  1.9103 -0.1366  0.8799
  410MOL0     H56561   3.250   2.753   5.637 -0.1993 -0.2174  0.0144
  410MOL0     H56562   3.369   2.303   5.960  1.0817 -1.4593  1.8828
  410MOL0     H56563   3.334   2.296   6.195  2.7756 -0.5686 -0.6659
  410MOL0     H56564   2.816   3.261   7.224 -2.0691  0.5335 -0.8358
  410MOL0     H56565   2.616   3.377   7.246 -3.3031  1.0224  2.7910
  410MOL0     H56566   2.488   3.775   7.343 -3.7426 -4.4582 -0.4226
  410MOL0     H56567   2.412   4.010   7.357  0.1178  0.6062  0.9742
  410MOL0     H56568   2.066   4.102   7.632 -0.5185 -0.2487 -2.1963
  410MOL0     H56569   2.225   4.156   7.712  0.4202 -0.6393 -0.9467
  410MOL0     H56570   2.050   4.321   7.686  1.3718 -0.0095  0.2653
  410MOL0     H56571   2.060   4.290   7.509 -1.4171  0.8862 -0.0342
  410MOL0     H56572   2.299   4.357   7.510  0.3967  3.4117 -0.6710
  410MOL0     H56573   2.194   4.491   7.539  1.6432 -0.1874 -1.2507
  410MOL0     H56574   2.375   4.339   7.748  1.3943  1.2604  0.2291
  410MOL0     H56575   2.236   4.448   7.791 -0.6395 -0.0402 -0.5385
  410MOL0     H56576   2.531   4.724   7.684  0.2889  0.1145  2.2999
  410MOL0     H56577   2.211   3.928   7.718  1.6383  0.7735  1.0677
  410MOL0     H56578   2.168   3.705   7.771 -0.6230 -0.7344 -0.7648
  410MOL0     H56579   2.262   3.566   7.725 -0.5100 -0.2478 -0.6233
  410MOL0     H56580   2.334   3.684   7.841 -0.8515 -2.1790  1.4729
  411MOL0     O56581   8.695   7.155   2.181 -0.0920 -0.9095  0.4773
  411MOL0     C56582   8.671   7.183   2.302  0.5881 -0.5308 -0.1812
  411MOL0     O56583   8.689   7.096   2.417  0.4346 -0.1672  0.0098
  411MOL0     C56584   8.735   6.969   2.375 -0.4819  0.3621 -0.8790
  411MOL0     C56585   8.634   6.877   2.353  0.0158  0.1875 -0.7342
  411MOL0     C56586   8.668   6.740   2.315  0.8010  0.4125 -0.3284
  411MOL0     C56587   8.805   6.701   2.298  0.3542 -0.4219  0.5889
  411MOL0     O56588   8.851   6.577   2.256 -0.1693 -0.5303 -0.2042
  411MOL0     C56589   8.747   6.475   2.262  0.3142  1.6650 -0.5687
  411MOL0     C56590   8.820   6.327   2.242 -0.3747  0.4036 -0.6627
  411MOL0     C56591   8.863   6.318   2.092  0.5222  0.6079 -0.2878
  411MOL0     C56592   8.944   6.200   2.054  0.9763  0.3391 -0.4745
  411MOL0     C56593   8.926   6.177   1.904 -0.1866  0.5017  0.3147
  411MOL0     C56594   8.986   6.276   1.808  0.5262  0.2969  0.4674
  411MOL0     C56595   9.009   6.210   1.674 -0.2733  0.2309  0.3719
  411MOL0     C56596   9.037   6.325   1.571  0.3873 -0.4056 -0.3132
  411MOL0     N56597   9.134   6.290   1.463 -0.4091 -0.4575 -0.0599
  411MOL0     C56598   9.098   6.262   1.334 -0.6361  0.2267 -0.6638
  411MOL0     C56599   9.211   6.207   1.278  0.3692  0.1299 -0.4359
  411MOL0     C56600   9.218   6.165   1.130  0.0878  0.1247 -0.0295
  411MOL0     C56601   9.304   6.261   1.046 -0.7623  0.0511  0.1050
  411MOL0     C56602   9.263   6.403   1.058  0.2005 -0.4510 -0.3885
  411MOL0     C56603   9.343   6.493   0.970  0.1297  0.3005  0.6399
  411MOL0     O56604   9.469   6.498   1.027  0.0685  0.5263 -0.1971
  411MOL0     C56605   9.540   6.604   0.990 -0.1070  0.1460 -0.0337
  411MOL0     C56606   9.586   6.696   1.089 -0.2310  0.8101  0.1474
  411MOL0     C56607   9.648   6.815   1.062 -0.0456 -0.1660  0.8622
  411MOL0     C56608   9.723   6.869   1.181 -0.8364  0.3970  0.6451
  411MOL0     C56609   9.664   6.858   0.925 -0.0679  0.4020  0.2917
  411MOL0     C56610   9.736   6.976   0.881  0.3617  0.3534 -0.5485
  411MOL0     O56611   9.810   7.052   0.979  0.1907 -0.3208 -0.0671
  411MOL0     C56612   9.896   7.156   0.935 -0.0784 -0.7791  0.6298
  411MOL0     C56613   9.848   7.280   0.882  0.1967 -0.4593  2.0835
  411MOL0     C56614   9.939   7.366   0.833  0.6422  0.1655  0.4387
  411MOL0     C56615  10.076   7.346   0.836  0.5005  0.4472  0.1587
  411MOL0     O56616  10.146   7.439   0.763  0.0636  0.3257  0.4765
  411MOL0     C56617  10.292   7.429   0.759  0.1983  0.6070 -1.0300
  411MOL0     C56618  10.343   7.497   0.641  0.3843  0.0498 -0.7353
  411MOL0     C56619  10.491   7.485   0.630  0.3456  0.2383  0.1699
  411MOL0     C56620  10.575   7.574   0.730  0.5797 -0.5037 -0.1218
  411MOL0     C56621  10.688   7.484   0.786 -0.1542 -0.6589 -0.5332
  411MOL0     C56622  10.808   7.449   0.683 -0.6513  0.0054 -0.8682
  411MOL0     C56623  10.901   7.575   0.681 -0.2940 -0.1881  0.2425
  411MOL0     C56624  11.050   7.544   0.681  0.9344  0.3263 -0.4022
  411MOL0    Cl56625  11.152   7.696   0.651  0.0273  0.4502  0.6555
  411MOL0     C56626  10.131   7.230   0.892 -0.7272  0.3868 -0.1624
  411MOL0     C56627  10.036   7.143   0.942  0.1519  0.3605 -0.1433
  411MOL0     O56628   9.751   6.989   0.758  0.1505 -0.0369  0.1284
  411MOL0     C56629   9.605   6.770   0.826  0.7790 -0.1212 -0.0662
  411MOL0     C56630   9.551   6.639   0.858 -0.4354 -0.0301  0.0163
  411MOL0     N56631   9.314   6.203   1.376  0.5145 -0.4361  0.7016
  411MOL0     N56632   9.264   6.252   1.482  0.4677  0.0328 -0.7133
  411MOL0     C56633   8.897   6.798   2.318 -1.1145  0.8813 -0.3363
  411MOL0     C56634   8.870   6.929   2.364 -0.3000  0.7329  0.2939
  411MOL0     C56635   8.643   7.323   2.334 -0.1555 -0.4560  0.0279
  411MOL0     C56636   8.716   7.428   2.283 -0.9094 -0.5744 -0.3315
  411MOL0     C56637   8.684   7.564   2.299 -0.4019  0.5090 -0.2893
  411MOL0     C56638   8.572   7.592   2.377  0.5802 -0.0062  0.3512
  411MOL0     O56639   8.531   7.718   2.397  0.2093 -0.8412 -0.1993
  411MOL0     C56640   8.473   7.755   2.525  0.0370 -0.6366  0.0351
  411MOL0     C56641   8.534   7.898   2.565 -0.4069 -0.3905  0.0544
  411MOL0     C56642   8.522   7.945   2.705  0.8961  0.6656 -0.4030
  411MOL0     C56643   8.569   8.095   2.715  0.1429  0.0593  0.0192
  411MOL0     C56644   8.546   8.142   2.849  0.1087 -0.2061 -0.0807
  411MOL0     C56645   8.510   8.172   2.962  0.1044 -0.4878 -0.2045
  411MOL0     C56646   8.497   7.487   2.430  1.2271  0.4858  0.0098
  411MOL0     C56647   8.525   7.348   2.402 -0.4940  0.5103 -0.3449
  411MOL0     C56648   8.411   7.244   2.436 -0.4269 -0.0052 -0.8759
  411MOL0     H56649   8.531   6.909   2.362  0.0332 -0.1551  1.1320
  411MOL0     H56650   8.587   6.669   2.298  1.7187 -0.9417  0.8176
  411MOL0     H56651   8.665   6.472   2.189 -0.4693 -3.4181  0.1303
  411MOL0     H56652   8.695   6.478   2.358 -1.5518 -4.5838 -0.8904
  411MOL0     H56653   8.903   6.317   2.312 -1.8078  1.7897  1.3601
  411MOL0     H56654   8.752   6.243   2.260 -1.2328  0.8988 -1.4858
  411MOL0     H56655   8.775   6.329   2.030  0.9899  1.2465 -0.8502
  411MOL0     H56656   8.926   6.406   2.076 -1.5056  2.1280 -0.1979
  411MOL0     H56657   9.049   6.211   2.083  0.5372  0.4040  1.2341
  411MOL0     H56658   8.898   6.110   2.097 -1.8593  0.8461 -2.1572
  411MOL0     H56659   8.824   6.146   1.880  0.5310 -1.0764 -0.8944
  411MOL0     H56660   8.981   6.084   1.891  0.2258  0.7940 -0.0716
  411MOL0     H56661   8.918   6.361   1.798  0.5777  0.1485 -1.5054
  411MOL0     H56662   9.078   6.320   1.846 -1.2854  3.8229  1.2010
  411MOL0     H56663   8.923   6.150   1.643 -1.1176  1.6010 -0.0493
  411MOL0     H56664   9.093   6.141   1.682  2.0111  2.8945  1.0430
  411MOL0     H56665   8.946   6.373   1.534 -0.1810 -2.0192 -1.1263
  411MOL0     H56666   9.092   6.397   1.631 -0.7978 -0.2223  0.5892
  411MOL0     H56667   9.005   6.295   1.289 -0.2086  2.0838 -0.2973
  411MOL0     H56668   9.123   6.154   1.078 -1.6471  1.4813  2.6171
  411MOL0     H56669   9.253   6.062   1.125  0.6075  0.2371  0.8928
  411MOL0     H56670   9.411   6.255   1.064 -0.4386  1.6932 -1.0021
  411MOL0     H56671   9.267   6.238   0.946 -3.0343  0.0917  0.8667
  411MOL0     H56672   9.155   6.409   1.041 -0.1037 -0.2734  1.4167
  411MOL0     H56673   9.268   6.441   1.161  0.8243 -2.0038  0.1735
  411MOL0     H56674   9.348   6.472   0.862 -1.2152 -0.6709  0.7500
  411MOL0     H56675   9.291   6.590   0.974 -1.4328 -0.2791 -2.4017
  411MOL0     H56676   9.579   6.654   1.188  4.4537  1.7740  1.0922
  411MOL0     H56677   9.704   6.976   1.190 -0.2009  0.3510  3.3912
  411MOL0     H56678   9.831   6.854   1.172 -0.7179  0.5471  1.7400
  411MOL0     H56679   9.688   6.822   1.273 -2.7624  0.7856  0.1456
  411MOL0     H56680   9.742   7.303   0.886  0.6580  1.8552  2.4706
  411MOL0     H56681   9.917   7.463   0.790  3.0062  0.8643  0.6213
  411MOL0     H56682  10.334   7.476   0.848 -1.5050  0.2944 -0.0194
  411MOL0     H56683  10.325   7.325   0.759  2.1698  1.1308  1.7464
  411MOL0     H56684  10.301   7.449   0.552  0.4975 -1.1166 -0.1760
  411MOL0     H56685  10.315   7.602   0.639 -3.6885 -0.7144  2.2154
  411MOL0     H56686  10.525   7.524   0.534  0.9625 -0.3652  0.1286
  411MOL0     H56687  10.526   7.381   0.634 -1.6938 -0.5426 -0.9803
  411MOL0     H56688  10.525   7.611   0.819  0.2941  0.6900 -0.7552
  411MOL0     H56689  10.609   7.664   0.678 -1.9127  0.9202  0.6038
  411MOL0     H56690  10.719   7.536   0.877 -0.1893 -3.7068  1.3733
  411MOL0     H56691  10.653   7.387   0.823  0.2469 -1.0545 -1.1613
  411MOL0     H56692  10.763   7.437   0.584  0.5543 -1.9803 -1.2362
  411MOL0     H56693  10.871   7.369   0.724  1.9001  2.5230  0.4204
  411MOL0     H56694  10.892   7.645   0.765  2.3342  1.8510 -1.0136
  411MOL0     H56695  10.877   7.636   0.594  2.3935 -2.2242 -2.0880
  411MOL0     H56696  11.077   7.471   0.604  0.2033  0.3061 -0.6460
  411MOL0     H56697  11.070   7.502   0.780 -0.8620  2.3760  0.9252
  411MOL0     H56698  10.238   7.215   0.905 -0.5808 -1.6716 -2.9379
  411MOL0     H56699  10.065   7.055   0.998 -1.5228 -0.4823 -0.5386
  411MOL0     H56700   9.607   6.795   0.720 -1.6235  0.6514  0.0051
  411MOL0     H56701   9.512   6.581   0.775 -0.1250 -0.1912 -0.0173
  411MOL0     H56702   9.001   6.766   2.311 -1.0944  1.0548 -0.8380
  411MOL0     H56703   8.942   7.008   2.380 -1.2102  1.3255  1.5971
  411MOL0     H56704   8.796   7.414   2.211  0.1881 -0.8986  0.9234
  411MOL0     H56705   8.752   7.645   2.274  0.4824  0.0541  0.5498
  411MOL0     H56706   8.366   7.771   2.508  0.6121  1.2653 -2.5942
  411MOL0     H56707   8.498   7.684   2.604  0.2436 -0.9050 -0.2700
  411MOL0     H56708   8.487   7.965   2.493  1.1285  0.4134 -0.2451
  411MOL0     H56709   8.643   7.891   2.559 -0.3576 -2.0483  1.6602
  411MOL0     H56710   8.417   7.930   2.731  0.3499  2.5243 -1.3631
  411MOL0     H56711   8.588   7.889   2.772  1.4116  0.9790 -0.6401
  411MOL0     H56712   8.520   8.144   2.630  0.5217  1.1114  0.3834
  411MOL0     H56713   8.676   8.106   2.697  0.3194 -1.7402 -0.1803
  411MOL0     H56714   8.486   8.174   3.067 -0.3865  0.8254 -0.3182
  411MOL0     H56715   8.412   7.495   2.497  0.3942 -1.1699 -0.7992
  411MOL0     H56716   8.322   7.303   2.459 -0.2601  0.3199 -1.0563
  411MOL0     H56717   8.394   7.182   2.347 -1.1111  0.1710 -0.8703
  411MOL0     H56718   8.449   7.186   2.521 -1.3696  0.7606  0.0919
  412MOL0     O56719  10.070   2.534   6.898  0.1435 -0.9137 -0.7626
  412MOL0     C56720  10.020   2.457   6.982  0.6659 -0.1007 -0.8361
  412MOL0     O56721  10.030   2.319   6.982 -0.4640 -0.2620  0.1791
  412MOL0     C56722  10.034   2.261   6.863 -0.0933 -0.1554  0.3476
  412MOL0     C56723  10.137   2.279   6.772 -0.1289 -0.0809 -0.7378
  412MOL0     C56724  10.148   2.207   6.651 -0.1140 -0.0839 -0.5522
  412MOL0     C56725  10.051   2.110   6.623 -0.0323  0.7470 -0.8489
  412MOL0     O56726  10.054   2.037   6.504  0.2163  0.6183 -0.0504
  412MOL0     C56727   9.946   2.036   6.416  0.0535  0.3273  0.0818
  412MOL0     C56728   9.931   1.912   6.336  0.1229  0.6983  0.4897
  412MOL0     C56729   9.852   1.934   6.202 -1.1149 -0.0579 -0.6064
  412MOL0     C56730   9.935   1.879   6.085  0.7281  0.2111 -0.2181
  412MOL0     C56731   9.910   1.941   5.951 -0.0736  0.1653  0.1287
  412MOL0     C56732   9.985   1.859   5.846  0.2226  0.3657 -0.9603
  412MOL0     C56733   9.907   1.831   5.726  0.6878 -0.4985  0.6023
  412MOL0     C56734   9.965   1.716   5.646 -0.0321 -0.3056  0.7493
  412MOL0     N56735   9.887   1.595   5.660 -0.0703  0.0341 -0.2349
  412MOL0     C56736   9.856   1.538   5.783 -0.3542 -0.6756  0.6692
  412MOL0     C56737   9.817   1.404   5.755  0.5061  0.1735 -0.0823
  412MOL0     C56738   9.764   1.318   5.860 -0.5251 -0.2117  0.3443
  412MOL0     C56739   9.616   1.326   5.885 -0.0718  0.7934 -0.1731
  412MOL0     C56740   9.560   1.460   5.930  0.0570  0.2808 -0.3069
  412MOL0     C56741   9.599   1.494   6.069 -0.8603  0.6328 -0.1332
  412MOL0     O56742   9.563   1.394   6.168  0.0791 -0.0087  0.5417
  412MOL0     C56743   9.454   1.449   6.232  1.1815  0.6562 -0.7770
  412MOL0     C56744   9.480   1.538   6.341  1.5906 -0.2138 -0.4105
  412MOL0     C56745   9.371   1.592   6.425 -1.1804 -0.1574  0.0505
  412MOL0     C56746   9.426   1.682   6.537  0.4359 -0.1215 -0.4937
  412MOL0     C56747   9.231   1.553   6.399  1.0574 -0.2800 -0.0267
  412MOL0     C56748   9.109   1.606   6.471 -0.0408  0.3027 -0.1371
  412MOL0     O56749   8.991   1.551   6.434 -0.0725 -0.3683  0.4544
  412MOL0     C56750   8.880   1.630   6.438  0.1784 -0.1644  0.4026
  412MOL0     C56751   8.810   1.620   6.323  0.1755 -0.7004  0.4421
  412MOL0     C56752   8.697   1.701   6.310 -0.3857  0.7135  0.2531
  412MOL0     C56753   8.637   1.777   6.417 -0.1453  0.2424 -0.4568
  412MOL0     O56754   8.503   1.828   6.414 -0.1363  0.1527  0.2800
  412MOL0     C56755   8.464   1.948   6.488  0.7992 -0.0212  0.4380
  412MOL0     C56756   8.313   1.922   6.539  0.7302  0.0776  0.2529
  412MOL0     C56757   8.268   2.047   6.615  0.1696  0.0727  0.1083
  412MOL0     C56758   8.223   2.146   6.510  0.1144 -0.2579  0.1702
  412MOL0     C56759   8.148   2.264   6.583  0.1533  0.0752  0.1174
  412MOL0     C56760   8.241   2.347   6.670  0.2888  0.1691  0.2002
  412MOL0     C56761   8.161   2.453   6.741 -1.1642 -1.1403 -0.2361
  412MOL0     C56762   8.251   2.565   6.794  1.0336 -0.5119  0.7585
  412MOL0    Cl56763   8.392   2.496   6.882  0.0125 -0.0088  0.0092
  412MOL0     C56764   8.711   1.771   6.538 -0.0060 -0.0545 -0.5311
  412MOL0     C56765   8.828   1.700   6.548  0.2472 -0.2620  0.4061
  412MOL0     O56766   9.132   1.697   6.549  0.8936 -0.0233  0.1526
  412MOL0     C56767   9.211   1.461   6.290  0.4660  0.9246  0.8318
  412MOL0     C56768   9.320   1.414   6.210  0.4932 -0.1517 -0.3452
  412MOL0     N56769   9.829   1.379   5.619  0.5836 -0.7796  0.4094
  412MOL0     N56770   9.863   1.493   5.566 -0.1710 -0.0450  0.1452
  412MOL0     C56771   9.953   2.091   6.713 -0.3141  0.2018 -0.2430
  412MOL0     C56772   9.931   2.177   6.820  0.2166 -0.0221  0.3245
  412MOL0     C56773   9.941   2.530   7.092  0.2108  0.3550  0.8280
  412MOL0     C56774   9.979   2.662   7.125 -0.1266  0.2761  0.0916
  412MOL0     C56775   9.918   2.728   7.238 -0.7488 -1.0008 -0.3675
  412MOL0     C56776   9.807   2.677   7.307 -0.1090  0.2779 -0.3418
  412MOL0     O56777   9.741   2.737   7.409  0.9939  0.1979  0.3290
  412MOL0     C56778   9.667   2.860   7.370 -0.5317 -0.6953 -0.2503
  412MOL0     C56779   9.516   2.837   7.360  0.2803  0.1698 -0.6019
  412MOL0     C56780   9.475   2.757   7.239  0.1531  0.0395 -0.2633
  412MOL0     C56781   9.503   2.827   7.105  0.0982  0.4331  0.5387
  412MOL0     C56782   9.428   2.962   7.099 -0.2269  1.3187  0.2798
  412MOL0     C56783   9.366   3.063   7.088  0.6844  0.5331  0.3244
  412MOL0     C56784   9.774   2.545   7.280  0.1118 -1.1078  0.2569
  412MOL0     C56785   9.836   2.472   7.173 -0.3478 -0.0227 -0.1933
  412MOL0     C56786   9.784   2.337   7.131 -0.4188  0.7468 -0.1086
  412MOL0     H56787  10.227   2.330   6.804  0.9300 -3.1020  1.6442
  412MOL0     H56788  10.229   2.218   6.579  1.3503 -2.8498  0.5085
  412MOL0     H56789   9.960   2.121   6.348 -0.1736 -0.4252 -0.9428
  412MOL0     H56790   9.850   2.055   6.466 -1.1946 -1.0885 -1.6252
  412MOL0     H56791  10.030   1.870   6.319  1.1367  1.9494  2.8927
  412MOL0     H56792   9.873   1.840   6.395 -1.5572  1.2747 -0.3869
  412MOL0     H56793   9.756   1.882   6.206  0.0943 -2.2962  1.0504
  412MOL0     H56794   9.835   2.040   6.179  1.2682 -0.0336 -2.6740
  412MOL0     H56795  10.038   1.912   6.105  0.5434  0.9536 -0.4326
  412MOL0     H56796   9.929   1.770   6.083 -3.5233  0.2695 -1.2438
  412MOL0     H56797   9.954   2.041   5.951  0.8562 -0.2253 -0.3645
  412MOL0     H56798   9.801   1.944   5.946 -0.1459  0.2618  1.5374
  412MOL0     H56799  10.083   1.902   5.823 -0.5650  1.7281 -1.8944
  412MOL0     H56800  10.003   1.762   5.895 -2.5943  0.2903  0.1259
  412MOL0     H56801   9.913   1.921   5.665 -2.5054 -0.7772 -0.3076
  412MOL0     H56802   9.802   1.811   5.752 -1.4925  3.3923 -3.7213
  412MOL0     H56803   9.955   1.733   5.539 -1.6516 -1.7772  0.6216
  412MOL0     H56804  10.072   1.698   5.662  0.5439  2.0135 -0.1264
  412MOL0     H56805   9.866   1.587   5.879 -0.7836  1.5336 -0.3475
  412MOL0     H56806   9.823   1.325   5.952 -1.2798  0.3689  0.7951
  412MOL0     H56807   9.783   1.213   5.834  1.2333 -0.3206  1.9166
  412MOL0     H56808   9.577   1.311   5.784  2.2285 -3.7922 -0.6447
  412MOL0     H56809   9.588   1.242   5.949  0.3797 -2.2147 -3.6492
  412MOL0     H56810   9.598   1.537   5.863  0.0022  0.8368  0.2970
  412MOL0     H56811   9.451   1.446   5.930  0.0919 -0.0126  0.2756
  412MOL0     H56812   9.708   1.494   6.053 -0.6438 -1.0176  1.1139
  412MOL0     H56813   9.567   1.598   6.081  0.5935  1.2336 -1.1348
  412MOL0     H56814   9.586   1.558   6.352  1.5409  0.3076 -0.8554
  412MOL0     H56815   9.365   1.772   6.531  1.3911  0.5263 -0.9165
  412MOL0     H56816   9.527   1.724   6.529 -0.3985  2.8462  2.2015
  412MOL0     H56817   9.425   1.637   6.636 -0.4426  2.0611  0.5411
  412MOL0     H56818   8.854   1.563   6.241 -1.5303 -0.3121 -0.8140
  412MOL0     H56819   8.645   1.704   6.214 -2.9903 -0.5832  1.5251
  412MOL0     H56820   8.524   1.970   6.577 -0.3084  1.6649  0.7976
  412MOL0     H56821   8.463   2.040   6.429  0.0214 -0.0146  0.4523
  412MOL0     H56822   8.243   1.897   6.459 -1.4843 -0.6211  2.2863
  412MOL0     H56823   8.316   1.844   6.616 -3.1239  0.0225  0.5432
  412MOL0     H56824   8.351   2.087   6.674 -0.6734  3.8374 -0.9329
  412MOL0     H56825   8.187   2.028   6.687 -2.5302 -0.2476 -2.7748
  412MOL0     H56826   8.162   2.097   6.434  1.4348 -0.7857 -0.5894
  412MOL0     H56827   8.305   2.193   6.454 -1.6063  0.6879 -1.6883
  412MOL0     H56828   8.113   2.333   6.505  1.1746 -0.6542 -1.0165
  412MOL0     H56829   8.066   2.227   6.645  0.8205  1.1214  1.6796
  412MOL0     H56830   8.320   2.392   6.608 -1.0057  1.0940 -0.8290
  412MOL0     H56831   8.294   2.289   6.746  0.6108 -0.2225 -0.3114
  412MOL0     H56832   8.106   2.407   6.824  1.0153  0.4665  2.2884
  412MOL0     H56833   8.079   2.498   6.684 -0.2583  2.4737  1.0432
  412MOL0     H56834   8.196   2.630   6.863 -0.1472  0.2162 -0.8089
  412MOL0     H56835   8.295   2.626   6.715  0.6358 -1.2133 -0.0250
  412MOL0     H56836   8.671   1.810   6.631 -1.3933 -0.3267 -0.9954
  412MOL0     H56837   8.872   1.685   6.646  0.6793 -1.4013  0.0576
  412MOL0     H56838   9.115   1.422   6.258  0.7127  1.2662 -0.3637
  412MOL0     H56839   9.291   1.338   6.138  2.4256 -0.2988 -1.0200
  412MOL0     H56840   9.870   2.025   6.691 -0.6754  0.6641 -0.2596
  412MOL0     H56841   9.842   2.168   6.882 -0.4522 -0.9845 -0.7258
  412MOL0     H56842  10.065   2.712   7.082  0.7652 -0.0297  1.4716
  412MOL0     H56843   9.950   2.828   7.263 -2.3422 -0.7698  0.8556
  412MOL0     H56844   9.696   2.943   7.435 -2.4290  0.6443 -1.0272
  412MOL0     H56845   9.698   2.892   7.270 -3.7568  3.9280 -0.0709
  412MOL0     H56846   9.463   2.932   7.356 -0.4205 -0.2187 -0.9263
  412MOL0     H56847   9.468   2.794   7.449 -3.2474 -0.6129 -2.7112
  412MOL0     H56848   9.516   2.656   7.241  0.7881  0.2321  3.9126
  412MOL0     H56849   9.369   2.741   7.260  0.8719 -0.7297  3.2577
  412MOL0     H56850   9.468   2.752   7.033  0.3251 -1.1926  2.0471
  412MOL0     H56851   9.609   2.846   7.084 -0.0560  2.5887  1.5025
  412MOL0     H56852   9.302   3.149   7.090  1.8831  1.4786 -0.1983
  412MOL0     H56853   9.699   2.500   7.344  0.8434  1.6809  3.3017
  412MOL0     H56854   9.688   2.319   7.181  0.0976  1.5681  1.2266
  412MOL0     H56855   9.757   2.329   7.025  2.1824 -1.8626 -0.6810
  412MOL0     H56856   9.861   2.261   7.146  1.1355  2.4692  1.0651
  413MOL0     O56857   9.322   4.294   5.927 -0.1911  0.0530  0.2487
  413MOL0     C56858   9.235   4.313   6.011 -0.2457  0.0678  0.6492
  413MOL0     O56859   9.221   4.427   6.084 -0.2474  0.1970 -0.5270
  413MOL0     C56860   9.306   4.530   6.068 -0.8987  0.2366 -0.2676
  413MOL0     C56861   9.369   4.573   6.177  0.6730  0.8482  0.0618
  413MOL0     C56862   9.441   4.700   6.188  0.4540 -0.0395  0.8286
  413MOL0     C56863   9.452   4.778   6.072 -0.1565 -0.5230 -0.2639
  413MOL0     O56864   9.532   4.889   6.079  0.1653  0.1497 -0.0941
  413MOL0     C56865   9.633   4.911   5.978 -0.1101  0.3644 -0.0076
  413MOL0     C56866   9.589   4.996   5.864  0.2992 -0.7747 -0.6325
  413MOL0     C56867   9.703   5.055   5.787  0.3482  0.1570 -0.7779
  413MOL0     C56868   9.650   5.156   5.685  0.2347  0.4541 -0.3680
  413MOL0     C56869   9.776   5.211   5.606  0.6858  0.5957 -0.4857
  413MOL0     C56870   9.741   5.305   5.493  0.0038 -0.2776 -0.3017
  413MOL0     C56871   9.854   5.391   5.417  0.3526  0.4511 -0.3840
  413MOL0     C56872   9.969   5.305   5.366  0.9270  0.5629  0.0210
  413MOL0     N56873  10.039   5.367   5.261 -0.8281 -0.1069  0.1218
  413MOL0     C56874  10.073   5.503   5.265 -0.3372 -0.4413 -0.0970
  413MOL0     C56875  10.167   5.513   5.166 -0.6641  0.5553 -0.0353
  413MOL0     C56876  10.230   5.641   5.118  0.8562  0.2903  0.3017
  413MOL0     C56877  10.379   5.630   5.072 -0.8769  0.7315 -0.1900
  413MOL0     C56878  10.402   5.591   4.926  0.1281  1.3509  0.0073
  413MOL0     C56879  10.543   5.598   4.876 -0.0454  0.6586 -0.0265
  413MOL0     O56880  10.587   5.735   4.875 -0.5697  0.3044  0.2998
  413MOL0     C56881  10.666   5.767   4.772 -1.0467 -0.2054  0.0120
  413MOL0     C56882  10.637   5.877   4.686  0.0829  0.2078  0.3144
  413MOL0     C56883  10.718   5.908   4.575  0.0593 -0.4672 -0.0605
  413MOL0     C56884  10.669   6.023   4.490 -0.1386  0.0253 -0.0674
  413MOL0     C56885  10.846   5.848   4.559  0.3760  0.5724  0.0316
  413MOL0     C56886  10.928   5.869   4.435  0.8707  0.3052  0.0544
  413MOL0     O56887  10.908   5.988   4.361 -0.0483 -0.4803  0.5632
  413MOL0     C56888  10.923   5.971   4.221  0.2095  1.3620 -0.0849
  413MOL0     C56889  10.867   5.858   4.151 -0.0496 -0.3563  0.1348
  413MOL0     C56890  10.904   5.846   4.009 -0.5547  0.4518  0.1898
  413MOL0     C56891  10.985   5.936   3.940 -0.2696  0.3817 -0.2215
  413MOL0     O56892  11.008   5.912   3.805  0.5224 -0.4642 -0.2155
  413MOL0     C56893  11.099   6.000   3.722  0.2506  0.6919 -0.8445
  413MOL0     C56894  11.023   6.139   3.693 -0.4564  0.2033 -0.9061
  413MOL0     C56895  11.106   6.239   3.617 -0.1251  0.4767  0.3512
  413MOL0     C56896  11.144   6.191   3.471  0.2273  0.1398  0.1686
  413MOL0     C56897  11.235   6.285   3.397 -0.3895  0.4840 -0.1901
  413MOL0     C56898  11.376   6.276   3.449 -0.4423 -1.1392 -0.2386
  413MOL0     C56899  11.469   6.378   3.377 -0.5802  0.5887 -0.5981
  413MOL0     C56900  11.490   6.366   3.228  0.2157 -0.4741  0.3546
  413MOL0    Cl56901  11.521   6.204   3.158 -0.6228 -0.2389 -0.1864
  413MOL0     C56902  11.021   6.042   4.020 -0.2201 -0.5958  0.3105
  413MOL0     C56903  11.001   6.059   4.156  0.3738  0.6443  0.8524
  413MOL0     O56904  11.010   5.777   4.413  0.5688 -0.7025 -0.7879
  413MOL0     C56905  10.879   5.744   4.647 -1.1384  0.3421  0.5083
  413MOL0     C56906  10.791   5.705   4.755  0.2988 -0.1764 -0.2701
  413MOL0     N56907  10.189   5.384   5.114 -0.3475  0.2954  0.1134
  413MOL0     N56908  10.109   5.303   5.160  1.0096 -0.5946  0.1069
  413MOL0     C56909   9.395   4.720   5.957 -0.0417 -0.7820 -0.1695
  413MOL0     C56910   9.320   4.602   5.954  0.5040 -0.1399  0.9230
  413MOL0     C56911   9.124   4.222   6.013 -0.0172 -0.1792 -0.8571
  413MOL0     C56912   9.127   4.116   5.909 -0.0515  0.0334 -0.8714
  413MOL0     C56913   9.029   4.023   5.902  0.3936  0.0596 -0.6398
  413MOL0     C56914   8.912   4.018   5.983  0.6841  1.0466  0.0641
  413MOL0     O56915   8.818   3.916   5.984 -0.0230  0.7497  0.0555
  413MOL0     C56916   8.758   3.872   5.857  0.3437  0.0870  0.0014
  413MOL0     C56917   8.659   3.972   5.803 -1.1378  0.4464 -0.6537
  413MOL0     C56918   8.516   3.936   5.819  0.2171  0.2232  0.0836
  413MOL0     C56919   8.480   3.944   5.972  0.3397  0.1397 -0.6951
  413MOL0     C56920   8.465   3.809   6.038  0.2423 -0.4358 -0.3006
  413MOL0     C56921   8.449   3.703   6.094 -0.1105 -0.4639 -0.6576
  413MOL0     C56922   8.907   4.116   6.084 -0.7924  0.3898 -0.0145
  413MOL0     C56923   9.006   4.214   6.089  0.0582 -1.0781  0.1791
  413MOL0     C56924   8.981   4.337   6.180 -0.0850  0.3292 -0.1057
  413MOL0     H56925   9.360   4.512   6.267 -0.5538  2.0426  0.7800
  413MOL0     H56926   9.500   4.730   6.274  1.1575 -1.8220  1.0186
  413MOL0     H56927   9.664   4.814   5.938 -4.0030 -0.7300 -0.7788
  413MOL0     H56928   9.720   4.957   6.026 -1.8339  0.7098  3.0234
  413MOL0     H56929   9.531   4.945   5.787  0.2939  0.2747 -1.3428
  413MOL0     H56930   9.536   5.081   5.907  3.2282  0.4887  0.7673
  413MOL0     H56931   9.776   5.107   5.849 -2.1940  4.8676 -1.2473
  413MOL0     H56932   9.752   4.976   5.730 -2.1060 -0.6881 -1.8697
  413MOL0     H56933   9.574   5.109   5.622  0.1663 -1.0013  0.7236
  413MOL0     H56934   9.596   5.240   5.730  0.4763  0.5423 -0.2371
  413MOL0     H56935   9.839   5.131   5.566  2.6988  1.3847  0.9600
  413MOL0     H56936   9.844   5.269   5.670 -3.3237  3.8212  1.3358
  413MOL0     H56937   9.700   5.235   5.419 -1.2573  0.6587 -0.5117
  413MOL0     H56938   9.673   5.379   5.534 -2.0437 -2.3594  0.2933
  413MOL0     H56939   9.895   5.463   5.489 -0.8563  0.5744  0.2070
  413MOL0     H56940   9.803   5.447   5.338 -2.8481  2.7530  2.9356
  413MOL0     H56941  10.032   5.277   5.451 -0.7813 -2.1080  0.5379
  413MOL0     H56942   9.944   5.209   5.321  2.2430  0.7909 -1.2625
  413MOL0     H56943  10.035   5.583   5.328  0.7726  0.7365 -0.8754
  413MOL0     H56944  10.241   5.707   5.204  0.3249  0.7432  0.0293
  413MOL0     H56945  10.168   5.696   5.046 -0.4011 -2.1250 -0.5985
  413MOL0     H56946  10.428   5.727   5.082  0.4140  0.4557 -2.9328
  413MOL0     H56947  10.438   5.553   5.123 -0.7648 -0.8104 -2.5342
  413MOL0     H56948  10.377   5.485   4.918 -0.4621  1.4757  0.1918
  413MOL0     H56949  10.330   5.638   4.859 -0.9779 -2.2025 -1.5149
  413MOL0     H56950  10.622   5.540   4.924  1.2394  2.9805  0.7823
  413MOL0     H56951  10.541   5.563   4.772  2.0636  1.8851 -0.5329
  413MOL0     H56952  10.544   5.927   4.707 -0.6624 -0.4789 -1.1654
  413MOL0     H56953  10.571   6.059   4.522  0.7398  0.9978  1.7052
  413MOL0     H56954  10.672   5.993   4.385  3.6945  1.1044 -0.4285
  413MOL0     H56955  10.737   6.107   4.508  2.6676 -2.4306  1.6771
  413MOL0     H56956  10.811   5.786   4.210 -0.6854  1.2729  1.6068
  413MOL0     H56957  10.854   5.768   3.953  1.4680 -1.2817  0.6873
  413MOL0     H56958  11.186   6.024   3.783 -0.5787  1.6793 -0.0096
  413MOL0     H56959  11.117   5.941   3.632  0.5556  0.8516 -0.8897
  413MOL0     H56960  10.933   6.112   3.638  0.6158 -1.0890 -2.1241
  413MOL0     H56961  11.009   6.193   3.787 -0.5700  0.8189 -1.2743
  413MOL0     H56962  11.202   6.247   3.669  1.3331 -0.9652 -1.9191
  413MOL0     H56963  11.060   6.337   3.624  0.3979  1.0268 -2.5178
  413MOL0     H56964  11.046   6.206   3.425  1.7651  1.4984 -2.9682
  413MOL0     H56965  11.167   6.085   3.465  2.3772  0.6421 -3.1738
  413MOL0     H56966  11.253   6.246   3.296 -0.5273 -0.7901  0.2691
  413MOL0     H56967  11.202   6.389   3.390  0.0049  0.7844  1.7817
  413MOL0     H56968  11.422   6.177   3.451  1.8587 -0.1292  0.7979
  413MOL0     H56969  11.366   6.307   3.554 -2.9578  2.4716 -1.3401
  413MOL0     H56970  11.567   6.366   3.423 -2.1259 -1.0676  2.6194
  413MOL0     H56971  11.422   6.471   3.408 -1.2451 -0.0333  0.3183
  413MOL0     H56972  11.569   6.431   3.188 -1.8996  2.3097  0.4068
  413MOL0     H56973  11.400   6.412   3.186  0.1260 -2.5430 -1.9446
  413MOL0     H56974  11.079   6.121   3.972 -1.7879  0.3011 -0.1797
  413MOL0     H56975  11.032   6.144   4.216  0.5677  1.3468 -0.2155
  413MOL0     H56976  10.973   5.690   4.634 -1.6140 -0.0193 -1.8122
  413MOL0     H56977  10.821   5.628   4.826 -2.1374  0.3369  1.4235
  413MOL0     H56978   9.431   4.766   5.866 -1.4955  2.3785  0.7223
  413MOL0     H56979   9.283   4.570   5.857  3.0114 -2.1430  0.5232
  413MOL0     H56980   9.212   4.112   5.842  0.5381 -0.7402 -0.0889
  413MOL0     H56981   9.046   3.945   5.828  0.0368 -2.0154  1.3371
  413MOL0     H56982   8.845   3.849   5.794  1.8505  1.2661  1.5305
  413MOL0     H56983   8.710   3.775   5.870  0.3046  0.1073  0.0062
  413MOL0     H56984   8.697   3.982   5.701 -0.3693 -2.8342 -0.7963
  413MOL0     H56985   8.676   4.060   5.865  2.6517 -2.4644  3.0288
  413MOL0     H56986   8.444   4.001   5.767 -0.8257 -1.0656 -0.1280
  413MOL0     H56987   8.492   3.840   5.773 -1.0328  1.7609 -2.7363
  413MOL0     H56988   8.385   3.995   5.992 -0.8486 -2.7167  1.6814
  413MOL0     H56989   8.559   3.996   6.027 -0.2219 -2.7518  3.3306
  413MOL0     H56990   8.455   3.610   6.146  0.1397  0.4018  0.9211
  413MOL0     H56991   8.823   4.125   6.152 -1.7475 -0.4977 -1.0349
  413MOL0     H56992   9.052   4.353   6.262 -0.9754  2.4819  0.3227
  413MOL0     H56993   8.973   4.428   6.120 -0.2753  0.4665  0.1278
  413MOL0     H56994   8.880   4.332   6.221 -1.1115  2.9483 -2.0691
  414MOL0     O56995  10.429  11.416   8.599  0.6216  0.1711  0.1249
  414MOL0     C56996  10.351  11.438   8.697 -0.7770  0.2122  0.0402
  414MOL0     O56997  10.377  11.393   8.827 -0.1039 -0.2428 -0.0030
  414MOL0     C56998  10.484  11.322   8.868  0.1701 -0.4364 -0.4221
  414MOL0     C56999  10.590  11.255   8.799 -1.0005 -0.6113 -0.0253
  414MOL0     C57000  10.690  11.189   8.870 -0.6531  0.7838  0.9862
  414MOL0     C57001  10.700  11.184   9.011 -0.5129 -0.0419  0.5852
  414MOL0     O57002  10.810  11.129   9.079  0.5499  0.0340  1.0111
  414MOL0     C57003  10.814  11.138   9.220  0.2032  0.1900  0.0124
  414MOL0     C57004  10.962  11.096   9.258  0.7080 -0.9791  0.8560
  414MOL0     C57005  11.001  10.956   9.201  0.0190 -0.8713 -0.4398
  414MOL0     C57006  11.124  10.898   9.284  1.3234  0.8150 -0.1817
  414MOL0     C57007  11.108  10.741   9.293 -0.2438 -0.2484  0.5259
  414MOL0     C57008  11.236  10.679   9.344  0.0690  0.0986 -0.0430
  414MOL0     C57009  11.238  10.527   9.367  0.5160  0.1075 -0.3172
  414MOL0     C57010  11.349  10.468   9.453 -0.3498 -0.0650  0.2423
  414MOL0     N57011  11.484  10.536   9.428  0.6862  0.2654  0.5034
  414MOL0     C57012  11.545  10.559   9.304 -0.2729 -0.3772 -0.3289
  414MOL0     C57013  11.637  10.660   9.339 -0.4614  1.3037  0.4800
  414MOL0     C57014  11.738  10.716   9.248 -1.0881  0.8384 -0.6737
  414MOL0     C57015  11.877  10.664   9.263 -0.1331 -0.4891  0.1030
  414MOL0     C57016  11.955  10.757   9.357  0.1223  0.3399  0.6965
  414MOL0     C57017  12.112  10.720   9.339  0.9016 -0.7857  0.4924
  414MOL0     O57018  12.145  10.603   9.415  0.7816  0.3696  0.5837
  414MOL0     C57019  12.238  10.521   9.361  0.2525 -0.2665 -0.0499
  414MOL0     C57020  12.227  10.384   9.387 -0.4814 -0.8981  0.3378
  414MOL0     C57021  12.329  10.298   9.332  0.5447  0.0586  1.0354
  414MOL0     C57022  12.306  10.152   9.343 -0.0540 -0.5055 -0.4263
  414MOL0     C57023  12.443  10.354   9.272  0.1239 -1.3756  0.1729
  414MOL0     C57024  12.564  10.272   9.232  0.2380  0.6062  0.4272
  414MOL0     O57025  12.672  10.341   9.179 -0.3663  0.1252  0.0760
  414MOL0     C57026  12.773  10.270   9.122 -0.0884 -0.4533  0.3807
  414MOL0     C57027  12.863  10.191   9.185 -1.2279 -0.5266 -0.1899
  414MOL0     C57028  12.977  10.151   9.110 -0.1323 -0.0414  0.2563
  414MOL0     C57029  13.012  10.196   8.986 -0.3844 -0.7915  0.3575
  414MOL0     O57030  13.132  10.161   8.932 -0.2802 -0.1906  0.0404
  414MOL0     C57031  13.190  10.260   8.839 -0.4372 -0.4382 -0.3637
  414MOL0     C57032  13.351  10.266   8.869  0.8139 -0.3549  0.2605
  414MOL0     C57033  13.429  10.338   8.760  0.2833  0.8037 -0.1712
  414MOL0     C57034  13.576  10.328   8.772 -0.4495  0.1701  0.3318
  414MOL0     C57035  13.640  10.413   8.664  0.6137 -0.2491 -0.4073
  414MOL0     C57036  13.787  10.407   8.678 -0.3086 -0.5507  0.1833
  414MOL0     C57037  13.858  10.475   8.558 -0.1663  0.6675 -0.3884
  414MOL0     C57038  14.006  10.476   8.572 -0.5539  0.6621 -0.6269
  414MOL0    Cl57039  14.091  10.546   8.420  0.4874 -0.0458  0.3079
  414MOL0     C57040  12.919  10.283   8.930  0.1466  0.1026  0.5065
  414MOL0     C57041  12.797  10.316   8.990  1.1038  0.3972  0.5989
  414MOL0     O57042  12.557  10.146   9.224 -0.0074 -0.0640 -0.1668
  414MOL0     C57043  12.464  10.499   9.270  1.6735 -0.1056 -0.5976
  414MOL0     C57044  12.356  10.579   9.306 -0.8358  0.0143  1.1346
  414MOL0     N57045  11.634  10.686   9.474 -0.0840  1.6001  0.5851
  414MOL0     N57046  11.538  10.606   9.525  0.2467 -0.4306 -0.1193
  414MOL0     C57047  10.605  11.266   9.075 -0.8500  0.7155 -0.3237
  414MOL0     C57048  10.493  11.321   9.008 -0.6533 -0.1574  0.6407
  414MOL0     C57049  10.241  11.529   8.677  0.0123  0.1070 -0.9428
  414MOL0     C57050  10.205  11.619   8.775 -0.0108 -0.5135 -0.0348
  414MOL0     C57051  10.108  11.721   8.755  0.0070  0.7657  0.1688
  414MOL0     C57052  10.039  11.730   8.632 -0.4561  1.1538 -0.2075
  414MOL0     O57053   9.951  11.824   8.593  0.0361  0.2762  0.1091
  414MOL0     C57054   9.927  11.932   8.688 -0.2342 -0.1233  0.3825
  414MOL0     C57055   9.830  12.049   8.650 -0.6200 -0.1027  0.2357
  414MOL0     C57056   9.689  11.997   8.609 -0.1177 -0.4294 -0.1325
  414MOL0     C57057   9.606  12.125   8.558 -0.5639 -0.0276  0.9064
  414MOL0     C57058   9.492  12.077   8.481  0.0720  0.4799 -0.0826
  414MOL0     C57059   9.404  12.032   8.410 -0.0494 -0.7605  0.8594
  414MOL0     C57060  10.092  11.651   8.530 -0.2042 -0.1952 -0.5280
  414MOL0     C57061  10.180  11.543   8.553 -0.2027 -0.2594 -0.0772
  414MOL0     C57062  10.180  11.453   8.430 -0.2915  0.0757  0.0900
  414MOL0     H57063  10.598  11.256   8.690 -1.1919  0.5062 -0.0367
  414MOL0     H57064  10.762  11.148   8.800 -3.2250  0.7808 -1.8099
  414MOL0     H57065  10.743  11.069   9.267 -1.1754  1.9659  0.6541
  414MOL0     H57066  10.803  11.241   9.256  1.0607  0.3667 -0.1966
  414MOL0     H57067  11.014  11.187   9.227  0.8137 -1.1646  0.4915
  414MOL0     H57068  10.965  11.110   9.367  3.9119 -1.5187  0.9216
  414MOL0     H57069  10.910  10.901   9.226  1.1611 -0.6276  5.9843
  414MOL0     H57070  11.022  10.964   9.094 -1.7286 -0.1373 -0.7585
  414MOL0     H57071  11.215  10.929   9.232 -0.0242  1.5033 -2.2439
  414MOL0     H57072  11.119  10.934   9.387  1.5627  0.4689 -0.0451
  414MOL0     H57073  11.091  10.703   9.192 -2.5501  0.7415  0.4559
  414MOL0     H57074  11.019  10.722   9.355  0.9828 -0.1676  2.3763
  414MOL0     H57075  11.320  10.708   9.280  0.1733  0.2709  0.1722
  414MOL0     H57076  11.257  10.718   9.444 -0.9489 -0.3701  0.3699
  414MOL0     H57077  11.226  10.475   9.272  0.3028  0.6912 -0.6146
  414MOL0     H57078  11.148  10.502   9.424  0.8346 -3.0164 -1.0240
  414MOL0     H57079  11.331  10.476   9.561 -0.2929 -0.1148  0.2551
  414MOL0     H57080  11.364  10.362   9.431 -1.2468 -0.8565  3.0133
  414MOL0     H57081  11.509  10.523   9.208 -2.2331 -2.2217  0.9938
  414MOL0     H57082  11.730  10.823   9.268 -4.1285  0.7107 -0.7071
  414MOL0     H57083  11.698  10.687   9.151  2.3414 -2.8794 -1.2387
  414MOL0     H57084  11.867  10.561   9.298  0.1611 -0.9874 -1.2089
  414MOL0     H57085  11.916  10.650   9.162 -1.8261  1.9859 -0.9774
  414MOL0     H57086  11.936  10.863   9.337  1.2312  0.6087  1.0219
  414MOL0     H57087  11.936  10.749   9.465  4.0546  0.0702  1.5026
  414MOL0     H57088  12.113  10.706   9.230 -0.8923  1.2805  0.1371
  414MOL0     H57089  12.176  10.802   9.371 -0.3973 -0.2739  1.8953
  414MOL0     H57090  12.145  10.346   9.447 -0.5832  2.6901  2.7728
  414MOL0     H57091  12.205  10.129   9.379  0.1175  1.2382  1.3709
  414MOL0     H57092  12.375  10.127   9.424  0.1288 -0.4875 -0.5762
  414MOL0     H57093  12.319  10.088   9.256 -1.0316  0.1721 -1.0903
  414MOL0     H57094  12.859  10.175   9.293  1.0349  4.6396  0.9746
  414MOL0     H57095  13.045  10.085   9.163 -2.0862 -3.1952 -0.9129
  414MOL0     H57096  13.169  10.227   8.737 -2.4221 -0.5670  0.0426
  414MOL0     H57097  13.163  10.364   8.856  0.8788 -0.1832  0.3189
  414MOL0     H57098  13.381  10.311   8.964 -1.3798  0.2966  0.6949
  414MOL0     H57099  13.385  10.162   8.870  1.9739 -0.0362 -1.1373
  414MOL0     H57100  13.390  10.437   8.734 -0.7615  0.8219  1.3203
  414MOL0     H57101  13.403  10.281   8.670  0.5065  0.2195  0.1349
  414MOL0     H57102  13.607  10.223   8.764  0.8145  0.5823 -0.3934
  414MOL0     H57103  13.600  10.375   8.867  0.4500  2.1412 -0.8158
  414MOL0     H57104  13.614  10.375   8.565  2.0350 -0.3325 -0.7721
  414MOL0     H57105  13.610  10.518   8.666 -0.3108 -0.4620 -1.9374
  414MOL0     H57106  13.822  10.304   8.688  1.8534 -0.0030 -1.0146
  414MOL0     H57107  13.815  10.454   8.773  0.7949  1.1888 -0.9356
  414MOL0     H57108  13.816  10.576   8.549 -1.7669 -0.0735 -1.9872
  414MOL0     H57109  13.819  10.432   8.465 -2.5592  0.6139  0.5630
  414MOL0     H57110  14.048  10.376   8.590  0.3968  1.3148  1.0730
  414MOL0     H57111  14.031  10.547   8.652  1.2226 -0.3339 -0.2403
  414MOL0     H57112  12.933  10.326   8.831  3.3107  0.1613  0.8688
  414MOL0     H57113  12.731  10.384   8.936  2.7361  1.0176 -0.7088
  414MOL0     H57114  12.551  10.549   9.227  2.3869 -0.2799  0.5926
  414MOL0     H57115  12.372  10.687   9.304  0.4158 -0.1410 -1.6166
  414MOL0     H57116  10.613  11.283   9.181 -0.2507 -1.9358  0.1305
  414MOL0     H57117  10.421  11.390   9.050 -2.5948 -1.6523 -0.0592
  414MOL0     H57118  10.255  11.591   8.868  1.2385 -1.3689 -0.9290
  414MOL0     H57119  10.081  11.792   8.832 -1.1252 -0.1058  0.6047
  414MOL0     H57120   9.888  11.894   8.783 -1.1995  4.2535  1.9480
  414MOL0     H57121  10.023  11.981   8.703  0.3713 -0.6198 -1.6350
  414MOL0     H57122   9.874  12.098   8.563  0.7894 -1.0700  0.3676
  414MOL0     H57123   9.825  12.124   8.730 -0.7158  0.3342 -0.1772
  414MOL0     H57124   9.711  11.932   8.523  0.2076  0.5504 -0.8132
  414MOL0     H57125   9.638  11.942   8.688  0.1816  1.9765  1.8555
  414MOL0     H57126   9.664  12.181   8.485  0.8546 -1.0657  1.1892
  414MOL0     H57127   9.572  12.193   8.637 -1.9419  1.3175 -0.7822
  414MOL0     H57128   9.317  11.998   8.357  0.9961 -2.4161  0.1521
  414MOL0     H57129  10.054  11.675   8.431 -0.0979 -0.1895 -0.5683
  414MOL0     H57130  10.257  11.375   8.437  1.2461  1.6329  2.1341
  414MOL0     H57131  10.083  11.403   8.434 -2.0560  3.1073 -1.4097
  414MOL0     H57132  10.182  11.507   8.335  0.3967  0.8854  0.5422
  415MOL0     O57133  10.579   5.296  11.384  0.2168 -0.1062 -0.9874
  415MOL0     C57134  10.633   5.225  11.304  0.3708 -0.0353 -1.2833
  415MOL0     O57135  10.565   5.138  11.226 -0.8401  0.5521 -0.6602
  415MOL0     C57136  10.433   5.170  11.215 -0.2823  0.6496 -0.7316
  415MOL0     C57137  10.372   5.286  11.159 -0.1930  0.0987  0.4572
  415MOL0     C57138  10.232   5.301  11.140 -1.2112  0.2825 -0.1759
  415MOL0     C57139  10.145   5.202  11.173  0.0198  1.2456 -0.4803
  415MOL0     O57140  10.005   5.204  11.149  0.1673  0.2362  0.0890
  415MOL0     C57141   9.935   5.325  11.181  0.3478 -0.5173 -0.5753
  415MOL0     C57142   9.781   5.308  11.141  0.4249 -0.6820 -0.3123
  415MOL0     C57143   9.702   5.196  11.213  0.4685  1.0539 -0.0921
  415MOL0     C57144   9.659   5.235  11.350 -0.3020  0.7759  0.3044
  415MOL0     C57145   9.551   5.137  11.415 -0.2452  0.0394  0.3701
  415MOL0     C57146   9.553   5.142  11.571 -0.0376 -0.5680  0.9447
  415MOL0     C57147   9.550   5.292  11.633 -0.0697  0.7594  0.3775
  415MOL0     C57148   9.648   5.317  11.747 -1.0354  0.3875  0.1282
  415MOL0     N57149   9.648   5.196  11.837 -0.0014 -0.4772 -0.2306
  415MOL0     C57150   9.540   5.132  11.891  0.8704 -0.3650  0.6599
  415MOL0     C57151   9.583   5.016  11.939 -0.4012 -0.4057  0.3397
  415MOL0     C57152   9.496   4.905  11.992  0.2151 -0.0387  0.4362
  415MOL0     C57153   9.421   4.835  11.883  0.4105 -0.4154 -1.3609
  415MOL0     C57154   9.514   4.774  11.778 -0.0646  0.2761  0.0791
  415MOL0     C57155   9.626   4.691  11.836  0.3182  0.1541  0.4578
  415MOL0     O57156   9.640   4.590  11.734  0.2829  0.4845  0.0310
  415MOL0     C57157   9.722   4.609  11.628 -1.1744 -0.3850  0.2545
  415MOL0     C57158   9.782   4.733  11.590  0.2201  0.1936  0.2328
  415MOL0     C57159   9.855   4.748  11.468 -0.1674  0.3727 -0.0223
  415MOL0     C57160   9.905   4.891  11.439  1.2462 -0.4955  0.2264
  415MOL0     C57161   9.864   4.641  11.385 -0.2085 -0.5370  0.0374
  415MOL0     C57162   9.948   4.639  11.259  0.3451 -0.2608  0.7733
  415MOL0     O57163   9.951   4.527  11.175  1.1609 -0.3700  0.0119
  415MOL0     C57164  10.020   4.529  11.057  0.5989  0.1993 -0.3536
  415MOL0     C57165   9.974   4.604  10.950 -0.6430 -0.7385  0.4682
  415MOL0     C57166  10.044   4.612  10.826  0.2844 -0.3117  0.2441
  415MOL0     C57167  10.171   4.551  10.814 -0.0303  0.0380 -0.0214
  415MOL0     O57168  10.250   4.572  10.713 -0.0377 -0.4427  0.2418
  415MOL0     C57169  10.207   4.641  10.590  0.0367 -0.0023  0.2475
  415MOL0     C57170  10.299   4.605  10.473  0.1198  0.2475 -0.1716
  415MOL0     C57171  10.263   4.466  10.404 -0.6716  0.0988 -0.5671
  415MOL0     C57172  10.354   4.441  10.283 -0.2963 -0.3773  0.0940
  415MOL0     C57173  10.331   4.308  10.214  0.7144  0.0302  1.2117
  415MOL0     C57174  10.420   4.290  10.092 -0.6313  0.5757 -0.2186
  415MOL0     C57175  10.550   4.220  10.138  0.0384 -0.2123 -0.0158
  415MOL0     C57176  10.643   4.203  10.020 -0.3843 -0.5113  0.1865
  415MOL0    Cl57177  10.745   4.056  10.017  0.1374  0.2213 -0.1258
  415MOL0     C57178  10.218   4.466  10.923 -0.3681  0.0849  0.9141
  415MOL0     C57179  10.138   4.455  11.039 -0.6267 -0.2675  0.0775
  415MOL0     O57180  10.022   4.740  11.233  1.0615 -0.0643  0.0429
  415MOL0     C57181   9.808   4.517  11.420  0.2358 -0.4109 -0.6313
  415MOL0     C57182   9.729   4.505  11.533 -0.9671 -0.0138  0.4780
  415MOL0     N57183   9.722   5.024  11.936 -0.7960 -0.0736 -0.2351
  415MOL0     N57184   9.756   5.133  11.875  0.5087  0.6952 -0.3940
  415MOL0     C57185  10.201   5.082  11.233  0.3302 -0.1719  0.9843
  415MOL0     C57186  10.336   5.073  11.249  0.4304  0.1703 -0.4737
  415MOL0     C57187  10.775   5.247  11.289 -0.1238 -0.4964  0.7845
  415MOL0     C57188  10.855   5.269  11.398  0.5104 -0.5550 -0.2201
  415MOL0     C57189  10.995   5.258  11.406  0.5421  0.2893 -0.1039
  415MOL0     C57190  11.062   5.233  11.282  0.3202 -0.2838  0.7532
  415MOL0     O57191  11.196   5.221  11.271  0.2334 -0.2599 -0.1416
  415MOL0     C57192  11.277   5.177  11.385 -0.4016 -0.7990  1.0204
  415MOL0     C57193  11.241   5.036  11.408  0.2731 -0.4392  0.0879
  415MOL0     C57194  11.341   4.967  11.490  0.0853 -0.4498 -0.3892
  415MOL0     C57195  11.328   5.012  11.637  0.0422  0.4412 -0.2394
  415MOL0     C57196  11.442   4.967  11.715 -0.1901 -0.1374  0.6772
  415MOL0     C57197  11.541   4.927  11.773 -0.4533 -0.2365 -0.7353
  415MOL0     C57198  10.983   5.223  11.170 -0.1997  0.0562  0.6229
  415MOL0     C57199  10.842   5.222  11.174 -0.6510 -0.0752 -0.5486
  415MOL0     C57200  10.771   5.211  11.033 -0.9214  0.0260 -0.1724
  415MOL0     H57201  10.439   5.359  11.116  0.3267 -1.8266 -2.3183
  415MOL0     H57202  10.199   5.388  11.085  1.5095  0.9480 -0.8834
  415MOL0     H57203   9.972   5.413  11.127 -1.9622 -1.0117 -3.2064
  415MOL0     H57204   9.949   5.338  11.289  3.6860 -2.4867 -0.6048
  415MOL0     H57205   9.733   5.404  11.163 -1.3250 -2.0371  2.3464
  415MOL0     H57206   9.769   5.275  11.037 -2.5231  0.0968 -0.3251
  415MOL0     H57207   9.608   5.170  11.162 -0.8674  0.4526  2.5268
  415MOL0     H57208   9.762   5.106  11.226  0.4770  0.7353 -2.0748
  415MOL0     H57209   9.747   5.231  11.414 -1.2192  2.4375  1.7826
  415MOL0     H57210   9.614   5.335  11.351 -0.6898  0.6497 -1.2825
  415MOL0     H57211   9.567   5.033  11.385  0.7436  0.0135  0.9648
  415MOL0     H57212   9.453   5.157  11.371  0.8551 -0.6037 -2.6176
  415MOL0     H57213   9.467   5.093  11.618  0.0630 -0.5104  1.1905
  415MOL0     H57214   9.642   5.085  11.602  1.2942  1.3968  0.8822
  415MOL0     H57215   9.450   5.322  11.664 -0.4048  2.0118 -1.6957
  415MOL0     H57216   9.575   5.364  11.554 -0.8011 -0.8886 -1.4612
  415MOL0     H57217   9.749   5.328  11.705 -0.3430 -0.5759  1.4623
  415MOL0     H57218   9.622   5.399  11.814  0.7761 -0.0798  1.4958
  415MOL0     H57219   9.436   5.163  11.885  0.8041 -0.8344 -1.9739
  415MOL0     H57220   9.414   4.957  12.042 -1.0651 -0.6557 -0.9173
  415MOL0     H57221   9.559   4.835  12.047  0.8268 -0.6901 -1.0369
  415MOL0     H57222   9.354   4.757  11.923  0.3819 -0.3526 -1.2872
  415MOL0     H57223   9.367   4.914  11.829 -1.2860 -0.1505  0.5979
  415MOL0     H57224   9.458   4.709  11.711  2.1297 -1.6847  0.0054
  415MOL0     H57225   9.563   4.848  11.715 -0.5435  1.1841  0.7456
  415MOL0     H57226   9.711   4.758  11.850 -0.1773  0.6325  1.2076
  415MOL0     H57227   9.590   4.647  11.930 -1.6389 -2.2446 -1.2822
  415MOL0     H57228   9.758   4.819  11.653 -0.8185 -1.1531  1.7633
  415MOL0     H57229  10.013   4.874  11.428  1.0098 -3.3541  1.6323
  415MOL0     H57230   9.887   4.958  11.523  0.7345 -1.2162  0.6905
  415MOL0     H57231   9.857   4.939  11.353 -1.1483 -1.0491  1.1770
  415MOL0     H57232   9.894   4.677  10.959  1.8164  2.4210 -0.8605
  415MOL0     H57233  10.001   4.671  10.746  0.2152 -1.6092 -0.6961
  415MOL0     H57234  10.101   4.617  10.574 -0.4978  0.1850  3.0903
  415MOL0     H57235  10.227   4.747  10.606 -0.1368 -0.1379  1.4026
  415MOL0     H57236  10.283   4.682  10.397 -1.0703 -1.9354 -2.3221
  415MOL0     H57237  10.402   4.592  10.507  0.5273 -0.8422 -1.6912
  415MOL0     H57238  10.157   4.462  10.379 -0.9764  2.1360  0.2112
  415MOL0     H57239  10.286   4.407  10.493 -0.7933 -1.0787 -1.3036
  415MOL0     H57240  10.453   4.453  10.328 -0.0253 -2.3212  0.0701
  415MOL0     H57241  10.339   4.505  10.196 -1.9462 -1.5434 -0.5189
  415MOL0     H57242  10.324   4.224  10.284 -1.5069  1.0548  2.3271
  415MOL0     H57243  10.230   4.318  10.171  1.3214 -2.0304 -0.8958
  415MOL0     H57244  10.444   4.381  10.038  0.7650  0.7062  0.5699
  415MOL0     H57245  10.374   4.224  10.018  1.5870  2.4923 -3.5680
  415MOL0     H57246  10.519   4.122  10.176 -3.7656  2.0042  3.3156
  415MOL0     H57247  10.599   4.280  10.215  0.0846  1.0923 -1.0275
  415MOL0     H57248  10.695   4.296   9.994 -2.8674  0.8184 -0.3020
  415MOL0     H57249  10.568   4.183   9.943  0.1644  1.2083 -0.8696
  415MOL0     H57250  10.308   4.410  10.900 -2.4232 -2.1975 -2.6595
  415MOL0     H57251  10.186   4.399  11.118  0.0927 -0.1933 -0.2935
  415MOL0     H57252   9.816   4.430  11.355 -2.8662 -2.0084  0.9244
  415MOL0     H57253   9.693   4.405  11.552  3.2608 -1.2368  3.5457
  415MOL0     H57254  10.137   4.997  11.256 -0.8150  0.7314  1.2105
  415MOL0     H57255  10.379   4.991  11.306 -1.4981  1.3353  2.9301
  415MOL0     H57256  10.807   5.292  11.493  0.0747  0.4370 -0.6606
  415MOL0     H57257  11.043   5.267  11.503  0.9893  2.4603 -0.4709
  415MOL0     H57258  11.382   5.193  11.357 -1.6072  5.2744 -1.8188
  415MOL0     H57259  11.267   5.243  11.472  2.1447 -0.9162  1.4776
  415MOL0     H57260  11.239   4.995  11.307  3.9618  3.0658 -1.7114
  415MOL0     H57261  11.137   5.025  11.439  0.8264 -3.1024  1.3036
  415MOL0     H57262  11.324   4.859  11.478  0.2778 -0.6013  0.6236
  415MOL0     H57263  11.442   4.983  11.452 -0.8255  0.1878 -2.7291
  415MOL0     H57264  11.233   4.968  11.670 -0.6370  1.8724 -0.1930
  415MOL0     H57265  11.318   5.120  11.649 -2.6318  0.2676 -0.1440
  415MOL0     H57266  11.637   4.896  11.811 -0.9382 -2.6265 -1.2963
  415MOL0     H57267  11.021   5.205  11.070  1.4234 -0.7781  1.3539
  415MOL0     H57268  10.663   5.232  11.034 -0.7988  0.6834  0.3280
  415MOL0     H57269  10.811   5.273  10.952 -3.3693  0.0198 -1.4815
  415MOL0     H57270  10.789   5.109  11.000 -1.7441 -0.0787 -0.3227
  416MOL0     O57271   8.975   7.711   8.416  0.0091 -0.0545  0.0767
  416MOL0     C57272   9.036   7.680   8.518  0.1027  0.5566  0.1679
  416MOL0     O57273   9.170   7.700   8.548  0.2704  0.4559  0.9085
  416MOL0     C57274   9.237   7.817   8.522 -0.1695  0.3590 -0.2043
  416MOL0     C57275   9.175   7.940   8.510 -0.3165 -0.7363  0.1638
  416MOL0     C57276   9.259   8.050   8.479  0.4914  0.2176  0.6751
  416MOL0     C57277   9.399   8.030   8.467 -0.1915 -0.6958  0.2068
  416MOL0     O57278   9.501   8.118   8.431 -0.5422 -0.5278 -0.0343
  416MOL0     C57279   9.458   8.249   8.406  0.7583 -0.1384 -0.5004
  416MOL0     C57280   9.574   8.354   8.426 -0.2357 -0.2022  1.0058
  416MOL0     C57281   9.668   8.329   8.541 -1.1353  0.3215  0.0516
  416MOL0     C57282   9.781   8.441   8.545  0.2390 -0.0337  0.4601
  416MOL0     C57283   9.888   8.410   8.648 -0.8496 -1.1672 -0.5534
  416MOL0     C57284  10.000   8.514   8.657 -0.2553 -0.3006 -0.8220
  416MOL0     C57285  10.052   8.540   8.802  0.6384 -0.5321  0.7272
  416MOL0     C57286   9.949   8.631   8.884 -0.2106 -0.4355  0.2588
  416MOL0     N57287  10.006   8.667   9.008  1.6274 -0.3366 -0.9402
  416MOL0     C57288  10.134   8.710   9.040 -0.4482 -0.3190 -0.0300
  416MOL0     C57289  10.153   8.710   9.173  1.3686  0.2124 -0.0889
  416MOL0     C57290  10.278   8.734   9.243 -0.5466 -0.2069 -0.5035
  416MOL0     C57291  10.344   8.603   9.257  0.3048 -0.1666  0.0148
  416MOL0     C57292  10.480   8.613   9.311 -0.7148 -0.6122  0.0334
  416MOL0     C57293  10.554   8.491   9.259  0.0246 -0.0302  0.0581
  416MOL0     O57294  10.523   8.368   9.322 -0.4150 -0.1076  0.5321
  416MOL0     C57295  10.581   8.250   9.285 -0.2029 -0.3295 -0.0046
  416MOL0     C57296  10.692   8.238   9.203  0.2949  0.1174 -1.0294
  416MOL0     C57297  10.732   8.119   9.145 -0.0471  0.6823  0.1120
  416MOL0     C57298  10.839   8.130   9.029  0.5086  0.4968 -0.3801
  416MOL0     C57299  10.666   7.993   9.181  0.3677 -0.9188 -0.7296
  416MOL0     C57300  10.695   7.861   9.121 -0.4408  0.0345  0.0304
  416MOL0     O57301  10.602   7.754   9.145 -0.2920 -0.1546 -0.8407
  416MOL0     C57302  10.604   7.631   9.079  0.4857 -0.1243  0.6306
  416MOL0     C57303  10.478   7.570   9.086  1.0740  0.5329  0.4336
  416MOL0     C57304  10.450   7.446   9.034  0.8465 -0.4656 -0.2358
  416MOL0     C57305  10.553   7.380   8.975  1.0719 -0.6999  0.2955
  416MOL0     O57306  10.540   7.256   8.921 -0.1462 -0.3478  0.1358
  416MOL0     C57307  10.643   7.158   8.909  1.5309 -0.4639  0.3340
  416MOL0     C57308  10.578   7.018   8.873  0.2365  0.2920 -0.1115
  416MOL0     C57309  10.509   7.013   8.734 -0.4053 -0.7399  0.1626
  416MOL0     C57310  10.602   7.049   8.611 -0.1640 -0.1989  0.3445
  416MOL0     C57311  10.632   6.931   8.527  1.2819  0.3147 -0.6382
  416MOL0     C57312  10.722   6.969   8.411  0.2084 -0.0066 -0.7038
  416MOL0     C57313  10.794   6.845   8.351  0.4346  0.3326 -0.8681
  416MOL0     C57314  10.915   6.874   8.254 -0.9172 -0.4970 -0.0922
  416MOL0    Cl57315  10.958   6.721   8.175 -0.6792  0.1789  0.4535
  416MOL0     C57316  10.690   7.446   8.968  0.1271 -0.6578 -0.1452
  416MOL0     C57317  10.715   7.563   9.024  0.1682 -0.5915  0.6497
  416MOL0     O57318  10.796   7.845   9.055 -0.0237  0.0334  0.1532
  416MOL0     C57319  10.561   8.008   9.271  0.1428  0.0980  0.4620
  416MOL0     C57320  10.521   8.127   9.326 -0.2518 -0.3379 -0.2090
  416MOL0     N57321  10.034   8.666   9.225 -0.2658  0.1742  0.3700
  416MOL0     N57322   9.951   8.639   9.125  0.3350  0.0583  0.1213
  416MOL0     C57323   9.462   7.904   8.493  0.2580  0.0751  0.3730
  416MOL0     C57324   9.380   7.796   8.518  0.2461  0.1609 -0.1744
  416MOL0     C57325   8.979   7.596   8.621  0.4721  0.7865 -0.4724
  416MOL0     C57326   9.018   7.609   8.759  0.6298  1.0060  0.3593
  416MOL0     C57327   8.954   7.524   8.862 -0.2227 -0.0171  0.4578
  416MOL0     C57328   8.863   7.428   8.824 -0.2935 -0.0989 -1.1457
  416MOL0     O57329   8.787   7.374   8.916  0.4348  0.5310 -0.0075
  416MOL0     C57330   8.693   7.271   8.881 -0.2362  0.3616 -1.0429
  416MOL0     C57331   8.770   7.135   8.869  0.6442 -0.7078 -1.1254
  416MOL0     C57332   8.691   7.022   8.814  0.5957 -0.6571  0.4796
  416MOL0     C57333   8.565   6.985   8.889  0.1282  0.2871  0.9650
  416MOL0     C57334   8.497   6.870   8.816 -0.6209  0.0378  0.0759
  416MOL0     C57335   8.447   6.762   8.786 -0.4924  0.3465 -0.3380
  416MOL0     C57336   8.828   7.412   8.693 -0.2808  0.1087 -0.3355
  416MOL0     C57337   8.880   7.498   8.597  0.2995 -0.3510  1.0072
  416MOL0     C57338   8.843   7.467   8.453 -0.6193  0.1399 -0.0576
  416MOL0     H57339   9.069   7.962   8.514  0.0308  0.8867  1.5452
  416MOL0     H57340   9.208   8.144   8.461 -1.0181 -0.9407 -1.5295
  416MOL0     H57341   9.383   8.285   8.477  0.0024 -0.0833 -1.3095
  416MOL0     H57342   9.412   8.258   8.307  2.2866 -0.4416 -1.2572
  416MOL0     H57343   9.636   8.347   8.336  0.3104  0.3201  1.3414
  416MOL0     H57344   9.538   8.457   8.431 -0.1054 -0.1431  0.7424
  416MOL0     H57345   9.610   8.314   8.632 -1.1086 -2.3175 -0.2853
  416MOL0     H57346   9.728   8.238   8.534 -0.0114  0.8650  1.9606
  416MOL0     H57347   9.834   8.434   8.450  0.2998 -2.5800  0.6077
  416MOL0     H57348   9.747   8.544   8.560  0.4433  0.1788 -0.4769
  416MOL0     H57349   9.947   8.318   8.646  2.1384  0.6363 -1.5534
  416MOL0     H57350   9.824   8.401   8.737  0.0086  0.6708  0.3047
  416MOL0     H57351  10.094   8.494   8.605  0.4558 -2.5858  1.1178
  416MOL0     H57352   9.968   8.612   8.620  3.3590  2.0673  1.5647
  416MOL0     H57353  10.149   8.590   8.794  1.4470 -2.2222 -0.9413
  416MOL0     H57354  10.066   8.441   8.847  0.2786 -0.0544  1.9352
  416MOL0     H57355   9.912   8.714   8.822 -2.9077  0.1497  2.4615
  416MOL0     H57356   9.848   8.587   8.883 -0.6759  0.5701 -1.3193
  416MOL0     H57357  10.214   8.732   8.969  1.7366 -0.7391  2.1695
  416MOL0     H57358  10.252   8.783   9.338 -0.6872 -0.1488 -0.5713
  416MOL0     H57359  10.343   8.796   9.179  1.1244 -1.0015  0.3524
  416MOL0     H57360  10.285   8.531   9.314  1.3099 -2.4057 -1.5923
  416MOL0     H57361  10.335   8.567   9.153  0.6679  0.1764 -0.1367
  416MOL0     H57362  10.525   8.700   9.263 -1.8795 -0.7799 -1.4566
  416MOL0     H57363  10.475   8.627   9.420  0.6236 -1.2315  0.1934
  416MOL0     H57364  10.531   8.481   9.152  1.2420 -1.3750 -0.1010
  416MOL0     H57365  10.655   8.528   9.276 -0.0177  1.1410 -1.8596
  416MOL0     H57366  10.756   8.324   9.189  1.7936 -0.4399  1.6477
  416MOL0     H57367  10.866   8.236   9.020  3.7703  0.3350  3.8937
  416MOL0     H57368  10.800   8.097   8.933  3.0254 -1.2226 -0.9162
  416MOL0     H57369  10.929   8.069   9.042  0.9668  1.0157 -1.0656
  416MOL0     H57370  10.389   7.608   9.136 -0.2289 -2.1914  0.3716
  416MOL0     H57371  10.351   7.405   9.050  0.8762  0.5919  3.7295
  416MOL0     H57372  10.733   7.181   8.852  1.3648 -2.7245 -0.9678
  416MOL0     H57373  10.682   7.147   9.011  0.2718  0.6192  0.9683
  416MOL0     H57374  10.654   6.941   8.883 -0.4084 -0.6172 -1.8299
  416MOL0     H57375  10.494   6.987   8.936 -0.2917 -0.9703 -1.4046
  416MOL0     H57376  10.432   7.090   8.741  0.7093  0.4827 -0.6087
  416MOL0     H57377  10.473   6.909   8.734  1.3600 -1.3895  1.0057
  416MOL0     H57378  10.701   7.078   8.646  0.2859 -2.9005  1.5281
  416MOL0     H57379  10.540   7.123   8.560 -1.4435 -0.4382  1.4792
  416MOL0     H57380  10.681   6.860   8.594  3.1016  0.4536 -1.7336
  416MOL0     H57381  10.537   6.897   8.485  0.6069  2.6687 -1.1477
  416MOL0     H57382  10.791   7.049   8.440 -1.4702  1.8729 -1.6365
  416MOL0     H57383  10.651   7.005   8.336 -1.3371  3.4350  2.1228
  416MOL0     H57384  10.719   6.785   8.298  1.2051 -2.4045  0.9023
  416MOL0     H57385  10.831   6.779   8.430  0.8620  0.9278 -0.5668
  416MOL0     H57386  11.008   6.910   8.298 -0.1118  1.9424 -3.4075
  416MOL0     H57387  10.905   6.948   8.174  3.1041  1.3057  0.8211
  416MOL0     H57388  10.774   7.411   8.909 -2.2316 -2.7998 -2.5047
  416MOL0     H57389  10.814   7.608   9.029  0.3958 -1.1485  1.2838
  416MOL0     H57390  10.502   7.918   9.289  0.4966 -0.0845  0.7300
  416MOL0     H57391  10.438   8.141   9.394 -1.0232 -0.3113 -1.1378
  416MOL0     H57392   9.568   7.887   8.477 -0.6015 -3.9738 -2.9723
  416MOL0     H57393   9.414   7.694   8.535  1.4322  0.7523  1.1949
  416MOL0     H57394   9.083   7.689   8.794  1.4555 -0.9294  3.7435
  416MOL0     H57395   8.952   7.555   8.966 -2.0688 -0.2472  0.5282
  416MOL0     H57396   8.619   7.284   8.961  2.5618  3.4122  1.3592
  416MOL0     H57397   8.642   7.280   8.785  1.7052  0.3837 -2.1142
  416MOL0     H57398   8.804   7.106   8.969 -1.5205  2.8882  0.8751
  416MOL0     H57399   8.865   7.140   8.815  0.7813 -2.5673 -1.1295
  416MOL0     H57400   8.652   7.045   8.715 -1.8910 -1.6810  1.1234
  416MOL0     H57401   8.752   6.935   8.791 -0.6129 -0.9409 -1.9161
  416MOL0     H57402   8.502   7.073   8.899 -0.1242 -0.0073  2.0130
  416MOL0     H57403   8.591   6.964   8.993 -0.5817  2.3919  1.6215
  416MOL0     H57404   8.391   6.675   8.755 -1.9548  1.2925 -0.4645
  416MOL0     H57405   8.771   7.333   8.644  2.0539 -1.9343  0.0079
  416MOL0     H57406   8.792   7.371   8.450  0.6432 -0.5336 -0.6494
  416MOL0     H57407   8.774   7.539   8.409  1.0942 -0.2441 -3.7231
  416MOL0     H57408   8.934   7.459   8.392  0.6269  4.4988  0.8243
  417MOL0     O57409   8.764   3.416   1.167  0.5638 -0.1536 -0.4371
  417MOL0     C57410   8.757   3.537   1.138  0.4947 -0.6018 -0.2084
  417MOL0     O57411   8.864   3.602   1.080  0.3529  0.4101  0.3076
  417MOL0     C57412   8.953   3.518   1.009 -0.2356 -0.7970 -0.6218
  417MOL0     C57413   8.917   3.420   0.914 -0.1483 -0.9220  0.1037
  417MOL0     C57414   9.015   3.351   0.850 -2.1004  0.3228  0.3083
  417MOL0     C57415   9.152   3.373   0.874 -0.9394 -0.2137 -0.0662
  417MOL0     O57416   9.239   3.289   0.808  0.1416  0.2469 -0.6790
  417MOL0     C57417   9.384   3.298   0.826 -0.1796 -0.3518  0.3692
  417MOL0     C57418   9.437   3.396   0.731 -0.5257 -0.9154  0.2394
  417MOL0     C57419   9.596   3.405   0.736 -1.0603  0.4831  0.0793
  417MOL0     C57420   9.661   3.503   0.643 -0.8121  0.1770 -0.0627
  417MOL0     C57421   9.810   3.458   0.620 -0.5594  0.8484 -0.5046
  417MOL0     C57422   9.903   3.553   0.543  0.1063  0.8100 -0.1901
  417MOL0     C57423   9.921   3.686   0.612  0.1333  0.2823 -1.2417
  417MOL0     C57424   9.994   3.779   0.517  0.3281  0.7715 -0.1069
  417MOL0     N57425  10.129   3.740   0.487 -0.3976  0.2747 -0.4355
  417MOL0     C57426  10.178   3.646   0.395 -0.6555 -0.7255 -0.5072
  417MOL0     C57427  10.309   3.655   0.402 -0.9087 -0.3109  0.2391
  417MOL0     C57428  10.396   3.570   0.325  0.2885 -0.4815  0.5465
  417MOL0     C57429  10.485   3.646   0.229  0.0246  0.3295  0.7642
  417MOL0     C57430  10.578   3.554   0.133 -0.1610 -0.0498  0.1023
  417MOL0     C57431  10.697   3.637   0.076 -0.6223  0.4411  0.0650
  417MOL0     O57432  10.761   3.720   0.174  0.3733  0.6939 -0.6945
  417MOL0     C57433  10.836   3.817   0.132 -0.1800 -0.3965  0.6382
  417MOL0     C57434  10.899   3.828   0.005 -0.4056 -0.2301  0.9712
  417MOL0     C57435  11.000   3.922  -0.024  0.0976  0.3966  0.1389
  417MOL0     C57436  11.051   3.935  -0.157 -0.6953  0.0257  0.1645
  417MOL0     C57437  11.029   4.014   0.077  0.5959  0.3239 -0.7064
  417MOL0     C57438  11.123   4.125   0.039  0.4433 -0.1677 -0.0381
  417MOL0     O57439  11.089   4.200  -0.074  0.1074  0.2024  1.0501
  417MOL0     C57440  11.180   4.304  -0.109  0.4570 -0.3047 -0.4652
  417MOL0     C57441  11.312   4.265  -0.151  0.2395 -0.6118  0.6070
  417MOL0     C57442  11.397   4.365  -0.182 -0.7115 -0.4473  0.2003
  417MOL0     C57443  11.361   4.504  -0.179  0.0174 -1.0729  0.6948
  417MOL0     O57444  11.453   4.605  -0.212  0.1740  0.2543 -0.0100
  417MOL0     C57445  11.499   4.610  -0.352  0.4258 -0.0438 -0.0143
  417MOL0     C57446  11.576   4.749  -0.373 -0.5510  0.4600  1.0670
  417MOL0     C57447  11.695   4.772  -0.290  0.2297 -0.0425 -0.6717
  417MOL0     C57448  11.809   4.871  -0.342 -0.4905  0.0311 -0.1689
  417MOL0     C57449  11.933   4.884  -0.236  0.1128 -0.2949  0.7173
  417MOL0     C57450  12.011   5.010  -0.276 -0.8323  0.1076  0.2566
  417MOL0     C57451  12.124   5.022  -0.174 -0.1649 -0.4004  1.0821
  417MOL0     C57452  12.210   5.157  -0.190 -0.1737  0.5551  0.0656
  417MOL0    Cl57453  12.335   5.167  -0.057 -0.2820  0.6257  0.4986
  417MOL0     C57454  11.241   4.545  -0.117 -0.3348 -0.2658  0.0096
  417MOL0     C57455  11.151   4.441  -0.084  0.2257  0.1858 -0.5962
  417MOL0     O57456  11.231   4.126   0.101 -0.7069 -0.6709  0.2478
  417MOL0     C57457  10.972   4.005   0.213  0.5647  0.4310  0.6068
  417MOL0     C57458  10.881   3.899   0.232 -0.0872  0.3667 -0.0313
  417MOL0     N57459  10.342   3.752   0.499 -0.5151  0.7165 -0.4261
  417MOL0     N57460  10.233   3.795   0.555 -0.1013  0.7356  0.1883
  417MOL0     C57461   9.180   3.478   0.957 -0.7989 -0.2568 -0.1174
  417MOL0     C57462   9.096   3.548   1.030  0.7839 -0.0572  0.2687
  417MOL0     C57463   8.634   3.609   1.167 -0.7659  0.9472 -0.2712
  417MOL0     C57464   8.525   3.525   1.207 -0.4458  0.2973 -0.7381
  417MOL0     C57465   8.403   3.581   1.246 -0.2316 -0.5819 -1.0583
  417MOL0     C57466   8.380   3.717   1.228 -1.0029  0.0295 -0.4627
  417MOL0     O57467   8.255   3.778   1.243  0.9847  0.6373  0.2668
  417MOL0     C57468   8.139   3.718   1.172 -0.0978  0.0200 -1.0130
  417MOL0     C57469   8.141   3.740   1.022  0.2158  0.0585  1.1212
  417MOL0     C57470   8.029   3.665   0.947 -1.2528 -0.5524  0.2679
  417MOL0     C57471   7.957   3.756   0.850  0.3544 -0.7512  0.9491
  417MOL0     C57472   7.818   3.699   0.825  0.2341 -0.1465  0.7021
  417MOL0     C57473   7.716   3.652   0.782  0.1384 -0.9783  0.4791
  417MOL0     C57474   8.487   3.803   1.187  0.5523 -0.6196  0.2616
  417MOL0     C57475   8.614   3.749   1.157 -0.0564  0.8252  1.1838
  417MOL0     C57476   8.728   3.842   1.129  0.6493  0.0453 -0.8974
  417MOL0     H57477   8.814   3.389   0.900 -0.2172 -0.0962 -1.4447
  417MOL0     H57478   8.990   3.283   0.769 -0.0890  1.2735 -1.2328
  417MOL0     H57479   9.426   3.198   0.811 -0.7995 -0.7001  0.9138
  417MOL0     H57480   9.409   3.333   0.926  5.6955  0.3646 -0.9424
  417MOL0     H57481   9.405   3.365   0.630  2.1183  3.7988 -2.3978
  417MOL0     H57482   9.387   3.492   0.746 -0.7592 -1.0656  0.4205
  417MOL0     H57483   9.631   3.430   0.836 -0.2363  5.2909 -1.1326
  417MOL0     H57484   9.627   3.305   0.706 -0.0557  0.3844  1.3455
  417MOL0     H57485   9.601   3.505   0.552 -0.5313  0.0274 -0.2536
  417MOL0     H57486   9.668   3.600   0.694  2.9519 -0.5083  1.0739
  417MOL0     H57487   9.805   3.364   0.563 -1.2830  1.4027 -1.3820
  417MOL0     H57488   9.860   3.439   0.715 -0.3395  0.9915 -0.5913
  417MOL0     H57489  10.003   3.508   0.543 -0.3729 -0.2888 -0.6861
  417MOL0     H57490   9.875   3.559   0.437  0.3781 -1.8435 -0.4746
  417MOL0     H57491   9.979   3.683   0.704 -2.2137  5.1009  0.7009
  417MOL0     H57492   9.823   3.727   0.636 -0.8375 -2.6657  0.3466
  417MOL0     H57493   9.937   3.793   0.424 -3.9941  0.2363  2.2180
  417MOL0     H57494   9.999   3.873   0.573 -0.6445  0.6376  0.2163
  417MOL0     H57495  10.129   3.574   0.331  1.4141 -0.7509 -2.1864
  417MOL0     H57496  10.339   3.509   0.254  0.3297 -0.2625  0.3232
  417MOL0     H57497  10.457   3.500   0.383 -0.5116 -2.3389 -0.7403
  417MOL0     H57498  10.418   3.716   0.177 -0.4205 -0.3970  0.3483
  417MOL0     H57499  10.539   3.699   0.308 -1.0716  1.9232  0.5048
  417MOL0     H57500  10.620   3.482   0.204 -0.8546  0.6760  1.2846
  417MOL0     H57501  10.522   3.506   0.052  2.5742 -1.4531 -1.0770
  417MOL0     H57502  10.765   3.574   0.019 -0.7252  1.4101 -1.1694
  417MOL0     H57503  10.646   3.705   0.007 -0.8270  0.9978  0.7448
  417MOL0     H57504  10.868   3.775  -0.084 -1.2126  0.0690  1.0659
  417MOL0     H57505  11.045   3.840  -0.210 -0.5485  0.6827 -1.0530
  417MOL0     H57506  11.155   3.968  -0.147 -1.1144  0.6935  4.7272
  417MOL0     H57507  10.988   4.002  -0.216 -1.7424  0.8809  2.1468
  417MOL0     H57508  11.345   4.162  -0.159  3.8135  0.4905 -0.3141
  417MOL0     H57509  11.499   4.336  -0.206 -0.6738  0.8103 -1.3024
  417MOL0     H57510  11.564   4.526  -0.378  1.4735  1.0330 -0.9890
  417MOL0     H57511  11.407   4.604  -0.411 -1.2275 -1.0058  2.5088
  417MOL0     H57512  11.619   4.750  -0.473 -1.0649  4.0565  0.7550
  417MOL0     H57513  11.498   4.825  -0.365  0.3433  1.3713  1.2439
  417MOL0     H57514  11.743   4.675  -0.272 -0.0070 -0.3275 -1.5228
  417MOL0     H57515  11.661   4.818  -0.197  1.2479 -1.3576  0.4065
  417MOL0     H57516  11.771   4.970  -0.372  3.2925  1.7499  0.1344
  417MOL0     H57517  11.848   4.818  -0.429  1.3395  0.2951  0.4381
  417MOL0     H57518  11.900   4.902  -0.133 -1.0445  1.2227  0.1196
  417MOL0     H57519  11.997   4.796  -0.228  1.0635  0.0956 -1.8075
  417MOL0     H57520  11.952   5.102  -0.272  2.8994  2.7471 -0.6387
  417MOL0     H57521  12.047   4.992  -0.377 -0.7892 -2.5814  0.6671
  417MOL0     H57522  12.186   4.932  -0.179 -2.5090 -2.0393 -0.9166
  417MOL0     H57523  12.079   5.024  -0.075  0.1010  0.3367  1.1916
  417MOL0     H57524  12.144   5.244  -0.188  0.9167  1.4191 -0.5549
  417MOL0     H57525  12.253   5.154  -0.291 -0.7597 -3.2051 -0.2230
  417MOL0     H57526  11.219   4.650  -0.098  0.3837 -0.1423  0.2105
  417MOL0     H57527  11.048   4.465  -0.060 -0.8388  0.6026 -4.7559
  417MOL0     H57528  10.996   4.072   0.294 -0.2552 -0.4155  1.5827
  417MOL0     H57529  10.843   3.882   0.332 -0.5110  2.8957  0.3033
  417MOL0     H57530   9.278   3.517   0.982 -1.0184  0.9682 -1.0694
  417MOL0     H57531   9.142   3.624   1.093  1.8563  0.4973 -1.1222
  417MOL0     H57532   8.529   3.417   1.199  1.9780  0.2449  0.4977
  417MOL0     H57533   8.340   3.513   1.302  0.6469 -0.9769 -0.5259
  417MOL0     H57534   8.128   3.610   1.190  0.8469 -0.0387 -0.7453
  417MOL0     H57535   8.047   3.760   1.214  0.3151  0.4515 -0.5251
  417MOL0     H57536   8.232   3.691   0.985 -1.2124 -3.0220  1.3318
  417MOL0     H57537   8.139   3.849   1.015 -0.5475  0.0634  1.2797
  417MOL0     H57538   8.075   3.572   0.911 -0.3158 -0.1140  0.3152
  417MOL0     H57539   7.966   3.621   1.024  1.7308 -1.9298  2.1178
  417MOL0     H57540   8.019   3.763   0.760  1.0766  0.8301  1.5358
  417MOL0     H57541   7.949   3.853   0.900 -0.1402 -0.4832  0.3473
  417MOL0     H57542   7.623   3.612   0.748 -0.1450  1.2180 -1.6303
  417MOL0     H57543   8.470   3.910   1.176 -0.7489 -0.6580  1.5382
  417MOL0     H57544   8.764   3.840   1.026  0.8683  2.1393 -0.9077
  417MOL0     H57545   8.701   3.944   1.157  0.4196  0.4416 -2.4648
  417MOL0     H57546   8.804   3.811   1.202  1.0105  0.6766 -0.9910
  418MOL0     O57547  11.026   7.575   5.283 -0.0738 -0.5621 -0.1119
  418MOL0     C57548  10.904   7.569   5.273  0.7355 -0.1385  0.8677
  418MOL0     O57549  10.815   7.676   5.259 -0.3350 -0.0853 -0.3675
  418MOL0     C57550  10.862   7.790   5.317  0.3120 -0.1783  0.6134
  418MOL0     C57551  10.877   7.798   5.454  0.1312 -0.0662 -0.5600
  418MOL0     C57552  10.937   7.912   5.516 -0.2032 -0.5752 -0.1248
  418MOL0     C57553  10.985   8.025   5.437 -0.5604  0.6707 -0.5661
  418MOL0     O57554  11.061   8.128   5.494 -0.0551  0.1277  0.2509
  418MOL0     C57555  11.161   8.089   5.592  0.5035 -0.6026  0.2622
  418MOL0     C57556  11.272   8.003   5.533 -0.0973  0.9384  1.3801
  418MOL0     C57557  11.379   7.980   5.629 -0.2938 -0.6331 -0.8048
  418MOL0     C57558  11.346   7.894   5.751  0.1663 -0.3281 -0.1693
  418MOL0     C57559  11.456   7.915   5.857  1.1383  0.4036  0.2134
  418MOL0     C57560  11.598   7.882   5.822  0.1244 -0.4145 -0.0308
  418MOL0     C57561  11.608   7.734   5.787 -1.4055 -0.2373  1.2402
  418MOL0     C57562  11.755   7.681   5.776  0.2301  0.4293  0.3411
  418MOL0     N57563  11.752   7.538   5.743  0.2361 -0.2364  0.1422
  418MOL0     C57564  11.713   7.487   5.621  1.0357  0.1342  0.0975
  418MOL0     C57565  11.708   7.352   5.637 -0.3951 -0.0542  0.2533
  418MOL0     C57566  11.716   7.255   5.522  0.5061  0.0184 -0.0672
  418MOL0     C57567  11.613   7.301   5.410  0.6887  0.6207 -0.3101
  418MOL0     C57568  11.543   7.184   5.340  0.5920  0.4010  0.5746
  418MOL0     C57569  11.627   7.093   5.259  0.0761  0.9343 -0.5472
  418MOL0     O57570  11.710   7.005   5.336  0.0732  0.3075 -0.3410
  418MOL0     C57571  11.776   6.905   5.265  0.5416  0.2870 -0.3337
  418MOL0     C57572  11.848   6.815   5.346  0.5721  0.9222 -0.1569
  418MOL0     C57573  11.924   6.711   5.287 -0.4707  0.4392  0.5601
  418MOL0     C57574  11.994   6.608   5.377 -0.0641  0.1047  0.3043
  418MOL0     C57575  11.929   6.702   5.144  0.7374  0.8737  0.6997
  418MOL0     C57576  12.005   6.603   5.067  0.5320  0.1336  0.4862
  418MOL0     O57577  11.977   6.577   4.936 -0.4033 -0.0078 -0.1277
  418MOL0     C57578  12.008   6.457   4.873 -0.5341  0.2925 -1.2264
  418MOL0     C57579  11.987   6.332   4.937 -0.7804  0.5268  0.0370
  418MOL0     C57580  12.017   6.216   4.872  0.2576  0.1574  0.6743
  418MOL0     C57581  12.095   6.206   4.752  0.2232  0.2356 -0.4475
  418MOL0     O57582  12.144   6.085   4.711  0.2418  0.3621 -0.1832
  418MOL0     C57583  12.240   6.092   4.603  0.1488  0.0254  0.4668
  418MOL0     C57584  12.184   6.029   4.478 -1.2940  0.4170 -0.2039
  418MOL0     C57585  12.168   5.880   4.483 -0.5489  0.4715  0.4407
  418MOL0     C57586  12.103   5.826   4.353  0.5102  0.2629  0.0089
  418MOL0     C57587  12.083   5.673   4.352  0.3773 -1.1701 -0.0003
  418MOL0     C57588  12.001   5.620   4.236 -0.4966 -0.6076 -0.7044
  418MOL0     C57589  12.080   5.531   4.144 -0.2104  0.4561  0.0222
  418MOL0     C57590  12.192   5.608   4.072  0.2894  0.4196 -0.3697
  418MOL0    Cl57591  12.125   5.747   3.985 -0.0595 -0.1017 -0.0500
  418MOL0     C57592  12.098   6.334   4.690  0.3176  0.2557  1.4290
  418MOL0     C57593  12.054   6.453   4.744 -0.1356  0.1497  0.5547
  418MOL0     O57594  12.093   6.550   5.124 -0.2497  0.2581 -0.2210
  418MOL0     C57595  11.867   6.800   5.062 -0.0274  0.2403 -0.7144
  418MOL0     C57596  11.790   6.896   5.122 -0.3379  0.5927 -0.2033
  418MOL0     N57597  11.743   7.323   5.769  0.0158 -0.4890  0.4817
  418MOL0     N57598  11.758   7.434   5.834 -0.6706 -0.4077 -0.7111
  418MOL0     C57599  10.958   8.019   5.299  0.3690 -0.2102  0.5040
  418MOL0     C57600  10.906   7.898   5.242 -0.4955  0.3251  0.2191
  418MOL0     C57601  10.843   7.437   5.282  0.6184  0.2659  0.0098
  418MOL0     C57602  10.904   7.328   5.219 -0.2065 -0.3885 -0.4269
  418MOL0     C57603  10.849   7.200   5.203  1.3520 -0.4262 -0.0327
  418MOL0     C57604  10.721   7.175   5.254  0.0744 -0.8288  0.1078
  418MOL0     O57605  10.659   7.066   5.207 -0.0874  0.3545 -0.1522
  418MOL0     C57606  10.682   6.951   5.290 -0.1525 -0.4838 -2.0535
  418MOL0     C57607  10.631   6.829   5.216 -0.1157 -0.2557  0.1320
  418MOL0     C57608  10.714   6.705   5.267  0.1668 -0.0621  0.3023
  418MOL0     C57609  10.716   6.589   5.166 -0.8028  0.0850  0.8189
  418MOL0     C57610  10.781   6.471   5.235 -1.0313  0.2251 -0.6797
  418MOL0     C57611  10.839   6.382   5.295 -0.1714  0.1846  0.1307
  418MOL0     C57612  10.654   7.281   5.307  0.3509  0.6636 -0.6383
  418MOL0     C57613  10.709   7.406   5.321  0.3084 -1.3244 -0.0849
  418MOL0     C57614  10.607   7.514   5.363  0.0048  0.6068  0.4038
  418MOL0     H57615  10.857   7.708   5.512  1.6325 -1.0114 -1.4510
  418MOL0     H57616  10.958   7.915   5.623  0.4410  0.1209 -0.2548
  418MOL0     H57617  11.118   8.038   5.679 -1.9667  1.9472  0.6855
  418MOL0     H57618  11.203   8.184   5.625 -0.6737  0.4686 -1.1408
  418MOL0     H57619  11.234   7.907   5.499 -0.9594  0.3132  3.8702
  418MOL0     H57620  11.314   8.069   5.457 -1.1215  1.7403  1.4770
  418MOL0     H57621  11.463   7.936   5.575 -0.7638 -0.9126 -1.3203
  418MOL0     H57622  11.415   8.080   5.656  0.0314 -1.0200  0.2533
  418MOL0     H57623  11.252   7.923   5.799  0.3012 -0.4949  0.2006
  418MOL0     H57624  11.331   7.788   5.728  1.1538 -1.1051  2.3818
  418MOL0     H57625  11.419   7.855   5.941 -0.6816 -0.0693 -0.8690
  418MOL0     H57626  11.451   8.020   5.889 -0.3729  1.1074 -2.0972
  418MOL0     H57627  11.648   7.949   5.751  0.2818  1.8132  2.0553
  418MOL0     H57628  11.649   7.888   5.918 -0.2363 -2.3261  0.3295
  418MOL0     H57629  11.557   7.711   5.693  1.3328 -2.7481  0.2078
  418MOL0     H57630  11.560   7.679   5.868 -0.2595 -2.0196  0.7654
  418MOL0     H57631  11.810   7.729   5.695 -0.1611  0.8595  0.3329
  418MOL0     H57632  11.811   7.702   5.868 -1.3720 -1.5363  1.8549
  418MOL0     H57633  11.709   7.534   5.524  1.4274 -1.4521 -0.7264
  418MOL0     H57634  11.697   7.157   5.568 -2.0939  0.5561  0.1258
  418MOL0     H57635  11.819   7.262   5.485  0.4705  0.9740 -0.0017
  418MOL0     H57636  11.530   7.357   5.452 -1.3130 -2.2518 -0.0909
  418MOL0     H57637  11.655   7.368   5.334  0.7002  2.9840  1.6768
  418MOL0     H57638  11.486   7.137   5.420  3.9153  0.7879  3.4033
  418MOL0     H57639  11.480   7.229   5.262 -0.0267  1.2900  1.5693
  418MOL0     H57640  11.571   7.035   5.185  0.9265  0.4112 -0.7981
  418MOL0     H57641  11.689   7.149   5.188  0.8349 -1.5927 -1.9956
  418MOL0     H57642  11.851   6.835   5.452 -0.6655  1.8167 -0.2699
  418MOL0     H57643  11.951   6.614   5.478  0.9742  0.7131  0.7241
  418MOL0     H57644  12.101   6.626   5.372 -0.3621  1.6116 -2.5225
  418MOL0     H57645  11.979   6.503   5.351  0.9439  0.1732 -0.6259
  418MOL0     H57646  11.944   6.323   5.037 -2.0922  2.2681 -0.3288
  418MOL0     H57647  11.994   6.121   4.919  1.1752 -1.5689 -2.1179
  418MOL0     H57648  12.275   6.193   4.580 -0.4670  0.3868  1.0710
  418MOL0     H57649  12.324   6.022   4.613 -0.1057 -0.9570 -3.1462
  418MOL0     H57650  12.088   6.081   4.467 -2.1481 -0.5394  2.0807
  418MOL0     H57651  12.255   6.045   4.397 -1.1502 -2.5039 -0.7285
  418MOL0     H57652  12.109   5.859   4.573  1.1518 -2.9121  0.9184
  418MOL0     H57653  12.259   5.824   4.509  0.4873  1.4959 -0.8384
  418MOL0     H57654  12.181   5.847   4.278  1.3201  1.5245  1.1513
  418MOL0     H57655  12.006   5.874   4.341 -0.6240 -1.2679  2.3884
  418MOL0     H57656  12.183   5.629   4.353  1.0843  0.2795  2.6772
  418MOL0     H57657  12.036   5.646   4.447  0.0660  1.6352  0.7293
  418MOL0     H57658  11.969   5.705   4.174  2.2078 -1.0041 -2.8435
  418MOL0     H57659  11.917   5.568   4.281  2.3751 -4.1821  1.1167
  418MOL0     H57660  12.014   5.485   4.071 -1.1210  1.1261  0.4068
  418MOL0     H57661  12.133   5.460   4.209  3.0119  1.8339 -0.9147
  418MOL0     H57662  12.235   5.540   3.998 -1.9363 -1.4832  0.0042
  418MOL0     H57663  12.272   5.641   4.140  1.4353  1.5879 -2.2003
  418MOL0     H57664  12.146   6.333   4.593 -2.0867 -2.1463  0.1154
  418MOL0     H57665  12.067   6.540   4.679  0.6798  0.7341  1.4606
  418MOL0     H57666  11.890   6.788   4.956  0.1675 -0.3439 -0.6125
  418MOL0     H57667  11.742   6.972   5.061  1.6441  1.5797 -0.6240
  418MOL0     H57668  11.008   8.093   5.237 -0.8177  1.3211  1.3190
  418MOL0     H57669  10.904   7.882   5.134  1.1330  1.2250  0.0190
  418MOL0     H57670  11.004   7.337   5.179 -0.2244  1.9396 -0.0822
  418MOL0     H57671  10.893   7.123   5.140 -1.4686 -2.6860  0.5725
  418MOL0     H57672  10.790   6.953   5.309 -0.4517 -0.7825 -0.0116
  418MOL0     H57673  10.620   6.957   5.380  1.4191 -2.2123 -0.7756
  418MOL0     H57674  10.656   6.849   5.111  1.0854 -1.0871  0.2479
  418MOL0     H57675  10.523   6.810   5.216  0.0716 -1.3813  1.3555
  418MOL0     H57676  10.819   6.735   5.277  0.2299 -0.0796 -0.3223
  418MOL0     H57677  10.672   6.677   5.365  1.3478 -1.7612  0.3653
  418MOL0     H57678  10.758   6.622   5.071  2.7866 -3.6986  0.7983
  418MOL0     H57679  10.615   6.552   5.150 -0.7110  0.8490 -2.0635
  418MOL0     H57680  10.894   6.303   5.343 -0.9522  0.9384  2.3938
  418MOL0     H57681  10.549   7.267   5.331  0.2512  2.9337  0.5798
  418MOL0     H57682  10.649   7.598   5.418 -0.5239  0.6004  0.8166
  418MOL0     H57683  10.559   7.534   5.267  1.5822 -3.0390 -1.3757
  418MOL0     H57684  10.523   7.474   5.419 -1.3941  1.9137 -0.6844
  419MOL0     O57685   9.924   8.608   7.009 -0.0375 -0.1678 -0.4292
  419MOL0     C57686   9.849   8.569   6.925 -0.1813  0.5848  0.0249
  419MOL0     O57687   9.741   8.488   6.949 -0.1305 -0.5113 -0.1639
  419MOL0     C57688   9.687   8.509   7.074 -0.7813  1.0745 -0.3816
  419MOL0     C57689   9.651   8.400   7.146  0.1238 -0.2629 -0.2439
  419MOL0     C57690   9.576   8.416   7.267 -0.1108 -0.3204  0.1433
  419MOL0     C57691   9.565   8.544   7.328  0.9994 -0.5713  0.0538
  419MOL0     O57692   9.496   8.538   7.447 -0.0847 -0.3814  0.2935
  419MOL0     C57693   9.480   8.657   7.526 -0.1254 -0.3393  0.2375
  419MOL0     C57694   9.380   8.653   7.639  0.0487  0.0473 -0.0510
  419MOL0     C57695   9.323   8.796   7.662  0.4017  0.0648 -0.4270
  419MOL0     C57696   9.423   8.883   7.743 -0.3790  0.5124 -0.1451
  419MOL0     C57697   9.378   9.022   7.737 -0.2985 -0.0022 -0.2661
  419MOL0     C57698   9.478   9.130   7.745  1.0617  0.0223 -0.1812
  419MOL0     C57699   9.556   9.156   7.614  0.0633 -0.1978  0.4837
  419MOL0     C57700   9.651   9.278   7.622  0.1275 -0.0227  0.3553
  419MOL0     N57701   9.763   9.258   7.722 -0.5534 -0.2106 -0.4874
  419MOL0     C57702   9.862   9.167   7.723  0.4495 -0.3054 -0.3956
  419MOL0     C57703   9.924   9.186   7.843  1.0126 -0.2774  0.3939
  419MOL0     C57704  10.028   9.089   7.893  0.1103 -0.5066 -0.3714
  419MOL0     C57705  10.142   9.178   7.931  0.2230  0.1404 -0.0198
  419MOL0     C57706  10.271   9.097   7.899 -0.0926  0.9969 -0.0101
  419MOL0     C57707  10.283   8.978   8.003  0.3188 -0.3824  0.3835
  419MOL0     O57708  10.376   8.884   7.950 -0.4026 -0.1467  0.3799
  419MOL0     C57709  10.501   8.927   7.942  0.2502  0.2692  0.0400
  419MOL0     C57710  10.577   8.858   7.844  0.2354  0.1389 -0.2185
  419MOL0     C57711  10.714   8.897   7.818 -0.5161  0.0403 -0.1978
  419MOL0     C57712  10.778   8.814   7.710 -0.8508 -0.1309  0.3098
  419MOL0     C57713  10.781   8.988   7.905  0.1139 -0.3703 -0.7793
  419MOL0     C57714  10.931   9.008   7.904 -0.4722 -0.8654 -0.4844
  419MOL0     O57715  10.990   9.075   8.004 -0.4710 -0.0666  0.4670
  419MOL0     C57716  11.115   9.048   8.049 -0.3612  0.6359  0.2950
  419MOL0     C57717  11.231   9.048   7.954  0.1577  0.3911 -0.4603
  419MOL0     C57718  11.358   9.022   8.002 -0.3383 -0.2399 -0.2589
  419MOL0     C57719  11.373   8.990   8.136 -0.1488 -0.3053  0.1873
  419MOL0     O57720  11.492   8.968   8.198  0.2244 -0.5651  0.0273
  419MOL0     C57721  11.615   8.991   8.124 -0.1005  0.0060 -0.3081
  419MOL0     C57722  11.735   8.998   8.224 -0.2423  0.2777 -0.3385
  419MOL0     C57723  11.871   8.998   8.144  0.3587  0.2281 -0.6651
  419MOL0     C57724  11.984   8.967   8.245 -0.3576  0.6102  0.4003
  419MOL0     C57725  12.108   8.912   8.166 -0.3058  0.5815  0.3794
  419MOL0     C57726  12.240   8.931   8.254  0.9023  0.1611 -0.6390
  419MOL0     C57727  12.366   8.852   8.207  0.1868 -0.2816 -0.0275
  419MOL0     C57728  12.491   8.848   8.303  0.4915  0.9184  0.5560
  419MOL0    Cl57729  12.534   9.014   8.343  0.4692 -0.3032  0.1231
  419MOL0     C57730  11.263   8.986   8.218  0.1883  0.3842  0.2709
  419MOL0     C57731  11.139   9.025   8.179 -0.0125 -0.1129  0.1413
  419MOL0     O57732  10.989   8.946   7.816  0.2772 -0.7947  0.2768
  419MOL0     C57733  10.702   9.047   8.006 -1.0758  0.5640 -0.2388
  419MOL0     C57734  10.571   9.016   8.029 -0.3004  0.0334  0.3936
  419MOL0     N57735   9.862   9.294   7.911  0.3021  0.1022  0.8216
  419MOL0     N57736   9.771   9.339   7.833 -0.0598 -0.5845  0.5752
  419MOL0     C57737   9.607   8.656   7.256 -0.4749  0.7061 -0.4204
  419MOL0     C57738   9.667   8.632   7.128 -0.0800  0.0938 -0.0964
  419MOL0     C57739   9.882   8.608   6.785 -0.5377 -0.3311  0.2579
  419MOL0     C57740  10.013   8.610   6.736 -0.7176 -0.3521  0.5183
  419MOL0     C57741  10.040   8.653   6.604  0.4466  0.6903 -1.1434
  419MOL0     C57742   9.940   8.687   6.519  0.3163  0.9189 -0.5474
  419MOL0     O57743   9.981   8.714   6.395 -0.2855  0.6545  0.2234
  419MOL0     C57744   9.885   8.719   6.283 -0.6154 -0.2044  0.0714
  419MOL0     C57745   9.955   8.766   6.157 -0.0946 -0.4908 -0.0828
  419MOL0     C57746  10.010   8.910   6.172 -0.2321  0.3204  0.0565
  419MOL0     C57747  10.159   8.916   6.225 -0.5972 -0.7591  0.1138
  419MOL0     C57748  10.264   8.899   6.123 -0.0551  0.4949  1.0594
  419MOL0     C57749  10.363   8.894   6.045  0.0908  0.7624 -0.1360
  419MOL0     C57750   9.807   8.680   6.571  0.3970 -0.3907  0.0458
  419MOL0     C57751   9.780   8.649   6.698  0.6937  0.0766 -0.0934
  419MOL0     C57752   9.635   8.678   6.736  0.1063  0.8269  0.1951
  419MOL0     H57753   9.669   8.301   7.107  1.1572 -0.5234  0.8506
  419MOL0     H57754   9.531   8.336   7.325  0.6391 -1.6727 -1.1180
  419MOL0     H57755   9.459   8.738   7.455  0.2402 -1.1201 -0.7867
  419MOL0     H57756   9.581   8.674   7.564  0.6315 -5.1042  1.0110
  419MOL0     H57757   9.302   8.586   7.604 -0.0614 -0.0991  0.4646
  419MOL0     H57758   9.433   8.622   7.730  1.6309  2.0700 -0.2169
  419MOL0     H57759   9.288   8.852   7.574 -2.2991 -2.4156 -1.0601
  419MOL0     H57760   9.235   8.792   7.726 -0.3866  2.1371 -1.2773
  419MOL0     H57761   9.437   8.843   7.844  1.8469  1.6928  0.0677
  419MOL0     H57762   9.515   8.876   7.685 -1.1547 -0.5599 -1.3114
  419MOL0     H57763   9.293   9.030   7.806 -1.3149  1.2175 -1.5938
  419MOL0     H57764   9.324   9.049   7.646 -2.6280 -0.0002  1.0281
  419MOL0     H57765   9.415   9.219   7.759 -1.0977 -0.7269 -3.8201
  419MOL0     H57766   9.545   9.113   7.830  1.0914  3.3613  0.5955
  419MOL0     H57767   9.486   9.169   7.532 -2.8063 -0.7755  2.6724
  419MOL0     H57768   9.619   9.071   7.585  1.4660  0.2369  2.0871
  419MOL0     H57769   9.695   9.293   7.522  2.2912 -1.2291  1.0594
  419MOL0     H57770   9.597   9.366   7.659  1.6475  1.4709 -0.7717
  419MOL0     H57771   9.878   9.094   7.644 -1.9593  0.3805 -1.5932
  419MOL0     H57772  10.057   9.020   7.814  0.3480 -1.0767  0.2103
  419MOL0     H57773   9.984   9.038   7.979  0.3564  1.4132  0.9682
  419MOL0     H57774  10.152   9.272   7.877  3.1096  0.1099  0.2855
  419MOL0     H57775  10.130   9.209   8.036 -1.6437  0.3257 -0.2558
  419MOL0     H57776  10.251   9.065   7.796  0.0032 -0.3180  0.3548
  419MOL0     H57777  10.364   9.155   7.896  0.9198 -0.4972  0.7302
  419MOL0     H57778  10.304   9.019   8.102  0.0974  2.8778 -0.7652
  419MOL0     H57779  10.186   8.929   8.014 -0.1212 -0.0888 -1.7026
  419MOL0     H57780  10.526   8.786   7.780 -0.3005  1.0225 -0.8013
  419MOL0     H57781  10.855   8.865   7.651 -3.6702  2.1657 -1.6883
  419MOL0     H57782  10.696   8.788   7.642 -0.3595 -0.4603 -0.1653
  419MOL0     H57783  10.827   8.723   7.747  0.8942  0.2503 -0.9215
  419MOL0     H57784  11.231   9.065   7.847  0.4999  3.9054 -0.0275
  419MOL0     H57785  11.441   9.028   7.933 -0.6910  0.5448 -0.6267
  419MOL0     H57786  11.643   8.914   8.052  2.8390 -2.0053  2.6665
  419MOL0     H57787  11.609   9.084   8.067 -2.8434 -0.8764 -1.6196
  419MOL0     H57788  11.732   9.098   8.269  3.3670  0.8513 -1.0026
  419MOL0     H57789  11.725   8.915   8.294  0.4359  1.3143  1.0258
  419MOL0     H57790  11.879   9.104   8.118 -2.0610  1.5040  2.9684
  419MOL0     H57791  11.878   8.921   8.066 -0.5503 -0.6820  0.1185
  419MOL0     H57792  11.946   8.894   8.317 -1.6452 -1.2336 -1.9741
  419MOL0     H57793  11.997   9.064   8.293 -1.8190  1.3492 -0.5833
  419MOL0     H57794  12.107   8.806   8.139 -1.1448  0.2400  1.6768
  419MOL0     H57795  12.130   8.977   8.080 -0.5425 -0.1186 -0.2208
  419MOL0     H57796  12.207   8.896   8.352  1.8493 -0.5581 -0.5627
  419MOL0     H57797  12.271   9.036   8.251  0.9222  0.1611 -3.7937
  419MOL0     H57798  12.388   8.897   8.110  0.0986 -0.0956  0.0405
  419MOL0     H57799  12.346   8.752   8.167  0.0573  0.6129 -2.3804
  419MOL0     H57800  12.568   8.795   8.245  0.0052 -0.9089  1.4960
  419MOL0     H57801  12.476   8.781   8.388  0.5953 -0.4652 -0.4681
  419MOL0     H57802  11.274   8.970   8.325  0.4600 -0.1502  0.1658
  419MOL0     H57803  11.050   9.022   8.241  0.5835  0.0142  1.0210
  419MOL0     H57804  10.734   9.120   8.080 -1.8508 -0.0262  0.7008
  419MOL0     H57805  10.529   9.083   8.104  2.2222  2.2356  0.0218
  419MOL0     H57806   9.605   8.754   7.302 -2.5944  1.4039 -1.8399
  419MOL0     H57807   9.681   8.722   7.070  0.9105  0.0064 -0.0209
  419MOL0     H57808  10.098   8.568   6.790  0.3815 -0.1296 -0.9514
  419MOL0     H57809  10.142   8.652   6.567  1.7833  0.5881  2.1929
  419MOL0     H57810   9.833   8.626   6.257 -1.8099  0.5676 -0.3915
  419MOL0     H57811   9.806   8.792   6.303 -1.1773  1.1416 -5.4249
  419MOL0     H57812   9.893   8.766   6.067 -0.4743 -0.1527  0.1785
  419MOL0     H57813  10.043   8.704   6.138 -0.6502 -0.7094 -2.2062
  419MOL0     H57814  10.000   8.967   6.079  0.3033  7.5373  3.7054
  419MOL0     H57815   9.943   8.965   6.239 -1.5320 -0.1763 -0.7979
  419MOL0     H57816  10.180   8.857   6.315  0.0792  0.6888  0.9274
  419MOL0     H57817  10.179   9.020   6.251  1.0775 -1.2188  0.8179
  419MOL0     H57818  10.452   8.888   5.986  0.9901  2.2114  1.0031
  419MOL0     H57819   9.731   8.709   6.500 -1.2659 -0.4995  1.6997
  419MOL0     H57820   9.569   8.672   6.649 -0.3152 -2.0417  0.6174
  419MOL0     H57821   9.586   8.591   6.782  1.9389 -1.4487 -1.9004
  419MOL0     H57822   9.621   8.770   6.793  3.5516 -0.4055  3.4460
  420MOL0     O57823   7.729   9.669   9.702  0.6024 -0.4490  0.3296
  420MOL0     C57824   7.768   9.564   9.650 -0.0352 -0.2772  0.7802
  420MOL0     O57825   7.803   9.452   9.714 -0.8339  0.8305 -0.2009
  420MOL0     C57826   7.705   9.408   9.799  0.2425 -0.8873  0.0507
  420MOL0     C57827   7.675   9.469   9.924 -0.4629  0.8410  0.9294
  420MOL0     C57828   7.583   9.415  10.017  0.0785 -0.0754  0.4899
  420MOL0     C57829   7.513   9.300   9.987 -0.2025 -0.2963 -0.7315
  420MOL0     O57830   7.413   9.249  10.069 -0.9689  0.2706  0.8221
  420MOL0     C57831   7.352   9.314  10.178 -0.0160 -0.2641 -0.6605
  420MOL0     C57832   7.214   9.269  10.196  0.4778  0.7344 -0.6143
  420MOL0     C57833   7.201   9.114  10.214 -0.0995 -0.3103 -0.4923
  420MOL0     C57834   7.067   9.074  10.269 -0.3194  1.3342  0.2965
  420MOL0     C57835   7.063   8.937  10.342 -1.3528  0.5478  0.5734
  420MOL0     C57836   7.119   8.820  10.269  0.3503 -0.8966 -1.3802
  420MOL0     C57837   7.082   8.804  10.117  0.0832  0.3401 -0.1269
  420MOL0     C57838   6.923   8.799  10.099  0.3696 -0.4535 -0.2597
  420MOL0     N57839   6.863   8.674  10.144  0.3096  0.3827 -0.5977
  420MOL0     C57840   6.786   8.664  10.253 -0.3775  0.7868 -0.5320
  420MOL0     C57841   6.749   8.535  10.259 -0.1660  1.1009 -0.3540
  420MOL0     C57842   6.659   8.465  10.353  0.1491 -0.3699  0.7803
  420MOL0     C57843   6.737   8.360  10.443  0.1066 -0.3864 -0.1572
  420MOL0     C57844   6.829   8.417  10.543  0.1558 -0.1976  0.0532
  420MOL0     C57845   6.863   8.324  10.657  0.8062  0.2454  0.0287
  420MOL0     O57846   6.769   8.346  10.759 -0.8830  0.2425  0.5002
  420MOL0     C57847   6.812   8.308  10.886  0.8948  0.4164 -0.7764
  420MOL0     C57848   6.723   8.345  10.984  0.1701 -0.1332  0.3684
  420MOL0     C57849   6.739   8.315  11.123 -0.4194 -0.5699  0.4996
  420MOL0     C57850   6.638   8.366  11.227  0.3084  0.0490  0.5251
  420MOL0     C57851   6.856   8.241  11.165  0.2410 -0.7429 -0.5555
  420MOL0     C57852   6.899   8.196  11.301  0.6716 -0.2474  0.3107
  420MOL0     O57853   6.793   8.174  11.391 -0.2620  0.0252 -0.2595
  420MOL0     C57854   6.834   8.106  11.504  0.3617  0.2305  0.5960
  420MOL0     C57855   6.909   8.164  11.610  0.4414 -1.2556 -0.8010
  420MOL0     C57856   6.955   8.096  11.722 -0.2557 -0.2439  0.7359
  420MOL0     C57857   6.913   7.959  11.736 -0.5627 -0.2087  0.2198
  420MOL0     O57858   6.967   7.883  11.840 -0.2075  0.1332  0.2107
  420MOL0     C57859   6.952   7.746  11.850 -0.0246  1.2199 -0.3825
  420MOL0     C57860   7.046   7.699  11.956 -0.5685 -0.8790  0.6272
  420MOL0     C57861   7.195   7.742  11.935 -1.1935  0.0377  0.5459
  420MOL0     C57862   7.282   7.704  12.051 -0.1747 -0.0551  0.3156
  420MOL0     C57863   7.253   7.778  12.184 -0.6658 -0.5791 -0.0052
  420MOL0     C57864   7.354   7.742  12.303  0.2524 -0.5857  0.8595
  420MOL0     C57865   7.485   7.805  12.286 -0.0238 -0.3307  0.1608
  420MOL0     C57866   7.487   7.963  12.288 -0.0197  0.1931  0.5630
  420MOL0    Cl57867   7.650   8.025  12.288  0.2642  0.2180  0.4286
  420MOL0     C57868   6.836   7.893  11.631 -0.3309  0.3333 -0.3240
  420MOL0     C57869   6.803   7.972  11.520  0.0418  0.2369  0.3820
  420MOL0     O57870   7.015   8.177  11.321  0.4614 -0.4689  0.2937
  420MOL0     C57871   6.947   8.209  11.059 -0.4395 -0.1076 -0.5537
  420MOL0     C57872   6.921   8.230  10.923 -0.1119 -0.4362 -0.0900
  420MOL0     N57873   6.808   8.465  10.151  0.2653 -0.7354  0.0005
  420MOL0     N57874   6.881   8.553  10.080  0.1894  1.1496 -0.2746
  420MOL0     C57875   7.531   9.237   9.862  0.8958 -0.4527 -0.6379
  420MOL0     C57876   7.636   9.287   9.775 -0.3107 -0.2294 -0.1205
  420MOL0     C57877   7.798   9.580   9.498 -0.6446  0.6158 -0.0206
  420MOL0     C57878   7.823   9.711   9.451 -0.5303 -0.0420  0.3205
  420MOL0     C57879   7.852   9.726   9.317 -0.2673 -1.1722  0.5033
  420MOL0     C57880   7.856   9.627   9.219 -0.7435 -0.2339  0.9613
  420MOL0     O57881   7.895   9.663   9.089  0.3452 -0.0818 -0.5639
  420MOL0     C57882   7.819   9.610   8.983 -0.6497  0.5845  0.2665
  420MOL0     C57883   7.918   9.556   8.878  0.0157 -0.7027 -0.5759
  420MOL0     C57884   7.857   9.553   8.732  0.0860 -0.2704 -0.4553
  420MOL0     C57885   7.961   9.512   8.630 -0.2352  0.2906  0.3393
  420MOL0     C57886   7.991   9.370   8.662  0.5795 -0.3850 -0.5114
  420MOL0     C57887   8.031   9.257   8.674 -0.4121 -0.2862 -0.4086
  420MOL0     C57888   7.834   9.493   9.265  0.4674 -0.3547 -0.4071
  420MOL0     C57889   7.802   9.470   9.405 -0.4668  0.5617 -0.0889
  420MOL0     C57890   7.758   9.333   9.441 -0.7005 -0.0094  0.5685
  420MOL0     H57891   7.729   9.558   9.957 -2.5353  2.4710  0.0948
  420MOL0     H57892   7.574   9.455  10.117  0.9898 -0.0865  0.5876
  420MOL0     H57893   7.342   9.421  10.156  0.5933 -0.3021 -1.1595
  420MOL0     H57894   7.415   9.303  10.267 -1.4165 -1.2016  0.2557
  420MOL0     H57895   7.186   9.317  10.290  1.3586 -1.9845  1.1239
  420MOL0     H57896   7.145   9.304  10.118 -0.5302  1.3431  0.5251
  420MOL0     H57897   7.229   9.063  10.121  4.9974  0.5027  0.3142
  420MOL0     H57898   7.286   9.081  10.273  2.9286  0.2178 -4.1546
  420MOL0     H57899   7.028   9.153  10.335 -3.2911 -0.5067  0.9203
  420MOL0     H57900   6.987   9.070  10.194 -0.5690  3.6286  0.3689
  420MOL0     H57901   6.968   8.906  10.387 -2.2322  3.5397  0.9972
  420MOL0     H57902   7.127   8.945  10.431 -0.5960 -0.4150  0.1382
  420MOL0     H57903   7.227   8.829  10.278  0.0546  5.4941  0.8201
  420MOL0     H57904   7.095   8.728  10.323  1.1931 -0.0778  0.4579
  420MOL0     H57905   7.132   8.714  10.083 -1.9900 -1.2607  0.8177
  420MOL0     H57906   7.110   8.888  10.053  0.2920  0.3119 -0.0722
  420MOL0     H57907   6.870   8.886  10.139 -0.2792  0.0524 -2.1460
  420MOL0     H57908   6.895   8.811   9.994  0.1251  3.1831  0.0804
  420MOL0     H57909   6.772   8.748  10.321  0.4233 -0.8531  1.7813
  420MOL0     H57910   6.585   8.418  10.288 -1.0442  0.0576  1.7816
  420MOL0     H57911   6.606   8.546  10.405 -1.2810 -1.4584  1.0777
  420MOL0     H57912   6.665   8.299  10.499  1.5548  1.6358  4.3241
  420MOL0     H57913   6.792   8.291  10.377 -3.2464 -2.0063 -1.5008
  420MOL0     H57914   6.922   8.451  10.496 -0.9836 -0.8029 -2.8283
  420MOL0     H57915   6.788   8.510  10.583 -1.0159 -1.0382  0.8662
  420MOL0     H57916   6.859   8.219  10.625 -1.6211  0.7405 -1.5932
  420MOL0     H57917   6.965   8.353  10.684  0.4930  3.0062 -1.3795
  420MOL0     H57918   6.636   8.396  10.943 -0.6426 -3.3253 -2.3429
  420MOL0     H57919   6.690   8.380  11.322  2.1015 -0.8998 -0.2745
  420MOL0     H57920   6.544   8.310  11.236 -0.0733  0.7411  0.9112
  420MOL0     H57921   6.620   8.468  11.192  2.4149  0.1993 -0.2377
  420MOL0     H57922   6.929   8.268  11.590  0.6545 -0.6369  2.2092
  420MOL0     H57923   7.014   8.140  11.802  0.8402  1.3977 -0.8757
  420MOL0     H57924   6.849   7.715  11.874  1.0191 -1.7582  0.8383
  420MOL0     H57925   6.974   7.705  11.751  1.9841  1.8636 -0.2377
  420MOL0     H57926   7.009   7.741  12.049 -0.9028 -0.4586  0.3091
  420MOL0     H57927   7.046   7.589  11.958  0.4847 -1.1190 -3.4120
  420MOL0     H57928   7.207   7.851  11.932  2.3811 -0.0562  3.8871
  420MOL0     H57929   7.235   7.694  11.845 -0.1279 -0.9142  1.5032
  420MOL0     H57930   7.390   7.713  12.036 -0.3722 -0.0942 -1.2858
  420MOL0     H57931   7.265   7.598  12.076  2.2611 -1.0174 -1.6598
  420MOL0     H57932   7.267   7.883  12.155 -1.8569 -0.1957  0.7473
  420MOL0     H57933   7.151   7.778  12.223 -0.5126  1.2468  0.5018
  420MOL0     H57934   7.358   7.633  12.311 -0.9189 -0.7598 -0.5556
  420MOL0     H57935   7.310   7.782  12.395  0.0726 -1.3295  1.1038
  420MOL0     H57936   7.536   7.760  12.200  0.7679  1.4881 -0.3694
  420MOL0     H57937   7.546   7.782  12.373 -2.1968 -0.9907  1.6000
  420MOL0     H57938   7.433   8.015  12.368  0.2636  0.4088  0.6123
  420MOL0     H57939   7.440   7.993  12.194 -0.3643 -3.1626 -0.4873
  420MOL0     H57940   6.800   7.791  11.629 -0.7250  0.4767 -1.1913
  420MOL0     H57941   6.755   7.920  11.438 -0.0078 -1.3510  1.3694
  420MOL0     H57942   7.029   8.142  11.082 -1.7066 -1.6038 -0.2116
  420MOL0     H57943   6.996   8.200  10.850  2.1231 -0.0892  1.9689
  420MOL0     H57944   7.482   9.145   9.832 -1.5361 -0.5911  3.1428
  420MOL0     H57945   7.650   9.231   9.683 -1.9914 -2.7305  1.0254
  420MOL0     H57946   7.808   9.799   9.512 -3.3926  0.8830 -1.5212
  420MOL0     H57947   7.871   9.823   9.274  0.3590 -0.3229  2.5719
  420MOL0     H57948   7.758   9.526   9.017  1.7422 -0.9756  1.0074
  420MOL0     H57949   7.760   9.692   8.941  0.4706  0.9150 -0.7272
  420MOL0     H57950   7.960   9.460   8.908 -1.8036 -0.9128  1.5810
  420MOL0     H57951   8.006   9.621   8.873 -0.9359  0.6213 -0.8129
  420MOL0     H57952   7.776   9.480   8.728 -0.8042  0.6702  0.2438
  420MOL0     H57953   7.809   9.648   8.708 -1.2642 -0.5310  1.0592
  420MOL0     H57954   8.050   9.575   8.632 -0.5767  0.7643  0.8363
  420MOL0     H57955   7.917   9.506   8.530 -0.6624 -2.7551  0.6083
  420MOL0     H57956   8.072   9.158   8.683  0.1803 -0.1852 -1.7693
  420MOL0     H57957   7.833   9.418   9.187 -3.2733  1.0844 -1.9495
  420MOL0     H57958   7.721   9.276   9.355 -0.0835 -0.6282  0.7047
  420MOL0     H57959   7.841   9.280   9.488 -1.1659 -0.6152  0.7148
  420MOL0     H57960   7.680   9.342   9.518  0.8155 -0.7870  2.2524
  421MOL0     O57961   0.650   7.545   3.401 -0.0558  0.0153 -0.0450
  421MOL0     C57962   0.719   7.523   3.299  0.1674  0.0810 -1.2221
  421MOL0     O57963   0.812   7.417   3.285 -0.0110 -0.2425 -0.0442
  421MOL0     C57964   0.795   7.311   3.367  0.4875  0.6140  0.9993
  421MOL0     C57965   0.769   7.183   3.308  0.5030  0.2455  0.2765
  421MOL0     C57966   0.740   7.065   3.383 -0.3246  0.5759  0.5338
  421MOL0     C57967   0.757   7.062   3.522 -0.2000 -0.4635 -0.1364
  421MOL0     O57968   0.732   6.956   3.600 -0.0367  1.0982 -0.8099
  421MOL0     C57969   0.731   6.962   3.745  0.3332  0.6473  0.4113
  421MOL0     C57970   0.695   6.831   3.820 -0.1933  0.3819  0.1649
  421MOL0     C57971   0.572   6.765   3.758 -0.0607 -0.3118  0.9875
  421MOL0     C57972   0.476   6.693   3.855  0.5195  0.3175 -0.2275
  421MOL0     C57973   0.335   6.670   3.804  0.0656  0.1397  0.2887
  421MOL0     C57974   0.270   6.805   3.774  0.4860 -0.7233 -0.5111
  421MOL0     C57975   0.118   6.820   3.757 -0.3183  0.5081  0.1503
  421MOL0     C57976   0.061   6.737   3.646  0.9508  0.2113  0.5100
  421MOL0     N57977   0.024   6.600   3.690  0.4778 -0.1166 -0.1548
  421MOL0     C57978   0.098   6.488   3.684 -0.1225  1.2059 -0.8557
  421MOL0     C57979   0.014   6.389   3.729 -0.0621  0.9623  0.4448
  421MOL0     C57980   0.061   6.237   3.741 -0.0949  1.1739  0.1891
  421MOL0     C57981   0.036   6.173   3.880 -0.2287  0.7518  0.4565
  421MOL0     C57982  -0.099   6.102   3.888 -0.8993 -0.2736 -0.5600
  421MOL0     C57983  -0.105   6.006   4.007  0.8376  0.7653 -0.1513
  421MOL0     O57984  -0.019   5.891   3.984 -0.7701  0.3546 -0.0967
  421MOL0     C57985  -0.015   5.786   4.070  0.0798 -0.2718  0.0588
  421MOL0     C57986  -0.101   5.763   4.185 -0.6889 -0.8143 -0.0516
  421MOL0     C57987  -0.080   5.651   4.269 -0.7888  0.6553  0.2410
  421MOL0     C57988  -0.168   5.615   4.391 -0.1024 -0.5734  0.0156
  421MOL0     C57989   0.031   5.563   4.237  0.6113 -0.1574 -0.0127
  421MOL0     C57990   0.062   5.449   4.319 -0.4499 -0.3276 -0.5762
  421MOL0     O57991   0.066   5.328   4.250 -0.1809  0.5406  0.2574
  421MOL0     C57992   0.029   5.212   4.307  0.6032 -1.3451  0.1725
  421MOL0     C57993   0.060   5.091   4.247 -0.3567  1.0466 -0.2595
  421MOL0     C57994   0.018   4.967   4.295 -0.3743  0.2885 -0.8990
  421MOL0     C57995  -0.060   4.958   4.412 -0.0525 -0.1977  0.3404
  421MOL0     O57996  -0.093   4.848   4.484  0.3224  0.2808 -0.0580
  421MOL0     C57997  -0.040   4.714   4.450 -0.0244 -0.2734  0.0078
  421MOL0     C57998  -0.113   4.665   4.323  1.2082 -0.2663 -0.2582
  421MOL0     C57999  -0.274   4.652   4.339 -0.0056 -0.4607 -0.1785
  421MOL0     C58000  -0.319   4.575   4.460  0.8019  0.1904 -0.0929
  421MOL0     C58001  -0.450   4.511   4.454  0.3234 -0.2971  0.3414
  421MOL0     C58002  -0.509   4.458   4.592 -0.0605  0.0672  0.7203
  421MOL0     C58003  -0.524   4.565   4.712 -0.1204 -0.0991 -0.4847
  421MOL0     C58004  -0.626   4.524   4.820  0.3507  0.2999 -0.2756
  421MOL0    Cl58005  -0.593   4.360   4.888 -0.2317 -0.0998  0.2404
  421MOL0     C58006  -0.088   5.081   4.469  0.1586 -0.4717 -0.0606
  421MOL0     C58007  -0.052   5.207   4.418  0.0610 -0.3157 -0.2611
  421MOL0     O58008   0.102   5.474   4.434 -0.4942 -0.0098  0.0553
  421MOL0     C58009   0.111   5.581   4.124 -0.4826 -0.3714 -0.1781
  421MOL0     C58010   0.084   5.695   4.045 -0.0341  0.2309 -0.1235
  421MOL0     N58011  -0.110   6.445   3.754 -0.5368 -0.2645 -0.6222
  421MOL0     N58012  -0.099   6.574   3.741  0.0912  0.0911  0.5911
  421MOL0     C58013   0.816   7.185   3.577  0.7362 -0.7813 -0.8684
  421MOL0     C58014   0.827   7.304   3.503 -0.5328 -0.4856  0.1183
  421MOL0     C58015   0.686   7.612   3.188 -0.2920  0.0526  0.7077
  421MOL0     C58016   0.582   7.699   3.200 -0.1834 -0.3611 -0.1771
  421MOL0     C58017   0.548   7.789   3.096  0.0372 -0.5121 -1.1039
  421MOL0     C58018   0.606   7.791   2.976 -0.4962 -0.0097 -0.6778
  421MOL0     O58019   0.573   7.894   2.891  0.0604  0.0725  0.2571
  421MOL0     C58020   0.620   7.889   2.753  0.0354  0.3402  0.6082
  421MOL0     C58021   0.757   7.951   2.734 -0.4782 -1.3625  0.1575
  421MOL0     C58022   0.862   7.866   2.657  1.0345  0.1721 -0.1688
  421MOL0     C58023   0.981   7.942   2.597  0.0978  0.0382 -0.6731
  421MOL0     C58024   0.931   8.050   2.511  1.3202  0.1226  0.0207
  421MOL0     C58025   0.898   8.133   2.431  0.0856 -0.1907  0.0601
  421MOL0     C58026   0.704   7.696   2.955 -0.6976 -0.1414 -0.5791
  421MOL0     C58027   0.754   7.606   3.065  1.4527 -0.8228  0.5154
  421MOL0     C58028   0.871   7.515   3.032 -0.1769  0.1064 -0.4131
  421MOL0     H58029   0.775   7.178   3.200 -0.7755  0.9886  0.1466
  421MOL0     H58030   0.733   6.987   3.307 -2.3281  1.7442 -0.5501
  421MOL0     H58031   0.650   7.032   3.766 -0.8076 -0.6326  0.3832
  421MOL0     H58032   0.828   6.997   3.784  0.3964  0.5144  0.3725
  421MOL0     H58033   0.778   6.761   3.812 -1.0575 -0.7088  0.5245
  421MOL0     H58034   0.675   6.860   3.923 -1.1418 -0.2048  0.1592
  421MOL0     H58035   0.519   6.846   3.705  1.0789  1.1934  2.0573
  421MOL0     H58036   0.593   6.686   3.685 -2.6065 -0.0648 -0.1158
  421MOL0     H58037   0.515   6.599   3.895  0.0899  0.5504  0.7501
  421MOL0     H58038   0.472   6.759   3.942  0.3156  0.3327 -0.2488
  421MOL0     H58039   0.275   6.615   3.878 -2.6317  1.3082 -0.9112
  421MOL0     H58040   0.334   6.615   3.710 -0.2311  1.2240 -0.3519
  421MOL0     H58041   0.297   6.871   3.857  0.0869  1.7889 -2.2522
  421MOL0     H58042   0.311   6.838   3.679  0.0511  0.6927 -0.2325
  421MOL0     H58043   0.094   6.924   3.733  0.4255  0.9705  1.2837
  421MOL0     H58044   0.058   6.792   3.844 -3.0322 -0.6104 -1.9662
  421MOL0     H58045  -0.033   6.778   3.607  1.2604 -0.6888 -1.3255
  421MOL0     H58046   0.135   6.726   3.566  1.7064  0.8828  1.1187
  421MOL0     H58047   0.191   6.470   3.630  0.9960 -1.3400  1.6497
  421MOL0     H58048   0.165   6.216   3.715 -0.5243  1.2495 -1.7642
  421MOL0     H58049  -0.002   6.183   3.671 -0.7638  2.7971 -0.5122
  421MOL0     H58050   0.102   6.086   3.891 -0.3714  0.5041 -0.5428
  421MOL0     H58051   0.048   6.243   3.963 -1.3216  1.2323  0.2193
  421MOL0     H58052  -0.169   6.185   3.894  0.2891  0.8236 -1.2854
  421MOL0     H58053  -0.120   6.060   3.789 -1.0177 -1.5034 -0.0388
  421MOL0     H58054  -0.097   6.054   4.105 -1.7991 -0.2527  0.6662
  421MOL0     H58055  -0.212   5.980   4.008  0.6556  1.4809  0.1308
  421MOL0     H58056  -0.184   5.833   4.195 -0.5550  0.1064 -3.8700
  421MOL0     H58057  -0.200   5.511   4.399 -0.0988 -0.4212  4.3989
  421MOL0     H58058  -0.251   5.686   4.388 -0.5942 -1.1547 -0.3979
  421MOL0     H58059  -0.119   5.631   4.488  1.8684  1.6024 -1.2461
  421MOL0     H58060   0.127   5.081   4.162 -1.9980 -0.9356 -1.4088
  421MOL0     H58061   0.050   4.876   4.246  0.0229 -1.3914  2.2477
  421MOL0     H58062   0.065   4.728   4.424 -0.6607  0.1973 -2.5022
  421MOL0     H58063  -0.052   4.637   4.528 -1.1887  0.5309  0.6460
  421MOL0     H58064  -0.102   4.732   4.238  4.4414 -0.9148 -0.4637
  421MOL0     H58065  -0.076   4.567   4.290 -0.3223 -0.3263 -1.9610
  421MOL0     H58066  -0.313   4.601   4.251 -1.5940 -1.4768  1.0709
  421MOL0     H58067  -0.322   4.750   4.341  0.0848 -0.4182  1.4113
  421MOL0     H58068  -0.330   4.650   4.539  0.7739  0.3055 -0.2059
  421MOL0     H58069  -0.248   4.498   4.493 -2.7131 -2.5813  1.6835
  421MOL0     H58070  -0.522   4.579   4.409 -0.7713  0.1454  2.6021
  421MOL0     H58071  -0.438   4.423   4.390 -0.5625  0.5447 -1.0139
  421MOL0     H58072  -0.446   4.375   4.625  0.3627  0.2369  0.3475
  421MOL0     H58073  -0.609   4.422   4.566 -0.6767  2.8039 -1.1624
  421MOL0     H58074  -0.562   4.658   4.669  0.4468  0.0878 -0.5850
  421MOL0     H58075  -0.429   4.569   4.766 -2.2600 -0.4581  3.7237
  421MOL0     H58076  -0.723   4.504   4.774 -1.0004 -0.9000  2.8452
  421MOL0     H58077  -0.629   4.599   4.900  4.4211 -1.2302  1.5873
  421MOL0     H58078  -0.142   5.083   4.562 -0.6402 -1.8092 -0.4702
  421MOL0     H58079  -0.079   5.296   4.474 -0.5729 -0.3786 -0.4638
  421MOL0     H58080   0.193   5.515   4.100  3.6239  4.2458 -0.5177
  421MOL0     H58081   0.142   5.704   3.954  2.7693  1.4520  1.6369
  421MOL0     H58082   0.831   7.202   3.683 -1.1316 -2.0946 -0.3374
  421MOL0     H58083   0.871   7.393   3.546  1.2222 -0.7513 -1.0077
  421MOL0     H58084   0.532   7.715   3.295 -1.0721  3.1532 -1.0823
  421MOL0     H58085   0.473   7.862   3.122  0.3474 -0.1086 -1.3386
  421MOL0     H58086   0.616   7.791   2.704 -1.4667 -0.2857  1.8764
  421MOL0     H58087   0.553   7.955   2.698  0.7971 -0.7452 -1.7677
  421MOL0     H58088   0.797   7.985   2.830 -0.1524  1.8772 -1.0057
  421MOL0     H58089   0.745   8.049   2.688  0.8121 -1.2215  0.0834
  421MOL0     H58090   0.893   7.793   2.733  0.8602  1.9059  1.6523
  421MOL0     H58091   0.821   7.807   2.575 -2.7495  1.3459  0.6816
  421MOL0     H58092   1.048   7.875   2.544 -0.5206 -3.4647  2.5197
  421MOL0     H58093   1.047   7.978   2.676 -1.3450  0.0921  0.5676
  421MOL0     H58094   0.876   8.208   2.357  2.0347 -0.0840 -0.4923
  421MOL0     H58095   0.764   7.711   2.866  0.0758  0.5169  0.0445
  421MOL0     H58096   0.956   7.518   3.101  0.0881  0.9466 -0.7615
  421MOL0     H58097   0.831   7.413   3.029 -1.9942  0.6635  1.9470
  421MOL0     H58098   0.917   7.544   2.937 -0.8347 -0.1764 -0.8266
  422MOL0     O58099   5.759   2.330   1.528  0.2018  0.0691 -0.4744
  422MOL0     C58100   5.757   2.326   1.656 -0.1520  0.1147  0.8586
  422MOL0     O58101   5.863   2.284   1.741 -0.0436 -0.5039  1.4414
  422MOL0     C58102   5.972   2.218   1.686  0.7130 -0.2394  0.3220
  422MOL0     C58103   6.095   2.218   1.752 -0.4981  0.1737 -0.2007
  422MOL0     C58104   6.209   2.159   1.694  0.0222  0.0685 -0.2271
  422MOL0     C58105   6.193   2.078   1.583 -1.1568  0.3268  1.3269
  422MOL0     O58106   6.302   2.006   1.532  0.1590  0.3392 -0.0147
  422MOL0     C58107   6.438   2.051   1.555 -0.6929  0.0379 -0.3608
  422MOL0     C58108   6.489   1.963   1.675 -0.1757  0.1016 -0.2127
  422MOL0     C58109   6.638   1.996   1.705 -0.1286 -0.2373  0.2637
  422MOL0     C58110   6.678   1.937   1.840 -0.1081  0.0157  0.5729
  422MOL0     C58111   6.826   1.972   1.857  0.1847 -0.1739 -0.0438
  422MOL0     C58112   6.906   1.868   1.954 -0.2888 -0.3457  0.7654
  422MOL0     C58113   6.840   1.839   2.085 -0.7517  0.6569  0.4363
  422MOL0     C58114   6.791   1.956   2.177  1.3068 -0.2470  0.7972
  422MOL0     N58115   6.895   2.055   2.201 -0.0024 -0.1749 -0.7846
  422MOL0     C58116   7.003   2.040   2.282 -0.1271  0.4941 -0.2376
  422MOL0     C58117   7.077   2.141   2.254  0.1786  0.4576  0.6143
  422MOL0     C58118   7.220   2.157   2.297  0.4791 -0.1123 -0.8353
  422MOL0     C58119   7.229   2.152   2.448  0.5663  0.8791 -0.2378
  422MOL0     C58120   7.372   2.148   2.499  0.4610 -0.0866 -0.3108
  422MOL0     C58121   7.390   2.125   2.646  0.4907  0.0358 -0.8030
  422MOL0     O58122   7.425   1.995   2.670 -0.0076 -0.8703 -0.1998
  422MOL0     C58123   7.435   1.954   2.801  1.3728 -0.3267 -0.5957
  422MOL0     C58124   7.400   2.020   2.915 -0.2184 -0.0616  0.3969
  422MOL0     C58125   7.413   1.959   3.048  1.2797 -0.2321 -0.1231
  422MOL0     C58126   7.362   2.045   3.169 -0.1239  0.3997  0.3143
  422MOL0     C58127   7.469   1.829   3.064  0.1457 -0.5616 -0.7035
  422MOL0     C58128   7.481   1.753   3.189 -0.1013  0.2636  0.1725
  422MOL0     O58129   7.469   1.617   3.182 -0.1427 -0.0726  0.0697
  422MOL0     C58130   7.516   1.542   3.288 -0.3356  0.4442  0.0622
  422MOL0     C58131   7.428   1.458   3.350 -0.0857  0.0809  0.5008
  422MOL0     C58132   7.471   1.383   3.459  0.3586  0.6420  0.1649
  422MOL0     C58133   7.605   1.391   3.503 -0.4008 -1.4687  0.4314
  422MOL0     O58134   7.656   1.334   3.623 -0.1816 -0.6495  0.4815
  422MOL0     C58135   7.598   1.207   3.673 -0.3631  0.3625  0.3120
  422MOL0     C58136   7.665   1.176   3.806 -0.0030  1.2000  0.6755
  422MOL0     C58137   7.607   1.250   3.914  0.1795  0.1395 -0.0223
  422MOL0     C58138   7.488   1.185   3.980  0.3349  0.5463 -0.1607
  422MOL0     C58139   7.443   1.267   4.103 -0.4420  0.4584  0.2628
  422MOL0     C58140   7.327   1.199   4.173 -0.3137  0.2623  0.0286
  422MOL0     C58141   7.197   1.216   4.107  0.9368 -0.8374  0.3302
  422MOL0     C58142   7.064   1.195   4.182  0.0163  0.1412 -0.2077
  422MOL0    Cl58143   7.072   1.063   4.302 -0.3335  0.3094 -0.3406
  422MOL0     C58144   7.696   1.474   3.437 -2.0032 -0.4494  0.0154
  422MOL0     C58145   7.646   1.549   3.328 -0.9837  0.2226  1.1042
  422MOL0     O58146   7.512   1.818   3.284 -0.5409 -0.2440 -0.5203
  422MOL0     C58147   7.524   1.775   2.945 -0.2064  0.1886 -0.1574
  422MOL0     C58148   7.486   1.826   2.823 -0.3998  0.0835 -0.3584
  422MOL0     N58149   7.010   2.228   2.163 -0.2022  0.1873 -0.3415
  422MOL0     N58150   6.899   2.175   2.133  0.2489  0.0715 -0.0864
  422MOL0     C58151   6.069   2.061   1.522 -0.3039 -0.1460 -0.1786
  422MOL0     C58152   5.964   2.132   1.573  1.0661  0.3107 -0.4189
  422MOL0     C58153   5.634   2.372   1.737  0.2293 -0.6390 -0.1691
  422MOL0     C58154   5.638   2.347   1.872 -1.4532  0.4639 -0.6329
  422MOL0     C58155   5.524   2.365   1.949 -0.4404  0.5426  0.2287
  422MOL0     C58156   5.409   2.415   1.898  0.6338 -0.5182 -0.6569
  422MOL0     O58157   5.290   2.433   1.968 -0.3864  0.8286  0.0892
  422MOL0     C58158   5.285   2.398   2.114 -0.1289 -0.1585  0.2801
  422MOL0     C58159   5.176   2.489   2.193  0.3054 -0.4884 -0.1953
  422MOL0     C58160   5.229   2.627   2.211 -0.1004  0.3741  0.8074
  422MOL0     C58161   5.135   2.693   2.322 -0.4612  0.9505  0.9626
  422MOL0     C58162   5.203   2.820   2.359 -0.2397  0.5762  1.1364
  422MOL0     C58163   5.238   2.934   2.385 -0.1971  0.0963 -0.3723
  422MOL0     C58164   5.406   2.444   1.762  0.7848  0.3002 -0.6304
  422MOL0     C58165   5.520   2.415   1.680  0.2558 -0.2925  0.0892
  422MOL0     C58166   5.493   2.423   1.531  0.6850  0.0878 -0.2220
  422MOL0     H58167   6.109   2.270   1.846 -3.6401  1.1193 -0.1543
  422MOL0     H58168   6.304   2.177   1.744 -1.2005  0.6472  2.0052
  422MOL0     H58169   6.457   2.154   1.588  4.6313 -1.3763  2.0475
  422MOL0     H58170   6.488   2.023   1.462 -2.4190  2.5855 -2.1845
  422MOL0     H58171   6.441   1.993   1.768 -0.3852 -1.1931  0.1195
  422MOL0     H58172   6.472   1.856   1.661 -3.6248  0.6704 -1.1585
  422MOL0     H58173   6.696   1.961   1.619  0.0523  1.0174 -0.1436
  422MOL0     H58174   6.653   2.104   1.712  3.4171 -0.4638 -1.6113
  422MOL0     H58175   6.624   1.996   1.915  2.3151  1.3101  1.4123
  422MOL0     H58176   6.651   1.831   1.847  0.8191 -0.3177 -0.6002
  422MOL0     H58177   6.837   2.070   1.905 -1.2582 -0.3607  0.7008
  422MOL0     H58178   6.874   1.984   1.759  1.3196  0.6750  0.5960
  422MOL0     H58179   6.912   1.768   1.910 -0.3814 -0.0321  0.0232
  422MOL0     H58180   7.007   1.903   1.975  0.4532 -2.0402  0.1687
  422MOL0     H58181   6.917   1.783   2.140 -1.1885  0.0301  0.4227
  422MOL0     H58182   6.753   1.774   2.077  0.4120 -0.8823 -0.3650
  422MOL0     H58183   6.709   2.007   2.126  1.6355 -0.7727 -0.2753
  422MOL0     H58184   6.763   1.902   2.268 -2.4040 -0.9119 -0.5840
  422MOL0     H58185   7.019   1.955   2.347  0.1091  1.1632  0.6059
  422MOL0     H58186   7.264   2.253   2.269  1.4974  0.7892  3.1788
  422MOL0     H58187   7.280   2.083   2.243  0.3388 -1.2641  0.5492
  422MOL0     H58188   7.170   2.237   2.484 -2.3039  0.3693 -3.1484
  422MOL0     H58189   7.178   2.063   2.487  1.4615 -0.1354 -1.2853
  422MOL0     H58190   7.427   2.070   2.445 -1.8788 -2.5815  0.6779
  422MOL0     H58191   7.411   2.249   2.483 -0.6991 -0.0220 -3.4519
  422MOL0     H58192   7.472   2.192   2.674  2.3266 -1.3636 -2.4401
  422MOL0     H58193   7.299   2.150   2.701  2.4807  0.5192  2.6119
  422MOL0     H58194   7.370   2.124   2.903  1.1540  0.1971 -1.1215
  422MOL0     H58195   7.278   1.995   3.218  0.9648 -1.5535  0.3253
  422MOL0     H58196   7.336   2.148   3.145 -0.4440 -0.0352 -1.2976
  422MOL0     H58197   7.439   2.052   3.247  2.1136 -0.5230 -1.6809
  422MOL0     H58198   7.323   1.457   3.321 -0.5119 -0.9554  1.9223
  422MOL0     H58199   7.402   1.317   3.511 -0.9928  0.0740 -2.1936
  422MOL0     H58200   7.491   1.216   3.689 -1.0554  1.5794 -3.7253
  422MOL0     H58201   7.629   1.130   3.601  1.4002 -0.3054  1.7213
  422MOL0     H58202   7.643   1.069   3.811 -1.5154  1.4964  0.6815
  422MOL0     H58203   7.774   1.172   3.797 -0.1320 -3.2957 -2.2778
  422MOL0     H58204   7.581   1.351   3.883 -1.4920  1.1821  4.0964
  422MOL0     H58205   7.681   1.271   3.991 -0.2201  1.6216 -0.0169
  422MOL0     H58206   7.511   1.082   4.006  3.6422  0.3439 -3.2254
  422MOL0     H58207   7.399   1.189   3.916  0.6754  3.3988 -0.6111
  422MOL0     H58208   7.529   1.288   4.166  0.2842  0.2904 -0.6515
  422MOL0     H58209   7.410   1.362   4.060 -2.6830 -0.0471  0.7296
  422MOL0     H58210   7.311   1.255   4.265  0.8745 -1.0518  1.0904
  422MOL0     H58211   7.340   1.093   4.196 -0.5492  0.3711  0.6933
  422MOL0     H58212   7.184   1.147   4.024 -0.1792  0.2133 -0.4181
  422MOL0     H58213   7.196   1.314   4.058  1.7771 -0.7673  0.4473
  422MOL0     H58214   6.977   1.184   4.117  1.5526  0.7508 -2.5088
  422MOL0     H58215   7.052   1.282   4.247  2.3911  0.5466 -0.2058
  422MOL0     H58216   7.801   1.475   3.464 -1.8099  3.0382 -0.4814
  422MOL0     H58217   7.723   1.599   3.270 -0.4657 -1.1874  0.5338
  422MOL0     H58218   7.576   1.680   2.949 -2.3084 -1.0090  0.2245
  422MOL0     H58219   7.506   1.760   2.740  0.0741 -3.0626  2.0528
  422MOL0     H58220   6.068   2.001   1.431  3.6489 -0.5500 -0.1209
  422MOL0     H58221   5.870   2.116   1.521  1.7612  0.7555 -1.8928
  422MOL0     H58222   5.722   2.299   1.920 -1.0923 -1.6922 -3.1400
  422MOL0     H58223   5.536   2.321   2.048 -0.0031 -0.4093 -0.2369
  422MOL0     H58224   5.243   2.298   2.127 -1.7822  0.6288  1.5252
  422MOL0     H58225   5.383   2.406   2.160  0.9991  2.2764 -2.2453
  422MOL0     H58226   5.156   2.442   2.290 -0.4221  3.0114  1.4989
  422MOL0     H58227   5.077   2.502   2.147 -0.2957  3.1369  1.7220
  422MOL0     H58228   5.337   2.629   2.225  0.3781  3.5916 -1.9203
  422MOL0     H58229   5.206   2.680   2.118  0.7483  0.1417  0.4623
  422MOL0     H58230   5.124   2.635   2.414 -0.0530 -0.1794  0.3235
  422MOL0     H58231   5.031   2.707   2.290 -0.7368 -0.0978  1.3664
  422MOL0     H58232   5.260   3.035   2.414 -1.5074  0.9466 -2.1561
  422MOL0     H58233   5.310   2.485   1.729 -0.0081  0.0573  1.2508
  422MOL0     H58234   5.545   2.509   1.488 -0.0230  0.7651  0.2477
  422MOL0     H58235   5.519   2.335   1.472 -1.4047 -0.1605 -0.8611
  422MOL0     H58236   5.384   2.438   1.524  0.2400 -1.9848  1.2705
  423MOL0     O58237   4.698   1.074   7.412 -0.3456 -0.6924  0.1700
  423MOL0     C58238   4.623   1.120   7.326  0.2474  0.5803 -0.2683
  423MOL0     O58239   4.623   1.101   7.189  0.2568  0.2967 -0.6775
  423MOL0     C58240   4.720   1.018   7.132  0.3695 -0.0577 -0.4211
  423MOL0     C58241   4.710   0.878   7.127 -0.5640  0.7413  0.0277
  423MOL0     C58242   4.810   0.795   7.071  0.5743  0.2018 -1.0972
  423MOL0     C58243   4.923   0.850   7.021 -0.1347 -0.0037 -0.1145
  423MOL0     O58244   5.007   0.756   6.965 -0.0973 -0.6538  0.5450
  423MOL0     C58245   5.139   0.784   6.940 -0.8292  0.1739  0.0124
  423MOL0     C58246   5.193   0.697   6.829  0.9851 -0.3242  0.8875
  423MOL0     C58247   5.181   0.550   6.870 -0.5013  0.3794 -0.0411
  423MOL0     C58248   5.210   0.462   6.747 -0.1289 -0.3366 -0.6040
  423MOL0     C58249   5.239   0.317   6.773  0.8840 -0.3348  0.5460
  423MOL0     C58250   5.373   0.310   6.848  0.3801  0.1847 -0.5896
  423MOL0     C58251   5.420   0.168   6.884  0.2689 -0.6519  0.1825
  423MOL0     C58252   5.460   0.083   6.768 -0.4581  0.1758  0.0108
  423MOL0     N58253   5.582   0.112   6.686  0.2725 -0.4206 -0.4104
  423MOL0     C58254   5.713   0.134   6.730 -0.6201 -1.0196 -0.7944
  423MOL0     C58255   5.787   0.141   6.616  0.3442  0.4565  0.6272
  423MOL0     C58256   5.934   0.151   6.599 -0.2241 -0.2364 -0.0453
  423MOL0     C58257   6.014   0.083   6.717  0.1988 -0.6756  0.9269
  423MOL0     C58258   6.136   0.164   6.758 -1.2740  0.9430  0.1500
  423MOL0     C58259   6.237   0.081   6.834 -0.5439 -0.7758  0.3450
  423MOL0     O58260   6.183   0.028   6.952 -0.1083 -1.3323  0.0812
  423MOL0     C58261   6.281  -0.032   7.035 -0.3474 -0.8564 -0.7756
  423MOL0     C58262   6.409   0.030   7.055  0.0133  0.6047 -0.6684
  423MOL0     C58263   6.509  -0.036   7.130  0.2140  0.8407 -0.0920
  423MOL0     C58264   6.633   0.048   7.155 -0.5012  0.1026 -0.1562
  423MOL0     C58265   6.492  -0.172   7.178  1.0064 -0.9023  1.0669
  423MOL0     C58266   6.593  -0.250   7.243  0.1607  0.2099  0.3388
  423MOL0     O58267   6.566  -0.385   7.269 -0.5076 -0.5717 -0.8216
  423MOL0     C58268   6.672  -0.460   7.323 -0.2194 -0.6156 -0.3306
  423MOL0     C58269   6.741  -0.546   7.238  1.6625  0.2833 -0.6697
  423MOL0     C58270   6.839  -0.630   7.287 -0.2705 -0.4621  0.0053
  423MOL0     C58271   6.887  -0.620   7.416  0.8092  0.0162 -1.0002
  423MOL0     O58272   6.993  -0.702   7.443 -0.0184 -0.2611 -0.2498
  423MOL0     C58273   7.032  -0.725   7.582 -0.0186 -0.2017 -1.2215
  423MOL0     C58274   7.156  -0.814   7.568  0.2120 -0.4239 -0.4762
  423MOL0     C58275   7.268  -0.759   7.481 -0.5963 -0.3445 -0.8910
  423MOL0     C58276   7.370  -0.664   7.565  0.2089  1.0635  0.5727
  423MOL0     C58277   7.496  -0.620   7.482  0.1587  0.0161 -0.7317
  423MOL0     C58278   7.578  -0.510   7.548 -0.6511  0.4967  0.3530
  423MOL0     C58279   7.724  -0.486   7.508  0.1691  0.1974  0.2893
  423MOL0     C58280   7.803  -0.384   7.578 -0.0913 -0.4223  0.0068
  423MOL0    Cl58281   7.707  -0.283   7.687  0.4480 -0.0040 -0.3220
  423MOL0     C58282   6.813  -0.539   7.508  0.2388  0.3382  0.4741
  423MOL0     C58283   6.716  -0.449   7.458 -1.1408  0.0918  0.4986
  423MOL0     O58284   6.698  -0.196   7.273  0.2435 -0.5864 -0.2399
  423MOL0     C58285   6.368  -0.221   7.152  1.2252  0.3141 -0.3724
  423MOL0     C58286   6.269  -0.161   7.079  1.1037  0.0380 -0.3478
  423MOL0     N58287   5.703   0.124   6.507 -0.2862 -0.0750 -0.0324
  423MOL0     N58288   5.581   0.113   6.547  0.2869  0.0036 -0.4055
  423MOL0     C58289   4.943   0.990   7.032  0.7137 -0.2115  0.2601
  423MOL0     C58290   4.841   1.068   7.089  0.5041  0.2132 -0.4567
  423MOL0     C58291   4.523   1.218   7.374  1.0097  0.6688 -0.2767
  423MOL0     C58292   4.451   1.287   7.274 -0.4875 -0.8258 -0.3414
  423MOL0     C58293   4.365   1.399   7.299  0.4201  0.3803 -0.1610
  423MOL0     C58294   4.339   1.433   7.430  0.4291 -0.1232 -0.2944
  423MOL0     O58295   4.267   1.551   7.471 -0.7424  0.0817 -0.9664
  423MOL0     C58296   4.217   1.634   7.365 -0.2181 -0.1951 -0.6098
  423MOL0     C58297   4.315   1.743   7.331 -0.0232  1.6116  0.4300
  423MOL0     C58298   4.243   1.863   7.261  0.1350  0.1842 -0.3592
  423MOL0     C58299   4.209   1.844   7.108  0.0243  0.2222 -0.0866
  423MOL0     C58300   4.124   1.950   7.058 -0.3817  0.0069  0.1272
  423MOL0     C58301   4.063   2.039   6.999  0.5958 -0.2563 -0.1441
  423MOL0     C58302   4.395   1.356   7.526  0.4936  0.1353  0.1193
  423MOL0     C58303   4.481   1.247   7.501 -0.4331 -0.8980 -1.0306
  423MOL0     C58304   4.524   1.156   7.617 -0.2098 -0.4891  0.1019
  423MOL0     H58305   4.614   0.831   7.146 -0.9873  2.1141  1.4615
  423MOL0     H58306   4.786   0.690   7.059  0.2805  0.4268 -2.7515
  423MOL0     H58307   5.204   0.762   7.025  5.7563 -1.0388 -4.6035
  423MOL0     H58308   5.162   0.884   6.904 -0.2136  0.4969  1.2411
  423MOL0     H58309   5.133   0.717   6.740  1.8859  1.5901  0.6474
  423MOL0     H58310   5.295   0.729   6.808  2.3630 -2.3839  3.7318
  423MOL0     H58311   5.254   0.534   6.949 -1.0314 -0.3457  0.3152
  423MOL0     H58312   5.085   0.538   6.922  0.1034  3.0028  1.9025
  423MOL0     H58313   5.121   0.469   6.684  0.7797  1.8897 -1.7556
  423MOL0     H58314   5.292   0.506   6.691 -1.0933  3.5271  0.7067
  423MOL0     H58315   5.237   0.272   6.674  1.7978 -0.5800  0.6314
  423MOL0     H58316   5.165   0.270   6.838 -0.1087  2.9386  1.9841
  423MOL0     H58317   5.448   0.352   6.781 -1.5466  1.8468 -1.8392
  423MOL0     H58318   5.366   0.382   6.930 -0.5284 -2.2950  1.6533
  423MOL0     H58319   5.335   0.120   6.934 -0.7111  0.3167 -0.5070
  423MOL0     H58320   5.504   0.174   6.954  0.6029  0.7452 -0.2985
  423MOL0     H58321   5.472  -0.011   6.824  1.4108  0.5167  0.2298
  423MOL0     H58322   5.384   0.063   6.692  1.2726 -2.0956 -1.2526
  423MOL0     H58323   5.750   0.143   6.832 -0.0668  0.0070 -1.0643
  423MOL0     H58324   5.956   0.259   6.598  3.0706 -0.7787 -1.3124
  423MOL0     H58325   5.967   0.116   6.501 -3.6315  1.6302 -2.0328
  423MOL0     H58326   5.947   0.074   6.803  0.2561  2.5396  1.4022
  423MOL0     H58327   6.048  -0.016   6.684 -2.0783 -0.7146 -1.7119
  423MOL0     H58328   6.189   0.200   6.669 -0.8632 -1.5596 -0.7031
  423MOL0     H58329   6.126   0.253   6.820  0.8342  1.3003  0.0508
  423MOL0     H58330   6.279   0.007   6.765  0.0711  1.9602 -2.4164
  423MOL0     H58331   6.312   0.161   6.833 -3.0972  1.9017 -3.0889
  423MOL0     H58332   6.426   0.132   7.019  1.9774 -0.0755 -1.8519
  423MOL0     H58333   6.635   0.065   7.263 -3.7356  0.4911 -0.0352
  423MOL0     H58334   6.631   0.142   7.099  1.3109 -1.7756 -3.7698
  423MOL0     H58335   6.723  -0.005   7.124 -0.0662  0.8180 -0.1166
  423MOL0     H58336   6.694  -0.540   7.140 -1.3256  2.2087  0.7510
  423MOL0     H58337   6.892  -0.699   7.222 -0.5494 -0.2413 -0.4538
  423MOL0     H58338   7.053  -0.629   7.631  1.5669 -0.0440 -2.1333
  423MOL0     H58339   6.952  -0.777   7.634  0.4812  1.2402  1.1705
  423MOL0     H58340   7.205  -0.835   7.663  2.2864  3.5478 -0.4661
  423MOL0     H58341   7.118  -0.906   7.522  0.2698  0.2390 -1.9038
  423MOL0     H58342   7.234  -0.712   7.389  0.2557 -0.8366 -1.4732
  423MOL0     H58343   7.330  -0.845   7.453 -1.2752 -2.6730  3.7734
  423MOL0     H58344   7.404  -0.716   7.655 -0.0883 -3.5643 -1.6659
  423MOL0     H58345   7.308  -0.577   7.589 -1.9424  0.8768 -3.4253
  423MOL0     H58346   7.564  -0.706   7.483  0.4226  0.1747 -2.4773
  423MOL0     H58347   7.478  -0.594   7.377 -2.0945 -2.2015 -1.0001
  423MOL0     H58348   7.593  -0.532   7.654 -0.6438 -1.1260  0.0345
  423MOL0     H58349   7.528  -0.414   7.533  0.8108  2.0241  4.0558
  423MOL0     H58350   7.719  -0.468   7.400 -0.2524 -1.3399  0.0327
  423MOL0     H58351   7.771  -0.584   7.519 -0.8967 -0.3012  0.5324
  423MOL0     H58352   7.864  -0.327   7.507  0.3590 -0.0563  0.6742
  423MOL0     H58353   7.872  -0.446   7.637 -1.6501 -2.8764 -0.5753
  423MOL0     H58354   6.840  -0.543   7.613  3.2235  1.0111 -0.1830
  423MOL0     H58355   6.656  -0.383   7.519 -1.2337  0.8637 -0.4080
  423MOL0     H58356   6.340  -0.320   7.185  1.2061 -0.2297 -1.9221
  423MOL0     H58357   6.174  -0.212   7.067  0.3985  0.5236  2.4290
  423MOL0     H58358   5.041   1.030   7.008  1.0211 -1.2673 -0.2731
  423MOL0     H58359   4.850   1.177   7.090  0.2258  0.2384 -0.5934
  423MOL0     H58360   4.460   1.257   7.170  1.1206  1.8145 -1.0428
  423MOL0     H58361   4.321   1.448   7.213 -2.0889  0.8917  1.2990
  423MOL0     H58362   4.170   1.575   7.285 -1.7157 -1.3591  1.0671
  423MOL0     H58363   4.130   1.688   7.402  1.9416  4.5650 -1.6655
  423MOL0     H58364   4.396   1.705   7.269 -0.4668 -0.5198  1.0680
  423MOL0     H58365   4.346   1.774   7.432 -0.6742 -1.2191  1.5962
  423MOL0     H58366   4.153   1.883   7.320  0.3122  2.4933 -0.7750
  423MOL0     H58367   4.294   1.958   7.280  1.4141 -0.1764 -1.7967
  423MOL0     H58368   4.159   1.751   7.080  1.5474 -0.5095 -0.4810
  423MOL0     H58369   4.310   1.847   7.066  0.9778  2.2938  2.1150
  423MOL0     H58370   4.013   2.123   6.953  1.5416  1.9298  2.5156
  423MOL0     H58371   4.369   1.376   7.629  1.7126 -0.7305  0.6202
  423MOL0     H58372   4.628   1.174   7.644 -0.1042 -0.8233 -0.0882
  423MOL0     H58373   4.474   1.183   7.711  0.5988  1.6162 -0.0033
  423MOL0     H58374   4.496   1.056   7.583 -0.3414  0.9252 -4.7185
  424MOL0     O58375   5.681   6.641   5.437 -0.4207  0.1672  0.0355
  424MOL0     C58376   5.592   6.603   5.510  0.5086 -0.1586 -0.2811
  424MOL0     O58377   5.576   6.482   5.560  0.3872 -0.4219  0.1002
  424MOL0     C58378   5.672   6.382   5.539 -0.5177 -0.5286  0.0459
  424MOL0     C58379   5.724   6.318   5.651 -0.1975  1.4084 -0.3404
  424MOL0     C58380   5.797   6.197   5.645  0.9023  0.4194  0.5319
  424MOL0     C58381   5.852   6.161   5.516  0.6572 -0.8790  0.6063
  424MOL0     O58382   5.929   6.039   5.513 -0.4776 -0.0485  0.4974
  424MOL0     C58383   6.053   6.052   5.446 -0.0943  0.3931 -0.8383
  424MOL0     C58384   6.154   5.958   5.509 -0.0053  0.2943  0.2054
  424MOL0     C58385   6.299   5.981   5.443 -0.5273 -0.0485 -0.1936
  424MOL0     C58386   6.392   5.863   5.484  1.2231 -0.5170 -0.7630
  424MOL0     C58387   6.519   5.884   5.410  0.2195  0.2761 -0.0208
  424MOL0     C58388   6.617   5.762   5.397  0.6436 -1.5285  0.8448
  424MOL0     C58389   6.640   5.698   5.527 -0.6058  1.3504 -0.2271
  424MOL0     C58390   6.723   5.779   5.626 -0.1306  0.5459 -0.1229
  424MOL0     N58391   6.776   5.700   5.746  1.4719 -0.1426  1.2044
  424MOL0     C58392   6.890   5.746   5.819 -0.1078 -0.2545  0.4562
  424MOL0     C58393   6.916   5.648   5.900 -0.0550  0.6788  0.5184
  424MOL0     C58394   7.035   5.630   5.999 -0.0275 -0.0015  0.8732
  424MOL0     C58395   7.000   5.670   6.135  0.9522 -0.1657 -0.0710
  424MOL0     C58396   7.100   5.614   6.239 -0.1972  0.3258 -0.1103
  424MOL0     C58397   7.245   5.620   6.186 -0.4962  0.2558  0.3457
  424MOL0     O58398   7.336   5.580   6.287 -0.4200 -1.0219 -0.1025
  424MOL0     C58399   7.385   5.677   6.372  0.5167 -0.6145  0.1054
  424MOL0     C58400   7.499   5.640   6.441 -0.5823 -0.5855  0.3764
  424MOL0     C58401   7.576   5.729   6.513 -0.3520 -0.0933 -0.3685
  424MOL0     C58402   7.701   5.662   6.580  0.7065 -0.5277  0.7545
  424MOL0     C58403   7.538   5.861   6.526  1.2979 -0.3725 -1.2745
  424MOL0     C58404   7.629   5.965   6.595 -0.5524 -0.7258  0.3527
  424MOL0     O58405   7.583   6.086   6.637 -0.0702 -0.7538 -0.4661
  424MOL0     C58406   7.661   6.194   6.688 -0.2280  1.0632  0.5409
  424MOL0     C58407   7.601   6.303   6.756 -0.5648  0.8489  0.3383
  424MOL0     C58408   7.667   6.410   6.815 -1.3104  0.5536 -0.5401
  424MOL0     C58409   7.808   6.407   6.789  0.2961 -1.2611  0.3188
  424MOL0     O58410   7.893   6.508   6.838  0.3461  0.0317 -0.2341
  424MOL0     C58411   7.902   6.614   6.744  0.6353  0.3627  1.2662
  424MOL0     C58412   8.031   6.696   6.761  0.0841  0.5267  0.0027
  424MOL0     C58413   8.146   6.642   6.671  0.9648 -0.2154 -0.9239
  424MOL0     C58414   8.278   6.717   6.702 -0.5288  0.5341  0.2356
  424MOL0     C58415   8.404   6.637   6.675  0.1655 -0.2371  0.3540
  424MOL0     C58416   8.425   6.635   6.517 -0.3539 -0.4197 -0.0080
  424MOL0     C58417   8.561   6.569   6.488  0.9213  0.2700 -0.3157
  424MOL0     C58418   8.578   6.419   6.527  0.0971  0.1343 -0.5242
  424MOL0    Cl58419   8.458   6.298   6.461  0.1100  0.2046 -0.1469
  424MOL0     C58420   7.882   6.311   6.722 -0.4695 -0.0254 -0.2312
  424MOL0     C58421   7.799   6.204   6.665 -0.4629 -0.1863  0.2229
  424MOL0     O58422   7.745   5.927   6.613 -0.0787  0.4735 -0.2196
  424MOL0     C58423   7.410   5.896   6.468 -0.2203 -0.9810 -0.3411
  424MOL0     C58424   7.333   5.804   6.397  0.0164 -0.0504  0.0349
  424MOL0     N58425   6.821   5.544   5.874  0.3908 -0.1370 -0.3934
  424MOL0     N58426   6.739   5.573   5.777 -0.5014  0.1430 -0.5752
  424MOL0     C58427   5.807   6.231   5.400  0.4224 -0.7589  0.1903
  424MOL0     C58428   5.713   6.333   5.412  0.5445 -0.6533  0.1553
  424MOL0     C58429   5.485   6.702   5.565  0.6754  0.9650  0.4663
  424MOL0     C58430   5.525   6.838   5.580  0.9139 -0.9357 -0.2604
  424MOL0     C58431   5.430   6.932   5.634  0.0553  0.0401 -0.4487
  424MOL0     C58432   5.307   6.890   5.676 -0.8481 -0.7838  0.0247
  424MOL0     O58433   5.231   6.990   5.726 -1.1065  0.6551  0.4918
  424MOL0     C58434   5.169   6.965   5.856  0.6152 -0.9448 -0.0686
  424MOL0     C58435   5.120   7.095   5.918  0.1856  0.5659  0.3037
  424MOL0     C58436   5.062   7.080   6.064  0.5171  0.1054 -0.1673
  424MOL0     C58437   5.035   7.223   6.125  0.5093 -0.2039 -0.8263
  424MOL0     C58438   4.945   7.312   6.042  0.1974  0.7371  0.2887
  424MOL0     C58439   4.875   7.389   5.975 -0.2359 -0.9769 -0.4212
  424MOL0     C58440   5.271   6.754   5.670  0.6734 -1.0024 -0.2905
  424MOL0     C58441   5.350   6.662   5.596 -0.6953 -0.9081 -0.9214
  424MOL0     C58442   5.280   6.539   5.546 -0.5677  0.5091  0.8413
  424MOL0     H58443   5.693   6.374   5.739  1.0319  1.9245 -0.2140
  424MOL0     H58444   5.817   6.154   5.742  4.1389  1.4529  0.4411
  424MOL0     H58445   6.098   6.151   5.461 -0.6967  0.6655 -0.8046
  424MOL0     H58446   6.043   6.026   5.341  0.1002 -1.1694 -0.4874
  424MOL0     H58447   6.156   6.007   5.606 -2.4823 -0.7352  0.8433
  424MOL0     H58448   6.126   5.852   5.506  3.5653 -0.8070  0.3929
  424MOL0     H58449   6.276   5.972   5.336 -0.8239  2.7673 -0.4577
  424MOL0     H58450   6.357   6.071   5.466  0.8379 -1.4367  2.2224
  424MOL0     H58451   6.389   5.866   5.593 -3.7516 -1.2458 -0.6144
  424MOL0     H58452   6.341   5.771   5.455  0.6246 -0.4593  0.0903
  424MOL0     H58453   6.570   5.975   5.445 -0.8511  0.1657  1.9754
  424MOL0     H58454   6.497   5.923   5.310  0.9565  4.6906  1.3146
  424MOL0     H58455   6.562   5.702   5.324  0.7391  1.0989 -1.5624
  424MOL0     H58456   6.717   5.789   5.360  0.2227  1.5362  1.6641
  424MOL0     H58457   6.688   5.602   5.508 -0.8514  0.8651  1.4575
  424MOL0     H58458   6.545   5.675   5.576  0.1130 -2.6271 -0.3811
  424MOL0     H58459   6.812   5.822   5.578  0.1103 -1.5687 -1.7241
  424MOL0     H58460   6.653   5.858   5.654 -1.3378 -0.5664  0.1127
  424MOL0     H58461   6.944   5.839   5.810 -0.3853  0.6711  5.2777
  424MOL0     H58462   7.122   5.688   5.966  0.2784 -0.6709  0.4868
  424MOL0     H58463   7.062   5.524   5.999 -0.8413 -0.2845  3.3733
  424MOL0     H58464   7.017   5.778   6.136  0.8590 -0.1463 -0.4493
  424MOL0     H58465   6.896   5.651   6.164  0.1936  1.0789 -1.8158
  424MOL0     H58466   7.078   5.670   6.330  3.9237 -0.4498  1.5866
  424MOL0     H58467   7.076   5.511   6.270  1.8251  0.5303  2.4306
  424MOL0     H58468   7.258   5.549   6.104 -1.2032  0.5620 -0.0352
  424MOL0     H58469   7.270   5.717   6.141 -0.5736  0.5661  0.9519
  424MOL0     H58470   7.543   5.543   6.421 -0.0616  0.0153 -1.6069
  424MOL0     H58471   7.788   5.699   6.525  0.1936  0.9529  0.8940
  424MOL0     H58472   7.693   5.557   6.550  0.3594  0.8454 -5.2653
  424MOL0     H58473   7.716   5.668   6.688 -1.4142  1.3727  1.0337
  424MOL0     H58474   7.493   6.290   6.763 -0.3765 -1.7493 -0.5715
  424MOL0     H58475   7.623   6.478   6.887 -1.3152  1.3205 -1.2557
  424MOL0     H58476   7.892   6.584   6.639 -0.6264 -0.4951  1.6063
  424MOL0     H58477   7.810   6.668   6.767  0.0229 -0.2707  0.3485
  424MOL0     H58478   8.016   6.802   6.736  2.9644  1.4748  1.6983
  424MOL0     H58479   8.062   6.685   6.866 -0.1940 -4.1447 -0.2021
  424MOL0     H58480   8.127   6.644   6.563  0.1900  0.7854 -0.7797
  424MOL0     H58481   8.153   6.535   6.695  3.7063 -0.3453 -1.9255
  424MOL0     H58482   8.287   6.727   6.811  3.7355  2.3337 -0.1129
  424MOL0     H58483   8.257   6.817   6.663 -1.4496  0.2106 -0.1423
  424MOL0     H58484   8.484   6.678   6.736  1.4220  0.1569 -1.4663
  424MOL0     H58485   8.384   6.537   6.715 -0.1360 -0.5924 -0.6288
  424MOL0     H58486   8.444   6.736   6.480 -0.6377  1.2137  3.8031
  424MOL0     H58487   8.344   6.589   6.460  0.7020  1.3762 -3.2423
  424MOL0     H58488   8.641   6.621   6.541  3.3070 -2.8642 -0.5761
  424MOL0     H58489   8.570   6.582   6.380 -0.6871 -1.1513 -0.6616
  424MOL0     H58490   8.562   6.413   6.635 -2.8774  1.1256 -0.8139
  424MOL0     H58491   8.679   6.383   6.508 -0.1239  0.6952 -3.1957
  424MOL0     H58492   7.990   6.317   6.724 -0.4748  1.1517  3.2281
  424MOL0     H58493   7.841   6.130   6.598 -0.9405  0.0127 -0.3123
  424MOL0     H58494   7.383   6.001   6.480 -0.4110 -1.2693  2.1691
  424MOL0     H58495   7.245   5.848   6.352 -1.6481 -3.7325 -0.6468
  424MOL0     H58496   5.823   6.202   5.297 -3.4407 -1.2218 -0.4285
  424MOL0     H58497   5.681   6.396   5.329 -3.3687  0.9423  2.5594
  424MOL0     H58498   5.621   6.877   5.548  0.2065  1.0933 -0.0914
  424MOL0     H58499   5.446   7.039   5.643 -0.6888  0.1440 -0.2707
  424MOL0     H58500   5.088   6.892   5.844  1.1701 -1.4410 -0.8865
  424MOL0     H58501   5.239   6.920   5.928  0.8465 -1.2380 -0.4715
  424MOL0     H58502   5.039   7.127   5.851  0.3185  1.4497  0.5522
  424MOL0     H58503   5.202   7.167   5.924 -0.6587  1.5490  0.2805
  424MOL0     H58504   4.971   7.021   6.057  1.3663 -1.2650 -0.1538
  424MOL0     H58505   5.139   7.025   6.119 -0.8600 -1.1620  0.5640
  424MOL0     H58506   5.134   7.266   6.146  0.8618 -1.9265  1.3851
  424MOL0     H58507   4.985   7.200   6.219  2.5814 -1.2145  0.1102
  424MOL0     H58508   4.814   7.457   5.919  0.4482 -0.3594 -0.4277
  424MOL0     H58509   5.171   6.734   5.709  0.8105 -0.4393  0.3666
  424MOL0     H58510   5.290   6.529   5.437 -1.2575  3.1611  0.4574
  424MOL0     H58511   5.325   6.449   5.588  3.7441  1.6760 -0.7142
  424MOL0     H58512   5.172   6.546   5.565 -0.8716 -1.6829  0.1382
  425MOL0     O58513   9.921   9.725   1.845 -0.5133 -0.3343 -0.4553
  425MOL0     C58514   9.941   9.728   1.968  0.3811  0.6047 -0.6508
  425MOL0     O58515  10.051   9.781   2.031 -0.4029  0.5888  0.2981
  425MOL0     C58516  10.171   9.770   1.971 -0.0851 -0.3630  0.1103
  425MOL0     C58517  10.231   9.886   1.930  0.3780  1.1061  0.2228
  425MOL0     C58518  10.358   9.876   1.866 -0.5611 -0.4967 -1.0689
  425MOL0     C58519  10.429   9.759   1.849  0.5347  0.1190 -0.2539
  425MOL0     O58520  10.560   9.732   1.814  0.3275  0.2287 -0.4914
  425MOL0     C58521  10.592   9.790   1.684 -0.4036  0.4466  0.0399
  425MOL0     C58522  10.729   9.745   1.633 -1.0049  0.2143 -0.0688
  425MOL0     C58523  10.848   9.790   1.727 -0.1986 -0.0819 -0.4699
  425MOL0     C58524  10.991   9.768   1.664 -0.8855 -0.4505  0.5771
  425MOL0     C58525  11.025   9.616   1.667 -0.1635 -0.0820  0.6729
  425MOL0     C58526  11.143   9.590   1.588 -0.7725  0.3192  0.3245
  425MOL0     C58527  11.155   9.437   1.572  0.0479 -0.6148 -0.1369
  425MOL0     C58528  11.157   9.356   1.699  0.4939 -0.3858 -0.3064
  425MOL0     N58529  11.186   9.212   1.679  0.0513  0.0650 -0.6347
  425MOL0     C58530  11.296   9.165   1.608  0.2772 -0.2910 -0.4850
  425MOL0     C58531  11.274   9.028   1.610  1.2407  1.0911 -0.5170
  425MOL0     C58532  11.350   8.933   1.529 -0.6900  0.3232  1.2498
  425MOL0     C58533  11.491   8.917   1.578  0.3754  0.3819  0.4251
  425MOL0     C58534  11.501   8.862   1.720  0.2225  0.1904 -0.8869
  425MOL0     C58535  11.642   8.840   1.766 -0.4907  0.0362  0.3191
  425MOL0     O58536  11.705   8.969   1.785 -0.2682  0.0696  0.4622
  425MOL0     C58537  11.838   8.967   1.821  0.2286 -0.1766  0.0292
  425MOL0     C58538  11.894   9.092   1.838 -0.1120 -0.1851  0.3127
  425MOL0     C58539  12.032   9.103   1.872 -0.1783 -0.3433 -0.4595
  425MOL0     C58540  12.090   9.242   1.899  0.2431 -0.6119  0.9731
  425MOL0     C58541  12.107   8.987   1.885  0.5084  0.0256  0.1145
  425MOL0     C58542  12.256   8.992   1.913 -0.1247  0.2879 -0.8779
  425MOL0     O58543  12.334   9.105   1.867 -0.3076  0.5055  0.5368
  425MOL0     C58544  12.463   9.125   1.905 -0.3430  0.7305 -0.3957
  425MOL0     C58545  12.559   9.027   1.942  0.2238 -0.1731  0.2883
  425MOL0     C58546  12.695   9.059   1.968 -0.0396 -0.0518 -0.0086
  425MOL0     C58547  12.742   9.190   1.964  0.4951  0.1008 -0.1335
  425MOL0     O58548  12.865   9.225   1.991 -0.6514 -0.3696  0.6361
  425MOL0     C58549  12.895   9.204   2.125  0.0045 -0.4344  0.1119
  425MOL0     C58550  13.036   9.256   2.167 -0.0410 -0.6791 -0.0531
  425MOL0     C58551  13.139   9.150   2.135  0.0149  0.5728  0.5282
  425MOL0     C58552  13.267   9.174   2.212  0.3344 -0.2311  0.2112
  425MOL0     C58553  13.400   9.196   2.134  0.1636  0.0887  0.9939
  425MOL0     C58554  13.411   9.331   2.054  0.2495  0.5058  0.9489
  425MOL0     C58555  13.373   9.458   2.131 -0.5015 -0.2015 -0.7543
  425MOL0     C58556  13.467   9.478   2.243  0.1551  0.0350  0.9226
  425MOL0    Cl58557  13.422   9.639   2.318 -0.2470 -0.1229 -0.0319
  425MOL0     C58558  12.648   9.286   1.921  0.6474  0.1225 -0.2769
  425MOL0     C58559  12.509   9.254   1.891  0.2694  0.2191  0.0066
  425MOL0     O58560  12.296   8.912   1.994 -0.8007  0.1836  0.3507
  425MOL0     C58561  12.042   8.857   1.892  0.1001  0.0019 -0.2944
  425MOL0     C58562  11.913   8.848   1.847 -0.0208  0.1040 -0.1200
  425MOL0     N58563  11.157   8.995   1.681  0.7154  0.5372 -1.0872
  425MOL0     N58564  11.110   9.113   1.717  0.2624 -0.4578 -0.1626
  425MOL0     C58565  10.356   9.639   1.885  0.3240 -0.9185 -0.4979
  425MOL0     C58566  10.230   9.641   1.947 -0.0517  0.5810 -1.0310
  425MOL0     C58567   9.815   9.716   2.049 -0.1694 -0.8594 -0.0862
  425MOL0     C58568   9.707   9.799   2.023 -0.8168 -0.2042 -0.3526
  425MOL0     C58569   9.606   9.797   2.114 -0.4665  0.4643 -0.6049
  425MOL0     C58570   9.607   9.723   2.228 -0.7399  0.6432 -0.2823
  425MOL0     O58571   9.490   9.740   2.308 -0.8725  0.5311 -0.2596
  425MOL0     C58572   9.498   9.699   2.447  0.7319  0.8412 -0.8053
  425MOL0     C58573   9.378   9.761   2.534 -0.1418 -0.2270  0.2992
  425MOL0     C58574   9.247   9.707   2.483  0.3023  0.2237  0.0841
  425MOL0     C58575   9.132   9.807   2.498 -0.1011 -0.3372  0.4284
  425MOL0     C58576   9.010   9.730   2.469  0.5023 -0.5810  0.5045
  425MOL0     C58577   8.905   9.658   2.450 -0.3834 -0.2105 -1.1629
  425MOL0     C58578   9.714   9.641   2.251 -0.2430 -0.0363  0.9851
  425MOL0     C58579   9.823   9.630   2.161 -0.0632  0.3437 -0.2364
  425MOL0     C58580   9.939   9.546   2.199  0.4511  0.7267 -0.2776
  425MOL0     H58581  10.191   9.983   1.957  2.1251  2.7137 -2.4688
  425MOL0     H58582  10.417   9.964   1.841  0.5776 -0.8466  0.2373
  425MOL0     H58583  10.594   9.897   1.703 -2.3706  0.3823  0.8980
  425MOL0     H58584  10.512   9.773   1.611 -0.8663  1.1993  0.3621
  425MOL0     H58585  10.720   9.637   1.621  0.7120  0.0487 -0.0774
  425MOL0     H58586  10.744   9.775   1.529 -0.6027 -1.3363 -0.4772
  425MOL0     H58587  10.844   9.898   1.743  3.5664  0.1167  0.1475
  425MOL0     H58588  10.841   9.742   1.825 -0.3895  1.9681  0.5687
  425MOL0     H58589  10.984   9.798   1.558 -0.8129 -1.8344  0.1660
  425MOL0     H58590  11.063   9.834   1.713 -1.9909  0.6291  0.8177
  425MOL0     H58591  10.936   9.564   1.628  0.0773 -1.4725  1.8987
  425MOL0     H58592  11.049   9.577   1.766  1.4538  0.1431  0.3844
  425MOL0     H58593  11.132   9.633   1.488  0.2663 -0.4225 -0.1326
  425MOL0     H58594  11.226   9.641   1.638  0.0268 -0.6917  0.0588
  425MOL0     H58595  11.244   9.425   1.510  3.2357  0.6312  3.7517
  425MOL0     H58596  11.077   9.397   1.506  1.0910 -0.5319 -1.4715
  425MOL0     H58597  11.230   9.399   1.769  0.6649  1.1284 -1.3784
  425MOL0     H58598  11.052   9.359   1.731 -0.3195  1.8044 -2.8231
  425MOL0     H58599  11.359   9.235   1.554 -1.1100  1.7722  0.4457
  425MOL0     H58600  11.359   8.978   1.430 -4.0098  1.7796  1.5078
  425MOL0     H58601  11.301   8.836   1.537 -3.1736  1.2213 -1.2969
  425MOL0     H58602  11.544   8.855   1.505  0.0734 -0.2059  0.6986
  425MOL0     H58603  11.545   9.012   1.591  3.5762 -1.3381  0.6327
  425MOL0     H58604  11.452   8.925   1.796 -0.9080 -1.4846 -0.1651
  425MOL0     H58605  11.452   8.764   1.723  0.2066  0.1191  3.6496
  425MOL0     H58606  11.647   8.782   1.858  2.6143 -1.1233 -0.4495
  425MOL0     H58607  11.697   8.793   1.684  1.5337  0.4146  1.3819
  425MOL0     H58608  11.843   9.184   1.813 -0.8755 -1.1141 -1.8155
  425MOL0     H58609  12.007   9.311   1.884  2.3166  1.6126 -1.2193
  425MOL0     H58610  12.170   9.279   1.835 -0.3935  2.7359  1.9066
  425MOL0     H58611  12.118   9.261   2.004  0.0739  2.1297  0.6131
  425MOL0     H58612  12.531   8.924   1.962 -2.0418 -0.0092 -1.5774
  425MOL0     H58613  12.762   8.976   1.988  1.4453  0.9396 -0.7502
  425MOL0     H58614  12.825   9.260   2.188  1.0866  1.7333 -0.5463
  425MOL0     H58615  12.881   9.098   2.148 -1.2259 -0.1470  0.8051
  425MOL0     H58616  13.058   9.351   2.118 -1.0744 -1.5923 -2.4573
  425MOL0     H58617  13.045   9.263   2.276 -1.3293  0.3109  0.0205
  425MOL0     H58618  13.158   9.156   2.027 -0.6055  4.2627  0.5046
  425MOL0     H58619  13.081   9.058   2.150 -1.2749  1.5497  1.7821
  425MOL0     H58620  13.268   9.084   2.274  1.0401 -1.8436 -1.9973
  425MOL0     H58621  13.253   9.258   2.280  1.7388  0.3494 -0.1948
  425MOL0     H58622  13.485   9.188   2.201  0.6147  1.2405  0.5870
  425MOL0     H58623  13.423   9.112   2.067  1.8660  0.4899  1.0330
  425MOL0     H58624  13.339   9.318   1.972  1.2476  0.6405  0.0246
  425MOL0     H58625  13.509   9.337   2.007  0.6271  0.0540  1.6665
  425MOL0     H58626  13.272   9.452   2.173  0.2100 -2.5981  0.8159
  425MOL0     H58627  13.380   9.547   2.068  1.5243  2.4272  2.8137
  425MOL0     H58628  13.570   9.482   2.204 -1.0517  1.2110 -2.5317
  425MOL0     H58629  13.445   9.401   2.317 -4.1672 -0.8306 -0.9531
  425MOL0     H58630  12.676   9.391   1.921 -2.4813  1.1089  1.3294
  425MOL0     H58631  12.435   9.330   1.869  1.1498  1.8981  2.4424
  425MOL0     H58632  12.100   8.767   1.910 -1.2670 -1.3862 -2.3873
  425MOL0     H58633  11.876   8.746   1.843  3.7657 -1.3736 -0.9375
  425MOL0     H58634  10.394   9.540   1.859 -1.3296 -2.3244  1.9943
  425MOL0     H58635  10.191   9.544   1.974  6.0480 -1.6479  1.5428
  425MOL0     H58636   9.694   9.882   1.955  1.0250  1.9556  1.7467
  425MOL0     H58637   9.517   9.859   2.103  1.0561  2.7684 -0.7775
  425MOL0     H58638   9.500   9.590   2.455 -0.5031  0.7376 -1.6144
  425MOL0     H58639   9.593   9.732   2.490  2.0392 -0.9799 -2.1061
  425MOL0     H58640   9.385   9.870   2.523 -0.9907 -0.3398 -1.9438
  425MOL0     H58641   9.371   9.729   2.639 -3.4140 -2.7448 -0.5057
  425MOL0     H58642   9.244   9.678   2.378 -1.3403  2.0029 -0.4292
  425MOL0     H58643   9.241   9.614   2.540  2.0264 -0.0366 -0.0890
  425MOL0     H58644   9.137   9.899   2.440  1.4292 -1.3741 -1.1752
  425MOL0     H58645   9.127   9.837   2.603  0.2475  2.9190 -0.3946
  425MOL0     H58646   8.813   9.605   2.441 -0.0847 -0.6232 -1.9064
  425MOL0     H58647   9.723   9.587   2.345  2.7964 -0.7043  0.4258
  425MOL0     H58648   9.900   9.474   2.271 -0.3544  0.5614 -0.8743
  425MOL0     H58649   9.990   9.484   2.124  0.9031 -1.6730  1.8816
  425MOL0     H58650  10.021   9.607   2.239  1.4542  0.4568 -1.8278
  426MOL0     O58651   6.590   7.428   5.012 -0.2671  0.6994  0.2193
  426MOL0     C58652   6.598   7.314   4.963 -0.4283 -0.1695 -0.1513
  426MOL0     O58653   6.488   7.232   4.931 -1.1779  0.4515  0.2035
  426MOL0     C58654   6.379   7.267   5.001 -0.2258  0.2472  1.3768
  426MOL0     C58655   6.361   7.252   5.133 -0.1192  0.2582 -0.6364
  426MOL0     C58656   6.242   7.304   5.190 -0.2964 -0.3491 -0.7601
  426MOL0     C58657   6.136   7.339   5.116 -0.1988 -0.6441 -0.7451
  426MOL0     O58658   6.027   7.385   5.182 -0.4912  0.5576 -0.3308
  426MOL0     C58659   5.932   7.454   5.106 -0.2387  0.2181 -0.5607
  426MOL0     C58660   5.840   7.546   5.190 -0.3507  0.6104 -0.0130
  426MOL0     C58661   5.884   7.694   5.206  0.1108  0.0349  0.4041
  426MOL0     C58662   5.806   7.763   5.309 -0.6317 -0.4162  0.3046
  426MOL0     C58663   5.853   7.726   5.449 -0.0996 -0.5775  0.3432
  426MOL0     C58664   5.785   7.814   5.551 -0.1032 -0.3044 -0.3475
  426MOL0     C58665   5.825   7.763   5.696  0.6498 -0.5125 -0.0438
  426MOL0     C58666   5.769   7.626   5.731  0.4247  0.8954 -0.2445
  426MOL0     N58667   5.625   7.613   5.705  0.8979 -0.2079  0.3812
  426MOL0     C58668   5.562   7.593   5.582 -1.2368 -0.0941 -0.6564
  426MOL0     C58669   5.431   7.594   5.623  0.9168  0.9752 -0.9252
  426MOL0     C58670   5.320   7.571   5.523  0.4723 -0.2755  0.2427
  426MOL0     C58671   5.291   7.420   5.509  0.0613 -0.1523  0.7688
  426MOL0     C58672   5.231   7.347   5.639 -0.8054  0.6466  0.0905
  426MOL0     C58673   5.122   7.414   5.715 -0.2677 -0.4081 -0.6713
  426MOL0     O58674   5.008   7.429   5.635 -1.0798 -0.5172  1.1635
  426MOL0     C58675   4.935   7.549   5.614 -0.7280  0.9024  0.2174
  426MOL0     C58676   4.941   7.668   5.696  0.4968  1.1029 -0.1516
  426MOL0     C58677   4.850   7.777   5.665  0.3973  0.3832  0.2629
  426MOL0     C58678   4.836   7.896   5.753 -0.2199 -0.1575  0.6643
  426MOL0     C58679   4.766   7.771   5.547 -0.8199 -0.1172  0.7784
  426MOL0     C58680   4.652   7.871   5.528  0.3199  0.3212  0.3059
  426MOL0     O58681   4.601   7.881   5.400  0.1996 -0.8533 -0.0158
  426MOL0     C58682   4.488   7.944   5.366  0.3219  0.2777 -0.1206
  426MOL0     C58683   4.415   7.888   5.264 -0.3749 -0.0221 -0.6943
  426MOL0     C58684   4.292   7.933   5.220 -0.3290  0.5109 -0.4123
  426MOL0     C58685   4.235   8.040   5.281 -0.1403  0.1308  0.0545
  426MOL0     O58686   4.117   8.098   5.248 -0.2385 -0.4901  0.1525
  426MOL0     C58687   4.029   8.043   5.153  0.3290  0.2913  0.0819
  426MOL0     C58688   3.904   8.123   5.158 -0.1803 -0.5978  0.6316
  426MOL0     C58689   3.919   8.254   5.080  0.3910  0.3363  0.0522
  426MOL0     C58690   3.789   8.344   5.084 -1.2750 -0.1562  0.5003
  426MOL0     C58691   3.816   8.488   5.072 -0.2681 -1.1815  0.6806
  426MOL0     C58692   3.694   8.569   5.054  0.0733  0.0921  0.2810
  426MOL0     C58693   3.720   8.701   4.981 -0.2971 -0.3916  0.2994
  426MOL0     C58694   3.592   8.786   4.970 -0.3312  0.1624 -1.0669
  426MOL0    Cl58695   3.584   8.910   4.848  0.3057  0.3320 -0.2225
  426MOL0     C58696   4.309   8.100   5.390 -0.1875 -0.0515 -0.4637
  426MOL0     C58697   4.429   8.049   5.442 -0.4786  0.3815  0.8876
  426MOL0     O58698   4.594   7.914   5.628 -0.1377 -0.3624  0.0328
  426MOL0     C58699   4.770   7.654   5.473  0.7441 -0.7136  0.6985
  426MOL0     C58700   4.855   7.544   5.497 -0.3313  0.2187  0.2159
  426MOL0     N58701   5.414   7.602   5.760 -0.0779 -0.2129 -0.2388
  426MOL0     N58702   5.531   7.620   5.805  0.0771 -0.2860 -0.9042
  426MOL0     C58703   6.153   7.348   4.978  0.1030 -0.2341 -0.4808
  426MOL0     C58704   6.267   7.297   4.922  0.0778  0.3265  0.5624
  426MOL0     C58705   6.734   7.267   4.927 -0.2260 -0.8168 -0.3639
  426MOL0     C58706   6.736   7.136   4.879  0.1740  0.4217 -0.6591
  426MOL0     C58707   6.854   7.084   4.837 -0.1971  1.3458  0.2257
  426MOL0     C58708   6.975   7.156   4.834  0.5069 -0.5242  0.3433
  426MOL0     O58709   7.080   7.090   4.776 -0.1999  0.1107 -0.1689
  426MOL0     C58710   7.202   7.164   4.748  0.4491  0.5480  0.2286
  426MOL0     C58711   7.308   7.059   4.705  0.2899  0.6905  0.0752
  426MOL0     C58712   7.274   7.006   4.561 -0.3983 -0.3995 -0.8294
  426MOL0     C58713   7.387   6.905   4.497  0.3291 -0.2443  0.0078
  426MOL0     C58714   7.355   6.858   4.362 -0.4866  0.6308  0.4032
  426MOL0     C58715   7.316   6.811   4.253  0.1912 -1.1503  0.3126
  426MOL0     C58716   6.980   7.280   4.895  0.4121  0.0190 -0.1318
  426MOL0     C58717   6.859   7.335   4.953 -0.2034  0.6787 -0.0503
  426MOL0     C58718   6.861   7.461   5.024  0.9503  0.4465 -0.8988
  426MOL0     H58719   6.450   7.237   5.193  0.1490  2.8157 -0.2918
  426MOL0     H58720   6.220   7.322   5.295 -5.2294 -1.2445 -1.4130
  426MOL0     H58721   5.863   7.373   5.078  0.8054 -1.5135  1.5384
  426MOL0     H58722   5.969   7.510   5.021 -0.4269  2.4664  0.7608
  426MOL0     H58723   5.748   7.553   5.131 -0.5212  2.4522  0.4143
  426MOL0     H58724   5.817   7.493   5.283  1.0921  1.3503  0.8011
  426MOL0     H58725   5.990   7.708   5.227  0.0081 -0.5679  1.3625
  426MOL0     H58726   5.861   7.741   5.109  1.3818 -3.0705 -1.5493
  426MOL0     H58727   5.818   7.870   5.294 -2.5792 -0.2037  0.0510
  426MOL0     H58728   5.703   7.727   5.297 -0.4151 -0.3800 -2.3171
  426MOL0     H58729   5.959   7.750   5.443 -0.2023 -0.6029 -2.9546
  426MOL0     H58730   5.831   7.622   5.477 -2.8956  0.7968  4.0847
  426MOL0     H58731   5.813   7.919   5.547 -0.7478  0.0402  2.2065
  426MOL0     H58732   5.677   7.816   5.533 -0.0371  0.4132 -0.6947
  426MOL0     H58733   5.790   7.834   5.772  0.2221  0.4212 -1.0879
  426MOL0     H58734   5.935   7.764   5.699  0.8468 -3.1092 -2.5208
  426MOL0     H58735   5.821   7.542   5.684 -2.7548 -2.4356  1.6204
  426MOL0     H58736   5.787   7.615   5.838  1.2295  0.3824 -0.4216
  426MOL0     H58737   5.599   7.577   5.481 -1.1362  0.6909 -0.7483
  426MOL0     H58738   5.352   7.621   5.431  0.6123 -2.6692 -1.1048
  426MOL0     H58739   5.231   7.611   5.571 -0.5203 -1.5757 -0.4400
  426MOL0     H58740   5.221   7.400   5.428 -3.0001  0.3787  3.0781
  426MOL0     H58741   5.381   7.367   5.478  0.1857  0.1505  0.6085
  426MOL0     H58742   5.188   7.252   5.605 -0.7993  0.9426 -0.7541
  426MOL0     H58743   5.316   7.330   5.706 -1.4160 -0.4254  0.6211
  426MOL0     H58744   5.092   7.355   5.801 -0.0389  0.9287  0.3533
  426MOL0     H58745   5.145   7.514   5.753  0.0334 -0.4593 -0.7130
  426MOL0     H58746   5.013   7.670   5.777  0.9212  0.2608 -0.4991
  426MOL0     H58747   4.742   7.906   5.807  0.7395 -0.4816  2.4923
  426MOL0     H58748   4.849   7.992   5.701  2.4136 -0.6532  0.2802
  426MOL0     H58749   4.912   7.901   5.832  0.0563  0.9570  0.3500
  426MOL0     H58750   4.460   7.798   5.223 -0.4296 -0.1743 -0.4216
  426MOL0     H58751   4.249   7.884   5.133  1.3032 -1.6237 -0.0839
  426MOL0     H58752   4.074   8.062   5.054 -0.6971 -1.6910 -0.8204
  426MOL0     H58753   4.007   7.937   5.170 -4.1046  1.3262  2.1201
  426MOL0     H58754   3.818   8.079   5.107  0.3546  0.9367 -1.7651
  426MOL0     H58755   3.887   8.132   5.265  0.3835 -2.8123  0.9642
  426MOL0     H58756   3.935   8.233   4.974  1.6766  0.7804  0.1371
  426MOL0     H58757   4.006   8.308   5.119 -0.5211  0.5489  1.9169
  426MOL0     H58758   3.727   8.330   5.174 -1.3872 -0.2147  0.4138
  426MOL0     H58759   3.729   8.315   4.998  1.6880  0.5593 -1.9952
  426MOL0     H58760   3.864   8.526   5.163  1.4943 -0.1450 -0.6262
  426MOL0     H58761   3.878   8.497   4.982  0.4266 -2.3709  1.0252
  426MOL0     H58762   3.657   8.585   5.156  0.6628 -1.0329  0.6898
  426MOL0     H58763   3.616   8.511   5.003  0.8256 -0.1879 -0.5872
  426MOL0     H58764   3.751   8.673   4.880 -0.4315 -2.4929  0.8017
  426MOL0     H58765   3.793   8.762   5.035  0.8964 -2.4282  1.0957
  426MOL0     H58766   3.596   8.833   5.068  1.8424  0.8437 -1.4303
  426MOL0     H58767   3.498   8.731   4.961 -1.7622  2.2418  0.2465
  426MOL0     H58768   4.255   8.187   5.426  1.5321  1.6045 -1.7251
  426MOL0     H58769   4.471   8.100   5.528  0.6595  2.1650 -0.6591
  426MOL0     H58770   4.693   7.651   5.396  0.4113  0.4556  0.9534
  426MOL0     H58771   4.842   7.457   5.433 -0.2922  1.8184 -2.0703
  426MOL0     H58772   6.077   7.383   4.909 -0.1288 -0.2318 -0.2295
  426MOL0     H58773   6.264   7.293   4.813  0.4296  0.1827  0.5546
  426MOL0     H58774   6.645   7.078   4.868 -0.2497  0.8726  0.3632
  426MOL0     H58775   6.855   6.984   4.796 -2.3535  1.0300  0.8631
  426MOL0     H58776   7.196   7.237   4.667  0.6941 -1.4277 -1.6624
  426MOL0     H58777   7.231   7.216   4.840 -2.0480 -0.7030  1.8369
  426MOL0     H58778   7.309   6.985   4.785 -3.3352 -1.2179 -1.4101
  426MOL0     H58779   7.407   7.101   4.683  0.6720 -0.7259 -1.1035
  426MOL0     H58780   7.173   6.964   4.562 -0.9208  0.8194  0.5782
  426MOL0     H58781   7.267   7.098   4.502  1.3855  0.7789  0.6937
  426MOL0     H58782   7.384   6.830   4.576 -1.8198  1.4833  1.7188
  426MOL0     H58783   7.485   6.954   4.490 -0.7411  1.7623 -3.4678
  426MOL0     H58784   7.294   6.779   4.153  0.1430  0.1457 -0.0998
  426MOL0     H58785   7.075   7.333   4.901  1.6117 -1.8107 -1.7854
  426MOL0     H58786   6.835   7.534   4.946  1.8566  2.2286  0.3906
  426MOL0     H58787   6.791   7.458   5.108  0.6475  0.5451 -1.1422
  426MOL0     H58788   6.960   7.480   5.065 -0.2255 -1.7158  3.6254
  427MOL0     O58789   4.448   9.082   7.778  0.9630 -0.5198  0.1452
  427MOL0     C58790   4.355   9.155   7.737  0.4011  0.3812  0.9600
  427MOL0     O58791   4.379   9.257   7.645  0.4047 -0.2615 -0.2511
  427MOL0     C58792   4.495   9.264   7.579  0.0103  0.1735  1.2188
  427MOL0     C58793   4.539   9.161   7.497 -1.0223 -0.1350  0.6622
  427MOL0     C58794   4.660   9.168   7.427 -0.3298  0.1482  0.4625
  427MOL0     C58795   4.719   9.299   7.415 -0.5780 -0.1546  0.1294
  427MOL0     O58796   4.828   9.305   7.343  0.0901  0.7787  0.6228
  427MOL0     C58797   4.934   9.399   7.351 -0.1274 -0.2522 -1.2330
  427MOL0     C58798   5.040   9.351   7.246 -0.5106 -0.2483  0.2708
  427MOL0     C58799   5.145   9.460   7.249  0.9303 -0.0605 -0.3880
  427MOL0     C58800   5.209   9.469   7.107  0.7492 -0.7610 -0.4857
  427MOL0     C58801   5.340   9.556   7.091  0.3579  1.6435  0.7499
  427MOL0     C58802   5.445   9.519   7.202  0.2324  0.4963  0.0609
  427MOL0     C58803   5.586   9.527   7.154  0.4401 -0.3407  0.5581
  427MOL0     C58804   5.667   9.461   7.261  0.2804  0.0477 -0.2111
  427MOL0     N58805   5.807   9.434   7.213 -1.3733 -0.0380 -0.6218
  427MOL0     C58806   5.863   9.312   7.204 -0.2656  0.1918  0.3628
  427MOL0     C58807   5.989   9.343   7.160  0.7518 -0.2592 -0.8192
  427MOL0     C58808   6.095   9.245   7.131  0.2415  0.4974 -0.1940
  427MOL0     C58809   6.044   9.115   7.062  0.2742 -0.7644 -0.2642
  427MOL0     C58810   5.997   9.145   6.920 -0.5740  0.8421  0.2044
  427MOL0     C58811   6.034   9.020   6.830 -0.4813 -1.0501 -0.0109
  427MOL0     O58812   5.963   8.900   6.859  0.7016 -0.0327  0.6676
  427MOL0     C58813   5.860   8.868   6.773  0.2974  0.9114 -0.7968
  427MOL0     C58814   5.744   8.846   6.836  0.9537  0.8531 -0.3876
  427MOL0     C58815   5.620   8.812   6.768  0.2944 -0.1703 -0.0365
  427MOL0     C58816   5.499   8.793   6.856 -0.3842 -0.5280  0.7377
  427MOL0     C58817   5.626   8.803   6.626 -0.1524 -0.9813  0.1786
  427MOL0     C58818   5.512   8.751   6.547  1.1134  0.3289 -0.1357
  427MOL0     O58819   5.505   8.788   6.405 -0.7349 -0.0764 -0.6119
  427MOL0     C58820   5.381   8.778   6.343  0.6112  0.1411 -0.0721
  427MOL0     C58821   5.387   8.779   6.201  0.9604  0.1458 -0.0461
  427MOL0     C58822   5.270   8.757   6.126  0.2607 -0.4088 -0.0685
  427MOL0     C58823   5.142   8.738   6.182 -0.0815  0.1391 -0.0637
  427MOL0     O58824   5.035   8.729   6.095  0.3643 -0.1578  0.2054
  427MOL0     C58825   4.928   8.627   6.124  0.0775  0.3080  0.2283
  427MOL0     C58826   4.983   8.487   6.121  0.3010 -0.4150  0.1858
  427MOL0     C58827   5.074   8.470   5.999 -0.1487  1.2189  0.0838
  427MOL0     C58828   5.127   8.325   6.003 -0.0337 -0.3317  0.9148
  427MOL0     C58829   5.083   8.253   5.885  0.2673  0.1116  0.1316
  427MOL0     C58830   5.151   8.297   5.749 -0.2591 -0.6507 -1.0087
  427MOL0     C58831   5.100   8.209   5.631 -0.7055  0.4557 -0.9210
  427MOL0     C58832   5.141   8.266   5.495 -0.3379 -0.2689 -0.6938
  427MOL0    Cl58833   5.032   8.195   5.360  0.5082 -0.1689  0.3636
  427MOL0     C58834   5.140   8.737   6.322  0.6059 -0.6759 -0.9547
  427MOL0     C58835   5.251   8.759   6.397  0.6962  0.6925 -0.2430
  427MOL0     O58836   5.432   8.672   6.599 -0.1086  0.0658 -0.1936
  427MOL0     C58837   5.752   8.829   6.561 -1.1010  0.6005 -1.2663
  427MOL0     C58838   5.867   8.863   6.630  1.0510 -0.2506 -1.9063
  427MOL0     N58839   6.011   9.475   7.144 -0.6749 -0.8564 -0.2299
  427MOL0     N58840   5.898   9.528   7.179 -0.2898 -0.7137 -0.1049
  427MOL0     C58841   4.667   9.413   7.476  0.3726  0.5108 -1.0015
  427MOL0     C58842   4.559   9.394   7.564  0.4253  0.0181 -0.3942
  427MOL0     C58843   4.210   9.125   7.771 -0.4875 -0.3521  0.0784
  427MOL0     C58844   4.173   9.003   7.847 -0.1122 -0.4519  0.2350
  427MOL0     C58845   4.040   8.975   7.860 -0.4255 -0.7823 -0.1017
  427MOL0     C58846   3.937   9.067   7.825 -0.1600  0.8113 -0.3224
  427MOL0     O58847   3.803   9.057   7.843  0.5276  0.3511 -0.1743
  427MOL0     C58848   3.737   8.955   7.928  0.5714 -0.4733 -0.3021
  427MOL0     C58849   3.712   9.011   8.059 -0.0244  0.6127 -0.2419
  427MOL0     C58850   3.586   9.100   8.050  0.3679 -1.3505  1.0881
  427MOL0     C58851   3.543   9.172   8.174  0.0717 -0.3195 -0.3246
  427MOL0     C58852   3.424   9.254   8.138 -0.2997  0.3767 -0.1732
  427MOL0     C58853   3.316   9.302   8.107  0.5926 -0.1981  0.2617
  427MOL0     C58854   3.973   9.183   7.766 -0.4815 -0.3954 -0.4755
  427MOL0     C58855   4.104   9.216   7.730 -0.1363 -0.3064  0.2563
  427MOL0     C58856   4.122   9.333   7.649  0.2747  0.1864  0.1001
  427MOL0     H58857   4.485   9.067   7.499 -0.2566 -0.5766  1.0284
  427MOL0     H58858   4.701   9.098   7.355  1.5649  0.1743  1.4449
  427MOL0     H58859   4.973   9.398   7.453 -1.4840 -1.8804 -0.6795
  427MOL0     H58860   4.905   9.500   7.323 -4.5758 -0.8342  0.5076
  427MOL0     H58861   5.084   9.255   7.274  2.2127  1.4460  2.3024
  427MOL0     H58862   4.989   9.341   7.150 -2.5307 -2.2409  1.4650
  427MOL0     H58863   5.101   9.559   7.265  1.7158  0.1815  0.3284
  427MOL0     H58864   5.219   9.439   7.327 -0.1138 -1.0098  0.3873
  427MOL0     H58865   5.242   9.369   7.076 -0.1307 -0.3611 -2.9113
  427MOL0     H58866   5.130   9.505   7.041 -0.9399 -1.5186  1.0347
  427MOL0     H58867   5.313   9.662   7.080  0.3225  1.4104 -2.0626
  427MOL0     H58868   5.381   9.538   6.992 -0.8884  2.1603  0.1201
  427MOL0     H58869   5.443   9.570   7.299  2.0668 -0.2935  0.5762
  427MOL0     H58870   5.418   9.416   7.225 -2.8786  1.4905  1.3032
  427MOL0     H58871   5.592   9.634   7.132 -2.2902 -0.1224  0.4167
  427MOL0     H58872   5.600   9.479   7.056  2.5941  0.8544  0.2353
  427MOL0     H58873   5.677   9.530   7.346  1.2614  0.1095 -0.3615
  427MOL0     H58874   5.623   9.364   7.287 -3.2007  0.7079 -2.9259
  427MOL0     H58875   5.816   9.216   7.225 -0.1481  0.0268 -0.1360
  427MOL0     H58876   6.133   9.225   7.231 -1.3110  1.1010  0.5411
  427MOL0     H58877   6.176   9.296   7.077  0.8384  1.0961  1.2151
  427MOL0     H58878   6.134   9.053   7.053  2.0535  1.8882 -2.3554
  427MOL0     H58879   5.963   9.060   7.111  0.0102  1.9526  2.6649
  427MOL0     H58880   5.888   9.155   6.924 -0.9512 -1.0563 -2.5714
  427MOL0     H58881   6.030   9.238   6.874 -0.3362 -0.9955 -3.7435
  427MOL0     H58882   5.996   9.044   6.730 -1.2196 -2.5435 -0.1185
  427MOL0     H58883   6.142   9.003   6.817 -0.7244 -2.0282 -0.8825
  427MOL0     H58884   5.744   8.835   6.944 -0.5182 -3.3650 -0.6669
  427MOL0     H58885   5.471   8.688   6.869 -1.9724 -0.3993 -1.1059
  427MOL0     H58886   5.419   8.847   6.804  0.5863 -0.5596 -0.8548
  427MOL0     H58887   5.511   8.845   6.951  1.8659 -2.6390  1.7140
  427MOL0     H58888   5.486   8.793   6.159 -0.4934  0.1717 -3.8401
  427MOL0     H58889   5.279   8.758   6.018 -1.8287  0.7661 -0.2740
  427MOL0     H58890   4.869   8.652   6.213  1.1691  3.4189  0.2129
  427MOL0     H58891   4.864   8.626   6.036  2.1735 -2.3131 -1.4453
  427MOL0     H58892   5.032   8.458   6.214 -1.8162 -3.5544  0.4533
  427MOL0     H58893   4.898   8.422   6.102 -2.1244  2.5637  0.1200
  427MOL0     H58894   5.164   8.530   6.012 -0.4377  1.3417  1.8060
  427MOL0     H58895   5.027   8.497   5.904  0.6655  0.0967 -0.6573
  427MOL0     H58896   5.088   8.284   6.096 -2.4500 -0.3798 -0.0655
  427MOL0     H58897   5.236   8.335   5.991 -0.3275  0.5651 -1.6527
  427MOL0     H58898   5.105   8.147   5.904 -0.3654 -0.0121  0.2117
  427MOL0     H58899   4.975   8.265   5.886  0.2709  0.1194  0.6691
  427MOL0     H58900   5.259   8.279   5.756 -0.3571 -0.7104  0.7778
  427MOL0     H58901   5.132   8.404   5.736  0.9938 -0.3173 -0.3174
  427MOL0     H58902   4.991   8.219   5.629 -0.6474  1.5198  0.0197
  427MOL0     H58903   5.132   8.106   5.647 -0.1311  0.8090  0.3968
  427MOL0     H58904   5.242   8.237   5.465 -0.0989  1.5596 -1.8566
  427MOL0     H58905   5.145   8.375   5.496  2.8214 -0.2809  0.0998
  427MOL0     H58906   5.044   8.737   6.373  1.5077 -0.3894  0.8304
  427MOL0     H58907   5.240   8.753   6.505  1.5001 -0.0940 -0.1962
  427MOL0     H58908   5.744   8.819   6.453 -1.1009 -1.4610 -1.1186
  427MOL0     H58909   5.947   8.911   6.575 -0.9959  2.0315 -3.1272
  427MOL0     H58910   4.714   9.511   7.476 -0.6929  1.0340 -0.9344
  427MOL0     H58911   4.519   9.477   7.622  1.2005 -2.4744  4.2398
  427MOL0     H58912   4.252   8.939   7.882 -0.1738 -1.5809 -1.5594
  427MOL0     H58913   4.014   8.879   7.903 -1.3539  0.4525  2.2966
  427MOL0     H58914   3.645   8.907   7.894  0.6426 -0.4212 -0.5743
  427MOL0     H58915   3.811   8.877   7.946  0.9020 -0.2632 -0.7292
  427MOL0     H58916   3.802   9.064   8.093  1.0078 -1.2454  0.0567
  427MOL0     H58917   3.701   8.929   8.131 -1.6794  0.4500 -0.6464
  427MOL0     H58918   3.618   9.183   7.986 -0.0105 -1.5773  0.6022
  427MOL0     H58919   3.502   9.046   8.006  0.7341 -2.5545  1.8267
  427MOL0     H58920   3.611   9.247   8.216 -0.2122 -0.1810 -0.1032
  427MOL0     H58921   3.535   9.103   8.259  0.1531  0.2557  0.1608
  427MOL0     H58922   3.215   9.323   8.081  0.5932 -0.2123  0.2484
  427MOL0     H58923   3.892   9.249   7.734 -0.5412 -1.1120 -1.8758
  427MOL0     H58924   4.032   9.381   7.610  0.1957 -0.2639 -0.2784
  427MOL0     H58925   4.170   9.410   7.710 -0.1481 -0.2883  1.0549
  427MOL0     H58926   4.183   9.302   7.564  1.8255  2.4899  0.3052
  428MOL0     O58927   1.192   2.154   0.538 -0.7340  0.2411 -0.2667
  428MOL0     C58928   1.214   2.221   0.438 -0.1782  0.4334 -0.1018
  428MOL0     O58929   1.135   2.329   0.392 -0.2242  0.4381  0.3189
  428MOL0     C58930   1.027   2.382   0.450  0.6601 -0.2910  0.0804
  428MOL0     C58931   0.949   2.321   0.552  0.0129 -0.3102  0.4007
  428MOL0     C58932   0.841   2.375   0.614  0.0057 -0.9013 -0.1406
  428MOL0     C58933   0.800   2.507   0.575 -0.9707  0.0908  0.0006
  428MOL0     O58934   0.687   2.549   0.637 -0.0891  0.2284  0.4036
  428MOL0     C58935   0.659   2.685   0.644 -0.7550  0.3100  0.6904
  428MOL0     C58936   0.509   2.713   0.668  0.5845 -0.9458  0.0808
  428MOL0     C58937   0.473   2.864   0.675 -0.5910  0.8128  0.6889
  428MOL0     C58938   0.322   2.885   0.673 -0.6744 -0.7797  0.0851
  428MOL0     C58939   0.306   3.040   0.694  0.9364  0.0525  0.3561
  428MOL0     C58940   0.154   3.083   0.692 -0.3594 -0.7108  0.3076
  428MOL0     C58941   0.154   3.233   0.725  0.8742  0.1260 -0.7312
  428MOL0     C58942   0.021   3.300   0.684  0.0223 -0.4499  0.5910
  428MOL0     N58943   0.050   3.376   0.558  0.3219 -0.0590 -0.5221
  428MOL0     C58944   0.108   3.504   0.555 -0.2706  0.4573 -0.0556
  428MOL0     C58945   0.077   3.566   0.439  0.4896  0.1330 -0.1851
  428MOL0     C58946   0.101   3.715   0.414  0.1854  0.0391 -0.0906
  428MOL0     C58947   0.248   3.748   0.397  0.0039 -0.3327 -0.0018
  428MOL0     C58948   0.312   3.694   0.267 -0.0612 -0.6742 -0.9010
  428MOL0     C58949   0.228   3.737   0.140 -0.4447 -0.3417  0.3419
  428MOL0     O58950   0.307   3.733   0.021  0.7682 -0.2639 -0.3931
  428MOL0     C58951   0.385   3.838  -0.010 -0.5914 -0.5688 -0.0612
  428MOL0     C58952   0.457   3.830  -0.132 -0.6488  0.5968  0.0879
  428MOL0     C58953   0.567   3.922  -0.164  0.7564 -0.1877 -0.0200
  428MOL0     C58954   0.658   3.890  -0.281  0.2487  0.3656  0.4734
  428MOL0     C58955   0.573   4.045  -0.097  0.5779 -0.1806 -0.1055
  428MOL0     C58956   0.660   4.161  -0.136  0.7680 -0.6262  0.0659
  428MOL0     O58957   0.650   4.272  -0.053  0.2474 -0.9557 -0.9701
  428MOL0     C58958   0.724   4.387  -0.064  0.2716 -0.7107  0.0035
  428MOL0     C58959   0.861   4.391  -0.049  0.5955 -0.2691  0.0499
  428MOL0     C58960   0.935   4.513  -0.067 -0.4119  0.2507 -0.3420
  428MOL0     C58961   0.868   4.622  -0.122 -0.6178  0.0514 -0.3867
  428MOL0     O58962   0.950   4.732  -0.153  0.1816  0.2363  0.4886
  428MOL0     C58963   0.927   4.810  -0.276 -0.0862 -0.5458  1.2029
  428MOL0     C58964   1.039   4.897  -0.302 -0.6839 -0.8819  0.4617
  428MOL0     C58965   1.030   4.973  -0.433 -0.3164 -0.6362  0.1262
  428MOL0     C58966   1.047   4.892  -0.567  0.4963 -0.2606  0.4121
  428MOL0     C58967   1.081   4.977  -0.687  0.4599 -0.1206  0.0751
  428MOL0     C58968   0.956   5.048  -0.748 -1.3382  0.9069 -0.5361
  428MOL0     C58969   0.975   5.121  -0.884  0.5590  0.5248  0.0011
  428MOL0     C58970   1.049   5.254  -0.854 -0.2251 -0.1986 -0.4909
  428MOL0    Cl58971   0.991   5.351  -0.713 -0.4117 -0.1524 -0.3781
  428MOL0     C58972   0.729   4.623  -0.123 -0.4185 -0.2147 -0.6619
  428MOL0     C58973   0.658   4.510  -0.096  0.0304  0.1898 -0.3415
  428MOL0     O58974   0.734   4.150  -0.232  0.4864  0.0550  0.6113
  428MOL0     C58975   0.482   4.062   0.016  0.7119 -0.5253 -0.6104
  428MOL0     C58976   0.394   3.961   0.058 -0.2729 -0.3050 -0.7998
  428MOL0     N58977  -0.021   3.482   0.386  0.2353  0.3620 -0.7847
  428MOL0     N58978  -0.023   3.369   0.449  0.2193  0.3623 -0.2026
  428MOL0     C58979   0.878   2.572   0.469  0.0675  0.1080  0.4143
  428MOL0     C58980   0.987   2.511   0.402 -0.0934 -0.3023  0.2651
  428MOL0     C58981   1.307   2.170   0.336 -0.5391  0.5764  0.3150
  428MOL0     C58982   1.304   2.210   0.200  0.2681  0.7506 -0.2493
  428MOL0     C58983   1.384   2.160   0.106 -0.4519  0.1493  0.6785
  428MOL0     C58984   1.482   2.061   0.130 -0.1345 -0.5854 -0.6345
  428MOL0     O58985   1.573   2.023   0.032 -0.0590  0.0727 -1.1044
  428MOL0     C58986   1.510   1.978  -0.090 -0.5168  0.1312  0.4357
  428MOL0     C58987   1.570   1.848  -0.147 -0.1655 -0.3424  0.7163
  428MOL0     C58988   1.725   1.838  -0.134 -0.6655 -0.7891  0.6996
  428MOL0     C58989   1.805   1.970  -0.160  0.7303  0.2681 -0.7315
  428MOL0     C58990   1.951   1.937  -0.151 -0.2850  1.6985  0.1138
  428MOL0     C58991   2.069   1.899  -0.162  0.3234  0.1366 -0.7525
  428MOL0     C58992   1.497   2.022   0.262  0.3518 -0.0587  0.5800
  428MOL0     C58993   1.418   2.078   0.367  0.2268  0.3393  0.6747
  428MOL0     C58994   1.469   2.052   0.505 -0.2210 -1.2738  0.3273
  428MOL0     H58995   0.974   2.223   0.590  1.4982  0.3944  1.3203
  428MOL0     H58996   0.790   2.335   0.701 -0.6303  2.0660  0.9773
  428MOL0     H58997   0.684   2.737   0.551 -2.7020  1.3673  0.7031
  428MOL0     H58998   0.715   2.713   0.733  3.5560 -0.7140 -1.4283
  428MOL0     H58999   0.462   2.683   0.574  0.0695 -1.1402  0.3960
  428MOL0     H59000   0.475   2.668   0.762 -1.7611  1.7106  0.6195
  428MOL0     H59001   0.506   2.904   0.771  1.3444 -0.5083  0.6447
  428MOL0     H59002   0.507   2.928   0.593 -0.9236  3.0558  2.2256
  428MOL0     H59003   0.275   2.843   0.583 -1.0276  1.3366 -0.7705
  428MOL0     H59004   0.278   2.825   0.754  1.3765 -1.7676  0.5153
  428MOL0     H59005   0.354   3.094   0.612  1.1044  1.1197  1.1314
  428MOL0     H59006   0.350   3.071   0.789  1.3568 -3.1069  1.3143
  428MOL0     H59007   0.109   3.080   0.592 -0.3074  0.8672  0.2040
  428MOL0     H59008   0.098   3.034   0.771  0.9710  2.8851  3.8129
  428MOL0     H59009   0.237   3.282   0.675  3.0397 -3.0901 -0.5942
  428MOL0     H59010   0.169   3.239   0.833  0.2514 -0.2436 -0.6170
  428MOL0     H59011  -0.048   3.218   0.667  0.6570 -1.7823  3.8111
  428MOL0     H59012  -0.010   3.362   0.768 -1.3956  0.2034 -0.3653
  428MOL0     H59013   0.162   3.560   0.631 -2.1527 -0.5118  2.1335
  428MOL0     H59014   0.058   3.778   0.493  0.1966  0.2207 -0.2290
  428MOL0     H59015   0.040   3.744   0.328  0.9325 -1.1837 -1.0455
  428MOL0     H59016   0.268   3.855   0.396 -2.3890  0.1750 -0.3435
  428MOL0     H59017   0.312   3.731   0.485  2.0051  4.3881 -0.2439
  428MOL0     H59018   0.408   3.747   0.273 -0.1269 -0.6148 -0.3023
  428MOL0     H59019   0.324   3.586   0.269 -0.3253 -0.8496  4.1574
  428MOL0     H59020   0.151   3.663   0.116  0.6374 -1.7692  1.0569
  428MOL0     H59021   0.182   3.834   0.157 -3.0540 -1.1322 -1.5286
  428MOL0     H59022   0.431   3.747  -0.197 -1.8885 -1.0226  2.5304
  428MOL0     H59023   0.648   3.789  -0.322  0.7693  0.2116  0.7160
  428MOL0     H59024   0.765   3.899  -0.257  0.4301  1.1753 -0.5238
  428MOL0     H59025   0.641   3.956  -0.367 -2.5269 -0.8253  0.0227
  428MOL0     H59026   0.902   4.292  -0.031 -2.2550 -1.7990 -1.2211
  428MOL0     H59027   1.043   4.520  -0.057 -0.4881 -0.0648  0.8434
  428MOL0     H59028   0.923   4.736  -0.357 -0.4735  0.6175  0.1336
  428MOL0     H59029   0.838   4.873  -0.278 -0.1907 -0.7091  0.6701
  428MOL0     H59030   1.051   4.977  -0.229  0.1666  2.0466 -2.6296
  428MOL0     H59031   1.128   4.834  -0.305  0.8914  1.2867 -1.8581
  428MOL0     H59032   1.117   5.040  -0.432  1.3761 -2.6162 -1.4596
  428MOL0     H59033   0.938   5.031  -0.429  0.3687  0.5218 -0.3376
  428MOL0     H59034   0.954   4.838  -0.587 -1.2386  2.3772  0.8808
  428MOL0     H59035   1.120   4.815  -0.543  2.5379  1.0169 -1.3067
  428MOL0     H59036   1.155   5.057  -0.675  3.1260 -2.3637 -0.5006
  428MOL0     H59037   1.126   4.904  -0.755  0.3580 -1.0928  1.0349
  428MOL0     H59038   0.926   5.115  -0.667 -1.1621  0.8988 -0.4635
  428MOL0     H59039   0.871   4.979  -0.757 -0.2656 -0.5319  0.0763
  428MOL0     H59040   0.878   5.139  -0.932  2.1178  0.0805 -3.6181
  428MOL0     H59041   1.025   5.063  -0.962 -1.5234 -0.8187 -0.4261
  428MOL0     H59042   1.044   5.323  -0.939  5.2593 -0.4295 -1.3732
  428MOL0     H59043   1.152   5.233  -0.824 -0.1095  1.0890  0.0383
  428MOL0     H59044   0.678   4.713  -0.154 -1.0722  0.3692  1.8786
  428MOL0     H59045   0.551   4.518  -0.115  0.5281  2.4075 -2.9915
  428MOL0     H59046   0.473   4.154   0.074 -4.3119 -1.7514  1.1130
  428MOL0     H59047   0.339   3.982   0.150  3.0981  1.7371  0.9825
  428MOL0     H59048   0.837   2.668   0.440 -2.3783 -0.7291  0.8537
  428MOL0     H59049   1.048   2.564   0.329 -1.9446 -2.1668 -2.8839
  428MOL0     H59050   1.220   2.275   0.179 -1.2125 -0.1276  2.3871
  428MOL0     H59051   1.368   2.201   0.006  0.7630 -0.8574  0.0458
  428MOL0     H59052   1.402   1.965  -0.077 -0.7575  0.8590 -0.7467
  428MOL0     H59053   1.526   2.057  -0.164  0.7949 -0.2552  0.2774
  428MOL0     H59054   1.532   1.835  -0.249  1.4055  0.1959  0.0375
  428MOL0     H59055   1.526   1.760  -0.099 -2.8503  0.4123 -0.1887
  428MOL0     H59056   1.746   1.812  -0.030  0.3054 -0.3813  0.6142
  428MOL0     H59057   1.762   1.750  -0.188 -1.9813 -0.0238 -1.5705
  428MOL0     H59058   1.777   2.048  -0.089 -1.9821 -1.4124  0.2058
  428MOL0     H59059   1.791   2.004  -0.263  2.2239  0.4577 -0.8895
  428MOL0     H59060   2.167   1.864  -0.187  0.7151 -2.3337  3.3198
  428MOL0     H59061   1.568   1.943   0.285 -0.5502 -0.3841  2.5381
  428MOL0     H59062   1.472   2.142   0.567 -0.4685 -0.6460 -0.5498
  428MOL0     H59063   1.402   1.975   0.544 -2.1395  1.0804  2.0334
  428MOL0     H59064   1.571   2.018   0.525 -0.5901 -1.7381  1.4590
  429MOL0     O59065   9.021   7.256  10.430 -0.7356  0.0624  0.3611
  429MOL0     C59066   8.949   7.306  10.515 -0.0031  0.3366 -0.6603
  429MOL0     O59067   8.960   7.275  10.653  0.1631  0.1646 -0.3090
  429MOL0     C59068   9.058   7.172  10.682  1.2858  0.0948 -0.1234
  429MOL0     C59069   9.187   7.189  10.640  0.1442  0.2654 -0.3931
  429MOL0     C59070   9.285   7.100  10.664 -0.2137 -1.3575 -0.1043
  429MOL0     C59071   9.255   6.984  10.733  0.7769 -0.2181 -0.5910
  429MOL0     O59072   9.368   6.918  10.773 -0.5221  0.2635 -0.4829
  429MOL0     C59073   9.349   6.800  10.854 -0.1210 -0.3859  0.6116
  429MOL0     C59074   9.476   6.718  10.828  0.1124  0.8690 -0.0009
  429MOL0     C59075   9.499   6.619  10.957  0.0584 -0.5481  0.0585
  429MOL0     C59076   9.606   6.509  10.946 -0.6223  0.3047 -0.3810
  429MOL0     C59077   9.608   6.436  11.080  0.2850 -0.3536  0.2840
  429MOL0     C59078   9.680   6.314  11.052  0.0696  0.5109  0.0871
  429MOL0     C59079   9.700   6.220  11.177 -0.3841  0.1738  0.3443
  429MOL0     C59080   9.788   6.294  11.277 -0.3085  0.7014 -0.3901
  429MOL0     N59081   9.832   6.201  11.385  0.8207 -0.2196 -0.1324
  429MOL0     C59082   9.943   6.119  11.387 -0.3396 -1.5479  1.1392
  429MOL0     C59083   9.953   6.067  11.508  0.2484 -0.1779 -0.2528
  429MOL0     C59084  10.070   5.978  11.554 -0.4493  0.0173 -0.3096
  429MOL0     C59085  10.024   5.834  11.569  0.0966  0.0928 -0.0694
  429MOL0     C59086   9.949   5.801  11.698 -0.8834 -0.8515  0.1005
  429MOL0     C59087   9.923   5.653  11.711 -0.3827 -0.3855  0.1001
  429MOL0     O59088   9.839   5.604  11.607  0.1406  0.2125  0.4626
  429MOL0     C59089   9.705   5.631  11.601  1.1620  0.2948  0.2734
  429MOL0     C59090   9.643   5.595  11.478  0.6177  0.3507  0.8245
  429MOL0     C59091   9.508   5.620  11.455 -0.1888 -0.2399 -0.1818
  429MOL0     C59092   9.458   5.602  11.317 -0.1710 -0.3004  0.2248
  429MOL0     C59093   9.427   5.672  11.571  0.1408  0.3930 -0.1211
  429MOL0     C59094   9.281   5.679  11.573  0.5318 -0.0940  0.7981
  429MOL0     O59095   9.216   5.605  11.482 -0.1957  0.1438 -0.4197
  429MOL0     C59096   9.078   5.609  11.467 -0.2015 -0.3914  0.3781
  429MOL0     C59097   9.031   5.640  11.348  0.3957 -0.7203  0.3411
  429MOL0     C59098   8.896   5.658  11.317 -0.3531  0.0709  0.5084
  429MOL0     C59099   8.804   5.645  11.424  0.3027  0.3576  0.6175
  429MOL0     O59100   8.680   5.698  11.403  0.2474  0.3738  0.3105
  429MOL0     C59101   8.674   5.826  11.338 -0.5436  0.1764 -0.1658
  429MOL0     C59102   8.537   5.899  11.352  0.5714  0.3154 -0.7490
  429MOL0     C59103   8.426   5.852  11.261  0.2278  0.3356  0.7941
  429MOL0     C59104   8.301   5.940  11.285 -0.7586  0.4543  0.4888
  429MOL0     C59105   8.188   5.903  11.190 -0.5045 -0.1355 -0.2953
  429MOL0     C59106   8.069   6.001  11.209 -0.0102  0.4124 -0.2953
  429MOL0     C59107   8.097   6.151  11.167  0.0127 -0.8950 -0.7252
  429MOL0     C59108   8.132   6.163  11.019 -0.1297 -0.3686  0.1945
  429MOL0    Cl59109   8.008   6.081  10.912 -0.5739  0.3064  0.0262
  429MOL0     C59110   8.843   5.583  11.540 -0.7030 -0.4545  0.1345
  429MOL0     C59111   8.986   5.581  11.567  0.8450  0.7212  0.1082
  429MOL0     O59112   9.229   5.767  11.651  0.1773  0.1312  0.3804
  429MOL0     C59113   9.493   5.712  11.688 -0.0956 -0.0156  0.6487
  429MOL0     C59114   9.631   5.701  11.699 -0.3298 -0.6416 -0.1711
  429MOL0     N59115   9.831   6.090  11.575  0.3977  0.1295  0.4943
  429MOL0     N59116   9.767   6.176  11.506 -0.4502 -0.2860  0.2610
  429MOL0     C59117   9.122   6.959  10.782 -0.5826  0.5675 -0.5801
  429MOL0     C59118   9.021   7.057  10.745 -0.0627  0.1717 -0.0232
  429MOL0     C59119   8.828   7.384  10.484 -0.9869 -0.0256 -0.6209
  429MOL0     C59120   8.732   7.421  10.590 -0.6051 -0.4951  1.1513
  429MOL0     C59121   8.612   7.496  10.555  0.3434  0.5069 -0.4092
  429MOL0     C59122   8.587   7.544  10.425 -0.0159  0.1785 -0.2533
  429MOL0     O59123   8.475   7.614  10.383 -0.3852  0.8395  0.2417
  429MOL0     C59124   8.359   7.631  10.471  0.5327 -0.8371 -0.1123
  429MOL0     C59125   8.272   7.751  10.427  0.9144 -0.2817 -0.2921
  429MOL0     C59126   8.247   7.736  10.273 -0.4592  0.5963 -0.4451
  429MOL0     C59127   8.171   7.856  10.228  0.8368 -0.1931 -0.4901
  429MOL0     C59128   8.032   7.818  10.273 -0.1565  0.2663 -0.2327
  429MOL0     C59129   7.924   7.796  10.303  0.9034 -0.6947  0.0031
  429MOL0     C59130   8.682   7.506  10.326  0.1737  0.7341  0.2962
  429MOL0     C59131   8.801   7.437  10.351 -1.0069 -0.3344 -0.8166
  429MOL0     C59132   8.890   7.411  10.228 -0.2735 -0.1523  0.1499
  429MOL0     H59133   9.213   7.287  10.601  0.9191 -0.1102 -0.8385
  429MOL0     H59134   9.382   7.139  10.637  0.5539 -1.8795  1.7368
  429MOL0     H59135   9.263   6.737  10.825  0.5051 -0.4791 -1.1547
  429MOL0     H59136   9.334   6.831  10.957 -2.5875  1.0494 -0.0713
  429MOL0     H59137   9.468   6.653  10.740 -1.4605  1.2388 -0.1680
  429MOL0     H59138   9.551   6.796  10.820  1.1360 -0.0897  0.0739
  429MOL0     H59139   9.516   6.690  11.039 -0.3959 -1.0407  0.5842
  429MOL0     H59140   9.401   6.576  10.978  0.1137 -1.3462 -1.1727
  429MOL0     H59141   9.590   6.443  10.860 -0.0026  0.9594 -1.0146
  429MOL0     H59142   9.701   6.562  10.931  0.2994 -1.4567 -1.0764
  429MOL0     H59143   9.509   6.413  11.120  0.6851 -1.2695  0.7704
  429MOL0     H59144   9.668   6.495  11.150 -0.9477 -1.3101  2.2175
  429MOL0     H59145   9.641   6.250  10.972 -0.0667 -2.0781  2.0914
  429MOL0     H59146   9.779   6.341  11.015  1.1404 -1.4349  1.3399
  429MOL0     H59147   9.759   6.131  11.152 -0.7364  0.0356 -0.0052
  429MOL0     H59148   9.602   6.186  11.213 -0.5247 -0.6341 -0.7641
  429MOL0     H59149   9.877   6.334  11.228  0.9743 -1.3354  0.1379
  429MOL0     H59150   9.730   6.367  11.334 -1.7321 -1.7695  1.5369
  429MOL0     H59151  10.015   6.134  11.306 -0.1789 -1.3301  1.3227
  429MOL0     H59152  10.125   6.027  11.635 -1.1191  4.4090 -2.2117
  429MOL0     H59153  10.142   5.972  11.472 -0.2365  2.4950 -0.4056
  429MOL0     H59154   9.962   5.801  11.486 -1.5865  0.6223  0.9312
  429MOL0     H59155  10.118   5.778  11.573 -0.1088 -0.1865  1.6791
  429MOL0     H59156  10.007   5.830  11.786 -3.6104 -0.8736  2.0385
  429MOL0     H59157   9.858   5.859  11.713 -1.0233 -1.1747  0.4934
  429MOL0     H59158  10.021   5.604  11.705  1.0696  2.1006  1.6582
  429MOL0     H59159   9.865   5.632  11.801 -3.9436 -0.3920 -2.0022
  429MOL0     H59160   9.710   5.545  11.408  0.2928 -0.9942  1.4391
  429MOL0     H59161   9.367   5.663  11.307  1.1445  2.3810  2.9573
  429MOL0     H59162   9.424   5.500  11.301 -2.8125  0.1593  2.1303
  429MOL0     H59163   9.526   5.636  11.238 -1.1207  2.0422  0.3185
  429MOL0     H59164   9.105   5.658  11.270  1.8363 -1.6153  1.4328
  429MOL0     H59165   8.875   5.687  11.214  2.5127  1.4446  0.2197
  429MOL0     H59166   8.755   5.890  11.374 -0.4257 -0.2076  0.2589
  429MOL0     H59167   8.697   5.808  11.233  1.6273 -1.8071  0.5719
  429MOL0     H59168   8.494   5.883  11.451 -3.2272  0.2044 -2.2251
  429MOL0     H59169   8.547   6.005  11.328  1.2517  0.1536 -1.2087
  429MOL0     H59170   8.395   5.751  11.287  2.1524 -0.1160  1.5088
  429MOL0     H59171   8.461   5.851  11.158 -0.7622  0.9091  0.4338
  429MOL0     H59172   8.332   6.045  11.287  1.4143 -0.1408  2.6231
  429MOL0     H59173   8.277   5.923  11.390 -0.7435  1.1645  0.6143
  429MOL0     H59174   8.218   5.911  11.085 -0.5702  1.6360 -0.2085
  429MOL0     H59175   8.162   5.798  11.207 -0.1515  0.2229  3.1904
  429MOL0     H59176   8.029   5.995  11.311 -0.7648  1.2777 -0.5263
  429MOL0     H59177   7.994   5.969  11.136  2.1330 -0.2033 -2.3373
  429MOL0     H59178   8.184   6.189  11.222  0.4302 -1.5507 -0.9163
  429MOL0     H59179   8.010   6.214  11.186 -0.2669 -1.1245 -1.2222
  429MOL0     H59180   8.228   6.113  11.006 -1.1105 -2.5781  1.0024
  429MOL0     H59181   8.138   6.270  10.996 -1.8070  0.3933  2.8129
  429MOL0     H59182   8.778   5.586  11.627  0.0826 -1.2710  0.7635
  429MOL0     H59183   9.026   5.542  11.660  2.8926 -2.2905 -1.8506
  429MOL0     H59184   9.433   5.758  11.766  1.3864  1.9794  0.6901
  429MOL0     H59185   9.688   5.738  11.784  0.3509  2.5333 -1.8481
  429MOL0     H59186   9.090   6.870  10.836 -0.3146  0.4451 -0.6218
  429MOL0     H59187   8.915   7.047  10.770 -0.5529  0.4592 -1.8488
  429MOL0     H59188   8.746   7.398  10.695  0.4171  0.8673  1.3426
  429MOL0     H59189   8.542   7.493  10.637 -0.9379  0.9182 -1.4487
  429MOL0     H59190   8.299   7.539  10.470  1.8491 -1.8264  2.6987
  429MOL0     H59191   8.388   7.656  10.573  1.7446  0.0746 -0.6516
  429MOL0     H59192   8.321   7.845  10.453  1.0722 -0.5045  0.2347
  429MOL0     H59193   8.178   7.732  10.479 -0.1977 -2.0338 -2.7632
  429MOL0     H59194   8.342   7.734  10.218  0.0801  1.0050  0.4492
  429MOL0     H59195   8.200   7.638  10.256 -0.9700  0.3027  2.2415
  429MOL0     H59196   8.169   7.875  10.120  3.1787  0.8061 -0.4074
  429MOL0     H59197   8.197   7.946  10.285  0.3201  1.0237 -2.1053
  429MOL0     H59198   7.826   7.790  10.347  2.0327  0.5541  2.9955
  429MOL0     H59199   8.654   7.534  10.225  2.2990  0.8294 -0.3139
  429MOL0     H59200   8.862   7.479  10.147  1.6240 -0.6083 -0.9711
  429MOL0     H59201   8.993   7.443  10.248 -0.0894 -0.7109  0.1268
  429MOL0     H59202   8.885   7.306  10.197 -1.1986  0.5148 -2.1709
  430MOL0     O59203   0.614   8.667   5.117 -0.4662 -0.0782  0.4284
  430MOL0     C59204   0.566   8.568   5.173 -0.9248 -0.0863  0.4385
  430MOL0     O59205   0.528   8.568   5.301 -0.0350 -0.2389 -0.2379
  430MOL0     C59206   0.423   8.652   5.337  0.4716 -0.4659 -0.4073
  430MOL0     C59207   0.303   8.654   5.263  0.2896  0.6550 -0.6073
  430MOL0     C59208   0.193   8.727   5.324 -0.3342  0.5228 -0.4379
  430MOL0     C59209   0.215   8.793   5.450  0.0945 -0.0177 -0.7473
  430MOL0     O59210   0.105   8.869   5.483  0.3417  0.3316  0.3461
  430MOL0     C59211   0.082   8.887   5.630  0.7671 -0.3603  0.2495
  430MOL0     C59212  -0.023   8.999   5.628 -0.3771 -0.3315 -0.2806
  430MOL0     C59213  -0.045   9.052   5.774  0.0234  0.3991  0.3129
  430MOL0     C59214  -0.150   9.167   5.768 -0.2168  0.4590  0.3516
  430MOL0     C59215  -0.196   9.219   5.902  0.2571 -0.9366  0.0892
  430MOL0     C59216  -0.228   9.111   6.003  0.0765 -0.0013  1.0247
  430MOL0     C59217  -0.281   9.171   6.137  0.3165 -0.8104 -0.7199
  430MOL0     C59218  -0.185   9.279   6.198 -0.3654  0.7198  0.2435
  430MOL0     N59219  -0.052   9.240   6.255 -0.2945  0.2133  0.2778
  430MOL0     C59220  -0.022   9.159   6.359  0.0677  0.1135  0.0884
  430MOL0     C59221   0.109   9.134   6.347 -0.5290  0.0896 -1.4673
  430MOL0     C59222   0.191   9.032   6.434 -0.8233  0.5842 -0.8503
  430MOL0     C59223   0.280   9.119   6.528 -0.5349 -0.0803 -0.3570
  430MOL0     C59224   0.380   9.022   6.595  0.7037 -0.7438  1.1573
  430MOL0     C59225   0.449   9.093   6.709 -0.3072 -0.3664  0.3034
  430MOL0     O59226   0.514   9.215   6.654  0.1512  0.4583 -0.6354
  430MOL0     C59227   0.593   9.281   6.747  0.2498  0.3466  0.0495
  430MOL0     C59228   0.689   9.362   6.696  0.3880 -0.2896 -0.1622
  430MOL0     C59229   0.773   9.434   6.782  0.6023  0.5146 -0.2599
  430MOL0     C59230   0.896   9.493   6.724 -0.4496  1.1351  0.1719
  430MOL0     C59231   0.745   9.430   6.921  0.6421  0.4109 -0.6092
  430MOL0     C59232   0.833   9.494   7.026  0.7327 -0.4425  0.4202
  430MOL0     O59233   0.766   9.546   7.128 -0.0335  0.7786  0.6138
  430MOL0     C59234   0.833   9.637   7.210 -0.8802 -0.2962 -0.4979
  430MOL0     C59235   0.850   9.610   7.344 -1.2392  0.0700  0.5373
  430MOL0     C59236   0.926   9.692   7.427 -0.6131 -0.5525  0.9137
  430MOL0     C59237   0.989   9.815   7.376  0.7329 -0.2530  0.4622
  430MOL0     O59238   1.066   9.901   7.450 -0.3533  0.0804  0.3799
  430MOL0     C59239   1.066   9.888   7.593  0.0661  0.1395 -0.2063
  430MOL0     C59240   1.157  10.000   7.646  0.1554 -0.3761  0.2692
  430MOL0     C59241   1.305  10.007   7.591  0.2287 -0.1314  0.0290
  430MOL0     C59242   1.394   9.885   7.629  0.1962 -0.6791 -0.1574
  430MOL0     C59243   1.535   9.903   7.560  0.1067 -0.3147  0.0278
  430MOL0     C59244   1.630   9.786   7.585 -0.0877 -1.1789  0.0830
  430MOL0     C59245   1.762   9.815   7.522 -0.8428  0.1237  0.2108
  430MOL0     C59246   1.772   9.816   7.366  0.8604 -0.2753  0.6887
  430MOL0    Cl59247   1.729   9.644   7.313 -0.0196  0.4330  0.1771
  430MOL0     C59248   0.969   9.834   7.235  0.5816  0.7570 -0.8606
  430MOL0     C59249   0.883   9.752   7.159  0.0378 -0.8413  0.9768
  430MOL0     O59250   0.954   9.480   7.024 -0.2410  0.3363 -0.3774
  430MOL0     C59251   0.632   9.356   6.977  0.2484 -0.7033  0.2053
  430MOL0     C59252   0.557   9.289   6.880  0.4986  0.2535  0.0232
  430MOL0     N59253   0.164   9.208   6.239  0.1026  0.0961  0.3475
  430MOL0     N59254   0.064   9.266   6.187  0.3909  0.2715 -0.2821
  430MOL0     C59255   0.337   8.792   5.523  0.0101 -0.6656  0.6293
  430MOL0     C59256   0.436   8.720   5.459 -0.0660 -0.3371  0.3078
  430MOL0     C59257   0.557   8.445   5.081  0.0478  0.3568 -0.7962
  430MOL0     C59258   0.449   8.352   5.109 -1.3689  0.5458 -0.2188
  430MOL0     C59259   0.412   8.260   5.015 -0.5146  0.0252 -0.3813
  430MOL0     C59260   0.485   8.248   4.894  0.3756 -0.3020  0.4531
  430MOL0     O59261   0.446   8.180   4.781 -0.2498  0.1174 -0.3071
  430MOL0     C59262   0.301   8.144   4.767 -0.0718 -0.4495  0.5149
  430MOL0     C59263   0.277   8.096   4.624  0.2218 -1.4559  0.7492
  430MOL0     C59264   0.334   7.955   4.606 -0.2419  0.3741  0.0273
  430MOL0     C59265   0.365   7.931   4.462 -0.6649  0.2366 -0.1723
  430MOL0     C59266   0.249   7.920   4.379  0.4798  0.7264 -0.3648
  430MOL0     C59267   0.148   7.934   4.312  0.0178  0.0282 -0.4962
  430MOL0     C59268   0.602   8.320   4.887  0.6879 -0.3949  0.9292
  430MOL0     C59269   0.644   8.422   4.974  0.8097 -0.5916  0.3015
  430MOL0     C59270   0.767   8.507   4.951 -0.1548  0.3623 -0.7945
  430MOL0     H59271   0.288   8.596   5.172 -2.9162 -3.0741  1.9835
  430MOL0     H59272   0.096   8.733   5.275  0.1256 -2.9369 -2.0579
  430MOL0     H59273   0.171   8.916   5.687  0.4290  0.4147  0.3991
  430MOL0     H59274   0.035   8.796   5.668 -2.3158  2.1183  2.9508
  430MOL0     H59275   0.009   9.083   5.567 -1.5499  0.5906  0.3355
  430MOL0     H59276  -0.120   8.966   5.591 -0.6460 -0.3410  0.4276
  430MOL0     H59277  -0.079   8.964   5.830 -0.2972  0.1404 -0.2741
  430MOL0     H59278   0.051   9.094   5.806 -0.4356  0.0453  2.2385
  430MOL0     H59279  -0.110   9.248   5.706  0.7674 -0.0355  0.3202
  430MOL0     H59280  -0.233   9.126   5.710  0.4472 -1.4911  0.6951
  430MOL0     H59281  -0.285   9.280   5.890  1.6258  1.6901  2.3032
  430MOL0     H59282  -0.113   9.281   5.937 -0.2683  0.8044 -1.5874
  430MOL0     H59283  -0.309   9.052   5.960  0.5923  0.3982 -0.5715
  430MOL0     H59284  -0.139   9.047   6.008  0.1139  0.0790  1.4034
  430MOL0     H59285  -0.296   9.095   6.214  1.6974 -0.7745 -0.3829
  430MOL0     H59286  -0.377   9.219   6.118  1.3377  1.2592 -0.8574
  430MOL0     H59287  -0.183   9.358   6.123 -2.1545 -0.6879 -1.3948
  430MOL0     H59288  -0.254   9.320   6.273  0.1146  0.0137  1.0959
  430MOL0     H59289  -0.088   9.111   6.431  0.0545  1.6866  1.1902
  430MOL0     H59290   0.260   8.976   6.371 -0.8164 -1.4313  0.8228
  430MOL0     H59291   0.127   8.965   6.492  0.9185  0.3865  0.9304
  430MOL0     H59292   0.337   9.197   6.478  1.5894 -0.8718  0.7031
  430MOL0     H59293   0.216   9.173   6.597 -1.6124  1.7208 -2.6252
  430MOL0     H59294   0.316   8.942   6.634  0.9166 -3.3057 -3.0537
  430MOL0     H59295   0.455   8.974   6.531 -0.2042 -3.8418  2.2005
  430MOL0     H59296   0.375   9.121   6.784 -2.0454 -0.8101 -1.1705
  430MOL0     H59297   0.524   9.024   6.750 -0.5148 -1.0712 -0.4880
  430MOL0     H59298   0.720   9.360   6.592 -0.1866 -1.6000 -0.3304
  430MOL0     H59299   0.886   9.527   6.620 -0.1241  4.7123  1.1750
  430MOL0     H59300   0.972   9.416   6.741 -2.2815 -1.0561 -0.9788
  430MOL0     H59301   0.926   9.578   6.786 -0.2203  0.3191  1.2181
  430MOL0     H59302   0.820   9.510   7.375  1.6838 -0.3438  2.4923
  430MOL0     H59303   0.931   9.668   7.533 -0.7300 -3.4760  0.3351
  430MOL0     H59304   0.965   9.896   7.635 -0.3368  2.7712 -1.4369
  430MOL0     H59305   1.117   9.797   7.625 -0.5964 -1.0671 -2.3584
  430MOL0     H59306   1.104  10.087   7.608  3.9998  1.9695 -0.2181
  430MOL0     H59307   1.161  10.010   7.755  1.6350  0.0304  0.1915
  430MOL0     H59308   1.362  10.094   7.623 -1.2795  0.1778  2.0590
  430MOL0     H59309   1.303  10.021   7.482  1.2497 -1.4904 -0.1877
  430MOL0     H59310   1.354   9.786   7.605  0.9399 -0.7778 -0.9888
  430MOL0     H59311   1.413   9.886   7.737  0.4749 -3.1274 -0.1371
  430MOL0     H59312   1.526   9.909   7.452  1.2881 -1.6462 -0.1870
  430MOL0     H59313   1.570   9.997   7.604  1.1222 -0.7530  0.1922
  430MOL0     H59314   1.588   9.691   7.550  0.7932 -1.9356  1.0242
  430MOL0     H59315   1.651   9.779   7.692 -0.2325  0.5596  0.2532
  430MOL0     H59316   1.833   9.744   7.565 -1.2808  0.4276  1.4770
  430MOL0     H59317   1.794   9.914   7.555  3.8208 -1.2979  0.6860
  430MOL0     H59318   1.865   9.852   7.321  2.4890 -2.9973  1.5727
  430MOL0     H59319   1.692   9.881   7.331 -0.0776 -1.2294  1.0210
  430MOL0     H59320   1.021   9.920   7.193 -2.1171  2.4913 -0.8611
  430MOL0     H59321   0.866   9.787   7.057  0.0374  0.9515  1.5514
  430MOL0     H59322   0.612   9.361   7.083 -0.8524 -1.2535  0.0466
  430MOL0     H59323   0.475   9.229   6.920  0.1462 -1.3483 -2.8395
  430MOL0     H59324   0.358   8.841   5.618 -0.3666 -1.2001  0.9929
  430MOL0     H59325   0.530   8.707   5.512  2.4111  1.8831 -3.0967
  430MOL0     H59326   0.386   8.374   5.195 -3.3977  3.3007 -2.2099
  430MOL0     H59327   0.314   8.217   5.031 -1.4695  2.1727 -0.0439
  430MOL0     H59328   0.266   8.069   4.838 -0.1796  0.2013  1.1563
  430MOL0     H59329   0.253   8.241   4.780 -0.6165 -0.4082 -1.4758
  430MOL0     H59330   0.311   8.167   4.549 -2.7388 -2.5251 -1.8225
  430MOL0     H59331   0.171   8.100   4.597  0.6036 -1.6794 -0.8815
  430MOL0     H59332   0.418   7.935   4.672 -1.9904 -5.7965  0.9638
  430MOL0     H59333   0.255   7.885   4.634 -1.2843  0.5061 -2.3008
  430MOL0     H59334   0.433   7.846   4.453  0.0716  0.7920 -0.0155
  430MOL0     H59335   0.429   8.015   4.432 -1.1481  1.5032  2.0969
  430MOL0     H59336   0.061   7.967   4.258  0.6627  0.3448 -1.3537
  430MOL0     H59337   0.653   8.308   4.792 -1.5046  3.7793 -1.0595
  430MOL0     H59338   0.748   8.594   4.887  1.9843  1.6628  0.2221
  430MOL0     H59339   0.813   8.541   5.044 -0.5433  1.5549 -1.0250
  430MOL0     H59340   0.842   8.448   4.897 -1.8523 -3.5750  0.7420
  431MOL0     O59341   5.049   9.146   2.898  0.0553 -0.1007  0.4857
  431MOL0     C59342   4.944   9.093   2.866  0.0317 -0.0821 -1.1494
  431MOL0     O59343   4.935   9.005   2.761  0.2183  0.1234 -0.2726
  431MOL0     C59344   5.040   8.965   2.684 -0.5432  0.5277 -1.3639
  431MOL0     C59345   5.146   8.884   2.737  0.0775 -0.9025  0.4416
  431MOL0     C59346   5.262   8.864   2.663  0.8120 -0.0747 -0.7950
  431MOL0     C59347   5.263   8.903   2.532  0.5837  0.6540  0.2479
  431MOL0     O59348   5.354   8.847   2.450  0.1717  0.0767 -0.4304
  431MOL0     C59349   5.377   8.907   2.322 -0.4121  0.4795 -0.4722
  431MOL0     C59350   5.518   8.882   2.273 -0.5802 -0.3474  0.3648
  431MOL0     C59351   5.543   8.935   2.126  0.3728  0.0401 -0.1110
  431MOL0     C59352   5.530   9.087   2.117 -0.0618 -0.0877  0.3678
  431MOL0     C59353   5.581   9.126   1.982 -0.1110 -0.2110  0.0865
  431MOL0     C59354   5.538   9.266   1.926  0.3470  0.0840 -0.1309
  431MOL0     C59355   5.571   9.286   1.776 -0.5231 -0.7965  0.0939
  431MOL0     C59356   5.458   9.234   1.689 -0.4639  1.3179 -0.2702
  431MOL0     N59357   5.354   9.336   1.663  0.2509  0.8147 -0.7270
  431MOL0     C59358   5.367   9.460   1.609 -0.1845 -0.0208  1.0875
  431MOL0     C59359   5.231   9.501   1.597  0.6199 -0.9803  0.0758
  431MOL0     C59360   5.177   9.633   1.558  0.0637 -0.2838 -0.8361
  431MOL0     C59361   5.192   9.740   1.673  0.1495 -0.1874 -0.2817
  431MOL0     C59362   5.340   9.789   1.677  0.3291  0.0870  0.2627
  431MOL0     C59363   5.387   9.858   1.807  0.1593 -0.1956  0.5436
  431MOL0     O59364   5.283   9.937   1.876  0.3068  0.2723  0.1900
  431MOL0     C59365   5.314  10.044   1.957 -0.4469 -0.9950 -0.4960
  431MOL0     C59366   5.445  10.104   1.960 -0.2313 -0.8943 -0.3654
  431MOL0     C59367   5.470  10.216   2.049 -0.8373 -0.5622  0.3059
  431MOL0     C59368   5.609  10.268   2.055  0.3104  0.0928 -0.6978
  431MOL0     C59369   5.361  10.284   2.099  0.3635 -0.6901 -0.4212
  431MOL0     C59370   5.369  10.414   2.167  0.7185 -0.4553  0.0669
  431MOL0     O59371   5.263  10.456   2.239  0.8160 -0.2015 -0.7551
  431MOL0     C59372   5.278  10.582   2.282  0.5357 -0.8653  0.3643
  431MOL0     C59373   5.319  10.607   2.409  0.6317 -0.2950  0.6566
  431MOL0     C59374   5.332  10.735   2.459  0.5233  0.2498  0.3913
  431MOL0     C59375   5.309  10.845   2.382 -0.2912 -0.5956 -0.6845
  431MOL0     O59376   5.314  10.981   2.413 -0.4176  0.1670  0.2155
  431MOL0     C59377   5.319  11.019   2.549  0.0247  0.8283  0.4816
  431MOL0     C59378   5.470  11.060   2.590  0.3863  0.5818 -0.4301
  431MOL0     C59379   5.473  11.088   2.744  0.0109 -0.2248  0.7956
  431MOL0     C59380   5.621  11.125   2.783  0.4964 -0.5656  0.3858
  431MOL0     C59381   5.630  11.126   2.934 -0.4267 -0.3787 -0.8398
  431MOL0     C59382   5.779  11.158   2.973  0.8284  1.1142 -0.2994
  431MOL0     C59383   5.800  11.166   3.128  0.1436  0.4095  0.2728
  431MOL0     C59384   5.945  11.182   3.161  0.3278 -0.4584 -0.1720
  431MOL0    Cl59385   6.042  11.052   3.104 -0.4980 -0.1891  0.0724
  431MOL0     C59386   5.272  10.815   2.247 -0.5961 -0.8425  0.3414
  431MOL0     C59387   5.249  10.687   2.199 -0.1976 -0.0041 -0.4049
  431MOL0     O59388   5.468  10.482   2.143  0.1546  0.4473 -0.1339
  431MOL0     C59389   5.242  10.215   2.109  1.3973 -0.5639  0.0495
  431MOL0     C59390   5.217  10.106   2.036  0.0820  0.3674  0.6661
  431MOL0     N59391   5.150   9.405   1.637  1.0096 -0.0896  0.5408
  431MOL0     N59392   5.220   9.308   1.672 -0.3419 -0.3685 -0.2327
  431MOL0     C59393   5.147   8.968   2.480  0.3925 -0.0519 -0.4640
  431MOL0     C59394   5.037   9.005   2.554  0.7966  0.7779 -0.0710
  431MOL0     C59395   4.825   9.120   2.951 -0.2915 -0.3396 -0.4667
  431MOL0     C59396   4.824   9.215   3.053 -0.4182  0.6104  0.2488
  431MOL0     C59397   4.720   9.245   3.135  0.1595  0.0691 -0.2680
  431MOL0     C59398   4.599   9.185   3.121  0.2275  0.1992  0.7968
  431MOL0     O59399   4.501   9.234   3.208  0.0366  0.0252 -0.6670
  431MOL0     C59400   4.370   9.175   3.209 -0.5203 -0.3909  0.6063
  431MOL0     C59401   4.261   9.281   3.170 -0.1546  0.2260 -0.1437
  431MOL0     C59402   4.268   9.319   3.026 -0.5349 -0.5792  0.1665
  431MOL0     C59403   4.142   9.405   2.987  0.2385 -0.5015  0.4578
  431MOL0     C59404   4.158   9.536   3.032 -0.4129  0.6471 -0.2041
  431MOL0     C59405   4.163   9.649   3.075 -0.1589  0.6749 -0.0729
  431MOL0     C59406   4.590   9.088   3.024  0.1766 -0.5759 -0.0439
  431MOL0     C59407   4.700   9.053   2.934 -0.8318  0.4918 -0.6994
  431MOL0     C59408   4.687   8.931   2.848 -0.5596 -0.1550 -0.3997
  431MOL0     H59409   5.147   8.869   2.844  0.4811  1.5624  0.8506
  431MOL0     H59410   5.340   8.804   2.710 -0.1940 -0.7281  0.0869
  431MOL0     H59411   5.355   9.015   2.327 -0.8568  0.3283  1.2472
  431MOL0     H59412   5.308   8.851   2.258 -0.0762 -1.5634  0.8959
  431MOL0     H59413   5.582   8.929   2.348 -1.7405  0.9416  0.6030
  431MOL0     H59414   5.532   8.774   2.277 -2.5331 -0.7032 -0.7219
  431MOL0     H59415   5.647   8.912   2.099  0.5495 -0.0239  0.6024
  431MOL0     H59416   5.472   8.897   2.053  1.7376  2.0722 -2.6839
  431MOL0     H59417   5.426   9.120   2.123 -0.5228 -1.4697  0.2679
  431MOL0     H59418   5.569   9.142   2.203 -2.3330  1.1386  0.6845
  431MOL0     H59419   5.547   9.046   1.915 -2.0593 -0.1967  0.9987
  431MOL0     H59420   5.690   9.129   1.984  0.0890  0.4460 -3.5265
  431MOL0     H59421   5.430   9.277   1.943  0.1426 -2.8721  1.1221
  431MOL0     H59422   5.588   9.346   1.981 -2.7665  2.7647 -0.8264
  431MOL0     H59423   5.666   9.239   1.752  0.5357  0.8868  0.7904
  431MOL0     H59424   5.588   9.394   1.765 -0.8652 -0.8586 -1.2899
  431MOL0     H59425   5.495   9.194   1.594  1.8495  2.8602 -0.0985
  431MOL0     H59426   5.416   9.143   1.732  3.5567 -1.5610 -1.8303
  431MOL0     H59427   5.461   9.507   1.581  0.5233  0.2180  3.6327
  431MOL0     H59428   5.069   9.635   1.540  0.1147 -0.0750 -1.1215
  431MOL0     H59429   5.218   9.672   1.464  2.8401 -0.1968  0.3035
  431MOL0     H59430   5.127   9.823   1.645  0.9715  0.4620 -0.3094
  431MOL0     H59431   5.162   9.687   1.764  1.7402  1.1916  1.1104
  431MOL0     H59432   5.414   9.718   1.639  2.7208  2.5936 -0.0870
  431MOL0     H59433   5.339   9.861   1.594 -3.0569 -1.8436 -1.6342
  431MOL0     H59434   5.429   9.792   1.884 -0.2534  1.8745  2.6424
  431MOL0     H59435   5.465   9.925   1.769  0.4698 -0.1133  1.2962
  431MOL0     H59436   5.534  10.068   1.910  0.3429  1.3030 -1.0042
  431MOL0     H59437   5.637  10.298   2.156  1.6323 -1.7563 -0.4502
  431MOL0     H59438   5.625  10.349   1.984  0.4585  0.7903  0.1157
  431MOL0     H59439   5.689  10.200   2.023 -0.9979 -1.5683 -0.5543
  431MOL0     H59440   5.339  10.522   2.474 -2.7085 -0.6576  1.3604
  431MOL0     H59441   5.367  10.755   2.560  1.5810 -4.3160  1.1448
  431MOL0     H59442   5.258  11.109   2.557  2.0731  2.3921 -0.6631
  431MOL0     H59443   5.284  10.943   2.620  0.1955 -0.5131 -0.8308
  431MOL0     H59444   5.519  10.963   2.584  0.5216  0.5930  0.4643
  431MOL0     H59445   5.525  11.136   2.535  0.7911  0.7764  0.2380
  431MOL0     H59446   5.433  11.009   2.808 -2.4107  0.3611  0.1102
  431MOL0     H59447   5.406  11.174   2.757 -1.7230 -0.9866 -2.2563
  431MOL0     H59448   5.636  11.226   2.744 -1.5741 -0.1127  0.6114
  431MOL0     H59449   5.693  11.057   2.737 -0.9897 -2.0166  0.0749
  431MOL0     H59450   5.556  11.200   2.966 -1.1318 -0.3687 -2.3814
  431MOL0     H59451   5.605  11.031   2.981  0.4030  0.1404  0.7313
  431MOL0     H59452   5.803  11.250   2.920 -1.6356  2.3887  0.6355
  431MOL0     H59453   5.830  11.070   2.932 -2.0800 -1.3808  0.9546
  431MOL0     H59454   5.745  11.081   3.170 -3.1805  2.1415 -0.2295
  431MOL0     H59455   5.742  11.250   3.166 -2.3518 -0.9196 -0.3775
  431MOL0     H59456   5.952  11.179   3.270 -0.3963 -2.9395 -0.1312
  431MOL0     H59457   5.994  11.271   3.121  1.1660 -0.9583 -0.2792
  431MOL0     H59458   5.260  10.896   2.175  0.0662  0.1637  1.3292
  431MOL0     H59459   5.220  10.680   2.095 -2.0873  1.0432 -0.0079
  431MOL0     H59460   5.155  10.253   2.161  1.7475 -0.2852  0.4382
  431MOL0     H59461   5.116  10.067   2.035 -0.2468  1.1293 -1.6015
  431MOL0     H59462   5.136   8.987   2.374  0.0629  3.0191  0.0364
  431MOL0     H59463   4.947   9.056   2.519  0.3849 -1.4113 -2.5028
  431MOL0     H59464   4.912   9.270   3.087  0.3104 -1.6326  2.2744
  431MOL0     H59465   4.712   9.320   3.213 -1.7488  1.0127 -1.3028
  431MOL0     H59466   4.356   9.092   3.139 -1.7496  2.2311 -2.4896
  431MOL0     H59467   4.347   9.144   3.312  1.9982 -3.7363  0.3175
  431MOL0     H59468   4.261   9.374   3.227 -1.5439  1.6168 -2.2604
  431MOL0     H59469   4.166   9.230   3.186  2.4995 -4.5863  2.6488
  431MOL0     H59470   4.361   9.374   3.008  0.0513 -0.4553  3.1227
  431MOL0     H59471   4.262   9.231   2.961 -4.0290 -0.8236  0.6511
  431MOL0     H59472   4.053   9.367   3.039  0.1202 -0.4830  0.2705
  431MOL0     H59473   4.132   9.384   2.880 -1.4692 -0.5539  0.5972
  431MOL0     H59474   4.175   9.752   3.103  0.3491  0.5103  0.3251
  431MOL0     H59475   4.495   9.041   3.001 -0.3875  1.0980 -1.4378
  431MOL0     H59476   4.585   8.892   2.855 -0.2050 -0.9811  0.3585
  431MOL0     H59477   4.704   8.953   2.742 -2.1268 -2.1630 -1.1254
  431MOL0     H59478   4.757   8.851   2.873 -2.9025 -1.8958  1.0060
  432MOL0     O59479  10.603   2.686   5.667  0.9352  0.2171  0.4056
  432MOL0     C59480  10.510   2.615   5.723 -0.3540  0.0906  0.4936
  432MOL0     O59481  10.500   2.576   5.853  0.5214 -0.3057 -0.0368
  432MOL0     C59482  10.595   2.620   5.935 -0.9548  0.6132 -0.2617
  432MOL0     C59483  10.606   2.755   5.959 -0.5369 -0.2259  0.1288
  432MOL0     C59484  10.703   2.821   6.034 -0.3210 -0.2853  0.7736
  432MOL0     C59485  10.801   2.740   6.095 -0.5398  0.3249 -0.1989
  432MOL0     O59486  10.886   2.796   6.187  0.3504 -0.2429 -0.0355
  432MOL0     C59487  10.973   2.722   6.266 -1.4764  0.3223 -0.2699
  432MOL0     C59488  11.073   2.815   6.343 -0.2736 -0.7620 -0.6373
  432MOL0     C59489  11.162   2.740   6.440 -0.2359  0.0795 -0.4094
  432MOL0     C59490  11.252   2.631   6.375  0.1332 -0.1502 -0.0772
  432MOL0     C59491  11.343   2.562   6.483  0.8150 -0.5010  1.1501
  432MOL0     C59492  11.449   2.645   6.534 -0.1404  0.2620 -0.0370
  432MOL0     C59493  11.574   2.566   6.574 -1.0621 -0.1025  0.9672
  432MOL0     C59494  11.706   2.653   6.594  0.0605 -0.0579  0.1072
  432MOL0     N59495  11.681   2.765   6.691 -0.5543  0.7184  0.0283
  432MOL0     C59496  11.618   2.749   6.813 -0.3936 -0.3004  1.1411
  432MOL0     C59497  11.653   2.867   6.877  0.5702  0.4879 -0.0503
  432MOL0     C59498  11.616   2.919   7.012 -1.0248  0.1326 -0.0750
  432MOL0     C59499  11.738   2.970   7.090  0.4235 -0.5989  0.4888
  432MOL0     C59500  11.857   2.867   7.088  0.3604 -0.3571  0.3546
  432MOL0     C59501  11.945   2.885   7.208 -0.0463 -0.0227 -0.5652
  432MOL0     O59502  11.877   2.849   7.331  0.6540 -0.3152  0.1760
  432MOL0     C59503  11.954   2.842   7.449  0.5754  0.8360 -0.3763
  432MOL0     C59504  11.916   2.751   7.546 -0.1130  0.3569  0.1010
  432MOL0     C59505  11.987   2.746   7.668  0.0966  0.8796 -0.4329
  432MOL0     C59506  11.945   2.640   7.763  1.4870  0.1499 -0.3215
  432MOL0     C59507  12.096   2.832   7.695 -0.4479  0.3536  0.6388
  432MOL0     C59508  12.179   2.831   7.819 -0.1682 -1.1371  0.4589
  432MOL0     O59509  12.308   2.852   7.809 -0.2213  0.4292  0.5909
  432MOL0     C59510  12.389   2.826   7.915 -0.1102  0.1666 -0.6842
  432MOL0     C59511  12.382   2.894   8.033 -0.2900  0.4391  0.1118
  432MOL0     C59512  12.459   2.860   8.142 -0.2119  0.0874 -0.5388
  432MOL0     C59513  12.553   2.760   8.134 -0.5421  0.1827 -0.8946
  432MOL0     O59514  12.629   2.751   8.251 -0.1073  0.1768 -0.2719
  432MOL0     C59515  12.765   2.691   8.235 -0.6438 -0.3312 -1.0526
  432MOL0     C59516  12.831   2.687   8.368  0.7378 -0.0689 -0.8408
  432MOL0     C59517  12.968   2.638   8.381 -0.0583  0.0195 -0.1857
  432MOL0     C59518  13.074   2.751   8.364 -1.0204  0.6669 -0.1203
  432MOL0     C59519  13.071   2.874   8.455  0.9557  0.0348  0.1809
  432MOL0     C59520  13.090   2.839   8.606  0.3627  0.1409  0.2270
  432MOL0     C59521  13.052   2.961   8.685  0.2353  0.3284  0.1024
  432MOL0     C59522  13.078   2.934   8.831  0.2545 -1.3421 -0.6805
  432MOL0    Cl59523  12.953   2.817   8.898 -0.1364 -0.2984  0.5442
  432MOL0     C59524  12.564   2.693   8.012 -1.0556  0.2180 -0.3470
  432MOL0     C59525  12.483   2.723   7.906  0.6000 -0.8685  0.3616
  432MOL0     O59526  12.116   2.812   7.920  0.4256 -0.3933  0.2251
  432MOL0     C59527  12.128   2.925   7.602  0.2926 -0.9784  0.7629
  432MOL0     C59528  12.054   2.932   7.480  0.0507 -0.1008 -0.9169
  432MOL0     N59529  11.721   2.948   6.791  0.0277  1.6361 -0.3269
  432MOL0     N59530  11.746   2.887   6.683 -0.0232  0.3916 -0.3390
  432MOL0     C59531  10.792   2.602   6.076  0.1199  0.4259 -0.1346
  432MOL0     C59532  10.697   2.539   5.994 -0.1833 -0.7414  0.4564
  432MOL0     C59533  10.393   2.579   5.635  0.2645  0.5324 -0.7847
  432MOL0     C59534  10.288   2.514   5.695  0.0419 -0.4897 -0.5396
  432MOL0     C59535  10.167   2.487   5.631 -0.1740  0.0745  0.4874
  432MOL0     C59536  10.153   2.517   5.492 -0.6327  0.8572 -1.5168
  432MOL0     O59537  10.031   2.481   5.442  0.2466 -0.0794 -0.4619
  432MOL0     C59538  10.014   2.495   5.301  0.9724  0.0042  0.0128
  432MOL0     C59539   9.878   2.443   5.271 -0.0382  1.6655 -0.0033
  432MOL0     C59540   9.860   2.405   5.123 -0.4861 -0.1792 -0.6748
  432MOL0     C59541   9.723   2.353   5.067 -1.0155 -0.8945 -0.8370
  432MOL0     C59542   9.617   2.449   5.102 -0.8604 -0.1836 -0.0724
  432MOL0     C59543   9.548   2.539   5.143  0.0128 -0.1650 -0.4518
  432MOL0     C59544  10.255   2.582   5.424 -1.1880  0.2990 -0.4369
  432MOL0     C59545  10.374   2.617   5.494 -0.0333 -0.2257 -0.4106
  432MOL0     C59546  10.483   2.682   5.410 -0.1191 -0.0198  0.5784
  432MOL0     H59547  10.530   2.812   5.906 -2.8982 -2.4398  0.9320
  432MOL0     H59548  10.681   2.926   6.046  0.6342 -0.1937  1.8721
  432MOL0     H59549  11.029   2.674   6.185 -2.8364  0.3239 -1.2317
  432MOL0     H59550  10.923   2.651   6.332 -0.2795  0.5480  0.9304
  432MOL0     H59551  11.126   2.869   6.264 -1.0342  1.6475  0.4054
  432MOL0     H59552  11.018   2.888   6.403  0.9830  1.8663 -2.4777
  432MOL0     H59553  11.221   2.815   6.493  1.1671  0.2585 -2.1189
  432MOL0     H59554  11.106   2.692   6.521  1.4752  0.1829  0.8870
  432MOL0     H59555  11.194   2.559   6.316  2.8694  1.1247 -4.8980
  432MOL0     H59556  11.318   2.682   6.304  2.0595  2.5426  3.3514
  432MOL0     H59557  11.388   2.476   6.433  4.2914  1.2662  0.9133
  432MOL0     H59558  11.280   2.529   6.566  0.0561  0.0063  0.7792
  432MOL0     H59559  11.479   2.723   6.464  0.3193  0.8221  0.7682
  432MOL0     H59560  11.409   2.694   6.623 -1.4977  0.1660 -0.5776
  432MOL0     H59561  11.601   2.488   6.502  1.3503  3.8827 -3.0086
  432MOL0     H59562  11.568   2.523   6.675  0.2316 -3.0071 -0.0842
  432MOL0     H59563  11.791   2.593   6.624  0.1971  0.4031  0.6704
  432MOL0     H59564  11.744   2.689   6.498  1.2892  1.1883  1.0353
  432MOL0     H59565  11.568   2.664   6.857 -1.1264 -0.8388 -0.6480
  432MOL0     H59566  11.572   2.841   7.075  0.8656 -1.4272 -0.5813
  432MOL0     H59567  11.540   2.998   7.017  0.9824  2.1011  2.8536
  432MOL0     H59568  11.771   3.063   7.041 -3.4174  0.9865  0.5802
  432MOL0     H59569  11.700   2.990   7.190 -2.8102  5.0356 -1.3790
  432MOL0     H59570  11.828   2.763   7.068  1.6343 -0.9533  1.4451
  432MOL0     H59571  11.918   2.894   7.001  0.4242  1.3490  0.9046
  432MOL0     H59572  12.036   2.827   7.188  0.0372 -0.8680  1.9437
  432MOL0     H59573  11.978   2.989   7.218 -0.7814  0.1341  0.3358
  432MOL0     H59574  11.846   2.671   7.524 -1.1340  0.5758  2.3184
  432MOL0     H59575  11.862   2.679   7.823  0.7610 -0.6897 -0.7423
  432MOL0     H59576  12.020   2.595   7.829  1.2802 -0.6428 -0.6125
  432MOL0     H59577  11.905   2.552   7.711  0.6204  1.1980 -1.4870
  432MOL0     H59578  12.313   2.978   8.045 -3.9159 -2.4699  1.6096
  432MOL0     H59579  12.433   2.922   8.228 -1.3547 -0.5728 -0.3932
  432MOL0     H59580  12.745   2.588   8.203 -2.6630 -0.3013 -0.0744
  432MOL0     H59581  12.826   2.741   8.160 -2.0806 -0.8708 -2.6488
  432MOL0     H59582  12.818   2.785   8.416  1.4062 -2.0164  3.7860
  432MOL0     H59583  12.763   2.627   8.428  0.0772  0.4017 -1.1016
  432MOL0     H59584  12.978   2.557   8.307 -0.4780  0.8771 -1.2081
  432MOL0     H59585  12.973   2.584   8.476 -0.7222  0.2483 -0.0185
  432MOL0     H59586  13.087   2.783   8.261  2.2515  3.2558  0.9273
  432MOL0     H59587  13.166   2.702   8.398 -1.7287  0.3916  1.5290
  432MOL0     H59588  13.146   2.947   8.422  0.5679 -0.0070 -0.8042
  432MOL0     H59589  12.981   2.935   8.440  1.5552  1.3312  1.5003
  432MOL0     H59590  13.196   2.818   8.625  0.5752  2.3835  1.8996
  432MOL0     H59591  13.034   2.754   8.646 -0.3781  0.6228  0.2244
  432MOL0     H59592  12.950   2.980   8.652 -0.5382 -1.8208  1.0124
  432MOL0     H59593  13.116   3.041   8.648  1.3839  0.3247  1.9156
  432MOL0     H59594  13.069   3.031   8.879  3.2237 -0.7086 -1.2325
  432MOL0     H59595  13.181   2.900   8.842  1.2631  1.0297 -2.0517
  432MOL0     H59596  12.649   2.627   7.999 -1.3472 -0.2680  0.1865
  432MOL0     H59597  12.483   2.668   7.813 -3.9669  1.9857 -1.6889
  432MOL0     H59598  12.200   3.004   7.623  0.4042 -1.4181  2.0970
  432MOL0     H59599  12.072   3.005   7.402 -0.6063  1.9469  0.7438
  432MOL0     H59600  10.862   2.543   6.136  0.5412  0.8484 -0.2065
  432MOL0     H59601  10.691   2.432   5.981  0.8698 -1.0811  2.4553
  432MOL0     H59602  10.292   2.489   5.801  2.1456  1.1940 -0.1470
  432MOL0     H59603  10.083   2.445   5.684  0.1361 -2.2286 -0.7417
  432MOL0     H59604  10.015   2.598   5.264  0.2778  0.0652  0.1444
  432MOL0     H59605  10.085   2.438   5.240 -1.8287 -1.7100 -1.9026
  432MOL0     H59606   9.800   2.515   5.297  0.2307  3.0942 -2.8409
  432MOL0     H59607   9.862   2.349   5.325  0.2919  0.4638 -1.8999
  432MOL0     H59608   9.882   2.497   5.068  0.8881 -1.2202 -1.9291
  432MOL0     H59609   9.937   2.333   5.098 -1.2642 -2.7902  3.5268
  432MOL0     H59610   9.712   2.254   5.111 -1.0462 -0.0882  1.0893
  432MOL0     H59611   9.734   2.355   4.958 -0.1247  2.3271 -0.8102
  432MOL0     H59612   9.485   2.613   5.187  1.0781  1.2611 -1.2346
  432MOL0     H59613  10.236   2.615   5.322 -1.2436  2.7321  0.2943
  432MOL0     H59614  10.451   2.709   5.310  0.8569 -0.9746 -0.0249
  432MOL0     H59615  10.522   2.769   5.464 -1.2698  0.7230  0.2469
  432MOL0     H59616  10.573   2.619   5.400  1.2539  1.8146  0.8116
  433MOL0     O59617   7.102   2.291   9.745  0.3524 -0.4498  0.1111
  433MOL0     C59618   6.994   2.283   9.690 -0.2491  0.1121 -1.1872
  433MOL0     O59619   6.973   2.318   9.556  0.2252  0.1241  0.3458
  433MOL0     C59620   7.069   2.378   9.482  1.0767  0.1014  0.4004
  433MOL0     C59621   7.164   2.303   9.406  0.4633 -0.5280 -0.3398
  433MOL0     C59622   7.240   2.379   9.315 -0.0859 -0.0419 -0.3436
  433MOL0     C59623   7.243   2.521   9.320 -0.3728 -0.7382 -0.5752
  433MOL0     O59624   7.291   2.601   9.225 -0.1385 -0.6770  0.5551
  433MOL0     C59625   7.253   2.567   9.091 -0.2757 -0.4872  0.9871
  433MOL0     C59626   7.269   2.687   9.004  0.7197  0.9091  0.0885
  433MOL0     C59627   7.398   2.771   9.023  0.1486 -0.8358  0.0702
  433MOL0     C59628   7.431   2.880   8.912 -0.0339  0.4804  0.2865
  433MOL0     C59629   7.533   2.985   8.944 -0.3602 -0.3466  0.0171
  433MOL0     C59630   7.586   3.050   8.826 -1.4159  0.4885 -0.6856
  433MOL0     C59631   7.478   3.136   8.757 -0.2887 -0.3567 -0.0211
  433MOL0     C59632   7.434   3.267   8.838 -0.6950  0.1176  0.2066
  433MOL0     N59633   7.317   3.243   8.928  0.1365 -0.2207 -0.0310
  433MOL0     C59634   7.187   3.189   8.897 -1.0336  0.0471 -0.0629
  433MOL0     C59635   7.124   3.188   9.014  0.6728 -0.4468 -0.3749
  433MOL0     C59636   6.969   3.180   9.038  0.6791 -0.3335  0.1997
  433MOL0     C59637   6.928   3.034   9.071  0.3374  0.0092 -0.2305
  433MOL0     C59638   6.957   3.002   9.217  0.4633 -0.2799  0.6264
  433MOL0     C59639   6.889   2.872   9.270 -0.9150 -0.6227  0.5301
  433MOL0     O59640   6.953   2.746   9.230 -0.0704  0.5398 -0.6523
  433MOL0     C59641   6.876   2.637   9.225 -0.1383 -0.5409  0.0683
  433MOL0     C59642   6.897   2.553   9.119 -0.5480 -0.0844 -0.1082
  433MOL0     C59643   6.822   2.431   9.125 -0.4815 -0.8635 -0.2170
  433MOL0     C59644   6.846   2.353   9.003 -0.6672 -0.0237 -0.3538
  433MOL0     C59645   6.724   2.401   9.214  0.0690 -1.6975 -0.1085
  433MOL0     C59646   6.654   2.271   9.219  0.6564  0.3771  0.6938
  433MOL0     O59647   6.563   2.260   9.311 -0.0065 -0.7677  0.2986
  433MOL0     C59648   6.432   2.211   9.286 -0.1075  0.7185 -0.0868
  433MOL0     C59649   6.370   2.222   9.162 -0.9427 -0.2201  0.1857
  433MOL0     C59650   6.238   2.179   9.144 -0.4601 -0.1522 -0.3907
  433MOL0     C59651   6.158   2.142   9.252  0.3654  0.0563  0.3991
  433MOL0     O59652   6.026   2.107   9.255 -0.7224  0.1407 -0.6048
  433MOL0     C59653   5.969   2.032   9.148  0.8365 -0.3874 -0.7026
  433MOL0     C59654   6.016   1.895   9.145 -0.1470  0.2630 -0.1891
  433MOL0     C59655   5.949   1.803   9.256 -0.6745  0.0078 -0.0496
  433MOL0     C59656   6.014   1.663   9.255  0.1876  0.1322  0.2317
  433MOL0     C59657   5.981   1.586   9.376 -1.0173 -0.1538 -0.7466
  433MOL0     C59658   6.024   1.441   9.362 -0.6237  0.2655 -0.3742
  433MOL0     C59659   6.008   1.356   9.489 -0.0549  0.4038  0.6682
  433MOL0     C59660   5.971   1.211   9.463 -0.0752 -0.2963  0.4979
  433MOL0    Cl59661   5.966   1.111   9.608 -0.3488  0.1155 -0.4005
  433MOL0     C59662   6.220   2.136   9.380 -0.5351 -0.8392 -0.1437
  433MOL0     C59663   6.358   2.169   9.397 -0.4785 -0.6508 -0.1656
  433MOL0     O59664   6.683   2.179   9.136  0.1667  0.2117 -0.3205
  433MOL0     C59665   6.683   2.500   9.316 -0.0432  0.0653 -0.6174
  433MOL0     C59666   6.770   2.607   9.324 -0.8842 -0.2848 -0.3712
  433MOL0     N59667   7.205   3.238   9.118  0.4102  0.0240  0.1395
  433MOL0     N59668   7.319   3.267   9.066  0.3403  0.4816 -0.3102
  433MOL0     C59669   7.165   2.585   9.414  0.3613 -0.5843  0.3798
  433MOL0     C59670   7.066   2.513   9.470 -0.3192 -0.2608 -0.2341
  433MOL0     C59671   6.888   2.225   9.774  0.1105 -0.2212 -0.1781
  433MOL0     C59672   6.916   2.195   9.917 -0.3369 -0.0995 -0.5698
  433MOL0     C59673   6.822   2.151  10.002 -0.6109  1.1166  0.5513
  433MOL0     C59674   6.688   2.135   9.969  0.3879  0.2269  0.6353
  433MOL0     O59675   6.585   2.098  10.064 -1.1482  0.2653 -0.6666
  433MOL0     C59676   6.455   2.056  10.017 -0.5545  0.4509  0.3200
  433MOL0     C59677   6.368   1.985  10.124  0.6332 -0.3487  0.3321
  433MOL0     C59678   6.322   2.071  10.237 -0.0329  0.2087  0.1337
  433MOL0     C59679   6.235   2.007  10.344  0.7081 -0.5731  0.6998
  433MOL0     C59680   6.101   1.954  10.298 -0.2765 -0.1863 -1.4804
  433MOL0     C59681   6.003   1.900  10.256 -0.1992  0.2287  0.5615
  433MOL0     C59682   6.660   2.168   9.835  0.8314 -0.7092  0.1977
  433MOL0     C59683   6.750   2.217   9.737  1.3107  0.6501 -0.5341
  433MOL0     C59684   6.691   2.273   9.608 -0.2301  0.3803 -0.5445
  433MOL0     H59685   7.168   2.194   9.404 -0.7764 -0.5908 -0.5599
  433MOL0     H59686   7.302   2.329   9.241 -2.4348 -0.9492 -1.8040
  433MOL0     H59687   7.150   2.532   9.082  0.2876 -1.8656 -0.8195
  433MOL0     H59688   7.305   2.480   9.050  0.5600  0.7440 -0.7515
  433MOL0     H59689   7.261   2.654   8.900  3.2970 -0.2737  0.1921
  433MOL0     H59690   7.182   2.752   9.017  2.2458  3.1171 -0.1415
  433MOL0     H59691   7.377   2.831   9.111 -0.1505  1.8331 -1.7137
  433MOL0     H59692   7.484   2.703   9.028  1.6425  0.8046 -1.7479
  433MOL0     H59693   7.479   2.821   8.833  0.1182  0.5585  0.3191
  433MOL0     H59694   7.340   2.926   8.873 -0.7356  0.7002  2.1004
  433MOL0     H59695   7.615   2.931   8.993 -0.5718 -0.1895  0.5573
  433MOL0     H59696   7.500   3.062   9.014 -1.7169 -0.6861 -0.2148
  433MOL0     H59697   7.676   3.107   8.850 -1.8150 -0.4585  4.1762
  433MOL0     H59698   7.624   2.979   8.753  0.1956 -0.1626  0.7199
  433MOL0     H59699   7.396   3.076   8.719 -1.9210 -0.9172  3.8840
  433MOL0     H59700   7.531   3.177   8.670 -0.8250  4.1483  1.4907
  433MOL0     H59701   7.517   3.313   8.893 -1.5444 -0.5813  2.1795
  433MOL0     H59702   7.405   3.343   8.766 -0.5319  1.5965  1.6538
  433MOL0     H59703   7.156   3.167   8.795 -0.6089  3.2679 -1.0051
  433MOL0     H59704   6.923   3.208   8.942 -0.3876 -2.8943 -0.1148
  433MOL0     H59705   6.939   3.250   9.117 -1.9930 -0.0201 -0.9660
  433MOL0     H59706   6.822   3.021   9.050  0.1888 -1.5322  1.2890
  433MOL0     H59707   6.984   2.965   9.007  2.1355  0.7002  0.5250
  433MOL0     H59708   7.065   2.992   9.232  0.2849 -1.4119  1.2980
  433MOL0     H59709   6.923   3.084   9.281 -1.7106 -0.3400 -0.3773
  433MOL0     H59710   6.903   2.870   9.379  0.7218 -2.4131  0.3433
  433MOL0     H59711   6.783   2.880   9.245 -0.4496 -1.3993 -1.9708
  433MOL0     H59712   6.964   2.566   9.034 -1.9525 -2.1567 -1.6337
  433MOL0     H59713   6.936   2.389   8.952 -1.6924  0.0600 -2.2064
  433MOL0     H59714   6.753   2.347   8.945 -0.1323  0.2385 -1.2437
  433MOL0     H59715   6.879   2.253   9.034 -1.6811 -0.2190  0.1411
  433MOL0     H59716   6.421   2.263   9.076 -0.5526 -0.8612  0.1028
  433MOL0     H59717   6.193   2.203   9.048  0.1503  1.6484 -0.2575
  433MOL0     H59718   5.860   2.027   9.157  0.8481 -2.5945 -1.2194
  433MOL0     H59719   5.988   2.080   9.052 -0.5847 -1.5142 -1.5828
  433MOL0     H59720   5.987   1.855   9.047  2.0385 -1.8092 -0.0775
  433MOL0     H59721   6.125   1.898   9.146 -0.1448  1.2142  2.1489
  433MOL0     H59722   5.840   1.804   9.241 -0.6022 -0.9392 -0.7615
  433MOL0     H59723   5.961   1.832   9.361 -1.1487 -1.4200  0.4298
  433MOL0     H59724   6.123   1.661   9.256  0.2394 -3.2714  2.3256
  433MOL0     H59725   5.972   1.616   9.166  2.3483  1.0806 -1.3944
  433MOL0     H59726   6.037   1.621   9.464  0.1012 -0.0843 -1.4596
  433MOL0     H59727   5.876   1.578   9.407 -1.7587  1.4949 -2.6122
  433MOL0     H59728   6.130   1.433   9.336 -0.5228 -1.4913  0.3982
  433MOL0     H59729   5.963   1.394   9.285  1.2344 -1.3944 -0.9194
  433MOL0     H59730   5.928   1.391   9.555  0.0380  1.5442  0.2018
  433MOL0     H59731   6.105   1.362   9.540  1.5428  1.9586 -2.3074
  433MOL0     H59732   6.039   1.167   9.389  2.0242 -2.0681  3.3043
  433MOL0     H59733   5.875   1.211   9.411 -0.5548  2.5250  1.2085
  433MOL0     H59734   6.162   2.103   9.465  0.7263 -1.0433  0.6597
  433MOL0     H59735   6.404   2.155   9.494 -2.1221 -2.0391  0.4684
  433MOL0     H59736   6.615   2.481   9.399 -0.8850 -0.5284 -1.4208
  433MOL0     H59737   6.762   2.670   9.413  1.6051 -0.3906 -0.0066
  433MOL0     H59738   7.141   2.691   9.413  0.7011 -0.4850 -1.5464
  433MOL0     H59739   6.992   2.571   9.525 -0.2432  1.0223 -1.4454
  433MOL0     H59740   7.009   2.214   9.970 -2.0949 -1.3132  3.2614
  433MOL0     H59741   6.848   2.136  10.106  0.3625  2.5676  0.5373
  433MOL0     H59742   6.396   2.141   9.980  0.4240  1.4760  1.0193
  433MOL0     H59743   6.484   1.982   9.942 -0.6046  1.0335 -0.2887
  433MOL0     H59744   6.422   1.894  10.152  2.9500  1.1927  1.1364
  433MOL0     H59745   6.279   1.956  10.067 -0.8076  1.1897  1.7020
  433MOL0     H59746   6.405   2.102  10.300 -0.1809 -2.5817  1.8664
  433MOL0     H59747   6.273   2.162  10.200 -0.2659 -0.3247 -0.8898
  433MOL0     H59748   6.219   2.072  10.431 -2.2665 -0.8430  0.4622
  433MOL0     H59749   6.282   1.913  10.372 -0.9575 -1.2785  1.2645
  433MOL0     H59750   5.926   1.843  10.209  1.6152 -2.8556  1.0763
  433MOL0     H59751   6.554   2.162   9.814  0.9963 -0.4997 -0.7319
  433MOL0     H59752   6.718   2.379   9.609  0.5424  0.1857  0.0211
  433MOL0     H59753   6.748   2.227   9.526  2.7126  0.4439  1.3483
  433MOL0     H59754   6.583   2.264   9.595 -0.7487  4.0665  0.2183
  434MOL0     O59755   8.357   8.303  10.595 -0.3960  0.4689  0.1100
  434MOL0     C59756   8.347   8.194  10.652  0.5689  0.2611  0.4119
  434MOL0     O59757   8.221   8.126  10.684  0.0670 -0.2610 -0.4578
  434MOL0     C59758   8.102   8.174  10.629  0.1569  0.1257  0.1533
  434MOL0     C59759   8.074   8.137  10.503 -0.2034 -0.3416 -0.2111
  434MOL0     C59760   7.956   8.176  10.449 -0.2381 -0.2243  0.0597
  434MOL0     C59761   7.869   8.260  10.514  0.9111  0.0277  0.1012
  434MOL0     O59762   7.738   8.285  10.471  0.7926 -0.6866 -0.3196
  434MOL0     C59763   7.705   8.272  10.325 -0.3034  0.2311  0.5538
  434MOL0     C59764   7.762   8.391  10.241  0.4223 -1.1997 -0.2812
  434MOL0     C59765   7.770   8.359  10.089  0.2494  0.3629 -0.3460
  434MOL0     C59766   7.783   8.493  10.007  0.2125  0.8766 -1.3003
  434MOL0     C59767   7.665   8.583  10.027 -0.6834  0.5786  0.2958
  434MOL0     C59768   7.691   8.697   9.919 -0.0511 -0.4699  0.5194
  434MOL0     C59769   7.601   8.812   9.927 -0.1691 -0.1684  0.3996
  434MOL0     C59770   7.571   8.875  10.062 -0.0114  1.0224  0.2359
  434MOL0     N59771   7.695   8.942  10.118  0.1838 -0.1202  0.5950
  434MOL0     C59772   7.770   9.047  10.073  0.3109  0.1991 -0.1941
  434MOL0     C59773   7.855   9.089  10.172  0.1127  0.1619  0.0738
  434MOL0     C59774   7.956   9.196  10.169  0.4836  0.1124 -0.0544
  434MOL0     C59775   7.935   9.293  10.284 -0.3127 -0.1517 -0.8242
  434MOL0     C59776   8.021   9.416  10.243  0.1935 -0.7162  0.1009
  434MOL0     C59777   8.037   9.518  10.352 -0.1847  0.4597  0.8077
  434MOL0     O59778   8.113   9.630  10.307 -0.2063  0.1329 -0.0367
  434MOL0     C59779   8.247   9.632  10.348 -0.8992 -1.0219 -0.5309
  434MOL0     C59780   8.336   9.615  10.245  0.6986 -0.4517 -0.2739
  434MOL0     C59781   8.470   9.621  10.266 -0.4261 -0.0488  0.1361
  434MOL0     C59782   8.550   9.614  10.137 -0.6093 -0.3962  0.2816
  434MOL0     C59783   8.523   9.646  10.400  0.1635  0.4157  0.4755
  434MOL0     C59784   8.660   9.679  10.432  1.0267 -0.1741 -0.1179
  434MOL0     O59785   8.686   9.708  10.566 -0.2453  0.5319  0.6048
  434MOL0     C59786   8.807   9.743  10.617 -0.4884  0.2160  0.4073
  434MOL0     C59787   8.849   9.704  10.747  0.7851 -0.0975  0.7736
  434MOL0     C59788   8.959   9.755  10.807 -0.2360 -1.6619  0.1694
  434MOL0     C59789   9.023   9.866  10.745  0.4584 -0.0024  0.5764
  434MOL0     O59790   9.136   9.923  10.806 -0.1032 -0.2078  0.2781
  434MOL0     C59791   9.195   9.878  10.931 -0.1522  0.4049 -0.3371
  434MOL0     C59792   9.312   9.982  10.980 -0.2677  0.1635  0.1858
  434MOL0     C59793   9.438  10.003  10.886  0.3773  0.2132 -0.0354
  434MOL0     C59794   9.558  10.076  10.959 -0.8981  0.9258 -0.1232
  434MOL0     C59795   9.630  10.170  10.860 -0.2971 -0.0604 -0.9297
  434MOL0     C59796   9.761  10.207  10.931 -0.1153  0.0005  0.5606
  434MOL0     C59797   9.842  10.294  10.813  0.2269  0.3624 -0.8262
  434MOL0     C59798   9.965  10.364  10.881  0.2798  0.0554  0.5327
  434MOL0    Cl59799  10.053  10.240  10.974 -0.0934 -0.3341  0.2088
  434MOL0     C59800   8.977   9.911  10.622 -0.9238 -0.0135  0.1214
  434MOL0     C59801   8.871   9.851  10.556  0.7103  0.6322  0.2271
  434MOL0     O59802   8.741   9.654  10.345  0.3597 -0.1699 -0.6774
  434MOL0     C59803   8.431   9.645  10.506 -0.0004  0.9218 -1.2486
  434MOL0     C59804   8.295   9.644  10.475 -0.6094 -0.0329 -0.3247
  434MOL0     N59805   7.815   9.011  10.283  0.8486 -0.3040 -0.4312
  434MOL0     N59806   7.734   8.911  10.245  0.1222 -0.0382 -0.1387
  434MOL0     C59807   7.888   8.292  10.640  0.2453  0.0529  0.4472
  434MOL0     C59808   7.999   8.240  10.704  0.6687 -0.0129 -0.4407
  434MOL0     C59809   8.479   8.127  10.679  0.0932 -0.0660  0.4722
  434MOL0     C59810   8.491   7.984  10.687  0.5960 -1.1971 -0.2443
  434MOL0     C59811   8.612   7.916  10.707  0.3394 -0.3052  0.1756
  434MOL0     C59812   8.727   7.984  10.731  0.5787  0.3715  0.1204
  434MOL0     O59813   8.850   7.920  10.756  0.5871  0.3620  0.0372
  434MOL0     C59814   8.848   7.783  10.802  0.4348  0.6333 -0.3994
  434MOL0     C59815   8.989   7.749  10.831 -0.7957 -0.0023  0.0442
  434MOL0     C59816   8.996   7.599  10.845 -0.7020 -0.5458  0.6665
  434MOL0     C59817   9.149   7.549  10.845  0.1093  0.0916  0.6179
  434MOL0     C59818   9.223   7.587  10.955  0.1775 -0.0469 -0.3140
  434MOL0     C59819   9.297   7.616  11.047 -1.1410  0.6476  0.4677
  434MOL0     C59820   8.716   8.126  10.729 -0.3035  0.5022  0.0803
  434MOL0     C59821   8.603   8.202  10.695  0.5734  0.1394  0.0827
  434MOL0     C59822   8.620   8.349  10.708  0.1809  0.5659  0.6911
  434MOL0     H59823   8.148   8.077  10.452 -1.8777  0.2061 -3.6326
  434MOL0     H59824   7.932   8.158  10.345 -0.3917 -0.9242  0.2108
  434MOL0     H59825   7.597   8.287  10.312 -0.4557 -0.5364  0.8950
  434MOL0     H59826   7.739   8.177  10.283  1.0113  0.8381  0.2142
  434MOL0     H59827   7.697   8.476  10.265  1.0611 -0.5886 -0.6487
  434MOL0     H59828   7.860   8.423  10.279  0.8859 -2.0160 -0.7529
  434MOL0     H59829   7.854   8.292  10.068  2.3315  2.9390 -0.9275
  434MOL0     H59830   7.685   8.301  10.054 -0.0750  1.9666 -2.4362
  434MOL0     H59831   7.876   8.547  10.028 -0.9703  2.1037  1.1682
  434MOL0     H59832   7.785   8.464   9.902 -0.3145 -0.7971 -0.8707
  434MOL0     H59833   7.680   8.620  10.129 -1.8540 -0.0762  0.7250
  434MOL0     H59834   7.568   8.533  10.018 -0.7129  0.5759  0.5984
  434MOL0     H59835   7.790   8.743   9.914 -1.4904  2.7512 -2.8834
  434MOL0     H59836   7.671   8.655   9.820  0.2128  1.5681 -0.4501
  434MOL0     H59837   7.504   8.780   9.889  0.8727 -2.0735 -0.8183
  434MOL0     H59838   7.642   8.891   9.863 -1.6435  0.5475  0.2975
  434MOL0     H59839   7.488   8.942  10.038 -2.3333 -1.9696 -0.6877
  434MOL0     H59840   7.537   8.802  10.136 -0.5173  0.1806 -0.7959
  434MOL0     H59841   7.759   9.085   9.971 -0.7046 -2.8404 -1.3175
  434MOL0     H59842   7.966   9.245  10.072  3.3198  1.0730  0.6337
  434MOL0     H59843   8.050   9.143  10.185  2.3300  1.9012 -3.9150
  434MOL0     H59844   7.832   9.328  10.292 -0.1983 -0.0071  0.1525
  434MOL0     H59845   7.969   9.251  10.380 -0.8659  0.4280 -0.3687
  434MOL0     H59846   8.126   9.393  10.222  1.0317  2.2678  0.4425
  434MOL0     H59847   7.968   9.457  10.157 -4.0752 -2.1715  1.7550
  434MOL0     H59848   7.942   9.562  10.383 -1.5229 -0.2723 -1.9182
  434MOL0     H59849   8.086   9.458  10.429 -0.6989 -2.4864 -1.0187
  434MOL0     H59850   8.302   9.607  10.142 -0.5001  0.4033  0.0330
  434MOL0     H59851   8.629   9.539  10.135 -1.2656 -1.1072 -1.2353
  434MOL0     H59852   8.595   9.713  10.127 -0.3547 -0.6243 -1.0082
  434MOL0     H59853   8.486   9.608  10.048  0.0212 -0.1780 -0.1887
  434MOL0     H59854   8.782   9.636  10.798  1.5800 -0.4806  1.3395
  434MOL0     H59855   8.983   9.714  10.904 -0.0983 -1.6530  0.1396
  434MOL0     H59856   9.127   9.856  11.014  0.1533 -1.9268 -0.6253
  434MOL0     H59857   9.245   9.782  10.916  2.7598  1.4928  1.5570
  434MOL0     H59858   9.257  10.075  10.990  0.6600  0.5613  2.2118
  434MOL0     H59859   9.349   9.960  11.081 -1.1423  3.9066  1.4682
  434MOL0     H59860   9.406  10.071  10.806 -2.9560 -0.2494  0.7246
  434MOL0     H59861   9.469   9.904  10.853 -1.7529 -0.4419 -0.2448
  434MOL0     H59862   9.632   9.998  10.981 -0.0084  0.6753 -3.4076
  434MOL0     H59863   9.530  10.133  11.047  2.0369  0.9594  0.8765
  434MOL0     H59864   9.654  10.128  10.762  0.9179  2.0583 -1.5936
  434MOL0     H59865   9.572  10.262  10.851  0.6700  0.9091  1.9072
  434MOL0     H59866   9.814  10.116  10.962  2.1330 -0.1159 -3.0130
  434MOL0     H59867   9.750  10.274  11.017 -1.0029  0.3728  0.1646
  434MOL0     H59868   9.774  10.367  10.769 -0.9967  0.3645  0.9798
  434MOL0     H59869   9.864  10.221  10.735 -1.4258 -2.1954  0.9193
  434MOL0     H59870   9.930  10.446  10.945  0.9395  0.5248  0.3133
  434MOL0     H59871  10.027  10.418  10.809  1.5565 -1.7299  0.2284
  434MOL0     H59872   9.033   9.993  10.577 -0.5088  1.7221  3.4965
  434MOL0     H59873   8.838   9.886  10.459  1.9721 -1.7544 -1.1679
  434MOL0     H59874   8.450   9.665  10.611  0.3633  0.6410 -1.2622
  434MOL0     H59875   8.235   9.678  10.558  1.2487 -0.6876  1.3784
  434MOL0     H59876   7.810   8.343  10.696 -0.0520  1.3753 -1.1067
  434MOL0     H59877   8.029   8.254  10.808  1.8756  0.3270 -0.8139
  434MOL0     H59878   8.401   7.926  10.677 -1.0579  1.4097 -1.6622
  434MOL0     H59879   8.607   7.808  10.705 -0.0867 -0.3165  1.0783
  434MOL0     H59880   8.792   7.789  10.896 -0.1827  2.4462 -0.8413
  434MOL0     H59881   8.797   7.713  10.736  3.2459 -0.4885 -1.5595
  434MOL0     H59882   9.029   7.805  10.916  2.6903 -0.5848 -1.0612
  434MOL0     H59883   9.060   7.783  10.755  0.7574  1.5894  2.0803
  434MOL0     H59884   8.950   7.554  10.933 -0.6720 -2.1950 -0.1175
  434MOL0     H59885   8.946   7.560  10.756 -1.1654  2.2209 -0.3767
  434MOL0     H59886   9.200   7.583  10.755  1.5066 -0.9976  0.9644
  434MOL0     H59887   9.149   7.440  10.845 -0.9344  0.0558 -1.1636
  434MOL0     H59888   9.371   7.632  11.124  0.9013  1.2889 -1.5309
  434MOL0     H59889   8.810   8.170  10.762  0.0439 -0.8068  0.9303
  434MOL0     H59890   8.597   8.400  10.614  1.5503 -0.2863 -0.1521
  434MOL0     H59891   8.550   8.388  10.782 -0.6771 -2.2016  1.4696
  434MOL0     H59892   8.723   8.375  10.734  0.0794 -0.2277  2.0037
  435MOL0     O59893   7.067   9.679  11.414 -0.0874 -0.7501  0.0520
  435MOL0     C59894   7.116   9.673  11.309 -0.2589 -0.6063  0.1221
  435MOL0     O59895   7.071   9.733  11.202 -0.0247  0.5044 -0.0797
  435MOL0     C59896   6.951   9.808  11.219 -0.7904  0.4948  0.1844
  435MOL0     C59897   6.823   9.740  11.199 -0.2109 -0.8765  0.6368
  435MOL0     C59898   6.712   9.814  11.234 -0.6293  0.1905  1.1541
  435MOL0     C59899   6.712   9.945  11.279  0.8614  0.2130 -0.8550
  435MOL0     O59900   6.594  10.018  11.308 -0.0366  0.6748  0.3395
  435MOL0     C59901   6.475   9.988  11.228  0.3485 -0.1755 -0.8148
  435MOL0     C59902   6.352  10.092  11.256  0.3921  0.6430  1.1696
  435MOL0     C59903   6.283  10.100  11.392  0.9831 -0.9019 -0.8950
  435MOL0     C59904   6.203   9.971  11.418 -0.9756  0.0072  0.1809
  435MOL0     C59905   6.138   9.990  11.552 -0.1189 -0.0814  0.6250
  435MOL0     C59906   6.089   9.852  11.603 -1.4384 -0.0467  0.1153
  435MOL0     C59907   6.020   9.882  11.737 -0.0712 -0.5693  0.5330
  435MOL0     C59908   6.008   9.759  11.811  0.0378  0.5188  0.3758
  435MOL0     N59909   5.926   9.777  11.933 -0.0586  0.3002 -0.5780
  435MOL0     C59910   5.983   9.819  12.052 -0.6740  0.0367 -0.5462
  435MOL0     C59911   5.876   9.837  12.135  0.0501 -0.1649 -0.0152
  435MOL0     C59912   5.868   9.858  12.278  0.0443 -0.4702 -0.9083
  435MOL0     C59913   5.900  10.008  12.328 -0.5129 -0.1270  0.5320
  435MOL0     C59914   6.038  10.056  12.289 -0.0583  0.1814 -0.5645
  435MOL0     C59915   6.079  10.186  12.361  0.2350 -0.1764 -0.8878
  435MOL0     O59916   6.206  10.177  12.438  0.5057  0.3516 -0.0296
  435MOL0     C59917   6.215  10.102  12.550  0.3172  0.8186  0.4796
  435MOL0     C59918   6.110  10.052  12.623 -0.1932 -0.0685  0.1126
  435MOL0     C59919   6.133   9.970  12.731 -0.1711  0.1345  0.0746
  435MOL0     C59920   6.015   9.919  12.803  0.2394 -0.1264  0.1206
  435MOL0     C59921   6.273   9.942  12.767  0.1968  0.5661 -0.4872
  435MOL0     C59922   6.306   9.847  12.875 -0.1660 -0.2732  0.3894
  435MOL0     O59923   6.428   9.866  12.910  0.1803 -0.5507  0.7476
  435MOL0     C59924   6.501   9.788  13.003  0.3713 -0.2169  1.0020
  435MOL0     C59925   6.643   9.791  12.984 -0.1402 -0.5654  0.2202
  435MOL0     C59926   6.727   9.715  13.067 -0.1632  0.0593  0.0198
  435MOL0     C59927   6.668   9.633  13.170 -0.3375 -0.2216  0.0174
  435MOL0     O59928   6.741   9.548  13.254 -0.7972 -0.0347 -0.5633
  435MOL0     C59929   6.876   9.582  13.295  0.0613  0.7938 -0.1441
  435MOL0     C59930   6.936   9.461  13.370  0.7779  0.6189  0.1793
  435MOL0     C59931   6.884   9.447  13.514 -0.0160  0.9574  0.6643
  435MOL0     C59932   6.953   9.327  13.577 -0.2312 -0.0217 -0.6228
  435MOL0     C59933   6.922   9.317  13.728  0.6396 -0.3200  0.1103
  435MOL0     C59934   7.054   9.309  13.802 -0.0580  0.2388 -0.3865
  435MOL0     C59935   7.027   9.293  13.954 -0.2235  0.0794  0.3621
  435MOL0     C59936   7.139   9.370  14.028  0.5437  0.0660  0.3460
  435MOL0    Cl59937   7.092   9.383  14.200  0.1035 -0.3443  0.8320
  435MOL0     C59938   6.531   9.632  13.190 -0.4920  0.0898  0.5011
  435MOL0     C59939   6.446   9.711  13.104 -0.2100  0.5859 -0.2098
  435MOL0     O59940   6.239   9.750  12.909  0.0969  0.1734  0.4076
  435MOL0     C59941   6.373   9.998  12.693 -1.0405 -0.4537  0.6236
  435MOL0     C59942   6.347  10.076  12.583 -1.0980  0.0958  0.5301
  435MOL0     N59943   5.765   9.815  12.054 -0.8540 -0.8090 -0.2913
  435MOL0     N59944   5.793   9.779  11.935  0.6226  0.4509  0.7210
  435MOL0     C59945   6.837  10.006  11.299 -0.0009 -0.1605  1.1803
  435MOL0     C59946   6.953   9.939  11.270  0.6364 -1.1128 -0.5755
  435MOL0     C59947   7.227   9.587  11.294 -0.4198 -0.0104 -0.9187
  435MOL0     C59948   7.327   9.589  11.390 -1.1759  0.3125  0.0169
  435MOL0     C59949   7.437   9.507  11.380 -0.1323 -0.0080 -0.1820
  435MOL0     C59950   7.454   9.414  11.283 -0.1970  0.0512  0.7766
  435MOL0     O59951   7.561   9.328  11.294 -0.4783 -0.7619 -0.0916
  435MOL0     C59952   7.541   9.188  11.246 -0.4192  0.5808 -0.1832
  435MOL0     C59953   7.587   9.183  11.105  0.7367  0.8137  0.4116
  435MOL0     C59954   7.739   9.194  11.094 -0.6491 -0.1820 -0.3053
  435MOL0     C59955   7.783   9.191  10.947 -0.8664  0.3506 -0.9465
  435MOL0     C59956   7.916   9.136  10.917 -0.2920 -0.3545 -1.1518
  435MOL0     C59957   8.032   9.101  10.889 -0.0206  0.6549 -0.0425
  435MOL0     C59958   7.356   9.411  11.179 -0.5830 -0.1715 -0.9721
  435MOL0     C59959   7.238   9.489  11.182 -0.7225 -1.0303 -0.0986
  435MOL0     C59960   7.144   9.486  11.061  0.9559  0.2699 -0.1275
  435MOL0     H59961   6.813   9.635  11.176  0.6816 -2.5838  6.4769
  435MOL0     H59962   6.622   9.759  11.207 -0.3048 -1.2529  2.8353
  435MOL0     H59963   6.444   9.885  11.245  1.1670 -0.3838 -0.5644
  435MOL0     H59964   6.509  10.000  11.124  0.9418 -2.5183 -0.9355
  435MOL0     H59965   6.371  10.195  11.226 -0.7791  1.0655  1.7921
  435MOL0     H59966   6.271  10.054  11.192 -0.6804  2.1123  1.6034
  435MOL0     H59967   6.357  10.108  11.472 -2.1033 -1.6734  2.3368
  435MOL0     H59968   6.215  10.185  11.399 -0.5275 -1.9807 -1.8269
  435MOL0     H59969   6.130   9.940  11.343  1.5096  0.5025 -2.6151
  435MOL0     H59970   6.266   9.883  11.416 -1.0854 -0.0597 -0.8110
  435MOL0     H59971   6.058  10.064  11.538 -0.6156 -0.3446  1.9292
  435MOL0     H59972   6.213  10.030  11.621  0.4937 -3.0912  1.8359
  435MOL0     H59973   6.020   9.808  11.531  0.3202 -1.9822 -0.5003
  435MOL0     H59974   6.175   9.785  11.605 -0.4402  0.9402 -3.1098
  435MOL0     H59975   5.922   9.929  11.723  1.8759  2.9991 -4.0675
  435MOL0     H59976   6.087   9.950  11.789 -2.2895  2.7360 -0.6039
  435MOL0     H59977   5.961   9.680  11.752  2.0208  0.0394 -0.6541
  435MOL0     H59978   6.109   9.720  11.829  0.8474  1.2810 -2.0985
  435MOL0     H59979   6.088   9.835  12.074 -0.9132  1.5740 -0.3915
  435MOL0     H59980   5.953   9.809  12.326 -0.3242 -1.2718 -1.0458
  435MOL0     H59981   5.774   9.829  12.327 -0.0820  2.5243  0.8853
  435MOL0     H59982   5.819  10.059  12.274 -4.1667 -5.8741 -0.3760
  435MOL0     H59983   5.888  10.019  12.436 -0.2708 -0.2080  0.5664
  435MOL0     H59984   6.119   9.983  12.301 -0.6665 -0.7617 -1.9417
  435MOL0     H59985   6.037  10.064  12.180 -0.1368 -3.5954 -0.9801
  435MOL0     H59986   6.098  10.259  12.282 -1.1802  1.1464 -0.0683
  435MOL0     H59987   6.003  10.242  12.415  1.4172  0.5420  0.0666
  435MOL0     H59988   6.013  10.098  12.606  0.0747  1.4231  2.1811
  435MOL0     H59989   5.942  10.000  12.815  0.7442  0.0609  2.3262
  435MOL0     H59990   6.040   9.898  12.907 -0.7517 -3.0061 -0.1362
  435MOL0     H59991   5.975   9.824  12.765  0.2496  0.4134 -1.3017
  435MOL0     H59992   6.695   9.856  12.915 -0.6547 -0.8954 -0.4944
  435MOL0     H59993   6.834   9.738  13.062  0.1297 -1.1295  0.4667
  435MOL0     H59994   6.928   9.595  13.199  1.8494 -0.5464  0.5973
  435MOL0     H59995   6.894   9.669  13.359 -0.7696 -0.4409  1.8675
  435MOL0     H59996   6.925   9.369  13.312  0.4194  0.4301  0.5410
  435MOL0     H59997   7.044   9.473  13.379  0.6645  1.8972 -0.0431
  435MOL0     H59998   6.776   9.429  13.520  0.1352 -1.0812 -1.3255
  435MOL0     H59999   6.911   9.538  13.569  4.5813 -1.8003  3.6120
  435MOL0     H60000   7.061   9.344  13.571 -0.3906  0.8646 -1.2759
  435MOL0     H60001   6.944   9.229  13.530  0.5042  0.2461 -1.3578
  435MOL0     H60002   6.885   9.417  13.752  0.7345  0.3005 -2.0754
  435MOL0     H60003   6.855   9.235  13.754 -1.2839  1.6306  1.6418
  435MOL0     H60004   7.121   9.393  13.781  1.4112  0.1714  3.1885
  435MOL0     H60005   7.113   9.221  13.774  2.0135  1.1033  1.0777
  435MOL0     H60006   7.015   9.187  13.979  1.9685 -0.4378 -0.5252
  435MOL0     H60007   6.934   9.347  13.970 -0.8178 -0.1419 -1.9275
  435MOL0     H60008   7.158   9.467  13.982 -0.3119  0.2350  0.3391
  435MOL0     H60009   7.232   9.312  14.032  0.4606 -0.1962 -1.0865
  435MOL0     H60010   6.494   9.557  13.259 -3.6210 -0.9224 -2.0190
  435MOL0     H60011   6.339   9.705  13.114 -0.1776 -4.9029  0.1262
  435MOL0     H60012   6.481   9.991  12.705 -0.4132  1.5185 -2.7277
  435MOL0     H60013   6.425  10.112  12.516 -0.3352 -0.5776  1.0310
  435MOL0     H60014   6.831  10.109  11.332  1.5632 -0.1815  1.5982
  435MOL0     H60015   7.046   9.990  11.293 -0.2289  0.2254  0.1244
  435MOL0     H60016   7.306   9.654  11.474  0.1588  2.9931 -1.5933
  435MOL0     H60017   7.513   9.528  11.455  0.7046 -0.8725 -0.7495
  435MOL0     H60018   7.596   9.121  11.313  0.1045  2.2464  1.1487
  435MOL0     H60019   7.442   9.143  11.262  0.6445 -1.2911  1.4957
  435MOL0     H60020   7.556   9.276  11.056 -1.2936 -0.1569 -0.2414
  435MOL0     H60021   7.546   9.090  11.064  2.3549  1.7954 -4.0676
  435MOL0     H60022   7.780   9.285  11.138 -0.1092 -0.1934 -0.7652
  435MOL0     H60023   7.784   9.110  11.147 -0.3041 -0.4615 -1.0235
  435MOL0     H60024   7.770   9.292  10.909 -3.7305  0.6614  0.5561
  435MOL0     H60025   7.712   9.124  10.899  0.0723 -1.5639  0.1801
  435MOL0     H60026   8.130   9.070  10.857 -0.7797 -0.4021 -1.4400
  435MOL0     H60027   7.353   9.336  11.102 -1.7805 -3.0561  1.6750
  435MOL0     H60028   7.048   9.513  11.105  1.3457 -0.5482  1.3349
  435MOL0     H60029   7.178   9.559  10.987 -1.7971  1.7015 -0.0772
  435MOL0     H60030   7.132   9.382  11.029 -1.4394 -0.2147  1.9878
  436MOL0     O60031   8.495  10.522  10.074 -0.0105 -0.0202  0.1517
  436MOL0     C60032   8.468  10.637  10.038  0.3755 -0.0002  0.2199
  436MOL0     O60033   8.565  10.734  10.027  0.6306  0.6964  0.3004
  436MOL0     C60034   8.691  10.725  10.073 -0.6151  0.0918 -0.2278
  436MOL0     C60035   8.775  10.828  10.028  0.1045  0.2394  0.3919
  436MOL0     C60036   8.905  10.835  10.070 -0.2144 -0.0456  0.5690
  436MOL0     C60037   8.956  10.745  10.166 -0.0101  0.0306 -0.1341
  436MOL0     O60038   9.086  10.771  10.216 -0.3837 -0.3406  0.4475
  436MOL0     C60039   9.169  10.664  10.226  0.6810 -0.0714  0.7550
  436MOL0     C60040   9.313  10.712  10.244 -0.2694 -0.9593  0.4909
  436MOL0     C60041   9.418  10.620  10.299 -0.0772 -0.3339 -0.4053
  436MOL0     C60042   9.552  10.699  10.323  0.2323  0.2994  0.3962
  436MOL0     C60043   9.659  10.616  10.396 -0.5253 -0.2457  0.3268
  436MOL0     C60044   9.805  10.640  10.362 -0.1923  0.4278  0.1148
  436MOL0     C60045   9.884  10.527  10.445 -0.0843 -0.6944  0.4340
  436MOL0     C60046  10.044  10.523  10.419  0.0134  0.3382 -0.7774
  436MOL0     N60047  10.080  10.546  10.282  0.0651  0.2006 -0.4459
  436MOL0     C60048  10.131  10.461  10.188 -0.3730 -0.4355 -0.7649
  436MOL0     C60049  10.203  10.533  10.099 -0.4528  0.4203 -0.5129
  436MOL0     C60050  10.270  10.485   9.982 -0.5773  0.1753  0.2508
  436MOL0     C60051  10.235  10.551   9.848  0.2738 -0.4852  0.0604
  436MOL0     C60052  10.092  10.526   9.794  0.4616  0.3330 -0.3221
  436MOL0     C60053  10.050  10.369   9.761  0.1454 -0.5150  0.0813
  436MOL0     O60054   9.954  10.364   9.642  1.0133 -0.5177 -0.3566
  436MOL0     C60055   9.832  10.430   9.663  0.1351  0.0182  0.0101
  436MOL0     C60056   9.804  10.531   9.572  0.5168  0.3825 -0.0229
  436MOL0     C60057   9.690  10.607   9.593  0.5094  0.2851  0.4067
  436MOL0     C60058   9.663  10.719   9.478 -0.3268 -0.4583 -1.0286
  436MOL0     C60059   9.604  10.585   9.712  0.0638  0.4785  0.6598
  436MOL0     C60060   9.506  10.684   9.761  1.0198  0.6806 -0.9773
  436MOL0     O60061   9.473  10.787   9.677 -0.3247 -0.0026  0.7505
  436MOL0     C60062   9.400  10.894   9.710 -0.3699  0.0132  0.6856
  436MOL0     C60063   9.440  11.014   9.652  0.7961 -0.2397  0.5508
  436MOL0     C60064   9.385  11.138   9.686  0.1130  0.1453 -0.6398
  436MOL0     C60065   9.278  11.142   9.776  0.0550 -0.1277 -0.2464
  436MOL0     O60066   9.220  11.265   9.805 -0.1225  0.2828  0.1445
  436MOL0     C60067   9.078  11.288   9.820 -0.3979 -0.0042 -1.4374
  436MOL0     C60068   9.023  11.411   9.753  0.4933 -0.4315 -0.1827
  436MOL0     C60069   9.138  11.503   9.712 -0.3530  0.2083 -0.0857
  436MOL0     C60070   9.086  11.617   9.624  0.5764 -0.4931  0.3230
  436MOL0     C60071   9.176  11.665   9.513 -0.5143 -0.5046 -0.1279
  436MOL0     C60072   9.192  11.554   9.403 -0.3781 -0.5226  0.7621
  436MOL0     C60073   9.277  11.602   9.285  0.4602  0.2508  0.0312
  436MOL0     C60074   9.221  11.719   9.208  0.3142 -1.2087 -0.1704
  436MOL0    Cl60075   9.334  11.772   9.080  0.2198  0.3297  0.1522
  436MOL0     C60076   9.225  11.026   9.828 -0.7741  0.3758 -0.4488
  436MOL0     C60077   9.288  10.898   9.800 -0.4920 -0.9561  0.1342
  436MOL0     O60078   9.460  10.670   9.870 -0.3192 -0.3941 -0.2205
  436MOL0     C60079   9.633  10.471   9.790 -0.2071 -0.1660  0.4236
  436MOL0     C60080   9.756  10.400   9.773  0.0694  0.5448  0.1542
  436MOL0     N60081  10.201  10.663  10.135 -0.3172 -0.6811  0.1228
  436MOL0     N60082  10.140  10.665  10.251 -0.0543  0.3556  0.0245
  436MOL0     C60083   8.873  10.646  10.222 -0.6085  0.0824 -0.0168
  436MOL0     C60084   8.734  10.648  10.177 -1.0982  0.7388 -1.0014
  436MOL0     C60085   8.331  10.664   9.994 -0.8393 -0.0855 -0.3159
  436MOL0     C60086   8.303  10.740   9.874  0.3841  0.5317 -0.2018
  436MOL0     C60087   8.171  10.750   9.824 -0.4401 -0.1327 -0.4205
  436MOL0     C60088   8.071  10.693   9.903 -0.2457  0.2477 -0.0403
  436MOL0     O60089   7.938  10.707   9.869  0.7678  0.6794 -0.7016
  436MOL0     C60090   7.892  10.755   9.744  0.2224  0.8402 -0.9445
  436MOL0     C60091   7.870  10.901   9.735 -0.1213  0.3777  0.1502
  436MOL0     C60092   7.795  10.931   9.601  0.1253 -0.1485  1.0130
  436MOL0     C60093   7.751  11.071   9.594 -0.0948  0.4666  1.0333
  436MOL0     C60094   7.690  11.107   9.467 -0.1094  0.3350 -0.1452
  436MOL0     C60095   7.631  11.114   9.361  0.0789 -0.1742 -0.5556
  436MOL0     C60096   8.091  10.625  10.025  0.5957 -1.2664  0.1682
  436MOL0     C60097   8.222  10.613  10.066  0.8762 -0.5273 -0.8356
  436MOL0     C60098   8.249  10.547  10.201  0.6680 -0.0135  0.0499
  436MOL0     H60099   8.735  10.906   9.965  3.1798 -0.3763 -2.6415
  436MOL0     H60100   8.969  10.916  10.037  0.2887 -1.2230 -1.5017
  436MOL0     H60101   9.151  10.604  10.136 -2.5798 -2.1413  2.5799
  436MOL0     H60102   9.141  10.601  10.311  1.5432  0.0156  1.1123
  436MOL0     H60103   9.357  10.757  10.155  1.0202  0.7635  1.9104
  436MOL0     H60104   9.311  10.790  10.321 -3.3394 -2.2915  1.9086
  436MOL0     H60105   9.386  10.570  10.391 -0.5207 -2.7610 -1.8099
  436MOL0     H60106   9.444  10.537  10.233 -1.8978 -0.5886 -0.8316
  436MOL0     H60107   9.590  10.732  10.226  0.0183  1.3925  0.6676
  436MOL0     H60108   9.535  10.792  10.379  0.1739  1.8097 -1.9575
  436MOL0     H60109   9.649  10.510  10.370  5.4280 -0.9068 -0.6671
  436MOL0     H60110   9.644  10.633  10.503  0.0247  0.8921  0.2344
  436MOL0     H60111   9.816  10.633  10.253  0.5759 -2.4411  0.2790
  436MOL0     H60112   9.830  10.740  10.398 -2.3937  1.8464 -1.9535
  436MOL0     H60113   9.846  10.435  10.400 -0.7765  1.0264 -2.8706
  436MOL0     H60114   9.861  10.535  10.551  0.3671 -3.8903  0.8569
  436MOL0     H60115  10.096  10.594  10.484  0.5966 -2.1329  1.6735
  436MOL0     H60116  10.073  10.423  10.453 -1.0974  0.9596  2.3343
  436MOL0     H60117  10.111  10.355  10.194  2.1622 -0.9041  2.3901
  436MOL0     H60118  10.229  10.383   9.978 -1.3897  0.4937  0.0868
  436MOL0     H60119  10.378  10.494   9.989 -0.7212  1.0806  1.4189
  436MOL0     H60120  10.245  10.660   9.848 -5.1245  0.3028  0.1705
  436MOL0     H60121  10.310  10.521   9.775  0.6265 -0.6401  0.4833
  436MOL0     H60122  10.016  10.567   9.861  3.3385  1.3668  2.5183
  436MOL0     H60123  10.088  10.574   9.696 -2.1128 -0.3915 -0.6385
  436MOL0     H60124  10.142  10.317   9.732 -0.6256 -1.8651 -0.0101
  436MOL0     H60125  10.009  10.312   9.844 -0.5935 -1.2419 -0.7549
  436MOL0     H60126   9.869  10.546   9.487 -0.4159  0.9277 -0.6601
  436MOL0     H60127   9.563  10.725   9.433  0.4961 -1.9864 -3.2406
  436MOL0     H60128   9.723  10.709   9.387  0.1085  1.0560 -0.9402
  436MOL0     H60129   9.700  10.812   9.523  1.9236 -2.9502  2.8858
  436MOL0     H60130   9.514  11.012   9.573  0.2101 -1.7918  0.0105
  436MOL0     H60131   9.429  11.228   9.644  0.6148 -0.8094 -2.2550
  436MOL0     H60132   9.020  11.202   9.785 -2.3870  1.4964 -1.9763
  436MOL0     H60133   9.056  11.280   9.927 -1.7078 -2.0046 -1.8046
  436MOL0     H60134   8.966  11.369   9.670 -0.7820 -1.9757  1.4006
  436MOL0     H60135   8.962  11.463   9.829  3.4217  0.2222  1.9027
  436MOL0     H60136   9.211  11.458   9.644 -2.0596  3.4236 -4.5964
  436MOL0     H60137   9.195  11.539   9.798  0.6877 -1.4185 -0.0618
  436MOL0     H60138   9.054  11.702   9.684 -2.3135 -1.5820  0.4838
  436MOL0     H60139   8.999  11.581   9.567  0.1052 -0.1360  0.8098
  436MOL0     H60140   9.136  11.758   9.473 -2.4812 -1.1649  0.1789
  436MOL0     H60141   9.274  11.696   9.550 -1.0029  1.1482 -0.1590
  436MOL0     H60142   9.096  11.511   9.374 -1.0617  0.8720  0.8526
  436MOL0     H60143   9.242  11.470   9.451  0.2254 -0.7164 -0.1908
  436MOL0     H60144   9.288  11.513   9.222 -0.5944 -1.5097  2.2244
  436MOL0     H60145   9.372  11.623   9.334  1.0522 -0.4741 -0.7719
  436MOL0     H60146   9.207  11.807   9.272 -3.7138 -0.7260 -1.4418
  436MOL0     H60147   9.129  11.693   9.156 -0.9548 -0.4557  1.5699
  436MOL0     H60148   9.137  11.029   9.892  0.7326 -2.9907  2.1015
  436MOL0     H60149   9.254  10.802   9.837  0.5939 -2.8390 -3.2439
  436MOL0     H60150   9.559  10.432   9.860  0.6422 -2.4739  0.1079
  436MOL0     H60151   9.781  10.308   9.824 -1.8730 -0.0305  0.1444
  436MOL0     H60152   8.904  10.571  10.294 -2.0148  1.7058  2.4172
  436MOL0     H60153   8.680  10.572  10.233  2.1571 -0.7155  0.4433
  436MOL0     H60154   8.386  10.785   9.819  0.3131  1.6306  0.5606
  436MOL0     H60155   8.138  10.797   9.732 -0.7178  0.4868 -0.0095
  436MOL0     H60156   7.961  10.715   9.668  1.5995  0.1525  0.6022
  436MOL0     H60157   7.790  10.719   9.735  0.2500 -0.7148  3.1073
  436MOL0     H60158   7.967  10.949   9.744  0.4781 -0.6541 -0.6401
  436MOL0     H60159   7.806  10.936   9.818  0.9571  0.2465  1.0602
  436MOL0     H60160   7.870  10.910   9.524 -1.0043  0.5988 -0.3558
  436MOL0     H60161   7.706  10.868   9.589  1.0424 -1.4645  0.9385
  436MOL0     H60162   7.832  11.140   9.621 -0.0002  1.4408 -1.5162
  436MOL0     H60163   7.666  11.081   9.663 -0.4811 -0.3589  0.6915
  436MOL0     H60164   7.571  11.124   9.273 -0.4773  0.7024 -0.0875
  436MOL0     H60165   7.996  10.586  10.059 -0.4805 -0.8188 -2.1086
  436MOL0     H60166   8.328  10.604  10.250 -0.2434  0.3703  1.1148
  436MOL0     H60167   8.160  10.546  10.265  1.8469  3.3661  1.9597
  436MOL0     H60168   8.274  10.441  10.190 -1.3788 -0.3313 -2.7103
  437MOL0     O60169   2.903   0.817   0.962  0.1626  0.3028 -0.4718
  437MOL0     C60170   2.962   0.711   0.992 -1.0803 -0.4525 -0.5258
  437MOL0     O60171   2.922   0.585   0.976  0.1100  0.0278  0.0225
  437MOL0     C60172   2.823   0.565   0.879 -0.3070 -0.3544  0.3395
  437MOL0     C60173   2.841   0.609   0.745 -0.3797  0.4809 -0.3682
  437MOL0     C60174   2.735   0.598   0.657  1.0020  0.5016  0.8470
  437MOL0     C60175   2.616   0.530   0.692 -0.1848 -0.1268  0.1746
  437MOL0     O60176   2.523   0.520   0.592 -0.1515  0.0270  0.3861
  437MOL0     C60177   2.434   0.408   0.588  0.4153 -0.2016  0.3343
  437MOL0     C60178   2.366   0.415   0.443 -1.0398  0.7788  0.1395
  437MOL0     C60179   2.236   0.329   0.441  1.1290  0.0648  0.4218
  437MOL0     C60180   2.204   0.289   0.290 -0.4105 -0.1252 -0.9338
  437MOL0     C60181   2.071   0.204   0.264  0.5217  0.0446  0.0079
  437MOL0     C60182   1.943   0.288   0.281 -0.2149 -1.0479  0.1884
  437MOL0     C60183   1.822   0.209   0.218  0.1909 -0.5052 -0.4993
  437MOL0     C60184   1.700   0.302   0.198 -0.8502  0.0675  0.5011
  437MOL0     N60185   1.650   0.360   0.327 -0.2207 -0.4230 -0.0427
  437MOL0     C60186   1.546   0.448   0.330  1.1176  0.5032 -0.2019
  437MOL0     C60187   1.505   0.440   0.470 -0.5213  0.0513  0.5128
  437MOL0     C60188   1.394   0.503   0.550  0.0444  0.3141  0.1502
  437MOL0     C60189   1.264   0.490   0.463 -0.9006 -0.6474 -0.6241
  437MOL0     C60190   1.205   0.346   0.464 -0.4366 -0.1317  0.4364
  437MOL0     C60191   1.080   0.339   0.382  0.1258 -0.1969  0.0701
  437MOL0     O60192   1.098   0.384   0.249 -0.2647 -0.1711  1.1290
  437MOL0     C60193   1.180   0.328   0.150  1.3009  0.3210  0.7018
  437MOL0     C60194   1.218   0.417   0.047  0.1002  0.1294 -0.7394
  437MOL0     C60195   1.300   0.370  -0.059  0.0659  0.2193 -0.9267
  437MOL0     C60196   1.321   0.457  -0.176 -0.0266 -0.4405 -0.2835
  437MOL0     C60197   1.335   0.234  -0.062  0.8090 -0.2534 -0.0333
  437MOL0     C60198   1.413   0.186  -0.175  0.2722 -1.0753 -0.2366
  437MOL0     O60199   1.383   0.062  -0.222  0.4227  0.4419 -0.3079
  437MOL0     C60200   1.463   0.012  -0.317  0.4338 -0.2761  0.4993
  437MOL0     C60201   1.459   0.072  -0.448 -0.1611 -0.7307  1.1296
  437MOL0     C60202   1.529   0.004  -0.549  0.7503  0.2048  0.3648
  437MOL0     C60203   1.611  -0.109  -0.530 -0.2622  0.3506 -0.9492
  437MOL0     O60204   1.678  -0.175  -0.630  0.4242  0.1925 -0.0264
  437MOL0     C60205   1.740  -0.095  -0.729  0.7845 -0.2116 -0.4771
  437MOL0     C60206   1.822  -0.174  -0.834  0.1651 -0.5235  0.0273
  437MOL0     C60207   1.918  -0.270  -0.765 -0.0214  0.1316 -0.0573
  437MOL0     C60208   2.024  -0.318  -0.866  0.0206  0.6938  0.2949
  437MOL0     C60209   2.129  -0.412  -0.801  0.9244  1.2001 -0.3751
  437MOL0     C60210   2.174  -0.530  -0.891  0.1251 -0.7250  0.7634
  437MOL0     C60211   2.268  -0.621  -0.819  0.4159 -0.2599  0.1436
  437MOL0     C60212   2.335  -0.726  -0.912 -0.5041 -0.8242  0.0766
  437MOL0    Cl60213   2.428  -0.862  -0.840  0.1420 -0.2617 -0.2389
  437MOL0     C60214   1.618  -0.162  -0.399  1.0962  0.3907 -0.4386
  437MOL0     C60215   1.537  -0.101  -0.294 -0.0085 -0.1296  0.0966
  437MOL0     O60216   1.518   0.244  -0.195  0.0290  0.0877 -0.0321
  437MOL0     C60217   1.284   0.147   0.040 -0.4626 -0.0179 -0.3045
  437MOL0     C60218   1.211   0.194   0.144  0.0356  1.7818  0.0167
  437MOL0     N60219   1.586   0.355   0.534  0.0902 -0.3759 -0.1200
  437MOL0     N60220   1.670   0.308   0.452 -0.8206  0.4754  0.0531
  437MOL0     C60221   2.600   0.492   0.827 -0.2306  0.2824  0.2305
  437MOL0     C60222   2.704   0.511   0.917  0.0045  0.5113  0.1292
  437MOL0     C60223   3.094   0.728   1.049 -0.5772 -0.3730  0.0074
  437MOL0     C60224   3.128   0.837   1.137  0.5397 -0.3505 -0.2887
  437MOL0     C60225   3.247   0.863   1.193 -0.4226  0.6822  0.0373
  437MOL0     C60226   3.353   0.790   1.147 -0.4892  0.6197 -0.6969
  437MOL0     O60227   3.468   0.834   1.199  0.7607 -0.0168  0.9613
  437MOL0     C60228   3.576   0.746   1.207  0.6622 -0.1365 -0.4302
  437MOL0     C60229   3.687   0.820   1.276  0.0218 -0.2277  0.3235
  437MOL0     C60230   3.661   0.874   1.426  0.5654 -0.5329  0.7215
  437MOL0     C60231   3.616   0.765   1.526 -0.1350 -0.1690  0.0015
  437MOL0     C60232   3.585   0.818   1.667  0.6809 -0.2189  0.6023
  437MOL0     C60233   3.547   0.843   1.782 -0.0334  0.2695  0.1216
  437MOL0     C60234   3.325   0.672   1.083 -1.3282  0.0113 -0.7670
  437MOL0     C60235   3.201   0.638   1.031 -0.2398 -0.0100 -0.1717
  437MOL0     C60236   3.185   0.506   0.950 -0.3394  0.3054 -0.1506
  437MOL0     H60237   2.942   0.639   0.718 -0.0997 -1.3982 -1.5467
  437MOL0     H60238   2.747   0.643   0.560 -2.2499  2.1629  1.1022
  437MOL0     H60239   2.351   0.418   0.658 -2.3716  0.3193 -2.8079
  437MOL0     H60240   2.488   0.314   0.606  0.4438 -0.0054  1.3635
  437MOL0     H60241   2.323   0.512   0.417 -2.4900  0.4159  1.0962
  437MOL0     H60242   2.436   0.379   0.367 -3.9442 -1.1589 -1.8632
  437MOL0     H60243   2.243   0.241   0.506  1.5794 -2.1612 -2.4089
  437MOL0     H60244   2.151   0.390   0.474 -0.5186 -0.7721 -1.9657
  437MOL0     H60245   2.195   0.383   0.235  3.5264  0.6595 -0.5522
  437MOL0     H60246   2.290   0.235   0.249 -1.2116 -3.6457  1.5920
  437MOL0     H60247   2.066   0.114   0.326  0.5344  1.6677  2.5099
  437MOL0     H60248   2.075   0.169   0.161  0.3762 -1.9515  0.6326
  437MOL0     H60249   1.924   0.308   0.386 -0.4924  2.1671 -0.3624
  437MOL0     H60250   1.958   0.388   0.238  0.2383 -0.2076  2.1795
  437MOL0     H60251   1.788   0.125   0.279 -3.0304  2.9330  2.9954
  437MOL0     H60252   1.860   0.174   0.121 -0.5249 -0.4486 -0.8083
  437MOL0     H60253   1.730   0.385   0.133 -3.7820  1.2671  0.5226
  437MOL0     H60254   1.618   0.255   0.144  0.5849 -1.3407 -0.5251
  437MOL0     H60255   1.487   0.500   0.254 -3.2635 -0.3795  2.2299
  437MOL0     H60256   1.432   0.603   0.571  0.5126  0.2519 -0.3721
  437MOL0     H60257   1.380   0.448   0.643  1.7962 -0.2033  0.1426
  437MOL0     H60258   1.195   0.547   0.526  1.2496 -0.6016  1.8413
  437MOL0     H60259   1.271   0.526   0.360  3.2436  0.6699 -0.0747
  437MOL0     H60260   1.281   0.285   0.414 -1.4225  0.5296 -1.9977
  437MOL0     H60261   1.189   0.308   0.565  3.7733  2.0692  2.1763
  437MOL0     H60262   1.048   0.234   0.381  1.0864 -0.5238  0.9958
  437MOL0     H60263   1.005   0.386   0.446 -0.4402 -0.5468 -0.3299
  437MOL0     H60264   1.194   0.523   0.047  5.9249  1.8567  0.1337
  437MOL0     H60265   1.337   0.421  -0.278 -2.2039 -2.0221 -0.1459
  437MOL0     H60266   1.411   0.506  -0.138 -0.3252 -1.3977  1.8059
  437MOL0     H60267   1.244   0.533  -0.168  1.9599  1.5470  1.1693
  437MOL0     H60268   1.404   0.162  -0.473 -0.8786 -1.0120  1.6726
  437MOL0     H60269   1.516   0.044  -0.649 -0.9478 -0.4660  0.2870
  437MOL0     H60270   1.663  -0.033  -0.777  0.9608  1.0901  0.8428
  437MOL0     H60271   1.812  -0.030  -0.679  0.3778  0.9271 -1.3241
  437MOL0     H60272   1.761  -0.228  -0.907  1.9285 -0.6466 -1.4080
  437MOL0     H60273   1.884  -0.097  -0.881  0.9139 -0.8593  0.4595
  437MOL0     H60274   1.867  -0.354  -0.717 -0.1338 -0.0389 -0.4697
  437MOL0     H60275   1.966  -0.218  -0.681  2.5512 -2.2299  0.0603
  437MOL0     H60276   2.082  -0.242  -0.920  2.6339 -1.7926 -0.6328
  437MOL0     H60277   1.966  -0.372  -0.940  0.8773  1.4862 -0.9953
  437MOL0     H60278   2.213  -0.370  -0.746  0.9878 -0.7119  1.0728
  437MOL0     H60279   2.063  -0.459  -0.728  1.9446  1.3535  0.6612
  437MOL0     H60280   2.226  -0.492  -0.979  1.5010 -0.7982  1.5180
  437MOL0     H60281   2.089  -0.586  -0.929 -1.7698  2.2564  0.3137
  437MOL0     H60282   2.213  -0.675  -0.743 -1.4314  0.9329 -0.2906
  437MOL0     H60283   2.346  -0.547  -0.799 -3.1784  4.6217 -1.8777
  437MOL0     H60284   2.400  -0.683  -0.990 -1.9856  1.6159  0.0728
  437MOL0     H60285   2.255  -0.765  -0.975  2.6382 -0.7809 -4.5028
  437MOL0     H60286   1.675  -0.255  -0.393  0.6045 -0.1310 -2.9425
  437MOL0     H60287   1.542  -0.137  -0.192  2.4905  2.4867  1.0589
  437MOL0     H60288   1.302   0.042   0.019  2.2791 -0.0524  1.6444
  437MOL0     H60289   1.171   0.125   0.218 -0.4654 -0.9331 -2.5804
  437MOL0     H60290   2.502   0.450   0.843 -0.3431 -0.2145 -1.4896
  437MOL0     H60291   2.709   0.482   1.021  3.1014  1.3883  0.3236
  437MOL0     H60292   3.051   0.909   1.165  1.8352  0.9316  0.1009
  437MOL0     H60293   3.259   0.940   1.269 -0.6667 -0.4062  1.2163
  437MOL0     H60294   3.552   0.659   1.268 -2.4143  0.1496 -1.0826
  437MOL0     H60295   3.612   0.703   1.113 -0.5711 -0.4299 -0.7927
  437MOL0     H60296   3.723   0.901   1.213  2.1310 -1.4721 -0.1757
  437MOL0     H60297   3.768   0.747   1.286 -0.4488 -1.0058 -1.2335
  437MOL0     H60298   3.753   0.923   1.459 -0.5990  3.0859 -0.8629
  437MOL0     H60299   3.581   0.948   1.414  1.2783 -0.0543 -1.7014
  437MOL0     H60300   3.699   0.694   1.532  1.7695  2.0426  1.8833
  437MOL0     H60301   3.528   0.717   1.482 -0.7791  2.0273 -1.2556
  437MOL0     H60302   3.545   0.866   1.887  2.7729 -1.1027  0.5720
  437MOL0     H60303   3.403   0.598   1.070 -2.1346 -1.0797  0.3845
  437MOL0     H60304   3.132   0.514   0.855 -3.4067  3.2532  1.5803
  437MOL0     H60305   3.284   0.464   0.926 -0.5996  0.1542 -0.9882
  437MOL0     H60306   3.124   0.435   1.007  0.5859 -0.2823  0.1459
  438MOL0     O60307   0.943   5.557   1.724 -0.3642  0.0844 -0.9034
  438MOL0     C60308   0.939   5.639   1.634  0.8538  0.7465 -1.1759
  438MOL0     O60309   0.845   5.631   1.538  0.4967  0.0028  0.6050
  438MOL0     C60310   0.772   5.515   1.543 -0.1678  0.0111 -0.8375
  438MOL0     C60311   0.815   5.402   1.469  0.1705 -1.1591  0.0770
  438MOL0     C60312   0.741   5.283   1.465  0.4959 -0.7362 -0.1216
  438MOL0     C60313   0.621   5.272   1.536  0.3771 -0.7496 -0.3016
  438MOL0     O60314   0.553   5.147   1.534 -0.3087  0.4588 -0.1622
  438MOL0     C60315   0.429   5.139   1.615 -0.6367 -0.1670 -0.5065
  438MOL0     C60316   0.359   5.004   1.593 -0.3823  1.3011 -0.2417
  438MOL0     C60317   0.291   4.977   1.462 -0.5315  0.3189  0.4493
  438MOL0     C60318   0.193   4.848   1.462 -0.8537  0.3480  0.0484
  438MOL0     C60319   0.282   4.724   1.432  0.2508 -0.2724  0.8552
  438MOL0     C60320   0.195   4.602   1.383 -0.0183 -0.8813 -0.4629
  438MOL0     C60321   0.258   4.466   1.409  0.3175 -0.5084  0.0710
  438MOL0     C60322   0.154   4.355   1.372  0.0944 -0.5714  0.2360
  438MOL0     N60323   0.216   4.233   1.414 -0.0105 -0.5403 -0.3726
  438MOL0     C60324   0.313   4.158   1.348  0.5848  0.0754 -0.2759
  438MOL0     C60325   0.322   4.056   1.430 -0.9066  0.7048 -0.6933
  438MOL0     C60326   0.402   3.931   1.413  1.1916  0.1929  1.1224
  438MOL0     C60327   0.505   3.921   1.526  0.6207  0.1645 -0.2449
  438MOL0     C60328   0.603   3.798   1.494 -0.3701 -0.5418  0.2484
  438MOL0     C60329   0.652   3.721   1.613  0.8387 -0.1318 -0.6480
  438MOL0     O60330   0.743   3.798   1.687 -0.0002 -0.0095  0.2332
  438MOL0     C60331   0.863   3.752   1.668 -1.0905 -0.0567  0.9301
  438MOL0     C60332   0.915   3.655   1.757 -0.3244 -0.4668 -0.1936
  438MOL0     C60333   1.056   3.644   1.768  0.0974  0.3103 -0.3310
  438MOL0     C60334   1.111   3.584   1.899 -0.2730 -0.2814 -0.3741
  438MOL0     C60335   1.141   3.697   1.666 -0.5722  1.2534 -0.1189
  438MOL0     C60336   1.291   3.689   1.675  0.1253  0.2360  0.0235
  438MOL0     O60337   1.348   3.636   1.563  0.2376 -0.5971 -0.3338
  438MOL0     C60338   1.485   3.616   1.582  1.2083  0.7314  0.8532
  438MOL0     C60339   1.529   3.510   1.664  0.3765 -0.4908  0.4801
  438MOL0     C60340   1.666   3.514   1.699  0.5386  1.4832  0.0392
  438MOL0     C60341   1.755   3.597   1.644 -0.0986 -0.2100  0.3221
  438MOL0     O60342   1.891   3.604   1.653 -0.3771 -0.4019  0.1217
  438MOL0     C60343   1.958   3.510   1.746  0.7924  0.4056  0.8217
  438MOL0     C60344   2.096   3.544   1.758 -0.1104  0.3297 -0.8617
  438MOL0     C60345   2.162   3.453   1.860 -0.2825  0.3563 -0.8827
  438MOL0     C60346   2.313   3.488   1.886  0.3824  0.5556 -0.5015
  438MOL0     C60347   2.373   3.413   2.006  0.5370  0.0786  0.1239
  438MOL0     C60348   2.527   3.433   2.025  0.5249 -0.2080 -0.6441
  438MOL0     C60349   2.607   3.380   1.902  0.1755 -0.3619 -0.0030
  438MOL0     C60350   2.754   3.348   1.946  0.8191  0.3067 -0.1564
  438MOL0    Cl60351   2.758   3.188   2.038  0.0580 -0.3822 -0.1514
  438MOL0     C60352   1.702   3.709   1.575  0.0095 -0.2847 -0.2333
  438MOL0     C60353   1.566   3.727   1.554  0.5700  0.3467  0.2492
  438MOL0     O60354   1.349   3.730   1.779 -0.2946  0.0434 -0.2054
  438MOL0     C60355   1.089   3.781   1.572  0.6279 -0.0710 -0.0259
  438MOL0     C60356   0.952   3.812   1.575 -0.1493 -1.1462  0.7836
  438MOL0     N60357   0.241   4.067   1.542 -0.4815  0.7132 -0.3734
  438MOL0     N60358   0.176   4.166   1.528  0.1722 -0.1294 -0.2865
  438MOL0     C60359   0.591   5.378   1.620  1.3867 -0.0623  0.6406
  438MOL0     C60360   0.654   5.504   1.609  0.5933  0.5465  0.2174
  438MOL0     C60361   1.049   5.735   1.616  0.2645 -0.5710 -0.2234
  438MOL0     C60362   1.059   5.795   1.491  0.3222  0.0662  1.1637
  438MOL0     C60363   1.160   5.891   1.451 -0.9980 -0.2206  0.2246
  438MOL0     C60364   1.250   5.933   1.547 -0.2588 -0.1500 -0.0184
  438MOL0     O60365   1.358   6.018   1.510  0.4866 -0.7062 -0.5101
  438MOL0     C60366   1.469   6.039   1.592  0.5871  0.1600  0.2470
  438MOL0     C60367   1.563   5.916   1.562 -0.4254 -0.8750  0.4314
  438MOL0     C60368   1.678   5.942   1.664  1.0127  0.2001 -0.4122
  438MOL0     C60369   1.812   5.882   1.604  0.3874 -0.1999  0.0939
  438MOL0     C60370   1.934   5.916   1.673  0.1315 -0.3977  0.1575
  438MOL0     C60371   2.043   5.939   1.721 -0.2187 -0.5206 -0.5330
  438MOL0     C60372   1.234   5.871   1.671  0.6921  0.7824 -0.6096
  438MOL0     C60373   1.144   5.774   1.707  0.1461 -0.5151  0.5407
  438MOL0     C60374   1.152   5.724   1.850 -0.4954  0.1392  0.3516
  438MOL0     H60375   0.897   5.418   1.400  0.8953  5.2524  1.7392
  438MOL0     H60376   0.784   5.202   1.406  2.7706 -0.0303  0.4868
  438MOL0     H60377   0.370   5.224   1.580  1.4287  0.9170 -1.5982
  438MOL0     H60378   0.452   5.154   1.721  2.9385 -1.0688 -1.0027
  438MOL0     H60379   0.432   4.930   1.631  1.5099  3.0202 -0.3373
  438MOL0     H60380   0.281   5.005   1.669  1.9541  4.9885  2.4718
  438MOL0     H60381   0.225   5.064   1.447  2.3328  2.0840 -4.5305
  438MOL0     H60382   0.358   4.974   1.376 -0.7447 -2.0749  0.3090
  438MOL0     H60383   0.145   4.836   1.559  2.9783 -1.9485  1.8800
  438MOL0     H60384   0.116   4.852   1.385 -1.9313 -0.1067  1.0850
  438MOL0     H60385   0.329   4.705   1.529  1.5228 -1.5306  0.0361
  438MOL0     H60386   0.350   4.749   1.350  0.2994 -0.3125  0.8834
  438MOL0     H60387   0.107   4.607   1.448  0.7679  1.2237  0.5389
  438MOL0     H60388   0.164   4.617   1.279 -0.1230  1.6481 -0.1461
  438MOL0     H60389   0.293   4.450   1.511 -1.7551  0.4754  1.0061
  438MOL0     H60390   0.346   4.452   1.347  0.0783 -2.4250  0.1012
  438MOL0     H60391   0.067   4.373   1.435  1.7624 -1.4397  2.9523
  438MOL0     H60392   0.121   4.354   1.267 -0.1398 -0.1709  0.3042
  438MOL0     H60393   0.349   4.179   1.247 -2.8426  0.2797 -1.6036
  438MOL0     H60394   0.453   3.944   1.317  1.0158 -0.1817  0.9766
  438MOL0     H60395   0.336   3.844   1.412  3.4487 -1.5978  0.8107
  438MOL0     H60396   0.560   4.015   1.529  1.9051 -0.2003 -5.0122
  438MOL0     H60397   0.457   3.903   1.623  0.5547 -2.1593 -0.6461
  438MOL0     H60398   0.543   3.729   1.434 -0.7329 -0.5813  0.6575
  438MOL0     H60399   0.696   3.820   1.440  0.8456 -2.1428  1.6000
  438MOL0     H60400   0.564   3.696   1.674 -0.0628  0.1713 -1.7891
  438MOL0     H60401   0.701   3.636   1.566  0.8773  0.3759 -1.5452
  438MOL0     H60402   0.856   3.599   1.828  0.4114  1.2081  1.8373
  438MOL0     H60403   1.037   3.534   1.962 -0.2867  1.5063  1.1101
  438MOL0     H60404   1.154   3.660   1.965 -0.8293 -1.3092  1.2303
  438MOL0     H60405   1.195   3.518   1.875  1.9491  1.9199  0.9181
  438MOL0     H60406   1.462   3.432   1.697 -0.1860 -0.3081 -0.1918
  438MOL0     H60407   1.705   3.430   1.755 -0.3029 -0.3106 -1.9206
  438MOL0     H60408   1.909   3.504   1.844 -1.5893 -0.1002 -0.3307
  438MOL0     H60409   1.952   3.416   1.691 -2.1417  1.7603 -1.4790
  438MOL0     H60410   2.136   3.541   1.656 -1.4846 -0.7885 -1.4031
  438MOL0     H60411   2.105   3.649   1.787  1.9105  0.0044 -0.1589
  438MOL0     H60412   2.148   3.352   1.821 -1.0099  0.2284 -0.3337
  438MOL0     H60413   2.123   3.455   1.963  1.2701 -3.8166 -0.0139
  438MOL0     H60414   2.326   3.595   1.904 -1.8464  1.0617 -1.5210
  438MOL0     H60415   2.370   3.467   1.795  1.9883 -0.8378  0.7454
  438MOL0     H60416   2.321   3.454   2.093  0.2576 -1.0513  0.5202
  438MOL0     H60417   2.362   3.305   1.990  0.9250  0.1391 -0.5591
  438MOL0     H60418   2.562   3.382   2.115  1.3921  1.1315 -0.1839
  438MOL0     H60419   2.537   3.539   2.053  1.2072 -0.2197 -0.8248
  438MOL0     H60420   2.604   3.462   1.829 -0.6265 -0.8678 -0.5533
  438MOL0     H60421   2.572   3.290   1.851  0.3519 -0.3854 -0.0836
  438MOL0     H60422   2.781   3.426   2.019  1.8502 -0.1517 -0.0239
  438MOL0     H60423   2.830   3.343   1.868  3.5395 -0.2860  2.3442
  438MOL0     H60424   1.764   3.794   1.547 -0.5306 -0.6419 -2.7504
  438MOL0     H60425   1.526   3.820   1.514 -0.6859  0.7627  2.3276
  438MOL0     H60426   1.136   3.824   1.484  2.1352  2.3411  1.8232
  438MOL0     H60427   0.914   3.887   1.507  1.7760 -0.3974  0.4662
  438MOL0     H60428   0.512   5.355   1.690 -1.2112 -1.8377 -2.5705
  438MOL0     H60429   0.596   5.580   1.660 -2.1214  0.0290 -1.8159
  438MOL0     H60430   0.984   5.780   1.415  1.1330  1.1108  0.1221
  438MOL0     H60431   1.188   5.938   1.357  1.7787 -0.5695  0.7984
  438MOL0     H60432   1.515   6.135   1.567 -3.0993  2.4604  1.5144
  438MOL0     H60433   1.429   6.054   1.692 -4.8962 -1.2704 -1.3628
  438MOL0     H60434   1.602   5.931   1.460  2.4014 -0.3298  1.4938
  438MOL0     H60435   1.514   5.818   1.567 -2.5899  0.2332  2.0817
  438MOL0     H60436   1.695   6.048   1.688  2.4225  0.5145 -2.4954
  438MOL0     H60437   1.651   5.884   1.752 -0.6982  1.5400  0.0146
  438MOL0     H60438   1.817   5.927   1.504  0.2989  0.1638  0.2518
  438MOL0     H60439   1.799   5.779   1.571  1.6010  0.1063 -1.4931
  438MOL0     H60440   2.132   5.949   1.780 -1.1874  0.7596  0.7588
  438MOL0     H60441   1.308   5.897   1.746  0.4160  0.0412 -0.0769
  438MOL0     H60442   1.056   5.721   1.901 -1.6106 -2.2684 -1.6381
  438MOL0     H60443   1.197   5.624   1.843  1.6435  1.0714  0.2074
  438MOL0     H60444   1.222   5.786   1.906 -1.9056  0.3047  1.9864
  439MOL0     O60445   0.072  11.404  10.378  0.1500 -0.2874 -0.6220
  439MOL0     C60446   0.162  11.490  10.362 -0.0689 -0.2955  0.6663
  439MOL0     O60447   0.238  11.490  10.253 -0.0015 -0.4989 -0.9319
  439MOL0     C60448   0.240  11.387  10.173 -0.1510  1.1821 -0.0424
  439MOL0     C60449   0.270  11.263  10.225  0.8545 -0.1034  0.2270
  439MOL0     C60450   0.285  11.153  10.136 -0.6497 -0.7945  0.6995
  439MOL0     C60451   0.262  11.172   9.995 -0.8677  0.0731  1.1322
  439MOL0     O60452   0.261  11.069   9.904  0.1340 -0.0859  0.0672
  439MOL0     C60453   0.314  10.940   9.939 -0.5191 -0.8071  0.6845
  439MOL0     C60454   0.472  10.930   9.923 -0.1467  0.3631 -0.4961
  439MOL0     C60455   0.520  10.942   9.778 -0.4025 -0.4010 -0.1589
  439MOL0     C60456   0.676  10.949   9.774  0.2052 -0.3157 -0.1866
  439MOL0     C60457   0.714  10.994   9.633 -0.6082 -0.2401 -0.4887
  439MOL0     C60458   0.862  11.012   9.608  0.1978 -0.5013  0.1909
  439MOL0     C60459   0.893  11.073   9.472  0.1219  0.3649  0.1548
  439MOL0     C60460   1.033  11.082   9.410  0.1685  0.5320 -0.1422
  439MOL0     N60461   1.094  10.950   9.388 -0.4129 -0.0848  0.2706
  439MOL0     C60462   1.190  10.890   9.460 -0.2697 -0.3640 -0.0472
  439MOL0     C60463   1.211  10.761   9.416 -0.8817  0.3329  0.3684
  439MOL0     C60464   1.293  10.652   9.481  0.0532  0.2644  0.5549
  439MOL0     C60465   1.214  10.522   9.496 -0.7864 -0.1226  0.5311
  439MOL0     C60466   1.138  10.535   9.627  0.4467 -0.5424 -0.0786
  439MOL0     C60467   1.052  10.416   9.660 -0.3535 -0.4127  0.0807
  439MOL0     O60468   1.136  10.306   9.665 -0.0543  0.3922  0.1887
  439MOL0     C60469   1.083  10.185   9.705 -0.0927 -0.7613  0.3697
  439MOL0     C60470   0.956  10.178   9.762  0.0928  0.1707 -0.0295
  439MOL0     C60471   0.896  10.057   9.782 -0.4651  0.8089 -0.3112
  439MOL0     C60472   0.750  10.052   9.824 -0.1457  0.6620 -0.9021
  439MOL0     C60473   0.970   9.936   9.774 -0.7087  0.0541  0.0798
  439MOL0     C60474   0.921   9.795   9.794 -0.6025  0.2421 -0.7952
  439MOL0     O60475   1.010   9.688   9.803  0.0190 -0.8112 -0.2707
  439MOL0     C60476   0.973   9.559   9.829 -0.6274 -0.0054 -0.0154
  439MOL0     C60477   0.855   9.490   9.810  0.4284  0.6440 -0.1973
  439MOL0     C60478   0.843   9.354   9.848  0.0522  0.2983  0.2816
  439MOL0     C60479   0.949   9.283   9.908 -0.6302 -0.0622  0.3394
  439MOL0     O60480   0.923   9.155   9.952  0.1044  0.6351 -0.2262
  439MOL0     C60481   1.040   9.086  10.007 -0.5067 -0.7764  0.5456
  439MOL0     C60482   1.002   8.943  10.061 -0.7042  0.0868  0.4815
  439MOL0     C60483   1.121   8.858  10.108  0.7210  0.0567  0.2339
  439MOL0     C60484   1.188   8.904  10.225 -0.4031  0.4585 -0.4792
  439MOL0     C60485   1.286   8.791  10.273  0.6419 -0.0053  0.1714
  439MOL0     C60486   1.365   8.832  10.400 -0.1218 -0.8093 -0.9719
  439MOL0     C60487   1.468   8.736  10.446 -0.4648  0.3807  0.6444
  439MOL0     C60488   1.505   8.723  10.595 -0.6731 -0.0754 -0.6167
  439MOL0    Cl60489   1.608   8.571  10.617 -0.1224  0.1059 -0.0031
  439MOL0     C60490   1.072   9.361   9.921  0.2579  0.3859 -0.0855
  439MOL0     C60491   1.077   9.496   9.892  0.1039  0.7893  0.0905
  439MOL0     O60492   0.799   9.774   9.785 -0.1310  0.0597  0.5185
  439MOL0     C60493   1.109   9.954   9.739 -0.2631  0.0770 -0.7191
  439MOL0     C60494   1.159  10.069   9.697 -0.5016 -0.3501  0.9242
  439MOL0     N60495   1.132  10.759   9.292 -0.9195 -0.3199  0.4155
  439MOL0     N60496   1.057  10.863   9.281  0.4611  0.2299 -0.0087
  439MOL0     C60497   0.224  11.297   9.939 -0.3640 -0.5287 -0.7529
  439MOL0     C60498   0.216  11.406  10.031  0.4352  0.5002 -0.0966
  439MOL0     C60499   0.191  11.588  10.459  0.3904  0.2845 -0.3940
  439MOL0     C60500   0.307  11.663  10.441 -0.2207  0.2422  0.0002
  439MOL0     C60501   0.358  11.747  10.541 -0.4677  0.0590 -0.6193
  439MOL0     C60502   0.287  11.764  10.659  0.6049 -0.5622 -0.8320
  439MOL0     O60503   0.327  11.842  10.761  0.2652  0.5122  0.9340
  439MOL0     C60504   0.432  11.932  10.725  0.2912  1.1719 -0.0789
  439MOL0     C60505   0.454  12.007  10.849 -0.0324  0.5840  0.2698
  439MOL0     C60506   0.537  11.933  10.961 -0.0163 -0.0051 -0.1166
  439MOL0     C60507   0.515  12.008  11.087 -0.7278 -0.4634  0.3464
  439MOL0     C60508   0.569  11.943  11.205  0.2693  0.0596  0.9788
  439MOL0     C60509   0.627  11.892  11.298  0.1354  0.7846 -0.0428
  439MOL0     C60510   0.176  11.692  10.675 -0.2115 -0.0153 -0.3917
  439MOL0     C60511   0.129  11.602  10.586  0.3176 -0.9647  0.5072
  439MOL0     C60512   0.004  11.519  10.619 -0.0059 -0.3352 -0.4551
  439MOL0     H60513   0.284  11.243  10.331  0.3417 -0.4594  0.2333
  439MOL0     H60514   0.312  11.054  10.170  3.2462 -0.6113 -1.2249
  439MOL0     H60515   0.271  10.863   9.874  0.7859 -1.5072  0.6321
  439MOL0     H60516   0.295  10.913  10.044 -0.0156  2.3833  1.7137
  439MOL0     H60517   0.504  11.018   9.981 -0.4458 -0.4342  0.9227
  439MOL0     H60518   0.517  10.843   9.972  1.0267  0.1564 -1.8839
  439MOL0     H60519   0.485  10.857   9.718 -0.2687  1.8035 -3.5928
  439MOL0     H60520   0.473  11.036   9.748 -0.1268 -0.2949 -0.2707
  439MOL0     H60521   0.718  11.036   9.826  0.9751  0.5620 -2.1576
  439MOL0     H60522   0.725  10.856   9.804  0.9489  1.2776  4.1706
  439MOL0     H60523   0.664  11.088   9.608  1.2592  0.9118 -0.1123
  439MOL0     H60524   0.672  10.916   9.567 -1.5347 -0.5069  0.3961
  439MOL0     H60525   0.887  11.086   9.685 -1.3030  0.6943 -0.4261
  439MOL0     H60526   0.917  10.918   9.621  2.0005  0.2804 -1.2542
  439MOL0     H60527   0.856  11.176   9.469 -2.0807 -0.3175  1.6376
  439MOL0     H60528   0.829  11.023   9.398 -0.5631  0.9673  0.3240
  439MOL0     H60529   1.033  11.135   9.314 -0.9284  0.8660  0.0356
  439MOL0     H60530   1.106  11.132   9.475  0.3920 -0.7708  0.6545
  439MOL0     H60531   1.246  10.936   9.541  0.8579 -2.8910  0.7103
  439MOL0     H60532   1.333  10.666   9.582  1.0423  0.6469  0.1168
  439MOL0     H60533   1.375  10.628   9.413  0.0218  0.8749  0.2967
  439MOL0     H60534   1.143  10.515   9.413  0.8845  1.4159 -1.1157
  439MOL0     H60535   1.283  10.437   9.495  1.8764  1.9159 -0.5210
  439MOL0     H60536   1.205  10.554   9.711  0.1112  2.6005 -0.4261
  439MOL0     H60537   1.073  10.622   9.623 -1.4212 -1.8811 -0.3577
  439MOL0     H60538   1.016  10.448   9.758 -1.6409  1.2294 -0.8860
  439MOL0     H60539   0.972  10.393   9.588 -0.0734  1.0621 -0.7338
  439MOL0     H60540   0.895  10.267   9.770 -4.6672 -2.7596 -0.2553
  439MOL0     H60541   0.692  10.143   9.804  1.2821  1.2656 -2.5237
  439MOL0     H60542   0.740  10.032   9.931 -0.2751 -0.5346 -1.1276
  439MOL0     H60543   0.694   9.975   9.769  2.3749  0.2854 -3.1322
  439MOL0     H60544   0.770   9.541   9.765  0.8092  0.0350 -1.6910
  439MOL0     H60545   0.747   9.310   9.821  0.5690 -0.5816 -0.1655
  439MOL0     H60546   1.124   9.067   9.939  1.0821  0.1765  2.1475
  439MOL0     H60547   1.087   9.145  10.086 -0.6597  2.2765 -1.4640
  439MOL0     H60548   0.929   8.962  10.141 -0.7369  1.3999  0.1593
  439MOL0     H60549   0.946   8.903   9.976  0.2919 -1.1261  0.3670
  439MOL0     H60550   1.196   8.840  10.031 -0.3009  1.5218 -1.1700
  439MOL0     H60551   1.084   8.759  10.136  1.6770 -0.8280 -1.4652
  439MOL0     H60552   1.109   8.927  10.298  1.2017 -0.9880  1.8578
  439MOL0     H60553   1.235   9.001  10.205 -0.2556  0.6018  0.4973
  439MOL0     H60554   1.240   8.692  10.283  1.3598 -0.5783 -1.7185
  439MOL0     H60555   1.364   8.780  10.197  0.0278 -2.4850 -0.2037
  439MOL0     H60556   1.298   8.848  10.485  0.4172 -2.8609 -0.1112
  439MOL0     H60557   1.404   8.932  10.378  0.5989 -0.4797  1.5957
  439MOL0     H60558   1.557   8.762  10.389 -0.6906 -0.3103 -0.0445
  439MOL0     H60559   1.446   8.635  10.409 -4.6480  1.7628 -1.2731
  439MOL0     H60560   1.410   8.715  10.648 -1.6215 -0.1324 -2.2539
  439MOL0     H60561   1.563   8.810  10.626 -2.0424  1.4198 -2.0495
  439MOL0     H60562   1.161   9.316   9.963 -1.4836 -2.2573  1.0750
  439MOL0     H60563   1.171   9.549   9.905  1.3286 -1.0839 -0.6391
  439MOL0     H60564   1.166   9.862   9.731 -0.1358  0.0554  0.3169
  439MOL0     H60565   1.263  10.092   9.678 -0.7134  2.0646  2.1734
  439MOL0     H60566   0.198  11.315   9.835 -0.2614  1.0027 -0.5342
  439MOL0     H60567   0.198  11.504   9.988  1.2439 -0.3723 -2.6284
  439MOL0     H60568   0.372  11.659  10.355  2.8355 -0.1458  2.1636
  439MOL0     H60569   0.459  11.780  10.520 -0.3075  1.8462  2.3067
  439MOL0     H60570   0.512  11.861  10.701 -2.1565 -1.8035 -0.0303
  439MOL0     H60571   0.394  11.995  10.645  0.1590  1.0882 -0.0810
  439MOL0     H60572   0.363  12.055  10.888  1.1652  1.9474  1.4995
  439MOL0     H60573   0.512  12.094  10.816 -2.0949  1.7139 -0.6273
  439MOL0     H60574   0.505  11.828  10.965 -1.9889  0.5959  1.8382
  439MOL0     H60575   0.639  11.930  10.921 -0.9110  0.3741 -2.5779
  439MOL0     H60576   0.409  12.031  11.096 -0.0063  4.0460 -0.4826
  439MOL0     H60577   0.553  12.110  11.075  0.0960 -1.0705 -3.3543
  439MOL0     H60578   0.669  11.838  11.380  1.5161  2.4897  0.4242
  439MOL0     H60579   0.121  11.696  10.768  1.4915  3.1688  0.6177
  439MOL0     H60580   0.032  11.424  10.666 -3.0018 -0.8656  0.4713
  439MOL0     H60581  -0.055  11.569  10.696 -1.2410 -2.8293  0.3601
  439MOL0     H60582  -0.062  11.517  10.531  0.8902  1.4339 -1.2190
  440MOL0     O60583   7.056   5.047   2.170 -0.7710 -0.3493 -0.5438
  440MOL0     C60584   7.025   5.065   2.287  0.9108 -0.1272 -0.1774
  440MOL0     O60585   7.102   5.110   2.381  0.0966 -0.6659  1.3079
  440MOL0     C60586   7.226   5.170   2.348  0.8425 -0.8019 -0.1486
  440MOL0     C60587   7.320   5.158   2.445 -0.0367 -1.3729  0.4123
  440MOL0     C60588   7.443   5.224   2.429 -0.3200 -0.5787  0.0352
  440MOL0     C60589   7.477   5.304   2.316  0.4306  0.2654  0.6690
  440MOL0     O60590   7.611   5.357   2.298  0.1681  0.3835  0.2770
  440MOL0     C60591   7.703   5.344   2.410 -0.3192  0.1004 -0.0746
  440MOL0     C60592   7.833   5.412   2.368 -1.0691  0.8420  0.6720
  440MOL0     C60593   7.959   5.369   2.450 -0.8707 -0.0802  0.3528
  440MOL0     C60594   8.085   5.420   2.374  0.5969 -0.0680 -0.1198
  440MOL0     C60595   8.214   5.368   2.428  0.4116  0.2381  0.0573
  440MOL0     C60596   8.331   5.407   2.335  0.7247 -0.5640  0.9974
  440MOL0     C60597   8.464   5.398   2.399 -0.4730  0.4357 -0.2758
  440MOL0     C60598   8.511   5.249   2.440 -0.9071  0.0912 -0.2108
  440MOL0     N60599   8.647   5.246   2.498 -0.0053 -0.2162 -0.0799
  440MOL0     C60600   8.681   5.263   2.628  0.4522 -0.0090 -0.0812
  440MOL0     C60601   8.793   5.179   2.641  0.2769  0.0303  0.1911
  440MOL0     C60602   8.852   5.143   2.774  0.4049 -0.0581  0.4875
  440MOL0     C60603   8.762   5.149   2.899 -0.4644 -0.3089  0.3801
  440MOL0     C60604   8.831   5.126   3.036  0.1453  0.1103 -0.0975
  440MOL0     C60605   8.916   5.248   3.079  0.7436  0.9544 -0.3915
  440MOL0     O60606   8.845   5.324   3.184 -0.5262  1.3265 -0.1201
  440MOL0     C60607   8.925   5.389   3.269 -0.2316  0.6330 -0.7371
  440MOL0     C60608   8.882   5.429   3.391 -0.6478 -0.3759 -0.1342
  440MOL0     C60609   8.951   5.487   3.495  0.3824 -0.0181 -0.0857
  440MOL0     C60610   8.863   5.522   3.617 -0.0696  0.1255 -0.7645
  440MOL0     C60611   9.084   5.524   3.465  0.8396  0.0941 -0.2563
  440MOL0     C60612   9.170   5.607   3.555 -0.8951  0.1034 -0.0245
  440MOL0     O60613   9.130   5.614   3.685  0.4381 -0.0960 -0.4586
  440MOL0     C60614   9.181   5.692   3.790  0.1875 -0.3833 -0.4915
  440MOL0     C60615   9.096   5.720   3.905 -1.4928 -0.1583  0.8021
  440MOL0     C60616   9.133   5.811   4.001  0.0778 -0.1663 -0.5655
  440MOL0     C60617   9.260   5.862   4.005 -0.1659 -0.6710 -0.3074
  440MOL0     O60618   9.302   5.940   4.106 -0.4062  0.0400 -0.3587
  440MOL0     C60619   9.229   5.936   4.227 -0.5039  0.3519 -0.7037
  440MOL0     C60620   9.302   6.040   4.323 -0.8385 -0.7767  0.0072
  440MOL0     C60621   9.262   6.175   4.280  0.5091  0.6926 -0.6335
  440MOL0     C60622   9.327   6.290   4.360  0.1262 -0.9685 -0.1689
  440MOL0     C60623   9.254   6.417   4.328  0.1518 -0.9183  0.2752
  440MOL0     C60624   9.271   6.444   4.178  0.0422 -0.5833  0.3586
  440MOL0     C60625   9.419   6.477   4.137  0.3727 -0.5313 -1.3793
  440MOL0     C60626   9.417   6.542   4.006 -0.2099 -0.8128  0.1865
  440MOL0    Cl60627   9.579   6.557   3.941  0.3847 -0.1352  0.0106
  440MOL0     C60628   9.352   5.829   3.905 -0.5262  0.0222  0.7669
  440MOL0     C60629   9.315   5.748   3.793 -0.2282  1.0008  0.3814
  440MOL0     O60630   9.263   5.672   3.503  0.1224  0.4326  0.2983
  440MOL0     C60631   9.135   5.494   3.336  0.1400  0.0815 -0.9305
  440MOL0     C60632   9.057   5.428   3.239  0.3842  0.2877 -0.6966
  440MOL0     N60633   8.818   5.119   2.522 -0.2756 -0.5380 -0.1548
  440MOL0     N60634   8.735   5.168   2.434 -0.1781 -0.4024 -0.5981
  440MOL0     C60635   7.373   5.320   2.217 -0.5223 -0.5966 -0.0034
  440MOL0     C60636   7.251   5.250   2.235 -0.1893 -1.3123  0.0429
  440MOL0     C60637   6.889   5.027   2.333  0.6525 -0.3409  0.7080
  440MOL0     C60638   6.843   5.077   2.458  0.1250  1.0529  0.5748
  440MOL0     C60639   6.713   5.056   2.498  0.5218 -1.0524  0.1409
  440MOL0     C60640   6.623   4.971   2.428  0.7440  0.4962 -1.0391
  440MOL0     O60641   6.501   4.931   2.492  0.0306  1.1582  0.2777
  440MOL0     C60642   6.390   4.854   2.413 -0.1739 -0.2540 -1.0379
  440MOL0     C60643   6.285   4.812   2.500 -0.4136 -0.3186  0.4777
  440MOL0     C60644   6.178   4.727   2.425  0.1346 -0.2257  0.5110
  440MOL0     C60645   6.039   4.741   2.498  0.0341 -0.1005  0.0317
  440MOL0     C60646   5.946   4.857   2.473 -0.5937 -0.0736 -0.5194
  440MOL0     C60647   5.884   4.958   2.448  0.1694 -0.1442  0.6103
  440MOL0     C60648   6.670   4.921   2.307  0.8393  0.6477 -0.2374
  440MOL0     C60649   6.794   4.957   2.250  0.6733 -0.0594  0.0142
  440MOL0     C60650   6.827   4.897   2.110 -0.2173 -1.1098 -0.3740
  440MOL0     H60651   7.300   5.095   2.531  4.0747 -4.0711 -0.3462
  440MOL0     H60652   7.514   5.195   2.506 -1.1979 -0.9625  0.7203
  440MOL0     H60653   7.717   5.238   2.431  1.6965  0.4275  0.4050
  440MOL0     H60654   7.673   5.388   2.505  0.3637 -0.0784  0.2279
  440MOL0     H60655   7.853   5.387   2.263  1.0707  2.4413  0.6465
  440MOL0     H60656   7.825   5.521   2.375  2.4677  1.1701  1.6445
  440MOL0     H60657   7.963   5.401   2.555  1.3671 -0.4687  0.4369
  440MOL0     H60658   7.959   5.260   2.446 -0.0361 -0.0798  0.0981
  440MOL0     H60659   8.076   5.394   2.269 -2.3849  0.4194 -0.0492
  440MOL0     H60660   8.082   5.528   2.392 -0.0578 -0.3142  1.4307
  440MOL0     H60661   8.201   5.260   2.440 -2.3359  0.4869 -0.1427
  440MOL0     H60662   8.223   5.404   2.531  0.2898  0.1198  0.1088
  440MOL0     H60663   8.318   5.364   2.235  0.0485  2.3810 -0.3042
  440MOL0     H60664   8.309   5.514   2.330  0.5520 -0.6135  0.6197
  440MOL0     H60665   8.452   5.457   2.490  0.1931  2.7143 -1.5790
  440MOL0     H60666   8.536   5.436   2.325  0.8770 -3.7572 -1.3965
  440MOL0     H60667   8.430   5.205   2.498 -1.1458  1.2992  0.3951
  440MOL0     H60668   8.526   5.192   2.347  3.5855  0.9936 -0.2958
  440MOL0     H60669   8.628   5.316   2.706 -0.0363 -1.1684  0.3943
  440MOL0     H60670   8.948   5.193   2.785  0.5761 -0.0215 -0.9717
  440MOL0     H60671   8.867   5.036   2.758 -0.6053  0.0685 -1.6392
  440MOL0     H60672   8.723   5.251   2.896  0.5397  0.0754 -1.2210
  440MOL0     H60673   8.679   5.080   2.887  1.7554 -3.7056  2.8868
  440MOL0     H60674   8.761   5.110   3.118  0.8697  1.9085  0.9213
  440MOL0     H60675   8.897   5.039   3.025  2.4932  1.9975 -2.0736
  440MOL0     H60676   9.008   5.212   3.124  0.0929  0.3362  0.4804
  440MOL0     H60677   8.951   5.308   2.995  1.8161  0.3096 -0.4218
  440MOL0     H60678   8.773   5.423   3.398 -0.8396  1.9797 -0.5672
  440MOL0     H60679   8.908   5.467   3.700 -0.2210 -0.9058 -1.3496
  440MOL0     H60680   8.758   5.497   3.605  0.0523 -3.0481  2.6469
  440MOL0     H60681   8.854   5.629   3.637 -3.6428 -0.2643  0.3297
  440MOL0     H60682   8.997   5.676   3.905 -1.3384 -0.5134  1.5035
  440MOL0     H60683   9.053   5.832   4.071  0.5637  0.2476 -0.1170
  440MOL0     H60684   9.126   5.968   4.207 -0.9314 -0.2211  0.4788
  440MOL0     H60685   9.236   5.834   4.267 -0.0809 -0.1547 -2.0330
  440MOL0     H60686   9.281   6.027   4.430  1.5851  4.1568  1.3606
  440MOL0     H60687   9.411   6.033   4.313 -0.8611 -0.2965 -0.6605
  440MOL0     H60688   9.154   6.173   4.296  0.3597 -2.6954 -1.3828
  440MOL0     H60689   9.303   6.176   4.178  0.5081 -2.0174 -0.7275
  440MOL0     H60690   9.431   6.301   4.329  0.4010 -0.1914  0.9491
  440MOL0     H60691   9.330   6.274   4.469  1.3129  0.2033 -0.0101
  440MOL0     H60692   9.148   6.421   4.352  0.6140 -0.1942  2.3872
  440MOL0     H60693   9.296   6.499   4.388 -0.3043 -0.0519 -0.5671
  440MOL0     H60694   9.198   6.517   4.143 -2.3532 -2.0316  2.0723
  440MOL0     H60695   9.243   6.356   4.120  1.9994 -1.9582  1.3879
  440MOL0     H60696   9.473   6.383   4.151  1.2794  0.1763  0.1746
  440MOL0     H60697   9.455   6.552   4.208  0.3945 -1.1447 -0.7354
  440MOL0     H60698   9.375   6.642   4.017  2.4791  0.5731 -1.2549
  440MOL0     H60699   9.352   6.486   3.938 -1.9108  1.1199  0.1367
  440MOL0     H60700   9.447   5.881   3.895 -1.2724  1.0308 -2.0008
  440MOL0     H60701   9.379   5.716   3.712 -0.6025  1.7396 -0.2177
  440MOL0     H60702   9.235   5.522   3.303 -0.3582  2.5282 -0.5335
  440MOL0     H60703   9.090   5.411   3.137 -1.2376  0.2434 -1.2482
  440MOL0     H60704   7.396   5.381   2.131  2.8406 -1.0614  0.4007
  440MOL0     H60705   7.180   5.279   2.158  1.8550  1.5523 -0.9373
  440MOL0     H60706   6.905   5.132   2.528  0.3391  1.1398  0.3146
  440MOL0     H60707   6.672   5.092   2.592  1.2724  0.8181 -0.1885
  440MOL0     H60708   6.349   4.910   2.328  0.8840 -1.2347 -2.2507
  440MOL0     H60709   6.440   4.765   2.372 -2.3277 -2.1721  0.2899
  440MOL0     H60710   6.244   4.904   2.543  2.7321  0.5517  1.9135
  440MOL0     H60711   6.343   4.765   2.579 -0.7196  2.2385  2.3350
  440MOL0     H60712   6.168   4.747   2.318 -0.3957  1.9903  0.9252
  440MOL0     H60713   6.208   4.622   2.430  0.2398 -0.3582 -1.7930
  440MOL0     H60714   6.054   4.730   2.605  2.9140  0.8150 -0.1965
  440MOL0     H60715   5.982   4.653   2.466  0.0320  0.0946 -0.5134
  440MOL0     H60716   5.820   5.041   2.426  1.5393  0.7854 -0.0491
  440MOL0     H60717   6.610   4.857   2.243 -1.2503  1.6417  0.6361
  440MOL0     H60718   6.750   4.823   2.089 -2.8718  1.7508 -1.3947
  440MOL0     H60719   6.811   4.976   2.036 -2.5409 -1.9828 -0.8736
  440MOL0     H60720   6.922   4.844   2.093 -0.1640 -1.1577  0.0467
  441MOL0     O60721  11.232   9.515   3.636  0.0470  0.3057  0.0962
  441MOL0     C60722  11.209   9.607   3.555 -1.0057 -0.0168 -0.8981
  441MOL0     O60723  11.133   9.711   3.576 -0.0968 -0.3813  0.2500
  441MOL0     C60724  11.079   9.734   3.699 -0.3614 -0.7815 -0.0270
  441MOL0     C60725  11.133   9.853   3.776  1.1895  0.3317 -0.0048
  441MOL0     C60726  11.068   9.894   3.899 -1.1275  0.4820  0.3520
  441MOL0     C60727  10.953   9.830   3.955 -0.4589 -0.1443  0.1131
  441MOL0     O60728  10.897   9.869   4.070  0.7404  0.0887  0.0972
  441MOL0     C60729  10.777   9.937   4.047  0.8764  1.4240  0.4238
  441MOL0     C60730  10.719   9.975   4.185  0.1679 -0.5229 -0.4208
  441MOL0     C60731  10.785  10.097   4.257  0.3501  0.3003  0.2840
  441MOL0     C60732  10.936  10.079   4.278 -0.0446  0.4316  0.5408
  441MOL0     C60733  10.986  10.203   4.368 -0.1943  0.4348  0.1393
  441MOL0     C60734  11.139  10.234   4.360 -0.4146 -0.0765 -0.4033
  441MOL0     C60735  11.225  10.150   4.436 -0.8753 -0.3970  0.3688
  441MOL0     C60736  11.279  10.219   4.562  0.4797 -0.8576  0.2811
  441MOL0     N60737  11.372  10.134   4.629 -1.3460 -0.6918 -0.4712
  441MOL0     C60738  11.490  10.088   4.570  0.1925  0.1524 -0.5997
  441MOL0     C60739  11.575  10.038   4.672 -0.1305  0.6434 -0.2458
  441MOL0     C60740  11.721  10.004   4.639  0.7296 -0.5929 -0.2562
  441MOL0     C60741  11.797   9.951   4.759 -0.4220 -0.7511  0.3668
  441MOL0     C60742  11.935   9.994   4.761  0.3570 -0.1148 -0.4112
  441MOL0     C60743  12.013   9.962   4.885  0.8203 -0.3131  0.2833
  441MOL0     O60744  12.006   9.822   4.907  0.0096 -0.1757 -0.4939
  441MOL0     C60745  12.077   9.764   5.013 -0.2758 -0.1686 -0.1458
  441MOL0     C60746  12.076   9.628   5.023 -0.5347 -0.2966  0.3025
  441MOL0     C60747  12.133   9.564   5.130  0.3572  0.1695  0.8547
  441MOL0     C60748  12.130   9.406   5.137  0.4698  0.0448 -0.1324
  441MOL0     C60749  12.194   9.640   5.229  0.2985 -0.5633  0.4397
  441MOL0     C60750  12.253   9.579   5.350 -0.4941 -0.7404 -0.2766
  441MOL0     O60751  12.357   9.641   5.407 -1.1478  0.1837  0.3154
  441MOL0     C60752  12.392   9.603   5.535  0.5427  0.6351  0.3075
  441MOL0     C60753  12.313   9.616   5.649 -0.5248 -1.3399 -0.7898
  441MOL0     C60754  12.367   9.581   5.772  0.7647 -0.2696 -0.3427
  441MOL0     C60755  12.502   9.552   5.796  0.1779 -1.0394  0.2498
  441MOL0     O60756  12.557   9.525   5.917  0.1827  0.4798  0.1052
  441MOL0     C60757  12.544   9.640   6.000 -0.3228 -0.5355  0.3556
  441MOL0     C60758  12.639   9.630   6.122  0.8300  0.3469  0.8843
  441MOL0     C60759  12.635   9.497   6.204  0.2048 -0.6857  0.0252
  441MOL0     C60760  12.728   9.521   6.331 -0.1131 -0.1181  0.0399
  441MOL0     C60761  12.701   9.417   6.443  0.8679  0.2401 -0.1031
  441MOL0     C60762  12.791   9.459   6.562  0.5126 -0.1457 -0.4319
  441MOL0     C60763  12.800   9.325   6.655 -0.0824  0.7032 -0.5578
  441MOL0     C60764  12.901   9.357   6.773  0.2865 -0.1183 -0.0548
  441MOL0    Cl60765  12.891   9.209   6.889 -0.0545 -0.1642  0.5244
  441MOL0     C60766  12.577   9.533   5.687  0.6148  0.2213  0.4672
  441MOL0     C60767  12.525   9.561   5.551 -0.4602 -0.9267 -0.9475
  441MOL0     O60768  12.206   9.477   5.394 -0.8524 -0.2893  0.4241
  441MOL0     C60769  12.204   9.777   5.213 -1.1506 -0.6333  0.4445
  441MOL0     C60770  12.149   9.846   5.104 -1.2577  0.0809  0.2129
  441MOL0     N60771  11.491  10.042   4.785 -0.1191  0.2663  0.5030
  441MOL0     N60772  11.384  10.099   4.762  0.0631  0.8462  0.1041
  441MOL0     C60773  10.898   9.732   3.868  0.3840  0.5900  0.5309
  441MOL0     C60774  10.957   9.682   3.744 -0.1842  0.1910 -0.1035
  441MOL0     C60775  11.277   9.605   3.429 -1.7415  0.3357  0.0107
  441MOL0     C60776  11.417   9.641   3.417  0.2071 -0.6507  0.1357
  441MOL0     C60777  11.476   9.638   3.286 -0.9339 -0.0375  0.0610
  441MOL0     C60778  11.402   9.589   3.177 -1.1541 -0.0559 -0.2396
  441MOL0     O60779  11.463   9.561   3.058  0.0844 -0.6724 -0.0846
  441MOL0     C60780  11.539   9.680   3.002 -0.7096 -0.0497 -0.1439
  441MOL0     C60781  11.463   9.809   2.997  0.8251 -0.7091  0.0757
  441MOL0     C60782  11.497   9.891   2.874  0.2870 -0.3956  1.0189
  441MOL0     C60783  11.647   9.916   2.862  0.6851 -0.0539 -0.3381
  441MOL0     C60784  11.684  10.021   2.765 -0.0595  0.0385 -0.0754
  441MOL0     C60785  11.708  10.113   2.691  0.5691 -0.0670  0.4072
  441MOL0     C60786  11.264   9.568   3.196  0.0041  0.5563  0.0001
  441MOL0     C60787  11.194   9.565   3.320  0.0016 -0.3281  0.7272
  441MOL0     C60788  11.042   9.545   3.322 -0.1508  0.0641  0.1946
  441MOL0     H60789  11.208   9.911   3.722  0.0004 -0.0950 -2.2477
  441MOL0     H60790  11.112   9.975   3.956  0.8581 -1.8091  2.3249
  441MOL0     H60791  10.710   9.876   3.987 -0.8920  3.3748  0.2882
  441MOL0     H60792  10.799  10.034   4.000 -0.3078  1.5701  0.1491
  441MOL0     H60793  10.611   9.985   4.169  0.0853 -0.7819 -0.0294
  441MOL0     H60794  10.720   9.889   4.253 -0.7813  0.5443  0.9892
  441MOL0     H60795  10.758  10.194   4.215 -0.2650  0.9104  2.0093
  441MOL0     H60796  10.742  10.105   4.357 -0.9116 -2.9738  0.1259
  441MOL0     H60797  10.966   9.984   4.322  1.6742  0.6116 -0.1385
  441MOL0     H60798  10.983  10.087   4.179 -2.0714  3.0487 -0.3501
  441MOL0     H60799  10.950  10.180   4.469 -2.0818 -1.6324 -0.9098
  441MOL0     H60800  10.944  10.300   4.341  3.0249  2.0472  0.3953
  441MOL0     H60801  11.161  10.227   4.254 -0.5604 -1.1261 -0.3751
  441MOL0     H60802  11.151  10.337   4.395 -0.3266 -0.9486  2.4608
  441MOL0     H60803  11.312  10.119   4.377 -1.1690  0.6096 -0.6339
  441MOL0     H60804  11.176  10.058   4.469  0.4155 -1.6823 -1.0859
  441MOL0     H60805  11.331  10.311   4.534 -2.9485  1.8709  2.0666
  441MOL0     H60806  11.201  10.247   4.634  0.8725 -2.4626  1.4073
  441MOL0     H60807  11.517  10.119   4.470 -0.2424 -2.3242 -1.5498
  441MOL0     H60808  11.770  10.099   4.615 -0.7146  0.2472  0.0078
  441MOL0     H60809  11.713   9.932   4.558 -1.5051  1.1379 -1.6799
  441MOL0     H60810  11.755   9.978   4.856 -1.2192 -2.1988  0.4586
  441MOL0     H60811  11.798   9.842   4.748 -2.0762 -0.6658 -0.9474
  441MOL0     H60812  11.998   9.948   4.685  5.6833  3.3663  1.3156
  441MOL0     H60813  11.938  10.103   4.752 -0.8394  0.0351  0.7239
  441MOL0     H60814  12.116   9.996   4.873  0.6286 -0.1330 -0.9936
  441MOL0     H60815  11.974  10.011   4.974  2.4379  1.1198  0.2504
  441MOL0     H60816  12.034   9.562   4.947  0.7173  0.7118 -1.3307
  441MOL0     H60817  12.099   9.363   5.042  3.0141 -0.2796 -0.8768
  441MOL0     H60818  12.065   9.384   5.223  0.1572 -2.1730 -0.8746
  441MOL0     H60819  12.228   9.370   5.167  0.0493  0.3859  1.8333
  441MOL0     H60820  12.213   9.654   5.631 -0.1172 -1.1867 -3.0721
  441MOL0     H60821  12.303   9.588   5.859 -3.9872  2.6129 -3.6209
  441MOL0     H60822  12.575   9.726   5.941 -2.4366 -1.2063 -1.8775
  441MOL0     H60823  12.441   9.666   6.023 -0.4304  0.5884 -1.2709
  441MOL0     H60824  12.735   9.638   6.070 -0.4065  1.7238 -1.3666
  441MOL0     H60825  12.639   9.722   6.181  2.1893  2.0157 -1.5681
  441MOL0     H60826  12.679   9.419   6.141 -0.4190 -4.3708  3.7338
  441MOL0     H60827  12.532   9.478   6.234  0.8320 -0.6645  2.3791
  441MOL0     H60828  12.731   9.620   6.377  4.1811 -1.1260  2.4618
  441MOL0     H60829  12.833   9.507   6.302 -0.0673  1.6091 -0.7656
  441MOL0     H60830  12.597   9.410   6.477  1.6626 -0.9438  2.3155
  441MOL0     H60831  12.735   9.325   6.394  2.3651  0.5092  0.3645
  441MOL0     H60832  12.760   9.541   6.627  3.0206 -0.3968  1.2627
  441MOL0     H60833  12.892   9.481   6.527  0.8070 -3.3772 -2.0320
  441MOL0     H60834  12.842   9.249   6.589  0.2171  0.8956 -0.5937
  441MOL0     H60835  12.702   9.308   6.701  0.5403  1.7394  1.2741
  441MOL0     H60836  12.862   9.443   6.828  0.1799 -0.8948  1.1177
  441MOL0     H60837  12.999   9.375   6.727 -0.3556  3.3969 -0.3470
  441MOL0     H60838  12.679   9.495   5.685  0.0502 -1.3692 -0.0283
  441MOL0     H60839  12.589   9.566   5.464  1.7856  3.3900  0.6464
  441MOL0     H60840  12.267   9.834   5.281 -0.8200  0.8035 -0.9907
  441MOL0     H60841  12.162   9.952   5.088  1.7438 -0.3223 -0.7834
  441MOL0     H60842  10.812   9.681   3.909  0.5572  0.7713  1.1345
  441MOL0     H60843  10.902   9.607   3.687 -0.7984 -1.3470  2.3702
  441MOL0     H60844  11.481   9.675   3.498  0.1497 -2.0673  0.8006
  441MOL0     H60845  11.581   9.660   3.272 -1.0365 -1.0384 -2.8779
  441MOL0     H60846  11.624   9.682   3.070 -0.6124 -4.4103  0.1971
  441MOL0     H60847  11.599   9.661   2.912  2.4716  1.8380  1.3996
  441MOL0     H60848  11.481   9.864   3.090  1.1452 -1.0557  0.2215
  441MOL0     H60849  11.356   9.788   2.992  0.1704  2.3361 -0.5146
  441MOL0     H60850  11.469   9.829   2.788  1.3227  0.9948 -0.3760
  441MOL0     H60851  11.436   9.981   2.859  0.0244 -0.4910  1.4824
  441MOL0     H60852  11.701   9.823   2.844 -0.4769 -1.2801  1.9990
  441MOL0     H60853  11.688   9.956   2.955 -1.8265  2.0053  0.0229
  441MOL0     H60854  11.713  10.198   2.627  2.0950  0.9671  1.8284
  441MOL0     H60855  11.205   9.528   3.115  0.3140  0.1309 -0.0210
  441MOL0     H60856  11.011   9.494   3.231 -1.5032 -0.5779  0.9867
  441MOL0     H60857  11.011   9.476   3.401  0.4213  1.6006  1.8362
  441MOL0     H60858  10.990   9.642   3.327 -0.5081 -0.1926  2.4832
  442MOL0     O60859   3.642   7.986   5.770  0.5103 -0.5322 -0.1002
  442MOL0     C60860   3.683   8.005   5.656 -0.1882 -1.1441 -1.1472
  442MOL0     O60861   3.742   7.919   5.563  0.6466  0.2762  0.2286
  442MOL0     C60862   3.728   7.783   5.571  0.0855  0.0534 -0.1076
  442MOL0     C60863   3.628   7.715   5.648  0.6599  0.5424  1.1387
  442MOL0     C60864   3.628   7.570   5.644 -0.4885  0.1375  0.6560
  442MOL0     C60865   3.723   7.497   5.575  0.0443  0.5797  0.9371
  442MOL0     O60866   3.712   7.353   5.566 -0.0498 -0.4421  0.6977
  442MOL0     C60867   3.722   7.287   5.432 -0.2939 -0.3130 -0.6706
  442MOL0     C60868   3.591   7.307   5.354 -0.2008  0.2218 -0.8715
  442MOL0     C60869   3.610   7.250   5.221 -0.4688 -0.6922 -0.2856
  442MOL0     C60870   3.476   7.236   5.158  0.2956  0.2430 -0.4432
  442MOL0     C60871   3.479   7.189   5.012 -0.7204  0.9026 -0.3341
  442MOL0     C60872   3.335   7.172   4.953 -0.5793  0.1583 -0.3611
  442MOL0     C60873   3.331   7.164   4.801  0.2444 -0.9820  0.5963
  442MOL0     C60874   3.194   7.103   4.754  0.1811  0.4852 -0.7623
  442MOL0     N60875   3.071   7.179   4.804  0.3561 -0.4233  0.7087
  442MOL0     C60876   3.007   7.277   4.733  0.5126 -0.4879 -1.2125
  442MOL0     C60877   2.901   7.304   4.815  0.2236 -0.3231 -1.1388
  442MOL0     C60878   2.806   7.422   4.792  0.0720  0.2935  0.9602
  442MOL0     C60879   2.674   7.376   4.738  1.0515  0.2154  0.6128
  442MOL0     C60880   2.561   7.473   4.759 -1.0121 -0.8393  0.4786
  442MOL0     C60881   2.431   7.442   4.678  0.0163  0.3472 -0.7085
  442MOL0     O60882   2.336   7.540   4.708  0.4374  0.1250 -0.2388
  442MOL0     C60883   2.208   7.545   4.656 -0.1360 -0.5528  0.2599
  442MOL0     C60884   2.148   7.448   4.573 -0.7693  0.7494 -0.8168
  442MOL0     C60885   2.026   7.472   4.510  0.5047 -0.6224  0.0513
  442MOL0     C60886   1.974   7.356   4.431  0.4341  0.5433 -0.6350
  442MOL0     C60887   1.948   7.577   4.551 -0.3345 -0.4927 -0.7386
  442MOL0     C60888   1.803   7.599   4.514  0.5589 -1.3140 -1.0584
  442MOL0     O60889   1.736   7.498   4.457  0.0598  0.3803 -0.0793
  442MOL0     C60890   1.593   7.513   4.474 -0.1956  1.0700  0.4184
  442MOL0     C60891   1.517   7.603   4.391  0.0033 -0.2802  0.0330
  442MOL0     C60892   1.378   7.615   4.416  0.7670 -0.2522  0.6757
  442MOL0     C60893   1.306   7.531   4.505 -0.1209  0.9042 -0.7846
  442MOL0     O60894   1.168   7.514   4.529 -0.6141  0.1259  0.6869
  442MOL0     C60895   1.081   7.583   4.427 -0.1825  0.7828 -0.2335
  442MOL0     C60896   1.019   7.707   4.484  0.3149 -0.6455 -0.5357
  442MOL0     C60897   0.938   7.670   4.614 -0.0566 -0.5455  0.4248
  442MOL0     C60898   0.876   7.793   4.672 -0.0568 -1.2335  0.4854
  442MOL0     C60899   0.833   7.775   4.827 -0.3405 -0.1747 -0.7920
  442MOL0     C60900   0.713   7.866   4.838  0.2068  0.2822  0.1380
  442MOL0     C60901   0.665   7.869   4.987  0.5020 -0.0963 -0.5287
  442MOL0     C60902   0.519   7.884   4.989  0.9745  0.4882 -0.4444
  442MOL0    Cl60903   0.439   7.741   4.924  0.3493  0.3752  0.0751
  442MOL0     C60904   1.381   7.438   4.578 -0.3531 -0.8621  1.1816
  442MOL0     C60905   1.523   7.435   4.568 -0.4849  0.0856 -0.2662
  442MOL0     O60906   1.752   7.712   4.542  0.0345  0.4685  0.2782
  442MOL0     C60907   2.005   7.673   4.640 -0.6189 -0.1641  0.4368
  442MOL0     C60908   2.135   7.658   4.687  0.3255  0.1563 -0.8392
  442MOL0     N60909   2.896   7.224   4.930 -0.7683  0.5629 -0.0549
  442MOL0     N60910   3.009   7.154   4.924  0.3149  0.3063  0.0439
  442MOL0     C60911   3.815   7.569   5.501 -0.0499 -0.7342  0.1027
  442MOL0     C60912   3.820   7.707   5.504  0.9178  0.1947  0.4690
  442MOL0     C60913   3.691   8.145   5.606  0.2808  0.0899  0.3208
  442MOL0     C60914   3.578   8.238   5.624 -0.1795  0.7806  0.1052
  442MOL0     C60915   3.581   8.369   5.560  0.1722 -0.3330 -0.1783
  442MOL0     C60916   3.696   8.412   5.494  0.5053  0.4368  0.3344
  442MOL0     O60917   3.725   8.540   5.452  0.9543  0.6116  0.1946
  442MOL0     C60918   3.655   8.649   5.510  0.3610  1.6675 -0.2709
  442MOL0     C60919   3.624   8.745   5.403  0.1085  0.4607 -0.1635
  442MOL0     C60920   3.570   8.874   5.454 -0.2072 -0.7963 -0.6726
  442MOL0     C60921   3.565   8.982   5.346 -0.6532 -0.4114  0.2398
  442MOL0     C60922   3.451   8.960   5.252 -0.0786  0.3245  0.1334
  442MOL0     C60923   3.359   8.936   5.180  0.5670  0.8923  0.4065
  442MOL0     C60924   3.806   8.324   5.487  0.2988 -0.4175  0.0324
  442MOL0     C60925   3.806   8.197   5.537  0.7268  0.6148 -0.2576
  442MOL0     C60926   3.938   8.128   5.531 -0.2206 -0.1665  0.0144
  442MOL0     H60927   3.558   7.762   5.716 -1.7744 -2.4025  0.8435
  442MOL0     H60928   3.564   7.512   5.709  1.6932 -1.5908  1.4026
  442MOL0     H60929   3.740   7.183   5.461 -2.1690 -0.5756 -0.2921
  442MOL0     H60930   3.808   7.317   5.373 -1.1525  1.3398 -1.1483
  442MOL0     H60931   3.508   7.264   5.411  0.0409  1.4985  0.5301
  442MOL0     H60932   3.572   7.415   5.345 -4.5432 -0.2981  0.1242
  442MOL0     H60933   3.678   7.316   5.167 -0.2385 -0.2295  0.5412
  442MOL0     H60934   3.663   7.154   5.224  1.7740  0.4436 -0.8080
  442MOL0     H60935   3.411   7.168   5.214 -0.5558 -3.2311 -5.0593
  442MOL0     H60936   3.442   7.340   5.153  2.4044  1.0817  1.0025
  442MOL0     H60937   3.524   7.090   5.013 -0.5285  0.9746 -1.1779
  442MOL0     H60938   3.546   7.248   4.949  1.7241  1.6696  2.7336
  442MOL0     H60939   3.293   7.082   4.999  1.5070 -1.4241 -1.3643
  442MOL0     H60940   3.278   7.261   4.981  0.4312  1.1891 -1.4640
  442MOL0     H60941   3.408   7.095   4.764 -1.4104 -1.2667 -2.6451
  442MOL0     H60942   3.349   7.259   4.751 -1.7218 -0.0264  1.5996
  442MOL0     H60943   3.189   7.081   4.647 -0.6633  0.8819 -0.8106
  442MOL0     H60944   3.193   7.006   4.803 -1.5414  0.7089 -0.3135
  442MOL0     H60945   3.025   7.319   4.635 -3.8259 -0.7804 -2.3496
  442MOL0     H60946   2.845   7.495   4.720 -2.0881 -1.7539 -2.5363
  442MOL0     H60947   2.787   7.468   4.890  0.2831  0.2573  1.0203
  442MOL0     H60948   2.694   7.350   4.634  2.4366 -2.8403  1.5271
  442MOL0     H60949   2.651   7.283   4.792 -2.7465 -0.4265 -1.7390
  442MOL0     H60950   2.548   7.475   4.867  0.7212 -1.6448  0.7360
  442MOL0     H60951   2.611   7.562   4.719 -0.4712 -0.6609  1.5145
  442MOL0     H60952   2.454   7.444   4.571 -1.5452 -0.2165 -1.0875
  442MOL0     H60953   2.398   7.342   4.709 -0.0488  0.4889 -0.3119
  442MOL0     H60954   2.208   7.362   4.546 -0.3905  1.2003 -1.4306
  442MOL0     H60955   1.965   7.386   4.327 -1.8923  1.4241 -0.2392
  442MOL0     H60956   1.882   7.316   4.474 -1.7670  0.7024 -4.7091
  442MOL0     H60957   2.031   7.262   4.437 -0.6064 -0.1842 -1.7952
  442MOL0     H60958   1.557   7.664   4.310  2.4687 -0.0183  1.3580
  442MOL0     H60959   1.321   7.681   4.352 -1.2638 -1.6729  0.9251
  442MOL0     H60960   1.120   7.599   4.326  1.5368 -1.1107  0.0586
  442MOL0     H60961   1.002   7.507   4.421  1.5078 -1.7622  4.3714
  442MOL0     H60962   1.093   7.784   4.509 -0.1558 -0.8150  1.4745
  442MOL0     H60963   0.961   7.752   4.402  1.3736  2.1471  0.1135
  442MOL0     H60964   1.006   7.628   4.689 -4.1441  0.1321  4.9502
  442MOL0     H60965   0.861   7.597   4.589  1.1617 -1.3914 -1.0703
  442MOL0     H60966   0.796   7.825   4.605  0.7651  1.6475  0.7555
  442MOL0     H60967   0.948   7.875   4.668 -0.1941 -1.0149  2.0694
  442MOL0     H60968   0.806   7.673   4.856 -0.5799  0.3107  0.7551
  442MOL0     H60969   0.915   7.809   4.890 -0.9678  0.0299 -0.0785
  442MOL0     H60970   0.635   7.813   4.782  2.1477 -2.9706  0.2248
  442MOL0     H60971   0.729   7.966   4.798 -0.7765  0.7237  0.8234
  442MOL0     H60972   0.701   7.961   5.035  1.8286 -1.4576  1.2136
  442MOL0     H60973   0.696   7.784   5.049 -1.9705  0.1129  1.1244
  442MOL0     H60974   0.486   7.980   4.948 -0.5557  1.1348  2.1140
  442MOL0     H60975   0.501   7.884   5.097 -0.0808  3.2046 -0.5345
  442MOL0     H60976   1.344   7.382   4.663  3.0996 -1.0070  2.7783
  442MOL0     H60977   1.590   7.371   4.624  0.6975  1.6830  0.2155
  442MOL0     H60978   1.947   7.758   4.673 -0.3416  0.6115 -1.0035
  442MOL0     H60979   2.183   7.739   4.742 -0.8113 -0.5377  1.2771
  442MOL0     H60980   3.890   7.526   5.435  0.1460  0.6889 -0.6432
  442MOL0     H60981   3.891   7.759   5.441  1.3238 -1.2045 -0.2690
  442MOL0     H60982   3.501   8.200   5.690  0.7774 -0.9125  0.3014
  442MOL0     H60983   3.488   8.422   5.577  0.0422 -1.2484  2.4062
  442MOL0     H60984   3.566   8.604   5.554 -1.1657 -2.1434 -6.0951
  442MOL0     H60985   3.713   8.697   5.589 -2.7235  1.5506  2.2546
  442MOL0     H60986   3.552   8.714   5.328  0.6771  0.9943 -0.9472
  442MOL0     H60987   3.719   8.778   5.359 -1.1851  3.9721 -0.6621
  442MOL0     H60988   3.471   8.857   5.497 -1.0440 -2.0169 -2.9213
  442MOL0     H60989   3.641   8.902   5.533 -0.2348 -0.4914 -0.7559
  442MOL0     H60990   3.662   8.982   5.295 -0.7905  2.1938 -0.1824
  442MOL0     H60991   3.570   9.080   5.395  2.3177 -0.8409  0.9781
  442MOL0     H60992   3.283   8.904   5.112  1.6026 -1.1087  0.1067
  442MOL0     H60993   3.896   8.365   5.443  0.3562 -3.2593 -2.8808
  442MOL0     H60994   4.030   8.185   5.511 -1.0318  1.0596 -0.3305
  442MOL0     H60995   3.963   8.076   5.624 -0.7437 -3.5096 -1.5781
  442MOL0     H60996   3.934   8.045   5.460 -0.6523  0.3382 -0.5605
  443MOL0     O60997   5.457   0.574   8.374  0.0689 -1.7261  0.5245
  443MOL0     C60998   5.478   0.467   8.418 -0.3338  0.2134 -0.4021
  443MOL0     O60999   5.547   0.375   8.358 -0.2175  0.4536  0.2436
  443MOL0     C61000   5.591   0.405   8.235 -0.9331 -0.3490 -0.1592
  443MOL0     C61001   5.546   0.323   8.129 -0.1901 -0.2273  0.7439
  443MOL0     C61002   5.576   0.349   7.995 -0.2473 -0.2073  0.2229
  443MOL0     C61003   5.642   0.473   7.967  0.2125  0.2182  0.2976
  443MOL0     O61004   5.635   0.520   7.838  0.0557 -0.9011  0.1897
  443MOL0     C61005   5.521   0.604   7.813  0.0596  0.1747  0.5117
  443MOL0     C61006   5.507   0.645   7.668  0.0024 -0.1346 -0.4018
  443MOL0     C61007   5.568   0.774   7.626  0.2865  0.0838  0.9789
  443MOL0     C61008   5.555   0.786   7.472 -0.3223  0.6429 -0.6601
  443MOL0     C61009   5.628   0.915   7.428  0.6082 -0.2678  0.8925
  443MOL0     C61010   5.548   1.039   7.446  0.0708 -0.6712 -0.4844
  443MOL0     C61011   5.620   1.151   7.360  0.3527  0.1807  0.3295
  443MOL0     C61012   5.558   1.282   7.391  0.1465 -1.4365 -0.3182
  443MOL0     N61013   5.613   1.401   7.314  0.5072 -0.9680  1.0288
  443MOL0     C61014   5.577   1.439   7.185 -0.0618 -0.2399 -0.0427
  443MOL0     C61015   5.642   1.559   7.174  0.0086  0.1629 -0.3677
  443MOL0     C61016   5.643   1.645   7.057  0.2187 -0.7718 -0.8866
  443MOL0     C61017   5.680   1.589   6.915 -0.1979  0.5496 -0.2932
  443MOL0     C61018   5.685   1.706   6.814 -0.7467  0.1240  0.6718
  443MOL0     C61019   5.738   1.676   6.670  1.0277  0.8337 -0.4856
  443MOL0     O61020   5.658   1.565   6.623 -0.0634  0.1445 -0.2363
  443MOL0     C61021   5.690   1.495   6.506 -0.3982 -0.3175  1.1838
  443MOL0     C61022   5.612   1.386   6.464  0.3446  0.3472 -0.3106
  443MOL0     C61023   5.640   1.304   6.349  0.6728 -0.9849 -0.2958
  443MOL0     C61024   5.562   1.174   6.337 -0.7374  0.0913 -0.3775
  443MOL0     C61025   5.745   1.340   6.259  0.0234  0.4543 -0.0123
  443MOL0     C61026   5.785   1.284   6.138 -1.5763  0.0005  0.6224
  443MOL0     O61027   5.912   1.320   6.086  0.2378 -0.3968  0.0087
  443MOL0     C61028   5.937   1.283   5.955  0.4928 -0.3887  0.4591
  443MOL0     C61029   5.905   1.367   5.851  0.5402  0.1857  0.6339
  443MOL0     C61030   5.933   1.309   5.720 -0.6289 -0.2684 -0.0876
  443MOL0     C61031   5.998   1.192   5.692  0.2178 -0.3055  0.2009
  443MOL0     O61032   6.019   1.150   5.562  0.1651  0.8186 -0.0425
  443MOL0     C61033   6.158   1.144   5.521 -0.1527  0.2246 -0.7430
  443MOL0     C61034   6.175   1.178   5.373  0.3272 -1.1346 -0.7125
  443MOL0     C61035   6.109   1.323   5.340 -1.1283  0.0972  0.1351
  443MOL0     C61036   6.152   1.368   5.196 -0.6883 -0.4428  0.4897
  443MOL0     C61037   6.081   1.507   5.174 -0.5321 -0.1438  0.3945
  443MOL0     C61038   6.102   1.563   5.043  0.2325 -0.9849 -0.3226
  443MOL0     C61039   6.005   1.681   5.021 -0.2562  0.0127  0.3165
  443MOL0     C61040   5.863   1.642   4.987 -0.5499  0.5173  0.0538
  443MOL0    Cl61041   5.779   1.806   4.953 -0.2338  0.0725  0.2722
  443MOL0     C61042   6.038   1.124   5.806 -0.0459  0.5614 -0.7283
  443MOL0     C61043   6.009   1.163   5.935 -0.4593  1.2426 -0.0992
  443MOL0     O61044   5.708   1.210   6.085 -0.7367 -0.0013  0.0949
  443MOL0     C61045   5.819   1.457   6.302 -0.3796  0.6532  0.2335
  443MOL0     C61046   5.795   1.528   6.418 -0.4089 -0.5741  0.8139
  443MOL0     N61047   5.696   1.600   7.292 -0.1550  0.7153 -0.6147
  443MOL0     N61048   5.676   1.502   7.380  0.3904  0.1115 -0.4877
  443MOL0     C61049   5.700   0.556   8.074  0.0472 -1.0911 -0.6859
  443MOL0     C61050   5.681   0.512   8.203  0.5209  0.2472  0.4557
  443MOL0     C61051   5.424   0.439   8.558  0.4904 -0.6288 -0.1919
  443MOL0     C61052   5.485   0.319   8.626 -0.2439 -0.4926 -0.6539
  443MOL0     C61053   5.455   0.290   8.765 -0.1781 -0.4004 -0.8768
  443MOL0     C61054   5.370   0.379   8.830  0.4174 -0.1020  1.1479
  443MOL0     O61055   5.357   0.361   8.964 -0.1294  0.1246  0.3517
  443MOL0     C61056   5.270   0.448   9.043 -0.7379 -0.3805  0.0433
  443MOL0     C61057   5.126   0.402   9.038  0.0821 -0.0195 -0.3717
  443MOL0     C61058   5.103   0.262   9.116 -0.5117 -0.2565 -0.3247
  443MOL0     C61059   4.974   0.199   9.080 -0.1567 -0.2353  0.1373
  443MOL0     C61060   4.942   0.081   9.166  0.3626 -1.2149  0.4244
  443MOL0     C61061   4.910  -0.022   9.222  0.1260 -0.5436 -0.5529
  443MOL0     C61062   5.303   0.480   8.765 -1.7605  0.4404 -0.1361
  443MOL0     C61063   5.332   0.518   8.635  0.9023  0.8458  0.1354
  443MOL0     C61064   5.261   0.630   8.581  0.1971 -1.0854 -0.5374
  443MOL0     H61065   5.482   0.245   8.170 -1.7638  0.9370  0.6027
  443MOL0     H61066   5.540   0.298   7.906 -1.5506  1.9846 -0.5774
  443MOL0     H61067   5.523   0.701   7.863 -3.1555  0.2409  0.7179
  443MOL0     H61068   5.426   0.563   7.847  0.0006  0.8116  1.1321
  443MOL0     H61069   5.548   0.560   7.613  2.0980  1.9918 -2.3719
  443MOL0     H61070   5.402   0.653   7.637 -0.1008 -1.4224 -0.4579
  443MOL0     H61071   5.520   0.859   7.675 -1.4141 -1.3475  1.9103
  443MOL0     H61072   5.671   0.785   7.661  0.3250 -0.6285  1.0994
  443MOL0     H61073   5.599   0.701   7.419 -0.4168  0.9440 -1.2359
  443MOL0     H61074   5.449   0.786   7.445 -0.0867 -2.1526 -1.9906
  443MOL0     H61075   5.641   0.893   7.322 -1.2811  3.2657 -0.2288
  443MOL0     H61076   5.715   0.938   7.490  0.3847  3.0861  0.1391
  443MOL0     H61077   5.448   1.023   7.404  0.9736 -3.1657 -1.9300
  443MOL0     H61078   5.533   1.074   7.548  2.2323 -1.2986  0.0969
  443MOL0     H61079   5.605   1.121   7.256 -2.7965 -1.8576  1.2300
  443MOL0     H61080   5.728   1.161   7.379  0.9229  2.5037 -3.2553
  443MOL0     H61081   5.450   1.284   7.374  0.0689 -2.5396 -0.0300
  443MOL0     H61082   5.571   1.313   7.495 -0.8254 -2.4203  0.1131
  443MOL0     H61083   5.538   1.376   7.106  0.8435 -0.3238 -0.4340
  443MOL0     H61084   5.707   1.730   7.081  1.6351 -2.0899  0.1521
  443MOL0     H61085   5.542   1.689   7.061  0.0048 -1.3499  1.4775
  443MOL0     H61086   5.773   1.532   6.923 -1.6553 -1.7441  2.2986
  443MOL0     H61087   5.603   1.525   6.870 -2.4349  1.8900  1.4117
  443MOL0     H61088   5.581   1.739   6.800 -0.4019  1.3802  1.0064
  443MOL0     H61089   5.725   1.795   6.862 -1.0335  2.0683 -2.4395
  443MOL0     H61090   5.720   1.764   6.608  0.8568 -0.1496 -1.8815
  443MOL0     H61091   5.843   1.648   6.682 -0.3501 -4.4486  2.9010
  443MOL0     H61092   5.532   1.364   6.534  1.6170 -0.9419  0.8111
  443MOL0     H61093   5.616   1.096   6.392  0.7396  0.4511 -1.2738
  443MOL0     H61094   5.556   1.133   6.236  1.2433  0.7672 -0.8170
  443MOL0     H61095   5.457   1.198   6.358 -0.4087  0.6732  0.6620
  443MOL0     H61096   5.861   1.463   5.874 -1.7903 -1.1908  2.4138
  443MOL0     H61097   5.896   1.370   5.639  3.1877 -1.0221 -2.6692
  443MOL0     H61098   6.219   1.204   5.589 -0.0886  0.9213 -1.4081
  443MOL0     H61099   6.185   1.038   5.529  2.9763  1.0228  1.6300
  443MOL0     H61100   6.282   1.183   5.351  0.0832  2.5322 -1.6042
  443MOL0     H61101   6.131   1.097   5.314  0.9619 -2.0175 -0.0262
  443MOL0     H61102   6.130   1.401   5.414 -1.3861  0.0183  0.2937
  443MOL0     H61103   6.001   1.315   5.354 -0.8600 -0.2240  2.5102
  443MOL0     H61104   6.118   1.297   5.120  0.6230  0.0080 -0.5508
  443MOL0     H61105   6.259   1.373   5.174 -1.2236  2.1970 -2.0975
  443MOL0     H61106   5.973   1.491   5.184 -0.6816 -0.5678 -1.4305
  443MOL0     H61107   6.120   1.585   5.240  0.6346  1.4504 -2.0213
  443MOL0     H61108   6.103   1.482   4.970 -0.3694  0.1637 -1.6436
  443MOL0     H61109   6.204   1.600   5.029 -0.7703  0.8204 -4.0800
  443MOL0     H61110   6.053   1.740   4.943  0.7817  3.5575  3.3360
  443MOL0     H61111   6.004   1.740   5.113  1.7744  3.4441 -1.6819
  443MOL0     H61112   5.819   1.596   5.075  1.7728  1.3550  1.7554
  443MOL0     H61113   5.865   1.570   4.904  0.1364 -2.1294  2.2089
  443MOL0     H61114   6.088   1.028   5.794 -0.6999  0.0298  0.6112
  443MOL0     H61115   6.044   1.097   6.013 -2.0165 -1.5618 -1.6197
  443MOL0     H61116   5.903   1.497   6.246 -0.2196 -1.3899 -1.1148
  443MOL0     H61117   5.849   1.621   6.433  2.4183 -1.6944 -1.3686
  443MOL0     H61118   5.762   0.644   8.059  3.0726 -2.2758  3.2819
  443MOL0     H61119   5.725   0.559   8.290  0.8760  0.3352  0.2284
  443MOL0     H61120   5.556   0.269   8.561 -0.8951 -3.2644  0.6346
  443MOL0     H61121   5.507   0.203   8.805 -3.1010 -0.3793  3.7089
  443MOL0     H61122   5.304   0.442   9.147  0.8318  1.8347 -0.2870
  443MOL0     H61123   5.290   0.552   9.017 -1.0330  0.0408  1.4101
  443MOL0     H61124   5.092   0.401   8.934 -0.7366 -2.3566 -0.1172
  443MOL0     H61125   5.062   0.473   9.092 -0.9133 -3.0917  2.8544
  443MOL0     H61126   5.190   0.202   9.086  2.5995  3.2509  0.8700
  443MOL0     H61127   5.102   0.283   9.223 -0.9804  1.8121 -0.7019
  443MOL0     H61128   4.982   0.169   8.975  2.8566  0.9376 -0.0677
  443MOL0     H61129   4.892   0.271   9.093 -0.4437 -0.5226 -0.0608
  443MOL0     H61130   4.878  -0.117   9.261 -1.2821 -0.1381 -0.6566
  443MOL0     H61131   5.235   0.545   8.818 -0.1596  0.4541  2.0823
  443MOL0     H61132   5.218   0.621   8.480  0.8459  3.2363 -1.3773
  443MOL0     H61133   5.179   0.650   8.651 -0.3098 -3.3774 -0.3716
  443MOL0     H61134   5.320   0.721   8.572 -0.9895 -0.2040  0.3064
  444MOL0     O61135   1.104   9.665   9.140  0.2939 -0.6735  0.4438
  444MOL0     C61136   1.015   9.733   9.086 -0.6313 -0.0877  0.1392
  444MOL0     O61137   1.018   9.787   8.959 -0.1081 -0.2270  0.0287
  444MOL0     C61138   1.125   9.763   8.878 -1.5618  0.7992  0.6659
  444MOL0     C61139   1.249   9.821   8.900  0.6535 -0.4687 -0.7046
  444MOL0     C61140   1.363   9.786   8.824  0.1929 -0.5925  0.2078
  444MOL0     C61141   1.350   9.700   8.711  0.8114  0.5660 -0.0354
  444MOL0     O61142   1.450   9.654   8.627 -0.5295 -0.3651 -0.1052
  444MOL0     C61143   1.582   9.696   8.633 -0.0625  0.4305  0.1970
  444MOL0     C61144   1.657   9.633   8.750  0.1195 -0.0642 -0.1740
  444MOL0     C61145   1.809   9.635   8.728 -0.4275 -0.5785  0.3833
  444MOL0     C61146   1.887   9.610   8.854 -0.3211 -0.0272 -0.5876
  444MOL0     C61147   2.042   9.613   8.833  0.5344 -0.3664  0.5243
  444MOL0     C61148   2.105   9.562   8.961  0.8517  0.5333 -0.1816
  444MOL0     C61149   2.265   9.556   8.938  0.1239  0.1112  0.7777
  444MOL0     C61150   2.325   9.455   9.035  0.6187 -0.7268  0.2319
  444MOL0     N61151   2.334   9.505   9.168 -0.4248 -0.2061 -0.6027
  444MOL0     C61152   2.377   9.633   9.201  0.3290 -0.6685 -0.0894
  444MOL0     C61153   2.338   9.648   9.326  0.4192 -0.0957  0.5754
  444MOL0     C61154   2.386   9.764   9.409  0.6016 -0.3860 -0.0292
  444MOL0     C61155   2.527   9.746   9.456 -0.6222  0.6650 -0.9576
  444MOL0     C61156   2.535   9.626   9.559 -1.1167 -1.4000  0.7257
  444MOL0     C61157   2.684   9.611   9.617  0.0681 -0.4494  0.1490
  444MOL0     O61158   2.782   9.573   9.514 -0.4827  0.1216 -0.2267
  444MOL0     C61159   2.909   9.571   9.552  0.2718  0.0183 -1.0912
  444MOL0     C61160   2.948   9.594   9.691 -0.1423  0.8951  0.8853
  444MOL0     C61161   3.084   9.589   9.730  0.8119 -0.6137 -0.4614
  444MOL0     C61162   3.124   9.628   9.871 -0.1612  0.2575  0.9223
  444MOL0     C61163   3.178   9.547   9.635 -0.2603  0.5617  0.6085
  444MOL0     C61164   3.328   9.546   9.653 -0.8175  0.7879 -0.0728
  444MOL0     O61165   3.415   9.509   9.545 -0.1781 -0.0043  0.3103
  444MOL0     C61166   3.541   9.542   9.566 -0.5786  0.1509  0.4340
  444MOL0     C61167   3.585   9.680   9.572  0.0150  0.3523 -0.8194
  444MOL0     C61168   3.704   9.731   9.635 -0.9180 -0.0980 -0.0024
  444MOL0     C61169   3.799   9.631   9.662  0.1576  0.6946  0.1047
  444MOL0     O61170   3.924   9.667   9.701 -0.7826 -0.0600 -0.9719
  444MOL0     C61171   4.038   9.628   9.628 -0.2790 -0.4422  0.0971
  444MOL0     C61172   4.117   9.743   9.566 -0.2137 -0.3574  0.1589
  444MOL0     C61173   4.221   9.794   9.659  0.7728 -0.0625 -0.0284
  444MOL0     C61174   4.289   9.921   9.584  0.2042  0.1117  0.3420
  444MOL0     C61175   4.405   9.886   9.496 -0.1483 -0.4892  0.0396
  444MOL0     C61176   4.435  10.006   9.402 -0.3996 -0.2305 -0.2105
  444MOL0     C61177   4.356  10.014   9.273 -0.0299  0.2246  0.2969
  444MOL0     C61178   4.316  10.149   9.220  0.8733  0.2549  0.0290
  444MOL0    Cl61179   4.156  10.194   9.296  0.2037  0.2894 -0.1635
  444MOL0     C61180   3.763   9.495   9.650 -0.2253 -0.6966 -0.0217
  444MOL0     C61181   3.638   9.447   9.597 -1.4646 -0.3961  0.4958
  444MOL0     O61182   3.369   9.562   9.768  0.4125 -0.0715  0.2787
  444MOL0     C61183   3.129   9.503   9.505 -1.8070 -0.8374 -0.9282
  444MOL0     C61184   3.003   9.518   9.464 -0.1031  0.1903 -0.6480
  444MOL0     N61185   2.286   9.529   9.375 -0.0870 -0.2159  0.4528
  444MOL0     N61186   2.280   9.452   9.274 -0.4617 -0.3171 -1.2074
  444MOL0     C61187   1.229   9.640   8.690  0.5236 -0.8064  0.0500
  444MOL0     C61188   1.115   9.670   8.772  0.0478  0.4901 -0.7773
  444MOL0     C61189   0.885   9.743   9.160  0.3313 -0.2267  0.3717
  444MOL0     C61190   0.769   9.721   9.090 -0.3464  0.0218 -0.3397
  444MOL0     C61191   0.644   9.729   9.150  0.2948  0.5319  0.0736
  444MOL0     C61192   0.631   9.767   9.282  0.7311 -0.1237 -0.1444
  444MOL0     O61193   0.500   9.784   9.332 -0.3888 -0.7710 -0.4194
  444MOL0     C61194   0.490   9.861   9.458  0.7102 -0.3759 -0.3905
  444MOL0     C61195   0.344   9.912   9.484 -0.2158  0.2934 -0.1504
  444MOL0     C61196   0.316   9.988   9.622  0.6104 -0.1686  0.0141
  444MOL0     C61197   0.403  10.110   9.631  0.3182 -0.5329 -0.0766
  444MOL0     C61198   0.339  10.215   9.548 -0.0741  1.5285  0.7178
  444MOL0     C61199   0.281  10.302   9.495  0.9332  0.4411 -0.2106
  444MOL0     C61200   0.753   9.782   9.362  0.7448 -1.0209  0.6095
  444MOL0     C61201   0.878   9.780   9.300  0.2815  0.3974  0.0391
  444MOL0     C61202   0.993   9.835   9.379  0.0549 -0.1498  0.2996
  444MOL0     H61203   1.254   9.888   8.985 -0.8054  0.2885 -1.1956
  444MOL0     H61204   1.452   9.837   8.859 -0.0643  1.0872 -1.3938
  444MOL0     H61205   1.585   9.805   8.644  4.4131  0.2919  3.5277
  444MOL0     H61206   1.634   9.667   8.541  1.5204  5.6018 -0.8767
  444MOL0     H61207   1.635   9.686   8.843 -0.0558  0.5191 -0.5420
  444MOL0     H61208   1.628   9.528   8.762 -0.3417 -0.0259 -0.8582
  444MOL0     H61209   1.842   9.570   8.646 -0.3667  0.1935 -0.2195
  444MOL0     H61210   1.836   9.738   8.699 -3.9013  0.9133  1.8641
  444MOL0     H61211   1.856   9.685   8.927  1.7561  2.2712 -1.9099
  444MOL0     H61212   1.856   9.510   8.886 -0.8854 -0.2885 -1.8993
  444MOL0     H61213   2.077   9.713   8.806 -0.0208 -0.2477  0.2451
  444MOL0     H61214   2.055   9.539   8.753 -1.2583 -0.0700 -0.0802
  444MOL0     H61215   2.062   9.620   9.044 -1.3113 -2.5055  0.9860
  444MOL0     H61216   2.060   9.463   8.967 -4.5658  2.7266  1.5797
  444MOL0     H61217   2.314   9.653   8.941 -2.7920  1.6950  0.8440
  444MOL0     H61218   2.278   9.511   8.839  1.7099 -1.9556  1.8324
  444MOL0     H61219   2.267   9.362   9.033 -0.1773 -0.2635  1.2821
  444MOL0     H61220   2.425   9.440   8.992 -0.1833  1.2801 -2.6769
  444MOL0     H61221   2.431   9.712   9.150 -0.2323 -1.4488 -1.9682
  444MOL0     H61222   2.325   9.776   9.499  1.1241  0.4284  0.2233
  444MOL0     H61223   2.391   9.851   9.344  0.2425 -1.1577 -1.1169
  444MOL0     H61224   2.597   9.717   9.378  0.9007  0.7695  0.3211
  444MOL0     H61225   2.549   9.845   9.496 -0.8290  1.8820 -3.6536
  444MOL0     H61226   2.472   9.642   9.647  1.0766 -2.8477  2.6640
  444MOL0     H61227   2.521   9.526   9.515  1.4365 -1.3429 -0.4202
  444MOL0     H61228   2.703   9.712   9.654  0.2796 -0.0550 -0.9954
  444MOL0     H61229   2.675   9.534   9.694 -1.1897  0.1732  0.6437
  444MOL0     H61230   2.881   9.630   9.768  0.4307  0.9733  1.3605
  444MOL0     H61231   3.156   9.732   9.863 -1.1595  0.4809 -0.6478
  444MOL0     H61232   3.201   9.566   9.918  0.1276 -0.8352 -0.8651
  444MOL0     H61233   3.041   9.633   9.942  0.4714  1.3743  1.6132
  444MOL0     H61234   3.518   9.760   9.541  2.0231  2.4123 -0.1277
  444MOL0     H61235   3.713   9.837   9.656  0.7758  0.3770 -2.5639
  444MOL0     H61236   4.112   9.570   9.684 -1.2383 -4.0266 -2.0075
  444MOL0     H61237   3.998   9.561   9.551 -0.7443  0.0732 -0.1113
  444MOL0     H61238   4.172   9.713   9.477  1.6894  0.9959  0.8264
  444MOL0     H61239   4.045   9.821   9.539 -0.1617 -0.7461 -1.1160
  444MOL0     H61240   4.294   9.720   9.695 -1.9435 -2.8110  0.1943
  444MOL0     H61241   4.175   9.834   9.750 -1.4577  1.3875 -1.7103
  444MOL0     H61242   4.315   9.998   9.657 -2.3621  1.0384  0.3856
  444MOL0     H61243   4.211   9.966   9.521 -0.9194 -1.9751  0.1631
  444MOL0     H61244   4.493   9.864   9.558 -2.3260 -1.8484  2.8623
  444MOL0     H61245   4.377   9.798   9.437 -1.0945  0.7356 -1.4036
  444MOL0     H61246   4.542  10.013   9.383 -0.2822 -0.1121  0.4751
  444MOL0     H61247   4.416  10.104   9.448 -0.8055  0.9194 -2.6399
  444MOL0     H61248   4.262   9.958   9.281 -0.3868  0.6533 -0.7152
  444MOL0     H61249   4.419   9.976   9.191  2.0655  4.4448 -0.2858
  444MOL0     H61250   4.298  10.133   9.113  0.1843 -2.0180  0.4207
  444MOL0     H61251   4.400  10.217   9.235  0.7079  1.3174 -3.0783
  444MOL0     H61252   3.842   9.422   9.665 -1.5839 -1.7740  2.3737
  444MOL0     H61253   3.619   9.341   9.581 -0.9693 -0.1228 -2.4158
  444MOL0     H61254   3.211   9.476   9.439 -0.5822 -2.9645  1.3077
  444MOL0     H61255   2.975   9.478   9.367 -0.9232  0.3204 -0.4702
  444MOL0     H61256   1.227   9.562   8.615  0.7995 -2.8117  2.0184
  444MOL0     H61257   1.019   9.622   8.760 -0.0553 -0.8959  3.7940
  444MOL0     H61258   0.774   9.687   8.987  0.8039  0.3548 -0.4149
  444MOL0     H61259   0.556   9.706   9.091  1.4222 -1.7045 -0.8377
  444MOL0     H61260   0.523   9.799   9.542  0.5161 -0.8262 -0.6444
  444MOL0     H61261   0.560   9.943   9.444  2.5068 -2.2005 -3.1533
  444MOL0     H61262   0.268   9.833   9.487 -1.6387  1.4405 -2.5630
  444MOL0     H61263   0.329   9.971   9.393  0.6768 -1.4213 -1.4590
  444MOL0     H61264   0.208  10.008   9.623  0.4459 -0.7978  2.7990
  444MOL0     H61265   0.328   9.910   9.698 -2.0335 -1.8501 -1.1613
  444MOL0     H61266   0.506  10.087   9.601  0.9162 -0.3164  1.7062
  444MOL0     H61267   0.406  10.156   9.730 -2.5102 -1.1877  0.3986
  444MOL0     H61268   0.231  10.391   9.461  0.4108  1.0959  2.1112
  444MOL0     H61269   0.742   9.793   9.469 -0.9753 -1.6177  0.5199
  444MOL0     H61270   1.043   9.923   9.336  0.2839 -1.3586 -2.0467
  444MOL0     H61271   0.946   9.851   9.476 -3.1930  0.2342 -1.1978
  444MOL0     H61272   1.079   9.769   9.396  0.7337  1.0751  1.8286
  445MOL0     O61273   4.241   2.935  10.082 -0.0936  0.5518  0.8878
  445MOL0     C61274   4.215   3.048  10.115  0.0539  0.4002  0.3533
  445MOL0     O61275   4.296   3.159  10.084 -0.1523  0.3757  0.0480
  445MOL0     C61276   4.415   3.133  10.017 -0.1994  0.3509  0.6672
  445MOL0     C61277   4.442   3.205   9.901  0.3181  0.3031 -0.6319
  445MOL0     C61278   4.574   3.200   9.842 -0.8070  0.0313  0.4512
  445MOL0     C61279   4.674   3.110   9.890 -0.2747  0.0830 -0.6814
  445MOL0     O61280   4.791   3.103   9.820 -0.1070  0.4317  0.0513
  445MOL0     C61281   4.912   3.046   9.884 -0.4556 -0.0854  0.7646
  445MOL0     C61282   5.039   3.088   9.802  0.1267  0.0088 -0.4001
  445MOL0     C61283   5.171   3.015   9.838  1.2027 -0.9453  0.1744
  445MOL0     C61284   5.224   3.074   9.970  0.5235  0.4095 -0.4578
  445MOL0     C61285   5.178   3.000  10.102 -0.1648  0.4189 -0.3412
  445MOL0     C61286   5.137   3.105  10.206  0.0633 -0.3201  0.5410
  445MOL0     C61287   5.063   3.044  10.340 -0.2642 -0.4077  0.4307
  445MOL0     C61288   5.086   3.159  10.448 -0.1837 -1.0100  0.5478
  445MOL0     N61289   5.027   3.287  10.417  0.4056  0.3713 -0.3901
  445MOL0     C61290   4.904   3.299  10.352 -0.1105 -0.4719 -0.7411
  445MOL0     C61291   4.899   3.424  10.317  0.4285 -0.4755  0.3097
  445MOL0     C61292   4.782   3.473  10.237  0.0045  0.1194 -0.0825
  445MOL0     C61293   4.745   3.416  10.093 -0.4089 -0.1524 -1.0492
  445MOL0     C61294   4.873   3.405   9.991  0.3614 -0.3137  0.6338
  445MOL0     C61295   4.954   3.528   9.973 -0.3418 -0.0892 -0.2228
  445MOL0     O61296   4.861   3.614   9.911 -0.4202  0.9247  0.1331
  445MOL0     C61297   4.920   3.698   9.815 -0.1207  0.5734 -0.2566
  445MOL0     C61298   5.046   3.767   9.830  0.4703  0.8674  0.3205
  445MOL0     C61299   5.097   3.843   9.724 -0.2682  0.2690  0.0840
  445MOL0     C61300   5.242   3.877   9.743  0.1679  0.8191 -0.0250
  445MOL0     C61301   5.013   3.872   9.612  0.0410  0.2862  0.2894
  445MOL0     C61302   5.066   3.956   9.501 -0.7881 -0.0955 -0.9601
  445MOL0     O61303   5.187   4.026   9.515 -0.2785  0.3757  0.6487
  445MOL0     C61304   5.234   4.083   9.397  0.4052 -0.1811  0.4485
  445MOL0     C61305   5.245   4.217   9.374  0.0861 -0.3200  0.0746
  445MOL0     C61306   5.279   4.277   9.249  0.2253 -0.1510 -0.1967
  445MOL0     C61307   5.330   4.199   9.136 -0.6443  0.2141 -1.0835
  445MOL0     O61308   5.371   4.259   9.022 -0.5139 -0.2339 -1.0232
  445MOL0     C61309   5.420   4.168   8.924 -0.5763  1.2264  0.0486
  445MOL0     C61310   5.486   4.240   8.820 -0.4680  0.0908 -0.2160
  445MOL0     C61311   5.386   4.333   8.751 -0.6059  0.7997 -0.1258
  445MOL0     C61312   5.410   4.393   8.613  0.2951 -0.3009 -0.5844
  445MOL0     C61313   5.530   4.490   8.629  0.7107  0.7897 -0.0363
  445MOL0     C61314   5.515   4.607   8.527  0.9036  0.3222 -0.0100
  445MOL0     C61315   5.612   4.718   8.550 -0.0300  0.8069 -0.5060
  445MOL0     C61316   5.602   4.808   8.420 -0.6888 -0.0746 -0.5957
  445MOL0    Cl61317   5.456   4.908   8.410  0.1587 -0.1776  0.3233
  445MOL0     C61318   5.309   4.060   9.155  0.5746 -0.4356  0.2085
  445MOL0     C61319   5.272   4.007   9.283 -0.5189  0.6115  0.0880
  445MOL0     O61320   4.996   3.962   9.402  0.1031 -0.0256 -0.1649
  445MOL0     C61321   4.886   3.818   9.617 -0.1751  0.0655  0.4584
  445MOL0     C61322   4.839   3.740   9.714  0.1357  0.3217 -0.5945
  445MOL0     N61323   5.011   3.493  10.345 -0.4473  0.3449 -0.0929
  445MOL0     N61324   5.085   3.408  10.404  0.2851 -0.4532  1.0288
  445MOL0     C61325   4.634   3.025   9.991 -0.4731  0.0058 -0.3159
  445MOL0     C61326   4.515   3.041  10.062  0.1200 -0.3539  0.1623
  445MOL0     C61327   4.087   3.090  10.178  0.3433  0.3865 -0.0539
  445MOL0     C61328   4.055   3.222  10.171 -1.1278 -0.8443 -0.9588
  445MOL0     C61329   3.940   3.271  10.229  0.1353 -0.1036  0.2080
  445MOL0     C61330   3.848   3.191  10.296  0.2397  0.0059  0.0134
  445MOL0     O61331   3.749   3.262  10.357 -0.5405  0.0065 -0.1775
  445MOL0     C61332   3.659   3.184  10.434  0.1065 -0.0048  0.0558
  445MOL0     C61333   3.542   3.132  10.350  0.5338 -0.2139  0.0899
  445MOL0     C61334   3.452   3.232  10.277 -0.1203  0.2836 -0.2451
  445MOL0     C61335   3.354   3.325  10.348  0.2628 -0.9756 -0.1361
  445MOL0     C61336   3.249   3.249  10.420 -0.4412 -1.0301  0.0627
  445MOL0     C61337   3.165   3.186  10.482 -0.4286  0.3194 -0.4816
  445MOL0     C61338   3.873   3.049  10.290  0.4445 -0.0828 -0.1454
  445MOL0     C61339   3.996   2.998  10.243 -0.8569 -0.5128  0.3354
  445MOL0     C61340   4.015   2.851  10.254 -0.2475 -0.3373  0.9833
  445MOL0     H61341   4.374   3.279   9.862  1.3419  0.6706 -1.8062
  445MOL0     H61342   4.587   3.263   9.754 -1.8973 -0.1997  0.1180
  445MOL0     H61343   4.888   2.939   9.879  0.2608 -0.3357  2.0752
  445MOL0     H61344   4.912   3.081   9.988  1.6087  2.1892  0.0642
  445MOL0     H61345   5.022   3.063   9.697 -4.5620 -0.3452  0.2291
  445MOL0     H61346   5.055   3.195   9.818 -1.9086 -0.1731  4.7907
  445MOL0     H61347   5.170   2.905   9.838  1.6956 -0.9508  0.0703
  445MOL0     H61348   5.235   3.041   9.754  1.2137 -4.0283 -0.9212
  445MOL0     H61349   5.332   3.059   9.982  0.1300 -1.9682  0.7854
  445MOL0     H61350   5.198   3.180   9.978 -0.0154  0.3254 -0.9840
  445MOL0     H61351   5.257   2.938  10.144 -0.4688 -0.7391 -1.4334
  445MOL0     H61352   5.103   2.925  10.075 -1.0209  1.6257 -1.4789
  445MOL0     H61353   5.230   3.152  10.241 -0.1101  0.5338 -0.1287
  445MOL0     H61354   5.076   3.183  10.159 -0.8975  0.3248  2.6961
  445MOL0     H61355   5.112   2.952  10.373 -1.6943 -0.8971  1.2571
  445MOL0     H61356   4.961   3.011  10.322  0.2942 -0.9691 -2.0667
  445MOL0     H61357   5.053   3.123  10.546  0.2756 -1.8577  0.4021
  445MOL0     H61358   5.195   3.167  10.457 -0.3627  0.4319  1.8649
  445MOL0     H61359   4.838   3.214  10.337  0.0079 -1.0255  1.6107
  445MOL0     H61360   4.796   3.581  10.228  0.0848  0.0101 -1.3946
  445MOL0     H61361   4.695   3.470  10.304  2.0706  4.3330  3.3506
  445MOL0     H61362   4.706   3.314  10.102 -0.8681  0.1740  1.6247
  445MOL0     H61363   4.661   3.459  10.040  0.3638 -0.7729 -2.8654
  445MOL0     H61364   4.934   3.318  10.016  0.5640  0.1896  1.9265
  445MOL0     H61365   4.855   3.381   9.885  0.5431 -1.1007  0.7751
  445MOL0     H61366   4.986   3.585  10.061 -0.4697 -0.4693  0.0736
  445MOL0     H61367   5.037   3.494   9.911 -2.3545 -0.5118 -2.8149
  445MOL0     H61368   5.112   3.746   9.913 -0.7486  1.3522  1.4600
  445MOL0     H61369   5.312   3.861   9.661  1.5474 -1.1204  1.4075
  445MOL0     H61370   5.288   3.822   9.827  1.3869  0.6954 -0.7428
  445MOL0     H61371   5.253   3.983   9.766  2.4707  0.6569 -0.1076
  445MOL0     H61372   5.224   4.288   9.454  0.2801 -1.0584  0.8016
  445MOL0     H61373   5.266   4.383   9.233 -1.0540 -0.3695 -0.7251
  445MOL0     H61374   5.500   4.108   8.970 -0.5657  1.8515  0.8753
  445MOL0     H61375   5.344   4.096   8.894  1.6268 -1.9195  1.4464
  445MOL0     H61376   5.567   4.301   8.862 -2.3836  2.8737 -0.3148
  445MOL0     H61377   5.527   4.163   8.753 -3.1690 -2.0073  0.3877
  445MOL0     H61378   5.367   4.412   8.825 -0.8969  0.1359  0.5140
  445MOL0     H61379   5.300   4.269   8.731 -2.1618  3.4862 -3.1021
  445MOL0     H61380   5.328   4.450   8.567  0.8845  0.8722 -0.2177
  445MOL0     H61381   5.438   4.310   8.548  0.2925 -0.1956 -0.7214
  445MOL0     H61382   5.530   4.532   8.730  0.0836  1.1661 -0.1825
  445MOL0     H61383   5.622   4.433   8.611 -0.9123 -2.1624  0.3729
  445MOL0     H61384   5.412   4.643   8.536 -0.1905 -2.5199 -0.1095
  445MOL0     H61385   5.526   4.563   8.428 -4.0888 -0.1352 -0.5990
  445MOL0     H61386   5.717   4.691   8.564 -0.3769 -0.9872 -1.1209
  445MOL0     H61387   5.588   4.768   8.645 -1.5785  2.7700 -1.8517
  445MOL0     H61388   5.615   4.755   8.326 -3.0696  2.3229 -2.4217
  445MOL0     H61389   5.680   4.884   8.423 -1.3005  0.5932 -1.1720
  445MOL0     H61390   5.319   3.985   9.077  0.5189 -0.5802  0.3400
  445MOL0     H61391   5.257   3.900   9.286  1.2361  0.2629 -1.6170
  445MOL0     H61392   4.820   3.851   9.537 -1.4500 -3.1470  0.0370
  445MOL0     H61393   4.735   3.707   9.719  0.8492 -1.9939  0.7611
  445MOL0     H61394   4.700   2.943  10.017 -1.0978 -1.4438 -2.9502
  445MOL0     H61395   4.493   2.976  10.147  0.5071 -3.4407 -1.9144
  445MOL0     H61396   4.118   3.290  10.114 -0.9087 -0.6619 -0.5034
  445MOL0     H61397   3.930   3.378  10.218 -0.4957 -0.3474 -2.3527
  445MOL0     H61398   3.710   3.111  10.498  3.2853  0.3456 -1.8673
  445MOL0     H61399   3.615   3.257  10.502 -0.0401 -1.6247  1.8087
  445MOL0     H61400   3.484   3.072  10.421  1.5814 -1.9075 -0.4171
  445MOL0     H61401   3.580   3.073  10.266  1.2734  2.6479 -1.7205
  445MOL0     H61402   3.517   3.291  10.211  0.4413  2.5389  2.1762
  445MOL0     H61403   3.387   3.168  10.218 -0.7694 -1.3276  2.1105
  445MOL0     H61404   3.310   3.399  10.280 -0.4703  1.9746  3.2590
  445MOL0     H61405   3.408   3.391  10.417 -1.7250  0.7751 -0.1632
  445MOL0     H61406   3.099   3.124  10.538 -0.6932  3.1707  2.6270
  445MOL0     H61407   3.798   2.982  10.331  0.4396 -0.8090 -1.2838
  445MOL0     H61408   3.982   2.805  10.160 -0.0388  2.4368 -0.5447
  445MOL0     H61409   4.117   2.817  10.275  1.5722  3.2067 -1.1865
  445MOL0     H61410   3.950   2.808  10.331 -0.2788  2.0689  2.4052
  446MOL0     O61411   3.417   8.855   0.089  1.0004  0.1390 -0.3230
  446MOL0     C61412   3.440   8.755   0.159  0.6305 -0.8957  0.1705
  446MOL0     O61413   3.550   8.670   0.151  0.1078  0.6612 -0.0590
  446MOL0     C61414   3.649   8.696   0.059  0.0640 -0.7391  0.9577
  446MOL0     C61415   3.705   8.822   0.056 -0.4822 -0.2498 -0.7134
  446MOL0     C61416   3.800   8.856  -0.037  0.1665  0.4984  0.1080
  446MOL0     C61417   3.847   8.762  -0.136  1.2120  0.3465 -0.3368
  446MOL0     O61418   3.925   8.810  -0.239 -0.1949 -0.1964 -0.2402
  446MOL0     C61419   4.009   8.721  -0.309  0.0478  0.0576 -0.0254
  446MOL0     C61420   3.938   8.661  -0.432  0.3760  0.1486  0.1680
  446MOL0     C61421   4.028   8.636  -0.549  0.0490 -0.4331  0.1554
  446MOL0     C61422   4.120   8.518  -0.541 -0.7177 -0.0887 -0.3489
  446MOL0     C61423   4.206   8.501  -0.668 -0.3376  1.0343 -0.4473
  446MOL0     C61424   4.331   8.411  -0.646 -0.5791 -0.1377  0.6286
  446MOL0     C61425   4.422   8.400  -0.768  0.2318 -0.2921 -0.8744
  446MOL0     C61426   4.349   8.324  -0.878  0.7204  0.5091  0.4369
  446MOL0     N61427   4.431   8.283  -0.993 -0.2225  0.2443  0.8374
  446MOL0     C61428   4.499   8.161  -1.003  0.3553 -0.0880  0.2323
  446MOL0     C61429   4.578   8.181  -1.110  0.2017 -0.4314  0.4974
  446MOL0     C61430   4.673   8.075  -1.167 -0.0307 -0.6701  0.5163
  446MOL0     C61431   4.656   8.061  -1.307  0.5796  0.6225  0.0942
  446MOL0     C61432   4.782   7.998  -1.370  0.0841 -0.3268 -1.4403
  446MOL0     C61433   4.894   8.098  -1.411  0.6482  0.6572 -0.2014
  446MOL0     O61434   4.884   8.169  -1.540  0.0584 -0.6372  0.6069
  446MOL0     C61435   4.956   8.126  -1.642 -0.2433  0.1125  0.2469
  446MOL0     C61436   4.974   7.997  -1.674 -0.1317 -0.4674 -0.1093
  446MOL0     C61437   5.038   7.962  -1.792 -0.2508  0.8100  0.2430
  446MOL0     C61438   5.035   7.817  -1.831  0.0461 -0.1533  0.3839
  446MOL0     C61439   5.083   8.058  -1.887 -0.0331 -0.0760 -0.0818
  446MOL0     C61440   5.146   8.038  -2.018  0.8403 -0.2950  0.0860
  446MOL0     O61441   5.226   8.141  -2.057  0.5087 -0.4474 -0.4174
  446MOL0     C61442   5.251   8.159  -2.192 -0.4124  0.1647  0.1150
  446MOL0     C61443   5.207   8.273  -2.260  0.1320 -0.5739  0.5723
  446MOL0     C61444   5.233   8.301  -2.398 -0.2948  0.5445  0.5337
  446MOL0     C61445   5.314   8.203  -2.472  0.2840  0.4232 -0.7040
  446MOL0     O61446   5.354   8.217  -2.601  0.3053 -0.6193 -0.0429
  446MOL0     C61447   5.266   8.288  -2.693 -0.5375 -0.1687  0.1405
  446MOL0     C61448   5.286   8.266  -2.841  1.5564 -0.4219  0.4805
  446MOL0     C61449   5.424   8.300  -2.882  0.0503 -0.3600 -0.2524
  446MOL0     C61450   5.457   8.252  -3.023  0.1695  0.1653 -0.1035
  446MOL0     C61451   5.590   8.315  -3.054  0.3178 -0.0232 -0.0397
  446MOL0     C61452   5.634   8.296  -3.201  0.9923 -0.2075  0.1095
  446MOL0     C61453   5.536   8.370  -3.302  0.0358 -0.1140 -0.2636
  446MOL0     C61454   5.570   8.374  -3.448  0.1360 -0.6322  0.4132
  446MOL0    Cl61455   5.439   8.475  -3.533  0.1255 -0.1843 -0.1968
  446MOL0     C61456   5.356   8.090  -2.399 -0.1477  0.0090  0.1688
  446MOL0     C61457   5.318   8.072  -2.269 -0.0651  0.0649  0.3188
  446MOL0     O61458   5.131   7.928  -2.075 -0.3889 -0.2859 -0.3110
  446MOL0     C61459   5.066   8.190  -1.844 -0.6652  0.0375 -0.4741
  446MOL0     C61460   5.000   8.222  -1.726  0.1783 -0.2800 -0.7638
  446MOL0     N61461   4.555   8.313  -1.159  0.3060  0.5122 -0.4567
  446MOL0     N61462   4.469   8.368  -1.091  0.0768 -1.3950  0.0963
  446MOL0     C61463   3.802   8.631  -0.127  0.4284  0.1916 -0.2648
  446MOL0     C61464   3.708   8.595  -0.033 -0.3849 -0.0603 -0.3521
  446MOL0     C61465   3.318   8.711   0.236  0.1835  0.5804 -0.4466
  446MOL0     C61466   3.189   8.708   0.171 -0.4817 -0.1961 -0.2127
  446MOL0     C61467   3.079   8.683   0.242  1.1070 -0.4981  0.5058
  446MOL0     C61468   3.082   8.659   0.376 -0.3641 -0.6420 -0.7862
  446MOL0     O61469   2.969   8.618   0.446 -0.3208 -0.2184 -0.2195
  446MOL0     C61470   2.945   8.674   0.574 -0.2426 -0.2407  0.1017
  446MOL0     C61471   2.796   8.686   0.598 -0.0384 -0.4016  0.7539
  446MOL0     C61472   2.712   8.558   0.569  0.1173  0.0601  0.0256
  446MOL0     C61473   2.558   8.581   0.553  0.3361 -0.1084 -0.3851
  446MOL0     C61474   2.490   8.626   0.682 -0.4354  0.1828 -0.2105
  446MOL0     C61475   2.444   8.669   0.784 -0.6577 -0.9536  0.1354
  446MOL0     C61476   3.209   8.655   0.437 -0.4750  0.1958 -0.6406
  446MOL0     C61477   3.324   8.701   0.378  0.1895 -0.7464 -0.5823
  446MOL0     C61478   3.445   8.721   0.469  0.1378  0.3885  0.6200
  446MOL0     H61479   3.689   8.886   0.142  0.4853 -3.3039  1.9724
  446MOL0     H61480   3.840   8.957  -0.032 -0.3663  0.7812 -1.1267
  446MOL0     H61481   4.042   8.635  -0.250 -0.4500 -0.5724 -0.6458
  446MOL0     H61482   4.102   8.770  -0.340  1.2579 -1.1546  1.4889
  446MOL0     H61483   3.885   8.570  -0.403  1.0126  0.4111  2.3206
  446MOL0     H61484   3.864   8.736  -0.459 -2.5031 -3.4270 -2.9213
  446MOL0     H61485   3.971   8.631  -0.643 -0.0131 -2.9857  0.2375
  446MOL0     H61486   4.091   8.723  -0.565  0.1286 -0.1160  2.0686
  446MOL0     H61487   4.183   8.535  -0.453  0.8945 -0.1436 -1.4524
  446MOL0     H61488   4.070   8.423  -0.523 -1.3641  0.3499  0.2170
  446MOL0     H61489   4.238   8.596  -0.710 -1.1359  0.1335 -3.3293
  446MOL0     H61490   4.143   8.461  -0.748  0.7434 -5.4126  1.3158
  446MOL0     H61491   4.384   8.427  -0.551 -0.5790  0.8784  0.4690
  446MOL0     H61492   4.293   8.310  -0.628  2.0080 -1.5049 -1.0212
  446MOL0     H61493   4.516   8.353  -0.738  0.3904 -0.3579 -1.4536
  446MOL0     H61494   4.446   8.499  -0.808 -1.5214  0.4895 -0.0812
  446MOL0     H61495   4.301   8.236  -0.833  2.3747  1.0358  3.4869
  446MOL0     H61496   4.272   8.386  -0.925 -3.9437 -2.3072  3.5672
  446MOL0     H61497   4.484   8.070  -0.947  0.1053  0.1481  0.5522
  446MOL0     H61498   4.663   7.985  -1.106  0.0489 -0.5548  0.6979
  446MOL0     H61499   4.779   8.098  -1.149  1.2242 -4.4488 -0.9921
  446MOL0     H61500   4.562   8.011  -1.327  1.5402  0.2458 -4.6426
  446MOL0     H61501   4.643   8.157  -1.359 -4.2249  1.1533  1.7493
  446MOL0     H61502   4.819   7.920  -1.303 -2.5175 -1.7000 -1.4974
  446MOL0     H61503   4.762   7.947  -1.464 -0.2858 -1.3430 -0.8254
  446MOL0     H61504   4.902   8.166  -1.325  1.0324 -0.9917  1.1314
  446MOL0     H61505   4.990   8.045  -1.412 -0.8700 -2.3533 -2.7417
  446MOL0     H61506   4.960   7.906  -1.617 -0.4707 -0.9122 -0.8719
  446MOL0     H61507   4.952   7.798  -1.899 -0.9017 -0.4015  1.5666
  446MOL0     H61508   5.033   7.748  -1.745  0.3139  0.4632  0.8943
  446MOL0     H61509   5.134   7.786  -1.865  0.5127 -1.5443  2.7522
  446MOL0     H61510   5.164   8.358  -2.207 -1.7264  0.8826 -2.9678
  446MOL0     H61511   5.201   8.401  -2.427 -2.1942 -0.4398 -1.0160
  446MOL0     H61512   5.163   8.257  -2.672 -1.0544  0.3667 -1.4857
  446MOL0     H61513   5.275   8.396  -2.677  1.7619  0.0855 -2.2671
  446MOL0     H61514   5.255   8.162  -2.857 -0.7703  0.0499  1.3705
  446MOL0     H61515   5.212   8.330  -2.889  2.1640 -0.2298 -0.2128
  446MOL0     H61516   5.488   8.243  -2.814  0.6535 -1.1035 -1.4099
  446MOL0     H61517   5.440   8.407  -2.864  1.8095 -0.7053  0.4671
  446MOL0     H61518   5.385   8.282  -3.100 -1.4268 -2.6572  0.1135
  446MOL0     H61519   5.455   8.143  -3.032  0.2359  0.2246 -0.8497
  446MOL0     H61520   5.582   8.423  -3.043  0.6266  0.1234 -1.1086
  446MOL0     H61521   5.660   8.274  -2.981 -2.2494 -2.6400  1.1740
  446MOL0     H61522   5.647   8.196  -3.243  0.8325  0.9678 -3.1072
  446MOL0     H61523   5.734   8.342  -3.205  0.3298  1.2242 -1.1593
  446MOL0     H61524   5.531   8.475  -3.273  0.1581 -0.1880  0.0442
  446MOL0     H61525   5.437   8.326  -3.290  0.6376 -1.0172  2.1116
  446MOL0     H61526   5.577   8.275  -3.494 -2.0407 -1.3522  1.4789
  446MOL0     H61527   5.665   8.427  -3.459 -0.3947  0.4803  0.9961
  446MOL0     H61528   5.412   8.020  -2.460  1.4697 -0.7413  2.3670
  446MOL0     H61529   5.342   7.972  -2.234 -0.4708 -0.7484 -1.5921
  446MOL0     H61530   5.102   8.274  -1.903  0.6083  0.1689  0.4460
  446MOL0     H61531   4.985   8.328  -1.705 -0.7097 -0.3243 -1.1384
  446MOL0     H61532   3.831   8.555  -0.199  3.0557 -0.0359  0.9117
  446MOL0     H61533   3.667   8.495  -0.032  1.2816 -0.7841  0.7592
  446MOL0     H61534   3.182   8.725   0.064  0.4621 -1.6080 -0.5264
  446MOL0     H61535   2.978   8.685   0.201  1.4902 -0.8211 -0.5047
  446MOL0     H61536   2.973   8.619   0.665 -0.7900  0.8732  0.9743
  446MOL0     H61537   2.965   8.781   0.566 -1.2975 -0.1391 -1.4833
  446MOL0     H61538   2.758   8.765   0.533  4.2775 -0.9221 -2.8960
  446MOL0     H61539   2.763   8.719   0.697 -1.6947  0.5815 -0.0715
  446MOL0     H61540   2.744   8.516   0.473  1.9966  2.3876 -0.4736
  446MOL0     H61541   2.723   8.491   0.654 -1.1922 -0.8298 -0.4720
  446MOL0     H61542   2.514   8.485   0.526  0.9243 -0.5341  0.1216
  446MOL0     H61543   2.540   8.646   0.467  1.1944  1.1872  0.3699
  446MOL0     H61544   2.403   8.711   0.874 -1.4496  1.5101 -1.2700
  446MOL0     H61545   3.203   8.621   0.540 -0.8302 -0.5426 -0.8986
  446MOL0     H61546   3.422   8.722   0.576  0.8606 -3.3858  0.9374
  446MOL0     H61547   3.522   8.648   0.444 -0.1478  0.1117  0.5465
  446MOL0     H61548   3.475   8.818   0.427 -1.6127 -0.3089 -2.5956
  447MOL0     O61549   0.342   2.838   9.542  0.3335 -0.9975 -0.1293
  447MOL0     C61550   0.245   2.762   9.538 -0.0196 -0.4409  0.1441
  447MOL0     O61551   0.249   2.623   9.559  0.0676  0.2414 -0.1094
  447MOL0     C61552   0.369   2.564   9.558 -0.2407 -0.2557  0.4559
  447MOL0     C61553   0.395   2.470   9.658 -0.2638  1.0938 -0.5127
  447MOL0     C61554   0.512   2.396   9.659 -0.0732  0.1418 -0.3277
  447MOL0     C61555   0.613   2.428   9.571 -0.9191 -0.7877  0.3362
  447MOL0     O61556   0.722   2.341   9.580 -0.0785 -0.1058 -0.0186
  447MOL0     C61557   0.855   2.391   9.538  0.4389 -0.2451  0.5902
  447MOL0     C61558   0.968   2.306   9.596  0.1230 -0.1206  0.7689
  447MOL0     C61559   1.118   2.373   9.581  0.6961 -0.1295  0.0569
  447MOL0     C61560   1.230   2.268   9.616  0.2136 -0.1835  0.1520
  447MOL0     C61561   1.371   2.326   9.600  0.3442  0.1113  0.0897
  447MOL0     C61562   1.403   2.468   9.660 -0.3389 -1.1077 -0.5827
  447MOL0     C61563   1.554   2.492   9.633 -0.2170 -0.3608 -0.3123
  447MOL0     C61564   1.595   2.632   9.675 -0.1038  0.2865 -0.4515
  447MOL0     N61565   1.732   2.661   9.630  0.3588 -0.1908 -0.5767
  447MOL0     C61566   1.827   2.567   9.608 -0.5110 -0.3936 -0.2197
  447MOL0     C61567   1.939   2.629   9.567 -0.0359  0.4450  0.1956
  447MOL0     C61568   2.070   2.560   9.541  0.5252 -0.4422 -0.2395
  447MOL0     C61569   2.124   2.593   9.400 -0.5798  0.0197  0.2610
  447MOL0     C61570   2.222   2.710   9.421 -0.4378  0.3193 -0.0779
  447MOL0     C61571   2.193   2.834   9.495 -0.0268 -0.0792  0.1901
  447MOL0     O61572   2.310   2.923   9.493  0.8226  0.2819  0.2615
  447MOL0     C61573   2.417   2.925   9.582  1.7361  0.4153 -0.3480
  447MOL0     C61574   2.440   2.833   9.682  0.2236  0.2939  0.0668
  447MOL0     C61575   2.557   2.840   9.759 -0.1558  0.2086  0.2644
  447MOL0     C61576   2.562   2.745   9.870 -0.9597 -0.0802 -0.2085
  447MOL0     C61577   2.653   2.947   9.738  0.3348  0.3053 -0.8863
  447MOL0     C61578   2.772   2.977   9.821 -1.4065 -0.6971  0.2486
  447MOL0     O61579   2.807   3.114   9.830 -0.9100  0.0538  0.2882
  447MOL0     C61580   2.939   3.162   9.865  0.6077  0.1879  1.2627
  447MOL0     C61581   3.051   3.087   9.899  0.1234 -1.0204 -0.4044
  447MOL0     C61582   3.170   3.141   9.944 -0.2315 -0.2526  0.8612
  447MOL0     C61583   3.181   3.280   9.954 -0.8093  0.4948 -0.5736
  447MOL0     O61584   3.288   3.342  10.010 -0.9192 -0.8853 -0.0075
  447MOL0     C61585   3.336   3.464   9.953 -0.0915 -0.0610  0.1346
  447MOL0     C61586   3.482   3.478   9.976 -0.8447 -0.1731 -0.4129
  447MOL0     C61587   3.575   3.382   9.903 -0.0376 -0.0816  0.2657
  447MOL0     C61588   3.710   3.454   9.892 -0.1337 -1.3134 -0.3190
  447MOL0     C61589   3.816   3.363   9.823 -0.3845  0.3512  0.1784
  447MOL0     C61590   3.944   3.439   9.767 -0.1506  0.7936 -1.3425
  447MOL0     C61591   4.025   3.357   9.671  1.0098  0.4633 -0.3559
  447MOL0     C61592   4.146   3.437   9.634  0.1366 -0.2525 -0.2006
  447MOL0    Cl61593   4.198   3.375   9.482 -0.1750 -0.3926  0.1135
  447MOL0     C61594   3.070   3.349   9.921 -0.2088 -0.4552 -0.3102
  447MOL0     C61595   2.945   3.298   9.881 -0.3405 -0.1794  0.1739
  447MOL0     O61596   2.833   2.894   9.882  0.2536 -0.1594  0.2419
  447MOL0     C61597   2.627   3.037   9.639  0.2907  0.8671 -0.0831
  447MOL0     C61598   2.512   3.033   9.560 -0.9315  0.9464  0.3536
  447MOL0     N61599   1.903   2.761   9.556  0.5640 -0.3659 -0.1320
  447MOL0     N61600   1.775   2.780   9.593 -0.4630  0.0372  0.0875
  447MOL0     C61601   0.590   2.519   9.466 -0.6600 -0.8123 -0.5126
  447MOL0     C61602   0.464   2.585   9.457 -0.5574 -0.0129  1.0123
  447MOL0     C61603   0.107   2.815   9.539  0.6866 -0.7303 -0.1085
  447MOL0     C61604   0.005   2.735   9.583  0.2073 -0.1149  0.0749
  447MOL0     C61605  -0.124   2.774   9.567 -0.7135 -0.9313 -0.2983
  447MOL0     C61606  -0.169   2.896   9.507  0.8136 -0.3801  0.5789
  447MOL0     O61607  -0.304   2.933   9.465 -0.2933  0.9631  0.2135
  447MOL0     C61608  -0.403   2.831   9.493 -0.0474  0.1328 -0.3722
  447MOL0     C61609  -0.469   2.852   9.635  0.2220  0.3305  0.9016
  447MOL0     C61610  -0.604   2.928   9.630 -0.5297 -0.0367  0.1601
  447MOL0     C61611  -0.660   2.947   9.779 -0.5215 -0.6060  0.5556
  447MOL0     C61612  -0.791   3.030   9.777  0.6083  0.0897 -0.2771
  447MOL0     C61613  -0.887   3.104   9.770  0.3165  0.3152 -0.2595
  447MOL0     C61614  -0.065   2.986   9.484 -0.6231  0.4462  0.1484
  447MOL0     C61615   0.070   2.944   9.495  0.5270  0.1682 -0.1698
  447MOL0     C61616   0.167   3.053   9.461 -0.7931 -1.3030  0.3460
  447MOL0     H61617   0.310   2.439   9.718  0.0570 -1.8034 -1.3909
  447MOL0     H61618   0.531   2.330   9.743  0.4821 -0.4265 -0.8923
  447MOL0     H61619   0.863   2.494   9.574  2.6583 -0.2693  0.2938
  447MOL0     H61620   0.852   2.407   9.430 -4.0125 -0.4398  0.5069
  447MOL0     H61621   0.946   2.297   9.702  2.1960  0.9274  1.3351
  447MOL0     H61622   0.961   2.208   9.548  0.8937  0.9488 -1.7501
  447MOL0     H61623   1.129   2.405   9.477 -0.6301  0.1271 -0.0240
  447MOL0     H61624   1.135   2.457   9.648  3.0947 -2.3128  2.3856
  447MOL0     H61625   1.198   2.235   9.716 -2.4552 -0.1215 -0.6003
  447MOL0     H61626   1.215   2.179   9.555 -1.0882  2.5206 -3.8752
  447MOL0     H61627   1.386   2.330   9.492 -0.5068 -2.2496 -0.1737
  447MOL0     H61628   1.438   2.249   9.641  2.6236  1.5995 -0.6259
  447MOL0     H61629   1.350   2.549   9.608  2.4572  1.4678  0.3091
  447MOL0     H61630   1.368   2.466   9.764 -1.1011 -0.6593 -0.8228
  447MOL0     H61631   1.582   2.475   9.529 -2.9720 -1.2823 -0.9740
  447MOL0     H61632   1.610   2.419   9.694 -3.0056 -2.6098 -0.2283
  447MOL0     H61633   1.535   2.708   9.625 -0.6983 -0.1793 -0.4527
  447MOL0     H61634   1.595   2.647   9.783  0.3322 -1.2137 -0.2257
  447MOL0     H61635   1.816   2.464   9.639 -2.9654 -0.1354 -0.0202
  447MOL0     H61636   2.069   2.452   9.560  2.0850 -0.2295  1.3415
  447MOL0     H61637   2.142   2.601   9.613 -2.6519  0.1544  2.8721
  447MOL0     H61638   2.170   2.504   9.357  0.3474  0.5191  0.1999
  447MOL0     H61639   2.054   2.618   9.319  1.3098  2.7056 -0.6691
  447MOL0     H61640   2.316   2.672   9.462  1.0989  2.5941 -1.2918
  447MOL0     H61641   2.263   2.753   9.329  0.2875  0.9984  0.5437
  447MOL0     H61642   2.118   2.895   9.444  2.1031  0.2128 -2.9447
  447MOL0     H61643   2.157   2.832   9.598 -1.9720  1.8709 -0.3772
  447MOL0     H61644   2.360   2.761   9.698  1.8470 -1.9285 -1.1678
  447MOL0     H61645   2.634   2.664   9.852 -2.1888 -1.4025  0.6019
  447MOL0     H61646   2.465   2.694   9.874  0.0223 -2.4684 -2.9577
  447MOL0     H61647   2.591   2.798   9.962 -0.5106 -0.0144 -0.3820
  447MOL0     H61648   3.051   2.979   9.894  0.5282 -1.1653  1.6914
  447MOL0     H61649   3.254   3.075   9.965  1.4129  0.7766 -1.9872
  447MOL0     H61650   3.316   3.465   9.846 -0.9093  2.0477  0.2466
  447MOL0     H61651   3.283   3.544  10.006 -0.1579 -0.0344  0.0274
  447MOL0     H61652   3.510   3.582   9.962 -0.3794  0.4502  3.7851
  447MOL0     H61653   3.509   3.472  10.082  0.8044 -0.2447 -0.8206
  447MOL0     H61654   3.525   3.362   9.808 -1.0934  0.3402  0.7114
  447MOL0     H61655   3.584   3.286   9.953 -0.7097  0.0796  0.7130
  447MOL0     H61656   3.743   3.488   9.991 -1.3923 -0.5367 -0.1407
  447MOL0     H61657   3.699   3.546   9.834  1.5010 -0.8570  0.0498
  447MOL0     H61658   3.831   3.265   9.870 -1.9829 -1.6099 -2.9880
  447MOL0     H61659   3.765   3.345   9.727 -0.2747  2.0364 -0.2184
  447MOL0     H61660   4.013   3.453   9.851 -2.1194  1.2888  0.2490
  447MOL0     H61661   3.906   3.536   9.732 -3.8992  0.2005  0.5827
  447MOL0     H61662   3.968   3.338   9.580 -0.0079  0.3629  0.2818
  447MOL0     H61663   4.065   3.273   9.729 -0.9636 -1.2137 -1.3360
  447MOL0     H61664   4.220   3.426   9.713 -0.0272  0.8849  0.1388
  447MOL0     H61665   4.124   3.544   9.623  0.5951 -0.1047  0.2758
  447MOL0     H61666   3.060   3.457   9.926 -0.7726 -0.5333  0.4340
  447MOL0     H61667   2.856   3.357   9.860  0.0517  0.6947  0.8694
  447MOL0     H61668   2.702   3.114   9.627 -1.0519  2.0047 -1.5053
  447MOL0     H61669   2.501   3.111   9.485 -0.0543  0.4813 -0.2813
  447MOL0     H61670   0.671   2.525   9.393 -0.7224  1.6425 -0.4699
  447MOL0     H61671   0.439   2.638   9.366 -4.3782 -1.4594  1.0432
  447MOL0     H61672   0.031   2.638   9.627  0.4372 -0.4822 -0.8598
  447MOL0     H61673  -0.195   2.697   9.596  1.0881 -3.3406 -1.8976
  447MOL0     H61674  -0.487   2.845   9.424  0.1525  0.1396 -0.6145
  447MOL0     H61675  -0.369   2.727   9.484 -1.8535 -0.4795 -0.7192
  447MOL0     H61676  -0.404   2.895   9.711  1.4764  1.5164 -0.7591
  447MOL0     H61677  -0.492   2.752   9.673  0.5022  0.2848  0.9496
  447MOL0     H61678  -0.590   3.030   9.592 -0.9945 -0.3365 -0.8500
  447MOL0     H61679  -0.674   2.876   9.564 -1.5672 -0.7295  1.7612
  447MOL0     H61680  -0.580   3.000   9.830 -0.5170 -1.7587  1.7854
  447MOL0     H61681  -0.668   2.849   9.826  2.2932 -2.6619 -2.7290
  447MOL0     H61682  -0.968   3.172   9.760  0.0550  0.1380  0.5324
  447MOL0     H61683  -0.096   3.087   9.460 -2.9949 -1.0624 -4.0616
  447MOL0     H61684   0.120   3.139   9.413  0.5821 -1.3931 -1.2358
  447MOL0     H61685   0.220   3.081   9.553  2.4908 -1.3259 -1.4114
  447MOL0     H61686   0.250   3.026   9.395  0.5577  3.7282 -0.4545
  448MOL0     O61687   2.318   7.830   0.379  0.0094  0.2641  0.2207
  448MOL0     C61688   2.392   7.843   0.284 -0.6010  0.5143 -0.4179
  448MOL0     O61689   2.515   7.896   0.295 -0.0938 -1.1076  1.0442
  448MOL0     C61690   2.567   7.930   0.409  0.6054 -0.7576  0.4864
  448MOL0     C61691   2.542   8.057   0.464 -0.3430  0.2541 -1.0735
  448MOL0     C61692   2.612   8.089   0.580  0.5095 -0.4950 -0.2133
  448MOL0     C61693   2.693   7.996   0.642  0.8270 -0.1464  0.0721
  448MOL0     O61694   2.735   8.036   0.762 -0.1574  0.4549  0.9610
  448MOL0     C61695   2.811   7.958   0.859  0.4586 -0.1338 -0.3294
  448MOL0     C61696   2.849   8.024   0.994 -0.1028  0.2216  0.1904
  448MOL0     C61697   2.976   7.969   1.060  0.3612 -0.1749 -0.3482
  448MOL0     C61698   3.027   8.053   1.184  0.3029  0.1263 -0.5815
  448MOL0     C61699   3.174   8.011   1.191 -0.0403 -0.3491  0.4244
  448MOL0     C61700   3.259   8.082   1.287 -0.3206 -0.8466  0.5942
  448MOL0     C61701   3.409   8.036   1.297  1.0062 -0.1256 -0.5234
  448MOL0     C61702   3.480   8.010   1.162 -0.0783  0.0689 -0.8780
  448MOL0     N61703   3.607   7.936   1.180  0.5963 -0.2414  0.6195
  448MOL0     C61704   3.708   7.960   1.266  0.0218 -0.1695 -0.4962
  448MOL0     C61705   3.810   7.887   1.219 -0.0318 -0.1268  0.1287
  448MOL0     C61706   3.934   7.862   1.293  0.3098 -0.5186  0.3494
  448MOL0     C61707   4.041   7.798   1.207  0.1811 -0.2544 -0.1221
  448MOL0     C61708   4.025   7.648   1.182  0.7431  0.3169 -0.4602
  448MOL0     C61709   4.087   7.586   1.306 -0.3470  0.1224  0.1240
  448MOL0     O61710   4.060   7.442   1.310  0.0359 -0.1728 -0.3469
  448MOL0     C61711   3.965   7.407   1.405 -0.5351 -0.5247 -0.7357
  448MOL0     C61712   3.990   7.309   1.502 -0.4668 -0.2069 -0.8913
  448MOL0     C61713   3.895   7.263   1.601 -0.9740  0.1759 -0.1793
  448MOL0     C61714   3.939   7.152   1.692 -0.1640 -0.2482 -0.1899
  448MOL0     C61715   3.759   7.309   1.581 -0.4532 -0.4993 -1.1668
  448MOL0     C61716   3.637   7.272   1.659  0.7422  0.2744  1.0090
  448MOL0     O61717   3.523   7.311   1.596  0.1209 -0.4241  0.1121
  448MOL0     C61718   3.403   7.242   1.622  0.4196 -0.2017  0.5393
  448MOL0     C61719   3.396   7.105   1.664 -0.5211 -0.5781 -0.4246
  448MOL0     C61720   3.275   7.049   1.680  0.7317 -1.0792  0.7066
  448MOL0     C61721   3.152   7.124   1.678  0.1495 -0.2961  0.4211
  448MOL0     O61722   3.038   7.063   1.711  0.9633  0.2579  0.3848
  448MOL0     C61723   2.941   7.153   1.770 -0.3714  0.3517  0.6390
  448MOL0     C61724   2.828   7.093   1.837  0.6102 -0.3278 -0.5987
  448MOL0     C61725   2.755   6.989   1.748 -0.6399  0.1010 -0.3575
  448MOL0     C61726   2.657   6.920   1.847  1.1787 -0.0833 -0.2918
  448MOL0     C61727   2.553   6.830   1.785  0.2028  0.0736 -0.2533
  448MOL0     C61728   2.478   6.769   1.907  0.2348  0.7830 -0.5926
  448MOL0     C61729   2.375   6.661   1.869 -0.6816  0.0888 -0.1968
  448MOL0     C61730   2.243   6.718   1.848  0.6161 -0.0209 -0.2595
  448MOL0    Cl61731   2.129   6.572   1.876  0.2899  0.6822  0.2487
  448MOL0     C61732   3.155   7.261   1.636 -0.3942  0.0902  0.2745
  448MOL0     C61733   3.282   7.309   1.602  0.7841  0.6810  0.0850
  448MOL0     O61734   3.647   7.228   1.771  0.2341 -0.0045 -0.6035
  448MOL0     C61735   3.737   7.399   1.476  0.3263  0.4305  0.2462
  448MOL0     C61736   3.834   7.454   1.389 -0.6209 -0.6201 -0.1065
  448MOL0     N61737   3.770   7.825   1.100 -0.6857 -0.2057  0.1009
  448MOL0     N61738   3.654   7.856   1.076  0.4120 -0.1857  0.5788
  448MOL0     C61739   2.719   7.873   0.587 -0.0549  0.4384  0.2036
  448MOL0     C61740   2.666   7.840   0.462  0.3420  0.7595  0.1629
  448MOL0     C61741   2.349   7.814   0.141 -0.7726 -0.4865 -0.9343
  448MOL0     C61742   2.212   7.796   0.115 -0.2907 -0.8551  0.4391
  448MOL0     C61743   2.165   7.780  -0.011 -0.2472  1.1448  0.7415
  448MOL0     C61744   2.247   7.766  -0.124 -0.1761 -0.1931 -0.6685
  448MOL0     O61745   2.215   7.762  -0.254 -0.1683 -0.8504  0.0150
  448MOL0     C61746   2.099   7.820  -0.304  0.3989  0.3084 -0.0434
  448MOL0     C61747   2.131   7.916  -0.429  0.8040 -0.9839 -1.2147
  448MOL0     C61748   2.207   8.038  -0.386 -0.7279  0.2443  0.2356
  448MOL0     C61749   2.120   8.156  -0.368  0.1269  0.3138 -0.2111
  448MOL0     C61750   2.185   8.264  -0.302 -0.5906 -0.1431  0.2716
  448MOL0     C61751   2.252   8.355  -0.242  0.6022  0.2842 -0.0600
  448MOL0     C61752   2.388   7.774  -0.100  0.1567  0.2796  0.1031
  448MOL0     C61753   2.446   7.795   0.031  0.0842  0.3026  1.2040
  448MOL0     C61754   2.596   7.810   0.028 -0.2675 -0.9852 -0.8934
  448MOL0     H61755   2.464   8.119   0.421 -1.7570 -0.0841  0.8718
  448MOL0     H61756   2.592   8.180   0.635  2.2794  1.6407 -2.7969
  448MOL0     H61757   2.910   7.942   0.816  1.5060  3.6515  0.2343
  448MOL0     H61758   2.758   7.867   0.886 -2.3050  1.7688  1.1924
  448MOL0     H61759   2.869   8.131   0.978  2.8096 -0.2216  0.4297
  448MOL0     H61760   2.769   8.017   1.069 -1.3697  1.9780 -0.8929
  448MOL0     H61761   2.953   7.870   1.101 -1.3022  0.2900 -0.1090
  448MOL0     H61762   3.049   7.962   0.978 -1.5933 -0.1777 -2.1678
  448MOL0     H61763   3.018   8.153   1.141 -1.5477 -0.9363 -2.9109
  448MOL0     H61764   2.966   8.042   1.274 -1.2852 -0.3425 -1.6643
  448MOL0     H61765   3.216   8.029   1.092  1.2744  0.3689  1.0939
  448MOL0     H61766   3.185   7.903   1.205 -1.3566 -0.4108  1.1976
  448MOL0     H61767   3.248   8.188   1.263  2.6304 -0.6827 -0.3669
  448MOL0     H61768   3.212   8.073   1.385 -2.2228  0.5946 -0.1189
  448MOL0     H61769   3.402   7.944   1.356 -2.9314  0.7333  0.6558
  448MOL0     H61770   3.469   8.099   1.363  1.0514 -3.2195  2.7427
  448MOL0     H61771   3.415   7.952   1.096  1.6600  0.6000 -3.1870
  448MOL0     H61772   3.509   8.103   1.113 -0.8984  1.0242  0.3687
  448MOL0     H61773   3.702   8.028   1.350  0.1824 -0.0923 -0.5461
  448MOL0     H61774   3.903   7.798   1.376 -2.0002  1.3735  1.0451
  448MOL0     H61775   3.970   7.957   1.334  2.3560 -0.8550 -0.5522
  448MOL0     H61776   4.018   7.859   1.118 -1.2680 -2.9565 -1.7253
  448MOL0     H61777   4.139   7.822   1.249  0.1157  0.7010 -0.4778
  448MOL0     H61778   3.920   7.619   1.174  0.3946  0.8722  1.6289
  448MOL0     H61779   4.083   7.617   1.095  2.0482 -0.8157  0.7681
  448MOL0     H61780   4.196   7.595   1.301  0.0494 -3.6061 -2.9363
  448MOL0     H61781   4.074   7.637   1.402  1.6811  2.1074 -0.5648
  448MOL0     H61782   4.087   7.261   1.495 -0.9366 -1.1926 -0.8320
  448MOL0     H61783   4.049   7.151   1.695 -0.1152  1.0073 -0.8514
  448MOL0     H61784   3.901   7.053   1.665 -2.3435  0.5599 -0.2771
  448MOL0     H61785   3.901   7.172   1.793 -0.5516 -1.8440  0.0022
  448MOL0     H61786   3.483   7.058   1.709 -1.0095 -0.3152  0.8547
  448MOL0     H61787   3.257   6.946   1.706 -2.3324 -0.3934  1.7176
  448MOL0     H61788   2.988   7.230   1.833 -0.1404 -0.0247  0.9278
  448MOL0     H61789   2.901   7.212   1.687  3.3723  0.0935 -1.5639
  448MOL0     H61790   2.849   7.043   1.932  0.8948  2.6654  1.0152
  448MOL0     H61791   2.768   7.179   1.867 -0.0156 -0.3423 -1.7478
  448MOL0     H61792   2.830   6.927   1.699 -0.1279  0.4114  0.0248
  448MOL0     H61793   2.690   7.029   1.669 -0.1291  0.4173 -0.6176
  448MOL0     H61794   2.600   7.006   1.883 -0.3023 -0.9245 -0.5423
  448MOL0     H61795   2.714   6.869   1.925 -0.4339 -1.0998  0.2631
  448MOL0     H61796   2.496   6.887   1.711  0.2249 -0.8432 -0.9894
  448MOL0     H61797   2.598   6.749   1.727 -1.8238  0.1844 -2.1125
  448MOL0     H61798   2.450   6.856   1.967 -0.6242  1.7203 -2.2683
  448MOL0     H61799   2.552   6.706   1.957 -2.1771 -1.2668  0.6550
  448MOL0     H61800   2.377   6.582   1.945 -1.9344  2.9609  3.0940
  448MOL0     H61801   2.409   6.619   1.774  0.7937  0.8810 -0.0530
  448MOL0     H61802   2.232   6.767   1.751  2.0737  1.5006  0.2890
  448MOL0     H61803   2.226   6.789   1.930  1.0942 -0.9485  0.6702
  448MOL0     H61804   3.068   7.326   1.629 -3.1477 -3.2435  1.0746
  448MOL0     H61805   3.282   7.404   1.550 -1.3285 -0.0241 -1.3407
  448MOL0     H61806   3.642   7.449   1.461 -0.0565 -0.5904 -0.9364
  448MOL0     H61807   3.811   7.527   1.312  0.5015  0.6934  0.7733
  448MOL0     H61808   2.769   7.799   0.649 -0.3276  0.8628  0.9333
  448MOL0     H61809   2.685   7.744   0.416 -1.6716  0.4376 -0.1231
  448MOL0     H61810   2.144   7.814   0.198 -0.4399  1.7289 -0.1513
  448MOL0     H61811   2.062   7.767  -0.041  0.9520  1.0180 -4.3242
  448MOL0     H61812   2.046   7.733  -0.344 -2.9307  2.5125 -0.8172
  448MOL0     H61813   2.036   7.875  -0.235 -1.8495 -0.5390 -1.3083
  448MOL0     H61814   2.036   7.947  -0.474 -0.1368  3.9287  3.1622
  448MOL0     H61815   2.183   7.848  -0.497 -0.3757 -1.3503 -1.7739
  448MOL0     H61816   2.273   8.018  -0.301  0.1379  1.7172 -0.0516
  448MOL0     H61817   2.279   8.079  -0.457 -0.4758 -1.3522 -0.4730
  448MOL0     H61818   2.033   8.130  -0.307 -0.4839  1.5880 -0.4793
  448MOL0     H61819   2.083   8.194  -0.464 -0.7217  0.3460  0.1196
  448MOL0     H61820   2.319   8.431  -0.207  0.2730  0.1582  0.8420
  448MOL0     H61821   2.438   7.756  -0.195 -1.8057 -5.8131 -0.1816
  448MOL0     H61822   2.642   7.767   0.118 -0.2200  0.4490 -0.2100
  448MOL0     H61823   2.640   7.769  -0.064 -1.1063  2.7536 -3.1747
  448MOL0     H61824   2.629   7.914   0.037 -2.3623 -0.4188  1.0279
  449MOL0     O61825   7.827   2.619   4.409  0.5611  0.5348 -0.7548
  449MOL0     C61826   7.856   2.557   4.510 -0.6812  0.0215  0.2210
  449MOL0     O61827   7.988   2.530   4.548 -0.4284 -0.1087 -0.1299
  449MOL0     C61828   8.082   2.619   4.498  0.0707  0.6859 -0.3531
  449MOL0     C61829   8.073   2.759   4.514 -0.6086 -0.6393 -0.3985
  449MOL0     C61830   8.177   2.839   4.469 -0.5653  0.1883 -0.1456
  449MOL0     C61831   8.293   2.785   4.404  0.5043  0.6981 -0.7318
  449MOL0     O61832   8.384   2.878   4.374  0.0710  0.2091  0.0692
  449MOL0     C61833   8.527   2.842   4.374 -0.7899  0.6864 -0.1424
  449MOL0     C61834   8.618   2.951   4.339  0.3470  1.6325  0.1374
  449MOL0     C61835   8.606   3.078   4.414 -0.1063  0.1235 -1.3139
  449MOL0     C61836   8.677   3.055   4.556  0.6694  0.4008  0.5314
  449MOL0     C61837   8.689   3.174   4.636  0.3098 -0.2359 -0.9456
  449MOL0     C61838   8.559   3.252   4.669  0.4521 -0.3456 -0.4511
  449MOL0     C61839   8.579   3.330   4.789 -0.3895  0.2925  1.0108
  449MOL0     C61840   8.479   3.451   4.797  0.0904  0.3775  1.0663
  449MOL0     N61841   8.519   3.519   4.921 -0.5624  0.4059  0.6399
  449MOL0     C61842   8.519   3.460   5.046 -0.6042 -0.4930  1.0065
  449MOL0     C61843   8.612   3.534   5.118 -1.3923  0.6131 -0.5362
  449MOL0     C61844   8.649   3.523   5.258  0.7310 -0.5334 -0.3005
  449MOL0     C61845   8.770   3.430   5.277  0.2742  0.3574 -0.0679
  449MOL0     C61846   8.909   3.484   5.237  0.6562  0.9607 -0.0090
  449MOL0     C61847   9.019   3.377   5.237  0.7240  0.5338  0.0190
  449MOL0     O61848   9.142   3.437   5.177 -0.5233  0.3972  0.0890
  449MOL0     C61849   9.231   3.348   5.124 -1.2863 -0.1870  0.0200
  449MOL0     C61850   9.256   3.217   5.173  1.5703 -0.2778  0.7124
  449MOL0     C61851   9.352   3.134   5.121  0.6248 -0.9780 -0.1427
  449MOL0     C61852   9.354   2.993   5.176 -0.0494 -0.5783  0.6126
  449MOL0     C61853   9.437   3.185   5.014 -0.1179 -0.4744 -0.3036
  449MOL0     C61854   9.537   3.101   4.943  0.2581 -0.0257  0.3208
  449MOL0     O61855   9.631   3.055   5.025  0.3870 -1.0257 -0.2626
  449MOL0     C61856   9.733   2.982   4.980  0.0723 -0.4543 -0.8164
  449MOL0     C61857   9.868   3.035   4.965  0.9450 -0.4838  0.7529
  449MOL0     C61858   9.973   2.954   4.923  0.3595 -0.2894  0.0057
  449MOL0     C61859   9.956   2.815   4.900  0.1589 -0.3280 -0.6117
  449MOL0     O61860  10.052   2.728   4.881 -0.2951  0.1692  0.4674
  449MOL0     C61861  10.178   2.742   4.952 -0.2051  0.7073  0.6658
  449MOL0     C61862  10.284   2.775   4.852 -0.5214 -0.6949  0.1205
  449MOL0     C61863  10.427   2.765   4.924 -0.1426  0.0205  1.1148
  449MOL0     C61864  10.481   2.898   4.979 -0.1316 -0.2827 -0.0208
  449MOL0     C61865  10.613   2.866   5.044  0.2525  0.1434  0.6751
  449MOL0     C61866  10.683   2.979   5.113  0.0390  0.7830  0.0166
  449MOL0     C61867  10.766   2.929   5.234 -0.2483 -0.4817  0.3888
  449MOL0     C61868  10.857   2.815   5.195 -0.1173 -0.0614  0.3993
  449MOL0    Cl61869  10.983   2.857   5.080  0.1969 -0.0096  0.2113
  449MOL0     C61870   9.827   2.768   4.917 -0.1685 -0.1347  0.0589
  449MOL0     C61871   9.712   2.842   4.952 -0.2883 -0.7576  0.2292
  449MOL0     O61872   9.536   3.095   4.819  0.5141 -0.4609  0.9682
  449MOL0     C61873   9.400   3.310   4.952  0.1024  0.3826 -0.6111
  449MOL0     C61874   9.296   3.383   5.005 -0.0767  0.3659  0.2936
  449MOL0     N61875   8.659   3.631   5.029  0.7042  1.0974  0.4883
  449MOL0     N61876   8.613   3.620   4.911 -0.5085  0.5066 -0.4535
  449MOL0     C61877   8.298   2.644   4.407  0.8990  1.3380 -0.7453
  449MOL0     C61878   8.194   2.562   4.453  0.0097 -0.1958  0.5478
  449MOL0     C61879   7.749   2.500   4.597 -0.2105 -0.1347  0.4342
  449MOL0     C61880   7.792   2.463   4.728  1.6046  1.3474  0.3769
  449MOL0     C61881   7.694   2.428   4.822  0.2968  0.1687  0.2626
  449MOL0     C61882   7.560   2.421   4.795 -0.0607  0.1791 -1.0069
  449MOL0     O61883   7.475   2.412   4.899  0.1821 -0.2727 -0.8523
  449MOL0     C61884   7.424   2.536   4.936  0.2163 -0.0946 -0.0620
  449MOL0     C61885   7.448   2.559   5.080  0.4612 -0.3802  0.0197
  449MOL0     C61886   7.371   2.689   5.114  0.1987  0.0403 -0.4581
  449MOL0     C61887   7.382   2.716   5.264 -0.1129  0.0119  0.5129
  449MOL0     C61888   7.519   2.773   5.274  0.4746  0.4466 -0.0771
  449MOL0     C61889   7.628   2.822   5.299  0.2161 -0.2705  1.0837
  449MOL0     C61890   7.520   2.449   4.664  0.0964 -0.1882  0.1818
  449MOL0     C61891   7.608   2.492   4.560  0.4199  0.9066 -0.7409
  449MOL0     C61892   7.552   2.533   4.419 -0.6940 -0.2509  0.2178
  449MOL0     H61893   7.989   2.803   4.567  0.7734 -1.1488  2.3930
  449MOL0     H61894   8.182   2.947   4.483  1.2396 -0.1155  2.2291
  449MOL0     H61895   8.538   2.761   4.302  1.3338 -1.1129  2.0431
  449MOL0     H61896   8.552   2.807   4.475  0.3320  1.9128  0.0241
  449MOL0     H61897   8.723   2.919   4.336 -0.2252 -0.3466 -0.5429
  449MOL0     H61898   8.593   2.968   4.234  0.5041 -2.6422 -0.7850
  449MOL0     H61899   8.640   3.164   4.355  1.0205 -0.5487 -1.6773
  449MOL0     H61900   8.498   3.094   4.413 -0.4890 -0.8331  3.1051
  449MOL0     H61901   8.614   2.982   4.608 -1.3712  1.3685 -0.4674
  449MOL0     H61902   8.775   3.010   4.541  1.1014  1.8126 -1.1163
  449MOL0     H61903   8.751   3.244   4.578 -0.3221  0.7243 -0.4817
  449MOL0     H61904   8.744   3.138   4.723  1.9441 -0.9403 -2.1985
  449MOL0     H61905   8.515   3.314   4.591 -1.9394  0.0938  1.1267
  449MOL0     H61906   8.476   3.182   4.685  1.9819 -1.8541  1.3325
  449MOL0     H61907   8.681   3.370   4.797 -0.7608  2.2694 -2.1811
  449MOL0     H61908   8.545   3.272   4.875  1.0418  1.1056  2.1809
  449MOL0     H61909   8.481   3.515   4.708 -0.6100 -1.8317 -0.6128
  449MOL0     H61910   8.373   3.426   4.809  0.1450  0.7374  2.5802
  449MOL0     H61911   8.463   3.378   5.091 -0.4734 -0.7254  0.7516
  449MOL0     H61912   8.560   3.488   5.312  0.1680 -0.2917 -1.0558
  449MOL0     H61913   8.668   3.627   5.285 -3.6040  0.1580  0.9513
  449MOL0     H61914   8.766   3.405   5.384 -1.2085  6.4109  1.6958
  449MOL0     H61915   8.754   3.344   5.212 -1.5466  2.6419 -2.8833
  449MOL0     H61916   8.912   3.533   5.139  0.6074  1.5561  0.2814
  449MOL0     H61917   8.926   3.569   5.304  2.0234 -0.5672  1.6803
  449MOL0     H61918   9.046   3.341   5.337  1.3786 -0.3585 -0.4589
  449MOL0     H61919   8.986   3.292   5.176  1.3178  0.9012 -0.8482
  449MOL0     H61920   9.205   3.184   5.262 -1.1012 -2.0886 -1.3268
  449MOL0     H61921   9.253   2.952   5.183 -1.5309  2.7871  1.0694
  449MOL0     H61922   9.393   3.000   5.278 -1.3413  1.8916  1.0198
  449MOL0     H61923   9.420   2.917   5.134  0.3375  0.2693 -0.3589
  449MOL0     H61924   9.889   3.135   5.004  0.0348 -0.1266  0.3595
  449MOL0     H61925  10.074   2.994   4.930  0.2042  0.5044 -1.6744
  449MOL0     H61926  10.172   2.807   5.039 -0.4056 -1.2130  2.1694
  449MOL0     H61927  10.208   2.641   4.984  1.1427  0.0110 -2.3834
  449MOL0     H61928  10.270   2.703   4.772  0.6570 -1.4042  0.5295
  449MOL0     H61929  10.269   2.873   4.805  1.1555 -0.2570  0.4080
  449MOL0     H61930  10.485   2.739   4.835  0.3983  4.2218  0.0199
  449MOL0     H61931  10.429   2.685   4.998  0.4421 -0.8652  0.1692
  449MOL0     H61932  10.411   2.952   5.045  1.5356  3.6040 -1.1614
  449MOL0     H61933  10.504   2.969   4.899  0.8309  2.5681  2.6098
  449MOL0     H61934  10.591   2.780   5.109 -2.9171  1.1971  1.1606
  449MOL0     H61935  10.687   2.820   4.976  1.7877  0.4940  2.0465
  449MOL0     H61936  10.608   3.043   5.159 -0.7025 -0.5190  0.6757
  449MOL0     H61937  10.744   3.035   5.041 -1.6866  0.6543 -1.6101
  449MOL0     H61938  10.693   2.916   5.315  0.0716 -0.3752  0.6973
  449MOL0     H61939  10.838   3.009   5.255 -1.0304  0.2962  0.1587
  449MOL0     H61940  10.804   2.730   5.153 -0.8249  0.5647  0.0035
  449MOL0     H61941  10.907   2.777   5.285  0.6846  1.6234  0.7249
  449MOL0     H61942   9.831   2.663   4.890  4.2607 -0.0293 -0.4217
  449MOL0     H61943   9.612   2.799   4.949 -0.7299  0.2296 -3.4203
  449MOL0     H61944   9.439   3.338   4.855  0.5458  1.4099 -0.1595
  449MOL0     H61945   9.265   3.470   4.948 -1.6922 -0.3060  0.0917
  449MOL0     H61946   8.383   2.591   4.367 -0.3007 -3.2155  2.0548
  449MOL0     H61947   8.194   2.453   4.451 -0.8671 -0.1974 -0.9850
  449MOL0     H61948   7.893   2.477   4.766  2.9140  1.8108 -2.9526
  449MOL0     H61949   7.726   2.410   4.924 -1.9849  1.0783  1.1990
  449MOL0     H61950   7.462   2.620   4.877 -1.2569  2.0763  1.8762
  449MOL0     H61951   7.315   2.541   4.926  0.3649  1.8545 -1.3511
  449MOL0     H61952   7.554   2.568   5.107  0.4130 -0.7589  0.3438
  449MOL0     H61953   7.411   2.471   5.133  1.6380 -1.6071 -1.1440
  449MOL0     H61954   7.396   2.775   5.051 -2.6280  1.1864 -0.1732
  449MOL0     H61955   7.266   2.669   5.089  0.4277  0.9761 -2.3633
  449MOL0     H61956   7.370   2.620   5.315 -0.4800 -0.7160 -0.8864
  449MOL0     H61957   7.310   2.775   5.320  1.6804  3.4764 -0.5673
  449MOL0     H61958   7.710   2.889   5.316 -1.2680  1.5833  1.2743
  449MOL0     H61959   7.412   2.453   4.648  0.0110  1.9453  1.0135
  449MOL0     H61960   7.562   2.642   4.424 -1.8984  0.1392 -3.1584
  449MOL0     H61961   7.606   2.498   4.330  1.0264 -2.7736  2.0918
  449MOL0     H61962   7.449   2.498   4.410 -1.1206  1.1808 -0.9416
  450MOL0     O61963   0.212   8.042  10.314 -0.1811  0.1657  0.3820
  450MOL0     C61964   0.207   8.083  10.434 -0.5380 -0.4106  0.6894
  450MOL0     O61965   0.201   8.001  10.544 -0.7865 -0.1446  0.2693
  450MOL0     C61966   0.144   7.877  10.543 -0.5423  0.7300 -0.0753
  450MOL0     C61967   0.220   7.770  10.595 -0.0417  1.1963 -0.6036
  450MOL0     C61968   0.165   7.641  10.582 -0.3600 -0.4542  0.3951
  450MOL0     C61969   0.034   7.618  10.530  0.4972 -0.0176 -1.4187
  450MOL0     O61970  -0.012   7.486  10.535 -0.8578  0.4341 -0.5771
  450MOL0     C61971  -0.129   7.447  10.461 -0.0427  0.0653 -0.0155
  450MOL0     C61972  -0.138   7.300  10.476  0.6483 -1.1301  1.1382
  450MOL0     C61973  -0.026   7.205  10.407 -0.2190 -0.1869 -0.4118
  450MOL0     C61974   0.075   7.154  10.511  0.5813  0.1696 -0.1732
  450MOL0     C61975   0.012   7.031  10.591 -1.0896 -0.0863 -0.4184
  450MOL0     C61976  -0.008   6.908  10.499 -0.1061 -0.3116 -0.1969
  450MOL0     C61977  -0.020   6.775  10.579  0.4606 -0.8492 -0.4565
  450MOL0     C61978   0.102   6.680  10.572 -0.2911  0.5147 -0.6397
  450MOL0     N61979   0.211   6.730  10.649 -0.3343 -0.7347 -0.2621
  450MOL0     C61980   0.224   6.776  10.781  0.2010  0.6481  0.5326
  450MOL0     C61981   0.352   6.788  10.804 -0.0409 -0.5435 -0.1315
  450MOL0     C61982   0.412   6.845  10.930 -0.5106  0.0059 -0.2592
  450MOL0     C61983   0.543   6.932  10.914  0.0197 -0.1702 -0.1158
  450MOL0     C61984   0.537   7.082  10.945  0.4234 -0.1385  0.4451
  450MOL0     C61985   0.446   7.150  10.850 -0.7903 -0.5337  0.4270
  450MOL0     O61986   0.411   7.281  10.909 -0.1549 -0.1152  0.5354
  450MOL0     C61987   0.483   7.403  10.885  0.7116  0.2058  1.2244
  450MOL0     C61988   0.612   7.417  10.834  0.4908 -0.8568 -0.0398
  450MOL0     C61989   0.670   7.543  10.807  0.5218  0.1224  0.4355
  450MOL0     C61990   0.803   7.537  10.746 -0.0970 -0.3346 -0.2902
  450MOL0     C61991   0.602   7.660  10.846 -0.0131  0.8470  0.1875
  450MOL0     C61992   0.645   7.795  10.824  0.0016  0.4083  0.0343
  450MOL0     O61993   0.576   7.897  10.894  0.4199  0.3094  0.3945
  450MOL0     C61994   0.616   8.025  10.908 -0.0031 -0.2369  0.3084
  450MOL0     C61995   0.749   8.063  10.941  0.0169  0.4058  0.2421
  450MOL0     C61996   0.772   8.201  10.931 -0.6739  1.0414  0.0428
  450MOL0     C61997   0.684   8.299  10.892  0.2629 -0.2644  0.6948
  450MOL0     O61998   0.719   8.427  10.900 -0.2172 -0.7763 -0.5722
  450MOL0     C61999   0.610   8.520  10.929 -0.1084  0.0955 -0.0180
  450MOL0     C62000   0.674   8.650  10.994  0.6101  0.2672  0.5836
  450MOL0     C62001   0.741   8.747  10.898 -0.2060  0.2354  0.6448
  450MOL0     C62002   0.811   8.869  10.952 -0.8508  0.5783 -0.8377
  450MOL0     C62003   0.886   8.946  10.836  0.4140  0.5906  0.5064
  450MOL0     C62004   0.944   9.083  10.867  0.4701  0.6007  0.1024
  450MOL0     C62005   1.031   9.135  10.754 -0.6577 -0.7851 -0.3808
  450MOL0     C62006   1.070   9.281  10.785 -1.1538  0.4584 -0.0224
  450MOL0    Cl62007   1.194   9.284  10.924  0.0965 -0.1311 -0.1069
  450MOL0     C62008   0.556   8.258  10.867 -0.0784 -0.4330  0.4114
  450MOL0     C62009   0.523   8.115  10.864  0.5930  0.6209  0.4012
  450MOL0     O62010   0.749   7.812  10.762  0.2171 -0.7361  0.8169
  450MOL0     C62011   0.476   7.642  10.904  0.0011  0.6634 -0.2689
  450MOL0     C62012   0.420   7.521  10.922  0.6220 -0.2721 -1.0449
  450MOL0     N62013   0.420   6.766  10.688 -0.6118 -0.2840 -0.3659
  450MOL0     N62014   0.335   6.742  10.593 -0.4092  0.6933 -1.0544
  450MOL0     C62015  -0.041   7.724  10.492  0.6771  0.1819 -0.5394
  450MOL0     C62016   0.020   7.851  10.482  0.3647  1.0379  0.3611
  450MOL0     C62017   0.231   8.229  10.453 -0.8504 -0.5180  0.5088
  450MOL0     C62018   0.278   8.310  10.346 -0.9938 -0.2386  0.3937
  450MOL0     C62019   0.290   8.449  10.357  0.0712 -0.7122 -0.1571
  450MOL0     C62020   0.270   8.509  10.475 -0.7523 -0.6255 -0.3448
  450MOL0     O62021   0.303   8.640  10.486 -0.2004  0.3412 -0.8413
  450MOL0     C62022   0.256   8.725  10.591  0.5036 -0.2875 -1.1426
  450MOL0     C62023   0.290   8.859  10.558 -0.7364  0.4440  0.0211
  450MOL0     C62024   0.439   8.886  10.598 -1.1829  0.4170 -0.2020
  450MOL0     C62025   0.475   9.029  10.574 -0.0415 -1.8921  0.7848
  450MOL0     C62026   0.479   9.055  10.430  0.0143  0.5691 -0.1085
  450MOL0     C62027   0.474   9.091  10.310  0.4477  0.2048 -0.7290
  450MOL0     C62028   0.227   8.432  10.581  0.5176  0.6005 -0.9988
  450MOL0     C62029   0.192   8.299  10.568  0.5586 -0.2796  0.8833
  450MOL0     C62030   0.167   8.239  10.700 -0.4116  0.1807  0.1200
  450MOL0     H62031   0.321   7.792  10.630  0.4304  1.1150 -1.8914
  450MOL0     H62032   0.227   7.558  10.615 -1.2946 -1.9284 -1.3280
  450MOL0     H62033  -0.115   7.478  10.357  2.4862 -0.0160  0.2473
  450MOL0     H62034  -0.220   7.486  10.507 -3.0612 -2.7906 -2.9954
  450MOL0     H62035  -0.143   7.282  10.584  0.6483 -1.5843  1.0654
  450MOL0     H62036  -0.231   7.282  10.419  1.1148  3.6546 -1.6529
  450MOL0     H62037  -0.075   7.123  10.354  0.9965 -1.3329  0.1970
  450MOL0     H62038   0.029   7.269  10.338  1.5735  0.6610  1.6907
  450MOL0     H62039   0.167   7.129  10.457  0.1959 -2.5779  0.2970
  450MOL0     H62040   0.106   7.229  10.584 -0.5003  2.8182 -2.2730
  450MOL0     H62041  -0.086   7.049  10.636 -2.2188 -1.6552 -2.0717
  450MOL0     H62042   0.074   7.006  10.678 -1.0677  1.7767  0.1403
  450MOL0     H62043  -0.097   6.927  10.439 -0.0223  2.6220  0.4918
  450MOL0     H62044   0.082   6.905  10.437  0.7698 -0.2099  1.0298
  450MOL0     H62045  -0.108   6.723  10.540  1.0673 -0.8677 -1.8440
  450MOL0     H62046  -0.046   6.797  10.683 -1.7376 -1.5066 -0.8175
  450MOL0     H62047   0.085   6.576  10.601  4.7304 -1.0858 -2.2566
  450MOL0     H62048   0.143   6.671  10.471 -0.3169 -3.1570 -0.4489
  450MOL0     H62049   0.137   6.802  10.840 -1.4719  0.1985 -1.6110
  450MOL0     H62050   0.435   6.759  10.995  0.9066 -1.7239 -2.8668
  450MOL0     H62051   0.338   6.903  10.986 -0.9208 -1.3038  0.6124
  450MOL0     H62052   0.619   6.891  10.982  0.7286 -1.2631 -1.5004
  450MOL0     H62053   0.576   6.907  10.813 -2.2634 -0.5844 -0.8134
  450MOL0     H62054   0.507   7.095  11.049  2.2123  2.5661  0.7487
  450MOL0     H62055   0.635   7.131  10.943 -0.4334  1.8380  2.3194
  450MOL0     H62056   0.500   7.168  10.757  4.2974 -2.0538  2.7167
  450MOL0     H62057   0.349   7.102  10.834 -1.3613  0.3350  1.1437
  450MOL0     H62058   0.663   7.323  10.813 -2.4421 -2.1499 -2.2241
  450MOL0     H62059   0.855   7.441  10.734  4.0938  1.6590  0.2395
  450MOL0     H62060   0.861   7.590  10.822  2.9670 -4.8256  0.9167
  450MOL0     H62061   0.801   7.585  10.648  3.5723 -1.5783 -1.1294
  450MOL0     H62062   0.825   7.993  10.973  1.4247  1.8090  0.0813
  450MOL0     H62063   0.870   8.236  10.963 -1.0222  0.9403  1.3079
  450MOL0     H62064   0.559   8.558  10.840  2.1073  3.4099 -0.0722
  450MOL0     H62065   0.540   8.473  10.998 -0.9526  0.9090 -0.3020
  450MOL0     H62066   0.596   8.707  11.046 -1.3424 -2.0270  0.3876
  450MOL0     H62067   0.742   8.609  11.069 -0.0765  0.7987  1.5174
  450MOL0     H62068   0.666   8.771  10.821  0.7555  1.3977  0.0470
  450MOL0     H62069   0.816   8.691  10.840 -0.6723  0.0794  0.1807
  450MOL0     H62070   0.882   8.838  11.029 -2.6267  1.9477  1.4896
  450MOL0     H62071   0.738   8.932  11.003 -0.3220 -1.4102  2.6831
  450MOL0     H62072   0.968   8.890  10.790 -0.8522  1.4984 -3.2372
  450MOL0     H62073   0.808   8.960  10.760  1.7029 -0.6834 -1.1336
  450MOL0     H62074   0.993   9.068  10.964 -2.6042  0.6408  1.7887
  450MOL0     H62075   0.850   9.137  10.879  0.5265  0.6767  0.2085
  450MOL0     H62076   0.983   9.124  10.656  0.8893 -2.5455 -1.0090
  450MOL0     H62077   1.125   9.079  10.751  1.0119  1.8614 -0.7487
  450MOL0     H62078   0.981   9.339  10.811 -1.6208  0.2521 -1.1021
  450MOL0     H62079   1.113   9.318  10.692  1.1749 -2.2914 -0.1626
  450MOL0     H62080   0.484   8.336  10.846 -0.3023 -1.0174 -1.1920
  450MOL0     H62081   0.427   8.075  10.833  0.5385  0.9015  0.2012
  450MOL0     H62082   0.412   7.723  10.937  1.0389  1.6889 -0.6802
  450MOL0     H62083   0.322   7.505  10.965  2.5138 -4.0794  2.4838
  450MOL0     H62084  -0.142   7.702  10.458  0.4524 -1.3737  0.9941
  450MOL0     H62085  -0.029   7.936  10.436  1.0833  0.7664 -0.9779
  450MOL0     H62086   0.313   8.265  10.253 -0.3226 -1.7506  1.3423
  450MOL0     H62087   0.329   8.511  10.277  0.2679 -0.7585 -0.0969
  450MOL0     H62088   0.147   8.720  10.603  0.3268 -0.1128 -2.4888
  450MOL0     H62089   0.321   8.702  10.676 -0.7753  2.4505  0.7143
  450MOL0     H62090   0.234   8.924  10.627 -0.9816 -1.4488  1.7070
  450MOL0     H62091   0.268   8.886  10.454  0.8761  0.4755 -0.3394
  450MOL0     H62092   0.468   8.860  10.700 -0.2429  0.1749 -0.5172
  450MOL0     H62093   0.511   8.824  10.542  0.1526  1.4335  0.3515
  450MOL0     H62094   0.573   9.058  10.614 -0.6357  1.6824 -0.0312
  450MOL0     H62095   0.411   9.103  10.623  3.1074  0.5194  1.5993
  450MOL0     H62096   0.479   9.120  10.207  1.8551  2.7535 -0.0506
  450MOL0     H62097   0.221   8.473  10.681  4.2015  0.9133 -0.7888
  450MOL0     H62098   0.130   8.318  10.765 -2.9256  1.3596 -2.5035
  450MOL0     H62099   0.092   8.159  10.696 -0.7223  0.4914 -0.4440
  450MOL0     H62100   0.261   8.195  10.733  0.5574 -0.6047 -3.2713
  451MOL0     O62101   9.780   2.185   9.286  0.2602  0.4198  0.1295
  451MOL0     C62102   9.897   2.172   9.244  0.5978 -0.0471 -0.4110
  451MOL0     O62103   9.998   2.094   9.303 -0.0696  1.1958 -0.1005
  451MOL0     C62104   9.961   2.012   9.416 -1.2577 -0.3951 -0.1986
  451MOL0     C62105  10.003   2.055   9.539  0.1715  0.1212  0.1486
  451MOL0     C62106   9.986   1.966   9.649 -0.5370  0.3615 -0.1801
  451MOL0     C62107   9.924   1.836   9.637  0.1675 -1.1222  0.7182
  451MOL0     O62108   9.910   1.743   9.736 -0.0583 -0.9711 -0.7835
  451MOL0     C62109   9.885   1.789   9.876  0.4623  0.1771  0.1805
  451MOL0     C62110   9.891   1.657   9.944 -0.2850 -0.1905  0.0829
  451MOL0     C62111  10.032   1.595   9.934  0.0611 -0.3153  1.1353
  451MOL0     C62112  10.046   1.450   9.981 -0.0018 -0.0398  0.4666
  451MOL0     C62113  10.190   1.411  10.011  0.7195 -0.6070  0.5976
  451MOL0     C62114  10.194   1.279  10.092 -0.3782  0.9852 -0.0964
  451MOL0     C62115  10.320   1.204  10.108 -0.7034  0.3281  0.2038
  451MOL0     C62116  10.447   1.294  10.122 -0.4435  1.0238  0.1343
  451MOL0     N62117  10.568   1.209  10.153  1.2660 -0.2113 -0.7810
  451MOL0     C62118  10.699   1.220  10.116 -0.7837 -0.3387  0.8236
  451MOL0     C62119  10.757   1.099  10.143 -0.0098 -0.1735  0.1162
  451MOL0     C62120  10.888   1.051  10.087 -0.5082  0.3817  0.3644
  451MOL0     C62121  10.987   1.059  10.205 -0.5308 -0.6387 -0.5770
  451MOL0     C62122  10.957   0.968  10.333  0.0549  0.1722  1.1641
  451MOL0     C62123  11.063   0.979  10.436 -0.9442  0.8842  0.7327
  451MOL0     O62124  11.194   0.922  10.398 -0.3765 -0.6867 -0.1053
  451MOL0     C62125  11.291   0.894  10.495  0.2441  0.5673  0.4611
  451MOL0     C62126  11.411   0.842  10.457  0.0681 -0.1277  0.1586
  451MOL0     C62127  11.515   0.804  10.538  0.1984  0.1658 -0.3175
  451MOL0     C62128  11.643   0.763  10.475 -0.8886  0.1423 -0.3627
  451MOL0     C62129  11.493   0.817  10.679  0.0274  0.6271  0.5124
  451MOL0     C62130  11.590   0.766  10.785 -0.1037 -0.0905 -0.2319
  451MOL0     O62131  11.579   0.829  10.905  0.9091  0.8364  0.2328
  451MOL0     C62132  11.651   0.784  11.012 -0.0442 -0.2173  0.1076
  451MOL0     C62133  11.745   0.863  11.078 -0.1893 -0.8316  0.1337
  451MOL0     C62134  11.807   0.828  11.195 -0.8291  0.2658  0.2129
  451MOL0     C62135  11.774   0.699  11.251 -0.4338  0.3367 -0.4251
  451MOL0     O62136  11.847   0.647  11.352  0.7283  0.2748  0.3908
  451MOL0     C62137  11.779   0.628  11.473  0.5821  0.2927 -0.4247
  451MOL0     C62138  11.852   0.711  11.583 -0.7757 -0.0466 -0.1305
  451MOL0     C62139  12.003   0.713  11.579 -0.0278 -0.3220  0.2779
  451MOL0     C62140  12.050   0.711  11.728  0.5337 -0.0078  0.9485
  451MOL0     C62141  12.201   0.750  11.738  1.1957 -0.2875 -0.4884
  451MOL0     C62142  12.230   0.759  11.882 -0.2184 -0.0071 -0.1224
  451MOL0     C62143  12.384   0.798  11.910 -0.4150  0.1732  0.2225
  451MOL0     C62144  12.485   0.699  11.859  0.5713  0.2673  0.2748
  451MOL0    Cl62145  12.551   0.767  11.704 -0.1358 -0.0011 -0.1028
  451MOL0     C62146  11.680   0.616  11.184 -0.0800  0.2947  0.3369
  451MOL0     C62147  11.615   0.663  11.072  0.0587  0.2530  0.3160
  451MOL0     O62148  11.659   0.669  10.764 -0.1731 -0.7737  0.3220
  451MOL0     C62149  11.380   0.882  10.724 -0.0112  1.4376 -0.5996
  451MOL0     C62150  11.275   0.916  10.633 -0.1761 -0.8161  0.4067
  451MOL0     N62151  10.660   1.015  10.195  0.4745 -0.1093  0.1072
  451MOL0     N62152  10.550   1.084  10.210 -0.3707 -0.5697 -0.6579
  451MOL0     C62153   9.890   1.802   9.510  0.6327  0.1709 -0.0978
  451MOL0     C62154   9.904   1.884   9.396 -0.8324  0.1174  0.6694
  451MOL0     C62155   9.919   2.226   9.114 -0.0263 -0.5556  1.1450
  451MOL0     C62156  10.056   2.241   9.084  0.5477  0.0831  0.4778
  451MOL0     C62157  10.083   2.289   8.959  0.0788 -0.6310  0.2173
  451MOL0     C62158   9.985   2.325   8.858 -0.4189  0.5599  0.7813
  451MOL0     O62159  10.043   2.378   8.745 -0.1454 -0.4893 -0.5913
  451MOL0     C62160   9.956   2.424   8.639 -0.7261 -0.1428 -0.3752
  451MOL0     C62161   9.923   2.322   8.537  0.7057 -0.3367  0.8377
  451MOL0     C62162  10.046   2.255   8.474  0.1607 -0.1769  0.0673
  451MOL0     C62163  10.009   2.127   8.392 -0.3839  0.2193  0.1161
  451MOL0     C62164   9.938   2.161   8.268  0.3329  0.3081 -0.6913
  451MOL0     C62165   9.872   2.202   8.177 -0.0226  0.7626 -0.3389
  451MOL0     C62166   9.854   2.318   8.888 -0.4659  0.0142 -0.1088
  451MOL0     C62167   9.817   2.258   9.012  0.4118  1.1738 -0.2606
  451MOL0     C62168   9.667   2.228   9.028 -0.3445 -0.6098 -0.6708
  451MOL0     H62169  10.041   2.155   9.562 -0.3471  0.1871  0.7275
  451MOL0     H62170  10.002   1.999   9.751 -1.6630 -1.0600  0.5096
  451MOL0     H62171   9.790   1.843   9.884  0.5222  0.1195  1.4004
  451MOL0     H62172   9.964   1.857   9.908  0.4775 -0.7683  2.3606
  451MOL0     H62173   9.863   1.675  10.048 -2.7008  2.5704 -0.9156
  451MOL0     H62174   9.814   1.583   9.918  1.1812 -3.2077  3.4980
  451MOL0     H62175  10.076   1.593   9.834  0.5386 -0.0381  1.3350
  451MOL0     H62176  10.098   1.660   9.994  2.3562 -1.1397 -0.3600
  451MOL0     H62177   9.987   1.433  10.071 -0.3649 -1.2984  0.0033
  451MOL0     H62178  10.018   1.387   9.896 -1.7547 -1.4168  2.0048
  451MOL0     H62179  10.242   1.497  10.051 -0.5299  0.2877  0.3649
  451MOL0     H62180  10.227   1.388   9.910 -0.0944 -1.0927  0.4003
  451MOL0     H62181  10.160   1.302  10.193  0.4143 -0.7379  0.5954
  451MOL0     H62182  10.121   1.219  10.037 -0.7105  1.1495  0.1597
  451MOL0     H62183  10.343   1.136  10.025  2.7045 -0.4721  1.6452
  451MOL0     H62184  10.301   1.135  10.191 -1.7268  0.3730  0.0236
  451MOL0     H62185  10.477   1.349  10.032  2.0987  0.3063  0.4706
  451MOL0     H62186  10.430   1.366  10.203  0.4207  1.5959 -0.1759
  451MOL0     H62187  10.767   1.295  10.075 -0.5262  0.2629  2.2989
  451MOL0     H62188  10.914   1.099   9.992 -0.9053  1.3447  0.7297
  451MOL0     H62189  10.880   0.945  10.062  3.0547  0.0236  0.1813
  451MOL0     H62190  11.083   1.043  10.154  1.7469  0.4805  2.9744
  451MOL0     H62191  10.987   1.156  10.255 -0.4017 -1.4618  1.0911
  451MOL0     H62192  10.855   0.990  10.365 -1.4414 -1.5111 -2.0273
  451MOL0     H62193  10.965   0.863  10.304  1.8619  0.0285  2.0517
  451MOL0     H62194  11.083   1.085  10.451  0.8024  0.7758 -0.5416
  451MOL0     H62195  11.029   0.937  10.531  1.4609 -0.6521  1.0030
  451MOL0     H62196  11.429   0.835  10.350 -1.2612  0.1939 -0.1006
  451MOL0     H62197  11.649   0.794  10.370  0.7499  0.7238 -0.1372
  451MOL0     H62198  11.657   0.655  10.480 -2.3047 -0.0433 -0.0465
  451MOL0     H62199  11.723   0.819  10.525 -1.0467  0.4398 -0.4418
  451MOL0     H62200  11.769   0.959  11.034  1.9551 -2.0513 -1.6023
  451MOL0     H62201  11.891   0.894  11.215 -0.3829 -0.1714 -0.1949
  451MOL0     H62202  11.676   0.664  11.471  0.3840 -0.0169  1.6789
  451MOL0     H62203  11.777   0.520  11.493 -1.0560  0.8081  3.0415
  451MOL0     H62204  11.817   0.813  11.567 -0.2140 -0.2676 -3.3353
  451MOL0     H62205  11.804   0.678  11.676  1.9109  0.3009  1.5061
  451MOL0     H62206  12.028   0.806  11.527  0.8980  1.9249  4.2861
  451MOL0     H62207  12.037   0.623  11.527 -0.3975  0.1660 -0.8473
  451MOL0     H62208  12.028   0.611  11.768  0.3205  0.6381  2.5096
  451MOL0     H62209  11.996   0.785  11.788 -2.4989 -1.1798 -0.1453
  451MOL0     H62210  12.262   0.672  11.689 -0.2801 -1.4572 -0.5376
  451MOL0     H62211  12.223   0.848  11.695  2.4005 -0.0080  0.6871
  451MOL0     H62212  12.210   0.664  11.931  2.2499  0.2060  1.4538
  451MOL0     H62213  12.181   0.841  11.936  1.6835  0.6021  0.7816
  451MOL0     H62214  12.399   0.809  12.018  2.1450  0.3837 -0.0997
  451MOL0     H62215  12.410   0.897  11.870 -2.2827 -0.3355 -2.5747
  451MOL0     H62216  12.439   0.601  11.845  2.2201 -0.4668 -0.2789
  451MOL0     H62217  12.568   0.682  11.928  1.3821 -1.8249 -1.1182
  451MOL0     H62218  11.668   0.513  11.216  0.0419 -0.2534 -1.2421
  451MOL0     H62219  11.540   0.603  11.022 -0.5179  1.8042 -0.7305
  451MOL0     H62220  11.377   0.878  10.833  3.0397 -4.7078 -0.2962
  451MOL0     H62221  11.184   0.959  10.674  0.2748 -1.2161  1.8926
  451MOL0     H62222   9.849   1.703   9.496  1.5337 -0.1022 -0.8754
  451MOL0     H62223   9.867   1.837   9.305 -0.3006 -0.4160  0.7198
  451MOL0     H62224  10.134   2.219   9.155  0.0332 -1.3200  0.6506
  451MOL0     H62225  10.187   2.299   8.927  0.2553 -0.1836  0.8967
  451MOL0     H62226   9.872   2.471   8.691  1.4705  3.6962  0.0816
  451MOL0     H62227  10.009   2.509   8.597 -1.5327  1.8541  2.3651
  451MOL0     H62228   9.858   2.367   8.462  1.5200 -2.3000 -1.1919
  451MOL0     H62229   9.852   2.255   8.587 -1.0956  1.8169  1.2871
  451MOL0     H62230  10.087   2.331   8.406  0.2752  0.9856  1.3954
  451MOL0     H62231  10.120   2.222   8.548 -2.5767 -1.1567  2.5311
  451MOL0     H62232   9.947   2.068   8.461  0.3236  1.2926  1.7280
  451MOL0     H62233  10.100   2.071   8.371 -0.2092  1.0156 -1.3859
  451MOL0     H62234   9.821   2.245   8.094  3.3515  0.3686 -2.8395
  451MOL0     H62235   9.765   2.338   8.829 -2.9421 -3.0324  2.2357
  451MOL0     H62236   9.648   2.158   9.109 -3.0933  1.5171  0.7179
  451MOL0     H62237   9.604   2.313   9.058 -0.8671 -1.5597  1.0623
  451MOL0     H62238   9.618   2.194   8.936  1.1849  1.7360 -2.4636
  452MOL0     O62239   7.137   1.537  10.643 -0.0151  0.4590  0.3586
  452MOL0     C62240   7.104   1.510  10.761  0.7159  0.5423  0.2731
  452MOL0     O62241   7.183   1.540  10.864 -0.1953  0.0995 -0.9521
  452MOL0     C62242   7.300   1.601  10.833  1.1210 -0.3347 -0.4057
  452MOL0     C62243   7.411   1.527  10.782  0.5855 -0.5690 -0.2716
  452MOL0     C62244   7.539   1.592  10.779 -0.0119 -0.6916  0.7142
  452MOL0     C62245   7.551   1.727  10.820 -0.6076 -1.1335 -0.5273
  452MOL0     O62246   7.673   1.796  10.823  0.6244  0.0361  0.7261
  452MOL0     C62247   7.788   1.744  10.760 -0.0912 -0.5189 -0.6236
  452MOL0     C62248   7.798   1.753  10.602 -0.9813 -0.8133  0.1379
  452MOL0     C62249   7.941   1.738  10.553  0.0766 -0.2357 -0.2356
  452MOL0     C62250   7.990   1.593  10.578  0.3716 -0.3056  0.7584
  452MOL0     C62251   8.130   1.580  10.532  0.5984  0.3736 -0.0660
  452MOL0     C62252   8.173   1.435  10.500 -0.0839 -0.3437 -0.4336
  452MOL0     C62253   8.210   1.361  10.632 -0.5968 -0.1272  1.0066
  452MOL0     C62254   8.268   1.217  10.618 -0.9357 -0.1081  0.2792
  452MOL0     N62255   8.281   1.160  10.748  0.4805 -0.3579 -0.0491
  452MOL0     C62256   8.344   1.220  10.848  0.0225  0.4350  0.9324
  452MOL0     C62257   8.328   1.143  10.951  0.0240  0.2075 -0.1989
  452MOL0     C62258   8.383   1.172  11.083  0.1258 -0.6659 -0.1115
  452MOL0     C62259   8.502   1.080  11.106 -0.5527 -0.3312  0.3973
  452MOL0     C62260   8.571   1.135  11.239  0.8226  0.3046  0.1456
  452MOL0     C62261   8.717   1.086  11.254 -0.0502 -0.2437  1.0624
  452MOL0     O62262   8.742   0.947  11.286 -0.2634  0.1851  0.4978
  452MOL0     C62263   8.881   0.916  11.305  0.4776 -0.0967 -0.1408
  452MOL0     C62264   8.985   0.990  11.237 -0.4871 -0.3837 -0.5320
  452MOL0     C62265   9.119   0.959  11.270 -0.3522 -0.6014  1.5334
  452MOL0     C62266   9.219   1.056  11.200  0.2716  0.5654  0.0496
  452MOL0     C62267   9.153   0.864  11.366  0.9126  0.0980 -0.4660
  452MOL0     C62268   9.289   0.829  11.401 -0.4384 -0.3652  0.1249
  452MOL0     O62269   9.314   0.704  11.453  0.0698  0.2939  0.6389
  452MOL0     C62270   9.442   0.649  11.438  0.7600  0.2339 -0.8704
  452MOL0     C62271   9.530   0.641  11.540 -1.2720 -0.1604 -0.4394
  452MOL0     C62272   9.660   0.590  11.528 -0.3763  0.2978  0.5238
  452MOL0     C62273   9.701   0.531  11.410  0.4439 -0.1963 -0.7739
  452MOL0     O62274   9.826   0.478  11.379  0.4268 -0.1217 -0.4201
  452MOL0     C62275   9.914   0.434  11.486 -1.2072  0.0834  0.0260
  452MOL0     C62276   9.859   0.304  11.545  0.0460 -0.4701  0.4756
  452MOL0     C62277   9.956   0.232  11.639 -1.1615 -0.2272 -0.5399
  452MOL0     C62278   9.874   0.128  11.716  0.1131  0.1819 -0.6277
  452MOL0     C62279   9.878   0.160  11.870 -0.0977 -0.2904 -0.1242
  452MOL0     C62280   9.787   0.282  11.898 -0.6798  0.0249  0.5046
  452MOL0     C62281   9.864   0.418  11.919  0.7464  0.5446 -0.0382
  452MOL0     C62282   9.783   0.516  12.004 -0.2216  0.1237 -0.5210
  452MOL0    Cl62283   9.871   0.672  12.007 -0.5472  0.0695  0.1423
  452MOL0     C62284   9.618   0.538  11.299 -0.0613 -0.1355  0.2779
  452MOL0     C62285   9.492   0.596  11.312 -0.4656  0.6243  0.0076
  452MOL0     O62286   9.377   0.908  11.381  0.3246  0.0408  0.3881
  452MOL0     C62287   9.045   0.783  11.418 -0.7139  1.1597 -0.0342
  452MOL0     C62288   8.913   0.805  11.383 -0.2909  1.0522 -0.0746
  452MOL0     N62289   8.256   1.030  10.924  0.4461 -0.4766  0.2380
  452MOL0     N62290   8.227   1.042  10.794 -0.7757 -0.4781 -0.4813
  452MOL0     C62291   7.438   1.799  10.867 -1.0161 -0.9610  0.1294
  452MOL0     C62292   7.316   1.733  10.879 -0.3785 -0.7192 -0.3208
  452MOL0     C62293   6.971   1.468  10.817 -0.5237 -0.5499  0.0119
  452MOL0     C62294   6.959   1.441  10.956 -0.6827 -0.4737  0.7925
  452MOL0     C62295   6.839   1.405  11.006  0.4289  0.3207  0.3797
  452MOL0     C62296   6.723   1.394  10.923  0.0704  0.7782 -0.7637
  452MOL0     O62297   6.598   1.342  10.963  0.0455 -0.2723 -0.4987
  452MOL0     C62298   6.578   1.320  11.106  0.3668  0.2698 -1.2483
  452MOL0     C62299   6.433   1.270  11.125 -1.1562  0.3010 -0.2659
  452MOL0     C62300   6.412   1.121  11.086  0.7220 -0.3773  0.0556
  452MOL0     C62301   6.293   1.070  11.161 -0.4428  1.0115 -0.5948
  452MOL0     C62302   6.175   1.149  11.129 -0.6702  0.3645 -0.0187
  452MOL0     C62303   6.080   1.222  11.108  0.5757  0.0559 -0.1199
  452MOL0     C62304   6.729   1.436  10.790 -0.3559  0.4846  0.0373
  452MOL0     C62305   6.850   1.475  10.736  0.5032  1.0750  0.0035
  452MOL0     C62306   6.851   1.513  10.589  0.3625 -1.1042 -0.2611
  452MOL0     H62307   7.397   1.426  10.745  0.2463 -0.4293 -0.5337
  452MOL0     H62308   7.625   1.539  10.740 -0.5013 -2.0055  1.3718
  452MOL0     H62309   7.815   1.643  10.791  1.1010  0.0663  0.3191
  452MOL0     H62310   7.861   1.810  10.808 -0.4050 -0.9242  0.4436
  452MOL0     H62311   7.730   1.676  10.564 -2.6359  0.0553  1.2083
  452MOL0     H62312   7.756   1.851  10.574  1.9341  0.2063 -1.1555
  452MOL0     H62313   7.942   1.774  10.449  2.0338  2.6852  0.6724
  452MOL0     H62314   8.000   1.812  10.608  0.5731 -0.2063 -0.7881
  452MOL0     H62315   7.980   1.579  10.686 -0.7865  4.7544  1.5996
  452MOL0     H62316   7.931   1.515  10.529  1.8745 -0.1774 -1.3874
  452MOL0     H62317   8.200   1.634  10.597  0.7460 -0.4132  0.4392
  452MOL0     H62318   8.138   1.630  10.434  4.0043 -1.9021 -1.1344
  452MOL0     H62319   8.091   1.382  10.451 -0.0795 -3.1083  2.2845
  452MOL0     H62320   8.264   1.438  10.438 -0.8613  0.1610 -1.5826
  452MOL0     H62321   8.127   1.345  10.701  1.2581  1.6422  3.8820
  452MOL0     H62322   8.278   1.424  10.690  0.6103  1.4185 -1.8761
  452MOL0     H62323   8.188   1.159  10.569 -0.9047 -1.6545  1.9346
  452MOL0     H62324   8.360   1.217  10.560 -1.7938 -0.8270 -1.1357
  452MOL0     H62325   8.395   1.316  10.851 -0.5514  0.7662  0.4032
  452MOL0     H62326   8.309   1.144  11.159 -0.6634 -0.4932 -0.8037
  452MOL0     H62327   8.416   1.273  11.110  1.1880 -1.2922  1.0149
  452MOL0     H62328   8.479   0.973  11.101 -0.3281 -0.3302 -1.2323
  452MOL0     H62329   8.576   1.095  11.027 -0.8547 -2.7589 -0.4181
  452MOL0     H62330   8.563   1.244  11.247 -0.3137  0.1288  2.2074
  452MOL0     H62331   8.519   1.102  11.330 -3.1271  1.0002 -1.6449
  452MOL0     H62332   8.757   1.106  11.154  0.8051  0.7093  1.5760
  452MOL0     H62333   8.773   1.147  11.326  0.6490  1.1840 -0.5942
  452MOL0     H62334   8.959   1.066  11.164  0.2259  0.4629  0.0606
  452MOL0     H62335   9.177   1.095  11.107  0.6385 -3.3745 -1.9762
  452MOL0     H62336   9.311   1.003  11.171 -0.7453 -1.7689  0.8332
  452MOL0     H62337   9.232   1.133  11.277  4.4860  0.7535 -0.5790
  452MOL0     H62338   9.512   0.701  11.628 -1.6910 -0.1776 -0.5115
  452MOL0     H62339   9.722   0.597  11.616 -1.9276  0.5615  1.6426
  452MOL0     H62340  10.019   0.433  11.454 -0.9044  0.7984  0.9496
  452MOL0     H62341   9.907   0.511  11.564 -0.1548  0.4307 -0.1999
  452MOL0     H62342   9.781   0.352  11.606  1.2323  2.4487 -0.1537
  452MOL0     H62343   9.816   0.236  11.470 -2.0004 -1.0074  2.0047
  452MOL0     H62344  10.006   0.306  11.701  0.1636 -1.1480 -0.4524
  452MOL0     H62345  10.035   0.183  11.580 -1.7395 -0.7588 -0.8911
  452MOL0     H62346   9.915   0.027  11.719  1.5308  0.7132  2.8630
  452MOL0     H62347   9.770   0.117  11.684  0.2089  0.6895 -1.1447
  452MOL0     H62348   9.832   0.074  11.921  0.4359 -1.4018 -1.4498
  452MOL0     H62349   9.980   0.168  11.911  1.4811  0.7457 -3.8400
  452MOL0     H62350   9.720   0.258  11.981 -0.5726 -3.1544 -0.1790
  452MOL0     H62351   9.723   0.290  11.810  2.4118 -1.0785 -2.0449
  452MOL0     H62352   9.873   0.469  11.823  0.5990  2.1265  0.7545
  452MOL0     H62353   9.964   0.406  11.961  0.3629  0.2753  0.8345
  452MOL0     H62354   9.773   0.470  12.102  0.7834  0.0120 -0.4587
  452MOL0     H62355   9.690   0.522  11.946  0.3651 -1.0199 -1.6428
  452MOL0     H62356   9.658   0.513  11.201 -1.0936  1.4760 -0.6073
  452MOL0     H62357   9.434   0.590  11.221 -2.2204  0.4196  1.0875
  452MOL0     H62358   9.071   0.696  11.477 -0.3103  2.0437  1.1298
  452MOL0     H62359   8.830   0.744  11.418  0.1196  3.0937  5.4138
  452MOL0     H62360   7.450   1.889  10.925  0.6732 -1.7807  1.1197
  452MOL0     H62361   7.241   1.777  10.943  1.2813 -1.5768  2.3614
  452MOL0     H62362   7.046   1.424  11.018 -0.4011 -0.3681  0.4277
  452MOL0     H62363   6.836   1.380  11.111  2.7686  1.2629  0.7543
  452MOL0     H62364   6.649   1.248  11.146 -1.8514 -3.1658 -3.0323
  452MOL0     H62365   6.582   1.416  11.158  1.8787 -0.4207  0.0033
  452MOL0     H62366   6.363   1.340  11.079  0.3143  1.1341 -1.2958
  452MOL0     H62367   6.426   1.287  11.233  2.2993  1.4152 -0.1177
  452MOL0     H62368   6.392   1.107  10.979 -0.7574  0.0645  0.2614
  452MOL0     H62369   6.503   1.066  11.113 -0.2272 -1.1552  1.7958
  452MOL0     H62370   6.317   1.070  11.267  1.0765 -3.0984 -0.7528
  452MOL0     H62371   6.279   0.962  11.149 -3.6565  1.4515 -1.8668
  452MOL0     H62372   6.001   1.289  11.079 -0.6679 -0.3449  2.1546
  452MOL0     H62373   6.635   1.424  10.738  0.9047  2.7883 -3.1143
  452MOL0     H62374   6.861   1.622  10.585  0.6347 -1.0814  0.7949
  452MOL0     H62375   6.936   1.468  10.536  2.0275 -1.3967  2.4378
  452MOL0     H62376   6.755   1.487  10.543 -0.3223 -2.2578  1.7005
  453MOL0     O62377   8.466   8.223   8.004 -0.5998 -0.3899  0.2823
  453MOL0     C62378   8.405   8.157   8.086  0.6284  0.5740 -0.5172
  453MOL0     O62379   8.455   8.122   8.214 -0.5897 -0.6956  0.6241
  453MOL0     C62380   8.566   8.175   8.262  0.1977  0.5021 -0.3112
  453MOL0     C62381   8.595   8.305   8.240 -0.3742 -0.7822  0.4998
  453MOL0     C62382   8.725   8.353   8.260  0.4109 -0.3097 -0.5115
  453MOL0     C62383   8.824   8.276   8.306  0.2706  0.5623  0.0993
  453MOL0     O62384   8.962   8.308   8.306 -0.2031 -0.2419  0.6726
  453MOL0     C62385   8.992   8.447   8.308  0.8849 -0.0562 -0.4567
  453MOL0     C62386   9.136   8.458   8.363  0.3980 -0.0624  0.0292
  453MOL0     C62387   9.179   8.603   8.374 -0.1177 -0.2219 -0.6381
  453MOL0     C62388   9.116   8.673   8.498 -0.4314  0.1044  0.1404
  453MOL0     C62389   9.150   8.826   8.499  0.0829 -0.6973 -0.4508
  453MOL0     C62390   9.082   8.910   8.608 -0.0242  0.3370 -0.0853
  453MOL0     C62391   9.125   8.852   8.745  0.4770 -1.1880  0.0104
  453MOL0     C62392   9.065   8.936   8.859 -0.1146 -0.2489 -0.2489
  453MOL0     N62393   9.077   8.866   8.994  0.9122 -0.0787  0.1315
  453MOL0     C62394   9.178   8.788   9.041  0.1693 -0.1463  0.2231
  453MOL0     C62395   9.132   8.745   9.162 -0.2181  0.1779 -0.6770
  453MOL0     C62396   9.210   8.665   9.271  0.3562 -0.1295  0.4720
  453MOL0     C62397   9.322   8.740   9.345 -0.3336  0.0936 -1.2601
  453MOL0     C62398   9.388   8.648   9.458  0.8251  1.0503  0.6651
  453MOL0     C62399   9.507   8.698   9.533  0.6357  0.4424  0.0575
  453MOL0     O62400   9.622   8.712   9.450 -0.1901  0.0881  0.0517
  453MOL0     C62401   9.718   8.797   9.485 -0.0454  0.1032 -0.5938
  453MOL0     C62402   9.789   8.853   9.383 -0.8010 -0.5878  0.6863
  453MOL0     C62403   9.906   8.920   9.410 -0.5395  0.0232 -0.0426
  453MOL0     C62404   9.982   8.983   9.299 -0.2313  0.2477  0.4007
  453MOL0     C62405   9.944   8.948   9.542  0.1226  0.2375 -0.3417
  453MOL0     C62406  10.061   9.026   9.578 -0.1992  0.2843  0.0879
  453MOL0     O62407  10.136   8.962   9.668 -0.3018 -0.1526 -0.3622
  453MOL0     C62408  10.235   9.038   9.732  0.3093  0.6664 -0.5415
  453MOL0     C62409  10.213   9.166   9.792  0.8013  0.5271  0.1836
  453MOL0     C62410  10.305   9.217   9.883 -0.1072 -0.2815 -0.4738
  453MOL0     C62411  10.432   9.160   9.895 -1.0115 -0.5171 -0.3859
  453MOL0     O62412  10.520   9.243   9.966 -0.0803  0.0592  0.3775
  453MOL0     C62413  10.660   9.206   9.965 -1.1010  0.1792  0.0733
  453MOL0     C62414  10.736   9.300  10.061 -0.0415  0.5217 -0.8574
  453MOL0     C62415  10.895   9.288  10.051  0.5643  0.5146  0.4086
  453MOL0     C62416  10.958   9.344  10.179  0.2279  0.0206 -0.1240
  453MOL0     C62417  11.113   9.316  10.183 -0.4895  0.2116  0.6532
  453MOL0     C62418  11.203   9.353  10.060 -0.1751 -0.7210 -0.1322
  453MOL0     C62419  11.349   9.335  10.117  0.4908  0.2121 -0.4912
  453MOL0     C62420  11.449   9.321   9.997 -0.4648  0.3157 -0.0964
  453MOL0    Cl62421  11.616   9.303  10.076 -0.2090 -0.0475  0.1431
  453MOL0     C62422  10.456   9.036   9.838 -0.5908 -0.0462 -0.2950
  453MOL0     C62423  10.354   8.969   9.764 -0.1440  0.0689 -1.3207
  453MOL0     O62424  10.076   9.144   9.542 -0.5253 -0.4031  0.4956
  453MOL0     C62425   9.866   8.894   9.648 -0.7976 -0.4989  0.4440
  453MOL0     C62426   9.758   8.816   9.618  0.2033  0.4801 -0.2034
  453MOL0     N62427   9.010   8.804   9.188  0.3623 -0.4047  0.7843
  453MOL0     N62428   8.977   8.867   9.086 -0.3571 -0.2719  0.2605
  453MOL0     C62429   8.791   8.146   8.337  1.3321 -0.4238 -0.2319
  453MOL0     C62430   8.666   8.093   8.308 -1.0122  0.6850  0.3196
  453MOL0     C62431   8.272   8.102   8.063 -0.3578 -0.9687  0.5254
  453MOL0     C62432   8.165   8.104   8.161  0.3887 -0.5254  0.3474
  453MOL0     C62433   8.037   8.053   8.138  0.1440 -0.7752  0.1489
  453MOL0     C62434   8.013   7.984   8.022 -0.0449  0.0810 -0.7679
  453MOL0     O62435   7.890   7.928   7.991 -0.0763 -0.9015 -0.0498
  453MOL0     C62436   7.830   7.834   8.082 -0.4713  0.8583 -1.1081
  453MOL0     C62437   7.745   7.736   8.002  0.0483 -0.6194 -0.3850
  453MOL0     C62438   7.794   7.696   7.869  0.0289 -0.5015  0.8271
  453MOL0     C62439   7.696   7.613   7.786  0.1308  0.3544 -0.1559
  453MOL0     C62440   7.649   7.485   7.847 -0.2225 -0.3335  0.0946
  453MOL0     C62441   7.600   7.380   7.885  0.2466  0.2645 -0.4027
  453MOL0     C62442   8.107   7.989   7.922  1.0105  0.6876  0.3835
  453MOL0     C62443   8.234   8.051   7.931 -0.6688 -0.1306 -0.0487
  453MOL0     C62444   8.321   8.070   7.807  0.2650  0.4262 -0.4462
  453MOL0     H62445   8.527   8.373   8.189  1.1627  0.5588  0.1317
  453MOL0     H62446   8.748   8.452   8.223 -0.1652 -0.0035 -0.0638
  453MOL0     H62447   8.928   8.505   8.375 -1.2067 -2.7447  0.0196
  453MOL0     H62448   8.976   8.488   8.208 -1.5634  0.3556  0.0589
  453MOL0     H62449   9.127   8.415   8.464  0.1449 -0.9664 -0.3665
  453MOL0     H62450   9.211   8.411   8.299  1.3315  1.4114 -0.0040
  453MOL0     H62451   9.288   8.597   8.370 -0.1226 -1.9033  0.5038
  453MOL0     H62452   9.146   8.659   8.286 -2.3099 -3.3696 -2.0011
  453MOL0     H62453   9.007   8.662   8.494 -0.4089  0.0821 -0.7619
  453MOL0     H62454   9.151   8.632   8.592 -0.4082 -1.1839 -0.4131
  453MOL0     H62455   9.107   8.860   8.405  0.4135  1.8691  0.2673
  453MOL0     H62456   9.258   8.835   8.490  0.3350 -2.2084  0.5382
  453MOL0     H62457   9.127   9.007   8.586  2.0820 -0.3661  0.8855
  453MOL0     H62458   8.973   8.908   8.593  0.3113  0.3814 -2.9341
  453MOL0     H62459   9.233   8.860   8.757  0.2564  1.7947  0.9298
  453MOL0     H62460   9.090   8.749   8.757  1.4859 -1.5554 -0.1296
  453MOL0     H62461   9.122   9.029   8.860  0.4438 -0.5468  1.8460
  453MOL0     H62462   8.958   8.953   8.840 -0.7081 -2.9394  0.2658
  453MOL0     H62463   9.273   8.778   8.990  0.8783 -1.5597  1.7527
  453MOL0     H62464   9.240   8.569   9.227 -1.2697 -1.1557  1.4949
  453MOL0     H62465   9.141   8.637   9.351 -2.8587  1.1391 -1.6299
  453MOL0     H62466   9.396   8.762   9.268  1.3375 -0.4035  0.1185
  453MOL0     H62467   9.286   8.830   9.396  1.1028  0.0932 -0.1787
  453MOL0     H62468   9.309   8.631   9.531 -0.7452  2.2772 -0.6617
  453MOL0     H62469   9.402   8.545   9.424  1.2835  0.7624  1.7057
  453MOL0     H62470   9.469   8.797   9.561 -0.8578  0.7856 -2.8200
  453MOL0     H62471   9.534   8.633   9.617  0.7628 -3.7565 -2.9470
  453MOL0     H62472   9.763   8.840   9.278  2.6457  1.9309 -0.6723
  453MOL0     H62473  10.090   8.976   9.316  0.0355  0.4003 -1.1362
  453MOL0     H62474   9.950   9.087   9.301 -0.1226  0.2750  1.2431
  453MOL0     H62475   9.959   8.942   9.201 -2.5633  0.5471  0.7807
  453MOL0     H62476  10.123   9.224   9.774  0.8075  0.1328 -1.3327
  453MOL0     H62477  10.286   9.313   9.931 -1.1341 -0.5458 -0.3278
  453MOL0     H62478  10.669   9.102  10.000 -3.2989  0.1591  0.7274
  453MOL0     H62479  10.703   9.217   9.865 -0.1770 -2.3496  0.1190
  453MOL0     H62480  10.715   9.405  10.035  0.7555  1.3194  1.4809
  453MOL0     H62481  10.706   9.284  10.165  2.2460  4.6902  0.6883
  453MOL0     H62482  10.935   9.323   9.956 -0.3185 -0.3273 -0.2958
  453MOL0     H62483  10.907   9.179  10.052 -0.8502  0.3207  2.5634
  453MOL0     H62484  10.922   9.302  10.274 -0.8380  0.8125 -0.1666
  453MOL0     H62485  10.934   9.451  10.179 -2.9990 -0.6061 -0.4201
  453MOL0     H62486  11.170   9.355  10.268  2.1491  0.0260 -0.9290
  453MOL0     H62487  11.118   9.208  10.200 -1.1917 -0.1361 -1.0981
  453MOL0     H62488  11.193   9.457  10.028  1.3863 -0.8118 -1.0612
  453MOL0     H62489  11.184   9.287   9.975 -0.1248 -5.2421  3.0268
  453MOL0     H62490  11.366   9.251  10.185  2.6794  0.4154 -0.7090
  453MOL0     H62491  11.364   9.425  10.177 -0.7112  1.0885 -1.4746
  453MOL0     H62492  11.457   9.411   9.935 -0.5728 -0.1612 -0.8106
  453MOL0     H62493  11.423   9.241   9.927  3.3635  0.8679 -2.4413
  453MOL0     H62494  10.547   8.982   9.863 -2.3295 -1.5890  3.6157
  453MOL0     H62495  10.367   8.872   9.718  0.2305 -0.2913 -0.4640
  453MOL0     H62496   9.898   8.920   9.748  0.6952  1.7973 -0.5345
  453MOL0     H62497   9.714   8.768   9.705  1.1162  0.9066  0.5096
  453MOL0     H62498   8.871   8.086   8.380  2.8328  0.9927 -0.9330
  453MOL0     H62499   8.666   7.985   8.304  2.0334  0.6203 -0.7530
  453MOL0     H62500   8.190   8.149   8.257  0.2235 -0.3918  0.3292
  453MOL0     H62501   7.973   8.062   8.226  0.9817 -0.6526  0.7539
  453MOL0     H62502   7.913   7.779   8.128 -1.5913 -0.6929 -0.8497
  453MOL0     H62503   7.772   7.888   8.157  0.5057  3.5975 -2.2062
  453MOL0     H62504   7.643   7.775   7.994  0.8970  2.5164  1.9536
  453MOL0     H62505   7.736   7.640   8.055 -0.3587 -0.9202 -0.9898
  453MOL0     H62506   7.810   7.787   7.810 -1.0647 -1.3185 -0.8091
  453MOL0     H62507   7.892   7.653   7.893 -0.3637 -0.5269  2.5245
  453MOL0     H62508   7.751   7.591   7.694 -0.1423  0.4623 -0.3483
  453MOL0     H62509   7.608   7.677   7.777  0.0589  0.0991 -1.4480
  453MOL0     H62510   7.555   7.290   7.920  0.7017 -0.8487 -2.4876
  453MOL0     H62511   8.068   7.949   7.829  2.7839  0.0507 -0.1081
  453MOL0     H62512   8.289   8.003   7.726  1.0577  0.0890 -0.4885
  453MOL0     H62513   8.318   8.173   7.768 -0.9014 -0.3093 -2.4635
  453MOL0     H62514   8.427   8.056   7.829 -0.1480 -0.6355  0.9925
  454MOL0     O62515   5.360   6.918   7.615  0.0940 -0.2826 -0.2050
  454MOL0     C62516   5.296   7.008   7.554 -0.3896 -0.1713 -0.2378
  454MOL0     O62517   5.338   7.140   7.537  0.5118 -0.7117 -0.0944
  454MOL0     C62518   5.446   7.173   7.604  1.1615 -0.9004  0.5763
  454MOL0     C62519   5.443   7.290   7.685 -0.5647 -0.0257  0.5910
  454MOL0     C62520   5.548   7.343   7.755 -0.7559 -0.1631  0.5865
  454MOL0     C62521   5.672   7.289   7.722  0.0944 -0.3735  0.3569
  454MOL0     O62522   5.788   7.331   7.783 -0.0812  0.0324  0.5783
  454MOL0     C62523   5.798   7.467   7.838 -0.2669 -0.8387  0.7724
  454MOL0     C62524   5.941   7.514   7.856  0.8768 -0.0481 -0.1244
  454MOL0     C62525   5.941   7.652   7.921 -0.5163  0.3844  0.1654
  454MOL0     C62526   5.921   7.661   8.070  0.0838  0.5408  0.1618
  454MOL0     C62527   5.910   7.809   8.122  0.1159 -0.1290  0.0308
  454MOL0     C62528   5.778   7.870   8.086  0.6547 -1.3347 -0.3864
  454MOL0     C62529   5.658   7.828   8.174 -1.0618  0.1695 -0.4486
  454MOL0     C62530   5.532   7.886   8.103 -0.9717  0.3293  0.1542
  454MOL0     N62531   5.408   7.868   8.176 -0.4321  0.5137  0.4007
  454MOL0     C62532   5.290   7.814   8.128 -0.5752  0.6421 -0.4442
  454MOL0     C62533   5.194   7.872   8.213 -0.1093  0.3378 -0.0743
  454MOL0     C62534   5.050   7.849   8.209 -0.2741  0.1642 -0.7108
  454MOL0     C62535   5.024   7.708   8.257 -0.1291 -0.5951 -0.4409
  454MOL0     C62536   4.873   7.685   8.265  0.8991  0.2150  0.2337
  454MOL0     C62537   4.806   7.723   8.135 -0.3076 -0.5468  0.4415
  454MOL0     O62538   4.680   7.663   8.114  0.3033 -0.3177 -0.7076
  454MOL0     C62539   4.586   7.682   8.218 -0.2918 -0.1399  0.6085
  454MOL0     C62540   4.543   7.810   8.238 -0.5216 -0.1436 -0.3810
  454MOL0     C62541   4.430   7.822   8.324  0.2151 -0.2188 -0.4286
  454MOL0     C62542   4.364   7.953   8.357 -0.4792  0.4096 -0.5826
  454MOL0     C62543   4.370   7.713   8.388  0.3830  1.2299  0.8071
  454MOL0     C62544   4.256   7.721   8.481 -0.0230 -0.2195  0.1276
  454MOL0     O62545   4.278   7.783   8.598  0.8366  0.2286 -0.2094
  454MOL0     C62546   4.173   7.777   8.681 -0.5253  1.2198  0.3005
  454MOL0     C62547   4.103   7.893   8.689  0.3230  0.2573  0.9773
  454MOL0     C62548   3.996   7.911   8.779  0.1606  1.2887  0.1569
  454MOL0     C62549   3.968   7.808   8.867  0.5858 -0.2369 -0.5491
  454MOL0     O62550   3.859   7.812   8.951 -1.1642 -0.2152  0.1125
  454MOL0     C62551   3.748   7.902   8.919 -0.9995 -0.3788 -0.6004
  454MOL0     C62552   3.620   7.827   8.957 -0.3809  0.3335  0.0541
  454MOL0     C62553   3.489   7.897   8.908  1.0074  0.2504 -0.2604
  454MOL0     C62554   3.360   7.809   8.881  0.8364 -0.2323 -0.6057
  454MOL0     C62555   3.239   7.888   8.836 -0.6930  0.4348 -0.7740
  454MOL0     C62556   3.128   7.806   8.769  0.5537  0.9432 -0.6287
  454MOL0     C62557   3.018   7.906   8.739  0.8581 -0.3151  0.2044
  454MOL0     C62558   2.876   7.834   8.699  0.3811 -0.0281 -0.0723
  454MOL0    Cl62559   2.879   7.718   8.566  0.2811  0.3601  0.0363
  454MOL0     C62560   4.051   7.697   8.861  0.5258  0.6686 -0.3884
  454MOL0     C62561   4.146   7.675   8.765 -0.1535  0.0917 -0.6476
  454MOL0     O62562   4.156   7.656   8.441  0.0331  0.7391 -0.6412
  454MOL0     C62563   4.421   7.588   8.362 -0.6689  0.4502  0.0033
  454MOL0     C62564   4.523   7.571   8.272  1.1537  0.0353 -0.7648
  454MOL0     N62565   5.244   7.946   8.320 -0.4394  0.7139  0.4203
  454MOL0     N62566   5.378   7.949   8.288  0.0876  0.9463 -0.6294
  454MOL0     C62567   5.681   7.174   7.644  0.0857  0.0463 -0.8232
  454MOL0     C62568   5.571   7.120   7.574  0.1217 -0.1082  0.2248
  454MOL0     C62569   5.154   6.974   7.497 -0.4470 -0.0954 -0.2892
  454MOL0     C62570   5.059   7.072   7.492  0.5433 -0.5966 -0.3023
  454MOL0     C62571   4.931   7.041   7.463 -0.0075  0.5447 -0.6060
  454MOL0     C62572   4.888   6.905   7.436 -0.0616 -0.4342 -0.7886
  454MOL0     O62573   4.760   6.852   7.399  0.5553 -0.4836 -1.0720
  454MOL0     C62574   4.665   6.966   7.380 -0.1023 -0.0296 -0.7714
  454MOL0     C62575   4.519   6.927   7.348 -0.2998 -0.4539 -0.8089
  454MOL0     C62576   4.457   6.870   7.485 -0.0759  0.0021  0.5181
  454MOL0     C62577   4.305   6.864   7.492 -0.1283  0.1531  0.2988
  454MOL0     C62578   4.232   6.983   7.547 -1.0808  0.5588  0.1473
  454MOL0     C62579   4.159   7.060   7.609  0.2155  0.1615  0.5360
  454MOL0     C62580   4.992   6.809   7.416  0.0996 -0.2118  0.2848
  454MOL0     C62581   5.123   6.843   7.453 -0.5534 -0.5637  0.4248
  454MOL0     C62582   5.228   6.734   7.424 -0.2003 -0.5901  0.1750
  454MOL0     H62583   5.342   7.320   7.711 -0.1676  0.3741  1.7412
  454MOL0     H62584   5.536   7.433   7.814 -0.6041  0.6847 -0.6383
  454MOL0     H62585   5.735   7.464   7.928 -1.3144  0.4467  0.1221
  454MOL0     H62586   5.757   7.535   7.763  3.3538 -1.8035 -2.4385
  454MOL0     H62587   5.993   7.435   7.911  0.2384  0.5674  1.4219
  454MOL0     H62588   5.984   7.510   7.755  2.1822 -1.0901  0.4398
  454MOL0     H62589   6.044   7.686   7.907  0.1335 -1.5921 -0.1800
  454MOL0     H62590   5.874   7.711   7.859  1.0468 -0.0869 -2.0946
  454MOL0     H62591   5.844   7.589   8.098  0.1061  0.3201 -0.3205
  454MOL0     H62592   6.018   7.631   8.111  0.2692 -0.8811 -1.1855
  454MOL0     H62593   5.993   7.870   8.084 -0.1272  0.9038  1.0928
  454MOL0     H62594   5.939   7.820   8.227  5.2043 -2.8273 -0.7652
  454MOL0     H62595   5.799   7.977   8.096  1.0784 -1.3944 -0.5952
  454MOL0     H62596   5.762   7.876   7.978  1.4695  2.3824 -0.4409
  454MOL0     H62597   5.682   7.870   8.272  2.6414 -1.3804 -0.4979
  454MOL0     H62598   5.645   7.720   8.188  1.3742 -0.1386 -0.0317
  454MOL0     H62599   5.545   7.994   8.088 -0.9020  0.4597  1.0781
  454MOL0     H62600   5.534   7.850   8.000 -3.4670 -1.4647  0.6551
  454MOL0     H62601   5.266   7.760   8.037  1.5695  0.1754 -0.7697
  454MOL0     H62602   5.022   7.862   8.104  1.0324 -0.7003 -1.1958
  454MOL0     H62603   4.996   7.915   8.277  0.2878 -2.8238  2.9946
  454MOL0     H62604   5.067   7.637   8.185 -1.9037 -0.6397 -1.5118
  454MOL0     H62605   5.062   7.683   8.356 -1.6212  0.4780  0.4239
  454MOL0     H62606   4.865   7.577   8.281  0.3207  0.6636  3.8189
  454MOL0     H62607   4.826   7.746   8.343 -0.0367  0.1933 -0.2956
  454MOL0     H62608   4.800   7.832   8.133  0.4779 -0.4717  1.2439
  454MOL0     H62609   4.874   7.699   8.052  2.0955 -1.9095  2.6248
  454MOL0     H62610   4.599   7.885   8.182 -2.0223  1.7142  0.4854
  454MOL0     H62611   4.400   8.038   8.297 -0.4103  1.0945  0.3970
  454MOL0     H62612   4.383   7.976   8.462 -3.3973 -2.5933  0.7573
  454MOL0     H62613   4.255   7.953   8.357 -0.5177 -0.5792  1.7551
  454MOL0     H62614   4.122   7.976   8.622  0.5149 -1.0584 -0.6518
  454MOL0     H62615   3.941   8.004   8.768 -0.6878  0.8133  0.3130
  454MOL0     H62616   3.756   7.989   8.985  0.8350  2.2162 -3.8957
  454MOL0     H62617   3.752   7.926   8.812  1.7785  3.6149  0.1594
  454MOL0     H62618   3.617   7.727   8.913  1.7683 -0.8219  2.2641
  454MOL0     H62619   3.626   7.805   9.064  0.3468 -0.6439 -0.1762
  454MOL0     H62620   3.520   7.942   8.812 -1.1106 -0.3563 -1.2868
  454MOL0     H62621   3.451   7.977   8.971  0.8819  0.8798 -1.1051
  454MOL0     H62622   3.337   7.768   8.980 -0.9360 -3.0099 -2.0478
  454MOL0     H62623   3.381   7.729   8.809  1.0996 -2.5366  1.8499
  454MOL0     H62624   3.206   7.953   8.918  0.2003  1.2393 -1.0301
  454MOL0     H62625   3.279   7.966   8.771  2.7754  1.2849  2.0616
  454MOL0     H62626   3.079   7.741   8.842 -0.2646  1.4496 -0.7150
  454MOL0     H62627   3.168   7.749   8.685  0.3920 -1.9746  1.1660
  454MOL0     H62628   3.044   7.967   8.651 -1.1674 -3.1821 -2.5793
  454MOL0     H62629   3.005   7.964   8.831 -0.4543 -2.5179  1.4780
  454MOL0     H62630   2.803   7.913   8.678 -0.8754 -0.9105  0.8349
  454MOL0     H62631   2.840   7.781   8.788  1.6644 -0.2529  0.3409
  454MOL0     H62632   4.036   7.616   8.932  0.0194  0.0240 -1.2170
  454MOL0     H62633   4.210   7.588   8.771  1.4585  1.0986 -2.1825
  454MOL0     H62634   4.391   7.493   8.406  1.6570 -0.1871  0.3417
  454MOL0     H62635   4.545   7.466   8.256  0.7967 -0.1327 -0.1896
  454MOL0     H62636   5.779   7.131   7.625 -0.0163 -0.7112  0.2662
  454MOL0     H62637   5.567   7.031   7.512 -4.8458  0.3001 -0.3729
  454MOL0     H62638   5.090   7.172   7.523  2.4910  0.2662 -4.3531
  454MOL0     H62639   4.866   7.128   7.467 -0.9707 -0.1603 -0.5724
  454MOL0     H62640   4.672   7.035   7.465  3.9518 -2.0668  0.8860
  454MOL0     H62641   4.706   7.025   7.298  0.7435  3.0574  1.6754
  454MOL0     H62642   4.528   6.849   7.271  0.4959 -1.0185 -0.1594
  454MOL0     H62643   4.457   7.010   7.312 -2.8844 -0.6510  2.6787
  454MOL0     H62644   4.485   6.765   7.499  1.2161 -0.0523 -1.9131
  454MOL0     H62645   4.497   6.931   7.566  1.3952 -0.4906  0.2116
  454MOL0     H62646   4.284   6.775   7.553 -1.7629  1.2809  1.4756
  454MOL0     H62647   4.284   6.832   7.389  0.9755 -0.8945  0.3773
  454MOL0     H62648   4.089   7.104   7.677 -0.6133 -2.7219  1.7135
  454MOL0     H62649   4.957   6.709   7.394  0.5709 -0.3657  0.2192
  454MOL0     H62650   5.288   6.764   7.338 -1.7342 -0.4767 -0.9064
  454MOL0     H62651   5.292   6.710   7.509  0.6160  0.2597 -0.1885
  454MOL0     H62652   5.173   6.641   7.409 -0.6577 -0.8288  2.8529
  455MOL0     O62653   4.079   4.067   5.835 -0.2682 -0.5576 -0.1688
  455MOL0     C62654   4.135   4.103   5.730 -0.4080 -0.2559  0.2232
  455MOL0     O62655   4.256   4.177   5.727  0.3613  0.0256 -0.2968
  455MOL0     C62656   4.304   4.220   5.853  0.3087 -0.7538  0.2238
  455MOL0     C62657   4.237   4.322   5.919  0.6545  0.5389  0.0446
  455MOL0     C62658   4.262   4.352   6.053 -0.3989 -0.7246 -0.1835
  455MOL0     C62659   4.357   4.279   6.125  0.1694 -0.7802 -0.1652
  455MOL0     O62660   4.370   4.281   6.264  1.2156  0.1075  0.0890
  455MOL0     C62661   4.264   4.330   6.351  0.3341 -0.2657  1.2322
  455MOL0     C62662   4.242   4.225   6.450 -0.5718  0.4182 -0.1066
  455MOL0     C62663   4.091   4.201   6.488  0.0948  0.1879 -0.4642
  455MOL0     C62664   4.018   4.328   6.529  0.9730 -0.0685 -0.2549
  455MOL0     C62665   3.889   4.315   6.618  0.4241  0.4938  0.2631
  455MOL0     C62666   3.764   4.282   6.532 -0.2406  0.4143 -0.5604
  455MOL0     C62667   3.637   4.284   6.609 -1.3808 -0.0614  0.0341
  455MOL0     C62668   3.520   4.252   6.515 -0.7443 -0.4420  0.6174
  455MOL0     N62669   3.393   4.263   6.591 -0.1057 -0.5962 -0.1585
  455MOL0     C62670   3.296   4.164   6.613 -0.2602 -0.5481 -0.4535
  455MOL0     C62671   3.210   4.211   6.707  0.4024  0.0124  0.4703
  455MOL0     C62672   3.107   4.122   6.768  0.0347  0.3009  0.9069
  455MOL0     C62673   3.163   4.004   6.844 -1.2217  0.7340 -0.5367
  455MOL0     C62674   3.068   3.937   6.941  0.2119 -0.4063  0.1422
  455MOL0     C62675   3.143   3.888   7.063 -0.3792 -0.1339 -0.3704
  455MOL0     O62676   3.250   3.803   7.009  0.2937 -0.0363  0.6582
  455MOL0     C62677   3.354   3.779   7.091  0.5303  0.1851  0.0230
  455MOL0     C62678   3.354   3.815   7.229  0.7886  0.8811  0.1915
  455MOL0     C62679   3.472   3.804   7.303  0.1464 -0.1902  0.6693
  455MOL0     C62680   3.483   3.856   7.440  0.5852  0.3236 -0.1976
  455MOL0     C62681   3.589   3.741   7.247  0.6722 -0.5200 -0.6013
  455MOL0     C62682   3.723   3.714   7.316 -0.0102 -0.3140 -0.2123
  455MOL0     O62683   3.737   3.740   7.445  0.1343 -0.2821 -0.3217
  455MOL0     C62684   3.859   3.759   7.502 -0.2100 -0.1488  0.4467
  455MOL0     C62685   3.948   3.854   7.446  0.4887  0.1397 -0.9161
  455MOL0     C62686   4.065   3.883   7.505  0.2843 -0.2367  0.5542
  455MOL0     C62687   4.102   3.823   7.624  0.3863  0.8092  0.1071
  455MOL0     O62688   4.233   3.852   7.676  0.4368 -0.1512 -0.3840
  455MOL0     C62689   4.333   3.915   7.601 -0.0573  0.5591  0.7548
  455MOL0     C62690   4.457   3.911   7.684  0.2885  0.2176  0.3667
  455MOL0     C62691   4.588   3.955   7.608  0.5614  0.5586 -0.3829
  455MOL0     C62692   4.715   3.951   7.701 -0.1095  0.1232  0.3187
  455MOL0     C62693   4.841   3.995   7.627 -0.3063 -0.4400 -0.4013
  455MOL0     C62694   4.964   4.008   7.723 -0.2221  0.3813 -0.6030
  455MOL0     C62695   5.089   4.061   7.656 -0.5123 -0.4729 -0.3871
  455MOL0     C62696   5.205   4.035   7.750 -0.4198 -0.4132  0.0393
  455MOL0    Cl62697   5.245   3.865   7.773  0.1936  0.1157 -0.1313
  455MOL0     C62698   4.014   3.725   7.681 -0.5556 -0.3058  0.5084
  455MOL0     C62699   3.891   3.694   7.622  0.2134 -0.3978 -0.8982
  455MOL0     O62700   3.811   3.663   7.247 -0.4333 -0.2052  0.6372
  455MOL0     C62701   3.586   3.697   7.114  0.2099 -0.0826 -0.6186
  455MOL0     C62702   3.466   3.714   7.040  0.7732 -0.3184  0.4848
  455MOL0     N62703   3.253   4.331   6.751 -0.8707  0.2396  0.3937
  455MOL0     N62704   3.360   4.360   6.684  0.1860 -0.2184 -0.6105
  455MOL0     C62705   4.442   4.190   6.054  0.5485 -0.0846  0.5622
  455MOL0     C62706   4.408   4.153   5.924  0.4891  0.2542  0.4112
  455MOL0     C62707   4.088   4.067   5.596  0.0203 -0.4428  0.4100
  455MOL0     C62708   3.961   4.020   5.583  0.0136  0.5276 -0.3576
  455MOL0     C62709   3.901   4.000   5.460  0.6836  1.1079  0.2137
  455MOL0     C62710   3.980   4.010   5.346 -0.3211  0.3575 -1.0030
  455MOL0     O62711   3.930   3.979   5.219 -0.8355 -0.1517 -0.1971
  455MOL0     C62712   3.797   3.981   5.189 -0.2726 -0.4140  0.6615
  455MOL0     C62713   3.792   3.971   5.032 -0.9675  0.0553  0.8859
  455MOL0     C62714   3.832   4.100   4.964  0.4603  0.0688  0.4447
  455MOL0     C62715   3.795   4.095   4.810  0.3287  0.0992 -0.7396
  455MOL0     C62716   3.903   4.066   4.722 -0.2577  0.4415 -0.3850
  455MOL0     C62717   4.001   4.042   4.664 -0.1260  0.3495  0.5621
  455MOL0     C62718   4.113   4.050   5.356 -0.1727  0.1933 -0.4061
  455MOL0     C62719   4.171   4.076   5.480  0.5922 -0.5600  0.6182
  455MOL0     C62720   4.324   4.076   5.471 -0.4057 -0.3404 -0.1728
  455MOL0     H62721   4.158   4.381   5.872  2.1242  1.8626 -0.8633
  455MOL0     H62722   4.215   4.434   6.105 -0.4911 -1.2452  0.5594
  455MOL0     H62723   4.170   4.342   6.297  2.8329  0.0767 -3.5600
  455MOL0     H62724   4.294   4.425   6.395  0.5555 -1.0623  2.8797
  455MOL0     H62725   4.298   4.134   6.426  1.3188  0.7124  2.7937
  455MOL0     H62726   4.297   4.261   6.537  1.9418  0.2071 -1.5115
  455MOL0     H62727   4.050   4.146   6.403  2.2063 -1.0283 -0.7811
  455MOL0     H62728   4.083   4.124   6.566  1.4857 -0.5256 -0.9813
  455MOL0     H62729   4.095   4.374   6.591  1.2410  0.7092 -1.1463
  455MOL0     H62730   4.001   4.388   6.439  0.5621  0.2245  0.0193
  455MOL0     H62731   3.889   4.407   6.676  2.4355  1.1831 -0.7280
  455MOL0     H62732   3.911   4.228   6.681  0.1876  0.5352  0.4015
  455MOL0     H62733   3.761   4.353   6.449  2.8547  2.2302  0.7095
  455MOL0     H62734   3.775   4.176   6.505 -0.2956 -0.0947  1.2620
  455MOL0     H62735   3.623   4.390   6.635  2.0512  0.7331 -0.8668
  455MOL0     H62736   3.639   4.219   6.696 -0.9247 -1.5369 -1.0382
  455MOL0     H62737   3.524   4.324   6.433 -0.4484  1.1619  2.0085
  455MOL0     H62738   3.515   4.149   6.478 -4.4532 -0.1037 -0.3188
  455MOL0     H62739   3.300   4.067   6.565 -2.9497  0.3466 -2.7391
  455MOL0     H62740   3.052   4.079   6.684  2.0686 -1.1282  0.2225
  455MOL0     H62741   3.040   4.179   6.833  0.0129  0.1003  1.0627
  455MOL0     H62742   3.188   3.933   6.764 -2.6923  2.1345 -2.3276
  455MOL0     H62743   3.259   4.035   6.887 -0.3417  0.8184 -2.4372
  455MOL0     H62744   2.996   4.008   6.983  0.2009 -0.3678  0.0577
  455MOL0     H62745   3.012   3.861   6.886  2.1057 -0.2377 -2.1529
  455MOL0     H62746   3.173   3.975   7.123 -0.8440  2.2435 -3.3618
  455MOL0     H62747   3.080   3.820   7.121 -0.8020 -2.3448 -3.2227
  455MOL0     H62748   3.270   3.859   7.282 -0.1249  0.6111 -0.9917
  455MOL0     H62749   3.385   3.901   7.462 -0.9151 -3.0673  0.7840
  455MOL0     H62750   3.564   3.922   7.472  0.0598 -0.3522  2.8992
  455MOL0     H62751   3.490   3.766   7.501 -0.8027  1.6547  2.0840
  455MOL0     H62752   3.913   3.912   7.361 -5.1690  3.2267  2.9084
  455MOL0     H62753   4.134   3.953   7.459  0.3276  0.4910  1.6825
  455MOL0     H62754   4.342   3.862   7.506  0.7965  0.9693  0.5966
  455MOL0     H62755   4.308   4.020   7.583  0.4099  0.4715 -0.4808
  455MOL0     H62756   4.454   3.971   7.775 -0.6644 -2.0347  1.9374
  455MOL0     H62757   4.466   3.809   7.723 -0.8246  0.6774  1.9264
  455MOL0     H62758   4.572   4.055   7.567  1.0246  2.4084  3.4655
  455MOL0     H62759   4.606   3.880   7.531 -1.0833  0.1477 -0.4090
  455MOL0     H62760   4.732   3.846   7.728  3.3638 -0.1707 -2.2901
  455MOL0     H62761   4.691   4.017   7.785 -1.6119 -0.2639  0.2247
  455MOL0     H62762   4.850   3.942   7.531 -2.4623  0.0062 -0.9136
  455MOL0     H62763   4.831   4.096   7.585 -0.8592  0.3378  1.5092
  455MOL0     H62764   4.996   3.906   7.745  3.0454  1.8114  2.2120
  455MOL0     H62765   4.938   4.066   7.812  3.3876  3.6517 -1.3987
  455MOL0     H62766   5.084   4.170   7.664 -2.3791 -0.4338 -1.5744
  455MOL0     H62767   5.110   4.017   7.558 -3.9451 -0.6945 -1.1323
  455MOL0     H62768   5.170   4.072   7.847  2.2849  2.5947  0.0530
  455MOL0     H62769   5.291   4.100   7.732 -0.0827 -1.0262 -0.6278
  455MOL0     H62770   4.043   3.665   7.767 -0.8226  0.4015  1.1026
  455MOL0     H62771   3.816   3.632   7.670  0.4394  0.9248  1.3452
  455MOL0     H62772   3.664   3.647   7.058  0.0246  1.6788 -2.5708
  455MOL0     H62773   3.452   3.681   6.938  3.1884  1.1870 -0.4118
  455MOL0     H62774   4.519   4.129   6.100  0.2064 -1.3951 -0.5240
  455MOL0     H62775   4.444   4.068   5.867 -0.9342 -0.2367  0.2006
  455MOL0     H62776   3.898   4.016   5.671 -1.8441 -1.0037 -1.6779
  455MOL0     H62777   3.796   3.972   5.455  0.2691  2.6239 -0.2384
  455MOL0     H62778   3.754   3.894   5.240 -1.3499  0.5498  1.4396
  455MOL0     H62779   3.752   4.076   5.218  0.5723 -0.2653  1.5234
  455MOL0     H62780   3.698   3.931   4.994 -0.1394 -1.9647  0.8381
  455MOL0     H62781   3.871   3.897   5.012 -2.9017 -1.6972 -0.6754
  455MOL0     H62782   3.776   4.185   5.002 -2.7582 -0.7743 -1.9621
  455MOL0     H62783   3.939   4.124   4.963  0.2665  0.9643 -0.4181
  455MOL0     H62784   3.742   4.185   4.780 -0.6499  0.0001  0.5920
  455MOL0     H62785   3.713   4.022   4.811  2.1478 -2.0738  0.3297
  455MOL0     H62786   4.095   4.033   4.613 -0.0189  1.4837  0.5245
  455MOL0     H62787   4.175   4.038   5.268  0.3166 -0.8475  0.0686
  455MOL0     H62788   4.362   4.177   5.488  0.5550 -0.1701 -2.8649
  455MOL0     H62789   4.364   4.023   5.558  0.7246  2.1388  0.9210
  455MOL0     H62790   4.370   4.033   5.382  2.7643  2.9614 -0.3601
  456MOL0     O62791  11.476   7.299   3.930 -0.1873  0.8804  0.1624
  456MOL0     C62792  11.451   7.260   3.817  0.0311  0.5131  0.2503
  456MOL0     O62793  11.543   7.223   3.717 -0.3526 -0.1262 -0.1333
  456MOL0     C62794  11.680   7.227   3.731  0.2486  0.4872  0.4704
  456MOL0     C62795  11.759   7.286   3.625 -1.5539  0.4916  0.0774
  456MOL0     C62796  11.898   7.300   3.638  0.5912  0.4166 -0.3169
  456MOL0     C62797  11.969   7.255   3.746  0.1962 -0.1294 -0.7720
  456MOL0     O62798  12.102   7.279   3.754  0.5569 -0.0145 -0.3270
  456MOL0     C62799  12.164   7.406   3.813  0.2203  0.3485 -0.6539
  456MOL0     C62800  12.202   7.366   3.962  1.2410 -0.4689  0.1669
  456MOL0     C62801  12.310   7.262   3.970 -0.9505  0.4988 -0.8940
  456MOL0     C62802  12.365   7.255   4.115 -0.2809  0.0682  0.0974
  456MOL0     C62803  12.441   7.122   4.140  0.5695 -0.4220  0.0309
  456MOL0     C62804  12.493   7.114   4.290 -0.4741  0.2873  1.0413
  456MOL0     C62805  12.589   7.001   4.307 -0.1853 -0.1889  0.7256
  456MOL0     C62806  12.536   6.868   4.270  0.3207  0.6626 -0.1503
  456MOL0     N62807  12.442   6.807   4.363 -0.1404 -0.1433 -0.4240
  456MOL0     C62808  12.320   6.852   4.397 -0.0668 -0.4682 -0.6659
  456MOL0     C62809  12.275   6.782   4.507  0.2196 -0.2151  0.8020
  456MOL0     C62810  12.140   6.798   4.559  0.1756 -0.1598 -0.3565
  456MOL0     C62811  12.113   6.937   4.619 -0.6251  0.4473 -0.1227
  456MOL0     C62812  11.964   6.961   4.649 -0.3585 -0.0544  0.0641
  456MOL0     C62813  11.930   7.084   4.737  0.8012 -0.5914  0.4240
  456MOL0     O62814  11.987   7.066   4.863 -0.0878 -0.0037  0.0110
  456MOL0     C62815  11.959   7.151   4.970  0.8035 -0.6442 -0.4807
  456MOL0     C62816  11.863   7.251   4.974 -0.7312 -0.2295  0.3135
  456MOL0     C62817  11.848   7.339   5.080  0.7447  0.5344 -1.0132
  456MOL0     C62818  11.742   7.447   5.060  0.3597  0.6041 -0.0130
  456MOL0     C62819  11.929   7.326   5.190 -1.2769 -0.7158  0.1020
  456MOL0     C62820  11.948   7.431   5.297  0.4720 -0.2335  1.0649
  456MOL0     O62821  12.041   7.409   5.386 -0.6848 -0.9961 -1.0295
  456MOL0     C62822  12.080   7.510   5.468 -1.6064 -0.1440 -1.0041
  456MOL0     C62823  12.138   7.629   5.419  0.8761 -0.3234 -0.4030
  456MOL0     C62824  12.170   7.731   5.505 -0.5572 -0.5246  0.1652
  456MOL0     C62825  12.177   7.706   5.648 -0.3368 -0.3588  0.5684
  456MOL0     O62826  12.237   7.790   5.737 -0.5644  0.5743  0.2485
  456MOL0     C62827  12.248   7.930   5.718 -0.0944  0.0137 -0.6077
  456MOL0     C62828  12.106   7.993   5.730 -0.4153  0.3812 -0.4205
  456MOL0     C62829  12.045   7.978   5.870  0.3330 -0.0010  0.4301
  456MOL0     C62830  11.951   8.086   5.899  0.0743  0.0414 -1.0004
  456MOL0     C62831  11.909   8.075   6.049 -0.1916 -0.0204 -0.1158
  456MOL0     C62832  11.833   8.200   6.100 -0.8027  0.6604  0.0341
  456MOL0     C62833  11.821   8.196   6.256 -0.1842 -0.5963 -0.5990
  456MOL0     C62834  11.708   8.289   6.306  0.3960  0.9015  0.5758
  456MOL0    Cl62835  11.681   8.264   6.485  0.4933  0.5061 -0.0538
  456MOL0     C62836  12.115   7.591   5.693  0.1711  0.0817  0.1230
  456MOL0     C62837  12.072   7.495   5.605 -0.6522 -0.0940 -0.0970
  456MOL0     O62838  11.877   7.529   5.297  0.7695 -0.3001  0.8217
  456MOL0     C62839  12.018   7.216   5.191  0.0869  0.4327 -0.0453
  456MOL0     C62840  12.034   7.130   5.084 -0.8193 -0.2376  0.3707
  456MOL0     N62841  12.377   6.690   4.534  0.5050  0.0321 -0.1438
  456MOL0     N62842  12.476   6.706   4.455  0.1608 -0.2427 -0.2364
  456MOL0     C62843  11.897   7.197   3.858  0.3095 -0.8869  0.1770
  456MOL0     C62844  11.753   7.190   3.841  0.2770  0.5958 -0.2163
  456MOL0     C62845  11.307   7.239   3.778  0.3679  0.4788  0.3275
  456MOL0     C62846  11.266   7.107   3.782 -0.3080 -0.0762  0.0117
  456MOL0     C62847  11.140   7.067   3.734  0.4066 -0.9260 -0.1118
  456MOL0     C62848  11.062   7.152   3.660 -0.5849 -0.8071  0.2927
  456MOL0     O62849  10.955   7.099   3.590 -0.0155 -0.1343 -0.3927
  456MOL0     C62850  10.897   7.178   3.486  0.3234 -0.3571  0.4378
  456MOL0     C62851  10.990   7.207   3.367  0.1724 -0.4245 -0.1725
  456MOL0     C62852  10.985   7.075   3.290 -0.2028  0.4522  0.5313
  456MOL0     C62853  11.084   7.080   3.172 -0.4304  0.8093  0.3839
  456MOL0     C62854  11.043   7.153   3.056  0.0206 -0.3793 -0.4368
  456MOL0     C62855  11.017   7.205   2.954  0.0143 -0.7052 -0.4236
  456MOL0     C62856  11.108   7.285   3.652  0.2259 -0.7061  0.0563
  456MOL0     C62857  11.220   7.331   3.718 -1.5775  0.7370 -0.2209
  456MOL0     C62858  11.267   7.472   3.692  0.6054  0.0858  0.6500
  456MOL0     H62859  11.710   7.308   3.531  0.4251 -0.7140 -1.3170
  456MOL0     H62860  11.944   7.348   3.553  0.1053 -1.9907 -2.0492
  456MOL0     H62861  12.089   7.486   3.810  0.7560  0.8454 -1.0050
  456MOL0     H62862  12.252   7.434   3.755  0.7119 -0.0675 -0.1221
  456MOL0     H62863  12.248   7.452   4.012  1.8991 -1.5374  1.4432
  456MOL0     H62864  12.119   7.335   4.026  2.1584  0.8663  2.1226
  456MOL0     H62865  12.267   7.168   3.934  3.1351 -0.6667 -3.4500
  456MOL0     H62866  12.390   7.281   3.898  0.3694 -0.4720  0.2485
  456MOL0     H62867  12.432   7.339   4.136  0.3901 -0.7039  1.1564
  456MOL0     H62868  12.290   7.256   4.195  0.2132  0.1970  0.5603
  456MOL0     H62869  12.532   7.118   4.080 -1.3315 -0.2479 -3.0713
  456MOL0     H62870  12.370   7.042   4.120  0.3550 -0.2949  0.2724
  456MOL0     H62871  12.558   7.201   4.301  0.4971 -0.0656 -1.2800
  456MOL0     H62872  12.405   7.110   4.354 -2.3226 -2.3401 -1.3817
  456MOL0     H62873  12.634   7.005   4.406  0.5161  2.8758  0.3569
  456MOL0     H62874  12.671   7.026   4.240 -1.0020 -0.7957 -0.5509
  456MOL0     H62875  12.492   6.857   4.170  0.6776 -2.5554 -0.0703
  456MOL0     H62876  12.616   6.793   4.277  0.5597  1.0590  2.6010
  456MOL0     H62877  12.258   6.924   4.343 -0.0245 -0.4388 -0.6756
  456MOL0     H62878  12.120   6.733   4.645 -3.5523  1.5788  0.3045
  456MOL0     H62879  12.068   6.770   4.482  1.3486  0.4681 -1.7183
  456MOL0     H62880  12.181   6.940   4.704  0.7507 -0.0358 -1.1758
  456MOL0     H62881  12.149   7.015   4.551  2.1165 -1.5904 -1.1947
  456MOL0     H62882  11.916   6.968   4.551 -2.5540  1.2599  1.1642
  456MOL0     H62883  11.899   6.884   4.692 -1.8756  1.0569 -0.1244
  456MOL0     H62884  11.955   7.184   4.699 -2.3093 -0.0298 -0.3967
  456MOL0     H62885  11.822   7.085   4.751  0.5652 -3.0287 -0.7874
  456MOL0     H62886  11.805   7.259   4.883 -0.4137 -1.4158 -0.0001
  456MOL0     H62887  11.715   7.449   4.954 -0.7653 -3.5740  0.0235
  456MOL0     H62888  11.789   7.545   5.076  1.7561 -0.0157 -0.1061
  456MOL0     H62889  11.661   7.431   5.131  1.3862  0.8369  1.2483
  456MOL0     H62890  12.149   7.648   5.312  0.0321 -3.2701 -1.0990
  456MOL0     H62891  12.188   7.829   5.464 -0.4631 -0.3524  0.6086
  456MOL0     H62892  12.318   7.956   5.798 -0.4865 -0.1209 -0.2139
  456MOL0     H62893  12.291   7.963   5.623  1.1120 -0.4148 -0.2312
  456MOL0     H62894  12.106   8.098   5.697  0.1753  0.8270  0.9196
  456MOL0     H62895  12.045   7.934   5.661  1.8929 -3.0033  0.2147
  456MOL0     H62896  12.123   7.979   5.947  1.2975 -0.7381 -0.5204
  456MOL0     H62897  11.996   7.882   5.887 -1.4865  1.2076  2.5642
  456MOL0     H62898  11.869   8.079   5.826  1.0518 -0.0655 -2.1161
  456MOL0     H62899  11.993   8.185   5.879  1.3468 -0.2267  0.2311
  456MOL0     H62900  11.852   7.982   6.056 -0.6877  0.3581  1.0459
  456MOL0     H62901  12.002   8.061   6.105 -1.3886 -0.0212  1.9528
  456MOL0     H62902  11.740   8.202   6.042  0.4646 -0.9438 -2.2079
  456MOL0     H62903  11.885   8.289   6.064  0.8396 -1.2875 -2.7679
  456MOL0     H62904  11.919   8.213   6.302 -0.5707 -1.2167  0.5029
  456MOL0     H62905  11.796   8.092   6.279  1.4101 -0.7933  0.3999
  456MOL0     H62906  11.616   8.287   6.247  0.4134  0.7069  0.5539
  456MOL0     H62907  11.738   8.393   6.292 -1.0418  1.3646  0.7796
  456MOL0     H62908  12.105   7.567   5.798 -0.3265  0.3628  0.1416
  456MOL0     H62909  12.041   7.406   5.658  0.7338 -1.1641 -1.0199
  456MOL0     H62910  12.074   7.193   5.281  2.1251  1.3590 -0.9917
  456MOL0     H62911  12.094   7.040   5.080  1.4713  1.2645 -2.0970
  456MOL0     H62912  11.948   7.168   3.949 -0.8440 -1.7207  0.5730
  456MOL0     H62913  11.701   7.142   3.924  0.4103 -0.9041 -0.9771
  456MOL0     H62914  11.334   7.047   3.842  1.1778  1.8410  0.3513
  456MOL0     H62915  11.102   6.965   3.736  0.4418 -0.9842 -1.4693
  456MOL0     H62916  10.811   7.123   3.446  1.0165 -3.0929  2.4210
  456MOL0     H62917  10.867   7.277   3.524 -0.4471 -0.5299  0.2978
  456MOL0     H62918  11.089   7.245   3.393  0.1966 -1.6530  1.7518
  456MOL0     H62919  10.955   7.295   3.311  0.8040  0.0097  0.0941
  456MOL0     H62920  11.024   7.004   3.363 -0.7911  1.0686  1.4841
  456MOL0     H62921  10.880   7.052   3.272 -1.1239  3.5768  1.2216
  456MOL0     H62922  11.108   6.976   3.147 -3.1039 -0.0823  1.2049
  456MOL0     H62923  11.178   7.126   3.202 -0.9415  1.7725  0.5512
  456MOL0     H62924  10.988   7.264   2.869  0.5664  4.7061  2.6624
  456MOL0     H62925  11.053   7.355   3.591  0.0977  0.9129  1.9298
  456MOL0     H62926  11.213   7.505   3.602 -0.9375  0.2109  1.5884
  456MOL0     H62927  11.234   7.543   3.768  2.3321  0.5332  1.0104
  456MOL0     H62928  11.375   7.472   3.676  0.2874 -0.5099 -2.0847
  457MOL0     O62929   2.159   9.204   5.433 -0.6247 -0.1482  0.2791
  457MOL0     C62930   2.257   9.189   5.503  1.1932  1.4739  0.8142
  457MOL0     O62931   2.358   9.281   5.525 -0.0230 -0.0739  1.1985
  457MOL0     C62932   2.368   9.404   5.467 -0.4787  0.0588  0.3233
  457MOL0     C62933   2.434   9.506   5.535  0.0370  0.2795  0.0264
  457MOL0     C62934   2.451   9.623   5.470  0.5120 -0.2593 -0.1776
  457MOL0     C62935   2.425   9.646   5.338  0.3415 -0.2130  0.5528
  457MOL0     O62936   2.446   9.762   5.276 -0.2898 -0.5829  0.0191
  457MOL0     C62937   2.449   9.885   5.341  0.4527 -0.5779 -0.0530
  457MOL0     C62938   2.443  10.002   5.239 -0.0031  0.2000  1.2166
  457MOL0     C62939   2.296  10.022   5.187 -0.5143  0.6259  0.0375
  457MOL0     C62940   2.232  10.151   5.243 -0.3723 -0.3891 -0.4781
  457MOL0     C62941   2.115  10.214   5.159  0.0375 -0.8987 -0.1527
  457MOL0     C62942   2.007  10.116   5.116 -0.8424 -0.1710  0.4039
  457MOL0     C62943   1.863  10.171   5.110  0.2910  1.3924 -0.2475
  457MOL0     C62944   1.824  10.262   5.002  0.0786  0.6550 -0.2138
  457MOL0     N62945   1.688  10.299   5.007  0.0850 -0.0706 -0.5134
  457MOL0     C62946   1.636  10.401   5.077  0.4519  0.1983  0.1737
  457MOL0     C62947   1.505  10.395   5.053 -0.0558  0.0630  0.1405
  457MOL0     C62948   1.393  10.493   5.083  0.0606  0.0753 -0.2078
  457MOL0     C62949   1.305  10.440   5.194 -1.0017  0.1417 -0.1483
  457MOL0     C62950   1.211  10.547   5.247 -0.1826 -0.3105 -0.2722
  457MOL0     C62951   1.100  10.575   5.155 -0.3087 -0.1112  0.8277
  457MOL0     O62952   1.006  10.473   5.136 -0.0692  0.2049  0.0284
  457MOL0     C62953   0.904  10.490   5.049  0.5429  0.3283 -0.1418
  457MOL0     C62954   0.884  10.602   4.963 -0.1418  0.7735  0.1250
  457MOL0     C62955   0.772  10.606   4.870 -0.0863 -0.1746 -0.4925
  457MOL0     C62956   0.770  10.734   4.784  0.8858  0.0723 -0.8030
  457MOL0     C62957   0.692  10.493   4.854  0.2472  0.6674 -0.0089
  457MOL0     C62958   0.577  10.476   4.757  0.2345 -0.0726 -0.6820
  457MOL0     O62959   0.507  10.364   4.766 -0.3301 -0.1296 -0.0873
  457MOL0     C62960   0.401  10.353   4.681 -0.0607  0.2986  0.1397
  457MOL0     C62961   0.414  10.324   4.548  0.5637 -0.0338  0.7664
  457MOL0     C62962   0.312  10.341   4.460 -0.3838 -0.2872 -0.6672
  457MOL0     C62963   0.180  10.367   4.507 -0.2784 -0.5699 -0.0191
  457MOL0     O62964   0.067  10.380   4.426 -0.1228  0.5575 -0.8223
  457MOL0     C62965   0.084  10.416   4.292  0.3255 -0.4099 -0.0051
  457MOL0     C62966   0.092  10.565   4.277  0.5499  0.1433  0.6232
  457MOL0     C62967   0.232  10.628   4.307  0.7917  0.4218  0.0364
  457MOL0     C62968   0.253  10.772   4.256  0.4001 -0.8210 -0.2258
  457MOL0     C62969   0.378  10.829   4.315 -0.6023 -0.3171 -0.3494
  457MOL0     C62970   0.394  10.976   4.287 -0.0311  0.1413 -0.3030
  457MOL0     C62971   0.403  11.030   4.138 -0.0501  1.2214  0.1063
  457MOL0     C62972   0.543  11.059   4.096  0.4992 -0.2635 -0.7197
  457MOL0    Cl62973   0.646  10.911   4.093  0.0339 -0.1911  0.0117
  457MOL0     C62974   0.159  10.382   4.650 -1.0206 -0.8283 -0.3461
  457MOL0     C62975   0.273  10.380   4.734  0.4849 -1.3295  0.0501
  457MOL0     O62976   0.541  10.584   4.701 -0.2918 -0.2690  1.0550
  457MOL0     C62977   0.712  10.383   4.943 -0.5193  0.4595  0.5484
  457MOL0     C62978   0.815  10.381   5.034  0.0483  0.7081 -0.1027
  457MOL0     N62979   1.472  10.295   4.959 -0.1982  0.1732  0.0851
  457MOL0     N62980   1.590  10.235   4.942 -0.8098  0.3987 -0.5238
  457MOL0     C62981   2.368   9.544   5.271  0.8041 -0.1634  0.4518
  457MOL0     C62982   2.337   9.427   5.339  0.3235 -0.5823  1.0279
  457MOL0     C62983   2.272   9.060   5.583 -0.2278  0.7460 -0.2483
  457MOL0     C62984   2.363   9.059   5.695 -0.5967  0.4611  0.4517
  457MOL0     C62985   2.387   8.944   5.765 -0.8511  0.6803 -0.3549
  457MOL0     C62986   2.332   8.817   5.733 -0.0618  0.5445 -0.5069
  457MOL0     O62987   2.350   8.709   5.824 -0.3980 -0.5834 -0.0539
  457MOL0     C62988   2.287   8.723   5.953 -0.0608  0.4227  0.2091
  457MOL0     C62989   2.135   8.738   5.929 -0.7823  0.1395  0.0476
  457MOL0     C62990   2.064   8.613   5.864 -0.1719 -0.4815 -0.3375
  457MOL0     C62991   1.915   8.608   5.893  0.0200 -0.2767  0.2552
  457MOL0     C62992   1.891   8.571   6.032 -0.1283 -0.6488 -0.4845
  457MOL0     C62993   1.867   8.535   6.148 -0.1793  0.4599 -0.0018
  457MOL0     C62994   2.243   8.810   5.626  0.5016  0.2267  0.1711
  457MOL0     C62995   2.215   8.935   5.559  0.0824  0.8765  0.3008
  457MOL0     C62996   2.123   8.919   5.441  1.1445  0.9423 -0.4653
  457MOL0     H62997   2.459   9.493   5.640 -3.2969  1.7991  1.1552
  457MOL0     H62998   2.495   9.704   5.528  1.2858 -0.8405  0.0587
  457MOL0     H62999   2.546   9.896   5.390  0.9218  0.5563 -1.1742
  457MOL0     H63000   2.362   9.891   5.407 -0.5297 -1.6895 -1.1803
  457MOL0     H63001   2.487  10.090   5.287  2.3686 -0.4894  0.4893
  457MOL0     H63002   2.495   9.976   5.146 -1.6169  0.2305  0.2746
  457MOL0     H63003   2.286  10.031   5.078 -2.6891  3.0904  0.3210
  457MOL0     H63004   2.246   9.928   5.213 -2.8552  1.8241  0.1781
  457MOL0     H63005   2.199  10.125   5.344  1.4080 -2.5069 -0.3724
  457MOL0     H63006   2.302  10.235   5.238 -0.8721  0.1318  0.7430
  457MOL0     H63007   2.157  10.255   5.067 -2.8728  0.7075 -0.8914
  457MOL0     H63008   2.062  10.297   5.206 -1.2378 -1.0519 -1.2449
  457MOL0     H63009   2.043  10.061   5.028  0.0384 -0.1302  0.7258
  457MOL0     H63010   2.018  10.039   5.193 -0.8215 -0.5010  0.0741
  457MOL0     H63011   1.858  10.228   5.203 -0.8654  0.8656  0.0352
  457MOL0     H63012   1.795  10.085   5.113  0.1401  1.4807 -0.9663
  457MOL0     H63013   1.892  10.347   5.002  1.8851 -0.7265 -0.3345
  457MOL0     H63014   1.844  10.206   4.910 -0.5633  3.6530 -2.3270
  457MOL0     H63015   1.697  10.468   5.137  0.5396 -0.2287  0.5600
  457MOL0     H63016   1.336  10.505   4.991 -1.3259  2.4200  0.8480
  457MOL0     H63017   1.433  10.588   5.120 -0.5037 -0.3729  1.6572
  457MOL0     H63018   1.249  10.347   5.182  0.5869 -1.4943  3.6270
  457MOL0     H63019   1.374  10.421   5.277 -2.1817 -0.0741  0.8103
  457MOL0     H63020   1.165  10.511   5.339  0.9399 -1.0908 -0.0043
  457MOL0     H63021   1.273  10.637   5.258 -1.0568  0.4020 -0.9807
  457MOL0     H63022   1.048  10.668   5.180 -0.4541 -0.5824  2.3835
  457MOL0     H63023   1.139  10.604   5.057 -2.9739  3.4918  0.6077
  457MOL0     H63024   0.951  10.687   4.959  1.9698 -0.8416 -2.6502
  457MOL0     H63025   0.718  10.743   4.689 -2.3556  2.3309  0.9656
  457MOL0     H63026   0.876  10.741   4.759  1.3872  1.7288  1.4436
  457MOL0     H63027   0.744  10.825   4.839 -0.4477 -1.4483  1.2696
  457MOL0     H63028   0.514  10.313   4.507 -0.5507  0.6897 -2.3670
  457MOL0     H63029   0.337  10.319   4.356  0.4766  1.0860 -0.7726
  457MOL0     H63030   0.167  10.372   4.236 -0.5441  0.9945 -2.5604
  457MOL0     H63031  -0.009  10.387   4.243 -0.7624 -0.3517  1.9551
  457MOL0     H63032   0.056  10.588   4.177  0.4487  0.1417  0.6599
  457MOL0     H63033   0.022  10.618   4.342 -2.2738 -1.3637 -0.9977
  457MOL0     H63034   0.310  10.563   4.266  0.1168 -1.5724  1.7417
  457MOL0     H63035   0.247  10.638   4.415  1.7505 -1.0223  0.0635
  457MOL0     H63036   0.170  10.828   4.301 -1.1379 -2.3793 -0.9975
  457MOL0     H63037   0.248  10.775   4.147 -0.9177  2.8893 -0.1867
  457MOL0     H63038   0.393  10.810   4.422  1.4423 -1.9335 -0.8456
  457MOL0     H63039   0.461  10.773   4.271 -1.3516 -2.0661  0.3661
  457MOL0     H63040   0.479  11.013   4.344  0.2317 -1.7017  0.5648
  457MOL0     H63041   0.308  11.012   4.344 -2.3550 -1.8579 -2.2713
  457MOL0     H63042   0.337  11.113   4.111  0.3267  1.3508 -0.4498
  457MOL0     H63043   0.374  10.942   4.080 -2.1148  0.1545  2.5504
  457MOL0     H63044   0.579  11.143   4.156 -1.9713 -0.4866  1.2048
  457MOL0     H63045   0.540  11.104   3.996  3.1826  0.0427 -0.7382
  457MOL0     H63046   0.060  10.402   4.690 -0.1161 -2.1312  2.8494
  457MOL0     H63047   0.248  10.385   4.840  1.4287 -0.8884  0.2670
  457MOL0     H63048   0.636  10.305   4.939  1.8760 -1.9652 -0.6163
  457MOL0     H63049   0.814  10.289   5.091 -2.4164  0.1093 -0.9887
  457MOL0     H63050   2.342   9.561   5.167  0.8705  0.3498  0.5151
  457MOL0     H63051   2.288   9.353   5.277  1.0255  0.1016 -0.3803
  457MOL0     H63052   2.400   9.153   5.736 -0.4123 -0.1534  1.7399
  457MOL0     H63053   2.454   8.947   5.850 -0.1791 -2.9483 -0.6238
  457MOL0     H63054   2.320   8.636   6.012  0.9853  1.8031  1.7503
  457MOL0     H63055   2.310   8.816   6.006 -1.5723  0.7917  0.2548
  457MOL0     H63056   2.111   8.828   5.872 -0.2887  0.5768  0.5077
  457MOL0     H63057   2.088   8.757   6.026 -1.2597 -0.2545 -0.1081
  457MOL0     H63058   2.075   8.620   5.755  1.7830 -1.6345 -0.2635
  457MOL0     H63059   2.118   8.523   5.897  0.7849  0.3378  0.3899
  457MOL0     H63060   1.866   8.534   5.828 -2.7360  1.9636 -0.4253
  457MOL0     H63061   1.870   8.704   5.866  0.3230  0.7088  2.9721
  457MOL0     H63062   1.867   8.508   6.251  5.2353 -0.9205 -0.0652
  457MOL0     H63063   2.206   8.710   5.605 -1.9520  1.0661  0.1341
  457MOL0     H63064   2.037   8.985   5.454 -1.2616 -1.8652 -1.0971
  457MOL0     H63065   2.169   8.927   5.342  2.9888 -3.2424 -0.1655
  457MOL0     H63066   2.083   8.817   5.441 -0.2375  1.4455  1.0873
  458MOL0     O63067   2.603   0.307   8.870 -0.5542 -0.2643  0.3942
  458MOL0     C63068   2.559   0.259   8.764  0.1134  0.0361 -0.6028
  458MOL0     O63069   2.489   0.334   8.678 -0.1104 -0.2072  0.2403
  458MOL0     C63070   2.448   0.459   8.693  0.2109 -0.7323 -0.1157
  458MOL0     C63071   2.478   0.557   8.802 -0.9681 -0.6933 -0.4694
  458MOL0     C63072   2.423   0.685   8.801 -0.6122 -1.1702  0.3424
  458MOL0     C63073   2.342   0.730   8.693  0.1086  0.3334  0.5939
  458MOL0     O63074   2.283   0.855   8.692  0.0025  0.7680  0.1166
  458MOL0     C63075   2.266   0.907   8.558 -0.4604  0.1704 -0.2215
  458MOL0     C63076   2.283   1.059   8.555 -0.1733  0.3848 -0.2579
  458MOL0     C63077   2.203   1.098   8.435  0.5706 -0.0952  0.3893
  458MOL0     C63078   2.244   1.244   8.395  1.1326 -0.1041 -1.0202
  458MOL0     C63079   2.139   1.355   8.435 -0.5014  0.2688  0.2132
  458MOL0     C63080   2.213   1.489   8.394  0.2800  0.4080 -0.1712
  458MOL0     C63081   2.113   1.604   8.405 -0.1024  0.3858 -0.5371
  458MOL0     C63082   2.030   1.593   8.534 -0.8129  0.1274 -0.2812
  458MOL0     N63083   1.969   1.716   8.579 -0.7728 -0.4457 -0.7552
  458MOL0     C63084   2.040   1.829   8.620  0.1505  0.3086 -0.0099
  458MOL0     C63085   1.957   1.891   8.695  0.4814 -0.0963  0.0997
  458MOL0     C63086   2.013   1.999   8.784  0.4177  0.8514 -0.8493
  458MOL0     C63087   2.004   2.143   8.732 -0.2997 -0.3740 -0.3507
  458MOL0     C63088   2.064   2.169   8.591 -0.3695  0.1142  0.8560
  458MOL0     C63089   2.214   2.174   8.579 -0.3883  0.5309 -0.9719
  458MOL0     O63090   2.270   2.305   8.618 -0.5261  0.6054 -0.4455
  458MOL0     C63091   2.412   2.312   8.616 -0.1956  0.7887  0.6261
  458MOL0     C63092   2.497   2.213   8.551 -0.4417  0.7918 -0.2662
  458MOL0     C63093   2.635   2.224   8.564  0.2351 -0.1467  0.1126
  458MOL0     C63094   2.716   2.101   8.537  1.1653 -0.2231 -0.3445
  458MOL0     C63095   2.692   2.347   8.615 -0.5128  0.5042 -0.0848
  458MOL0     C63096   2.843   2.359   8.619 -0.2851 -0.0224 -0.0971
  458MOL0     O63097   2.912   2.390   8.500  1.0022 -0.8501 -0.6308
  458MOL0     C63098   3.049   2.353   8.495  0.0589  0.0604 -0.8433
  458MOL0     C63099   3.094   2.242   8.419  0.0826  0.4564 -0.0252
  458MOL0     C63100   3.227   2.210   8.418 -0.0823 -0.2232 -0.5617
  458MOL0     C63101   3.321   2.280   8.486 -0.8088  0.1338 -0.7886
  458MOL0     O63102   3.453   2.240   8.488  0.8293  0.1093 -0.0079
  458MOL0     C63103   3.516   2.122   8.423 -0.0335  0.1378 -0.0235
  458MOL0     C63104   3.539   2.149   8.275  0.6135  0.3639 -0.2405
  458MOL0     C63105   3.608   2.276   8.246 -0.2531 -1.0687 -0.6915
  458MOL0     C63106   3.750   2.297   8.304 -0.0860  0.4304  1.0310
  458MOL0     C63107   3.855   2.245   8.191 -0.2535 -0.6541 -0.9238
  458MOL0     C63108   3.999   2.232   8.236 -0.2045  0.2439 -0.2488
  458MOL0     C63109   4.055   2.373   8.270 -1.1934  0.5920 -0.7626
  458MOL0     C63110   4.208   2.366   8.289 -1.0597  0.2147  0.4474
  458MOL0    Cl63111   4.254   2.534   8.273 -0.6697 -0.5148 -0.0214
  458MOL0     C63112   3.272   2.380   8.570 -0.1140  0.7407 -0.3235
  458MOL0     C63113   3.143   2.420   8.581 -0.7469  0.2623  0.7936
  458MOL0     O63114   2.885   2.316   8.724 -0.9487  0.0429  0.1890
  458MOL0     C63115   2.615   2.447   8.671 -0.0561  1.2797 -1.4400
  458MOL0     C63116   2.475   2.431   8.667  0.2730  0.6321  0.7315
  458MOL0     N63117   1.830   1.821   8.701 -0.0758  0.1061 -0.2098
  458MOL0     N63118   1.847   1.714   8.644  0.6733 -0.3224  0.5045
  458MOL0     C63119   2.305   0.628   8.599  0.9355  0.3633  0.6213
  458MOL0     C63120   2.355   0.497   8.594  0.5576 -0.7648  0.6755
  458MOL0     C63121   2.610   0.121   8.722 -0.0319 -0.0557  0.0235
  458MOL0     C63122   2.564   0.072   8.597 -0.3115  0.3840  0.2559
  458MOL0     C63123   2.590  -0.056   8.551  0.2160  0.4179 -0.8118
  458MOL0     C63124   2.658  -0.143   8.637 -0.9521 -0.4432  1.1051
  458MOL0     O63125   2.673  -0.281   8.622  0.0729  0.3771  0.2233
  458MOL0     C63126   2.675  -0.341   8.488 -0.5640  0.1319 -0.0758
  458MOL0     C63127   2.746  -0.466   8.480 -0.5992  1.2926  0.3920
  458MOL0     C63128   2.898  -0.460   8.515  0.5287 -0.2481 -0.0317
  458MOL0     C63129   2.969  -0.360   8.418  0.3431 -0.2865  0.4042
  458MOL0     C63130   2.954  -0.383   8.269  0.9151 -0.7861  0.2333
  458MOL0     C63131   2.959  -0.397   8.144  0.2917 -0.5751  0.1292
  458MOL0     C63132   2.706  -0.097   8.759  0.4042  1.1121 -0.0197
  458MOL0     C63133   2.694   0.032   8.801 -0.3154 -0.9265 -0.5430
  458MOL0     C63134   2.753   0.066   8.941 -0.1249  0.2236 -0.0465
  458MOL0     H63135   2.544   0.526   8.883  0.2017  2.5783 -0.0177
  458MOL0     H63136   2.448   0.764   8.871  1.1653 -0.7181 -0.7335
  458MOL0     H63137   2.161   0.887   8.533 -0.0081 -1.1536 -1.2061
  458MOL0     H63138   2.348   0.874   8.494 -0.0490 -0.0177  0.3858
  458MOL0     H63139   2.243   1.105   8.646  3.3894 -0.9897  2.2245
  458MOL0     H63140   2.391   1.075   8.556 -0.2963  1.4716  2.4072
  458MOL0     H63141   2.223   1.029   8.352 -1.0742 -0.6024  0.3835
  458MOL0     H63142   2.097   1.092   8.460  0.5680 -0.5156  0.2945
  458MOL0     H63143   2.343   1.268   8.435  1.8258 -2.4922 -1.1116
  458MOL0     H63144   2.254   1.249   8.286 -3.4393  0.5938 -1.5923
  458MOL0     H63145   2.121   1.359   8.542  2.9887  0.4305  0.9185
  458MOL0     H63146   2.045   1.334   8.383  1.1483 -2.6228 -1.9208
  458MOL0     H63147   2.302   1.504   8.454  0.0289 -2.7039  1.1607
  458MOL0     H63148   2.238   1.483   8.288 -0.5471 -0.2490 -0.3472
  458MOL0     H63149   2.053   1.607   8.314  0.3567  3.1512 -0.8253
  458MOL0     H63150   2.177   1.692   8.419 -1.4436  1.0079  2.3895
  458MOL0     H63151   1.950   1.519   8.524  1.1740 -2.3281  0.8359
  458MOL0     H63152   2.098   1.555   8.611  0.1569  3.9767  0.9666
  458MOL0     H63153   2.145   1.853   8.607  0.2710  0.4205  1.1113
  458MOL0     H63154   2.118   1.976   8.802  0.2460  1.4977  1.1314
  458MOL0     H63155   1.951   1.993   8.874 -1.3661  1.2878 -2.0013
  458MOL0     H63156   1.897   2.165   8.736 -0.4861 -1.4205  1.3174
  458MOL0     H63157   2.061   2.210   8.796  0.1334 -0.3768 -0.7265
  458MOL0     H63158   2.032   2.096   8.516  0.7240  1.2075 -0.7423
  458MOL0     H63159   2.028   2.266   8.556  0.0785 -0.2705 -0.7929
  458MOL0     H63160   2.252   2.087   8.634 -2.3648  0.4773  0.4352
  458MOL0     H63161   2.244   2.155   8.476  2.6740 -0.9393  0.0645
  458MOL0     H63162   2.457   2.116   8.525  2.0546 -0.2824 -0.3673
  458MOL0     H63163   2.824   2.118   8.538  1.6320 -2.6880  1.4952
  458MOL0     H63164   2.698   2.076   8.431 -3.9182  1.9370 -0.2799
  458MOL0     H63165   2.677   2.015   8.593 -0.5460  1.0282  0.4894
  458MOL0     H63166   3.030   2.189   8.349 -1.8237  1.2234  1.0805
  458MOL0     H63167   3.262   2.139   8.343 -1.3588 -0.2237 -1.1722
  458MOL0     H63168   3.612   2.103   8.471 -0.5427 -1.1557  0.5187
  458MOL0     H63169   3.456   2.032   8.439 -0.2116  0.6641  2.6503
  458MOL0     H63170   3.599   2.067   8.233  0.1993 -0.7549  1.2877
  458MOL0     H63171   3.441   2.147   8.226 -0.3924  0.7770  1.6766
  458MOL0     H63172   3.550   2.353   8.298 -0.9947 -1.0245 -1.5625
  458MOL0     H63173   3.586   2.303   8.142  1.1941 -1.0520 -1.0124
  458MOL0     H63174   3.759   2.234   8.393  0.2755 -0.6879  0.2340
  458MOL0     H63175   3.768   2.401   8.333 -0.5815  0.9079 -0.2939
  458MOL0     H63176   3.832   2.146   8.153 -1.6211 -0.5738 -0.3510
  458MOL0     H63177   3.848   2.321   8.113  1.1376  2.1625  1.4699
  458MOL0     H63178   4.060   2.197   8.152  2.3754  2.2764  0.6099
  458MOL0     H63179   4.003   2.156   8.315  0.8886  0.1711 -0.3535
  458MOL0     H63180   4.004   2.400   8.363 -0.8323  0.1008 -0.4176
  458MOL0     H63181   4.024   2.444   8.193 -3.2917 -0.0574 -0.5710
  458MOL0     H63182   4.265   2.312   8.213  2.0591  5.5038 -1.4801
  458MOL0     H63183   4.230   2.331   8.391 -0.7244  0.3854  0.4350
  458MOL0     H63184   3.353   2.422   8.628 -1.4529  0.1604  2.0676
  458MOL0     H63185   3.093   2.482   8.655 -1.0001 -1.4279  2.0951
  458MOL0     H63186   2.667   2.531   8.716  1.9628 -0.9724  0.7973
  458MOL0     H63187   2.407   2.509   8.700 -0.9491  1.3794 -2.9976
  458MOL0     H63188   2.225   0.658   8.531 -1.4630 -1.0266  2.6902
  458MOL0     H63189   2.329   0.426   8.517  4.8806  1.5172 -3.4028
  458MOL0     H63190   2.501   0.134   8.534  0.6073 -0.7115 -1.8346
  458MOL0     H63191   2.530  -0.078   8.463 -0.7178  3.1321 -0.9468
  458MOL0     H63192   2.572  -0.366   8.462 -0.4421  0.8882 -1.3331
  458MOL0     H63193   2.717  -0.275   8.412  2.0768 -1.8138 -0.4667
  458MOL0     H63194   2.734  -0.517   8.384  0.4627  0.0023  0.9127
  458MOL0     H63195   2.689  -0.528   8.550 -1.4547  0.8961 -0.6206
  458MOL0     H63196   2.901  -0.423   8.618 -2.8497  5.0799 -1.4354
  458MOL0     H63197   2.936  -0.562   8.500  2.3815  0.5880 -1.3881
  458MOL0     H63198   3.074  -0.371   8.447 -0.5511  1.1198  4.8323
  458MOL0     H63199   2.934  -0.258   8.437 -0.9613 -0.4440 -0.9812
  458MOL0     H63200   2.996  -0.403   8.044 -1.5741  3.6680 -1.0135
  458MOL0     H63201   2.774  -0.158   8.816 -0.9211  1.5301  2.1144
  458MOL0     H63202   2.670   0.065   9.014 -0.2393  0.4454 -0.1712
  458MOL0     H63203   2.827  -0.006   8.977  0.6102  0.9004 -0.1839
  458MOL0     H63204   2.795   0.167   8.940 -0.1510  0.2402 -1.5962
  459MOL0     O63205   5.787   6.841   0.902 -0.1434  0.6667  0.1365
  459MOL0     C63206   5.756   6.720   0.897  0.5686  0.0409 -0.5030
  459MOL0     O63207   5.665   6.653   0.819 -0.5835 -0.7001 -0.1808
  459MOL0     C63208   5.591   6.729   0.730 -0.4106  0.6461  0.0895
  459MOL0     C63209   5.475   6.663   0.689 -0.2854  0.0908 -0.6023
  459MOL0     C63210   5.375   6.728   0.610 -0.0532  0.9352  0.4360
  459MOL0     C63211   5.409   6.853   0.552 -0.4660  0.0621 -0.0409
  459MOL0     O63212   5.331   6.923   0.461 -0.1994 -0.2304 -0.0308
  459MOL0     C63213   5.198   6.873   0.430  0.6348  0.0723 -0.5695
  459MOL0     C63214   5.125   6.976   0.334 -0.1400  0.7520 -0.3663
  459MOL0     C63215   4.996   6.926   0.281  0.3069  0.6102  0.0820
  459MOL0     C63216   4.961   7.009   0.158  0.1913 -0.0650  0.2813
  459MOL0     C63217   4.831   6.973   0.096  0.1132  0.2831 -0.1102
  459MOL0     C63218   4.789   7.074  -0.007  0.4060  0.9351  0.3742
  459MOL0     C63219   4.711   7.189   0.053  0.5128  0.6608  0.6280
  459MOL0     C63220   4.658   7.290  -0.048 -0.2463 -0.2743 -0.4448
  459MOL0     N63221   4.637   7.414   0.030 -0.0731  1.2080 -0.3843
  459MOL0     C63222   4.729   7.488   0.097  0.2839  0.3694  0.7736
  459MOL0     C63223   4.655   7.593   0.139 -0.5260  0.2980 -0.2232
  459MOL0     C63224   4.707   7.710   0.219 -0.5618 -0.4657 -0.2518
  459MOL0     C63225   4.693   7.830   0.132 -0.4010  0.3361 -0.3204
  459MOL0     C63226   4.796   7.857   0.027 -0.7509 -0.0699  0.5899
  459MOL0     C63227   4.944   7.858   0.078  0.5119 -0.0069 -0.4510
  459MOL0     O63228   5.029   7.882  -0.037 -0.2141  0.5197  0.0985
  459MOL0     C63229   5.167   7.873  -0.018 -0.5264 -0.0883 -0.6877
  459MOL0     C63230   5.224   7.838   0.112  0.6522  0.3265  0.0625
  459MOL0     C63231   5.352   7.788   0.118 -1.0464  0.7634 -0.0164
  459MOL0     C63232   5.385   7.723   0.245  0.1955  0.0950 -0.1384
  459MOL0     C63233   5.437   7.803   0.005  0.1760  0.0201 -0.0622
  459MOL0     C63234   5.575   7.760   0.001  0.4937  0.3148 -0.2565
  459MOL0     O63235   5.650   7.807  -0.101  0.1167 -0.1286 -0.1253
  459MOL0     C63236   5.779   7.817  -0.080 -0.3035 -0.0786  0.0686
  459MOL0     C63237   5.865   7.774  -0.179 -0.0431  0.2861  0.5364
  459MOL0     C63238   5.995   7.825  -0.174  0.5517 -0.5014  0.8696
  459MOL0     C63239   6.041   7.913  -0.082  0.2691  0.2420  0.7737
  459MOL0     O63240   6.171   7.932  -0.089  0.1053  0.1330  0.0622
  459MOL0     C63241   6.211   8.064  -0.064 -0.3431 -0.1009  0.6024
  459MOL0     C63242   6.327   8.052   0.031 -0.4083 -0.1536 -0.4387
  459MOL0     C63243   6.381   8.197   0.040 -0.1735 -0.3058 -0.5074
  459MOL0     C63244   6.501   8.212   0.131  0.4461  0.6382  0.2675
  459MOL0     C63245   6.508   8.361   0.180 -0.1568 -0.1251  0.8909
  459MOL0     C63246   6.648   8.392   0.247  0.2033  0.0127 -0.8643
  459MOL0     C63247   6.664   8.542   0.304  0.2396 -0.3863  0.0722
  459MOL0     C63248   6.771   8.541   0.420  0.0199  0.0900 -0.6866
  459MOL0    Cl63249   6.932   8.495   0.364 -0.4816  0.1768  0.0992
  459MOL0     C63250   5.944   7.951   0.023 -1.3519 -0.5007 -0.7941
  459MOL0     C63251   5.818   7.900   0.018 -0.5530 -0.0284  0.5323
  459MOL0     O63252   5.612   7.676   0.087  0.1936 -0.3260 -0.1743
  459MOL0     C63253   5.390   7.873  -0.107 -0.1852 -0.5084 -0.2760
  459MOL0     C63254   5.255   7.892  -0.118 -0.2547 -0.7650 -0.3148
  459MOL0     N63255   4.526   7.572   0.109 -0.0296 -0.6465  0.4778
  459MOL0     N63256   4.515   7.465   0.049  0.0579 -0.0719  0.5534
  459MOL0     C63257   5.525   6.913   0.589  0.1045  0.3184 -0.0226
  459MOL0     C63258   5.624   6.854   0.671  0.0100  0.1605 -0.0352
  459MOL0     C63259   5.823   6.629   0.991 -0.1662  0.3085 -0.2486
  459MOL0     C63260   5.799   6.655   1.129  0.2027 -0.2356  0.8573
  459MOL0     C63261   5.845   6.560   1.215  0.0138  0.4133  0.6369
  459MOL0     C63262   5.934   6.456   1.179  0.4180  0.1620 -0.1166
  459MOL0     O63263   5.968   6.369   1.279  0.2433  0.1123 -0.4688
  459MOL0     C63264   6.056   6.259   1.247 -0.0086 -0.5641 -0.0794
  459MOL0     C63265   6.005   6.125   1.327 -0.4336 -1.0864  0.0008
  459MOL0     C63266   6.056   6.125   1.473  0.0686 -0.6574  0.0229
  459MOL0     C63267   5.950   6.166   1.581 -0.7357 -0.7706  0.0937
  459MOL0     C63268   5.988   6.119   1.711  0.8153  0.1934 -0.2939
  459MOL0     C63269   6.009   6.075   1.825  0.0611 -0.2062 -0.7428
  459MOL0     C63270   5.976   6.449   1.048 -0.5976 -1.1122  0.4899
  459MOL0     C63271   5.927   6.534   0.951 -0.2791 -0.5255 -0.3243
  459MOL0     C63272   5.972   6.527   0.808 -1.0321  0.5578  0.2341
  459MOL0     H63273   5.448   6.569   0.735  0.0533  0.5247  0.5044
  459MOL0     H63274   5.279   6.682   0.591  0.6940 -3.0937  4.7094
  459MOL0     H63275   5.131   6.858   0.515  0.1969 -2.4286 -1.2809
  459MOL0     H63276   5.209   6.768   0.399  2.9257 -0.6871  2.3364
  459MOL0     H63277   5.118   7.075   0.380 -0.3863  0.3788  0.4067
  459MOL0     H63278   5.197   6.991   0.252  0.0682  1.8069 -0.0154
  459MOL0     H63279   5.007   6.821   0.253  0.3639 -0.0475  2.3187
  459MOL0     H63280   4.926   6.936   0.365 -0.0452  0.5451 -0.2016
  459MOL0     H63281   4.961   7.115   0.184 -0.1709 -0.2007  0.8618
  459MOL0     H63282   5.029   6.994   0.074 -1.5906  0.2083 -1.2997
  459MOL0     H63283   4.751   6.955   0.168 -0.4998 -0.2835 -0.9118
  459MOL0     H63284   4.849   6.877   0.046 -2.4363  0.2640 -1.1618
  459MOL0     H63285   4.877   7.122  -0.051  1.1141 -0.3314  0.3805
  459MOL0     H63286   4.728   7.022  -0.082  0.1376  1.8724 -0.0723
  459MOL0     H63287   4.778   7.238   0.124  1.5960  2.5355 -1.5431
  459MOL0     H63288   4.629   7.155   0.116  1.0173 -0.5065  0.7007
  459MOL0     H63289   4.732   7.315  -0.125 -0.5085  3.5391  0.3653
  459MOL0     H63290   4.562   7.254  -0.085  0.5430 -0.9713 -1.8913
  459MOL0     H63291   4.837   7.491   0.103  0.3616 -1.1633  0.5088
  459MOL0     H63292   4.810   7.690   0.248  0.3730  0.6160 -2.6014
  459MOL0     H63293   4.655   7.733   0.313  0.4171  0.6538  0.0457
  459MOL0     H63294   4.590   7.835   0.098 -0.9792  0.4267  1.3277
  459MOL0     H63295   4.715   7.910   0.203  2.2682  0.5199 -1.2085
  459MOL0     H63296   4.797   7.788  -0.057 -1.0511 -1.0861  1.3968
  459MOL0     H63297   4.784   7.956  -0.017  2.8923  0.1985 -0.1785
  459MOL0     H63298   4.952   7.931   0.159 -1.1103 -0.0014 -0.2723
  459MOL0     H63299   4.972   7.758   0.114  0.1285 -0.4137 -1.2582
  459MOL0     H63300   5.159   7.832   0.198  0.8674  2.3166  0.4085
  459MOL0     H63301   5.418   7.619   0.240  1.5196  0.5490 -1.6507
  459MOL0     H63302   5.295   7.732   0.306  0.6425  0.2485  0.5030
  459MOL0     H63303   5.468   7.778   0.289  1.7437 -1.5801 -0.8480
  459MOL0     H63304   5.831   7.703  -0.253  2.9601  1.0158 -1.7291
  459MOL0     H63305   6.069   7.794  -0.248 -0.5607 -0.5262 -0.2792
  459MOL0     H63306   6.247   8.094  -0.162  0.6705 -0.3381  0.8927
  459MOL0     H63307   6.127   8.125  -0.028 -0.7313  1.1193 -2.1595
  459MOL0     H63308   6.296   8.011   0.128  2.4231 -0.4622  0.4371
  459MOL0     H63309   6.409   7.986   0.002  1.7321  1.3794  1.6506
  459MOL0     H63310   6.299   8.264   0.067  0.8031  1.1868 -1.1040
  459MOL0     H63311   6.407   8.242  -0.057 -2.7637  3.4270  0.3494
  459MOL0     H63312   6.594   8.165   0.100  0.4006  0.3345  0.5790
  459MOL0     H63313   6.473   8.148   0.216 -1.6615 -0.7461 -1.3489
  459MOL0     H63314   6.501   8.438   0.102 -1.0354  2.5943  3.4578
  459MOL0     H63315   6.427   8.375   0.251  0.6238 -1.5709  2.1390
  459MOL0     H63316   6.740   8.373   0.192  0.2405 -0.9509 -0.4975
  459MOL0     H63317   6.647   8.317   0.327 -2.3262 -1.3305 -2.0200
  459MOL0     H63318   6.569   8.582   0.340 -0.1181 -0.2365 -1.0054
  459MOL0     H63319   6.680   8.616   0.225 -4.9496  1.9966  0.8572
  459MOL0     H63320   6.737   8.469   0.495  0.9941 -1.5492 -1.7484
  459MOL0     H63321   6.773   8.642   0.461  0.4761  0.4147 -1.4864
  459MOL0     H63322   5.966   8.025   0.100 -1.5259 -0.3517 -0.8864
  459MOL0     H63323   5.749   7.949   0.086 -1.5983  1.6048 -1.6037
  459MOL0     H63324   5.453   7.897  -0.192  1.0342  3.2244  1.4842
  459MOL0     H63325   5.231   7.927  -0.218  0.1256  0.3369 -0.0419
  459MOL0     H63326   5.543   7.010   0.543 -0.6129 -0.1507 -1.3352
  459MOL0     H63327   5.722   6.897   0.685  0.6144 -0.4404 -2.0343
  459MOL0     H63328   5.725   6.729   1.159  1.2085  0.4980  1.5937
  459MOL0     H63329   5.821   6.556   1.320 -0.1028  1.1346  0.6445
  459MOL0     H63330   6.047   6.223   1.144 -2.9621 -0.5501  0.0768
  459MOL0     H63331   6.160   6.271   1.277  0.4653 -2.2733 -0.8965
  459MOL0     H63332   6.052   6.046   1.269 -1.8108 -0.4033 -2.1628
  459MOL0     H63333   5.898   6.106   1.314 -1.5508  1.9077  3.2066
  459MOL0     H63334   6.099   6.027   1.497 -1.7453 -1.6816 -0.6621
  459MOL0     H63335   6.143   6.189   1.488 -0.3116 -0.6356  2.5471
  459MOL0     H63336   5.854   6.121   1.555 -1.6833  1.1153  0.1486
  459MOL0     H63337   5.940   6.274   1.572 -0.8792 -0.5247  2.5574
  459MOL0     H63338   6.032   6.046   1.926 -0.2988 -0.6240 -0.7770
  459MOL0     H63339   6.062   6.390   1.016 -0.5937 -0.1641 -1.3944
  459MOL0     H63340   6.056   6.586   0.769  0.0688 -1.2993 -0.3204
  459MOL0     H63341   5.997   6.422   0.793 -2.6844  0.2721 -0.7225
  459MOL0     H63342   5.885   6.546   0.744 -1.6903 -1.6046  0.4133
  460MOL0     O63343  10.888   7.616   7.668 -0.4337  0.0863  0.1526
  460MOL0     C63344  10.999   7.568   7.641 -0.1077 -1.6041  0.5848
  460MOL0     O63345  11.055   7.564   7.510 -0.1498 -0.5291  0.7880
  460MOL0     C63346  10.994   7.647   7.421 -0.7205  0.9329 -0.6574
  460MOL0     C63347  10.983   7.784   7.438 -0.1192  1.0878 -0.5797
  460MOL0     C63348  10.924   7.865   7.339  0.2723 -0.5576 -0.0776
  460MOL0     C63349  10.869   7.810   7.225 -0.6077 -0.0070 -0.2356
  460MOL0     O63350  10.845   7.893   7.128  0.7737  0.1012 -0.1661
  460MOL0     C63351  10.791   7.850   7.002  0.4134 -0.6408 -0.7103
  460MOL0     C63352  10.647   7.805   7.014 -0.5069 -0.3798  0.0747
  460MOL0     C63353  10.560   7.900   7.095  0.0748  0.1383  0.1648
  460MOL0     C63354  10.411   7.847   7.093  0.1976 -0.3647  0.1544
  460MOL0     C63355  10.321   7.863   6.966  0.6342 -0.2676  0.5708
  460MOL0     C63356  10.186   7.801   6.986 -0.7741  0.3535  0.9048
  460MOL0     C63357  10.072   7.895   7.036  0.2699 -0.3674 -0.2827
  460MOL0     C63358   9.967   7.800   7.077 -0.0196  0.5802  0.1598
  460MOL0     N63359   9.847   7.864   7.149 -0.1945 -0.3256  0.1860
  460MOL0     C63360   9.749   7.800   7.213  0.2070  0.6744  0.2184
  460MOL0     C63361   9.642   7.883   7.226  0.3819 -1.1872  0.9630
  460MOL0     C63362   9.509   7.853   7.289  0.3413 -0.5958  1.4664
  460MOL0     C63363   9.447   7.991   7.319  0.3963  0.0243 -0.9950
  460MOL0     C63364   9.312   7.993   7.393  0.2332 -0.2516 -0.0972
  460MOL0     C63365   9.261   8.141   7.396 -0.4525 -0.5091  0.1687
  460MOL0     O63366   9.130   8.132   7.447  0.6535  0.6281  0.0870
  460MOL0     C63367   9.061   8.242   7.478  0.0262 -0.8512  1.2433
  460MOL0     C63368   8.929   8.224   7.510 -0.4722  0.6360  0.3346
  460MOL0     C63369   8.855   8.340   7.531 -0.0513 -0.6577  0.0490
  460MOL0     C63370   8.716   8.304   7.584 -0.3848  0.2939  0.0234
  460MOL0     C63371   8.912   8.469   7.532  0.4340 -0.1000  0.5828
  460MOL0     C63372   8.827   8.579   7.562  0.0414 -0.3778  0.1716
  460MOL0     O63373   8.700   8.577   7.526 -0.1127 -0.5787  0.4058
  460MOL0     C63374   8.616   8.687   7.513  0.0627  0.3176 -0.1793
  460MOL0     C63375   8.482   8.654   7.514  1.1236  0.7663 -0.0467
  460MOL0     C63376   8.380   8.750   7.496 -0.5908 -0.0438 -0.2349
  460MOL0     C63377   8.418   8.886   7.499 -0.1902 -0.1033  0.4855
  460MOL0     O63378   8.314   8.976   7.493  0.7957  0.2966  0.1784
  460MOL0     C63379   8.344   9.114   7.500 -0.6417  0.4078 -0.1853
  460MOL0     C63380   8.205   9.192   7.510  0.4361  0.6537 -0.1734
  460MOL0     C63381   8.156   9.201   7.652  0.4999  0.0301 -0.1061
  460MOL0     C63382   8.026   9.279   7.660 -0.4470  0.7631  0.1733
  460MOL0     C63383   7.958   9.246   7.788  0.0002 -1.1268 -0.3534
  460MOL0     C63384   7.833   9.345   7.801  0.4820  0.4788  0.4118
  460MOL0     C63385   7.752   9.287   7.924  0.4087  0.0405  0.0505
  460MOL0     C63386   7.628   9.373   7.941  0.1667 -1.0536  0.2845
  460MOL0    Cl63387   7.654   9.553   7.956  0.5993 -0.3825 -0.7092
  460MOL0     C63388   8.559   8.922   7.496  0.7210 -0.4460  0.7745
  460MOL0     C63389   8.651   8.821   7.502 -0.4199 -0.1955  0.5062
  460MOL0     O63390   8.893   8.677   7.608  1.0228 -0.3027 -0.3919
  460MOL0     C63391   9.048   8.487   7.514  0.3934  0.3408 -0.0630
  460MOL0     C63392   9.113   8.382   7.469 -1.0813  0.8103 -0.7602
  460MOL0     N63393   9.673   7.994   7.157 -0.0394 -0.4538  0.0660
  460MOL0     N63394   9.790   7.976   7.103  0.9739 -0.9040 -0.6455
  460MOL0     C63395  10.879   7.663   7.206 -1.1110  0.2865  0.0508
  460MOL0     C63396  10.944   7.586   7.307  0.0356 -0.3269  1.0430
  460MOL0     C63397  11.068   7.525   7.762 -0.5750 -0.1312  0.4524
  460MOL0     C63398  10.989   7.460   7.858  0.3060  0.5692 -1.0362
  460MOL0     C63399  11.037   7.405   7.973 -0.0443 -0.3870 -0.3204
  460MOL0     C63400  11.170   7.418   8.003 -0.0427  0.3670  0.1105
  460MOL0     O63401  11.233   7.383   8.123  0.1937 -0.3591  0.3606
  460MOL0     C63402  11.170   7.298   8.220  1.2484  1.0237  0.0125
  460MOL0     C63403  11.253   7.260   8.344  0.5631 -0.4881 -0.2277
  460MOL0     C63404  11.208   7.144   8.430 -0.2148 -1.2812 -0.4286
  460MOL0     C63405  11.099   7.190   8.534 -0.5361 -0.6742  0.8580
  460MOL0     C63406  11.039   7.073   8.596 -0.8289 -0.0075  0.1529
  460MOL0     C63407  10.983   6.993   8.668 -0.0214  0.4689 -0.3018
  460MOL0     C63408  11.250   7.493   7.915  0.0338 -0.2595 -0.6919
  460MOL0     C63409  11.205   7.547   7.793  0.0224  0.5563  0.2536
  460MOL0     C63410  11.300   7.607   7.697 -0.2124 -0.4718  0.0673
  460MOL0     H63411  11.035   7.825   7.524 -0.9479  1.3301 -0.1829
  460MOL0     H63412  10.916   7.972   7.358  0.4348 -0.3527 -1.0834
  460MOL0     H63413  10.848   7.776   6.943  0.8055  3.0136 -5.5799
  460MOL0     H63414  10.793   7.948   6.953 -0.6790  0.3028  1.0743
  460MOL0     H63415  10.597   7.805   6.917  1.6181  0.2681 -1.0825
  460MOL0     H63416  10.648   7.706   7.059  2.1190 -1.1476 -1.4521
  460MOL0     H63417  10.586   7.898   7.201  1.0433 -1.1092 -0.0691
  460MOL0     H63418  10.561   8.001   7.053  2.1749 -0.4939 -1.4311
  460MOL0     H63419  10.402   7.740   7.118  0.6322  0.0623  2.2963
  460MOL0     H63420  10.362   7.901   7.175 -0.1653  2.2362 -1.6648
  460MOL0     H63421  10.382   7.823   6.885  2.0193  1.3786  0.7430
  460MOL0     H63422  10.304   7.969   6.943 -1.0935 -0.5027  0.6298
  460MOL0     H63423  10.145   7.772   6.889 -2.4972 -1.4372  2.0979
  460MOL0     H63424  10.200   7.710   7.044  0.1142  0.0283  0.2142
  460MOL0     H63425  10.037   7.952   6.950  0.1616  0.7609  0.4829
  460MOL0     H63426  10.101   7.957   7.121  0.9365  0.8503 -1.3802
  460MOL0     H63427   9.932   7.744   6.990  0.6633  0.3284  0.0422
  460MOL0     H63428   9.995   7.732   7.159 -0.6124  0.7024  0.4727
  460MOL0     H63429   9.754   7.694   7.237 -0.3600  0.0026 -2.3052
  460MOL0     H63430   9.520   7.799   7.383 -2.6178 -2.7299  0.7273
  460MOL0     H63431   9.443   7.801   7.219 -0.4647  1.7515  0.3827
  460MOL0     H63432   9.522   8.039   7.383  0.4845 -2.0102  0.5519
  460MOL0     H63433   9.427   8.043   7.225  0.9004 -3.5166 -3.2602
  460MOL0     H63434   9.246   7.925   7.338 -0.4516 -1.6794  2.3287
  460MOL0     H63435   9.306   7.962   7.497  1.8744  0.0553  0.1082
  460MOL0     H63436   9.322   8.191   7.472 -0.9373 -0.4538  0.5202
  460MOL0     H63437   9.270   8.177   7.293 -1.8586 -3.4580 -1.0897
  460MOL0     H63438   8.888   8.123   7.513 -0.3706  0.5240 -1.2315
  460MOL0     H63439   8.647   8.308   7.499  0.5103 -0.9456 -0.7954
  460MOL0     H63440   8.690   8.377   7.661 -2.0891 -0.3380  0.0717
  460MOL0     H63441   8.707   8.208   7.635 -1.6421 -0.6249 -1.8206
  460MOL0     H63442   8.456   8.550   7.530  1.4911  0.5434 -0.8363
  460MOL0     H63443   8.276   8.725   7.480 -0.2976 -0.0269 -2.4627
  460MOL0     H63444   8.406   9.139   7.587 -0.0704  0.2916 -0.5536
  460MOL0     H63445   8.401   9.143   7.411 -4.1040 -1.7063 -3.3664
  460MOL0     H63446   8.232   9.291   7.472  0.7429  0.4573 -0.4766
  460MOL0     H63447   8.131   9.137   7.452  1.4371 -0.5227 -0.3840
  460MOL0     H63448   8.229   9.255   7.712  0.5584 -1.1861  0.9656
  460MOL0     H63449   8.145   9.109   7.710 -1.2677  1.5740  2.2135
  460MOL0     H63450   7.968   9.264   7.568 -0.9566  1.1452  0.4208
  460MOL0     H63451   8.034   9.388   7.653 -1.4541  0.7694 -1.9258
  460MOL0     H63452   7.932   9.140   7.799 -2.1559 -0.6011  0.0560
  460MOL0     H63453   8.032   9.268   7.866 -2.7118 -1.1611  2.4269
  460MOL0     H63454   7.777   9.345   7.708  3.7220 -0.1723 -1.7201
  460MOL0     H63455   7.870   9.445   7.827  0.0523  1.0819 -1.2376
  460MOL0     H63456   7.799   9.306   8.021 -0.2577 -0.4963  0.4914
  460MOL0     H63457   7.742   9.178   7.928  1.7529 -0.2651 -2.6336
  460MOL0     H63458   7.573   9.337   8.028  3.5140 -2.1341  2.1091
  460MOL0     H63459   7.561   9.353   7.856 -3.8778 -0.9719  3.1889
  460MOL0     H63460   8.577   9.029   7.482 -0.4595 -0.0957  1.7758
  460MOL0     H63461   8.755   8.852   7.491 -0.5705  1.1079  2.3159
  460MOL0     H63462   9.097   8.583   7.503  2.1839 -0.4393  0.7106
  460MOL0     H63463   9.215   8.390   7.433 -1.5643  0.7351 -2.2168
  460MOL0     H63464  10.837   7.621   7.115 -0.9064 -1.4137  0.7121
  460MOL0     H63465  10.945   7.478   7.295  1.5841 -0.3971  1.5927
  460MOL0     H63466  10.883   7.450   7.839 -0.3593 -1.4006  2.6288
  460MOL0     H63467  10.984   7.349   8.050 -0.9218 -1.8099 -1.8972
  460MOL0     H63468  11.069   7.329   8.246  0.7373 -2.1593  2.4356
  460MOL0     H63469  11.146   7.201   8.177 -0.9565  0.8225  1.5260
  460MOL0     H63470  11.257   7.348   8.409 -0.0792  0.2252 -1.1142
  460MOL0     H63471  11.357   7.250   8.312 -0.0911 -0.0933 -2.6513
  460MOL0     H63472  11.182   7.061   8.364 -0.9259 -1.9618  0.6720
  460MOL0     H63473  11.285   7.094   8.490 -0.1787 -1.5934 -0.7295
  460MOL0     H63474  11.027   7.259   8.489  1.6644  1.0947 -0.1230
  460MOL0     H63475  11.160   7.240   8.610  0.7638  0.8453 -1.0860
  460MOL0     H63476  10.929   6.919   8.725 -0.4323  2.3194  1.8435
  460MOL0     H63477  11.357   7.497   7.935  0.7630  1.4409 -4.2033
  460MOL0     H63478  11.406   7.589   7.717  0.0387  1.1646  0.3285
  460MOL0     H63479  11.286   7.583   7.591 -0.8542  0.0917  0.0169
  460MOL0     H63480  11.271   7.712   7.697 -0.7478 -0.6079  0.8830
  461MOL0     O63481  11.329   8.729   4.203 -0.1806 -0.2834  0.1541
  461MOL0     C63482  11.211   8.733   4.227 -0.1274 -0.1127  0.7668
  461MOL0     O63483  11.113   8.726   4.129  0.3342  0.6510  0.2179
  461MOL0     C63484  11.142   8.713   3.993  0.3431  0.7406  0.6000
  461MOL0     C63485  11.138   8.590   3.942  0.8193 -0.7176  0.1434
  461MOL0     C63486  11.157   8.561   3.807 -0.9973  0.4505  0.4078
  461MOL0     C63487  11.219   8.665   3.731 -0.1444 -0.5318  0.1859
  461MOL0     O63488  11.262   8.639   3.610  0.2170 -0.0730  0.8380
  461MOL0     C63489  11.189   8.707   3.499  0.0068 -0.1833  0.0390
  461MOL0     C63490  11.114   8.610   3.430 -0.9984  0.1721  0.5978
  461MOL0     C63491  11.037   8.670   3.311  0.0494 -1.2450  0.4222
  461MOL0     C63492  10.932   8.564   3.271 -0.0802  0.2154 -0.3341
  461MOL0     C63493  10.840   8.610   3.155 -0.3282  0.0021  0.7362
  461MOL0     C63494  10.911   8.588   3.021 -1.0098 -0.6815  0.2551
  461MOL0     C63495  10.828   8.660   2.912 -1.9288  0.2273 -0.0124
  461MOL0     C63496  10.888   8.633   2.772 -0.0789  0.2654 -0.6910
  461MOL0     N63497  11.010   8.706   2.739 -0.2554  0.3052  0.2266
  461MOL0     C63498  11.115   8.758   2.809 -0.1108 -0.8268  0.2689
  461MOL0     C63499  11.214   8.795   2.716 -0.4129 -0.4957 -0.4392
  461MOL0     C63500  11.363   8.829   2.750 -0.3292  0.7675  0.0839
  461MOL0     C63501  11.380   8.949   2.840 -0.0995 -0.5842  0.0256
  461MOL0     C63502  11.512   8.946   2.910  0.4315 -0.4049  0.5546
  461MOL0     C63503  11.521   9.063   3.007  0.8957 -0.0271  0.2948
  461MOL0     O63504  11.532   9.181   2.937  0.2567 -0.3120 -0.1688
  461MOL0     C63505  11.646   9.219   2.886 -0.4631  0.3119 -1.0711
  461MOL0     C63506  11.633   9.327   2.797  0.6904  0.2812 -0.5848
  461MOL0     C63507  11.745   9.383   2.739 -0.8267  0.4063 -0.1203
  461MOL0     C63508  11.723   9.505   2.648  0.9809 -0.1802  0.4179
  461MOL0     C63509  11.875   9.349   2.788  0.1713  0.6481 -0.5664
  461MOL0     C63510  11.995   9.423   2.749  0.2723  0.7963  0.0442
  461MOL0     O63511  12.091   9.346   2.699  0.1849  0.4967  0.0322
  461MOL0     C63512  12.216   9.389   2.656 -0.2749  0.4683 -0.1206
  461MOL0     C63513  12.290   9.502   2.705 -0.0212  0.1030 -0.4871
  461MOL0     C63514  12.420   9.523   2.662 -0.0139  0.7929  0.5729
  461MOL0     C63515  12.479   9.438   2.560 -0.0805 -0.0383  1.2171
  461MOL0     O63516  12.602   9.478   2.510 -0.1906 -0.4399 -0.0885
  461MOL0     C63517  12.622   9.431   2.376  0.0161  0.6538 -0.6717
  461MOL0     C63518  12.708   9.544   2.316 -0.5845  0.7471  0.3086
  461MOL0     C63519  12.840   9.568   2.397 -0.0072 -1.7899 -0.6966
  461MOL0     C63520  12.906   9.689   2.335 -0.0838 -0.2900 -0.4778
  461MOL0     C63521  13.046   9.723   2.378 -0.3793 -0.2733 -0.7959
  461MOL0     C63522  13.088   9.860   2.329 -0.3851 -0.5356 -0.2660
  461MOL0     C63523  13.059   9.981   2.424 -0.5732 -0.7150  0.4893
  461MOL0     C63524  13.051  10.113   2.339 -0.3116 -0.5604  0.5022
  461MOL0    Cl63525  13.210  10.143   2.276  0.3045 -0.0742 -0.0703
  461MOL0     C63526  12.400   9.329   2.507 -0.3204  0.7142 -0.3967
  461MOL0     C63527  12.269   9.302   2.564 -0.0739 -0.0609 -1.0998
  461MOL0     O63528  11.988   9.548   2.749 -0.2210  0.2205 -0.0168
  461MOL0     C63529  11.882   9.247   2.883 -0.2073 -0.0923 -0.1331
  461MOL0     C63530  11.772   9.177   2.931 -0.2017 -0.5485 -0.0618
  461MOL0     N63531  11.166   8.779   2.586 -0.7434  0.0549 -0.3290
  461MOL0     N63532  11.043   8.737   2.605  0.2088  0.2159  0.4759
  461MOL0     C63533  11.230   8.803   3.784 -0.5070 -0.3077  0.4607
  461MOL0     C63534  11.184   8.825   3.914 -0.2772 -0.4672  0.3831
  461MOL0     C63535  11.169   8.742   4.365  0.4387  0.1794  0.2134
  461MOL0     C63536  11.067   8.835   4.392  0.1637 -0.2880 -0.5498
  461MOL0     C63537  11.006   8.830   4.517 -0.2070  0.2522  0.2015
  461MOL0     C63538  11.043   8.748   4.629 -0.5530 -0.5736  0.9392
  461MOL0     O63539  10.989   8.756   4.755 -0.3145 -0.5936 -0.6614
  461MOL0     C63540  11.040   8.662   4.859  0.5835 -0.1744  0.1609
  461MOL0     C63541  10.944   8.684   4.976 -0.1696  0.0462 -0.3518
  461MOL0     C63542  10.811   8.616   4.943  0.5280 -1.2548  0.8407
  461MOL0     C63543  10.715   8.615   5.060  0.1859  0.2337  0.5704
  461MOL0     C63544  10.766   8.556   5.180  0.3186 -0.5770 -1.0779
  461MOL0     C63545  10.820   8.502   5.276 -0.1041  0.6615 -0.5829
  461MOL0     C63546  11.151   8.658   4.593 -0.0906 -0.1321 -0.1454
  461MOL0     C63547  11.213   8.658   4.467  0.2365  0.4243 -0.1282
  461MOL0     C63548  11.326   8.566   4.451 -0.0409 -0.2362 -0.0545
  461MOL0     H63549  11.111   8.513   4.015  0.0681  2.0812  3.0343
  461MOL0     H63550  11.152   8.462   3.762 -1.7983  0.5420  0.2796
  461MOL0     H63551  11.251   8.768   3.433 -0.4086  1.1897  0.8946
  461MOL0     H63552  11.121   8.787   3.529 -0.1508  0.3960 -1.7774
  461MOL0     H63553  11.184   8.540   3.382 -1.2093  1.4262 -1.7141
  461MOL0     H63554  11.042   8.559   3.495  0.9262 -0.4288  2.3802
  461MOL0     H63555  11.002   8.770   3.335 -0.9749 -1.4838 -0.0125
  461MOL0     H63556  11.100   8.677   3.222  0.9020  2.9488  1.1761
  461MOL0     H63557  10.978   8.466   3.253  0.7457  0.9853 -2.7218
  461MOL0     H63558  10.871   8.553   3.361 -0.2030 -0.4126 -0.4907
  461MOL0     H63559  10.826   8.718   3.168  2.0533  0.3737  0.6918
  461MOL0     H63560  10.746   8.555   3.166 -0.3621  0.1938  1.4668
  461MOL0     H63561  11.014   8.617   3.038 -0.8543  0.4341 -2.1107
  461MOL0     H63562  10.918   8.482   2.992 -0.6976  0.2742 -3.7540
  461MOL0     H63563  10.837   8.764   2.945  0.7425 -0.2016  0.8234
  461MOL0     H63564  10.724   8.633   2.930 -2.1410  2.1731  2.1867
  461MOL0     H63565  10.918   8.528   2.759  2.2031  0.7927 -0.0848
  461MOL0     H63566  10.811   8.651   2.697  0.2609 -0.3699 -1.1996
  461MOL0     H63567  11.143   8.752   2.914  0.0125  0.3547  0.3183
  461MOL0     H63568  11.419   8.841   2.656 -0.8943 -1.8307 -0.6742
  461MOL0     H63569  11.393   8.739   2.804 -2.7339  1.1641  2.2902
  461MOL0     H63570  11.376   9.039   2.779 -0.2812 -1.3795 -1.1820
  461MOL0     H63571  11.297   8.963   2.909 -0.4782 -1.9185 -0.1248
  461MOL0     H63572  11.529   8.854   2.967 -0.3349 -0.7785  0.1911
  461MOL0     H63573  11.589   8.965   2.835  0.5734  0.8888  1.0073
  461MOL0     H63574  11.424   9.061   3.057  0.4082  0.6198 -0.5793
  461MOL0     H63575  11.605   9.032   3.069 -0.5322 -2.9353  0.9484
  461MOL0     H63576  11.529   9.360   2.795  0.5339  0.0927  1.7110
  461MOL0     H63577  11.725   9.595   2.711 -2.1765 -2.4428  4.2486
  461MOL0     H63578  11.624   9.498   2.602  0.5488  1.3484  1.0739
  461MOL0     H63579  11.797   9.505   2.568  0.6085 -0.0349  0.0740
  461MOL0     H63580  12.244   9.572   2.773  1.4631  0.5727  0.0752
  461MOL0     H63581  12.475   9.601   2.714  2.9306 -1.1749  0.6903
  461MOL0     H63582  12.685   9.342   2.380  2.0367  2.0544  0.5588
  461MOL0     H63583  12.540   9.416   2.306 -0.1937 -1.8952  0.0141
  461MOL0     H63584  12.724   9.522   2.211 -0.8396  3.0408 -0.2695
  461MOL0     H63585  12.658   9.639   2.295 -0.8334  0.2181 -1.5963
  461MOL0     H63586  12.904   9.479   2.393  2.1302 -0.3447 -4.5070
  461MOL0     H63587  12.822   9.597   2.501  0.1842 -0.3042 -1.0514
  461MOL0     H63588  12.843   9.772   2.368  2.1871  0.6143  1.9067
  461MOL0     H63589  12.912   9.680   2.226  1.6545  0.0841 -0.4317
  461MOL0     H63590  13.075   9.722   2.484  2.1804 -2.6114 -1.3973
  461MOL0     H63591  13.118   9.647   2.345  2.9086  1.9972  0.5836
  461MOL0     H63592  13.059   9.883   2.226  0.7585  1.8519 -0.1304
  461MOL0     H63593  13.196   9.851   2.308  0.3898  4.7061  0.1503
  461MOL0     H63594  13.120   9.980   2.515 -0.0612  0.0606  0.1642
  461MOL0     H63595  12.954   9.985   2.455 -1.5019  0.9089 -2.5059
  461MOL0     H63596  13.025  10.195   2.407  1.7936  0.5799 -0.0022
  461MOL0     H63597  12.988  10.101   2.250  1.8991 -1.6024 -1.0195
  461MOL0     H63598  12.424   9.268   2.420 -0.7064 -1.6228  1.0592
  461MOL0     H63599  12.205   9.216   2.548  2.0398 -2.3948  1.8084
  461MOL0     H63600  11.983   9.218   2.913 -1.3772 -2.7749  1.5846
  461MOL0     H63601  11.788   9.099   3.005 -0.2471  0.1506  0.6992
  461MOL0     H63602  11.262   8.890   3.728 -2.0857  0.4877  0.7416
  461MOL0     H63603  11.179   8.925   3.957  3.2256  0.0814 -0.1738
  461MOL0     H63604  11.037   8.907   4.317  0.0092 -1.7654 -1.9841
  461MOL0     H63605  10.924   8.900   4.527  0.3727  1.3511 -2.1983
  461MOL0     H63606  11.048   8.557   4.827 -2.0375 -0.3157 -0.2656
  461MOL0     H63607  11.140   8.696   4.886  1.4962 -0.7602 -2.2326
  461MOL0     H63608  10.927   8.789   5.003 -1.1458  0.0250 -0.8763
  461MOL0     H63609  10.997   8.639   5.061  3.4390  2.0893 -1.2687
  461MOL0     H63610  10.768   8.679   4.865  0.3938  0.1758  2.0181
  461MOL0     H63611  10.815   8.516   4.899  1.8972 -0.3134 -1.3767
  461MOL0     H63612  10.623   8.561   5.037 -0.3475  1.9202 -1.6516
  461MOL0     H63613  10.678   8.718   5.069  0.7959  0.6815 -1.4567
  461MOL0     H63614  10.874   8.449   5.352 -2.4699 -1.6086 -0.3546
  461MOL0     H63615  11.183   8.583   4.665 -1.4288  0.3590  1.0176
  461MOL0     H63616  11.321   8.477   4.514  0.8279 -0.3572 -0.1427
  461MOL0     H63617  11.331   8.537   4.345 -0.5755  0.8668 -0.3953
  461MOL0     H63618  11.422   8.604   4.486  1.9297 -4.9925  0.4428
  462MOL0     O63619   9.196   3.940   7.603  0.1765 -0.9634 -0.0907
  462MOL0     C63620   9.115   3.859   7.558 -0.5825  0.1864 -0.5460
  462MOL0     O63621   9.112   3.827   7.427 -0.9874  0.0160 -0.6138
  462MOL0     C63622   9.192   3.889   7.333  0.2063 -0.1543 -1.2469
  462MOL0     C63623   9.325   3.859   7.330 -0.7064 -0.0316 -0.6169
  462MOL0     C63624   9.403   3.912   7.224 -0.1075  0.5789  0.2707
  462MOL0     C63625   9.346   3.987   7.124 -0.1747  0.0105  0.4457
  462MOL0     O63626   9.422   4.027   7.021 -0.4932  0.8587 -0.5197
  462MOL0     C63627   9.445   3.912   6.938 -0.7533 -0.2457 -0.5430
  462MOL0     C63628   9.554   3.936   6.839  0.3540 -0.1701 -0.5830
  462MOL0     C63629   9.684   3.998   6.913 -0.8952 -0.3640 -0.3138
  462MOL0     C63630   9.799   4.014   6.818 -1.2079  0.0993 -0.4101
  462MOL0     C63631   9.805   4.135   6.723  0.8403 -0.7397  0.2099
  462MOL0     C63632   9.900   4.126   6.600 -0.5357 -0.1230 -0.6774
  462MOL0     C63633   9.856   4.219   6.489 -1.0450 -0.1701 -0.4771
  462MOL0     C63634   9.938   4.189   6.368  0.3541 -0.0452 -0.1916
  462MOL0     N63635  10.078   4.241   6.369 -0.3237 -0.2159 -0.2291
  462MOL0     C63636  10.124   4.362   6.315  1.0163 -0.3206  0.2261
  462MOL0     C63637  10.258   4.366   6.345 -0.8993  1.2577 -0.2832
  462MOL0     C63638  10.362   4.465   6.293  0.1166  0.1968 -1.4588
  462MOL0     C63639  10.329   4.503   6.154  0.5563 -0.3029  0.0178
  462MOL0     C63640  10.337   4.385   6.059 -0.3005 -0.5877 -0.1451
  462MOL0     C63641  10.477   4.322   6.043  0.9962  0.0603 -0.1247
  462MOL0     O63642  10.463   4.235   5.930 -0.8604 -0.5178 -0.1558
  462MOL0     C63643  10.549   4.258   5.823  0.4780  0.4747  0.3567
  462MOL0     C63644  10.638   4.364   5.792 -0.0732  0.1701 -1.2158
  462MOL0     C63645  10.726   4.359   5.685 -0.3112  0.3520 -0.2831
  462MOL0     C63646  10.818   4.478   5.679 -0.0291  0.3160 -0.0795
  462MOL0     C63647  10.735   4.241   5.605 -0.0852 -0.1990 -0.2739
  462MOL0     C63648  10.833   4.216   5.497 -0.6794  0.5686  0.0262
  462MOL0     O63649  10.821   4.099   5.425 -0.1378  0.8751  0.3281
  462MOL0     C63650  10.928   4.044   5.351 -0.5600  0.0142 -0.3965
  462MOL0     C63651  10.900   3.931   5.270  0.8039 -0.2854 -0.2996
  462MOL0     C63652  11.003   3.847   5.228 -0.6818 -0.4760 -0.0245
  462MOL0     C63653  11.141   3.876   5.257  0.6778  1.3109  0.8442
  462MOL0     O63654  11.229   3.781   5.210  0.1540 -0.0648  0.3581
  462MOL0     C63655  11.333   3.734   5.295  0.1662 -1.1172  0.7195
  462MOL0     C63656  11.329   3.586   5.324  0.6309  0.6230  0.6273
  462MOL0     C63657  11.390   3.543   5.457 -0.9361  0.4286 -0.5145
  462MOL0     C63658  11.536   3.586   5.472  0.4742  0.8777 -0.3395
  462MOL0     C63659  11.591   3.570   5.617 -0.9341  0.3408 -0.1374
  462MOL0     C63660  11.746   3.591   5.609 -0.0490  0.2137  0.9489
  462MOL0     C63661  11.816   3.615   5.748 -1.0411  0.6417  0.8366
  462MOL0     C63662  11.836   3.760   5.780  0.4918 -0.8132 -0.1570
  462MOL0    Cl63663  11.684   3.859   5.774  0.1201  0.3132 -0.4901
  462MOL0     C63664  11.168   3.994   5.328  0.1084  0.5529  1.0342
  462MOL0     C63665  11.065   4.070   5.382  0.3288 -0.1024  0.9520
  462MOL0     O63666  10.898   4.311   5.457  0.3210 -0.0116  0.9163
  462MOL0     C63667  10.651   4.138   5.638  0.1673  0.4231 -0.5605
  462MOL0     C63668  10.560   4.146   5.743  0.4139  0.3091 -0.1239
  462MOL0     N63669  10.286   4.249   6.423 -0.6037  0.3984  0.6241
  462MOL0     N63670  10.179   4.174   6.431  0.1577 -0.5699 -0.5753
  462MOL0     C63671   9.208   4.012   7.122  0.0650  0.4192 -0.4655
  462MOL0     C63672   9.127   3.970   7.234  0.5309  0.4181  0.8464
  462MOL0     C63673   9.037   3.779   7.664  0.1606  0.5453  0.2461
  462MOL0     C63674   9.062   3.785   7.799 -0.6987  0.5380 -0.5675
  462MOL0     C63675   8.998   3.701   7.894 -0.2338 -0.2008  1.4657
  462MOL0     C63676   8.903   3.614   7.855  0.8528 -0.2663  0.5612
  462MOL0     O63677   8.848   3.546   7.958 -0.7147  0.1265  0.4553
  462MOL0     C63678   8.808   3.411   7.932  0.3468 -0.2564  0.3533
  462MOL0     C63679   8.935   3.329   7.907  0.0669  0.0651  0.2494
  462MOL0     C63680   8.899   3.187   7.833  0.1403  0.1287  0.5729
  462MOL0     C63681   9.040   3.118   7.808 -0.1280 -0.0795 -0.5323
  462MOL0     C63682   9.021   2.986   7.759 -0.2594  0.3747 -0.3439
  462MOL0     C63683   9.002   2.872   7.715 -0.1170 -0.0238  0.6298
  462MOL0     C63684   8.855   3.626   7.724 -1.4338  0.6729  0.5747
  462MOL0     C63685   8.921   3.704   7.630  0.5390 -0.8051  0.8127
  462MOL0     C63686   8.855   3.709   7.499 -0.4595 -0.7278 -0.1665
  462MOL0     H63687   9.372   3.801   7.409 -2.9598  0.6491  1.3217
  462MOL0     H63688   9.507   3.885   7.214 -0.7867 -1.5510 -2.4469
  462MOL0     H63689   9.351   3.883   6.890  0.0727 -0.7989 -1.8591
  462MOL0     H63690   9.471   3.825   6.998  0.4256  0.5135  0.0825
  462MOL0     H63691   9.592   3.841   6.802  2.1101  0.4583 -0.5164
  462MOL0     H63692   9.520   4.000   6.756 -0.6638  1.2155  0.8553
  462MOL0     H63693   9.662   4.097   6.954 -2.6262 -1.3959  1.4540
  462MOL0     H63694   9.714   3.936   6.998 -1.4160  0.2957  0.3590
  462MOL0     H63695   9.892   4.021   6.876 -1.4949 -0.3254  0.1163
  462MOL0     H63696   9.817   3.924   6.759 -0.9499  1.8743 -3.1809
  462MOL0     H63697   9.821   4.228   6.779 -0.6101 -0.4514  0.1935
  462MOL0     H63698   9.702   4.141   6.688  0.3800 -0.2949  1.5850
  462MOL0     H63699  10.001   4.151   6.631 -0.6674 -1.2105  0.7527
  462MOL0     H63700   9.906   4.025   6.558 -0.2038 -0.2266 -0.3790
  462MOL0     H63701   9.875   4.324   6.515  0.2740  0.9731 -5.1581
  462MOL0     H63702   9.747   4.212   6.477 -1.0995 -1.1424  0.5051
  462MOL0     H63703   9.934   4.081   6.346  0.0360 -0.4214  1.5868
  462MOL0     H63704   9.888   4.236   6.282 -0.5680  5.8654  3.0542
  462MOL0     H63705  10.065   4.438   6.264  1.1367 -0.6795 -0.4550
  462MOL0     H63706  10.455   4.414   6.319 -1.7579 -1.4239  3.1618
  462MOL0     H63707  10.358   4.558   6.351  2.1259 -1.1346  1.0454
  462MOL0     H63708  10.243   4.570   6.146  0.7223 -0.1822 -0.9485
  462MOL0     H63709  10.409   4.571   6.122  1.2501 -1.1540 -0.0828
  462MOL0     H63710  10.273   4.302   6.090 -0.7169  0.5173  2.1738
  462MOL0     H63711  10.300   4.418   5.962 -1.0337 -1.0163 -0.0200
  462MOL0     H63712  10.559   4.395   6.039 -0.2981  1.5006 -1.4033
  462MOL0     H63713  10.495   4.249   6.122 -0.0282 -0.9219 -0.7750
  462MOL0     H63714  10.657   4.453   5.850  2.2214 -0.9809 -0.0765
  462MOL0     H63715  10.823   4.537   5.771 -3.4803 -0.0434  0.4514
  462MOL0     H63716  10.781   4.545   5.601  2.3811 -0.1667 -1.7730
  462MOL0     H63717  10.922   4.451   5.656 -0.0488 -0.1357  0.3303
  462MOL0     H63718  10.796   3.914   5.242  0.4724 -3.3644  2.2646
  462MOL0     H63719  10.977   3.756   5.176 -0.1053 -2.8768  3.4797
  462MOL0     H63720  11.425   3.764   5.244 -0.9959 -1.1945 -1.5879
  462MOL0     H63721  11.332   3.793   5.387  2.6376  1.1803 -0.5692
  462MOL0     H63722  11.225   3.559   5.346  0.5506  0.0734 -0.3640
  462MOL0     H63723  11.356   3.518   5.243 -0.3408 -2.6756  2.8449
  462MOL0     H63724  11.382   3.434   5.471  1.2758  0.5543  3.0812
  462MOL0     H63725  11.336   3.584   5.544  2.0283 -0.9472  2.1942
  462MOL0     H63726  11.552   3.687   5.434  2.0109  0.8269  0.0758
  462MOL0     H63727  11.595   3.525   5.402  2.9186  0.7008  1.7083
  462MOL0     H63728  11.547   3.650   5.678  1.8096  0.8506  1.3281
  462MOL0     H63729  11.578   3.472   5.663  3.8420 -0.5077 -0.1540
  462MOL0     H63730  11.765   3.681   5.549 -1.1064  0.4994  1.0190
  462MOL0     H63731  11.789   3.499   5.570  1.6819  1.6980 -0.8577
  462MOL0     H63732  11.910   3.559   5.750  0.5228  2.7752 -2.4669
  462MOL0     H63733  11.745   3.565   5.814  1.0478  0.1589  2.8501
  462MOL0     H63734  11.899   3.800   5.700  1.1707  1.9965  1.6120
  462MOL0     H63735  11.898   3.762   5.870 -0.5426  0.0584  0.5624
  462MOL0     H63736  11.273   4.018   5.339  0.1864  1.7692 -1.6478
  462MOL0     H63737  11.086   4.165   5.432  4.1141  0.1474 -0.7809
  462MOL0     H63738  10.640   4.041   5.590  0.2006 -0.7455  1.6572
  462MOL0     H63739  10.497   4.058   5.758  0.1144  0.7027  1.0966
  462MOL0     H63740   9.164   4.052   7.031 -0.0427 -0.4864 -0.8199
  462MOL0     H63741   9.020   3.987   7.243 -0.0293 -1.2135 -1.7661
  462MOL0     H63742   9.136   3.850   7.842 -1.2120 -0.0733  1.3259
  462MOL0     H63743   9.005   3.679   8.000 -1.8179 -7.1934  0.5808
  462MOL0     H63744   8.748   3.365   8.011 -1.9418  0.0385 -1.1109
  462MOL0     H63745   8.757   3.409   7.835  0.1363  0.2222  0.4521
  462MOL0     H63746   8.978   3.313   8.006 -0.3843 -1.5632  0.2119
  462MOL0     H63747   9.013   3.381   7.850  1.3129  0.3775  2.1391
  462MOL0     H63748   8.857   3.121   7.910 -1.0901  3.4753  3.0043
  462MOL0     H63749   8.830   3.200   7.750 -1.2521 -1.0288  1.5140
  462MOL0     H63750   9.097   3.107   7.901 -1.5354 -1.7426  0.1937
  462MOL0     H63751   9.108   3.180   7.749  1.4396  0.4494  1.7021
  462MOL0     H63752   8.966   2.783   7.668 -4.2870  2.6599 -1.8711
  462MOL0     H63753   8.769   3.567   7.694 -2.0696  0.8645  1.9198
  462MOL0     H63754   8.747   3.710   7.515 -0.7192  0.2857 -1.7829
  462MOL0     H63755   8.869   3.800   7.440 -2.3056  0.7450  1.5276
  462MOL0     H63756   8.885   3.622   7.440  0.0008  0.1637 -1.2906
  463MOL0     O63757   4.295   5.315   9.917  0.2556 -0.4963  0.1640
  463MOL0     C63758   4.222   5.219   9.938 -0.8001 -0.1428  0.3000
  463MOL0     O63759   4.215   5.098   9.877  0.1398 -0.3133  0.2806
  463MOL0     C63760   4.318   5.052   9.792  0.0042 -0.8794  1.4997
  463MOL0     C63761   4.284   4.958   9.685  0.0805  0.1196 -0.1821
  463MOL0     C63762   4.379   4.917   9.591 -0.6734 -0.3806 -0.1983
  463MOL0     C63763   4.514   4.945   9.609 -0.2837  0.7189 -0.5541
  463MOL0     O63764   4.591   4.889   9.506 -0.0612 -0.4160  0.9373
  463MOL0     C63765   4.700   4.980   9.463 -1.1724  0.6037  1.1065
  463MOL0     C63766   4.796   4.878   9.395  0.1849  0.5135 -0.1545
  463MOL0     C63767   4.759   4.870   9.242 -0.1037 -0.1832 -0.5609
  463MOL0     C63768   4.808   5.000   9.171  0.9182  0.3945 -0.1470
  463MOL0     C63769   4.806   4.965   9.023 -0.4435  0.0115 -0.9036
  463MOL0     C63770   4.828   5.084   8.935  0.8877 -0.1490  0.1042
  463MOL0     C63771   4.757   5.076   8.800 -0.9158 -0.2840  0.4583
  463MOL0     C63772   4.740   5.206   8.736  0.4794  0.0385  0.6250
  463MOL0     N63773   4.868   5.271   8.712 -0.1350  0.3041 -0.2766
  463MOL0     C63774   4.915   5.374   8.790  0.2940 -0.2311 -0.6985
  463MOL0     C63775   5.046   5.390   8.749 -0.5070 -0.0675  0.5590
  463MOL0     C63776   5.138   5.472   8.829  0.8282  0.4921  0.1146
  463MOL0     C63777   5.195   5.597   8.773 -0.2414 -0.2308  0.2105
  463MOL0     C63778   5.096   5.689   8.703  0.0881  0.5850 -0.2578
  463MOL0     C63779   4.981   5.744   8.784  0.2995  0.2110  0.7035
  463MOL0     O63780   5.038   5.802   8.901  0.6055  0.2802 -0.3558
  463MOL0     C63781   4.948   5.814   9.003  0.5692  0.4918  0.5144
  463MOL0     C63782   4.855   5.919   9.006  0.4522  0.1776  0.5092
  463MOL0     C63783   4.766   5.942   9.107  0.6201  0.4319 -0.6885
  463MOL0     C63784   4.649   6.034   9.070 -1.3399  0.4964  0.5219
  463MOL0     C63785   4.770   5.863   9.220  0.6756 -0.5518 -0.3625
  463MOL0     C63786   4.672   5.883   9.333  0.3046 -0.2960  0.2380
  463MOL0     O63787   4.610   5.769   9.380  0.0428 -0.4207  0.2124
  463MOL0     C63788   4.535   5.776   9.494 -0.3176  0.6950 -0.1002
  463MOL0     C63789   4.537   5.669   9.591 -0.5129 -0.2888  0.3095
  463MOL0     C63790   4.447   5.667   9.700  0.1991 -0.4418 -0.9163
  463MOL0     C63791   4.363   5.771   9.721  0.2989 -0.3588  0.4890
  463MOL0     O63792   4.282   5.785   9.837 -0.5330  0.4939  0.3806
  463MOL0     C63793   4.269   5.667   9.923  0.1267 -0.9854 -0.8700
  463MOL0     C63794   4.193   5.727  10.046 -0.7663 -0.1036  0.0383
  463MOL0     C63795   4.191   5.625  10.164  0.4195  0.5279  0.5025
  463MOL0     C63796   4.076   5.659  10.254  0.3293  0.5613 -0.3961
  463MOL0     C63797   4.097   5.607  10.406  0.3013  0.7610 -0.4598
  463MOL0     C63798   4.116   5.459  10.415 -0.0848  0.1433  0.0345
  463MOL0     C63799   4.172   5.424  10.553  1.0378 -0.8035  1.1978
  463MOL0     C63800   4.073   5.370  10.651 -0.3054  0.1768 -0.5506
  463MOL0    Cl63801   4.058   5.194  10.607 -0.0208  0.0687  0.0932
  463MOL0     C63802   4.358   5.878   9.623  0.8178 -0.0941  0.9169
  463MOL0     C63803   4.435   5.872   9.507  0.0667 -0.0318 -1.0924
  463MOL0     O63804   4.676   5.989   9.389 -0.1554 -0.5677  0.0391
  463MOL0     C63805   4.862   5.760   9.225 -0.1753 -0.4409  0.5064
  463MOL0     C63806   4.950   5.737   9.117  0.2899  0.4445  0.9877
  463MOL0     N63807   5.072   5.298   8.646  0.0678  0.7165 -0.3953
  463MOL0     N63808   4.969   5.224   8.631 -0.1299  0.4686  0.2313
  463MOL0     C63809   4.546   5.026   9.713 -0.0276 -0.7033  1.0480
  463MOL0     C63810   4.456   5.084   9.792 -1.2293 -0.7250  0.2888
  463MOL0     C63811   4.095   5.257  10.008  0.4417  0.2641  0.3322
  463MOL0     C63812   4.018   5.358   9.942 -0.1724  0.0748  0.0188
  463MOL0     C63813   3.899   5.401   9.992 -0.2448 -0.2297 -0.8303
  463MOL0     C63814   3.851   5.340  10.109 -0.9389 -0.6857 -0.3221
  463MOL0     O63815   3.734   5.363  10.174  0.8148  0.0112  0.4328
  463MOL0     C63816   3.675   5.498  10.149 -0.4082  0.2150 -0.4601
  463MOL0     C63817   3.558   5.513  10.245  0.5485  0.7539  0.2771
  463MOL0     C63818   3.465   5.628  10.203 -0.2643 -0.4237  0.7043
  463MOL0     C63819   3.383   5.682  10.319  0.2395 -0.0961  0.6257
  463MOL0     C63820   3.280   5.598  10.384  0.2843 -0.7515  0.0412
  463MOL0     C63821   3.179   5.537  10.418 -0.4518  0.1263  0.3762
  463MOL0     C63822   3.927   5.244  10.171 -0.2480  0.2456 -0.3345
  463MOL0     C63823   4.049   5.207  10.130 -0.1322 -0.0185  1.0941
  463MOL0     C63824   4.145   5.110  10.200  0.8016  0.5396 -0.0648
  463MOL0     H63825   4.183   4.922   9.675  0.0973 -0.4540  1.3672
  463MOL0     H63826   4.353   4.862   9.502  1.5636 -1.7629 -0.0745
  463MOL0     H63827   4.746   5.028   9.549 -1.3702  0.6577  1.1824
  463MOL0     H63828   4.657   5.054   9.394  1.0880  1.4117  0.4695
  463MOL0     H63829   4.901   4.908   9.398  0.0183  1.0970 -0.0519
  463MOL0     H63830   4.791   4.781   9.444 -1.9316  0.7294  0.1464
  463MOL0     H63831   4.811   4.786   9.194 -0.5899  0.4167 -2.2221
  463MOL0     H63832   4.653   4.846   9.234 -0.1308 -0.0130 -0.7082
  463MOL0     H63833   4.742   5.084   9.193 -0.4534 -0.4783 -0.8218
  463MOL0     H63834   4.905   5.038   9.205 -0.5442  3.1351  1.3446
  463MOL0     H63835   4.705   4.930   8.999 -1.7960  1.6155  1.9849
  463MOL0     H63836   4.886   4.895   8.997  2.9391  3.0604  0.4480
  463MOL0     H63837   4.813   5.177   8.992  3.8124  0.2769  0.3458
  463MOL0     H63838   4.937   5.075   8.932  1.0476  1.1426  1.1628
  463MOL0     H63839   4.657   5.031   8.808 -0.0795 -2.1141  1.2248
  463MOL0     H63840   4.816   5.010   8.735 -1.7731  0.1528 -0.7839
  463MOL0     H63841   4.702   5.180   8.637  0.7677  2.8102 -0.2880
  463MOL0     H63842   4.675   5.276   8.789  0.0914  0.3083 -0.2049
  463MOL0     H63843   4.862   5.428   8.868  0.7961  0.2233 -0.6633
  463MOL0     H63844   5.219   5.405   8.861  0.6179  0.7283  1.1760
  463MOL0     H63845   5.089   5.505   8.921  2.3555 -3.4885  2.6074
  463MOL0     H63846   5.259   5.655   8.840 -0.2520  0.0555 -0.0243
  463MOL0     H63847   5.267   5.571   8.695  0.1641  3.6103 -0.8987
  463MOL0     H63848   5.145   5.780   8.669  1.0200 -0.2508 -1.1772
  463MOL0     H63849   5.063   5.635   8.614  3.4789 -1.6606 -0.3394
  463MOL0     H63850   4.916   5.808   8.724  0.3474 -1.9076 -1.7435
  463MOL0     H63851   4.922   5.653   8.801  0.2629 -0.2624 -1.6402
  463MOL0     H63852   4.853   5.984   8.919 -2.3475 -1.2493 -0.6240
  463MOL0     H63853   4.687   6.127   9.024  2.5210  0.4186  3.0617
  463MOL0     H63854   4.588   6.067   9.154 -1.5534  2.1622 -0.2364
  463MOL0     H63855   4.592   5.986   8.990  0.7576 -1.2215 -0.0354
  463MOL0     H63856   4.618   5.597   9.583  3.2889  3.7134 -0.9637
  463MOL0     H63857   4.462   5.579   9.762 -0.4788 -0.0415 -0.1687
  463MOL0     H63858   4.218   5.581   9.879  0.2290 -1.6538  0.2990
  463MOL0     H63859   4.371   5.646   9.956  0.0534  3.3465  3.1426
  463MOL0     H63860   4.220   5.828  10.079 -0.3076  0.4455 -1.8475
  463MOL0     H63861   4.088   5.738  10.015 -0.7877 -0.7045 -0.1155
  463MOL0     H63862   4.293   5.607  10.198  2.5212  0.7284 -4.7042
  463MOL0     H63863   4.163   5.527  10.126 -1.5941 -0.1232  3.3254
  463MOL0     H63864   3.989   5.607  10.213  1.9882 -1.7442 -1.1718
  463MOL0     H63865   4.065   5.768  10.253 -0.6811  0.4705 -1.7014
  463MOL0     H63866   4.186   5.663  10.437  1.3755  0.5162 -2.8826
  463MOL0     H63867   4.013   5.636  10.470  3.7181  2.2065  3.9239
  463MOL0     H63868   4.175   5.426  10.329 -1.0872  0.5215 -0.8313
  463MOL0     H63869   4.020   5.409  10.399  0.3086 -0.7510  0.4272
  463MOL0     H63870   4.221   5.506  10.607 -1.5082  0.8742  1.1295
  463MOL0     H63871   4.252   5.353  10.529  0.9275 -0.4047 -0.5110
  463MOL0     H63872   3.975   5.419  10.644 -0.8384 -0.7359  0.2670
  463MOL0     H63873   4.110   5.381  10.754 -3.0970  0.7624  0.4784
  463MOL0     H63874   4.284   5.956   9.631  2.2148  1.3326  0.5257
  463MOL0     H63875   4.429   5.954   9.435 -0.1090 -0.7924 -1.9585
  463MOL0     H63876   4.858   5.704   9.318  0.5899 -0.5198  0.4944
  463MOL0     H63877   5.027   5.661   9.108 -0.8305 -0.4932 -2.2658
  463MOL0     H63878   4.649   5.051   9.736  0.0362  1.4470 -1.2169
  463MOL0     H63879   4.490   5.151   9.871 -0.2316 -2.3571  1.2960
  463MOL0     H63880   4.061   5.411   9.857 -1.7252  2.1666  0.4485
  463MOL0     H63881   3.849   5.480   9.937 -1.7730 -0.0490  0.7310
  463MOL0     H63882   3.751   5.575  10.166 -0.9051  0.3260  1.4655
  463MOL0     H63883   3.626   5.507  10.052 -1.4246  2.4509  0.1909
  463MOL0     H63884   3.593   5.524  10.348 -0.5583 -1.0792  0.8842
  463MOL0     H63885   3.505   5.418  10.245 -0.5830  1.3139 -2.1413
  463MOL0     H63886   3.525   5.710  10.161 -2.0893  0.6432  0.0411
  463MOL0     H63887   3.404   5.591  10.120  0.3506  0.7142 -0.2997
  463MOL0     H63888   3.341   5.776  10.284 -2.8291 -2.1309 -1.6852
  463MOL0     H63889   3.454   5.716  10.394  0.2623  1.1166  0.0752
  463MOL0     H63890   3.098   5.467  10.428  0.8899 -2.2410 -3.2825
  463MOL0     H63891   3.899   5.219  10.273  0.1681  1.3030  0.0515
  463MOL0     H63892   4.157   5.031  10.126  0.3263 -0.1419  0.5652
  463MOL0     H63893   4.238   5.153  10.239 -0.6660  1.4410  2.6994
  463MOL0     H63894   4.093   5.057  10.281  1.7218  1.2313  1.0113
  464MOL0     O63895   0.117   0.555   2.935  0.5921 -0.3916 -0.1404
  464MOL0     C63896   0.206   0.543   3.020 -0.4497 -0.3948  0.7508
  464MOL0     O63897   0.336   0.512   2.991 -0.8505  0.2880  0.1773
  464MOL0     C63898   0.378   0.486   2.867  0.3274  0.8839 -0.4772
  464MOL0     C63899   0.440   0.358   2.847 -0.0063  0.0633  0.2632
  464MOL0     C63900   0.493   0.326   2.721 -0.0427  0.4626 -0.6006
  464MOL0     C63901   0.491   0.409   2.617  0.5575 -0.2762  0.0155
  464MOL0     O63902   0.553   0.373   2.499  0.5145  0.5016  0.0614
  464MOL0     C63903   0.542   0.460   2.391  1.0209 -0.1274  0.0118
  464MOL0     C63904   0.611   0.393   2.265 -0.2901 -0.0208 -0.5477
  464MOL0     C63905   0.761   0.370   2.312  0.4165  0.2654  0.0424
  464MOL0     C63906   0.843   0.299   2.209 -0.9149  0.0433 -0.2369
  464MOL0     C63907   0.956   0.385   2.161  0.2409 -0.0600  0.4029
  464MOL0     C63908   0.918   0.501   2.065 -0.5983  0.3447  0.3088
  464MOL0     C63909   1.051   0.566   2.024 -0.2456  0.8048  0.8250
  464MOL0     C63910   1.011   0.666   1.909  0.0827 -0.2338 -0.1098
  464MOL0     N63911   1.057   0.805   1.938 -0.4651 -0.5243  0.4123
  464MOL0     C63912   1.002   0.897   2.023 -0.4205 -1.3491 -0.1816
  464MOL0     C63913   1.082   1.016   2.002 -0.9284  0.8896  0.1749
  464MOL0     C63914   1.071   1.168   2.029  0.4039  0.8683  0.8888
  464MOL0     C63915   1.201   1.237   2.072  0.4444 -0.0740 -0.5833
  464MOL0     C63916   1.178   1.378   2.128 -0.5936  0.3512  0.3610
  464MOL0     C63917   1.306   1.445   2.138 -0.2228 -0.8707  0.2731
  464MOL0     O63918   1.274   1.581   2.136  0.4509  0.1317 -0.2219
  464MOL0     C63919   1.344   1.673   2.063 -0.9168  0.4174 -0.3708
  464MOL0     C63920   1.322   1.683   1.927 -0.5138 -0.0099 -0.3647
  464MOL0     C63921   1.404   1.766   1.850 -0.0544 -1.1294 -0.3473
  464MOL0     C63922   1.375   1.756   1.698 -0.5031  0.0567 -0.0562
  464MOL0     C63923   1.512   1.838   1.906  0.2874 -1.5027 -0.1822
  464MOL0     C63924   1.607   1.912   1.819  0.5797 -0.0526 -1.0243
  464MOL0     O63925   1.581   1.951   1.684  0.3275  0.3609  0.2797
  464MOL0     C63926   1.689   2.022   1.633 -0.1607 -0.1459  0.2431
  464MOL0     C63927   1.695   2.158   1.632  0.1614 -0.2474  0.5706
  464MOL0     C63928   1.814   2.216   1.577  0.3246  0.0228 -0.4788
  464MOL0     C63929   1.912   2.142   1.511  0.4761  0.1165  0.1410
  464MOL0     O63930   2.019   2.207   1.455 -0.1359  0.7131 -0.0003
  464MOL0     C63931   2.150   2.162   1.501 -0.2620  0.3526  0.4605
  464MOL0     C63932   2.186   2.195   1.643 -0.7456  0.2912 -0.9874
  464MOL0     C63933   2.115   2.111   1.751  0.5271  0.2643 -0.5145
  464MOL0     C63934   2.175   2.125   1.892  0.1030 -0.0577  0.1865
  464MOL0     C63935   2.105   2.026   1.976 -0.2346  0.0350 -0.7446
  464MOL0     C63936   2.147   2.011   2.118 -0.0503 -0.1866 -0.6722
  464MOL0     C63937   2.068   1.878   2.167 -0.1268 -1.3930 -1.3619
  464MOL0     C63938   2.120   1.811   2.298  0.1665 -0.1081  0.1048
  464MOL0    Cl63939   2.279   1.734   2.270 -0.2630 -0.0516 -0.4437
  464MOL0     C63940   1.891   2.008   1.508 -0.7517 -0.1872  0.0503
  464MOL0     C63941   1.789   1.946   1.577 -0.5682  0.3632 -0.2389
  464MOL0     O63942   1.710   1.938   1.874  0.1536 -0.8669 -1.1352
  464MOL0     C63943   1.520   1.833   2.045 -0.6892  0.4310  0.3473
  464MOL0     C63944   1.437   1.755   2.123  0.1155  0.5760 -0.2323
  464MOL0     N63945   1.176   0.978   1.903  0.5813  0.5010  0.0646
  464MOL0     N63946   1.168   0.855   1.880  0.2178  0.0428 -0.1278
  464MOL0     C63947   0.438   0.539   2.634 -0.1701  0.7027  1.1299
  464MOL0     C63948   0.392   0.575   2.753  0.9449  0.0775 -0.2824
  464MOL0     C63949   0.161   0.548   3.159  0.3709  0.3755  0.2627
  464MOL0     C63950   0.021   0.512   3.179 -0.8090  0.0011  0.9103
  464MOL0     C63951  -0.042   0.515   3.295 -0.1604  0.3395  0.3528
  464MOL0     C63952   0.030   0.557   3.406  0.0948  0.4610 -0.5126
  464MOL0     O63953  -0.043   0.568   3.525 -0.0309 -0.7458 -0.3720
  464MOL0     C63954  -0.179   0.628   3.515 -0.4722 -0.5267  0.0552
  464MOL0     C63955  -0.245   0.597   3.650  0.1596 -0.5327  0.8251
  464MOL0     C63956  -0.257   0.440   3.657 -0.8809  0.8622 -0.0263
  464MOL0     C63957  -0.259   0.405   3.803 -0.1134  0.9623 -0.4195
  464MOL0     C63958  -0.269   0.262   3.819  0.4748  0.2559 -0.6637
  464MOL0     C63959  -0.259   0.145   3.842 -0.4521  0.6672 -0.3406
  464MOL0     C63960   0.167   0.597   3.393  0.0499  0.8254 -0.0591
  464MOL0     C63961   0.231   0.592   3.270  0.9577 -0.8515 -0.6303
  464MOL0     C63962   0.371   0.642   3.253  0.3091 -0.4174 -0.2315
  464MOL0     H63963   0.445   0.276   2.918  2.1674 -2.5524 -2.6227
  464MOL0     H63964   0.531   0.227   2.698 -1.8491  0.2382 -3.1033
  464MOL0     H63965   0.603   0.550   2.403 -0.9386  1.4163 -0.9253
  464MOL0     H63966   0.435   0.482   2.385  0.5361 -1.8578  1.4958
  464MOL0     H63967   0.560   0.300   2.238  3.5442 -2.0932 -1.3945
  464MOL0     H63968   0.611   0.455   2.175  0.6217 -1.0083 -1.2554
  464MOL0     H63969   0.808   0.465   2.340 -2.0934  1.5386  0.2221
  464MOL0     H63970   0.753   0.313   2.404  2.6605  2.3410  1.6539
  464MOL0     H63971   0.888   0.204   2.240 -1.7713 -0.3513 -0.1418
  464MOL0     H63972   0.777   0.264   2.128 -1.5923  1.6884 -0.4447
  464MOL0     H63973   1.026   0.314   2.117  0.4391  0.4097 -0.0478
  464MOL0     H63974   1.009   0.435   2.243  0.8801  0.6711 -0.4338
  464MOL0     H63975   0.866   0.475   1.972  2.2172  1.4287 -1.7046
  464MOL0     H63976   0.866   0.573   2.128 -0.1896  0.0748  0.9584
  464MOL0     H63977   1.126   0.496   1.988 -1.3358 -1.1829  2.2364
  464MOL0     H63978   1.097   0.625   2.104  1.5086  1.7020 -0.7659
  464MOL0     H63979   1.061   0.642   1.814 -0.0519  1.7348 -0.7168
  464MOL0     H63980   0.902   0.665   1.906 -0.1207  4.1676 -0.2375
  464MOL0     H63981   0.913   0.894   2.086 -1.1664  0.7404 -1.0405
  464MOL0     H63982   0.993   1.173   2.106 -0.8038  0.0200 -0.2276
  464MOL0     H63983   1.037   1.218   1.938 -1.0209 -0.5976  0.5635
  464MOL0     H63984   1.243   1.172   2.149 -1.7626  0.1330  0.8868
  464MOL0     H63985   1.258   1.240   1.979 -0.8720  2.0962 -1.3945
  464MOL0     H63986   1.106   1.429   2.063 -1.7474 -2.6979 -0.9227
  464MOL0     H63987   1.136   1.368   2.229 -0.3134 -1.3265  0.3388
  464MOL0     H63988   1.355   1.421   2.232 -1.5423 -1.9274  0.7228
  464MOL0     H63989   1.374   1.413   2.059  2.9865  2.3674  1.4421
  464MOL0     H63990   1.256   1.611   1.878  0.3830 -0.0447 -1.5558
  464MOL0     H63991   1.468   1.721   1.651  0.8144  0.4538  2.1295
  464MOL0     H63992   1.342   1.854   1.663  1.1135  0.9260  0.7556
  464MOL0     H63993   1.294   1.686   1.675 -0.0983 -1.2807  2.3263
  464MOL0     H63994   1.617   2.220   1.675  1.3224 -0.4640  3.1835
  464MOL0     H63995   1.829   2.324   1.577 -0.9664  0.2315  0.7556
  464MOL0     H63996   2.147   2.053   1.489 -3.6587  0.5771 -2.3260
  464MOL0     H63997   2.221   2.210   1.433 -3.4559  0.1907 -3.3615
  464MOL0     H63998   2.293   2.179   1.659 -1.2922 -0.2801  3.4091
  464MOL0     H63999   2.152   2.297   1.663  0.3402  0.2318  1.5813
  464MOL0     H64000   2.110   2.005   1.725  0.1352  0.3108 -0.6372
  464MOL0     H64001   2.014   2.155   1.752 -0.0029 -0.9096  0.7302
  464MOL0     H64002   2.159   2.228   1.926  0.9561  0.2965 -0.4299
  464MOL0     H64003   2.278   2.087   1.888 -0.0359 -0.3850 -0.3142
  464MOL0     H64004   1.999   2.055   1.973 -0.3171 -0.1296  0.0983
  464MOL0     H64005   2.122   1.931   1.925  0.0023 -1.6109  2.1807
  464MOL0     H64006   2.133   2.096   2.185  2.2452 -2.7777  3.5216
  464MOL0     H64007   2.256   2.003   2.128 -0.0053 -2.6266 -2.2988
  464MOL0     H64008   2.085   1.801   2.092 -0.2281 -1.1597 -1.6256
  464MOL0     H64009   1.959   1.889   2.173  0.0910  1.5663 -1.0849
  464MOL0     H64010   2.047   1.739   2.337 -1.6000 -0.0021 -2.7608
  464MOL0     H64011   2.145   1.892   2.367  0.0522  1.3067 -1.4520
  464MOL0     H64012   1.955   1.937   1.458 -0.6069  0.9862 -1.5206
  464MOL0     H64013   1.791   1.839   1.594 -0.5379  0.4296  0.1662
  464MOL0     H64014   1.595   1.892   2.096 -0.6710 -1.1302  2.2756
  464MOL0     H64015   1.466   1.756   2.228  0.6793  0.7409 -0.3855
  464MOL0     H64016   0.439   0.612   2.553 -2.7644 -1.6494 -1.2564
  464MOL0     H64017   0.350   0.673   2.775  0.3661  0.0655 -1.2800
  464MOL0     H64018  -0.045   0.475   3.101 -0.4938  0.5960  0.3508
  464MOL0     H64019  -0.147   0.488   3.288 -0.3349  1.4075 -1.8644
  464MOL0     H64020  -0.174   0.734   3.490  1.5200 -0.4884  0.4591
  464MOL0     H64021  -0.232   0.576   3.435 -0.5240  0.4630 -0.5623
  464MOL0     H64022  -0.342   0.646   3.654 -1.1737 -3.1007  2.8443
  464MOL0     H64023  -0.172   0.636   3.722  2.4718 -0.6747 -1.2987
  464MOL0     H64024  -0.345   0.394   3.611 -0.5308 -2.7561  2.5009
  464MOL0     H64025  -0.169   0.392   3.613 -0.3352  2.3401 -0.6074
  464MOL0     H64026  -0.349   0.448   3.850  0.4910  2.1621 -0.3192
  464MOL0     H64027  -0.173   0.442   3.860  1.6730 -2.1038 -0.9040
  464MOL0     H64028  -0.253   0.043   3.872 -1.5877  0.2325 -1.4875
  464MOL0     H64029   0.211   0.623   3.489 -0.4075 -1.1889  0.7594
  464MOL0     H64030   0.406   0.679   3.350  0.7894 -2.1423  0.2901
  464MOL0     H64031   0.444   0.564   3.229  1.3569 -1.4215  4.9612
  464MOL0     H64032   0.362   0.723   3.181 -3.1086  1.0433  1.6135
  465MOL0     O64033  10.123   3.148   5.160 -0.2211  0.3980  0.3364
  465MOL0     C64034  10.194   3.117   5.258  0.0992  0.3446 -0.3053
  465MOL0     O64035  10.172   3.013   5.343  0.7006 -0.1040 -0.0378
  465MOL0     C64036  10.048   2.956   5.368 -0.6826 -0.8087 -0.4096
  465MOL0     C64037  10.039   2.853   5.468 -0.5194  0.9804 -0.6147
  465MOL0     C64038   9.915   2.803   5.508  1.4620 -0.7503  0.9167
  465MOL0     C64039   9.794   2.859   5.462 -1.0094  1.3120  0.1025
  465MOL0     O64040   9.679   2.800   5.503  0.2000  1.1817 -0.3965
  465MOL0     C64041   9.558   2.837   5.436 -0.1700 -0.2312 -0.2631
  465MOL0     C64042   9.448   2.733   5.457  0.8037  0.7335 -0.5235
  465MOL0     C64043   9.404   2.712   5.607 -0.0054 -0.1996 -0.1350
  465MOL0     C64044   9.303   2.600   5.638 -0.1642  0.1043  0.1826
  465MOL0     C64045   9.278   2.579   5.792  0.5891 -0.5137  0.1873
  465MOL0     C64046   9.407   2.538   5.862  0.7917  0.0677  0.4792
  465MOL0     C64047   9.379   2.512   6.009 -0.2495 -0.0764  1.6322
  465MOL0     C64048   9.491   2.452   6.086 -0.8102  0.0354  0.3068
  465MOL0     N64049   9.497   2.306   6.081  0.2484 -0.3602 -0.8546
  465MOL0     C64050   9.394   2.225   6.054  0.3594 -0.4495  0.2200
  465MOL0     C64051   9.461   2.106   6.050  0.8773  0.9352 -1.0194
  465MOL0     C64052   9.399   1.975   6.009 -0.5017  0.0487  0.5976
  465MOL0     C64053   9.280   1.982   5.906 -0.6040 -0.2800 -0.2635
  465MOL0     C64054   9.328   1.974   5.759 -0.5980 -0.0335 -0.1793
  465MOL0     C64055   9.384   1.842   5.720  0.5540  0.2734  0.3128
  465MOL0     O64056   9.273   1.744   5.715 -0.6656  0.2851 -0.0299
  465MOL0     C64057   9.310   1.618   5.666 -0.0642 -1.0146 -0.4152
  465MOL0     C64058   9.215   1.518   5.678  0.8645 -0.6692 -0.5901
  465MOL0     C64059   9.223   1.400   5.608  0.2492  0.7660 -0.9311
  465MOL0     C64060   9.090   1.317   5.602 -0.1171  0.6975 -0.8761
  465MOL0     C64061   9.350   1.369   5.541  0.2816  0.3250 -0.1261
  465MOL0     C64062   9.376   1.237   5.464  0.9089  0.1724 -0.6103
  465MOL0     O64063   9.505   1.216   5.442  0.3303 -0.2506 -0.0749
  465MOL0     C64064   9.534   1.155   5.319 -1.1109  0.2372 -0.1607
  465MOL0     C64065   9.638   1.056   5.325 -0.2037  0.2610 -0.0831
  465MOL0     C64066   9.670   0.982   5.214 -0.9772  0.9376  0.5474
  465MOL0     C64067   9.598   0.993   5.093 -0.4344 -0.9742 -0.4401
  465MOL0     O64068   9.648   0.940   4.979  1.0248 -0.0320 -0.0963
  465MOL0     C64069   9.762   0.853   4.979  0.1008 -0.5359  0.7502
  465MOL0     C64070   9.889   0.938   4.997  0.4694  0.7760  0.2221
  465MOL0     C64071  10.014   0.843   4.997 -0.0660 -0.0961  0.3185
  465MOL0     C64072  10.139   0.910   5.062 -0.2515  0.9874  0.2891
  465MOL0     C64073  10.196   1.008   4.959 -2.0582 -0.6556 -0.7978
  465MOL0     C64074  10.320   1.089   5.016  0.5975  0.3095 -0.1291
  465MOL0     C64075  10.447   1.009   5.014  0.0278 -0.0854 -0.6759
  465MOL0     C64076  10.555   1.072   4.925  0.5948 -0.5703  0.4180
  465MOL0    Cl64077  10.686   0.959   4.902 -0.1251  0.3548 -0.0211
  465MOL0     C64078   9.497   1.092   5.087  0.6726  0.2630  0.1576
  465MOL0     C64079   9.470   1.170   5.198 -0.0294 -1.1636 -0.5100
  465MOL0     O64080   9.284   1.155   5.436  0.6413  0.6092 -0.7048
  465MOL0     C64081   9.453   1.459   5.544 -0.4705  0.7338 -0.1273
  465MOL0     C64082   9.431   1.584   5.596 -0.2563 -0.0568 -0.2304
  465MOL0     N64083   9.597   2.112   6.064  1.4630 -0.1426 -0.4525
  465MOL0     N64084   9.615   2.238   6.083  0.3185  0.4930  0.0143
  465MOL0     C64085   9.807   2.975   5.371  0.2307  0.5176  0.1681
  465MOL0     C64086   9.932   3.007   5.320 -0.6409  0.2124 -0.9290
  465MOL0     C64087  10.323   3.184   5.288 -0.3443 -0.5077 -0.7225
  465MOL0     C64088  10.432   3.103   5.337 -0.2927 -0.1581 -0.3202
  465MOL0     C64089  10.549   3.173   5.388 -0.4186  0.3815 -1.4409
  465MOL0     C64090  10.558   3.308   5.388 -0.9570  0.3012  0.0337
  465MOL0     O64091  10.677   3.374   5.413  0.0991 -0.0079 -0.8249
  465MOL0     C64092  10.798   3.360   5.338  0.1198  0.5266 -0.0369
  465MOL0     C64093  10.799   3.416   5.198  0.3491  0.2564  0.1401
  465MOL0     C64094  10.927   3.403   5.119 -0.8780 -0.3609 -0.4896
  465MOL0     C64095  10.962   3.251   5.099 -0.6573 -0.1818 -0.0598
  465MOL0     C64096  11.090   3.235   5.026  0.3115 -0.0584  0.1751
  465MOL0     C64097  11.191   3.248   4.964  0.6174  0.2310  0.3997
  465MOL0     C64098  10.447   3.381   5.349 -0.0313 -0.5330  0.1787
  465MOL0     C64099  10.338   3.325   5.299 -0.1887 -0.6869  0.1806
  465MOL0     C64100  10.227   3.425   5.267 -0.2785  0.0064 -0.3451
  465MOL0     H64101  10.129   2.805   5.503 -0.7437 -0.3658 -1.7871
  465MOL0     H64102   9.917   2.717   5.575 -0.9086 -0.3190  1.6331
  465MOL0     H64103   9.583   2.846   5.330 -1.6214  1.3110 -0.5022
  465MOL0     H64104   9.519   2.928   5.483 -2.2481 -0.6727 -1.0662
  465MOL0     H64105   9.362   2.769   5.399  1.1481 -0.1637 -1.6040
  465MOL0     H64106   9.484   2.638   5.417 -0.0837  0.7358 -1.3626
  465MOL0     H64107   9.485   2.695   5.678 -1.3980  1.6659  2.0340
  465MOL0     H64108   9.355   2.806   5.633  1.7473  1.3167 -1.9998
  465MOL0     H64109   9.206   2.625   5.594  0.8796  5.2135  0.2756
  465MOL0     H64110   9.349   2.510   5.595  1.2407  0.6754  0.4520
  465MOL0     H64111   9.198   2.504   5.798 -0.0898  0.1690 -0.1188
  465MOL0     H64112   9.241   2.676   5.828  0.3099  0.9963 -3.6590
  465MOL0     H64113   9.440   2.446   5.814 -0.3640  0.1977 -0.6076
  465MOL0     H64114   9.484   2.616   5.859  0.4127  0.4292 -0.0812
  465MOL0     H64115   9.288   2.453   6.027 -0.6938 -0.2612 -0.8091
  465MOL0     H64116   9.354   2.611   6.047 -0.0477  0.5750  0.1443
  465MOL0     H64117   9.590   2.497   6.074 -0.4719  0.0292  2.7384
  465MOL0     H64118   9.465   2.484   6.187 -2.9295 -3.2729  0.9453
  465MOL0     H64119   9.289   2.232   6.026  0.4105 -1.1836 -0.1703
  465MOL0     H64120   9.367   1.932   6.104 -0.8423  1.5949  1.2030
  465MOL0     H64121   9.471   1.899   5.979 -0.7256  0.3273 -0.7352
  465MOL0     H64122   9.208   1.900   5.915  0.9708 -1.9273 -1.7522
  465MOL0     H64123   9.223   2.075   5.908 -1.6680 -0.9269  0.2562
  465MOL0     H64124   9.238   1.977   5.698  0.1851 -0.0881 -1.3837
  465MOL0     H64125   9.403   2.050   5.734  1.4144 -1.1104  2.1298
  465MOL0     H64126   9.429   1.857   5.621  1.0197 -3.8398 -0.3143
  465MOL0     H64127   9.465   1.810   5.787  1.2360 -0.2108 -0.7115
  465MOL0     H64128   9.129   1.546   5.739  2.6994  0.8061  1.4609
  465MOL0     H64129   9.092   1.210   5.624 -0.3428  0.6796 -0.9352
  465MOL0     H64130   9.061   1.301   5.497  0.6572 -1.5016 -0.8128
  465MOL0     H64131   9.012   1.371   5.654  1.2090 -0.4273  2.5221
  465MOL0     H64132   9.695   1.046   5.417 -0.0919  1.4017 -0.0134
  465MOL0     H64133   9.735   0.896   5.222  0.1701  1.7156 -0.0847
  465MOL0     H64134   9.752   0.774   5.054  2.8165 -3.2567 -1.4950
  465MOL0     H64135   9.761   0.806   4.881  1.8013  1.0509 -0.0959
  465MOL0     H64136   9.894   1.015   4.920  3.8264  4.5042  3.7184
  465MOL0     H64137   9.888   0.992   5.092  1.3924 -1.3571  1.5269
  465MOL0     H64138  10.027   0.799   4.898 -0.1982 -0.1641  0.3303
  465MOL0     H64139   9.994   0.756   5.061 -1.0458  1.2432  1.9015
  465MOL0     H64140  10.210   0.831   5.090 -2.0588 -0.6718  0.3994
  465MOL0     H64141  10.113   0.963   5.154  0.0219  0.6576  0.5576
  465MOL0     H64142  10.232   0.952   4.872 -1.4322  0.5584 -1.3364
  465MOL0     H64143  10.120   1.078   4.925 -2.5041 -0.1443  1.1610
  465MOL0     H64144  10.299   1.117   5.120 -0.3983  1.7136 -0.6932
  465MOL0     H64145  10.324   1.177   4.952  0.4880  1.4581  1.3943
  465MOL0     H64146  10.446   0.902   4.987  2.4362 -0.9762  2.2245
  465MOL0     H64147  10.486   1.024   5.115  0.2782  2.3646 -1.0879
  465MOL0     H64148  10.598   1.162   4.969 -1.9047  0.0531  1.7181
  465MOL0     H64149  10.521   1.092   4.822 -0.0294  0.8535  0.8755
  465MOL0     H64150   9.444   1.112   4.995 -0.3743 -0.9746  0.4660
  465MOL0     H64151   9.384   1.236   5.196  1.2182  0.6531 -4.7700
  465MOL0     H64152   9.548   1.441   5.494 -0.4593  1.1892 -0.2684
  465MOL0     H64153   9.506   1.659   5.575  2.6450 -2.1717  1.8026
  465MOL0     H64154   9.720   3.032   5.340 -0.7131 -0.2417  1.2793
  465MOL0     H64155   9.917   3.087   5.247  0.2581 -1.5390 -3.1426
  465MOL0     H64156  10.429   2.995   5.343  1.1187 -0.1216  2.7555
  465MOL0     H64157  10.636   3.113   5.412  0.4640  1.1784 -2.5587
  465MOL0     H64158  10.879   3.401   5.399  1.8049 -0.6320 -1.3817
  465MOL0     H64159  10.813   3.253   5.324 -1.7535  0.4723 -2.3319
  465MOL0     H64160  10.778   3.523   5.195  1.2177  0.4865  1.2145
  465MOL0     H64161  10.718   3.365   5.147  1.4458 -1.7294  0.2752
  465MOL0     H64162  10.906   3.462   5.029 -2.0806  0.4166  0.2803
  465MOL0     H64163  11.004   3.458   5.175 -0.5731 -0.6237 -0.6445
  465MOL0     H64164  10.881   3.203   5.042 -0.8123 -1.8031  1.4308
  465MOL0     H64165  10.967   3.191   5.190 -2.2043 -3.5722 -1.9783
  465MOL0     H64166  11.276   3.238   4.899 -2.1346 -0.4468 -3.4461
  465MOL0     H64167  10.448   3.489   5.363  2.9471 -0.7013  2.1714
  465MOL0     H64168  10.183   3.414   5.168 -2.0279 -3.1663  0.6222
  465MOL0     H64169  10.142   3.396   5.331 -0.3242 -1.9862 -1.2207
  465MOL0     H64170  10.241   3.531   5.291 -2.1604  0.5560 -1.4453
  466MOL0     O64171   7.052   1.317  10.193 -0.3884 -0.6430  0.1337
  466MOL0     C64172   7.158   1.301  10.130  0.9490  0.1041  0.4621
  466MOL0     O64173   7.163   1.250  10.005  0.2410 -0.5731  0.4238
  466MOL0     C64174   7.038   1.216   9.950 -0.8027 -0.5288 -0.1392
  466MOL0     C64175   6.994   1.086   9.944  0.2565  0.3078 -0.0785
  466MOL0     C64176   6.872   1.047   9.880 -0.1292  0.1712  0.0052
  466MOL0     C64177   6.789   1.146   9.831 -0.2690 -0.2601 -0.6241
  466MOL0     O64178   6.669   1.117   9.779 -0.2478  0.5234  0.1942
  466MOL0     C64179   6.555   1.164   9.856 -0.0412 -0.0099  0.3988
  466MOL0     C64180   6.568   1.145  10.003 -0.1413 -0.4311 -0.8253
  466MOL0     C64181   6.441   1.196  10.090  1.1977  0.0945  0.4954
  466MOL0     C64182   6.448   1.179  10.236 -0.2370 -0.1239 -0.9234
  466MOL0     C64183   6.574   1.222  10.311 -0.0512  0.3442 -0.4865
  466MOL0     C64184   6.548   1.277  10.455 -0.6506  0.4290  0.1665
  466MOL0     C64185   6.434   1.198  10.531 -0.2563 -1.5271  0.8931
  466MOL0     C64186   6.447   1.192  10.679  0.6041  0.2980 -0.6124
  466MOL0     N64187   6.541   1.092  10.730  0.1697 -1.1282 -0.2458
  466MOL0     C64188   6.671   1.112  10.766  0.0368 -0.0335 -0.4490
  466MOL0     C64189   6.712   0.995  10.834 -0.7069  0.7250 -0.0206
  466MOL0     C64190   6.850   0.958  10.869 -0.5267 -0.6619  0.5366
  466MOL0     C64191   6.846   0.933  11.017  0.0561  0.6217  0.2533
  466MOL0     C64192   6.976   0.877  11.062  0.5193 -0.2199 -0.0542
  466MOL0     C64193   6.978   0.875  11.215  0.5014  0.1815  0.4213
  466MOL0     O64194   6.954   1.001  11.274 -0.3326 -0.1725  0.3755
  466MOL0     C64195   7.030   1.112  11.242  0.4139  0.5923  0.9212
  466MOL0     C64196   7.160   1.121  11.206 -0.2958  1.0253  0.1262
  466MOL0     C64197   7.230   1.236  11.187  0.0578 -0.0734 -0.2408
  466MOL0     C64198   7.364   1.224  11.137 -0.5823  0.2863  0.1111
  466MOL0     C64199   7.172   1.359  11.229 -0.4037  0.0667 -0.9117
  466MOL0     C64200   7.237   1.497  11.209 -0.0901 -0.0335  0.9049
  466MOL0     O64201   7.373   1.492  11.186  0.9854 -0.2959 -0.8202
  466MOL0     C64202   7.455   1.569  11.261  0.0902 -0.2863 -0.6918
  466MOL0     C64203   7.452   1.569  11.402  0.0663 -0.6704  0.0459
  466MOL0     C64204   7.518   1.672  11.468  0.2317 -0.2694  0.7900
  466MOL0     C64205   7.605   1.763  11.400  0.6112  0.4043  0.5354
  466MOL0     O64206   7.662   1.857  11.485  0.1668 -0.0327 -0.1408
  466MOL0     C64207   7.718   1.977  11.424 -0.1350  0.2581  0.3217
  466MOL0     C64208   7.740   2.090  11.521  0.0348 -0.9711 -0.1435
  466MOL0     C64209   7.821   2.206  11.466  0.2604 -1.0898  0.0406
  466MOL0     C64210   7.978   2.175  11.484  0.2680  0.0078 -0.6930
  466MOL0     C64211   8.061   2.276  11.409 -0.6339 -0.7703  0.8714
  466MOL0     C64212   8.090   2.238  11.263  0.0410  0.1992  1.0951
  466MOL0     C64213   8.226   2.299  11.215 -0.0425 -0.1435  0.3342
  466MOL0     C64214   8.229   2.296  11.070 -0.5823  0.5284  0.7260
  466MOL0    Cl64215   8.342   2.416  11.001  0.2286 -0.1388 -0.3943
  466MOL0     C64216   7.629   1.735  11.264  0.2126 -0.2657  0.8946
  466MOL0     C64217   7.555   1.641  11.196  0.3355  0.5147  0.7964
  466MOL0     O64218   7.178   1.607  11.224 -0.7744  0.5680 -0.2921
  466MOL0     C64219   7.046   1.348  11.278 -0.7825 -1.6413  0.5896
  466MOL0     C64220   6.975   1.231  11.286  0.1760 -0.0084  0.9030
  466MOL0     N64221   6.601   0.907  10.833 -0.0054  0.3391  0.2459
  466MOL0     N64222   6.505   0.971  10.767  0.0955 -0.0915  0.8772
  466MOL0     C64223   6.821   1.277   9.843 -0.3402 -0.3617 -0.4579
  466MOL0     C64224   6.945   1.316   9.897 -0.0248  0.2858  0.9150
  466MOL0     C64225   7.280   1.332  10.205 -0.2776 -0.1850 -0.3566
  466MOL0     C64226   7.277   1.346  10.349  0.1427  0.0128 -0.5332
  466MOL0     C64227   7.392   1.371  10.424  1.2591 -0.3878 -0.2998
  466MOL0     C64228   7.521   1.381  10.366  1.7015  0.0148 -0.2124
  466MOL0     O64229   7.625   1.413  10.451 -0.1710  0.7324 -0.2884
  466MOL0     C64230   7.685   1.290  10.510  0.5172 -0.2361  1.0133
  466MOL0     C64231   7.773   1.224  10.409  0.1233  0.4715  0.0512
  466MOL0     C64232   7.842   1.101  10.480  0.2881  0.0981 -0.3389
  466MOL0     C64233   7.895   0.997  10.383  0.6598 -0.1917 -0.2196
  466MOL0     C64234   7.959   0.886  10.451  0.1912 -0.6480 -0.3931
  466MOL0     C64235   8.015   0.805  10.531  0.2312  0.3775  0.2918
  466MOL0     C64236   7.528   1.380  10.227  1.1803  0.2151  0.5790
  466MOL0     C64237   7.406   1.368  10.146  0.2183  0.2956  0.3759
  466MOL0     C64238   7.429   1.348   9.998 -0.4027 -0.5410  0.8297
  466MOL0     H64239   7.049   0.997   9.975 -0.0581 -0.3332 -1.2958
  466MOL0     H64240   6.831   0.948   9.868 -0.0979  0.2075 -0.4137
  466MOL0     H64241   6.463   1.111   9.830  0.6688 -0.6462 -0.9339
  466MOL0     H64242   6.529   1.269   9.838  1.2163  1.5374  5.6659
  466MOL0     H64243   6.583   1.040  10.029 -0.4758 -0.1492  0.5680
  466MOL0     H64244   6.650   1.209  10.035 -1.8656  0.6933  1.6971
  466MOL0     H64245   6.414   1.298  10.060 -4.2395 -1.3432 -0.4847
  466MOL0     H64246   6.347   1.162  10.046  0.1658  1.9170  1.1843
  466MOL0     H64247   6.362   1.234  10.276  1.5942  2.0043  0.4217
  466MOL0     H64248   6.430   1.074  10.257  1.3746 -0.4848 -1.1982
  466MOL0     H64249   6.634   1.290  10.251  1.9180  0.7118  1.7502
  466MOL0     H64250   6.634   1.130  10.311 -1.7630 -0.8345 -1.1101
  466MOL0     H64251   6.643   1.263  10.508 -1.0905  1.5992  1.3175
  466MOL0     H64252   6.518   1.382  10.452 -2.8246 -0.1441  0.3920
  466MOL0     H64253   6.433   1.092  10.504  0.6868 -1.2975 -0.1093
  466MOL0     H64254   6.335   1.229  10.497 -0.1799 -0.0908  1.8905
  466MOL0     H64255   6.477   1.293  10.710  1.5121  0.4802 -1.9891
  466MOL0     H64256   6.347   1.171  10.717  0.3706  2.3782  0.0499
  466MOL0     H64257   6.728   1.203  10.746 -2.5285  1.9285  0.6234
  466MOL0     H64258   6.920   1.041  10.851  0.7228 -1.7905  0.0202
  466MOL0     H64259   6.884   0.871  10.812 -3.3775 -0.9448 -0.8807
  466MOL0     H64260   6.818   1.022  11.075 -2.7416 -0.4398  0.6658
  466MOL0     H64261   6.769   0.860  11.040 -1.2668  1.8734 -0.0724
  466MOL0     H64262   6.978   0.776  11.021 -0.3802 -0.4793  0.5005
  466MOL0     H64263   7.056   0.941  11.025 -0.2995  0.7171 -0.2537
  466MOL0     H64264   6.902   0.805  11.250 -1.1841  0.6450 -2.0509
  466MOL0     H64265   7.071   0.827  11.248  2.2281  0.8634 -2.9651
  466MOL0     H64266   7.215   1.029  11.187 -2.3229 -0.4283  0.9388
  466MOL0     H64267   7.371   1.297  11.057 -1.1381 -1.5284 -1.6859
  466MOL0     H64268   7.382   1.127  11.090  0.1397  0.6831 -0.4493
  466MOL0     H64269   7.440   1.250  11.211 -2.1055  2.1671  1.1131
  466MOL0     H64270   7.386   1.505  11.460  0.4475  1.5373  3.1488
  466MOL0     H64271   7.508   1.672  11.576  1.2740  1.1658  0.9156
  466MOL0     H64272   7.807   1.935  11.375 -0.7873 -2.2073  1.1043
  466MOL0     H64273   7.640   2.005  11.352  0.4412 -0.7672 -0.7302
  466MOL0     H64274   7.640   2.119  11.552  1.8075  2.2258  3.4460
  466MOL0     H64275   7.787   2.060  11.615  1.0190 -1.4561 -0.7560
  466MOL0     H64276   7.793   2.299  11.518  0.9694 -2.2900  2.7194
  466MOL0     H64277   7.813   2.216  11.357 -1.6642 -1.3105  0.1290
  466MOL0     H64278   8.002   2.071  11.463 -0.6675 -1.6187  4.6124
  466MOL0     H64279   8.000   2.175  11.591 -0.3152 -6.2618 -0.2000
  466MOL0     H64280   8.028   2.380  11.412 -2.8301 -1.4228  1.1092
  466MOL0     H64281   8.155   2.265  11.464 -1.4690 -1.0233  2.3072
  466MOL0     H64282   8.007   2.262  11.197 -1.7756 -1.9532  2.4445
  466MOL0     H64283   8.102   2.129  11.255  0.4262  0.3488 -0.7744
  466MOL0     H64284   8.310   2.246  11.262 -1.0577 -3.9219 -1.6975
  466MOL0     H64285   8.226   2.406  11.238  0.0019 -0.3503  1.3519
  466MOL0     H64286   8.130   2.314  11.026 -0.5484  0.2541  0.5366
  466MOL0     H64287   8.274   2.202  11.037 -0.1862  1.9985 -3.5916
  466MOL0     H64288   7.705   1.791  11.210 -0.0668 -0.0528  0.7204
  466MOL0     H64289   7.574   1.642  11.089  0.2267 -3.8855  0.5611
  466MOL0     H64290   6.992   1.438  11.307  0.3152  0.4455 -3.1292
  466MOL0     H64291   6.882   1.217  11.339  0.8671 -1.7286  1.7388
  466MOL0     H64292   6.748   1.349   9.807 -1.9414 -2.7584 -2.4065
  466MOL0     H64293   6.952   1.421   9.924 -0.5150  0.6366 -0.2203
  466MOL0     H64294   7.180   1.339  10.397 -1.3762  1.9846 -3.0537
  466MOL0     H64295   7.370   1.381  10.530  0.6322  0.7491 -0.5172
  466MOL0     H64296   7.752   1.311  10.593  2.2295  2.8745 -0.9894
  466MOL0     H64297   7.605   1.219  10.536  0.1044 -0.6879 -1.3002
  466MOL0     H64298   7.836   1.300  10.363 -0.8980  0.3056 -1.7286
  466MOL0     H64299   7.709   1.183  10.330 -0.5455 -0.7161  1.1689
  466MOL0     H64300   7.918   1.128  10.554  0.8373  0.0265 -0.8729
  466MOL0     H64301   7.770   1.042  10.536 -0.6177  1.7577  0.3268
  466MOL0     H64302   7.974   1.043  10.322 -2.0268  0.8260 -3.1851
  466MOL0     H64303   7.814   0.965  10.317 -1.8463  2.2910  1.4356
  466MOL0     H64304   8.063   0.739  10.600 -0.4146  0.0388  0.4230
  466MOL0     H64305   7.624   1.375  10.175  1.1895 -0.1930  0.6322
  466MOL0     H64306   7.534   1.373   9.984  0.1887 -2.6057  1.2484
  466MOL0     H64307   7.405   1.246   9.966 -0.7602  0.1262 -1.1921
  466MOL0     H64308   7.358   1.408   9.940  0.0516 -0.7910  0.0023
  467MOL0     O64309   9.681  10.281   7.623  0.1787  0.3937  0.0137
  467MOL0     C64310   9.652  10.339   7.518  0.0171  0.5185 -1.1209
  467MOL0     O64311   9.738  10.436   7.464  0.1502 -0.0737 -0.1730
  467MOL0     C64312   9.860  10.453   7.525 -0.5884  0.3801 -0.5031
  467MOL0     C64313   9.883  10.568   7.593  0.5599 -0.5305  0.0388
  467MOL0     C64314   9.997  10.592   7.660 -0.2787 -0.6483 -0.2050
  467MOL0     C64315  10.104  10.492   7.661  0.1960 -0.3011  0.4409
  467MOL0     O64316  10.221  10.504   7.724  0.7642 -0.1550 -0.8045
  467MOL0     C64317  10.253  10.633   7.775  0.2280 -0.4496 -0.6523
  467MOL0     C64318  10.391  10.620   7.818  0.2213  0.0300 -0.7045
  467MOL0     C64319  10.439  10.751   7.874  1.2916 -0.0700  0.2600
  467MOL0     C64320  10.585  10.742   7.908 -0.4342 -0.0316  0.1993
  467MOL0     C64321  10.637  10.865   7.975  0.5185  0.0027  0.2383
  467MOL0     C64322  10.794  10.867   8.009 -0.3434  0.0268 -0.1284
  467MOL0     C64323  10.837  11.010   8.001 -0.3467 -0.2499 -0.1721
  467MOL0     C64324  10.783  11.126   8.084  0.5158  0.7019  0.3107
  467MOL0     N64325  10.879  11.242   8.075  0.3687 -0.0316  0.4461
  467MOL0     C64326  10.897  11.302   7.951 -0.6794 -0.4593 -0.8170
  467MOL0     C64327  10.975  11.413   7.986  0.9001  0.7394  0.4704
  467MOL0     C64328  11.047  11.522   7.901 -0.3301  0.1662 -0.3761
  467MOL0     C64329  11.191  11.489   7.861 -0.4915 -0.3598 -0.2397
  467MOL0     C64330  11.274  11.613   7.830  0.1382  0.1483 -0.1827
  467MOL0     C64331  11.422  11.594   7.806  0.3916  0.1302 -0.2645
  467MOL0     O64332  11.475  11.716   7.750  0.0880 -0.3752 -0.3932
  467MOL0     C64333  11.613  11.738   7.752 -0.0064  0.5915 -0.0099
  467MOL0     C64334  11.656  11.867   7.743  0.2573  1.0073  0.2466
  467MOL0     C64335  11.799  11.895   7.745 -0.3879  0.5283 -0.4513
  467MOL0     C64336  11.839  12.037   7.735 -0.4504 -0.4894 -0.2536
  467MOL0     C64337  11.892  11.791   7.769  0.2681  0.5250  0.2924
  467MOL0     C64338  12.032  11.815   7.783  0.5520 -0.0679  0.9371
  467MOL0     O64339  12.089  11.866   7.670  0.6420  0.0282 -0.0751
  467MOL0     C64340  12.223  11.847   7.665 -0.7802 -0.2063  0.0576
  467MOL0     C64341  12.306  11.950   7.704 -0.1460 -0.3774  1.1615
  467MOL0     C64342  12.451  11.929   7.697 -0.7104  0.2490 -0.7856
  467MOL0     C64343  12.503  11.808   7.644 -0.6059  0.8602  1.1253
  467MOL0     O64344  12.639  11.794   7.649 -0.3188 -0.3659  0.3243
  467MOL0     C64345  12.702  11.665   7.620  0.0778  0.7195 -0.8442
  467MOL0     C64346  12.863  11.675   7.633 -0.5335 -0.6884 -0.3670
  467MOL0     C64347  12.934  11.785   7.562 -0.2788 -0.0672 -0.5440
  467MOL0     C64348  13.084  11.802   7.595  0.0555 -0.0596  0.6486
  467MOL0     C64349  13.137  11.924   7.512  1.2795 -0.7175  0.3728
  467MOL0     C64350  13.095  11.918   7.364  0.1742  0.3751  0.1104
  467MOL0     C64351  13.186  12.019   7.290  0.5302 -0.0359 -0.6461
  467MOL0     C64352  13.195  12.009   7.137  0.6006  0.3864  0.6800
  467MOL0    Cl64353  13.035  11.982   7.065  0.3539 -0.0638 -0.2763
  467MOL0     C64354  12.417  11.707   7.601  0.4349 -0.4392 -0.1490
  467MOL0     C64355  12.281  11.726   7.611  0.3670 -0.2104  0.1761
  467MOL0     O64356  12.099  11.781   7.885  0.9602 -0.3399 -0.8008
  467MOL0     C64357  11.844  11.658   7.777 -0.8930  0.4770 -0.5461
  467MOL0     C64358  11.708  11.637   7.779 -0.1737  0.0773 -0.3661
  467MOL0     N64359  11.002  11.410   8.120 -0.8568 -0.2258 -0.8736
  467MOL0     N64360  10.954  11.303   8.173  0.7677 -0.4352  0.8903
  467MOL0     C64361  10.088  10.374   7.583  0.9934 -0.0289 -0.5362
  467MOL0     C64362   9.965  10.353   7.512 -0.4340 -1.0129 -0.1174
  467MOL0     C64363   9.521  10.323   7.447  0.9255  0.1586  0.5971
  467MOL0     C64364   9.499  10.407   7.336  0.4391  0.4807  0.0221
  467MOL0     C64365   9.384  10.406   7.266  0.0526  0.5411  0.2670
  467MOL0     C64366   9.281  10.323   7.295 -0.3121  1.3286  0.8490
  467MOL0     O64367   9.158  10.317   7.222 -0.1950 -0.0920  0.1828
  467MOL0     C64368   9.147  10.366   7.092  0.0187  0.3245  0.1250
  467MOL0     C64369   9.008  10.333   7.042  0.8697  0.3777 -0.3534
  467MOL0     C64370   8.975  10.367   6.899 -1.0479  0.3921 -0.7097
  467MOL0     C64371   8.955  10.523   6.889  0.5514  0.2270  0.5686
  467MOL0     C64372   8.829  10.560   6.954 -0.0451  0.1902  1.2630
  467MOL0     C64373   8.726  10.570   7.016 -0.0555 -0.8214  0.3240
  467MOL0     C64374   9.301  10.233   7.402 -0.1839 -0.4699 -0.0573
  467MOL0     C64375   9.414  10.236   7.479 -0.7700  0.6421  0.0650
  467MOL0     C64376   9.415  10.156   7.616  0.4868 -0.1739  1.0458
  467MOL0     H64377   9.807  10.646   7.592  1.5112  0.4232  0.5388
  467MOL0     H64378  10.011  10.690   7.704  2.4912 -0.5020 -1.1980
  467MOL0     H64379  10.192  10.657   7.862 -0.5001 -0.0825 -1.2464
  467MOL0     H64380  10.248  10.707   7.694 -0.4821  0.3906  0.1447
  467MOL0     H64381  10.400  10.534   7.884 -0.9706  0.8425  0.5804
  467MOL0     H64382  10.451  10.594   7.730  3.7889  1.3896  1.1100
  467MOL0     H64383  10.420  10.829   7.800 -1.8660 -1.1143 -0.1779
  467MOL0     H64384  10.383  10.781   7.963  0.5163 -0.5310 -0.0669
  467MOL0     H64385  10.606  10.657   7.974  2.2215 -1.2378 -2.0040
  467MOL0     H64386  10.646  10.733   7.818 -2.9438 -0.8318 -1.5005
  467MOL0     H64387  10.584  10.874   8.070  1.4326 -2.7356  1.0969
  467MOL0     H64388  10.616  10.948   7.906 -1.6252 -0.2389  0.5258
  467MOL0     H64389  10.818  10.824   8.107 -0.7248 -2.0647 -0.8987
  467MOL0     H64390  10.847  10.806   7.935  0.0882  1.1768 -0.7964
  467MOL0     H64391  10.834  11.033   7.894 -4.8496  1.6908  0.1575
  467MOL0     H64392  10.943  10.999   8.025 -0.3707 -0.5462 -0.1922
  467MOL0     H64393  10.682  11.148   8.048  0.8784 -0.1393 -1.3567
  467MOL0     H64394  10.752  11.099   8.185 -4.5355  2.3140 -0.5075
  467MOL0     H64395  10.866  11.276   7.851  0.4377 -0.5538 -1.1514
  467MOL0     H64396  11.053  11.601   7.976  1.5125 -0.7308  0.5085
  467MOL0     H64397  10.985  11.534   7.812 -1.2959 -1.1053  0.0896
  467MOL0     H64398  11.240  11.434   7.942  1.3856 -2.0415 -2.4100
  467MOL0     H64399  11.186  11.428   7.770 -1.4373 -0.6000 -0.0468
  467MOL0     H64400  11.219  11.661   7.748 -3.3695 -2.5049  0.3865
  467MOL0     H64401  11.268  11.672   7.922  1.1073 -0.0956  0.0454
  467MOL0     H64402  11.462  11.593   7.908 -2.6564  1.0608  1.0437
  467MOL0     H64403  11.434  11.508   7.739 -1.8714 -0.4056 -0.0639
  467MOL0     H64404  11.581  11.945   7.742  1.1401  1.9428  2.2370
  467MOL0     H64405  11.758  12.102   7.700  0.2650  0.2305 -0.6153
  467MOL0     H64406  11.919  12.056   7.663 -0.5656 -0.7852 -0.4615
  467MOL0     H64407  11.884  12.074   7.827 -2.7876 -0.4845  0.9663
  467MOL0     H64408  12.268  12.045   7.741  0.6201  0.4417 -0.0718
  467MOL0     H64409  12.518  12.004   7.739 -1.2751  0.6266 -0.5603
  467MOL0     H64410  12.672  11.592   7.696  4.0459  1.3651  1.6328
  467MOL0     H64411  12.671  11.623   7.524  1.0980 -0.3985 -0.7153
  467MOL0     H64412  12.874  11.683   7.741 -1.9670 -1.4362 -0.1469
  467MOL0     H64413  12.909  11.581   7.601 -1.1858 -0.9945 -0.4260
  467MOL0     H64414  12.879  11.879   7.563  0.4190  0.3917 -2.4410
  467MOL0     H64415  12.923  11.762   7.456 -1.5948 -1.8851 -0.0651
  467MOL0     H64416  13.137  11.707   7.582  2.6796  1.2583  1.0918
  467MOL0     H64417  13.100  11.816   7.702 -1.1313  0.3778  0.7762
  467MOL0     H64418  13.104  12.016   7.561  0.6197 -1.4004  1.2354
  467MOL0     H64419  13.245  11.910   7.518  1.1911 -2.8313 -1.4278
  467MOL0     H64420  12.989  11.935   7.340  0.3703 -0.2578 -1.3389
  467MOL0     H64421  13.107  11.813   7.336 -1.7270 -0.1756  1.1861
  467MOL0     H64422  13.287  12.017   7.331  0.1344 -1.0438  0.3318
  467MOL0     H64423  13.152  12.118   7.319  1.0854 -0.2387  0.7425
  467MOL0     H64424  13.263  11.930   7.106 -1.0906 -1.0512  0.4805
  467MOL0     H64425  13.239  12.103   7.103  0.2034  0.1145 -0.6582
  467MOL0     H64426  12.461  11.614   7.566  2.1778  1.1860 -2.5409
  467MOL0     H64427  12.212  11.645   7.586 -0.5047  0.2297  1.0554
  467MOL0     H64428  11.920  11.580   7.787 -0.6015  0.8049 -0.1765
  467MOL0     H64429  11.680  11.533   7.767  1.3614 -0.0478 -3.9503
  467MOL0     H64430  10.170  10.303   7.585  1.3217  0.3573 -0.1530
  467MOL0     H64431   9.969  10.260   7.458  0.5550 -2.6253  2.5542
  467MOL0     H64432   9.576  10.474   7.299 -0.1946  0.6496 -1.0341
  467MOL0     H64433   9.374  10.476   7.183  1.1698 -1.6242 -1.8417
  467MOL0     H64434   9.154  10.475   7.106  1.8550  0.2491  0.1019
  467MOL0     H64435   9.232  10.341   7.028 -1.2849 -1.1535 -1.0970
  467MOL0     H64436   8.935  10.389   7.101  0.8930 -0.8345  0.8521
  467MOL0     H64437   8.986  10.228   7.060  0.2212  0.7536  1.1756
  467MOL0     H64438   9.057  10.338   6.831 -2.1733  0.8205 -2.3075
  467MOL0     H64439   8.892  10.307   6.863  0.5563 -4.3651  2.5167
  467MOL0     H64440   8.963  10.557   6.785  1.0337 -2.5688 -0.3947
  467MOL0     H64441   9.038  10.583   6.929  0.6700  0.6406 -0.2675
  467MOL0     H64442   8.643  10.571   7.083  1.2029 -0.6035  1.9355
  467MOL0     H64443   9.221  10.167   7.433 -1.5782  1.3559  0.4274
  467MOL0     H64444   9.433  10.222   7.701  0.0048 -0.4719  1.3878
  467MOL0     H64445   9.316  10.110   7.629 -0.9172  2.5408  0.8711
  467MOL0     H64446   9.494  10.081   7.614  3.3863  2.6785  0.9527
  468MOL0     O64447   7.122   4.986   9.679 -0.6858  0.5313  0.4371
  468MOL0     C64448   7.096   5.070   9.766  1.0788 -0.4921  0.5021
  468MOL0     O64449   6.987   5.156   9.755 -0.8429  0.5722  0.2484
  468MOL0     C64450   6.899   5.141   9.648 -0.7169  0.5302 -0.4759
  468MOL0     C64451   6.778   5.071   9.665 -0.0593  0.3801 -0.7203
  468MOL0     C64452   6.681   5.050   9.563 -0.5470  0.2365  0.0508
  468MOL0     C64453   6.709   5.103   9.437  0.6464  0.2012 -0.3285
  468MOL0     O64454   6.632   5.098   9.323 -0.6850 -0.0002 -0.9128
  468MOL0     C64455   6.495   5.039   9.337  0.2821 -0.2440  0.9434
  468MOL0     C64456   6.425   5.058   9.200  0.2262 -0.7885 -0.1600
  468MOL0     C64457   6.297   4.985   9.181 -0.0645  0.3921 -0.6883
  468MOL0     C64458   6.230   5.008   9.050  0.8557 -0.3226  0.2444
  468MOL0     C64459   6.300   4.969   8.920 -0.7150  0.5777 -0.1972
  468MOL0     C64460   6.284   4.824   8.882 -0.0601  0.1938  1.0824
  468MOL0     C64461   6.326   4.808   8.738  0.2571 -0.6551  0.2026
  468MOL0     C64462   6.363   4.670   8.691 -0.2092  0.7246  0.0977
  468MOL0     N64463   6.257   4.570   8.698  0.1609 -0.0332 -0.4111
  468MOL0     C64464   6.233   4.484   8.799 -0.6626 -0.2823  0.7679
  468MOL0     C64465   6.121   4.411   8.770  0.1648 -0.3425  0.1707
  468MOL0     C64466   6.066   4.292   8.840  1.2101 -0.0167  0.3783
  468MOL0     C64467   5.939   4.317   8.918 -0.0385  0.4261 -0.1496
  468MOL0     C64468   5.963   4.444   9.013  0.6716  0.3229 -0.2240
  468MOL0     C64469   5.835   4.470   9.095 -0.0880  0.2387  0.1354
  468MOL0     O64470   5.801   4.350   9.166 -0.0443  0.6729  0.6891
  468MOL0     C64471   5.707   4.355   9.268 -0.0584 -0.1040  0.4191
  468MOL0     C64472   5.693   4.242   9.339 -0.6642  0.3678 -0.7423
  468MOL0     C64473   5.619   4.245   9.457  0.5115  0.3649  0.4449
  468MOL0     C64474   5.626   4.116   9.538  0.0353 -0.5389  0.2438
  468MOL0     C64475   5.547   4.358   9.507 -0.9266  0.8710 -0.2637
  468MOL0     C64476   5.464   4.353   9.645 -0.3445  0.1841 -0.6500
  468MOL0     O64477   5.365   4.446   9.647 -0.7419 -0.1047 -0.1069
  468MOL0     C64478   5.271   4.446   9.746 -0.3636 -0.2450  0.0902
  468MOL0     C64479   5.237   4.565   9.801  0.7771 -0.3745 -0.0606
  468MOL0     C64480   5.129   4.570   9.891  0.1415 -0.7626  0.2669
  468MOL0     C64481   5.065   4.456   9.941 -0.0949 -0.4718  0.3350
  468MOL0     O64482   4.954   4.471  10.019 -0.0091 -0.2653 -0.0722
  468MOL0     C64483   4.968   4.575  10.123 -0.1686 -0.1308  0.4856
  468MOL0     C64484   4.824   4.604  10.188 -0.4709 -0.6927 -0.1399
  468MOL0     C64485   4.787   4.491  10.273 -0.8432 -0.4650  0.0820
  468MOL0     C64486   4.637   4.474  10.298 -0.0232  0.4516 -0.2922
  468MOL0     C64487   4.602   4.352  10.382  0.6996 -0.4179  0.6237
  468MOL0     C64488   4.449   4.316  10.400 -0.3712 -0.4048 -0.3476
  468MOL0     C64489   4.392   4.420  10.495 -0.3532  0.0970 -0.1124
  468MOL0     C64490   4.256   4.388  10.543  0.1875 -0.4323  0.0335
  468MOL0    Cl64491   4.257   4.218  10.612  0.2649 -0.3202  0.0236
  468MOL0     C64492   5.104   4.337   9.878 -0.3426  0.3095 -0.0358
  468MOL0     C64493   5.195   4.335   9.777 -0.0625 -0.1466  0.4167
  468MOL0     O64494   5.479   4.273   9.732  0.0152  1.0489 -0.0991
  468MOL0     C64495   5.559   4.472   9.420  0.1724 -0.2627 -0.6610
  468MOL0     C64496   5.637   4.474   9.303 -0.9074  0.5092  0.6779
  468MOL0     N64497   6.072   4.467   8.649 -0.3143  0.4527 -0.6265
  468MOL0     N64498   6.154   4.558   8.612 -0.1692  0.6425 -0.3285
  468MOL0     C64499   6.825   5.172   9.415  0.6217 -0.3688  0.0072
  468MOL0     C64500   6.919   5.197   9.525  1.0082 -0.6918 -0.7604
  468MOL0     C64501   7.192   5.101   9.859 -0.2932 -0.5664  1.0260
  468MOL0     C64502   7.322   5.148   9.822  0.2158 -0.4954  0.6151
  468MOL0     C64503   7.419   5.182   9.924 -0.9255 -0.6153 -0.1020
  468MOL0     C64504   7.377   5.190  10.057 -0.6124  0.7805 -0.4054
  468MOL0     O64505   7.478   5.234  10.139  0.2482 -0.7501 -0.1809
  468MOL0     C64506   7.446   5.267  10.279 -0.1604  0.4659 -0.1232
  468MOL0     C64507   7.554   5.359  10.328  0.1943  0.2854 -0.0196
  468MOL0     C64508   7.543   5.372  10.482  0.3863  0.2211 -0.0962
  468MOL0     C64509   7.412   5.430  10.537  1.3130  0.0524  0.3734
  468MOL0     C64510   7.430   5.463  10.676 -0.1665 -0.1024 -0.7957
  468MOL0     C64511   7.443   5.465  10.795  0.7284 -0.6953  0.4846
  468MOL0     C64512   7.252   5.145  10.097  0.3150 -0.2111  0.0526
  468MOL0     C64513   7.163   5.093   9.992  0.3556 -0.3146 -0.7092
  468MOL0     C64514   7.024   5.045  10.038  0.2355 -0.7662 -1.0698
  468MOL0     H64515   6.765   5.023   9.761 -0.9705  0.8586 -0.5894
  468MOL0     H64516   6.591   4.993   9.586 -1.4868  0.9947 -1.5693
  468MOL0     H64517   6.439   5.084   9.420  0.8690  1.0625  0.6455
  468MOL0     H64518   6.501   4.932   9.359 -3.0007 -1.1047 -1.5735
  468MOL0     H64519   6.412   5.166   9.193 -3.3584 -0.8996  1.8318
  468MOL0     H64520   6.494   5.030   9.120  1.7135 -0.7471  1.0598
  468MOL0     H64521   6.303   4.880   9.212  0.0929  0.5061 -0.3227
  468MOL0     H64522   6.232   5.029   9.257  2.0564 -0.0407  1.4878
  468MOL0     H64523   6.133   4.957   9.057  1.8112 -2.3062 -0.0465
  468MOL0     H64524   6.201   5.113   9.041 -1.4085 -1.0100 -1.5593
  468MOL0     H64525   6.405   4.999   8.924 -0.4910  0.0678 -1.7517
  468MOL0     H64526   6.247   5.020   8.840 -2.1313 -1.4833 -0.6519
  468MOL0     H64527   6.348   4.759   8.943  1.9885  1.2431  0.1299
  468MOL0     H64528   6.175   4.812   8.885 -0.5155  3.5044  1.5341
  468MOL0     H64529   6.411   4.872   8.716 -0.4559  0.4839  0.6874
  468MOL0     H64530   6.243   4.852   8.681  0.8545 -1.3955 -1.2902
  468MOL0     H64531   6.411   4.676   8.594 -1.3317  0.3031 -0.5004
  468MOL0     H64532   6.440   4.634   8.761 -1.2570  0.7855  1.3299
  468MOL0     H64533   6.297   4.478   8.887  3.0017 -3.3468 -1.7796
  468MOL0     H64534   6.136   4.241   8.907  0.3566  1.1044  2.1945
  468MOL0     H64535   6.049   4.218   8.761 -1.8812 -0.4890  1.3353
  468MOL0     H64536   5.858   4.346   8.851 -2.8174 -1.3278  2.2103
  468MOL0     H64537   5.922   4.231   8.984  1.0245 -0.5939 -1.1603
  468MOL0     H64538   6.042   4.427   9.087  1.3887  0.0306 -1.0432
  468MOL0     H64539   5.985   4.536   8.958  2.4414 -0.5768 -1.0968
  468MOL0     H64540   5.860   4.553   9.162 -1.0904  1.2392 -0.6999
  468MOL0     H64541   5.752   4.491   9.027  0.9885 -0.0468 -1.3162
  468MOL0     H64542   5.763   4.165   9.311 -0.3640  1.1581 -2.2444
  468MOL0     H64543   5.673   4.039   9.476  3.9451  3.3902 -2.2537
  468MOL0     H64544   5.526   4.093   9.578 -0.4764  3.0865  1.4024
  468MOL0     H64545   5.683   4.129   9.631  1.2108 -0.0169 -0.5295
  468MOL0     H64546   5.288   4.653   9.764 -3.5795  1.5746 -2.0972
  468MOL0     H64547   5.098   4.671   9.915 -0.1510 -0.4856 -1.1853
  468MOL0     H64548   5.042   4.557  10.202 -1.1198  3.7778  2.4996
  468MOL0     H64549   5.005   4.673  10.091  0.6053  0.7481  3.6668
  468MOL0     H64550   4.820   4.698  10.245 -0.5910  0.7849 -2.4332
  468MOL0     H64551   4.755   4.616  10.105 -1.2734 -1.2102  0.4354
  468MOL0     H64552   4.836   4.508  10.370 -0.9044  1.4721 -0.1786
  468MOL0     H64553   4.821   4.403  10.218  1.5222  1.9800 -2.7485
  468MOL0     H64554   4.592   4.457  10.199 -1.2821  0.6300  0.2343
  468MOL0     H64555   4.600   4.564  10.347 -2.9959 -0.9294  0.1850
  468MOL0     H64556   4.659   4.262  10.359 -0.5934 -1.5363  1.6642
  468MOL0     H64557   4.640   4.382  10.480  1.2387 -0.4524  0.4326
  468MOL0     H64558   4.449   4.218  10.449  1.3491  0.9731  2.6501
  468MOL0     H64559   4.393   4.317  10.306 -0.4273 -0.3011 -0.3134
  468MOL0     H64560   4.382   4.516  10.443  1.5882 -0.5794 -1.8700
  468MOL0     H64561   4.454   4.436  10.583 -0.8953  0.3176  0.2394
  468MOL0     H64562   4.180   4.408  10.467  1.8434  2.0516 -1.0917
  468MOL0     H64563   4.245   4.461  10.624 -0.5969 -1.1966  0.6411
  468MOL0     H64564   5.051   4.247   9.908 -1.0852  1.4208  2.2417
  468MOL0     H64565   5.205   4.239   9.728 -4.0746  0.1268 -1.2810
  468MOL0     H64566   5.503   4.561   9.445 -0.1444 -0.8921  1.0036
  468MOL0     H64567   5.641   4.564   9.242 -1.2209 -0.5494 -0.9727
  468MOL0     H64568   6.843   5.204   9.313 -0.3763 -0.0171 -0.0752
  468MOL0     H64569   7.005   5.258   9.500 -0.8257  2.4478  0.0345
  468MOL0     H64570   7.338   5.163   9.715 -0.2370  2.3629  0.8542
  468MOL0     H64571   7.521   5.208   9.898 -1.5048  0.5890 -1.2905
  468MOL0     H64572   7.348   5.314  10.294  1.4872  3.4339  2.6383
  468MOL0     H64573   7.437   5.174  10.335 -0.2251  1.2773  1.2387
  468MOL0     H64574   7.551   5.448  10.265 -3.6599 -1.3191 -2.4541
  468MOL0     H64575   7.654   5.318  10.310  0.3047  0.0996  0.9555
  468MOL0     H64576   7.549   5.270  10.519  2.4446  0.1538 -0.4991
  468MOL0     H64577   7.617   5.438  10.529 -1.5969 -0.5326  4.5689
  468MOL0     H64578   7.330   5.360  10.520  0.5006  1.1751 -0.5022
  468MOL0     H64579   7.380   5.523  10.489  2.0766  0.8324  1.3219
  468MOL0     H64580   7.451   5.442  10.900 -0.4848 -1.1803  0.4887
  468MOL0     H64581   7.219   5.151  10.200 -2.5594  1.6012 -0.8213
  468MOL0     H64582   7.027   5.017  10.143  0.7708 -2.9733 -1.6234
  468MOL0     H64583   6.961   5.131  10.014  2.4514  1.5183  0.7088
  468MOL0     H64584   6.986   4.964   9.975  1.2252  1.5500 -4.9796
  469MOL0     O64585   9.317   9.655   0.080  0.1080  0.1852 -0.0560
  469MOL0     C64586   9.205   9.607   0.047 -0.9534 -0.5787 -0.4922
  469MOL0     O64587   9.094   9.610   0.114 -0.0668  0.7806  0.6685
  469MOL0     C64588   9.082   9.668   0.239 -0.0426 -0.8489  0.3743
  469MOL0     C64589   9.129   9.794   0.283 -0.7428  0.9298  0.1529
  469MOL0     C64590   9.120   9.845   0.408 -0.5619 -0.0307  0.4535
  469MOL0     C64591   9.050   9.767   0.503  0.5618 -0.2565  0.3036
  469MOL0     O64592   9.037   9.817   0.628 -1.0919  0.2195 -0.8244
  469MOL0     C64593   8.905   9.824   0.683 -0.0166  0.5544 -0.3280
  469MOL0     C64594   8.893   9.859   0.829  0.6612  0.3721 -0.4740
  469MOL0     C64595   8.938   9.738   0.908 -0.3720  0.3637  0.9303
  469MOL0     C64596   8.930   9.762   1.060  0.0586 -0.4970  0.2855
  469MOL0     C64597   8.953   9.642   1.145  0.1562  0.6239 -0.4978
  469MOL0     C64598   8.911   9.662   1.291 -0.6190 -0.6673  0.3066
  469MOL0     C64599   8.760   9.650   1.312  0.5023  0.3849 -1.3909
  469MOL0     C64600   8.724   9.659   1.459 -0.3131  0.0856  0.2635
  469MOL0     N64601   8.791   9.569   1.553 -0.3129 -0.8118 -1.0613
  469MOL0     C64602   8.916   9.591   1.608 -0.5120  0.3295 -0.6568
  469MOL0     C64603   8.946   9.476   1.660 -0.1724  0.2118 -0.2701
  469MOL0     C64604   9.086   9.466   1.722 -0.7381 -0.2784 -0.4916
  469MOL0     C64605   9.087   9.424   1.868  0.2220  0.3930  0.2802
  469MOL0     C64606   8.991   9.500   1.944  0.3823  0.3287 -0.3961
  469MOL0     C64607   9.027   9.468   2.098 -0.0663  0.7356  0.0151
  469MOL0     O64608   9.054   9.317   2.116 -0.0893 -0.5986 -0.0536
  469MOL0     C64609   8.945   9.228   2.107 -0.0257 -0.1083 -0.2035
  469MOL0     C64610   8.965   9.098   2.060 -0.0439 -0.3643  0.1390
  469MOL0     C64611   8.881   8.984   2.053  0.2746 -0.1258  0.1047
  469MOL0     C64612   8.925   8.860   1.990  0.6920 -0.0164 -0.0153
  469MOL0     C64613   8.748   9.015   2.102  0.9573 -0.6199 -0.2731
  469MOL0     C64614   8.634   8.919   2.124  0.3158 -0.3978  0.0132
  469MOL0     O64615   8.506   8.965   2.153  0.7270 -0.4921  0.3845
  469MOL0     C64616   8.408   8.888   2.205 -0.3831  0.2761 -0.0355
  469MOL0     C64617   8.280   8.926   2.180 -1.2173  0.1868  0.2789
  469MOL0     C64618   8.178   8.857   2.238  0.8851 -0.3332  0.6054
  469MOL0     C64619   8.195   8.745   2.318  0.4813 -0.1395  0.5954
  469MOL0     O64620   8.085   8.699   2.385  0.4355  0.5290  0.5232
  469MOL0     C64621   8.102   8.604   2.496 -0.8543  0.3958 -0.8120
  469MOL0     C64622   7.982   8.584   2.593 -0.8759 -0.1085  0.5537
  469MOL0     C64623   7.875   8.502   2.514 -0.2490  0.1389  0.0766
  469MOL0     C64624   7.746   8.594   2.499 -0.8179  0.0484  0.0520
  469MOL0     C64625   7.650   8.538   2.388  0.7980  0.2461 -0.0404
  469MOL0     C64626   7.517   8.610   2.374 -0.1120  0.6059  0.7435
  469MOL0     C64627   7.417   8.563   2.486  1.0580 -0.3196  0.2104
  469MOL0     C64628   7.301   8.660   2.485  0.1862  0.5559  0.9122
  469MOL0    Cl64629   7.156   8.596   2.575  0.0061  0.1338 -0.0221
  469MOL0     C64630   8.326   8.701   2.330 -0.4640  0.3718  0.1774
  469MOL0     C64631   8.434   8.774   2.279 -0.2687 -0.8447 -0.1617
  469MOL0     O64632   8.664   8.805   2.100  0.1563 -0.0844  0.2331
  469MOL0     C64633   8.724   9.152   2.153  0.3617  0.2506 -0.2692
  469MOL0     C64634   8.816   9.250   2.161  0.9795 -0.2588  0.1382
  469MOL0     N64635   8.848   9.379   1.655 -0.0874  0.6233 -0.4077
  469MOL0     N64636   8.752   9.438   1.583  0.0033 -0.7008 -0.4272
  469MOL0     C64637   8.998   9.639   0.464  0.1047  0.3611  0.5106
  469MOL0     C64638   9.011   9.597   0.330 -0.4592 -0.5875 -0.3986
  469MOL0     C64639   9.199   9.545  -0.091 -0.3973 -0.5251 -0.4341
  469MOL0     C64640   9.105   9.598  -0.175 -0.7851  0.0339  0.1584
  469MOL0     C64641   9.093   9.541  -0.304  0.9549 -0.3576  0.2556
  469MOL0     C64642   9.177   9.431  -0.354 -0.7423 -0.2750 -0.5607
  469MOL0     O64643   9.169   9.387  -0.481 -0.3993 -0.2763  0.1166
  469MOL0     C64644   9.045   9.389  -0.564 -0.7469  0.5460  0.0060
  469MOL0     C64645   8.950   9.284  -0.517  0.1705 -0.5623  0.8185
  469MOL0     C64646   8.835   9.261  -0.615 -0.2232 -0.0003 -0.3039
  469MOL0     C64647   8.724   9.366  -0.585  0.4029 -0.0835 -0.1199
  469MOL0     C64648   8.635   9.375  -0.698 -0.0338  0.2314  0.1457
  469MOL0     C64649   8.560   9.393  -0.793 -0.0806 -0.1907 -0.4261
  469MOL0     C64650   9.275   9.384  -0.263  0.2222 -0.2069 -0.4994
  469MOL0     C64651   9.274   9.433  -0.128 -0.3818 -0.2565 -0.3804
  469MOL0     C64652   9.338   9.342  -0.027 -0.1157  1.0351  0.3354
  469MOL0     H64653   9.182   9.858   0.213  0.8609  0.0841  0.5461
  469MOL0     H64654   9.151   9.944   0.440 -0.8952 -0.4709  2.2521
  469MOL0     H64655   8.854   9.728   0.671 -0.0895  0.7370 -1.6378
  469MOL0     H64656   8.841   9.900   0.636 -0.2423  1.0817  0.8092
  469MOL0     H64657   8.959   9.944   0.846  1.8041 -0.3431 -1.1358
  469MOL0     H64658   8.788   9.876   0.851  0.1211  1.9858 -3.7286
  469MOL0     H64659   8.871   9.654   0.887 -0.0099  0.0839  0.8947
  469MOL0     H64660   9.045   9.728   0.890  0.0516  3.0274  1.4588
  469MOL0     H64661   8.987   9.852   1.086  1.1571 -0.8483 -0.7703
  469MOL0     H64662   8.831   9.793   1.093 -0.3650 -3.0561  1.6618
  469MOL0     H64663   9.060   9.620   1.148  0.1212  0.1816 -1.7027
  469MOL0     H64664   8.885   9.569   1.100  0.2238  1.2531 -1.6811
  469MOL0     H64665   8.963   9.577   1.336  0.5098  1.1248  2.6394
  469MOL0     H64666   8.956   9.752   1.334 -0.3193 -0.6540 -0.0273
  469MOL0     H64667   8.728   9.553   1.274  3.1443 -1.8750  1.5735
  469MOL0     H64668   8.711   9.737   1.266  0.2968 -0.0219 -1.9506
  469MOL0     H64669   8.740   9.763   1.489  0.5381  0.1371 -0.3291
  469MOL0     H64670   8.616   9.641   1.460 -0.1223 -1.5782 -1.8057
  469MOL0     H64671   8.990   9.669   1.593 -3.2489  3.4019  0.4988
  469MOL0     H64672   9.127   9.567   1.726  0.1098 -0.6016 -0.8855
  469MOL0     H64673   9.158   9.418   1.656  2.7260  2.0174  1.3187
  469MOL0     H64674   9.068   9.317   1.873  0.5405  0.3291  0.1133
  469MOL0     H64675   9.188   9.439   1.906 -0.3593 -2.0592  3.1110
  469MOL0     H64676   9.003   9.608   1.927  0.6786  0.2332 -0.8133
  469MOL0     H64677   8.888   9.466   1.931  0.2349 -0.6351  2.5080
  469MOL0     H64678   9.114   9.529   2.124  0.4659  0.1933 -0.4764
  469MOL0     H64679   8.941   9.498   2.158  0.3500  0.2867  0.8522
  469MOL0     H64680   9.071   9.101   2.033 -0.6389  1.7394 -2.3846
  469MOL0     H64681   9.023   8.876   1.945  1.0420 -2.5462 -0.3008
  469MOL0     H64682   8.853   8.845   1.910  1.5766 -0.5421 -0.7303
  469MOL0     H64683   8.928   8.776   2.060 -0.6270  1.0197  1.3616
  469MOL0     H64684   8.256   9.011   2.116 -1.5181 -1.4635 -1.9386
  469MOL0     H64685   8.077   8.895   2.228  1.3177  1.1128  1.4759
  469MOL0     H64686   8.145   8.512   2.456  0.7830  1.4445 -1.5901
  469MOL0     H64687   8.184   8.643   2.558  0.0479  0.7451 -2.1802
  469MOL0     H64688   8.012   8.531   2.684  0.8626  2.2182  1.4464
  469MOL0     H64689   7.939   8.676   2.633 -3.3864  0.6587 -3.4135
  469MOL0     H64690   7.851   8.410   2.567 -0.3100 -0.2215 -0.5772
  469MOL0     H64691   7.907   8.474   2.414  1.7665  0.0231  0.6917
  469MOL0     H64692   7.779   8.694   2.471 -1.3589 -0.0956 -1.2104
  469MOL0     H64693   7.708   8.613   2.599 -1.0858  0.5510 -0.1386
  469MOL0     H64694   7.692   8.542   2.288  1.3298 -1.0135  0.1105
  469MOL0     H64695   7.641   8.431   2.408  2.4636  0.1399  0.2621
  469MOL0     H64696   7.482   8.573   2.277  3.6340  1.1196 -0.9799
  469MOL0     H64697   7.529   8.718   2.372  1.6785  0.4358  0.7474
  469MOL0     H64698   7.469   8.562   2.582  0.7933  0.7202  0.3755
  469MOL0     H64699   7.379   8.462   2.471 -0.0238 -0.4273  2.9903
  469MOL0     H64700   7.276   8.680   2.380  2.1583 -0.5822  0.1627
  469MOL0     H64701   7.324   8.752   2.539 -0.4810  1.8730 -0.9402
  469MOL0     H64702   8.349   8.620   2.400  2.4644  0.3394 -0.6873
  469MOL0     H64703   8.537   8.745   2.297  0.9260  0.4976 -3.8750
  469MOL0     H64704   8.626   9.175   2.194  1.7387  1.5214  2.5562
  469MOL0     H64705   8.802   9.351   2.197  1.2469 -0.0569 -0.3138
  469MOL0     H64706   8.968   9.572   0.544 -1.1052 -0.5256 -0.6492
  469MOL0     H64707   8.984   9.497   0.297 -1.6426 -0.5106  0.2923
  469MOL0     H64708   9.041   9.673  -0.129  1.2867  2.6899 -1.0229
  469MOL0     H64709   9.024   9.582  -0.378 -0.0709 -3.0564 -0.3962
  469MOL0     H64710   9.000   9.488  -0.571  0.9057  1.3502  0.0709
  469MOL0     H64711   9.078   9.373  -0.667  3.3972  0.6254  1.1019
  469MOL0     H64712   8.916   9.311  -0.417 -0.8821 -1.6610  0.7727
  469MOL0     H64713   9.006   9.190  -0.508  0.1277 -0.6544  0.2093
  469MOL0     H64714   8.867   9.265  -0.719  0.0091 -0.2815 -0.2442
  469MOL0     H64715   8.781   9.169  -0.591 -0.2729  0.3230  0.9351
  469MOL0     H64716   8.773   9.463  -0.572  0.1527  0.4582 -2.6141
  469MOL0     H64717   8.667   9.340  -0.496  1.2837  1.9342  1.0831
  469MOL0     H64718   8.495   9.402  -0.877 -1.4208  1.8790  0.7286
  469MOL0     H64719   9.324   9.290  -0.289  0.8644 -0.2653  0.8483
  469MOL0     H64720   9.260   9.275   0.011 -0.6080  1.9879  1.0513
  469MOL0     H64721   9.422   9.279  -0.056  0.3825  1.5454  0.6617
  469MOL0     H64722   9.364   9.399   0.062  1.5278  2.5139 -1.0092
  470MOL0     O64723   5.220   0.378   2.908  0.1101  0.0843 -1.4178
  470MOL0     C64724   5.187   0.442   3.006  0.0558  0.7246  0.1415
  470MOL0     O64725   5.267   0.477   3.114  0.3287  0.1647  0.2576
  470MOL0     C64726   5.405   0.484   3.092  0.1420  0.0991  0.4464
  470MOL0     C64727   5.477   0.390   3.029  0.3562 -0.5845  0.7664
  470MOL0     C64728   5.618   0.401   3.014 -0.3047 -0.2524 -0.3235
  470MOL0     C64729   5.690   0.501   3.076  0.4928 -0.7238  0.0742
  470MOL0     O64730   5.829   0.506   3.086  0.2843  0.5658 -0.4267
  470MOL0     C64731   5.888   0.457   3.213 -0.4101 -0.4706  0.4285
  470MOL0     C64732   6.033   0.425   3.177 -0.4031  0.5192 -0.8764
  470MOL0     C64733   6.049   0.285   3.112  0.3321  0.2600 -0.5238
  470MOL0     C64734   6.075   0.190   3.226 -0.3385 -0.3028 -0.3596
  470MOL0     C64735   6.155   0.067   3.182  0.9277 -0.5079  1.1255
  470MOL0     C64736   6.151  -0.038   3.292  0.7668 -0.0990  0.1743
  470MOL0     C64737   6.246  -0.159   3.269  0.5184 -0.3232  1.0944
  470MOL0     C64738   6.280  -0.231   3.394  0.1737  0.6448 -0.0448
  470MOL0     N64739   6.390  -0.329   3.389  0.4857  0.3391  0.1344
  470MOL0     C64740   6.389  -0.445   3.313  0.0765  0.8766  0.0423
  470MOL0     C64741   6.506  -0.510   3.331 -0.2919 -0.1168 -0.5376
  470MOL0     C64742   6.556  -0.642   3.287 -0.2915 -0.0057  0.7964
  470MOL0     C64743   6.624  -0.734   3.390  1.3877  0.0052  0.1730
  470MOL0     C64744   6.739  -0.813   3.338 -0.0652  0.2109 -0.2600
  470MOL0     C64745   6.799  -0.899   3.440  0.4215  0.5523  0.4204
  470MOL0     O64746   6.705  -1.008   3.466  0.1479 -0.0158 -0.1695
  470MOL0     C64747   6.757  -1.122   3.534  0.9486  0.0629  0.1507
  470MOL0     C64748   6.883  -1.128   3.597 -0.4393 -0.1313  0.0617
  470MOL0     C64749   6.923  -1.232   3.682 -0.6903  0.5357 -0.0831
  470MOL0     C64750   7.058  -1.235   3.750 -0.3419 -0.3808 -0.7441
  470MOL0     C64751   6.818  -1.331   3.707  0.5547 -0.1950 -0.1105
  470MOL0     C64752   6.824  -1.436   3.810 -0.1216 -0.1940 -0.0696
  470MOL0     O64753   6.887  -1.410   3.929  0.1049  0.3156 -0.1944
  470MOL0     C64754   6.871  -1.500   4.025  0.1430 -0.9892 -0.2006
  470MOL0     C64755   6.977  -1.582   4.060  0.0095 -0.5071  0.0845
  470MOL0     C64756   6.972  -1.675   4.167 -0.2871 -1.1867  0.9687
  470MOL0     C64757   6.856  -1.691   4.242  0.2721 -0.8674  0.2320
  470MOL0     O64758   6.843  -1.773   4.357 -0.2369 -0.0337  0.5719
  470MOL0     C64759   6.970  -1.801   4.425 -0.8018 -0.3135 -0.3842
  470MOL0     C64760   7.033  -1.933   4.369  0.6245 -0.2252 -0.4291
  470MOL0     C64761   7.188  -1.911   4.381  0.6910 -0.6313 -0.5771
  470MOL0     C64762   7.261  -2.041   4.339  0.1556 -0.5061 -0.1484
  470MOL0     C64763   7.295  -2.146   4.445 -0.4336  0.9618  0.1835
  470MOL0     C64764   7.379  -2.096   4.559  0.5155 -0.7697 -0.1824
  470MOL0     C64765   7.450  -2.216   4.638 -0.0420 -0.1228  0.2925
  470MOL0     C64766   7.551  -2.164   4.735  0.5557 -0.1565  0.1754
  470MOL0    Cl64767   7.467  -2.099   4.881  0.2267  0.3211 -0.0159
  470MOL0     C64768   6.748  -1.608   4.201  0.4943  0.4762 -0.1569
  470MOL0     C64769   6.748  -1.524   4.086  1.0150  0.0482 -0.1707
  470MOL0     O64770   6.767  -1.543   3.787  0.3467  0.1725  0.1272
  470MOL0     C64771   6.696  -1.326   3.636 -0.4993 -0.3061 -0.4337
  470MOL0     C64772   6.664  -1.221   3.553  0.8118 -0.2462  0.1082
  470MOL0     N64773   6.585  -0.420   3.403  0.8170 -0.8005  0.1818
  470MOL0     N64774   6.517  -0.314   3.435 -0.4797 -0.4458  0.2005
  470MOL0     C64775   5.617   0.605   3.147  0.1910  0.8448  0.8058
  470MOL0     C64776   5.471   0.595   3.146 -0.3958  0.2082 -0.3322
  470MOL0     C64777   5.040   0.450   3.033 -0.3439  0.7680  0.5925
  470MOL0     C64778   4.984   0.551   3.116 -0.5374  0.1509  0.4906
  470MOL0     C64779   4.850   0.560   3.146 -0.3940  0.4817 -0.0519
  470MOL0     C64780   4.756   0.486   3.080  0.9531 -0.8699  0.7140
  470MOL0     O64781   4.620   0.507   3.087 -0.4007  0.0915  0.4163
  470MOL0     C64782   4.569   0.634   3.109  0.0310 -0.1532  0.2940
  470MOL0     C64783   4.409   0.611   3.124 -0.4092 -0.6414 -0.0441
  470MOL0     C64784   4.330   0.732   3.172  0.1799  0.3101  0.4089
  470MOL0     C64785   4.361   0.763   3.321 -0.1959  0.1587  0.0254
  470MOL0     C64786   4.266   0.678   3.404 -0.2755  0.3174  1.5578
  470MOL0     C64787   4.205   0.591   3.469 -0.0589  1.1360  0.0268
  470MOL0     C64788   4.808   0.392   2.994  0.6850  0.5467  0.5269
  470MOL0     C64789   4.945   0.360   2.975  1.1435 -0.3497  0.1568
  470MOL0     C64790   4.975   0.243   2.888  0.3057 -0.0246  0.4786
  470MOL0     H64791   5.427   0.302   2.991 -2.2634  0.9121  0.4700
  470MOL0     H64792   5.669   0.324   2.958  1.9631  1.3773 -0.6140
  470MOL0     H64793   5.835   0.376   3.264  2.6465 -1.1559  2.8338
  470MOL0     H64794   5.895   0.536   3.289 -1.2321 -0.4046  0.4438
  470MOL0     H64795   6.059   0.507   3.110 -1.1486  1.0083 -0.5849
  470MOL0     H64796   6.100   0.427   3.263  0.7138 -1.1472 -1.6635
  470MOL0     H64797   5.975   0.251   3.039  1.1082 -4.0488  0.4174
  470MOL0     H64798   6.143   0.297   3.057  1.4266  1.3965  1.4896
  470MOL0     H64799   6.127   0.232   3.314 -0.3793  3.3890 -1.9081
  470MOL0     H64800   5.979   0.163   3.272 -0.1186 -1.4641 -0.5703
  470MOL0     H64801   6.260   0.090   3.161  1.1282 -2.4852 -0.3849
  470MOL0     H64802   6.110   0.024   3.092  1.2653  4.0062 -1.4886
  470MOL0     H64803   6.164  -0.001   3.394  0.2698 -1.3131  0.7024
  470MOL0     H64804   6.048  -0.076   3.288  0.8377 -0.1976 -1.8464
  470MOL0     H64805   6.338  -0.131   3.218 -0.0718 -0.6520 -0.2000
  470MOL0     H64806   6.194  -0.230   3.203 -0.2572 -1.1175  2.5151
  470MOL0     H64807   6.318  -0.160   3.467 -3.6680 -0.2633  3.1897
  470MOL0     H64808   6.184  -0.274   3.423 -0.3573  1.6393 -0.2999
  470MOL0     H64809   6.307  -0.481   3.252 -0.4754 -3.1088  2.7863
  470MOL0     H64810   6.626  -0.626   3.205 -1.5760 -0.0191 -0.3440
  470MOL0     H64811   6.472  -0.703   3.252  1.6404 -2.8451  0.7527
  470MOL0     H64812   6.665  -0.668   3.467  0.0065 -0.5331  1.4002
  470MOL0     H64813   6.544  -0.791   3.437  1.0276 -1.1774 -1.7530
  470MOL0     H64814   6.702  -0.874   3.254 -1.7839  0.8115  0.0176
  470MOL0     H64815   6.804  -0.730   3.308 -0.8007  1.9412  2.6006
  470MOL0     H64816   6.895  -0.931   3.398  0.0182  0.0151 -0.1020
  470MOL0     H64817   6.815  -0.844   3.533 -1.2500  3.1567 -0.7287
  470MOL0     H64818   6.959  -1.055   3.572  0.7016 -1.0131  0.8615
  470MOL0     H64819   7.105  -1.332   3.731  0.8647 -0.2719  1.4266
  470MOL0     H64820   7.050  -1.232   3.859  0.8634 -3.1761 -0.4968
  470MOL0     H64821   7.124  -1.155   3.716 -1.0473  0.4197 -0.2766
  470MOL0     H64822   7.068  -1.573   4.001 -0.2249 -0.8058 -0.3317
  470MOL0     H64823   7.062  -1.733   4.183  2.0314  1.4167 -1.3546
  470MOL0     H64824   7.038  -1.716   4.429  2.1243 -2.3567 -2.6260
  470MOL0     H64825   6.958  -1.824   4.531 -2.3237 -3.2096 -1.0506
  470MOL0     H64826   7.001  -2.016   4.433 -2.9948 -1.4032 -3.3740
  470MOL0     H64827   7.007  -1.955   4.265 -0.4380  0.0356 -0.2276
  470MOL0     H64828   7.207  -1.891   4.486 -2.5570 -0.2975  0.0739
  470MOL0     H64829   7.216  -1.827   4.317 -3.7239 -0.8587 -3.2424
  470MOL0     H64830   7.354  -2.014   4.288  1.1488 -1.2262  1.2298
  470MOL0     H64831   7.201  -2.096   4.266  0.1867 -0.8233  0.0612
  470MOL0     H64832   7.207  -2.189   4.493  1.4591 -2.7496  0.6507
  470MOL0     H64833   7.352  -2.224   4.395 -1.9263  0.4461 -0.7927
  470MOL0     H64834   7.311  -2.034   4.619  0.9688 -0.8066  0.3813
  470MOL0     H64835   7.451  -2.029   4.511  1.3614 -0.5377  1.3589
  470MOL0     H64836   7.508  -2.272   4.564  1.3851 -0.5122  1.6518
  470MOL0     H64837   7.380  -2.292   4.673 -1.1029  0.4512 -0.4957
  470MOL0     H64838   7.600  -2.078   4.688  0.5374 -0.7083 -0.9030
  470MOL0     H64839   7.633  -2.227   4.768  4.4682  2.9049 -2.6893
  470MOL0     H64840   6.660  -1.620   4.264  1.0070  1.5502  0.7967
  470MOL0     H64841   6.655  -1.477   4.057  0.3988 -0.9134  0.2482
  470MOL0     H64842   6.612  -1.389   3.662 -1.0493  0.7582  0.4637
  470MOL0     H64843   6.566  -1.204   3.511  0.5042 -0.3074  0.7931
  470MOL0     H64844   5.669   0.682   3.202  0.2278  0.5313  1.2161
  470MOL0     H64845   5.413   0.664   3.205 -3.2141 -1.7466 -0.5886
  470MOL0     H64846   5.059   0.608   3.170  1.3955 -1.0947 -0.7823
  470MOL0     H64847   4.827   0.632   3.223 -1.7997  0.1373 -0.1143
  470MOL0     H64848   4.605   0.681   3.202 -1.0667  2.3079 -0.4553
  470MOL0     H64849   4.589   0.701   3.025  1.0647 -1.2704 -0.3679
  470MOL0     H64850   4.387   0.517   3.175 -0.9887  0.0712  1.0518
  470MOL0     H64851   4.375   0.589   3.022 -0.7540 -0.7754  0.0977
  470MOL0     H64852   4.358   0.811   3.102  1.4119 -0.4014  0.0852
  470MOL0     H64853   4.221   0.719   3.168  0.2769 -3.2618  3.5324
  470MOL0     H64854   4.344   0.868   3.345 -1.5103  0.1728 -0.8708
  470MOL0     H64855   4.463   0.734   3.349 -0.1637  0.4184  0.1746
  470MOL0     H64856   4.165   0.507   3.522  1.5231  0.4373  0.1536
  470MOL0     H64857   4.730   0.331   2.950  0.1850  1.9931 -0.6325
  470MOL0     H64858   5.019   0.283   2.796 -1.2231  0.9186  0.1178
  470MOL0     H64859   5.035   0.165   2.935  0.6540  0.2147  0.4334
  470MOL0     H64860   4.874   0.208   2.864 -0.8871  2.4324  1.5468
  471MOL0     O64861  11.320   8.526  10.039  0.2617  0.1362  0.0198
  471MOL0     C64862  11.322   8.421  10.105 -0.8178  0.6257 -0.1205
  471MOL0     O64863  11.412   8.312  10.087  0.7949 -0.0854  0.3783
  471MOL0     C64864  11.532   8.333  10.013 -0.9656  0.7158  0.2411
  471MOL0     C64865  11.589   8.431   9.936 -0.0584  0.5787  1.5193
  471MOL0     C64866  11.724   8.432   9.886  0.7509 -0.2807 -0.8200
  471MOL0     C64867  11.813   8.330   9.926  0.0946 -0.1466 -0.6883
  471MOL0     O64868  11.949   8.337   9.900  0.2775 -0.0753  0.3791
  471MOL0     C64869  12.003   8.430   9.802  0.6850 -0.1955  0.2823
  471MOL0     C64870  12.149   8.383   9.772 -0.2273  0.2565 -0.2510
  471MOL0     C64871  12.142   8.237   9.721  0.1456  0.2793 -0.2717
  471MOL0     C64872  12.176   8.216   9.573 -0.9031 -0.4453 -0.1789
  471MOL0     C64873  12.127   8.080   9.525  0.0979  0.5807 -0.4739
  471MOL0     C64874  12.165   8.067   9.374 -0.5958 -0.3450  0.3473
  471MOL0     C64875  12.161   7.931   9.313 -0.7626  0.6643 -0.7904
  471MOL0     C64876  12.012   7.892   9.309 -0.2039  1.6782  0.1935
  471MOL0     N64877  11.917   7.985   9.240 -0.3255  0.2143 -0.9784
  471MOL0     C64878  11.801   8.029   9.295 -0.2548 -0.0152 -0.0310
  471MOL0     C64879  11.734   8.093   9.198 -0.1908 -0.3508 -0.0182
  471MOL0     C64880  11.596   8.164   9.208 -0.0157 -0.0177  0.2592
  471MOL0     C64881  11.494   8.115   9.100  0.3966 -0.4395  0.0393
  471MOL0     C64882  11.375   8.210   9.092  0.6332  0.2321  0.9070
  471MOL0     C64883  11.251   8.140   9.021  0.1497  0.1563 -0.2157
  471MOL0     O64884  11.305   8.096   8.895  0.2409 -0.4238  0.4866
  471MOL0     C64885  11.256   7.980   8.836 -0.1517  0.6967  0.8500
  471MOL0     C64886  11.311   7.934   8.709  0.5795 -0.0916 -0.1342
  471MOL0     C64887  11.269   7.814   8.647  1.0208  0.3558  0.2226
  471MOL0     C64888  11.330   7.786   8.510  0.6733 -0.6282 -0.4010
  471MOL0     C64889  11.172   7.728   8.713 -0.8812  0.2143  0.4943
  471MOL0     C64890  11.107   7.616   8.640 -1.2568  0.8532 -0.9949
  471MOL0     O64891  10.976   7.634   8.624 -0.2725  0.1350 -0.2921
  471MOL0     C64892  10.929   7.554   8.518  0.0250 -0.3593 -0.3388
  471MOL0     C64893  10.960   7.591   8.384 -0.5366 -0.0162  0.1140
  471MOL0     C64894  10.890   7.521   8.280 -1.1243  0.1573 -0.6183
  471MOL0     C64895  10.789   7.429   8.306  0.7425  0.3396 -0.5677
  471MOL0     O64896  10.725   7.372   8.201  0.1042 -0.9416 -0.0873
  471MOL0     C64897  10.584   7.384   8.204 -0.4068 -0.4750 -1.0441
  471MOL0     C64898  10.509   7.332   8.076 -0.1365  0.0452  0.4975
  471MOL0     C64899  10.512   7.184   8.063 -0.1008  0.7242 -0.8460
  471MOL0     C64900  10.644   7.118   8.037  0.0471 -0.0027 -0.8060
  471MOL0     C64901  10.628   6.963   8.009 -0.0895 -0.4747  0.4679
  471MOL0     C64902  10.589   6.925   7.864 -0.4734 -0.2003  0.8625
  471MOL0     C64903  10.687   6.965   7.762  0.5018  0.5783  1.0095
  471MOL0     C64904  10.648   6.917   7.618 -0.2799 -0.7933 -0.1269
  471MOL0    Cl64905  10.494   7.007   7.564 -0.4908  0.2254 -0.0428
  471MOL0     C64906  10.751   7.397   8.444 -0.1829 -0.3329  0.0452
  471MOL0     C64907  10.822   7.469   8.545  0.8670  0.0023 -0.6571
  471MOL0     O64908  11.180   7.528   8.591 -1.0465  0.3170 -0.8393
  471MOL0     C64909  11.114   7.780   8.830 -0.3721  0.2904 -0.2007
  471MOL0     C64910  11.156   7.890   8.895 -0.3111 -0.7123  0.3800
  471MOL0     N64911  11.820   8.102   9.091 -0.2838 -0.4714 -0.1424
  471MOL0     N64912  11.930   8.038   9.111 -0.2024 -0.6249  0.7649
  471MOL0     C64913  11.754   8.222   9.997 -0.5169 -0.0852  0.6377
  471MOL0     C64914  11.622   8.228  10.030 -0.0315 -0.4230 -0.3341
  471MOL0     C64915  11.213   8.408  10.198 -0.2673 -0.1568 -1.0080
  471MOL0     C64916  11.072   8.436  10.173 -0.0753  0.5275  0.3261
  471MOL0     C64917  10.972   8.414  10.268  0.4837  0.1837 -0.4497
  471MOL0     C64918  11.003   8.359  10.385 -0.9633 -0.2084  0.0832
  471MOL0     O64919  10.917   8.322  10.489  0.3922  0.3965 -0.2601
  471MOL0     C64920  10.771   8.334  10.486  0.2887  0.5768 -1.4806
  471MOL0     C64921  10.723   8.266  10.617  0.0394  0.2074 -0.2251
  471MOL0     C64922  10.735   8.360  10.751 -0.7038 -0.4511 -0.7866
  471MOL0     C64923  10.656   8.313  10.871 -0.0513  0.2875 -1.4117
  471MOL0     C64924  10.704   8.171  10.893 -1.5720  0.0186 -0.4904
  471MOL0     C64925  10.753   8.053  10.922 -1.0469 -0.2054  0.6090
  471MOL0     C64926  11.140   8.344  10.415  0.3096  0.4552  0.4804
  471MOL0     C64927  11.247   8.375  10.330  0.2164  0.6188  0.3665
  471MOL0     C64928  11.377   8.354  10.387  0.6735  0.0409 -0.6704
  471MOL0     H64929  11.524   8.504   9.889  1.7017  0.1553 -1.8450
  471MOL0     H64930  11.760   8.502   9.811 -1.7379  0.2281 -1.6398
  471MOL0     H64931  12.003   8.530   9.847 -1.3157  0.4692 -1.0390
  471MOL0     H64932  11.948   8.428   9.707 -0.3559  0.6721  0.8320
  471MOL0     H64933  12.189   8.445   9.690 -0.3602  0.3801 -0.2225
  471MOL0     H64934  12.206   8.385   9.865 -1.0741 -2.3796  0.4185
  471MOL0     H64935  12.224   8.184   9.772 -0.1985  1.3298  1.4540
  471MOL0     H64936  12.044   8.199   9.753  0.0189 -0.9700 -2.0105
  471MOL0     H64937  12.130   8.300   9.519  0.1291  1.0173  1.1373
  471MOL0     H64938  12.284   8.223   9.558 -0.7562 -1.3440  0.3905
  471MOL0     H64939  12.019   8.069   9.538  0.3171 -0.1989  0.9721
  471MOL0     H64940  12.170   7.998   9.584 -1.6074 -0.9420 -1.2696
  471MOL0     H64941  12.099   8.137   9.322  0.6083 -0.4422 -1.3922
  471MOL0     H64942  12.262   8.117   9.365 -1.4607  1.2024 -1.0046
  471MOL0     H64943  12.228   7.866   9.369 -1.2053  0.4553 -0.4989
  471MOL0     H64944  12.194   7.931   9.208  2.4890  4.8735 -0.0376
  471MOL0     H64945  12.002   7.800   9.250 -0.2013  1.4541  0.5430
  471MOL0     H64946  11.980   7.872   9.411 -0.3308  0.9745  0.0202
  471MOL0     H64947  11.763   8.013   9.395  2.0247 -0.3308  0.8479
  471MOL0     H64948  11.613   8.271   9.196 -3.8833  0.6946 -0.0774
  471MOL0     H64949  11.572   8.153   9.314 -3.9195  3.5854  0.0074
  471MOL0     H64950  11.544   8.118   9.003 -1.3786  0.0043 -0.9157
  471MOL0     H64951  11.465   8.013   9.124 -0.5579 -0.3651 -0.7534
  471MOL0     H64952  11.336   8.236   9.191 -0.0607  0.5699  0.5521
  471MOL0     H64953  11.392   8.299   9.031 -0.8271  0.1529  0.3242
  471MOL0     H64954  11.218   8.062   9.090  1.5366 -0.8149 -0.5789
  471MOL0     H64955  11.166   8.207   9.007 -0.6563 -0.8328 -0.1534
  471MOL0     H64956  11.377   7.998   8.652  0.2319 -1.0545 -1.6823
  471MOL0     H64957  11.288   7.857   8.437  2.0441  0.2396 -0.3807
  471MOL0     H64958  11.317   7.685   8.472 -1.3799 -1.5964  2.5450
  471MOL0     H64959  11.432   7.824   8.520 -0.4948  2.7746 -0.1195
  471MOL0     H64960  11.026   7.674   8.363 -3.9119  3.0659  0.6507
  471MOL0     H64961  10.918   7.548   8.179 -2.1234  3.9915 -0.0232
  471MOL0     H64962  10.545   7.335   8.294 -0.3795  1.1904 -0.0872
  471MOL0     H64963  10.547   7.486   8.219  0.6310 -0.0915 -1.0270
  471MOL0     H64964  10.404   7.361   8.081 -0.6450 -1.1918 -1.5397
  471MOL0     H64965  10.556   7.375   7.987  0.2816  1.3432  1.3266
  471MOL0     H64966  10.443   7.151   7.985  0.8673 -1.6345 -0.7785
  471MOL0     H64967  10.471   7.137   8.153 -2.5482 -0.0469 -2.2786
  471MOL0     H64968  10.716   7.136   8.118 -1.1714  1.2928  0.0332
  471MOL0     H64969  10.695   7.181   7.964  3.0483 -1.6388 -0.3033
  471MOL0     H64970  10.720   6.917   8.048  0.2371  2.1568  3.2005
  471MOL0     H64971  10.552   6.922   8.076 -1.1087  1.8027  0.7792
  471MOL0     H64972  10.488   6.965   7.847 -0.2887  0.0572  0.3557
  471MOL0     H64973  10.592   6.816   7.862  2.0423 -0.3027 -3.8294
  471MOL0     H64974  10.791   6.937   7.783  1.3838  2.1375 -1.0508
  471MOL0     H64975  10.688   7.074   7.763  0.0424  0.5911  0.3697
  471MOL0     H64976  10.634   6.809   7.614  0.0422 -0.8792  0.8429
  471MOL0     H64977  10.728   6.949   7.551  0.9489 -0.3704  1.4722
  471MOL0     H64978  10.685   7.313   8.460 -0.7432 -0.4008 -2.1906
  471MOL0     H64979  10.801   7.455   8.651 -3.6739 -1.0397 -1.4720
  471MOL0     H64980  11.043   7.717   8.882 -1.3136  0.9862 -0.6076
  471MOL0     H64981  11.108   7.910   8.990 -1.9331  0.0763 -0.5702
  471MOL0     H64982  11.822   8.139  10.011 -1.6328 -1.6496 -2.2201
  471MOL0     H64983  11.594   8.141  10.088  1.8023  0.5519  2.2104
  471MOL0     H64984  11.039   8.478  10.079 -0.2151 -3.2413 -1.4731
  471MOL0     H64985  10.866   8.429  10.252 -0.4772 -3.7333  1.1185
  471MOL0     H64986  10.744   8.440  10.484  1.2925  1.0184  1.8699
  471MOL0     H64987  10.722   8.272  10.410  1.4669 -4.0219  1.0762
  471MOL0     H64988  10.773   8.170  10.631  0.9965  0.8067  0.6046
  471MOL0     H64989  10.619   8.236  10.631 -0.5685  2.9165  1.9902
  471MOL0     H64990  10.840   8.376  10.778 -0.3109  1.3696 -3.1252
  471MOL0     H64991  10.697   8.451  10.705  2.0501  0.6232 -1.1409
  471MOL0     H64992  10.549   8.335  10.862 -0.3892  0.1110  1.2983
  471MOL0     H64993  10.681   8.382  10.952 -0.1999  2.1169 -2.8591
  471MOL0     H64994  10.787   7.952  10.912  1.5212  0.5963  0.4437
  471MOL0     H64995  11.161   8.304  10.514 -2.0686 -0.4734  0.6978
  471MOL0     H64996  11.451   8.399  10.318  0.0082  1.5991 -0.4139
  471MOL0     H64997  11.386   8.394  10.488 -0.4120 -0.7609 -0.2425
  471MOL0     H64998  11.395   8.246  10.389 -0.8560 -0.2121  1.1798
  472MOL0     O64999   7.896   7.670   9.808 -0.3308  0.3629  0.8652
  472MOL0     C65000   7.997   7.729   9.833  0.0258  0.2487 -0.3990
  472MOL0     O65001   8.006   7.849   9.888 -0.0623 -0.3797  0.4116
  472MOL0     C65002   7.899   7.931   9.890 -0.4415 -0.8161 -0.4141
  472MOL0     C65003   7.804   7.904   9.983  1.2484 -0.2659 -0.7255
  472MOL0     C65004   7.673   7.965   9.978 -1.0676 -0.6697 -0.2873
  472MOL0     C65005   7.639   8.068   9.886  0.6931 -0.0335 -0.4243
  472MOL0     O65006   7.507   8.118   9.896  0.2026  0.0246  0.8477
  472MOL0     C65007   7.453   8.203   9.785 -0.1199 -0.1597 -0.7298
  472MOL0     C65008   7.328   8.267   9.841  0.4686 -0.2188 -0.1307
  472MOL0     C65009   7.282   8.390   9.750 -0.8285  0.4219  0.6752
  472MOL0     C65010   7.138   8.449   9.779  1.3239  0.4991 -0.5766
  472MOL0     C65011   7.113   8.590   9.716  0.5546  0.0769 -0.1365
  472MOL0     C65012   7.098   8.579   9.567  0.2290  0.4541  0.4439
  472MOL0     C65013   7.089   8.707   9.484  0.0752 -0.1100 -0.0092
  472MOL0     C65014   7.005   8.822   9.550 -0.3833  0.3913 -0.1467
  472MOL0     N65015   6.947   8.901   9.438  0.3774  0.3727 -0.2241
  472MOL0     C65016   6.994   9.017   9.393  0.0303 -0.4087 -0.3321
  472MOL0     C65017   6.902   9.056   9.303 -0.3131  0.4210 -0.0388
  472MOL0     C65018   6.923   9.180   9.232 -0.2792 -0.4201 -0.5359
  472MOL0     C65019   6.838   9.296   9.291  0.2116  0.8184  0.1897
  472MOL0     C65020   6.863   9.427   9.216 -0.5493 -0.7365  0.2227
  472MOL0     C65021   6.778   9.544   9.268 -0.5951  0.2213  0.3889
  472MOL0     O65022   6.772   9.547   9.411  0.8164  0.7268  0.9608
  472MOL0     C65023   6.691   9.638   9.473  0.1262  0.5004 -0.3432
  472MOL0     C65024   6.589   9.709   9.411  1.2383  0.0930 -0.5744
  472MOL0     C65025   6.503   9.797   9.490 -0.1089 -0.2182 -0.4814
  472MOL0     C65026   6.395   9.874   9.419  0.1240 -0.4287 -0.7272
  472MOL0     C65027   6.525   9.820   9.628 -0.3654  0.1481  0.1974
  472MOL0     C65028   6.439   9.919   9.697 -0.4606  0.3951 -0.0351
  472MOL0     O65029   6.305   9.922   9.698  0.1670 -0.3736  0.0744
  472MOL0     C65030   6.238  10.014   9.785 -0.5164  0.9169 -0.1842
  472MOL0     C65031   6.167  10.112   9.713  0.7562 -1.0187  0.9238
  472MOL0     C65032   6.075  10.192   9.792  0.1700  0.2725  0.0259
  472MOL0     C65033   6.065  10.178   9.931  0.2360 -0.2148  0.3812
  472MOL0     O65034   5.972  10.251  10.010  0.0786  0.0552  0.1909
  472MOL0     C65035   5.911  10.372   9.952  0.1377 -0.5853  0.3641
  472MOL0     C65036   5.839  10.445  10.065 -0.7714  0.0213 -0.2529
  472MOL0     C65037   5.766  10.358  10.165 -0.5467 -0.3607  0.7782
  472MOL0     C65038   5.689  10.431  10.273  0.6738  0.3908 -0.6357
  472MOL0     C65039   5.763  10.517  10.374 -0.0261 -0.1966  0.3847
  472MOL0     C65040   5.700  10.531  10.513  0.1960 -0.9967  0.0262
  472MOL0     C65041   5.709  10.405  10.601 -0.2047 -0.2836 -0.2529
  472MOL0     C65042   5.637  10.425  10.739 -0.2157  0.4634  0.2024
  472MOL0    Cl65043   5.620  10.269  10.822 -0.1518  0.0294  0.2230
  472MOL0     C65044   6.140  10.085   9.994  0.4170  0.1775 -0.0732
  472MOL0     C65045   6.232  10.000   9.920 -0.0978 -1.3161 -0.4210
  472MOL0     O65046   6.509   9.976   9.782  0.3866  0.1244 -0.3849
  472MOL0     C65047   6.645   9.758   9.680  0.5834  0.3340 -0.9888
  472MOL0     C65048   6.724   9.669   9.606  0.4443  0.3501  0.3300
  472MOL0     N65049   6.808   8.961   9.285 -0.1591 -0.3200  0.3772
  472MOL0     N65050   6.837   8.868   9.367  0.2083 -0.6368  0.9790
  472MOL0     C65051   7.737   8.093   9.793  0.6010 -0.2377  0.0216
  472MOL0     C65052   7.863   8.033   9.790 -0.1363  0.6551 -0.0296
  472MOL0     C65053   8.131   7.656   9.816  0.7772 -0.2229  0.4946
  472MOL0     C65054   8.177   7.590   9.925 -0.1714  0.3042  0.1434
  472MOL0     C65055   8.307   7.545   9.932 -0.1917  0.1529 -0.4060
  472MOL0     C65056   8.390   7.557   9.817 -0.5145  0.4609  1.1004
  472MOL0     O65057   8.524   7.520   9.800 -0.1792 -0.3308 -0.5055
  472MOL0     C65058   8.594   7.475   9.921 -0.4582  0.0031 -0.0483
  472MOL0     C65059   8.732   7.439   9.882 -0.1895 -0.4347 -0.1669
  472MOL0     C65060   8.830   7.553   9.873 -0.3220 -0.5938 -0.3613
  472MOL0     C65061   8.980   7.507   9.880 -0.2033 -0.1882  1.2017
  472MOL0     C65062   9.052   7.615   9.813  0.0933  0.2861 -0.4983
  472MOL0     C65063   9.121   7.691   9.759  0.1855 -0.3139  0.0524
  472MOL0     C65064   8.339   7.629   9.709 -0.4391  0.0087  0.9364
  472MOL0     C65065   8.206   7.680   9.705 -0.5491 -0.0063  0.8036
  472MOL0     C65066   8.161   7.718   9.568  0.3337  0.3179 -0.5048
  472MOL0     H65067   7.825   7.839  10.068  2.5503  0.5143 -0.4330
  472MOL0     H65068   7.598   7.925  10.046 -2.0975  0.5252 -0.6823
  472MOL0     H65069   7.418   8.150   9.696 -2.1846 -1.1012  0.5726
  472MOL0     H65070   7.524   8.281   9.759  1.6467 -1.7315 -0.8162
  472MOL0     H65071   7.253   8.187   9.850  1.6172 -1.2597  0.4137
  472MOL0     H65072   7.339   8.309   9.941  0.0672 -3.5229  1.4230
  472MOL0     H65073   7.356   8.469   9.760  2.4712 -2.0259 -2.0379
  472MOL0     H65074   7.295   8.356   9.647  1.1949 -1.5370  1.4970
  472MOL0     H65075   7.068   8.370   9.750 -1.0481  2.3815 -0.2591
  472MOL0     H65076   7.123   8.466   9.886 -2.3973  0.7356 -1.0208
  472MOL0     H65077   7.196   8.658   9.736  0.5185  0.4818 -1.3091
  472MOL0     H65078   7.021   8.636   9.753  0.9010  2.2832 -1.7605
  472MOL0     H65079   7.182   8.520   9.530  1.4429  3.5759 -2.3647
  472MOL0     H65080   7.008   8.520   9.550  1.8970 -2.9098  2.4024
  472MOL0     H65081   7.047   8.681   9.386  0.1884 -3.4381  0.7198
  472MOL0     H65082   7.193   8.734   9.462  0.5074 -0.5625  1.3701
  472MOL0     H65083   6.931   8.771   9.613  0.3703  0.9208  1.1931
  472MOL0     H65084   7.068   8.882   9.617  0.2282 -0.3938 -0.0027
  472MOL0     H65085   7.083   9.067   9.428  0.3510 -1.1568 -0.0542
  472MOL0     H65086   6.899   9.150   9.129  1.2714 -2.0410 -0.4703
  472MOL0     H65087   7.029   9.198   9.246 -0.6583  0.9388  0.7180
  472MOL0     H65088   6.732   9.272   9.288  0.1311 -0.0600  4.4153
  472MOL0     H65089   6.873   9.318   9.392 -0.2203  1.5457  0.1900
  472MOL0     H65090   6.970   9.449   9.218 -0.5576  0.2734  5.5609
  472MOL0     H65091   6.848   9.407   9.110  1.2280  1.6642 -0.5568
  472MOL0     H65092   6.824   9.635   9.227 -0.9035  0.3487  0.3211
  472MOL0     H65093   6.682   9.533   9.216  1.2679 -0.6013 -3.1220
  472MOL0     H65094   6.568   9.696   9.305 -2.1481  2.2692 -0.3064
  472MOL0     H65095   6.412   9.981   9.402  1.0083 -0.8025 -2.4847
  472MOL0     H65096   6.295   9.862   9.462  0.5982  1.5818  1.0985
  472MOL0     H65097   6.391   9.836   9.316  0.9438 -1.6804 -0.3135
  472MOL0     H65098   6.179  10.136   9.608 -2.1008 -1.0766  0.4955
  472MOL0     H65099   6.009  10.263   9.743  0.8208  1.4158  0.7675
  472MOL0     H65100   5.986  10.434   9.903  0.0308 -0.3462  0.4978
  472MOL0     H65101   5.834  10.343   9.880  0.9493  0.1420 -0.8348
  472MOL0     H65102   5.910  10.512  10.115  0.4259 -1.4748  0.1166
  472MOL0     H65103   5.771  10.524  10.032  0.5753  1.7543  0.9054
  472MOL0     H65104   5.843  10.291  10.203 -1.1247 -1.9652 -0.7620
  472MOL0     H65105   5.701  10.287  10.112 -3.2326  0.5585  2.6243
  472MOL0     H65106   5.637  10.363  10.341  2.5752  1.7356  2.3330
  472MOL0     H65107   5.613  10.487  10.216 -2.2873 -2.2479  0.4145
  472MOL0     H65108   5.855  10.460  10.392  0.7038  0.9639  0.4797
  472MOL0     H65109   5.787  10.615  10.332 -4.8410  0.9339 -0.3176
  472MOL0     H65110   5.598  10.572  10.513  1.2442  2.0049  2.4005
  472MOL0     H65111   5.765  10.601  10.566 -1.0257 -0.6585  1.1474
  472MOL0     H65112   5.812  10.370  10.603 -0.0018 -0.1419 -3.6592
  472MOL0     H65113   5.648  10.328  10.553 -1.6265  0.0739  0.8935
  472MOL0     H65114   5.534  10.460  10.730 -1.5395 -2.4600  2.2417
  472MOL0     H65115   5.705  10.488  10.798  1.7496 -1.7428  0.4772
  472MOL0     H65116   6.138  10.065  10.101  3.0823 -1.7377 -0.2588
  472MOL0     H65117   6.291   9.926   9.973 -2.6354 -1.8513  1.8728
  472MOL0     H65118   6.682   9.776   9.781 -2.3709 -1.6980  0.5951
  472MOL0     H65119   6.807   9.618   9.654  1.1583  1.3826  0.2385
  472MOL0     H65120   7.723   8.162   9.710  1.2604 -0.5331 -0.3538
  472MOL0     H65121   7.929   8.064   9.710 -1.2401  1.1795 -0.7627
  472MOL0     H65122   8.106   7.585  10.007 -5.1156 -1.9804 -3.7189
  472MOL0     H65123   8.340   7.484  10.015 -2.9693 -2.2891 -0.9432
  472MOL0     H65124   8.601   7.557   9.993  0.4679 -0.1847  0.0871
  472MOL0     H65125   8.536   7.395   9.968 -0.9078  0.4991  0.2406
  472MOL0     H65126   8.728   7.404   9.779 -1.3389  0.6015 -0.4986
  472MOL0     H65127   8.773   7.355   9.939  1.9454  0.7031  0.0723
  472MOL0     H65128   8.803   7.612   9.785 -0.0490 -0.1915 -0.1799
  472MOL0     H65129   8.821   7.628   9.952  4.0533  1.5602 -1.5459
  472MOL0     H65130   9.000   7.422   9.815 -1.8681 -0.6842  1.2881
  472MOL0     H65131   9.021   7.494   9.981  2.7303 -0.9939  0.0063
  472MOL0     H65132   9.179   7.763   9.705 -0.0565 -0.3215 -0.2229
  472MOL0     H65133   8.397   7.637   9.617 -1.9603 -0.3911 -0.0901
  472MOL0     H65134   8.053   7.738   9.576  0.4485  0.9097 -0.4094
  472MOL0     H65135   8.214   7.803   9.523  1.6075 -0.7064 -0.9807
  472MOL0     H65136   8.171   7.631   9.502 -0.8079 -1.2075  1.2437
  473MOL0     O65137  11.419   2.751   8.784 -0.5192 -0.3780 -0.1013
  473MOL0     C65138  11.484   2.831   8.846  0.1502 -0.7856  0.2982
  473MOL0     O65139  11.518   2.827   8.984  0.0285  0.6678  0.2180
  473MOL0     C65140  11.527   2.705   9.038  0.7481  1.0130  0.2480
  473MOL0     C65141  11.413   2.630   9.077 -0.3023 -0.5177 -0.4030
  473MOL0     C65142  11.426   2.507   9.142  0.5512  0.8502  0.0303
  473MOL0     C65143  11.560   2.461   9.169  0.6611 -0.2565  0.4260
  473MOL0     O65144  11.585   2.338   9.230 -0.7481 -0.8127 -0.0189
  473MOL0     C65145  11.516   2.318   9.364  0.0964  0.4395 -0.3239
  473MOL0     C65146  11.613   2.299   9.485 -0.5782 -0.1174  0.0982
  473MOL0     C65147  11.681   2.159   9.475  0.0716  0.2689  0.4323
  473MOL0     C65148  11.781   2.137   9.591 -0.6972 -0.4831 -0.1280
  473MOL0     C65149  11.782   1.993   9.628 -0.2290  0.0729  0.3689
  473MOL0     C65150  11.888   1.945   9.728 -0.6957 -0.0521  1.0844
  473MOL0     C65151  12.029   1.926   9.668 -0.2802  0.0852 -0.2649
  473MOL0     C65152  12.039   1.817   9.549  0.2187  0.0987  0.8320
  473MOL0     N65153  12.175   1.793   9.521  1.1021 -0.5567  0.7573
  473MOL0     C65154  12.240   1.860   9.422  0.4853 -0.3849  0.5353
  473MOL0     C65155  12.367   1.801   9.417 -0.0086  0.7801 -0.3909
  473MOL0     C65156  12.474   1.865   9.339 -0.0976  0.8077 -0.5634
  473MOL0     C65157  12.563   1.782   9.243  0.9331  0.9204 -0.5988
  473MOL0     C65158  12.642   1.864   9.143  0.9935  0.0163 -0.4681
  473MOL0     C65159  12.755   1.943   9.206  0.1704 -0.5037 -0.6378
  473MOL0     O65160  12.828   2.019   9.104 -0.4685 -0.2498  0.0102
  473MOL0     C65161  12.943   2.091   9.141 -0.5794 -0.4216 -0.4114
  473MOL0     C65162  12.984   2.107   9.280 -0.2667  0.9167  0.3806
  473MOL0     C65163  13.103   2.173   9.305  0.0280 -0.4440 -0.4778
  473MOL0     C65164  13.169   2.156   9.438  0.2580  0.2757 -0.2943
  473MOL0     C65165  13.184   2.226   9.197 -0.2329 -0.4944 -0.2408
  473MOL0     C65166  13.314   2.301   9.219 -0.0655 -0.2680  0.2388
  473MOL0     O65167  13.396   2.284   9.107 -0.2207 -0.6366 -1.1942
  473MOL0     C65168  13.498   2.372   9.084 -0.2786 -0.1583 -0.8155
  473MOL0     C65169  13.486   2.512   9.084 -1.2420 -0.1714 -1.1586
  473MOL0     C65170  13.597   2.590   9.052  0.1520  0.3392 -0.4018
  473MOL0     C65171  13.721   2.534   9.015  0.1888  0.7180 -1.4615
  473MOL0     O65172  13.827   2.606   8.972  0.2444 -0.7866 -0.8029
  473MOL0     C65173  13.951   2.565   9.042 -0.6713  1.0745  0.0809
  473MOL0     C65174  14.073   2.656   9.002 -0.9393  0.2420 -0.5853
  473MOL0     C65175  14.200   2.625   9.092 -0.1930 -0.5097  0.3062
  473MOL0     C65176  14.338   2.630   9.012 -0.2054  0.5771 -0.0284
  473MOL0     C65177  14.467   2.594   9.103  0.3206  0.4172  0.5601
  473MOL0     C65178  14.586   2.556   9.016 -0.7684  0.6663 -0.1423
  473MOL0     C65179  14.625   2.660   8.908 -0.2045 -0.2805 -0.5019
  473MOL0     C65180  14.767   2.632   8.855 -0.5248 -0.3337 -0.2098
  473MOL0    Cl65181  14.885   2.658   8.996  0.3622  0.3882  0.1092
  473MOL0     C65182  13.731   2.395   9.030  0.6770 -0.1147 -0.2136
  473MOL0     C65183  13.620   2.314   9.053  0.2190 -0.2198  0.1866
  473MOL0     O65184  13.334   2.367   9.318 -0.0094 -0.5012  0.5056
  473MOL0     C65185  13.131   2.222   9.070 -0.1421 -0.3616 -0.3725
  473MOL0     C65186  13.013   2.159   9.033 -0.4876 -0.2398 -0.3121
  473MOL0     N65187  12.371   1.692   9.507  0.1940 -0.7284 -0.4294
  473MOL0     N65188  12.250   1.705   9.572 -0.3252  0.0622 -1.2985
  473MOL0     C65189  11.675   2.531   9.135 -0.0627 -0.3364 -1.0248
  473MOL0     C65190  11.654   2.655   9.072 -0.3311 -0.5955  0.1121
  473MOL0     C65191  11.533   2.943   8.768  0.3850 -0.2039  0.2744
  473MOL0     C65192  11.486   2.948   8.632  0.2343  0.6239 -0.0560
  473MOL0     C65193  11.536   3.044   8.543  0.1508  0.8664  0.2982
  473MOL0     C65194  11.627   3.138   8.579 -0.5915 -0.0237  0.2897
  473MOL0     O65195  11.684   3.233   8.492 -0.9786  0.5103 -0.0586
  473MOL0     C65196  11.661   3.233   8.352  0.0725  0.0034 -0.4464
  473MOL0     C65197  11.701   3.357   8.277 -0.6052  0.3278  0.0810
  473MOL0     C65198  11.843   3.397   8.325 -0.1694  0.2750 -0.2352
  473MOL0     C65199  11.882   3.537   8.260  0.1128  0.1684  0.1343
  473MOL0     C65200  12.019   3.557   8.312  0.5977 -0.7604 -0.2202
  473MOL0     C65201  12.116   3.601   8.364  0.3770  0.0520 -0.3992
  473MOL0     C65202  11.672   3.132   8.714  0.4036 -0.6230 -0.4529
  473MOL0     C65203  11.629   3.039   8.810 -0.8045 -0.3195 -0.1505
  473MOL0     C65204  11.675   3.063   8.953 -0.3479 -0.3959 -0.3552
  473MOL0     H65205  11.314   2.660   9.045  0.1102  0.4888 -0.7885
  473MOL0     H65206  11.334   2.450   9.143  0.0336  1.6464  1.8126
  473MOL0     H65207  11.455   2.228   9.352  0.1657 -0.1215  2.6845
  473MOL0     H65208  11.451   2.403   9.386 -1.0458 -0.7286  1.0253
  473MOL0     H65209  11.691   2.375   9.479 -1.7687  1.0676 -1.2473
  473MOL0     H65210  11.557   2.300   9.579  1.2127  1.2088  1.2291
  473MOL0     H65211  11.604   2.085   9.455 -0.0033  0.6973 -0.9240
  473MOL0     H65212  11.744   2.152   9.386  1.4403  2.7848  1.0828
  473MOL0     H65213  11.881   2.176   9.568 -1.3483 -0.4279 -3.4166
  473MOL0     H65214  11.743   2.184   9.682 -1.0829  1.1720 -1.0984
  473MOL0     H65215  11.802   1.932   9.539  2.6628 -1.3690  1.8753
  473MOL0     H65216  11.688   1.961   9.674 -0.4501 -1.1221 -0.8347
  473MOL0     H65217  11.902   2.018   9.809 -1.3607  2.9510 -1.3012
  473MOL0     H65218  11.850   1.853   9.772 -0.4114 -0.0627  1.3156
  473MOL0     H65219  12.103   1.890   9.740 -1.1536 -0.6811  0.2790
  473MOL0     H65220  12.058   2.025   9.631 -0.7600 -0.6224 -2.7890
  473MOL0     H65221  11.975   1.729   9.559 -2.3268  1.4988 -1.7571
  473MOL0     H65222  11.997   1.866   9.461 -1.6500 -0.5087  1.3481
  473MOL0     H65223  12.200   1.944   9.366  1.5179  1.2573  2.1837
  473MOL0     H65224  12.539   1.909   9.415  2.1468 -0.7747 -1.4530
  473MOL0     H65225  12.444   1.942   9.268 -0.4455 -0.2698 -1.6266
  473MOL0     H65226  12.640   1.722   9.291  1.6909  2.7606  0.6167
  473MOL0     H65227  12.499   1.714   9.187  1.0208  0.5020 -0.1912
  473MOL0     H65228  12.692   1.801   9.069 -2.0045 -1.5709 -1.3275
  473MOL0     H65229  12.576   1.938   9.096 -0.3628  1.0662  2.7968
  473MOL0     H65230  12.719   2.019   9.276 -1.6133 -0.9634 -0.9921
  473MOL0     H65231  12.826   1.879   9.259 -0.1614 -0.6546 -0.3716
  473MOL0     H65232  12.923   2.049   9.348 -0.6149 -1.1178 -1.5457
  473MOL0     H65233  13.276   2.135   9.437  0.2911 -0.2588  3.2397
  473MOL0     H65234  13.129   2.075   9.501  1.8915  0.6937  1.3513
  473MOL0     H65235  13.149   2.246   9.496 -2.6057 -0.5852  0.2195
  473MOL0     H65236  13.394   2.557   9.118  0.4237  2.1289  0.6461
  473MOL0     H65237  13.581   2.694   9.025 -0.3910  0.3501 -0.0609
  473MOL0     H65238  13.938   2.576   9.150  2.2211  1.1767  0.4751
  473MOL0     H65239  13.971   2.459   9.022 -2.7933  0.3700  1.3201
  473MOL0     H65240  14.103   2.644   8.897 -1.4820  2.4760 -1.0386
  473MOL0     H65241  14.045   2.761   9.005 -1.7554  0.0367 -0.7147
  473MOL0     H65242  14.182   2.529   9.142 -0.8139 -0.4286  0.2473
  473MOL0     H65243  14.208   2.699   9.173  1.6634  0.1394 -0.4312
  473MOL0     H65244  14.349   2.718   8.948  0.1833 -0.9677 -2.2349
  473MOL0     H65245  14.335   2.547   8.940  1.8035  0.5158 -0.0902
  473MOL0     H65246  14.491   2.673   9.174  2.1082 -0.1392  0.6168
  473MOL0     H65247  14.437   2.505   9.159 -2.5201  0.0965 -1.2184
  473MOL0     H65248  14.565   2.464   8.959 -1.9191  0.4231  0.6266
  473MOL0     H65249  14.675   2.528   9.072 -2.1492  1.9482  2.8717
  473MOL0     H65250  14.619   2.752   8.968 -1.3104  0.2483 -1.3865
  473MOL0     H65251  14.558   2.685   8.826  1.4096  2.4503 -1.1121
  473MOL0     H65252  14.777   2.700   8.770  0.3278  0.0743  0.2060
  473MOL0     H65253  14.769   2.530   8.815 -0.9178 -0.5392  0.2862
  473MOL0     H65254  13.815   2.333   8.999 -0.9012 -2.6019  0.1192
  473MOL0     H65255  13.631   2.206   9.054  1.8358 -0.0793  1.7216
  473MOL0     H65256  13.188   2.272   8.993  1.6436 -2.1623 -0.3004
  473MOL0     H65257  12.984   2.174   8.930  0.2759  2.9625 -0.1801
  473MOL0     H65258  11.775   2.497   9.160 -1.1792 -3.3737 -0.3133
  473MOL0     H65259  11.738   2.720   9.049 -0.4846 -0.5120 -0.2318
  473MOL0     H65260  11.426   2.868   8.592  0.3360  0.6835 -0.3282
  473MOL0     H65261  11.517   3.034   8.437 -1.4819  2.0548  0.4402
  473MOL0     H65262  11.703   3.137   8.323 -0.7389 -0.6483  0.4566
  473MOL0     H65263  11.555   3.214   8.331  0.9011 -1.8827 -3.5460
  473MOL0     H65264  11.634   3.439   8.305  0.5049  0.1910  3.5892
  473MOL0     H65265  11.712   3.342   8.169  3.4275 -0.6526  0.4560
  473MOL0     H65266  11.854   3.422   8.431  1.3385  2.4990 -0.8382
  473MOL0     H65267  11.918   3.324   8.293  2.2756  2.2530  0.6443
  473MOL0     H65268  11.809   3.608   8.298  1.3059  1.1118  0.7206
  473MOL0     H65269  11.878   3.517   8.152  1.9428 -3.6406  0.5793
  473MOL0     H65270  12.205   3.647   8.402  0.5312  0.9740 -1.7955
  473MOL0     H65271  11.742   3.210   8.745  1.2080 -1.7805  0.7544
  473MOL0     H65272  11.747   3.145   8.960  0.1851 -0.8714 -0.1948
  473MOL0     H65273  11.584   3.070   9.015 -0.7866 -0.0788 -1.0212
  473MOL0     H65274  11.724   2.972   8.989 -0.8024 -0.0838  1.1597
  474MOL0     O65275   2.090   8.639   2.342 -0.7090 -0.0416  0.3882
  474MOL0     C65276   2.128   8.525   2.370 -0.7030  1.3664 -0.5789
  474MOL0     O65277   2.254   8.477   2.344  0.1899 -0.3039  0.1343
  474MOL0     C65278   2.354   8.561   2.309 -0.7693  0.9237  1.1605
  474MOL0     C65279   2.379   8.686   2.367  0.3707 -0.2050  0.1906
  474MOL0     C65280   2.498   8.758   2.341 -0.4903  0.2565  0.5178
  474MOL0     C65281   2.590   8.709   2.250 -0.7485 -0.2697  0.1246
  474MOL0     O65282   2.699   8.781   2.211 -0.3920  0.0382 -0.3281
  474MOL0     C65283   2.784   8.805   2.323 -0.5492 -0.3452 -0.1286
  474MOL0     C65284   2.923   8.867   2.270  0.4682  0.1970 -0.9965
  474MOL0     C65285   2.953   9.010   2.257  0.5513  0.5589  0.2690
  474MOL0     C65286   2.876   9.079   2.145 -0.7510 -0.4867  0.2383
  474MOL0     C65287   2.932   9.223   2.124  0.9995 -0.4414 -0.4570
  474MOL0     C65288   2.868   9.308   2.010 -0.4877  0.2896 -0.3846
  474MOL0     C65289   2.713   9.330   2.035 -0.1050 -0.3217  0.1086
  474MOL0     C65290   2.654   9.381   1.906  0.9748  0.3846 -0.4193
  474MOL0     N65291   2.612   9.278   1.812 -0.0551  0.0692 -0.2456
  474MOL0     C65292   2.495   9.278   1.738 -0.7456  0.0148  0.1064
  474MOL0     C65293   2.498   9.169   1.658  0.0969 -0.2545 -0.1229
  474MOL0     C65294   2.400   9.135   1.551  0.2611  0.1180 -0.2096
  474MOL0     C65295   2.343   9.257   1.476 -0.7517 -0.2607  0.2508
  474MOL0     C65296   2.438   9.354   1.400 -0.4243  0.3959 -0.1550
  474MOL0     C65297   2.536   9.273   1.314  0.2870 -0.3441 -1.5530
  474MOL0     O65298   2.620   9.370   1.248 -0.5572  0.3228 -0.2362
  474MOL0     C65299   2.735   9.424   1.311 -0.1081 -0.8403 -0.0892
  474MOL0     C65300   2.783   9.389   1.441  0.3040 -0.9399 -0.4174
  474MOL0     C65301   2.905   9.422   1.501 -0.6142 -1.0036  0.4071
  474MOL0     C65302   2.947   9.361   1.641 -0.9208 -0.6787  0.1382
  474MOL0     C65303   2.993   9.504   1.419  0.2718 -0.2289 -0.0657
  474MOL0     C65304   3.118   9.558   1.466 -0.8026 -0.3916 -0.4666
  474MOL0     O65305   3.222   9.563   1.368  0.2919 -0.2190  0.1739
  474MOL0     C65306   3.339   9.593   1.429  0.1927  0.0087 -0.4401
  474MOL0     C65307   3.417   9.487   1.466 -0.0616  0.3720 -0.3203
  474MOL0     C65308   3.542   9.509   1.524  0.0733 -0.1318  0.3943
  474MOL0     C65309   3.580   9.640   1.555 -0.5596  0.3890 -0.2336
  474MOL0     O65310   3.703   9.682   1.601 -0.0790 -0.3748  0.4012
  474MOL0     C65311   3.807   9.707   1.498  0.4438 -0.8516 -0.3477
  474MOL0     C65312   3.867   9.856   1.498  0.7915  0.2590 -0.1805
  474MOL0     C65313   3.803   9.937   1.382  0.1998 -0.3309 -0.6245
  474MOL0     C65314   3.887  10.053   1.346  0.9331 -0.2686  0.7423
  474MOL0     C65315   3.807  10.149   1.254 -0.5943 -0.0307 -0.0896
  474MOL0     C65316   3.913  10.246   1.193 -0.2554  0.2673 -0.7720
  474MOL0     C65317   3.996  10.193   1.070  1.0067 -0.3443 -0.5066
  474MOL0     C65318   4.033  10.306   0.962 -0.4456  0.5186  0.0512
  474MOL0    Cl65319   4.110  10.438   1.045  0.6162 -0.2458 -0.2404
  474MOL0     C65320   3.498   9.745   1.521 -1.5609  0.0709  0.5068
  474MOL0     C65321   3.381   9.722   1.451  1.0633  0.2294  0.9190
  474MOL0     O65322   3.124   9.601   1.576 -0.2058  0.0295 -0.1563
  474MOL0     C65323   2.955   9.532   1.286  1.2511 -0.3569 -0.1784
  474MOL0     C65324   2.832   9.487   1.231  0.4727 -0.1504 -0.8684
  474MOL0     N65325   2.618   9.102   1.687  0.7978  0.4801  0.2848
  474MOL0     N65326   2.680   9.162   1.775 -0.4830 -0.2071 -0.3338
  474MOL0     C65327   2.574   8.586   2.194  0.4584  0.4149  0.2934
  474MOL0     C65328   2.463   8.507   2.231 -0.6805 -0.1421 -0.1912
  474MOL0     C65329   2.023   8.413   2.389  0.9419  0.4512  1.2134
  474MOL0     C65330   2.060   8.280   2.356 -0.2905 -0.3003 -0.8706
  474MOL0     C65331   1.971   8.169   2.377 -0.1805 -0.7738  0.1579
  474MOL0     C65332   1.840   8.198   2.414  0.3978  0.3170 -0.0008
  474MOL0     O65333   1.745   8.100   2.438  0.4899 -0.3285  0.6426
  474MOL0     C65334   1.772   7.965   2.394  0.4418 -0.7602 -0.0743
  474MOL0     C65335   1.661   7.869   2.437  0.3956 -0.0271  0.2924
  474MOL0     C65336   1.532   7.892   2.348  0.4506  0.0722 -0.4211
  474MOL0     C65337   1.412   7.828   2.424 -0.2692  0.1829  0.1470
  474MOL0     C65338   1.298   7.817   2.327 -0.1399 -0.2088  0.3119
  474MOL0     C65339   1.203   7.808   2.255 -0.3795 -0.4798 -0.5471
  474MOL0     C65340   1.795   8.329   2.430  0.7114 -0.1602 -0.6394
  474MOL0     C65341   1.888   8.435   2.419  0.3568 -0.1769 -0.0548
  474MOL0     C65342   1.842   8.570   2.474  0.7162 -0.3740 -0.7815
  474MOL0     H65343   2.305   8.731   2.433 -0.2590 -0.7361 -0.1392
  474MOL0     H65344   2.502   8.862   2.371 -0.2881  0.4524 -0.1725
  474MOL0     H65345   2.803   8.712   2.376 -0.2012  0.3537  1.0187
  474MOL0     H65346   2.743   8.876   2.395  0.6178  0.3113 -0.0790
  474MOL0     H65347   3.005   8.831   2.333 -0.1549  3.6019  2.1663
  474MOL0     H65348   2.941   8.816   2.175  0.0339 -2.7437  0.3824
  474MOL0     H65349   2.929   9.056   2.353  0.4645 -0.4218  0.7305
  474MOL0     H65350   3.061   9.027   2.246  0.4055  1.4137  0.0860
  474MOL0     H65351   2.906   9.015   2.060  4.0806 -0.8894  1.9121
  474MOL0     H65352   2.768   9.069   2.154 -0.6966 -0.5187  0.9183
  474MOL0     H65353   3.036   9.219   2.089  0.6256  1.5928 -1.9746
  474MOL0     H65354   2.927   9.270   2.222  0.3423  1.2036 -1.2415
  474MOL0     H65355   2.924   9.401   2.010  3.5443 -1.9288 -0.8391
  474MOL0     H65356   2.891   9.263   1.913  2.3871  5.6216 -2.5995
  474MOL0     H65357   2.694   9.399   2.118 -1.4067  0.4988 -0.8333
  474MOL0     H65358   2.667   9.237   2.069  0.6219 -0.4261  0.8319
  474MOL0     H65359   2.577   9.456   1.925  2.6628  2.4750 -1.3975
  474MOL0     H65360   2.729   9.433   1.846 -0.2945  2.1744 -0.5022
  474MOL0     H65361   2.426   9.360   1.723 -1.8419 -1.1206 -1.4036
  474MOL0     H65362   2.319   9.075   1.594 -1.0588  0.2646 -2.3403
  474MOL0     H65363   2.446   9.072   1.474 -3.0131 -0.3818 -1.9561
  474MOL0     H65364   2.281   9.210   1.399 -0.7043  0.3047 -0.1421
  474MOL0     H65365   2.276   9.319   1.537 -2.6426 -1.1746 -0.8206
  474MOL0     H65366   2.384   9.430   1.343  1.6400  2.7732  0.8454
  474MOL0     H65367   2.497   9.407   1.475 -0.6162  0.9629 -0.4040
  474MOL0     H65368   2.601   9.201   1.365 -0.4626 -0.2440 -0.4022
  474MOL0     H65369   2.476   9.216   1.242  0.6194  0.3470 -2.3791
  474MOL0     H65370   2.710   9.339   1.504 -1.7433  0.3565 -1.6197
  474MOL0     H65371   2.865   9.298   1.678 -0.4189 -2.2171 -1.2627
  474MOL0     H65372   2.952   9.440   1.717  0.1545  0.7163 -1.3283
  474MOL0     H65373   3.041   9.307   1.636  0.9233  2.4288 -1.7065
  474MOL0     H65374   3.390   9.384   1.446  0.2345  0.4670 -1.2326
  474MOL0     H65375   3.615   9.432   1.546  0.3461  0.0155  0.0090
  474MOL0     H65376   3.889   9.639   1.522 -1.6780 -2.9459  1.4899
  474MOL0     H65377   3.757   9.688   1.402 -0.4155  0.6771 -0.2351
  474MOL0     H65378   3.856   9.910   1.592  1.7339  0.1927 -0.0189
  474MOL0     H65379   3.971   9.849   1.464  0.9896  2.8094 -0.2297
  474MOL0     H65380   3.703   9.971   1.411 -0.3501 -0.2124 -2.5012
  474MOL0     H65381   3.788   9.877   1.292 -2.2117 -1.1522  0.2593
  474MOL0     H65382   3.965  10.009   1.284  0.4727  0.4205 -0.3674
  474MOL0     H65383   3.917  10.099   1.441  1.1923 -1.9828  1.5268
  474MOL0     H65384   3.755  10.102   1.170 -3.8545  0.0752  1.7120
  474MOL0     H65385   3.736  10.211   1.310  1.0246  1.0670  0.8442
  474MOL0     H65386   3.980  10.278   1.274 -0.6590  1.1073 -0.7518
  474MOL0     H65387   3.861  10.338   1.164  0.6191  0.8308 -0.5863
  474MOL0     H65388   3.938  10.113   1.023 -0.9175  0.6680  0.0549
  474MOL0     H65389   4.092  10.156   1.107  1.3265  1.2440  0.3396
  474MOL0     H65390   3.946  10.345   0.908 -0.7020 -0.7636 -0.4953
  474MOL0     H65391   4.102  10.269   0.886 -2.9074 -2.1808 -1.0608
  474MOL0     H65392   3.534   9.844   1.546 -2.0798  0.1457  0.9654
  474MOL0     H65393   3.320   9.810   1.428  0.5469 -0.1243  0.9188
  474MOL0     H65394   3.030   9.566   1.215 -2.0943 -1.4290 -4.7192
  474MOL0     H65395   2.817   9.498   1.124  0.4597 -0.1568 -0.8673
  474MOL0     H65396   2.646   8.535   2.131 -1.2782 -3.2242  1.0449
  474MOL0     H65397   2.466   8.408   2.186  0.0334 -0.3348  0.2614
  474MOL0     H65398   2.164   8.268   2.329  0.7697 -2.4054  3.3102
  474MOL0     H65399   2.011   8.069   2.365 -2.1337 -1.3693 -2.1600
  474MOL0     H65400   1.780   7.955   2.286 -0.5047  1.2339 -0.3851
  474MOL0     H65401   1.868   7.930   2.435  0.9892 -2.5813 -2.6664
  474MOL0     H65402   1.638   7.892   2.541 -0.0566 -0.0065  0.1883
  474MOL0     H65403   1.700   7.767   2.425 -2.8660 -1.1578 -2.2482
  474MOL0     H65404   1.513   7.999   2.333  2.1295  1.7746  6.0919
  474MOL0     H65405   1.544   7.837   2.254  2.7404 -0.2588 -0.0074
  474MOL0     H65406   1.379   7.895   2.504  0.3812  1.0936 -0.3374
  474MOL0     H65407   1.444   7.740   2.481 -2.5485  0.1298  1.4792
  474MOL0     H65408   1.126   7.797   2.182 -0.4180 -1.1441 -0.4199
  474MOL0     H65409   1.691   8.346   2.455  0.4729 -1.2076 -0.8896
  474MOL0     H65410   1.916   8.625   2.533  0.0707 -1.3756  1.0821
  474MOL0     H65411   1.805   8.635   2.394  0.1514  0.8844  0.4576
  474MOL0     H65412   1.759   8.556   2.544  2.5460 -1.1559  1.3920
  475MOL0     O65413  10.268   4.060   4.096 -0.0472 -0.1510  0.0762
  475MOL0     C65414  10.306   4.089   4.215 -0.5014  0.3433 -1.1791
  475MOL0     O65415  10.422   4.152   4.244 -0.0179  0.0115 -0.2574
  475MOL0     C65416  10.514   4.159   4.141 -0.1412 -0.1707  0.3969
  475MOL0     C65417  10.609   4.057   4.112 -0.3147 -0.4051  0.1805
  475MOL0     C65418  10.699   4.074   4.009 -0.9965 -0.4992  1.1232
  475MOL0     C65419  10.701   4.196   3.937  0.0129 -0.3706 -0.0805
  475MOL0     O65420  10.808   4.208   3.849 -0.6616  0.8676 -0.1211
  475MOL0     C65421  10.827   4.313   3.754  0.4690 -0.8018 -1.7374
  475MOL0     C65422  10.773   4.280   3.618 -0.0421 -0.4790  1.3966
  475MOL0     C65423  10.883   4.274   3.506  0.2642 -0.4631  0.1514
  475MOL0     C65424  10.962   4.404   3.499 -0.6953  0.1472 -0.1721
  475MOL0     C65425  11.071   4.391   3.391  0.2956  0.4051 -0.3905
  475MOL0     C65426  11.145   4.522   3.363  0.4502 -0.0745  0.1084
  475MOL0     C65427  11.213   4.521   3.232  0.5627  0.2221  0.1613
  475MOL0     C65428  11.127   4.545   3.109 -0.5107  0.0167 -0.4896
  475MOL0     N65429  11.185   4.501   2.979 -0.1136  0.0975 -0.3692
  475MOL0     C65430  11.313   4.522   2.937  0.1860 -0.5502  0.8365
  475MOL0     C65431  11.315   4.448   2.825  0.5029  0.3519  0.8406
  475MOL0     C65432  11.436   4.435   2.735  0.2041 -0.1560 -0.2693
  475MOL0     C65433  11.429   4.305   2.649 -0.9293 -0.4523  0.1210
  475MOL0     C65434  11.552   4.286   2.561  0.6246 -0.1710  0.7539
  475MOL0     C65435  11.685   4.251   2.636 -0.0614  0.2387  0.5915
  475MOL0     O65436  11.671   4.132   2.706  0.6833 -0.4932  0.6040
  475MOL0     C65437  11.775   4.101   2.794 -0.2328  0.0068  0.1011
  475MOL0     C65438  11.776   3.974   2.842 -0.4033  0.0967 -0.2342
  475MOL0     C65439  11.886   3.920   2.913  0.5833 -0.0335 -0.3188
  475MOL0     C65440  11.872   3.777   2.958 -0.7258  0.4292 -0.3798
  475MOL0     C65441  11.997   4.001   2.953 -0.0118  0.2064  0.0942
  475MOL0     C65442  12.113   3.968   3.027  0.2247  0.1901 -0.2417
  475MOL0     O65443  12.210   4.067   3.051  0.3161  0.5412  0.0052
  475MOL0     C65444  12.326   4.038   3.114  0.9534 -0.4521 -0.5297
  475MOL0     C65445  12.330   4.019   3.246 -0.6667  0.0831 -0.0608
  475MOL0     C65446  12.451   4.006   3.314 -0.5449  0.3423 -0.3669
  475MOL0     C65447  12.569   4.030   3.257 -0.3372 -0.1460 -0.0857
  475MOL0     O65448  12.696   4.021   3.317 -0.0156 -0.1630 -0.1469
  475MOL0     C65449  12.722   3.884   3.368  0.3015 -0.2333 -0.2696
  475MOL0     C65450  12.718   3.769   3.263 -0.8962  0.4906 -0.2076
  475MOL0     C65451  12.765   3.636   3.318 -0.2182 -0.8156 -0.1205
  475MOL0     C65452  12.902   3.627   3.392  0.0257  0.2892 -0.6354
  475MOL0     C65453  12.956   3.487   3.437  0.3094  0.2419 -0.8740
  475MOL0     C65454  13.086   3.510   3.506 -0.3435 -0.7051  0.2104
  475MOL0     C65455  13.151   3.366   3.518  0.6794 -0.1954  0.0719
  475MOL0     C65456  13.258   3.374   3.621  0.8221  0.3275 -0.4989
  475MOL0    Cl65457  13.384   3.492   3.570 -0.1124  0.8895 -0.5890
  475MOL0     C65458  12.568   4.075   3.123  0.1914  0.3932  0.6131
  475MOL0     C65459  12.447   4.069   3.054 -0.6768  0.8483  0.0141
  475MOL0     O65460  12.128   3.850   3.052  0.2112  0.3468 -0.1023
  475MOL0     C65461  11.996   4.136   2.912  0.4400  0.1310  0.2170
  475MOL0     C65462  11.882   4.185   2.828 -0.7416  0.1241 -0.3527
  475MOL0     N65463  11.200   4.382   2.800  0.5106 -0.9036  0.6538
  475MOL0     N65464  11.129   4.411   2.900  0.0815 -0.3935 -0.1455
  475MOL0     C65465  10.609   4.302   3.968  0.8037  0.1772  0.7074
  475MOL0     C65466  10.510   4.280   4.069  0.5304 -0.3964  0.2123
  475MOL0     C65467  10.205   4.079   4.322 -1.1043  0.0574 -0.4017
  475MOL0     C65468  10.258   4.117   4.451  0.7679 -0.4509  0.2934
  475MOL0     C65469  10.172   4.123   4.560 -0.1484 -0.0164 -0.0034
  475MOL0     C65470  10.032   4.087   4.545 -0.1253 -0.4775  0.2349
  475MOL0     O65471   9.950   4.121   4.646  0.5203 -0.0916 -0.5004
  475MOL0     C65472   9.809   4.094   4.623 -1.1125  0.6815  0.1477
  475MOL0     C65473   9.741   4.178   4.722  0.2588 -0.2250 -0.5187
  475MOL0     C65474   9.595   4.167   4.703  1.1321  0.9535 -0.3579
  475MOL0     C65475   9.517   4.237   4.810 -0.4643  0.3068 -0.4863
  475MOL0     C65476   9.377   4.222   4.800 -0.5706  0.4486 -0.8330
  475MOL0     C65477   9.257   4.222   4.814 -0.6243 -0.5344  0.2851
  475MOL0     C65478   9.989   4.036   4.423 -0.8876  0.6440 -0.6771
  475MOL0     C65479  10.074   4.037   4.310 -0.4158  0.6670 -0.3106
  475MOL0     C65480  10.013   3.984   4.179 -0.7559 -0.2634 -0.1807
  475MOL0     H65481  10.609   3.967   4.173 -2.3065 -1.6313 -1.5115
  475MOL0     H65482  10.764   3.989   3.990 -0.6526  0.2819 -1.5851
  475MOL0     H65483  10.936   4.322   3.755  0.4617 -0.0259  0.9826
  475MOL0     H65484  10.786   4.410   3.786  0.9871  0.1164 -3.7064
  475MOL0     H65485  10.728   4.181   3.612 -1.9672  0.3810  0.7149
  475MOL0     H65486  10.704   4.356   3.578 -0.2633  0.0164  2.6918
  475MOL0     H65487  10.946   4.189   3.534  1.6970  0.6298  0.3702
  475MOL0     H65488  10.834   4.254   3.410  0.8946  0.4957 -0.3863
  475MOL0     H65489  10.911   4.495   3.468 -0.2534 -0.0140 -1.4450
  475MOL0     H65490  11.006   4.424   3.597  0.7020  0.1452 -0.7868
  475MOL0     H65491  11.017   4.355   3.303  0.9288  0.2352 -0.7123
  475MOL0     H65492  11.143   4.316   3.424  1.6275  0.5011 -2.8820
  475MOL0     H65493  11.075   4.606   3.352 -0.4096 -0.7542  0.2833
  475MOL0     H65494  11.219   4.552   3.437 -0.1648  4.3528 -0.7863
  475MOL0     H65495  11.248   4.418   3.225  0.6739  0.3031 -0.5527
  475MOL0     H65496  11.293   4.595   3.243  2.9301 -2.2802  0.5890
  475MOL0     H65497  11.039   4.481   3.106 -1.0924  0.7913 -0.5006
  475MOL0     H65498  11.086   4.646   3.114 -1.1696 -0.2870  0.3085
  475MOL0     H65499  11.398   4.580   2.973  3.0542 -3.0926 -1.3373
  475MOL0     H65500  11.522   4.429   2.802  0.5826  0.4104 -0.6819
  475MOL0     H65501  11.440   4.520   2.666  0.8404 -0.9202 -1.1980
  475MOL0     H65502  11.423   4.224   2.723 -1.2250 -1.2152 -0.7209
  475MOL0     H65503  11.334   4.301   2.596 -2.1867  0.6674  2.1431
  475MOL0     H65504  11.532   4.208   2.487  3.0114  2.0454 -2.5226
  475MOL0     H65505  11.560   4.372   2.494 -4.1693  0.8159  1.0508
  475MOL0     H65506  11.767   4.240   2.565  1.7529  0.6653  2.5132
  475MOL0     H65507  11.717   4.328   2.707 -1.2373 -1.1907  2.7484
  475MOL0     H65508  11.685   3.921   2.814  0.9503 -2.4849 -0.0023
  475MOL0     H65509  11.856   3.761   3.065  0.8844 -0.7837 -0.2698
  475MOL0     H65510  11.959   3.718   2.925 -1.6842 -0.2119 -1.8802
  475MOL0     H65511  11.790   3.731   2.902  1.4276 -1.2117 -2.4046
  475MOL0     H65512  12.236   3.995   3.294  0.8598 -2.6366  1.8600
  475MOL0     H65513  12.446   3.978   3.419  1.2534 -3.5298 -1.1382
  475MOL0     H65514  12.820   3.884   3.419 -1.0501  0.1167  2.5235
  475MOL0     H65515  12.646   3.862   3.443  0.8054  0.0316  0.3355
  475MOL0     H65516  12.615   3.747   3.233 -1.1606 -0.7855  1.5065
  475MOL0     H65517  12.783   3.794   3.179 -0.5348 -0.9816 -0.3830
  475MOL0     H65518  12.758   3.575   3.228  0.2040  0.4732 -1.0611
  475MOL0     H65519  12.691   3.595   3.388  0.0639  0.0847  0.7335
  475MOL0     H65520  12.895   3.689   3.481 -1.8378  1.4577 -1.5207
  475MOL0     H65521  12.977   3.665   3.322  0.9378  1.7199  1.0415
  475MOL0     H65522  12.890   3.437   3.508 -0.1980 -0.3576 -1.7450
  475MOL0     H65523  12.965   3.432   3.342  0.1099  0.0685 -0.7940
  475MOL0     H65524  13.068   3.556   3.604 -0.9330 -3.2509  1.3781
  475MOL0     H65525  13.142   3.580   3.443 -2.4781  0.1352 -0.8345
  475MOL0     H65526  13.203   3.343   3.425  1.2158 -0.9421  0.5436
  475MOL0     H65527  13.067   3.300   3.543 -0.1366 -0.0078 -1.9716
  475MOL0     H65528  13.302   3.275   3.630  0.4593 -0.1738 -3.2112
  475MOL0     H65529  13.216   3.411   3.715 -0.6754  3.7773 -2.3473
  475MOL0     H65530  12.666   4.094   3.079 -0.4439  0.1339 -0.9670
  475MOL0     H65531  12.446   4.087   2.947 -1.4178 -2.0649 -0.5510
  475MOL0     H65532  12.076   4.208   2.925 -0.1560  0.9120 -0.4124
  475MOL0     H65533  11.879   4.288   2.793 -1.2726  0.2784  0.1363
  475MOL0     H65534  10.605   4.398   3.917 -1.6727 -1.7680 -3.1729
  475MOL0     H65535  10.438   4.356   4.099  2.2144  0.9757  0.9236
  475MOL0     H65536  10.363   4.144   4.452  1.8639 -4.0118 -1.4718
  475MOL0     H65537  10.206   4.131   4.663  1.2484 -1.1914 -0.3343
  475MOL0     H65538   9.765   4.116   4.525 -1.0900 -1.9255 -0.5250
  475MOL0     H65539   9.786   3.987   4.631 -1.4276  0.6827 -0.6478
  475MOL0     H65540   9.780   4.280   4.724 -1.8551  0.6194  1.3656
  475MOL0     H65541   9.766   4.145   4.823  0.8286 -1.4843 -1.0486
  475MOL0     H65542   9.574   4.210   4.604 -0.3176  3.3820  0.9292
  475MOL0     H65543   9.562   4.062   4.701  0.8520  1.0173 -2.8306
  475MOL0     H65544   9.549   4.342   4.815  3.6966 -0.8441  0.7243
  475MOL0     H65545   9.545   4.204   4.910  0.0478  1.1405 -0.3418
  475MOL0     H65546   9.155   4.203   4.840 -0.8112  1.3473  1.0811
  475MOL0     H65547   9.888   3.999   4.410 -1.1911  2.0059 -2.6358
  475MOL0     H65548   9.914   3.948   4.208 -0.7174  0.4819  0.9580
  475MOL0     H65549  10.010   4.052   4.093  4.0648 -1.0579 -1.3073
  475MOL0     H65550  10.073   3.897   4.153 -0.2478  0.2083 -0.6130
  476MOL0     O65551   7.357   8.027  10.815  0.3296 -0.0262 -0.3430
  476MOL0     C65552   7.296   7.924  10.794  0.3781  0.9342  0.6264
  476MOL0     O65553   7.317   7.805  10.858 -0.5717  0.5464 -0.3438
  476MOL0     C65554   7.430   7.788  10.931  0.3232  0.0395 -0.1855
  476MOL0     C65555   7.450   7.849  11.052  0.0014 -0.3293  0.1487
  476MOL0     C65556   7.575   7.834  11.119  0.0303 -0.0222 -0.2635
  476MOL0     C65557   7.676   7.757  11.068 -0.7895  1.0609 -0.2266
  476MOL0     O65558   7.796   7.729  11.127 -0.1480 -0.5955 -0.1132
  476MOL0     C65559   7.866   7.836  11.202  0.4598  0.3869  1.3757
  476MOL0     C65560   8.009   7.815  11.174 -0.5547  0.0011 -0.9221
  476MOL0     C65561   8.078   7.723  11.273 -0.8271  0.9224  0.8522
  476MOL0     C65562   8.111   7.773  11.408 -0.0243 -0.1584  0.2696
  476MOL0     C65563   8.223   7.694  11.485 -0.0526  0.1617 -0.5197
  476MOL0     C65564   8.364   7.741  11.424  0.8054  0.2354 -0.3037
  476MOL0     C65565   8.476   7.746  11.521 -0.0001 -0.0020  0.2492
  476MOL0     C65566   8.526   7.615  11.576 -0.2557 -0.5248 -0.5476
  476MOL0     N65567   8.644   7.567  11.502  0.4597 -0.1081  0.0262
  476MOL0     C65568   8.635   7.498  11.376 -0.5019 -0.8957 -0.8468
  476MOL0     C65569   8.743   7.409  11.366 -0.0231 -0.3784 -0.0537
  476MOL0     C65570   8.754   7.302  11.262 -0.6393 -0.3244  0.1823
  476MOL0     C65571   8.886   7.334  11.181  0.9208  0.1646 -0.4142
  476MOL0     C65572   8.996   7.242  11.227 -1.2544 -0.4458  0.1061
  476MOL0     C65573   9.132   7.281  11.160 -0.2425  0.3455  0.0988
  476MOL0     O65574   9.227   7.174  11.183  0.4321  0.2606 -0.2667
  476MOL0     C65575   9.333   7.169  11.108  0.0669  0.4997  0.0089
  476MOL0     C65576   9.376   7.259  11.010  0.1710  0.3348  0.0871
  476MOL0     C65577   9.491   7.243  10.928  0.6669  0.1479 -0.1358
  476MOL0     C65578   9.525   7.342  10.819  0.0744  0.2529 -0.1017
  476MOL0     C65579   9.567   7.119  10.942 -0.7806 -0.4639  0.4789
  476MOL0     C65580   9.675   7.072  10.849 -1.1144 -0.1256  0.0204
  476MOL0     O65581   9.750   6.967  10.897 -0.1084  0.3260  0.9428
  476MOL0     C65582   9.840   6.906  10.817 -1.4959  0.6254  0.8396
  476MOL0     C65583   9.818   6.881  10.678 -1.1100 -0.1435  0.4701
  476MOL0     C65584   9.935   6.858  10.606  0.6355 -0.0965  0.2009
  476MOL0     C65585  10.058   6.823  10.663 -0.2655 -1.7438  0.2024
  476MOL0     O65586  10.157   6.782  10.573 -0.5912  0.1737  0.1875
  476MOL0     C65587  10.198   6.643  10.573 -0.7408 -0.3387  0.3597
  476MOL0     C65588  10.117   6.543  10.491 -0.4219  0.1152  0.6670
  476MOL0     C65589  10.107   6.591  10.347 -0.7200 -0.2522 -0.4568
  476MOL0     C65590  10.020   6.502  10.258  0.2265 -0.2045  0.4207
  476MOL0     C65591  10.033   6.531  10.114 -0.3743 -0.0770 -0.0693
  476MOL0     C65592  10.157   6.468  10.052  0.0958  0.4391  0.1743
  476MOL0     C65593  10.141   6.318  10.028 -0.3437 -0.2545  0.4425
  476MOL0     C65594  10.254   6.232  10.084 -0.0853  0.6413  0.6330
  476MOL0    Cl65595  10.259   6.238  10.263 -0.2491  0.3057 -0.4157
  476MOL0     C65596  10.070   6.831  10.800 -0.6529  1.0351  0.0767
  476MOL0     C65597   9.960   6.878  10.877 -0.7535  0.5115 -0.4682
  476MOL0     O65598   9.696   7.124  10.741 -0.1183 -0.1490  0.3379
  476MOL0     C65599   9.533   7.028  11.046  0.3814  0.1413 -0.9846
  476MOL0     C65600   9.416   7.052  11.120  0.5824 -0.2273 -0.1580
  476MOL0     N65601   8.820   7.428  11.478 -0.0710  0.0099  0.5269
  476MOL0     N65602   8.757   7.517  11.559  0.1496  0.6184 -0.0280
  476MOL0     C65603   7.652   7.692  10.948 -0.2200 -0.4087 -0.4427
  476MOL0     C65604   7.528   7.703  10.884 -0.5967  0.2177  0.0427
  476MOL0     C65605   7.183   7.942  10.697 -0.2835  0.0402 -0.4028
  476MOL0     C65606   7.095   7.832  10.674  0.4258  0.2828  0.6472
  476MOL0     C65607   6.997   7.842  10.573  0.9566  0.7652  0.0215
  476MOL0     C65608   6.986   7.951  10.493 -0.0188  0.1777  0.2846
  476MOL0     O65609   6.878   7.979  10.407  0.4346 -0.0928 -0.3425
  476MOL0     C65610   6.761   7.893  10.404 -0.4873  0.2015  0.0172
  476MOL0     C65611   6.648   7.975  10.357  0.1797 -0.6517  0.3753
  476MOL0     C65612   6.668   8.046  10.228  0.2274  0.2819 -0.4390
  476MOL0     C65613   6.550   8.132  10.193  1.0750 -0.6508 -0.3563
  476MOL0     C65614   6.430   8.049  10.156  0.1754  0.5569 -0.0640
  476MOL0     C65615   6.329   7.991  10.125 -0.4659 -0.3605  0.2202
  476MOL0     C65616   7.070   8.051  10.515  0.2218 -0.4045 -0.0365
  476MOL0     C65617   7.168   8.058  10.615  0.3105  0.0402 -0.3909
  476MOL0     C65618   7.237   8.192  10.626 -1.2206  0.0693  0.3042
  476MOL0     H65619   7.375   7.910  11.102 -0.7987 -1.1560  0.0052
  476MOL0     H65620   7.591   7.898  11.205 -1.3930 -0.7419  0.5750
  476MOL0     H65621   7.836   7.831  11.308 -1.4236 -2.2282  0.8325
  476MOL0     H65622   7.826   7.932  11.168 -2.4785 -0.7222  1.3553
  476MOL0     H65623   8.035   7.780  11.074  1.6496  0.5859 -0.6007
  476MOL0     H65624   8.059   7.912  11.182  1.7359 -1.2123  0.7260
  476MOL0     H65625   8.033   7.624  11.276  0.9142  0.1009  0.6901
  476MOL0     H65626   8.176   7.701  11.230 -0.3995  2.0776  1.1934
  476MOL0     H65627   8.132   7.881  11.403  0.0936 -0.1018  1.6730
  476MOL0     H65628   8.020   7.770  11.468 -0.0959  0.6398  0.2212
  476MOL0     H65629   8.213   7.585  11.488  2.4544 -0.1379 -1.0910
  476MOL0     H65630   8.209   7.717  11.591 -1.4336 -4.6695  0.6077
  476MOL0     H65631   8.387   7.672  11.342  2.6146 -0.6972  0.9184
  476MOL0     H65632   8.350   7.840  11.379 -0.4019  0.3147  0.1946
  476MOL0     H65633   8.445   7.803  11.609 -1.9749 -1.5221  0.6131
  476MOL0     H65634   8.559   7.794  11.469  1.1089 -0.0121  1.9162
  476MOL0     H65635   8.550   7.624  11.682 -1.7706 -0.7354 -0.1595
  476MOL0     H65636   8.438   7.549  11.582 -0.4926 -0.1006  0.8607
  476MOL0     H65637   8.553   7.505  11.306 -0.7285  1.9915 -0.4161
  476MOL0     H65638   8.669   7.292  11.194  0.4277 -0.4346 -1.2045
  476MOL0     H65639   8.768   7.205  11.310 -0.8674  0.6648  2.3483
  476MOL0     H65640   8.870   7.327  11.073  0.9920  1.4754 -0.5161
  476MOL0     H65641   8.912   7.438  11.202 -0.0002  0.5022 -0.8969
  476MOL0     H65642   9.009   7.247  11.335  3.1861 -0.3802 -0.2392
  476MOL0     H65643   8.974   7.137  11.205 -1.0308 -0.4186 -0.2572
  476MOL0     H65644   9.117   7.303  11.054  1.4096 -0.2759 -0.3046
  476MOL0     H65645   9.167   7.369  11.214  0.5016 -0.0228  0.2286
  476MOL0     H65646   9.310   7.344  10.994 -1.5960 -0.8592  0.7319
  476MOL0     H65647   9.477   7.438  10.840 -0.5507 -0.1493  0.3473
  476MOL0     H65648   9.473   7.304  10.731 -1.7731  2.2013  0.0737
  476MOL0     H65649   9.633   7.355  10.804  0.1310  1.7681  1.3761
  476MOL0     H65650   9.718   6.895  10.638 -0.2089  1.2332 -1.4432
  476MOL0     H65651   9.917   6.837  10.501 -0.9512 -1.0378  0.6123
  476MOL0     H65652  10.302   6.639  10.539 -0.2271  1.7288  1.5304
  476MOL0     H65653  10.203   6.609  10.677  1.6129  3.0634  1.5325
  476MOL0     H65654  10.172   6.449  10.502  2.1862  1.7052  2.4839
  476MOL0     H65655  10.021   6.539  10.544 -0.8696  0.9813 -0.0507
  476MOL0     H65656  10.205   6.589  10.297 -0.9096  0.9796 -0.9208
  476MOL0     H65657  10.070   6.694  10.347  0.3032  0.1503  1.3215
  476MOL0     H65658   9.920   6.524  10.296  0.8479 -0.9559  2.6600
  476MOL0     H65659  10.041   6.398  10.285  4.8671 -0.5318 -3.1973
  476MOL0     H65660   9.939   6.493  10.072 -2.8347  4.0354  1.0636
  476MOL0     H65661  10.036   6.638  10.093  2.7455  0.2190  1.3686
  476MOL0     H65662  10.245   6.494  10.111 -0.9505  3.0450  0.7334
  476MOL0     H65663  10.167   6.512   9.952  0.7763 -0.5281 -0.2053
  476MOL0     H65664  10.143   6.300   9.920 -1.2542  0.7619  0.2450
  476MOL0     H65665  10.047   6.284  10.072 -1.6646  2.2642 -0.3061
  476MOL0     H65666  10.349   6.261  10.037 -1.2903  2.3343 -0.9251
  476MOL0     H65667  10.246   6.124  10.069  5.2999 -0.3732  2.9565
  476MOL0     H65668  10.164   6.797  10.843 -1.0514 -1.4281 -0.8333
  476MOL0     H65669   9.969   6.892  10.984  0.2327 -2.4478 -0.0814
  476MOL0     H65670   9.586   6.935  11.062 -1.7826 -1.5016 -2.7734
  476MOL0     H65671   9.388   6.980  11.196  0.1135  0.3647  0.2461
  476MOL0     H65672   7.733   7.631  10.909  2.0570  1.3028  1.3289
  476MOL0     H65673   7.507   7.649  10.792  2.8018 -0.3368 -0.5289
  476MOL0     H65674   7.096   7.740  10.732 -0.4931  0.0833  0.3670
  476MOL0     H65675   6.933   7.755  10.555 -0.7309  1.3270  2.7295
  476MOL0     H65676   6.767   7.819  10.323 -1.6179 -1.0206  1.0178
  476MOL0     H65677   6.733   7.838  10.494  1.4070 -2.1855 -0.7512
  476MOL0     H65678   6.615   8.041  10.437 -1.1936  1.5215 -1.8509
  476MOL0     H65679   6.561   7.910  10.344 -0.5616  0.6363 -1.4596
  476MOL0     H65680   6.745   8.119  10.257  2.8253 -1.7978 -1.6874
  476MOL0     H65681   6.704   7.979  10.149 -3.1490 -3.0698  0.5746
  476MOL0     H65682   6.571   8.211  10.120 -0.6366 -0.3719 -0.5902
  476MOL0     H65683   6.521   8.191  10.281  1.8431 -2.2513  1.0443
  476MOL0     H65684   6.248   7.926  10.099  0.0139 -0.9285  0.1324
  476MOL0     H65685   7.068   8.143  10.457 -0.8768 -0.6220 -0.3752
  476MOL0     H65686   7.334   8.185  10.577 -1.1637  0.1501  0.4068
  476MOL0     H65687   7.182   8.274  10.578  3.0700  1.3261 -3.0631
  476MOL0     H65688   7.249   8.218  10.732  0.8827  3.9433 -0.7127
  477MOL0     O65689   1.620   8.797   2.422  0.9734 -0.2340  0.0404
  477MOL0     C65690   1.569   8.906   2.457  0.2497 -0.3196  0.0508
  477MOL0     O65691   1.628   9.005   2.533 -0.2752  0.6730  0.5605
  477MOL0     C65692   1.762   8.998   2.555  0.1135 -0.6230  0.3967
  477MOL0     C65693   1.797   9.058   2.669 -0.6060 -0.4326  1.0118
  477MOL0     C65694   1.922   9.039   2.716 -0.2250  1.0872 -0.4054
  477MOL0     C65695   2.022   8.973   2.647  0.5575 -0.3104 -0.0713
  477MOL0     O65696   2.148   8.988   2.702 -0.0417  0.1522  0.2384
  477MOL0     C65697   2.251   8.889   2.676 -0.0111  0.7774  0.0022
  477MOL0     C65698   2.367   8.902   2.779 -0.4296  0.4878  0.1947
  477MOL0     C65699   2.426   9.040   2.786 -0.5978  0.1583  0.1043
  477MOL0     C65700   2.522   9.063   2.898 -0.1256  0.7919 -0.0891
  477MOL0     C65701   2.627   8.964   2.938 -0.3024 -0.4431  0.3043
  477MOL0     C65702   2.725   9.008   3.053  0.0814  0.4447 -0.0038
  477MOL0     C65703   2.841   8.905   3.078  0.0056 -0.2348 -0.3649
  477MOL0     C65704   2.965   8.918   3.001 -0.0350 -0.3711  0.4651
  477MOL0     N65705   3.060   8.810   3.033  0.1686 -0.7886 -0.0133
  477MOL0     C65706   3.048   8.672   3.012 -0.1434 -0.6303  0.1340
  477MOL0     C65707   3.147   8.611   3.066 -0.0836  0.3344 -0.1001
  477MOL0     C65708   3.179   8.465   3.053 -0.7792  0.1679  0.3933
  477MOL0     C65709   3.216   8.403   3.187  0.0794  1.0107  0.1461
  477MOL0     C65710   3.371   8.405   3.204 -0.2530 -0.0639 -0.8406
  477MOL0     C65711   3.449   8.538   3.190 -0.2437  0.3707  0.0051
  477MOL0     O65712   3.586   8.520   3.190 -1.0277  0.1685  0.2836
  477MOL0     C65713   3.681   8.584   3.270 -0.6894 -0.3793  0.4065
  477MOL0     C65714   3.656   8.688   3.357  0.1675  0.4453  0.5040
  477MOL0     C65715   3.755   8.751   3.436 -0.5511  0.0187 -0.1169
  477MOL0     C65716   3.715   8.848   3.534  0.1275 -0.5999 -0.0302
  477MOL0     C65717   3.890   8.721   3.418 -0.5174 -0.1803  0.2568
  477MOL0     C65718   4.006   8.791   3.483  0.9724  1.1151 -0.4467
  477MOL0     O65719   4.120   8.784   3.420  0.4994  0.3161 -0.0885
  477MOL0     C65720   4.227   8.865   3.467  0.2618 -0.4326  0.5848
  477MOL0     C65721   4.344   8.810   3.423 -0.2722 -0.6587 -0.4225
  477MOL0     C65722   4.470   8.875   3.461  0.6906  0.8040 -0.0882
  477MOL0     C65723   4.470   8.989   3.534  0.5019  0.2634 -0.4454
  477MOL0     O65724   4.582   9.040   3.582 -0.6054 -0.3013 -0.4696
  477MOL0     C65725   4.601   9.174   3.629  0.6730  0.0722  0.7663
  477MOL0     C65726   4.745   9.217   3.651  0.3825  0.2462  0.1404
  477MOL0     C65727   4.829   9.204   3.524  0.0027  0.2725 -0.1748
  477MOL0     C65728   4.941   9.316   3.513  0.2648  0.5073  0.5035
  477MOL0     C65729   4.989   9.326   3.366 -0.4098  0.1152 -0.7666
  477MOL0     C65730   5.120   9.411   3.344 -0.3433  0.4643 -0.3416
  477MOL0     C65731   5.101   9.558   3.377  0.0516 -0.7877 -0.1221
  477MOL0     C65732   5.228   9.630   3.393 -0.0810  0.1166  0.0365
  477MOL0    Cl65733   5.204   9.803   3.401  0.3375  0.3109  0.3701
  477MOL0     C65734   4.345   9.034   3.579  0.3021  0.0353 -0.5063
  477MOL0     C65735   4.223   8.979   3.541  0.2661 -0.2089 -1.0000
  477MOL0     O65736   3.989   8.840   3.592 -0.6566  0.2145  0.0592
  477MOL0     C65737   3.917   8.621   3.319  0.6051 -0.3185  0.3224
  477MOL0     C65738   3.815   8.549   3.252 -0.5160 -0.8470  0.4332
  477MOL0     N65739   3.222   8.707   3.124 -0.9096 -0.5446  0.4104
  477MOL0     N65740   3.171   8.822   3.104 -0.7455  0.5117 -0.0877
  477MOL0     C65741   1.988   8.910   2.531  1.1047  0.0327  0.1973
  477MOL0     C65742   1.860   8.921   2.478 -0.2779  0.7106  0.7630
  477MOL0     C65743   1.424   8.931   2.429  0.4579  0.9802 -0.0782
  477MOL0     C65744   1.345   9.031   2.496 -1.0729 -0.2671  0.0715
  477MOL0     C65745   1.219   9.076   2.471 -0.0675  0.1804 -1.5244
  477MOL0     C65746   1.157   9.019   2.364  0.4567  0.4883  0.7846
  477MOL0     O65747   1.034   9.068   2.327 -0.0447 -0.5091 -0.1660
  477MOL0     C65748   0.937   9.000   2.253 -0.6332  0.0226  0.3255
  477MOL0     C65749   0.873   8.888   2.342 -1.0773 -0.5240  0.0227
  477MOL0     C65750   0.796   8.956   2.453  0.2874 -0.8680  0.1254
  477MOL0     C65751   0.744   8.867   2.571  0.2977 -0.3070  0.3787
  477MOL0     C65752   0.860   8.797   2.626 -0.6339  0.9507 -0.2353
  477MOL0     C65753   0.953   8.730   2.673  0.1789  0.5112 -0.6825
  477MOL0     C65754   1.212   8.903   2.300  0.4674  0.0998  0.4335
  477MOL0     C65755   1.348   8.866   2.321 -0.1417 -0.6274  0.1026
  477MOL0     C65756   1.407   8.771   2.226 -0.0540 -0.1459 -0.2686
  477MOL0     H65757   1.714   9.112   2.714 -1.2811  1.2346 -1.9246
  477MOL0     H65758   1.955   9.076   2.812  0.1861 -1.1720  0.3846
  477MOL0     H65759   2.296   8.890   2.576 -3.6156 -0.1152 -1.7934
  477MOL0     H65760   2.213   8.787   2.682  2.9515 -0.5052 -0.8126
  477MOL0     H65761   2.320   8.906   2.878 -0.7153  2.6384  0.0066
  477MOL0     H65762   2.438   8.819   2.784 -1.6943 -1.1090 -3.9709
  477MOL0     H65763   2.489   9.032   2.696  0.0691  1.2962  0.4525
  477MOL0     H65764   2.356   9.123   2.785 -0.9577 -0.1434 -0.5658
  477MOL0     H65765   2.581   9.152   2.874  2.2619 -1.1795 -2.0445
  477MOL0     H65766   2.452   9.062   2.982 -1.6010 -1.4413 -1.2542
  477MOL0     H65767   2.691   8.942   2.852 -1.9648  4.3232 -2.5870
  477MOL0     H65768   2.577   8.871   2.963 -1.5377 -0.6124 -2.4116
  477MOL0     H65769   2.760   9.110   3.034  1.0249  0.3094  0.9063
  477MOL0     H65770   2.664   9.018   3.144  0.1160  1.0909 -0.0459
  477MOL0     H65771   2.802   8.803   3.072 -1.8034  0.4775 -1.8924
  477MOL0     H65772   2.876   8.931   3.178  1.4231 -0.9383 -0.6626
  477MOL0     H65773   2.947   8.920   2.893 -0.9193  2.7074  0.5756
  477MOL0     H65774   3.012   9.011   3.033  0.1154 -1.1812  2.8273
  477MOL0     H65775   2.972   8.616   2.959  0.8859 -0.2171 -1.8509
  477MOL0     H65776   3.250   8.455   2.970 -0.5516  0.5186  0.5389
  477MOL0     H65777   3.084   8.423   3.019 -0.6920 -2.6323  3.2042
  477MOL0     H65778   3.169   8.459   3.268 -1.7659  0.2783 -0.3705
  477MOL0     H65779   3.179   8.301   3.202 -1.0305  1.5377  1.2311
  477MOL0     H65780   3.379   8.366   3.306 -1.2934 -3.2619 -1.8432
  477MOL0     H65781   3.421   8.328   3.144  0.2145 -0.2301 -0.2487
  477MOL0     H65782   3.432   8.589   3.095  1.5514  1.3143  0.1543
  477MOL0     H65783   3.421   8.606   3.271 -1.1937 -0.4174  0.3612
  477MOL0     H65784   3.555   8.725   3.369 -0.0970 -0.1824  0.2637
  477MOL0     H65785   3.724   8.812   3.637 -1.0573 -3.4158 -0.8305
  477MOL0     H65786   3.608   8.872   3.527  0.4745  1.0543 -0.1693
  477MOL0     H65787   3.776   8.938   3.520  0.5934 -1.2577 -2.7875
  477MOL0     H65788   4.332   8.715   3.371 -1.2862 -1.3772  1.0487
  477MOL0     H65789   4.557   8.813   3.441  0.0609 -0.4857  0.9480
  477MOL0     H65790   4.549   9.234   3.554 -3.6062 -0.5296  2.9069
  477MOL0     H65791   4.538   9.199   3.715 -0.0953  0.7532  0.0311
  477MOL0     H65792   4.756   9.321   3.683 -0.1774  0.3781 -0.0698
  477MOL0     H65793   4.790   9.150   3.725  0.2983 -2.3611 -2.0038
  477MOL0     H65794   4.778   9.210   3.428  0.0453 -0.0349 -0.2168
  477MOL0     H65795   4.878   9.108   3.508 -2.6663 -0.9022 -1.9481
  477MOL0     H65796   5.021   9.297   3.585  2.4774  1.3854 -1.5590
  477MOL0     H65797   4.893   9.412   3.537 -1.0638 -0.3574  1.4281
  477MOL0     H65798   5.014   9.224   3.335  0.2800  0.4351 -1.3022
  477MOL0     H65799   4.909   9.369   3.305  0.5233 -0.1278 -2.2142
  477MOL0     H65800   5.155   9.409   3.241  1.2211  1.0145  0.1444
  477MOL0     H65801   5.200   9.385   3.414 -0.4045  0.5847 -0.2257
  477MOL0     H65802   5.048   9.546   3.473 -0.6324 -2.9809 -0.7104
  477MOL0     H65803   5.032   9.610   3.310 -0.3482 -0.3237  0.6225
  477MOL0     H65804   5.292   9.614   3.306 -0.8320 -1.2237 -0.2974
  477MOL0     H65805   5.288   9.590   3.475  1.5721 -0.7553 -1.5288
  477MOL0     H65806   4.345   9.125   3.638  0.0881 -0.4034  0.1772
  477MOL0     H65807   4.124   9.020   3.558 -0.1264 -1.5835  0.2116
  477MOL0     H65808   4.022   8.605   3.299  1.2379  2.8251  0.6069
  477MOL0     H65809   3.856   8.480   3.178  3.1984 -0.4233  1.8509
  477MOL0     H65810   2.059   8.859   2.467 -0.2999  0.6350 -1.9326
  477MOL0     H65811   1.841   8.873   2.383  1.2057 -0.2068  0.8967
  477MOL0     H65812   1.402   9.104   2.553 -1.6221  0.5561 -0.4062
  477MOL0     H65813   1.168   9.162   2.514 -2.0752 -1.8612  0.4869
  477MOL0     H65814   0.861   9.065   2.208  0.8800  1.1752 -0.6937
  477MOL0     H65815   0.990   8.952   2.171 -3.6091  2.1106 -3.1314
  477MOL0     H65816   0.949   8.826   2.390 -1.5011  0.3760  1.9368
  477MOL0     H65817   0.807   8.831   2.276  0.1359  0.4738 -2.1474
  477MOL0     H65818   0.850   9.034   2.508  0.2859 -0.0678 -0.9702
  477MOL0     H65819   0.708   8.994   2.401  0.0623 -1.1363  0.3138
  477MOL0     H65820   0.674   8.797   2.526  1.8678 -0.0039 -2.8018
  477MOL0     H65821   0.705   8.929   2.653  0.8539  0.5232  0.0361
  477MOL0     H65822   1.032   8.672   2.716  1.0939  1.7969 -0.5504
  477MOL0     H65823   1.147   8.849   2.232  0.4095 -1.5260  1.7238
  477MOL0     H65824   1.516   8.776   2.213  0.1657  1.1403  1.6192
  477MOL0     H65825   1.389   8.667   2.254  0.4471 -0.6715 -1.7688
  477MOL0     H65826   1.355   8.790   2.132 -2.1443 -1.0764  0.6312
  478MOL0     O65827   6.084   4.511   4.754 -0.5263 -0.1755 -0.5976
  478MOL0     C65828   6.025   4.533   4.651  0.4471  0.3791 -0.2957
  478MOL0     O65829   6.010   4.447   4.537 -0.5514  0.1760 -0.2279
  478MOL0     C65830   6.066   4.319   4.558  0.6373 -1.0774  0.0766
  478MOL0     C65831   6.207   4.297   4.575 -0.4087 -0.3516  0.4891
  478MOL0     C65832   6.248   4.161   4.587 -0.1545 -0.5839 -0.2862
  478MOL0     C65833   6.153   4.059   4.608 -0.1549 -0.2765  0.4551
  478MOL0     O65834   6.179   3.923   4.622 -0.0941 -0.6085  0.0072
  478MOL0     C65835   6.296   3.893   4.703 -0.5536 -0.6528 -0.6064
  478MOL0     C65836   6.425   3.865   4.631  0.2153  0.2970 -0.0506
  478MOL0     C65837   6.461   3.717   4.630  0.5064 -0.0620  0.7388
  478MOL0     C65838   6.541   3.670   4.509  0.2896 -0.0415  0.3140
  478MOL0     C65839   6.600   3.532   4.515  0.8560 -0.3259  1.0034
  478MOL0     C65840   6.673   3.501   4.375  0.5427 -0.2657 -0.3346
  478MOL0     C65841   6.577   3.439   4.268 -0.3079  0.8289 -0.1527
  478MOL0     C65842   6.636   3.451   4.128 -0.0347 -0.6384 -0.1366
  478MOL0     N65843   6.679   3.591   4.100  0.4472  0.8992  0.1918
  478MOL0     C65844   6.595   3.698   4.103 -1.0238 -0.0196  0.3140
  478MOL0     C65845   6.662   3.803   4.051 -0.6047  0.0083 -0.0480
  478MOL0     C65846   6.613   3.948   4.050 -0.1135 -0.0629 -0.6526
  478MOL0     C65847   6.675   4.036   4.156  0.8663 -0.2870 -0.3857
  478MOL0     C65848   6.633   4.007   4.304 -0.4591 -0.3812  0.4976
  478MOL0     C65849   6.697   4.098   4.403  0.7521  0.6001 -0.0035
  478MOL0     O65850   6.836   4.098   4.410  0.2863  0.1189  0.4204
  478MOL0     C65851   6.909   4.179   4.502  0.3797  0.6526 -0.3256
  478MOL0     C65852   7.046   4.145   4.516 -0.3638  0.3575  0.1242
  478MOL0     C65853   7.139   4.214   4.597  0.1815 -0.5029 -0.0274
  478MOL0     C65854   7.283   4.176   4.587 -0.9834  1.1686  0.1731
  478MOL0     C65855   7.087   4.325   4.677 -0.2856 -0.0086 -0.0527
  478MOL0     C65856   7.171   4.401   4.779  0.8810 -0.4139 -0.1145
  478MOL0     O65857   7.115   4.495   4.854  1.2800  0.7178  0.3503
  478MOL0     C65858   7.193   4.604   4.891  0.0607 -0.3180  0.3751
  478MOL0     C65859   7.119   4.687   4.982  0.2366 -0.1038  0.1615
  478MOL0     C65860   7.169   4.807   5.026 -0.4692 -0.9153 -0.0237
  478MOL0     C65861   7.289   4.856   4.976 -0.7422  0.1228  1.2470
  478MOL0     O65862   7.327   4.970   5.040  0.0572  0.6291 -0.2150
  478MOL0     C65863   7.459   5.023   5.025  0.1727 -0.4093  0.4465
  478MOL0     C65864   7.489   5.125   5.124 -0.7867  0.2226  0.2215
  478MOL0     C65865   7.643   5.154   5.140  0.2014 -0.6812 -0.3171
  478MOL0     C65866   7.736   5.116   5.026 -0.2348 -0.8761 -0.5205
  478MOL0     C65867   7.880   5.161   5.048 -0.9947 -1.2942 -0.2185
  478MOL0     C65868   7.937   5.278   4.965  0.0306 -0.1107  0.6943
  478MOL0     C65869   7.942   5.242   4.808  0.0528  0.0848  0.1281
  478MOL0     C65870   8.024   5.355   4.731  0.3734  1.3749 -0.2864
  478MOL0    Cl65871   7.934   5.511   4.763  0.1288 -0.4908  0.0252
  478MOL0     C65872   7.365   4.779   4.883  0.3061  0.1751  0.1252
  478MOL0     C65873   7.316   4.656   4.842 -0.1660  0.5842  0.3210
  478MOL0     O65874   7.288   4.365   4.781 -0.1038  0.5764  0.1191
  478MOL0     C65875   6.956   4.364   4.651  0.3055  0.5166 -1.4713
  478MOL0     C65876   6.872   4.294   4.567  0.1291  0.0501  0.6168
  478MOL0     N65877   6.794   3.756   4.025  0.1617 -0.0099  0.0532
  478MOL0     N65878   6.801   3.629   4.065 -0.0144 -0.1698  0.3751
  478MOL0     C65879   6.019   4.085   4.568 -0.3952  0.0598 -0.2048
  478MOL0     C65880   5.976   4.211   4.546 -0.1901  0.3248 -0.4596
  478MOL0     C65881   5.953   4.664   4.645  0.2293  0.1720  0.0331
  478MOL0     C65882   5.851   4.668   4.562  1.2347 -0.4313  0.1234
  478MOL0     C65883   5.766   4.787   4.543 -0.0409  0.4984  0.0591
  478MOL0     C65884   5.788   4.895   4.621 -0.9001 -0.5017 -0.0072
  478MOL0     O65885   5.687   4.991   4.609  0.3195  0.0021 -1.1255
  478MOL0     C65886   5.661   5.068   4.735  0.1243 -0.2557 -0.3275
  478MOL0     C65887   5.741   5.185   4.757 -0.1217 -0.2115 -0.5983
  478MOL0     C65888   5.750   5.280   4.638  0.0537 -0.2123 -0.6285
  478MOL0     C65889   5.623   5.314   4.574 -0.1520 -1.1846  0.7393
  478MOL0     C65890   5.505   5.332   4.663  0.0815  0.2575 -0.1872
  478MOL0     C65891   5.424   5.346   4.753 -0.3657 -0.9003  0.1692
  478MOL0     C65892   5.898   4.886   4.710  0.3841  0.3472 -0.1537
  478MOL0     C65893   5.987   4.781   4.717  0.1701  0.2953 -0.8348
  478MOL0     C65894   6.117   4.792   4.784 -0.4104 -0.3425  0.0473
  478MOL0     H65895   6.282   4.374   4.561 -0.7296  0.0328  0.8689
  478MOL0     H65896   6.352   4.129   4.583 -0.0400 -0.4941  1.3328
  478MOL0     H65897   6.271   3.808   4.768  2.1867 -1.7965 -0.9069
  478MOL0     H65898   6.310   3.981   4.765  0.2787 -1.5351  0.4920
  478MOL0     H65899   6.415   3.904   4.530  0.4691  3.6955  1.0978
  478MOL0     H65900   6.510   3.920   4.672  1.1349  2.4448 -4.2836
  478MOL0     H65901   6.497   3.690   4.730  1.9303  2.1868  0.9021
  478MOL0     H65902   6.363   3.668   4.623 -0.3289  1.7393 -1.2879
  478MOL0     H65903   6.472   3.688   4.426 -0.1576  0.4844  0.7944
  478MOL0     H65904   6.621   3.742   4.490  0.4578 -0.5545 -1.0321
  478MOL0     H65905   6.526   3.459   4.548  2.3778 -2.1563  0.5510
  478MOL0     H65906   6.679   3.541   4.591  0.4167  1.8210  1.2807
  478MOL0     H65907   6.713   3.598   4.345 -2.2582  0.3250 -2.6421
  478MOL0     H65908   6.749   3.422   4.382  1.8466  0.1991 -5.5673
  478MOL0     H65909   6.487   3.501   4.271  1.3837  3.5088 -1.1019
  478MOL0     H65910   6.546   3.337   4.293  1.7886 -0.1330 -1.2220
  478MOL0     H65911   6.724   3.386   4.125 -0.7862 -1.9543  2.8485
  478MOL0     H65912   6.556   3.414   4.063 -0.4859 -0.0856  0.0925
  478MOL0     H65913   6.491   3.701   4.134 -0.8907 -0.2020  0.7707
  478MOL0     H65914   6.504   3.946   4.058 -0.0120 -0.0283  0.9930
  478MOL0     H65915   6.645   3.987   3.953  0.5446 -1.0420 -0.8404
  478MOL0     H65916   6.782   4.019   4.147  0.9851 -0.7926  1.4310
  478MOL0     H65917   6.652   4.140   4.130  0.3090 -1.3350 -4.8485
  478MOL0     H65918   6.524   4.016   4.311 -0.3093  0.6380  1.6804
  478MOL0     H65919   6.659   3.902   4.323 -1.3397 -0.7540 -0.2636
  478MOL0     H65920   6.672   4.203   4.393 -0.6261  0.1577 -1.6153
  478MOL0     H65921   6.667   4.063   4.502  1.0193  2.8942  0.9296
  478MOL0     H65922   7.078   4.057   4.462  2.4115  1.8042 -0.7823
  478MOL0     H65923   7.340   4.264   4.555 -0.1484  0.9867  1.0783
  478MOL0     H65924   7.310   4.086   4.531  2.3452  0.6884  2.2514
  478MOL0     H65925   7.319   4.146   4.686 -3.6419 -1.0918  0.5549
  478MOL0     H65926   7.026   4.649   5.024  1.4415 -2.0909  1.2219
  478MOL0     H65927   7.106   4.850   5.104  0.5981  0.0596  0.3360
  478MOL0     H65928   7.525   4.938   5.044 -1.2663 -1.0712  2.8542
  478MOL0     H65929   7.472   5.069   4.926 -1.4786  1.7080  1.1288
  478MOL0     H65930   7.444   5.220   5.093  0.6630  0.5390 -1.0288
  478MOL0     H65931   7.438   5.092   5.215 -0.5098 -2.6648 -0.5600
  478MOL0     H65932   7.682   5.119   5.235  3.5157  0.1935 -1.2117
  478MOL0     H65933   7.643   5.263   5.144  0.4449 -0.7293  1.4628
  478MOL0     H65934   7.697   5.153   4.931 -1.1887  0.3609  0.3321
  478MOL0     H65935   7.735   5.007   5.028 -1.2115 -1.1573  6.3089
  478MOL0     H65936   7.894   5.193   5.152 -0.0324  0.9939 -0.9878
  478MOL0     H65937   7.940   5.071   5.033  1.2008 -0.5028  2.8758
  478MOL0     H65938   8.035   5.314   4.999  0.5557  2.0348 -2.5827
  478MOL0     H65939   7.867   5.361   4.974 -0.1209  0.0335 -1.3518
  478MOL0     H65940   7.839   5.220   4.778 -0.5256 -1.2862  2.8068
  478MOL0     H65941   7.994   5.149   4.786 -2.3470 -1.4243  0.5269
  478MOL0     H65942   8.018   5.331   4.625 -0.7968 -1.3975  0.3027
  478MOL0     H65943   8.126   5.354   4.771 -0.6082 -0.0344  2.4623
  478MOL0     H65944   7.464   4.817   4.858 -0.6976  4.8577  2.2232
  478MOL0     H65945   7.378   4.587   4.786 -0.0011  2.5823 -2.1250
  478MOL0     H65946   6.911   4.454   4.690 -0.7241  0.2303 -1.9655
  478MOL0     H65947   6.777   4.344   4.546  0.1526 -0.2118 -0.1461
  478MOL0     H65948   5.943   4.009   4.553 -1.2399  0.8296  0.0879
  478MOL0     H65949   5.875   4.232   4.515 -0.5520  2.6460  1.9278
  478MOL0     H65950   5.820   4.582   4.504 -1.4328 -0.3258  1.2298
  478MOL0     H65951   5.689   4.786   4.468 -1.3599  0.0779  1.3722
  478MOL0     H65952   5.553   5.087   4.741  0.3684  2.5778 -2.4784
  478MOL0     H65953   5.695   5.001   4.814  0.8647 -1.1439 -1.3755
  478MOL0     H65954   5.845   5.157   4.777 -0.1046  0.1420 -0.1771
  478MOL0     H65955   5.710   5.249   4.840 -0.6896 -1.3455  0.0858
  478MOL0     H65956   5.786   5.377   4.675  0.5448 -0.3335 -0.7872
  478MOL0     H65957   5.817   5.235   4.564 -0.4324  0.5459 -1.5448
  478MOL0     H65958   5.594   5.238   4.501  0.0651  2.3494 -3.3716
  478MOL0     H65959   5.622   5.401   4.509 -3.3956 -1.3247  0.4423
  478MOL0     H65960   5.360   5.357   4.839  0.6614  0.2051  0.8186
  478MOL0     H65961   5.926   4.979   4.759 -1.5663  0.7432  0.2899
  478MOL0     H65962   6.100   4.778   4.891 -2.0846  0.7543 -0.0339
  478MOL0     H65963   6.197   4.725   4.753  3.2540  3.7647 -0.4126
  478MOL0     H65964   6.157   4.894   4.775  0.4642 -0.2973  3.2448
  479MOL0     O65965   7.638   5.248   5.512 -0.7366  0.1477  0.6461
  479MOL0     C65966   7.535   5.208   5.563  0.4200  0.1916  0.6619
  479MOL0     O65967   7.530   5.136   5.679 -0.0927  0.8647 -0.3461
  479MOL0     C65968   7.639   5.150   5.764 -0.2413 -0.0510 -0.3415
  479MOL0     C65969   7.673   5.031   5.822 -0.8293 -0.2097 -0.6395
  479MOL0     C65970   7.779   5.027   5.920 -0.1433  0.1102  0.6764
  479MOL0     C65971   7.848   5.138   5.955 -0.3408 -0.3146  0.3250
  479MOL0     O65972   7.956   5.118   6.031  0.0786 -0.3370  0.0273
  479MOL0     C65973   8.068   5.074   5.951  0.4085  0.6844 -1.0448
  479MOL0     C65974   8.207   5.067   6.024  0.5827 -0.0327  0.2976
  479MOL0     C65975   8.268   5.199   6.055  0.1052 -0.0711  0.1350
  479MOL0     C65976   8.396   5.179   6.136 -0.5057  0.2754 -0.3292
  479MOL0     C65977   8.472   5.306   6.185  0.8536 -0.2912 -0.7761
  479MOL0     C65978   8.546   5.371   6.060  0.5939 -0.2494 -0.2539
  479MOL0     C65979   8.641   5.490   6.096  0.1530  0.8444  0.5006
  479MOL0     C65980   8.690   5.556   5.969 -0.5129  0.0232  0.0659
  479MOL0     N65981   8.824   5.625   5.986 -0.4719 -0.0685 -0.3256
  479MOL0     C65982   8.932   5.578   6.068  0.4864 -0.3530  0.7971
  479MOL0     C65983   9.031   5.662   6.060 -0.7461 -0.6077 -0.4411
  479MOL0     C65984   9.176   5.616   6.098  0.5257  0.0549  0.4536
  479MOL0     C65985   9.261   5.748   6.109 -0.6561  0.6949  0.5269
  479MOL0     C65986   9.410   5.723   6.130 -0.1419  0.3005 -0.6641
  479MOL0     C65987   9.497   5.846   6.131  0.2295 -0.3363  0.6530
  479MOL0     O65988   9.493   5.891   5.991 -0.2958 -0.3088 -0.1844
  479MOL0     C65989   9.588   5.985   5.948  0.7965  0.8914  0.1714
  479MOL0     C65990   9.712   6.014   6.001 -0.5308  0.4473 -0.3067
  479MOL0     C65991   9.802   6.096   5.934 -0.2091  0.1089  0.7322
  479MOL0     C65992   9.948   6.104   5.989  0.2076  0.6875  0.5845
  479MOL0     C65993   9.763   6.158   5.813 -0.0499 -0.2406 -0.1153
  479MOL0     C65994   9.853   6.228   5.716  0.6592 -0.1432  0.2055
  479MOL0     O65995   9.810   6.255   5.589 -0.1518  0.3587  0.3188
  479MOL0     C65996   9.885   6.321   5.498  0.5061  0.6870  0.2465
  479MOL0     C65997   9.865   6.448   5.466  0.0261  0.2524 -0.0716
  479MOL0     C65998   9.944   6.516   5.372  0.4714  0.3231 -0.3856
  479MOL0     C65999  10.046   6.448   5.304 -0.2858 -0.4581  0.2983
  479MOL0     O66000  10.129   6.522   5.225  0.4532 -0.5506 -0.0706
  479MOL0     C66001  10.134   6.461   5.094 -0.4086  0.0390  0.0498
  479MOL0     C66002  10.255   6.528   5.032 -0.4393 -0.7979 -0.4531
  479MOL0     C66003  10.309   6.457   4.914  0.7938 -0.4517  0.2816
  479MOL0     C66004  10.456   6.489   4.876 -0.8445 -0.3967 -0.1835
  479MOL0     C66005  10.501   6.439   4.738 -0.2601  0.5953  0.2174
  479MOL0     C66006  10.650   6.432   4.709  0.2768  0.6712 -0.2661
  479MOL0     C66007  10.696   6.568   4.656 -0.2815 -0.3203 -1.1474
  479MOL0     C66008  10.848   6.592   4.662  0.1843  0.0263 -0.5618
  479MOL0    Cl66009  10.916   6.453   4.569 -0.2869  0.0681  0.3946
  479MOL0     C66010  10.065   6.307   5.336  0.1179 -0.6317  0.2082
  479MOL0     C66011   9.988   6.251   5.442 -0.1219  0.8902  0.5762
  479MOL0     O66012   9.957   6.267   5.757 -0.0547  1.1195 -0.2702
  479MOL0     C66013   9.622   6.148   5.784 -0.6730 -0.5458 -0.7315
  479MOL0     C66014   9.543   6.065   5.850 -0.0970 -0.5157 -0.5656
  479MOL0     N66015   8.995   5.754   5.971  0.1284  0.5823  1.1716
  479MOL0     N66016   8.879   5.732   5.925 -0.5032 -0.0239  0.6491
  479MOL0     C66017   7.803   5.262   5.901 -0.3400 -0.7849  0.1824
  479MOL0     C66018   7.710   5.265   5.795  0.4058  0.2890  1.0461
  479MOL0     C66019   7.410   5.223   5.487 -0.6503  0.8436  0.3346
  479MOL0     C66020   7.301   5.125   5.516 -0.4348 -0.1092  0.7310
  479MOL0     C66021   7.187   5.125   5.438 -0.6521  0.0779  0.3975
  479MOL0     C66022   7.169   5.222   5.338 -0.5627  0.9161 -0.0711
  479MOL0     O66023   7.054   5.218   5.263  0.0018  0.3093 -0.0294
  479MOL0     C66024   7.044   5.279   5.132  0.1407  1.3753  0.6435
  479MOL0     C66025   6.907   5.269   5.085 -0.1078  0.2079 -0.0013
  479MOL0     C66026   6.812   5.350   5.176 -0.1288 -0.6827 -0.8343
  479MOL0     C66027   6.668   5.334   5.123 -0.6542  0.2493 -0.0567
  479MOL0     C66028   6.618   5.369   4.986 -1.0522 -0.0895 -0.3147
  479MOL0     C66029   6.606   5.416   4.873  0.0859  0.1943  0.7306
  479MOL0     C66030   7.271   5.320   5.316  0.0530  0.1473  0.1758
  479MOL0     C66031   7.399   5.314   5.387  0.1762  0.2539 -1.0012
  479MOL0     C66032   7.494   5.425   5.359 -0.0889 -0.8490  1.0634
  479MOL0     H66033   7.624   4.937   5.799 -1.0576 -0.3598  0.3886
  479MOL0     H66034   7.810   4.929   5.955 -0.3568 -0.3828 -0.4750
  479MOL0     H66035   8.071   5.144   5.867  1.1280  1.4834 -0.3713
  479MOL0     H66036   8.046   4.970   5.927 -1.7570  1.2727 -1.9389
  479MOL0     H66037   8.200   5.004   6.113 -1.7270 -1.1463 -0.5809
  479MOL0     H66038   8.272   5.011   5.957 -0.2494 -4.5850  2.8929
  479MOL0     H66039   8.293   5.247   5.960  0.1848 -3.0206 -1.4697
  479MOL0     H66040   8.188   5.265   6.088  0.2564  0.9411 -1.4231
  479MOL0     H66041   8.377   5.112   6.221  5.1537 -1.4409  0.0305
  479MOL0     H66042   8.473   5.122   6.084 -1.4564 -1.2997 -0.0812
  479MOL0     H66043   8.531   5.278   6.272 -0.0590  0.7116  0.1875
  479MOL0     H66044   8.408   5.383   6.228  2.9784  2.0155 -1.5055
  479MOL0     H66045   8.600   5.290   6.010  3.1808  0.0839  1.7551
  479MOL0     H66046   8.473   5.421   5.995  1.8610  1.2179 -0.6066
  479MOL0     H66047   8.721   5.435   6.147 -1.6277 -1.1344  1.3068
  479MOL0     H66048   8.599   5.570   6.158 -0.7335  1.0154 -0.3078
  479MOL0     H66049   8.704   5.480   5.891  1.7713 -0.9835  1.3466
  479MOL0     H66050   8.615   5.628   5.937 -1.5380 -1.9539 -2.3469
  479MOL0     H66051   8.937   5.484   6.121  0.1920  0.0178  1.4981
  479MOL0     H66052   9.210   5.551   6.016 -0.2471 -3.4319  2.6917
  479MOL0     H66053   9.180   5.550   6.186 -0.3376 -2.2931 -1.1548
  479MOL0     H66054   9.257   5.797   6.011 -1.0507  0.4498  0.4188
  479MOL0     H66055   9.223   5.823   6.179 -0.7943 -0.1823  1.4096
  479MOL0     H66056   9.421   5.679   6.230  2.2944  0.4209 -0.8100
  479MOL0     H66057   9.438   5.658   6.047 -1.1406 -0.1483 -0.6660
  479MOL0     H66058   9.451   5.919   6.198  1.0352 -0.5037  1.4186
  479MOL0     H66059   9.602   5.839   6.162  1.3507  1.4916 -2.2852
  479MOL0     H66060   9.756   5.962   6.086  3.4804  1.5027 -1.5185
  479MOL0     H66061   9.953   6.056   6.087 -0.0790  0.9921  0.7523
  479MOL0     H66062   9.986   6.207   5.986 -0.1003  0.8422 -2.7998
  479MOL0     H66063  10.022   6.047   5.932 -0.6785 -1.2405  1.2839
  479MOL0     H66064   9.786   6.503   5.517  0.6741  3.0208 -1.8340
  479MOL0     H66065   9.920   6.621   5.359 -0.1432 -0.0149 -2.2857
  479MOL0     H66066  10.150   6.353   5.087  2.2627  0.1687  2.1670
  479MOL0     H66067  10.048   6.488   5.033  0.9631 -1.2515 -2.6197
  479MOL0     H66068  10.234   6.634   5.013 -0.4808 -0.7933 -0.3793
  479MOL0     H66069  10.342   6.522   5.098 -0.3583  3.1131  0.0109
  479MOL0     H66070  10.245   6.498   4.836 -0.8571 -1.5426  1.0183
  479MOL0     H66071  10.283   6.350   4.911  0.9020 -0.4666 -0.4965
  479MOL0     H66072  10.516   6.451   4.959 -3.0946  1.5368  2.5157
  479MOL0     H66073  10.471   6.598   4.870 -0.5456 -0.5007 -1.7424
  479MOL0     H66074  10.456   6.340   4.722  0.5208  0.4923 -1.4631
  479MOL0     H66075  10.448   6.495   4.660  1.1097 -0.1991 -1.3484
  479MOL0     H66076  10.654   6.363   4.624 -1.8764  0.9099 -0.6191
  479MOL0     H66077  10.707   6.396   4.795  1.9014 -0.0363 -1.5848
  479MOL0     H66078  10.640   6.649   4.704 -0.6611 -0.1178 -1.9109
  479MOL0     H66079  10.655   6.576   4.555 -3.7986  3.1992  0.3091
  479MOL0     H66080  10.881   6.598   4.766  0.3222  0.7354 -0.6382
  479MOL0     H66081  10.860   6.689   4.613 -1.4720  0.6395  0.1633
  479MOL0     H66082  10.149   6.255   5.291  0.1964  0.0014 -0.3730
  479MOL0     H66083  10.008   6.149   5.475 -1.0897  0.6550  0.4848
  479MOL0     H66084   9.576   6.215   5.713  0.8236 -0.4715 -1.6727
  479MOL0     H66085   9.438   6.065   5.824 -0.6266  0.9780  1.3745
  479MOL0     H66086   7.856   5.353   5.926  1.2400 -1.4900 -0.4202
  479MOL0     H66087   7.678   5.354   5.741  0.7193 -1.0363 -1.4745
  479MOL0     H66088   7.316   5.056   5.599  1.0602  0.7143  1.1798
  479MOL0     H66089   7.102   5.058   5.443 -1.9984  1.3407 -2.8090
  479MOL0     H66090   7.079   5.382   5.119 -0.3223  1.2578 -2.1877
  479MOL0     H66091   7.115   5.229   5.066 -1.5601  0.1743 -0.3528
  479MOL0     H66092   6.870   5.167   5.094 -3.1441  1.2081 -0.2083
  479MOL0     H66093   6.900   5.296   4.979 -1.3692  1.5590  0.3983
  479MOL0     H66094   6.817   5.329   5.283  0.9325  1.4565 -0.4189
  479MOL0     H66095   6.848   5.453   5.179  2.0920 -1.3618 -1.6829
  479MOL0     H66096   6.617   5.405   5.189 -0.2009  1.2914 -0.8013
  479MOL0     H66097   6.624   5.238   5.152  0.6274 -0.2334  0.3445
  479MOL0     H66098   6.578   5.447   4.774  1.4139 -1.6431 -0.2811
  479MOL0     H66099   7.265   5.399   5.242 -0.0554  2.3720  2.3931
  479MOL0     H66100   7.517   5.470   5.456 -0.2219  1.0974  0.2206
  479MOL0     H66101   7.584   5.396   5.303  2.3202  1.9320  3.1851
  479MOL0     H66102   7.449   5.506   5.301  1.6895  2.5757  4.0717
  480MOL0     O66103   0.289   4.265  11.424 -0.7527 -0.4134  0.0412
  480MOL0     C66104   0.206   4.209  11.352 -0.8278  0.5770  0.1674
  480MOL0     O66105   0.191   4.236  11.217 -0.2416 -0.0875 -0.3674
  480MOL0     C66106   0.308   4.280  11.155  0.6707  0.1603 -0.2245
  480MOL0     C66107   0.423   4.191  11.124 -0.7106  0.0985 -0.1912
  480MOL0     C66108   0.540   4.234  11.061  0.2023  0.8279 -0.3103
  480MOL0     C66109   0.552   4.364  11.021 -0.8246  0.7357 -0.5574
  480MOL0     O66110   0.667   4.416  10.974 -0.7606 -0.0813  0.0556
  480MOL0     C66111   0.788   4.392  11.061  0.3792 -0.4816 -0.5318
  480MOL0     C66112   0.894   4.495  11.019  0.0050  0.0378 -0.6241
  480MOL0     C66113   0.936   4.480  10.870 -0.0124  1.2972 -0.8913
  480MOL0     C66114   1.075   4.530  10.834 -0.2224  0.2123 -0.2908
  480MOL0     C66115   1.096   4.521  10.685  0.5838 -0.1591 -0.2403
  480MOL0     C66116   1.245   4.531  10.638 -0.2060  0.6377  0.3631
  480MOL0     C66117   1.324   4.647  10.707 -0.1719  0.3724 -0.4629
  480MOL0     C66118   1.451   4.677  10.619  0.1364  0.4046 -0.6175
  480MOL0     N66119   1.520   4.786  10.675 -0.0092 -0.4084 -0.5613
  480MOL0     C66120   1.609   4.769  10.775 -0.2440  0.9704 -0.3421
  480MOL0     C66121   1.642   4.890  10.808 -0.4709 -0.2178 -1.1088
  480MOL0     C66122   1.738   4.932  10.921  0.6053 -0.0018 -0.1865
  480MOL0     C66123   1.783   5.081  10.901 -0.6456 -0.7060 -0.5022
  480MOL0     C66124   1.853   5.138  11.029 -0.1026  0.5751  0.5563
  480MOL0     C66125   1.993   5.082  11.032  0.2655  0.4405 -0.5359
  480MOL0     O66126   2.038   5.075  11.172 -0.4154 -0.1680 -0.1305
  480MOL0     C66127   2.160   5.004  11.193 -0.8048 -0.1160  0.8252
  480MOL0     C66128   2.158   4.929  11.301 -0.2227  0.1761  0.0750
  480MOL0     C66129   2.269   4.847  11.344  0.3074 -0.4227 -0.4647
  480MOL0     C66130   2.252   4.750  11.459  0.5430  0.1974 -0.2625
  480MOL0     C66131   2.384   4.850  11.257  0.3021 -0.5967 -0.1456
  480MOL0     C66132   2.504   4.762  11.280  0.2196  0.0840 -0.1321
  480MOL0     O66133   2.508   4.701  11.401  0.2192  0.6034 -0.1592
  480MOL0     C66134   2.624   4.647  11.448  0.5347 -0.4003  0.1285
  480MOL0     C66135   2.621   4.521  11.498  0.5144  0.6314  0.2622
  480MOL0     C66136   2.740   4.462  11.545  0.4329  0.2502 -0.3620
  480MOL0     C66137   2.868   4.523  11.530 -0.0739  1.3961 -0.3207
  480MOL0     O66138   2.977   4.450  11.584 -0.4392  0.1620  0.1480
  480MOL0     C66139   3.103   4.511  11.583 -0.6412  0.0975  0.5749
  480MOL0     C66140   3.216   4.419  11.629 -1.0277 -0.0630 -0.0427
  480MOL0     C66141   3.355   4.430  11.551 -0.0291  0.2320 -0.3569
  480MOL0     C66142   3.439   4.308  11.585 -0.2197 -0.2406  0.1835
  480MOL0     C66143   3.582   4.318  11.525 -0.3234  0.8425 -0.5817
  480MOL0     C66144   3.661   4.188  11.566  0.4667  0.3760  1.1811
  480MOL0     C66145   3.804   4.226  11.564 -0.1513  0.2931  0.0242
  480MOL0     C66146   3.889   4.132  11.641  0.1023 -0.5285  0.1349
  480MOL0    Cl66147   3.842   4.164  11.815  0.0385 -0.1810 -0.0788
  480MOL0     C66148   2.864   4.656  11.491 -0.1109  0.5012 -0.6771
  480MOL0     C66149   2.744   4.720  11.456  0.3735 -0.0956  0.1423
  480MOL0     O66150   2.591   4.752  11.192  0.3481  0.7998 -0.2869
  480MOL0     C66151   2.399   4.951  11.155 -0.0880  0.3320  0.5420
  480MOL0     C66152   2.277   5.021  11.117 -0.9324  1.2870  0.4878
  480MOL0     N66153   1.563   4.973  10.740 -0.5353  0.2042 -0.0316
  480MOL0     N66154   1.488   4.916  10.654 -0.5283  0.4237  0.0291
  480MOL0     C66155   0.451   4.457  11.055 -1.2100 -1.0179 -0.8298
  480MOL0     C66156   0.335   4.413  11.123  0.3463 -0.1858  0.4742
  480MOL0     C66157   0.132   4.089  11.402  0.2102 -0.5313  0.0384
  480MOL0     C66158   0.120   3.979  11.314  1.2494  0.3321 -0.0185
  480MOL0     C66159   0.056   3.860  11.356  0.8735  0.1950  0.4556
  480MOL0     C66160  -0.015   3.851  11.477 -0.2446  0.2897 -0.3956
  480MOL0     O66161  -0.078   3.737  11.524 -0.2877 -0.1909 -0.8449
  480MOL0     C66162  -0.087   3.617  11.448  0.4967 -0.4214 -1.1557
  480MOL0     C66163  -0.108   3.499  11.548  0.6952  0.3687 -0.3743
  480MOL0     C66164  -0.231   3.505  11.649 -0.7429  0.6421  0.2752
  480MOL0     C66165  -0.357   3.565  11.592  0.6364 -0.5588 -0.7853
  480MOL0     C66166  -0.418   3.489  11.489 -0.6544 -0.5421  1.2121
  480MOL0     C66167  -0.487   3.420  11.413 -0.6369 -0.6387  0.0872
  480MOL0     C66168   0.002   3.962  11.563 -0.8460  0.2964  0.3051
  480MOL0     C66169   0.068   4.080  11.526 -0.4936 -0.7726  1.0289
  480MOL0     C66170   0.091   4.184  11.630  0.4049 -0.5645 -0.4352
  480MOL0     H66171   0.420   4.086  11.150 -0.5230  0.3513  0.8972
  480MOL0     H66172   0.622   4.170  11.032 -1.7624 -0.4971 -3.5021
  480MOL0     H66173   0.819   4.287  11.050 -1.6134 -1.4563  1.9804
  480MOL0     H66174   0.768   4.396  11.169  1.2542 -2.4669 -0.2374
  480MOL0     H66175   0.861   4.598  11.036 -0.2078 -0.2372  0.6980
  480MOL0     H66176   0.978   4.479  11.087  0.8353  3.4250 -0.6541
  480MOL0     H66177   0.932   4.371  10.868  2.5813  1.1684 -1.3534
  480MOL0     H66178   0.856   4.532  10.817 -0.6315  3.1293  1.6228
  480MOL0     H66179   1.084   4.633  10.869 -0.6697  0.3916 -0.6952
  480MOL0     H66180   1.150   4.471  10.887  0.1262  0.8593 -0.0507
  480MOL0     H66181   1.043   4.607  10.643  1.6217  0.5535 -0.1367
  480MOL0     H66182   1.046   4.429  10.652 -0.9164  0.5287  0.0227
  480MOL0     H66183   1.289   4.432  10.654  1.1299  0.9311 -1.1968
  480MOL0     H66184   1.259   4.553  10.531  2.2039 -0.1695  0.4484
  480MOL0     H66185   1.362   4.612  10.804  3.1984  2.7116 -0.7857
  480MOL0     H66186   1.259   4.735  10.717 -1.5278 -0.2060 -3.3392
  480MOL0     H66187   1.513   4.586  10.615  1.0210  0.9397  0.4328
  480MOL0     H66188   1.430   4.692  10.513  1.7791  1.4239 -0.8310
  480MOL0     H66189   1.639   4.678  10.825  0.2615  1.1553 -0.3047
  480MOL0     H66190   1.822   4.863  10.930 -0.1634 -0.8863  0.4924
  480MOL0     H66191   1.686   4.923  11.017  0.6109  3.2673  0.2272
  480MOL0     H66192   1.847   5.091  10.813 -1.4236 -0.9312 -1.1059
  480MOL0     H66193   1.697   5.146  10.880 -0.5937 -0.9092 -1.3533
  480MOL0     H66194   1.854   5.247  11.038  0.9519  0.4276  2.8484
  480MOL0     H66195   1.788   5.102  11.109 -0.0091 -2.5224 -0.6294
  480MOL0     H66196   1.986   4.976  11.005  0.9107 -0.0612  1.1767
  480MOL0     H66197   2.060   5.139  10.966 -0.7409  1.6462 -0.5599
  480MOL0     H66198   2.065   4.917  11.355 -0.2614  4.9470  1.4950
  480MOL0     H66199   2.150   4.766  11.496  1.0044  1.9735  0.3306
  480MOL0     H66200   2.312   4.790  11.541 -3.3069  2.6045  1.7347
  480MOL0     H66201   2.277   4.646  11.437 -2.1949 -0.4587 -0.7315
  480MOL0     H66202   2.530   4.462  11.485  3.0474 -3.6547 -0.1543
  480MOL0     H66203   2.736   4.363  11.590 -0.3608 -0.1349 -1.2359
  480MOL0     H66204   3.134   4.541  11.483  2.9451 -0.8440  1.2610
  480MOL0     H66205   3.094   4.603  11.643 -0.6944 -1.2469  2.7446
  480MOL0     H66206   3.223   4.433  11.738 -6.2459 -0.0291  0.5296
  480MOL0     H66207   3.192   4.313  11.624 -0.5483 -0.3831  2.5774
  480MOL0     H66208   3.387   4.529  11.584 -0.7443  0.6131 -0.7748
  480MOL0     H66209   3.335   4.441  11.444 -3.4284 -0.0586  0.1374
  480MOL0     H66210   3.384   4.223  11.544  0.9140 -1.7001  1.5421
  480MOL0     H66211   3.440   4.282  11.691  0.4522 -2.3967 -0.2988
  480MOL0     H66212   3.584   4.321  11.416  1.1403 -1.4203 -0.6721
  480MOL0     H66213   3.621   4.415  11.556 -1.4831  1.9978 -2.5180
  480MOL0     H66214   3.656   4.106  11.493  1.6721 -0.6659  2.2239
  480MOL0     H66215   3.628   4.148  11.662  0.2856 -0.1158  0.9195
  480MOL0     H66216   3.825   4.324  11.607 -0.1767 -0.8144  2.7464
  480MOL0     H66217   3.829   4.230  11.458  0.7459  0.9500  0.2514
  480MOL0     H66218   3.995   4.158  11.634  0.1477 -1.0473 -1.4881
  480MOL0     H66219   3.864   4.029  11.615  0.0522 -0.5086  0.1039
  480MOL0     H66220   2.949   4.723  11.491  0.3939 -0.0606  1.6023
  480MOL0     H66221   2.733   4.824  11.426 -0.6247  1.5333  5.0797
  480MOL0     H66222   2.496   4.956  11.107 -0.8218 -0.8736 -1.1754
  480MOL0     H66223   2.286   5.088  11.033  3.5290  2.4227  1.6191
  480MOL0     H66224   0.463   4.564  11.043 -4.0565 -0.2037  2.1266
  480MOL0     H66225   0.267   4.490  11.158  2.5280  1.6750  0.7880
  480MOL0     H66226   0.166   3.983  11.215 -0.6324 -2.0904 -1.1161
  480MOL0     H66227   0.053   3.774  11.289 -1.3074 -0.2734  1.0816
  480MOL0     H66228  -0.168   3.591  11.379 -0.2232 -0.4182 -0.3218
  480MOL0     H66229   0.012   3.602  11.403  1.5515 -1.0951  1.2378
  480MOL0     H66230  -0.026   3.495  11.620 -2.1040  0.0547  3.0307
  480MOL0     H66231  -0.119   3.407  11.490 -0.9708  1.8800 -2.6800
  480MOL0     H66232  -0.252   3.405  11.687 -3.5733 -0.5114 -3.6860
  480MOL0     H66233  -0.213   3.571  11.735 -0.9221 -0.5184  1.2217
  480MOL0     H66234  -0.338   3.666  11.556  0.0886  1.0766  3.0532
  480MOL0     H66235  -0.429   3.573  11.674 -0.0105  2.3959 -1.5451
  480MOL0     H66236  -0.557   3.379  11.343 -0.2609  0.3943 -0.9229
  480MOL0     H66237  -0.041   3.956  11.663 -0.1531 -0.3075  0.5734
  480MOL0     H66238   0.052   4.278  11.589  0.0744  0.3316  1.7892
  480MOL0     H66239   0.052   4.160  11.729  2.5762 -0.9551  0.3826
  480MOL0     H66240   0.196   4.207  11.651 -0.2238  1.6001  0.6344
  481MOL0     O66241   0.088   7.470   1.584  0.4446 -0.5983  0.3494
  481MOL0     C66242   0.050   7.410   1.684 -0.5305 -1.3795  0.7154
  481MOL0     O66243   0.131   7.361   1.787 -0.1777 -0.3473  0.1822
  481MOL0     C66244   0.268   7.371   1.773 -0.4846  0.3229  0.2801
  481MOL0     C66245   0.329   7.338   1.649  0.4975 -0.1234  0.2360
  481MOL0     C66246   0.475   7.347   1.643  0.7647  1.2149 -0.0269
  481MOL0     C66247   0.551   7.382   1.756  0.0699 -0.8149  0.4943
  481MOL0     O66248   0.690   7.384   1.742 -0.0845  0.0157 -0.0135
  481MOL0     C66249   0.761   7.516   1.772 -0.5322  0.2905 -0.0149
  481MOL0     C66250   0.907   7.495   1.796 -0.0387 -0.3007  0.9454
  481MOL0     C66251   0.987   7.624   1.823  0.1819 -0.1197 -0.8218
  481MOL0     C66252   1.134   7.598   1.822  0.0233  0.3459 -0.3501
  481MOL0     C66253   1.223   7.718   1.828 -0.5505 -0.9508 -0.6503
  481MOL0     C66254   1.372   7.695   1.792  0.3253  0.8123  0.2838
  481MOL0     C66255   1.451   7.827   1.805 -0.7568  0.1923  0.1574
  481MOL0     C66256   1.601   7.798   1.783  0.1223 -0.5331  0.1658
  481MOL0     N66257   1.689   7.912   1.806  0.0614 -0.0399  0.5749
  481MOL0     C66258   1.715   7.970   1.930  0.7565 -0.1304  0.1779
  481MOL0     C66259   1.802   8.068   1.898 -0.9122 -0.7343 -1.1341
  481MOL0     C66260   1.874   8.164   1.989  0.0591 -0.0261  0.1661
  481MOL0     C66261   2.014   8.203   1.960  0.0955 -0.3576  0.0195
  481MOL0     C66262   2.129   8.111   1.991  0.1015  0.7533  0.5245
  481MOL0     C66263   2.259   8.156   1.935 -0.1461  0.4296  0.6378
  481MOL0     O66264   2.368   8.112   2.020 -0.6056  0.3405  0.0859
  481MOL0     C66265   2.497   8.176   2.022  0.6668 -0.3791 -0.3012
  481MOL0     C66266   2.545   8.287   1.953  0.4393  0.5288 -0.9700
  481MOL0     C66267   2.676   8.335   1.966 -0.1511 -0.6888 -1.1984
  481MOL0     C66268   2.719   8.443   1.872  0.2873 -0.1085  0.5568
  481MOL0     C66269   2.768   8.264   2.050 -0.2434  0.2490 -0.3395
  481MOL0     C66270   2.900   8.310   2.081 -0.2087  0.4759 -0.2799
  481MOL0     O66271   2.942   8.437   2.055 -0.8844 -0.4271  0.7825
  481MOL0     C66272   3.067   8.468   2.081 -0.1650  1.0654 -0.5045
  481MOL0     C66273   3.098   8.542   2.199 -0.4459  0.4114 -0.9581
  481MOL0     C66274   3.230   8.584   2.229  0.1169  1.1129  0.2748
  481MOL0     C66275   3.341   8.550   2.145 -0.4013  0.1825  0.0998
  481MOL0     O66276   3.472   8.591   2.178 -0.0379  0.1073  0.0932
  481MOL0     C66277   3.494   8.647   2.308 -0.6112  0.4263 -0.2365
  481MOL0     C66278   3.637   8.703   2.324 -0.7276  0.8225 -1.0191
  481MOL0     C66279   3.763   8.599   2.302 -0.3108  0.2078  0.2243
  481MOL0     C66280   3.897   8.671   2.310 -0.0095  0.0488 -0.5470
  481MOL0     C66281   3.958   8.656   2.448 -0.3567  0.1047 -0.3008
  481MOL0     C66282   4.056   8.768   2.471  0.8090 -0.8510  0.0569
  481MOL0     C66283   4.136   8.761   2.592  0.6219  0.6629 -0.1512
  481MOL0     C66284   4.224   8.885   2.603 -0.4698 -0.0440  0.6149
  481MOL0    Cl66285   4.355   8.864   2.737  0.0142  0.3163  0.0903
  481MOL0     C66286   3.306   8.487   2.024  0.6357  0.3171 -0.1193
  481MOL0     C66287   3.173   8.448   1.991  0.0395 -0.0688  0.2982
  481MOL0     O66288   2.972   8.213   2.131 -0.2288  0.0637 -0.8579
  481MOL0     C66289   2.724   8.146   2.114  0.6132 -0.4665  0.4748
  481MOL0     C66290   2.592   8.109   2.104  0.1115 -0.8071  0.3560
  481MOL0     N66291   1.830   8.058   1.756 -0.2960  0.0030  0.1443
  481MOL0     N66292   1.749   7.970   1.698 -0.3534 -0.0622 -0.0235
  481MOL0     C66293   0.487   7.425   1.873  0.9972  1.0506  0.1381
  481MOL0     C66294   0.342   7.421   1.884 -0.6004 -0.1330  0.5233
  481MOL0     C66295  -0.098   7.359   1.684  0.0123  0.7512 -0.0809
  481MOL0     C66296  -0.133   7.253   1.768 -0.4987  0.0190  0.1480
  481MOL0     C66297  -0.263   7.202   1.775  0.8749 -0.4937 -0.2608
  481MOL0     C66298  -0.370   7.263   1.701  0.3349  0.9967  0.6135
  481MOL0     O66299  -0.498   7.222   1.709 -0.0600 -0.0862 -0.3537
  481MOL0     C66300  -0.561   7.243   1.838  0.0630 -0.4480  0.0956
  481MOL0     C66301  -0.703   7.278   1.816  0.3872 -0.0596  0.6763
  481MOL0     C66302  -0.779   7.172   1.732 -0.1649 -0.2906  0.0861
  481MOL0     C66303  -0.923   7.216   1.709 -0.6289  0.6835  0.4274
  481MOL0     C66304  -0.993   7.097   1.664 -0.3811 -1.2179 -0.5835
  481MOL0     C66305  -1.061   7.000   1.650  0.1568  0.8073  0.0973
  481MOL0     C66306  -0.339   7.367   1.620  1.1739 -1.6945 -0.6876
  481MOL0     C66307  -0.206   7.420   1.610 -0.1980  0.1145  0.3163
  481MOL0     C66308  -0.194   7.534   1.506  0.1993  0.6222 -0.5913
  481MOL0     H66309   0.274   7.307   1.561  1.3248  2.7689 -1.4228
  481MOL0     H66310   0.517   7.327   1.545  2.9867  1.9988  0.7013
  481MOL0     H66311   0.710   7.557   1.859 -1.5184  0.8076 -0.8053
  481MOL0     H66312   0.759   7.579   1.682 -0.4365 -1.0851 -1.0093
  481MOL0     H66313   0.928   7.420   1.873  1.9237  0.1141  0.8870
  481MOL0     H66314   0.945   7.454   1.702 -3.1667  1.5292 -1.3077
  481MOL0     H66315   0.949   7.698   1.752  3.6011  0.3941 -2.3035
  481MOL0     H66316   0.953   7.665   1.919  2.1322  2.6345 -1.1535
  481MOL0     H66317   1.157   7.524   1.900 -0.9401  1.7451  1.3225
  481MOL0     H66318   1.150   7.552   1.723 -2.1983 -1.6676  0.1458
  481MOL0     H66319   1.224   7.747   1.934  1.4083 -1.4781 -0.4853
  481MOL0     H66320   1.181   7.797   1.767 -0.1028  2.1524  2.7112
  481MOL0     H66321   1.425   7.628   1.860  0.1315 -0.2479 -0.5907
  481MOL0     H66322   1.373   7.653   1.691 -0.8484  0.9537  0.1953
  481MOL0     H66323   1.440   7.873   1.904  0.8908  1.3276 -0.1269
  481MOL0     H66324   1.424   7.891   1.720 -3.6809 -1.3763 -0.1975
  481MOL0     H66325   1.624   7.714   1.849 -1.7952 -1.8422 -0.7232
  481MOL0     H66326   1.606   7.760   1.680 -1.8769 -0.1976 -0.1155
  481MOL0     H66327   1.668   7.945   2.024  2.6639 -0.1563  1.1866
  481MOL0     H66328   1.857   8.133   2.093  1.5383  0.6229  0.6329
  481MOL0     H66329   1.820   8.259   1.982 -0.9291 -0.5852 -0.1471
  481MOL0     H66330   2.020   8.241   1.857 -0.1745  1.3501  0.6057
  481MOL0     H66331   2.024   8.295   2.018  0.0649 -0.0924 -0.3925
  481MOL0     H66332   2.128   8.105   2.101 -0.7895  4.7476  0.8939
  481MOL0     H66333   2.103   8.012   1.953  1.2340  0.9591 -0.8473
  481MOL0     H66334   2.261   8.114   1.834  1.5381 -0.3297  0.9562
  481MOL0     H66335   2.255   8.265   1.924  1.6510  0.5778  1.1426
  481MOL0     H66336   2.478   8.333   1.882 -0.2987 -2.2866 -2.2358
  481MOL0     H66337   2.678   8.407   1.777  1.3217 -1.6705  0.6706
  481MOL0     H66338   2.827   8.458   1.857 -0.2797  1.1561 -3.7880
  481MOL0     H66339   2.671   8.538   1.896  1.4893  1.1403 -1.6303
  481MOL0     H66340   3.014   8.571   2.262 -0.6091  1.3150 -1.5620
  481MOL0     H66341   3.255   8.638   2.319 -2.2230  3.8606 -0.5500
  481MOL0     H66342   3.438   8.738   2.330 -1.6717 -0.2590  0.0231
  481MOL0     H66343   3.482   8.565   2.380 -4.5607 -1.9872 -3.1935
  481MOL0     H66344   3.652   8.791   2.261  2.2409  3.0372  2.3861
  481MOL0     H66345   3.637   8.734   2.429 -0.9956  2.4595 -1.4737
  481MOL0     H66346   3.739   8.567   2.200 -2.5952  0.9154  0.4715
  481MOL0     H66347   3.754   8.525   2.382 -2.3199  0.9321  0.7366
  481MOL0     H66348   3.889   8.777   2.283 -0.9271 -0.0807 -0.8142
  481MOL0     H66349   3.977   8.626   2.251  1.5127  2.5130 -0.5351
  481MOL0     H66350   3.897   8.651   2.539  1.7310 -1.7095  1.0820
  481MOL0     H66351   4.012   8.561   2.451  0.4577  0.5435 -0.7805
  481MOL0     H66352   3.992   8.853   2.496  3.3176  1.5167 -0.9799
  481MOL0     H66353   4.116   8.802   2.386  0.3951  0.2236  0.1799
  481MOL0     H66354   4.195   8.669   2.590 -0.2315  0.0734 -3.0133
  481MOL0     H66355   4.070   8.757   2.680 -0.8168 -1.1016 -1.2501
  481MOL0     H66356   4.176   8.979   2.628 -0.0725  0.0076  1.2157
  481MOL0     H66357   4.284   8.895   2.512 -2.6445  0.2823 -0.8577
  481MOL0     H66358   3.388   8.469   1.955 -0.0999 -2.6731 -0.3267
  481MOL0     H66359   3.159   8.395   1.897 -0.9397  0.2878  0.2357
  481MOL0     H66360   2.782   8.089   2.185 -1.3937 -3.7198 -0.3040
  481MOL0     H66361   2.564   8.026   2.166 -1.5974 -0.8423 -0.4016
  481MOL0     H66362   0.545   7.440   1.963 -0.0644  1.0525  0.8329
  481MOL0     H66363   0.298   7.460   1.976  0.0399  1.2920  0.2562
  481MOL0     H66364  -0.058   7.183   1.804 -0.5358 -0.2550 -0.3014
  481MOL0     H66365  -0.289   7.119   1.839  1.7491 -0.8962 -0.4120
  481MOL0     H66366  -0.553   7.150   1.895  0.3351 -1.5734 -1.6879
  481MOL0     H66367  -0.514   7.320   1.899 -0.3507  0.3891 -0.6154
  481MOL0     H66368  -0.711   7.366   1.751 -0.0057 -1.7869 -1.7206
  481MOL0     H66369  -0.754   7.299   1.911  0.8363  1.8309  0.5384
  481MOL0     H66370  -0.731   7.159   1.635 -0.3134 -2.0232  0.2219
  481MOL0     H66371  -0.776   7.081   1.793 -0.0204 -1.3808 -1.4875
  481MOL0     H66372  -0.932   7.289   1.628  0.2735  0.5027  0.1482
  481MOL0     H66373  -0.961   7.265   1.799 -1.8204 -0.3755  0.5276
  481MOL0     H66374  -1.107   6.905   1.633 -0.7058  1.0503  0.9745
  481MOL0     H66375  -0.429   7.398   1.568  0.4680 -0.4111  1.1514
  481MOL0     H66376  -0.139   7.623   1.540 -0.4164  1.4388 -1.6427
  481MOL0     H66377  -0.126   7.504   1.425  0.2301  1.3921 -0.8637
  481MOL0     H66378  -0.289   7.572   1.467 -1.1044 -1.2082  0.6840
  482MOL0     O66379   3.620  10.082   9.953 -0.4914 -0.6868 -0.7143
  482MOL0     C66380   3.628  10.048   9.838  1.0101 -1.1382  0.2851
  482MOL0     O66381   3.743  10.050   9.763  0.5909  0.3993 -0.2333
  482MOL0     C66382   3.866  10.094   9.804  0.6218 -0.4223  0.3060
  482MOL0     C66383   3.951  10.154   9.707 -0.7709 -0.0951  0.0974
  482MOL0     C66384   4.086  10.187   9.737 -0.2232  0.2194  0.2698
  482MOL0     C66385   4.139  10.163   9.868 -0.6260  0.1960  0.0656
  482MOL0     O66386   4.273  10.192   9.897  0.3980 -0.3011 -0.4703
  482MOL0     C66387   4.298  10.336   9.888  0.0043  0.6195  0.2221
  482MOL0     C66388   4.440  10.385   9.910  0.2431 -0.3244 -0.5865
  482MOL0     C66389   4.479  10.351  10.057  0.0634  0.1677 -0.1619
  482MOL0     C66390   4.620  10.370  10.095 -0.3545 -0.0773 -0.1984
  482MOL0     C66391   4.645  10.371  10.245  0.9825 -0.3836 -0.6064
  482MOL0     C66392   4.778  10.440  10.290 -0.5492  0.1774  0.0295
  482MOL0     C66393   4.818  10.436  10.434  0.0112 -0.1887  0.4084
  482MOL0     C66394   4.947  10.513  10.465 -0.4396  0.7689  0.5499
  482MOL0     N66395   4.911  10.655  10.454  0.3643  0.5268  0.4487
  482MOL0     C66396   4.813  10.715  10.527 -0.3941  0.6499  0.3273
  482MOL0     C66397   4.814  10.844  10.487  0.0921 -0.7102  0.3097
  482MOL0     C66398   4.726  10.950  10.542  1.5030  0.5565 -0.1931
  482MOL0     C66399   4.577  10.929  10.497 -0.2470 -0.0100  0.3861
  482MOL0     C66400   4.478  11.038  10.538 -0.4140 -0.2603 -0.6378
  482MOL0     C66401   4.509  11.177  10.484  0.3560  0.3606  1.0730
  482MOL0     O66402   4.533  11.177  10.339  0.3011 -0.6237 -0.1959
  482MOL0     C66403   4.424  11.243  10.278  0.9374 -0.1326 -0.7013
  482MOL0     C66404   4.332  11.169  10.211 -0.1428  0.1601  1.1357
  482MOL0     C66405   4.217  11.234  10.160 -0.7231 -0.3296 -0.5565
  482MOL0     C66406   4.108  11.147  10.112 -0.5434 -0.7178 -0.0465
  482MOL0     C66407   4.208  11.372  10.176 -0.3079 -1.2367 -0.2711
  482MOL0     C66408   4.106  11.459  10.113 -0.0090  0.0811 -0.4318
  482MOL0     O66409   4.080  11.578  10.172 -0.6177 -0.0395  0.3370
  482MOL0     C66410   4.010  11.669  10.099  0.9329 -0.4445  0.4065
  482MOL0     C66411   3.873  11.684  10.109  0.3748  0.7793  0.9861
  482MOL0     C66412   3.809  11.783  10.032  0.5871  0.7690 -0.9980
  482MOL0     C66413   3.877  11.879   9.968  1.0293  0.8608  0.1170
  482MOL0     O66414   3.820  11.992   9.903 -0.0398 -0.1047  0.3214
  482MOL0     C66415   3.694  12.050   9.943 -0.1057  0.2069 -0.0185
  482MOL0     C66416   3.682  12.185   9.881  0.2172 -0.5209  0.5447
  482MOL0     C66417   3.758  12.308   9.948 -0.1093  0.0128  0.3267
  482MOL0     C66418   3.674  12.340  10.076  0.1346  0.0625  0.5664
  482MOL0     C66419   3.750  12.428  10.172  0.7573  0.8468  0.3446
  482MOL0     C66420   3.810  12.558  10.120 -0.5076 -0.7996  0.1486
  482MOL0     C66421   3.905  12.630  10.220 -0.4841 -0.0259 -0.0578
  482MOL0     C66422   3.986  12.752  10.168 -0.9625 -0.7182  0.9032
  482MOL0    Cl66423   4.096  12.704  10.035  0.1702  0.2823  0.2325
  482MOL0     C66424   4.016  11.869   9.954 -0.0959  0.3774 -0.4573
  482MOL0     C66425   4.080  11.755  10.017 -0.3213 -0.0799 -0.0591
  482MOL0     O66426   4.048  11.408  10.016 -0.3405  0.3006 -0.2974
  482MOL0     C66427   4.310  11.441  10.239 -0.6460  0.2889  0.1507
  482MOL0     C66428   4.415  11.379  10.294  0.6282 -0.6120 -1.2112
  482MOL0     N66429   4.903  10.851  10.385  0.0067  0.1925  0.1022
  482MOL0     N66430   4.959  10.736  10.364 -0.2616 -0.1780  0.3946
  482MOL0     C66431   4.046  10.108   9.956 -0.0836  0.0320 -0.4998
  482MOL0     C66432   3.913  10.082   9.932 -0.3312  0.7793 -1.0004
  482MOL0     C66433   3.508  10.014   9.765  0.6339 -1.0790 -0.2061
  482MOL0     C66434   3.512  10.028   9.627 -0.6252 -0.2126  0.3605
  482MOL0     C66435   3.402   9.979   9.543 -0.6151 -0.4114 -0.7479
  482MOL0     C66436   3.278   9.955   9.603 -0.1743 -0.3323  0.6440
  482MOL0     O66437   3.175   9.914   9.514  0.0495 -1.3584  0.0352
  482MOL0     C66438   3.044   9.928   9.566  0.1521 -0.0748  0.1956
  482MOL0     C66439   2.951   9.918   9.447 -0.9328  0.4622 -0.8665
  482MOL0     C66440   2.974  10.045   9.352 -0.2818  0.0716 -0.2316
  482MOL0     C66441   2.944  10.016   9.201  0.0649  1.0916 -0.2208
  482MOL0     C66442   2.944  10.129   9.106  0.4827  1.4905 -0.1410
  482MOL0     C66443   2.949  10.229   9.041  0.5795  0.8044 -0.6865
  482MOL0     C66444   3.275   9.954   9.745  0.0875 -0.1849 -0.3466
  482MOL0     C66445   3.388   9.972   9.827  0.0428  0.1172 -1.6633
  482MOL0     C66446   3.359   9.944   9.976 -0.5407 -0.2935 -0.4228
  482MOL0     H66447   3.923  10.164   9.602  0.0580 -1.1067 -0.2358
  482MOL0     H66448   4.135  10.237   9.654 -2.8097  2.8380  0.1614
  482MOL0     H66449   4.239  10.401   9.953  0.6378  1.2902  0.1474
  482MOL0     H66450   4.275  10.369   9.787  0.7959 -0.3283 -0.2815
  482MOL0     H66451   4.495  10.319   9.843  1.6064 -2.6226  2.5532
  482MOL0     H66452   4.453  10.490   9.881 -3.3108  0.6951  0.9002
  482MOL0     H66453   4.414  10.411  10.121 -0.4029  0.3633 -0.8064
  482MOL0     H66454   4.463  10.246  10.080  1.9520  0.1392  1.3321
  482MOL0     H66455   4.679  10.289  10.053 -2.2076 -1.2882 -0.6052
  482MOL0     H66456   4.663  10.460  10.050  0.6406 -0.6383 -0.4025
  482MOL0     H66457   4.648  10.267  10.278 -0.4903 -0.4723 -0.6847
  482MOL0     H66458   4.564  10.418  10.302  2.7307 -2.0543  3.7203
  482MOL0     H66459   4.859  10.404  10.226  2.0536  3.9040  0.9082
  482MOL0     H66460   4.761  10.544  10.261  1.5937 -0.1208 -2.7733
  482MOL0     H66461   4.836  10.330  10.455 -5.2739 -1.6390 -0.8436
  482MOL0     H66462   4.729  10.464  10.490 -0.6577  2.8714 -1.9076
  482MOL0     H66463   4.984  10.504  10.568  0.2989  1.4898  0.3575
  482MOL0     H66464   5.020  10.479  10.391 -2.1025  1.3861 -1.4383
  482MOL0     H66465   4.760  10.682  10.616 -1.1738  1.0852  0.0296
  482MOL0     H66466   4.769  11.045  10.512  0.8705  0.5579 -1.1429
  482MOL0     H66467   4.732  10.948  10.651 -0.2991  0.9007 -0.0603
  482MOL0     H66468   4.578  10.930  10.388  1.7563  4.5666  0.2207
  482MOL0     H66469   4.546  10.832  10.537  1.1040 -1.3059 -1.4907
  482MOL0     H66470   4.381  11.026  10.487 -0.2191  0.3317 -1.1573
  482MOL0     H66471   4.469  11.041  10.647 -4.2462 -0.2843 -0.7844
  482MOL0     H66472   4.427  11.245  10.508 -3.4483 -2.9526 -1.1849
  482MOL0     H66473   4.603  11.201  10.533 -0.0308 -2.9620  3.8651
  482MOL0     H66474   4.336  11.060  10.217  0.0946  0.2166  2.5426
  482MOL0     H66475   4.010  11.197  10.118  0.3912  1.7855 -2.9344
  482MOL0     H66476   4.111  11.051  10.163  0.4669 -0.5146  0.2909
  482MOL0     H66477   4.120  11.121  10.006 -1.8368 -0.9499 -0.1604
  482MOL0     H66478   3.824  11.601  10.158  1.6023 -0.1337  0.7045
  482MOL0     H66479   3.701  11.777  10.043  0.7959  1.4874  3.5057
  482MOL0     H66480   3.608  11.992   9.910  0.5042 -1.9028  1.8830
  482MOL0     H66481   3.689  12.056  10.052  1.2856 -0.5653  0.1168
  482MOL0     H66482   3.720  12.181   9.778  0.4659 -1.0007  0.6539
  482MOL0     H66483   3.575  12.207   9.871  0.5769  0.4118 -2.2033
  482MOL0     H66484   3.768  12.388   9.874  0.4423 -1.8967 -1.8009
  482MOL0     H66485   3.858  12.278   9.980 -0.3805  1.7095  3.0433
  482MOL0     H66486   3.644  12.249  10.129 -0.1987 -0.5982 -0.7031
  482MOL0     H66487   3.575  12.382  10.054  0.3444  0.0292 -0.5034
  482MOL0     H66488   3.676  12.441  10.251  0.5988  0.7735  0.2088
  482MOL0     H66489   3.833  12.367  10.212  0.0310 -0.6716 -0.3726
  482MOL0     H66490   3.728  12.627  10.094  1.4426  0.7454 -2.3427
  482MOL0     H66491   3.864  12.529  10.030  1.6724 -0.1455  1.1743
  482MOL0     H66492   3.976  12.552  10.248 -0.3808 -0.0876 -0.4783
  482MOL0     H66493   3.855  12.660  10.312  3.4272  4.4320  0.9944
  482MOL0     H66494   4.046  12.798  10.247 -1.0812 -0.5308  0.8833
  482MOL0     H66495   3.917  12.828  10.132 -0.6767 -1.2135 -0.7871
  482MOL0     H66496   4.071  11.946   9.900 -0.1550  0.5420 -0.2839
  482MOL0     H66497   4.188  11.759  10.009 -0.1906  3.6091  1.3062
  482MOL0     H66498   4.319  11.549  10.234 -0.1963  0.2184 -0.6989
  482MOL0     H66499   4.496  11.430  10.344 -0.3985 -1.4651  1.4857
  482MOL0     H66500   4.080  10.076  10.054 -2.1295  0.9042  0.5443
  482MOL0     H66501   3.874  10.047  10.027  2.8533  1.6638  0.7926
  482MOL0     H66502   3.598  10.074   9.579 -1.7863  0.2034 -1.4122
  482MOL0     H66503   3.407   9.997   9.436  0.3301  2.6334 -0.2958
  482MOL0     H66504   3.022   9.850   9.639 -1.1778  0.0779 -0.0255
  482MOL0     H66505   3.017  10.023   9.612 -1.2747  0.2154 -1.1565
  482MOL0     H66506   2.849   9.914   9.487 -0.8984  0.0110 -0.8166
  482MOL0     H66507   2.970   9.826   9.392  0.8027  0.8894 -1.0182
  482MOL0     H66508   2.918  10.135   9.379 -0.0602 -0.0190  0.5769
  482MOL0     H66509   3.078  10.079   9.350  0.2916 -1.6360 -1.2307
  482MOL0     H66510   2.845   9.970   9.191 -0.0721  0.7773  2.1749
  482MOL0     H66511   3.008   9.934   9.168 -1.7251 -1.1121  1.4756
  482MOL0     H66512   2.959  10.314   8.976  1.8725  0.5777 -0.8074
  482MOL0     H66513   3.179   9.925   9.788  0.3996 -1.8380 -0.6771
  482MOL0     H66514   3.409  10.017  10.040  0.8271 -2.4363  1.1264
  482MOL0     H66515   3.252   9.941   9.996 -0.2379 -0.7042  1.2872
  482MOL0     H66516   3.395   9.844  10.006  0.0757  0.5462  1.8363
  483MOL0     O66517   9.418   8.270  11.369  0.1676 -0.5602  0.4136
  483MOL0     C66518   9.454   8.384  11.406 -0.1210  0.9024 -0.0099
  483MOL0     O66519   9.368   8.490  11.432 -0.3324  0.8290 -0.3531
  483MOL0     C66520   9.236   8.483  11.420  1.0181 -0.8221  0.7535
  483MOL0     C66521   9.157   8.395  11.499 -1.1405  0.4932 -0.5395
  483MOL0     C66522   9.014   8.414  11.503 -0.3655  0.4778  0.9185
  483MOL0     C66523   8.953   8.516  11.424 -0.2044 -0.0796 -0.9153
  483MOL0     O66524   8.825   8.550  11.425 -0.6299 -0.3223  0.4510
  483MOL0     C66525   8.744   8.518  11.532  0.5387  0.2603  0.1915
  483MOL0     C66526   8.639   8.627  11.559  0.0369  0.3310  1.0436
  483MOL0     C66527   8.560   8.673  11.430  0.4660  0.2803 -0.5433
  483MOL0     C66528   8.448   8.780  11.458  0.3243  0.7111  0.7490
  483MOL0     C66529   8.406   8.849  11.325 -0.3804 -0.8835 -0.5895
  483MOL0     C66530   8.276   8.917  11.356 -0.5157 -0.1402 -0.2480
  483MOL0     C66531   8.197   8.974  11.233 -1.1502 -0.1894  0.1503
  483MOL0     C66532   8.055   9.022  11.270  0.7207  0.0486 -0.2867
  483MOL0     N66533   7.975   8.903  11.307  0.3359 -0.5103 -0.1218
  483MOL0     C66534   7.988   8.774  11.264  1.1257 -0.9564 -0.3108
  483MOL0     C66535   7.898   8.702  11.337  0.1588  1.3979  0.4204
  483MOL0     C66536   7.867   8.558  11.324  0.9125 -0.3132 -0.4101
  483MOL0     C66537   7.729   8.512  11.389  0.6247  0.7830 -0.1102
  483MOL0     C66538   7.746   8.445  11.531  0.9763 -0.6298 -0.3286
  483MOL0     C66539   7.796   8.548  11.628 -0.7847  0.5600 -0.6160
  483MOL0     O66540   7.771   8.504  11.757 -0.3356 -0.0805  0.5139
  483MOL0     C66541   7.787   8.593  11.864  0.6297 -0.1748  0.5923
  483MOL0     C66542   7.750   8.551  11.990  0.2627  0.6776 -0.2213
  483MOL0     C66543   7.781   8.621  12.111 -1.4543 -0.4992  0.0741
  483MOL0     C66544   7.716   8.577  12.244  0.5730 -0.7796 -1.0700
  483MOL0     C66545   7.867   8.740  12.099 -0.7761  0.1683  0.1244
  483MOL0     C66546   7.910   8.829  12.210  0.8357  0.3843 -0.0156
  483MOL0     O66547   7.927   8.958  12.180  0.3179  0.8969  1.0112
  483MOL0     C66548   7.981   9.048  12.268  0.4397 -0.4500 -0.5941
  483MOL0     C66549   8.091   9.111  12.212 -1.2370  0.0697 -0.3922
  483MOL0     C66550   8.163   9.199  12.291  0.7322  0.3079  0.4941
  483MOL0     C66551   8.139   9.206  12.423  0.0983 -0.7420 -0.1599
  483MOL0     O66552   8.217   9.283  12.508  0.1531 -0.1614  0.1931
  483MOL0     C66553   8.349   9.319  12.465 -0.1328 -0.0210 -0.0215
  483MOL0     C66554   8.413   9.399  12.576  0.2930  0.8685 -0.0785
  483MOL0     C66555   8.361   9.547  12.581 -0.2814  0.2341  0.4081
  483MOL0     C66556   8.469   9.649  12.617 -0.4957  0.9211 -0.0536
  483MOL0     C66557   8.403   9.788  12.627 -0.5690 -0.3469  0.4368
  483MOL0     C66558   8.513   9.892  12.644 -0.0358  0.2230 -0.1668
  483MOL0     C66559   8.473  10.040  12.606  0.1937 -0.0182  0.0895
  483MOL0     C66560   8.599  10.130  12.606  0.0261 -0.4285  0.6239
  483MOL0    Cl66561   8.563  10.306  12.568  0.0483 -0.1753  0.0157
  483MOL0     C66562   8.032   9.145  12.483 -1.0560 -0.5131  0.3105
  483MOL0     C66563   7.947   9.063  12.403  0.0655  0.1474 -0.7228
  483MOL0     O66564   7.919   8.781  12.322  0.1537 -0.1624  0.2617
  483MOL0     C66565   7.917   8.767  11.969  0.5896  0.1264  0.9053
  483MOL0     C66566   7.872   8.702  11.853 -0.2921  0.2013 -0.2841
  483MOL0     N66567   7.828   8.782  11.419  0.1566  0.2559  0.0172
  483MOL0     N66568   7.861   8.903  11.389 -0.6645 -0.0291 -0.1387
  483MOL0     C66569   9.034   8.600  11.345 -0.1359  0.7341 -0.5412
  483MOL0     C66570   9.175   8.584  11.347  0.0524 -0.4205 -0.2633
  483MOL0     C66571   9.601   8.412  11.419  0.4485  0.1464  0.4302
  483MOL0     C66572   9.637   8.540  11.454  0.3348  1.1159  0.6442
  483MOL0     C66573   9.773   8.568  11.477  0.8346  0.0782 -0.0781
  483MOL0     C66574   9.877   8.480  11.447 -0.1803  0.2204 -1.2342
  483MOL0     O66575  10.008   8.516  11.453 -0.2364 -0.4583  0.0822
  483MOL0     C66576  10.070   8.537  11.577 -0.0744 -0.1802 -0.0612
  483MOL0     C66577  10.205   8.474  11.559  0.7132 -0.0868 -0.0700
  483MOL0     C66578  10.275   8.467  11.692 -0.5706 -0.2882 -0.5235
  483MOL0     C66579  10.429   8.430  11.692  1.0722  0.4682  0.4048
  483MOL0     C66580  10.441   8.284  11.668  0.0977  0.2518 -1.0659
  483MOL0     C66581  10.468   8.165  11.657 -0.7142  0.1922  0.5026
  483MOL0     C66582   9.844   8.357  11.405 -0.0144 -0.2736 -0.1276
  483MOL0     C66583   9.710   8.318  11.400  0.6718  0.0096  0.4807
  483MOL0     C66584   9.685   8.176  11.353  0.3110 -0.5174 -0.7150
  483MOL0     H66585   9.207   8.311  11.547 -0.2491 -0.5003 -3.0867
  483MOL0     H66586   8.948   8.349  11.560 -2.4458  0.1608 -1.6498
  483MOL0     H66587   8.804   8.486  11.618  0.0598  0.5118  0.6278
  483MOL0     H66588   8.686   8.426  11.519  2.4337 -1.3047  2.1431
  483MOL0     H66589   8.573   8.594  11.640 -3.2674  1.9393 -0.7556
  483MOL0     H66590   8.689   8.715  11.601 -1.8739  2.6528 -1.1987
  483MOL0     H66591   8.642   8.704  11.365  0.8308  0.0944 -0.1803
  483MOL0     H66592   8.509   8.592  11.376  1.6815 -0.3114 -0.8465
  483MOL0     H66593   8.363   8.737  11.513 -0.0755 -1.6604 -1.5292
  483MOL0     H66594   8.497   8.855  11.522  0.5750 -1.1531  2.8851
  483MOL0     H66595   8.396   8.781  11.240 -0.8681  0.5651 -1.7372
  483MOL0     H66596   8.483   8.922  11.300 -1.9862  0.6450 -1.3310
  483MOL0     H66597   8.213   8.835  11.392 -1.3202 -2.2885 -5.6058
  483MOL0     H66598   8.292   8.996  11.430  0.4824  0.1245 -0.7346
  483MOL0     H66599   8.198   8.906  11.148  1.3030  1.9352 -1.7047
  483MOL0     H66600   8.259   9.061  11.209  0.1784 -1.1691 -0.0742
  483MOL0     H66601   8.067   9.077  11.364 -0.8591 -0.8217  0.4468
  483MOL0     H66602   8.009   9.085  11.193 -1.6701  0.0263  1.0544
  483MOL0     H66603   8.065   8.742  11.195  5.4740  3.3300  1.9097
  483MOL0     H66604   7.938   8.499  11.382  0.0816 -3.5444 -2.4387
  483MOL0     H66605   7.867   8.519  11.222 -6.2612 -1.8335 -0.3525
  483MOL0     H66606   7.654   8.591  11.390 -1.0103 -0.5543 -2.9544
  483MOL0     H66607   7.688   8.435  11.322  1.6588  2.6907 -3.1644
  483MOL0     H66608   7.653   8.410  11.576  0.9532  4.0886  4.2609
  483MOL0     H66609   7.818   8.364  11.515  1.6336  0.0292 -0.7894
  483MOL0     H66610   7.904   8.556  11.611 -0.5650 -1.8231 -0.7297
  483MOL0     H66611   7.740   8.642  11.622  1.3924  1.9482 -0.3982
  483MOL0     H66612   7.697   8.457  12.003 -0.1659  1.0541  0.9118
  483MOL0     H66613   7.645   8.651  12.283  2.5573 -1.1881  4.0818
  483MOL0     H66614   7.797   8.556  12.314  0.7129  1.7124 -0.3939
  483MOL0     H66615   7.654   8.488  12.234  0.5021 -0.7708 -0.7406
  483MOL0     H66616   8.124   9.098  12.110  1.9808 -1.1266  0.6664
  483MOL0     H66617   8.241   9.261  12.248 -0.1616  0.6407 -0.7192
  483MOL0     H66618   8.409   9.229  12.453 -0.2729 -0.3216  1.3846
  483MOL0     H66619   8.343   9.369  12.368 -0.6897 -2.4063 -1.2942
  483MOL0     H66620   8.385   9.346  12.667  0.8580  0.8758  0.1040
  483MOL0     H66621   8.521   9.396  12.561  0.1394  1.4847 -1.4508
  483MOL0     H66622   8.273   9.568  12.643  0.2185  2.7378  0.3704
  483MOL0     H66623   8.323   9.564  12.480 -1.5859 -0.2608  0.7837
  483MOL0     H66624   8.553   9.649  12.546  0.4248  0.5468  1.0136
  483MOL0     H66625   8.503   9.612  12.714 -1.7873 -0.1571  0.0240
  483MOL0     H66626   8.338   9.820  12.545 -0.6454  0.9111  0.9736
  483MOL0     H66627   8.340   9.786  12.716 -1.8253  0.2332 -0.4207
  483MOL0     H66628   8.605   9.867  12.589  0.6571  1.3883  0.4158
  483MOL0     H66629   8.548   9.885  12.747 -3.4231 -0.1936  1.0483
  483MOL0     H66630   8.403  10.081  12.680 -0.2210  0.5313 -0.5990
  483MOL0     H66631   8.431  10.035  12.505  0.3888  0.4571 -0.0155
  483MOL0     H66632   8.673  10.081  12.542  0.5170 -1.2227  1.7856
  483MOL0     H66633   8.633  10.120  12.710 -1.5634 -0.3972  1.1638
  483MOL0     H66634   8.034   9.166  12.590 -2.0742 -1.8178  0.6076
  483MOL0     H66635   7.875   9.003  12.459  1.9494 -2.4384 -0.9356
  483MOL0     H66636   7.994   8.843  11.962  0.4788  0.0505 -2.3857
  483MOL0     H66637   7.919   8.719  11.756  0.8253  1.0612  0.3840
  483MOL0     H66638   9.000   8.666  11.266  0.2606 -1.3682 -2.5852
  483MOL0     H66639   9.240   8.652  11.293 -0.7245  0.9461  0.4809
  483MOL0     H66640   9.566   8.612  11.493  1.2913  1.8154  1.1223
  483MOL0     H66641   9.795   8.665  11.521  0.1162  1.3463 -2.3020
  483MOL0     H66642  10.096   8.640  11.606  0.1432 -0.8114  2.1998
  483MOL0     H66643  10.013   8.485  11.655 -0.9797 -1.8470 -1.7476
  483MOL0     H66644  10.257   8.556  11.508  2.2946  0.5474  2.3994
  483MOL0     H66645  10.214   8.384  11.497  1.7154  0.7665 -1.2343
  483MOL0     H66646  10.260   8.559  11.750  1.9600 -0.4154  0.4312
  483MOL0     H66647  10.220   8.386  11.740 -1.2577  1.4894  1.8576
  483MOL0     H66648  10.474   8.454  11.788  0.8711 -0.2365  0.6780
  483MOL0     H66649  10.475   8.496  11.617  3.2975 -2.2180 -0.7628
  483MOL0     H66650  10.512   8.068  11.664  1.3347  0.9503 -0.8849
  483MOL0     H66651   9.926   8.290  11.380  0.3229 -0.1074  0.5107
  483MOL0     H66652   9.774   8.135  11.305  1.8540  0.0709  1.5295
  483MOL0     H66653   9.646   8.112  11.432 -1.7130 -0.3495 -1.5034
  483MOL0     H66654   9.613   8.172  11.270  1.8739  0.3411 -2.1790
  484MOL0     O66655  11.332   4.375   6.572 -0.2009  0.1605 -1.0491
  484MOL0     C66656  11.390   4.265   6.550  0.3658 -0.2704 -0.1939
  484MOL0     O66657  11.519   4.261   6.519  0.2620  0.0378  0.2245
  484MOL0     C66658  11.598   4.372   6.539  0.2746 -0.1866 -0.6450
  484MOL0     C66659  11.610   4.443   6.659 -0.1994 -0.7438  0.0357
  484MOL0     C66660  11.693   4.563   6.661  0.0074 -0.5595  0.0249
  484MOL0     C66661  11.748   4.613   6.543  0.2207 -0.7955 -0.0310
  484MOL0     O66662  11.801   4.742   6.524 -0.0291  0.3579 -0.6773
  484MOL0     C66663  11.809   4.827   6.644 -0.8245 -0.5693  0.3323
  484MOL0     C66664  11.908   4.797   6.752  0.4597 -0.1957  0.3812
  484MOL0     C66665  12.039   4.756   6.685  0.5645 -0.8102  0.2857
  484MOL0     C66666  12.132   4.676   6.780 -0.4862 -0.5795  0.4528
  484MOL0     C66667  12.230   4.580   6.703  1.4886 -0.1449 -0.1668
  484MOL0     C66668  12.304   4.467   6.790  0.6949  0.0585  0.0839
  484MOL0     C66669  12.406   4.390   6.710  0.2281  0.2003  0.5268
  484MOL0     C66670  12.513   4.339   6.810 -0.6887  0.4314  0.1444
  484MOL0     N66671  12.648   4.307   6.741  0.3910  0.9741  0.0478
  484MOL0     C66672  12.667   4.292   6.602 -0.1173  0.1453  0.5218
  484MOL0     C66673  12.806   4.288   6.589  0.6088 -0.3123 -0.3136
  484MOL0     C66674  12.874   4.280   6.458  0.5804 -0.6524 -0.2996
  484MOL0     C66675  13.020   4.248   6.452  0.0415  0.5330 -0.1697
  484MOL0     C66676  13.064   4.266   6.301 -0.0204  0.4475 -0.0926
  484MOL0     C66677  13.104   4.406   6.265  0.0590 -0.4424 -0.1886
  484MOL0     O66678  13.238   4.444   6.280 -0.6066 -0.3113 -0.5162
  484MOL0     C66679  13.321   4.471   6.172 -0.0537  0.5448 -0.1235
  484MOL0     C66680  13.454   4.521   6.197  0.1071 -0.4071  0.2893
  484MOL0     C66681  13.557   4.534   6.102 -0.4723  0.2610 -0.2164
  484MOL0     C66682  13.693   4.580   6.151 -0.5990  0.4662  0.6474
  484MOL0     C66683  13.518   4.495   5.973 -0.2219  0.0848  0.7069
  484MOL0     C66684  13.610   4.505   5.857 -0.7617 -0.2832  0.2106
  484MOL0     O66685  13.725   4.587   5.879  0.2658  0.3683 -0.3928
  484MOL0     C66686  13.821   4.606   5.775 -0.9031  0.3738  0.5418
  484MOL0     C66687  13.931   4.674   5.822 -0.4138 -0.5280 -0.2877
  484MOL0     C66688  14.035   4.713   5.737  0.2054  0.2221 -0.1144
  484MOL0     C66689  14.010   4.708   5.594  0.0744 -0.2216 -0.5344
  484MOL0     O66690  14.101   4.754   5.504 -0.5337 -0.1397  0.5310
  484MOL0     C66691  14.115   4.902   5.516 -0.5613 -0.0011 -0.7652
  484MOL0     C66692  14.039   4.968   5.392 -0.0929  0.6378  0.5528
  484MOL0     C66693  14.099   4.919   5.261 -0.9940 -0.2335  0.6520
  484MOL0     C66694  14.036   4.989   5.141  0.0530 -0.3966  0.2667
  484MOL0     C66695  14.108   4.965   5.005 -0.1996  0.5390 -0.6441
  484MOL0     C66696  14.062   4.831   4.927 -0.9531  0.6158 -0.1923
  484MOL0     C66697  13.922   4.820   4.876 -0.1853 -0.3449  0.1489
  484MOL0     C66698  13.894   4.917   4.750  0.9554  0.0039 -0.4801
  484MOL0    Cl66699  14.015   4.872   4.621  0.5849 -0.2391 -0.2414
  484MOL0     C66700  13.892   4.653   5.552 -0.1679 -0.7407 -0.0552
  484MOL0     C66701  13.794   4.601   5.640  0.0814  0.3101  0.4522
  484MOL0     O66702  13.578   4.449   5.754  0.7678  0.3025 -0.3208
  484MOL0     C66703  13.385   4.443   5.948 -0.1413 -0.3241 -0.0679
  484MOL0     C66704  13.291   4.424   6.041 -0.0625  0.3366 -0.1891
  484MOL0     N66705  12.870   4.288   6.714 -0.0993  0.5037 -1.2961
  484MOL0     N66706  12.770   4.295   6.801 -0.1817 -0.3968  0.4816
  484MOL0     C66707  11.735   4.533   6.426 -0.1602 -0.0120 -0.1835
  484MOL0     C66708  11.665   4.413   6.427 -0.7994 -0.0354  0.7025
  484MOL0     C66709  11.298   4.142   6.556 -0.3538  1.7075 -0.3666
  484MOL0     C66710  11.162   4.160   6.585 -0.3289 -0.3867  0.2974
  484MOL0     C66711  11.074   4.057   6.603 -0.4996  0.5920 -0.1120
  484MOL0     C66712  11.120   3.923   6.577 -0.1182  0.7215 -0.0791
  484MOL0     O66713  11.030   3.825   6.589  0.4172 -0.3731  0.7170
  484MOL0     C66714  11.047   3.688   6.536  0.3089  0.0025  0.2794
  484MOL0     C66715  11.054   3.691   6.379  0.5414 -0.1962  0.5674
  484MOL0     C66716  11.079   3.544   6.328 -0.1743 -0.6009  0.0843
  484MOL0     C66717  11.104   3.543   6.172  0.0018 -0.0510 -0.0934
  484MOL0     C66718  11.000   3.465   6.107 -0.6136  0.0916  0.4581
  484MOL0     C66719  10.916   3.418   6.038  0.8666  0.7040  0.3627
  484MOL0     C66720  11.253   3.905   6.522  0.4338  0.1244 -0.1113
  484MOL0     C66721  11.342   4.009   6.515  0.2673  0.0003 -0.1117
  484MOL0     C66722  11.483   3.971   6.485 -0.1564  0.2610 -0.2480
  484MOL0     H66723  11.570   4.426   6.758  0.9710 -1.1991  0.4493
  484MOL0     H66724  11.710   4.610   6.756  1.9382 -0.1682 -0.4839
  484MOL0     H66725  11.707   4.825   6.684 -0.5617 -0.3029  1.0282
  484MOL0     H66726  11.831   4.931   6.622 -0.0395 -0.2439  2.4310
  484MOL0     H66727  11.920   4.885   6.815 -1.6934  1.0741 -0.8276
  484MOL0     H66728  11.870   4.718   6.818  2.6213 -1.4468  0.2380
  484MOL0     H66729  12.020   4.685   6.604  2.7830 -0.7998 -0.3023
  484MOL0     H66730  12.093   4.841   6.642  2.8392 -2.8662 -1.0988
  484MOL0     H66731  12.190   4.746   6.840  1.1823 -0.5364 -1.1323
  484MOL0     H66732  12.067   4.609   6.838 -1.2095 -1.2614 -1.0635
  484MOL0     H66733  12.297   4.643   6.644 -1.4212  2.8660 -0.5000
  484MOL0     H66734  12.167   4.529   6.629  0.9889 -1.3095  1.0094
  484MOL0     H66735  12.338   4.526   6.875 -1.2840  0.2920  0.7648
  484MOL0     H66736  12.232   4.394   6.828  0.7830 -0.7455 -1.2027
  484MOL0     H66737  12.451   4.459   6.638 -1.1077  1.0680  0.4758
  484MOL0     H66738  12.362   4.303   6.659 -1.1372 -0.7096  3.0740
  484MOL0     H66739  12.527   4.411   6.890  0.3379 -0.6627  0.9807
  484MOL0     H66740  12.477   4.240   6.841 -0.2024 -1.3956 -4.2256
  484MOL0     H66741  12.598   4.310   6.521  1.1708 -1.4198 -1.0017
  484MOL0     H66742  12.862   4.376   6.406  0.2250  1.5421  3.4887
  484MOL0     H66743  12.819   4.203   6.402 -0.2306  0.0960 -0.5618
  484MOL0     H66744  13.077   4.321   6.510  0.9201  0.4537 -0.9059
  484MOL0     H66745  13.048   4.152   6.497 -1.4644 -0.0913 -0.4661
  484MOL0     H66746  13.138   4.190   6.273 -0.6576  1.2123 -4.6222
  484MOL0     H66747  12.980   4.245   6.234  1.0151  2.4808 -2.1464
  484MOL0     H66748  13.071   4.429   6.164  3.3646 -1.0740 -1.5256
  484MOL0     H66749  13.051   4.485   6.319 -0.4114  0.7730 -2.3222
  484MOL0     H66750  13.478   4.554   6.297 -2.9168  2.5109  0.2279
  484MOL0     H66751  13.683   4.571   6.260 -1.1518  1.9600  0.7523
  484MOL0     H66752  13.722   4.677   6.110 -0.2114  0.0816  0.0099
  484MOL0     H66753  13.775   4.517   6.116  0.4854  1.5197  1.2170
  484MOL0     H66754  13.940   4.684   5.929 -2.8319 -1.6907  0.0945
  484MOL0     H66755  14.121   4.764   5.779  1.6975 -2.9167  0.9355
  484MOL0     H66756  14.076   4.934   5.612  1.0273 -1.9041  0.6031
  484MOL0     H66757  14.224   4.915   5.519  0.4083 -5.1485  4.4698
  484MOL0     H66758  13.933   4.941   5.386  0.7787 -2.8978 -1.3662
  484MOL0     H66759  14.048   5.077   5.394  1.3376  0.5295  1.3813
  484MOL0     H66760  14.092   4.810   5.253 -1.0185 -0.3948  2.4477
  484MOL0     H66761  14.208   4.928   5.268 -1.1498  0.7926  2.4430
  484MOL0     H66762  14.047   5.096   5.160  0.2511 -0.1772 -0.9972
  484MOL0     H66763  13.929   4.964   5.134  0.5233 -2.4236 -0.2987
  484MOL0     H66764  14.082   5.058   4.954 -0.1582  2.6807  2.8882
  484MOL0     H66765  14.216   4.959   5.021 -0.7986 -3.5662  4.5728
  484MOL0     H66766  14.081   4.745   4.992 -1.5472 -0.7674 -1.7689
  484MOL0     H66767  14.134   4.817   4.846  0.8916 -0.2212  1.4981
  484MOL0     H66768  13.850   4.844   4.955  0.9002  3.8125  0.0782
  484MOL0     H66769  13.900   4.717   4.844 -0.8837 -0.4722  1.0037
  484MOL0     H66770  13.915   5.021   4.777  0.1036  0.6818 -2.2631
  484MOL0     H66771  13.789   4.917   4.721  0.9458 -1.2160 -0.4606
  484MOL0     H66772  13.878   4.651   5.445  1.9634  1.2744 -0.4547
  484MOL0     H66773  13.707   4.559   5.591  1.3448 -3.2408  0.9291
  484MOL0     H66774  13.365   4.402   5.850  0.6570 -0.4005 -0.2082
  484MOL0     H66775  13.199   4.373   6.015  0.0905  0.0602 -0.1922
  484MOL0     H66776  11.781   4.567   6.334 -0.9189  2.7083  0.3458
  484MOL0     H66777  11.643   4.366   6.332 -2.3907  3.8148 -1.0671
  484MOL0     H66778  11.117   4.258   6.593 -1.5588 -0.7512 -1.6365
  484MOL0     H66779  10.968   4.077   6.619 -0.5586  0.2491 -0.0852
  484MOL0     H66780  11.135   3.640   6.580 -1.1032 -2.0313  1.0488
  484MOL0     H66781  10.970   3.619   6.572  0.3312 -0.3879 -0.3966
  484MOL0     H66782  11.131   3.753   6.334 -0.0063  0.8528  1.0495
  484MOL0     H66783  10.958   3.716   6.332  0.2601 -2.1273  0.0300
  484MOL0     H66784  11.165   3.496   6.377  0.4799 -0.8807 -1.2727
  484MOL0     H66785  11.001   3.471   6.350  0.8494 -2.5765 -2.2879
  484MOL0     H66786  11.194   3.483   6.156 -0.8366 -1.0626 -1.2389
  484MOL0     H66787  11.109   3.641   6.123 -3.7252 -0.9505 -2.7077
  484MOL0     H66788  10.826   3.376   5.997 -1.3824  2.1885  3.4106
  484MOL0     H66789  11.279   3.802   6.501  1.4708  0.3705 -0.0851
  484MOL0     H66790  11.505   3.864   6.489  1.0283  0.5187  0.7532
  484MOL0     H66791  11.508   4.006   6.384 -0.6479  0.7217 -0.2134
  484MOL0     H66792  11.555   4.002   6.562  0.7995  0.8900 -1.3518
  485MOL0     O66793   7.070   7.260   1.366 -0.5250 -0.2844 -0.9414
  485MOL0     C66794   7.113   7.159   1.422  0.1215 -0.9138 -0.3421
  485MOL0     O66795   7.111   7.136   1.556 -0.0185  0.1218  0.6941
  485MOL0     C66796   7.030   7.216   1.642 -0.0810 -0.3996  0.9056
  485MOL0     C66797   7.083   7.248   1.765  0.2609 -0.9681  0.6778
  485MOL0     C66798   7.000   7.320   1.856  0.1808  0.3283  0.1245
  485MOL0     C66799   6.873   7.367   1.823 -0.9127  0.2263 -0.2343
  485MOL0     O66800   6.804   7.425   1.927 -0.3445 -0.2587 -0.2538
  485MOL0     C66801   6.674   7.475   1.908 -0.2786  0.1020 -0.0121
  485MOL0     C66802   6.626   7.561   2.025  0.2942 -0.6635 -0.2329
  485MOL0     C66803   6.629   7.490   2.163 -0.3348  0.7841 -0.3705
  485MOL0     C66804   6.553   7.570   2.278  0.1716 -0.2500 -0.6803
  485MOL0     C66805   6.600   7.524   2.422  0.3644  0.0783  0.5485
  485MOL0     C66806   6.493   7.571   2.517 -0.1161  0.2575  0.0307
  485MOL0     C66807   6.520   7.506   2.651 -0.3361  0.3098 -0.5171
  485MOL0     C66808   6.402   7.529   2.748 -0.2724  0.5414  0.1890
  485MOL0     N66809   6.435   7.532   2.888 -0.9284  0.0889  0.3619
  485MOL0     C66810   6.432   7.643   2.971  0.3152 -0.7435  0.9795
  485MOL0     C66811   6.464   7.602   3.097 -0.6710 -0.2045 -0.4048
  485MOL0     C66812   6.448   7.685   3.220  0.2847  0.3040  0.0611
  485MOL0     C66813   6.586   7.715   3.273  0.3876 -0.1038  0.0752
  485MOL0     C66814   6.588   7.834   3.366  0.0362 -0.6026 -0.7035
  485MOL0     C66815   6.545   7.788   3.509  0.1147 -0.7311  0.2950
  485MOL0     O66816   6.419   7.854   3.546  0.0939 -0.1625 -0.4540
  485MOL0     C66817   6.428   7.976   3.612  0.5113 -0.7416  0.7705
  485MOL0     C66818   6.545   8.056   3.607 -0.5321 -0.0250 -0.2055
  485MOL0     C66819   6.555   8.180   3.677  0.5564  0.4459  0.2498
  485MOL0     C66820   6.682   8.261   3.668 -0.1163 -0.7071 -0.6861
  485MOL0     C66821   6.434   8.216   3.757  0.1433 -0.1171  0.4314
  485MOL0     C66822   6.428   8.336   3.846  0.2454  0.8259  0.3311
  485MOL0     O66823   6.302   8.387   3.865 -0.1186 -1.0725 -0.8539
  485MOL0     C66824   6.291   8.513   3.926 -0.3505  0.4784  0.2211
  485MOL0     C66825   6.305   8.626   3.851 -0.5705  0.5041 -0.0339
  485MOL0     C66826   6.297   8.749   3.907  0.6250  1.2714  0.0054
  485MOL0     C66827   6.266   8.759   4.044  0.0157 -0.8891 -0.6022
  485MOL0     O66828   6.254   8.891   4.090 -0.8676  0.6339  0.5760
  485MOL0     C66829   6.287   8.904   4.227 -0.0768 -0.2191  0.0087
  485MOL0     C66830   6.287   9.056   4.264  1.4874 -0.5606  0.4680
  485MOL0     C66831   6.358   9.069   4.397  0.0375  0.1899 -0.0187
  485MOL0     C66832   6.515   9.057   4.385  0.0233 -0.1979  0.2449
  485MOL0     C66833   6.569   9.196   4.350 -0.2409 -0.5952  1.0071
  485MOL0     C66834   6.719   9.191   4.321  0.4847  0.6187 -0.0438
  485MOL0     C66835   6.778   9.327   4.279  0.0031  0.6743 -0.1110
  485MOL0     C66836   6.718   9.401   4.151  0.5614  0.6103 -0.2691
  485MOL0    Cl66837   6.776   9.316   3.996 -0.2092  0.1897 -0.5389
  485MOL0     C66838   6.248   8.645   4.129  1.1539 -0.1138  0.1788
  485MOL0     C66839   6.267   8.518   4.062 -0.2201 -0.1421 -1.1482
  485MOL0     O66840   6.536   8.387   3.883  0.2730 -0.3237  0.1380
  485MOL0     C66841   6.317   8.143   3.754 -0.8304  0.8999 -1.2341
  485MOL0     C66842   6.314   8.025   3.677 -0.7116 -0.4570  0.2247
  485MOL0     N66843   6.480   7.469   3.084 -0.0583  0.1896  0.6052
  485MOL0     N66844   6.464   7.427   2.965  0.4133  0.2790  0.1374
  485MOL0     C66845   6.826   7.339   1.699 -0.1632  0.5674 -0.0774
  485MOL0     C66846   6.899   7.258   1.607  0.3126  1.1907  0.1322
  485MOL0     C66847   7.182   7.051   1.338 -0.2210  0.2099  0.3834
  485MOL0     C66848   7.185   6.913   1.384  0.5891 -0.4625 -0.3929
  485MOL0     C66849   7.243   6.814   1.310 -0.2333 -0.2536 -0.2003
  485MOL0     C66850   7.288   6.838   1.180 -0.6741  0.4245  0.1423
  485MOL0     O66851   7.339   6.733   1.108 -0.0678 -0.2689 -0.2946
  485MOL0     C66852   7.338   6.744   0.965 -0.1230  0.9319 -0.9554
  485MOL0     C66853   7.483   6.760   0.904  0.8464  0.5629 -0.2361
  485MOL0     C66854   7.599   6.690   0.982  0.0522  0.7096 -0.6143
  485MOL0     C66855   7.718   6.693   0.885 -0.1152 -0.4839  0.3202
  485MOL0     C66856   7.841   6.629   0.935 -0.0839 -0.4257 -0.6186
  485MOL0     C66857   7.954   6.596   0.964  0.4173 -0.9349  0.1653
  485MOL0     C66858   7.302   6.975   1.141  0.0809  0.7873 -0.1615
  485MOL0     C66859   7.245   7.081   1.218  0.5967  0.0677 -0.4266
  485MOL0     C66860   7.268   7.217   1.161  0.7029  1.7013 -0.2741
  485MOL0     H66861   7.185   7.215   1.778  0.6499 -0.1456 -0.1222
  485MOL0     H66862   7.038   7.329   1.957  3.3104  1.1342 -0.9807
  485MOL0     H66863   6.604   7.391   1.900  0.6932 -0.6598 -0.9816
  485MOL0     H66864   6.667   7.530   1.814  1.0558 -0.3023 -0.3729
  485MOL0     H66865   6.687   7.651   2.037 -2.5662  1.1732  1.5734
  485MOL0     H66866   6.525   7.595   2.003 -0.0739 -1.6348 -0.1134
  485MOL0     H66867   6.582   7.391   2.164  1.1445 -0.1238  4.4583
  485MOL0     H66868   6.734   7.472   2.190  0.1823 -0.1333 -2.7352
  485MOL0     H66869   6.580   7.676   2.271  1.3055 -0.5407 -0.8382
  485MOL0     H66870   6.445   7.568   2.261  0.0596  1.1220 -0.3096
  485MOL0     H66871   6.688   7.584   2.445 -0.3139  0.9302  0.9485
  485MOL0     H66872   6.613   7.415   2.422 -1.2030 -0.1518  1.6799
  485MOL0     H66873   6.482   7.678   2.535 -0.2840 -0.0530  2.0313
  485MOL0     H66874   6.394   7.545   2.480  0.2094 -1.4393  0.2782
  485MOL0     H66875   6.608   7.553   2.696  1.8552 -1.5263 -2.6379
  485MOL0     H66876   6.540   7.401   2.631  2.6688  0.1672  2.3077
  485MOL0     H66877   6.359   7.626   2.721  1.3912  1.4531  0.7305
  485MOL0     H66878   6.319   7.458   2.737  0.8374 -1.1527  2.1011
  485MOL0     H66879   6.390   7.740   2.946  1.0416 -0.7060 -0.1681
  485MOL0     H66880   6.392   7.625   3.292  2.1525 -3.4129 -1.3325
  485MOL0     H66881   6.396   7.778   3.196  1.1802  0.2295 -2.4412
  485MOL0     H66882   6.619   7.627   3.330  0.1370  0.5830  1.3246
  485MOL0     H66883   6.652   7.744   3.191  1.4570  2.7427  1.7981
  485MOL0     H66884   6.687   7.881   3.373  0.8858 -2.5274  1.5199
  485MOL0     H66885   6.517   7.908   3.329 -0.9549  0.2367  2.5446
  485MOL0     H66886   6.522   7.682   3.490 -2.7507 -0.0627 -0.6032
  485MOL0     H66887   6.622   7.794   3.585  0.3774  1.7406 -0.0999
  485MOL0     H66888   6.636   8.029   3.554 -1.4277 -0.3905 -1.6298
  485MOL0     H66889   6.665   8.358   3.622  4.4783 -0.1455 -1.6661
  485MOL0     H66890   6.755   8.216   3.600 -0.5023  0.1765 -1.7001
  485MOL0     H66891   6.728   8.271   3.767  0.3500 -4.3749 -0.3692
  485MOL0     H66892   6.342   8.611   3.750  0.5601 -0.7835  0.5435
  485MOL0     H66893   6.314   8.840   3.851  1.0378  1.0222 -0.2880
  485MOL0     H66894   6.218   8.851   4.293 -0.0741  0.3718  0.5029
  485MOL0     H66895   6.380   8.850   4.247  1.5532  1.7532 -1.7354
  485MOL0     H66896   6.337   9.120   4.191  0.0145  2.5169  1.9474
  485MOL0     H66897   6.182   9.084   4.263  1.9204  1.3224  1.5594
  485MOL0     H66898   6.323   8.997   4.471  3.1627 -0.0443  1.4035
  485MOL0     H66899   6.328   9.164   4.443  0.4718  0.0253  0.6231
  485MOL0     H66900   6.549   8.984   4.311  0.5616 -1.7427  1.9561
  485MOL0     H66901   6.535   9.022   4.486 -3.0675  0.0754  1.0661
  485MOL0     H66902   6.521   9.238   4.261  0.1569  0.4351  1.2680
  485MOL0     H66903   6.558   9.265   4.434 -2.1656  0.3795  0.0443
  485MOL0     H66904   6.743   9.113   4.249  3.5268 -1.2011  2.6940
  485MOL0     H66905   6.774   9.164   4.411  4.6963 -0.2482 -2.6404
  485MOL0     H66906   6.885   9.318   4.258 -0.3996 -1.2439 -1.4953
  485MOL0     H66907   6.765   9.405   4.356 -2.4063 -0.2364  0.4958
  485MOL0     H66908   6.740   9.508   4.142 -0.8199  1.0394  1.0226
  485MOL0     H66909   6.609   9.390   4.152  0.6192  0.0470  0.5746
  485MOL0     H66910   6.207   8.646   4.229 -4.5866 -1.5061 -1.8019
  485MOL0     H66911   6.265   8.431   4.128  1.2258  2.0010  1.9624
  485MOL0     H66912   6.233   8.175   3.815 -0.7975 -2.9992  1.2297
  485MOL0     H66913   6.219   7.973   3.670 -0.2138 -1.4233  0.4461
  485MOL0     H66914   6.733   7.383   1.664 -0.5767 -1.1378 -1.2586
  485MOL0     H66915   6.852   7.231   1.513 -0.1367  2.9681 -0.1846
  485MOL0     H66916   7.128   6.887   1.472  1.7763 -1.7864  0.0146
  485MOL0     H66917   7.222   6.712   1.341 -0.0162  0.6659  3.3367
  485MOL0     H66918   7.291   6.652   0.929 -0.9577  1.6162 -1.6752
  485MOL0     H66919   7.268   6.823   0.935 -3.1172 -0.6938  1.2541
  485MOL0     H66920   7.502   6.867   0.897  0.8554  0.5388 -0.6222
  485MOL0     H66921   7.481   6.706   0.809 -0.7801 -1.9787  1.1212
  485MOL0     H66922   7.604   6.748   1.074 -3.7706 -1.5564  1.2503
  485MOL0     H66923   7.580   6.584   1.002  3.2501 -0.1328 -1.4173
  485MOL0     H66924   7.744   6.795   0.853  0.5121 -1.2512 -1.8223
  485MOL0     H66925   7.695   6.636   0.795  0.5525  0.1725 -0.2900
  485MOL0     H66926   8.047   6.567   1.010 -0.3168 -2.3427  0.8234
  485MOL0     H66927   7.357   6.998   1.051 -1.3774  0.7355 -1.1107
  485MOL0     H66928   7.170   7.261   1.139  0.7265  1.0111 -1.9032
  485MOL0     H66929   7.332   7.279   1.225  0.1335  1.6944  0.3085
  485MOL0     H66930   7.324   7.208   1.067 -0.6870  1.2192 -1.0833
  486MOL0     O66931   4.008   3.489   8.549 -0.6183  0.1958  0.0787
  486MOL0     C66932   3.940   3.540   8.463 -0.7630  0.0997  0.5368
  486MOL0     O66933   3.897   3.664   8.470 -0.4294  0.5116  0.0610
  486MOL0     C66934   3.923   3.746   8.579  0.9814 -0.9179  0.1291
  486MOL0     C66935   3.954   3.878   8.537  0.3697  0.1421  0.1287
  486MOL0     C66936   3.974   3.971   8.644 -0.4959  0.4410  0.5466
  486MOL0     C66937   3.980   3.929   8.774  0.3818 -0.8473  0.6026
  486MOL0     O66938   4.008   4.017   8.872  0.0318 -0.2015  0.8331
  486MOL0     C66939   4.140   3.999   8.935  1.1825  0.2093  0.9462
  486MOL0     C66940   4.165   4.114   9.029 -0.4774 -0.3420  0.1929
  486MOL0     C66941   4.288   4.086   9.115 -0.0401 -0.2770  0.2707
  486MOL0     C66942   4.300   4.208   9.207  0.0879 -0.3770  0.5189
  486MOL0     C66943   4.440   4.231   9.258 -0.5476 -0.8053  0.0373
  486MOL0     C66944   4.456   4.331   9.363 -0.0043  0.0730 -0.8633
  486MOL0     C66945   4.397   4.478   9.328 -1.0575 -0.6637  0.6773
  486MOL0     C66946   4.432   4.588   9.418  0.6609  0.2621  0.0059
  486MOL0     N66947   4.360   4.548   9.545 -0.1334  0.0460 -0.2989
  486MOL0     C66948   4.234   4.589   9.583 -1.1899  0.8220 -0.6427
  486MOL0     C66949   4.223   4.548   9.719  0.0502  0.0512  0.0043
  486MOL0     C66950   4.099   4.539   9.796  1.5306 -0.1193 -0.3892
  486MOL0     C66951   4.058   4.681   9.829  0.2469  0.6300 -0.0811
  486MOL0     C66952   3.921   4.692   9.902  1.1977 -0.0859 -0.2000
  486MOL0     C66953   3.911   4.832   9.967 -0.4872 -0.1887 -0.0173
  486MOL0     O66954   3.795   4.821  10.057  0.3667 -0.4388 -0.8065
  486MOL0     C66955   3.703   4.916  10.029  0.2053 -0.6562  0.5476
  486MOL0     C66956   3.578   4.864  10.052  0.6064  0.0077 -0.3217
  486MOL0     C66957   3.464   4.941  10.048  0.4028  0.5721 -0.6952
  486MOL0     C66958   3.334   4.865  10.073 -0.0007  0.3132 -0.1064
  486MOL0     C66959   3.472   5.084  10.021 -0.4270  0.9074  0.2429
  486MOL0     C66960   3.361   5.178  10.015 -0.6996 -0.6945 -0.0096
  486MOL0     O66961   3.251   5.132  10.077  0.2232  0.1656 -0.2945
  486MOL0     C66962   3.129   5.186  10.042  0.0868 -0.2507  0.1440
  486MOL0     C66963   3.067   5.293  10.111  0.9551  0.1013  0.3960
  486MOL0     C66964   2.950   5.351  10.054  0.6381  0.4422  0.3282
  486MOL0     C66965   2.896   5.302   9.936 -0.3529 -0.0229  1.0170
  486MOL0     O66966   2.767   5.343   9.897 -0.0764 -0.0993  0.7002
  486MOL0     C66967   2.676   5.237   9.866 -0.6635 -0.4802 -0.6468
  486MOL0     C66968   2.641   5.158  10.001 -0.1254 -1.2198  1.6846
  486MOL0     C66969   2.570   5.029   9.976  0.4786 -0.0148  0.3214
  486MOL0     C66970   2.428   5.061   9.942  0.7306  0.0260  0.2073
  486MOL0     C66971   2.368   4.929   9.877  0.7894  0.0469  0.1784
  486MOL0     C66972   2.417   4.916   9.728  1.0644  0.1143  0.4664
  486MOL0     C66973   2.343   4.801   9.647  1.1461  0.3477  0.4477
  486MOL0     C66974   2.196   4.838   9.601 -1.1652 -0.2304 -0.2934
  486MOL0    Cl66975   2.093   4.702   9.577 -0.3227 -0.0646 -0.1650
  486MOL0     C66976   2.967   5.198   9.870  0.7575 -0.7258  0.1897
  486MOL0     C66977   3.074   5.141   9.927  1.0311  0.7381  0.1691
  486MOL0     O66978   3.373   5.292   9.968  0.7892  0.2409  0.2157
  486MOL0     C66979   3.603   5.132   9.988  0.6901 -0.2656  1.1994
  486MOL0     C66980   3.716   5.050   9.993  0.3826  0.1319 -0.1105
  486MOL0     N66981   4.343   4.497   9.761 -1.4081 -0.2330 -0.1442
  486MOL0     N66982   4.419   4.490   9.655  0.6391 -0.0689  0.4630
  486MOL0     C66983   3.927   3.808   8.808 -1.7266  1.5000 -0.1939
  486MOL0     C66984   3.902   3.711   8.711  0.1953  0.2700 -0.4442
  486MOL0     C66985   3.891   3.466   8.339 -0.3342 -0.6562  0.2254
  486MOL0     C66986   3.786   3.531   8.270 -0.5130  0.7106  0.3937
  486MOL0     C66987   3.724   3.463   8.167 -0.3724  0.2476 -0.0787
  486MOL0     C66988   3.766   3.341   8.109 -0.6534 -0.3607 -0.7704
  486MOL0     O66989   3.705   3.271   8.010 -0.3568  0.3120 -0.1479
  486MOL0     C66990   3.594   3.327   7.938  0.2788  0.3478 -0.3386
  486MOL0     C66991   3.649   3.405   7.813  0.2345 -0.4400  0.6005
  486MOL0     C66992   3.559   3.391   7.684  0.3727  0.7323  0.1800
  486MOL0     C66993   3.590   3.490   7.572  0.3592 -0.3402 -0.2898
  486MOL0     C66994   3.498   3.477   7.461  0.5339  0.2729  0.0780
  486MOL0     C66995   3.426   3.464   7.360 -1.3086 -1.8477  0.1373
  486MOL0     C66996   3.881   3.289   8.173  0.9649  0.0656  0.0217
  486MOL0     C66997   3.947   3.350   8.285  0.6958 -0.2521  0.5904
  486MOL0     C66998   4.084   3.305   8.327  0.7287 -0.8758  0.2955
  486MOL0     H66999   3.958   3.909   8.433 -0.2561  0.2455  0.1330
  486MOL0     H67000   3.991   4.077   8.630 -0.8872  0.2660 -1.5980
  486MOL0     H67001   4.221   3.999   8.861 -1.2532 -2.5003 -2.0013
  486MOL0     H67002   4.156   3.901   8.981  4.1792 -0.0633 -0.4210
  486MOL0     H67003   4.187   4.210   8.981 -0.7533  0.7436  2.1183
  486MOL0     H67004   4.073   4.125   9.088 -0.0582 -0.0004  0.7899
  486MOL0     H67005   4.261   3.999   9.175 -1.6870  0.4932  0.7002
  486MOL0     H67006   4.380   4.067   9.057 -0.4732 -2.6534  0.2412
  486MOL0     H67007   4.262   4.300   9.161  0.3578 -1.2668 -1.5881
  486MOL0     H67008   4.245   4.177   9.296  0.5650 -0.7903  0.6766
  486MOL0     H67009   4.490   4.273   9.170 -1.0265 -1.5037 -0.5895
  486MOL0     H67010   4.479   4.136   9.295 -1.4862 -2.1147 -2.0977
  486MOL0     H67011   4.402   4.301   9.453  0.8149  0.2372 -0.2951
  486MOL0     H67012   4.563   4.330   9.388 -0.9423  2.1436  5.0471
  486MOL0     H67013   4.288   4.474   9.320 -0.9891 -1.1978 -0.1706
  486MOL0     H67014   4.434   4.496   9.227  0.2894 -0.6089  1.1557
  486MOL0     H67015   4.541   4.588   9.428  1.0564  0.2350 -3.3028
  486MOL0     H67016   4.390   4.683   9.384 -2.2437 -0.9189  0.0248
  486MOL0     H67017   4.162   4.641   9.521 -0.2621  1.6642 -1.0548
  486MOL0     H67018   4.106   4.471   9.881  0.5306 -1.9173 -1.6636
  486MOL0     H67019   4.027   4.482   9.737 -0.5739 -0.8307  2.6855
  486MOL0     H67020   4.125   4.721   9.907 -4.4338 -0.4968  5.1743
  486MOL0     H67021   4.064   4.740   9.737 -0.1168 -1.7116 -1.6956
  486MOL0     H67022   3.842   4.681   9.827 -0.2021 -1.1549  1.3599
  486MOL0     H67023   3.903   4.622   9.984 -3.2013  2.0908  1.0091
  486MOL0     H67024   4.005   4.845  10.022  0.0047  0.1394 -0.9163
  486MOL0     H67025   3.904   4.914   9.895 -0.3618 -0.5516 -0.4475
  486MOL0     H67026   3.575   4.758  10.075  0.5655 -1.0259 -4.3369
  486MOL0     H67027   3.301   4.890  10.174 -0.2895  3.7405 -0.9381
  486MOL0     H67028   3.348   4.757  10.059 -1.0543 -0.1887  2.2395
  486MOL0     H67029   3.254   4.902  10.007  0.0534  1.3821  0.4116
  486MOL0     H67030   3.115   5.325  10.203 -1.1758 -0.0583  1.6405
  486MOL0     H67031   2.901   5.439  10.094  0.3122 -0.2468  1.4717
  486MOL0     H67032   2.584   5.291   9.838 -0.3924  0.3074 -0.0680
  486MOL0     H67033   2.721   5.180   9.785  2.9828  1.9731 -0.5714
  486MOL0     H67034   2.731   5.132  10.056  1.6969  0.6382 -0.2164
  486MOL0     H67035   2.585   5.231  10.059 -0.7993  0.8438 -1.3451
  486MOL0     H67036   2.569   4.962  10.062  0.0030  0.6435  0.8373
  486MOL0     H67037   2.618   4.988   9.886 -3.0564 -2.5855 -0.5852
  486MOL0     H67038   2.422   5.152   9.881  1.1119 -0.5975 -0.7799
  486MOL0     H67039   2.374   5.083  10.035  3.1797  3.6887  0.9939
  486MOL0     H67040   2.380   4.839   9.938 -1.0599  1.0009  2.0608
  486MOL0     H67041   2.260   4.940   9.867  0.8973 -0.4152 -2.2135
  486MOL0     H67042   2.524   4.892   9.726  0.9577 -0.3717 -1.5138
  486MOL0     H67043   2.422   5.009   9.669 -0.2817 -0.6698 -0.9443
  486MOL0     H67044   2.335   4.713   9.711 -1.0527  0.4909  0.4543
  486MOL0     H67045   2.401   4.777   9.557  0.8714  1.7859 -0.1355
  486MOL0     H67046   2.196   4.895   9.507  2.6731 -0.6716 -0.7317
  486MOL0     H67047   2.149   4.885   9.688  1.8094  0.3182  1.1454
  486MOL0     H67048   2.943   5.154   9.774  4.5814 -1.8150 -0.4486
  486MOL0     H67049   3.132   5.074   9.864  1.3256  1.0656  0.0808
  486MOL0     H67050   3.609   5.237   9.963 -1.1292 -0.2546  0.7085
  486MOL0     H67051   3.810   5.103   9.978  0.4548  0.3525  1.0327
  486MOL0     H67052   3.926   3.791   8.915  1.3554  3.2848  0.2348
  486MOL0     H67053   3.877   3.610   8.742  4.9057 -0.4306  1.9948
  486MOL0     H67054   3.753   3.627   8.307  3.3287  2.8270 -1.0651
  486MOL0     H67055   3.639   3.515   8.124 -0.0173  0.0213 -1.0752
  486MOL0     H67056   3.528   3.249   7.896 -0.3034 -0.6219  2.1721
  486MOL0     H67057   3.521   3.382   7.998  0.7410 -0.8833  1.4263
  486MOL0     H67058   3.751   3.373   7.790  0.6809  0.5758  1.1299
  486MOL0     H67059   3.648   3.508   7.849 -0.6951 -1.0649  2.4554
  486MOL0     H67060   3.593   3.296   7.641  0.3553  0.9682 -0.3663
  486MOL0     H67061   3.453   3.390   7.710  0.4568  0.7422  0.5266
  486MOL0     H67062   3.688   3.455   7.537  1.7340 -0.2969  3.1033
  486MOL0     H67063   3.605   3.594   7.602  0.5330 -0.6871  0.8860
  486MOL0     H67064   3.375   3.455   7.266  0.1714 -3.3309 -0.5720
  486MOL0     H67065   3.915   3.201   8.119 -4.2890 -1.6641 -1.0724
  486MOL0     H67066   4.158   3.385   8.316  1.8499 -1.9377 -0.0455
  486MOL0     H67067   4.085   3.261   8.427 -1.7941  1.6162  1.5510
  486MOL0     H67068   4.106   3.229   8.251 -1.6273 -2.7461  1.3529
  487MOL0     O67069   2.314   6.859   2.238 -0.1295 -0.3516 -0.2079
  487MOL0     C67070   2.290   6.945   2.323  1.1125 -0.1426 -1.0401
  487MOL0     O67071   2.388   7.004   2.400  0.4244 -0.1061 -0.8563
  487MOL0     C67072   2.519   6.990   2.366  0.2926 -0.3538  0.0812
  487MOL0     C67073   2.618   6.935   2.451 -0.5854 -0.9369  0.5761
  487MOL0     C67074   2.754   6.947   2.405 -0.1503  0.2097  0.1163
  487MOL0     C67075   2.790   6.988   2.272 -0.7545  0.4359 -0.2012
  487MOL0     O67076   2.912   6.991   2.209  0.0274 -1.0012 -0.0920
  487MOL0     C67077   3.027   6.922   2.255 -0.1141 -0.1991  0.5126
  487MOL0     C67078   3.146   6.984   2.189 -0.1930 -0.0354  0.9345
  487MOL0     C67079   3.267   6.904   2.174 -1.2021 -0.0069 -0.1776
  487MOL0     C67080   3.318   6.869   2.318 -0.7218 -0.0384  0.5541
  487MOL0     C67081   3.380   6.979   2.407 -0.3581 -0.3490 -0.0261
  487MOL0     C67082   3.524   7.021   2.364  0.7434 -0.1267 -1.4011
  487MOL0     C67083   3.572   7.138   2.449 -0.5074  0.3538  1.4423
  487MOL0     C67084   3.511   7.265   2.406  0.0417 -0.7387  0.2290
  487MOL0     N67085   3.563   7.367   2.492  0.2901  0.5949 -0.7916
  487MOL0     C67086   3.519   7.380   2.624 -0.6351  0.7029  0.5338
  487MOL0     C67087   3.607   7.469   2.676  0.1584  0.3044  0.5024
  487MOL0     C67088   3.621   7.518   2.816  0.7904  0.0816 -0.2556
  487MOL0     C67089   3.754   7.487   2.876 -0.2857 -0.5017  0.8344
  487MOL0     C67090   3.845   7.608   2.867 -0.4943  0.0749  0.2477
  487MOL0     C67091   3.985   7.573   2.916 -0.5505  0.9647  0.6664
  487MOL0     O67092   4.093   7.656   2.857 -0.7491  0.1603  1.1421
  487MOL0     C67093   4.167   7.612   2.752 -0.4096 -0.8495 -0.0689
  487MOL0     C67094   4.115   7.527   2.661 -1.0647  0.8416  1.4593
  487MOL0     C67095   4.184   7.472   2.549 -1.0407 -0.3356 -0.5969
  487MOL0     C67096   4.106   7.386   2.452 -0.7304 -0.0764  0.5996
  487MOL0     C67097   4.312   7.536   2.512  1.0997 -1.0220 -0.8361
  487MOL0     C67098   4.397   7.503   2.393 -0.0049 -0.4109  0.0362
  487MOL0     O67099   4.513   7.574   2.368 -0.1833  0.0406  0.4769
  487MOL0     C67100   4.578   7.582   2.244 -0.0655  0.0213  0.2021
  487MOL0     C67101   4.533   7.544   2.115 -0.0900  0.4609 -0.3142
  487MOL0     C67102   4.616   7.573   2.002  0.2747 -0.2434 -0.1576
  487MOL0     C67103   4.733   7.652   2.015 -0.5663  0.8088 -0.5986
  487MOL0     O67104   4.816   7.707   1.916  0.0755  0.1320 -0.5022
  487MOL0     C67105   4.816   7.637   1.790  0.1557 -0.9832  0.0733
  487MOL0     C67106   4.923   7.695   1.694  0.5197  0.2828 -1.0868
  487MOL0     C67107   4.966   7.588   1.589 -1.0086 -0.3837  0.5495
  487MOL0     C67108   5.082   7.638   1.510 -0.2018  0.1461  0.9764
  487MOL0     C67109   5.094   7.573   1.368 -0.5571  0.6419 -0.2750
  487MOL0     C67110   5.230   7.592   1.294  0.8917  0.4428 -0.5961
  487MOL0     C67111   5.215   7.514   1.160 -0.0330 -0.3781 -0.0138
  487MOL0     C67112   5.336   7.447   1.100 -0.5109  0.2740 -0.2902
  487MOL0    Cl67113   5.475   7.558   1.084 -0.1207  0.3138 -0.2161
  487MOL0     C67114   4.775   7.689   2.144 -0.4832 -0.7799  0.7703
  487MOL0     C67115   4.693   7.662   2.253 -0.0271  0.3180 -0.3602
  487MOL0     O67116   4.351   7.417   2.319  0.0263 -0.1652  0.5194
  487MOL0     C67117   4.364   7.627   2.613  0.0342 -0.1957 -0.4606
  487MOL0     C67118   4.294   7.661   2.730 -0.2724  0.6194 -0.5820
  487MOL0     N67119   3.691   7.507   2.570  0.4792  0.1643  0.6538
  487MOL0     N67120   3.659   7.447   2.464 -0.5949 -0.1000 -0.2507
  487MOL0     C67121   2.689   7.041   2.197  0.8752  0.0110  1.0240
  487MOL0     C67122   2.556   7.044   2.240  0.7882 -1.0441 -0.5149
  487MOL0     C67123   2.153   6.956   2.381  0.5689 -0.1860 -0.7337
  487MOL0     C67124   2.126   7.041   2.489 -0.3573 -0.1675  0.4254
  487MOL0     C67125   2.002   7.037   2.556 -0.4769 -0.6914  0.5835
  487MOL0     C67126   1.899   6.957   2.521  0.9969 -0.1427 -0.3211
  487MOL0     O67127   1.775   6.970   2.586 -0.0067 -0.1689  0.6556
  487MOL0     C67128   1.760   6.908   2.712  0.5014 -0.0261 -0.4494
  487MOL0     C67129   1.791   6.756   2.708  0.2719 -0.4366 -0.6930
  487MOL0     C67130   1.950   6.714   2.724  0.0096  0.4997 -0.1375
  487MOL0     C67131   1.974   6.563   2.718  0.3603  0.7171 -0.9736
  487MOL0     C67132   1.921   6.509   2.589  0.1566 -0.1582 -0.9560
  487MOL0     C67133   1.869   6.474   2.484 -0.0545  0.3795  0.4399
  487MOL0     C67134   1.912   6.883   2.405  0.4498  0.6390  0.0779
  487MOL0     C67135   2.033   6.876   2.338 -0.5060 -0.5522  0.7641
  487MOL0     C67136   2.041   6.791   2.207 -0.5793  0.1194  0.1156
  487MOL0     H67137   2.600   6.894   2.550  6.1982 -0.6363  2.4448
  487MOL0     H67138   2.830   6.910   2.474 -3.8310 -2.9869  2.9111
  487MOL0     H67139   3.027   6.814   2.236  1.3302  0.2604 -2.6089
  487MOL0     H67140   3.044   6.927   2.363  1.4103 -0.4767  0.2989
  487MOL0     H67141   3.133   7.009   2.083  3.6844  0.1793  0.3630
  487MOL0     H67142   3.169   7.079   2.237 -1.8789 -0.1708  2.1221
  487MOL0     H67143   3.251   6.809   2.123  4.1008 -1.9740  1.2262
  487MOL0     H67144   3.348   6.959   2.124 -0.4245 -1.5787 -0.6955
  487MOL0     H67145   3.246   6.812   2.377 -2.1805  1.6873  0.5281
  487MOL0     H67146   3.405   6.803   2.305 -0.1507  0.8451 -0.2370
  487MOL0     H67147   3.369   6.953   2.512 -2.8661 -1.3286 -0.4582
  487MOL0     H67148   3.321   7.070   2.391 -0.8894 -0.0334  3.1236
  487MOL0     H67149   3.594   6.939   2.385 -0.3491 -0.8067 -0.3131
  487MOL0     H67150   3.519   7.049   2.259 -2.2735 -2.8989 -2.1589
  487MOL0     H67151   3.680   7.145   2.435 -0.1666  1.2908  4.0655
  487MOL0     H67152   3.548   7.120   2.554 -1.5340 -0.0797  1.1501
  487MOL0     H67153   3.535   7.289   2.302 -4.4604  1.1283 -0.6068
  487MOL0     H67154   3.402   7.268   2.408 -0.0218  1.5062 -1.7788
  487MOL0     H67155   3.440   7.323   2.672 -0.7331  2.6394  2.9009
  487MOL0     H67156   3.545   7.470   2.879  1.3333 -2.0840 -1.1539
  487MOL0     H67157   3.591   7.623   2.822  2.0500  0.3977  1.0237
  487MOL0     H67158   3.752   7.443   2.976 -0.4613  1.0324  1.5246
  487MOL0     H67159   3.799   7.411   2.811 -2.6028  1.1794 -3.1609
  487MOL0     H67160   3.856   7.639   2.762 -1.3486  1.4887  0.5507
  487MOL0     H67161   3.808   7.696   2.921 -4.1458 -1.0854 -0.0459
  487MOL0     H67162   3.996   7.598   3.022 -1.2686 -0.7771  1.1953
  487MOL0     H67163   3.999   7.466   2.897 -1.9807  1.1711 -2.1641
  487MOL0     H67164   4.009   7.505   2.674 -0.6100 -0.6970  2.8169
  487MOL0     H67165   4.005   7.362   2.489 -1.1387 -1.6891 -1.3345
  487MOL0     H67166   4.147   7.299   2.400  0.2572  1.2489 -0.9107
  487MOL0     H67167   4.065   7.459   2.381 -1.5651 -1.7613 -0.7283
  487MOL0     H67168   4.440   7.490   2.098 -0.8832  1.0661  1.7462
  487MOL0     H67169   4.583   7.538   1.905 -1.2070 -1.4027  0.7150
  487MOL0     H67170   4.831   7.530   1.805  1.8842 -1.1182 -2.2168
  487MOL0     H67171   4.723   7.668   1.741  0.2037 -1.7083 -0.4823
  487MOL0     H67172   4.874   7.777   1.640 -2.2886  0.1412  0.9895
  487MOL0     H67173   5.007   7.731   1.753 -1.2463  1.7828  0.6558
  487MOL0     H67174   4.883   7.557   1.524 -0.2725 -0.4362 -0.3901
  487MOL0     H67175   4.993   7.499   1.647  0.3346  1.6949  3.3694
  487MOL0     H67176   5.170   7.638   1.574 -1.1533  1.3202  2.3518
  487MOL0     H67177   5.059   7.744   1.493  0.5079  0.2732  0.7832
  487MOL0     H67178   5.085   7.464   1.377 -2.1343  0.6924 -0.9222
  487MOL0     H67179   5.017   7.603   1.297 -2.1898 -0.4257  0.9762
  487MOL0     H67180   5.302   7.549   1.364  0.8093  0.4192 -0.5244
  487MOL0     H67181   5.246   7.700   1.286 -2.0129  1.4007  3.1136
  487MOL0     H67182   5.165   7.576   1.086 -0.3347  0.2484  0.7026
  487MOL0     H67183   5.143   7.434   1.179 -0.8960  0.3334 -0.2318
  487MOL0     H67184   5.314   7.410   1.000  0.1801 -0.5507 -0.1533
  487MOL0     H67185   5.364   7.355   1.153 -2.9070 -0.6724 -0.5632
  487MOL0     H67186   4.854   7.762   2.160 -0.1109 -1.3491  1.5727
  487MOL0     H67187   4.710   7.706   2.351 -0.3846 -0.1539 -0.0835
  487MOL0     H67188   4.452   7.688   2.598 -1.0488  1.7843  0.9274
  487MOL0     H67189   4.333   7.732   2.802  1.0375 -2.6479  2.2304
  487MOL0     H67190   2.716   7.085   2.102 -1.5373  0.1515  0.3389
  487MOL0     H67191   2.478   7.092   2.182  2.1099  1.7861 -0.1652
  487MOL0     H67192   2.201   7.114   2.517 -1.2017  2.0464 -2.4681
  487MOL0     H67193   1.995   7.098   2.645 -0.0007 -1.5800  1.2478
  487MOL0     H67194   1.821   6.960   2.787  1.1331  0.4149 -1.2473
  487MOL0     H67195   1.655   6.925   2.739  0.8996  1.9284  0.0457
  487MOL0     H67196   1.749   6.723   2.613  0.3107  1.6675 -1.5024
  487MOL0     H67197   1.735   6.715   2.793 -0.3400 -0.2607 -1.0077
  487MOL0     H67198   2.006   6.747   2.636  0.3782 -0.7665 -0.4059
  487MOL0     H67199   2.001   6.745   2.815  3.1973  1.4257 -2.0600
  487MOL0     H67200   1.931   6.514   2.805 -2.5694  3.5775 -0.6534
  487MOL0     H67201   2.080   6.536   2.717  0.2212  0.0624  0.3724
  487MOL0     H67202   1.823   6.467   2.388 -0.0196  0.4539  0.4178
  487MOL0     H67203   1.827   6.824   2.373  1.7697 -1.7262  0.6772
  487MOL0     H67204   2.096   6.696   2.205 -1.3686 -0.3536 -2.0258
  487MOL0     H67205   1.943   6.749   2.185 -1.5355  1.7320  1.0923
  487MOL0     H67206   2.066   6.850   2.118 -1.1478  1.2276  0.6720
  488MOL0     O67207   6.640   9.591   2.618 -0.2728 -0.6799 -0.0846
  488MOL0     C67208   6.741   9.532   2.668  0.7829  0.9609  0.2649
  488MOL0     O67209   6.861   9.586   2.699  0.2531 -0.1469 -0.7199
  488MOL0     C67210   6.887   9.727   2.702 -0.4397 -0.3459 -0.0964
  488MOL0     C67211   6.789   9.830   2.708 -0.1432 -0.0046  0.2506
  488MOL0     C67212   6.826   9.962   2.683  0.2527  0.0766 -0.1220
  488MOL0     C67213   6.962   9.995   2.660  0.9765  0.3127  0.1987
  488MOL0     O67214   6.989  10.134   2.637  0.0873 -0.2424 -0.3199
  488MOL0     C67215   7.110  10.177   2.577 -0.4403  0.1071  0.0923
  488MOL0     C67216   7.103  10.142   2.428 -0.0715 -0.3128  0.5182
  488MOL0     C67217   7.194  10.032   2.364  0.2583 -0.2579 -0.5268
  488MOL0     C67218   7.346  10.058   2.345 -0.3199  0.0820  0.6459
  488MOL0     C67219   7.434  10.026   2.466 -0.6099 -0.0270 -0.9998
  488MOL0     C67220   7.582  10.043   2.431  0.7396 -0.1005 -0.6158
  488MOL0     C67221   7.673  10.056   2.553 -0.1113  0.2008 -0.2118
  488MOL0     C67222   7.803   9.975   2.539  0.1970 -0.7071  0.3747
  488MOL0     N67223   7.919  10.049   2.572  0.9628 -0.1574 -0.1336
  488MOL0     C67224   7.989  10.113   2.472 -0.8280  0.8473  0.8805
  488MOL0     C67225   8.099  10.156   2.535 -0.3252  0.0414 -0.2929
  488MOL0     C67226   8.218  10.231   2.473  0.6251  0.3760  0.2389
  488MOL0     C67227   8.221  10.230   2.312  0.0801 -0.0870  0.4795
  488MOL0     C67228   8.353  10.284   2.250  0.0819  0.4825 -0.3854
  488MOL0     C67229   8.474  10.186   2.280 -0.8433 -0.3291  0.6282
  488MOL0     O67230   8.460  10.066   2.190 -0.1989 -1.0921  0.5206
  488MOL0     C67231   8.577  10.015   2.135 -0.8055 -0.7959  0.0148
  488MOL0     C67232   8.567   9.948   2.012  0.3607 -0.6554  0.3626
  488MOL0     C67233   8.671   9.877   1.944  0.0167 -0.2133  0.0191
  488MOL0     C67234   8.638   9.809   1.813 -0.4053  0.3729 -1.0755
  488MOL0     C67235   8.800   9.914   1.991 -0.3558  0.2983 -0.4853
  488MOL0     C67236   8.934   9.879   1.938  0.1709  0.4611  0.3071
  488MOL0     O67237   9.050   9.883   2.017  0.1995  0.5336 -0.4095
  488MOL0     C67238   9.165   9.862   1.954  0.5804  0.2616 -0.2314
  488MOL0     C67239   9.219   9.961   1.871 -0.9313  0.8618  0.9707
  488MOL0     C67240   9.330   9.933   1.793 -0.4231 -0.4950 -0.4849
  488MOL0     C67241   9.388   9.809   1.790 -0.0567 -0.3519 -0.0029
  488MOL0     O67242   9.476   9.790   1.690  0.1581 -0.3823  0.1136
  488MOL0     C67243   9.552   9.664   1.680 -0.2803  0.2610 -0.4251
  488MOL0     C67244   9.597   9.636   1.538 -0.3631 -0.4816 -0.8077
  488MOL0     C67245   9.463   9.619   1.456  0.5421 -0.0011 -0.0292
  488MOL0     C67246   9.487   9.595   1.302 -1.4297 -0.1346 -0.7304
  488MOL0     C67247   9.356   9.552   1.238  0.1555  0.9528  0.4697
  488MOL0     C67248   9.372   9.520   1.087  0.1931 -0.3648 -0.6789
  488MOL0     C67249   9.397   9.636   0.995 -0.5381 -0.4825  1.2945
  488MOL0     C67250   9.401   9.576   0.856  0.5311  0.3715 -0.0637
  488MOL0    Cl67251   9.530   9.447   0.848  0.0742  0.2762  0.1293
  488MOL0     C67252   9.348   9.717   1.884 -0.2993 -0.4482  0.3810
  488MOL0     C67253   9.241   9.739   1.973 -0.6046  0.4579  0.6211
  488MOL0     O67254   8.933   9.842   1.823 -0.4496  0.1879 -0.2064
  488MOL0     C67255   8.810   9.975   2.120 -0.5059  0.3641 -0.0942
  488MOL0     C67256   8.703  10.030   2.188  1.0166 -0.7148  0.1890
  488MOL0     N67257   8.093  10.120   2.669 -0.7226 -0.6761 -0.4198
  488MOL0     N67258   7.988  10.047   2.692 -0.1957  0.2832  0.5033
  488MOL0     C67259   7.063   9.892   2.674  0.3215 -0.2915  0.6393
  488MOL0     C67260   7.023   9.768   2.684 -0.2352 -0.0388 -0.5664
  488MOL0     C67261   6.733   9.383   2.678  0.3351  0.5982 -0.3549
  488MOL0     C67262   6.780   9.324   2.795  0.4894  0.8690 -0.2302
  488MOL0     C67263   6.781   9.184   2.811 -0.1992  0.5851 -0.6568
  488MOL0     C67264   6.757   9.101   2.708  1.2504  0.8246  1.3351
  488MOL0     O67265   6.783   8.965   2.723  0.5152  0.8984  0.2792
  488MOL0     C67266   6.768   8.869   2.613  0.2173 -0.1512  0.5409
  488MOL0     C67267   6.892   8.855   2.520 -0.1301 -0.4945 -0.3751
  488MOL0     C67268   6.874   8.770   2.389 -0.0824  1.2101  1.2022
  488MOL0     C67269   6.824   8.858   2.271  0.6871 -0.3954  0.4330
  488MOL0     C67270   6.674   8.861   2.260 -0.1049 -0.1387 -0.8561
  488MOL0     C67271   6.553   8.872   2.240 -0.4176  0.4400  0.1959
  488MOL0     C67272   6.705   9.160   2.580  0.0222 -0.5178  0.0091
  488MOL0     C67273   6.689   9.303   2.571 -0.4395  0.1321  0.2489
  488MOL0     C67274   6.639   9.367   2.442 -0.0920 -0.4439 -0.5700
  488MOL0     H67275   6.687   9.800   2.730 -0.0843  0.1430  0.7284
  488MOL0     H67276   6.759  10.047   2.682 -0.6245 -0.5237 -2.9960
  488MOL0     H67277   7.204  10.141   2.620  0.8442  1.2183 -1.6598
  488MOL0     H67278   7.102  10.286   2.585 -4.4280  0.0464 -0.8110
  488MOL0     H67279   6.999  10.118   2.403 -0.2010  0.4638  0.2907
  488MOL0     H67280   7.127  10.226   2.362 -3.8724 -0.0995 -0.8019
  488MOL0     H67281   7.184   9.940   2.423  1.0458  0.6366  1.0739
  488MOL0     H67282   7.151  10.004   2.268  0.6113  0.3683 -0.8721
  488MOL0     H67283   7.373   9.983   2.271  0.6187  3.8654 -3.2535
  488MOL0     H67284   7.376  10.147   2.289 -0.8942 -0.8338 -1.1760
  488MOL0     H67285   7.424   9.922   2.499  0.0576  0.2838  0.2333
  488MOL0     H67286   7.397  10.095   2.542  0.0946  1.1726 -1.7260
  488MOL0     H67287   7.608   9.949   2.381  0.2903 -0.3910 -0.3037
  488MOL0     H67288   7.598  10.129   2.365 -2.2097 -0.1732 -1.5401
  488MOL0     H67289   7.614  10.027   2.641  0.0218  3.3047  1.0282
  488MOL0     H67290   7.696  10.162   2.566  1.3071 -0.4257  3.7686
  488MOL0     H67291   7.789   9.884   2.597  1.7217 -1.5284 -0.4990
  488MOL0     H67292   7.812   9.936   2.438 -0.7888 -1.5440  0.5865
  488MOL0     H67293   7.970  10.123   2.365  3.8998 -3.8078 -0.8065
  488MOL0     H67294   8.309  10.189   2.517  1.0404  1.0788  0.0709
  488MOL0     H67295   8.210  10.334   2.511  3.4635  0.3007  1.2951
  488MOL0     H67296   8.217  10.125   2.285 -2.7903 -0.4714  2.0123
  488MOL0     H67297   8.140  10.284   2.262  1.3453  0.5289 -0.9730
  488MOL0     H67298   8.357  10.297   2.141 -1.5815 -0.6832 -0.6396
  488MOL0     H67299   8.380  10.376   2.302 -0.9638 -0.3561  1.7567
  488MOL0     H67300   8.562  10.244   2.252 -0.8092 -0.4420  0.5019
  488MOL0     H67301   8.486  10.150   2.383 -2.9520 -0.6271  0.8220
  488MOL0     H67302   8.474   9.941   1.957  1.6012 -3.3803 -1.6320
  488MOL0     H67303   8.712   9.838   1.738 -0.3219  1.7139 -0.5059
  488MOL0     H67304   8.548   9.851   1.766 -1.6284 -0.2155  0.6605
  488MOL0     H67305   8.623   9.702   1.832  0.5960  0.7152  2.2966
  488MOL0     H67306   9.183  10.063   1.862 -1.5949  0.4591 -1.6429
  488MOL0     H67307   9.350  10.013   1.722 -1.3006  0.2721  0.1209
  488MOL0     H67308   9.638   9.667   1.749 -1.3753  1.4471  0.9557
  488MOL0     H67309   9.498   9.577   1.718  0.3323  0.0647  0.0096
  488MOL0     H67310   9.656   9.719   1.497 -3.3193  0.2020 -4.2267
  488MOL0     H67311   9.656   9.543   1.537  0.1984 -0.1394 -2.1100
  488MOL0     H67312   9.396   9.704   1.467  0.2107 -0.2270 -0.2853
  488MOL0     H67313   9.414   9.530   1.497  1.6409 -0.9914 -0.7785
  488MOL0     H67314   9.563   9.516   1.290 -0.3215  0.7663  0.1325
  488MOL0     H67315   9.525   9.688   1.260 -3.7859  0.9362 -0.5952
  488MOL0     H67316   9.322   9.460   1.286  0.7704 -2.7438 -5.3009
  488MOL0     H67317   9.278   9.628   1.253  0.2077  0.9442  0.8076
  488MOL0     H67318   9.290   9.457   1.050 -0.8100  0.7450 -0.4094
  488MOL0     H67319   9.463   9.459   1.092 -0.2857 -1.0544 -0.2056
  488MOL0     H67320   9.493   9.687   1.012 -1.2165  0.9411  1.0265
  488MOL0     H67321   9.319   9.712   1.007 -0.8612 -0.9092  1.9260
  488MOL0     H67322   9.412   9.655   0.781 -0.5235 -0.6024 -1.2782
  488MOL0     H67323   9.302   9.531   0.841  1.0096 -0.8159  0.2459
  488MOL0     H67324   9.393   9.618   1.884 -1.2288 -0.9143  2.1753
  488MOL0     H67325   9.225   9.662   2.048  2.1135 -0.8055  0.0450
  488MOL0     H67326   8.905   9.980   2.171 -1.7773 -0.3963  2.5752
  488MOL0     H67327   8.718  10.072   2.287 -0.4118 -1.9140  0.9679
  488MOL0     H67328   7.170   9.909   2.676  0.3468  0.9884 -2.8714
  488MOL0     H67329   7.094   9.686   2.687  0.5147  0.6319  1.2364
  488MOL0     H67330   6.807   9.385   2.881  1.5090  1.7358 -1.1242
  488MOL0     H67331   6.818   9.151   2.908 -2.9839 -0.8398  0.0451
  488MOL0     H67332   6.732   8.774   2.654 -1.1679 -0.7574 -1.8745
  488MOL0     H67333   6.687   8.894   2.544 -0.6417  0.0496  1.5960
  488MOL0     H67334   6.982   8.820   2.573 -1.2808 -0.6067  1.6127
  488MOL0     H67335   6.907   8.959   2.491 -2.4394  0.0316  0.1404
  488MOL0     H67336   6.961   8.709   2.363 -2.1898 -1.4997  0.0399
  488MOL0     H67337   6.793   8.700   2.413 -1.4109  2.6879  1.2140
  488MOL0     H67338   6.835   8.798   2.180  1.1530 -0.9505  0.8466
  488MOL0     H67339   6.862   8.961   2.267 -2.8605  1.0813  1.0854
  488MOL0     H67340   6.450   8.877   2.211 -0.6077 -0.9153  0.5722
  488MOL0     H67341   6.660   9.100   2.501 -2.6210 -0.3404  1.2543
  488MOL0     H67342   6.645   9.295   2.360  4.0689  0.6131 -1.4477
  488MOL0     H67343   6.536   9.402   2.437 -0.1231 -0.5368 -0.5760
  488MOL0     H67344   6.712   9.444   2.412 -0.3360  0.1358  0.2689
  489MOL0     O67345  11.118   9.797   7.354  0.1001  0.1905 -0.3916
  489MOL0     C67346  11.056   9.841   7.449 -0.0290  0.9071 -0.5900
  489MOL0     O67347  10.924   9.831   7.470 -0.0891  0.3731 -0.2644
  489MOL0     C67348  10.849   9.754   7.387  0.0643 -0.3082 -0.5901
  489MOL0     C67349  10.890   9.625   7.351  0.4902  1.2049  0.4660
  489MOL0     C67350  10.819   9.539   7.256 -0.3699  0.3114  0.5414
  489MOL0     C67351  10.689   9.579   7.214 -0.5933  0.4566 -0.5420
  489MOL0     O67352  10.625   9.484   7.137 -0.3550 -0.5806 -1.0994
  489MOL0     C67353  10.486   9.486   7.152 -0.4624  0.5263  0.1534
  489MOL0     C67354  10.431   9.367   7.082  0.6658 -0.0057 -0.5488
  489MOL0     C67355  10.282   9.347   7.100  0.0617 -0.4636  0.5336
  489MOL0     C67356  10.219   9.267   6.991  0.5855 -0.6513  0.2343
  489MOL0     C67357  10.256   9.120   6.990 -0.4338 -0.0716 -0.6891
  489MOL0     C67358  10.200   9.031   6.874  0.5533  0.7223 -0.5178
  489MOL0     C67359  10.199   8.875   6.913  0.3004 -0.4535 -0.3934
  489MOL0     C67360  10.348   8.814   6.932  1.1086 -1.5487 -0.0000
  489MOL0     N67361  10.322   8.671   6.919 -0.4856  0.9017 -0.5255
  489MOL0     C67362  10.302   8.594   7.035 -0.4313 -0.0150 -0.1386
  489MOL0     C67363  10.309   8.462   7.001 -1.3538 -0.4354  0.3967
  489MOL0     C67364  10.303   8.335   7.077 -0.4307 -0.5848  0.6868
  489MOL0     C67365  10.433   8.258   7.092 -0.3426  0.0130 -0.5487
  489MOL0     C67366  10.556   8.354   7.097  0.1976 -0.2123  0.1501
  489MOL0     C67367  10.685   8.288   7.125 -0.8121  1.0112 -0.2866
  489MOL0     O67368  10.772   8.402   7.164  0.1539 -0.3207 -0.3460
  489MOL0     C67369  10.898   8.378   7.198 -0.5311 -0.2423  1.4044
  489MOL0     C67370  10.963   8.253   7.169 -0.7888  0.9673 -0.9669
  489MOL0     C67371  11.099   8.226   7.212 -0.2474 -0.8474 -0.5539
  489MOL0     C67372  11.161   8.093   7.184  0.0700 -0.1256  0.6037
  489MOL0     C67373  11.178   8.338   7.257  0.1797 -0.1758  0.5289
  489MOL0     C67374  11.325   8.330   7.277  0.4624 -0.0785 -0.8041
  489MOL0     O67375  11.382   8.425   7.365 -0.2390  0.1952  0.0775
  489MOL0     C67376  11.517   8.427   7.387 -0.4743 -0.2195  0.9772
  489MOL0     C67377  11.585   8.540   7.359  0.6064 -0.4622 -0.2048
  489MOL0     C67378  11.725   8.543   7.368  0.3066 -0.3850 -0.3686
  489MOL0     C67379  11.791   8.433   7.430  0.2248 -0.1497  1.1048
  489MOL0     O67380  11.923   8.444   7.468 -0.3440  0.3785  0.4508
  489MOL0     C67381  12.014   8.548   7.426  0.7299 -0.0523 -0.1794
  489MOL0     C67382  12.155   8.496   7.401  0.0305  0.3768 -0.2527
  489MOL0     C67383  12.162   8.376   7.309  0.7966  0.6132  0.1923
  489MOL0     C67384  12.094   8.417   7.170  0.4034  0.3252  0.1048
  489MOL0     C67385  12.075   8.288   7.097 -0.1822  0.8579 -0.3886
  489MOL0     C67386  11.961   8.200   7.160  0.4830  0.5442  0.2508
  489MOL0     C67387  11.971   8.052   7.111  0.3182 -0.5080  0.6363
  489MOL0     C67388  11.841   7.982   7.147  0.7209  0.1538  0.1604
  489MOL0    Cl67389  11.851   7.812   7.152  0.1842 -0.0716 -0.0418
  489MOL0     C67390  11.724   8.316   7.450  0.0873  0.2247  0.0265
  489MOL0     C67391  11.587   8.313   7.427 -0.2065 -0.0588 -0.2035
  489MOL0     O67392  11.384   8.256   7.206 -0.1653 -0.1048  0.4796
  489MOL0     C67393  11.127   8.471   7.265  0.8819  0.6223  0.0233
  489MOL0     C67394  10.986   8.483   7.241 -0.4191 -0.0997 -0.1132
  489MOL0     N67395  10.322   8.464   6.858 -0.1462 -0.3344  0.5462
  489MOL0     N67396  10.331   8.586   6.809  0.8429  0.8166 -0.1785
  489MOL0     C67397  10.635   9.707   7.254  0.1616  1.0117 -0.6094
  489MOL0     C67398  10.719   9.788   7.342 -0.7332 -0.5069 -0.0348
  489MOL0     C67399  11.125   9.909   7.558 -0.9270 -0.7940  0.6390
  489MOL0     C67400  11.048   9.989   7.645  0.1605  0.0869 -0.1509
  489MOL0     C67401  11.108  10.068   7.751 -0.2888 -0.5165  0.4117
  489MOL0     C67402  11.251  10.060   7.774  0.6034  0.8487  1.0243
  489MOL0     O67403  11.322  10.137   7.862 -0.4450 -0.4120 -0.5880
  489MOL0     C67404  11.298  10.104   8.002  0.8416 -0.1177  0.2588
  489MOL0     C67405  11.278  10.237   8.081 -0.4151  0.9466 -0.0295
  489MOL0     C67406  11.385  10.339   8.061  0.5592 -0.2518  0.1584
  489MOL0     C67407  11.531  10.305   8.098  0.4004  0.1412  0.6345
  489MOL0     C67408  11.615  10.411   8.065  0.2121  0.1533  0.3640
  489MOL0     C67409  11.686  10.510   8.039  0.1402  0.2309 -1.3852
  489MOL0     C67410  11.321   9.975   7.692 -0.7378  0.3235  0.6674
  489MOL0     C67411  11.263   9.897   7.586 -0.7335  0.1852 -0.1144
  489MOL0     C67412  11.359   9.797   7.521 -0.0434  0.7823 -0.0091
  489MOL0     H67413  10.988   9.588   7.381  0.5981  0.0979 -1.1146
  489MOL0     H67414  10.861   9.449   7.213 -0.9153  0.0487  0.5499
  489MOL0     H67415  10.443   9.575   7.104  0.7810  2.6771  2.7506
  489MOL0     H67416  10.451   9.484   7.256  2.3637 -0.9632  1.1642
  489MOL0     H67417  10.441   9.373   6.973  0.9174 -0.2418 -0.5406
  489MOL0     H67418  10.485   9.275   7.108  0.7822 -2.0349 -6.5342
  489MOL0     H67419  10.263   9.308   7.201  0.9176  0.3579  1.0340
  489MOL0     H67420  10.242   9.449   7.106  0.6395 -0.2660  1.1430
  489MOL0     H67421  10.110   9.268   6.996  0.5056 -0.8825 -1.1267
  489MOL0     H67422  10.243   9.312   6.894  1.0420  0.2592  0.7593
  489MOL0     H67423  10.211   9.083   7.082  0.0982  0.7516 -0.0869
  489MOL0     H67424  10.362   9.105   7.008 -0.4331  0.7159  0.0286
  489MOL0     H67425  10.093   9.050   6.859 -0.2799 -2.0768  1.1460
  489MOL0     H67426  10.254   9.049   6.781  0.2508  3.8840 -0.2202
  489MOL0     H67427  10.143   8.824   6.834 -0.4297 -0.3246  0.0341
  489MOL0     H67428  10.147   8.862   7.008  1.3082 -0.1459  0.2209
  489MOL0     H67429  10.418   8.844   6.853 -0.3619  3.0635  0.1298
  489MOL0     H67430  10.391   8.838   7.029 -0.3688  0.0894  0.3043
  489MOL0     H67431  10.296   8.635   7.135  1.4285  1.2393 -0.5014
  489MOL0     H67432  10.233   8.266   7.027 -0.8930 -1.1342  2.0559
  489MOL0     H67433  10.273   8.369   7.177 -0.3858  2.0981 -0.1210
  489MOL0     H67434  10.440   8.211   7.191 -1.5987  2.7804  0.9611
  489MOL0     H67435  10.437   8.188   7.008  0.0402 -0.9085  0.2098
  489MOL0     H67436  10.559   8.410   7.003 -1.7454  0.0901  0.2260
  489MOL0     H67437  10.533   8.433   7.169 -2.2498 -0.9041  0.2321
  489MOL0     H67438  10.675   8.223   7.213 -2.4410  1.1173 -0.3522
  489MOL0     H67439  10.717   8.239   7.033 -2.0271 -0.3134 -0.0438
  489MOL0     H67440  10.920   8.157   7.140  0.2203  0.5725 -1.1991
  489MOL0     H67441  11.096   8.007   7.200  1.8861 -1.5179  0.7925
  489MOL0     H67442  11.237   8.070   7.260  0.0445  0.1312  0.7100
  489MOL0     H67443  11.205   8.094   7.084 -2.4340 -0.5032 -0.5911
  489MOL0     H67444  11.537   8.633   7.332 -1.4008 -2.2848 -3.5104
  489MOL0     H67445  11.770   8.639   7.346  0.5268 -0.4649 -0.2671
  489MOL0     H67446  11.971   8.598   7.339  0.3790 -1.6057 -0.9339
  489MOL0     H67447  12.011   8.622   7.507  1.5811 -0.2893  0.0754
  489MOL0     H67448  12.231   8.563   7.360 -0.5784  0.0948 -1.9038
  489MOL0     H67449  12.188   8.467   7.502 -0.2924  2.3196  0.4632
  489MOL0     H67450  12.105   8.298   7.360  0.7902  0.3693 -0.1766
  489MOL0     H67451  12.260   8.335   7.284 -0.0431  0.2113 -2.8317
  489MOL0     H67452  12.146   8.493   7.111 -1.6799  0.2119 -2.0052
  489MOL0     H67453  11.998   8.462   7.193  0.9963  0.7975  1.7565
  489MOL0     H67454  12.053   8.310   6.992 -2.3147  2.5992  0.3596
  489MOL0     H67455  12.166   8.227   7.090 -2.0276 -1.8944 -2.3187
  489MOL0     H67456  11.862   8.233   7.130  0.2453  2.6264  2.9349
  489MOL0     H67457  11.954   8.204   7.269 -1.8331 -0.1648  0.1804
  489MOL0     H67458  12.045   8.001   7.173  1.9608  1.8181  0.7570
  489MOL0     H67459  11.994   8.042   7.004  2.8107  0.0241  1.0495
  489MOL0     H67460  11.763   8.023   7.082 -0.6588  0.7991  2.0960
  489MOL0     H67461  11.820   8.011   7.251  2.3802  0.6447  0.3786
  489MOL0     H67462  11.791   8.240   7.490  0.4494 -0.2660 -1.4446
  489MOL0     H67463  11.527   8.222   7.439  1.2224 -0.9959  0.0425
  489MOL0     H67464  11.183   8.560   7.294  3.1628 -0.2535 -1.4450
  489MOL0     H67465  10.977   8.591   7.235  2.3813  0.1804 -0.6739
  489MOL0     H67466  10.548   9.747   7.204  0.5575 -0.0754 -2.2447
  489MOL0     H67467  10.683   9.883   7.380  0.4060 -0.6333  1.4762
  489MOL0     H67468  10.940   9.991   7.635  0.1935 -2.5666 -2.0736
  489MOL0     H67469  11.041  10.130   7.809 -2.2836 -2.2793  0.1177
  489MOL0     H67470  11.212  10.038   8.011 -0.4889  0.4618 -4.8606
  489MOL0     H67471  11.392  10.063   8.040  1.8623 -0.8071 -2.7246
  489MOL0     H67472  11.277  10.203   8.185  0.3260 -4.7208 -1.5105
  489MOL0     H67473  11.181  10.282   8.061 -1.0434 -1.3750 -2.7833
  489MOL0     H67474  11.387  10.366   7.955 -2.8048  1.6116  0.4328
  489MOL0     H67475  11.362  10.425   8.125 -0.4497 -1.7085  1.8475
  489MOL0     H67476  11.566  10.220   8.038  0.4117  1.6860 -1.7203
  489MOL0     H67477  11.550  10.280   8.203  4.5498 -0.1925 -0.0127
  489MOL0     H67478  11.751  10.593   8.020  3.2686 -0.9210  2.7981
  489MOL0     H67479  11.429   9.980   7.706 -0.5038  1.8628 -1.2978
  489MOL0     H67480  11.360   9.706   7.580 -2.7482  1.1080  0.6592
  489MOL0     H67481  11.328   9.778   7.418  2.2276 -1.7235 -0.3491
  489MOL0     H67482  11.456   9.846   7.504 -0.2210  0.9614 -0.5370
  490MOL0     O67483   2.242   5.895  10.717  0.4989  0.1537 -0.2349
  490MOL0     C67484   2.317   5.913  10.812 -0.1368 -0.2229  0.7143
  490MOL0     O67485   2.343   5.832  10.912 -0.4542  0.1731  0.0626
  490MOL0     C67486   2.310   5.704  10.890  0.6028 -0.9296  0.3796
  490MOL0     C67487   2.176   5.662  10.901  0.6507 -0.2364 -1.2461
  490MOL0     C67488   2.137   5.527  10.877 -0.2160  0.0345  0.0069
  490MOL0     C67489   2.237   5.432  10.846 -0.2338  0.3557 -0.5376
  490MOL0     O67490   2.200   5.303  10.841 -0.1274  0.2371  0.5352
  490MOL0     C67491   2.173   5.258  10.703 -0.0202 -0.0579  0.2029
  490MOL0     C67492   2.301   5.183  10.649  0.2996 -0.5545 -0.7230
  490MOL0     C67493   2.365   5.068  10.729 -0.2309 -1.0751  0.1792
  490MOL0     C67494   2.281   4.946  10.748 -0.8719  0.5635  1.0597
  490MOL0     C67495   2.367   4.822  10.768 -0.7599 -0.3032 -0.2969
  490MOL0     C67496   2.282   4.704  10.772  0.6127 -0.2885 -0.4042
  490MOL0     C67497   2.179   4.708  10.890  0.0550 -0.1503 -0.2809
  490MOL0     C67498   2.112   4.568  10.906 -0.8089 -0.8126  1.0232
  490MOL0     N67499   2.013   4.586  11.003 -0.4151  0.6483 -0.8282
  490MOL0     C67500   2.030   4.611  11.133 -0.3036 -0.0506 -0.7849
  490MOL0     C67501   1.911   4.643  11.178  0.5112  1.0649  0.1677
  490MOL0     C67502   1.874   4.687  11.316  0.7047 -0.6775 -0.0367
  490MOL0     C67503   1.795   4.576  11.383 -0.5583 -0.0564 -0.5213
  490MOL0     C67504   1.746   4.614  11.528  0.2166 -0.2132  0.4337
  490MOL0     C67505   1.649   4.501  11.575  0.5271  0.8896  0.4151
  490MOL0     O67506   1.566   4.543  11.676  0.2620  0.2469 -0.5544
  490MOL0     C67507   1.615   4.603  11.792  0.2172 -0.6602  0.5295
  490MOL0     C67508   1.720   4.546  11.866  0.0186  0.4485 -0.0580
  490MOL0     C67509   1.741   4.576  12.001 -0.7416 -0.5300  0.2488
  490MOL0     C67510   1.858   4.501  12.065 -0.0873  0.6745  0.5152
  490MOL0     C67511   1.670   4.679  12.067 -0.6833  0.3651  0.1288
  490MOL0     C67512   1.678   4.709  12.212 -0.3127  0.7765 -0.5726
  490MOL0     O67513   1.589   4.807  12.248  0.3335  0.6552  0.3111
  490MOL0     C67514   1.609   4.869  12.367  0.2977  0.0636  0.1390
  490MOL0     C67515   1.735   4.911  12.415  0.8140  0.0540  0.3737
  490MOL0     C67516   1.746   4.954  12.550 -0.3699 -0.5895  0.8612
  490MOL0     C67517   1.626   4.997  12.617 -0.3637  0.4357 -0.3028
  490MOL0     O67518   1.630   5.073  12.741  0.0039 -0.5259 -0.2267
  490MOL0     C67519   1.751   5.142  12.776 -0.7517 -0.7476 -0.3931
  490MOL0     C67520   1.746   5.183  12.930  0.3882 -0.6910 -0.4668
  490MOL0     C67521   1.668   5.317  12.943  0.0526  0.8347 -0.3267
  490MOL0     C67522   1.714   5.443  12.864 -0.0874 -0.0681 -0.5577
  490MOL0     C67523   1.630   5.569  12.882  0.6980 -0.7342  0.0296
  490MOL0     C67524   1.484   5.553  12.841 -0.1807 -0.8464 -0.1676
  490MOL0     C67525   1.386   5.664  12.862 -0.5622 -0.0898  0.3069
  490MOL0     C67526   1.271   5.648  12.763  1.5058  0.7904  0.0734
  490MOL0    Cl67527   1.181   5.505  12.805 -0.2819  0.2398 -0.6912
  490MOL0     C67528   1.500   4.970  12.564 -0.5447 -0.3001  0.1248
  490MOL0     C67529   1.492   4.905  12.442  0.0011 -0.1530  0.2940
  490MOL0     O67530   1.773   4.665  12.276 -0.0228  0.2671  0.1709
  490MOL0     C67531   1.579   4.751  11.989 -0.9152 -0.1375 -0.7410
  490MOL0     C67532   1.544   4.709  11.853 -0.1739  0.3911  0.3924
  490MOL0     N67533   1.815   4.629  11.080  0.7668  0.2947 -1.0389
  490MOL0     N67534   1.883   4.602  10.975 -0.4042 -0.4141 -0.0151
  490MOL0     C67535   2.377   5.473  10.848 -0.1034  0.3556  0.0685
  490MOL0     C67536   2.414   5.609  10.872  1.0826 -0.6817 -0.6270
  490MOL0     C67537   2.375   6.046  10.831 -0.4492  0.4422  0.0918
  490MOL0     C67538   2.510   6.055  10.869 -0.7386  1.3293  0.5994
  490MOL0     C67539   2.576   6.180  10.890  0.3539  0.4519 -0.2242
  490MOL0     C67540   2.500   6.297  10.857 -0.2061 -0.6468  0.0629
  490MOL0     O67541   2.571   6.414  10.867  0.0447  0.3659 -0.1989
  490MOL0     C67542   2.555   6.531  10.786 -0.0636 -1.2879  0.0907
  490MOL0     C67543   2.657   6.629  10.800  0.6028 -0.2142  1.0292
  490MOL0     C67544   2.668   6.694  10.942 -0.5837 -0.1909 -0.2483
  490MOL0     C67545   2.794   6.790  10.952 -0.4348 -0.8182  0.7909
  490MOL0     C67546   2.924   6.713  10.922  0.3696 -0.1701 -0.0294
  490MOL0     C67547   3.013   6.640  10.906  0.2793  0.6079  0.7273
  490MOL0     C67548   2.366   6.287  10.821  0.4085  0.6448 -1.9657
  490MOL0     C67549   2.295   6.164  10.818  0.5228  0.4147  1.0688
  490MOL0     C67550   2.151   6.179  10.789 -0.5710  1.2418  0.8829
  490MOL0     H67551   2.109   5.744  10.925  2.7921  0.8953  1.4739
  490MOL0     H67552   2.033   5.495  10.873  0.0722 -0.8078 -1.1852
  490MOL0     H67553   2.146   5.342  10.638  2.2745  0.4717 -0.1636
  490MOL0     H67554   2.094   5.183  10.701  1.3568 -1.5934  0.8930
  490MOL0     H67555   2.271   5.149  10.549  1.6738 -0.1144 -1.3200
  490MOL0     H67556   2.379   5.258  10.632  1.1015 -0.8334  1.4252
  490MOL0     H67557   2.461   5.043  10.684  0.0249 -3.6832  1.9828
  490MOL0     H67558   2.389   5.116  10.825  3.0375  1.6827 -1.7684
  490MOL0     H67559   2.204   4.959  10.825 -1.8330  1.9602 -0.0792
  490MOL0     H67560   2.221   4.936  10.657 -1.4683 -1.5144  1.6264
  490MOL0     H67561   2.421   4.825  10.864 -0.5909  0.8095 -0.4085
  490MOL0     H67562   2.434   4.811  10.682  0.0849  0.4669  0.2415
  490MOL0     H67563   2.236   4.708  10.673  0.1274  0.7487 -0.1469
  490MOL0     H67564   2.348   4.617  10.781  0.4153 -0.2787  1.3952
  490MOL0     H67565   2.097   4.772  10.857  0.3503  0.8569  0.8748
  490MOL0     H67566   2.221   4.752  10.981 -3.4016  2.1791  0.3596
  490MOL0     H67567   2.079   4.529  10.810 -1.3686  1.1100  0.3831
  490MOL0     H67568   2.199   4.513  10.943 -0.9872 -0.2536  2.3531
  490MOL0     H67569   2.127   4.628  11.181 -0.5384 -1.5464  0.2754
  490MOL0     H67570   1.821   4.783  11.316 -0.2432 -1.1220  2.5618
  490MOL0     H67571   1.965   4.696  11.376 -0.4611 -1.5368  1.9431
  490MOL0     H67572   1.701   4.562  11.328 -0.0623 -1.0277 -1.1418
  490MOL0     H67573   1.864   4.492  11.379 -0.4896  0.0259 -1.4713
  490MOL0     H67574   1.830   4.625  11.595 -1.4157 -0.3031  2.5991
  490MOL0     H67575   1.685   4.704  11.537 -0.9734 -0.9740  0.3788
  490MOL0     H67576   1.588   4.464  11.492 -0.3136  0.2961  1.2683
  490MOL0     H67577   1.710   4.415  11.607 -0.8185  0.1564  1.1199
  490MOL0     H67578   1.780   4.462  11.835 -0.8406 -0.3547  0.3821
  490MOL0     H67579   1.943   4.564  12.094  0.6201  0.0561 -0.1741
  490MOL0     H67580   1.912   4.428  12.004 -0.7686  2.6395 -2.6807
  490MOL0     H67581   1.835   4.446  12.156  3.1055 -1.1340  0.3886
  490MOL0     H67582   1.826   4.906  12.356  1.0681  1.4712  0.6215
  490MOL0     H67583   1.845   4.983  12.584 -0.9888 -1.5183  3.7543
  490MOL0     H67584   1.840   5.079  12.766 -1.1645 -1.7335  1.5622
  490MOL0     H67585   1.768   5.234  12.719  0.9677 -0.0973  1.1005
  490MOL0     H67586   1.684   5.107  12.979 -2.0552  0.4650 -1.5950
  490MOL0     H67587   1.840   5.200  12.983 -0.2598 -1.3503  0.9405
  490MOL0     H67588   1.684   5.347  13.047 -0.1143  1.3562 -0.4435
  490MOL0     H67589   1.561   5.294  12.934 -0.4730  0.9746  3.6206
  490MOL0     H67590   1.728   5.428  12.756  1.0663  1.1338 -0.5911
  490MOL0     H67591   1.814   5.470  12.897 -0.9958  3.7860 -0.4934
  490MOL0     H67592   1.624   5.588  12.990  0.5816  0.7646 -0.2178
  490MOL0     H67593   1.680   5.653  12.832 -0.7466  0.4832  0.5590
  490MOL0     H67594   1.447   5.466  12.895  1.1966 -0.9709  0.6043
  490MOL0     H67595   1.495   5.538  12.733  1.4990  1.4470 -0.3920
  490MOL0     H67596   1.437   5.753  12.826 -1.5625  0.1508 -0.5726
  490MOL0     H67597   1.356   5.667  12.967 -2.2596 -0.4299 -0.1364
  490MOL0     H67598   1.299   5.646  12.657 -3.4666 -2.7486 -1.5365
  490MOL0     H67599   1.203   5.732  12.780  1.9895  1.4890 -1.2865
  490MOL0     H67600   1.414   4.993  12.626  0.8663  1.2440  1.6073
  490MOL0     H67601   1.397   4.872  12.400  0.1291  0.6046 -0.6412
  490MOL0     H67602   1.531   4.833  12.042  2.9021 -0.4946  4.0459
  490MOL0     H67603   1.464   4.759  11.799 -0.6214  0.0845  0.7603
  490MOL0     H67604   2.452   5.402  10.815  0.0611  1.4545 -2.1465
  490MOL0     H67605   2.513   5.651  10.866 -0.1967  2.5659 -0.9478
  490MOL0     H67606   2.564   5.962  10.883 -3.3812 -0.0107  2.9480
  490MOL0     H67607   2.681   6.184  10.916 -0.3291 -0.3406  3.0829
  490MOL0     H67608   2.547   6.515  10.679 -0.8711  2.7147 -0.6125
  490MOL0     H67609   2.456   6.573  10.805  0.4385  1.6500 -2.9390
  490MOL0     H67610   2.647   6.698  10.716 -1.0175 -3.7316 -1.9604
  490MOL0     H67611   2.743   6.569  10.768 -3.1170 -5.0622 -1.2826
  490MOL0     H67612   2.581   6.757  10.964  0.2004 -0.2091  3.6012
  490MOL0     H67613   2.667   6.618  11.020 -3.1285  0.0509  0.0310
  490MOL0     H67614   2.805   6.839  11.050 -2.2894 -2.4128  1.8584
  490MOL0     H67615   2.798   6.862  10.870 -0.3356  0.7306  2.1199
  490MOL0     H67616   3.086   6.562  10.906 -0.7757 -0.4293 -0.5700
  490MOL0     H67617   2.312   6.379  10.800  0.9601  1.2068 -0.9976
  490MOL0     H67618   2.146   6.193  10.681  0.5569 -2.9720  0.1099
  490MOL0     H67619   2.098   6.086  10.810  0.3148  0.6754  0.6840
  490MOL0     H67620   2.101   6.258  10.845 -1.3236  2.6155 -1.5839
  491MOL0     O67621   9.745  11.278   5.414  0.7209  0.1432 -0.0566
  491MOL0     C67622   9.626  11.290   5.406 -0.6243 -0.0993  0.2121
  491MOL0     O67623   9.534  11.197   5.413 -0.2220  0.5574 -0.4447
  491MOL0     C67624   9.558  11.081   5.486  0.0334 -0.1311 -0.2889
  491MOL0     C67625   9.550  11.072   5.621 -0.4276  0.6971 -0.2357
  491MOL0     C67626   9.585  10.949   5.686 -0.3531 -0.9557 -0.5542
  491MOL0     C67627   9.605  10.837   5.609 -0.1757 -0.2055 -0.0936
  491MOL0     O67628   9.656  10.718   5.654 -0.6452  0.5298 -0.2578
  491MOL0     C67629   9.710  10.702   5.784  0.1852  0.4781 -0.6264
  491MOL0     C67630   9.827  10.614   5.756 -0.6053  0.5431 -0.0757
  491MOL0     C67631   9.803  10.482   5.677  0.5370  0.2932 -0.0353
  491MOL0     C67632   9.765  10.352   5.753  0.6411  0.6270  0.4157
  491MOL0     C67633   9.614  10.346   5.782  0.0337  0.5113 -0.8809
  491MOL0     C67634   9.551  10.213   5.768 -0.1507 -0.4168  1.2780
  491MOL0     C67635   9.403  10.216   5.818  0.7761  0.8369 -0.9430
  491MOL0     C67636   9.354  10.079   5.782 -0.0206  0.6077  0.1683
  491MOL0     N67637   9.219  10.039   5.824 -0.4671 -0.4033 -0.1535
  491MOL0     C67638   9.101  10.104   5.804 -0.1050  0.3792 -0.1357
  491MOL0     C67639   9.001  10.030   5.856  0.6419 -0.1379 -0.0431
  491MOL0     C67640   8.848  10.026   5.847  0.3580  0.8959  0.9900
  491MOL0     C67641   8.789  10.055   5.705  0.0400 -0.0310  0.5627
  491MOL0     C67642   8.642  10.071   5.705 -0.5431  0.2348 -0.0501
  491MOL0     C67643   8.597  10.103   5.564 -0.1683 -0.8222  0.6873
  491MOL0     O67644   8.642  10.242   5.543 -0.6643  0.0803 -0.0677
  491MOL0     C67645   8.601  10.308   5.429 -0.1849  0.1381 -0.3677
  491MOL0     C67646   8.563  10.252   5.316 -0.0448 -0.9542  0.6763
  491MOL0     C67647   8.533  10.332   5.197  0.8111 -0.6782  0.4503
  491MOL0     C67648   8.493  10.250   5.074 -0.3774 -0.0034  0.0167
  491MOL0     C67649   8.529  10.473   5.198 -1.4648  0.2461 -0.0427
  491MOL0     C67650   8.488  10.561   5.085  0.4865  0.1864 -0.1069
  491MOL0     O67651   8.423  10.498   4.982  0.1246 -0.3322 -0.4099
  491MOL0     C67652   8.442  10.561   4.860  0.4167 -0.4307  0.3978
  491MOL0     C67653   8.547  10.520   4.779 -0.5356 -0.6630 -0.2208
  491MOL0     C67654   8.572  10.593   4.659 -0.3929  0.0765 -0.5019
  491MOL0     C67655   8.472  10.684   4.616 -1.1262  1.1301  0.6072
  491MOL0     O67656   8.487  10.774   4.506  0.7728  0.5612  0.4504
  491MOL0     C67657   8.605  10.758   4.428 -0.3680  0.6770  0.2673
  491MOL0     C67658   8.609  10.842   4.307  1.0333 -0.2900  0.7259
  491MOL0     C67659   8.645  10.991   4.318  0.7712 -0.9536 -0.1920
  491MOL0     C67660   8.797  11.007   4.324 -0.8626  0.5681  0.1634
  491MOL0     C67661   8.880  11.006   4.184 -0.5603 -0.8305  0.1420
  491MOL0     C67662   8.846  11.112   4.095  0.2734  0.0773 -0.0210
  491MOL0     C67663   8.925  11.093   3.964 -0.1315  0.2467 -0.0179
  491MOL0     C67664   8.886  11.202   3.854 -0.3733  0.0224 -0.1522
  491MOL0    Cl67665   8.950  11.161   3.698 -0.2269 -0.3399 -0.7850
  491MOL0     C67666   8.367  10.717   4.700 -0.4996 -0.4014  0.3812
  491MOL0     C67667   8.345  10.660   4.824 -0.2088 -0.2521  0.0740
  491MOL0     O67668   8.515  10.678   5.083 -0.7763 -0.8228  0.0871
  491MOL0     C67669   8.582  10.530   5.316 -0.1019 -0.1199  1.0957
  491MOL0     C67670   8.616  10.450   5.424  1.1591  0.4457 -0.3500
  491MOL0     N67671   9.070   9.935   5.938  0.1071 -0.1151  0.4427
  491MOL0     N67672   9.189   9.938   5.903  0.4993  0.5236  0.1322
  491MOL0     C67673   9.593  10.848   5.472  0.4923  0.2844  0.4748
  491MOL0     C67674   9.568  10.968   5.411  0.5610 -0.3542  0.0170
  491MOL0     C67675   9.595  11.424   5.366  0.2063  0.3892  0.6388
  491MOL0     C67676   9.545  11.459   5.238  0.2291  0.6382 -0.2850
  491MOL0     C67677   9.497  11.589   5.209 -0.4715 -0.2276  0.3072
  491MOL0     C67678   9.503  11.692   5.300  0.6716  0.3041  0.0585
  491MOL0     O67679   9.442  11.815   5.273 -0.2681 -0.1855  0.7799
  491MOL0     C67680   9.406  11.864   5.141 -0.3484 -0.3190 -0.0608
  491MOL0     C67681   9.524  11.867   5.043  0.4221 -0.3418  0.3267
  491MOL0     C67682   9.472  11.923   4.910  0.1256  0.2604  1.6108
  491MOL0     C67683   9.584  11.980   4.825 -0.5170  0.3616  0.5452
  491MOL0     C67684   9.657  11.888   4.748 -0.0715  0.3485 -0.0704
  491MOL0     C67685   9.703  11.810   4.660  0.9539  0.1243  0.4119
  491MOL0     C67686   9.551  11.662   5.435  0.4522 -0.5337  0.0161
  491MOL0     C67687   9.597  11.532   5.466 -0.2144  0.6251  0.0119
  491MOL0     C67688   9.642  11.518   5.612 -1.1337 -0.8073  0.1767
  491MOL0     H67689   9.536  11.156   5.688  0.2464 -0.3103  1.2191
  491MOL0     H67690   9.597  10.935   5.793 -0.4266 -1.8580 -0.6526
  491MOL0     H67691   9.644  10.642   5.847 -0.5540  3.4800  1.7135
  491MOL0     H67692   9.739  10.797   5.831  0.2476 -0.0944  0.5221
  491MOL0     H67693   9.898  10.677   5.700 -1.8787  1.2872 -0.9013
  491MOL0     H67694   9.870  10.591   5.854  1.3547  3.2420 -0.1772
  491MOL0     H67695   9.725  10.499   5.602 -1.2431  0.3070  1.7445
  491MOL0     H67696   9.895  10.461   5.622  1.4269 -0.2435  1.6145
  491MOL0     H67697   9.792  10.261   5.698 -2.5518 -0.9073  1.0993
  491MOL0     H67698   9.817  10.355   5.849  0.1867  0.0535  0.6894
  491MOL0     H67699   9.559  10.425   5.731  0.7142  2.2093  0.8597
  491MOL0     H67700   9.604  10.366   5.889  2.8998 -1.9183 -0.0202
  491MOL0     H67701   9.553  10.179   5.664 -2.8453  2.3870  0.1227
  491MOL0     H67702   9.614  10.137   5.814 -0.4234  0.8911  4.0237
  491MOL0     H67703   9.349  10.293   5.762 -1.4818  1.1666  1.4649
  491MOL0     H67704   9.398  10.234   5.926  2.3153  3.9868 -1.3102
  491MOL0     H67705   9.351  10.070   5.673  0.9757 -0.3826  0.2043
  491MOL0     H67706   9.433  10.007   5.802  0.5308  1.0609 -0.3696
  491MOL0     H67707   9.088  10.199   5.753  0.8567  0.9403  0.6208
  491MOL0     H67708   8.807  10.098   5.918 -2.1069  2.4683 -1.8202
  491MOL0     H67709   8.814   9.927   5.880 -2.2637  1.8224  1.3038
  491MOL0     H67710   8.834  10.147   5.666  0.1414  0.4952  1.8732
  491MOL0     H67711   8.813   9.974   5.635 -2.2661 -1.1537  0.9758
  491MOL0     H67712   8.594   9.978   5.737 -0.8489  0.4269  0.0507
  491MOL0     H67713   8.618  10.152   5.775 -0.5480  0.1795  0.0124
  491MOL0     H67714   8.654  10.043   5.492 -0.2876  1.2356 -1.2488
  491MOL0     H67715   8.490  10.086   5.552 -0.2393  0.3849 -0.7388
  491MOL0     H67716   8.540  10.146   5.309 -0.0881 -0.9226  0.3199
  491MOL0     H67717   8.387  10.273   5.060 -0.1040  1.8810  0.6389
  491MOL0     H67718   8.508  10.143   5.091  1.2059  0.0500 -0.8545
  491MOL0     H67719   8.558  10.275   4.989  1.6206 -0.0202  1.4654
  491MOL0     H67720   8.624  10.451   4.811 -0.7981 -1.3749 -1.0750
  491MOL0     H67721   8.666  10.571   4.610  0.7849 -2.4546  2.5950
  491MOL0     H67722   8.699  10.780   4.480 -0.1171 -1.4150  0.7924
  491MOL0     H67723   8.625  10.656   4.395  1.5418  1.2787 -0.6188
  491MOL0     H67724   8.682  10.792   4.243  2.7405  2.2080  0.5993
  491MOL0     H67725   8.504  10.835   4.278  0.2021 -2.3067  3.8104
  491MOL0     H67726   8.596  11.013   4.413 -2.3833 -1.1771 -1.6275
  491MOL0     H67727   8.603  11.052   4.237 -2.4372  2.5033  3.6732
  491MOL0     H67728   8.842  10.934   4.392  1.2230  1.1598 -0.5055
  491MOL0     H67729   8.824  11.098   4.377  3.0748 -1.7280  2.6113
  491MOL0     H67730   8.987  10.998   4.203 -0.9340 -2.4554  1.7860
  491MOL0     H67731   8.844  10.917   4.132 -0.2431  0.4913 -2.5163
  491MOL0     H67732   8.893  11.204   4.132  2.6370 -0.8893 -0.4760
  491MOL0     H67733   8.738  11.122   4.079 -0.1074 -1.9819  1.0475
  491MOL0     H67734   8.910  10.989   3.933  3.4385 -0.6323  0.6697
  491MOL0     H67735   9.034  11.101   3.979 -0.0214  2.5408 -1.5866
  491MOL0     H67736   8.935  11.295   3.884 -1.6755  0.5765  0.3455
  491MOL0     H67737   8.778  11.221   3.851 -0.7204 -1.8519 -0.7901
  491MOL0     H67738   8.309  10.800   4.661 -1.1281 -1.8094 -1.8334
  491MOL0     H67739   8.268  10.685   4.895 -1.9841 -1.5905 -1.2770
  491MOL0     H67740   8.594  10.638   5.314  3.2050 -0.3779 -0.4343
  491MOL0     H67741   8.665  10.507   5.502 -3.2448  0.8959  2.4132
  491MOL0     H67742   9.608  10.760   5.410 -0.0753  1.1618 -0.9492
  491MOL0     H67743   9.547  10.976   5.305  1.3619  0.8003 -0.0738
  491MOL0     H67744   9.532  11.378   5.166  0.8299 -2.1538  2.5024
  491MOL0     H67745   9.446  11.599   5.113 -2.2244 -6.0108  0.2847
  491MOL0     H67746   9.323  11.807   5.098 -0.4142  0.9594 -1.7094
  491MOL0     H67747   9.381  11.969   5.158  3.2421  0.4677  1.3683
  491MOL0     H67748   9.575  11.772   5.020 -0.4828 -0.2692 -2.3521
  491MOL0     H67749   9.598  11.938   5.080 -1.5008  1.3070  1.1676
  491MOL0     H67750   9.417  11.845   4.857  1.8404 -0.2541  0.5173
  491MOL0     H67751   9.399  12.003   4.926 -0.1515  0.5223 -0.6863
  491MOL0     H67752   9.651  12.048   4.879  0.0783 -0.0373  0.3201
  491MOL0     H67753   9.539  12.054   4.758 -2.3642  1.8684  3.2652
  491MOL0     H67754   9.748  11.752   4.582 -0.7914  1.6316 -1.8551
  491MOL0     H67755   9.543  11.743   5.507  0.4621  3.6025 -4.1625
  491MOL0     H67756   9.593  11.581   5.686 -1.3788 -1.3878  0.5171
  491MOL0     H67757   9.619  11.415   5.643 -1.5486 -0.6486  0.4002
  491MOL0     H67758   9.750  11.530   5.628 -1.1289 -0.8624  0.1915
  492MOL0     O67759   4.986  11.470  10.713  0.4168 -0.1559 -0.4114
  492MOL0     C67760   4.955  11.349  10.709 -0.6315  0.4402 -0.2106
  492MOL0     O67761   4.831  11.289  10.714 -0.1739 -0.0235  0.6203
  492MOL0     C67762   4.715  11.359  10.721 -0.7004 -0.3266 -0.2555
  492MOL0     C67763   4.610  11.295  10.791  0.8309  0.5447  0.1084
  492MOL0     C67764   4.486  11.352  10.811  0.5242  0.3397  0.6301
  492MOL0     C67765   4.472  11.489  10.794  0.8671  0.5296 -0.3932
  492MOL0     O67766   4.371  11.565  10.841  0.5413  0.5757 -0.4517
  492MOL0     C67767   4.233  11.510  10.842 -0.1302 -0.3194 -0.2093
  492MOL0     C67768   4.184  11.481  10.692 -0.1068 -0.1663  0.7000
  492MOL0     C67769   4.053  11.403  10.671 -0.2833  0.4563  0.6049
  492MOL0     C67770   4.075  11.315  10.544  0.2249 -0.9137  0.7552
  492MOL0     C67771   3.965  11.223  10.502  0.0056  0.2344 -0.4772
  492MOL0     C67772   3.856  11.299  10.435  0.2231 -0.0637  0.3370
  492MOL0     C67773   3.742  11.213  10.391 -0.0284  1.2640  0.8820
  492MOL0     C67774   3.653  11.150  10.491  0.2596  0.2802  0.7887
  492MOL0     N67775   3.573  11.256  10.545 -0.5716 -0.1609  1.0169
  492MOL0     C67776   3.595  11.321  10.661 -0.7658  0.1528 -0.0794
  492MOL0     C67777   3.490  11.399  10.680  0.4147  0.7086 -0.2412
  492MOL0     C67778   3.492  11.524  10.763  0.6884 -0.1985  0.5996
  492MOL0     C67779   3.622  11.599  10.739 -0.0697 -0.0406 -0.8961
  492MOL0     C67780   3.640  11.636  10.590 -0.1804  0.5209  0.2093
  492MOL0     C67781   3.774  11.700  10.550  0.5447  0.1019  0.3141
  492MOL0     O67782   3.762  11.802  10.455  0.0920  0.2718  0.0899
  492MOL0     C67783   3.872  11.866  10.410 -0.3765 -0.6041 -0.0949
  492MOL0     C67784   4.004  11.845  10.448  0.4543 -0.2104 -0.1311
  492MOL0     C67785   4.110  11.917  10.374  0.1194  0.6847 -0.0913
  492MOL0     C67786   4.243  11.881  10.430 -0.8398 -0.6526 -0.1049
  492MOL0     C67787   4.084  12.019  10.281 -0.1443 -1.1142 -0.2104
  492MOL0     C67788   4.194  12.094  10.209 -0.1359 -0.1895  0.6572
  492MOL0     O67789   4.150  12.200  10.145  0.0791 -0.6961 -0.4827
  492MOL0     C67790   4.252  12.286  10.095  0.4173 -0.0209  1.2182
  492MOL0     C67791   4.260  12.409  10.163 -0.6780  0.6014 -0.4312
  492MOL0     C67792   4.351  12.509  10.117 -1.0018 -0.4272 -0.4591
  492MOL0     C67793   4.444  12.482  10.008 -0.2244  0.5258  0.6397
  492MOL0     O67794   4.533  12.567   9.935  0.0623  0.0474 -0.6916
  492MOL0     C67795   4.517  12.705   9.951  1.7861 -0.0345 -0.5051
  492MOL0     C67796   4.628  12.771   9.863 -0.3187 -0.7815  0.5750
  492MOL0     C67797   4.689  12.900   9.919 -0.4000 -0.1045  0.7268
  492MOL0     C67798   4.759  12.989   9.816 -1.0497  0.5539  0.6194
  492MOL0     C67799   4.648  13.064   9.738 -0.5008  0.5973 -0.4568
  492MOL0     C67800   4.718  13.154   9.635  0.7288 -0.4782  0.0004
  492MOL0     C67801   4.610  13.233   9.582  1.1183 -0.5866 -0.1901
  492MOL0     C67802   4.626  13.328   9.466  0.3490  0.2705 -0.1208
  492MOL0    Cl67803   4.765  13.423   9.502 -0.1220  0.3462 -0.5662
  492MOL0     C67804   4.434  12.354   9.951  0.5685 -0.3871  0.0517
  492MOL0     C67805   4.343  12.255   9.998  0.0510 -0.7698  0.8870
  492MOL0     O67806   4.311  12.061  10.216  0.2281  0.0422 -0.2805
  492MOL0     C67807   3.944  12.041  10.257 -0.0592 -0.6403  0.1718
  492MOL0     C67808   3.840  11.972  10.319  0.2333  0.3305  0.2432
  492MOL0     N67809   3.398  11.377  10.574  0.0853 -0.0178  0.6116
  492MOL0     N67810   3.450  11.288  10.484 -0.2307 -0.0875 -1.1003
  492MOL0     C67811   4.576  11.563  10.728  0.2255  0.9151 -0.3110
  492MOL0     C67812   4.691  11.489  10.682 -0.3359  0.4273 -0.2535
  492MOL0     C67813   5.063  11.242  10.689  0.0457 -0.1421 -0.6948
  492MOL0     C67814   5.045  11.116  10.764 -0.4572 -0.1862  0.4679
  492MOL0     C67815   5.142  11.013  10.745 -0.8376 -0.1401  0.3355
  492MOL0     C67816   5.242  11.036  10.657 -0.0069 -0.5577 -0.2112
  492MOL0     O67817   5.325  10.933  10.625 -0.1518 -0.0928  0.3863
  492MOL0     C67818   5.303  10.887  10.487 -0.3942  0.3376 -0.3862
  492MOL0     C67819   5.388  10.760  10.468  0.0709  0.4824  0.3216
  492MOL0     C67820   5.310  10.633  10.512 -0.1439  0.0085  0.3212
  492MOL0     C67821   5.296  10.622  10.664 -0.4394  0.2859 -0.2297
  492MOL0     C67822   5.241  10.487  10.683  0.1656  0.2502 -0.3948
  492MOL0     C67823   5.224  10.373  10.707 -1.1349  0.4336 -0.7929
  492MOL0     C67824   5.263  11.160  10.601  0.3024 -0.9625  0.5826
  492MOL0     C67825   5.173  11.266  10.603 -0.7586  0.9792  0.2821
  492MOL0     C67826   5.216  11.386  10.517  0.1315  1.0890 -0.3350
  492MOL0     H67827   4.621  11.191  10.819 -0.9599 -0.2339 -1.7803
  492MOL0     H67828   4.412  11.298  10.869 -0.6923  1.0955 -0.1680
  492MOL0     H67829   4.160  11.571  10.896 -1.1163 -1.2950 -0.3977
  492MOL0     H67830   4.231  11.414  10.894 -2.4476 -0.8942 -1.2261
  492MOL0     H67831   4.167  11.579  10.648 -0.8624 -0.2865  0.7170
  492MOL0     H67832   4.264  11.436  10.633 -0.8764  0.8070 -1.1619
  492MOL0     H67833   4.026  11.337  10.753 -3.0484  1.0502  0.2730
  492MOL0     H67834   3.971  11.475  10.660 -0.9244 -0.4579 -0.9365
  492MOL0     H67835   4.104  11.381  10.462 -2.2754 -0.3624  0.2521
  492MOL0     H67836   4.158  11.247  10.568  0.5722 -0.4809  0.7982
  492MOL0     H67837   3.922  11.173  10.590 -0.3504 -0.2561 -0.9244
  492MOL0     H67838   4.018  11.152  10.439  0.3558 -0.6076  0.7279
  492MOL0     H67839   3.816  11.382  10.494  3.6657  1.0783  1.2902
  492MOL0     H67840   3.897  11.347  10.346 -0.4140  0.2965  0.2266
  492MOL0     H67841   3.798  11.135  10.339 -0.8607  0.6293  0.9300
  492MOL0     H67842   3.684  11.273  10.320  0.2413  2.0692  1.3215
  492MOL0     H67843   3.591  11.074  10.442 -0.3414  1.5348 -0.4584
  492MOL0     H67844   3.709  11.102  10.572 -2.2518  1.9695  3.7562
  492MOL0     H67845   3.687  11.338  10.715 -0.1273  0.1056 -1.1061
  492MOL0     H67846   3.476  11.502  10.869  1.8364  1.7506  1.2260
  492MOL0     H67847   3.409  11.585  10.726  1.4846  0.3888 -0.2666
  492MOL0     H67848   3.614  11.686  10.806 -1.3068 -1.3820  0.7864
  492MOL0     H67849   3.707  11.538  10.770  0.6330  2.6412  3.4396
  492MOL0     H67850   3.634  11.548  10.526  2.7878  0.5275 -0.2153
  492MOL0     H67851   3.559  11.707  10.570 -0.7257  0.3377  1.6201
  492MOL0     H67852   3.831  11.746  10.631 -0.9381  2.5242  0.0960
  492MOL0     H67853   3.834  11.621  10.506 -1.0216 -0.7678 -0.3634
  492MOL0     H67854   4.034  11.769  10.518  2.2192  1.2379  0.7523
  492MOL0     H67855   4.249  11.791  10.491  0.2367 -0.3155  0.3193
  492MOL0     H67856   4.285  11.964  10.487  0.7360 -1.9422  0.6847
  492MOL0     H67857   4.316  11.862  10.351 -0.5587  0.0723 -0.0278
  492MOL0     H67858   4.197  12.434  10.247  0.3204 -1.9064  1.1630
  492MOL0     H67859   4.337  12.601  10.172 -4.3707 -0.5038 -0.9486
  492MOL0     H67860   4.418  12.733   9.914  2.1255 -1.2712 -2.4877
  492MOL0     H67861   4.530  12.728  10.058 -0.5684  0.9580 -0.3790
  492MOL0     H67862   4.718  12.710   9.853  1.1443  1.0018  2.2631
  492MOL0     H67863   4.588  12.790   9.763  0.3778  0.0333  0.4499
  492MOL0     H67864   4.750  12.859  10.000  0.3856 -1.1085 -0.3451
  492MOL0     H67865   4.608  12.960   9.962  1.3200  1.7610  1.5185
  492MOL0     H67866   4.816  12.929   9.744  1.7031  3.8011 -0.2001
  492MOL0     H67867   4.828  13.063   9.858  2.3996  0.5375 -4.0924
  492MOL0     H67868   4.598  12.982   9.684 -1.4318  1.1339 -0.4343
  492MOL0     H67869   4.581  13.117   9.806  1.7144  0.4964  1.9368
  492MOL0     H67870   4.772  13.101   9.556 -0.0903 -0.8904 -0.2883
  492MOL0     H67871   4.792  13.219   9.684 -1.7629  0.9147  2.1580
  492MOL0     H67872   4.557  13.283   9.664 -0.8738 -0.3961 -1.5304
  492MOL0     H67873   4.529  13.167   9.550 -0.3695  0.7550  0.6476
  492MOL0     H67874   4.544  13.399   9.472  2.4422  2.8859 -0.4749
  492MOL0     H67875   4.634  13.269   9.375 -0.4866  0.5569 -0.3853
  492MOL0     H67876   4.491  12.330   9.861 -0.1654  0.4927 -0.6667
  492MOL0     H67877   4.354  12.159   9.947  3.8713 -0.5776  1.0689
  492MOL0     H67878   3.917  12.117  10.185  2.4983  1.5810  1.3804
  492MOL0     H67879   3.739  11.993  10.286 -0.0140  0.2000  0.9134
  492MOL0     H67880   4.562  11.671  10.725  1.1687  1.0152 -2.5354
  492MOL0     H67881   4.769  11.537  10.623  0.5796  3.3399  2.9704
  492MOL0     H67882   4.966  11.089  10.834 -0.4084  1.8847  1.3962
  492MOL0     H67883   5.146  10.918  10.799  4.8842 -0.0214  0.7070
  492MOL0     H67884   5.201  10.863  10.456 -0.3211 -0.7172  0.1300
  492MOL0     H67885   5.334  10.965  10.417  0.7374  0.3854  0.1555
  492MOL0     H67886   5.485  10.771  10.517  0.2106  0.9986 -0.0601
  492MOL0     H67887   5.403  10.759  10.359 -2.3198 -0.3564 -0.0679
  492MOL0     H67888   5.206  10.624  10.479 -0.4263  0.1092  1.1658
  492MOL0     H67889   5.369  10.549  10.474 -1.1663 -0.3047 -0.6423
  492MOL0     H67890   5.224  10.689  10.711 -1.9372 -3.1453  2.8628
  492MOL0     H67891   5.391  10.632  10.717 -0.5802 -0.4844  0.1882
  492MOL0     H67892   5.201  10.273  10.736 -0.0067  0.8497  1.7723
  492MOL0     H67893   5.352  11.172  10.541 -1.1442 -1.0423 -1.6921
  492MOL0     H67894   5.148  11.470  10.535  0.1627  0.8831  0.7954
  492MOL0     H67895   5.320  11.417  10.529  0.5049  0.8140 -2.5004
  492MOL0     H67896   5.195  11.363  10.412 -1.7489 -0.8579  0.3740
  493MOL0     O67897   7.305   9.584   2.078 -0.0002 -0.1492  0.5938
  493MOL0     C67898   7.328   9.605   2.197 -0.5101 -0.4415 -0.4385
  493MOL0     O67899   7.235   9.638   2.292 -0.0219 -0.6758  0.4413
  493MOL0     C67900   7.109   9.679   2.266 -0.4838 -0.6611  0.5331
  493MOL0     C67901   7.068   9.737   2.141 -0.4555  1.0483  1.0330
  493MOL0     C67902   6.947   9.813   2.124 -0.0894  0.0516  0.9371
  493MOL0     C67903   6.849   9.812   2.229 -0.0207 -0.6299  0.2853
  493MOL0     O67904   6.725   9.884   2.205 -0.6049 -0.1320 -0.9216
  493MOL0     C67905   6.645   9.829   2.106  0.2906  0.5678  0.1817
  493MOL0     C67906   6.534   9.937   2.070  0.6587 -0.8440 -0.1231
  493MOL0     C67907   6.451   9.896   1.958 -0.1286  0.2867  0.2673
  493MOL0     C67908   6.339   9.998   1.907  0.2261  0.2883  0.1321
  493MOL0     C67909   6.272   9.966   1.770 -0.7178 -0.4660  0.9939
  493MOL0     C67910   6.168  10.080   1.729 -0.3586  0.3814  0.4483
  493MOL0     C67911   6.094  10.034   1.604  0.1981 -0.4110  0.0527
  493MOL0     C67912   5.949  10.068   1.614 -0.0108  0.1939  0.9108
  493MOL0     N67913   5.866   9.992   1.708  0.7393  0.1760  0.0334
  493MOL0     C67914   5.852   9.852   1.689 -0.6881  0.1981 -0.5550
  493MOL0     C67915   5.767   9.817   1.781  0.7633  0.6294 -1.5109
  493MOL0     C67916   5.729   9.674   1.815 -0.0103  0.8905  0.1453
  493MOL0     C67917   5.818   9.627   1.937  0.7740 -1.0968  0.1838
  493MOL0     C67918   5.879   9.483   1.918  0.5281 -0.0964  0.0968
  493MOL0     C67919   5.910   9.426   2.055  0.0020  0.1092 -0.1619
  493MOL0     O67920   5.961   9.294   2.037  0.1863 -0.2593  0.3254
  493MOL0     C67921   6.096   9.266   2.011  0.3629 -0.0687 -0.7421
  493MOL0     C67922   6.204   9.356   2.052  0.4757  0.7950  0.2553
  493MOL0     C67923   6.344   9.327   2.022  0.6604 -0.2246 -0.5182
  493MOL0     C67924   6.452   9.427   2.076 -0.0882 -0.3631 -0.1242
  493MOL0     C67925   6.379   9.209   1.945  0.5916 -0.3310  0.2205
  493MOL0     C67926   6.519   9.179   1.899 -0.6397  0.0519  0.4575
  493MOL0     O67927   6.545   9.049   1.876 -0.5127  0.6062  0.0211
  493MOL0     C67928   6.673   9.011   1.830 -0.6011  0.1575 -0.5451
  493MOL0     C67929   6.777   8.970   1.919  0.7569 -0.3557 -0.4625
  493MOL0     C67930   6.899   8.919   1.870  0.0098  0.2834 -0.1553
  493MOL0     C67931   6.916   8.894   1.732 -0.3151 -0.6225 -0.2264
  493MOL0     O67932   7.040   8.850   1.705 -0.6321  0.6202  0.0166
  493MOL0     C67933   7.045   8.769   1.586  0.2009  0.0126  0.2007
  493MOL0     C67934   7.090   8.633   1.633  0.1804  0.3014 -0.3823
  493MOL0     C67935   7.219   8.636   1.722 -0.1578 -0.5470 -0.1898
  493MOL0     C67936   7.322   8.532   1.661  0.0081 -0.3916  0.5340
  493MOL0     C67937   7.456   8.544   1.732 -0.1606 -0.8838  0.2084
  493MOL0     C67938   7.566   8.456   1.682 -0.1234  0.1966 -0.7459
  493MOL0     C67939   7.533   8.309   1.672 -0.4166 -0.0932  0.1014
  493MOL0     C67940   7.663   8.227   1.636  1.3026  0.2015 -0.5946
  493MOL0    Cl67941   7.713   8.216   1.468  0.3485  0.0217  0.0536
  493MOL0     C67942   6.814   8.937   1.650  0.4703 -0.4783 -0.4675
  493MOL0     C67943   6.690   8.984   1.693  1.2443 -0.1772 -0.6602
  493MOL0     O67944   6.603   9.266   1.886 -0.0332  0.3516  0.9415
  493MOL0     C67945   6.270   9.125   1.907 -0.0056  0.1631 -0.7252
  493MOL0     C67946   6.135   9.156   1.940  0.1838  0.1077 -0.1024
  493MOL0     N67947   5.739   9.923   1.863  0.3006 -0.4329 -0.7649
  493MOL0     N67948   5.802  10.033   1.821  0.6685 -0.6309  0.3784
  493MOL0     C67949   6.884   9.748   2.344 -0.0347 -0.2783 -0.1110
  493MOL0     C67950   7.012   9.685   2.362  0.1332 -0.6912 -1.2219
  493MOL0     C67951   7.468   9.593   2.248 -0.9092 -0.2967 -0.3211
  493MOL0     C67952   7.499   9.655   2.370 -0.6780 -0.1605 -0.2555
  493MOL0     C67953   7.622   9.637   2.428 -0.1008 -0.2004 -0.5162
  493MOL0     C67954   7.720   9.559   2.373 -0.2224 -1.2337 -0.5107
  493MOL0     O67955   7.842   9.545   2.441 -0.3948  0.1887  0.3063
  493MOL0     C67956   7.932   9.435   2.399  0.5059  0.2423  0.1110
  493MOL0     C67957   8.031   9.403   2.514  0.3187  0.0164  0.1223
  493MOL0     C67958   7.949   9.355   2.641 -0.5294 -1.0431  0.1157
  493MOL0     C67959   8.045   9.340   2.765  0.6626  0.6294  0.5330
  493MOL0     C67960   8.120   9.461   2.793  0.2967 -0.5380 -0.0491
  493MOL0     C67961   8.159   9.577   2.796 -0.0631  0.8332 -0.4943
  493MOL0     C67962   7.700   9.507   2.257 -0.1807  0.6370 -0.0351
  493MOL0     C67963   7.576   9.524   2.193  0.1737  0.4236 -0.1183
  493MOL0     C67964   7.563   9.486   2.051  0.3304 -0.4458 -0.0881
  493MOL0     H67965   7.141   9.740   2.061 -0.7263  1.2789  0.7899
  493MOL0     H67966   6.927   9.874   2.036  0.8895 -0.5450  0.2795
  493MOL0     H67967   6.595   9.736   2.134 -0.1526  0.6309 -0.3786
  493MOL0     H67968   6.704   9.807   2.017  2.2313  1.6784  1.1305
  493MOL0     H67969   6.471   9.959   2.157 -0.2365 -2.1476 -0.4132
  493MOL0     H67970   6.585  10.033   2.053 -1.0541 -0.0834 -1.1340
  493MOL0     H67971   6.514   9.860   1.875 -1.3533  0.3532 -0.7256
  493MOL0     H67972   6.391   9.812   1.993  1.7518 -2.3680 -2.3558
  493MOL0     H67973   6.264  10.031   1.979  0.4023  4.0456 -1.2172
  493MOL0     H67974   6.384  10.097   1.899  2.7439 -0.8306 -0.7825
  493MOL0     H67975   6.214   9.874   1.780  0.5197 -1.1417  2.3230
  493MOL0     H67976   6.346   9.956   1.690 -2.3886  0.9210 -0.8234
  493MOL0     H67977   6.098  10.091   1.813 -1.1253  1.6513 -0.3224
  493MOL0     H67978   6.222  10.174   1.717 -1.3910  0.7408 -1.8180
  493MOL0     H67979   6.102   9.925   1.595  0.5128 -0.2545 -2.1682
  493MOL0     H67980   6.143  10.081   1.518 -0.7513  0.8901  0.1876
  493MOL0     H67981   5.948  10.174   1.640  1.8731  0.4365  0.1723
  493MOL0     H67982   5.908  10.046   1.515 -0.0005  0.1272  0.9208
  493MOL0     H67983   5.884   9.780   1.614 -1.8808 -0.9476 -0.0086
  493MOL0     H67984   5.757   9.606   1.734 -0.4156  0.1290  0.6327
  493MOL0     H67985   5.621   9.669   1.835 -0.6842  1.3480 -2.8902
  493MOL0     H67986   5.898   9.698   1.961  0.6202 -0.3065 -1.4954
  493MOL0     H67987   5.749   9.615   2.021  0.3551 -2.0672 -0.2869
  493MOL0     H67988   5.823   9.416   1.854  3.1793 -3.5044  1.0216
  493MOL0     H67989   5.975   9.493   1.866  0.7474  0.4521  0.5824
  493MOL0     H67990   5.968   9.494   2.118  0.3285 -0.8255  0.5636
  493MOL0     H67991   5.820   9.411   2.115  0.9930  0.3918  1.4734
  493MOL0     H67992   6.184   9.451   2.101  1.6207  1.1475  0.0601
  493MOL0     H67993   6.475   9.503   2.000  0.4402  1.6581  1.9523
  493MOL0     H67994   6.544   9.374   2.102 -0.4042  0.0783  2.0990
  493MOL0     H67995   6.417   9.482   2.163  3.2954  3.4925 -0.8893
  493MOL0     H67996   6.770   8.986   2.026  0.1714 -0.4398 -0.4821
  493MOL0     H67997   6.982   8.891   1.934  0.1050  1.8365  0.4327
  493MOL0     H67998   6.951   8.746   1.536 -1.4665  3.6266  1.3261
  493MOL0     H67999   7.132   8.803   1.529 -1.2948 -1.5246 -3.2719
  493MOL0     H68000   7.014   8.588   1.697  1.6482 -2.5175 -0.4642
  493MOL0     H68001   7.097   8.578   1.538 -0.4050 -0.3925 -0.0303
  493MOL0     H68002   7.201   8.602   1.825  0.0815  2.8162  1.0784
  493MOL0     H68003   7.249   8.740   1.732 -2.3031  0.2747 -1.6403
  493MOL0     H68004   7.338   8.575   1.562  1.4413  1.9445  1.6899
  493MOL0     H68005   7.299   8.425   1.665  1.9516 -0.8199  1.9175
  493MOL0     H68006   7.488   8.648   1.736 -1.5579 -0.4505  0.7671
  493MOL0     H68007   7.431   8.509   1.833 -0.1205 -2.7092 -0.3790
  493MOL0     H68008   7.646   8.480   1.753 -1.1108  3.5099 -0.5980
  493MOL0     H68009   7.599   8.484   1.582  2.7512  2.6415  0.7204
  493MOL0     H68010   7.447   8.282   1.610 -1.5748 -2.0782  2.4136
  493MOL0     H68011   7.493   8.267   1.765  0.7665 -1.9647 -0.1924
  493MOL0     H68012   7.639   8.125   1.667 -2.7160  1.2852  0.5688
  493MOL0     H68013   7.743   8.262   1.702  1.2824  1.3001 -1.1220
  493MOL0     H68014   6.828   8.912   1.545  0.0308  0.5343 -0.7820
  493MOL0     H68015   6.606   8.993   1.625  0.5106 -2.2479 -0.0847
  493MOL0     H68016   6.287   9.022   1.879  2.1020  0.5314 -0.9583
  493MOL0     H68017   6.047   9.110   1.896 -1.1228  2.9225 -0.6241
  493MOL0     H68018   6.812   9.737   2.424  0.2499 -0.9255  0.0681
  493MOL0     H68019   7.031   9.638   2.458 -0.7151  0.3935 -0.4997
  493MOL0     H68020   7.424   9.725   2.407  0.3721  1.5489 -1.2226
  493MOL0     H68021   7.629   9.676   2.529 -5.0194 -0.0424  0.0151
  493MOL0     H68022   7.871   9.347   2.378 -1.2582  1.4000  0.1845
  493MOL0     H68023   7.996   9.459   2.314  0.4480  1.4161  0.3857
  493MOL0     H68024   8.085   9.497   2.529  0.9749 -0.5779  1.6017
  493MOL0     H68025   8.094   9.318   2.486  0.0118 -0.4678  0.8753
  493MOL0     H68026   7.871   9.424   2.674  2.8431  1.9255  2.6034
  493MOL0     H68027   7.902   9.260   2.612 -0.0047 -0.3162 -3.6704
  493MOL0     H68028   8.113   9.259   2.733  0.5157  0.2186  1.2303
  493MOL0     H68029   7.991   9.304   2.854  0.0487  1.9137  0.7003
  493MOL0     H68030   8.199   9.677   2.796  4.1592 -0.6491 -1.3425
  493MOL0     H68031   7.773   9.457   2.195  0.9124  1.9925  0.1244
  493MOL0     H68032   7.529   9.559   1.977  0.0821 -1.6621 -1.2321
  493MOL0     H68033   7.662   9.456   2.015  0.5664 -2.5690  2.0342
  493MOL0     H68034   7.492   9.404   2.033 -1.8673  1.6711 -1.7572
  494MOL0     O68035   7.496   0.570   4.702  1.0417 -0.4688 -0.2790
  494MOL0     C68036   7.422   0.654   4.645 -1.3014  0.3267  0.0100
  494MOL0     O68037   7.387   0.642   4.515  0.1411 -0.3427  0.9477
  494MOL0     C68038   7.415   0.537   4.441  0.4904  0.0768 -0.3551
  494MOL0     C68039   7.547   0.503   4.412 -0.3266  0.4330 -0.0328
  494MOL0     C68040   7.568   0.381   4.356  0.1390 -0.1069 -0.1424
  494MOL0     C68041   7.468   0.289   4.320  0.1811  1.3219 -0.3398
  494MOL0     O68042   7.501   0.170   4.259  0.2614  0.2222  0.0858
  494MOL0     C68043   7.507   0.060   4.350 -0.7172  1.3742  0.2272
  494MOL0     C68044   7.565  -0.056   4.258  0.0206 -0.2317  0.3217
  494MOL0     C68045   7.719  -0.038   4.248 -0.6250  0.3173 -0.0723
  494MOL0     C68046   7.770  -0.130   4.133 -0.1584 -0.1874  0.6994
  494MOL0     C68047   7.920  -0.124   4.130 -1.3765  0.1951 -0.1748
  494MOL0     C68048   7.974  -0.132   3.985  0.7739  0.3742 -0.7726
  494MOL0     C68049   8.116  -0.108   3.994 -0.7329  0.4240 -0.1957
  494MOL0     C68050   8.181  -0.134   3.850  0.3406  0.2004  0.6083
  494MOL0     N68051   8.326  -0.122   3.844  0.0696 -0.4569  1.1256
  494MOL0     C68052   8.406  -0.015   3.792 -0.5800  0.9652 -0.3552
  494MOL0     C68053   8.532  -0.068   3.787 -0.7387  0.2665 -0.1293
  494MOL0     C68054   8.641  -0.015   3.703  0.9310 -0.4280  0.9840
  494MOL0     C68055   8.688   0.122   3.750 -0.0492 -0.3742 -0.6047
  494MOL0     C68056   8.721   0.133   3.898 -0.9169 -0.4756  0.8204
  494MOL0     C68057   8.828   0.045   3.941  0.7305 -0.3150 -0.0384
  494MOL0     O68058   8.868   0.089   4.073 -1.1008  0.0527  0.1941
  494MOL0     C68059   8.833   0.013   4.186 -1.0584  0.3077 -0.1916
  494MOL0     C68060   8.906   0.047   4.303  0.0150  0.5535 -0.2234
  494MOL0     C68061   8.893  -0.021   4.423 -0.1590 -0.3069  0.1047
  494MOL0     C68062   8.985   0.044   4.526  0.3415  0.3007 -0.1439
  494MOL0     C68063   8.802  -0.135   4.444  0.1487 -0.3047  0.0339
  494MOL0     C68064   8.770  -0.195   4.569 -0.0853  0.4394 -0.3008
  494MOL0     O68065   8.647  -0.261   4.577  0.2709  0.4776  0.0883
  494MOL0     C68066   8.603  -0.304   4.698  0.0972 -0.5164  0.4905
  494MOL0     C68067   8.599  -0.211   4.808  0.9059 -0.3389  0.2177
  494MOL0     C68068   8.559  -0.241   4.934  0.5942  0.2878 -0.1565
  494MOL0     C68069   8.515  -0.370   4.952  1.3312  0.8248 -0.2827
  494MOL0     O68070   8.478  -0.400   5.080  0.5414  0.6590 -0.4476
  494MOL0     C68071   8.554  -0.509   5.144 -0.1017  1.0019 -0.4595
  494MOL0     C68072   8.622  -0.466   5.273 -0.1449  0.9017 -0.3018
  494MOL0     C68073   8.715  -0.569   5.333 -0.5142  0.8621 -2.1448
  494MOL0     C68074   8.712  -0.555   5.486  0.2929 -0.7314  0.4969
  494MOL0     C68075   8.795  -0.673   5.544  0.9500 -0.1638  0.2858
  494MOL0     C68076   8.802  -0.648   5.685 -1.3945  0.1850 -0.5759
  494MOL0     C68077   8.887  -0.755   5.763 -0.1839 -0.4974  0.5794
  494MOL0     C68078   8.809  -0.885   5.782  0.4369  1.4472 -0.2676
  494MOL0    Cl68079   8.921  -0.997   5.858  0.0016  0.3007 -0.5458
  494MOL0     C68080   8.525  -0.470   4.854  0.3224 -0.2499  0.0247
  494MOL0     C68081   8.561  -0.433   4.723 -0.2657  0.6072  1.1828
  494MOL0     O68082   8.842  -0.169   4.669  0.2227 -0.7467  0.2430
  494MOL0     C68083   8.719  -0.160   4.327 -0.1247 -0.1043 -0.2202
  494MOL0     C68084   8.741  -0.099   4.201 -0.8749 -0.2308  0.0624
  494MOL0     N68085   8.531  -0.189   3.854 -0.0898  0.6094  0.4518
  494MOL0     N68086   8.411  -0.212   3.890  0.0488 -0.4573  0.2111
  494MOL0     C68087   7.333   0.335   4.322 -0.2136 -1.4266  0.0989
  494MOL0     C68088   7.313   0.455   4.393 -0.1705 -0.4523  0.7927
  494MOL0     C68089   7.382   0.772   4.724  0.3159 -0.8046 -0.3331
  494MOL0     C68090   7.431   0.777   4.862  0.1952  0.5035  0.8326
  494MOL0     C68091   7.416   0.893   4.947  0.3946  0.8921 -0.7147
  494MOL0     C68092   7.365   1.011   4.894  0.2875  0.0123  0.3833
  494MOL0     O68093   7.344   1.112   4.979  0.5503  0.1381 -0.5704
  494MOL0     C68094   7.358   1.246   4.933  0.3077  0.6769 -0.1953
  494MOL0     C68095   7.505   1.283   4.890 -0.1257  0.8161  0.2291
  494MOL0     C68096   7.623   1.214   4.969  0.0802  0.6291 -0.0790
  494MOL0     C68097   7.763   1.238   4.909 -0.1948 -0.6118  0.3788
  494MOL0     C68098   7.800   1.377   4.933 -0.1453 -0.4123 -0.1543
  494MOL0     C68099   7.840   1.494   4.948 -1.0508 -0.6007 -0.8984
  494MOL0     C68100   7.306   1.009   4.759 -0.7854 -0.2772 -0.8308
  494MOL0     C68101   7.316   0.890   4.680 -1.3042 -0.0747  0.2722
  494MOL0     C68102   7.266   0.912   4.542 -0.0933 -0.0778  1.2586
  494MOL0     H68103   7.633   0.554   4.456  0.8944 -3.2243  2.3147
  494MOL0     H68104   7.671   0.364   4.326  0.1498  2.2661 -1.7530
  494MOL0     H68105   7.416   0.032   4.404  0.0842 -0.9113  0.4849
  494MOL0     H68106   7.576   0.080   4.434 -0.4497  0.1871  0.3046
  494MOL0     H68107   7.536  -0.145   4.315 -0.4242  0.1413  0.6813
  494MOL0     H68108   7.513  -0.057   4.162  0.3358  0.8295  0.1215
  494MOL0     H68109   7.744   0.066   4.223  1.4697 -0.5878 -2.1694
  494MOL0     H68110   7.769  -0.073   4.339 -0.9009  0.7579  0.2558
  494MOL0     H68111   7.732  -0.230   4.152 -1.9526  0.8175  2.9325
  494MOL0     H68112   7.728  -0.105   4.035  1.5876 -2.8120 -0.8331
  494MOL0     H68113   7.953  -0.204   4.196  1.8520  1.4960 -0.0493
  494MOL0     H68114   7.957  -0.033   4.178 -1.2027 -0.5183  1.0862
  494MOL0     H68115   7.955  -0.234   3.952  0.7943 -0.4213  1.4897
  494MOL0     H68116   7.921  -0.060   3.922  2.9592  0.8812 -2.1318
  494MOL0     H68117   8.158  -0.186   4.059 -1.8113  0.6169  0.7460
  494MOL0     H68118   8.142  -0.011   4.037 -0.7487 -0.1479  1.1522
  494MOL0     H68119   8.149  -0.234   3.819 -1.3665  1.2382 -1.2335
  494MOL0     H68120   8.138  -0.055   3.787 -1.1809 -2.1242 -1.4812
  494MOL0     H68121   8.371   0.077   3.746 -2.2443  1.4068  1.6566
  494MOL0     H68122   8.612  -0.000   3.598  3.1843 -0.9017  0.2144
  494MOL0     H68123   8.728  -0.082   3.703  1.0720 -0.3184 -1.0489
  494MOL0     H68124   8.777   0.146   3.690 -0.0604 -2.4530 -1.5442
  494MOL0     H68125   8.615   0.202   3.731 -0.4040 -0.2315  1.1957
  494MOL0     H68126   8.741   0.240   3.910 -2.9649  0.2611 -1.5825
  494MOL0     H68127   8.634   0.112   3.961 -0.6376  1.1184  1.7940
  494MOL0     H68128   8.792  -0.059   3.942 -1.4664  0.3877 -0.5956
  494MOL0     H68129   8.913   0.051   3.873  0.7518  0.5645  0.0564
  494MOL0     H68130   8.974   0.131   4.298 -0.6569  1.0434 -3.7021
  494MOL0     H68131   9.074  -0.018   4.531 -1.5164 -2.5048  0.6130
  494MOL0     H68132   8.935   0.048   4.624 -1.8726 -0.0501 -1.1830
  494MOL0     H68133   9.000   0.150   4.502 -2.7921  0.7039 -0.8178
  494MOL0     H68134   8.629  -0.111   4.781  1.4933 -0.0799  1.6975
  494MOL0     H68135   8.534  -0.171   5.013  2.7894 -0.3478  1.1818
  494MOL0     H68136   8.488  -0.588   5.182  1.5881  0.8261  2.4454
  494MOL0     H68137   8.634  -0.552   5.083  2.4370 -0.2927  3.3827
  494MOL0     H68138   8.680  -0.377   5.245 -0.3178 -0.4374 -6.2076
  494MOL0     H68139   8.547  -0.431   5.345  1.5538 -1.7829  3.0895
  494MOL0     H68140   8.816  -0.567   5.292 -0.7342 -2.0269 -3.0316
  494MOL0     H68141   8.675  -0.669   5.313  0.3831  0.1630 -0.6860
  494MOL0     H68142   8.607  -0.546   5.516 -0.6826  0.7510 -2.8927
  494MOL0     H68143   8.749  -0.454   5.507 -1.9010  1.2764 -3.9460
  494MOL0     H68144   8.746  -0.768   5.520 -2.6472  1.7538 -0.6345
  494MOL0     H68145   8.895  -0.665   5.499  0.5473  0.8763 -0.4718
  494MOL0     H68146   8.699  -0.638   5.720 -1.0928 -2.6528  1.4289
  494MOL0     H68147   8.859  -0.557   5.704  1.4541 -1.9870  2.4362
  494MOL0     H68148   8.910  -0.709   5.860  1.0733  1.3364 -0.5255
  494MOL0     H68149   8.977  -0.785   5.708 -1.0587  0.7178 -1.6114
  494MOL0     H68150   8.785  -0.938   5.689 -3.1393  1.3861  0.5235
  494MOL0     H68151   8.717  -0.881   5.840 -0.4848 -1.8270 -1.3229
  494MOL0     H68152   8.498  -0.573   4.877  1.8992 -1.6925 -3.6862
  494MOL0     H68153   8.557  -0.516   4.654  2.1596 -0.1596  1.8565
  494MOL0     H68154   8.632  -0.223   4.339 -0.9856  0.7209 -1.8766
  494MOL0     H68155   8.677  -0.131   4.119 -0.1671 -0.0965 -0.5448
  494MOL0     H68156   7.247   0.290   4.272 -1.5039 -0.5094  1.4243
  494MOL0     H68157   7.214   0.496   4.409  0.5598  0.5439  3.4196
  494MOL0     H68158   7.480   0.684   4.889  0.2268  0.6034  1.1270
  494MOL0     H68159   7.458   0.884   5.046 -4.0447 -1.7075  1.2375
  494MOL0     H68160   7.284   1.280   4.860  0.3053  2.4647  0.5913
  494MOL0     H68161   7.340   1.316   5.014 -0.5698  1.6466 -1.1962
  494MOL0     H68162   7.520   1.389   4.910  4.5733  0.0524  2.1648
  494MOL0     H68163   7.525   1.263   4.784  2.0775  2.2183  0.3251
  494MOL0     H68164   7.622   1.236   5.076 -1.9763  2.4469 -0.4019
  494MOL0     H68165   7.603   1.106   4.969 -1.3195  0.8282 -2.1540
  494MOL0     H68166   7.751   1.205   4.806 -3.9452  0.1030  0.4739
  494MOL0     H68167   7.842   1.174   4.949  3.2484  2.8793 -0.1937
  494MOL0     H68168   7.873   1.594   4.966 -0.4880 -1.0121  0.4519
  494MOL0     H68169   7.250   1.099   4.733  2.2302  2.0914  0.3035
  494MOL0     H68170   7.344   0.878   4.474  2.0278 -0.6032  3.8209
  494MOL0     H68171   7.167   0.866   4.533  0.3968 -0.8983 -0.4736
  494MOL0     H68172   7.244   1.017   4.521  2.6997  0.3926  0.2945
  495MOL0     O68173   9.225  10.447   5.676  0.3122 -0.2795 -0.2802
  495MOL0     C68174   9.226  10.568   5.676  0.2879  0.3961 -0.0069
  495MOL0     O68175   9.244  10.647   5.785  0.3866 -0.0706  0.6512
  495MOL0     C68176   9.251  10.601   5.918  0.3184 -0.3775  0.8956
  495MOL0     C68177   9.312  10.683   6.013  0.0082 -0.2830 -0.1594
  495MOL0     C68178   9.326  10.649   6.147  0.8937  0.9143 -0.4335
  495MOL0     C68179   9.269  10.531   6.195  0.3567  0.1284 -0.1441
  495MOL0     O68180   9.281  10.495   6.331  0.2961 -0.1884  0.5969
  495MOL0     C68181   9.167  10.513   6.410  0.3405  1.2874  0.2286
  495MOL0     C68182   9.198  10.627   6.506  0.1244  0.2883 -0.2910
  495MOL0     C68183   9.297  10.578   6.608  0.0435  0.1704 -0.2676
  495MOL0     C68184   9.331  10.690   6.714 -0.3862 -0.7102  0.2810
  495MOL0     C68185   9.426  10.642   6.832 -0.9952  0.1306 -0.4292
  495MOL0     C68186   9.483  10.761   6.907 -0.5177  0.3562 -0.1667
  495MOL0     C68187   9.598  10.723   7.010  0.0141  0.0071  0.9149
  495MOL0     C68188   9.658  10.845   7.088 -0.0416 -0.0159  0.4424
  495MOL0     N68189   9.767  10.802   7.179 -0.1979 -0.3752 -0.2656
  495MOL0     C68190   9.874  10.714   7.140  0.7936  0.0926 -1.0426
  495MOL0     C68191   9.959  10.719   7.246  0.3683 -0.3021  0.1721
  495MOL0     C68192  10.085  10.633   7.263  0.7230 -1.2286 -0.8257
  495MOL0     C68193  10.196  10.729   7.298  0.4632  0.7891 -0.6543
  495MOL0     C68194  10.319  10.648   7.337 -0.3127 -0.2214 -0.9353
  495MOL0     C68195  10.414  10.750   7.414 -0.0016 -0.1675  0.3752
  495MOL0     O68196  10.542  10.685   7.447 -0.2845 -0.1520 -0.0089
  495MOL0     C68197  10.642  10.760   7.501  0.0397 -0.1480 -0.3039
  495MOL0     C68198  10.626  10.889   7.549  0.4947  0.2202 -0.9627
  495MOL0     C68199  10.730  10.976   7.579 -0.2682 -0.4295 -0.4287
  495MOL0     C68200  10.689  11.120   7.631 -0.5656  0.5218 -0.9733
  495MOL0     C68201  10.867  10.927   7.576  0.0010 -0.0335  0.2796
  495MOL0     C68202  10.981  11.012   7.619 -0.4590  0.2565  0.0200
  495MOL0     O68203  11.100  10.948   7.577 -0.8153 -0.6784 -0.2304
  495MOL0     C68204  11.224  10.985   7.624  0.4547  0.0268 -0.3558
  495MOL0     C68205  11.244  11.066   7.738 -1.1434 -0.0985  0.2747
  495MOL0     C68206  11.370  11.115   7.759 -0.7378 -0.1217 -0.7517
  495MOL0     C68207  11.486  11.076   7.684 -0.3680  0.8566  1.1550
  495MOL0     O68208  11.612  11.129   7.695  0.0080 -0.0531  0.2405
  495MOL0     C68209  11.640  11.181   7.820 -0.0934 -0.4141  0.2241
  495MOL0     C68210  11.786  11.181   7.853 -1.3595 -0.6622  0.0793
  495MOL0     C68211  11.854  11.044   7.863  0.2838  0.9476 -0.0299
  495MOL0     C68212  11.831  10.964   7.993 -0.0910 -1.2264 -0.3629
  495MOL0     C68213  11.931  10.857   8.017  0.9096 -0.8843  0.3381
  495MOL0     C68214  11.961  10.776   7.890 -0.7458  0.6466  0.1413
  495MOL0     C68215  12.065  10.670   7.926 -0.2205  0.6988  0.8065
  495MOL0     C68216  12.157  10.631   7.799 -0.8370 -0.2429 -0.6581
  495MOL0    Cl68217  12.295  10.750   7.787 -0.2605  0.2295  0.1864
  495MOL0     C68218  11.464  10.977   7.578 -0.5260  0.7059  0.1048
  495MOL0     C68219  11.328  10.940   7.550 -0.4037  0.0142 -0.4134
  495MOL0     O68220  10.970  11.108   7.693  0.1893  0.1500  0.6242
  495MOL0     C68221  10.883  10.794   7.520  0.1734 -0.5902 -0.2046
  495MOL0     C68222  10.771  10.713   7.493 -1.1662 -1.0565  0.9857
  495MOL0     N68223   9.898  10.788   7.345  0.2949  0.6947  0.2847
  495MOL0     N68224   9.780  10.836   7.308 -0.1832 -0.6910  0.5952
  495MOL0     C68225   9.216  10.441   6.103 -0.3239 -0.2628 -0.2895
  495MOL0     C68226   9.209  10.475   5.967 -0.4912  0.5253  0.3256
  495MOL0     C68227   9.187  10.629   5.551  0.7087 -0.4112 -0.4406
  495MOL0     C68228   9.238  10.752   5.525  0.0567  0.4016 -0.2973
  495MOL0     C68229   9.210  10.825   5.418  0.3495 -0.1229 -0.0275
  495MOL0     C68230   9.120  10.772   5.320  0.5872 -0.5800 -0.1915
  495MOL0     O68231   9.075  10.831   5.199 -0.5919 -0.1957 -0.0894
  495MOL0     C68232   9.153  10.953   5.158 -0.7126 -0.7497  0.0532
  495MOL0     C68233   9.109  10.997   5.019 -0.1375 -0.4294  0.0843
  495MOL0     C68234   8.970  11.055   5.016 -0.3219 -1.1062 -0.6245
  495MOL0     C68235   8.952  11.132   4.885 -0.0918 -0.8796 -0.0810
  495MOL0     C68236   8.906  11.022   4.798  0.0677 -0.0129  1.1716
  495MOL0     C68237   8.880  10.943   4.705 -0.0143 -0.5729 -0.4408
  495MOL0     C68238   9.060  10.643   5.338 -1.2238  0.0206 -0.7821
  495MOL0     C68239   9.093  10.575   5.454  0.2987  0.0569  0.8070
  495MOL0     C68240   9.030  10.432   5.463 -0.4892  0.0762 -0.0101
  495MOL0     H68241   9.371  10.767   5.976  0.6741 -1.6114 -2.2786
  495MOL0     H68242   9.382  10.705   6.222 -0.8985  3.0749 -0.6034
  495MOL0     H68243   9.134  10.421   6.460 -0.6443  3.2708  3.5650
  495MOL0     H68244   9.081  10.545   6.351  1.3701 -0.1557 -2.2129
  495MOL0     H68245   9.242  10.718   6.465  3.0711 -0.8691  0.0884
  495MOL0     H68246   9.107  10.639   6.566  0.1089  0.4139 -0.3404
  495MOL0     H68247   9.256  10.499   6.673 -0.1150  2.6074  2.8569
  495MOL0     H68248   9.392  10.547   6.564  1.0599 -1.5588  2.7791
  495MOL0     H68249   9.374  10.779   6.666 -2.1105  0.2665  0.4638
  495MOL0     H68250   9.236  10.731   6.750 -0.8072  2.2004 -3.4909
  495MOL0     H68251   9.515  10.593   6.790 -1.1111 -0.1034 -0.4003
  495MOL0     H68252   9.370  10.570   6.892 -0.5086 -0.0713 -0.2100
  495MOL0     H68253   9.533  10.822   6.830 -0.0934 -0.9712 -0.9774
  495MOL0     H68254   9.397  10.811   6.953 -2.1216  0.4770 -3.0660
  495MOL0     H68255   9.674  10.666   6.956  0.1975 -0.7507  1.9472
  495MOL0     H68256   9.561  10.645   7.077  2.3480 -1.7343  0.3117
  495MOL0     H68257   9.697  10.911   7.010  2.5420 -2.5534 -0.6307
  495MOL0     H68258   9.583  10.904   7.141  0.0717  0.0312  0.5502
  495MOL0     H68259   9.893  10.672   7.042  1.2557  1.3509 -1.5172
  495MOL0     H68260  10.104  10.579   7.169  0.3367 -1.4010 -0.8076
  495MOL0     H68261  10.069  10.562   7.344 -1.2943 -0.4634 -0.4853
  495MOL0     H68262  10.228  10.793   7.216  2.5774 -3.5019 -3.5647
  495MOL0     H68263  10.161  10.786   7.385  1.0323  2.2446 -1.3677
  495MOL0     H68264  10.318  10.549   7.383  1.7919 -0.5237 -1.4308
  495MOL0     H68265  10.376  10.627   7.246  2.9180  4.6538 -0.4318
  495MOL0     H68266  10.433  10.832   7.344  0.2980 -1.7959 -1.5812
  495MOL0     H68267  10.380  10.790   7.510 -4.1946 -1.9613 -0.1586
  495MOL0     H68268  10.523  10.924   7.555 -0.9839 -3.5761 -1.1755
  495MOL0     H68269  10.581  11.126   7.621 -1.3928 -4.9729  1.0313
  495MOL0     H68270  10.743  11.207   7.592 -0.7787  2.1398  2.0156
  495MOL0     H68271  10.696  11.120   7.741 -0.6083  1.3339 -0.9655
  495MOL0     H68272  11.169  11.097   7.810 -1.5540  0.8697 -0.5457
  495MOL0     H68273  11.379  11.188   7.838  0.9076  0.2854 -1.2575
  495MOL0     H68274  11.595  11.281   7.825 -0.7606 -0.6811 -0.3255
  495MOL0     H68275  11.595  11.126   7.903 -0.3741 -1.1095 -0.3752
  495MOL0     H68276  11.833  11.242   7.775 -0.7209  1.4397  1.9901
  495MOL0     H68277  11.807  11.223   7.952  4.0276 -1.2805 -0.4648
  495MOL0     H68278  11.962  11.060   7.874  1.1228 -4.2016  2.2946
  495MOL0     H68279  11.850  10.989   7.768  0.3385  2.9715 -1.2527
  495MOL0     H68280  11.727  10.935   8.007  0.6872 -3.5998  1.1868
  495MOL0     H68281  11.860  11.029   8.077  2.0349 -1.7012 -0.6815
  495MOL0     H68282  12.026  10.888   8.060  1.5027 -1.5045 -0.4948
  495MOL0     H68283  11.873  10.786   8.076  1.5913 -3.1584 -1.5614
  495MOL0     H68284  12.013  10.832   7.812  1.2817  0.4472  1.2979
  495MOL0     H68285  11.879  10.725   7.839  1.9853 -1.8842 -2.0377
  495MOL0     H68286  12.006  10.583   7.958  3.4924 -2.6918 -0.7572
  495MOL0     H68287  12.119  10.685   8.020  1.5460  2.5414 -0.4199
  495MOL0     H68288  12.095  10.635   7.708 -3.0599 -1.3957  0.7049
  495MOL0     H68289  12.195  10.529   7.805  2.0050  0.7886  0.4296
  495MOL0     H68290  11.555  10.950   7.526  0.3224  3.3391  0.0616
  495MOL0     H68291  11.306  10.863   7.477 -0.2974  0.6785 -1.1589
  495MOL0     H68292  10.984  10.757   7.506 -0.4855 -1.5633 -3.1034
  495MOL0     H68293  10.798  10.628   7.432  1.1790  1.5590 -1.9661
  495MOL0     H68294   9.185  10.340   6.130 -1.6164 -0.1581 -1.2979
  495MOL0     H68295   9.177  10.398   5.897  0.9693  0.3374 -0.1647
  495MOL0     H68296   9.309  10.800   5.592 -0.3896  1.5547 -0.6311
  495MOL0     H68297   9.255  10.924   5.411 -1.9360  0.8949 -1.3678
  495MOL0     H68298   9.135  11.034   5.229  0.2849 -3.2988  3.4864
  495MOL0     H68299   9.263  10.947   5.158 -0.6918 -0.4599  0.8622
  495MOL0     H68300   9.092  10.913   4.952  0.1855  1.1469 -2.0690
  495MOL0     H68301   9.193  11.062   4.991  0.9736 -1.4770  0.8361
  495MOL0     H68302   8.901  10.974   5.041  2.0654 -3.0926 -0.1048
  495MOL0     H68303   8.963  11.117   5.105 -1.3541 -1.1087 -0.6898
  495MOL0     H68304   9.050  11.176   4.864  0.7614 -2.6075  0.0842
  495MOL0     H68305   8.881  11.215   4.897 -0.8738 -1.2610 -1.8126
  495MOL0     H68306   8.842  10.883   4.626  0.1653 -1.8522  0.4136
  495MOL0     H68307   8.996  10.620   5.255 -0.1958 -0.7911 -1.3735
  495MOL0     H68308   9.009  10.403   5.566 -3.9053  0.4349 -0.4884
  495MOL0     H68309   8.941  10.423   5.399  0.0959 -1.0517 -0.7002
  495MOL0     H68310   9.106  10.368   5.417 -0.9293  0.9189 -2.0073
  496MOL0     O68311   8.552   2.097   5.059  0.0912 -0.1291  0.3400
  496MOL0     C68312   8.668   2.126   5.037 -0.0303 -0.0345 -0.1258
  496MOL0     O68313   8.774   2.039   5.034  0.2617  0.6000  0.1428
  496MOL0     C68314   8.751   1.904   5.038  0.0495  0.6519 -1.0418
  496MOL0     C68315   8.761   1.824   4.922 -0.4307 -0.0999  0.3382
  496MOL0     C68316   8.722   1.696   4.928  0.0577 -0.2862  0.5296
  496MOL0     C68317   8.674   1.637   5.047  0.6276  0.6524  0.6488
  496MOL0     O68318   8.636   1.508   5.065 -0.0393 -0.1833  0.4277
  496MOL0     C68319   8.607   1.427   4.954  0.0415  0.4051  1.0959
  496MOL0     C68320   8.548   1.298   5.001 -0.0112 -0.0971  0.6035
  496MOL0     C68321   8.407   1.324   5.064 -0.3512 -0.9470  0.1018
  496MOL0     C68322   8.337   1.195   5.101 -0.1403  0.5184 -0.3982
  496MOL0     C68323   8.182   1.200   5.121  0.5658  0.0050 -0.0141
  496MOL0     C68324   8.140   1.332   5.183  0.5185 -0.4498 -0.0009
  496MOL0     C68325   8.004   1.311   5.255 -0.1395  0.3564 -0.2965
  496MOL0     C68326   7.944   1.442   5.298 -0.0568  0.0614 -0.7835
  496MOL0     N68327   7.816   1.433   5.353  0.5220  1.2592 -0.2004
  496MOL0     C68328   7.699   1.444   5.280  0.3310  0.4056  0.1427
  496MOL0     C68329   7.606   1.474   5.375  0.9060 -0.1960  0.5208
  496MOL0     C68330   7.462   1.493   5.328 -0.1691 -0.1360 -0.3077
  496MOL0     C68331   7.384   1.368   5.380  0.9177  0.0099  0.1892
  496MOL0     C68332   7.240   1.365   5.329 -0.5212 -0.0866 -0.5004
  496MOL0     C68333   7.149   1.467   5.408  0.8197 -0.1328 -0.1338
  496MOL0     O68334   7.012   1.421   5.384  0.1077 -0.0049  1.0132
  496MOL0     C68335   6.906   1.506   5.385  0.6383 -0.5836 -0.3239
  496MOL0     C68336   6.777   1.454   5.367 -0.3299 -0.4039  0.1537
  496MOL0     C68337   6.661   1.530   5.377 -0.4550 -0.0340  0.4532
  496MOL0     C68338   6.532   1.450   5.363 -0.3444  0.0803 -0.1559
  496MOL0     C68339   6.664   1.667   5.402 -1.3897 -0.8162 -0.5920
  496MOL0     C68340   6.543   1.757   5.405 -0.7170  0.1834 -0.1473
  496MOL0     O68341   6.555   1.867   5.482  0.1368  0.1513  1.0391
  496MOL0     C68342   6.441   1.954   5.495 -0.4665  0.1747 -0.5006
  496MOL0     C68343   6.397   2.031   5.380 -0.0075  0.1290  0.4460
  496MOL0     C68344   6.316   2.146   5.398 -1.0294  1.2377  0.4368
  496MOL0     C68345   6.255   2.170   5.528 -0.2430  0.2559 -0.7430
  496MOL0     O68346   6.154   2.269   5.538  0.2397  0.2421  0.3612
  496MOL0     C68347   6.046   2.208   5.609  0.3969  0.6411 -0.6921
  496MOL0     C68348   5.938   2.297   5.553  0.1433 -0.9929 -0.0766
  496MOL0     C68349   5.910   2.287   5.403  0.0392 -0.3204 -0.1414
  496MOL0     C68350   5.815   2.397   5.357  0.3599  0.3690 -1.0178
  496MOL0     C68351   5.778   2.374   5.216 -0.0724 -0.0111 -0.4901
  496MOL0     C68352   5.693   2.491   5.160 -0.4353 -0.4953 -0.5988
  496MOL0     C68353   5.614   2.456   5.031  0.1108 -0.4864  0.3796
  496MOL0     C68354   5.691   2.415   4.914 -0.1730  0.0907  0.3994
  496MOL0    Cl68355   5.799   2.540   4.865  0.3354  0.1916  0.0363
  496MOL0     C68356   6.292   2.091   5.637  0.2823  0.1928 -0.4866
  496MOL0     C68357   6.381   1.984   5.618  0.0402 -1.0144  0.0563
  496MOL0     O68358   6.453   1.729   5.333  0.2457 -0.5481 -0.2914
  496MOL0     C68359   6.796   1.725   5.428  1.3151  0.2274 -0.0226
  496MOL0     C68360   6.913   1.642   5.422 -0.5804  0.5185 -0.5014
  496MOL0     N68361   7.667   1.475   5.492 -0.2295  0.0408  0.4029
  496MOL0     N68362   7.791   1.445   5.481  0.1810  0.2281  0.0611
  496MOL0     C68363   8.685   1.712   5.162 -0.2532 -0.4085  0.7202
  496MOL0     C68364   8.726   1.841   5.163  0.3976 -1.0445  0.3575
  496MOL0     C68365   8.691   2.270   5.012 -0.0956 -0.2058 -0.0042
  496MOL0     C68366   8.807   2.310   4.954 -0.3429  0.2816 -0.4973
  496MOL0     C68367   8.841   2.451   4.932 -0.5773  0.6943 -0.5821
  496MOL0     C68368   8.749   2.543   4.954 -0.8978 -0.6761  0.1316
  496MOL0     O68369   8.796   2.673   4.929  0.4007  0.2096  0.0841
  496MOL0     C68370   8.701   2.780   4.888  0.2762  1.4200  0.3120
  496MOL0     C68371   8.640   2.831   5.018 -0.4388  0.4450 -0.2892
  496MOL0     C68372   8.522   2.911   4.973  0.1801 -1.5753 -0.5922
  496MOL0     C68373   8.400   2.823   4.948 -0.1923 -0.0634 -0.3094
  496MOL0     C68374   8.285   2.894   4.885  0.6980  0.5543 -0.1431
  496MOL0     C68375   8.195   2.959   4.843  0.1793 -0.1559 -0.7033
  496MOL0     C68376   8.624   2.504   4.991 -1.1934  0.1448 -0.5392
  496MOL0     C68377   8.596   2.375   5.021  0.3597  0.1242  0.0851
  496MOL0     C68378   8.463   2.355   5.088  0.6535 -0.0665 -0.0855
  496MOL0     H68379   8.785   1.872   4.827 -0.3024  0.3117  0.5771
  496MOL0     H68380   8.731   1.624   4.847  1.7167 -1.5488  1.7548
  496MOL0     H68381   8.693   1.416   4.886 -1.4479 -0.9727 -0.6814
  496MOL0     H68382   8.543   1.475   4.880 -0.3404  1.3362  2.0161
  496MOL0     H68383   8.534   1.235   4.913 -3.1735 -1.4573  1.9214
  496MOL0     H68384   8.613   1.241   5.069 -0.1570  0.5246  1.2792
  496MOL0     H68385   8.410   1.374   5.161 -1.1933 -0.5898 -0.0484
  496MOL0     H68386   8.339   1.379   4.999 -0.2903  0.2823  1.0466
  496MOL0     H68387   8.365   1.119   5.028 -0.0086 -0.3408  0.5182
  496MOL0     H68388   8.382   1.162   5.196  1.6481 -0.3967 -1.5143
  496MOL0     H68389   8.143   1.120   5.185 -0.3291  1.1443  0.9168
  496MOL0     H68390   8.134   1.197   5.023 -2.3707 -0.7184  1.3311
  496MOL0     H68391   8.218   1.343   5.259 -1.3594 -0.9009  2.0906
  496MOL0     H68392   8.143   1.411   5.107  2.1870 -0.1956  0.2760
  496MOL0     H68393   8.029   1.255   5.346  2.6290 -2.4233 -2.5567
  496MOL0     H68394   7.937   1.255   5.189  1.3302  0.2384 -1.7440
  496MOL0     H68395   8.004   1.498   5.371  0.0322  0.9170 -1.4955
  496MOL0     H68396   7.938   1.509   5.212 -0.6284  1.2761  0.1699
  496MOL0     H68397   7.682   1.424   5.175  1.2915  0.6264 -0.0614
  496MOL0     H68398   7.455   1.492   5.218  0.5063 -1.6990 -0.3521
  496MOL0     H68399   7.421   1.584   5.373 -5.4830 -1.6522 -1.3814
  496MOL0     H68400   7.416   1.274   5.334 -2.3468 -1.3581  0.4708
  496MOL0     H68401   7.374   1.365   5.488 -2.6002 -1.3244 -0.0439
  496MOL0     H68402   7.243   1.370   5.220 -0.2451 -0.5249 -0.5169
  496MOL0     H68403   7.199   1.265   5.345 -0.6168 -0.1073 -0.8668
  496MOL0     H68404   7.166   1.462   5.516 -1.8028  0.5301  0.3714
  496MOL0     H68405   7.169   1.567   5.369  1.7971 -0.1370  0.3249
  496MOL0     H68406   6.764   1.355   5.324  0.3808 -0.0163 -0.9937
  496MOL0     H68407   6.448   1.487   5.424 -0.3898 -0.5239  0.1461
  496MOL0     H68408   6.539   1.344   5.387  0.1200  0.6501  2.4905
  496MOL0     H68409   6.491   1.454   5.261 -1.7691  1.4256  0.4124
  496MOL0     H68410   6.422   2.004   5.278  1.0940 -2.6595  1.3598
  496MOL0     H68411   6.294   2.202   5.308  1.9806 -2.0992 -2.7332
  496MOL0     H68412   6.031   2.101   5.591  2.8060 -0.4777  2.9144
  496MOL0     H68413   6.052   2.218   5.718  0.5714  0.1643 -0.6558
  496MOL0     H68414   5.845   2.270   5.604 -1.6076  1.3994 -1.7405
  496MOL0     H68415   5.965   2.398   5.583 -0.3513 -1.7169  3.2029
  496MOL0     H68416   5.868   2.187   5.389  0.0574 -0.0420 -2.5612
  496MOL0     H68417   6.002   2.306   5.348 -0.7995  0.6088 -1.2747
  496MOL0     H68418   5.864   2.493   5.374 -0.9273  1.5830 -3.6197
  496MOL0     H68419   5.720   2.392   5.411  1.1902 -2.2782  0.4183
  496MOL0     H68420   5.863   2.343   5.154  0.8930 -2.4859  1.8535
  496MOL0     H68421   5.718   2.283   5.218 -0.3939  0.2076 -0.1450
  496MOL0     H68422   5.755   2.579   5.145 -0.3502 -0.3253  0.6118
  496MOL0     H68423   5.626   2.521   5.241 -0.2171 -2.9892  0.6220
  496MOL0     H68424   5.544   2.536   5.003  0.1652 -1.1237 -1.6981
  496MOL0     H68425   5.549   2.368   5.036 -0.5222 -0.4600 -3.7106
  496MOL0     H68426   5.626   2.397   4.828  1.7475  1.5712 -1.4738
  496MOL0     H68427   5.744   2.324   4.943  0.9396  1.1737  1.9572
  496MOL0     H68428   6.248   2.096   5.736 -2.5289 -0.2893 -1.5984
  496MOL0     H68429   6.420   1.928   5.701 -0.0800 -0.4040  0.5345
  496MOL0     H68430   6.804   1.828   5.463 -0.7836 -0.0210  1.4124
  496MOL0     H68431   7.006   1.685   5.457 -0.8132 -0.9543  2.2843
  496MOL0     H68432   8.645   1.674   5.255 -1.2433  0.2573  0.5865
  496MOL0     H68433   8.728   1.898   5.256  0.9456 -1.7738  0.8074
  496MOL0     H68434   8.876   2.232   4.925  0.2313  1.2029 -1.7187
  496MOL0     H68435   8.938   2.475   4.891 -1.0348 -1.2335 -3.1156
  496MOL0     H68436   8.764   2.846   4.828  2.3707  1.0037  1.9278
  496MOL0     H68437   8.620   2.748   4.822  1.1140  0.9096 -0.4840
  496MOL0     H68438   8.722   2.891   5.059  0.6312 -0.5906 -0.8629
  496MOL0     H68439   8.615   2.759   5.097  1.7831  0.3632  0.4105
  496MOL0     H68440   8.490   2.983   5.049  2.3631 -0.7582 -0.3734
  496MOL0     H68441   8.544   2.978   4.890 -0.3902  0.4192  0.7654
  496MOL0     H68442   8.371   2.773   5.041  1.7369  3.5813  2.5625
  496MOL0     H68443   8.413   2.741   4.878 -0.4300 -1.4838  1.2575
  496MOL0     H68444   8.121   3.015   4.790  3.3520  3.2357 -1.9235
  496MOL0     H68445   8.545   2.573   5.018 -0.6188  1.1143 -1.2544
  496MOL0     H68446   8.429   2.446   5.137  1.1950 -0.0712  0.3024
  496MOL0     H68447   8.395   2.320   5.009  1.5655  0.6045 -1.2041
  496MOL0     H68448   8.462   2.285   5.172 -1.6049  1.9574  1.7129
  497MOL0     O68449   7.956  11.195   7.098  0.2945 -0.1544 -0.4908
  497MOL0     C68450   7.895  11.277   7.033  0.1194  0.0795 -0.0886
  497MOL0     O68451   7.850  11.393   7.079 -0.5691 -0.6206 -0.2864
  497MOL0     C68452   7.902  11.453   7.191  0.4542 -0.5152 -0.0222
  497MOL0     C68453   7.936  11.385   7.306 -0.6377  0.0306 -0.2709
  497MOL0     C68454   7.985  11.446   7.422 -0.0172 -0.5024  0.2782
  497MOL0     C68455   7.986  11.582   7.423 -0.3784  1.1899  0.1245
  497MOL0     O68456   8.024  11.618   7.548  0.0672 -0.3005  0.2236
  497MOL0     C68457   8.004  11.754   7.585  0.7019  1.0477  0.4286
  497MOL0     C68458   7.857  11.782   7.622  0.1832  0.4969  0.2971
  497MOL0     C68459   7.833  11.726   7.762 -0.1604  0.8355  0.2512
  497MOL0     C68460   7.686  11.709   7.793 -0.5514 -0.0505  0.1456
  497MOL0     C68461   7.663  11.657   7.939 -0.3411 -0.4482  0.8406
  497MOL0     C68462   7.688  11.507   7.942 -0.4417  0.8504  0.2222
  497MOL0     C68463   7.621  11.439   8.069 -0.1536 -0.6552 -0.1302
  497MOL0     C68464   7.637  11.285   8.089 -0.2316  0.2916 -0.0691
  497MOL0     N68465   7.513  11.244   8.162  0.0848 -0.5980 -0.4687
  497MOL0     C68466   7.466  11.292   8.279  0.1953  0.1089 -1.1972
  497MOL0     C68467   7.359  11.216   8.315 -0.1155  0.2453 -0.1181
  497MOL0     C68468   7.290  11.216   8.449 -0.5542 -0.7223 -0.1196
  497MOL0     C68469   7.227  11.077   8.488  0.6269  0.0598 -0.0884
  497MOL0     C68470   7.118  11.097   8.599 -0.0914 -0.1493 -0.0100
  497MOL0     C68471   7.057  10.963   8.637  0.5366  0.2530  0.1564
  497MOL0     O68472   6.955  10.986   8.737 -0.0587 -0.7843  0.0747
  497MOL0     C68473   6.827  11.006   8.690  0.4279 -0.2545  0.3977
  497MOL0     C68474   6.774  10.983   8.564 -0.9176 -0.1124  0.1299
  497MOL0     C68475   6.637  10.990   8.538  0.6521 -1.0383 -0.5738
  497MOL0     C68476   6.599  10.953   8.403 -0.0063  0.3862 -0.1418
  497MOL0     C68477   6.543  11.046   8.628 -0.4469 -0.0731  0.6270
  497MOL0     C68478   6.408  11.086   8.596  0.6314 -0.3349 -0.1734
  497MOL0     O68479   6.399  11.200   8.525  0.2872 -0.1195 -0.6853
  497MOL0     C68480   6.276  11.226   8.470  0.4518 -1.4698 -0.3965
  497MOL0     C68481   6.230  11.143   8.370  0.7313 -0.8996  0.2111
  497MOL0     C68482   6.107  11.169   8.314 -0.1225 -0.2688  0.4304
  497MOL0     C68483   6.021  11.265   8.362  0.7318 -0.5474  0.2024
  497MOL0     O68484   5.898  11.301   8.305 -0.9653  1.4543  0.3350
  497MOL0     C68485   5.870  11.281   8.172 -0.7744  0.2305 -0.5148
  497MOL0     C68486   5.742  11.336   8.129 -0.6740  0.4614 -0.2948
  497MOL0     C68487   5.741  11.339   7.983  0.1452  0.4123  0.1213
  497MOL0     C68488   5.620  11.398   7.925 -0.2859 -0.1753  1.1575
  497MOL0     C68489   5.614  11.381   7.767 -0.0686  0.2049  0.0562
  497MOL0     C68490   5.463  11.360   7.728  0.7037  0.7280  0.6382
  497MOL0     C68491   5.388  11.236   7.774  0.7234 -0.3298 -0.0043
  497MOL0     C68492   5.457  11.105   7.734  0.3448 -0.1245  0.6779
  497MOL0    Cl68493   5.344  10.963   7.729 -0.1184  0.0602  0.3259
  497MOL0     C68494   6.064  11.345   8.470  0.1435 -0.1068  0.5830
  497MOL0     C68495   6.192  11.323   8.522 -0.0639 -1.0420 -0.1046
  497MOL0     O68496   6.314  11.020   8.636  0.0986 -0.3377  0.0999
  497MOL0     C68497   6.598  11.079   8.755 -0.0717  0.4175  0.0844
  497MOL0     C68498   6.735  11.056   8.781 -0.2565 -0.6594 -0.1056
  497MOL0     N68499   7.339  11.132   8.206  0.1264  0.2528  0.2646
  497MOL0     N68500   7.431  11.151   8.114  1.6353 -0.2600 -0.3717
  497MOL0     C68501   7.958  11.661   7.314 -1.0587 -0.3713  0.7989
  497MOL0     C68502   7.912  11.594   7.200 -0.7578  0.3244  0.6036
  497MOL0     C68503   7.873  11.234   6.890  0.5869 -0.4591 -0.0692
  497MOL0     C68504   7.858  11.100   6.863 -0.5400 -0.5353 -0.1872
  497MOL0     C68505   7.846  11.053   6.735  0.1627 -0.0522  0.1743
  497MOL0     C68506   7.849  11.144   6.623 -0.2731 -0.4023 -0.0637
  497MOL0     O68507   7.825  11.099   6.494 -0.0930  0.0146  0.5472
  497MOL0     C68508   7.903  10.986   6.441  0.8177  0.2144 -0.3584
  497MOL0     C68509   8.053  11.017   6.422 -0.6736  0.1780  0.4298
  497MOL0     C68510   8.136  11.045   6.546  0.6987  0.0727  0.0510
  497MOL0     C68511   8.277  11.077   6.514  0.1794  0.5546 -0.2120
  497MOL0     C68512   8.357  10.969   6.447 -0.3640  1.1054  0.0110
  497MOL0     C68513   8.447  10.895   6.403 -0.5487 -0.1429  0.0892
  497MOL0     C68514   7.859  11.278   6.640 -1.0695 -0.0446 -0.2322
  497MOL0     C68515   7.869  11.328   6.778  0.8429  0.3080  0.2901
  497MOL0     C68516   7.870  11.478   6.789 -0.2897 -0.4207  0.3220
  497MOL0     H68517   7.934  11.277   7.316  1.6648  0.1292  3.3456
  497MOL0     H68518   8.002  11.384   7.509 -0.1169  1.4593  1.7592
  497MOL0     H68519   8.048  11.823   7.511  0.9991  2.5766  1.9644
  497MOL0     H68520   8.065  11.791   7.668  0.5448 -1.6040  1.8126
  497MOL0     H68521   7.837  11.890   7.623  0.9215  0.6810 -1.1138
  497MOL0     H68522   7.790  11.736   7.549  0.4214  1.0521 -0.2821
  497MOL0     H68523   7.880  11.628   7.772  1.3972  1.4762 -0.3870
  497MOL0     H68524   7.883  11.796   7.830  1.4717 -0.8699  0.9020
  497MOL0     H68525   7.641  11.808   7.784  0.6454  0.6510  1.3379
  497MOL0     H68526   7.650  11.639   7.717  0.3865 -0.3006 -0.0775
  497MOL0     H68527   7.563  11.681   7.976 -1.4506 -1.1672 -1.4907
  497MOL0     H68528   7.732  11.708   8.007  1.5166 -1.0186 -0.5178
  497MOL0     H68529   7.645  11.453   7.857  0.2685  2.1757 -1.0349
  497MOL0     H68530   7.797  11.495   7.945 -0.2945  0.7215 -2.7939
  497MOL0     H68531   7.515  11.465   8.057 -0.5341 -1.9902  0.1408
  497MOL0     H68532   7.666  11.487   8.156 -0.4524 -1.6012  0.5681
  497MOL0     H68533   7.635  11.236   7.991  0.0516 -1.8259  0.9445
  497MOL0     H68534   7.733  11.261   8.134 -1.0744 -1.3120  0.9708
  497MOL0     H68535   7.514  11.360   8.349  0.4643 -0.5414 -0.7462
  497MOL0     H68536   7.212  11.292   8.453  0.2776  0.2699 -1.6717
  497MOL0     H68537   7.366  11.244   8.523 -1.2714 -3.3512  1.7572
  497MOL0     H68538   7.189  11.028   8.398 -4.5963  1.1832  1.1697
  497MOL0     H68539   7.313  11.022   8.527  1.0174 -1.4969 -2.8860
  497MOL0     H68540   7.155  11.156   8.683 -1.2409  1.0152 -0.2863
  497MOL0     H68541   7.036  11.152   8.552 -0.5825 -0.7378  0.1471
  497MOL0     H68542   7.014  10.900   8.558 -3.0008  0.2469  1.8683
  497MOL0     H68543   7.136  10.900   8.680  2.6566  1.6839 -1.4699
  497MOL0     H68544   6.840  10.949   8.484 -0.9731  2.4342 -1.1054
  497MOL0     H68545   6.497  10.985   8.380  0.2377 -0.0700 -1.9765
  497MOL0     H68546   6.603  10.844   8.395 -1.3998  0.2497  0.6173
  497MOL0     H68547   6.670  10.992   8.330  0.3863  0.0870  0.0777
  497MOL0     H68548   6.291  11.064   8.329 -1.8660 -2.4071 -1.0389
  497MOL0     H68549   6.080  11.111   8.226  2.5603  0.6223 -1.1170
  497MOL0     H68550   5.951  11.322   8.111  2.1023 -0.3643  2.6178
  497MOL0     H68551   5.869  11.173   8.152  0.4488  0.2561 -0.7308
  497MOL0     H68552   5.653  11.286   8.169  0.1986 -2.4775 -1.7853
  497MOL0     H68553   5.749  11.443   8.153 -1.8068  1.1147 -2.6193
  497MOL0     H68554   5.762  11.240   7.940  1.8255  1.3741 -1.4545
  497MOL0     H68555   5.826  11.400   7.949  0.8419 -0.8457 -0.4862
  497MOL0     H68556   5.620  11.507   7.938 -0.5097  0.2644 -1.7994
  497MOL0     H68557   5.539  11.341   7.969  2.5409 -3.8918  2.0343
  497MOL0     H68558   5.645  11.478   7.727  2.0547  0.4516  2.0717
  497MOL0     H68559   5.665  11.291   7.731 -3.3242 -1.6924 -0.1722
  497MOL0     H68560   5.451  11.356   7.620 -2.8668  1.2856  0.9070
  497MOL0     H68561   5.414  11.448   7.770  1.1386  1.4708 -0.3774
  497MOL0     H68562   5.291  11.241   7.723  1.5075  1.8761 -1.4065
  497MOL0     H68563   5.364  11.240   7.880 -0.4996  1.4394 -0.3060
  497MOL0     H68564   5.537  11.089   7.807 -0.8522  2.4459  2.7425
  497MOL0     H68565   5.495  11.116   7.632 -0.4387 -1.2761  0.2476
  497MOL0     H68566   5.989  11.409   8.515  2.9405  3.7038  0.3921
  497MOL0     H68567   6.205  11.373   8.618 -1.5619 -0.6576 -0.0799
  497MOL0     H68568   6.534  11.115   8.834  0.3357 -0.3989  0.8034
  497MOL0     H68569   6.770  11.077   8.881  1.3121  1.9793 -1.0991
  497MOL0     H68570   7.963  11.769   7.317 -0.2413 -0.4132  1.1203
  497MOL0     H68571   7.890  11.653   7.112 -2.0056  0.0154  0.6755
  497MOL0     H68572   7.851  11.029   6.945  0.1765 -3.5019 -2.5231
  497MOL0     H68573   7.851  10.947   6.713 -0.3984 -0.4793  1.9052
  497MOL0     H68574   7.894  10.906   6.516  2.6046  2.2651  2.2520
  497MOL0     H68575   7.870  10.941   6.348  2.5364  0.0828 -0.9429
  497MOL0     H68576   8.070  11.093   6.345  0.1085  0.7344  1.1295
  497MOL0     H68577   8.096  10.925   6.381  2.2999  0.7486  1.9781
  497MOL0     H68578   8.096  11.128   6.606  3.2580  0.5814  1.1753
  497MOL0     H68579   8.125  10.959   6.614 -2.8780  0.5915  0.3360
  497MOL0     H68580   8.330  11.098   6.608  3.0902  0.1511 -1.6264
  497MOL0     H68581   8.277  11.171   6.459  0.3913  1.0632  0.6472
  497MOL0     H68582   8.517  10.819   6.378 -0.7001 -0.2770  0.0700
  497MOL0     H68583   7.853  11.341   6.552 -1.7267  1.3333  0.7464
  497MOL0     H68584   7.858  11.522   6.690 -0.4035  0.9105  0.8980
  497MOL0     H68585   7.793  11.517   6.857  0.7630  0.5856  0.9729
  497MOL0     H68586   7.968  11.515   6.820  0.1126 -1.3131  0.1411
  498MOL0     O68587   6.229   7.194   0.822 -0.1404  0.0015  0.0359
  498MOL0     C68588   6.235   7.080   0.777 -1.1689 -0.4097 -0.3497
  498MOL0     O68589   6.220   6.966   0.850 -0.2784  0.3881  0.4883
  498MOL0     C68590   6.246   6.967   0.988 -0.6388 -0.2642  0.4944
  498MOL0     C68591   6.184   6.862   1.065  0.2005 -1.1687 -0.1566
  498MOL0     C68592   6.212   6.844   1.199 -0.0775  0.1806 -0.0055
  498MOL0     C68593   6.293   6.938   1.264 -0.5524  0.2207 -1.0977
  498MOL0     O68594   6.312   6.922   1.405  0.1194 -0.6253 -0.4871
  498MOL0     C68595   6.406   7.007   1.467 -0.1312  0.1489 -0.4194
  498MOL0     C68596   6.418   6.962   1.610 -0.6023  0.0767 -0.2657
  498MOL0     C68597   6.515   7.049   1.693  1.2697 -0.5296  0.7730
  498MOL0     C68598   6.506   6.995   1.837 -0.2726  0.4284 -0.1601
  498MOL0     C68599   6.611   7.079   1.919  0.0087 -0.1544  0.4685
  498MOL0     C68600   6.603   7.046   2.067  0.5329  0.3469  0.0426
  498MOL0     C68601   6.478   7.107   2.132 -0.2345 -0.1578 -0.4654
  498MOL0     C68602   6.482   7.124   2.290  0.1438 -0.4811  0.0618
  498MOL0     N68603   6.364   7.195   2.350 -0.1346  0.0836  0.2190
  498MOL0     C68604   6.231   7.162   2.335  0.3186 -0.1721 -1.0935
  498MOL0     C68605   6.171   7.223   2.440 -0.8278 -0.3940 -1.2532
  498MOL0     C68606   6.027   7.215   2.478  0.8668  0.8079  0.3257
  498MOL0     C68607   6.014   7.129   2.605 -0.1048 -0.4580 -0.6937
  498MOL0     C68608   5.897   7.172   2.692 -1.1459  0.3728 -0.0324
  498MOL0     C68609   5.836   7.064   2.766 -0.2995  0.6319  0.6327
  498MOL0     O68610   5.922   7.021   2.875 -0.1146 -0.7799  0.5958
  498MOL0     C68611   5.873   6.937   2.970  0.1986 -0.0880 -0.6886
  498MOL0     C68612   5.740   6.904   2.992  0.3254 -0.8135  0.1527
  498MOL0     C68613   5.706   6.807   3.080  0.6272 -0.2202  0.3522
  498MOL0     C68614   5.563   6.783   3.086  0.3960 -0.4555 -0.4150
  498MOL0     C68615   5.799   6.764   3.182 -0.6032 -0.1090  0.2239
  498MOL0     C68616   5.752   6.677   3.305 -0.6421 -0.5126 -0.0687
  498MOL0     O68617   5.850   6.633   3.388  0.6409 -1.2238 -0.1607
  498MOL0     C68618   5.813   6.545   3.480  1.0876 -0.2388  0.0930
  498MOL0     C68619   5.719   6.567   3.575  0.2030  0.6425  0.3191
  498MOL0     C68620   5.703   6.471   3.677 -0.5559  0.3395  0.1436
  498MOL0     C68621   5.768   6.347   3.680  0.7545  1.2108 -0.5414
  498MOL0     O68622   5.739   6.268   3.790  0.1746 -0.6368 -0.1101
  498MOL0     C68623   5.765   6.128   3.773  0.0271 -0.1736 -0.0543
  498MOL0     C68624   5.706   6.058   3.894 -0.2326 -0.3759  0.1764
  498MOL0     C68625   5.734   5.909   3.899  0.1906 -0.8036  0.0743
  498MOL0     C68626   5.642   5.828   3.806 -0.1784  0.1336  0.8811
  498MOL0     C68627   5.667   5.679   3.808 -0.2160  0.4296 -0.6868
  498MOL0     C68628   5.820   5.640   3.785 -0.2671  0.9218  0.7710
  498MOL0     C68629   5.805   5.491   3.765 -0.6898  0.0721  0.5295
  498MOL0     C68630   5.933   5.416   3.719 -0.1278 -0.3359  0.5060
  498MOL0    Cl68631   6.062   5.435   3.838 -0.7687 -0.1083  0.3139
  498MOL0     C68632   5.863   6.316   3.573 -0.0010 -0.2766  0.7274
  498MOL0     C68633   5.885   6.420   3.482 -1.4491  0.8354 -0.1064
  498MOL0     O68634   5.635   6.661   3.323  0.1887  0.1501  0.7315
  498MOL0     C68635   5.931   6.808   3.173  0.2646 -0.7216 -0.4743
  498MOL0     C68636   5.968   6.890   3.066 -0.2687  0.7642 -0.1467
  498MOL0     N68637   6.261   7.298   2.506 -1.0081  0.1243 -0.0219
  498MOL0     N68638   6.375   7.290   2.450 -0.0602  1.4679  0.2571
  498MOL0     C68639   6.335   7.055   1.197 -0.1165  0.6775  0.5192
  498MOL0     C68640   6.325   7.055   1.057  0.7206  0.3592  0.1058
  498MOL0     C68641   6.231   7.069   0.635 -0.6451 -0.2093  0.1851
  498MOL0     C68642   6.326   7.148   0.563 -0.3862 -0.0169  0.2496
  498MOL0     C68643   6.356   7.128   0.426  0.2619  0.4237  1.2600
  498MOL0     C68644   6.290   7.030   0.360 -0.4239  0.0113  0.0072
  498MOL0     O68645   6.323   7.007   0.223  0.3195 -0.2090 -0.1573
  498MOL0     C68646   6.218   6.965   0.133  0.7770 -0.2031  0.2044
  498MOL0     C68647   6.110   7.072   0.128  0.2633 -0.2230  0.3083
  498MOL0     C68648   5.996   7.050   0.027 -0.1377  0.0698  0.7052
  498MOL0     C68649   6.051   7.082  -0.113 -0.1001  0.8547 -0.0264
  498MOL0     C68650   6.049   7.234  -0.127 -0.4975 -0.6772 -1.0389
  498MOL0     C68651   6.043   7.352  -0.132  0.3367 -0.4904  0.0628
  498MOL0     C68652   6.202   6.949   0.433 -0.5153 -0.7742 -0.1082
  498MOL0     C68653   6.166   6.965   0.568 -0.5038 -0.4772 -0.1368
  498MOL0     C68654   6.048   6.882   0.620 -0.2495 -0.3576  0.6627
  498MOL0     H68655   6.106   6.802   1.020 -0.4142  1.4845 -2.9763
  498MOL0     H68656   6.172   6.758   1.251  2.7172 -0.8303  0.6378
  498MOL0     H68657   6.363   7.108   1.475 -2.2684 -0.6804 -0.7032
  498MOL0     H68658   6.501   7.009   1.414  0.4550  2.9894  0.5850
  498MOL0     H68659   6.321   6.949   1.659  0.3278  0.2730  1.7038
  498MOL0     H68660   6.450   6.858   1.597 -3.7563 -1.0323  0.0057
  498MOL0     H68661   6.612   7.046   1.642  1.4102  1.6881  0.8177
  498MOL0     H68662   6.480   7.153   1.696  4.1215  0.5101  3.2073
  498MOL0     H68663   6.408   7.011   1.882  0.1842 -1.4693  1.6244
  498MOL0     H68664   6.530   6.889   1.840 -0.5976  0.3617  0.0915
  498MOL0     H68665   6.597   7.187   1.917  0.3869 -0.0679  1.4714
  498MOL0     H68666   6.712   7.047   1.890 -0.3368 -1.8838  1.0501
  498MOL0     H68667   6.605   6.937   2.071  1.7839  0.2654 -1.9240
  498MOL0     H68668   6.684   7.086   2.130 -0.1460 -0.1338  1.2723
  498MOL0     H68669   6.399   7.034   2.111 -0.6476  0.5001 -1.2353
  498MOL0     H68670   6.459   7.204   2.085  2.9447  1.3279  1.0329
  498MOL0     H68671   6.501   7.025   2.334  0.5945 -0.7318 -0.6863
  498MOL0     H68672   6.570   7.187   2.308  0.5652 -0.3298 -2.2475
  498MOL0     H68673   6.182   7.090   2.270 -1.7160 -1.9220  2.0978
  498MOL0     H68674   5.964   7.164   2.405 -1.9297  2.1327  1.6613
  498MOL0     H68675   5.984   7.315   2.484 -1.3169 -0.0928  0.4779
  498MOL0     H68676   5.986   7.028   2.571 -1.4835 -1.8732  3.8866
  498MOL0     H68677   6.107   7.127   2.661 -0.7778  0.3433  0.4933
  498MOL0     H68678   5.923   7.259   2.754  0.5957  0.0904 -0.3028
  498MOL0     H68679   5.829   7.221   2.623 -3.1041 -1.1058  0.7585
  498MOL0     H68680   5.741   7.100   2.806 -0.3345  0.8655  0.3383
  498MOL0     H68681   5.824   6.981   2.697  5.3216  1.4820 -1.9451
  498MOL0     H68682   5.674   6.949   2.919  0.8903 -0.2779 -0.0384
  498MOL0     H68683   5.541   6.676   3.091  1.7935 -0.9147 -2.8160
  498MOL0     H68684   5.504   6.828   3.006 -0.4560  0.1771  0.5402
  498MOL0     H68685   5.527   6.837   3.174 -0.8543 -1.2350 -0.4089
  498MOL0     H68686   5.670   6.663   3.572  0.5721  0.8123 -0.4635
  498MOL0     H68687   5.636   6.503   3.756 -0.6999  2.6298 -0.8487
  498MOL0     H68688   5.716   6.090   3.683  2.7456 -0.9053 -1.3210
  498MOL0     H68689   5.872   6.105   3.770  0.5243  1.9218 -0.1028
  498MOL0     H68690   5.749   6.102   3.985  0.0888 -0.3820  0.0293
  498MOL0     H68691   5.602   6.089   3.888  0.3149  1.5929 -0.0083
  498MOL0     H68692   5.726   5.870   4.001  3.3850  1.5042  1.3694
  498MOL0     H68693   5.836   5.894   3.862  0.4375  0.2110  0.3189
  498MOL0     H68694   5.643   5.870   3.705  0.8475 -1.0230  0.3866
  498MOL0     H68695   5.537   5.848   3.832 -0.5336 -2.0237  1.3154
  498MOL0     H68696   5.630   5.644   3.905 -2.2668  2.7229 -0.5566
  498MOL0     H68697   5.599   5.639   3.732 -1.4954  0.9135  0.1723
  498MOL0     H68698   5.880   5.653   3.875  3.5965  0.2615 -1.4875
  498MOL0     H68699   5.867   5.702   3.708 -0.4698 -1.5012 -1.4798
  498MOL0     H68700   5.724   5.456   3.700  0.5347 -1.4869 -0.2464
  498MOL0     H68701   5.771   5.451   3.861  1.5634  0.1469  1.4251
  498MOL0     H68702   5.963   5.476   3.632 -0.7385  2.9345  2.3937
  498MOL0     H68703   5.926   5.309   3.698  0.0436 -0.3797  0.6664
  498MOL0     H68704   5.926   6.228   3.562 -0.0658 -0.0418 -2.1057
  498MOL0     H68705   5.965   6.411   3.410  1.7979  3.2496  2.8194
  498MOL0     H68706   6.004   6.776   3.247  2.3627 -1.2119 -2.6220
  498MOL0     H68707   6.065   6.932   3.042 -0.9996  2.4961 -0.2236
  498MOL0     H68708   6.399   7.130   1.243  2.0062  0.9367 -2.5617
  498MOL0     H68709   6.366   7.143   1.009 -0.2271  0.4699 -0.5268
  498MOL0     H68710   6.377   7.233   0.606  0.7388 -0.4637 -0.1836
  498MOL0     H68711   6.440   7.178   0.378  1.3751  1.3045  3.9539
  498MOL0     H68712   6.263   6.939   0.037 -1.1001 -0.8890 -0.5352
  498MOL0     H68713   6.167   6.873   0.165 -3.3763  0.9832 -2.3269
  498MOL0     H68714   6.156   7.168   0.103 -0.2902 -0.1321 -0.4003
  498MOL0     H68715   6.058   7.096   0.222 -0.8721  2.1970 -0.8356
  498MOL0     H68716   5.938   6.957   0.030  0.9682 -0.6001  2.0806
  498MOL0     H68717   5.922   7.125   0.057  2.5476  2.2060  2.4349
  498MOL0     H68718   5.990   7.032  -0.189 -1.4618  0.6569  1.1453
  498MOL0     H68719   6.153   7.047  -0.125 -0.6465 -1.3860  1.3946
  498MOL0     H68720   6.050   7.459  -0.120  2.0080 -0.9260  6.1651
  498MOL0     H68721   6.142   6.876   0.380 -0.2170 -0.7485 -0.4879
  498MOL0     H68722   5.985   6.946   0.684  1.0947  0.8928  0.7885
  498MOL0     H68723   5.985   6.835   0.544 -0.7058 -1.3392  1.6171
  498MOL0     H68724   6.087   6.794   0.672  2.0376 -1.3042 -2.3537
  499MOL0     O68725   1.117   5.977   5.700 -0.0246 -0.1612  0.0804
  499MOL0     C68726   1.019   5.978   5.767 -0.7257  0.1995 -1.1481
  499MOL0     O68727   0.999   6.055   5.880  0.3256  0.4205 -0.0826
  499MOL0     C68728   1.085   6.143   5.929  0.1304  0.0950  0.6176
  499MOL0     C68729   1.191   6.205   5.859 -0.5571 -0.7903 -0.0097
  499MOL0     C68730   1.291   6.270   5.927  0.8903  0.0995  0.3108
  499MOL0     C68731   1.292   6.287   6.061  0.1008  0.3526  0.3267
  499MOL0     O68732   1.382   6.350   6.142 -0.3291  0.4804 -0.0137
  499MOL0     C68733   1.498   6.392   6.076  1.0021 -0.5788 -0.6863
  499MOL0     C68734   1.595   6.459   6.174  0.0608 -0.3250 -0.0353
  499MOL0     C68735   1.645   6.365   6.287 -0.7031  0.1516 -0.2289
  499MOL0     C68736   1.719   6.445   6.399 -0.3388  0.3359 -0.5090
  499MOL0     C68737   1.772   6.357   6.514  1.0968  0.7799  0.4364
  499MOL0     C68738   1.860   6.439   6.605  0.8216  0.7294 -0.2210
  499MOL0     C68739   1.875   6.373   6.745  0.1586  0.1346  0.1888
  499MOL0     C68740   1.933   6.225   6.754  0.9414  0.1751  0.0963
  499MOL0     N68741   2.065   6.226   6.698 -0.4738 -0.9153 -0.2674
  499MOL0     C68742   2.082   6.179   6.570  0.3953 -0.2327 -0.7160
  499MOL0     C68743   2.219   6.192   6.558  0.2931  0.2283  0.3181
  499MOL0     C68744   2.302   6.182   6.428  1.0163 -0.0023 -0.2444
  499MOL0     C68745   2.446   6.150   6.449  0.1978 -0.0550 -0.6637
  499MOL0     C68746   2.498   6.011   6.477  0.0423  0.7545 -0.2835
  499MOL0     C68747   2.652   6.028   6.496  0.5284  0.7012  0.6333
  499MOL0     O68748   2.676   6.052   6.631  0.0853 -0.0261 -0.1916
  499MOL0     C68749   2.806   6.069   6.672 -0.6523 -0.2727 -0.3648
  499MOL0     C68750   2.867   5.954   6.713 -1.2654  0.7984 -0.2354
  499MOL0     C68751   2.999   5.962   6.766  0.7205  0.0956 -0.7765
  499MOL0     C68752   3.057   5.832   6.812 -0.4598 -0.5077  0.1332
  499MOL0     C68753   3.061   6.092   6.784 -0.9282  1.0612 -0.0683
  499MOL0     C68754   3.198   6.113   6.828  0.2662 -0.1979 -1.0693
  499MOL0     O68755   3.292   6.165   6.740 -0.4797 -0.2258 -0.0735
  499MOL0     C68756   3.421   6.191   6.789  0.1247 -0.7174 -0.1396
  499MOL0     C68757   3.519   6.096   6.774  0.0339  0.0626 -1.1608
  499MOL0     C68758   3.644   6.128   6.829  0.0737  0.0495 -0.1591
  499MOL0     C68759   3.676   6.263   6.863  0.3182  0.0497 -0.5292
  499MOL0     O68760   3.794   6.317   6.907 -0.3649  0.4555  0.3808
  499MOL0     C68761   3.877   6.217   6.968  0.9022 -0.1511  0.0519
  499MOL0     C68762   3.998   6.282   7.032  0.0627 -0.0739  0.4045
  499MOL0     C68763   4.069   6.354   6.910  0.4991 -0.1990 -0.4116
  499MOL0     C68764   4.221   6.385   6.938  0.0569  0.2515  0.7186
  499MOL0     C68765   4.277   6.477   6.831  0.6223  0.8175 -0.5879
  499MOL0     C68766   4.224   6.624   6.829 -0.5137 -0.1644  0.3390
  499MOL0     C68767   4.302   6.704   6.937 -0.6579 -0.2666 -0.2929
  499MOL0     C68768   4.236   6.836   6.947  0.2464 -0.5872 -0.8434
  499MOL0    Cl68769   4.291   6.918   7.089 -0.0880  0.0420 -0.3500
  499MOL0     C68770   3.575   6.363   6.846  0.4737 -0.4047 -0.0099
  499MOL0     C68771   3.444   6.331   6.817  0.0440 -0.6397  0.1407
  499MOL0     O68772   3.230   6.068   6.941  0.4491  0.5363 -0.4701
  499MOL0     C68773   2.989   6.207   6.753  0.3589 -0.0909 -0.1892
  499MOL0     C68774   2.860   6.192   6.701  0.4792  0.0791  0.1327
  499MOL0     N68775   2.273   6.241   6.669 -0.1665 -0.0722 -0.3661
  499MOL0     N68776   2.188   6.255   6.758  1.3198 -0.4191 -0.5230
  499MOL0     C68777   1.173   6.259   6.133 -0.1052  0.2918  0.1711
  499MOL0     C68778   1.077   6.183   6.066 -0.1777  0.5480  0.0155
  499MOL0     C68779   0.905   5.894   5.727 -0.0505  0.0787  0.2936
  499MOL0     C68780   0.813   5.841   5.823  0.6800 -0.0464 -0.5878
  499MOL0     C68781   0.704   5.760   5.779  0.7518  0.1471 -0.7529
  499MOL0     C68782   0.690   5.722   5.647 -0.0792  0.0574 -0.4813
  499MOL0     O68783   0.588   5.643   5.593  0.0832 -0.6953  0.2031
  499MOL0     C68784   0.540   5.537   5.682  0.0462 -0.3190  0.6350
  499MOL0     C68785   0.496   5.414   5.601 -1.0111  0.1286 -0.3759
  499MOL0     C68786   0.369   5.432   5.525 -0.7121 -0.8912 -0.2363
  499MOL0     C68787   0.307   5.297   5.481  0.4046  0.5651 -1.1569
  499MOL0     C68788   0.194   5.318   5.403  0.4185 -0.2464 -0.4606
  499MOL0     C68789   0.095   5.350   5.338 -0.0731  0.5699 -1.0569
  499MOL0     C68790   0.786   5.762   5.559 -0.0185 -0.0609  0.1813
  499MOL0     C68791   0.886   5.851   5.591 -0.1435 -0.6952 -0.9173
  499MOL0     C68792   0.974   5.904   5.480  0.1140  1.2369 -0.3659
  499MOL0     H68793   1.191   6.195   5.751  0.3391 -2.4202  0.1023
  499MOL0     H68794   1.362   6.327   5.868 -0.5067  1.2381 -0.3411
  499MOL0     H68795   1.475   6.463   5.996 -0.3805 -0.9268 -0.6213
  499MOL0     H68796   1.550   6.306   6.033  0.4217 -1.0075 -0.5484
  499MOL0     H68797   1.680   6.505   6.122 -2.0283  3.9228 -0.1008
  499MOL0     H68798   1.543   6.547   6.212  0.3314  0.5450 -1.6183
  499MOL0     H68799   1.572   6.311   6.349  1.8093 -2.0692  1.0225
  499MOL0     H68800   1.713   6.285   6.254 -0.4891  0.5242 -0.7023
  499MOL0     H68801   1.804   6.504   6.362  0.8957  0.9159  2.9238
  499MOL0     H68802   1.646   6.519   6.432 -0.7900 -0.8750  1.3539
  499MOL0     H68803   1.808   6.261   6.477  1.7498  0.5129  1.6985
  499MOL0     H68804   1.683   6.342   6.577 -1.3518 -1.7968 -3.2366
  499MOL0     H68805   1.953   6.461   6.550 -0.7875  0.2565 -3.3521
  499MOL0     H68806   1.809   6.534   6.622 -1.5893 -0.4673 -0.3564
  499MOL0     H68807   1.775   6.367   6.790  0.1539 -3.1947  0.0190
  499MOL0     H68808   1.941   6.436   6.804  2.6211  0.1715 -2.3726
  499MOL0     H68809   1.938   6.187   6.856  1.7887  2.3531  0.9429
  499MOL0     H68810   1.872   6.163   6.688  0.6002  0.6579 -0.0462
  499MOL0     H68811   2.011   6.125   6.508  1.5431 -0.9919 -1.4308
  499MOL0     H68812   2.300   6.275   6.371  3.0145  0.8316  0.9704
  499MOL0     H68813   2.268   6.118   6.345  2.2281  2.6793 -3.0045
  499MOL0     H68814   2.496   6.198   6.365 -0.3574  1.1366 -0.3458
  499MOL0     H68815   2.476   6.212   6.535 -1.1871  0.4546 -0.5197
  499MOL0     H68816   2.457   5.958   6.564 -1.4618  1.1690 -0.7141
  499MOL0     H68817   2.479   5.953   6.387  1.0877  0.9983 -0.6700
  499MOL0     H68818   2.703   5.932   6.482 -1.1210 -0.0362 -0.5311
  499MOL0     H68819   2.702   6.103   6.433  0.1277  1.5433  1.2910
  499MOL0     H68820   2.818   5.858   6.698 -0.3370  0.0233  1.3280
  499MOL0     H68821   2.990   5.750   6.839  0.1526 -1.4184 -1.0151
  499MOL0     H68822   3.137   5.848   6.884  1.3844 -1.0535 -1.6848
  499MOL0     H68823   3.106   5.787   6.725 -0.5315 -1.3785  0.5308
  499MOL0     H68824   3.494   5.995   6.746  0.1009  0.0701 -1.2465
  499MOL0     H68825   3.721   6.051   6.828  2.5375  2.3643  0.0660
  499MOL0     H68826   3.823   6.177   7.055 -4.1056  0.7351 -2.3380
  499MOL0     H68827   3.897   6.130   6.904 -0.3389  0.3438 -1.0347
  499MOL0     H68828   3.978   6.350   7.116 -1.8622  3.1276 -2.4060
  499MOL0     H68829   4.075   6.208   7.055  2.1134  1.4461 -1.2792
  499MOL0     H68830   4.012   6.445   6.891  2.1829  1.0475  0.3154
  499MOL0     H68831   4.059   6.287   6.824  1.5658  0.9565 -1.4638
  499MOL0     H68832   4.280   6.293   6.943 -0.8410 -0.5788 -2.2425
  499MOL0     H68833   4.252   6.444   7.025  3.7084 -0.3240 -0.0069
  499MOL0     H68834   4.386   6.486   6.842  0.5475  2.7785 -1.0945
  499MOL0     H68835   4.252   6.436   6.732 -2.0788  2.1588 -0.5395
  499MOL0     H68836   4.115   6.628   6.838 -0.6971  0.1283 -1.6629
  499MOL0     H68837   4.246   6.671   6.733  0.4266 -0.7542  0.2492
  499MOL0     H68838   4.406   6.702   6.903 -1.0774 -0.9022 -1.6292
  499MOL0     H68839   4.301   6.656   7.035 -1.2339 -0.2887 -0.3023
  499MOL0     H68840   4.127   6.830   6.953  0.1856  1.3439  1.7312
  499MOL0     H68841   4.252   6.897   6.857 -0.5829  0.3652 -0.3655
  499MOL0     H68842   3.601   6.468   6.858 -2.5781  0.3961  0.6090
  499MOL0     H68843   3.364   6.404   6.814  0.8958  0.3125 -0.0077
  499MOL0     H68844   3.028   6.304   6.780  1.0655 -1.0444  2.5908
  499MOL0     H68845   2.809   6.285   6.677  2.1762  0.9614 -0.2127
  499MOL0     H68846   1.179   6.286   6.237  3.1475 -2.8872  1.0181
  499MOL0     H68847   0.991   6.155   6.126 -0.9700 -2.4193 -2.2654
  499MOL0     H68848   0.822   5.871   5.926 -1.7928 -0.0431 -0.3130
  499MOL0     H68849   0.621   5.723   5.839  1.5906 -0.0446  0.3263
  499MOL0     H68850   0.616   5.495   5.748  2.1609 -0.1527 -1.5764
  499MOL0     H68851   0.453   5.575   5.738 -0.2615  2.3359 -1.4737
  499MOL0     H68852   0.490   5.340   5.681  0.6387 -0.6549 -0.9194
  499MOL0     H68853   0.570   5.375   5.530 -0.4320 -0.3949  0.4998
  499MOL0     H68854   0.298   5.490   5.584 -1.1495 -1.3391 -0.3052
  499MOL0     H68855   0.386   5.494   5.437  0.2468  2.9464  2.4329
  499MOL0     H68856   0.279   5.247   5.575  0.1491 -1.0737 -2.0617
  499MOL0     H68857   0.378   5.233   5.427 -0.5766 -3.5448  1.8569
  499MOL0     H68858   0.009   5.382   5.283  0.1683 -0.3385 -2.0154
  499MOL0     H68859   0.780   5.726   5.457  0.1858  0.8357 -0.1581
  499MOL0     H68860   0.943   5.876   5.379  1.7140 -1.8344 -0.1079
  499MOL0     H68861   0.993   6.012   5.487 -3.0425  1.8781 -0.3780
  499MOL0     H68862   1.071   5.853   5.475 -1.7339 -2.5256 -0.8663
  500MOL0     O68863   5.775   2.700   1.015 -0.3796  0.5610  0.5616
  500MOL0     C68864   5.899   2.688   1.002  0.7058  0.2054 -0.0114
  500MOL0     O68865   5.989   2.692   1.109 -0.3912  0.6361  0.7482
  500MOL0     C68866   5.958   2.685   1.239 -0.2589 -0.1901  0.0254
  500MOL0     C68867   5.844   2.643   1.306 -0.1584  0.0611 -1.1784
  500MOL0     C68868   5.841   2.640   1.445 -0.4902  0.5000  0.2922
  500MOL0     C68869   5.948   2.688   1.522 -0.5080  0.2246 -0.2615
  500MOL0     O68870   5.943   2.690   1.664 -0.3576  0.5994 -0.4113
  500MOL0     C68871   6.037   2.610   1.741  0.1070 -0.0041  0.5437
  500MOL0     C68872   6.070   2.662   1.878  0.1520 -0.0709  0.1249
  500MOL0     C68873   6.164   2.580   1.953 -2.0362 -0.5003 -0.1196
  500MOL0     C68874   6.263   2.655   2.045  0.5848 -0.4575  0.1905
  500MOL0     C68875   6.198   2.768   2.144  0.2456 -0.3184 -0.5855
  500MOL0     C68876   6.080   2.713   2.224 -0.5783 -0.1579  0.4566
  500MOL0     C68877   6.029   2.806   2.337  0.4145  0.7411  0.0600
  500MOL0     C68878   5.975   2.946   2.293 -0.0415 -0.5591  0.0812
  500MOL0     N68879   5.865   2.937   2.202 -0.1870 -0.2992  0.2749
  500MOL0     C68880   5.875   2.920   2.064  0.0609  0.4430 -0.0646
  500MOL0     C68881   5.752   2.897   2.023 -0.4851 -0.9726  0.9021
  500MOL0     C68882   5.728   2.878   1.875 -0.7603 -0.5667  0.3443
  500MOL0     C68883   5.605   2.791   1.836 -0.0340 -0.3453  0.5399
  500MOL0     C68884   5.562   2.791   1.693  0.3174 -0.1803  0.0283
  500MOL0     C68885   5.565   2.920   1.622 -0.5078 -0.5315 -0.6278
  500MOL0     O68886   5.472   2.933   1.514  0.3906 -0.2110  0.3677
  500MOL0     C68887   5.340   2.959   1.546 -0.1953  0.1736  0.7479
  500MOL0     C68888   5.251   2.985   1.438 -0.8170  0.2752 -0.8958
  500MOL0     C68889   5.122   3.024   1.459  0.1350  0.7798 -0.2087
  500MOL0     C68890   5.040   3.038   1.342  0.4074 -0.0263 -0.0326
  500MOL0     C68891   5.082   3.046   1.598 -0.1071  0.1525  0.3317
  500MOL0     C68892   4.950   3.079   1.633 -0.4553  0.2395 -0.1442
  500MOL0     O68893   4.886   2.989   1.714 -0.3986  0.3256 -0.0304
  500MOL0     C68894   4.764   3.017   1.777  0.0430 -0.2575 -0.2565
  500MOL0     C68895   4.748   3.134   1.841 -0.7633 -1.1799 -0.2042
  500MOL0     C68896   4.634   3.164   1.917  0.5149  0.4525 -1.3676
  500MOL0     C68897   4.538   3.064   1.927 -0.0272  0.2226  0.8348
  500MOL0     O68898   4.425   3.103   1.995  0.1055 -0.5383  0.1639
  500MOL0     C68899   4.314   3.011   1.989  1.0329  0.6082 -0.1114
  500MOL0     C68900   4.176   3.069   2.033 -0.4461  0.0908 -0.7426
  500MOL0     C68901   4.174   3.136   2.168  0.0680 -0.5780 -0.1224
  500MOL0     C68902   4.037   3.181   2.215 -0.0860 -0.1097  0.8508
  500MOL0     C68903   3.936   3.070   2.233 -0.9021 -0.0782 -0.1186
  500MOL0     C68904   3.824   3.112   2.323 -0.4840  0.4425  0.5133
  500MOL0     C68905   3.738   2.990   2.350  0.4639 -0.9449  0.8378
  500MOL0     C68906   3.676   2.980   2.492 -0.1226 -0.1642  0.2666
  500MOL0    Cl68907   3.810   2.948   2.605  0.3782 -0.2607  0.2386
  500MOL0     C68908   4.551   2.937   1.862  0.3432  0.3785 -0.4053
  500MOL0     C68909   4.669   2.916   1.791 -0.3852  0.5267 -0.1885
  500MOL0     O68910   4.906   3.191   1.611  0.3020  0.0391  0.0317
  500MOL0     C68911   5.163   3.024   1.704 -0.9138  0.9031 -0.5993
  500MOL0     C68912   5.292   2.974   1.677  0.3034 -0.5964  0.3321
  500MOL0     N68913   5.671   2.907   2.134  1.1528  0.1564 -0.0615
  500MOL0     N68914   5.737   2.941   2.239  0.0047  0.2186 -0.9218
  500MOL0     C68915   6.059   2.733   1.448 -0.1415 -0.1314 -0.1393
  500MOL0     C68916   6.066   2.736   1.311  0.4747  0.2041  0.3250
  500MOL0     C68917   5.955   2.650   0.865 -0.9044 -0.2875 -0.6836
  500MOL0     C68918   5.875   2.686   0.757  0.3349  0.0404  0.9741
  500MOL0     C68919   5.924   2.649   0.626  0.4825 -0.1692 -0.2009
  500MOL0     C68920   6.040   2.589   0.607 -0.6587  0.2276  0.5136
  500MOL0     O68921   6.071   2.550   0.477  0.6696 -0.6565 -0.1081
  500MOL0     C68922   6.056   2.414   0.446 -0.4440  0.1187 -0.0955
  500MOL0     C68923   6.107   2.398   0.302 -0.3049 -0.4155 -0.7046
  500MOL0     C68924   6.250   2.441   0.289 -0.1027 -0.4739  0.3478
  500MOL0     C68925   6.348   2.360   0.195 -0.1085 -0.6723  0.8798
  500MOL0     C68926   6.472   2.438   0.181 -0.6459 -0.0957  0.4128
  500MOL0     C68927   6.579   2.506   0.184  1.8365 -0.4910  0.8283
  500MOL0     C68928   6.120   2.549   0.717  0.1102 -0.4877 -0.2417
  500MOL0     C68929   6.078   2.581   0.847  0.0361  0.6956 -0.3629
  500MOL0     C68930   6.167   2.521   0.958  0.7378 -0.0517 -0.0129
  500MOL0     H68931   5.757   2.595   1.261  0.2178  0.6485 -2.5999
  500MOL0     H68932   5.748   2.606   1.488 -1.5534 -0.2177 -2.3442
  500MOL0     H68933   6.130   2.623   1.685  0.3914  1.1413  1.2463
  500MOL0     H68934   6.003   2.506   1.744 -0.3776  0.0868 -1.0355
  500MOL0     H68935   6.115   2.761   1.866 -1.1972  0.6678  0.9507
  500MOL0     H68936   5.970   2.680   1.919 -1.2131  3.0418 -3.8620
  500MOL0     H68937   6.105   2.508   2.011 -3.9040  1.1818  0.2064
  500MOL0     H68938   6.237   2.533   1.886  4.0012  4.5827  2.0256
  500MOL0     H68939   6.310   2.578   2.107  0.4848 -0.3345  0.4208
  500MOL0     H68940   6.341   2.698   1.982 -0.1125  0.5275 -0.0309
  500MOL0     H68941   6.166   2.859   2.092  0.5584  1.1925  1.6917
  500MOL0     H68942   6.274   2.802   2.216 -2.1313 -2.3348  3.1728
  500MOL0     H68943   6.005   2.691   2.148 -1.1175 -2.2598  1.5220
  500MOL0     H68944   6.102   2.615   2.267 -1.2032  0.1856  1.6080
  500MOL0     H68945   6.098   2.814   2.422  0.8744 -2.7261  0.1477
  500MOL0     H68946   5.938   2.755   2.369  0.6335 -0.5456 -1.2751
  500MOL0     H68947   5.939   3.006   2.377 -0.4090 -2.3223  1.2268
  500MOL0     H68948   6.047   3.004   2.234 -2.0138  0.2819 -1.6117
  500MOL0     H68949   5.965   2.923   2.002 -0.5814 -0.6686 -1.0861
  500MOL0     H68950   5.815   2.844   1.818 -1.4979  2.2691 -2.8462
  500MOL0     H68951   5.719   2.981   1.838  1.4703  0.4999  2.5050
  500MOL0     H68952   5.612   2.689   1.873 -1.0536 -0.7034 -0.2202
  500MOL0     H68953   5.517   2.827   1.891 -1.3466 -1.0826 -0.9888
  500MOL0     H68954   5.623   2.716   1.640  2.3260  0.7632  0.8890
  500MOL0     H68955   5.459   2.757   1.700  0.0125  0.8644  0.7129
  500MOL0     H68956   5.545   3.005   1.688 -1.5530  0.9832 -2.7861
  500MOL0     H68957   5.665   2.933   1.580  1.5483 -4.1427  2.4792
  500MOL0     H68958   5.296   2.986   1.339  0.4005  3.5479 -0.4350
  500MOL0     H68959   4.964   3.116   1.355 -0.4366 -0.9360  0.5783
  500MOL0     H68960   4.979   2.949   1.328 -1.2994  0.9744  0.6608
  500MOL0     H68961   5.105   3.067   1.259 -0.1031  2.0301  0.2154
  500MOL0     H68962   4.826   3.207   1.854 -0.2477 -1.3999 -1.8421
  500MOL0     H68963   4.598   3.255   1.964 -1.4293 -0.6951 -0.5292
  500MOL0     H68964   4.306   2.983   1.883  0.8375  0.3939 -0.0415
  500MOL0     H68965   4.336   2.922   2.049  0.3581  1.4795  1.4890
  500MOL0     H68966   4.147   3.144   1.958  0.4551 -1.1615 -2.4073
  500MOL0     H68967   4.104   2.987   2.033  1.0912 -1.3102 -0.2546
  500MOL0     H68968   4.233   3.228   2.163 -0.9248  0.0821  0.0614
  500MOL0     H68969   4.223   3.073   2.243  0.3984 -0.8906 -0.5982
  500MOL0     H68970   3.999   3.267   2.159  1.8356  0.1756 -0.0794
  500MOL0     H68971   4.048   3.211   2.320  0.4107 -2.6109  1.5984
  500MOL0     H68972   3.901   3.040   2.134 -0.8206 -0.0966 -0.1422
  500MOL0     H68973   3.985   2.987   2.286 -3.1482 -2.1247 -1.0373
  500MOL0     H68974   3.759   3.186   2.275  1.0676  1.4205 -0.1649
  500MOL0     H68975   3.872   3.160   2.409  3.5461 -2.3421  0.0908
  500MOL0     H68976   3.787   2.894   2.334 -0.6099 -1.5918  1.3149
  500MOL0     H68977   3.655   2.999   2.278  1.7567  2.2046 -0.4872
  500MOL0     H68978   3.609   2.895   2.509 -0.1872 -0.0241  0.7212
  500MOL0     H68979   3.622   3.072   2.515  1.5040  0.4134  1.9227
  500MOL0     H68980   4.482   2.853   1.864 -1.3871  1.7087 -1.5080
  500MOL0     H68981   4.678   2.819   1.743 -0.1766  1.0602 -1.2765
  500MOL0     H68982   5.140   3.031   1.810  3.4413 -0.1914  0.6337
  500MOL0     H68983   5.360   2.949   1.758  1.9237  0.2369 -0.7051
  500MOL0     H68984   6.148   2.767   1.498  0.1045 -0.2775 -0.4710
  500MOL0     H68985   6.155   2.768   1.258  0.9305 -1.0881  0.2611
  500MOL0     H68986   5.788   2.752   0.764 -0.1858 -0.7353  2.4493
  500MOL0     H68987   5.858   2.682   0.545 -0.7097  1.1178  1.2252
  500MOL0     H68988   6.126   2.358   0.508 -0.8703  2.8336  3.1523
  500MOL0     H68989   5.952   2.384   0.463  0.4383 -1.4847  3.4028
  500MOL0     H68990   6.047   2.468   0.243  1.3839  2.8082  1.0626
  500MOL0     H68991   6.088   2.294   0.274 -3.7677  0.0176 -0.4657
  500MOL0     H68992   6.249   2.544   0.252  1.1707 -0.3226  0.6805
  500MOL0     H68993   6.290   2.450   0.390  0.6246 -0.9965  0.1138
  500MOL0     H68994   6.308   2.366   0.093  1.7002 -0.2104  0.1455
  500MOL0     H68995   6.372   2.258   0.225 -1.8695 -0.9661  1.4011
  500MOL0     H68996   6.658   2.575   0.162  2.1514 -0.8657  0.7683
  500MOL0     H68997   6.209   2.494   0.688 -0.9095 -2.9060  0.9443
  500MOL0     H68998   6.214   2.598   1.019  1.8814 -0.7499  0.0073
  500MOL0     H68999   6.105   2.457   1.022  2.4236 -0.0903  1.6533
  500MOL0     H69000   6.248   2.456   0.926  1.0989 -0.3339  1.4248
  501MOL0     O69001   5.568  10.860   6.104  0.6314 -0.6063 -0.9010
  501MOL0     C69002   5.570  10.800   6.002 -0.2150  0.4035  0.5723
  501MOL0     O69003   5.688  10.768   5.934  0.3237  0.9376  0.3427
  501MOL0     C69004   5.809  10.786   6.001  0.6092  0.1179 -0.1118
  501MOL0     C69005   5.851  10.912   6.041  0.3323 -0.2003 -0.1840
  501MOL0     C69006   5.968  10.926   6.117 -0.6101  0.0233  0.5527
  501MOL0     C69007   6.053  10.824   6.159 -0.3228  0.6912  0.5664
  501MOL0     O69008   6.175  10.857   6.217 -0.4260 -0.1672  0.4840
  501MOL0     C69009   6.252  10.752   6.280 -0.7733 -1.4218  1.2073
  501MOL0     C69010   6.368  10.801   6.360 -1.1214 -0.6322  0.9276
  501MOL0     C69011   6.493  10.840   6.280 -0.3020  0.6080  0.3865
  501MOL0     C69012   6.467  10.948   6.174  0.4188  0.2423 -0.8828
  501MOL0     C69013   6.424  11.084   6.238 -0.2174  0.5700  0.6627
  501MOL0     C69014   6.438  11.177   6.121 -0.7568 -0.3683  0.3734
  501MOL0     C69015   6.415  11.331   6.145 -0.3893  0.9284  0.0167
  501MOL0     C69016   6.527  11.396   6.233  0.0707  0.6012  0.3757
  501MOL0     N69017   6.496  11.529   6.275  0.1820  1.1368  0.2175
  501MOL0     C69018   6.417  11.622   6.203 -0.4372  0.0587 -0.0733
  501MOL0     C69019   6.372  11.705   6.300 -0.0999 -0.9323 -0.4258
  501MOL0     C69020   6.279  11.816   6.280  0.1954 -0.2313 -0.2770
  501MOL0     C69021   6.139  11.759   6.283  0.4039  0.4104 -0.2598
  501MOL0     C69022   6.089  11.681   6.158 -1.1048  0.2898 -0.1320
  501MOL0     C69023   5.940  11.661   6.156  0.1378  0.2233  0.3812
  501MOL0     O69024   5.899  11.589   6.033 -0.3839  0.7522  0.1421
  501MOL0     C69025   5.770  11.560   6.002  0.2336  0.2023 -0.2446
  501MOL0     C69026   5.752  11.543   5.861  0.1841  0.3351  0.5250
  501MOL0     C69027   5.622  11.545   5.807  0.3047  0.2833 -0.9517
  501MOL0     C69028   5.605  11.542   5.657 -0.3713  0.6967 -0.0972
  501MOL0     C69029   5.507  11.553   5.900  0.2479 -0.1472  0.7896
  501MOL0     C69030   5.370  11.542   5.849 -0.3944 -0.4458 -0.0455
  501MOL0     O69031   5.290  11.477   5.938 -0.0770  0.0881  0.0711
  501MOL0     C69032   5.152  11.469   5.920 -0.4122 -0.2833  0.2673
  501MOL0     C69033   5.085  11.461   5.797 -0.1457 -1.0444 -0.0680
  501MOL0     C69034   4.949  11.444   5.788 -0.5488 -1.0225  0.4502
  501MOL0     C69035   4.876  11.426   5.902 -0.2689  0.8292  0.3850
  501MOL0     O69036   4.747  11.399   5.878  0.7754  0.3139 -0.4578
  501MOL0     C69037   4.684  11.291   5.959  0.4582 -0.5153  0.0662
  501MOL0     C69038   4.573  11.220   5.878 -0.4806 -0.6447  0.1592
  501MOL0     C69039   4.496  11.126   5.969 -0.4217 -0.0647 -0.4795
  501MOL0     C69040   4.382  11.056   5.892  0.3493  0.8536  0.4948
  501MOL0     C69041   4.328  10.937   5.972  0.2341  0.4585 -0.1032
  501MOL0     C69042   4.245  10.983   6.075 -0.4882  0.0718  0.2995
  501MOL0     C69043   4.158  10.863   6.128 -0.2195 -0.7404 -1.0804
  501MOL0     C69044   4.123  10.865   6.274 -0.1393 -0.9666 -0.1037
  501MOL0    Cl69045   3.992  10.981   6.284  0.1565 -0.1886 -0.4337
  501MOL0     C69046   4.942  11.435   6.028 -0.7750  0.1791 -0.3661
  501MOL0     C69047   5.073  11.465   6.035 -0.3936 -0.0630  0.6147
  501MOL0     O69048   5.331  11.602   5.750 -0.7951 -0.7234  1.0743
  501MOL0     C69049   5.537  11.549   6.039  0.2265 -0.2317  1.0601
  501MOL0     C69050   5.664  11.553   6.090 -0.2899  0.3105 -0.1720
  501MOL0     N69051   6.426  11.674   6.423 -0.5749  0.3477 -0.6436
  501MOL0     N69052   6.493  11.565   6.406 -0.5231  0.2557  0.0418
  501MOL0     C69053   6.003  10.691   6.120 -0.3784 -0.4449 -0.2506
  501MOL0     C69054   5.891  10.678   6.043 -0.2750  0.0716  1.0685
  501MOL0     C69055   5.439  10.746   5.943  0.5603  0.4588  1.1154
  501MOL0     C69056   5.449  10.680   5.814  0.2284  0.1052 -0.9029
  501MOL0     C69057   5.336  10.617   5.756 -0.7674 -0.0062  1.1995
  501MOL0     C69058   5.215  10.627   5.821 -0.4943  0.2434  0.6062
  501MOL0     O69059   5.116  10.566   5.752 -0.7565  0.3003 -0.1263
  501MOL0     C69060   4.990  10.530   5.812 -0.2579  0.2868  0.2502
  501MOL0     C69061   4.930  10.398   5.763 -0.1750  0.9923  0.3257
  501MOL0     C69062   4.789  10.377   5.814  1.8496  0.3410  0.5750
  501MOL0     C69063   4.748  10.230   5.815  0.5619 -0.0290 -1.0220
  501MOL0     C69064   4.635  10.200   5.904 -0.7557 -0.0354  0.0114
  501MOL0     C69065   4.547  10.160   5.980 -0.1980 -0.8177  0.3813
  501MOL0     C69066   5.203  10.687   5.949  0.1027  0.0477 -0.1923
  501MOL0     C69067   5.311  10.749   6.008  0.3451 -1.2386  0.3200
  501MOL0     C69068   5.276  10.826   6.135  0.4914  0.7569 -0.4314
  501MOL0     H69069   5.795  11.003   6.025 -2.0228 -1.2946  1.2685
  501MOL0     H69070   6.012  11.022   6.144 -0.9451  0.4306 -0.2999
  501MOL0     H69071   6.282  10.677   6.206 -3.1944 -1.9354  0.6545
  501MOL0     H69072   6.189  10.703   6.354  3.4516 -3.8371  3.5792
  501MOL0     H69073   6.334  10.887   6.418 -3.7335 -0.8684 -0.0744
  501MOL0     H69074   6.403  10.728   6.433  3.2698 -0.1607 -0.4348
  501MOL0     H69075   6.571  10.873   6.349 -1.8829 -1.5241  3.4464
  501MOL0     H69076   6.526  10.746   6.235 -1.6076  0.4272 -0.2579
  501MOL0     H69077   6.563  10.962   6.124  0.9178  0.5994  0.1338
  501MOL0     H69078   6.391  10.910   6.106  0.9986  0.9505 -1.9450
  501MOL0     H69079   6.488  11.108   6.324 -0.0968  0.7024  0.5370
  501MOL0     H69080   6.320  11.078   6.272 -1.2674 -1.0176 -2.4789
  501MOL0     H69081   6.540  11.166   6.083  0.3968  0.3564  3.0463
  501MOL0     H69082   6.374  11.152   6.036  0.3900 -3.5418  0.3398
  501MOL0     H69083   6.319  11.344   6.197 -0.4741 -0.0677  0.1355
  501MOL0     H69084   6.423  11.387   6.052  1.1541  0.9293  0.1313
  501MOL0     H69085   6.532  11.335   6.323 -3.4476 -4.3771 -2.3444
  501MOL0     H69086   6.617  11.393   6.171 -0.6131 -2.0848 -0.6082
  501MOL0     H69087   6.408  11.625   6.095 -0.1151 -0.8017 -0.1360
  501MOL0     H69088   6.293  11.857   6.179 -2.1183 -1.2885 -1.0940
  501MOL0     H69089   6.292  11.902   6.346  4.4997 -1.3274  0.5792
  501MOL0     H69090   6.132  11.694   6.370 -1.2391 -1.7640 -1.8752
  501MOL0     H69091   6.069  11.839   6.310  2.4597  1.3812  2.6187
  501MOL0     H69092   6.120  11.728   6.064  4.2295  0.3740  1.3121
  501MOL0     H69093   6.138  11.583   6.148 -0.1534  0.7427 -0.0852
  501MOL0     H69094   5.921  11.591   6.238 -0.8626 -0.1937 -0.1849
  501MOL0     H69095   5.897  11.762   6.155 -0.2401  0.1131 -2.2352
  501MOL0     H69096   5.837  11.548   5.793 -3.2385  1.3421 -4.2006
  501MOL0     H69097   5.697  11.565   5.603 -0.0128 -0.6922 -0.1081
  501MOL0     H69098   5.529  11.614   5.627  0.3442  2.3820  1.8396
  501MOL0     H69099   5.566  11.449   5.616  3.2025 -1.1593  0.3212
  501MOL0     H69100   5.142  11.466   5.704  1.8444 -0.3816  1.1246
  501MOL0     H69101   4.905  11.444   5.689  0.1657 -2.6302  0.1067
  501MOL0     H69102   4.753  11.212   5.990 -1.1297 -0.8679  2.9649
  501MOL0     H69103   4.629  11.341   6.039 -1.3632  0.3952 -1.6508
  501MOL0     H69104   4.505  11.298   5.842  1.0874  1.7413  1.9639
  501MOL0     H69105   4.629  11.169   5.799  2.2226 -0.4171  1.7696
  501MOL0     H69106   4.462  11.182   6.057  0.3041  2.4831 -1.7408
  501MOL0     H69107   4.563  11.045   5.998  2.9640  2.7586  0.1521
  501MOL0     H69108   4.423  11.022   5.796 -0.3913  0.4169  0.3259
  501MOL0     H69109   4.306  11.129   5.866 -0.6204 -0.4058 -0.3441
  501MOL0     H69110   4.258  10.882   5.907  1.5839 -0.2356 -1.0307
  501MOL0     H69111   4.402  10.869   6.014 -1.9777 -2.4236 -0.5356
  501MOL0     H69112   4.182  11.065   6.040  1.4919  0.1170 -3.6159
  501MOL0     H69113   4.309  11.023   6.154 -0.9164  1.4012 -0.0087
  501MOL0     H69114   4.216  10.771   6.116  2.9120  0.8488  0.6563
  501MOL0     H69115   4.071  10.863   6.061 -0.1476  0.9550 -1.2112
  501MOL0     H69116   4.212  10.882   6.335 -0.4683  1.9380 -0.2815
  501MOL0     H69117   4.074  10.771   6.299 -3.4388 -0.4976 -3.7327
  501MOL0     H69118   4.888  11.407   6.118  0.5547  0.6996  0.6454
  501MOL0     H69119   5.141  11.460   6.120  0.5832 -0.9603 -0.1763
  501MOL0     H69120   5.451  11.541   6.104 -0.6155 -0.6299 -0.0753
  501MOL0     H69121   5.663  11.545   6.198 -1.4600 -3.6556 -0.3397
  501MOL0     H69122   6.069  10.607   6.143 -0.2522 -0.4267 -0.5393
  501MOL0     H69123   5.865  10.579   6.008 -2.5988  0.9814  0.0004
  501MOL0     H69124   5.540  10.688   5.755  0.4520 -0.5338 -0.6577
  501MOL0     H69125   5.337  10.564   5.661 -0.0937 -0.4437  1.4473
  501MOL0     H69126   4.993  10.551   5.919  3.8163  2.3728 -0.0657
  501MOL0     H69127   4.921  10.604   5.771 -0.4202  0.0261  0.0523
  501MOL0     H69128   4.985  10.310   5.797 -1.4461  0.3891  0.8983
  501MOL0     H69129   4.930  10.387   5.654 -0.1999 -0.2050  0.4326
  501MOL0     H69130   4.768  10.416   5.914 -0.8068  1.4071 -0.3130
  501MOL0     H69131   4.723  10.436   5.750  1.6666  0.6229  1.0255
  501MOL0     H69132   4.830  10.166   5.849 -0.4095 -0.6863  0.1574
  501MOL0     H69133   4.715  10.198   5.715  0.6593  1.0910 -1.4258
  501MOL0     H69134   4.477  10.135   6.057 -0.2893 -2.4296 -0.1841
  501MOL0     H69135   5.108  10.693   6.002 -0.9776 -0.4309 -1.9952
  501MOL0     H69136   5.341  10.914   6.147  0.7126  0.3684  1.4204
  501MOL0     H69137   5.172  10.861   6.127  0.4410  0.4439 -1.2468
  501MOL0     H69138   5.283  10.764   6.224 -3.1134 -0.3763 -0.7939
  502MOL0     O69139   6.781   5.692  11.154 -0.1722  0.1617 -0.4158
  502MOL0     C69140   6.876   5.642  11.089  0.4511 -1.1562  0.1445
  502MOL0     O69141   6.897   5.673  10.944 -0.0116  0.4554  0.0502
  502MOL0     C69142   6.811   5.757  10.889  0.2437 -0.0177  0.0051
  502MOL0     C69143   6.682   5.717  10.862  0.3399  0.3599 -0.5924
  502MOL0     C69144   6.585   5.797  10.804 -0.5563 -0.5553 -0.2836
  502MOL0     C69145   6.625   5.925  10.751 -0.8705 -1.2434  0.0410
  502MOL0     O69146   6.527   5.993  10.684 -0.5543 -0.0689  0.0131
  502MOL0     C69147   6.549   6.136  10.650  0.2787 -0.5293  0.3641
  502MOL0     C69148   6.440   6.193  10.555 -0.4774 -0.0917  0.3476
  502MOL0     C69149   6.304   6.197  10.611  0.1521  1.3376  0.4022
  502MOL0     C69150   6.213   6.298  10.530 -0.1229 -0.2773 -0.0166
  502MOL0     C69151   6.061   6.289  10.567  0.4920 -0.1283 -0.5138
  502MOL0     C69152   5.981   6.410  10.521  0.8446 -0.1266 -0.0549
  502MOL0     C69153   5.847   6.410  10.594  0.6435 -1.0745 -0.0419
  502MOL0     C69154   5.730   6.480  10.511  0.5374 -0.3535 -0.6270
  502MOL0     N69155   5.600   6.459  10.572  0.3255 -0.2145  0.1033
  502MOL0     C69156   5.541   6.553  10.642 -0.2983  0.1027  0.0447
  502MOL0     C69157   5.417   6.517  10.651  0.7326  1.1568 -0.2504
  502MOL0     C69158   5.300   6.598  10.719  0.2724  1.1540 -0.0931
  502MOL0     C69159   5.262   6.541  10.856  0.0743  0.3115 -0.7391
  502MOL0     C69160   5.159   6.436  10.863 -0.3056  0.4108  0.2181
  502MOL0     C69161   5.017   6.484  10.828 -0.7064  1.2735 -0.2222
  502MOL0     O69162   4.980   6.583  10.924  0.1049 -0.4648  0.8455
  502MOL0     C69163   4.957   6.552  11.048  0.8622 -0.6050 -1.1245
  502MOL0     C69164   4.910   6.425  11.089 -0.5323 -0.0902 -0.0539
  502MOL0     C69165   4.889   6.393  11.224 -0.3684 -0.1673  0.4677
  502MOL0     C69166   4.850   6.254  11.268  0.8415 -0.7077  0.3529
  502MOL0     C69167   4.906   6.502  11.315 -0.1681  0.4217 -0.4744
  502MOL0     C69168   4.897   6.494  11.461 -0.8377 -0.2681 -0.2430
  502MOL0     O69169   4.975   6.585  11.535  0.0799  0.2299 -0.5056
  502MOL0     C69170   4.959   6.571  11.672  0.8818 -0.3758  0.7609
  502MOL0     C69171   4.838   6.586  11.733  0.3187  0.0174 -0.5016
  502MOL0     C69172   4.823   6.597  11.868 -0.5265 -1.0038 -0.8264
  502MOL0     C69173   4.931   6.584  11.959 -0.8102 -0.4962  0.0152
  502MOL0     O69174   4.923   6.580  12.096  0.4111  0.2737 -0.1466
  502MOL0     C69175   4.816   6.515  12.156  0.0233  0.0692  0.5070
  502MOL0     C69176   4.835   6.361  12.151 -0.1585 -0.0463 -0.3181
  502MOL0     C69177   4.750   6.282  12.250  0.8924  0.9760 -0.1526
  502MOL0     C69178   4.798   6.298  12.407  0.8182 -0.0960 -0.1246
  502MOL0     C69179   4.702   6.228  12.506 -0.1727  0.4325 -0.3145
  502MOL0     C69180   4.688   6.068  12.485 -0.0686 -0.1560  0.6770
  502MOL0     C69181   4.577   6.013  12.574 -0.0189 -0.6028  0.7155
  502MOL0     C69182   4.532   5.878  12.535 -0.1382  0.1344  0.6764
  502MOL0    Cl69183   4.402   5.816  12.653  0.6314 -0.1721 -0.0373
  502MOL0     C69184   5.056   6.560  11.900  0.6423 -0.2443  0.0286
  502MOL0     C69185   5.070   6.566  11.749  0.9861  0.0120 -0.1853
  502MOL0     O69186   4.823   6.407  11.500  0.0303  0.3006 -0.7714
  502MOL0     C69187   4.929   6.632  11.270 -0.4837  0.5186 -0.3355
  502MOL0     C69188   4.972   6.652  11.144  0.2944 -0.3419 -0.2978
  502MOL0     N69189   5.406   6.393  10.592 -0.0083  0.0960 -0.4643
  502MOL0     N69190   5.513   6.363  10.535  0.4891 -0.5208 -0.1082
  502MOL0     C69191   6.755   5.971  10.765 -0.1181  0.6430 -0.6565
  502MOL0     C69192   6.845   5.885  10.845 -0.2422 -0.2666  0.2343
  502MOL0     C69193   6.972   5.563  11.181  0.2585  0.2663 -0.1984
  502MOL0     C69194   6.936   5.541  11.321  0.9245 -0.3612  0.2800
  502MOL0     C69195   7.032   5.478  11.397 -0.3873  0.8523 -1.1311
  502MOL0     C69196   7.151   5.431  11.342 -0.2908  0.2645 -0.6508
  502MOL0     O69197   7.247   5.374  11.427  0.2629  0.3862  0.1271
  502MOL0     C69198   7.362   5.299  11.379 -0.9715  0.4654  0.2925
  502MOL0     C69199   7.478   5.396  11.346  0.4607  1.1766 -0.2858
  502MOL0     C69200   7.586   5.315  11.276 -0.4503  0.0895 -0.1131
  502MOL0     C69201   7.538   5.263  11.141  1.0535 -0.9615  0.0936
  502MOL0     C69202   7.663   5.253  11.057 -0.4406  0.5857 -0.7056
  502MOL0     C69203   7.755   5.244  10.980  0.4091 -0.4498  0.3441
  502MOL0     C69204   7.166   5.426  11.195  0.5548  0.5228 -0.7484
  502MOL0     C69205   7.077   5.487  11.117  0.8507  0.4211 -0.0774
  502MOL0     C69206   7.127   5.514  10.974 -0.4951 -0.3958  0.3704
  502MOL0     H69207   6.667   5.615  10.895 -1.5155 -0.4076 -3.4671
  502MOL0     H69208   6.483   5.763  10.787 -1.2620  1.7252 -0.9006
  502MOL0     H69209   6.644   6.151  10.598  0.0780  2.6344  0.6747
  502MOL0     H69210   6.550   6.181  10.750 -0.7014 -0.2452  0.2656
  502MOL0     H69211   6.480   6.292  10.532  1.0540  0.3641  4.1882
  502MOL0     H69212   6.429   6.137  10.461  0.2903 -0.6470  0.5780
  502MOL0     H69213   6.252   6.101  10.616 -3.3743  3.1291  2.4726
  502MOL0     H69214   6.318   6.234  10.713  0.9621  0.0294  0.7900
  502MOL0     H69215   6.252   6.398  10.551  0.4991 -1.1783  3.7802
  502MOL0     H69216   6.222   6.289  10.422  0.3911 -0.0760  0.0071
  502MOL0     H69217   6.047   6.292  10.676  0.1221 -1.5350 -0.5059
  502MOL0     H69218   6.034   6.191  10.528  0.7992 -1.5491  2.5509
  502MOL0     H69219   6.035   6.499  10.556 -0.1974  0.1942  0.8040
  502MOL0     H69220   5.972   6.395  10.413 -0.4917  0.6212 -0.0700
  502MOL0     H69221   5.852   6.476  10.682  0.6160 -1.5365  0.3098
  502MOL0     H69222   5.825   6.310  10.632  0.8201 -1.0594  0.0995
  502MOL0     H69223   5.744   6.587  10.497  1.2096 -0.8444 -5.3158
  502MOL0     H69224   5.723   6.446  10.407  0.7374 -3.0297  0.1409
  502MOL0     H69225   5.582   6.649  10.672 -0.9311  0.6135 -0.6784
  502MOL0     H69226   5.212   6.608  10.655  0.3468  2.7977  0.0049
  502MOL0     H69227   5.339   6.699  10.738  0.8254  0.8660  0.3101
  502MOL0     H69228   5.350   6.509  10.914 -1.3940  2.2580  2.8962
  502MOL0     H69229   5.222   6.625  10.913 -0.8043  0.9073 -2.1906
  502MOL0     H69230   5.191   6.356  10.794  2.1455 -0.1812  1.9099
  502MOL0     H69231   5.157   6.385  10.960 -2.4051  1.5447  0.8159
  502MOL0     H69232   5.016   6.514  10.723  2.1938  4.0700  0.3674
  502MOL0     H69233   4.950   6.397  10.832  1.7766 -0.8133 -0.8577
  502MOL0     H69234   4.892   6.347  11.015  0.7051  1.0297 -1.5859
  502MOL0     H69235   4.885   6.223  11.367  0.5974 -2.5807 -0.1001
  502MOL0     H69236   4.890   6.182  11.196  3.8099  1.1532 -0.0094
  502MOL0     H69237   4.742   6.239  11.274  0.7689  0.1954  1.8894
  502MOL0     H69238   4.744   6.575  11.680  1.0640 -1.0440 -1.6701
  502MOL0     H69239   4.719   6.602  11.897 -0.6971 -1.6342 -1.2970
  502MOL0     H69240   4.815   6.543  12.261 -3.2323  2.0266  0.0887
  502MOL0     H69241   4.726   6.554  12.108  1.1244  1.0269 -0.8897
  502MOL0     H69242   4.807   6.325  12.052 -2.0623 -0.5687  0.3615
  502MOL0     H69243   4.939   6.344  12.180 -0.2575  1.3045  0.9565
  502MOL0     H69244   4.742   6.176  12.224 -0.8168  1.1696 -0.5662
  502MOL0     H69245   4.647   6.319  12.246  1.2177  1.9267  0.0922
  502MOL0     H69246   4.803   6.403  12.437 -4.6673  0.7235 -1.1127
  502MOL0     H69247   4.904   6.270  12.411  1.1906  1.0820 -1.2505
  502MOL0     H69248   4.746   6.245  12.605  2.3042  1.4339 -1.5256
  502MOL0     H69249   4.607   6.283  12.498  0.1162  0.8753 -0.7315
  502MOL0     H69250   4.784   6.044  12.532  0.9078  3.9065  1.2054
  502MOL0     H69251   4.679   6.036  12.381  0.5949  0.4458  0.4302
  502MOL0     H69252   4.497   6.087  12.588  1.5544  1.1382  1.0718
  502MOL0     H69253   4.622   5.991  12.671  2.7523 -0.3771 -0.4166
  502MOL0     H69254   4.617   5.809  12.525  0.7277  1.4038 -1.3242
  502MOL0     H69255   4.477   5.892  12.441  1.9148 -1.8363 -0.9261
  502MOL0     H69256   5.131   6.543  11.976 -0.5882 -1.0034  1.1016
  502MOL0     H69257   5.166   6.547  11.701  0.2161 -0.2506 -1.6719
  502MOL0     H69258   4.931   6.716  11.339 -1.2444  2.0366 -2.0886
  502MOL0     H69259   5.004   6.753  11.120 -0.8689  0.6788  2.0993
  502MOL0     H69260   6.772   6.076  10.741  0.2411  0.2537 -2.2181
  502MOL0     H69261   6.948   5.912  10.868  0.0928 -1.4386  0.1751
  502MOL0     H69262   6.843   5.579  11.361  1.1210  0.8227 -0.3376
  502MOL0     H69263   7.012   5.473  11.504 -0.6573 -2.4640 -1.2295
  502MOL0     H69264   7.396   5.227  11.453 -0.6473  1.3549  1.0302
  502MOL0     H69265   7.334   5.234  11.296  0.2713  0.9599 -0.5508
  502MOL0     H69266   7.504   5.432  11.446 -1.1555 -1.1249  1.0880
  502MOL0     H69267   7.446   5.478  11.282  0.3967  0.3305 -1.3821
  502MOL0     H69268   7.662   5.390  11.253 -1.1660  0.0870 -2.9156
  502MOL0     H69269   7.618   5.236  11.345  1.2052  1.0763  0.2960
  502MOL0     H69270   7.455   5.322  11.101  0.2429 -1.5584  0.8627
  502MOL0     H69271   7.496   5.163  11.156 -1.2558 -0.1769 -0.7713
  502MOL0     H69272   7.832   5.236  10.906 -2.4147 -1.6774 -2.7204
  502MOL0     H69273   7.245   5.371  11.144  1.2076  0.4275  0.3168
  502MOL0     H69274   7.232   5.483  10.971 -0.8399 -1.5274 -0.3108
  502MOL0     H69275   7.063   5.463  10.901 -0.7493  0.5310 -0.0737
  502MOL0     H69276   7.128   5.622  10.955 -1.5240 -0.3229  0.6538
  503MOL0     O69277   2.833  11.084   1.275  1.0224 -0.0106 -0.2885
  503MOL0     C69278   2.927  11.003   1.261 -0.9830 -0.1091  0.8587
  503MOL0     O69279   3.060  11.023   1.311  0.0765  0.1457  0.3509
  503MOL0     C69280   3.084  11.147   1.375 -0.1062 -0.9628  0.8672
  503MOL0     C69281   3.089  11.155   1.516  0.9718 -0.5790  0.5132
  503MOL0     C69282   3.143  11.273   1.574 -0.0507 -0.3708  0.4152
  503MOL0     C69283   3.183  11.379   1.497 -0.8296 -0.0874 -1.0638
  503MOL0     O69284   3.233  11.488   1.565 -0.2039 -0.2280 -0.1604
  503MOL0     C69285   3.376  11.515   1.572  0.4918  0.5646 -0.2296
  503MOL0     C69286   3.417  11.530   1.720 -0.8451 -0.0147 -0.4516
  503MOL0     C69287   3.545  11.617   1.750 -0.0390  0.7219 -0.3969
  503MOL0     C69288   3.561  11.613   1.896 -0.1823  1.4655  0.5836
  503MOL0     C69289   3.678  11.698   1.936  0.3300 -1.3041 -0.3402
  503MOL0     C69290   3.684  11.684   2.086 -0.3871 -0.0243  0.1963
  503MOL0     C69291   3.808  11.766   2.135 -0.5822 -0.4107  0.6030
  503MOL0     C69292   3.780  11.920   2.134 -0.4488  1.1479  0.4558
  503MOL0     N69293   3.891  11.972   2.210 -0.4858  0.6385  0.1141
  503MOL0     C69294   4.015  11.999   2.155  0.4822  0.0959 -0.1758
  503MOL0     C69295   4.094  12.049   2.256  1.1011 -0.2909  0.6823
  503MOL0     C69296   4.234  12.088   2.268  0.3743  0.2601  0.9219
  503MOL0     C69297   4.289  12.160   2.144  0.1775 -0.4462  0.3855
  503MOL0     C69298   4.438  12.193   2.162  0.5763 -0.0170  0.3051
  503MOL0     C69299   4.505  12.170   2.029 -0.4709 -0.2269 -0.7172
  503MOL0     O69300   4.433  12.202   1.912  0.5146 -0.4616 -0.6135
  503MOL0     C69301   4.507  12.219   1.799  0.3758  0.6910 -0.2373
  503MOL0     C69302   4.427  12.227   1.677 -0.0946 -0.0308 -0.4044
  503MOL0     C69303   4.480  12.261   1.555  0.8153  0.1584  1.1842
  503MOL0     C69304   4.378  12.266   1.444  0.5636 -0.2276 -0.5048
  503MOL0     C69305   4.613  12.274   1.540 -0.2136 -0.6196  0.0374
  503MOL0     C69306   4.684  12.308   1.420  0.1057  1.1005  0.6319
  503MOL0     O69307   4.809  12.260   1.399  1.0780  0.3927  0.3467
  503MOL0     C69308   4.880  12.280   1.287 -0.0868 -0.1276  0.8871
  503MOL0     C69309   5.000  12.349   1.292  0.4779  0.1257  0.0541
  503MOL0     C69310   5.076  12.368   1.178 -0.7597  0.4733  0.1714
  503MOL0     C69311   5.022  12.340   1.049 -0.6106 -0.3279 -0.9764
  503MOL0     O69312   5.093  12.349   0.938 -0.0254  0.2821 -0.2339
  503MOL0     C69313   5.181  12.455   0.911 -0.5361  0.4166 -0.0363
  503MOL0     C69314   5.208  12.465   0.764  0.6411 -0.1298 -0.5691
  503MOL0     C69315   5.086  12.474   0.677 -0.4142  0.0386 -0.4937
  503MOL0     C69316   4.987  12.590   0.686  0.1685  0.0749  0.2883
  503MOL0     C69317   4.922  12.624   0.560 -0.0624 -0.9246  0.0935
  503MOL0     C69318   4.854  12.773   0.561 -0.1435  0.4625 -0.3298
  503MOL0     C69319   4.947  12.882   0.617 -0.2229 -0.3321 -0.3226
  503MOL0     C69320   5.080  12.889   0.531  0.4238 -0.2693 -0.3377
  503MOL0    Cl69321   5.174  13.044   0.572  0.2725  0.7329  0.5843
  503MOL0     C69322   4.892  12.281   1.048  0.0425  1.0676  0.0537
  503MOL0     C69323   4.829  12.248   1.162  0.8420  0.1565  0.3020
  503MOL0     O69324   4.635  12.403   1.359  0.6123 -0.1321  1.0123
  503MOL0     C69325   4.699  12.238   1.653  0.6477  0.5560  0.6815
  503MOL0     C69326   4.643  12.203   1.774  0.9440  0.1278  0.5123
  503MOL0     N69327   4.018  12.047   2.368  0.1814  0.1847  0.3463
  503MOL0     N69328   3.898  11.993   2.348  0.0889 -0.6856  0.9540
  503MOL0     C69329   3.182  11.378   1.358  0.2696  0.0532 -0.4370
  503MOL0     C69330   3.131  11.259   1.301 -0.3035  0.0673  0.1173
  503MOL0     C69331   2.901  10.870   1.200 -0.0922 -0.6833 -0.0783
  503MOL0     C69332   2.808  10.870   1.089  0.7568 -0.3504 -0.0765
  503MOL0     C69333   2.755  10.747   1.046  0.0669  0.0501  0.1920
  503MOL0     C69334   2.808  10.629   1.088 -0.3181  0.3200 -0.1584
  503MOL0     O69335   2.773  10.503   1.047  0.5927  0.0834 -0.3291
  503MOL0     C69336   2.674  10.490   0.933 -0.4072  0.0998 -1.1655
  503MOL0     C69337   2.645  10.343   0.895  0.2135 -0.0062 -0.5386
  503MOL0     C69338   2.560  10.260   0.997  0.4780  0.6527 -0.3420
  503MOL0     C69339   2.635  10.123   1.012  0.0925 -0.8312  0.0603
  503MOL0     C69340   2.556  10.031   1.091  0.6946  0.3592  0.5092
  503MOL0     C69341   2.494   9.943   1.146  0.5335 -0.4225 -1.2588
  503MOL0     C69342   2.912  10.634   1.174 -0.0314 -0.2712  0.3542
  503MOL0     C69343   2.968  10.753   1.235  0.0208  1.2078 -0.0634
  503MOL0     C69344   3.078  10.752   1.342 -0.3227  0.6153 -0.2019
  503MOL0     H69345   3.042  11.081   1.581 -4.6020  2.6259  0.7458
  503MOL0     H69346   3.152  11.276   1.682 -0.1531 -0.5271  0.4279
  503MOL0     H69347   3.393  11.605   1.512  3.3597  0.3363  0.0866
  503MOL0     H69348   3.430  11.439   1.514 -0.7032 -1.0662  0.7069
  503MOL0     H69349   3.332  11.572   1.774  0.5523 -0.7307  2.4748
  503MOL0     H69350   3.442  11.433   1.764  0.0509  1.3538  2.2669
  503MOL0     H69351   3.628  11.575   1.692 -0.1439 -1.4812  0.9527
  503MOL0     H69352   3.518  11.721   1.728  1.2990  0.9117 -1.2636
  503MOL0     H69353   3.467  11.640   1.946  0.4211 -1.1643  3.4200
  503MOL0     H69354   3.589  11.511   1.922 -1.0791  0.8331 -0.8062
  503MOL0     H69355   3.655  11.802   1.911 -0.5813 -1.7015 -1.2327
  503MOL0     H69356   3.773  11.674   1.888 -0.0194 -1.2690 -1.0698
  503MOL0     H69357   3.600  11.731   2.138  1.1065  2.6417  0.3776
  503MOL0     H69358   3.692  11.579   2.116 -3.4915 -0.0786  1.2676
  503MOL0     H69359   3.896  11.740   2.074 -1.9423  1.3050 -2.3473
  503MOL0     H69360   3.831  11.743   2.239 -1.4760  1.1091  1.1716
  503MOL0     H69361   3.771  11.975   2.040  2.5513 -1.1041 -1.3511
  503MOL0     H69362   3.691  11.937   2.195 -0.4432  0.6243  0.6196
  503MOL0     H69363   4.054  11.982   2.056  0.2987 -0.9343 -0.0784
  503MOL0     H69364   4.281  11.991   2.285 -0.6014 -0.6286 -1.0602
  503MOL0     H69365   4.242  12.142   2.362 -3.2993  0.0159  1.5377
  503MOL0     H69366   4.279  12.089   2.062 -1.4101  0.6690 -0.4285
  503MOL0     H69367   4.238  12.255   2.126  2.7228  1.1152  0.8864
  503MOL0     H69368   4.451  12.298   2.192 -0.0633  0.1251  0.1043
  503MOL0     H69369   4.475  12.140   2.250 -0.4688  0.2807  0.9430
  503MOL0     H69370   4.596  12.230   2.036 -0.6203 -0.1868  2.1523
  503MOL0     H69371   4.532  12.064   2.024  2.6128  0.4495 -0.2407
  503MOL0     H69372   4.320  12.215   1.695  0.3748 -0.5756  2.6147
  503MOL0     H69373   4.340  12.366   1.425 -0.5123 -0.6028 -0.3677
  503MOL0     H69374   4.296  12.195   1.455  0.7525 -0.3245  0.3220
  503MOL0     H69375   4.417  12.231   1.347  0.8938  0.7212 -0.7271
  503MOL0     H69376   5.043  12.378   1.387 -0.1205  2.3411 -0.2820
  503MOL0     H69377   5.174  12.412   1.193 -2.3268  3.4814  2.7918
  503MOL0     H69378   5.145  12.552   0.947 -0.9112  0.2573  0.0151
  503MOL0     H69379   5.278  12.428   0.954 -0.8861  0.0129  0.5088
  503MOL0     H69380   5.263  12.559   0.757 -0.8878  0.8615  0.0650
  503MOL0     H69381   5.266  12.376   0.742  0.7774 -0.4867  1.1124
  503MOL0     H69382   5.037  12.378   0.695  0.8935 -0.6816 -0.6510
  503MOL0     H69383   5.125  12.473   0.574 -1.3247  1.4853 -0.8738
  503MOL0     H69384   5.045  12.676   0.720  0.7559 -0.1976 -0.0199
  503MOL0     H69385   4.903  12.573   0.754 -1.6139  0.3733 -1.7374
  503MOL0     H69386   5.001  12.625   0.485 -0.9191 -0.4471 -0.8170
  503MOL0     H69387   4.845  12.550   0.540 -1.8207  1.5549 -3.4817
  503MOL0     H69388   4.774  12.771   0.635 -0.7017 -0.0089 -0.9354
  503MOL0     H69389   4.827  12.795   0.457  0.1147 -0.3301 -0.5808
  503MOL0     H69390   4.975  12.866   0.722 -0.7948  1.4866  0.1383
  503MOL0     H69391   4.898  12.980   0.612 -1.6444 -0.9595  0.6537
  503MOL0     H69392   5.066  12.883   0.423  2.2912 -1.4179 -0.5676
  503MOL0     H69393   5.147  12.807   0.558  0.5050  0.2196  1.0519
  503MOL0     H69394   4.836  12.252   0.959  0.3390  0.7663 -0.0362
  503MOL0     H69395   4.732  12.199   1.161 -0.1809  2.0139  2.0865
  503MOL0     H69396   4.808  12.240   1.656  1.0737 -3.4308 -2.5950
  503MOL0     H69397   4.705  12.173   1.858  1.6238  1.6487  0.6018
  503MOL0     H69398   3.215  11.462   1.298  0.4518 -0.3292 -0.8788
  503MOL0     H69399   3.138  11.260   1.193  0.2289  2.8111  0.0889
  503MOL0     H69400   2.766  10.955   1.037 -1.4434 -0.5082  1.3443
  503MOL0     H69401   2.674  10.752   0.974 -1.8910 -0.5406  2.2311
  503MOL0     H69402   2.577  10.528   0.967 -0.6222 -3.3069  2.8139
  503MOL0     H69403   2.707  10.550   0.847  0.0556  0.6431 -0.6194
  503MOL0     H69404   2.743  10.294   0.890 -1.3380 -3.4636  0.2243
  503MOL0     H69405   2.603  10.350   0.795  0.1310 -0.9672 -0.5736
  503MOL0     H69406   2.560  10.293   1.101  1.3585  1.1332 -0.4845
  503MOL0     H69407   2.465  10.237   0.947  3.1007 -3.6327 -4.1334
  503MOL0     H69408   2.730  10.144   1.061 -0.1864 -0.0051  0.2680
  503MOL0     H69409   2.648  10.085   0.910  3.5862  0.6771 -0.1837
  503MOL0     H69410   2.432   9.867   1.189  2.9489 -1.6537  0.2728
  503MOL0     H69411   2.961  10.539   1.191 -1.1340 -0.5425  2.2195
  503MOL0     H69412   3.159  10.810   1.297 -0.5716  0.9006 -0.2854
  503MOL0     H69413   3.049  10.809   1.430 -0.1383 -0.1164  0.3394
  503MOL0     H69414   3.116  10.657   1.379  1.4587  1.2847 -0.2238
  504MOL0     O69415   8.225   6.978  11.026 -0.0617  0.1955 -0.5118
  504MOL0     C69416   8.221   6.853  11.036  0.1207  0.2823  0.1866
  504MOL0     O69417   8.284   6.775  11.128  0.2846 -0.3031 -0.5673
  504MOL0     C69418   8.372   6.834  11.218 -0.7735  0.0588 -0.0433
  504MOL0     C69419   8.484   6.899  11.168 -0.0557 -0.4185 -0.4529
  504MOL0     C69420   8.571   6.964  11.252  0.5282 -0.7159 -0.8541
  504MOL0     C69421   8.558   6.942  11.394  0.4425 -0.0187  0.5317
  504MOL0     O69422   8.651   6.990  11.475  0.7617 -0.6620 -0.5630
  504MOL0     C69423   8.653   6.979  11.614 -0.0947  0.3714  0.3536
  504MOL0     C69424   8.767   7.064  11.671 -0.1867  0.3661 -0.3173
  504MOL0     C69425   8.894   7.048  11.591 -0.1888 -0.0498  0.4691
  504MOL0     C69426   9.003   7.130  11.666  0.0380  0.4298  0.1352
  504MOL0     C69427   9.140   7.092  11.610  0.0318 -0.9179 -0.0168
  504MOL0     C69428   9.225   7.214  11.635  0.6214  0.0093 -0.2084
  504MOL0     C69429   9.379   7.172  11.625 -0.5968  0.0798 -0.5927
  504MOL0     C69430   9.418   7.138  11.477  0.6045 -0.3607  0.9418
  504MOL0     N69431   9.555   7.082  11.467 -0.1933 -0.5200  1.2956
  504MOL0     C69432   9.667   7.142  11.519 -0.7244 -0.5364 -0.1210
  504MOL0     C69433   9.770   7.063  11.486 -0.2421 -0.2259 -0.0395
  504MOL0     C69434   9.911   7.086  11.513 -0.3189 -0.0284 -0.0196
  504MOL0     C69435   9.986   7.138  11.390  0.3871 -0.4305 -0.7352
  504MOL0     C69436  10.001   7.034  11.287 -0.3834  0.5486  0.8795
  504MOL0     C69437  10.092   6.923  11.319 -0.2740  0.9317  0.1213
  504MOL0     O69438  10.219   6.963  11.370  0.3534  0.9089  0.6281
  504MOL0     C69439  10.322   6.983  11.282 -0.5630  0.1531  0.0118
  504MOL0     C69440  10.325   6.957  11.142 -0.5147  0.8543  0.1340
  504MOL0     C69441  10.436   6.963  11.063  0.9108  0.7854  0.5923
  504MOL0     C69442  10.407   6.918  10.920 -0.4029 -0.8385  0.1635
  504MOL0     C69443  10.560   7.000  11.120 -0.4267 -0.7970 -0.0963
  504MOL0     C69444  10.693   6.999  11.050 -0.0497  0.0053  0.0830
  504MOL0     O69445  10.800   6.994  11.131 -0.0944 -0.2152  0.4849
  504MOL0     C69446  10.925   7.000  11.078 -1.3892  0.1335  1.1169
  504MOL0     C69447  11.014   7.038  11.176 -0.3072 -0.5673  0.2966
  504MOL0     C69448  11.148   7.057  11.146  0.4181 -0.7556  0.4940
  504MOL0     C69449  11.193   7.053  11.017 -0.6742  0.0499 -0.3315
  504MOL0     O69450  11.323   7.074  10.979  0.6836 -0.6270  0.5134
  504MOL0     C69451  11.407   7.140  11.068  0.1370 -0.1930 -1.0360
  504MOL0     C69452  11.548   7.127  11.012 -1.0516 -1.2483 -0.9788
  504MOL0     C69453  11.650   7.153  11.128 -0.3658  0.0244  0.9151
  504MOL0     C69454  11.656   7.309  11.163  0.6714  0.0861  0.0051
  504MOL0     C69455  11.682   7.333  11.311  0.3370 -0.4033 -0.0058
  504MOL0     C69456  11.818   7.301  11.352 -0.9338 -0.3420 -0.8418
  504MOL0     C69457  11.920   7.364  11.253 -0.1652 -0.4689 -0.4494
  504MOL0     C69458  12.060   7.379  11.319  0.2557  0.5549 -0.2150
  504MOL0    Cl69459  12.142   7.216  11.333 -0.1722  0.1550  0.3258
  504MOL0     C69460  11.102   7.014  10.912 -0.4089  0.2221  0.0106
  504MOL0     C69461  10.965   6.997  10.938  0.0379 -0.7479  0.1458
  504MOL0     O69462  10.691   7.028  10.927 -0.2877 -0.2771  0.4748
  504MOL0     C69463  10.557   7.043  11.256  0.3424  0.0859  0.8267
  504MOL0     C69464  10.441   7.040  11.325  0.2345 -0.3078  0.2921
  504MOL0     N69465   9.726   6.942  11.427 -0.0095 -0.2898 -0.0543
  504MOL0     N69466   9.594   6.960  11.412 -0.4258  0.3763  0.4168
  504MOL0     C69467   8.445   6.872  11.442 -0.7983 -0.5608 -0.0302
  504MOL0     C69468   8.345   6.831  11.351 -0.3304  0.2039 -0.2478
  504MOL0     C69469   8.144   6.776  10.940 -0.5936  0.0505  0.0043
  504MOL0     C69470   8.180   6.647  10.915  0.1724  0.6285  0.2855
  504MOL0     C69471   8.106   6.566  10.825 -0.2606 -1.1863 -0.6063
  504MOL0     C69472   8.001   6.618  10.759  0.3133 -0.0783 -0.2527
  504MOL0     O69473   7.945   6.553  10.656  0.3382 -0.0033 -0.1860
  504MOL0     C69474   7.849   6.440  10.685  0.3311  0.6078  0.0467
  504MOL0     C69475   7.758   6.463  10.817  0.4653 -0.5924  0.9022
  504MOL0     C69476   7.650   6.362  10.846 -0.7639  1.1358  0.5449
  504MOL0     C69477   7.619   6.371  10.992 -0.1205  0.4622  0.1180
  504MOL0     C69478   7.673   6.254  11.065 -0.7343 -0.3316 -0.8283
  504MOL0     C69479   7.729   6.176  11.137  0.2187  0.2257  0.8041
  504MOL0     C69480   7.962   6.743  10.785  0.3699 -0.9304  0.2591
  504MOL0     C69481   8.027   6.829  10.878  0.4755 -0.6568  0.0426
  504MOL0     C69482   7.975   6.975  10.892 -0.1439  0.2523  0.6927
  504MOL0     H69483   8.495   6.893  11.060  3.2937  0.2211 -0.2734
  504MOL0     H69484   8.654   7.025  11.219  3.4801 -4.9281 -2.0616
  504MOL0     H69485   8.655   6.872  11.639 -0.7854 -0.4634 -2.8065
  504MOL0     H69486   8.561   7.015  11.660 -0.7997 -2.9017  1.7900
  504MOL0     H69487   8.742   7.167  11.642  0.5731 -0.5179 -4.9632
  504MOL0     H69488   8.782   7.038  11.776 -0.5022  0.6298 -0.2050
  504MOL0     H69489   8.918   6.943  11.569  1.4860  0.0788  1.4990
  504MOL0     H69490   8.870   7.092  11.493  0.7210 -2.0472 -0.7153
  504MOL0     H69491   8.981   7.234  11.638  3.2941  1.0833 -0.4826
  504MOL0     H69492   8.994   7.111  11.773  1.4647 -0.9624  0.0433
  504MOL0     H69493   9.137   7.057  11.506  0.2552 -0.4784 -0.1767
  504MOL0     H69494   9.173   7.011  11.675 -5.0529  0.8302  5.7124
  504MOL0     H69495   9.197   7.288  11.559 -0.1851  0.6700  0.7007
  504MOL0     H69496   9.198   7.273  11.723  0.5991  1.4214 -1.1299
  504MOL0     H69497   9.393   7.086  11.691 -0.6344  0.7789  0.3447
  504MOL0     H69498   9.436   7.252  11.672 -0.3104 -0.0041 -0.7916
  504MOL0     H69499   9.351   7.054  11.454 -0.3152 -0.2470  3.0070
  504MOL0     H69500   9.408   7.218  11.402  1.4623  0.7475  1.9776
  504MOL0     H69501   9.668   7.232  11.580  1.1322 -1.3838  1.1879
  504MOL0     H69502   9.961   6.995  11.550  0.2397  0.6171  0.8661
  504MOL0     H69503   9.916   7.163  11.591  3.0975  0.6966 -0.7996
  504MOL0     H69504   9.925   7.216  11.343 -0.4932 -1.6600 -1.7047
  504MOL0     H69505  10.081   7.181  11.423  0.0481 -0.6812  0.6386
  504MOL0     H69506   9.913   6.992  11.236 -0.1804 -0.1196  1.0716
  504MOL0     H69507  10.046   7.077  11.197  1.1647  0.6118  1.6550
  504MOL0     H69508  10.045   6.862  11.397 -0.2644 -0.3345 -0.8319
  504MOL0     H69509  10.108   6.858  11.232 -1.3584  0.4771  0.2398
  504MOL0     H69510  10.232   6.927  11.093  0.0939  0.6985 -0.9694
  504MOL0     H69511  10.343   6.829  10.927 -0.0590 -1.1889 -0.9897
  504MOL0     H69512  10.493   6.900  10.856 -0.4886  2.5927 -1.1443
  504MOL0     H69513  10.350   7.000  10.874  2.2157  1.8239  1.3385
  504MOL0     H69514  10.969   7.053  11.273  1.2205  1.5267  0.7467
  504MOL0     H69515  11.214   7.073  11.231 -0.5789 -2.6643  1.7159
  504MOL0     H69516  11.376   7.244  11.082 -0.0805 -0.5655  1.9370
  504MOL0     H69517  11.412   7.102  11.170 -3.7738 -0.0130 -0.6340
  504MOL0     H69518  11.558   7.021  10.985 -1.1058 -1.5357  0.0621
  504MOL0     H69519  11.572   7.200  10.935 -1.8681 -0.9269 -0.9341
  504MOL0     H69520  11.740   7.116  11.078 -2.4517  0.1468 -3.4533
  504MOL0     H69521  11.629   7.099  11.220 -1.2200 -1.7540 -0.2680
  504MOL0     H69522  11.559   7.355  11.141  0.3572 -0.6272 -0.1304
  504MOL0     H69523  11.726   7.363  11.098 -0.5928  1.1203 -0.5443
  504MOL0     H69524  11.665   7.439  11.329  2.1508  0.5186 -2.9376
  504MOL0     H69525  11.605   7.280  11.368 -1.9779  1.7104 -1.0099
  504MOL0     H69526  11.831   7.193  11.362  1.5519  0.0299  1.5009
  504MOL0     H69527  11.831   7.352  11.449  0.9749 -0.3582 -1.0496
  504MOL0     H69528  11.881   7.460  11.217 -0.0892 -0.3623 -0.2512
  504MOL0     H69529  11.943   7.302  11.166 -0.0038 -2.7307  1.1130
  504MOL0     H69530  12.051   7.417  11.421 -0.1657 -0.6539  0.2128
  504MOL0     H69531  12.117   7.451  11.260 -2.0561  1.7291 -1.1783
  504MOL0     H69532  11.140   7.019  10.811  0.7251 -0.6732  0.3694
  504MOL0     H69533  10.899   6.994  10.852 -2.9964  1.4386  2.2062
  504MOL0     H69534  10.646   7.085  11.303  1.3288 -1.6534  0.5760
  504MOL0     H69535  10.445   7.077  11.427 -0.8757  0.1743  0.1735
  504MOL0     H69536   8.429   6.853  11.548  1.2511 -0.4652  0.3421
  504MOL0     H69537   8.250   6.784  11.377 -2.9560  3.0920 -3.6468
  504MOL0     H69538   8.262   6.601  10.970 -2.0577  1.4928  4.8958
  504MOL0     H69539   8.128   6.462  10.803  1.5041 -1.1325  0.6798
  504MOL0     H69540   7.783   6.415  10.602 -1.3437 -0.3893  1.6104
  504MOL0     H69541   7.911   6.350  10.696  0.6613  1.0025  1.7788
  504MOL0     H69542   7.715   6.564  10.812  1.2857 -0.2767  0.1292
  504MOL0     H69543   7.825   6.465  10.904 -0.3767  1.5092  1.5843
  504MOL0     H69544   7.569   6.396  10.781  0.5971 -0.1907 -1.9864
  504MOL0     H69545   7.674   6.262  10.809  2.4425  2.2318 -0.6968
  504MOL0     H69546   7.512   6.357  11.008  0.1651 -0.7697  1.0763
  504MOL0     H69547   7.660   6.460  11.041  3.1126 -1.1841  0.7016
  504MOL0     H69548   7.784   6.125  11.214  2.6762 -1.6151 -1.9298
  504MOL0     H69549   7.887   6.774  10.713  1.4483 -3.1814 -1.9501
  504MOL0     H69550   7.888   6.984  10.827  0.4583 -0.5017 -0.2472
  504MOL0     H69551   7.964   6.989  11.000  1.3290  0.7110  0.8123
  504MOL0     H69552   8.042   7.046  10.843  0.0101  0.2131  0.8491
  505MOL0     O69553   1.161  10.185   8.307  0.0182  0.7805 -0.0644
  505MOL0     C69554   1.256  10.186   8.395  0.6782  0.4479 -0.2365
  505MOL0     O69555   1.238  10.193   8.528 -0.1496 -0.0575 -0.2914
  505MOL0     C69556   1.114  10.178   8.592  0.3813 -0.5387 -0.1020
  505MOL0     C69557   1.125  10.123   8.717 -0.7388 -0.8853  0.2172
  505MOL0     C69558   1.020  10.079   8.793  0.4288 -0.4147  1.1341
  505MOL0     C69559   0.891  10.097   8.752  0.2354  0.6362  0.2787
  505MOL0     O69560   0.782  10.077   8.830  0.2707 -0.4283  0.0559
  505MOL0     C69561   0.796  10.095   8.974  0.4580  0.9115  0.3288
  505MOL0     C69562   0.651  10.092   9.035 -0.6920 -0.9700  0.4261
  505MOL0     C69563   0.562  10.222   9.037 -0.2278  0.3757 -0.8321
  505MOL0     C69564   0.422  10.199   9.092  0.2557 -0.5424  0.4022
  505MOL0     C69565   0.342  10.328   9.118  0.1046  0.1278 -0.5032
  505MOL0     C69566   0.282  10.389   8.990 -0.3848  0.2399 -0.2034
  505MOL0     C69567   0.144  10.317   8.968  0.6742  0.2814  0.3725
  505MOL0     C69568   0.062  10.380   8.851 -0.0934  0.0509  0.1846
  505MOL0     N69569   0.036  10.528   8.872 -0.1755  0.5796 -0.0506
  505MOL0     C69570  -0.079  10.576   8.933  0.4652 -0.2314  0.3460
  505MOL0     C69571  -0.073  10.713   8.910  0.4802  0.4530  0.5025
  505MOL0     C69572  -0.180  10.810   8.945  0.1372 -0.1077 -0.4660
  505MOL0     C69573  -0.173  10.942   8.873 -0.1256  0.3057  0.0371
  505MOL0     C69574  -0.270  11.050   8.929 -0.8891  0.6688 -0.5170
  505MOL0     C69575  -0.247  11.182   8.850 -0.1463 -0.7512 -0.6306
  505MOL0     O69576  -0.350  11.270   8.905 -0.6943  0.5398 -0.1107
  505MOL0     C69577  -0.325  11.356   9.018  0.7574 -0.0097 -0.1374
  505MOL0     C69578  -0.440  11.399   9.083 -1.1920 -0.2870  1.0091
  505MOL0     C69579  -0.439  11.498   9.187  0.8146  1.4606 -0.5755
  505MOL0     C69580  -0.577  11.549   9.221 -0.1271  0.8849 -0.0026
  505MOL0     C69581  -0.320  11.547   9.231  0.3035  0.0796 -0.7498
  505MOL0     C69582  -0.303  11.654   9.329  0.2548 -0.4939 -0.5525
  505MOL0     O69583  -0.179  11.718   9.340 -0.5199  0.5642  0.4396
  505MOL0     C69584  -0.166  11.843   9.387  0.1559 -0.9584 -0.2473
  505MOL0     C69585  -0.257  11.947   9.357 -0.8226  0.3911 -0.8889
  505MOL0     C69586  -0.229  12.081   9.401  0.1719 -0.0468 -0.3423
  505MOL0     C69587  -0.110  12.097   9.477  0.3163 -0.9055  0.0987
  505MOL0     O69588  -0.077  12.227   9.531  0.2169  0.8020 -0.6115
  505MOL0     C69589  -0.144  12.351   9.495 -0.2620 -0.0057 -0.3983
  505MOL0     C69590  -0.274  12.362   9.574  0.6785 -0.9851  0.3017
  505MOL0     C69591  -0.346  12.498   9.545  0.5884  0.9759  0.5350
  505MOL0     C69592  -0.283  12.608   9.623  0.0073 -0.2169  0.6845
  505MOL0     C69593  -0.325  12.616   9.776  0.1286  0.9681 -0.1071
  505MOL0     C69594  -0.370  12.754   9.809  0.9392 -0.0032  0.2540
  505MOL0     C69595  -0.508  12.795   9.741  0.0008 -0.9521 -0.1989
  505MOL0     C69596  -0.587  12.891   9.848  0.0185 -0.2027  0.5098
  505MOL0    Cl69597  -0.758  12.889   9.809 -0.0389  0.3557 -0.1117
  505MOL0     C69598  -0.019  11.997   9.509 -1.1115  0.9074  0.0946
  505MOL0     C69599  -0.050  11.874   9.454  0.5685  0.0601 -0.7134
  505MOL0     O69600  -0.408  11.699   9.377  0.0802 -1.0295 -0.0675
  505MOL0     C69601  -0.210  11.514   9.153 -0.3491  0.0447  0.0735
  505MOL0     C69602  -0.210  11.427   9.041 -0.0758  0.2498 -0.6836
  505MOL0     N69603   0.044  10.747   8.850 -0.7626  0.5560 -0.1196
  505MOL0     N69604   0.107  10.635   8.824 -0.5647 -0.1895  0.3500
  505MOL0     C69605   0.876  10.164   8.626  0.4583 -0.3567  0.0198
  505MOL0     C69606   0.984  10.201   8.542  0.1461 -0.7901  0.8117
  505MOL0     C69607   1.396  10.212   8.354 -0.3046 -0.4506 -1.2478
  505MOL0     C69608   1.417  10.301   8.240  0.2519  0.0774  0.3649
  505MOL0     C69609   1.538  10.340   8.193  0.4394  0.4796  0.2244
  505MOL0     C69610   1.658  10.291   8.257  0.7282 -0.0140  1.1011
  505MOL0     O69611   1.783  10.325   8.224 -0.0644 -1.1898  0.1392
  505MOL0     C69612   1.810  10.420   8.113  0.0943  0.3290  0.5087
  505MOL0     C69613   1.922  10.519   8.152 -0.5231 -0.7957 -0.4306
  505MOL0     C69614   2.062  10.459   8.119 -0.2205  0.3520  0.2426
  505MOL0     C69615   2.172  10.556   8.153  0.5568  0.1264  0.1795
  505MOL0     C69616   2.212  10.646   8.044  0.2727  0.2430 -0.2623
  505MOL0     C69617   2.252  10.707   7.945 -0.4971  0.3343  0.6524
  505MOL0     C69618   1.636  10.199   8.364 -0.4502  0.0125 -0.1351
  505MOL0     C69619   1.508  10.155   8.415 -0.2061 -0.2556 -1.1615
  505MOL0     C69620   1.508  10.042   8.519 -0.2115 -0.9461  0.2698
  505MOL0     H69621   1.216  10.104   8.774 -1.8073  0.9694  2.7460
  505MOL0     H69622   1.037  10.037   8.891 -1.3145 -1.8449  0.8584
  505MOL0     H69623   0.830  10.197   8.989  1.7485  0.3568  1.3813
  505MOL0     H69624   0.863  10.028   9.029 -0.2746  0.7420  1.0404
  505MOL0     H69625   0.591  10.040   8.960 -1.3016  0.4033 -0.0777
  505MOL0     H69626   0.646  10.034   9.127 -0.6249  1.8817  2.3730
  505MOL0     H69627   0.615  10.298   9.094  0.0231  0.4491 -1.1638
  505MOL0     H69628   0.546  10.264   8.937 -1.9946 -0.8246 -1.1020
  505MOL0     H69629   0.356  10.143   9.026 -0.8910 -1.0930  1.9700
  505MOL0     H69630   0.421  10.148   9.189 -1.1446  1.1807  1.3624
  505MOL0     H69631   0.410  10.406   9.154 -0.5995 -0.6435  2.7602
  505MOL0     H69632   0.260  10.316   9.189 -0.7314  1.4097 -1.2073
  505MOL0     H69633   0.269  10.496   9.008  0.6208  0.4548 -0.6883
  505MOL0     H69634   0.349  10.374   8.905 -1.0802 -0.1577 -0.6915
  505MOL0     H69635   0.083  10.317   9.058  0.6783  0.5609  0.3778
  505MOL0     H69636   0.174  10.214   8.945  3.3771  1.2825 -1.1650
  505MOL0     H69637   0.121  10.359   8.762  0.3923 -1.2885  0.7856
  505MOL0     H69638  -0.031  10.322   8.844  0.8755 -1.5405  0.0607
  505MOL0     H69639  -0.156  10.514   8.978  0.0690  1.7616  2.6256
  505MOL0     H69640  -0.169  10.830   9.052 -2.5867  2.0167 -0.4991
  505MOL0     H69641  -0.271  10.750   8.932  0.4103 -1.7045  3.6264
  505MOL0     H69642  -0.071  10.977   8.857 -0.2019  0.0260 -1.2173
  505MOL0     H69643  -0.206  10.919   8.771  1.4044  2.1100 -0.9150
  505MOL0     H69644  -0.371  11.009   8.920 -1.6040  1.6361  2.1510
  505MOL0     H69645  -0.240  11.075   9.032  1.0669  1.3716 -1.2152
  505MOL0     H69646  -0.155  11.229   8.883 -1.8006  0.8929  2.0068
  505MOL0     H69647  -0.264  11.162   8.744 -2.4909 -0.7704 -0.3174
  505MOL0     H69648  -0.535  11.366   9.044 -1.1191  0.7228 -0.0850
  505MOL0     H69649  -0.582  11.656   9.200 -0.5579  1.0049  0.6635
  505MOL0     H69650  -0.605  11.529   9.325 -1.7268 -1.0380 -0.7372
  505MOL0     H69651  -0.653  11.500   9.159  1.1171  0.3155 -1.1429
  505MOL0     H69652  -0.340  11.928   9.290 -2.9364  2.1993  1.0452
  505MOL0     H69653  -0.304  12.153   9.371  1.0484 -0.0550 -2.7570
  505MOL0     H69654  -0.084  12.436   9.527 -1.4508  0.1528  1.5178
  505MOL0     H69655  -0.169  12.365   9.389 -0.4127  0.1631 -0.3407
  505MOL0     H69656  -0.352  12.289   9.549 -0.2322 -0.1705  0.6779
  505MOL0     H69657  -0.257  12.355   9.682  2.0988  2.2961  0.4295
  505MOL0     H69658  -0.454  12.492   9.558  0.3467 -0.3800 -1.7212
  505MOL0     H69659  -0.346  12.520   9.438 -1.9301 -1.0416  0.0340
  505MOL0     H69660  -0.311  12.705   9.580 -2.2462 -0.6253  1.1516
  505MOL0     H69661  -0.174  12.602   9.612  0.4328  3.9432  0.9629
  505MOL0     H69662  -0.406  12.544   9.794 -0.1566  1.1877 -0.4970
  505MOL0     H69663  -0.235  12.589   9.833  0.3724  1.4467 -0.2633
  505MOL0     H69664  -0.290  12.825   9.787  0.4803  0.5219  0.2532
  505MOL0     H69665  -0.369  12.750   9.919 -0.2542 -1.7573  0.2483
  505MOL0     H69666  -0.566  12.708   9.712  1.1563 -1.5377 -0.7978
  505MOL0     H69667  -0.477  12.849   9.651  2.2567 -0.6709  0.6567
  505MOL0     H69668  -0.553  12.993   9.829  1.4188 -0.1186  2.9499
  505MOL0     H69669  -0.568  12.867   9.953  1.6414  0.1447  0.3296
  505MOL0     H69670   0.070  12.020   9.567 -0.4898 -0.0178 -0.4521
  505MOL0     H69671   0.019  11.792   9.469 -0.0766 -0.5284 -0.9333
  505MOL0     H69672  -0.113  11.563   9.159  0.6796 -1.8096 -0.7909
  505MOL0     H69673  -0.119  11.409   8.985  0.0238  1.5607 -0.9725
  505MOL0     H69674   0.776  10.180   8.588  0.3609  2.2097  1.1117
  505MOL0     H69675   0.972  10.245   8.444  0.5178 -0.2796  0.9961
  505MOL0     H69676   1.331  10.349   8.194 -0.1960 -1.3761 -0.3774
  505MOL0     H69677   1.541  10.405   8.107 -2.1972  0.8632  0.3428
  505MOL0     H69678   1.823  10.366   8.020  0.3247  3.7433 -1.6349
  505MOL0     H69679   1.722  10.482   8.090 -0.0653  0.8159  2.2685
  505MOL0     H69680   1.906  10.534   8.259  0.2658  2.2597 -0.6307
  505MOL0     H69681   1.898  10.619   8.114 -5.1220 -1.8263 -0.9114
  505MOL0     H69682   2.074  10.382   8.196 -0.0916 -0.3153 -0.4356
  505MOL0     H69683   2.052  10.428   8.014 -4.3037 -3.6516  1.4977
  505MOL0     H69684   2.261  10.497   8.177  1.8346  2.6466  2.1745
  505MOL0     H69685   2.139  10.606   8.244 -3.7517 -1.5946 -0.1782
  505MOL0     H69686   2.277  10.761   7.855  0.7459 -2.2524 -0.6784
  505MOL0     H69687   1.727  10.164   8.411  1.5609  0.4264 -3.3905
  505MOL0     H69688   1.404  10.016   8.542 -0.2328 -1.3303 -0.2495
  505MOL0     H69689   1.574   9.958   8.495  0.6008 -0.6342  1.3082
  505MOL0     H69690   1.552  10.081   8.612 -0.8111 -1.7107  0.8870
  506MOL0     O69691   6.044   2.942   8.105  0.0931  0.1806  0.3681
  506MOL0     C69692   6.071   2.860   8.015 -0.1362 -0.2142 -0.1022
  506MOL0     O69693   6.154   2.880   7.916 -0.0212  0.0592  0.1733
  506MOL0     C69694   6.273   2.948   7.937  0.5336 -0.0515 -1.0261
  506MOL0     C69695   6.296   3.079   7.886 -0.6229  0.6131  0.0656
  506MOL0     C69696   6.413   3.156   7.907 -0.5602  1.0753 -0.8153
  506MOL0     C69697   6.514   3.092   7.983  0.2497  0.2505 -0.3914
  506MOL0     O69698   6.620   3.178   8.008  0.1524  0.0492 -0.2663
  506MOL0     C69699   6.744   3.117   8.029 -0.3077  0.4760  0.4144
  506MOL0     C69700   6.867   3.209   7.988 -0.2078 -0.5446 -0.3151
  506MOL0     C69701   7.001   3.132   8.014  0.8530  0.2496 -0.1751
  506MOL0     C69702   7.108   3.233   8.032 -0.5949 -0.2141  0.1695
  506MOL0     C69703   7.254   3.173   8.027 -0.1412 -0.4126 -0.9970
  506MOL0     C69704   7.283   3.084   8.139 -0.4861  0.6736 -0.2736
  506MOL0     C69705   7.431   3.065   8.177  0.0158 -0.2597 -0.5924
  506MOL0     C69706   7.445   2.980   8.308  0.3417 -0.0511 -0.1138
  506MOL0     N69707   7.589   2.985   8.342 -0.8017  0.2240 -0.3572
  506MOL0     C69708   7.686   2.931   8.263  0.3541 -0.0493 -1.3025
  506MOL0     C69709   7.807   2.989   8.312 -0.3758  0.8063 -0.3621
  506MOL0     C69710   7.945   2.945   8.275 -0.2164  0.0749 -0.9645
  506MOL0     C69711   8.037   3.073   8.274 -0.3462 -0.1149 -0.4009
  506MOL0     C69712   8.068   3.109   8.133 -0.1775 -0.2785  0.2139
  506MOL0     C69713   8.108   3.257   8.110 -0.6032 -0.4271 -0.7084
  506MOL0     O69714   7.992   3.344   8.138 -1.4557  0.0048 -0.0622
  506MOL0     C69715   7.908   3.345   8.027  0.3198  0.1547 -0.3844
  506MOL0     C69716   7.936   3.378   7.898 -0.9904 -0.6329  0.0061
  506MOL0     C69717   7.840   3.389   7.793 -0.8388 -1.2415  0.4044
  506MOL0     C69718   7.882   3.433   7.645  0.3542 -0.2215  0.5466
  506MOL0     C69719   7.706   3.373   7.828  0.6228  0.5411 -0.5293
  506MOL0     C69720   7.585   3.385   7.743  0.9438 -0.3962  0.2400
  506MOL0     O69721   7.452   3.369   7.794 -0.0475 -0.4260  1.2064
  506MOL0     C69722   7.348   3.413   7.711 -0.2099  0.2286  0.4575
  506MOL0     C69723   7.294   3.538   7.722 -0.4781 -0.4535 -0.2165
  506MOL0     C69724   7.214   3.592   7.620  0.2078 -0.4416  0.2203
  506MOL0     C69725   7.180   3.527   7.501  0.0600  0.0451 -0.7911
  506MOL0     O69726   7.111   3.589   7.394 -0.0502 -0.5161  0.0110
  506MOL0     C69727   7.144   3.537   7.266 -0.2287 -0.6950  0.9853
  506MOL0     C69728   7.117   3.653   7.164  0.6567  0.0331  0.7392
  506MOL0     C69729   7.221   3.764   7.179  0.7445 -0.7584 -0.6255
  506MOL0     C69730   7.194   3.873   7.073  0.0672 -0.7344 -0.0431
  506MOL0     C69731   7.281   3.997   7.093  1.1503  0.3612 -0.3879
  506MOL0     C69732   7.410   3.987   7.019  0.0325  0.2161 -0.9520
  506MOL0     C69733   7.413   4.028   6.874  0.7993  0.7456  0.5382
  506MOL0     C69734   7.513   4.146   6.841 -0.3511  0.4998  0.1120
  506MOL0    Cl69735   7.679   4.105   6.893  0.3367  0.4113 -0.0110
  506MOL0     C69736   7.228   3.394   7.501 -0.0428 -0.3939 -0.5222
  506MOL0     C69737   7.314   3.334   7.603  0.7816  1.0597 -0.3349
  506MOL0     O69738   7.605   3.419   7.633 -0.2967 -0.5092  0.5711
  506MOL0     C69739   7.675   3.332   7.959 -0.2894  0.0186  0.5099
  506MOL0     C69740   7.776   3.322   8.063 -0.3022  0.0249  0.1226
  506MOL0     N69741   7.772   3.078   8.416 -0.5003 -0.3061  0.2553
  506MOL0     N69742   7.642   3.080   8.421 -0.3788 -0.1104 -0.7679
  506MOL0     C69743   6.492   2.957   8.025  0.7690  0.0651 -0.3219
  506MOL0     C69744   6.371   2.879   8.005 -0.2268  0.0143  0.0561
  506MOL0     C69745   6.024   2.724   8.018 -0.9627  1.7324  0.8849
  506MOL0     C69746   6.113   2.624   7.980 -0.3047  0.0131 -0.1680
  506MOL0     C69747   6.067   2.492   7.981  0.5430  0.2731 -0.0093
  506MOL0     C69748   5.939   2.444   8.014 -0.5004 -0.7592  0.4109
  506MOL0     O69749   5.899   2.313   7.997 -0.5830 -0.5542  0.3131
  506MOL0     C69750   5.999   2.218   7.953  1.1873  0.1825  0.3745
  506MOL0     C69751   5.946   2.074   7.948 -0.5227  0.2485  0.9928
  506MOL0     C69752   5.860   2.049   8.074  0.2862 -0.6701 -0.5792
  506MOL0     C69753   5.808   1.910   8.094 -0.0834 -0.1632 -0.3943
  506MOL0     C69754   5.909   1.804   8.083  0.5335 -0.1602  1.2188
  506MOL0     C69755   5.997   1.725   8.058 -0.1583 -0.9017  0.3159
  506MOL0     C69756   5.850   2.550   8.051  0.0725  0.4617 -0.4026
  506MOL0     C69757   5.892   2.683   8.061  0.0392 -0.1957  0.0413
  506MOL0     C69758   5.787   2.789   8.101 -0.6372  0.1135 -0.0963
  506MOL0     H69759   6.211   3.121   7.834  1.1963  2.3881 -1.6979
  506MOL0     H69760   6.421   3.257   7.868  2.0546  1.5119  0.5689
  506MOL0     H69761   6.742   3.024   7.971  0.6696  0.4154  0.4682
  506MOL0     H69762   6.756   3.087   8.133  1.1727  0.7611  0.3367
  506MOL0     H69763   6.859   3.244   7.885 -2.5713 -2.0743 -0.7294
  506MOL0     H69764   6.868   3.296   8.054 -0.2490  0.6907 -1.8767
  506MOL0     H69765   7.001   3.050   8.086  1.8242 -0.0338 -0.4828
  506MOL0     H69766   7.027   3.089   7.917 -0.5895  2.4767 -1.6606
  506MOL0     H69767   7.106   3.300   7.946 -1.2110 -0.9758 -0.4193
  506MOL0     H69768   7.093   3.287   8.126  0.5676 -2.7522  1.9529
  506MOL0     H69769   7.328   3.254   8.033 -1.6178  0.9775 -1.0780
  506MOL0     H69770   7.275   3.127   7.931  2.6017 -2.2795  0.3396
  506MOL0     H69771   7.222   3.121   8.221  0.3279 -2.1337  1.7759
  506MOL0     H69772   7.242   2.985   8.117 -1.4757  0.1288  3.4181
  506MOL0     H69773   7.457   3.169   8.200  0.3422 -0.7143  1.2693
  506MOL0     H69774   7.497   3.029   8.097 -2.8245 -0.8281 -2.8317
  506MOL0     H69775   7.380   3.018   8.387 -1.5436 -0.7481 -1.2712
  506MOL0     H69776   7.411   2.879   8.282  0.0133  0.4638 -1.7721
  506MOL0     H69777   7.662   2.855   8.189 -0.7343  1.1560 -2.2174
  506MOL0     H69778   7.939   2.883   8.185 -0.5563  0.4330 -1.1937
  506MOL0     H69779   7.975   2.869   8.347  1.9542  2.3712  0.7090
  506MOL0     H69780   7.980   3.152   8.324  1.1402  0.6769  0.1275
  506MOL0     H69781   8.130   3.065   8.331 -0.4515  2.4655  0.2654
  506MOL0     H69782   8.150   3.043   8.103 -0.9574 -1.5772  0.8387
  506MOL0     H69783   7.991   3.080   8.061  1.4930  1.7587 -2.5721
  506MOL0     H69784   8.192   3.276   8.177 -1.3913  1.6249 -0.2158
  506MOL0     H69785   8.137   3.272   8.006 -2.2012 -0.4443 -1.1822
  506MOL0     H69786   8.038   3.397   7.867 -0.5968 -5.5299 -2.7624
  506MOL0     H69787   7.845   3.350   7.583  0.6152  0.3236 -0.3466
  506MOL0     H69788   7.991   3.428   7.648  0.3920 -0.3892 -0.6337
  506MOL0     H69789   7.837   3.530   7.622 -0.0090  0.5536  3.9950
  506MOL0     H69790   7.324   3.591   7.811  3.3390 -0.6219 -1.2257
  506MOL0     H69791   7.186   3.697   7.624  0.3600 -0.1184 -3.5151
  506MOL0     H69792   7.248   3.505   7.267 -1.0783 -3.9277 -0.3145
  506MOL0     H69793   7.081   3.448   7.253 -1.6593  0.1834  1.6370
  506MOL0     H69794   7.122   3.627   7.058  2.0960 -2.8664  1.3928
  506MOL0     H69795   7.014   3.689   7.168 -0.9545 -4.1044  3.1456
  506MOL0     H69796   7.326   3.734   7.174  0.9328 -0.7696  2.1298
  506MOL0     H69797   7.221   3.813   7.277  1.1953 -1.9789  0.0071
  506MOL0     H69798   7.094   3.912   7.096  1.3341  3.5174 -0.9648
  506MOL0     H69799   7.201   3.835   6.970 -0.9504 -1.6962  0.2251
  506MOL0     H69800   7.214   4.076   7.056 -1.5251 -1.6370 -0.1272
  506MOL0     H69801   7.304   4.018   7.198  3.7153 -2.3060 -0.3184
  506MOL0     H69802   7.459   3.889   7.024 -1.4043 -0.5961 -1.7700
  506MOL0     H69803   7.475   4.060   7.068 -0.1042  0.6453 -1.3944
  506MOL0     H69804   7.312   4.057   6.843  0.8109  2.1949  1.7309
  506MOL0     H69805   7.435   3.939   6.815 -2.7866  0.9087 -1.3506
  506MOL0     H69806   7.480   4.244   6.878  1.2332  1.0522  0.1347
  506MOL0     H69807   7.503   4.165   6.733  1.4871  0.1452 -0.1544
  506MOL0     H69808   7.208   3.337   7.411  2.2473  0.5256 -1.6976
  506MOL0     H69809   7.365   3.238   7.597  0.7994  0.8634  1.9022
  506MOL0     H69810   7.573   3.311   7.988 -1.4277  2.2111 -1.5163
  506MOL0     H69811   7.745   3.302   8.165  0.2293 -0.4168  0.1995
  506MOL0     H69812   6.561   2.901   8.087 -0.5320  0.3930  1.4858
  506MOL0     H69813   6.379   2.778   8.044  3.1544  0.5676  1.1125
  506MOL0     H69814   6.215   2.637   7.946  0.8648 -2.3702  2.0871
  506MOL0     H69815   6.148   2.427   7.951 -0.7988 -0.4099 -2.3936
  506MOL0     H69816   6.026   2.248   7.851  3.8355  0.1892  0.9960
  506MOL0     H69817   6.091   2.226   8.012 -0.2442  0.9637  2.6180
  506MOL0     H69818   6.036   2.015   7.931  1.0780  3.0579 -1.2964
  506MOL0     H69819   5.892   2.078   7.853  4.3336  0.1639 -2.1043
  506MOL0     H69820   5.915   2.075   8.166  4.7407 -0.7606 -2.9172
  506MOL0     H69821   5.779   2.121   8.061  0.6499 -0.3999 -1.3990
  506MOL0     H69822   5.727   1.889   8.024 -1.5249  1.6932  0.6168
  506MOL0     H69823   5.767   1.905   8.195 -0.8126 -0.1231 -0.6838
  506MOL0     H69824   6.069   1.648   8.037  1.5071  0.3687  1.0932
  506MOL0     H69825   5.747   2.527   8.078  0.1321  2.1807  1.5158
  506MOL0     H69826   5.803   2.880   8.043  2.1135  0.6511  1.3788
  506MOL0     H69827   5.684   2.752   8.090 -0.6035 -0.1585  0.4570
  506MOL0     H69828   5.807   2.799   8.208  3.0683  1.7782 -0.8218
  507MOL0     O69829  10.326   0.868   7.499  0.2223  0.1224  0.3847
  507MOL0     C69830  10.361   0.760   7.550 -1.3128 -0.3396 -0.3344
  507MOL0     O69831  10.291   0.642   7.559  0.4236 -0.9941  0.4654
  507MOL0     C69832  10.197   0.623   7.461  0.8199 -1.0540  1.4396
  507MOL0     C69833  10.074   0.697   7.467 -0.2259 -0.4015  0.1891
  507MOL0     C69834   9.969   0.664   7.387  0.3252 -0.7418  0.5768
  507MOL0     C69835   9.985   0.580   7.282  0.0110 -0.7247 -1.4367
  507MOL0     O69836   9.894   0.562   7.184  0.3408  0.3938  0.5087
  507MOL0     C69837   9.772   0.637   7.183 -0.8536 -0.2566  0.8136
  507MOL0     C69838   9.649   0.563   7.235  0.0072  1.2037  0.7215
  507MOL0     C69839   9.655   0.543   7.386 -0.6312  0.6826 -0.9135
  507MOL0     C69840   9.569   0.419   7.431 -0.7315 -0.2217 -0.5582
  507MOL0     C69841   9.416   0.435   7.404  0.0663 -0.2853 -0.6908
  507MOL0     C69842   9.327   0.311   7.442  0.3287  0.1597  0.1560
  507MOL0     C69843   9.186   0.348   7.462 -0.5635 -0.1821 -0.2649
  507MOL0     C69844   9.093   0.239   7.510  0.4375  0.0798 -0.5738
  507MOL0     N69845   9.062   0.145   7.401  0.2798 -0.0707 -0.0340
  507MOL0     C69846   9.099   0.014   7.388 -0.9985  0.0382  0.3444
  507MOL0     C69847   9.023  -0.028   7.284  0.3735 -0.2713 -0.4071
  507MOL0     C69848   8.999  -0.176   7.247  0.5821 -0.4092 -0.0138
  507MOL0     C69849   8.924  -0.225   7.117 -0.8145  0.4829  0.8489
  507MOL0     C69850   9.004  -0.166   6.996  0.9956  0.5768  0.2659
  507MOL0     C69851   8.911  -0.188   6.865 -0.9891  0.5424 -0.8494
  507MOL0     O69852   8.953  -0.096   6.758  0.0381  0.4203  0.8002
  507MOL0     C69853   8.927  -0.146   6.632 -0.0962 -0.3328  0.3202
  507MOL0     C69854   8.797  -0.164   6.582  0.2098 -0.3224 -0.1004
  507MOL0     C69855   8.773  -0.195   6.446  0.6396 -0.1938  0.0945
  507MOL0     C69856   8.627  -0.197   6.408 -0.4273  0.3929  0.5799
  507MOL0     C69857   8.887  -0.216   6.357 -0.1509  0.2418  1.2657
  507MOL0     C69858   8.870  -0.243   6.215 -0.5299  0.0999  0.5340
  507MOL0     O69859   8.751  -0.209   6.149  0.0221  0.3839 -0.7742
  507MOL0     C69860   8.721  -0.223   6.006 -0.6563 -0.4793 -0.8779
  507MOL0     C69861   8.812  -0.236   5.897  0.3411  0.2144 -0.3414
  507MOL0     C69862   8.766  -0.223   5.763  0.1792 -0.4721  0.3082
  507MOL0     C69863   8.638  -0.209   5.735  0.4350  0.9412 -0.2533
  507MOL0     O69864   8.583  -0.202   5.605 -0.1169 -0.5262 -0.8265
  507MOL0     C69865   8.657  -0.137   5.501 -0.1430  0.4323 -0.9083
  507MOL0     C69866   8.569  -0.065   5.410  0.9758  0.4341  0.4806
  507MOL0     C69867   8.649   0.024   5.328 -0.5637 -0.7321 -0.3680
  507MOL0     C69868   8.741  -0.054   5.230  0.1484 -1.3317  0.2687
  507MOL0     C69869   8.792   0.041   5.124  0.0181  0.6108  1.0638
  507MOL0     C69870   8.912  -0.023   5.059 -0.2186 -1.0085  0.7523
  507MOL0     C69871   9.041   0.063   5.075 -0.5677  0.7494  0.0457
  507MOL0     C69872   9.044   0.196   5.006 -0.7818 -0.0874  0.6949
  507MOL0    Cl69873   9.080   0.173   4.833  0.0554  0.0548 -0.2581
  507MOL0     C69874   8.543  -0.218   5.835 -0.5892 -0.1657  0.7048
  507MOL0     C69875   8.588  -0.223   5.969  0.1319 -0.0321 -0.6891
  507MOL0     O69876   8.970  -0.274   6.154  0.2145 -0.2635 -0.4581
  507MOL0     C69877   9.014  -0.215   6.420 -0.4540 -0.2099 -0.7170
  507MOL0     C69878   9.040  -0.175   6.546  0.2473 -0.6137 -0.6654
  507MOL0     N69879   8.940   0.076   7.238 -0.3057 -0.2405 -0.1620
  507MOL0     N69880   8.957   0.168   7.324  0.0909  0.5896  0.6826
  507MOL0     C69881  10.108   0.513   7.277  0.4916 -0.5979 -0.1960
  507MOL0     C69882  10.211   0.529   7.365 -0.5855 -0.3967 -0.4338
  507MOL0     C69883  10.491   0.757   7.617  0.7368 -1.3827 -0.3797
  507MOL0     C69884  10.490   0.715   7.753 -0.0237  0.0284  0.2757
  507MOL0     C69885  10.597   0.744   7.838 -0.5561 -0.3399 -0.5565
  507MOL0     C69886  10.704   0.813   7.788  0.0839 -1.1767  0.7546
  507MOL0     O69887  10.817   0.830   7.862 -0.2721  0.3456  0.5519
  507MOL0     C69888  10.793   0.952   7.944 -0.4923 -0.0508  0.4001
  507MOL0     C69889  10.927   0.996   8.001 -0.0090  0.4891 -0.2903
  507MOL0     C69890  11.024   1.015   7.879 -0.3863  0.3972 -0.6305
  507MOL0     C69891  11.160   1.076   7.931 -0.9337  0.5072 -0.4880
  507MOL0     C69892  11.150   1.220   7.930  0.4361  0.1115  0.6870
  507MOL0     C69893  11.139   1.335   7.926  0.5267 -0.0744 -0.1383
  507MOL0     C69894  10.702   0.854   7.656  0.0836 -0.2242 -0.9788
  507MOL0     C69895  10.597   0.838   7.572 -0.3751 -0.0024  0.8919
  507MOL0     C69896  10.598   0.907   7.435 -0.2052  0.0961 -0.2180
  507MOL0     H69897  10.064   0.764   7.553 -1.9780 -1.0209  0.4943
  507MOL0     H69898   9.873   0.711   7.409 -0.1048 -2.1858  1.9559
  507MOL0     H69899   9.750   0.663   7.079 -4.5303 -2.4620  0.8490
  507MOL0     H69900   9.775   0.734   7.234 -3.2138 -0.4707  1.4481
  507MOL0     H69901   9.555   0.599   7.192 -0.0665  0.3752  0.1593
  507MOL0     H69902   9.646   0.462   7.192  0.2001  2.1228 -1.6193
  507MOL0     H69903   9.753   0.499   7.408 -1.7679 -2.1294 -1.0710
  507MOL0     H69904   9.639   0.638   7.438  1.5166 -0.1160  1.4586
  507MOL0     H69905   9.590   0.332   7.368  2.5397  1.0144 -1.3628
  507MOL0     H69906   9.582   0.410   7.539  0.0294 -0.9436 -0.7040
  507MOL0     H69907   9.404   0.456   7.297  2.2456 -1.9561 -1.3423
  507MOL0     H69908   9.381   0.516   7.469  3.0068 -1.0600  2.1514
  507MOL0     H69909   9.327   0.234   7.363 -0.0529  1.7844 -1.4826
  507MOL0     H69910   9.365   0.261   7.532  0.9463  0.7119  0.2110
  507MOL0     H69911   9.162   0.391   7.364  0.3599 -0.3886 -0.5865
  507MOL0     H69912   9.187   0.417   7.548  0.1182 -1.1126  0.4921
  507MOL0     H69913   9.142   0.182   7.589  0.3655  2.7029  1.4666
  507MOL0     H69914   9.000   0.285   7.545 -0.0106 -2.1344  1.3935
  507MOL0     H69915   9.166  -0.041   7.452 -0.1733 -1.8366 -2.0126
  507MOL0     H69916   8.939  -0.227   7.323 -1.7053 -1.7745 -2.5862
  507MOL0     H69917   9.095  -0.228   7.250  1.2202  0.6427 -1.2584
  507MOL0     H69918   8.918  -0.334   7.123 -0.9060  0.4806  0.7150
  507MOL0     H69919   8.818  -0.201   7.115 -1.2773 -1.3641  1.5648
  507MOL0     H69920   9.032  -0.061   7.005 -3.9051  2.5600 -3.2022
  507MOL0     H69921   9.095  -0.225   6.980 -0.8380 -2.1299 -0.8207
  507MOL0     H69922   8.897  -0.294   6.840 -1.2159  0.4791 -0.4606
  507MOL0     H69923   8.810  -0.154   6.888 -1.2144 -0.0468 -0.9369
  507MOL0     H69924   8.720  -0.149   6.657 -0.4723 -0.4915 -0.7515
  507MOL0     H69925   8.563  -0.200   6.496  1.8406  0.5298  2.3340
  507MOL0     H69926   8.611  -0.294   6.360 -2.8120  1.0677 -0.0953
  507MOL0     H69927   8.593  -0.118   6.339  2.0846  3.0527  2.1336
  507MOL0     H69928   8.919  -0.253   5.903  0.6787  2.3872  0.7098
  507MOL0     H69929   8.830  -0.227   5.675  0.5838 -1.3148  0.6289
  507MOL0     H69930   8.732  -0.065   5.536 -0.7635  0.9859 -0.6851
  507MOL0     H69931   8.722  -0.211   5.454 -1.8488 -0.3611 -2.0807
  507MOL0     H69932   8.527  -0.142   5.344 -1.0213 -0.3436  2.5295
  507MOL0     H69933   8.491  -0.012   5.465  0.0546  0.3211 -0.6922
  507MOL0     H69934   8.712   0.091   5.388 -3.1407 -0.0754  1.8004
  507MOL0     H69935   8.577   0.088   5.275  0.1463  0.1690 -0.2819
  507MOL0     H69936   8.691  -0.136   5.177  0.2692 -0.7980 -0.6806
  507MOL0     H69937   8.824  -0.105   5.279 -2.1181 -3.6461  2.0069
  507MOL0     H69938   8.719   0.065   5.046  0.6319 -2.8298 -0.7536
  507MOL0     H69939   8.812   0.140   5.166  3.7838  0.6326 -0.3305
  507MOL0     H69940   8.889  -0.039   4.953 -2.3616 -3.4899  1.5021
  507MOL0     H69941   8.917  -0.129   5.088 -3.4806 -2.6421 -3.5953
  507MOL0     H69942   9.134   0.011   5.049  0.4856  2.6192 -0.1486
  507MOL0     H69943   9.049   0.078   5.183  0.2404 -0.9856  0.2764
  507MOL0     H69944   9.132   0.245   5.048  0.6841 -2.6598  0.8326
  507MOL0     H69945   8.947   0.245   5.017 -2.0231 -2.0371 -0.8577
  507MOL0     H69946   8.435  -0.216   5.820 -0.3206  0.2573 -1.4161
  507MOL0     H69947   8.509  -0.214   6.043  0.3757  6.7300 -0.6909
  507MOL0     H69948   9.109  -0.232   6.370  1.6560 -3.2680  3.6634
  507MOL0     H69949   9.142  -0.179   6.584 -0.3337  1.4921  1.3246
  507MOL0     H69950  10.126   0.456   7.186  0.3714  1.1754 -1.3836
  507MOL0     H69951  10.299   0.467   7.353 -1.7190 -3.1044  3.3219
  507MOL0     H69952  10.403   0.662   7.791 -2.5874  2.1115 -2.2063
  507MOL0     H69953  10.588   0.729   7.945  1.2338  2.9359  0.1667
  507MOL0     H69954  10.749   1.024   7.875  0.7557 -2.0856 -2.7534
  507MOL0     H69955  10.718   0.919   8.016 -0.7347 -2.9490 -1.0413
  507MOL0     H69956  10.969   0.920   8.068  0.8412 -0.0197 -1.3772
  507MOL0     H69957  10.916   1.087   8.061  2.9016  0.0403  1.0641
  507MOL0     H69958  11.039   0.917   7.834  1.9243 -0.4671  1.7644
  507MOL0     H69959  10.972   1.073   7.802 -2.2504  1.9276  1.6169
  507MOL0     H69960  11.233   1.063   7.851 -1.6199 -1.0618 -0.8893
  507MOL0     H69961  11.209   1.039   8.021  0.3940  0.1946 -1.3173
  507MOL0     H69962  11.117   1.437   7.950  0.8387  0.1812 -0.9090
  507MOL0     H69963  10.787   0.913   7.624 -1.5354  1.5511 -2.1606
  507MOL0     H69964  10.697   0.892   7.389 -0.7969 -3.8889 -0.5440
  507MOL0     H69965  10.527   0.851   7.374 -0.8298 -3.6680  3.5248
  507MOL0     H69966  10.574   1.014   7.442 -1.2869 -0.0128 -1.8487
  508MOL0     O69967  10.639   6.751   1.861 -0.1152 -0.7789  0.1131
  508MOL0     C69968  10.645   6.846   1.943  0.6214  0.5644  0.3709
  508MOL0     O69969  10.763   6.890   1.994 -0.4072 -0.5116 -0.4738
  508MOL0     C69970  10.877   6.813   1.978 -0.2875  0.3066 -0.3415
  508MOL0     C69971  10.924   6.723   2.075  0.7060 -0.1138  0.2005
  508MOL0     C69972  11.040   6.643   2.065  0.6258 -0.5400  0.3529
  508MOL0     C69973  11.123   6.672   1.954  0.1879  0.9932 -0.5782
  508MOL0     O69974  11.235   6.605   1.921 -0.3111  0.6602 -0.1158
  508MOL0     C69975  11.208   6.488   1.838  0.5650 -0.3136 -0.4931
  508MOL0     C69976  11.330   6.388   1.823  0.1555  0.3005  0.7885
  508MOL0     C69977  11.461   6.464   1.798 -0.4697 -0.2850 -0.4163
  508MOL0     C69978  11.577   6.366   1.782  0.4147 -0.4173 -0.1507
  508MOL0     C69979  11.707   6.438   1.725  1.1785 -0.6152 -0.4750
  508MOL0     C69980  11.812   6.331   1.711  0.3366 -0.1666  0.7018
  508MOL0     C69981  11.952   6.371   1.664  0.3705  0.4227 -0.3156
  508MOL0     C69982  12.045   6.250   1.691  0.2288 -0.4482 -0.8870
  508MOL0     N69983  12.076   6.235   1.838 -0.2977  0.6367  0.1655
  508MOL0     C69984  12.173   6.304   1.912  0.9361 -0.2582  0.1043
  508MOL0     C69985  12.165   6.244   2.032  0.0767  0.2546  0.3538
  508MOL0     C69986  12.241   6.274   2.162  0.4883  0.5262 -0.0273
  508MOL0     C69987  12.392   6.290   2.153 -0.5288  0.4742  0.2589
  508MOL0     C69988  12.458   6.310   2.294 -0.0551 -0.3143  0.3893
  508MOL0     C69989  12.602   6.345   2.283 -0.0022  0.3489 -0.9403
  508MOL0     O69990  12.602   6.470   2.213 -0.1109  0.1880 -0.4014
  508MOL0     C69991  12.727   6.538   2.191 -0.1397  0.8473 -0.0283
  508MOL0     C69992  12.852   6.488   2.222  0.0553  0.3346 -0.1294
  508MOL0     C69993  12.975   6.558   2.188 -0.1201 -0.2553 -0.0928
  508MOL0     C69994  13.097   6.483   2.219  0.5746 -0.0550 -0.1074
  508MOL0     C69995  12.969   6.687   2.126 -0.3823  0.3520  0.5543
  508MOL0     C69996  13.088   6.775   2.104 -0.2008  0.7458 -0.3278
  508MOL0     O69997  13.068   6.894   2.047  0.4814  0.9657 -0.0217
  508MOL0     C69998  13.175   6.973   2.012 -0.5206 -0.3393 -0.1319
  508MOL0     C69999  13.208   7.096   2.076  0.8031 -0.5506  0.4258
  508MOL0     C70000  13.332   7.155   2.048  0.1180 -0.2056 -0.0373
  508MOL0     C70001  13.430   7.095   1.959 -0.9081  0.2511 -0.5496
  508MOL0     O70002  13.556   7.151   1.941 -1.0254 -0.2856 -0.0692
  508MOL0     C70003  13.676   7.068   1.917  0.5117  0.0877  0.4847
  508MOL0     C70004  13.813   7.146   1.922 -0.7497 -0.2130 -0.5688
  508MOL0     C70005  13.832   7.250   1.810  0.0162  0.4098  0.6517
  508MOL0     C70006  13.958   7.330   1.819 -0.4126 -0.7304  0.6689
  508MOL0     C70007  13.995   7.414   1.695  0.8049 -0.4861 -0.0834
  508MOL0     C70008  14.042   7.322   1.567  0.0151  0.0140  1.0459
  508MOL0     C70009  14.115   7.416   1.468 -0.6714  0.0446 -1.2053
  508MOL0     C70010  14.155   7.350   1.344 -0.2500  0.0511  0.6363
  508MOL0    Cl70011  14.282   7.224   1.360  0.0578  0.6160 -0.3248
  508MOL0     C70012  13.392   6.985   1.889  0.3479  0.0329 -1.3415
  508MOL0     C70013  13.266   6.933   1.906 -0.2498 -0.1133 -0.1658
  508MOL0     O70014  13.197   6.741   2.158 -0.3944  0.2790 -0.2346
  508MOL0     C70015  12.842   6.727   2.074  0.1526 -0.1065  0.4201
  508MOL0     C70016  12.732   6.656   2.115  0.0807  0.8749  0.4335
  508MOL0     N70017  12.079   6.139   2.024  0.4043 -0.4776 -0.5903
  508MOL0     N70018  12.021   6.128   1.906 -0.9957  0.0768 -0.1007
  508MOL0     C70019  11.080   6.761   1.852 -0.6943 -0.1638  0.1769
  508MOL0     C70020  10.963   6.834   1.866  0.0059  0.8328  0.3072
  508MOL0     C70021  10.523   6.910   1.988 -0.9224  0.0520  0.3063
  508MOL0     C70022  10.530   7.045   2.040  0.1563  0.9002 -0.5908
  508MOL0     C70023  10.414   7.128   2.060 -0.0998 -0.0566  0.3087
  508MOL0     C70024  10.290   7.068   2.057 -0.2634  0.5068  0.4370
  508MOL0     O70025  10.183   7.150   2.082 -0.0274 -0.1026  0.4991
  508MOL0     C70026  10.055   7.096   2.090  0.1447  0.1184 -0.2471
  508MOL0     C70027  10.030   7.023   2.225 -0.0890 -0.5408 -0.3362
  508MOL0     C70028   9.904   6.930   2.245  0.3439  1.2579 -0.5629
  508MOL0     C70029   9.774   7.011   2.268 -0.0248  0.4071  0.0795
  508MOL0     C70030   9.734   7.029   2.407 -0.5500  0.6597 -0.5612
  508MOL0     C70031   9.687   7.066   2.509  0.3481  0.6306  0.2127
  508MOL0     C70032  10.276   6.933   2.012 -0.1816 -0.1806  0.1670
  508MOL0     C70033  10.392   6.855   1.979 -0.1348  0.4744 -0.5336
  508MOL0     C70034  10.365   6.720   1.912  0.0236  0.5086  0.3925
  508MOL0     H70035  10.862   6.716   2.164  1.2349 -3.0680  0.4194
  508MOL0     H70036  11.078   6.579   2.144 -0.0892  1.9347  2.8740
  508MOL0     H70037  11.174   6.529   1.742 -0.4642  1.4416  0.5678
  508MOL0     H70038  11.122   6.429   1.873 -1.2603  2.0685 -0.6762
  508MOL0     H70039  11.347   6.331   1.914  1.1624  0.9264  1.0054
  508MOL0     H70040  11.316   6.324   1.735  1.4919  1.2234 -0.1374
  508MOL0     H70041  11.462   6.526   1.707  1.8463  0.4660  0.0497
  508MOL0     H70042  11.470   6.536   1.880  1.3747  2.0719 -2.5220
  508MOL0     H70043  11.605   6.323   1.879  3.3327 -0.7704 -1.0373
  508MOL0     H70044  11.547   6.284   1.716 -0.9979  2.6446 -3.6514
  508MOL0     H70045  11.727   6.515   1.800  1.4927 -1.1322 -0.0259
  508MOL0     H70046  11.680   6.486   1.630  3.3713  1.9333  0.0683
  508MOL0     H70047  11.804   6.270   1.802 -0.8956 -2.7627 -1.0255
  508MOL0     H70048  11.780   6.257   1.637  0.7331 -0.5105  0.8668
  508MOL0     H70049  11.996   6.456   1.718  1.1968  0.8981 -1.6812
  508MOL0     H70050  11.937   6.399   1.560 -2.5509  0.2885 -0.0018
  508MOL0     H70051  11.998   6.159   1.653  1.1358 -1.1767 -0.3234
  508MOL0     H70052  12.139   6.265   1.636  2.4676 -0.2137  2.6678
  508MOL0     H70053  12.236   6.390   1.892  1.3711  0.3310  3.4236
  508MOL0     H70054  12.221   6.198   2.238 -1.2953  1.9229  0.9961
  508MOL0     H70055  12.202   6.356   2.223  3.0464  0.1456  2.3541
  508MOL0     H70056  12.427   6.196   2.109 -0.8371 -0.5051  2.0394
  508MOL0     H70057  12.411   6.379   2.091  2.3771 -0.1485  0.1170
  508MOL0     H70058  12.405   6.395   2.337 -2.1424 -0.1389 -2.2627
  508MOL0     H70059  12.445   6.218   2.352  1.5454 -2.3534 -2.2386
  508MOL0     H70060  12.649   6.346   2.382 -2.2423 -0.6133  0.2201
  508MOL0     H70061  12.666   6.278   2.225  2.2308  1.5569  0.0125
  508MOL0     H70062  12.846   6.388   2.264 -0.0530  0.3698 -0.0601
  508MOL0     H70063  13.164   6.480   2.132 -0.3872  2.6872 -1.0657
  508MOL0     H70064  13.066   6.382   2.248 -1.2205  0.4542 -0.1135
  508MOL0     H70065  13.146   6.522   2.308 -0.5732  2.5360 -0.5129
  508MOL0     H70066  13.148   7.151   2.148  1.5537  2.3371 -0.9922
  508MOL0     H70067  13.356   7.243   2.108  2.0687 -0.9223  0.3145
  508MOL0     H70068  13.673   6.989   1.992 -0.1341 -1.3530 -0.9977
  508MOL0     H70069  13.668   7.035   1.813 -0.5460  2.0954 -0.1315
  508MOL0     H70070  13.837   7.181   2.023 -2.1541 -0.2336 -0.2062
  508MOL0     H70071  13.880   7.064   1.895  1.6699  1.0837  1.1163
  508MOL0     H70072  13.747   7.319   1.816  0.9913  1.5362  3.0463
  508MOL0     H70073  13.831   7.198   1.714  2.1527  0.8501  0.3527
  508MOL0     H70074  14.043   7.268   1.849  1.1722  1.3010  0.6442
  508MOL0     H70075  13.942   7.387   1.911 -1.3799 -2.6166  1.7137
  508MOL0     H70076  13.906   7.468   1.663 -0.1247 -1.3264  1.0201
  508MOL0     H70077  14.080   7.483   1.704  0.0382  1.8534 -6.0110
  508MOL0     H70078  13.953   7.279   1.519 -1.2596  1.0725  2.3460
  508MOL0     H70079  14.115   7.245   1.593  2.2531  0.3840 -3.2842
  508MOL0     H70080  14.201   7.466   1.513 -2.4793 -0.4549  3.4134
  508MOL0     H70081  14.040   7.493   1.449 -0.5220  0.3320 -0.6532
  508MOL0     H70082  14.182   7.426   1.270 -1.6125 -1.0730 -1.0854
  508MOL0     H70083  14.063   7.305   1.306 -0.4281  0.0836  1.0239
  508MOL0     H70084  13.451   6.937   1.812 -2.8894 -1.2845 -3.1907
  508MOL0     H70085  13.244   6.834   1.869 -0.4596 -0.9573  2.0924
  508MOL0     H70086  12.830   6.824   2.026 -0.6413  0.4862  1.7529
  508MOL0     H70087  12.637   6.706   2.095  0.3089  0.4224 -2.1393
  508MOL0     H70088  11.141   6.784   1.766 -0.5256  2.4013  0.9053
  508MOL0     H70089  10.933   6.910   1.794  0.4367 -0.3826 -1.1961
  508MOL0     H70090  10.626   7.094   2.040  1.2410 -1.1240  0.1780
  508MOL0     H70091  10.410   7.235   2.082 -0.3234 -0.0606  0.2912
  508MOL0     H70092   9.988   7.182   2.096  1.4427  1.2379 -1.1370
  508MOL0     H70093  10.028   7.025   2.011 -0.6654 -1.1035  1.0816
  508MOL0     H70094  10.046   7.082   2.315 -0.2853  1.0181 -1.2931
  508MOL0     H70095  10.106   6.944   2.226 -1.2990 -1.8329  2.7037
  508MOL0     H70096   9.888   6.861   2.162 -1.5841  0.3879  0.4655
  508MOL0     H70097   9.936   6.861   2.323 -0.7244  1.1034 -0.2356
  508MOL0     H70098   9.690   6.959   2.220  1.3080 -0.3521 -1.5507
  508MOL0     H70099   9.777   7.108   2.217 -0.2384  0.0174 -0.6913
  508MOL0     H70100   9.659   7.117   2.599 -0.2234 -0.1003  0.4498
  508MOL0     H70101  10.179   6.884   2.009  0.6761 -2.0181  0.7969
  508MOL0     H70102  10.446   6.647   1.913  1.0541  1.5698  2.7431
  508MOL0     H70103  10.275   6.672   1.950  0.4562 -0.4078  0.2695
  508MOL0     H70104  10.348   6.742   1.806 -1.1081 -0.2855  0.3957
  509MOL0     O70105   9.964   8.859  11.472 -1.3406  0.4904  0.5664
  509MOL0     C70106   9.947   8.857  11.358  0.1894  0.2751 -0.0324
  509MOL0     O70107  10.036   8.875  11.258 -0.7267 -0.4184 -0.0630
  509MOL0     C70108  10.168   8.907  11.301 -0.0361  0.9716  0.1756
  509MOL0     C70109  10.215   9.029  11.317  0.2196 -0.9244 -1.1435
  509MOL0     C70110  10.354   9.047  11.355 -0.1628  0.7022 -0.1468
  509MOL0     C70111  10.445   8.943  11.362 -0.5112  0.5365 -1.0792
  509MOL0     O70112  10.572   8.971  11.393 -0.1761  0.1110  0.1581
  509MOL0     C70113  10.677   8.876  11.389 -0.2682  0.0267 -1.2572
  509MOL0     C70114  10.780   8.926  11.490 -0.6160  0.4747  1.3306
  509MOL0     C70115  10.884   8.819  11.525 -0.3310  0.8502  0.7249
  509MOL0     C70116  10.965   8.870  11.645  0.5695 -0.2866 -0.3110
  509MOL0     C70117  11.084   8.788  11.695 -0.4265 -0.2510  0.1774
  509MOL0     C70118  11.186   8.746  11.584  1.4694 -0.6175  0.7447
  509MOL0     C70119  11.306   8.678  11.638 -1.0357  0.2288  0.0196
  509MOL0     C70120  11.443   8.754  11.602 -0.6811 -0.0601 -0.2218
  509MOL0     N70121  11.458   8.887  11.665  0.2468 -0.3162 -0.6209
  509MOL0     C70122  11.446   8.914  11.795  0.0509  0.2270  0.1269
  509MOL0     C70123  11.448   9.049  11.805 -0.2864 -0.0539  0.2798
  509MOL0     C70124  11.453   9.142  11.921  0.3533  0.1698  0.1152
  509MOL0     C70125  11.547   9.099  12.033  0.2429  0.9256  0.2223
  509MOL0     C70126  11.689   9.072  11.988  0.7915 -0.1914  0.2087
  509MOL0     C70127  11.774   9.061  12.109 -1.1034  0.0799 -0.4526
  509MOL0     O70128  11.902   9.018  12.055 -0.4055  0.0360 -0.1037
  509MOL0     C70129  12.005   9.011  12.154  0.1618 -0.8875 -0.2127
  509MOL0     C70130  11.987   9.022  12.299 -0.0013  0.7784 -0.1718
  509MOL0     C70131  12.093   9.025  12.385 -0.7162 -0.4769  0.3140
  509MOL0     C70132  12.070   9.056  12.532 -0.4301 -0.3830 -0.8374
  509MOL0     C70133  12.227   9.005  12.340  0.1543 -0.6684  0.2821
  509MOL0     C70134  12.346   8.998  12.429  0.9546 -0.6196  0.3328
  509MOL0     O70135  12.363   9.079  12.537  1.0815  0.1041  0.2993
  509MOL0     C70136  12.477   9.074  12.604  0.4826  0.3921  0.9276
  509MOL0     C70137  12.502   8.975  12.697 -0.3948 -0.1284  0.0852
  509MOL0     C70138  12.640   8.956  12.750  0.2687 -0.2043 -0.2638
  509MOL0     C70139  12.744   9.035  12.696 -1.3567  0.3509 -0.3064
  509MOL0     O70140  12.880   9.029  12.739  0.0938  0.1607 -0.8813
  509MOL0     C70141  12.903   8.962  12.865  0.4945 -0.4883  0.0775
  509MOL0     C70142  13.041   8.996  12.920 -0.8713  0.3855 -0.0616
  509MOL0     C70143  13.146   8.953  12.809 -0.5215  0.6734  0.1507
  509MOL0     C70144  13.260   9.051  12.788  0.1139  0.0845 -0.9041
  509MOL0     C70145  13.362   9.008  12.700 -1.0681 -0.2611 -0.0474
  509MOL0     C70146  13.484   9.096  12.720  0.4270  0.4249  0.0049
  509MOL0     C70147  13.578   9.082  12.605  0.2530  0.2140 -0.1801
  509MOL0     C70148  13.688   9.188  12.608  0.0241  0.0492 -0.4403
  509MOL0    Cl70149  13.732   9.202  12.435 -0.0543  0.3458  0.0777
  509MOL0     C70150  12.717   9.135  12.605 -0.1806  0.1861 -0.8757
  509MOL0     C70151  12.587   9.155  12.565  0.5833 -0.0510 -0.6587
  509MOL0     O70152  12.434   8.928  12.386 -0.0391 -0.1370  0.1168
  509MOL0     C70153  12.242   8.985  12.201  0.0982  0.0797  0.4163
  509MOL0     C70154  12.139   9.001  12.115 -0.4906 -0.2518  0.5497
  509MOL0     N70155  11.457   9.094  11.677 -0.0731 -0.8390 -1.1134
  509MOL0     N70156  11.454   9.001  11.595  0.1304 -0.1838  0.3825
  509MOL0     C70157  10.389   8.810  11.346  0.0333  0.1370 -0.0498
  509MOL0     C70158  10.253   8.793  11.301 -0.1049 -0.9067 -0.2395
  509MOL0     C70159   9.810   8.835  11.318 -0.8354  2.0201 -0.1061
  509MOL0     C70160   9.699   8.900  11.373  0.3727 -0.3299  0.0511
  509MOL0     C70161   9.566   8.866  11.335 -0.2456 -0.3986  0.5810
  509MOL0     C70162   9.537   8.781  11.230 -0.1541  0.4723  0.2372
  509MOL0     O70163   9.419   8.775  11.165 -0.1738 -0.4488  0.4327
  509MOL0     C70164   9.372   8.903  11.104 -0.5897 -0.0387  0.2630
  509MOL0     C70165   9.235   8.950  11.144  0.1800  0.2708  1.2119
  509MOL0     C70166   9.231   8.984  11.293  0.0994 -0.1753  0.8020
  509MOL0     C70167   9.110   9.065  11.337 -0.0525  0.2485  0.2633
  509MOL0     C70168   8.977   9.002  11.310 -0.7474 -0.2901 -0.6721
  509MOL0     C70169   8.875   8.946  11.281  0.1803  0.2948  0.3969
  509MOL0     C70170   9.649   8.732  11.161  0.0212 -0.0082 -1.1838
  509MOL0     C70171   9.783   8.746  11.216  0.4404 -0.8740  1.0117
  509MOL0     C70172   9.878   8.667  11.142  0.5368 -0.3666 -0.1142
  509MOL0     H70173  10.139   9.107  11.319  1.9822  0.9183  1.3939
  509MOL0     H70174  10.392   9.144  11.386 -1.0062  1.0089 -0.0506
  509MOL0     H70175  10.720   8.872  11.289  0.3439  2.0358 -1.1165
  509MOL0     H70176  10.655   8.779  11.434 -0.6970  1.1534  1.1679
  509MOL0     H70177  10.828   9.021  11.468  0.3989 -0.3770 -0.3027
  509MOL0     H70178  10.729   8.950  11.584 -1.9658  0.0105  0.7477
  509MOL0     H70179  10.835   8.724  11.544 -0.0777  0.0796 -2.0668
  509MOL0     H70180  10.959   8.808  11.446  1.0696  4.7282  1.2594
  509MOL0     H70181  10.996   8.974  11.631 -1.8361  0.7592  1.3215
  509MOL0     H70182  10.890   8.874  11.725 -1.1162  0.0314 -1.8529
  509MOL0     H70183  11.053   8.704  11.759 -2.9994 -0.2497 -0.9419
  509MOL0     H70184  11.141   8.850  11.764 -0.1458 -4.4077  4.1944
  509MOL0     H70185  11.135   8.670  11.525 -0.5890  1.8301 -0.8410
  509MOL0     H70186  11.205   8.835  11.522 -4.5162  1.4765  1.3083
  509MOL0     H70187  11.309   8.583  11.585 -0.5270 -0.4349  1.2110
  509MOL0     H70188  11.296   8.669  11.747 -2.7982 -3.0565 -0.2996
  509MOL0     H70189  11.525   8.689  11.636 -0.8904  0.4677  1.3486
  509MOL0     H70190  11.449   8.770  11.494  1.9338 -0.9525 -0.2949
  509MOL0     H70191  11.430   8.843  11.875  2.8566 -1.6963 -0.8643
  509MOL0     H70192  11.352   9.147  11.963  0.5971  0.0444  0.7188
  509MOL0     H70193  11.480   9.240  11.880  2.7639 -0.6401 -0.4031
  509MOL0     H70194  11.546   9.167  12.118  1.7852 -0.8776  1.7770
  509MOL0     H70195  11.524   9.000  12.074 -0.1021 -0.0238 -2.1202
  509MOL0     H70196  11.695   8.983  11.925  0.9107 -0.1817  0.2065
  509MOL0     H70197  11.722   9.161  11.934  0.0274  0.3870  0.6717
  509MOL0     H70198  11.785   9.162  12.149  1.4916 -0.0153 -0.7436
  509MOL0     H70199  11.734   8.988  12.179  0.7198  1.1018  1.7849
  509MOL0     H70200  11.895   9.036  12.353 -0.4699 -1.5423 -0.2535
  509MOL0     H70201  11.963   9.039  12.544  0.0981 -3.3245  0.7615
  509MOL0     H70202  12.102   9.155  12.566 -0.5363  0.3254 -2.6956
  509MOL0     H70203  12.117   8.983  12.599 -0.7577  0.7561  0.6801
  509MOL0     H70204  12.424   8.906  12.728 -0.0736 -1.3874 -1.7503
  509MOL0     H70205  12.656   8.877  12.823  1.5288 -1.1433 -1.4871
  509MOL0     H70206  12.828   8.978  12.942 -0.8991 -1.0146 -1.1331
  509MOL0     H70207  12.903   8.854  12.850  4.7757 -0.5180 -1.0866
  509MOL0     H70208  13.046   9.105  12.918 -2.0205  0.4735  0.9153
  509MOL0     H70209  13.063   8.951  13.017  0.5097 -0.8250 -0.8842
  509MOL0     H70210  13.099   8.946  12.711  1.8574  1.2793 -1.1119
  509MOL0     H70211  13.180   8.854  12.840 -0.7628 -0.0407 -1.7712
  509MOL0     H70212  13.309   9.064  12.885  1.5935  1.0078 -1.7405
  509MOL0     H70213  13.225   9.149  12.755 -3.5382  0.5134  3.3668
  509MOL0     H70214  13.384   8.902  12.714  0.9422 -0.0472 -1.2329
  509MOL0     H70215  13.334   9.011  12.594 -0.9302 -2.6147 -0.1978
  509MOL0     H70216  13.534   9.049  12.806 -0.8400 -1.2669 -0.1210
  509MOL0     H70217  13.460   9.198  12.753  1.9513  0.7011  0.3470
  509MOL0     H70218  13.523   9.109  12.514  2.2310  1.3501 -1.1046
  509MOL0     H70219  13.609   8.978  12.597  1.8257  0.5308  1.1220
  509MOL0     H70220  13.777   9.159  12.666  1.2764  1.2185 -1.6782
  509MOL0     H70221  13.653   9.282  12.653  0.8951  0.2915 -0.2419
  509MOL0     H70222  12.798   9.179  12.546 -1.2394  1.4774 -1.4410
  509MOL0     H70223  12.575   9.213  12.474 -3.0147 -1.1066 -0.9822
  509MOL0     H70224  12.339   8.973  12.154 -1.0190 -0.5952 -1.8527
  509MOL0     H70225  12.157   8.991  12.009  1.3266  1.9792  0.5525
  509MOL0     H70226  10.452   8.730  11.383 -0.8304 -0.3254  0.4675
  509MOL0     H70227  10.219   8.693  11.276 -0.3994 -1.9179  3.5961
  509MOL0     H70228   9.725   8.962  11.458  4.5550 -1.8333  0.0804
  509MOL0     H70229   9.484   8.917  11.385 -0.6050 -2.5434  2.3534
  509MOL0     H70230   9.443   8.983  11.131 -0.3295 -0.2177  0.1172
  509MOL0     H70231   9.390   8.901  10.996 -0.6562  5.1395 -0.1224
  509MOL0     H70232   9.159   8.875  11.122 -0.5606  1.4175 -0.2942
  509MOL0     H70233   9.230   9.051  11.102  1.7504  0.3341  1.1224
  509MOL0     H70234   9.238   8.895  11.356  0.0603 -1.0329 -0.3836
  509MOL0     H70235   9.314   9.048  11.324 -0.5712  0.1387  2.0284
  509MOL0     H70236   9.095   9.168  11.303 -2.4563 -0.0940  0.1030
  509MOL0     H70237   9.120   9.080  11.445  1.4256 -0.2112  0.2003
  509MOL0     H70238   8.779   8.907  11.254 -0.6707  1.7361  1.1797
  509MOL0     H70239   9.635   8.666  11.076 -0.1228 -1.6248  0.0314
  509MOL0     H70240   9.912   8.726  11.056  2.4226 -0.2186  0.6967
  509MOL0     H70241   9.961   8.633  11.204  0.6155 -1.5980 -0.8625
  509MOL0     H70242   9.837   8.571  11.107 -0.0289  0.7136 -2.6722
  510MOL0     O70243   1.551   6.326   1.316  0.2306 -0.0343 -0.2638
  510MOL0     C70244   1.561   6.211   1.268  0.2113 -0.1648  0.9383
  510MOL0     O70245   1.678   6.142   1.249 -0.1576  0.1448 -0.3373
  510MOL0     C70246   1.792   6.199   1.301  0.4991  0.3807  0.6494
  510MOL0     C70247   1.826   6.200   1.437 -0.0972 -0.7789 -0.4566
  510MOL0     C70248   1.955   6.242   1.478  0.5114  1.1653  0.1694
  510MOL0     C70249   2.052   6.272   1.389 -0.5838  0.0703  0.8020
  510MOL0     O70250   2.187   6.297   1.414 -0.1072 -0.1221 -0.1522
  510MOL0     C70251   2.228   6.343   1.548  0.5195  0.0086  0.6869
  510MOL0     C70252   2.351   6.431   1.547 -0.7692  0.0796 -0.1425
  510MOL0     C70253   2.337   6.539   1.446  0.8517 -0.7842 -0.0192
  510MOL0     C70254   2.427   6.655   1.473 -0.4371 -0.5786 -0.0959
  510MOL0     C70255   2.448   6.733   1.345 -0.3263 -0.3571  0.2234
  510MOL0     C70256   2.562   6.821   1.373  0.0364 -0.2585 -0.1107
  510MOL0     C70257   2.597   6.911   1.253 -1.2161 -0.1040 -0.0711
  510MOL0     C70258   2.749   6.913   1.224 -0.7097  0.5789 -0.0253
  510MOL0     N70259   2.785   7.005   1.113 -0.0437 -0.1216 -0.3990
  510MOL0     C70260   2.908   7.004   1.051 -0.2592  0.4547 -0.3146
  510MOL0     C70261   2.904   7.105   0.957 -0.4845  0.5094 -0.3061
  510MOL0     C70262   3.017   7.141   0.871 -1.1180 -0.4945  0.7799
  510MOL0     C70263   2.996   7.091   0.721  0.0125  0.0894  0.1983
  510MOL0     C70264   2.900   7.176   0.646  0.5425  0.7040  0.0231
  510MOL0     C70265   2.849   7.132   0.521 -0.1716  0.7511  0.0201
  510MOL0     O70266   2.932   7.177   0.418  0.5484  0.5464  0.4200
  510MOL0     C70267   2.895   7.145   0.288 -0.6400  0.7056  0.0225
  510MOL0     C70268   2.978   7.196   0.191 -0.4696 -0.5450  0.1590
  510MOL0     C70269   2.958   7.172   0.051 -0.6834 -0.2344 -0.5353
  510MOL0     C70270   3.050   7.236  -0.059  0.3389  0.8150 -0.1244
  510MOL0     C70271   2.863   7.086   0.018  0.5963  0.1197  0.2408
  510MOL0     C70272   2.833   7.048  -0.123 -1.7817 -0.1050 -0.7069
  510MOL0     O70273   2.705   7.057  -0.163  0.5590 -0.1565 -0.6258
  510MOL0     C70274   2.692   7.070  -0.299  0.0703  0.0432  0.7109
  510MOL0     C70275   2.578   7.027  -0.360  0.2064  0.3478 -0.3378
  510MOL0     C70276   2.540   7.037  -0.491  0.7562 -0.3554 -0.0208
  510MOL0     C70277   2.636   7.098  -0.577  0.1556 -0.5029 -0.6148
  510MOL0     O70278   2.607   7.108  -0.713 -1.0335 -0.2490  0.2378
  510MOL0     C70279   2.533   7.225  -0.743 -0.6415  0.3416 -0.8605
  510MOL0     C70280   2.567   7.271  -0.889 -0.5341  0.7937  0.0264
  510MOL0     C70281   2.708   7.256  -0.945 -0.0736  0.5002 -0.0954
  510MOL0     C70282   2.815   7.347  -0.866  0.1784 -0.1918 -0.2207
  510MOL0     C70283   2.783   7.494  -0.883  1.0410  1.1199  0.2755
  510MOL0     C70284   2.892   7.593  -0.844 -0.2101 -0.3212  0.4900
  510MOL0     C70285   2.950   7.550  -0.709  0.1229 -0.3167 -0.7928
  510MOL0     C70286   3.001   7.674  -0.635  0.7981  0.0701  0.3291
  510MOL0    Cl70287   2.875   7.795  -0.586 -0.7589  0.6863  0.3238
  510MOL0     C70288   2.760   7.137  -0.518  0.5956 -0.9331 -0.5893
  510MOL0     C70289   2.785   7.137  -0.378  0.2764  0.4358  0.3662
  510MOL0     O70290   2.930   7.000  -0.185 -0.3907 -0.7696  0.2194
  510MOL0     C70291   2.780   7.035   0.120 -0.2305  0.9098 -0.2506
  510MOL0     C70292   2.795   7.062   0.252 -0.1073 -0.1341 -0.3401
  510MOL0     N70293   2.779   7.159   0.964 -0.5103  0.5547 -0.3786
  510MOL0     N70294   2.703   7.100   1.049  0.2464 -0.2504 -0.1435
  510MOL0     C70295   2.017   6.281   1.256 -0.5093  1.2718  0.2877
  510MOL0     C70296   1.888   6.248   1.213  0.1173  0.3780  0.8147
  510MOL0     C70297   1.433   6.149   1.205  0.6865  0.5660  0.5730
  510MOL0     C70298   1.444   6.016   1.147 -1.2444 -0.1039 -0.2999
  510MOL0     C70299   1.331   5.947   1.100 -0.6404 -0.0603 -0.2291
  510MOL0     C70300   1.205   5.999   1.121  0.3654 -1.3766 -0.3722
  510MOL0     O70301   1.101   5.925   1.068 -0.8787  0.3438  0.0730
  510MOL0     C70302   0.966   5.967   1.097  1.8789  0.5487  0.4663
  510MOL0     C70303   0.859   5.865   1.053 -0.8274 -0.2797 -0.0355
  510MOL0     C70304   0.888   5.737   1.126 -0.1047 -0.2540  0.0343
  510MOL0     C70305   0.781   5.618   1.109  0.0297  0.5514  0.4103
  510MOL0     C70306   0.788   5.548   0.984  0.4988  1.3258  0.3310
  510MOL0     C70307   0.768   5.483   0.882 -0.1353  0.0717  0.2143
  510MOL0     C70308   1.195   6.132   1.171  0.9683  0.1361 -0.1674
  510MOL0     C70309   1.300   6.209   1.212  0.6573 -0.1541 -0.3136
  510MOL0     C70310   1.261   6.350   1.257  0.0011 -0.4056 -0.3848
  510MOL0     H70311   1.754   6.162   1.508  1.1604 -1.8438  0.2853
  510MOL0     H70312   1.984   6.227   1.581  2.9868 -1.5911 -0.7516
  510MOL0     H70313   2.234   6.253   1.610  0.3685 -1.8065 -1.7507
  510MOL0     H70314   2.145   6.398   1.592 -2.7358 -1.4972 -2.9950
  510MOL0     H70315   2.357   6.457   1.653  1.4422  1.7658 -0.6180
  510MOL0     H70316   2.440   6.372   1.525 -2.9776 -3.6913  0.0227
  510MOL0     H70317   2.344   6.505   1.342 -3.1496 -0.0958 -0.6601
  510MOL0     H70318   2.236   6.579   1.438  0.7704 -1.3045 -2.6597
  510MOL0     H70319   2.391   6.731   1.543  3.7916  4.5625 -2.8120
  510MOL0     H70320   2.525   6.626   1.511 -0.2060 -1.8214 -1.5422
  510MOL0     H70321   2.360   6.781   1.300  1.4880  0.7651 -2.3600
  510MOL0     H70322   2.486   6.659   1.274 -2.7975 -2.5891  1.0572
  510MOL0     H70323   2.543   6.884   1.461  2.1449  2.9335 -1.7047
  510MOL0     H70324   2.645   6.753   1.395  0.6626  1.2080  2.6009
  510MOL0     H70325   2.572   7.012   1.286 -0.7212  0.2571 -0.7705
  510MOL0     H70326   2.549   6.888   1.157  1.9972  1.4073 -2.1943
  510MOL0     H70327   2.787   6.950   1.320 -4.5996 -0.9688  2.3706
  510MOL0     H70328   2.773   6.809   1.200  1.1550  0.7987  0.7350
  510MOL0     H70329   2.991   6.940   1.079 -2.0200 -0.8395  2.4253
  510MOL0     H70330   3.117   7.122   0.911 -0.6320 -0.6426 -0.4480
  510MOL0     H70331   3.016   7.250   0.880  2.6748 -0.4734  2.9269
  510MOL0     H70332   3.086   7.075   0.660 -1.1429 -0.2087 -1.5289
  510MOL0     H70333   2.945   6.994   0.724 -1.9817  1.1192  2.8013
  510MOL0     H70334   2.817   7.204   0.712  1.5169  1.0422  1.1580
  510MOL0     H70335   2.955   7.270   0.637  3.4664 -0.8736  0.3053
  510MOL0     H70336   2.846   7.023   0.523  2.7003  0.5300 -1.4706
  510MOL0     H70337   2.744   7.163   0.515 -0.7858 -1.1732  0.0516
  510MOL0     H70338   3.057   7.260   0.229 -0.5085 -0.9276  0.9167
  510MOL0     H70339   2.988   7.282  -0.137 -1.8940 -1.0613  0.4101
  510MOL0     H70340   3.114   7.159  -0.103 -0.4953 -1.2048  1.9857
  510MOL0     H70341   3.115   7.313  -0.016 -0.7123  1.6764 -0.0399
  510MOL0     H70342   2.507   6.976  -0.296 -1.3811  0.8320 -1.6571
  510MOL0     H70343   2.440   7.006  -0.520  0.8958 -0.3855 -0.4799
  510MOL0     H70344   2.427   7.209  -0.722  0.1644  0.1729  4.0763
  510MOL0     H70345   2.567   7.310  -0.683  0.8323  0.7270 -2.1383
  510MOL0     H70346   2.503   7.213  -0.957 -0.0190  0.5078 -0.2159
  510MOL0     H70347   2.531   7.374  -0.898  2.8644  2.0154 -0.9806
  510MOL0     H70348   2.696   7.284  -1.050 -1.2198  0.7865  0.1020
  510MOL0     H70349   2.731   7.150  -0.941 -0.7906  0.3481  3.9607
  510MOL0     H70350   2.915   7.333  -0.909  0.0692 -0.1597 -0.4876
  510MOL0     H70351   2.833   7.310  -0.764  0.3573  0.8129  0.1229
  510MOL0     H70352   2.738   7.513  -0.981  0.7207  0.0080  0.1972
  510MOL0     H70353   2.704   7.518  -0.812  0.2914 -1.0113  0.2398
  510MOL0     H70354   2.847   7.691  -0.824  2.2709  1.0746 -0.3046
  510MOL0     H70355   2.973   7.600  -0.917  1.2373  1.9421  2.1660
  510MOL0     H70356   3.020   7.466  -0.717 -0.0970 -1.2084  3.9850
  510MOL0     H70357   2.875   7.507  -0.643  2.5667 -1.6878  1.2750
  510MOL0     H70358   3.068   7.723  -0.705  2.8970  0.9443  2.7863
  510MOL0     H70359   3.073   7.650  -0.556  1.6804 -0.2688 -0.5552
  510MOL0     H70360   2.842   7.170  -0.581 -0.1221 -1.9350 -2.1129
  510MOL0     H70361   2.877   7.183  -0.341  1.1175 -0.6161 -0.3522
  510MOL0     H70362   2.689   6.983   0.095 -2.1745  3.0263  1.8854
  510MOL0     H70363   2.721   7.024   0.323 -0.5372  0.8919 -0.2208
  510MOL0     H70364   2.092   6.310   1.182  1.4683 -3.0418  0.2933
  510MOL0     H70365   1.859   6.229   1.110  2.7187 -0.8681  0.2196
  510MOL0     H70366   1.534   5.956   1.138 -0.8007  0.0370  2.3865
  510MOL0     H70367   1.337   5.846   1.062 -1.2056 -0.8508  1.6828
  510MOL0     H70368   0.961   5.987   1.205  1.5981 -0.1490  0.5946
  510MOL0     H70369   0.945   6.057   1.039 -0.3828 -0.0671  0.2494
  510MOL0     H70370   0.859   5.847   0.945  0.1281  1.6994 -0.4170
  510MOL0     H70371   0.758   5.903   1.074 -0.2023  0.5165  1.7669
  510MOL0     H70372   0.986   5.692   1.109 -0.2461 -0.8392  0.7258
  510MOL0     H70373   0.881   5.766   1.231  1.0738  2.0705 -0.4711
  510MOL0     H70374   0.677   5.650   1.115 -0.2293 -0.4262  1.5186
  510MOL0     H70375   0.802   5.560   1.199 -0.8977  0.1310  0.3728
  510MOL0     H70376   0.752   5.425   0.793 -1.4112  1.5751 -0.5852
  510MOL0     H70377   1.099   6.180   1.183  2.2481  2.4158  1.8276
  510MOL0     H70378   1.267   6.360   1.365  2.0370  1.7906 -0.6078
  510MOL0     H70379   1.335   6.422   1.220 -0.4561  0.3487  0.1354
  510MOL0     H70380   1.160   6.391   1.243  0.5669  1.9011  1.5548
  511MOL0     O70381   8.120   1.437   3.624 -0.0336  0.5500  0.1285
  511MOL0     C70382   8.203   1.405   3.537 -1.0107 -0.4799 -0.6692
  511MOL0     O70383   8.179   1.332   3.426 -0.0638 -0.1543  0.0514
  511MOL0     C70384   8.051   1.277   3.411 -0.9561 -0.1288  0.9910
  511MOL0     C70385   8.010   1.174   3.487  0.6548 -0.3374  0.4043
  511MOL0     C70386   7.907   1.089   3.447 -0.2265  0.3695  1.1385
  511MOL0     C70387   7.824   1.130   3.339 -0.0905  0.0587  0.0590
  511MOL0     O70388   7.715   1.051   3.315 -0.3714  0.2996 -0.5444
  511MOL0     C70389   7.604   1.095   3.245 -0.0279 -0.5339 -0.0615
  511MOL0     C70390   7.484   1.005   3.282 -0.0948  0.7709  0.3397
  511MOL0     C70391   7.416   1.045   3.406 -0.2610 -0.0960 -0.6560
  511MOL0     C70392   7.311   0.932   3.429 -0.0681 -0.1803 -0.2721
  511MOL0     C70393   7.219   0.990   3.538 -0.2920  0.3951  0.8682
  511MOL0     C70394   7.129   0.882   3.603 -0.3122  0.2046 -0.3246
  511MOL0     C70395   7.011   0.948   3.688 -0.0041  0.7239 -0.0110
  511MOL0     C70396   6.927   0.823   3.735  0.3731 -1.1904  0.1630
  511MOL0     N70397   7.002   0.721   3.802 -0.5745  0.6302 -0.2691
  511MOL0     C70398   7.091   0.736   3.914  0.0459  0.0555  0.6982
  511MOL0     C70399   7.147   0.611   3.930  0.1197 -0.1176 -0.1396
  511MOL0     C70400   7.243   0.568   4.037  0.0657  0.2027  0.8454
  511MOL0     C70401   7.385   0.631   4.024  0.0173  0.6308  0.3153
  511MOL0     C70402   7.405   0.755   4.111  0.4892  0.6744  0.7082
  511MOL0     C70403   7.550   0.787   4.156 -0.2252  0.8770  0.4829
  511MOL0     O70404   7.565   0.925   4.193  0.6723  0.0142  0.4277
  511MOL0     C70405   7.691   0.980   4.161 -0.4246  0.7119  0.4607
  511MOL0     C70406   7.733   1.087   4.235 -0.4154  1.0390 -0.9751
  511MOL0     C70407   7.851   1.159   4.222  0.4087  0.0437 -0.3456
  511MOL0     C70408   7.887   1.260   4.331  0.3114  0.9193 -0.0520
  511MOL0     C70409   7.940   1.115   4.121 -1.1988  0.2071 -0.7308
  511MOL0     C70410   8.072   1.185   4.077  0.5804 -0.8359  0.4637
  511MOL0     O70411   8.142   1.124   3.980 -0.7035  0.1230 -0.1618
  511MOL0     C70412   8.274   1.146   3.958  0.6310  0.6807  0.3248
  511MOL0     C70413   8.311   1.206   3.845  0.1047 -1.1099 -0.5760
  511MOL0     C70414   8.436   1.229   3.808  0.3481 -0.1537  0.8608
  511MOL0     C70415   8.545   1.177   3.885  0.1312 -0.3452 -0.3909
  511MOL0     O70416   8.677   1.192   3.872 -0.6291 -0.4967  0.1760
  511MOL0     C70417   8.700   1.321   3.811 -0.5848 -0.1116  0.0014
  511MOL0     C70418   8.842   1.370   3.823 -0.1175  0.3023 -0.7143
  511MOL0     C70419   8.925   1.299   3.719  0.9560 -0.4272 -0.3710
  511MOL0     C70420   9.073   1.337   3.707  0.6187 -0.2558  0.0541
  511MOL0     C70421   9.168   1.282   3.823 -0.3367 -0.0457  0.4600
  511MOL0     C70422   9.309   1.352   3.830  0.3484  0.4820  0.4479
  511MOL0     C70423   9.317   1.491   3.875 -0.4673 -0.4862 -0.8800
  511MOL0     C70424   9.458   1.531   3.905  0.0243 -0.0697 -0.0561
  511MOL0    Cl70425   9.518   1.586   3.741 -0.0253  0.3006  0.0998
  511MOL0     C70426   8.513   1.102   4.001  0.6022 -0.3398  0.0443
  511MOL0     C70427   8.376   1.089   4.041  0.0581 -0.7755  0.4399
  511MOL0     O70428   8.083   1.306   4.117 -0.5454  0.4699 -0.2300
  511MOL0     C70429   7.905   0.995   4.048 -0.8428 -0.8687 -0.0652
  511MOL0     C70430   7.795   0.925   4.074 -0.0647  0.1238 -0.6046
  511MOL0     N70431   7.081   0.530   3.839 -0.3942  0.1275  0.0082
  511MOL0     N70432   7.010   0.591   3.761  0.2600 -0.1406 -0.6063
  511MOL0     C70433   7.861   1.242   3.265 -0.5317 -0.9127  0.0171
  511MOL0     C70434   7.975   1.311   3.295  0.3486 -0.2837  0.0173
  511MOL0     C70435   8.351   1.450   3.545  1.1371 -0.2950  0.4149
  511MOL0     C70436   8.377   1.535   3.654 -0.3549 -0.1651 -0.4466
  511MOL0     C70437   8.497   1.601   3.676 -0.6274 -0.9579  0.0025
  511MOL0     C70438   8.601   1.590   3.586 -0.2667  0.5288  0.5084
  511MOL0     O70439   8.717   1.666   3.603  0.6963  0.3106  0.6738
  511MOL0     C70440   8.796   1.687   3.483 -0.2632  0.8970 -0.5197
  511MOL0     C70441   8.863   1.824   3.506  0.7428  0.3067  0.2827
  511MOL0     C70442   8.878   1.918   3.384 -0.8190 -0.4319 -0.1228
  511MOL0     C70443   8.736   1.957   3.339  1.2971  0.1640 -0.7090
  511MOL0     C70444   8.742   2.028   3.205  1.2660 -0.0679 -0.5971
  511MOL0     C70445   8.734   2.080   3.096  0.6337 -0.3323 -0.7476
  511MOL0     C70446   8.585   1.493   3.484  0.7174  0.1632  0.0056
  511MOL0     C70447   8.462   1.427   3.458 -0.5230 -1.0231  0.2966
  511MOL0     C70448   8.450   1.350   3.332 -0.1714  0.2249 -0.2066
  511MOL0     H70449   8.065   1.139   3.573 -2.2861 -4.2753  0.9475
  511MOL0     H70450   7.874   0.996   3.493 -1.9402  0.0363 -0.6498
  511MOL0     H70451   7.621   1.091   3.138  1.8238  0.4348  0.1633
  511MOL0     H70452   7.585   1.197   3.278  0.3468 -1.1616  2.3053
  511MOL0     H70453   7.418   1.000   3.196  1.6361 -1.1462 -0.9745
  511MOL0     H70454   7.514   0.900   3.282  0.2076  0.8473 -0.5965
  511MOL0     H70455   7.488   1.042   3.489 -1.9813  0.0655  0.9283
  511MOL0     H70456   7.377   1.146   3.390 -0.3288 -0.0712 -0.3431
  511MOL0     H70457   7.257   0.919   3.335 -2.8410 -1.0576  1.3271
  511MOL0     H70458   7.353   0.836   3.459  1.6657  1.1374  1.7232
  511MOL0     H70459   7.148   1.054   3.484 -0.6432 -0.7542 -0.0815
  511MOL0     H70460   7.269   1.052   3.613 -0.7199  1.4077  0.3425
  511MOL0     H70461   7.081   0.824   3.523 -1.5234 -0.5739  0.9385
  511MOL0     H70462   7.185   0.820   3.674 -2.0401 -0.1324  0.7884
  511MOL0     H70463   6.953   1.019   3.628 -2.0476 -1.8249 -1.2488
  511MOL0     H70464   7.048   1.010   3.771  0.5655  0.5476 -0.1241
  511MOL0     H70465   6.848   0.854   3.804  0.7866  0.5284 -0.0934
  511MOL0     H70466   6.872   0.777   3.652 -0.5143  0.5386 -0.2619
  511MOL0     H70467   7.092   0.828   3.972  2.8203  1.6233 -1.5975
  511MOL0     H70468   7.256   0.460   4.031  1.2349  0.1924  2.6668
  511MOL0     H70469   7.206   0.596   4.136  0.9637  3.1142  0.4546
  511MOL0     H70470   7.455   0.554   4.059  0.4676  0.6644 -0.4819
  511MOL0     H70471   7.403   0.646   3.917  0.0475 -0.2186  0.1963
  511MOL0     H70472   7.367   0.834   4.046 -2.7682  0.8746  2.6653
  511MOL0     H70473   7.345   0.751   4.202  0.2990  1.6224  0.6276
  511MOL0     H70474   7.585   0.731   4.243  1.2057  2.3249  0.8843
  511MOL0     H70475   7.611   0.758   4.069 -3.3909 -1.1331 -1.2538
  511MOL0     H70476   7.668   1.131   4.310 -0.4299  0.2349 -0.5003
  511MOL0     H70477   7.836   1.232   4.423 -0.0147  1.2579 -0.1274
  511MOL0     H70478   7.862   1.364   4.306  0.9050  1.4370  1.4223
  511MOL0     H70479   7.992   1.238   4.351  0.0465  2.1816  3.2838
  511MOL0     H70480   8.235   1.224   3.769  1.7108  0.0721 -1.9730
  511MOL0     H70481   8.446   1.279   3.712  2.1677 -2.1464 -0.0709
  511MOL0     H70482   8.677   1.314   3.704 -0.9225 -1.3064  0.1304
  511MOL0     H70483   8.640   1.391   3.870  2.1875 -0.8807  4.1894
  511MOL0     H70484   8.843   1.478   3.811 -1.0616  0.0999 -3.1632
  511MOL0     H70485   8.870   1.348   3.927 -4.1721  0.3480  0.5760
  511MOL0     H70486   8.878   1.315   3.622  0.1468 -1.8241 -0.2248
  511MOL0     H70487   8.916   1.191   3.735 -1.2236 -0.4221 -1.3304
  511MOL0     H70488   9.081   1.446   3.694 -1.6492 -0.0616 -0.0689
  511MOL0     H70489   9.116   1.285   3.622  1.4855  1.9294 -0.9290
  511MOL0     H70490   9.124   1.303   3.921 -2.4969  0.6853 -0.6027
  511MOL0     H70491   9.185   1.175   3.809 -0.3243  0.2411 -2.2918
  511MOL0     H70492   9.355   1.336   3.732 -0.5572 -3.4510  0.4957
  511MOL0     H70493   9.372   1.293   3.897 -2.2848 -0.8652  1.8960
  511MOL0     H70494   9.277   1.496   3.977  0.9618 -1.4760 -0.2398
  511MOL0     H70495   9.260   1.551   3.804 -0.1066 -0.1297 -0.8664
  511MOL0     H70496   9.518   1.456   3.957 -1.3310 -0.6739  0.6964
  511MOL0     H70497   9.463   1.614   3.977 -0.6615  1.9510 -2.1999
  511MOL0     H70498   8.588   1.057   4.064  1.2002 -0.4659 -0.7479
  511MOL0     H70499   8.357   1.031   4.130 -0.2926  0.1185  0.9682
  511MOL0     H70500   7.978   0.958   3.978  1.3166 -0.3175  1.7994
  511MOL0     H70501   7.784   0.825   4.034 -2.5938  0.0310  0.1572
  511MOL0     H70502   7.814   1.264   3.170 -1.2466 -1.6070  0.1994
  511MOL0     H70503   8.007   1.391   3.230  0.6976 -0.9730 -0.6697
  511MOL0     H70504   8.303   1.542   3.733 -0.6516 -2.5066 -0.4347
  511MOL0     H70505   8.506   1.670   3.759  0.3442  0.9712 -1.6063
  511MOL0     H70506   8.876   1.614   3.467  2.0484  3.4211 -1.4130
  511MOL0     H70507   8.732   1.681   3.395 -1.2245 -1.6890  0.2841
  511MOL0     H70508   8.968   1.807   3.530  0.9326  0.4499 -0.4394
  511MOL0     H70509   8.815   1.868   3.594  0.0362 -0.0070  0.0632
  511MOL0     H70510   8.950   1.997   3.407  1.6955 -1.5954 -3.1907
  511MOL0     H70511   8.920   1.869   3.296  3.0348  3.4256 -0.7548
  511MOL0     H70512   8.708   2.031   3.414  3.2341 -0.5215  0.7612
  511MOL0     H70513   8.666   1.873   3.329  1.0682  0.4413 -1.6027
  511MOL0     H70514   8.715   2.124   3.000 -2.1040 -0.2105 -0.2280
  511MOL0     H70515   8.659   1.468   3.409 -3.0657  0.2359 -4.1136
  511MOL0     H70516   8.546   1.307   3.300  1.0265  2.2470  0.4462
  511MOL0     H70517   8.378   1.270   3.348 -1.1269  0.9790 -0.6827
  511MOL0     H70518   8.401   1.409   3.255  1.4167  0.4360 -1.1144
  512MOL0     O70519   5.903   5.545  10.351 -0.1162 -0.1868 -0.6559
  512MOL0     C70520   5.945   5.613  10.254  0.0997 -0.3697  0.6742
  512MOL0     O70521   6.069   5.640  10.214 -0.7370 -1.1580 -0.0475
  512MOL0     C70522   6.181   5.580  10.276  0.1845 -0.3005 -0.1733
  512MOL0     C70523   6.298   5.564  10.200  0.0035  0.6286  0.7508
  512MOL0     C70524   6.424   5.553  10.253  0.0770 -0.4093  0.1516
  512MOL0     C70525   6.438   5.537  10.392 -0.5476  1.3654  0.7484
  512MOL0     O70526   6.570   5.518  10.435 -0.1185  0.0233  0.0799
  512MOL0     C70527   6.599   5.547  10.573  0.3133  0.9094 -0.7186
  512MOL0     C70528   6.743   5.517  10.604 -0.0439  1.0554  0.5590
  512MOL0     C70529   6.750   5.390  10.705  0.2211 -0.7106  0.6506
  512MOL0     C70530   6.877   5.305  10.668  0.3560 -0.0783 -0.6458
  512MOL0     C70531   6.883   5.176  10.761  0.0980  0.0212 -0.5550
  512MOL0     C70532   7.014   5.090  10.738  0.4887  0.3895  0.8202
  512MOL0     C70533   7.145   5.174  10.764  0.0185  0.7165 -0.9406
  512MOL0     C70534   7.271   5.097  10.816 -0.5940 -0.7474 -0.6198
  512MOL0     N70535   7.306   5.002  10.706  0.6504 -1.1691  0.2375
  512MOL0     C70536   7.288   4.865  10.713  0.0284  0.0026  0.4844
  512MOL0     C70537   7.296   4.829  10.584 -0.1422  0.8568  0.6322
  512MOL0     C70538   7.274   4.687  10.531  0.2512  0.6738  0.1756
  512MOL0     C70539   7.128   4.672  10.489  0.0503 -0.3684  0.5669
  512MOL0     C70540   7.108   4.696  10.345 -0.7384  0.3978 -0.9272
  512MOL0     C70541   6.959   4.709  10.298 -1.2574 -0.3107 -0.0735
  512MOL0     O70542   6.893   4.829  10.347  0.3250  1.0119 -0.4407
  512MOL0     C70543   6.781   4.870  10.283 -0.1869 -0.1449 -0.1013
  512MOL0     C70544   6.761   5.009  10.290  0.7737  0.2304  0.0144
  512MOL0     C70545   6.641   5.065  10.258 -0.0051  0.2974 -0.7775
  512MOL0     C70546   6.639   5.220  10.258  0.4777 -0.4970  0.2578
  512MOL0     C70547   6.532   4.978  10.224  0.0626  0.6057 -0.3095
  512MOL0     C70548   6.396   5.029  10.196  0.5304  0.2761 -0.3597
  512MOL0     O70549   6.293   4.972  10.262  0.6226  0.2529  0.1555
  512MOL0     C70550   6.166   5.024  10.239 -0.0840  0.1214  0.0719
  512MOL0     C70551   6.071   4.940  10.175  0.9374 -0.2254  0.6603
  512MOL0     C70552   5.944   4.993  10.153  0.3095 -0.1617 -0.3321
  512MOL0     C70553   5.909   5.119  10.201  0.5485  0.6641  0.0480
  512MOL0     O70554   5.777   5.147  10.182 -0.1428 -0.1894  0.0421
  512MOL0     C70555   5.736   5.286  10.182 -0.6006  0.4260  0.0009
  512MOL0     C70556   5.591   5.301  10.135  0.5668 -0.1531  0.3788
  512MOL0     C70557   5.485   5.235  10.224  0.3595 -0.6110  0.0433
  512MOL0     C70558   5.340   5.242  10.161  0.5940  0.1654 -0.6769
  512MOL0     C70559   5.279   5.380  10.204  0.1205 -0.2402  0.1888
  512MOL0     C70560   5.150   5.416  10.124 -0.9323  0.2636 -0.6503
  512MOL0     C70561   5.063   5.521  10.202  0.4823 -0.1753 -0.4864
  512MOL0     C70562   5.101   5.664  10.162  0.9679 -0.2548  1.0221
  512MOL0    Cl70563   4.988   5.788  10.229  0.3808 -0.0169  0.1340
  512MOL0     C70564   6.006   5.205  10.253 -0.4561 -0.7149  0.3142
  512MOL0     C70565   6.142   5.155  10.283 -0.3914  0.4899  0.5231
  512MOL0     O70566   6.378   5.118  10.119  0.3275 -0.5241  0.6815
  512MOL0     C70567   6.551   4.843  10.216 -1.2166  0.6741  0.3714
  512MOL0     C70568   6.683   4.780  10.237  0.2542 -0.0599 -0.5236
  512MOL0     N70569   7.328   4.944  10.510  0.3739 -0.6478  0.6047
  512MOL0     N70570   7.342   5.046  10.584 -0.0833  0.3161  0.1860
  512MOL0     C70571   6.323   5.553  10.468  0.1201 -0.4625  0.5279
  512MOL0     C70572   6.198   5.581  10.419 -0.3383 -0.4906  0.0859
  512MOL0     C70573   5.833   5.669  10.173 -0.6374 -0.5502 -0.0007
  512MOL0     C70574   5.708   5.672  10.223  0.2794  0.8620 -0.0892
  512MOL0     C70575   5.590   5.710  10.151  0.0440  0.2940 -0.7582
  512MOL0     C70576   5.608   5.760  10.020 -0.7092  0.3157 -1.3334
  512MOL0     O70577   5.501   5.795   9.952 -0.1558 -0.6226  0.3081
  512MOL0     C70578   5.453   5.924   9.979  0.0522  0.1215  0.2743
  512MOL0     C70579   5.348   5.972   9.874  0.4238  0.2691  0.1414
  512MOL0     C70580   5.413   6.000   9.740 -1.0365  0.1335  0.1648
  512MOL0     C70581   5.544   6.084   9.736 -0.4960  0.6260 -0.7148
  512MOL0     C70582   5.506   6.219   9.778 -0.0462  0.1622 -0.8730
  512MOL0     C70583   5.487   6.335   9.821 -0.6457  0.6458 -0.2844
  512MOL0     C70584   5.735   5.763   9.968  0.0417 -0.1028  0.0838
  512MOL0     C70585   5.844   5.710  10.035  0.2923  1.0334  0.5809
  512MOL0     C70586   5.970   5.690   9.956  0.6060  0.4758  0.6780
  512MOL0     H70587   6.287   5.561  10.092 -2.5871  0.2478  0.9529
  512MOL0     H70588   6.519   5.552  10.201  1.8557 -0.1286  3.1484
  512MOL0     H70589   6.539   5.487  10.642 -0.9482  0.9646 -1.7306
  512MOL0     H70590   6.575   5.650  10.604 -2.4147 -0.3819  1.9453
  512MOL0     H70591   6.794   5.493  10.510 -3.1097 -0.0093 -0.9603
  512MOL0     H70592   6.793   5.600  10.656  2.7969 -0.5311  0.5968
  512MOL0     H70593   6.759   5.415  10.811  3.4598 -2.5962  0.9447
  512MOL0     H70594   6.662   5.325  10.704 -0.8421  0.5920  2.1993
  512MOL0     H70595   6.867   5.266  10.567  1.1653 -2.2507  0.0577
  512MOL0     H70596   6.969   5.364  10.671  1.5188 -1.8369 -0.8886
  512MOL0     H70597   6.791   5.118  10.748  0.1101  0.1808 -1.4217
  512MOL0     H70598   6.895   5.204  10.866  0.9272 -0.0349 -0.6278
  512MOL0     H70599   7.010   5.003  10.804  0.6057 -0.5513 -0.3694
  512MOL0     H70600   7.017   5.048  10.637 -2.8337 -6.2345  2.8845
  512MOL0     H70601   7.125   5.249  10.841 -0.8208 -2.7122  2.5220
  512MOL0     H70602   7.165   5.240  10.679  0.3319  2.2120  0.2543
  512MOL0     H70603   7.363   5.152  10.839  1.1399 -2.9811 -1.7279
  512MOL0     H70604   7.250   5.047  10.911  1.1133 -1.6601 -0.6672
  512MOL0     H70605   7.269   4.795  10.794 -1.4466 -0.0682  0.1079
  512MOL0     H70606   7.299   4.628  10.621  0.1655  4.8168  3.2056
  512MOL0     H70607   7.336   4.673  10.442  0.9175  0.8039  0.6131
  512MOL0     H70608   7.098   4.571  10.519 -2.2491  0.1492  0.1829
  512MOL0     H70609   7.064   4.746  10.539  0.5739  2.0266 -2.0257
  512MOL0     H70610   7.157   4.791  10.319  1.0832 -1.0064 -2.9093
  512MOL0     H70611   7.157   4.617  10.288  2.6997 -0.4215  2.7508
  512MOL0     H70612   6.943   4.728  10.191 -3.0236  3.3718  0.7035
  512MOL0     H70613   6.911   4.613  10.322  0.2988 -0.9756  0.5084
  512MOL0     H70614   6.842   5.063  10.338 -0.6472  0.1273  2.6925
  512MOL0     H70615   6.565   5.262  10.327 -0.6057  0.7433 -1.5579
  512MOL0     H70616   6.609   5.251  10.158 -2.2769 -0.8378  0.8882
  512MOL0     H70617   6.737   5.258  10.290  0.8265  0.8744 -2.2013
  512MOL0     H70618   6.089   4.835  10.152  1.2467 -0.1392  0.5097
  512MOL0     H70619   5.868   4.934  10.102 -1.7603  1.8779  0.1725
  512MOL0     H70620   5.749   5.335  10.279 -0.5721  1.3691 -0.4620
  512MOL0     H70621   5.793   5.346  10.111 -1.8998  1.0538 -0.5520
  512MOL0     H70622   5.565   5.406  10.123 -2.5785 -0.8435  0.3297
  512MOL0     H70623   5.588   5.255  10.036 -2.6758 -0.9008  0.7007
  512MOL0     H70624   5.485   5.297  10.314 -1.1850 -0.1882 -0.2246
  512MOL0     H70625   5.514   5.130  10.236  0.2904 -0.5772  0.5327
  512MOL0     H70626   5.278   5.165  10.206  0.0596  1.2656  0.5374
  512MOL0     H70627   5.340   5.234  10.052 -1.1139  1.8006 -0.8691
  512MOL0     H70628   5.251   5.373  10.309  0.4419 -3.0039  0.1769
  512MOL0     H70629   5.355   5.457  10.189 -0.0634  0.5576  2.8826
  512MOL0     H70630   5.080   5.333  10.107  0.0976 -0.2896 -2.5269
  512MOL0     H70631   5.166   5.450  10.021  0.3940  0.7548 -0.2971
  512MOL0     H70632   5.067   5.517  10.311 -0.2893  2.5950 -0.2874
  512MOL0     H70633   4.955   5.520  10.182  0.3349  0.3240  0.2369
  512MOL0     H70634   5.098   5.664  10.053  0.7931  4.1921  0.8801
  512MOL0     H70635   5.198   5.698  10.199 -0.0485  1.6763  2.0514
  512MOL0     H70636   5.978   5.307  10.281  0.9965 -0.6825  1.8139
  512MOL0     H70637   6.225   5.211  10.324  0.8946  0.1613 -1.4803
  512MOL0     H70638   6.460   4.784  10.202  0.0720 -1.6232  1.1144
  512MOL0     H70639   6.707   4.675  10.248  4.8231  0.9592  1.3885
  512MOL0     H70640   6.322   5.559  10.576  2.3121  0.6201  0.5339
  512MOL0     H70641   6.116   5.618  10.479  0.4636  3.6375 -1.0505
  512MOL0     H70642   5.685   5.647  10.326  1.3872 -0.7100 -0.1800
  512MOL0     H70643   5.497   5.697  10.206  2.8704 -0.6063  4.5324
  512MOL0     H70644   5.404   5.907  10.076 -1.4707 -2.3468 -0.8304
  512MOL0     H70645   5.533   5.998   9.980  1.1032 -0.8819  3.7083
  512MOL0     H70646   5.288   6.058   9.903  2.5628  2.7578 -2.3238
  512MOL0     H70647   5.275   5.894   9.853 -2.9449  3.1285  0.3869
  512MOL0     H70648   5.435   5.901   9.698 -1.8490 -0.9403  2.1432
  512MOL0     H70649   5.329   6.033   9.679 -2.3992  2.5449  3.1266
  512MOL0     H70650   5.581   6.092   9.633  0.0943 -1.8313 -0.7657
  512MOL0     H70651   5.621   6.038   9.799 -0.9612 -0.8225 -1.1660
  512MOL0     H70652   5.464   6.438   9.841 -0.8172  0.4378  0.6399
  512MOL0     H70653   5.748   5.799   9.867 -0.3225 -2.0060 -0.6986
  512MOL0     H70654   6.020   5.600   9.993  1.1021  0.6461  0.4348
  512MOL0     H70655   5.960   5.679   9.847  0.4046 -0.9347  0.8198
  512MOL0     H70656   6.033   5.777   9.975 -1.0713  2.2875 -1.4408
  513MOL0     O70657  11.109   6.265   8.319  0.5199 -0.4911  1.1256
  513MOL0     C70658  11.196   6.319   8.253  0.0810 -0.3318 -0.2275
  513MOL0     O70659  11.332   6.312   8.270 -0.3754  1.5281 -0.2879
  513MOL0     C70660  11.378   6.252   8.386  1.3378  0.7136 -0.5695
  513MOL0     C70661  11.379   6.335   8.497 -0.1117 -0.3956  0.5607
  513MOL0     C70662  11.422   6.279   8.622  0.7009  0.1078  0.8046
  513MOL0     C70663  11.439   6.142   8.640  0.2210 -0.2785  0.7389
  513MOL0     O70664  11.463   6.084   8.760  0.1520  0.6400  1.0149
  513MOL0     C70665  11.434   6.153   8.884  0.2263  0.3599  0.3307
  513MOL0     C70666  11.378   6.051   8.984 -0.0840 -0.7663  0.0302
  513MOL0     C70667  11.241   6.012   8.939  0.2432  0.7361  0.1098
  513MOL0     C70668  11.178   5.925   9.058 -0.1627 -0.4389 -0.4707
  513MOL0     C70669  11.041   5.893   9.014 -0.4928  0.0179  0.5668
  513MOL0     C70670  10.971   5.793   9.122 -1.1569  0.3329 -0.1657
  513MOL0     C70671  10.815   5.779   9.117 -0.0409 -1.0468  0.2787
  513MOL0     C70672  10.764   5.742   8.982  0.9595 -0.0605  0.7498
  513MOL0     N70673  10.620   5.718   8.987 -0.0711 -0.3063 -0.3840
  513MOL0     C70674  10.522   5.818   8.977  0.1274  0.1741 -0.8105
  513MOL0     C70675  10.404   5.754   9.010  0.5878  1.0805  0.4638
  513MOL0     C70676  10.268   5.819   8.993 -0.0295 -0.9401 -0.6539
  513MOL0     C70677  10.205   5.770   8.859  0.0636  1.1327 -0.5715
  513MOL0     C70678  10.061   5.836   8.850 -0.1125  1.0490  0.2466
  513MOL0     C70679   9.969   5.782   8.735  0.2768 -0.4637  0.3531
  513MOL0     O70680   9.850   5.867   8.721  0.0232  0.5831  0.0733
  513MOL0     C70681   9.795   5.856   8.595 -0.2605  0.4075  0.6310
  513MOL0     C70682   9.699   5.959   8.571  0.3282  0.1714 -0.0917
  513MOL0     C70683   9.622   5.970   8.453 -0.4014  0.2234  0.7992
  513MOL0     C70684   9.518   6.076   8.451  0.2600 -0.2186  0.9217
  513MOL0     C70685   9.633   5.865   8.363 -0.6059  0.1033  0.2009
  513MOL0     C70686   9.559   5.850   8.234  0.4200 -0.2362 -0.1305
  513MOL0     O70687   9.559   5.723   8.183  0.0891  0.3294  0.2211
  513MOL0     C70688   9.480   5.698   8.070 -0.5627  0.8994  0.0849
  513MOL0     C70689   9.343   5.723   8.065  0.4759 -1.7562 -1.0785
  513MOL0     C70690   9.275   5.691   7.952 -0.3684 -0.1671 -0.3889
  513MOL0     C70691   9.340   5.658   7.832 -0.3517 -0.3287  0.2524
  513MOL0     O70692   9.276   5.637   7.715  0.5315 -0.5593 -0.1951
  513MOL0     C70693   9.315   5.738   7.615 -0.9657 -0.0115 -0.0474
  513MOL0     C70694   9.358   5.661   7.488 -0.5094 -0.4408  0.4136
  513MOL0     C70695   9.244   5.658   7.384  0.4293  0.2544 -0.6887
  513MOL0     C70696   9.274   5.583   7.255  0.2010 -0.5638  0.1093
  513MOL0     C70697   9.296   5.428   7.263  0.6757  0.4494 -0.9493
  513MOL0     C70698   9.162   5.345   7.283 -0.0927  0.1968  0.1687
  513MOL0     C70699   9.048   5.389   7.193  0.5465  0.2350 -0.5505
  513MOL0     C70700   8.930   5.301   7.234 -0.8367  1.1248 -0.0911
  513MOL0    Cl70701   8.785   5.313   7.137  0.3000 -0.3958 -0.0826
  513MOL0     C70702   9.482   5.647   7.839  0.4305  0.7002 -0.0910
  513MOL0     C70703   9.552   5.664   7.955  0.6294 -0.6519  0.1140
  513MOL0     O70704   9.483   5.944   8.198 -0.5379  0.0256 -0.2085
  513MOL0     C70705   9.738   5.763   8.382  0.0186 -0.3224 -0.3687
  513MOL0     C70706   9.818   5.757   8.492 -0.6032 -0.4353 -0.7862
  513MOL0     N70707  10.433   5.628   9.058  0.2892  0.3394  0.3615
  513MOL0     N70708  10.559   5.606   9.036  0.2591  0.5236 -0.0030
  513MOL0     C70709  11.439   6.063   8.524 -0.1255  1.2996 -0.1493
  513MOL0     C70710  11.409   6.124   8.397 -0.2190  0.3095  0.0743
  513MOL0     C70711  11.151   6.394   8.124  0.2052  0.3318 -0.4609
  513MOL0     C70712  11.241   6.482   8.063  0.0958 -0.4592  0.0526
  513MOL0     C70713  11.203   6.556   7.951 -0.9135  1.0719  0.1971
  513MOL0     C70714  11.082   6.545   7.886  0.9462 -0.9541  0.9379
  513MOL0     O70715  11.056   6.624   7.774 -0.4913 -0.6493  0.1032
  513MOL0     C70716  10.952   6.590   7.687 -0.3561 -0.1805 -0.1201
  513MOL0     C70717  10.953   6.688   7.565 -0.5505 -0.6130  0.6583
  513MOL0     C70718  11.087   6.690   7.491 -0.5369  0.0086  0.9919
  513MOL0     C70719  11.082   6.755   7.348 -0.6135 -0.5223 -0.3073
  513MOL0     C70720  11.216   6.786   7.304  0.1067 -0.2705 -0.5140
  513MOL0     C70721  11.329   6.802   7.252  0.3087 -0.3413 -0.5499
  513MOL0     C70722  10.991   6.450   7.940 -0.4653 -0.1591  0.2255
  513MOL0     C70723  11.029   6.374   8.053 -0.4617 -0.6202  0.7810
  513MOL0     C70724  10.923   6.272   8.098 -0.9587  0.5083 -0.5211
  513MOL0     H70725  11.346   6.438   8.485 -0.4084 -0.3355  1.7740
  513MOL0     H70726  11.430   6.350   8.704  0.3422  1.0136  0.0702
  513MOL0     H70727  11.357   6.229   8.865 -2.6770 -2.5669 -0.6367
  513MOL0     H70728  11.523   6.194   8.932  0.7645  0.0153 -0.3562
  513MOL0     H70729  11.440   5.963   9.003  0.5418 -0.1387  0.9656
  513MOL0     H70730  11.368   6.113   9.073 -1.8513  0.9725 -1.3029
  513MOL0     H70731  11.183   6.101   8.915  0.3257  0.1999 -2.3090
  513MOL0     H70732  11.234   5.951   8.849  0.5853  3.0635 -1.5654
  513MOL0     H70733  11.234   5.834   9.083 -0.4127 -0.9005 -1.5348
  513MOL0     H70734  11.179   5.980   9.153  3.1457 -1.0137 -0.0632
  513MOL0     H70735  11.043   5.827   8.927  3.2877  0.4930  0.1073
  513MOL0     H70736  10.972   5.974   8.992 -2.6262 -2.6890 -4.2571
  513MOL0     H70737  11.004   5.689   9.115  3.1628  1.4709  0.2856
  513MOL0     H70738  10.998   5.815   9.226  0.8633  0.8062 -0.7425
  513MOL0     H70739  10.771   5.876   9.141  1.1960 -0.5308  0.5338
  513MOL0     H70740  10.770   5.710   9.190 -0.7514  0.7533  1.6282
  513MOL0     H70741  10.779   5.823   8.910  1.9404 -0.4120  0.5345
  513MOL0     H70742  10.818   5.660   8.935  2.9192  0.4031  2.0444
  513MOL0     H70743  10.525   5.916   8.930 -2.0716 -0.0097 -1.4692
  513MOL0     H70744  10.274   5.929   8.994 -1.1400 -0.6523 -4.9281
  513MOL0     H70745  10.208   5.794   9.081  0.9084 -0.5227  0.1247
  513MOL0     H70746  10.269   5.776   8.771  0.2100 -0.3921 -0.5926
  513MOL0     H70747  10.184   5.665   8.880  0.7295  1.2450  0.7523
  513MOL0     H70748  10.015   5.812   8.947 -0.2393  2.5008  0.5693
  513MOL0     H70749  10.072   5.944   8.838  0.7055  0.9328 -0.0879
  513MOL0     H70750  10.026   5.794   8.642  0.7630  0.2644  0.7419
  513MOL0     H70751   9.930   5.682   8.758 -0.2471 -0.1702  0.7480
  513MOL0     H70752   9.699   6.032   8.652  1.5413  0.9932 -0.8058
  513MOL0     H70753   9.524   6.127   8.355 -0.9309 -0.7172  0.5645
  513MOL0     H70754   9.530   6.144   8.536 -0.6704  0.0688  0.8395
  513MOL0     H70755   9.415   6.040   8.466  0.7926 -1.5737  1.5131
  513MOL0     H70756   9.292   5.768   8.150  4.4902  1.0109  0.1835
  513MOL0     H70757   9.166   5.698   7.952 -0.5691 -2.0649 -2.8831
  513MOL0     H70758   9.231   5.804   7.593 -0.7040  0.2614 -0.2319
  513MOL0     H70759   9.395   5.804   7.652  0.9769 -1.7349 -0.9492
  513MOL0     H70760   9.452   5.704   7.451 -0.6977  0.2421  0.7162
  513MOL0     H70761   9.376   5.556   7.515  0.6920 -0.7387 -1.3335
  513MOL0     H70762   9.214   5.757   7.350 -3.2198 -0.0662  1.0655
  513MOL0     H70763   9.162   5.612   7.441  0.5312  0.4337 -0.3983
  513MOL0     H70764   9.354   5.618   7.190  2.1105 -0.8111  2.2426
  513MOL0     H70765   9.190   5.598   7.186  0.0678 -0.1758  0.3539
  513MOL0     H70766   9.339   5.402   7.166  4.0769 -1.8706  0.9680
  513MOL0     H70767   9.366   5.394   7.340 -1.1150 -2.1749 -0.3593
  513MOL0     H70768   9.144   5.355   7.390 -2.4679 -1.7528  0.0454
  513MOL0     H70769   9.185   5.244   7.247 -1.1829  0.3647 -1.1165
  513MOL0     H70770   9.066   5.370   7.087  1.9361  1.8555 -0.6366
  513MOL0     H70771   9.025   5.495   7.205  2.7232  0.5984  0.8375
  513MOL0     H70772   8.896   5.323   7.335 -2.2701  1.1209 -0.5578
  513MOL0     H70773   8.964   5.197   7.234  1.5535  1.7794 -2.2780
  513MOL0     H70774   9.538   5.617   7.751 -2.0408  1.1778 -1.9055
  513MOL0     H70775   9.660   5.650   7.954  1.1960  1.5570  4.9738
  513MOL0     H70776   9.757   5.696   8.299 -0.2537 -0.5556 -0.2473
  513MOL0     H70777   9.886   5.674   8.507  0.3004  0.3344 -0.5491
  513MOL0     H70778  11.442   5.956   8.541  1.8731  1.4298  0.6375
  513MOL0     H70779  11.412   6.055   8.313  0.2057  0.6784 -0.2195
  513MOL0     H70780  11.338   6.501   8.108 -0.5142  3.9577 -0.1256
  513MOL0     H70781  11.278   6.628   7.919 -0.0346  0.3049  0.5157
  513MOL0     H70782  10.971   6.488   7.653 -0.3825  0.3572 -1.8786
  513MOL0     H70783  10.857   6.599   7.741  0.1690 -1.7261  1.1332
  513MOL0     H70784  10.936   6.787   7.607 -0.7085 -1.3811  2.4997
  513MOL0     H70785  10.877   6.672   7.488  1.4986  2.2125 -2.2308
  513MOL0     H70786  11.161   6.748   7.546  1.2429 -0.6919 -0.5743
  513MOL0     H70787  11.117   6.586   7.479  3.6380  0.6227  3.9084
  513MOL0     H70788  11.020   6.845   7.350  0.1960  0.0385  0.3580
  513MOL0     H70789  11.032   6.681   7.285 -2.9093 -0.4092  1.2380
  513MOL0     H70790  11.428   6.823   7.218  1.1843 -2.4951  0.5330
  513MOL0     H70791  10.890   6.434   7.903 -1.0956 -0.4492  1.9761
  513MOL0     H70792  10.877   6.316   8.187 -2.9009 -1.3728 -0.5148
  513MOL0     H70793  10.846   6.242   8.026 -1.5035  0.3065  0.1337
  513MOL0     H70794  10.959   6.172   8.124 -0.7149  0.9285  0.8342
  514MOL0     O70795   8.227   3.920   7.256  0.3608  0.7433  1.0473
  514MOL0     C70796   8.158   3.993   7.325  0.4375  0.1927  0.0913
  514MOL0     O70797   8.211   4.099   7.401 -0.5656  0.6758  0.7439
  514MOL0     C70798   8.337   4.131   7.382  0.0649 -0.3910 -0.2334
  514MOL0     C70799   8.378   4.211   7.271 -0.2995  1.0400 -0.5003
  514MOL0     C70800   8.515   4.243   7.266  1.0257  0.4198  0.3840
  514MOL0     C70801   8.607   4.211   7.360  0.5261 -0.2439 -0.2166
  514MOL0     O70802   8.737   4.239   7.323  0.3249 -0.6554  1.0257
  514MOL0     C70803   8.828   4.227   7.432 -0.4051  0.3318 -0.7231
  514MOL0     C70804   8.960   4.283   7.389  0.3310  0.6477  0.0083
  514MOL0     C70805   9.085   4.257   7.485  0.2420  0.5732 -0.6629
  514MOL0     C70806   9.163   4.380   7.521  0.7254  0.5541  0.2289
  514MOL0     C70807   9.303   4.322   7.571 -0.6409  0.1790 -0.7690
  514MOL0     C70808   9.401   4.236   7.492 -0.0781 -0.0462  0.2794
  514MOL0     C70809   9.424   4.276   7.345  0.8367  0.1714  0.6090
  514MOL0     C70810   9.466   4.418   7.326 -0.5236 -0.6592 -0.3408
  514MOL0     N70811   9.519   4.452   7.197 -0.3536  0.3260  0.3570
  514MOL0     C70812   9.520   4.380   7.080 -0.9757  0.1332 -0.3072
  514MOL0     C70813   9.573   4.456   6.981 -0.0903  0.5570  0.0030
  514MOL0     C70814   9.590   4.418   6.833  0.5547  0.0902 -0.5662
  514MOL0     C70815   9.515   4.524   6.739 -0.2452 -0.6271  0.2476
  514MOL0     C70816   9.514   4.480   6.597 -0.1201 -0.1566  0.2991
  514MOL0     C70817   9.650   4.519   6.546  0.0514  0.0551 -1.1128
  514MOL0     O70818   9.661   4.445   6.414 -0.5184  0.5740  0.2134
  514MOL0     C70819   9.724   4.499   6.305 -0.4824  0.0421  0.1818
  514MOL0     C70820   9.693   4.452   6.176  0.9774  0.4495  0.2356
  514MOL0     C70821   9.763   4.509   6.066  0.3732  0.4261 -0.0615
  514MOL0     C70822   9.726   4.448   5.931 -0.1481  0.3883  0.3446
  514MOL0     C70823   9.860   4.613   6.084  0.8082  0.4297  0.7424
  514MOL0     C70824   9.940   4.675   5.973  0.4037  1.1271  0.3344
  514MOL0     O70825  10.040   4.761   6.015  0.7787  0.1020  0.5287
  514MOL0     C70826  10.111   4.826   5.910 -0.5096  0.6415 -0.0156
  514MOL0     C70827  10.237   4.753   5.866 -0.1097 -0.1165 -0.0023
  514MOL0     C70828  10.314   4.804   5.762 -0.4437 -0.9463 -0.3124
  514MOL0     C70829  10.260   4.912   5.692  0.3392 -0.0865  0.4787
  514MOL0     O70830  10.337   4.974   5.597 -0.7202  0.0918  1.0841
  514MOL0     C70831  10.341   4.902   5.470 -1.3455  0.1795  0.1796
  514MOL0     C70832  10.274   4.985   5.364  0.5928  1.1308 -0.6422
  514MOL0     C70833  10.126   4.962   5.371  0.1768  0.1479 -0.5145
  514MOL0     C70834  10.071   4.826   5.345 -0.0145 -0.1472 -0.6753
  514MOL0     C70835   9.922   4.804   5.335 -0.1593 -0.6890 -0.3221
  514MOL0     C70836   9.853   4.863   5.454 -0.1092  0.0538  0.3567
  514MOL0     C70837   9.708   4.800   5.470 -0.0282 -0.1989  0.9765
  514MOL0     C70838   9.695   4.693   5.575  0.1526  0.4183  0.6517
  514MOL0    Cl70839   9.528   4.642   5.569 -0.3528  0.2117  0.0309
  514MOL0     C70840  10.148   4.982   5.734 -0.6519 -0.0168  0.1943
  514MOL0     C70841  10.072   4.941   5.841 -0.1449  0.6298  0.1646
  514MOL0     O70842   9.908   4.667   5.856 -0.0238  0.2620  0.0198
  514MOL0     C70843   9.876   4.662   6.213 -0.5285  0.6260 -0.0774
  514MOL0     C70844   9.818   4.603   6.328 -0.7156 -0.0639 -0.2477
  514MOL0     N70845   9.604   4.578   7.036 -0.1076 -0.1841  0.1797
  514MOL0     N70846   9.566   4.575   7.162  0.1918 -0.1381 -0.1284
  514MOL0     C70847   8.560   4.148   7.479  0.3178 -0.0600 -0.5909
  514MOL0     C70848   8.424   4.111   7.490  0.1630  0.7284  0.1784
  514MOL0     C70849   8.008   3.961   7.346 -0.6360  0.4447  0.6555
  514MOL0     C70850   7.936   4.058   7.417  0.0556 -0.5771  0.2957
  514MOL0     C70851   7.796   4.046   7.435 -0.1900 -0.6232 -0.3085
  514MOL0     C70852   7.724   3.953   7.359  0.5498 -0.2790  0.1517
  514MOL0     O70853   7.588   3.945   7.369  0.2449 -0.5133  0.0079
  514MOL0     C70854   7.521   3.823   7.412 -0.6642 -0.2018  1.2530
  514MOL0     C70855   7.541   3.793   7.560  0.0579  0.7325 -0.0819
  514MOL0     C70856   7.511   3.917   7.653  0.1743  0.5647  0.4779
  514MOL0     C70857   7.623   3.929   7.763  0.5256  0.8629 -0.1489
  514MOL0     C70858   7.614   4.061   7.837  0.0007 -0.3734 -0.0158
  514MOL0     C70859   7.624   4.159   7.898  0.0576  0.1013 -0.5641
  514MOL0     C70860   7.794   3.859   7.282 -0.7218 -0.1764 -0.2452
  514MOL0     C70861   7.936   3.857   7.279  0.2638 -0.8707 -0.6805
  514MOL0     C70862   8.006   3.744   7.207  0.4591 -0.2121  0.2537
  514MOL0     H70863   8.303   4.234   7.196 -0.4075 -2.3811 -1.6079
  514MOL0     H70864   8.537   4.313   7.186 -0.6031  1.6328  0.9393
  514MOL0     H70865   8.830   4.120   7.455  1.1683  0.3689 -0.5378
  514MOL0     H70866   8.782   4.279   7.517  2.4688  0.1333  1.0957
  514MOL0     H70867   8.986   4.247   7.289 -0.7897 -0.2913  0.0407
  514MOL0     H70868   8.955   4.393   7.394 -3.3668  0.5642  2.5839
  514MOL0     H70869   9.041   4.217   7.577  0.3816  0.1634 -0.7744
  514MOL0     H70870   9.152   4.190   7.431  0.8194  0.6110  0.0006
  514MOL0     H70871   9.197   4.435   7.433  3.9928 -1.9140 -0.2555
  514MOL0     H70872   9.109   4.434   7.599 -1.6355 -0.0902 -0.8701
  514MOL0     H70873   9.279   4.268   7.663 -0.7790  0.9570 -0.3417
  514MOL0     H70874   9.364   4.404   7.610 -1.8812  1.2532 -1.0519
  514MOL0     H70875   9.499   4.231   7.541  1.2865 -2.1588 -2.3251
  514MOL0     H70876   9.369   4.131   7.483  0.6846 -0.1210 -2.5346
  514MOL0     H70877   9.336   4.249   7.286  1.4933 -0.9345  0.1030
  514MOL0     H70878   9.503   4.217   7.298  0.2949 -2.2810  2.5595
  514MOL0     H70879   9.378   4.479   7.350  0.3369 -0.0814  1.5260
  514MOL0     H70880   9.550   4.437   7.393 -1.6045 -1.9197  1.4540
  514MOL0     H70881   9.483   4.278   7.074  0.2773 -0.8045  4.2153
  514MOL0     H70882   9.554   4.316   6.813  1.9577 -0.4225 -0.6203
  514MOL0     H70883   9.698   4.414   6.818  0.3335  0.0220 -2.3129
  514MOL0     H70884   9.417   4.552   6.779 -0.3541 -2.7268  1.5824
  514MOL0     H70885   9.582   4.610   6.748 -1.8804  0.7831 -0.4591
  514MOL0     H70886   9.490   4.375   6.580 -2.0593  0.6503 -2.8543
  514MOL0     H70887   9.442   4.541   6.540  2.6143  2.9190 -0.1911
  514MOL0     H70888   9.653   4.628   6.545  2.3079  0.0343 -0.7946
  514MOL0     H70889   9.735   4.485   6.605  0.7486 -1.6947 -3.0207
  514MOL0     H70890   9.624   4.372   6.151  2.2951 -0.0197 -2.3183
  514MOL0     H70891   9.704   4.530   5.861 -0.0480 -0.8342 -1.1693
  514MOL0     H70892   9.642   4.379   5.942  1.7850 -2.1909 -0.1488
  514MOL0     H70893   9.806   4.393   5.880  0.5732 -0.2650  2.1155
  514MOL0     H70894  10.275   4.670   5.923 -2.1068 -1.1455 -0.0716
  514MOL0     H70895  10.413   4.774   5.731  0.3915  1.3296 -0.0862
  514MOL0     H70896  10.446   4.886   5.446 -1.9141 -0.4574 -2.1136
  514MOL0     H70897  10.305   4.800   5.486 -2.2596  0.4916  0.1725
  514MOL0     H70898  10.294   5.091   5.380  0.3836  0.9432  1.0327
  514MOL0     H70899  10.304   4.952   5.264 -3.3920  0.5603 -1.8333
  514MOL0     H70900  10.085   5.024   5.291  2.2976 -0.7225 -2.3743
  514MOL0     H70901  10.097   4.999   5.470 -1.5892  0.8727 -1.2495
  514MOL0     H70902  10.103   4.754   5.420  0.6337 -1.4788 -2.1655
  514MOL0     H70903  10.120   4.788   5.254  0.9332  0.9578 -0.6543
  514MOL0     H70904   9.875   4.838   5.242 -0.7648  0.0132  0.2319
  514MOL0     H70905   9.919   4.695   5.343 -0.4187 -0.5802  1.3514
  514MOL0     H70906   9.836   4.969   5.434 -2.6300 -0.6420 -1.8664
  514MOL0     H70907   9.912   4.851   5.546  2.7079  0.4890 -1.2951
  514MOL0     H70908   9.679   4.754   5.374 -2.6751  3.3551 -0.1547
  514MOL0     H70909   9.633   4.879   5.479  0.0505 -0.2962  2.7656
  514MOL0     H70910   9.724   4.719   5.677  2.3198  1.2920 -0.1362
  514MOL0     H70911   9.763   4.610   5.550  0.6419  0.8437  0.5518
  514MOL0     H70912  10.125   5.068   5.672  1.8308 -0.5866 -1.6973
  514MOL0     H70913   9.985   5.002   5.861 -0.3536  1.2476 -2.3268
  514MOL0     H70914   9.958   4.728   6.240  0.1505 -0.5357  0.7813
  514MOL0     H70915   9.854   4.636   6.425  0.3921  1.4423 -1.1208
  514MOL0     H70916   8.628   4.129   7.561  1.9467  2.0706 -1.3643
  514MOL0     H70917   8.388   4.058   7.578  2.3450  0.8733  1.2272
  514MOL0     H70918   7.968   4.135   7.486  1.7955  0.1898 -1.2993
  514MOL0     H70919   7.747   4.120   7.497 -0.4160  0.3121 -1.5573
  514MOL0     H70920   7.414   3.824   7.386 -0.4046 -3.3236 -0.3349
  514MOL0     H70921   7.552   3.743   7.345  1.1806  0.5420  1.1710
  514MOL0     H70922   7.645   3.758   7.560 -1.2235 -3.6459  0.4112
  514MOL0     H70923   7.477   3.710   7.591 -1.5072  2.7841  2.7363
  514MOL0     H70924   7.521   4.000   7.582  2.0360  1.2894  1.5455
  514MOL0     H70925   7.413   3.925   7.701 -0.1506 -0.1732 -0.0323
  514MOL0     H70926   7.720   3.933   7.713 -0.3691  0.1110 -2.0398
  514MOL0     H70927   7.614   3.848   7.836 -0.2585  0.4431 -0.7069
  514MOL0     H70928   7.652   4.247   7.953  0.7403 -0.2479 -0.3371
  514MOL0     H70929   7.746   3.787   7.216 -1.0434  0.4293 -0.6855
  514MOL0     H70930   8.094   3.716   7.265  0.6512 -2.9585 -1.2349
  514MOL0     H70931   7.957   3.647   7.196  0.3377 -0.3200  1.6175
  514MOL0     H70932   8.035   3.784   7.109  0.6406 -1.3083 -0.1537
  515MOL0     O70933   3.210   2.723   7.745 -0.2172 -0.3123 -0.5763
  515MOL0     C70934   3.182   2.843   7.758  1.1308  0.1051 -0.0069
  515MOL0     O70935   3.263   2.942   7.811 -0.7465  0.4784  0.3145
  515MOL0     C70936   3.390   2.920   7.860  0.5223 -0.6224 -1.1171
  515MOL0     C70937   3.493   2.991   7.805  0.0194  0.2245  0.1608
  515MOL0     C70938   3.625   2.966   7.853  0.0935 -0.2924  1.0701
  515MOL0     C70939   3.650   2.871   7.950 -1.0886 -0.1223 -0.2648
  515MOL0     O70940   3.775   2.833   8.006  0.6206 -0.5472  1.0032
  515MOL0     C70941   3.868   2.936   8.035  0.2203  0.4063 -0.0858
  515MOL0     C70942   3.998   2.890   8.085 -0.0780  0.5956 -0.6612
  515MOL0     C70943   3.977   2.776   8.191 -0.4765 -0.9536  0.5080
  515MOL0     C70944   3.902   2.823   8.317 -0.2937 -0.5878 -0.4239
  515MOL0     C70945   3.975   2.940   8.390 -0.6481 -0.8787  0.2809
  515MOL0     C70946   3.925   2.976   8.531  0.0734 -0.9639 -0.0611
  515MOL0     C70947   3.981   2.879   8.630 -0.5544 -0.2420  0.0649
  515MOL0     C70948   3.941   2.925   8.767 -0.1783  0.1194 -0.4339
  515MOL0     N70949   3.972   2.823   8.858 -0.0710  0.1110 -0.2420
  515MOL0     C70950   4.094   2.816   8.926  0.6437  0.2194 -0.0598
  515MOL0     C70951   4.103   2.688   8.974  0.5606  0.3003 -1.0246
  515MOL0     C70952   4.213   2.623   9.035 -0.8295  0.7179  0.1948
  515MOL0     C70953   4.318   2.575   8.928  0.1726 -0.3284  0.5533
  515MOL0     C70954   4.258   2.484   8.807  0.0918 -0.2885  0.3839
  515MOL0     C70955   4.375   2.438   8.711 -0.6798  0.4130 -0.4640
  515MOL0     O70956   4.480   2.364   8.771 -0.1361 -0.8669 -0.7653
  515MOL0     C70957   4.455   2.253   8.848 -0.4932 -0.1575 -1.2736
  515MOL0     C70958   4.522   2.240   8.973 -0.7168  0.5879  0.8158
  515MOL0     C70959   4.518   2.120   9.048  0.1948 -0.2764  0.1989
  515MOL0     C70960   4.612   2.115   9.170  0.4124  0.7377 -0.1686
  515MOL0     C70961   4.440   2.010   8.991 -0.3210  0.7176  0.0588
  515MOL0     C70962   4.425   1.872   9.043 -0.2516  0.0282  0.1126
  515MOL0     O70963   4.378   1.778   8.960  0.5194 -0.2801 -0.3477
  515MOL0     C70964   4.370   1.647   9.004  0.0685 -1.5453 -0.4682
  515MOL0     C70965   4.454   1.598   9.099 -0.6730  0.4107  0.1600
  515MOL0     C70966   4.456   1.458   9.133 -0.1082 -0.1150 -0.1873
  515MOL0     C70967   4.352   1.379   9.079  0.2055  0.0496 -0.2113
  515MOL0     O70968   4.346   1.249   9.121 -0.5220  0.2269 -0.1722
  515MOL0     C70969   4.221   1.172   9.095 -0.1411  0.3275  0.0392
  515MOL0     C70970   4.213   1.057   9.196  0.2282  0.2279 -1.1279
  515MOL0     C70971   4.071   1.064   9.260 -0.9829 -0.4342  0.8037
  515MOL0     C70972   4.049   1.176   9.351  0.1772  1.1378  0.1784
  515MOL0     C70973   3.899   1.208   9.369  0.5058 -0.0178 -0.7034
  515MOL0     C70974   3.876   1.300   9.495  0.3451  0.2184  0.2129
  515MOL0     C70975   3.879   1.227   9.629 -0.7473  0.3913 -0.6785
  515MOL0     C70976   3.840   1.318   9.741 -0.2042 -0.2532  0.3846
  515MOL0    Cl70977   3.648   1.315   9.758  0.3398 -0.0754 -0.4732
  515MOL0     C70978   4.269   1.431   8.976 -1.1832 -0.5111 -0.2845
  515MOL0     C70979   4.271   1.569   8.949 -0.2672  0.3744 -0.3521
  515MOL0     O70980   4.431   1.864   9.170  0.7928  0.4033  0.5222
  515MOL0     C70981   4.362   2.032   8.875  0.1267  0.0314 -0.0002
  515MOL0     C70982   4.379   2.148   8.806  1.1594 -0.0406 -0.1495
  515MOL0     N70983   3.986   2.624   8.949  0.3531 -0.9163  0.7642
  515MOL0     N70984   3.905   2.714   8.900  0.3127 -0.0123 -0.0038
  515MOL0     C70985   3.548   2.792   7.997  0.9552  0.3902  0.2505
  515MOL0     C70986   3.413   2.817   7.953 -0.9663  0.8585 -0.2007
  515MOL0     C70987   3.047   2.887   7.713  0.8757  0.8446 -0.3297
  515MOL0     C70988   3.017   3.024   7.729 -0.2341  0.7760  0.3822
  515MOL0     C70989   2.898   3.085   7.687 -0.2072  0.0504  1.0111
  515MOL0     C70990   2.797   2.995   7.650 -0.5182 -0.2007 -0.5082
  515MOL0     O70991   2.673   3.033   7.607  0.2767 -0.1546  0.0247
  515MOL0     C70992   2.615   3.146   7.668  0.4028  0.2782 -0.1358
  515MOL0     C70993   2.463   3.140   7.666 -0.0865 -0.2629  0.5796
  515MOL0     C70994   2.404   3.100   7.527  0.0430  0.0195 -0.0768
  515MOL0     C70995   2.420   3.207   7.416  0.1065  0.3175  0.1766
  515MOL0     C70996   2.307   3.212   7.322  0.3631  0.9583 -0.2741
  515MOL0     C70997   2.215   3.222   7.245 -0.2986 -0.2920 -0.0896
  515MOL0     C70998   2.828   2.866   7.625  0.1852  0.1012 -0.6875
  515MOL0     C70999   2.951   2.806   7.645 -0.0491  0.0222  0.2657
  515MOL0     C71000   2.962   2.659   7.607  0.5014 -0.2980  0.5151
  515MOL0     H71001   3.466   3.069   7.735  1.2794  0.9744  0.4771
  515MOL0     H71002   3.711   3.014   7.808  3.2271 -4.7386  1.7328
  515MOL0     H71003   3.830   3.010   8.106  0.8683  0.3087  0.3620
  515MOL0     H71004   3.885   2.998   7.946 -0.0477 -1.4424 -1.4874
  515MOL0     H71005   4.060   2.833   8.014  2.5027  0.1995  1.7458
  515MOL0     H71006   4.062   2.974   8.113  0.6805 -0.2719  0.2835
  515MOL0     H71007   3.922   2.693   8.147 -2.5308  2.1851 -3.4835
  515MOL0     H71008   4.080   2.750   8.219 -1.4515 -2.2787  3.2778
  515MOL0     H71009   3.799   2.841   8.285 -0.1468  1.5832  0.1965
  515MOL0     H71010   3.921   2.741   8.387  3.8140  0.9902  0.6050
  515MOL0     H71011   3.965   3.032   8.331  1.3186 -1.5160 -1.1358
  515MOL0     H71012   4.083   2.927   8.398 -0.7325 -1.8927 -0.1766
  515MOL0     H71013   3.972   3.073   8.549  0.8986 -1.6164  1.5155
  515MOL0     H71014   3.816   2.977   8.533  0.0365 -0.0228 -1.3846
  515MOL0     H71015   4.088   2.861   8.616 -0.9523 -1.2532 -2.1559
  515MOL0     H71016   3.936   2.780   8.613  2.3546 -1.9571  1.5989
  515MOL0     H71017   3.991   3.018   8.795 -1.6016  1.2996 -1.5985
  515MOL0     H71018   3.833   2.944   8.773  0.2458  2.3926  0.9413
  515MOL0     H71019   4.179   2.884   8.920  0.4287  0.6091  1.2182
  515MOL0     H71020   4.191   2.529   9.087 -0.4990 -0.8305 -2.2501
  515MOL0     H71021   4.266   2.694   9.099  1.1051 -0.2627 -0.2455
  515MOL0     H71022   4.357   2.668   8.888 -1.4612 -0.0944 -0.6198
  515MOL0     H71023   4.401   2.528   8.982  2.0289  3.8619  1.7457
  515MOL0     H71024   4.204   2.399   8.850  2.0138 -1.1147  1.2707
  515MOL0     H71025   4.187   2.535   8.741  2.3969  0.9045 -1.3242
  515MOL0     H71026   4.323   2.394   8.626  0.7652  2.3369 -2.4863
  515MOL0     H71027   4.426   2.525   8.668  0.4152 -0.4634 -0.9807
  515MOL0     H71028   4.579   2.325   9.008  3.4806 -0.8486 -1.7961
  515MOL0     H71029   4.648   2.213   9.202  0.7958  0.0473  1.6274
  515MOL0     H71030   4.698   2.060   9.130 -0.2824  0.2323 -1.0205
  515MOL0     H71031   4.582   2.058   9.258 -0.8018 -2.0792 -2.2409
  515MOL0     H71032   4.528   1.652   9.157 -2.0420  0.5518  1.8311
  515MOL0     H71033   4.518   1.420   9.214  0.6521  2.9699  0.8319
  515MOL0     H71034   4.134   1.238   9.095 -0.5688 -0.2206 -0.7543
  515MOL0     H71035   4.239   1.128   8.997  4.6173 -1.8501  1.5762
  515MOL0     H71036   4.209   0.961   9.143 -1.6935 -2.2334  3.0232
  515MOL0     H71037   4.295   1.065   9.268  0.0439 -1.5545 -0.6845
  515MOL0     H71038   4.058   0.971   9.316  0.1974 -0.6651  0.7235
  515MOL0     H71039   3.996   1.060   9.180 -0.4024  0.3852  0.2053
  515MOL0     H71040   4.094   1.270   9.316 -0.9759  2.6478  2.4628
  515MOL0     H71041   4.094   1.167   9.450 -0.5534  1.7693  0.5851
  515MOL0     H71042   3.862   1.255   9.277 -1.0796 -1.4236 -0.8366
  515MOL0     H71043   3.849   1.111   9.381  0.3561  0.1456  0.0566
  515MOL0     H71044   3.772   1.335   9.490 -0.5876 -2.1898  0.9730
  515MOL0     H71045   3.937   1.390   9.496 -0.9705  1.1503  2.0319
  515MOL0     H71046   3.978   1.184   9.644 -0.1676  1.8220 -0.2562
  515MOL0     H71047   3.808   1.144   9.621  1.1890 -1.5248  0.9818
  515MOL0     H71048   3.880   1.418   9.722  0.9052 -1.2368 -3.2864
  515MOL0     H71049   3.887   1.285   9.834 -2.8145 -1.9618  1.2050
  515MOL0     H71050   4.195   1.371   8.923 -1.0790 -1.7400  0.9017
  515MOL0     H71051   4.198   1.603   8.876  0.6910 -2.2454 -2.7194
  515MOL0     H71052   4.305   1.953   8.829  1.3938 -0.6391 -0.4701
  515MOL0     H71053   4.320   2.154   8.715  0.2723  3.7712  0.5146
  515MOL0     H71054   3.562   2.713   8.071  1.7415  1.0416  0.8042
  515MOL0     H71055   3.339   2.751   7.996  0.1295 -1.2790 -1.4139
  515MOL0     H71056   3.083   3.093   7.780  0.2536  1.5833 -1.2784
  515MOL0     H71057   2.886   3.192   7.702  1.5403  0.3503  0.5324
  515MOL0     H71058   2.645   3.145   7.773 -2.1214 -2.1009  0.6825
  515MOL0     H71059   2.646   3.232   7.608 -1.7830  0.3931 -1.1726
  515MOL0     H71060   2.424   3.237   7.698  1.4234  0.1629  1.2303
  515MOL0     H71061   2.426   3.063   7.733 -1.2834 -0.0956  0.1339
  515MOL0     H71062   2.445   3.004   7.494 -1.1259 -0.3558 -0.4865
  515MOL0     H71063   2.297   3.080   7.539  0.0074 -0.7119 -1.4394
  515MOL0     H71064   2.513   3.190   7.360  0.0014  2.1030 -0.6135
  515MOL0     H71065   2.416   3.302   7.470  1.8096  0.2219  0.5096
  515MOL0     H71066   2.141   3.225   7.168 -1.3292  2.6888  0.8869
  515MOL0     H71067   2.741   2.807   7.598  0.4459  0.0296 -1.4243
  515MOL0     H71068   3.065   2.630   7.585  0.7487  1.4447 -0.9008
  515MOL0     H71069   2.914   2.594   7.680 -1.0848 -1.1381 -1.1717
  515MOL0     H71070   2.904   2.647   7.515 -1.1068  0.4383  1.3708
  516MOL0     O71071   1.649   0.282   4.766  0.0656 -0.3449  0.0452
  516MOL0     C71072   1.559   0.281   4.852 -1.0973 -1.0344 -0.4612
  516MOL0     O71073   1.426   0.311   4.835  0.5413  0.4158 -0.2685
  516MOL0     C71074   1.391   0.355   4.712  0.7385  0.0070 -0.7888
  516MOL0     C71075   1.421   0.289   4.593  0.1247  0.1613 -0.0949
  516MOL0     C71076   1.380   0.352   4.473 -0.0979  0.6761  0.2618
  516MOL0     C71077   1.312   0.471   4.480 -0.1367 -0.2923 -0.1323
  516MOL0     O71078   1.252   0.523   4.369  0.1023  0.1991 -0.0571
  516MOL0     C71079   1.323   0.541   4.246 -0.2491 -1.3203  0.2254
  516MOL0     C71080   1.251   0.639   4.153  0.7207  0.3832 -0.0057
  516MOL0     C71081   1.109   0.582   4.121 -0.2093 -0.0212  0.6163
  516MOL0     C71082   1.108   0.453   4.043 -0.2039  0.0146 -0.1374
  516MOL0     C71083   0.964   0.404   4.042 -0.5851  0.7858  0.6885
  516MOL0     C71084   0.954   0.289   3.934  0.2800  0.6284 -0.3903
  516MOL0     C71085   0.822   0.215   3.964 -0.4586  0.8374 -0.7739
  516MOL0     C71086   0.693   0.273   3.916 -0.3914 -0.4227 -0.7240
  516MOL0     N71087   0.655   0.397   3.980  0.9142 -0.9740  0.1352
  516MOL0     C71088   0.620   0.407   4.111 -0.1312 -0.2278 -0.5641
  516MOL0     C71089   0.591   0.539   4.125 -0.5947  0.0042  0.3209
  516MOL0     C71090   0.580   0.607   4.257 -0.1990  0.0049 -0.5929
  516MOL0     C71091   0.506   0.540   4.374  0.7810 -0.3449 -0.0842
  516MOL0     C71092   0.485   0.639   4.495 -0.4111 -0.4247 -0.6523
  516MOL0     C71093   0.366   0.739   4.480 -1.1032  0.4711 -0.2448
  516MOL0     O71094   0.353   0.821   4.605 -0.3076 -0.3765  0.7939
  516MOL0     C71095   0.450   0.906   4.629 -0.5496 -0.0620  0.0542
  516MOL0     C71096   0.492   1.013   4.549  0.1561  0.8586 -0.9079
  516MOL0     C71097   0.595   1.097   4.593  0.0493  0.9073  0.7099
  516MOL0     C71098   0.648   1.199   4.497 -0.4263  0.1242 -0.0686
  516MOL0     C71099   0.658   1.073   4.721  0.9748  0.1943  0.1356
  516MOL0     C71100   0.766   1.162   4.775 -0.1588  0.3856 -0.5957
  516MOL0     O71101   0.850   1.098   4.860  0.1114 -0.1051  0.1501
  516MOL0     C71102   0.934   1.172   4.942  0.4699 -0.7017  0.7084
  516MOL0     C71103   1.051   1.115   4.977 -1.0805 -1.0481  0.4699
  516MOL0     C71104   1.147   1.176   5.069  1.3577  0.6763  0.0682
  516MOL0     C71105   1.119   1.302   5.128  0.0246  0.6083 -1.1224
  516MOL0     O71106   1.205   1.357   5.216  1.0586  0.1717  0.3230
  516MOL0     C71107   1.315   1.408   5.157  0.8688 -0.6517  0.3658
  516MOL0     C71108   1.304   1.553   5.092 -0.1521  0.1538  0.7902
  516MOL0     C71109   1.226   1.661   5.174  1.3949  1.3039  0.1768
  516MOL0     C71110   1.192   1.781   5.092  0.0946 -0.6996  0.5237
  516MOL0     C71111   1.139   1.905   5.168 -0.3886 -0.8531 -0.3225
  516MOL0     C71112   1.093   2.015   5.080 -0.4277 -0.0875  0.1126
  516MOL0     C71113   1.194   2.080   4.975 -0.4597 -0.6254 -0.8965
  516MOL0     C71114   1.324   2.125   5.056 -0.1548 -0.3703  0.1770
  516MOL0    Cl71115   1.305   2.237   5.194  0.7382 -0.5523 -0.0545
  516MOL0     C71116   0.994   1.358   5.097  0.6314 -0.5836 -1.1133
  516MOL0     C71117   0.911   1.302   4.999  0.0132  0.2398  0.0043
  516MOL0     O71118   0.778   1.282   4.755  0.2611 -0.2885  0.4269
  516MOL0     C71119   0.616   0.959   4.794  0.2527  0.1961 -0.4891
  516MOL0     C71120   0.514   0.885   4.750  1.7047 -0.3990  0.3700
  516MOL0     N71121   0.576   0.604   4.000  0.2318  0.4757 -0.3853
  516MOL0     N71122   0.613   0.513   3.916  0.2934  0.6242 -0.2883
  516MOL0     C71123   1.292   0.536   4.596  0.2852 -0.7731 -0.9428
  516MOL0     C71124   1.332   0.485   4.718  0.1049  1.2494 -0.5326
  516MOL0     C71125   1.595   0.268   4.996  1.0257 -0.5906 -0.1382
  516MOL0     C71126   1.488   0.258   5.091  0.0876  0.7454  0.4811
  516MOL0     C71127   1.503   0.228   5.232  0.4153  0.5003  0.3776
  516MOL0     C71128   1.640   0.224   5.282  0.2195 -0.3115 -0.0915
  516MOL0     O71129   1.662   0.202   5.415 -0.3389  0.2517  0.1634
  516MOL0     C71130   1.555   0.155   5.499  0.1687 -0.3293 -0.0863
  516MOL0     C71131   1.609   0.112   5.630 -1.0130 -0.2246  0.1755
  516MOL0     C71132   1.718   0.007   5.615 -0.4264  0.6638  0.3699
  516MOL0     C71133   1.859   0.072   5.618 -0.3348  0.2865 -0.2769
  516MOL0     C71134   1.961  -0.034   5.586  1.3434 -0.7836  0.5685
  516MOL0     C71135   2.033  -0.129   5.584  0.4239 -0.3663 -0.2089
  516MOL0     C71136   1.738   0.248   5.195  0.1605  0.0945  0.3938
  516MOL0     C71137   1.719   0.263   5.057  0.0546  0.1166 -0.3214
  516MOL0     C71138   1.843   0.262   4.974 -0.0770 -0.3637  0.1288
  516MOL0     H71139   1.459   0.188   4.583 -0.1873 -0.1376  1.5285
  516MOL0     H71140   1.396   0.288   4.387 -2.9058 -1.9871  1.4935
  516MOL0     H71141   1.348   0.447   4.195  3.2906 -0.7683  0.6385
  516MOL0     H71142   1.415   0.596   4.269 -0.8899 -0.1755  0.0731
  516MOL0     H71143   1.236   0.733   4.207 -2.9183  0.0314 -0.1867
  516MOL0     H71144   1.308   0.644   4.060  1.7815  1.6767  0.6748
  516MOL0     H71145   1.050   0.580   4.213  2.7377  1.7995  2.7019
  516MOL0     H71146   1.069   0.666   4.064  0.9806  0.3817  0.3539
  516MOL0     H71147   1.149   0.467   3.943  2.0253 -3.1472  0.1733
  516MOL0     H71148   1.160   0.368   4.088  1.1123  0.4157 -0.8345
  516MOL0     H71149   0.895   0.481   4.005  0.6209  0.9771 -1.2976
  516MOL0     H71150   0.923   0.362   4.134 -0.7880 -1.6802 -0.4475
  516MOL0     H71151   0.956   0.326   3.831 -1.0305  0.7072 -0.4032
  516MOL0     H71152   1.037   0.220   3.949 -0.0540  0.4151  0.5274
  516MOL0     H71153   0.820   0.203   4.073  7.0758  0.5740 -0.1179
  516MOL0     H71154   0.836   0.116   3.920  1.5103  1.2548 -1.1978
  516MOL0     H71155   0.710   0.299   3.811  2.5411  2.4565  0.3202
  516MOL0     H71156   0.616   0.197   3.934  0.2353 -0.6005  1.4871
  516MOL0     H71157   0.645   0.329   4.181  1.1136  1.1583  0.5887
  516MOL0     H71158   0.553   0.713   4.247 -0.5953 -0.2111 -2.0134
  516MOL0     H71159   0.682   0.609   4.296 -1.2042 -2.0312  2.6070
  516MOL0     H71160   0.406   0.511   4.341 -0.2405  0.8897  1.7350
  516MOL0     H71161   0.561   0.454   4.412 -1.4049  0.2152  5.3105
  516MOL0     H71162   0.476   0.591   4.593  3.4981  4.6726  2.7385
  516MOL0     H71163   0.573   0.703   4.503 -1.1385  0.8395 -2.1561
  516MOL0     H71164   0.386   0.807   4.397  0.3121  2.2753  1.4618
  516MOL0     H71165   0.269   0.688   4.472 -0.7203  0.1146 -4.2539
  516MOL0     H71166   0.449   1.021   4.449 -0.0307 -0.6457 -0.9716
  516MOL0     H71167   0.757   1.205   4.497 -0.2828 -1.7958  0.9699
  516MOL0     H71168   0.605   1.298   4.518 -0.2421  0.2217 -0.1510
  516MOL0     H71169   0.618   1.163   4.398  1.8263 -1.9535 -0.0880
  516MOL0     H71170   1.075   1.013   4.948 -1.1501 -0.8583 -0.2768
  516MOL0     H71171   1.236   1.127   5.108  2.4068  3.9381  2.2860
  516MOL0     H71172   1.388   1.407   5.238 -0.4147 -1.6554  1.5591
  516MOL0     H71173   1.351   1.330   5.089  0.1632 -0.5919 -0.0865
  516MOL0     H71174   1.409   1.580   5.076 -0.2911  0.7729  0.8778
  516MOL0     H71175   1.259   1.545   4.993  0.7532  0.9269  0.2909
  516MOL0     H71176   1.283   1.693   5.262  1.8413  0.5673  0.1609
  516MOL0     H71177   1.134   1.620   5.215  1.1534  1.4520 -0.2099
  516MOL0     H71178   1.119   1.748   5.018  0.4544 -1.2179  0.3895
  516MOL0     H71179   1.288   1.810   5.048  0.1945  0.9069  1.7227
  516MOL0     H71180   1.051   1.871   5.223 -0.1515 -1.7184 -0.4730
  516MOL0     H71181   1.206   1.948   5.244 -1.1525 -0.7290  0.2981
  516MOL0     H71182   1.065   2.101   5.142  1.1295 -0.2229  1.0581
  516MOL0     H71183   1.005   1.989   5.021  0.7815  2.0477 -2.8465
  516MOL0     H71184   1.167   2.171   4.920  2.7049 -0.4572 -2.3922
  516MOL0     H71185   1.209   2.019   4.885  1.6284  0.8297 -1.6134
  516MOL0     H71186   1.384   2.181   4.984  1.7114 -0.4543  1.5883
  516MOL0     H71187   1.372   2.035   5.096 -2.5471 -2.0376 -0.4809
  516MOL0     H71188   0.964   1.446   5.154 -3.8461 -2.8532  0.5054
  516MOL0     H71189   0.815   1.347   4.974 -0.3596 -1.4388 -1.8842
  516MOL0     H71190   0.660   0.930   4.890  2.1771  0.7360 -1.1660
  516MOL0     H71191   0.475   0.799   4.805 -1.2560  0.1886 -0.6053
  516MOL0     H71192   1.243   0.633   4.592 -1.9005 -1.7343  0.1328
  516MOL0     H71193   1.316   0.542   4.808  0.1338  1.9643 -0.9765
  516MOL0     H71194   1.387   0.266   5.052  0.2806  2.9928  0.3472
  516MOL0     H71195   1.408   0.230   5.284 -1.8662  0.6546 -3.4114
  516MOL0     H71196   1.481   0.234   5.515  1.3827  0.6185  1.1278
  516MOL0     H71197   1.504   0.081   5.437 -0.7853  1.7273 -1.9007
  516MOL0     H71198   1.533   0.060   5.687 -1.8739  0.9074  0.0957
  516MOL0     H71199   1.649   0.199   5.683  1.0284 -1.9210  1.5762
  516MOL0     H71200   1.700  -0.073   5.687 -1.2649 -0.5046 -1.0929
  516MOL0     H71201   1.695  -0.049   5.524  1.1639  1.1389 -0.3668
  516MOL0     H71202   1.876   0.124   5.713  1.5318 -2.4304  1.0023
  516MOL0     H71203   1.865   0.147   5.539 -1.3503  0.6117 -0.0570
  516MOL0     H71204   2.098  -0.214   5.591 -0.6991 -1.6122 -3.1702
  516MOL0     H71205   1.839   0.251   5.236  0.7531  1.4625 -1.0667
  516MOL0     H71206   1.842   0.179   4.903  1.2221 -0.6025  0.3644
  516MOL0     H71207   1.848   0.356   4.917 -0.4715 -0.5950 -0.2992
  516MOL0     H71208   1.936   0.257   5.031 -1.9563 -2.1513  3.3218
  517MOL0     O71209   6.061   2.616  10.474 -0.0238  0.0548 -0.7803
  517MOL0     C71210   6.133   2.615  10.373 -0.8253  0.0108  0.3676
  517MOL0     O71211   6.107   2.538  10.259 -0.0602  0.0461  0.4636
  517MOL0     C71212   5.986   2.476  10.261 -0.0339  0.8244 -0.7042
  517MOL0     C71213   5.958   2.357  10.326  0.7329  0.4800  0.3895
  517MOL0     C71214   5.830   2.296  10.303  0.6590  0.9032  0.0325
  517MOL0     C71215   5.729   2.366  10.240  0.5387  0.6300  0.0339
  517MOL0     O71216   5.604   2.319  10.228 -0.4603 -0.3839 -1.0246
  517MOL0     C71217   5.594   2.190  10.165  0.1317 -0.0698  1.0017
  517MOL0     C71218   5.445   2.167  10.130 -0.4200 -0.6407  1.0638
  517MOL0     C71219   5.419   2.018  10.145 -0.6284 -0.2756  1.1460
  517MOL0     C71220   5.273   1.994  10.145 -0.4191 -0.0311  1.0682
  517MOL0     C71221   5.234   1.865  10.203  0.0797 -1.6891 -0.9802
  517MOL0     C71222   5.191   1.872  10.354  0.0931 -0.4932 -0.0863
  517MOL0     C71223   5.156   1.737  10.406  0.1767 -0.4505  0.3144
  517MOL0     C71224   5.062   1.755  10.529 -0.1665  0.0850 -0.2596
  517MOL0     N71225   5.149   1.804  10.632 -0.3218  0.0556  0.3219
  517MOL0     C71226   5.216   1.727  10.723  0.9266  0.1092  0.2853
  517MOL0     C71227   5.232   1.807  10.828 -0.0398 -0.2543 -0.6378
  517MOL0     C71228   5.265   1.760  10.975  0.3183  0.0964 -0.5853
  517MOL0     C71229   5.144   1.766  11.073 -0.3027  0.0426  1.8975
  517MOL0     C71230   5.056   1.643  11.062 -0.0430  0.6313 -0.3679
  517MOL0     C71231   4.951   1.664  11.168  0.0715 -1.1195  0.8312
  517MOL0     O71232   4.892   1.536  11.198  0.1087  0.7069  0.4933
  517MOL0     C71233   4.757   1.530  11.219  0.8559 -0.5006  0.5396
  517MOL0     C71234   4.689   1.411  11.212 -0.3463  0.9118 -1.0589
  517MOL0     C71235   4.550   1.405  11.224  0.8706 -0.3552 -0.0022
  517MOL0     C71236   4.485   1.267  11.201 -0.0085  0.4920  0.1979
  517MOL0     C71237   4.480   1.515  11.269  0.3144 -0.4296 -0.6174
  517MOL0     C71238   4.337   1.515  11.276  0.2728  0.4046  0.9028
  517MOL0     O71239   4.278   1.547  11.386  0.5419  0.6924 -0.0657
  517MOL0     C71240   4.143   1.535  11.411 -0.0410 -0.6101  0.3140
  517MOL0     C71241   4.102   1.603  11.528 -0.1593 -0.5337  0.5143
  517MOL0     C71242   3.965   1.595  11.567  0.4271  0.3361 -1.1960
  517MOL0     C71243   3.862   1.545  11.474  0.8017  0.4145 -0.3340
  517MOL0     O71244   3.723   1.550  11.495  0.1059 -0.1566 -0.4160
  517MOL0     C71245   3.675   1.686  11.509 -0.1654 -0.6271  0.0699
  517MOL0     C71246   3.526   1.679  11.465  0.2213  0.6595  0.3396
  517MOL0     C71247   3.460   1.811  11.460 -0.4924 -0.3426 -1.1001
  517MOL0     C71248   3.319   1.803  11.401 -0.7645 -0.3750  0.3747
  517MOL0     C71249   3.248   1.944  11.400  0.2574  0.7609  0.3699
  517MOL0     C71250   3.298   2.031  11.284 -0.7706 -0.3686  0.3800
  517MOL0     C71251   3.255   2.179  11.284  0.2706  0.9041 -0.3233
  517MOL0     C71252   3.338   2.271  11.198  0.9030 -0.6769 -0.0632
  517MOL0    Cl71253   3.306   2.222  11.020  0.1330  0.2792  0.0192
  517MOL0     C71254   3.910   1.490  11.353 -0.5948  0.0220 -0.4938
  517MOL0     C71255   4.049   1.481  11.322  1.3704  0.4981 -0.2182
  517MOL0     O71256   4.280   1.506  11.170  0.0114  1.1900  0.3923
  517MOL0     C71257   4.555   1.630  11.299  1.0724  0.5830 -0.5666
  517MOL0     C71258   4.687   1.640  11.275 -0.5267  0.3764 -0.6772
  517MOL0     N71259   5.185   1.937  10.805 -0.2436  0.2807  0.5666
  517MOL0     N71260   5.128   1.929  10.689 -0.2715 -0.3183  0.2268
  517MOL0     C71261   5.756   2.482  10.185 -0.8993 -1.2042  0.0217
  517MOL0     C71262   5.881   2.540  10.191 -0.4585 -0.1541  0.2201
  517MOL0     C71263   6.252   2.706  10.350 -0.1975 -0.7566 -0.2316
  517MOL0     C71264   6.300   2.729  10.215 -0.9739  0.0508  1.2926
  517MOL0     C71265   6.407   2.821  10.186  0.5466 -0.3836 -0.6541
  517MOL0     C71266   6.473   2.878  10.292 -0.0591 -0.4586  0.7822
  517MOL0     O71267   6.592   2.952  10.288  0.6940  0.1470  0.4895
  517MOL0     C71268   6.673   2.937  10.161 -0.5604 -0.0478 -0.1929
  517MOL0     C71269   6.803   3.018  10.191  0.2256  0.7535 -0.1133
  517MOL0     C71270   6.892   3.016  10.066 -0.2113 -1.4313  0.1787
  517MOL0     C71271   7.048   3.034  10.082  0.4955 -0.1348  0.4472
  517MOL0     C71272   7.093   2.996  10.219 -0.2263  0.3877 -1.2534
  517MOL0     C71273   7.128   2.957  10.329 -0.6166 -0.4717 -0.3202
  517MOL0     C71274   6.429   2.861  10.422 -0.5064  0.3107  0.2620
  517MOL0     C71275   6.328   2.768  10.462  0.0624  0.0878  0.4794
  517MOL0     C71276   6.298   2.749  10.614  0.0438  0.9559  1.0855
  517MOL0     H71277   6.033   2.301  10.381 -2.3456 -2.1659  2.2078
  517MOL0     H71278   5.798   2.200  10.341  1.6031  0.6436  0.2149
  517MOL0     H71279   5.632   2.105  10.222 -0.7460 -0.4137  1.0965
  517MOL0     H71280   5.650   2.181  10.071 -1.8050 -1.4970 -0.0792
  517MOL0     H71281   5.381   2.225  10.197 -2.5031 -1.3375 -0.2538
  517MOL0     H71282   5.430   2.214  10.033 -0.8404 -3.7026 -0.4727
  517MOL0     H71283   5.462   1.955  10.067 -1.2847  0.1956  0.3856
  517MOL0     H71284   5.469   1.978  10.233  0.3791 -2.0771 -0.1868
  517MOL0     H71285   5.213   2.074  10.188 -1.4046  0.0271 -0.3524
  517MOL0     H71286   5.243   2.001  10.040 -0.1682 -1.0092  0.9151
  517MOL0     H71287   5.321   1.802  10.184 -0.0411 -1.0165 -4.4566
  517MOL0     H71288   5.150   1.825  10.145 -0.2411 -2.3510 -0.0720
  517MOL0     H71289   5.277   1.909  10.412  0.0966  0.7421 -0.8513
  517MOL0     H71290   5.115   1.950  10.364  0.9803  0.4534 -0.6141
  517MOL0     H71291   5.245   1.678  10.428  1.1044 -0.5083 -3.1205
  517MOL0     H71292   5.103   1.680  10.330  2.7946  0.7107 -2.5706
  517MOL0     H71293   4.982   1.827  10.510  0.2742  2.3782  4.8938
  517MOL0     H71294   5.018   1.660  10.561  3.0193 -0.9882  1.4436
  517MOL0     H71295   5.220   1.619  10.731 -1.0446 -0.2869 -2.5659
  517MOL0     H71296   5.344   1.821  11.020  0.4752 -0.2710 -0.3599
  517MOL0     H71297   5.302   1.657  10.969 -0.6806 -0.6259  3.2179
  517MOL0     H71298   5.171   1.773  11.179  0.1219 -2.0862  1.9837
  517MOL0     H71299   5.071   1.845  11.055 -1.0387 -0.3079  3.1815
  517MOL0     H71300   5.006   1.619  10.968  1.6677  1.6723 -1.6087
  517MOL0     H71301   5.106   1.550  11.091 -1.0223  1.1081  3.3907
  517MOL0     H71302   4.979   1.696  11.269  0.3199 -0.2394  0.4955
  517MOL0     H71303   4.881   1.737  11.127  1.0298 -1.5221 -1.6756
  517MOL0     H71304   4.751   1.323  11.193 -0.7404  0.0529  1.3307
  517MOL0     H71305   4.406   1.262  11.126 -2.3251  1.0386  2.4340
  517MOL0     H71306   4.427   1.236  11.289 -2.0711  0.7711 -0.9792
  517MOL0     H71307   4.563   1.202  11.161  0.7633  0.8830  1.0213
  517MOL0     H71308   4.167   1.664  11.590  0.0232  3.4896 -3.1373
  517MOL0     H71309   3.925   1.647  11.653 -1.1216 -1.1210 -0.9871
  517MOL0     H71310   3.683   1.711  11.615  2.6536  0.4918 -0.3172
  517MOL0     H71311   3.723   1.764  11.449 -1.4296 -0.1150 -0.2933
  517MOL0     H71312   3.521   1.639  11.363  2.5291  1.4006 -0.1251
  517MOL0     H71313   3.479   1.617  11.542 -0.2542  1.5720  0.8023
  517MOL0     H71314   3.517   1.893  11.414 -0.3682 -0.1899 -0.6819
  517MOL0     H71315   3.441   1.853  11.560  2.9708  0.3486 -0.5958
  517MOL0     H71316   3.261   1.732  11.460  0.2506 -0.3521  1.4435
  517MOL0     H71317   3.324   1.761  11.300 -1.4745  0.4233 -0.0135
  517MOL0     H71318   3.142   1.920  11.393  0.6631 -1.0331 -0.1046
  517MOL0     H71319   3.261   1.999  11.494 -2.3800  0.4875  0.9840
  517MOL0     H71320   3.254   1.987  11.195 -0.0258  0.8920 -0.6533
  517MOL0     H71321   3.407   2.032  11.275 -0.9131  0.0693 -1.8860
  517MOL0     H71322   3.259   2.214  11.388 -1.7455  3.2748 -0.9458
  517MOL0     H71323   3.152   2.183  11.248  0.7192  1.7256 -1.5797
  517MOL0     H71324   3.445   2.274  11.219  1.4554  0.4867 -2.6923
  517MOL0     H71325   3.294   2.369  11.220  0.7814 -0.9539  1.0348
  517MOL0     H71326   3.839   1.444  11.284 -1.4817  1.2956 -0.4679
  517MOL0     H71327   4.084   1.431  11.232  0.0642 -1.0802  0.0977
  517MOL0     H71328   4.490   1.715  11.317 -0.1223 -0.5259  0.6153
  517MOL0     H71329   4.739   1.732  11.300  1.3606 -0.3876 -1.5394
  517MOL0     H71330   5.679   2.526  10.122 -1.8167  0.1793  2.0037
  517MOL0     H71331   5.891   2.640  10.150 -0.9713  0.1489  0.8092
  517MOL0     H71332   6.247   2.694  10.127 -1.3066 -2.5968  2.4245
  517MOL0     H71333   6.450   2.843  10.088  2.4301  0.9484  0.4084
  517MOL0     H71334   6.691   2.833  10.134  0.7533 -0.1558  0.9408
  517MOL0     H71335   6.621   2.979  10.075  0.8015  1.1718 -0.4680
  517MOL0     H71336   6.857   2.971  10.274  0.7836 -0.0089 -0.8808
  517MOL0     H71337   6.770   3.117  10.224 -1.6951 -0.5320  2.1648
  517MOL0     H71338   6.889   2.917  10.020 -1.1149 -1.2929 -0.0798
  517MOL0     H71339   6.858   3.091   9.993  0.3657 -0.5650  0.7823
  517MOL0     H71340   7.070   3.137  10.055 -2.9614  0.6889  0.3343
  517MOL0     H71341   7.098   2.971  10.007  0.5605  3.3266 -2.6752
  517MOL0     H71342   7.162   2.937  10.429 -0.2099 -0.7757 -0.5217
  517MOL0     H71343   6.488   2.908  10.500  0.1188  3.2496 -1.8041
  517MOL0     H71344   6.317   2.646  10.646  1.7098  0.2880 -1.6618
  517MOL0     H71345   6.362   2.813  10.676 -0.4168  0.8951  1.6313
  517MOL0     H71346   6.196   2.782  10.635  0.0650  0.9911  1.1328
  518MOL0     O71347   2.926   4.027   1.089  0.1988  0.1748 -0.2398
  518MOL0     C71348   2.909   4.149   1.108  0.3207 -0.1376 -0.1487
  518MOL0     O71349   3.004   4.244   1.111 -0.0885  0.6972  0.3774
  518MOL0     C71350   3.101   4.222   1.016  1.0479  0.4205  0.2799
  518MOL0     C71351   3.089   4.276   0.887 -0.7788 -0.3461  0.3486
  518MOL0     C71352   3.197   4.257   0.799  0.1785 -0.9402 -0.6929
  518MOL0     C71353   3.315   4.188   0.838 -0.3104 -0.7277  0.4025
  518MOL0     O71354   3.411   4.169   0.745 -0.1042 -0.2382  0.6197
  518MOL0     C71355   3.545   4.192   0.788 -0.5724  0.0836  0.4354
  518MOL0     C71356   3.630   4.213   0.663 -0.2063 -0.3713  0.2730
  518MOL0     C71357   3.768   4.249   0.689 -0.1779  0.3551  0.3198
  518MOL0     C71358   3.843   4.123   0.739  0.3171  0.0520 -0.4516
  518MOL0     C71359   3.994   4.113   0.702 -0.4866  0.7236  0.7095
  518MOL0     C71360   4.039   3.964   0.697  0.2315  0.2227  0.0153
  518MOL0     C71361   4.193   3.963   0.683 -0.5193  0.4382  0.0466
  518MOL0     C71362   4.247   3.823   0.714  0.4305  1.1040 -0.1120
  518MOL0     N71363   4.397   3.809   0.710  0.5949 -0.0715 -0.4815
  518MOL0     C71364   4.482   3.848   0.815  0.3467  0.9661  0.0151
  518MOL0     C71365   4.606   3.814   0.758 -0.4840  0.1818 -0.5599
  518MOL0     C71366   4.753   3.824   0.821 -0.1737  1.0662 -0.4655
  518MOL0     C71367   4.748   3.882   0.961  0.1677 -0.1795 -0.2592
  518MOL0     C71368   4.885   3.872   1.021  0.1703 -0.3941  0.0275
  518MOL0     C71369   4.869   3.903   1.168  0.5725  0.2797 -0.4795
  518MOL0     O71370   4.799   3.788   1.229 -0.2173  0.6079  0.6394
  518MOL0     C71371   4.724   3.816   1.338  0.3479  0.2818 -0.3450
  518MOL0     C71372   4.586   3.839   1.330  0.3988  0.5630  0.1253
  518MOL0     C71373   4.516   3.884   1.446 -0.2544  0.1306  0.0847
  518MOL0     C71374   4.367   3.909   1.423  0.2722  0.6960 -0.1305
  518MOL0     C71375   4.581   3.879   1.571  0.9431 -0.4125 -0.2408
  518MOL0     C71376   4.520   3.925   1.699  1.6761 -0.4722  0.7832
  518MOL0     O71377   4.609   3.909   1.806  0.3650  0.4509  0.0310
  518MOL0     C71378   4.569   3.910   1.931  0.0081 -0.1511 -0.2275
  518MOL0     C71379   4.661   3.963   2.025 -1.1141 -0.7314  0.7090
  518MOL0     C71380   4.627   3.960   2.157  0.5417 -0.0384 -0.7688
  518MOL0     C71381   4.503   3.909   2.204 -0.1406  0.1921  0.8499
  518MOL0     O71382   4.483   3.888   2.339  0.5911 -0.1324  0.4528
  518MOL0     C71383   4.355   3.834   2.388  0.2180 -0.0288  0.6285
  518MOL0     C71384   4.373   3.835   2.538 -0.0510 -0.0584 -0.0803
  518MOL0     C71385   4.400   3.965   2.604  0.1924  0.1502  0.3915
  518MOL0     C71386   4.468   3.958   2.739 -0.2113 -0.3314 -0.5535
  518MOL0     C71387   4.483   4.096   2.799 -0.5489  0.9069 -0.2158
  518MOL0     C71388   4.580   4.098   2.925 -0.2662 -1.0764 -0.3532
  518MOL0     C71389   4.576   4.240   2.989  0.4986 -0.0020  0.5164
  518MOL0     C71390   4.627   4.346   2.888 -0.5176 -0.3131 -0.2766
  518MOL0    Cl71391   4.680   4.498   2.980  0.3475 -0.0753 -0.5718
  518MOL0     C71392   4.410   3.860   2.106  0.3967  0.2564 -0.5624
  518MOL0     C71393   4.444   3.852   1.967 -1.3772 -1.3048  0.1847
  518MOL0     O71394   4.414   3.986   1.705  0.1382 -0.6741  0.5144
  518MOL0     C71395   4.713   3.834   1.572 -0.8999 -0.5077  0.1574
  518MOL0     C71396   4.786   3.811   1.457  0.3187  0.0416 -0.0878
  518MOL0     N71397   4.588   3.778   0.631 -0.0198 -0.2135 -0.0732
  518MOL0     N71398   4.467   3.773   0.598 -0.0495  0.0452 -0.2208
  518MOL0     C71399   3.333   4.157   0.970  0.1065  0.4210 -0.4581
  518MOL0     C71400   3.224   4.160   1.054 -0.1839 -0.5962 -0.2052
  518MOL0     C71401   2.772   4.185   1.161  0.7630 -0.7185 -0.5571
  518MOL0     C71402   2.683   4.090   1.206  0.2762  0.5106 -0.1073
  518MOL0     C71403   2.557   4.119   1.256 -0.5389  0.9927 -0.6123
  518MOL0     C71404   2.512   4.247   1.277 -0.4157 -0.1565 -0.7494
  518MOL0     O71405   2.405   4.257   1.363 -0.2644  0.0739 -0.8761
  518MOL0     C71406   2.306   4.359   1.336 -0.3948 -0.2528 -0.2107
  518MOL0     C71407   2.287   4.464   1.441 -0.4123 -1.4683 -0.1710
  518MOL0     C71408   2.409   4.566   1.453  0.6943  0.4551  0.4662
  518MOL0     C71409   2.401   4.660   1.568  0.0722 -0.1197  0.3880
  518MOL0     C71410   2.494   4.771   1.539 -0.1987 -1.0560 -0.9068
  518MOL0     C71411   2.570   4.864   1.525 -0.1607 -0.1360 -0.0675
  518MOL0     C71412   2.591   4.346   1.217  0.3042 -0.3480  0.6823
  518MOL0     C71413   2.719   4.319   1.159  0.8845 -0.0123 -0.4034
  518MOL0     C71414   2.790   4.431   1.092  0.4275 -0.1162 -0.1199
  518MOL0     H71415   2.991   4.309   0.854 -0.8725 -0.6957  0.2806
  518MOL0     H71416   3.203   4.273   0.692  1.1114  0.8441 -0.4087
  518MOL0     H71417   3.588   4.105   0.838  2.0009  0.4823 -0.9115
  518MOL0     H71418   3.573   4.282   0.845 -1.5984 -0.4413  1.8239
  518MOL0     H71419   3.615   4.125   0.600  2.8769 -0.9696  0.2158
  518MOL0     H71420   3.591   4.303   0.613  1.4779  1.7918  2.5871
  518MOL0     H71421   3.820   4.270   0.595  1.2060  2.6485  1.4996
  518MOL0     H71422   3.777   4.338   0.753  0.3193  1.5544 -1.3667
  518MOL0     H71423   3.827   4.122   0.847 -2.3416  0.0809 -0.7914
  518MOL0     H71424   3.797   4.029   0.707  0.9889 -1.6712  3.1314
  518MOL0     H71425   4.058   4.165   0.774  1.1880 -0.7661  0.3445
  518MOL0     H71426   4.004   4.164   0.606  0.0870  1.2262  1.0309
  518MOL0     H71427   4.007   3.921   0.792 -0.2789 -0.6762 -0.5421
  518MOL0     H71428   3.989   3.917   0.611  3.9085 -0.2235 -2.0867
  518MOL0     H71429   4.242   4.040   0.744 -3.2633  0.8588  1.8918
  518MOL0     H71430   4.215   3.983   0.578  1.9164  0.8434  0.5756
  518MOL0     H71431   4.206   3.785   0.808  1.1286 -0.9393 -0.5835
  518MOL0     H71432   4.203   3.757   0.638  3.4420 -0.7534 -0.3996
  518MOL0     H71433   4.475   3.879   0.919 -0.5051 -1.8532  0.8980
  518MOL0     H71434   4.803   3.884   0.745 -1.8921  2.4518 -0.5686
  518MOL0     H71435   4.806   3.728   0.823  0.5776  1.4669 -0.6832
  518MOL0     H71436   4.705   3.983   0.962  0.9095  0.1427  1.0627
  518MOL0     H71437   4.679   3.821   1.019 -0.5935  1.2997  0.4625
  518MOL0     H71438   4.929   3.772   1.021  1.3861  0.0293  3.0506
  518MOL0     H71439   4.950   3.944   0.970  0.1065  1.6814  2.6553
  518MOL0     H71440   4.964   3.928   1.215 -0.5962  0.6524  1.8161
  518MOL0     H71441   4.803   3.990   1.182  1.3717  0.7729  0.3596
  518MOL0     H71442   4.529   3.826   1.239 -1.7062 -0.5324  1.5359
  518MOL0     H71443   4.325   4.009   1.414 -0.9517  0.1759 -0.4272
  518MOL0     H71444   4.307   3.860   1.501 -0.0174  1.0086 -0.1572
  518MOL0     H71445   4.341   3.863   1.327  3.2965  0.2999 -0.8402
  518MOL0     H71446   4.761   3.993   1.995 -1.1109  1.5203  2.6573
  518MOL0     H71447   4.685   3.989   2.244  0.0444  0.3293 -0.5535
  518MOL0     H71448   4.278   3.901   2.348  2.2222 -0.3957 -4.5411
  518MOL0     H71449   4.335   3.733   2.351 -1.1119  1.0382 -1.8335
  518MOL0     H71450   4.273   3.812   2.577 -1.6083  3.2218 -1.7638
  518MOL0     H71451   4.436   3.755   2.579 -2.3251  0.3079  4.8479
  518MOL0     H71452   4.304   4.016   2.615 -0.2361 -0.9682  2.2168
  518MOL0     H71453   4.468   4.030   2.546 -0.6028 -0.3834 -1.2023
  518MOL0     H71454   4.568   3.921   2.715  0.5131  1.0100  0.2716
  518MOL0     H71455   4.427   3.886   2.811  2.9364 -0.5309  1.2097
  518MOL0     H71456   4.516   4.170   2.725  1.8923  0.2519  0.1340
  518MOL0     H71457   4.395   4.145   2.841  1.0573  5.3785 -1.4365
  518MOL0     H71458   4.680   4.058   2.904  0.9772  1.7374 -0.1494
  518MOL0     H71459   4.547   4.029   3.004 -1.5298 -1.1038 -0.8800
  518MOL0     H71460   4.632   4.251   3.082  2.3699  1.2991 -0.6966
  518MOL0     H71461   4.469   4.243   3.013  0.3878 -0.6473  0.1369
  518MOL0     H71462   4.542   4.377   2.826 -2.1712  1.3683  2.6087
  518MOL0     H71463   4.709   4.306   2.827  0.1531 -1.3187  1.2298
  518MOL0     H71464   4.315   3.818   2.134  1.1435 -2.8878 -2.2985
  518MOL0     H71465   4.368   3.818   1.897 -2.5347  1.9930 -0.3073
  518MOL0     H71466   4.771   3.815   1.662  0.0762 -1.0597 -0.5852
  518MOL0     H71467   4.882   3.768   1.482 -0.2081 -1.5604 -0.6441
  518MOL0     H71468   3.417   4.103   1.012  0.1907 -0.7551 -2.0480
  518MOL0     H71469   3.231   4.129   1.158 -0.9982  1.8446  0.6626
  518MOL0     H71470   2.707   3.984   1.203  3.6257  1.1631 -1.7692
  518MOL0     H71471   2.506   4.041   1.312  2.8741 -0.1891  1.1436
  518MOL0     H71472   2.329   4.410   1.242 -1.9134 -2.9867 -2.2174
  518MOL0     H71473   2.213   4.301   1.332  0.3188 -1.4631  0.0940
  518MOL0     H71474   2.264   4.413   1.535  3.3654 -1.9273  0.6300
  518MOL0     H71475   2.197   4.525   1.424  0.1607  0.0742  1.9325
  518MOL0     H71476   2.502   4.507   1.450  0.0505 -0.5534 -0.1527
  518MOL0     H71477   2.397   4.628   1.364 -2.3685 -2.2042 -1.1616
  518MOL0     H71478   2.429   4.600   1.655 -0.0787 -1.3672 -0.3847
  518MOL0     H71479   2.300   4.702   1.575 -0.1868 -0.8364  1.1176
  518MOL0     H71480   2.640   4.946   1.525  0.1200 -0.2756  2.6056
  518MOL0     H71481   2.548   4.446   1.218 -0.2384 -0.5773  1.5949
  518MOL0     H71482   2.725   4.514   1.063  0.1111 -0.3429 -0.0600
  518MOL0     H71483   2.881   4.468   1.139  0.5497  0.1131 -0.5265
  518MOL0     H71484   2.816   4.393   0.992 -1.7188  0.1366 -0.8272
  519MOL0     O71485   5.424   0.558   3.490 -0.3829 -0.3640  0.4548
  519MOL0     C71486   5.380   0.456   3.539 -0.4280  0.1827  0.3715
  519MOL0     O71487   5.438   0.385   3.640 -0.1979 -0.3448 -0.4876
  519MOL0     C71488   5.582   0.388   3.656  0.7581 -1.0915  0.3241
  519MOL0     C71489   5.634   0.427   3.776 -0.5269  0.7812  0.2841
  519MOL0     C71490   5.770   0.453   3.793 -0.1259  0.4224  0.2303
  519MOL0     C71491   5.864   0.417   3.700 -1.3570  0.3790  0.2855
  519MOL0     O71492   6.001   0.434   3.731 -0.2566 -0.0649 -0.3645
  519MOL0     C71493   6.092   0.448   3.624  0.0433 -0.7185  0.1258
  519MOL0     C71494   6.183   0.330   3.607 -0.5946  0.0320 -0.5308
  519MOL0     C71495   6.248   0.261   3.734  1.7290  0.0181  0.3185
  519MOL0     C71496   6.334   0.134   3.692  0.9408 -0.7513  0.1162
  519MOL0     C71497   6.381   0.055   3.807 -1.0678  0.3658  0.8875
  519MOL0     C71498   6.417  -0.088   3.763  0.6630 -0.5530  0.4147
  519MOL0     C71499   6.291  -0.181   3.767  0.3908 -0.2939  0.1334
  519MOL0     C71500   6.336  -0.323   3.801 -0.4897  0.6265  0.7431
  519MOL0     N71501   6.215  -0.415   3.782 -0.6640 -0.1702 -0.1445
  519MOL0     C71502   6.186  -0.467   3.661 -0.4241  0.5311  0.5257
  519MOL0     C71503   6.064  -0.525   3.677  0.4818 -0.2356 -0.3426
  519MOL0     C71504   5.975  -0.568   3.565  0.0764 -0.1581  0.2271
  519MOL0     C71505   5.988  -0.723   3.537 -0.0295  0.3181  0.0511
  519MOL0     C71506   6.107  -0.762   3.459  0.2365 -1.1289 -0.0646
  519MOL0     C71507   6.130  -0.908   3.450  1.0212  0.6266 -0.4708
  519MOL0     O71508   6.232  -0.928   3.347 -0.3103  0.4596 -0.1033
  519MOL0     C71509   6.288  -1.060   3.337 -0.4716 -0.6767 -0.2131
  519MOL0     C71510   6.400  -1.075   3.261  0.1221  0.2697  0.4103
  519MOL0     C71511   6.460  -1.199   3.247  0.1462  0.3567 -0.3348
  519MOL0     C71512   6.582  -1.207   3.161 -0.7098 -0.5192 -0.4479
  519MOL0     C71513   6.419  -1.307   3.322 -0.1024  0.4729  0.5209
  519MOL0     C71514   6.485  -1.450   3.314 -0.0808 -0.7024 -0.0534
  519MOL0     O71515   6.529  -1.504   3.199  0.3052  0.1966  0.2319
  519MOL0     C71516   6.646  -1.573   3.199 -0.4457 -0.3408  0.8074
  519MOL0     C71517   6.725  -1.593   3.304 -1.1584 -0.3475 -0.6371
  519MOL0     C71518   6.839  -1.674   3.299  0.1438 -0.4150 -0.4153
  519MOL0     C71519   6.874  -1.730   3.176  0.5535 -0.2510 -0.4021
  519MOL0     O71520   6.972  -1.818   3.166  0.3656 -0.4133  0.1746
  519MOL0     C71521   7.081  -1.814   3.256 -0.9653 -0.4196 -0.3882
  519MOL0     C71522   7.197  -1.902   3.219 -0.3928  0.6746  0.2138
  519MOL0     C71523   7.317  -1.896   3.320 -0.1225  0.2315 -0.2349
  519MOL0     C71524   7.291  -1.956   3.464  0.7149 -0.4989  0.8867
  519MOL0     C71525   7.427  -1.943   3.549 -0.6387  0.6626  0.5846
  519MOL0     C71526   7.532  -2.056   3.520  0.4255  0.2605 -0.5446
  519MOL0     C71527   7.654  -2.053   3.623  0.7463  0.4193  0.1912
  519MOL0     C71528   7.772  -2.144   3.586 -0.3877 -0.1521  0.3174
  519MOL0    Cl71529   7.841  -2.114   3.427 -0.2178 -0.5889 -0.0130
  519MOL0     C71530   6.810  -1.695   3.062 -0.6207 -0.0499  0.5182
  519MOL0     C71531   6.689  -1.627   3.071 -0.3614  0.3109 -0.4344
  519MOL0     O71532   6.470  -1.519   3.410  0.2533 -0.2073 -0.1135
  519MOL0     C71533   6.306  -1.289   3.398  0.5780 -0.2371 -0.4582
  519MOL0     C71534   6.240  -1.173   3.411 -0.2572  0.3673  0.2200
  519MOL0     N71535   6.021  -0.522   3.799 -0.1210 -0.9574 -0.2770
  519MOL0     N71536   6.115  -0.462   3.863  0.6229  0.4811 -0.3674
  519MOL0     C71537   5.814   0.367   3.579 -0.1508  0.2002  0.0945
  519MOL0     C71538   5.675   0.345   3.558  0.7513 -0.3848  0.0836
  519MOL0     C71539   5.255   0.392   3.492 -0.3681  0.3692  0.3940
  519MOL0     C71540   5.255   0.250   3.495  1.3279  0.3161 -0.2744
  519MOL0     C71541   5.142   0.182   3.449  0.3514  0.5179  0.6862
  519MOL0     C71542   5.035   0.249   3.397 -0.6426 -0.3474  0.9370
  519MOL0     O71543   4.930   0.170   3.367 -0.0829 -0.0114 -0.0925
  519MOL0     C71544   4.801   0.235   3.342  0.5403  0.2562  0.0207
  519MOL0     C71545   4.696   0.136   3.353 -0.6537 -0.3963  0.8931
  519MOL0     C71546   4.566   0.194   3.282  1.0789 -0.0721 -0.6651
  519MOL0     C71547   4.474   0.263   3.386  0.6808 -0.8220 -0.4214
  519MOL0     C71548   4.515   0.400   3.431 -0.4903  0.1147  0.0477
  519MOL0     C71549   4.563   0.503   3.460  0.1164  0.2147  0.2774
  519MOL0     C71550   5.032   0.389   3.394  0.4978 -0.0477 -0.0401
  519MOL0     C71551   5.148   0.460   3.435 -0.0903 -0.4078  0.6940
  519MOL0     C71552   5.154   0.614   3.435 -0.2830 -0.0085 -0.7885
  519MOL0     H71553   5.544   0.435   3.837 -4.3461 -4.2405 -3.8035
  519MOL0     H71554   5.794   0.473   3.897 -1.6540  0.4443  0.5954
  519MOL0     H71555   6.149   0.537   3.652  2.1081 -2.1683  0.7376
  519MOL0     H71556   6.045   0.479   3.529 -1.3361  0.0990  1.0376
  519MOL0     H71557   6.125   0.259   3.548 -3.0184  0.0604  1.6413
  519MOL0     H71558   6.259   0.356   3.534 -0.7135  0.1709 -0.6058
  519MOL0     H71559   6.320   0.331   3.779  0.6812 -0.6388  3.2289
  519MOL0     H71560   6.173   0.227   3.806  1.4982 -0.8070 -0.2880
  519MOL0     H71561   6.262   0.070   3.639  1.0302 -1.3945  0.7713
  519MOL0     H71562   6.415   0.161   3.624 -0.1502  0.8057 -0.6473
  519MOL0     H71563   6.305   0.054   3.885 -3.3961 -0.2554 -1.2564
  519MOL0     H71564   6.469   0.110   3.842  0.6857 -0.0599 -2.3883
  519MOL0     H71565   6.464  -0.091   3.664 -3.0272  0.9257 -1.5972
  519MOL0     H71566   6.489  -0.128   3.835  0.6521 -4.3226 -1.4049
  519MOL0     H71567   6.246  -0.184   3.667  1.6100 -0.6107 -0.4224
  519MOL0     H71568   6.224  -0.151   3.849  0.5309  0.6962 -0.0947
  519MOL0     H71569   6.406  -0.343   3.720 -0.9098  0.7569  0.3433
  519MOL0     H71570   6.375  -0.329   3.903  0.7722 -0.5156  0.2184
  519MOL0     H71571   6.224  -0.454   3.560 -1.9976  1.1449 -0.0336
  519MOL0     H71572   6.009  -0.511   3.478 -4.1213  1.1275 -0.7618
  519MOL0     H71573   5.873  -0.531   3.574  1.5918  4.5969  0.8968
  519MOL0     H71574   5.972  -0.772   3.633 -1.5743  0.0396 -0.3231
  519MOL0     H71575   5.900  -0.744   3.475 -1.8823  0.0683  2.6217
  519MOL0     H71576   6.096  -0.714   3.361 -0.5628  1.9016  1.3869
  519MOL0     H71577   6.197  -0.722   3.506 -0.4002  1.1673 -0.6383
  519MOL0     H71578   6.146  -0.949   3.551 -1.3188 -1.4706 -0.8590
  519MOL0     H71579   6.033  -0.950   3.422  1.1751  0.2878 -0.4973
  519MOL0     H71580   6.433  -0.987   3.206  1.8448 -0.3378  0.4349
  519MOL0     H71581   6.578  -1.299   3.102  1.8730 -0.1354 -1.3487
  519MOL0     H71582   6.670  -1.208   3.225 -0.4904 -2.9737 -0.6640
  519MOL0     H71583   6.602  -1.122   3.095  4.3568 -1.8388 -1.0332
  519MOL0     H71584   6.713  -1.537   3.396  1.3633  1.8494 -1.5317
  519MOL0     H71585   6.891  -1.706   3.388  2.0742 -1.2834 -1.7934
  519MOL0     H71586   7.125  -1.714   3.265 -2.0445  0.0462 -0.1348
  519MOL0     H71587   7.054  -1.851   3.355 -1.2776  1.0359  0.0927
  519MOL0     H71588   7.160  -2.004   3.210 -0.9752  0.9677 -0.9421
  519MOL0     H71589   7.229  -1.884   3.116  0.8730 -1.3357  0.2181
  519MOL0     H71590   7.366  -1.799   3.311 -1.3163  0.8792  0.0174
  519MOL0     H71591   7.393  -1.966   3.283  0.4284  1.4689 -1.5747
  519MOL0     H71592   7.261  -2.060   3.449  3.1343 -1.0341 -0.9373
  519MOL0     H71593   7.219  -1.890   3.513 -0.1748  0.1992 -1.2323
  519MOL0     H71594   7.475  -1.845   3.552  0.7306  0.0170  0.3114
  519MOL0     H71595   7.402  -1.969   3.652  2.6032 -3.1860  0.6352
  519MOL0     H71596   7.565  -2.053   3.416 -0.0255 -1.3264 -0.7570
  519MOL0     H71597   7.477  -2.150   3.529 -1.7744  1.5959  0.7996
  519MOL0     H71598   7.614  -2.080   3.721 -0.8503 -0.2965 -0.6146
  519MOL0     H71599   7.697  -1.952   3.626  1.7402 -0.0138  1.1384
  519MOL0     H71600   7.745  -2.250   3.594 -1.5032 -0.0459 -1.5357
  519MOL0     H71601   7.856  -2.119   3.651  1.6762  2.7966 -3.1415
  519MOL0     H71602   6.846  -1.746   2.974 -1.1050  2.3440 -1.1722
  519MOL0     H71603   6.639  -1.604   2.977 -1.2509  0.0606 -0.0371
  519MOL0     H71604   6.255  -1.366   3.455  2.4700 -0.5470  0.8798
  519MOL0     H71605   6.145  -1.161   3.463  0.4351 -0.4398  1.7464
  519MOL0     H71606   5.884   0.344   3.500 -1.0303 -1.3178 -0.2808
  519MOL0     H71607   5.633   0.297   3.470 -0.2989  1.9275 -0.7358
  519MOL0     H71608   5.339   0.188   3.524  1.4887 -0.4213 -2.1989
  519MOL0     H71609   5.153   0.074   3.442  0.5583  0.6321 -1.0590
  519MOL0     H71610   4.771   0.308   3.418  0.6376  1.1846 -0.8124
  519MOL0     H71611   4.805   0.297   3.252 -0.0766  2.8541  1.6724
  519MOL0     H71612   4.676   0.095   3.452  0.2586  0.9900  1.6839
  519MOL0     H71613   4.722   0.049   3.291  0.6988  0.0956  0.7134
  519MOL0     H71614   4.585   0.272   3.208  0.6208 -1.3619 -2.1878
  519MOL0     H71615   4.508   0.110   3.243  0.2712 -0.0164  0.3747
  519MOL0     H71616   4.463   0.199   3.474  1.5700  0.0075  0.3159
  519MOL0     H71617   4.378   0.281   3.338  1.3440  4.4947 -0.3308
  519MOL0     H71618   4.606   0.594   3.497 -0.9456 -0.0427  2.2945
  519MOL0     H71619   4.938   0.436   3.366 -0.9799 -2.4818  0.5719
  519MOL0     H71620   5.230   0.666   3.375 -0.6779 -1.5058 -2.6968
  519MOL0     H71621   5.065   0.658   3.389 -0.2484 -0.5330 -1.3610
  519MOL0     H71622   5.171   0.649   3.537  1.6081  3.0537 -1.9936
  520MOL0     O71623   9.913   9.661   8.300 -0.2388  0.4283 -0.1142
  520MOL0     C71624   9.998   9.594   8.365 -0.2124 -0.3268  0.9957
  520MOL0     O71625   9.998   9.573   8.506 -0.1013  0.6426 -0.0216
  520MOL0     C71626   9.879   9.611   8.564 -0.8720 -0.2258  0.6654
  520MOL0     C71627   9.805   9.510   8.638  0.5261  1.2330 -1.1550
  520MOL0     C71628   9.678   9.545   8.695 -0.3274 -0.3870 -0.7519
  520MOL0     C71629   9.631   9.675   8.676  0.4437  0.5052  0.1571
  520MOL0     O71630   9.519   9.701   8.746  0.4902 -0.4281  0.5185
  520MOL0     C71631   9.412   9.790   8.688  0.5877 -0.0941 -0.7473
  520MOL0     C71632   9.418   9.927   8.742  0.2520 -0.0155  0.5650
  520MOL0     C71633   9.301  10.022   8.684 -0.2082  0.3710  0.4185
  520MOL0     C71634   9.305  10.169   8.723  0.5097  0.5073  0.9094
  520MOL0     C71635   9.220  10.257   8.627  0.5257 -0.6998  0.3194
  520MOL0     C71636   9.239  10.402   8.663 -0.4790  0.6111  0.3796
  520MOL0     C71637   9.193  10.445   8.804  0.2705 -0.0029 -0.7374
  520MOL0     C71638   9.218  10.585   8.830  0.7716  0.1822  0.0719
  520MOL0     N71639   9.130  10.668   8.743  0.1971 -0.8090  0.3766
  520MOL0     C71640   9.191  10.755   8.650 -1.2462  0.1147 -0.6069
  520MOL0     C71641   9.088  10.838   8.613 -0.2797 -0.6063  0.4175
  520MOL0     C71642   9.103  10.962   8.522 -0.4448 -0.8600 -0.9885
  520MOL0     C71643   9.182  10.940   8.394  0.1154  0.1941  0.2865
  520MOL0     C71644   9.161  11.063   8.300 -0.9760 -0.0354 -0.9621
  520MOL0     C71645   9.273  11.075   8.189 -0.2615  0.2574  0.5263
  520MOL0     O71646   9.291  10.949   8.119  0.5139 -0.7283 -0.0629
  520MOL0     C71647   9.189  10.901   8.030  0.0870  1.1979  0.8068
  520MOL0     C71648   9.159  10.761   8.031  0.2837  0.5038  0.2167
  520MOL0     C71649   9.063  10.698   7.951  0.0995  0.7797 -0.4994
  520MOL0     C71650   9.044  10.549   7.966 -0.1803  0.3502  1.2006
  520MOL0     C71651   8.987  10.775   7.876  0.8285 -0.9039 -0.3160
  520MOL0     C71652   8.870  10.723   7.791 -0.1880 -0.8240 -0.5901
  520MOL0     O71653   8.847  10.785   7.677 -0.7978 -0.0366 -0.1138
  520MOL0     C71654   8.728  10.769   7.613  0.2224 -0.5487  0.7998
  520MOL0     C71655   8.736  10.726   7.483 -0.1362 -0.2002  0.6629
  520MOL0     C71656   8.622  10.699   7.415  0.4175  0.2881 -0.3811
  520MOL0     C71657   8.492  10.705   7.475  0.7129 -0.5533  0.3731
  520MOL0     O71658   8.379  10.664   7.418  0.0703 -0.4383 -0.0060
  520MOL0     C71659   8.394  10.554   7.326 -0.5383 -0.2492  0.2434
  520MOL0     C71660   8.273  10.462   7.297  0.1327 -0.2631 -0.4934
  520MOL0     C71661   8.283  10.357   7.180  0.1074  0.0512 -0.1017
  520MOL0     C71662   8.138  10.330   7.126  0.0159 -0.1455  0.8707
  520MOL0     C71663   8.145  10.209   7.030 -0.0389 -0.8374  0.4095
  520MOL0     C71664   8.008  10.185   6.956 -0.1290 -0.1417 -0.1687
  520MOL0     C71665   8.009  10.043   6.892 -0.8440  0.1113  0.0809
  520MOL0     C71666   8.073  10.030   6.743 -0.3023  0.3985  0.0241
  520MOL0    Cl71667   8.014  10.159   6.637 -0.0734 -0.1310  0.1226
  520MOL0     C71668   8.484  10.761   7.601  0.0621 -0.3414  0.1568
  520MOL0     C71669   8.602  10.794   7.673 -0.3006  0.4227  0.4739
  520MOL0     O71670   8.807  10.628   7.832 -0.6444 -0.5547 -0.1909
  520MOL0     C71671   9.016  10.917   7.863  0.4059 -0.1593  0.0614
  520MOL0     C71672   9.112  10.981   7.942  0.3851 -0.1231 -1.0357
  520MOL0     N71673   8.968  10.802   8.678  0.3981  0.2643 -1.1170
  520MOL0     N71674   8.989  10.688   8.744 -0.6283 -0.4065  0.1558
  520MOL0     C71675   9.710   9.773   8.615  0.3163 -0.1293  0.2614
  520MOL0     C71676   9.836   9.739   8.562  0.7285  0.2222  0.6112
  520MOL0     C71677  10.123   9.540   8.294 -0.0536  0.5074 -1.0680
  520MOL0     C71678  10.227   9.490   8.373 -0.6977 -0.6048 -0.6487
  520MOL0     C71679  10.340   9.430   8.309 -0.1654  1.2290 -0.1656
  520MOL0     C71680  10.355   9.424   8.171 -0.2195  0.3914 -0.7747
  520MOL0     O71681  10.456   9.338   8.121  0.0063 -0.6079  0.1485
  520MOL0     C71682  10.535   9.385   8.006 -0.2613  0.0136  0.1385
  520MOL0     C71683  10.634   9.483   8.064 -0.4447 -1.1112 -0.7316
  520MOL0     C71684  10.721   9.562   7.960  0.9758 -0.4674 -0.1804
  520MOL0     C71685  10.865   9.517   7.979  0.4214  0.6301 -0.1016
  520MOL0     C71686  10.955   9.611   7.914 -0.7537 -0.9977 -0.3600
  520MOL0     C71687  11.023   9.688   7.856 -0.3325  0.0419  0.4162
  520MOL0     C71688  10.250   9.475   8.099  0.3279 -0.7627 -0.2047
  520MOL0     C71689  10.134   9.534   8.153 -0.0759  0.6411  0.4660
  520MOL0     C71690  10.023   9.569   8.051  0.3192  0.6236 -0.6272
  520MOL0     H71691   9.843   9.410   8.655 -2.0700  0.5396  1.2623
  520MOL0     H71692   9.624   9.484   8.768  0.3439 -0.5787 -0.4026
  520MOL0     H71693   9.315   9.745   8.712  1.1538 -0.3569  1.2799
  520MOL0     H71694   9.411   9.786   8.579  0.9878 -2.6216 -0.7260
  520MOL0     H71695   9.414   9.922   8.852  1.0202 -2.7126  0.5682
  520MOL0     H71696   9.519   9.963   8.721  0.3341  0.5060  1.7572
  520MOL0     H71697   9.300  10.011   8.576  0.9861 -1.2203  0.5274
  520MOL0     H71698   9.203   9.985   8.715 -0.2501 -0.9917 -1.1791
  520MOL0     H71699   9.263  10.167   8.824  1.7042 -2.5041  1.4235
  520MOL0     H71700   9.404  10.214   8.722 -1.2075  4.8602  2.6550
  520MOL0     H71701   9.116  10.230   8.649  0.3875  1.3962  2.7058
  520MOL0     H71702   9.253  10.241   8.524 -0.7923  0.4461 -0.3079
  520MOL0     H71703   9.341  10.438   8.649 -0.6894  1.5429  1.1174
  520MOL0     H71704   9.184  10.459   8.587 -1.1322 -1.4094 -0.7217
  520MOL0     H71705   9.245  10.381   8.875 -0.1519 -1.9002 -2.0421
  520MOL0     H71706   9.087  10.420   8.817  0.0771  1.1661  0.0700
  520MOL0     H71707   9.205  10.617   8.934 -2.4499 -3.1840  0.9347
  520MOL0     H71708   9.321  10.598   8.798  1.4675 -4.8559 -0.5427
  520MOL0     H71709   9.296  10.773   8.628 -1.1076  2.3997  1.4877
  520MOL0     H71710   9.141  11.039   8.590 -1.4505 -0.9918 -0.2429
  520MOL0     H71711   9.001  11.000   8.505  0.5609  1.3360 -2.6429
  520MOL0     H71712   9.284  10.912   8.422 -0.6695 -2.2440  1.0210
  520MOL0     H71713   9.142  10.854   8.339  2.0060 -0.9924  0.6974
  520MOL0     H71714   9.061  11.067   8.255 -2.3265  0.6221  1.8469
  520MOL0     H71715   9.174  11.158   8.354  0.8776  0.2759 -1.8825
  520MOL0     H71716   9.244  11.161   8.128  2.0465  1.1005  0.5238
  520MOL0     H71717   9.373  11.101   8.227  0.3208 -0.1917 -0.6480
  520MOL0     H71718   9.222  10.709   8.102 -0.5772  0.2024  0.7889
  520MOL0     H71719   9.126  10.484   7.998  1.2985 -0.1498 -2.9623
  520MOL0     H71720   9.016  10.516   7.866 -0.7931  2.1964  0.7319
  520MOL0     H71721   8.961  10.538   8.036  0.5059 -2.2926  1.7124
  520MOL0     H71722   8.837  10.704   7.450 -0.5817  0.5558 -1.3854
  520MOL0     H71723   8.619  10.658   7.315 -1.8044 -2.1596  0.5861
  520MOL0     H71724   8.426  10.598   7.231 -3.4941  0.9739 -0.2920
  520MOL0     H71725   8.478  10.492   7.358 -0.2874 -0.2301 -0.3632
  520MOL0     H71726   8.250  10.410   7.390  1.1116 -2.3645 -1.3765
  520MOL0     H71727   8.180  10.520   7.286 -1.3812 -2.2167  1.2521
  520MOL0     H71728   8.327  10.264   7.214 -0.2815  0.2780  1.0702
  520MOL0     H71729   8.343  10.401   7.099  1.4533  0.1696  0.9368
  520MOL0     H71730   8.100  10.411   7.065 -0.8695 -1.0999  0.1155
  520MOL0     H71731   8.068  10.311   7.208 -1.0489  2.8392  0.7763
  520MOL0     H71732   8.220  10.232   6.954  0.0930 -1.5560  0.3170
  520MOL0     H71733   8.171  10.123   7.092  0.2339 -0.5894  0.6398
  520MOL0     H71734   7.994  10.272   6.892 -1.5584  0.0245  0.3307
  520MOL0     H71735   7.919  10.190   7.019 -1.7884 -0.3088 -2.3803
  520MOL0     H71736   7.905  10.019   6.867 -1.4421  1.1983  1.4587
  520MOL0     H71737   8.063   9.968   6.951  0.3688  0.1223 -0.9654
  520MOL0     H71738   8.063   9.930   6.701  3.3505  0.2364 -0.7976
  520MOL0     H71739   8.181  10.038   6.759 -0.1686 -1.2925  0.1252
  520MOL0     H71740   8.388  10.784   7.647  0.4202  1.8643 -0.0986
  520MOL0     H71741   8.595  10.842   7.770 -4.0913  1.9736 -0.3895
  520MOL0     H71742   8.950  10.974   7.797  0.7963  1.4318  0.9956
  520MOL0     H71743   9.132  11.086   7.924 -1.1361 -0.1865 -3.5225
  520MOL0     H71744   9.672   9.875   8.617 -2.9769 -1.2368 -0.8701
  520MOL0     H71745   9.901   9.815   8.521 -0.7833  1.1271 -0.2267
  520MOL0     H71746  10.232   9.526   8.475 -2.2198 -0.1300 -0.7212
  520MOL0     H71747  10.412   9.382   8.375  1.7794  1.1623 -2.2412
  520MOL0     H71748  10.591   9.309   7.950  0.8011  1.5329 -0.9508
  520MOL0     H71749  10.467   9.432   7.935  1.7586  0.9668 -1.2762
  520MOL0     H71750  10.691   9.427   8.138  2.1199  2.6790  0.4752
  520MOL0     H71751  10.569   9.555   8.116 -2.0401 -1.7499 -1.7473
  520MOL0     H71752  10.681   9.549   7.859 -1.6946  1.3332  0.5661
  520MOL0     H71753  10.726   9.666   7.992  3.1099 -1.5807  3.8224
  520MOL0     H71754  10.877   9.417   7.936 -0.0999  0.5609 -0.0862
  520MOL0     H71755  10.883   9.509   8.086 -2.5905 -3.7195  0.3451
  520MOL0     H71756  11.071   9.768   7.803 -0.9219  0.6375  0.7676
  520MOL0     H71757  10.252   9.471   7.991  1.6580 -1.5019 -0.1768
  520MOL0     H71758  10.035   9.507   7.962  0.5730  0.3693 -0.4183
  520MOL0     H71759   9.923   9.546   8.088 -0.1878  0.8622 -1.8065
  520MOL0     H71760  10.044   9.675   8.031 -1.1684  1.3510  1.3427
  521MOL0     O71761  11.107  10.394  11.272  0.1457  1.0009 -0.1699
  521MOL0     C71762  11.156  10.481  11.342  0.3849  0.0474  0.2660
  521MOL0     O71763  11.281  10.474  11.410 -0.0054  0.0096  0.1829
  521MOL0     C71764  11.354  10.367  11.379  0.1828 -0.1359 -0.5283
  521MOL0     C71765  11.483  10.375  11.331  0.4315  0.6141 -0.4297
  521MOL0     C71766  11.556  10.260  11.322  0.2437  0.4700 -0.0913
  521MOL0     C71767  11.509  10.137  11.362 -0.3252  0.3726  0.1700
  521MOL0     O71768  11.596  10.035  11.339 -0.8377  0.2980  0.4940
  521MOL0     C71769  11.576   9.915  11.409 -0.2141  0.3811 -0.4400
  521MOL0     C71770  11.693   9.813  11.405 -0.1427 -0.1480 -0.1262
  521MOL0     C71771  11.652   9.689  11.489  0.5506  0.7370 -0.0108
  521MOL0     C71772  11.757   9.583  11.477  0.1939  0.2380  0.4001
  521MOL0     C71773  11.880   9.594  11.571  0.3640  0.1291 -0.0758
  521MOL0     C71774  12.021   9.595  11.502  1.2320 -0.0384 -0.6008
  521MOL0     C71775  12.137   9.598  11.605 -0.6877 -0.2314 -0.2335
  521MOL0     C71776  12.144   9.737  11.669 -0.4967  0.3720  0.0748
  521MOL0     N71777  12.154   9.858  11.584 -0.4050 -0.2060  0.6522
  521MOL0     C71778  12.053   9.931  11.527 -1.1593  0.2168  0.2496
  521MOL0     C71779  12.103  10.006  11.431 -0.9301  0.5085 -0.4661
  521MOL0     C71780  12.015  10.105  11.349  0.2037 -0.0942 -0.6926
  521MOL0     C71781  12.085  10.163  11.231 -0.0615 -0.5217  0.4980
  521MOL0     C71782  11.991  10.227  11.126  0.3472  0.2948  0.0222
  521MOL0     C71783  12.067  10.308  11.023  0.3376 -1.4155  0.3337
  521MOL0     O71784  12.145  10.414  11.085  0.3489  0.0138 -0.3088
  521MOL0     C71785  12.266  10.450  11.036  0.1976 -0.5988  1.0443
  521MOL0     C71786  12.290  10.585  11.058 -0.4336  0.1590 -0.4415
  521MOL0     C71787  12.414  10.640  11.023  0.5849 -0.3500  1.2828
  521MOL0     C71788  12.445  10.791  11.047  0.0963  0.1077  0.0960
  521MOL0     C71789  12.512  10.556  10.958  0.0739 -0.4420 -0.6810
  521MOL0     C71790  12.656  10.598  10.902  0.3970  0.6126  0.6903
  521MOL0     O71791  12.734  10.501  10.850  0.0450  0.8089  0.5726
  521MOL0     C71792  12.860  10.507  10.809  0.2915  0.7508 -0.8041
  521MOL0     C71793  12.921  10.609  10.739 -0.0824  0.3613  1.0242
  521MOL0     C71794  13.058  10.588  10.689 -0.3944 -0.2264  0.2922
  521MOL0     C71795  13.113  10.467  10.698 -1.1432 -0.3688  0.2284
  521MOL0     O71796  13.234  10.465  10.631 -0.1186  0.3614 -0.0098
  521MOL0     C71797  13.345  10.413  10.706  0.0782 -0.2327 -0.9190
  521MOL0     C71798  13.447  10.540  10.721  0.1050  0.0582 -0.9657
  521MOL0     C71799  13.452  10.637  10.600 -0.6728  0.2487 -1.2734
  521MOL0     C71800  13.523  10.562  10.485 -0.8606  0.5668 -0.2581
  521MOL0     C71801  13.493  10.634  10.355 -0.2121 -0.0671  0.4627
  521MOL0     C71802  13.562  10.558  10.246 -0.8241  0.7936 -0.1977
  521MOL0     C71803  13.534  10.629  10.107  0.3733  0.3202  0.8896
  521MOL0     C71804  13.613  10.593   9.991 -0.1735 -0.4471  1.2119
  521MOL0    Cl71805  13.615  10.408   9.974 -0.4425  0.1234 -0.1076
  521MOL0     C71806  13.057  10.363  10.767 -0.1720  0.5366  0.2593
  521MOL0     C71807  12.930  10.382  10.819  0.2508 -0.4537  0.4393
  521MOL0     O71808  12.672  10.716  10.884  0.0642  0.1422 -0.3480
  521MOL0     C71809  12.486  10.418  10.940 -0.4645  0.9582  0.4427
  521MOL0     C71810  12.360  10.372  10.967  0.0066 -0.6601  0.2461
  521MOL0     N71811  12.238   9.972  11.419  0.2684 -0.6061 -0.0189
  521MOL0     N71812  12.276   9.889  11.520 -0.1172 -0.1510 -0.5416
  521MOL0     C71813  11.371  10.121  11.394 -0.2385 -0.6552 -0.5236
  521MOL0     C71814  11.299  10.241  11.413  0.4296 -0.3803  0.4288
  521MOL0     C71815  11.084  10.618  11.355 -0.3488  0.1510 -0.3638
  521MOL0     C71816  11.145  10.735  11.294  0.0301 -0.4476  0.7295
  521MOL0     C71817  11.084  10.860  11.303 -0.6550  0.0206  0.2647
  521MOL0     C71818  10.960  10.879  11.362  1.2614  1.0592  0.9749
  521MOL0     O71819  10.887  10.997  11.360  0.9147  1.1280 -0.1022
  521MOL0     C71820  10.933  11.123  11.323  0.6181  0.2930 -0.1358
  521MOL0     C71821  10.907  11.163  11.178 -1.1405  0.0073 -0.3982
  521MOL0     C71822  10.758  11.191  11.150  0.4544  0.2127  0.0814
  521MOL0     C71823  10.738  11.260  11.016  0.4129 -0.4278  1.1468
  521MOL0     C71824  10.773  11.191  10.889  0.3601 -0.3479 -1.1190
  521MOL0     C71825  10.808  11.127  10.796  1.0826 -0.1441  0.1453
  521MOL0     C71826  10.897  10.763  11.412  0.3030 -0.5944  0.1048
  521MOL0     C71827  10.956  10.634  11.420 -0.5409  0.0054 -0.2712
  521MOL0     C71828  10.860  10.529  11.471  0.5451 -0.2692  0.0076
  521MOL0     H71829  11.515  10.478  11.317  0.2117  0.8361  0.6545
  521MOL0     H71830  11.661  10.252  11.298  0.4920  0.3791  0.9661
  521MOL0     H71831  11.490   9.859  11.369  1.8741 -2.5354 -1.2020
  521MOL0     H71832  11.554   9.941  11.512  1.3191  0.6650 -0.1591
  521MOL0     H71833  11.706   9.773  11.304 -1.9067 -2.6949  0.5703
  521MOL0     H71834  11.788   9.856  11.437  1.5210 -2.1616 -1.9833
  521MOL0     H71835  11.636   9.714  11.594 -1.4121 -4.0796  1.0971
  521MOL0     H71836  11.561   9.643  11.449  1.3869 -1.9730  1.0108
  521MOL0     H71837  11.709   9.490  11.509  1.2907 -0.2534  0.6711
  521MOL0     H71838  11.788   9.565  11.373 -0.3232  0.9125  0.1277
  521MOL0     H71839  11.876   9.520  11.651  1.2518 -0.1497 -0.2705
  521MOL0     H71840  11.884   9.698  11.607  1.4870  0.7265 -1.7956
  521MOL0     H71841  12.024   9.498  11.451  2.5802 -0.6353  0.5588
  521MOL0     H71842  12.028   9.675  11.428  2.8730  0.3823 -0.0225
  521MOL0     H71843  12.229   9.580  11.548  0.4768 -0.0870  1.5319
  521MOL0     H71844  12.125   9.523  11.684 -0.7064 -1.5532 -1.4313
  521MOL0     H71845  12.055   9.763  11.727 -1.2267  0.6515 -1.1351
  521MOL0     H71846  12.235   9.733  11.730 -0.5465  2.2490  0.3468
  521MOL0     H71847  11.949   9.921  11.558 -1.0888  1.0578  0.8041
  521MOL0     H71848  11.982  10.189  11.411  2.6399  0.4933 -0.0563
  521MOL0     H71849  11.923  10.058  11.313  0.7626 -0.7815 -1.2560
  521MOL0     H71850  12.160  10.233  11.269 -0.4716  1.3220 -1.8578
  521MOL0     H71851  12.133  10.082  11.175 -0.6302  2.2441 -4.5144
  521MOL0     H71852  11.940  10.147  11.073  0.6894 -0.2493  0.4959
  521MOL0     H71853  11.920  10.292  11.177 -0.5528 -1.2394  0.7881
  521MOL0     H71854  12.126  10.249  10.952  0.5122  0.2693 -1.0026
  521MOL0     H71855  11.985  10.346  10.961  0.8491  0.4587  0.7317
  521MOL0     H71856  12.209  10.642  11.103  0.2205  0.1221  0.8448
  521MOL0     H71857  12.365  10.846  11.098 -1.4646 -0.0163 -2.0968
  521MOL0     H71858  12.466  10.841  10.952  0.6660 -2.2732 -1.1117
  521MOL0     H71859  12.535  10.795  11.108  1.0396  2.4313 -1.3193
  521MOL0     H71860  12.876  10.707  10.729  1.6686  1.1784  0.8061
  521MOL0     H71861  13.115  10.662  10.633  1.2126 -0.8342  1.0533
  521MOL0     H71862  13.330  10.374  10.807 -0.6888  1.9357 -0.1400
  521MOL0     H71863  13.397  10.336  10.649  0.0985  0.4865 -1.8896
  521MOL0     H71864  13.406  10.591  10.809 -1.5220 -0.0850 -1.5915
  521MOL0     H71865  13.548  10.504  10.743 -1.0527 -3.2953 -0.4142
  521MOL0     H71866  13.506  10.729  10.624  1.9855 -1.2267 -1.2658
  521MOL0     H71867  13.349  10.663  10.574 -1.2043 -1.5608 -1.1602
  521MOL0     H71868  13.486  10.461  10.471 -3.8283  1.8509 -2.8125
  521MOL0     H71869  13.629  10.563  10.514 -1.3041  3.7211  1.7883
  521MOL0     H71870  13.385  10.631  10.343 -0.3482 -4.2391  1.1945
  521MOL0     H71871  13.540  10.733  10.364  1.4192 -0.3819 -3.1246
  521MOL0     H71872  13.523  10.456  10.242 -2.1238  1.2207  0.6784
  521MOL0     H71873  13.670  10.551  10.261 -1.1233 -1.7136  1.3412
  521MOL0     H71874  13.549  10.737  10.111  1.6850  0.4261 -2.7790
  521MOL0     H71875  13.430  10.609  10.078  1.5052 -1.3004 -2.7049
  521MOL0     H71876  13.717  10.624  10.004  0.2704 -1.4712  0.2321
  521MOL0     H71877  13.588  10.640   9.895 -1.5566  0.0309  1.7771
  521MOL0     H71878  13.101  10.265  10.782  0.4322  0.6384 -0.7361
  521MOL0     H71879  12.883  10.291  10.856  0.0928 -1.4364 -2.0120
  521MOL0     H71880  12.560  10.361  10.885 -2.7513 -0.5003 -1.2790
  521MOL0     H71881  12.325  10.273  10.939 -3.4153  0.9460 -1.8347
  521MOL0     H71882  11.312  10.033  11.419 -0.5282 -0.9414 -2.0897
  521MOL0     H71883  11.195  10.233  11.442  0.5096 -1.6901  0.3833
  521MOL0     H71884  11.236  10.710  11.241 -0.5280 -1.9045  0.3854
  521MOL0     H71885  11.128  10.939  11.244  3.9083 -2.5786 -0.2805
  521MOL0     H71886  10.869  11.191  11.380 -0.8682 -1.7353  0.7146
  521MOL0     H71887  11.036  11.138  11.357  1.2502 -1.4122 -1.1904
  521MOL0     H71888  10.952  11.084  11.118  0.7173 -0.0152  0.9331
  521MOL0     H71889  10.964  11.256  11.162  0.5687 -1.1235 -1.1558
  521MOL0     H71890  10.686  11.108  11.149 -0.5569  1.0753 -1.0030
  521MOL0     H71891  10.727  11.273  11.216 -1.8521  0.3772 -1.1141
  521MOL0     H71892  10.793  11.351  11.039 -1.4152  0.9107  0.4513
  521MOL0     H71893  10.634  11.293  11.010  0.4838 -0.4739 -2.3825
  521MOL0     H71894  10.833  11.078  10.704 -2.2733 -1.4492 -0.1889
  521MOL0     H71895  10.799  10.773  11.459  1.2005  2.7612  1.5708
  521MOL0     H71896  10.802  10.572  11.553 -2.1888 -2.6720 -0.4908
  521MOL0     H71897  10.795  10.496  11.389  0.6304  1.1119 -0.6448
  521MOL0     H71898  10.903  10.442  11.522 -0.0559 -0.2190  0.6115
  522MOL0     O71899   2.447   7.028   3.929  0.0992  0.1135 -0.6099
  522MOL0     C71900   2.381   6.944   3.992 -0.3666 -0.0918  0.1461
  522MOL0     O71901   2.432   6.824   4.025 -0.3060 -0.1362  0.2190
  522MOL0     C71902   2.571   6.789   4.024  0.7603 -0.2537  0.6209
  522MOL0     C71903   2.581   6.655   4.067 -0.1060  0.0921 -0.5248
  522MOL0     C71904   2.707   6.592   4.058  0.0272  0.0198  0.4647
  522MOL0     C71905   2.817   6.673   4.025  0.6617  0.1590 -0.7476
  522MOL0     O71906   2.941   6.608   4.041 -0.4657 -0.1763  0.4525
  522MOL0     C71907   3.050   6.702   4.028 -0.2241  0.4312  0.0431
  522MOL0     C71908   3.177   6.626   4.073 -0.6812 -1.0009 -1.1989
  522MOL0     C71909   3.311   6.697   4.052 -0.8370 -0.3190  0.4272
  522MOL0     C71910   3.435   6.629   4.103 -0.4668  0.6237  0.4971
  522MOL0     C71911   3.554   6.721   4.074 -0.1063 -0.2919 -1.0493
  522MOL0     C71912   3.644   6.723   4.205  0.3910 -0.5907  0.2917
  522MOL0     C71913   3.765   6.810   4.196 -0.4925 -0.1103  0.7046
  522MOL0     C71914   3.738   6.960   4.162 -0.3099  0.6683 -0.3240
  522MOL0     N71915   3.865   7.034   4.157  0.2381  0.7288 -0.7663
  522MOL0     C71916   3.979   6.987   4.095 -0.7713  0.3136 -0.5845
  522MOL0     C71917   4.068   7.090   4.098  1.0922  0.3948  0.2725
  522MOL0     C71918   4.212   7.091   4.040  0.4062 -0.6174 -0.6327
  522MOL0     C71919   4.300   7.098   4.170  0.4267 -0.1045  0.1568
  522MOL0     C71920   4.291   6.979   4.264 -0.1934  0.5274  0.1642
  522MOL0     C71921   4.399   6.978   4.370  0.2006 -0.2314 -0.5810
  522MOL0     O71922   4.526   7.006   4.314 -0.5814  0.2989 -0.4968
  522MOL0     C71923   4.600   6.892   4.268 -0.1516  0.4077 -0.3297
  522MOL0     C71924   4.547   6.756   4.269 -0.6188 -0.5800  0.6207
  522MOL0     C71925   4.631   6.643   4.232  0.5752  0.1112  0.1871
  522MOL0     C71926   4.559   6.506   4.249 -0.5121 -0.0827 -0.2936
  522MOL0     C71927   4.757   6.670   4.187  0.8486  0.3885 -0.0699
  522MOL0     C71928   4.857   6.568   4.138  0.6113 -0.1849 -0.7146
  522MOL0     O71929   4.990   6.602   4.141 -0.8187  0.5636  0.0270
  522MOL0     C71930   5.075   6.547   4.054  0.2360  0.5982  0.2003
  522MOL0     C71931   5.117   6.417   4.078 -0.6228 -0.1644 -0.1768
  522MOL0     C71932   5.201   6.351   3.980  1.0491  0.6221 -1.3527
  522MOL0     C71933   5.231   6.405   3.867  0.4279  0.4772 -0.1383
  522MOL0     O71934   5.311   6.327   3.789  0.2483 -0.4571  0.6288
  522MOL0     C71935   5.321   6.362   3.649  1.2872  0.5459 -0.3866
  522MOL0     C71936   5.411   6.247   3.590  0.2752 -0.2955  0.5067
  522MOL0     C71937   5.325   6.118   3.564 -0.8444 -0.1868 -0.9799
  522MOL0     C71938   5.257   6.127   3.424  0.7520 -0.5445  0.4793
  522MOL0     C71939   5.147   6.023   3.429 -0.0356 -0.2463  0.9512
  522MOL0     C71940   5.076   5.999   3.294  0.9624  0.5865 -0.2343
  522MOL0     C71941   4.972   5.886   3.296  0.1045 -1.3502 -0.8035
  522MOL0     C71942   4.936   5.838   3.162 -0.8351 -0.8950 -0.3157
  522MOL0    Cl71943   4.788   5.746   3.161  0.2950 -0.4717  0.0287
  522MOL0     C71944   5.185   6.537   3.844 -0.7208 -0.6383  0.6872
  522MOL0     C71945   5.106   6.608   3.932 -0.7503  0.5299 -0.1695
  522MOL0     O71946   4.815   6.460   4.108  0.6283 -0.3140 -0.0018
  522MOL0     C71947   4.801   6.798   4.183 -0.7501 -0.5187 -0.1155
  522MOL0     C71948   4.731   6.905   4.234 -0.2366  0.6583 -0.2813
  522MOL0     N71949   4.009   7.191   4.169 -1.2674 -0.4075  0.3588
  522MOL0     N71950   3.887   7.156   4.207 -0.2691 -0.3855  0.7666
  522MOL0     C71951   2.809   6.807   3.971 -0.3159  1.3245  0.1389
  522MOL0     C71952   2.681   6.859   3.973  0.7783  0.4631  0.5123
  522MOL0     C71953   2.249   6.981   4.048  0.1542  0.2489 -0.6025
  522MOL0     C71954   2.201   6.898   4.157 -0.9762  0.2630  0.4497
  522MOL0     C71955   2.081   6.929   4.219  0.0934 -0.6679  0.1629
  522MOL0     C71956   1.987   7.024   4.164 -0.1747  0.6771 -0.8914
  522MOL0     O71957   1.872   7.057   4.235 -0.0131 -0.4872 -0.0872
  522MOL0     C71958   1.781   7.138   4.169  0.0334 -0.8416  0.7360
  522MOL0     C71959   1.666   7.159   4.269 -0.5751  0.4023  0.5149
  522MOL0     C71960   1.602   7.036   4.328 -0.3604 -0.0188  0.0562
  522MOL0     C71961   1.446   7.041   4.320 -0.0676 -0.0773 -0.2639
  522MOL0     C71962   1.398   6.908   4.358 -0.6955  1.1168  0.4157
  522MOL0     C71963   1.377   6.789   4.394  0.6345 -0.3513 -0.0921
  522MOL0     C71964   2.031   7.086   4.045  0.2593 -0.3830  0.0529
  522MOL0     C71965   2.161   7.078   3.996  0.9243 -0.0854  0.6314
  522MOL0     C71966   2.182   7.152   3.866 -0.5694  0.1287  0.8563
  522MOL0     H71967   2.495   6.601   4.104  1.2794 -3.7061 -2.3487
  522MOL0     H71968   2.715   6.486   4.081  2.8921  0.4479  1.9198
  522MOL0     H71969   3.029   6.789   4.091  1.6449  2.4545 -1.9450
  522MOL0     H71970   3.044   6.740   3.926 -2.9574  0.3336  0.0971
  522MOL0     H71971   3.160   6.591   4.175 -0.4383 -2.0528 -1.5055
  522MOL0     H71972   3.173   6.532   4.016  0.6916 -0.6406 -1.9296
  522MOL0     H71973   3.325   6.709   3.944  1.5743  2.0817  0.9166
  522MOL0     H71974   3.314   6.795   4.100 -2.8635 -0.8293  1.7177
  522MOL0     H71975   3.417   6.600   4.207 -4.2788 -2.6869 -0.8048
  522MOL0     H71976   3.454   6.536   4.048 -0.1713  0.2418  1.2202
  522MOL0     H71977   3.526   6.823   4.046  1.6012  0.3310 -0.6603
  522MOL0     H71978   3.618   6.688   3.992  0.7756 -0.9123 -0.1383
  522MOL0     H71979   3.587   6.755   4.293  0.3957  3.2553 -0.8904
  522MOL0     H71980   3.677   6.620   4.220  0.3178 -0.9291 -1.5595
  522MOL0     H71981   3.828   6.758   4.123 -0.3248 -0.6997  1.2642
  522MOL0     H71982   3.828   6.803   4.285 -2.4739 -4.5234  2.0362
  522MOL0     H71983   3.697   6.962   4.060 -0.1332  0.3414 -0.3996
  522MOL0     H71984   3.663   7.011   4.223  1.3355  1.3677  1.2328
  522MOL0     H71985   3.983   6.886   4.053 -0.9708 -1.0867  2.4851
  522MOL0     H71986   4.226   7.174   3.969  1.5335  0.2633  0.5820
  522MOL0     H71987   4.227   6.996   3.988 -2.4202 -1.5830  0.1170
  522MOL0     H71988   4.404   7.108   4.139 -0.4567  2.1166 -2.5259
  522MOL0     H71989   4.269   7.183   4.231 -1.1301 -1.5989  1.5709
  522MOL0     H71990   4.191   6.967   4.305 -0.6057 -4.1153 -1.5499
  522MOL0     H71991   4.307   6.892   4.200  0.3716 -1.7747  3.2214
  522MOL0     H71992   4.366   7.057   4.438 -0.2949 -1.8932  1.2116
  522MOL0     H71993   4.392   6.893   4.440  1.6037  1.0851  1.2636
  522MOL0     H71994   4.447   6.728   4.299 -0.1902 -4.2249 -0.8716
  522MOL0     H71995   4.528   6.464   4.153 -1.1662 -3.0211  1.0780
  522MOL0     H71996   4.481   6.504   4.325  1.2632  1.1575  1.6790
  522MOL0     H71997   4.632   6.430   4.278 -2.5991 -2.9390 -1.9775
  522MOL0     H71998   5.105   6.366   4.174 -0.8848 -2.2588 -1.2652
  522MOL0     H71999   5.238   6.255   4.015 -0.7924  1.4157  3.4437
  522MOL0     H72000   5.219   6.355   3.610  1.1458 -1.5597  0.2425
  522MOL0     H72001   5.368   6.458   3.626 -0.6084  1.3937 -1.0021
  522MOL0     H72002   5.445   6.288   3.494 -2.1276  1.9332  0.5162
  522MOL0     H72003   5.492   6.221   3.659  0.1626 -1.0657  0.3579
  522MOL0     H72004   5.242   6.099   3.633 -1.8209  0.9804 -1.7960
  522MOL0     H72005   5.394   6.034   3.550  0.4797  0.5129  0.9213
  522MOL0     H72006   5.327   6.125   3.340 -1.0895  0.8793 -1.1930
  522MOL0     H72007   5.213   6.227   3.427  1.3649 -0.2659  0.3252
  522MOL0     H72008   5.181   5.926   3.467 -2.2800 -0.9629  1.3141
  522MOL0     H72009   5.080   6.049   3.512 -1.5476 -0.9871  0.0192
  522MOL0     H72010   5.157   5.974   3.225  0.0981 -4.1819  0.1083
  522MOL0     H72011   5.022   6.086   3.257 -0.3023 -1.4953 -3.8127
  522MOL0     H72012   4.879   5.921   3.342  1.2406 -1.0946  1.3994
  522MOL0     H72013   4.998   5.799   3.358 -2.0936 -1.6804 -0.2296
  522MOL0     H72014   5.023   5.779   3.132  0.1385  0.1616  0.3659
  522MOL0     H72015   4.932   5.926   3.098 -1.2746 -1.0793 -0.5432
  522MOL0     H72016   5.205   6.588   3.750 -0.5237 -0.7783  0.6544
  522MOL0     H72017   5.062   6.705   3.914 -0.7637  0.5474 -0.0490
  522MOL0     H72018   4.893   6.830   4.136 -2.0579  0.7158 -1.9733
  522MOL0     H72019   4.767   7.008   4.233  1.8681 -0.0246 -2.0259
  522MOL0     H72020   2.896   6.858   3.930  1.0611 -2.1560 -1.7424
  522MOL0     H72021   2.662   6.955   3.927 -2.2976 -0.3408 -0.1286
  522MOL0     H72022   2.260   6.810   4.182  2.0680  1.3187 -2.2929
  522MOL0     H72023   2.046   6.874   4.305 -0.0596 -0.8467 -0.0135
  522MOL0     H72024   1.821   7.235   4.141 -0.3085 -0.9900 -0.3151
  522MOL0     H72025   1.744   7.104   4.072 -2.3363  1.9346  0.5450
  522MOL0     H72026   1.602   7.235   4.224 -1.6983 -0.4301  0.6668
  522MOL0     H72027   1.714   7.212   4.351  1.7959 -1.3604  0.3830
  522MOL0     H72028   1.634   6.960   4.256  1.0630  0.9065 -0.3214
  522MOL0     H72029   1.643   7.029   4.429  2.4466  0.7291 -0.9277
  522MOL0     H72030   1.416   7.058   4.216 -2.3418 -2.0182 -0.0163
  522MOL0     H72031   1.403   7.120   4.382 -1.6219 -1.5257  0.5822
  522MOL0     H72032   1.361   6.685   4.411  1.5007 -1.1686 -3.5949
  522MOL0     H72033   1.952   7.142   3.995 -1.7052 -2.9378  0.0675
  522MOL0     H72034   2.099   7.209   3.823 -3.1703 -3.2984  0.9134
  522MOL0     H72035   2.270   7.217   3.873  0.9723 -1.9242  1.6451
  522MOL0     H72036   2.211   7.077   3.792 -0.0781  0.8829  0.2715
  523MOL0     O72037  10.140   7.652   8.987 -0.1360  0.0526 -0.1694
  523MOL0     C72038  10.165   7.747   9.059 -0.3576  0.0992 -0.8291
  523MOL0     O72039  10.150   7.755   9.198 -0.6220 -0.0795  0.0738
  523MOL0     C72040  10.084   7.650   9.253  1.3151  0.1962  0.0672
  523MOL0     C72041  10.146   7.524   9.269  0.0989 -0.2478 -0.1533
  523MOL0     C72042  10.063   7.416   9.300  0.7301  0.0401 -0.1873
  523MOL0     C72043   9.920   7.432   9.313 -0.7824 -0.5370 -0.0415
  523MOL0     O72044   9.837   7.329   9.331 -0.5392 -0.3327 -0.1705
  523MOL0     C72045   9.868   7.206   9.271  0.0118  0.0867  0.1785
  523MOL0     C72046   9.752   7.123   9.312 -0.0160 -0.2101  0.0729
  523MOL0     C72047   9.738   6.989   9.224 -0.7247  0.6645  0.9474
  523MOL0     C72048   9.611   6.898   9.262  0.5182 -0.0641 -0.0126
  523MOL0     C72049   9.475   6.944   9.214 -0.6047  0.5186 -0.8091
  523MOL0     C72050   9.443   6.936   9.066  0.6333  0.1841  0.7297
  523MOL0     C72051   9.382   7.060   9.004  0.4841 -0.2864  0.9128
  523MOL0     C72052   9.239   7.072   9.057  0.0677  0.6727 -0.0337
  523MOL0     N72053   9.143   6.980   8.997  0.4863  0.0901 -0.2898
  523MOL0     C72054   9.102   6.875   9.068  0.4635  0.2052  0.1707
  523MOL0     C72055   9.012   6.810   8.986  0.2960 -0.6399 -0.0559
  523MOL0     C72056   8.934   6.685   9.002  0.3837  0.0700 -0.7604
  523MOL0     C72057   8.786   6.710   8.966  0.4243  0.0694  0.3860
  523MOL0     C72058   8.705   6.577   8.992 -0.1060  0.4695  0.2113
  523MOL0     C72059   8.692   6.556   9.148  0.3487 -0.3076  0.7984
  523MOL0     O72060   8.643   6.427   9.163 -0.4244 -0.1289 -0.8362
  523MOL0     C72061   8.508   6.437   9.185  0.1616  0.2527  0.6544
  523MOL0     C72062   8.455   6.471   9.306 -0.3642 -0.2260 -0.3923
  523MOL0     C72063   8.311   6.492   9.327 -0.3107  0.2071 -1.2892
  523MOL0     C72064   8.275   6.545   9.469  0.6970  1.3207 -1.1427
  523MOL0     C72065   8.224   6.450   9.230 -0.3275 -0.2492  0.9583
  523MOL0     C72066   8.070   6.472   9.231 -1.0635 -0.7653  0.3570
  523MOL0     O72067   8.016   6.529   9.336  0.2224 -0.0699  0.4879
  523MOL0     C72068   7.889   6.569   9.341  0.2700  0.6744 -0.1280
  523MOL0     C72069   7.860   6.702   9.383 -0.4927  0.0927 -0.5808
  523MOL0     C72070   7.730   6.746   9.421  0.1967 -0.2935 -0.0966
  523MOL0     C72071   7.617   6.654   9.405  0.3140 -0.4387  0.9657
  523MOL0     O72072   7.490   6.682   9.438 -0.6192 -0.2700  0.9194
  523MOL0     C72073   7.452   6.805   9.399  0.5277 -0.1514 -0.4849
  523MOL0     C72074   7.307   6.808   9.430  0.8314 -0.5416 -0.4717
  523MOL0     C72075   7.205   6.854   9.322 -0.5842 -0.5343  0.7412
  523MOL0     C72076   7.229   6.990   9.255 -0.1401 -0.6530 -0.1034
  523MOL0     C72077   7.311   6.962   9.120  0.6303 -0.1351 -0.6662
  523MOL0     C72078   7.390   7.080   9.075  0.0472  0.1783  1.0693
  523MOL0     C72079   7.461   7.057   8.939 -0.5942 -0.3079  1.0687
  523MOL0     C72080   7.518   7.190   8.884  0.7127 -0.3307 -0.0430
  523MOL0    Cl72081   7.676   7.221   8.967 -0.0321 -0.1483  0.0085
  523MOL0     C72082   7.650   6.523   9.360  0.4702  0.2768  0.1849
  523MOL0     C72083   7.783   6.474   9.345  0.4484  1.4885 -0.2470
  523MOL0     O72084   8.010   6.433   9.134  0.3175  0.1962 -0.5508
  523MOL0     C72085   8.283   6.401   9.114  0.5368  0.7558  0.2012
  523MOL0     C72086   8.416   6.393   9.088  0.6008  0.6683 -0.3803
  523MOL0     N72087   9.010   6.891   8.872  0.7595 -0.3218 -0.0203
  523MOL0     N72088   9.088   6.994   8.880 -0.3396 -0.0497  0.4417
  523MOL0     C72089   9.865   7.559   9.297  0.6883 -0.4373 -0.5340
  523MOL0     C72090   9.950   7.670   9.269  0.8986 -0.2163 -0.7663
  523MOL0     C72091  10.223   7.867   8.988 -0.5594 -0.1677  0.4603
  523MOL0     C72092  10.278   7.973   9.069  0.4717  0.0314  0.2084
  523MOL0     C72093  10.316   8.091   9.016 -0.5719  0.0332 -0.8715
  523MOL0     C72094  10.323   8.114   8.878  1.1487  0.3725  0.1157
  523MOL0     O72095  10.354   8.240   8.841 -0.2006 -0.4386  0.6076
  523MOL0     C72096  10.400   8.259   8.711 -0.4957  0.2720  0.6168
  523MOL0     C72097  10.441   8.405   8.678 -0.3095  0.2032 -0.6515
  523MOL0     C72098  10.559   8.455   8.762  0.6796  0.0895 -0.6148
  523MOL0     C72099  10.632   8.578   8.710  0.4630  0.3147 -1.0320
  523MOL0     C72100  10.745   8.588   8.810  0.5064 -0.1982 -0.0910
  523MOL0     C72101  10.849   8.594   8.875 -0.7372  0.0617 -0.5075
  523MOL0     C72102  10.296   8.003   8.796  0.1336 -0.0465 -0.3391
  523MOL0     C72103  10.233   7.888   8.844  0.1546  0.4890 -0.9415
  523MOL0     C72104  10.178   7.797   8.736 -0.1581  0.9091 -0.0712
  523MOL0     H72105  10.254   7.521   9.271  0.1129 -0.3234  2.5136
  523MOL0     H72106  10.110   7.318   9.298  3.6907  1.3381 -1.9526
  523MOL0     H72107   9.961   7.159   9.306  0.9095  0.9982 -0.8916
  523MOL0     H72108   9.887   7.207   9.163  2.3622 -1.4725  0.4756
  523MOL0     H72109   9.774   7.087   9.413  2.0150  1.7488  0.3964
  523MOL0     H72110   9.659   7.180   9.318 -0.0031 -0.3498  1.9267
  523MOL0     H72111   9.746   7.008   9.117  1.6541 -1.0669  0.7195
  523MOL0     H72112   9.828   6.932   9.250 -0.7906  0.9304  1.7837
  523MOL0     H72113   9.619   6.795   9.227 -1.0041 -0.5800  1.0497
  523MOL0     H72114   9.604   6.896   9.372 -4.3116 -0.7266 -0.1007
  523MOL0     H72115   9.470   7.048   9.250 -0.6431  0.9023 -1.9017
  523MOL0     H72116   9.410   6.881   9.276 -0.5654  0.5504 -0.7353
  523MOL0     H72117   9.540   6.930   9.015  0.2053  0.1926 -0.1000
  523MOL0     H72118   9.386   6.845   9.042  1.5719  0.0062 -1.0362
  523MOL0     H72119   9.377   7.066   8.895 -2.8978 -0.9840  0.9147
  523MOL0     H72120   9.441   7.147   9.035 -0.2946  1.9994 -3.2954
  523MOL0     H72121   9.242   7.065   9.166  1.6113 -1.6121 -0.1531
  523MOL0     H72122   9.215   7.177   9.038  2.6903  1.5145  0.8811
  523MOL0     H72123   9.138   6.851   9.167  1.0369 -1.3182 -0.3838
  523MOL0     H72124   8.926   6.643   9.103  0.6716 -2.5562 -1.7312
  523MOL0     H72125   8.980   6.603   8.945  2.1247  1.2220 -1.0906
  523MOL0     H72126   8.749   6.793   9.026 -0.0211  2.8601 -3.4300
  523MOL0     H72127   8.777   6.746   8.864  1.1151  2.9803  1.2629
  523MOL0     H72128   8.603   6.584   8.952  0.0156 -1.6446 -0.5634
  523MOL0     H72129   8.744   6.483   8.953  0.1776 -0.2403  2.0986
  523MOL0     H72130   8.783   6.560   9.208  0.6223 -1.1185  0.4502
  523MOL0     H72131   8.624   6.635   9.183 -1.2359 -1.7011  0.9875
  523MOL0     H72132   8.523   6.504   9.384 -3.4087  2.0491  1.5793
  523MOL0     H72133   8.202   6.470   9.502 -1.0579  2.2459 -2.6656
  523MOL0     H72134   8.232   6.645   9.457 -2.4575  0.2367  0.1221
  523MOL0     H72135   8.362   6.557   9.534 -2.2985  0.7129  3.4657
  523MOL0     H72136   7.945   6.768   9.399 -0.3527 -0.1357 -0.3661
  523MOL0     H72137   7.712   6.839   9.474  0.1437 -1.1842  1.5140
  523MOL0     H72138   7.498   6.886   9.456 -1.4707  1.6378 -1.2688
  523MOL0     H72139   7.479   6.832   9.296 -0.3049  1.4397 -0.3224
  523MOL0     H72140   7.273   6.706   9.448 -0.0473 -0.5511 -2.0681
  523MOL0     H72141   7.288   6.865   9.522  0.1976  1.3518 -1.7212
  523MOL0     H72142   7.110   6.874   9.374 -1.7063 -2.2960 -0.5125
  523MOL0     H72143   7.190   6.775   9.248  4.8700 -0.7686 -0.5279
  523MOL0     H72144   7.277   7.072   9.309 -0.6283  1.8191 -3.1030
  523MOL0     H72145   7.129   7.031   9.237  0.0321 -1.2710 -2.8949
  523MOL0     H72146   7.379   6.878   9.137  2.5730  1.5791  0.6318
  523MOL0     H72147   7.241   6.943   9.038  0.6699 -0.0375 -0.7222
  523MOL0     H72148   7.442   7.129   9.157 -1.7596  0.2908  2.2141
  523MOL0     H72149   7.314   7.158   9.060 -2.5654 -1.6242  3.7793
  523MOL0     H72150   7.397   7.027   8.856  2.8887 -1.5425 -1.3997
  523MOL0     H72151   7.540   6.980   8.943  0.1407  0.1408 -2.1501
  523MOL0     H72152   7.448   7.272   8.902 -0.7415 -1.5211 -0.1181
  523MOL0     H72153   7.524   7.166   8.778 -1.9766 -0.4832 -0.2342
  523MOL0     H72154   7.573   6.447   9.347  1.5505 -1.2950  2.3687
  523MOL0     H72155   7.813   6.374   9.315 -0.1096  0.5268  2.2236
  523MOL0     H72156   8.220   6.379   9.029 -1.0871  1.0728  1.2799
  523MOL0     H72157   8.456   6.349   8.997  0.0259  0.7536 -0.6783
  523MOL0     H72158   9.758   7.561   9.315  0.7371 -1.0829 -0.1249
  523MOL0     H72159   9.907   7.769   9.257  0.8540  0.0951  1.4925
  523MOL0     H72160  10.289   7.980   9.176 -1.0308  1.4198  0.3224
  523MOL0     H72161  10.347   8.175   9.078 -0.9728  0.9463 -1.8705
  523MOL0     H72162  10.494   8.207   8.691 -0.7245 -0.0687  0.4175
  523MOL0     H72163  10.327   8.230   8.635  1.3027  1.5982 -1.7860
  523MOL0     H72164  10.357   8.468   8.709  1.4906  1.7528  1.4138
  523MOL0     H72165  10.465   8.415   8.572 -2.6313 -2.0410 -1.4953
  523MOL0     H72166  10.526   8.482   8.862  1.1930  0.5764 -0.5746
  523MOL0     H72167  10.628   8.370   8.758 -0.8075 -1.1716 -0.2244
  523MOL0     H72168  10.562   8.661   8.704 -3.1995 -2.0147  3.3522
  523MOL0     H72169  10.669   8.559   8.609  1.6974 -0.5945 -0.4399
  523MOL0     H72170  10.943   8.586   8.925 -0.4598  2.5433 -0.5437
  523MOL0     H72171  10.324   8.027   8.693 -1.1549 -0.0379 -0.7047
  523MOL0     H72172  10.234   7.703   8.746 -4.0636 -1.4519  1.7334
  523MOL0     H72173  10.073   7.772   8.752 -0.5129  1.4027 -1.4878
  523MOL0     H72174  10.185   7.840   8.635  0.9501  1.6852  0.3129
  524MOL0     O72175   3.301  10.503  11.382  0.1234 -0.1306  0.1802
  524MOL0     C72176   3.210  10.585  11.411  0.0332  0.5828 -0.2659
  524MOL0     O72177   3.219  10.696  11.484  1.3598 -0.3041  0.0424
  524MOL0     C72178   3.348  10.741  11.501 -0.4290  0.0901 -1.2142
  524MOL0     C72179   3.407  10.816  11.392 -0.4360  0.1995  0.0174
  524MOL0     C72180   3.531  10.865  11.416  0.0472 -0.7427 -0.0033
  524MOL0     C72181   3.605  10.854  11.540  0.1443 -0.2027 -0.2544
  524MOL0     O72182   3.722  10.919  11.547  0.1975  0.3992  0.2408
  524MOL0     C72183   3.831  10.833  11.589  0.0332  0.2134 -0.3794
  524MOL0     C72184   3.876  10.891  11.719  0.6361  0.3765  0.0434
  524MOL0     C72185   4.019  10.853  11.746  0.8405 -0.1484  0.0412
  524MOL0     C72186   4.086  10.941  11.855 -0.5444 -0.5636  0.7981
  524MOL0     C72187   4.238  10.905  11.852 -0.0116 -0.5921 -0.4155
  524MOL0     C72188   4.314  11.020  11.922  0.1840  0.3670 -0.0053
  524MOL0     C72189   4.272  11.068  12.068  0.1436 -0.5641 -0.2921
  524MOL0     C72190   4.289  10.954  12.170  0.2016 -0.1841 -0.4213
  524MOL0     N72191   4.256  11.021  12.298 -0.9533 -0.2061 -0.1476
  524MOL0     C72192   4.347  11.025  12.405 -0.1250 -0.3959 -0.2892
  524MOL0     C72193   4.257  11.049  12.504  0.2599 -0.0767 -0.8172
  524MOL0     C72194   4.299  11.077  12.642  0.0390  0.5815  0.2877
  524MOL0     C72195   4.249  10.970  12.744 -1.0795 -0.0858  0.2766
  524MOL0     C72196   4.291  11.015  12.878  0.3845  0.3287 -0.6159
  524MOL0     C72197   4.207  10.940  12.979  0.2574 -1.0635  0.6666
  524MOL0     O72198   4.071  10.999  12.992 -0.9873 -0.0227 -0.3033
  524MOL0     C72199   4.039  11.091  13.089  0.3146  0.0847  0.6711
  524MOL0     C72200   3.910  11.125  13.112 -0.0797 -0.2939 -0.1331
  524MOL0     C72201   3.859  11.195  13.224 -0.0726  0.9334 -0.3790
  524MOL0     C72202   3.711  11.217  13.243  1.0697 -0.1933 -0.7478
  524MOL0     C72203   3.953  11.238  13.322  0.0801  0.4104 -0.3277
  524MOL0     C72204   3.908  11.313  13.449  0.0840 -0.6970  0.4459
  524MOL0     O72205   3.875  11.240  13.558 -0.5029  0.6715 -0.1145
  524MOL0     C72206   3.828  11.297  13.672  0.4007 -0.9311 -0.0840
  524MOL0     C72207   3.906  11.395  13.738  0.1609  0.0948  0.6659
  524MOL0     C72208   3.844  11.453  13.847 -0.5687 -0.8856 -0.5861
  524MOL0     C72209   3.719  11.431  13.897 -0.3786  0.6726 -0.0735
  524MOL0     O72210   3.676  11.511  13.999  0.0744  0.0715 -0.2028
  524MOL0     C72211   3.543  11.494  14.055 -0.3182 -0.4000 -0.0311
  524MOL0     C72212   3.444  11.589  13.982 -0.4736 -0.2329  0.3029
  524MOL0     C72213   3.487  11.733  13.996  0.0147  0.3180  0.6197
  524MOL0     C72214   3.424  11.829  13.896  0.0172  1.6315  0.4211
  524MOL0     C72215   3.453  11.967  13.945  0.0985  0.3713  0.3117
  524MOL0     C72216   3.401  12.068  13.848  1.6329  0.3353 -0.0065
  524MOL0     C72217   3.468  12.199  13.869  0.3730 -0.8727 -0.0049
  524MOL0     C72218   3.604  12.218  13.804  0.2685 -0.8067  0.4640
  524MOL0    Cl72219   3.578  12.193  13.626  0.3863  0.1747 -0.0856
  524MOL0     C72220   3.637  11.336  13.821 -0.5834 -0.1564 -0.1655
  524MOL0     C72221   3.703  11.271  13.716  0.4535  0.3360  0.0035
  524MOL0     O72222   3.917  11.436  13.437  0.7167 -0.3641 -0.3042
  524MOL0     C72223   4.091  11.229  13.293  0.2361  0.4384 -0.5733
  524MOL0     C72224   4.131  11.147  13.185 -0.1643  0.2229  0.1606
  524MOL0     N72225   4.131  11.070  12.456 -0.0561 -0.2517 -0.7923
  524MOL0     N72226   4.130  11.048  12.336 -0.2494 -0.4884  0.0313
  524MOL0     C72227   3.551  10.775  11.644  0.5251 -0.7759 -0.1980
  524MOL0     C72228   3.429  10.717  11.624  0.0771  0.4212  0.6113
  524MOL0     C72229   3.080  10.559  11.340 -0.4605 -0.2513 -0.3010
  524MOL0     C72230   3.004  10.673  11.300  0.6751  0.0248  1.2761
  524MOL0     C72231   2.884  10.669  11.228 -0.5175  0.8126  0.4498
  524MOL0     C72232   2.838  10.541  11.190 -0.9752 -0.5260  0.6914
  524MOL0     O72233   2.720  10.530  11.123  0.0124  1.3507  0.5094
  524MOL0     C72234   2.620  10.452  11.186  0.5616 -0.1147 -0.3933
  524MOL0     C72235   2.497  10.543  11.200  0.4045 -0.3496 -0.4065
  524MOL0     C72236   2.524  10.675  11.272  0.5543 -0.6979 -0.3574
  524MOL0     C72237   2.574  10.663  11.420  0.4997  0.0644 -0.4085
  524MOL0     C72238   2.454  10.635  11.506 -0.3332 -0.4286 -0.0626
  524MOL0     C72239   2.358  10.617  11.575 -0.1626  0.4579 -0.5677
  524MOL0     C72240   2.898  10.427  11.240  0.3539 -0.1729 -1.3846
  524MOL0     C72241   3.012  10.434  11.324  0.0542  0.3743  0.8031
  524MOL0     C72242   3.070  10.291  11.369 -0.2998 -0.0529  0.1298
  524MOL0     H72243   3.355  10.840  11.300 -1.0798  1.4968  0.6963
  524MOL0     H72244   3.582  10.925  11.340  0.6500 -2.3926 -0.9556
  524MOL0     H72245   3.918  10.844  11.523  0.4219  0.3097  0.1457
  524MOL0     H72246   3.803  10.727  11.592 -0.9049  0.4868  1.3723
  524MOL0     H72247   3.858  10.998  11.731  0.1150  0.0831  2.5554
  524MOL0     H72248   3.821  10.835  11.795  2.8470 -3.5804 -1.0011
  524MOL0     H72249   4.013  10.747  11.774  1.7870  0.0572  1.0911
  524MOL0     H72250   4.085  10.870  11.660  1.0025 -1.3777 -0.0968
  524MOL0     H72251   4.072  11.047  11.835 -0.7722 -0.5412  1.0822
  524MOL0     H72252   4.049  10.916  11.955  0.7387  0.2542  1.4993
  524MOL0     H72253   4.255  10.891  11.744 -2.3829  1.7288 -1.1882
  524MOL0     H72254   4.265  10.816  11.910  0.2936 -0.5763 -0.5332
  524MOL0     H72255   4.415  10.979  11.931  0.1629 -0.2861 -2.2439
  524MOL0     H72256   4.314  11.103  11.851 -0.2836  1.1397  0.8687
  524MOL0     H72257   4.166  11.095  12.070 -0.3120 -2.2688 -0.1410
  524MOL0     H72258   4.332  11.157  12.088  0.7996 -1.1091  0.2367
  524MOL0     H72259   4.207  10.885  12.149  1.1429 -0.9594 -1.7366
  524MOL0     H72260   4.383  10.899  12.181 -1.3988 -2.7172  1.6955
  524MOL0     H72261   4.452  11.001  12.408  0.3903  1.7918  2.0050
  524MOL0     H72262   4.251  11.173  12.662  0.1966  0.7234 -0.0174
  524MOL0     H72263   4.409  11.084  12.647  0.3687 -1.7530 -1.7003
  524MOL0     H72264   4.140  10.964  12.730 -1.2465 -1.3255  1.8424
  524MOL0     H72265   4.293  10.871  12.726 -0.7425 -0.1793  1.5602
  524MOL0     H72266   4.398  10.999  12.897  1.2828  1.6646 -3.9327
  524MOL0     H72267   4.274  11.121  12.894  2.1511  0.4273  0.9699
  524MOL0     H72268   4.215  10.832  12.965 -0.0532 -0.9301 -0.6966
  524MOL0     H72269   4.252  10.963  13.076  0.0047  0.9491  0.3602
  524MOL0     H72270   3.845  11.073  13.043  0.0498  1.0645 -1.3264
  524MOL0     H72271   3.658  11.133  13.288  0.5043  0.3442 -0.4030
  524MOL0     H72272   3.661  11.226  13.146  0.0154  0.1927 -0.1860
  524MOL0     H72273   3.689  11.311  13.293 -0.1719  0.3330 -2.1916
  524MOL0     H72274   4.002  11.430  13.703 -0.8716  1.4340 -0.9440
  524MOL0     H72275   3.902  11.516  13.914 -0.6935 -0.7191 -0.6340
  524MOL0     H72276   3.502  11.392  14.056 -2.1618  0.2748  1.8084
  524MOL0     H72277   3.535  11.532  14.157  0.8427  1.1732 -0.4923
  524MOL0     H72278   3.426  11.555  13.880 -1.5828  0.0749  0.3809
  524MOL0     H72279   3.343  11.586  14.025 -0.6050  1.9147  0.2405
  524MOL0     H72280   3.593  11.753  13.974  0.7397 -1.4503  2.2024
  524MOL0     H72281   3.459  11.757  14.099 -1.3196 -0.5618  0.4827
  524MOL0     H72282   3.315  11.813  13.898  0.3080 -1.3158 -1.6131
  524MOL0     H72283   3.457  11.809  13.794  2.2083  0.7298  1.2656
  524MOL0     H72284   3.419  11.985  14.047  0.3565  0.2929  0.4120
  524MOL0     H72285   3.561  11.983  13.950  0.8897 -2.1680 -3.5573
  524MOL0     H72286   3.294  12.088  13.862  1.4932  0.1250 -0.7430
  524MOL0     H72287   3.418  12.041  13.743 -1.2140  1.3401 -0.8313
  524MOL0     H72288   3.485  12.213  13.976  1.7260 -0.4398 -0.2465
  524MOL0     H72289   3.401  12.280  13.839  0.7909 -1.0759 -1.6165
  524MOL0     H72290   3.670  12.141  13.845 -0.7023 -2.9527 -1.7529
  524MOL0     H72291   3.647  12.314  13.835 -0.4181 -1.2245  2.8694
  524MOL0     H72292   3.533  11.319  13.846 -0.9542  3.1445  1.0072
  524MOL0     H72293   3.642  11.201  13.659  1.0746  0.0374 -0.3063
  524MOL0     H72294   4.169  11.272  13.354 -1.0094 -0.5043  1.8297
  524MOL0     H72295   4.238  11.137  13.170 -0.3464  0.9258 -1.8295
  524MOL0     H72296   3.593  10.766  11.744  0.7304 -0.1663 -0.2242
  524MOL0     H72297   3.378  10.670  11.707 -1.7403 -3.2534 -2.3121
  524MOL0     H72298   3.038  10.773  11.324  1.7044 -0.3938  1.5938
  524MOL0     H72299   2.845  10.767  11.203  2.6641  2.4080  1.1837
  524MOL0     H72300   2.594  10.355  11.143 -1.1810  0.7633 -1.3728
  524MOL0     H72301   2.642  10.430  11.291  0.6500 -0.0989 -0.4081
  524MOL0     H72302   2.421  10.491  11.258 -0.2883  0.7328 -0.3150
  524MOL0     H72303   2.457  10.582  11.106  0.8192  2.5604  0.5295
  524MOL0     H72304   2.593  10.740  11.218 -0.6628  1.2143  0.2814
  524MOL0     H72305   2.430  10.730  11.265  1.1568  0.1879 -5.9211
  524MOL0     H72306   2.613  10.761  11.451  0.5789  0.4566 -1.7146
  524MOL0     H72307   2.652  10.589  11.435  0.3346  0.3635  2.4989
  524MOL0     H72308   2.267  10.607  11.631 -0.5787  2.6565 -0.7277
  524MOL0     H72309   2.864  10.325  11.227  0.5472 -0.7431  1.9108
  524MOL0     H72310   3.127  10.306  11.461 -0.8755 -0.7336  0.6114
  524MOL0     H72311   2.992  10.216  11.383  2.4509 -2.6268  3.2295
  524MOL0     H72312   3.145  10.253  11.299  2.1233  0.0871  2.4818
  525MOL0     O72313  11.126   2.516   2.582 -0.1399  0.5262  0.4001
  525MOL0     C72314  11.049   2.538   2.675  0.1385  0.0769  0.1417
  525MOL0     O72315  11.042   2.659   2.745  0.1711  0.6980  0.9199
  525MOL0     C72316  11.077   2.779   2.690 -0.4067  0.2731  0.2963
  525MOL0     C72317  11.097   2.877   2.782  0.3083  0.1247  0.0699
  525MOL0     C72318  11.127   3.006   2.747 -0.4907 -0.5922 -1.0006
  525MOL0     C72319  11.116   3.045   2.610  0.6428 -0.6770 -0.4066
  525MOL0     O72320  11.152   3.174   2.566  0.1490 -0.2769  0.1668
  525MOL0     C72321  11.304   3.178   2.554 -0.1445  1.2508  0.1801
  525MOL0     C72322  11.358   3.106   2.430 -0.4910 -1.3204 -0.2585
  525MOL0     C72323  11.519   3.106   2.437  0.9464  0.3823 -0.4838
  525MOL0     C72324  11.574   3.068   2.303  0.1237 -0.0875  0.2505
  525MOL0     C72325  11.522   2.933   2.251  0.1122 -0.1559  0.5324
  525MOL0     C72326  11.534   2.830   2.361  0.3112 -0.0790 -0.0425
  525MOL0     C72327  11.514   2.685   2.324  0.4810 -0.4117 -0.0736
  525MOL0     C72328  11.546   2.595   2.442 -0.0463 -0.8118  0.0531
  525MOL0     N72329  11.515   2.461   2.398 -0.2522  0.5512  0.0206
  525MOL0     C72330  11.424   2.374   2.456  0.0957 -0.1952  0.6369
  525MOL0     C72331  11.451   2.254   2.403  0.7490  0.0913  0.4690
  525MOL0     C72332  11.376   2.126   2.434  0.2513  0.3694  0.6565
  525MOL0     C72333  11.440   2.050   2.556 -0.0045  0.4828  0.7522
  525MOL0     C72334  11.404   2.119   2.694 -0.1760 -0.2333 -0.4907
  525MOL0     C72335  11.485   2.048   2.801 -0.2652 -0.0408 -0.1156
  525MOL0     O72336  11.443   2.085   2.927  0.5005  0.5859 -0.4561
  525MOL0     C72337  11.475   2.001   3.033 -0.5315  0.4561 -0.1860
  525MOL0     C72338  11.578   1.893   3.034  0.8427  0.7085  0.2442
  525MOL0     C72339  11.589   1.813   3.153 -0.5106  0.3364  0.2395
  525MOL0     C72340  11.672   1.683   3.149  0.4074 -0.1187 -0.3627
  525MOL0     C72341  11.525   1.847   3.272  0.1984 -0.1383 -0.8329
  525MOL0     C72342  11.523   1.770   3.401  1.7273 -0.1225  0.1951
  525MOL0     O72343  11.403   1.780   3.467  0.1887  0.0691  0.4469
  525MOL0     C72344  11.370   1.696   3.573  0.1107 -0.7731 -0.1104
  525MOL0     C72345  11.411   1.719   3.707 -0.0509  0.2171  0.1818
  525MOL0     C72346  11.359   1.646   3.808  0.5478  0.0646 -0.9217
  525MOL0     C72347  11.271   1.541   3.779 -0.3140 -0.7589  0.9807
  525MOL0     O72348  11.226   1.468   3.881 -0.0772 -0.1914 -0.3412
  525MOL0     C72349  11.118   1.515   3.953  0.3127 -0.9836 -0.4998
  525MOL0     C72350  11.027   1.411   3.994  0.6185  0.5538  0.0461
  525MOL0     C72351  10.887   1.464   4.030 -0.0732 -0.0648 -0.2575
  525MOL0     C72352  10.808   1.371   4.122  0.6720 -0.6275  0.5240
  525MOL0     C72353  10.696   1.439   4.203  0.5293  0.1844 -0.9809
  525MOL0     C72354  10.610   1.339   4.293 -0.4098  0.2724 -0.0554
  525MOL0     C72355  10.689   1.261   4.401 -0.9096  0.2741  0.4223
  525MOL0     C72356  10.622   1.256   4.537 -0.0492 -0.4489  0.8937
  525MOL0    Cl72357  10.454   1.191   4.533 -0.1931  0.1249  0.0247
  525MOL0     C72358  11.238   1.506   3.649 -0.4240  0.1171  0.5437
  525MOL0     C72359  11.290   1.585   3.547 -0.8286  0.1957  0.4758
  525MOL0     O72360  11.604   1.690   3.424  0.3272 -0.3667 -0.2299
  525MOL0     C72361  11.451   1.966   3.264 -0.5615 -1.2895 -0.7162
  525MOL0     C72362  11.421   2.039   3.150  0.3175 -0.2656 -1.2498
  525MOL0     N72363  11.567   2.254   2.324  0.3563  0.0176 -0.2233
  525MOL0     N72364  11.599   2.385   2.313  0.3345  0.2243 -0.6400
  525MOL0     C72365  11.093   2.946   2.514 -0.4520  0.3366  1.0184
  525MOL0     C72366  11.076   2.820   2.554  0.3733  0.2020 -0.3587
  525MOL0     C72367  10.954   2.430   2.728 -0.3670 -0.0598 -0.2905
  525MOL0     C72368  10.868   2.464   2.837  0.0683  0.3777  0.1675
  525MOL0     C72369  10.775   2.375   2.886 -0.0259  0.1770 -1.0341
  525MOL0     C72370  10.755   2.254   2.814  0.1396  0.3128 -0.0254
  525MOL0     O72371  10.646   2.178   2.836 -0.4075 -0.6573  0.4489
  525MOL0     C72372  10.523   2.237   2.784 -0.1948 -0.7337  0.0834
  525MOL0     C72373  10.407   2.156   2.836 -0.3150 -0.5153 -0.3298
  525MOL0     C72374  10.408   2.150   2.993  0.3094  0.8550  0.6007
  525MOL0     C72375  10.302   2.248   3.051  0.7043  0.7130  0.1737
  525MOL0     C72376  10.327   2.389   3.016  0.9290 -0.3280 -0.6198
  525MOL0     C72377  10.358   2.504   2.977  0.5429 -0.7587 -0.1849
  525MOL0     C72378  10.840   2.219   2.714 -0.4917  0.4114 -0.1616
  525MOL0     C72379  10.943   2.300   2.672  0.9438  0.2945  0.7057
  525MOL0     C72380  11.019   2.249   2.551  0.5554 -0.2817 -0.4568
  525MOL0     H72381  11.095   2.850   2.887  0.9046  0.8614  0.2834
  525MOL0     H72382  11.139   3.081   2.825  0.6813  2.1439 -3.6033
  525MOL0     H72383  11.350   3.130   2.642  2.1307 -0.7218 -1.9348
  525MOL0     H72384  11.350   3.277   2.551 -2.8088  2.5430 -0.3582
  525MOL0     H72385  11.326   3.002   2.426  0.0210 -1.4452 -1.8079
  525MOL0     H72386  11.342   3.155   2.333  1.8822 -0.2299 -0.1834
  525MOL0     H72387  11.556   3.203   2.472  1.5146 -0.8300  2.5919
  525MOL0     H72388  11.544   3.035   2.516 -1.7937 -0.0940  0.0777
  525MOL0     H72389  11.550   3.135   2.221  3.3191  1.2863  0.2790
  525MOL0     H72390  11.682   3.047   2.310  0.2508  0.2709 -0.5392
  525MOL0     H72391  11.598   2.899   2.180  1.8320 -2.0510  3.0690
  525MOL0     H72392  11.420   2.942   2.212 -0.3716 -1.6656  1.3515
  525MOL0     H72393  11.627   2.833   2.420  1.0204 -1.7512 -1.0097
  525MOL0     H72394  11.459   2.843   2.440  1.3333 -2.7780  1.5344
  525MOL0     H72395  11.575   2.669   2.234 -1.1561  1.4669 -1.6102
  525MOL0     H72396  11.408   2.666   2.307 -0.2001  0.0480  3.2144
  525MOL0     H72397  11.652   2.608   2.466  1.1944 -1.1756 -4.3855
  525MOL0     H72398  11.498   2.621   2.537  3.7963 -0.4009  2.0650
  525MOL0     H72399  11.355   2.394   2.537 -0.4103 -1.1361  0.4593
  525MOL0     H72400  11.396   2.068   2.344 -1.4238  1.5966 -0.5690
  525MOL0     H72401  11.268   2.143   2.431  0.1560 -0.4018 -0.8076
  525MOL0     H72402  11.395   1.950   2.552  0.9630 -0.0297  2.0331
  525MOL0     H72403  11.547   2.030   2.556 -0.4694 -2.4086  1.0708
  525MOL0     H72404  11.436   2.223   2.692  1.2110 -0.5903  1.2620
  525MOL0     H72405  11.298   2.121   2.722 -0.6404 -3.2599 -1.6056
  525MOL0     H72406  11.474   1.941   2.783  0.0578 -0.1290  0.1906
  525MOL0     H72407  11.592   2.057   2.780 -0.1724  0.5402  0.5474
  525MOL0     H72408  11.629   1.879   2.939  1.8581  3.0892  0.3548
  525MOL0     H72409  11.750   1.688   3.225  0.3679  0.7735 -0.3651
  525MOL0     H72410  11.710   1.664   3.049  0.4342  2.4090 -0.8935
  525MOL0     H72411  11.617   1.596   3.188  1.1628 -1.2260 -1.7159
  525MOL0     H72412  11.470   1.807   3.727 -0.3065  0.2956  0.6053
  525MOL0     H72413  11.365   1.681   3.910  2.9716  2.7753 -1.8570
  525MOL0     H72414  11.153   1.575   4.037 -1.1019  1.3146 -1.4621
  525MOL0     H72415  11.056   1.576   3.886  1.5856 -1.0773 -1.8141
  525MOL0     H72416  11.026   1.343   3.908  0.6955  0.0146  0.4683
  525MOL0     H72417  11.071   1.365   4.082  0.1318 -1.6085 -0.7818
  525MOL0     H72418  10.837   1.481   3.934 -0.0265 -1.0675 -0.4699
  525MOL0     H72419  10.901   1.565   4.069  1.2211  0.2957 -1.5599
  525MOL0     H72420  10.881   1.316   4.182 -0.1507 -0.7281  1.4501
  525MOL0     H72421  10.754   1.308   4.051  1.7191 -0.6780 -0.2442
  525MOL0     H72422  10.737   1.519   4.265  0.7557 -0.2238 -0.5965
  525MOL0     H72423  10.626   1.487   4.135 -0.0409 -1.1326 -1.3696
  525MOL0     H72424  10.554   1.275   4.225  1.6582  0.3053 -1.8982
  525MOL0     H72425  10.544   1.412   4.342 -0.3800 -0.1029  0.5472
  525MOL0     H72426  10.788   1.304   4.419 -0.5910 -0.5041  0.6119
  525MOL0     H72427  10.701   1.161   4.358 -1.2290  0.2640  0.3487
  525MOL0     H72428  10.619   1.352   4.589 -1.9019 -0.8644  1.6482
  525MOL0     H72429  10.679   1.197   4.609 -1.6161 -0.3020  2.3244
  525MOL0     H72430  11.178   1.418   3.633  1.6782 -1.0172 -1.6301
  525MOL0     H72431  11.267   1.545   3.448  1.0527 -2.6619  1.0536
  525MOL0     H72432  11.393   2.001   3.349  2.4521  2.6300  0.0285
  525MOL0     H72433  11.359   2.128   3.148 -1.1179 -1.2366 -2.7514
  525MOL0     H72434  11.083   2.967   2.408  0.8945  1.6872  1.1356
  525MOL0     H72435  11.076   2.746   2.475  1.3082  0.6219 -0.7614
  525MOL0     H72436  10.874   2.565   2.876 -1.1700  2.0655 -3.6336
  525MOL0     H72437  10.707   2.405   2.966  0.8498  2.1153 -0.9817
  525MOL0     H72438  10.516   2.341   2.818  2.3544  0.1905 -1.8550
  525MOL0     H72439  10.531   2.236   2.675  2.8693  0.4066  0.1900
  525MOL0     H72440  10.398   2.056   2.793 -1.3729  0.3411 -2.1841
  525MOL0     H72441  10.310   2.198   2.809  0.2793 -0.2628 -2.2673
  525MOL0     H72442  10.380   2.050   3.027  0.7358  0.9796  1.3386
  525MOL0     H72443  10.501   2.183   3.040  0.0833 -2.9560  4.3181
  525MOL0     H72444  10.303   2.230   3.159 -3.1130 -3.3143 -0.1802
  525MOL0     H72445  10.202   2.216   3.020  1.0833 -0.9622  0.5638
  525MOL0     H72446  10.373   2.607   2.952 -1.2247 -0.2005  0.8844
  525MOL0     H72447  10.827   2.123   2.665 -1.3725 -0.4357  1.6190
  525MOL0     H72448  11.126   2.232   2.566  0.5662 -0.6705 -0.9627
  525MOL0     H72449  10.973   2.155   2.521 -0.4164 -0.7319  2.1996
  525MOL0     H72450  11.010   2.313   2.462 -0.0132  0.9295  0.4371
  526MOL0     O72451   4.108   0.920   9.583 -0.5661 -0.2430 -0.2009
  526MOL0     C72452   4.208   0.865   9.637  0.0707 -0.0088  1.1387
  526MOL0     O72453   4.310   0.930   9.689 -0.6218 -0.0712 -0.1907
  526MOL0     C72454   4.324   1.061   9.661 -0.0768  0.3146  0.0181
  526MOL0     C72455   4.246   1.160   9.718  1.2377 -0.2859  0.5456
  526MOL0     C72456   4.251   1.295   9.691 -0.1378  0.3418  0.0396
  526MOL0     C72457   4.335   1.336   9.585 -0.0962 -0.7291 -0.4076
  526MOL0     O72458   4.337   1.465   9.539 -0.3506  0.7511 -0.6559
  526MOL0     C72459   4.220   1.494   9.459 -0.7802 -0.3016 -0.6301
  526MOL0     C72460   4.219   1.640   9.412  0.4285 -0.3260 -0.5161
  526MOL0     C72461   4.103   1.662   9.311  0.3964 -0.1511  0.6928
  526MOL0     C72462   4.076   1.808   9.281  0.0875 -0.5134  0.3195
  526MOL0     C72463   4.031   1.843   9.135  0.5401 -0.2403 -0.2619
  526MOL0     C72464   4.055   1.996   9.119 -0.3709  0.7649 -0.6211
  526MOL0     C72465   4.015   2.054   8.986  0.5392  1.0786  0.1896
  526MOL0     C72466   4.055   2.205   8.969  0.0981  0.6906 -0.4483
  526MOL0     N72467   3.992   2.251   8.847 -1.1319 -0.7417  0.0046
  526MOL0     C72468   3.900   2.350   8.832  0.2873 -0.3541  0.2423
  526MOL0     C72469   3.879   2.373   8.698 -0.7944  0.4119 -0.2870
  526MOL0     C72470   3.820   2.501   8.641  0.8310  0.5786  0.8923
  526MOL0     C72471   3.675   2.504   8.687 -0.2078 -0.0846 -0.6142
  526MOL0     C72472   3.602   2.627   8.623  0.2740 -0.3617  0.2193
  526MOL0     C72473   3.581   2.620   8.472 -0.2394  0.8993 -0.1283
  526MOL0     O72474   3.542   2.739   8.410 -0.0014  0.3335 -0.6622
  526MOL0     C72475   3.406   2.774   8.420 -1.2690  0.3135 -0.0550
  526MOL0     C72476   3.366   2.880   8.505  0.0808  0.7358 -0.4419
  526MOL0     C72477   3.231   2.915   8.512  0.2520  0.1197  0.5640
  526MOL0     C72478   3.187   3.035   8.585  0.0059  0.1643 -0.0030
  526MOL0     C72479   3.138   2.834   8.444  0.1669  0.1082 -0.2326
  526MOL0     C72480   2.993   2.870   8.452 -0.5480 -0.4559 -0.1239
  526MOL0     O72481   2.927   2.834   8.563  0.3823 -0.3897 -0.0659
  526MOL0     C72482   2.786   2.850   8.571 -0.7996 -0.2089  0.1097
  526MOL0     C72483   2.739   2.884   8.692 -0.0399  0.0370  0.0443
  526MOL0     C72484   2.608   2.901   8.720  0.7061 -0.6607  0.0319
  526MOL0     C72485   2.523   2.877   8.614  0.1192  0.1146 -0.3706
  526MOL0     O72486   2.387   2.892   8.619 -0.1633 -0.2213 -0.3794
  526MOL0     C72487   2.307   2.868   8.742 -0.3373 -0.1761  0.8467
  526MOL0     C72488   2.155   2.844   8.714 -0.8478 -0.6122  0.2668
  526MOL0     C72489   2.124   2.705   8.652 -0.3046  0.0829  0.0595
  526MOL0     C72490   1.986   2.657   8.688  0.3924 -0.0353  0.5915
  526MOL0     C72491   1.954   2.504   8.650  0.8235 -0.4630  0.0245
  526MOL0     C72492   1.799   2.482   8.631 -1.1465  0.3302 -0.4082
  526MOL0     C72493   1.729   2.491   8.770  0.2174  0.5052 -0.2236
  526MOL0     C72494   1.579   2.443   8.761  0.3066  0.2152  0.2555
  526MOL0    Cl72495   1.583   2.272   8.710  0.0724 -0.0033 -0.1736
  526MOL0     C72496   2.560   2.839   8.483 -0.3877 -0.3128 -0.3384
  526MOL0     C72497   2.702   2.823   8.467 -0.0775 -0.5122 -0.2276
  526MOL0     O72498   2.948   2.924   8.348 -0.0253 -0.3975 -0.6852
  526MOL0     C72499   3.176   2.723   8.376 -0.5618  0.3124  0.1170
  526MOL0     C72500   3.309   2.689   8.363 -0.1588 -0.0479 -0.1834
  526MOL0     N72501   3.958   2.281   8.629 -0.0006 -0.1411  0.0661
  526MOL0     N72502   4.016   2.204   8.720  0.7868 -0.7726 -0.0311
  526MOL0     C72503   4.419   1.235   9.526 -0.5039 -0.4148 -0.3255
  526MOL0     C72504   4.422   1.106   9.566 -0.5788  0.1552  0.1815
  526MOL0     C72505   4.215   0.717   9.640  0.7616  0.2096  0.1261
  526MOL0     C72506   4.344   0.657   9.662 -0.1032  0.9420 -0.2970
  526MOL0     C72507   4.359   0.512   9.657  0.7196  0.1831  0.3953
  526MOL0     C72508   4.243   0.437   9.656  0.2909  0.5867 -0.2269
  526MOL0     O72509   4.248   0.298   9.642 -0.4108  0.5979 -0.5251
  526MOL0     C72510   4.374   0.224   9.632 -0.3426 -0.5879  0.1191
  526MOL0     C72511   4.359   0.073   9.641  0.0201  0.0320 -0.0076
  526MOL0     C72512   4.315   0.029   9.788 -1.1436 -0.0233 -1.6112
  526MOL0     C72513   4.320  -0.121   9.802 -0.8010 -0.6254  0.3165
  526MOL0     C72514   4.451  -0.195   9.797  0.4187 -0.1004  0.1991
  526MOL0     C72515   4.539  -0.276   9.787 -0.2107 -0.5821  0.0706
  526MOL0     C72516   4.116   0.497   9.653 -0.2766 -0.1334  1.3510
  526MOL0     C72517   4.096   0.633   9.631 -0.9263  0.4926 -0.2276
  526MOL0     C72518   3.964   0.692   9.632 -0.6395  0.1648 -0.2298
  526MOL0     H72519   4.169   1.130   9.789 -1.6827  0.4659 -2.0371
  526MOL0     H72520   4.182   1.368   9.733  0.8211  2.1982 -1.4827
  526MOL0     H72521   4.125   1.472   9.509 -0.7791  0.2324 -0.3880
  526MOL0     H72522   4.211   1.425   9.374 -2.6531  0.7365 -1.3429
  526MOL0     H72523   4.214   1.703   9.501 -1.8310  1.3500 -1.7223
  526MOL0     H72524   4.317   1.660   9.367  0.6457  0.2559  0.2066
  526MOL0     H72525   4.122   1.614   9.215  0.2179  2.3323 -0.6820
  526MOL0     H72526   4.006   1.629   9.351 -0.5821  1.0685 -0.5516
  526MOL0     H72527   4.016   1.849   9.363  2.4760 -0.4242  2.1138
  526MOL0     H72528   4.174   1.852   9.302 -0.9526  0.8008  2.9501
  526MOL0     H72529   3.926   1.818   9.114  0.8545 -3.0664  1.0281
  526MOL0     H72530   4.087   1.781   9.064 -1.2760 -0.5897 -1.4827
  526MOL0     H72531   4.001   2.043   9.202 -2.0363 -2.1713  0.1147
  526MOL0     H72532   4.163   2.009   9.130 -0.6381  3.4361 -0.5856
  526MOL0     H72533   3.906   2.049   8.974  0.7579 -2.3178 -1.4762
  526MOL0     H72534   4.062   1.996   8.906  2.8249 -0.0267  2.2084
  526MOL0     H72535   4.015   2.266   9.051 -0.2244 -1.4178  1.0532
  526MOL0     H72536   4.163   2.219   8.965  0.7846 -3.7190 -3.1133
  526MOL0     H72537   3.863   2.420   8.905  0.4015  1.9734 -1.8036
  526MOL0     H72538   3.834   2.492   8.533  2.1610  1.6877  0.9470
  526MOL0     H72539   3.874   2.588   8.682 -2.1865  2.3267  1.4572
  526MOL0     H72540   3.623   2.418   8.644 -1.4797  0.1637  0.3890
  526MOL0     H72541   3.658   2.502   8.795 -1.2210 -0.0436 -0.7641
  526MOL0     H72542   3.508   2.639   8.677  0.9632 -2.3740  2.0415
  526MOL0     H72543   3.649   2.726   8.628  0.9956 -0.6186 -1.1801
  526MOL0     H72544   3.674   2.583   8.428 -0.5789 -0.4246  0.2414
  526MOL0     H72545   3.507   2.541   8.462 -0.4906  0.9727  0.9648
  526MOL0     H72546   3.435   2.944   8.559 -2.3407  1.6105  1.8459
  526MOL0     H72547   3.261   3.086   8.648 -0.8907 -1.7959  2.8475
  526MOL0     H72548   3.103   3.017   8.653  0.6501  2.2702  1.4809
  526MOL0     H72549   3.146   3.103   8.510 -3.0087 -1.4903 -0.0006
  526MOL0     H72550   2.816   2.896   8.767 -0.0358 -0.7424  0.1749
  526MOL0     H72551   2.578   2.944   8.815  1.9041  0.5301 -0.0854
  526MOL0     H72552   2.342   2.775   8.789 -0.1154 -1.3609 -1.5044
  526MOL0     H72553   2.324   2.955   8.806 -1.4943  1.8838 -1.4777
  526MOL0     H72554   2.095   2.859   8.804 -0.7848 -0.1454  0.2379
  526MOL0     H72555   2.115   2.917   8.643 -2.9940  2.1658  3.9753
  526MOL0     H72556   2.192   2.632   8.696 -0.4703  1.3390  2.5755
  526MOL0     H72557   2.137   2.706   8.544 -0.2116 -1.0552  0.0496
  526MOL0     H72558   1.913   2.720   8.636 -1.5716  0.3044  3.4689
  526MOL0     H72559   1.967   2.656   8.796  0.7404 -0.8149  0.6526
  526MOL0     H72560   2.006   2.503   8.553 -0.1620  1.6804 -0.5985
  526MOL0     H72561   1.995   2.436   8.725 -0.6719 -0.4104  0.9342
  526MOL0     H72562   1.788   2.382   8.589  0.6460  0.0390 -0.2566
  526MOL0     H72563   1.770   2.561   8.560  2.4182  0.6511 -1.7110
  526MOL0     H72564   1.738   2.588   8.820  1.6740  0.4227 -0.2901
  526MOL0     H72565   1.782   2.420   8.834 -1.8102 -1.3752 -0.5087
  526MOL0     H72566   1.527   2.497   8.682 -1.3394  0.0764  1.1982
  526MOL0     H72567   1.532   2.462   8.858  1.7319 -0.9683  1.2227
  526MOL0     H72568   2.481   2.835   8.407 -1.4181  0.8128  0.6276
  526MOL0     H72569   2.742   2.791   8.371 -3.9744 -1.8126 -1.6321
  526MOL0     H72570   3.095   2.657   8.347 -1.5741  2.8484 -3.4239
  526MOL0     H72571   3.347   2.598   8.318 -0.2834 -0.0965 -0.1896
  526MOL0     H72572   4.482   1.265   9.443 -0.5603  0.4065 -0.0790
  526MOL0     H72573   4.488   1.034   9.519 -1.9589  0.5218 -2.5544
  526MOL0     H72574   4.424   0.730   9.666 -1.1245  2.0904 -0.5350
  526MOL0     H72575   4.460   0.471   9.649  0.2722 -0.7727 -0.6901
  526MOL0     H72576   4.433   0.244   9.542  0.5904 -0.9154  0.6434
  526MOL0     H72577   4.434   0.250   9.720  1.1800 -1.2692 -0.6826
  526MOL0     H72578   4.458   0.030   9.623  0.1546 -1.2486  3.2237
  526MOL0     H72579   4.285   0.043   9.565  1.1176  1.7059 -1.8236
  526MOL0     H72580   4.395   0.063   9.854  2.2833 -1.3162 -4.7616
  526MOL0     H72581   4.215   0.066   9.815 -1.1502 -2.2845  2.0170
  526MOL0     H72582   4.270  -0.164   9.715 -0.5247  1.2995 -0.8429
  526MOL0     H72583   4.269  -0.149   9.895  0.1714  1.7208  1.6329
  526MOL0     H72584   4.620  -0.343   9.808  0.4005  0.8781  2.9286
  526MOL0     H72585   4.025   0.439   9.642 -0.6763  0.9097 -2.2740
  526MOL0     H72586   3.949   0.755   9.544 -4.3506  0.0570  0.1721
  526MOL0     H72587   3.889   0.613   9.630  1.1989 -1.6565 -2.6016
  526MOL0     H72588   3.959   0.748   9.727  3.2960  1.0683 -0.3892
  527MOL0     O72589   8.402   0.424   9.206 -0.4924  0.2416 -0.1955
  527MOL0     C72590   8.298   0.487   9.238 -0.0036  1.3153  0.0736
  527MOL0     O72591   8.237   0.482   9.374  0.9055  0.4997  0.3819
  527MOL0     C72592   8.322   0.470   9.481 -0.1246  0.5303  0.2205
  527MOL0     C72593   8.294   0.369   9.581 -0.2090  0.8773  0.3191
  527MOL0     C72594   8.384   0.353   9.692 -0.9425  0.7756  0.0996
  527MOL0     C72595   8.502   0.426   9.705  0.7224 -0.3280 -0.1599
  527MOL0     O72596   8.591   0.420   9.810  0.2806  0.1479 -0.4141
  527MOL0     C72597   8.645   0.293   9.843  0.7590 -0.1708 -0.6342
  527MOL0     C72598   8.796   0.282   9.835 -0.2947  0.2808 -0.2513
  527MOL0     C72599   8.864   0.371   9.935  0.2940 -0.3253  0.2111
  527MOL0     C72600   9.009   0.361   9.916  0.7140 -0.2981 -0.7972
  527MOL0     C72601   9.077   0.472  10.000 -0.2623 -0.1529 -0.3633
  527MOL0     C72602   9.234   0.451  10.021 -0.1606 -0.4399  0.0281
  527MOL0     C72603   9.260   0.315  10.085 -0.3080 -0.6486  0.8438
  527MOL0     C72604   9.402   0.285  10.139 -1.1596 -0.2434 -0.3829
  527MOL0     N72605   9.507   0.290  10.029  0.3056 -0.6082  0.5176
  527MOL0     C72606   9.545   0.404   9.955 -1.1121  0.0010 -0.4251
  527MOL0     C72607   9.596   0.347   9.846 -0.7225 -0.8097  0.0565
  527MOL0     C72608   9.630   0.427   9.723 -0.3670  0.5944  0.1603
  527MOL0     C72609   9.521   0.411   9.606 -0.2549  0.5533 -0.1980
  527MOL0     C72610   9.392   0.499   9.615 -0.4141  0.2867 -0.4595
  527MOL0     C72611   9.410   0.630   9.536  0.4606 -0.4246  0.2954
  527MOL0     O72612   9.384   0.600   9.393 -0.5526  0.1187 -0.2721
  527MOL0     C72613   9.335   0.711   9.322  0.4714  0.8765  0.5228
  527MOL0     C72614   9.385   0.841   9.333 -0.2779  0.1649 -0.2707
  527MOL0     C72615   9.318   0.953   9.284 -0.1268 -0.0597  0.3123
  527MOL0     C72616   9.376   1.096   9.301 -0.4605 -0.6719 -0.6633
  527MOL0     C72617   9.208   0.928   9.191  0.4496  0.0393 -0.4181
  527MOL0     C72618   9.137   1.016   9.095 -0.0678  1.6411  0.7289
  527MOL0     O72619   9.049   0.962   9.005 -0.2689  0.4059 -0.2185
  527MOL0     C72620   8.991   1.055   8.917  0.3013  1.0951  0.5101
  527MOL0     C72621   8.906   1.161   8.962  0.4915 -0.8467 -0.1500
  527MOL0     C72622   8.873   1.258   8.866  0.7557  0.9085 -0.6205
  527MOL0     C72623   8.919   1.263   8.735  0.9259  0.7016 -0.2377
  527MOL0     O72624   8.884   1.356   8.651 -0.0248  0.2477 -0.6844
  527MOL0     C72625   8.962   1.380   8.535  0.4599  0.6417 -0.5035
  527MOL0     C72626   8.919   1.519   8.481 -0.1563  0.4198 -0.5257
  527MOL0     C72627   8.986   1.639   8.538 -0.1368 -0.0116 -0.2171
  527MOL0     C72628   8.894   1.763   8.526  0.1036 -0.3008  0.7915
  527MOL0     C72629   8.818   1.786   8.651  0.0708  0.5181  1.1082
  527MOL0     C72630   8.924   1.806   8.766  0.7996  1.4521  0.1133
  527MOL0     C72631   8.888   1.906   8.867 -1.4726 -0.4222  1.1457
  527MOL0     C72632   8.768   1.879   8.949  0.1800  0.3086  0.3872
  527MOL0    Cl72633   8.836   1.768   9.073 -0.1737  0.2494  0.1087
  527MOL0     C72634   8.992   1.151   8.697  0.2901 -0.4746  0.7073
  527MOL0     C72635   9.010   1.047   8.779  0.5222  0.5869 -0.5255
  527MOL0     O72636   9.169   1.132   9.102  0.3267  0.3879  0.1625
  527MOL0     C72637   9.165   0.794   9.175 -0.3405  0.9274 -0.2077
  527MOL0     C72638   9.228   0.682   9.241  0.3172 -0.7027  0.0600
  527MOL0     N72639   9.609   0.211   9.863 -0.2767  0.2842  0.9963
  527MOL0     N72640   9.547   0.174   9.975 -0.5950 -0.0742 -0.1676
  527MOL0     C72641   8.514   0.533   9.613 -0.1887  0.3766 -0.4745
  527MOL0     C72642   8.429   0.557   9.506 -0.0245  0.0593  0.1286
  527MOL0     C72643   8.215   0.546   9.127 -0.1746 -0.7197  0.7351
  527MOL0     C72644   8.077   0.560   9.146  0.5202 -0.1466 -0.0114
  527MOL0     C72645   7.984   0.614   9.060 -0.5972 -0.5858  0.0692
  527MOL0     C72646   8.031   0.665   8.937  0.4179  0.1701 -0.2959
  527MOL0     O72647   7.952   0.729   8.850  0.4959  0.4795  0.1970
  527MOL0     C72648   7.993   0.856   8.795 -0.0047  0.0854 -0.8030
  527MOL0     C72649   7.954   0.973   8.881  0.1626 -0.3737 -0.3529
  527MOL0     C72650   8.018   1.103   8.824 -0.0985 -0.7002 -0.3561
  527MOL0     C72651   7.981   1.219   8.909 -0.0472 -0.1152 -0.3766
  527MOL0     C72652   7.986   1.352   8.839  0.3693  0.8354 -0.4801
  527MOL0     C72653   8.004   1.457   8.784  0.2873  0.1580 -0.7061
  527MOL0     C72654   8.166   0.647   8.907  0.1519 -0.3098  0.7182
  527MOL0     C72655   8.260   0.596   8.998  0.3689  0.1794 -0.0023
  527MOL0     C72656   8.403   0.594   8.950  0.1143 -0.1823  0.2646
  527MOL0     H72657   8.206   0.307   9.568  0.5833 -0.2083 -0.0135
  527MOL0     H72658   8.349   0.284   9.768 -1.9638  1.4635  0.2732
  527MOL0     H72659   8.595   0.223   9.775  1.5209 -0.9242 -0.4413
  527MOL0     H72660   8.612   0.265   9.944  0.2554  1.7692 -0.2293
  527MOL0     H72661   8.819   0.178   9.857  0.7587  0.6706  0.5925
  527MOL0     H72662   8.828   0.300   9.731  1.9252 -1.1331  0.1209
  527MOL0     H72663   8.823   0.473   9.932 -0.5783 -0.6462  0.8258
  527MOL0     H72664   8.852   0.327  10.034 -1.6149  1.3795  0.8073
  527MOL0     H72665   9.043   0.260   9.941 -0.4118 -0.0512  2.2644
  527MOL0     H72666   9.032   0.381   9.811  2.7928 -1.6170 -0.6330
  527MOL0     H72667   9.027   0.490  10.095  3.0849  1.0631  1.3099
  527MOL0     H72668   9.061   0.569   9.952 -1.4631 -0.7568 -1.2469
  527MOL0     H72669   9.286   0.459   9.925 -1.8689  1.5277 -0.8189
  527MOL0     H72670   9.270   0.534  10.082  0.0121  3.5126 -4.8224
  527MOL0     H72671   9.226   0.239  10.014  1.0634  1.2141 -1.9904
  527MOL0     H72672   9.198   0.310  10.175 -1.7282 -0.3652 -0.0734
  527MOL0     H72673   9.436   0.358  10.213 -2.4220 -0.7705  0.7429
  527MOL0     H72674   9.408   0.188  10.187 -0.8984  0.5851  1.3243
  527MOL0     H72675   9.520   0.506   9.983  4.7129  2.2070 -1.8685
  527MOL0     H72676   9.717   0.383   9.674 -1.0640  0.5449 -1.0929
  527MOL0     H72677   9.654   0.532   9.742  1.9216 -0.0039  0.8659
  527MOL0     H72678   9.574   0.440   9.515 -0.4179 -0.9935 -0.8187
  527MOL0     H72679   9.488   0.307   9.610 -1.4200  0.9447  2.6537
  527MOL0     H72680   9.303   0.446   9.581 -0.1910  1.6071 -3.4440
  527MOL0     H72681   9.379   0.533   9.718 -1.3558  1.4160 -0.9306
  527MOL0     H72682   9.351   0.715   9.572  3.7949  1.8368  0.8589
  527MOL0     H72683   9.512   0.667   9.542 -0.2455  1.4875  1.1803
  527MOL0     H72684   9.473   0.847   9.395  0.4973  2.0923 -1.4518
  527MOL0     H72685   9.412   1.103   9.404 -0.0622 -1.0236 -0.7748
  527MOL0     H72686   9.308   1.179   9.282 -0.8257 -0.7422  0.3193
  527MOL0     H72687   9.461   1.098   9.231  0.6248 -0.0666  0.6252
  527MOL0     H72688   8.878   1.163   9.067 -2.6035 -1.6382 -0.8684
  527MOL0     H72689   8.812   1.343   8.893 -1.0337  0.0875 -1.9278
  527MOL0     H72690   9.070   1.381   8.547  0.7994 -1.8085 -2.4384
  527MOL0     H72691   8.936   1.302   8.463  1.3525 -1.2037  1.0770
  527MOL0     H72692   8.935   1.515   8.372 -1.4877 -1.8943 -0.7087
  527MOL0     H72693   8.810   1.516   8.493 -0.1439 -1.3038 -0.5581
  527MOL0     H72694   9.083   1.664   8.493  0.5877  0.4830  1.5284
  527MOL0     H72695   9.003   1.622   8.645 -1.5951  3.8347  0.7761
  527MOL0     H72696   8.821   1.767   8.444 -1.0157 -0.3394  1.7665
  527MOL0     H72697   8.954   1.854   8.515 -3.9263  2.8879  2.8137
  527MOL0     H72698   8.770   1.884   8.643  2.6060  1.8513  0.8801
  527MOL0     H72699   8.761   1.696   8.676 -2.1079  1.2904 -0.7582
  527MOL0     H72700   9.018   1.830   8.716  1.0153  0.6815  0.1492
  527MOL0     H72701   8.934   1.714   8.823  2.5579  0.1018 -2.1861
  527MOL0     H72702   8.866   1.991   8.802  1.6086 -0.3572  0.0112
  527MOL0     H72703   8.977   1.936   8.923  1.1869 -1.0574 -2.3634
  527MOL0     H72704   8.681   1.832   8.902  1.5588 -1.1859 -0.8098
  527MOL0     H72705   8.739   1.974   8.996 -0.6959 -0.3324  1.1839
  527MOL0     H72706   9.030   1.133   8.597 -1.9331 -1.0952 -0.0941
  527MOL0     H72707   9.053   0.960   8.730 -2.1690  0.4956 -3.0701
  527MOL0     H72708   9.076   0.764   9.121  1.0149 -0.6100 -1.7162
  527MOL0     H72709   9.194   0.580   9.226  1.0546 -1.0420  0.6147
  527MOL0     H72710   8.599   0.599   9.628 -0.2872  0.5769 -0.7950
  527MOL0     H72711   8.450   0.639   9.438  1.6545  0.8803  1.5380
  527MOL0     H72712   8.024   0.528   9.235  0.2805  0.6284  0.1336
  527MOL0     H72713   7.882   0.640   9.086  0.1221  3.8237 -0.7664
  527MOL0     H72714   8.099   0.858   8.768  0.3029 -0.2092  0.3491
  527MOL0     H72715   7.944   0.853   8.697  0.4599  0.5975 -1.0621
  527MOL0     H72716   7.984   0.964   8.986 -0.1328  3.0854  0.1630
  527MOL0     H72717   7.846   0.973   8.862  0.3787  3.2553 -2.6155
  527MOL0     H72718   8.124   1.085   8.808 -0.4764 -2.0917 -1.4918
  527MOL0     H72719   7.979   1.123   8.724  0.6072  2.9579 -0.0389
  527MOL0     H72720   8.062   1.224   8.982  0.5171  1.0770 -1.0559
  527MOL0     H72721   7.881   1.209   8.953 -0.4403  1.2766 -0.8926
  527MOL0     H72722   8.010   1.556   8.743  0.2123  0.8704  0.9283
  527MOL0     H72723   8.188   0.695   8.813 -2.3126  1.6957  1.0636
  527MOL0     H72724   8.422   0.671   8.875 -1.0275  0.0899  0.2349
  527MOL0     H72725   8.458   0.616   9.042 -3.2310 -0.5537  2.5268
  527MOL0     H72726   8.424   0.491   8.920  0.5601 -1.0772  3.2421
  528MOL0     O72727   7.744  11.353  10.639 -0.1475  0.3462  0.7262
  528MOL0     C72728   7.728  11.402  10.525 -0.7970 -0.5891 -0.2792
  528MOL0     O72729   7.832  11.446  10.440  0.4092  0.2280 -0.5310
  528MOL0     C72730   7.971  11.429  10.459 -0.4706  0.5433 -0.5796
  528MOL0     C72731   8.045  11.497  10.368  0.1889  0.2300 -0.4759
  528MOL0     C72732   8.187  11.504  10.352  0.0643 -0.1778 -0.7280
  528MOL0     C72733   8.258  11.436  10.454 -0.5467 -0.9436 -0.0990
  528MOL0     O72734   8.393  11.434  10.446  0.2307  0.0415  0.4211
  528MOL0     C72735   8.441  11.319  10.386  0.6635  0.7578  0.9504
  528MOL0     C72736   8.569  11.256  10.454 -0.8736  0.1265 -0.2225
  528MOL0     C72737   8.618  11.121  10.408 -0.4337  0.7522  0.1704
  528MOL0     C72738   8.749  11.076  10.485  0.3950 -0.4015  0.5537
  528MOL0     C72739   8.776  10.932  10.449 -0.1722 -0.2240 -0.9145
  528MOL0     C72740   8.893  10.862  10.525  0.5060  0.3267  0.1273
  528MOL0     C72741   9.014  10.951  10.509 -0.5217 -0.3501  0.4054
  528MOL0     C72742   9.151  10.893  10.556  0.7742 -0.1524 -0.3036
  528MOL0     N72743   9.150  10.859  10.697 -0.0437  0.2988 -0.6587
  528MOL0     C72744   9.194  10.941  10.799 -0.1964  0.0997  0.0116
  528MOL0     C72745   9.188  10.866  10.909 -0.0246 -0.1953  0.9814
  528MOL0     C72746   9.224  10.894  11.050 -0.3226  0.1174 -0.3478
  528MOL0     C72747   9.374  10.914  11.052 -0.8020  0.0588  0.3895
  528MOL0     C72748   9.436  10.925  11.191  0.4493  0.0651 -0.4492
  528MOL0     C72749   9.576  10.964  11.181 -0.0831  0.2427  0.0260
  528MOL0     O72750   9.596  11.095  11.120 -0.7527  0.2337  0.0425
  528MOL0     C72751   9.726  11.129  11.073  0.2289 -0.4508  0.2809
  528MOL0     C72752   9.842  11.066  11.106 -0.7240  0.5664 -0.4935
  528MOL0     C72753   9.973  11.102  11.062  0.8042 -0.4243  0.5685
  528MOL0     C72754  10.096  11.038  11.126 -0.1766 -0.0055  0.3147
  528MOL0     C72755   9.977  11.215  10.974 -0.5434 -0.3825  0.0524
  528MOL0     C72756  10.111  11.286  10.948  0.1601 -0.6234  0.8605
  528MOL0     O72757  10.108  11.350  10.827 -0.4252 -0.4247  0.6176
  528MOL0     C72758  10.231  11.387  10.772  0.5157 -0.4420 -0.3835
  528MOL0     C72759  10.239  11.509  10.698  0.2135 -0.8541 -0.4959
  528MOL0     C72760  10.355  11.558  10.635 -0.4882 -0.3217  0.1651
  528MOL0     C72761  10.480  11.492  10.673  0.0013  1.2485  0.7192
  528MOL0     O72762  10.598  11.527  10.608 -0.2300  0.0607 -0.1016
  528MOL0     C72763  10.681  11.611  10.693  0.1730 -0.3513  0.5196
  528MOL0     C72764  10.784  11.540  10.767 -0.6230  0.3639 -0.8586
  528MOL0     C72765  10.904  11.627  10.814  0.7793 -0.8665 -0.2608
  528MOL0     C72766  10.987  11.556  10.905  0.5842 -0.0498 -0.1522
  528MOL0     C72767  11.092  11.648  10.955  0.3249  0.0922  0.1593
  528MOL0     C72768  11.180  11.567  11.056  0.4817  0.9176 -0.3687
  528MOL0     C72769  11.293  11.487  10.991 -0.2052 -0.1055 -0.4517
  528MOL0     C72770  11.382  11.411  11.103  0.8655 -0.2673 -0.7327
  528MOL0    Cl72771  11.327  11.236  11.121 -0.0195 -0.0067  0.4995
  528MOL0     C72772  10.476  11.380  10.753  1.3832  0.3129  0.6624
  528MOL0     C72773  10.355  11.328  10.801  0.7368 -0.1159 -0.8063
  528MOL0     O72774  10.194  11.300  11.032 -0.1316  0.7493 -0.0787
  528MOL0     C72775   9.859  11.273  10.930 -0.9140  0.4824  0.3783
  528MOL0     C72776   9.742  11.228  10.974 -0.8771 -0.0228  0.8736
  528MOL0     N72777   9.148  10.738  10.871 -0.5590 -0.3398 -0.4425
  528MOL0     N72778   9.125  10.736  10.747  0.1199 -0.0355  0.1648
  528MOL0     C72779   8.186  11.356  10.551  0.6092 -0.4747  0.1537
  528MOL0     C72780   8.043  11.360  10.557  0.2451  0.3655 -0.1229
  528MOL0     C72781   7.595  11.419  10.482 -0.8269  0.9906 -0.7547
  528MOL0     C72782   7.571  11.498  10.368  0.5379  0.2710 -0.1319
  528MOL0     C72783   7.443  11.531  10.322 -0.5327  0.1098 -1.0551
  528MOL0     C72784   7.327  11.491  10.396 -0.8114  0.0452  1.3015
  528MOL0     O72785   7.197  11.521  10.359  0.9604 -0.4157  0.2352
  528MOL0     C72786   7.173  11.572  10.225  0.0594 -0.4192 -0.1657
  528MOL0     C72787   7.150  11.462  10.122 -0.0131  0.9949 -0.1181
  528MOL0     C72788   7.019  11.396  10.128 -0.4234 -0.4970 -1.4202
  528MOL0     C72789   7.003  11.265  10.054  0.1144 -0.2244  0.1381
  528MOL0     C72790   6.862  11.228  10.016 -0.0816  0.5142 -0.5110
  528MOL0     C72791   6.764  11.191   9.954 -0.4720 -0.5560 -0.5071
  528MOL0     C72792   7.346  11.404  10.507  0.5050  0.7404  0.3512
  528MOL0     C72793   7.476  11.363  10.544  0.1229 -0.9508  0.8910
  528MOL0     C72794   7.472  11.281  10.668  0.2976  0.2755  0.4993
  528MOL0     H72795   7.988  11.560  10.300  0.9890 -1.2121 -2.5964
  528MOL0     H72796   8.229  11.560  10.269 -0.4147 -0.1366 -0.9517
  528MOL0     H72797   8.466  11.336  10.281 -1.8406  0.4689  0.2269
  528MOL0     H72798   8.370  11.236  10.389  0.8462  0.5745  0.2827
  528MOL0     H72799   8.653  11.321  10.429  0.4053 -1.1821  0.5028
  528MOL0     H72800   8.555  11.263  10.563 -0.6341  1.2332 -0.2500
  528MOL0     H72801   8.535  11.052  10.421 -2.2675  2.9325  0.6032
  528MOL0     H72802   8.653  11.125  10.304  0.3252  2.2179  0.4700
  528MOL0     H72803   8.833  11.145  10.472 -0.9556  1.2291  0.0971
  528MOL0     H72804   8.725  11.076  10.591  2.8971 -0.2659  1.1838
  528MOL0     H72805   8.793  10.925  10.341 -1.0139  2.0926 -1.2684
  528MOL0     H72806   8.680  10.889  10.478 -0.2083 -0.0968 -0.8473
  528MOL0     H72807   8.866  10.848  10.630 -1.6353 -0.6415 -0.4989
  528MOL0     H72808   8.902  10.761  10.485 -0.7546  0.0767  0.4388
  528MOL0     H72809   8.992  11.038  10.571  1.4331  2.3297 -2.3653
  528MOL0     H72810   9.024  10.978  10.403 -2.0172 -1.2738 -0.0086
  528MOL0     H72811   9.161  10.797  10.504 -1.2320 -0.5596 -0.0377
  528MOL0     H72812   9.228  10.966  10.529 -1.0116  1.9343 -0.0033
  528MOL0     H72813   9.239  11.039  10.786 -0.5631  0.1931 -0.6083
  528MOL0     H72814   9.198  10.807  11.111 -0.4302  1.1616  1.1510
  528MOL0     H72815   9.177  10.978  11.103 -0.1594  0.3903 -0.6338
  528MOL0     H72816   9.418  10.834  10.991  0.2426 -1.6234  3.1382
  528MOL0     H72817   9.384  11.010  11.000  0.9783  1.2014  2.6558
  528MOL0     H72818   9.383  11.006  11.240  2.0188  0.9535 -0.1631
  528MOL0     H72819   9.421  10.826  11.236 -0.5231 -0.1234 -1.1481
  528MOL0     H72820   9.616  10.978  11.281 -0.2537  1.6545 -0.0810
  528MOL0     H72821   9.629  10.885  11.128 -2.4072 -2.0066  0.8603
  528MOL0     H72822   9.846  10.989  11.183 -1.5210  0.7249 -0.2873
  528MOL0     H72823  10.108  11.078  11.227  0.1794  3.1067 -0.8509
  528MOL0     H72824  10.185  11.047  11.063 -0.9959 -0.6307 -0.9816
  528MOL0     H72825  10.062  10.934  11.134 -3.6290  0.9948  0.3650
  528MOL0     H72826  10.145  11.556  10.669  0.7904  0.4508 -0.3406
  528MOL0     H72827  10.369  11.648  10.576  1.0557 -1.0773 -0.6846
  528MOL0     H72828  10.736  11.687  10.635  0.6721 -1.4257 -0.4555
  528MOL0     H72829  10.628  11.665  10.772  1.9706 -0.1483  1.6418
  528MOL0     H72830  10.734  11.506  10.857  1.6104 -2.7386 -0.6168
  528MOL0     H72831  10.825  11.448  10.723  1.2114 -0.4258  2.2095
  528MOL0     H72832  10.857  11.707  10.872  0.6035 -1.2232  0.0945
  528MOL0     H72833  10.947  11.683  10.730 -1.1307  2.3419  0.7335
  528MOL0     H72834  11.024  11.464  10.858 -4.2124 -2.8338  0.9032
  528MOL0     H72835  10.936  11.529  10.998  1.4890  1.7421  0.9200
  528MOL0     H72836  11.165  11.673  10.877  0.7248 -0.6142  0.2996
  528MOL0     H72837  11.043  11.737  10.995 -0.4447 -0.2057 -0.0979
  528MOL0     H72838  11.111  11.505  11.114 -0.0186 -0.8727 -2.7455
  528MOL0     H72839  11.227  11.638  11.125 -0.8054  0.8666  0.6103
  528MOL0     H72840  11.344  11.562  10.929 -0.4815 -0.9850 -1.7758
  528MOL0     H72841  11.259  11.406  10.926  0.2903 -2.4787  2.0766
  528MOL0     H72842  11.391  11.471  11.194  0.9700 -2.1422  0.5422
  528MOL0     H72843  11.485  11.396  11.070  1.7804 -2.9952  2.8442
  528MOL0     H72844  10.566  11.322  10.769 -0.9842 -4.5313 -1.4341
  528MOL0     H72845  10.360  11.240  10.864  2.0324  0.4250 -0.1077
  528MOL0     H72846   9.856  11.357  10.862  2.8123 -0.6474 -1.4323
  528MOL0     H72847   9.659  11.275  10.923 -0.2386  1.0914  0.8175
  528MOL0     H72848   8.251  11.295  10.612  1.5199 -0.1425 -0.4693
  528MOL0     H72849   7.992  11.311  10.639  1.2307  0.0002  0.2939
  528MOL0     H72850   7.651  11.538  10.307 -1.9086  0.0488 -3.7987
  528MOL0     H72851   7.440  11.591  10.231 -0.0613  0.5619 -0.7729
  528MOL0     H72852   7.094  11.647  10.218  1.0006  0.8371  1.8240
  528MOL0     H72853   7.259  11.635  10.200  0.5437 -1.3988 -1.0834
  528MOL0     H72854   7.225  11.385  10.140 -0.4570  0.6917  0.4399
  528MOL0     H72855   7.164  11.509  10.024 -1.4831 -0.5096 -1.1037
  528MOL0     H72856   6.984  11.382  10.230 -2.0968 -0.3440 -1.9490
  528MOL0     H72857   6.943  11.462  10.084 -1.8297 -1.5407 -0.6233
  528MOL0     H72858   7.049  11.184  10.112  3.5486  3.4497  3.0855
  528MOL0     H72859   7.059  11.273   9.960 -0.2486  1.7812  0.0549
  528MOL0     H72860   6.689  11.138   9.899 -0.1309  1.3006 -2.9006
  528MOL0     H72861   7.258  11.367  10.558 -0.4233 -0.4074 -1.9393
  528MOL0     H72862   7.373  11.238  10.684  0.8836 -0.8486  1.2245
  528MOL0     H72863   7.546  11.203  10.645  0.6674  1.1605 -1.5350
  528MOL0     H72864   7.496  11.340  10.757  0.7995 -2.8687  2.6152
  529MOL0     O72865   6.837   3.820   0.031 -1.1688 -0.1425 -0.4148
  529MOL0     C72866   6.842   3.940   0.047  1.0226 -0.5898 -0.2575
  529MOL0     O72867   6.902   4.001   0.147  0.1159  0.3240 -0.2143
  529MOL0     C72868   7.001   3.937   0.216 -0.2883 -0.3767 -0.5884
  529MOL0     C72869   7.095   3.853   0.158  0.1595 -0.2192  0.5648
  529MOL0     C72870   7.197   3.797   0.228  0.2883 -0.1492 -0.2912
  529MOL0     C72871   7.220   3.828   0.362  0.6594 -0.5261 -0.5149
  529MOL0     O72872   7.339   3.797   0.427 -0.6754  0.2427  0.0234
  529MOL0     C72873   7.465   3.770   0.353  0.0859  0.1841  0.0472
  529MOL0     C72874   7.583   3.779   0.455  0.2993 -0.1198 -0.9585
  529MOL0     C72875   7.708   3.835   0.392 -0.3714  0.2282  0.1801
  529MOL0     C72876   7.798   3.893   0.504  0.4229 -0.2928  0.4372
  529MOL0     C72877   7.930   3.941   0.452  0.1239 -0.5810 -0.2397
  529MOL0     C72878   7.925   4.089   0.399  0.4589 -0.2372 -0.1680
  529MOL0     C72879   8.044   4.090   0.299 -0.2646  0.3352 -0.0981
  529MOL0     C72880   8.035   4.234   0.232 -1.0587  0.1947  0.0439
  529MOL0     N72881   8.149   4.244   0.135  0.7080  0.4215  0.6652
  529MOL0     C72882   8.131   4.245   0.003  0.7361  0.9568 -0.7573
  529MOL0     C72883   8.259   4.247  -0.045  0.0110  0.0994  1.4837
  529MOL0     C72884   8.298   4.274  -0.184  0.0597 -0.0602 -0.2203
  529MOL0     C72885   8.276   4.155  -0.263 -0.2939  0.1390 -0.0392
  529MOL0     C72886   8.332   4.166  -0.405 -0.0481  0.2508  0.3006
  529MOL0     C72887   8.255   4.086  -0.506  0.4999 -0.2280  0.1818
  529MOL0     O72888   8.202   3.967  -0.448 -0.2920 -0.0810 -0.6939
  529MOL0     C72889   8.276   3.867  -0.479 -0.6282 -0.2031  1.2146
  529MOL0     C72890   8.263   3.811  -0.608  0.3897 -0.2445 -0.1154
  529MOL0     C72891   8.343   3.703  -0.647  0.4603  0.0371 -0.1512
  529MOL0     C72892   8.304   3.645  -0.780 -0.0676  0.0351  0.5119
  529MOL0     C72893   8.450   3.657  -0.570 -0.1590  0.5194  0.5117
  529MOL0     C72894   8.542   3.555  -0.607  0.6423  0.3152 -0.2641
  529MOL0     O72895   8.670   3.591  -0.587 -0.0760  0.2819 -0.2090
  529MOL0     C72896   8.780   3.533  -0.647  0.0623 -0.0482 -0.6382
  529MOL0     C72897   8.899   3.551  -0.578  0.6287  1.1406 -0.4654
  529MOL0     C72898   9.012   3.490  -0.620  0.2028 -0.6856  0.9257
  529MOL0     C72899   9.030   3.402  -0.731  0.4334 -0.2009  0.2577
  529MOL0     O72900   9.146   3.332  -0.756  1.1422 -0.2673 -0.8309
  529MOL0     C72901   9.250   3.346  -0.663  0.4116 -0.0682 -0.6857
  529MOL0     C72902   9.350   3.231  -0.684  0.3106  0.3049  0.0988
  529MOL0     C72903   9.451   3.207  -0.576 -0.8128  0.0992 -1.0703
  529MOL0     C72904   9.538   3.333  -0.544 -0.1427 -0.3399  0.0979
  529MOL0     C72905   9.651   3.295  -0.448  0.3324  0.0133 -1.1146
  529MOL0     C72906   9.740   3.422  -0.424 -0.8799  0.1539 -0.0438
  529MOL0     C72907   9.839   3.387  -0.311  0.2242  0.1787 -0.3944
  529MOL0     C72908   9.959   3.477  -0.261  1.0642  0.0739  0.3405
  529MOL0    Cl72909  10.090   3.440  -0.372  0.0690  0.3251 -0.4289
  529MOL0     C72910   8.908   3.370  -0.792 -0.5125  0.2762 -0.2112
  529MOL0     C72911   8.791   3.434  -0.748 -0.1052  0.3597  0.1191
  529MOL0     O72912   8.507   3.456  -0.664  0.4249  0.1012 -0.0268
  529MOL0     C72913   8.476   3.721  -0.453  0.0214 -0.3776  0.6594
  529MOL0     C72914   8.388   3.826  -0.406 -0.2688 -0.8747  0.4386
  529MOL0     N72915   8.348   4.222   0.052  0.4241 -0.7530  0.8742
  529MOL0     N72916   8.283   4.225   0.164 -0.0650 -0.3397  0.2226
  529MOL0     C72917   7.117   3.908   0.427 -0.4485  0.0901 -0.5660
  529MOL0     C72918   7.010   3.958   0.347  0.3216  0.2089 -0.7777
  529MOL0     C72919   6.745   4.026  -0.038  0.1360 -0.4881 -1.1702
  529MOL0     C72920   6.737   4.163  -0.014 -0.4134 -0.7860  0.6796
  529MOL0     C72921   6.664   4.258  -0.095 -0.5433  0.4389  0.3921
  529MOL0     C72922   6.598   4.206  -0.210 -0.1131  1.0049  0.2887
  529MOL0     O72923   6.544   4.294  -0.291  0.0082  0.4561  0.3579
  529MOL0     C72924   6.424   4.267  -0.359  1.1432  0.0674  0.6538
  529MOL0     C72925   6.345   4.396  -0.395  0.4346  0.4832  1.0173
  529MOL0     C72926   6.416   4.501  -0.476  0.0733  0.0181 -0.0800
  529MOL0     C72927   6.469   4.454  -0.615 -0.4074 -0.0289  0.9118
  529MOL0     C72928   6.367   4.419  -0.715  0.4327  0.5842  0.5257
  529MOL0     C72929   6.274   4.380  -0.785 -0.5764  0.2639  0.4309
  529MOL0     C72930   6.615   4.069  -0.239  1.0349  0.4079 -0.0565
  529MOL0     C72931   6.689   3.978  -0.153  0.1028 -0.1832  0.2758
  529MOL0     C72932   6.696   3.841  -0.209 -0.9360  0.2822  0.6115
  529MOL0     H72933   7.082   3.823   0.055  0.2989 -0.6370  0.6643
  529MOL0     H72934   7.256   3.728   0.169 -4.4406 -1.5287 -3.9899
  529MOL0     H72935   7.479   3.852   0.282  0.4453  0.3676  0.3288
  529MOL0     H72936   7.462   3.674   0.301 -3.9016 -1.3870  2.6567
  529MOL0     H72937   7.559   3.846   0.538  0.3968  0.7964 -1.6525
  529MOL0     H72938   7.609   3.680   0.493  0.7210  0.3289 -0.0489
  529MOL0     H72939   7.751   3.750   0.337 -4.1124 -1.5405 -0.3001
  529MOL0     H72940   7.692   3.920   0.325  2.1119  0.3665 -0.3545
  529MOL0     H72941   7.750   3.979   0.551 -1.3127 -2.5232  3.0663
  529MOL0     H72942   7.824   3.816   0.577 -0.7247 -1.2310 -0.0864
  529MOL0     H72943   7.969   3.871   0.378 -2.0699  0.3858 -2.4506
  529MOL0     H72944   7.991   3.933   0.542  1.7107  0.4137 -1.1750
  529MOL0     H72945   7.829   4.105   0.349 -0.2733 -2.4839  0.4199
  529MOL0     H72946   7.940   4.159   0.481  1.7370  0.6865 -1.1364
  529MOL0     H72947   8.038   4.021   0.214 -2.5686 -0.0461  0.2950
  529MOL0     H72948   8.135   4.086   0.358 -1.3234 -1.2916  1.5238
  529MOL0     H72949   7.939   4.241   0.181 -0.1472 -0.6988 -1.9313
  529MOL0     H72950   8.040   4.316   0.304 -1.7978  0.6130 -0.3693
  529MOL0     H72951   8.044   4.266  -0.058  1.9075  1.6282 -2.2385
  529MOL0     H72952   8.401   4.311  -0.188 -1.2496  4.1457  0.5802
  529MOL0     H72953   8.241   4.359  -0.222  0.3670 -0.5675 -1.9008
  529MOL0     H72954   8.320   4.068  -0.213  3.0360  2.4054  1.4072
  529MOL0     H72955   8.168   4.139  -0.267 -0.6965  2.2165  0.9033
  529MOL0     H72956   8.332   4.270  -0.440  0.5881  1.1916  2.8548
  529MOL0     H72957   8.436   4.133  -0.404 -0.0674  0.1955  0.6647
  529MOL0     H72958   8.173   4.141  -0.554 -0.7766 -2.8840 -0.8606
  529MOL0     H72959   8.330   4.067  -0.583  1.0520  0.2895  0.5831
  529MOL0     H72960   8.179   3.848  -0.666  2.2876  0.5903 -2.4598
  529MOL0     H72961   8.227   3.706  -0.829  1.5574 -1.1451 -3.9929
  529MOL0     H72962   8.269   3.544  -0.758  0.1564 -0.9425 -3.1030
  529MOL0     H72963   8.385   3.626  -0.851 -1.0936 -0.3104 -0.6048
  529MOL0     H72964   8.891   3.606  -0.484  0.6794 -0.9420  0.8273
  529MOL0     H72965   9.104   3.521  -0.570  1.2429  0.2452 -1.4116
  529MOL0     H72966   9.289   3.448  -0.673 -0.9567  0.4202 -1.3613
  529MOL0     H72967   9.218   3.331  -0.559  1.6387 -0.3787 -0.3363
  529MOL0     H72968   9.300   3.135  -0.697  1.1265 -0.3701  1.6738
  529MOL0     H72969   9.396   3.255  -0.780  0.8425 -0.8250  0.0578
  529MOL0     H72970   9.515   3.122  -0.601 -3.7406 -2.6856  0.3777
  529MOL0     H72971   9.396   3.175  -0.488 -0.2037  3.4148  0.6793
  529MOL0     H72972   9.481   3.409  -0.489  1.0369  1.8385 -1.5572
  529MOL0     H72973   9.565   3.383  -0.637 -0.5690 -0.4647 -0.0966
  529MOL0     H72974   9.609   3.267  -0.351  0.8244  3.9604  0.4201
  529MOL0     H72975   9.720   3.216  -0.479  0.9251  0.0041  0.1475
  529MOL0     H72976   9.668   3.496  -0.387 -0.8055  1.5344 -2.4253
  529MOL0     H72977   9.795   3.452  -0.515 -1.4867 -1.1952 -0.8874
  529MOL0     H72978   9.886   3.299  -0.358  1.0885  0.9564 -1.0411
  529MOL0     H72979   9.785   3.357  -0.222  1.4716 -1.2887 -0.0886
  529MOL0     H72980   9.987   3.463  -0.156 -3.1026  0.4810  1.6568
  529MOL0     H72981   9.926   3.581  -0.255 -1.8606 -0.7955  0.5768
  529MOL0     H72982   8.897   3.294  -0.869 -2.8913  0.5852 -0.2484
  529MOL0     H72983   8.703   3.396  -0.800 -0.8658 -0.6498  2.0432
  529MOL0     H72984   8.551   3.687  -0.382 -2.6261 -1.8283  2.9923
  529MOL0     H72985   8.406   3.865  -0.307  0.6439  3.3846 -1.2141
  529MOL0     H72986   7.130   3.926   0.534  0.9299  1.4479 -0.9281
  529MOL0     H72987   6.941   4.021   0.401  0.6393 -2.7740  3.5609
  529MOL0     H72988   6.789   4.209   0.069 -0.3825  0.7583 -0.1513
  529MOL0     H72989   6.656   4.366  -0.085 -2.8601  0.7347 -2.8625
  529MOL0     H72990   6.425   4.197  -0.444  4.0455  0.8150 -0.0280
  529MOL0     H72991   6.373   4.211  -0.280  2.1762 -0.2843  1.0958
  529MOL0     H72992   6.309   4.446  -0.304  1.7155  3.5493 -0.0084
  529MOL0     H72993   6.258   4.356  -0.447  0.8898 -0.0234  0.6390
  529MOL0     H72994   6.351   4.588  -0.486 -0.3824 -0.0443  1.8137
  529MOL0     H72995   6.500   4.533  -0.414  0.4817 -2.3205  0.6668
  529MOL0     H72996   6.539   4.371  -0.611 -0.6111 -0.3855 -1.4132
  529MOL0     H72997   6.536   4.531  -0.655  3.6143 -2.3761  2.5676
  529MOL0     H72998   6.201   4.360  -0.860 -1.8250  1.7521  1.1758
  529MOL0     H72999   6.571   4.030  -0.330  3.0374 -1.3708 -0.3342
  529MOL0     H73000   6.795   3.796  -0.199 -0.3062  1.2126 -1.0404
  529MOL0     H73001   6.612   3.783  -0.169 -3.2857  0.1996 -3.7995
  529MOL0     H73002   6.664   3.843  -0.313 -4.8520 -0.2620  1.6335
  530MOL0     O73003   4.424   7.648   1.745 -0.0696  0.5819 -0.4400
  530MOL0     C73004   4.368   7.557   1.684  0.8876  0.2351  0.3601
  530MOL0     O73005   4.324   7.565   1.552 -0.4454 -0.3948 -0.0901
  530MOL0     C73006   4.368   7.669   1.486 -0.4071  0.7606 -0.4391
  530MOL0     C73007   4.311   7.789   1.493  1.0500  0.2966  0.0401
  530MOL0     C73008   4.342   7.893   1.403 -0.0581 -0.3866 -0.4966
  530MOL0     C73009   4.447   7.878   1.308 -1.1288 -0.3770  0.4850
  530MOL0     O73010   4.500   7.974   1.226 -0.0184  0.2948  0.0293
  530MOL0     C73011   4.434   8.102   1.194  0.2954 -0.1688  0.4449
  530MOL0     C73012   4.503   8.157   1.069  0.8090 -0.8792  0.0936
  530MOL0     C73013   4.645   8.206   1.090  0.7047  0.2374  0.1542
  530MOL0     C73014   4.705   8.273   0.979  0.0028  0.3519 -0.5187
  530MOL0     C73015   4.846   8.308   1.017  0.4329 -0.1836  0.2837
  530MOL0     C73016   4.928   8.391   0.918 -0.0076 -1.7340 -0.5213
  530MOL0     C73017   5.047   8.448   0.989 -1.0633  0.2504 -0.0005
  530MOL0     C73018   5.155   8.341   1.008  0.5972  0.4052  0.1106
  530MOL0     N73019   5.293   8.394   0.987  0.1784 -0.5206  0.4201
  530MOL0     C73020   5.333   8.517   1.033 -0.4567 -0.9208  0.7122
  530MOL0     C73021   5.456   8.538   0.974 -0.2529 -0.1094 -0.1909
  530MOL0     C73022   5.544   8.663   0.984  0.5206  0.6120  0.3862
  530MOL0     C73023   5.494   8.771   0.887  0.4300  0.3942  0.7238
  530MOL0     C73024   5.605   8.885   0.872  0.1656  0.5965  0.4013
  530MOL0     C73025   5.628   8.922   0.725  0.6738 -0.4021  0.1395
  530MOL0     O73026   5.727   9.021   0.721 -0.4975 -0.4938 -0.3003
  530MOL0     C73027   5.744   9.091   0.604  0.4733  1.0831  0.0576
  530MOL0     C73028   5.866   9.162   0.585 -0.7401  1.1592 -0.5477
  530MOL0     C73029   5.888   9.240   0.471 -0.1482  0.1976 -0.0306
  530MOL0     C73030   6.008   9.331   0.479  0.7131  0.1957 -0.0267
  530MOL0     C73031   5.786   9.242   0.379  0.7155 -0.6930  0.5124
  530MOL0     C73032   5.790   9.316   0.256 -0.2958 -0.4622  0.1395
  530MOL0     O73033   5.860   9.267   0.155  0.4422 -0.3439  0.0880
  530MOL0     C73034   5.847   9.326   0.031  1.0278 -0.7675  0.8098
  530MOL0     C73035   5.758   9.254  -0.053 -0.1525 -0.9818 -0.0690
  530MOL0     C73036   5.737   9.310  -0.182  0.0680  0.2432 -0.4274
  530MOL0     C73037   5.802   9.429  -0.227  0.8930  0.5424  0.0266
  530MOL0     O73038   5.767   9.486  -0.350  1.1210 -0.7763  0.9317
  530MOL0     C73039   5.626   9.506  -0.372  0.8427  0.4628 -0.4884
  530MOL0     C73040   5.602   9.614  -0.469 -0.7418  0.1060  0.0613
  530MOL0     C73041   5.629   9.553  -0.617  0.4387 -0.4605  0.1670
  530MOL0     C73042   5.770   9.529  -0.660 -0.2610 -0.4608 -0.0236
  530MOL0     C73043   5.788   9.445  -0.798  0.2392  0.5395 -1.0722
  530MOL0     C73044   5.941   9.449  -0.832  0.2336  0.0726 -0.5830
  530MOL0     C73045   5.972   9.386  -0.969  0.0852  0.7696 -0.9280
  530MOL0     C73046   5.979   9.489  -1.074  0.2725  0.1277  0.4408
  530MOL0    Cl73047   6.141   9.571  -1.074 -0.0469  0.3701  0.0298
  530MOL0     C73048   5.895   9.490  -0.148  0.0250  0.1900  0.5711
  530MOL0     C73049   5.919   9.443  -0.016  0.3030 -0.2104  0.1103
  530MOL0     O73050   5.707   9.407   0.251 -0.2410  0.4592  1.2047
  530MOL0     C73051   5.667   9.168   0.390  0.6001  0.6211 -0.1507
  530MOL0     C73052   5.645   9.102   0.504 -0.5237  0.0501  0.1682
  530MOL0     N73053   5.483   8.428   0.888 -0.2522  0.2318 -0.3887
  530MOL0     N73054   5.389   8.346   0.901  0.1519 -0.0958 -0.0239
  530MOL0     C73055   4.503   7.753   1.295 -0.0213 -0.6255  0.1509
  530MOL0     C73056   4.466   7.651   1.383  0.9914  0.5183 -0.5976
  530MOL0     C73057   4.332   7.429   1.756 -0.8033 -0.0503  1.3557
  530MOL0     C73058   4.268   7.427   1.882 -0.7166 -0.3050  0.1297
  530MOL0     C73059   4.232   7.309   1.947 -0.0193  0.3545 -0.3913
  530MOL0     C73060   4.266   7.193   1.875 -0.2220 -0.2421 -0.0251
  530MOL0     O73061   4.239   7.077   1.949  0.1355 -0.7632  0.8599
  530MOL0     C73062   4.265   6.950   1.884  0.0210  0.0948  1.1695
  530MOL0     C73063   4.265   6.844   1.989 -0.8707 -1.4894  0.3323
  530MOL0     C73064   4.250   6.697   1.955  0.4565  0.3547 -0.4299
  530MOL0     C73065   4.372   6.645   1.869  0.5320  0.5159 -0.0332
  530MOL0     C73066   4.333   6.622   1.728 -0.1608  1.1193  0.3244
  530MOL0     C73067   4.299   6.610   1.613 -0.2186  0.2236  0.0832
  530MOL0     C73068   4.322   7.191   1.747 -0.2615 -0.6913  0.1966
  530MOL0     C73069   4.360   7.312   1.685  0.3528  0.4373  0.3415
  530MOL0     C73070   4.446   7.295   1.557  0.3549 -0.2372 -0.3300
  530MOL0     H73071   4.235   7.814   1.566 -2.5199  1.9706 -3.8007
  530MOL0     H73072   4.290   7.988   1.415  0.0591 -0.5438  1.7407
  530MOL0     H73073   4.445   8.169   1.280  1.2961  0.4290 -0.1239
  530MOL0     H73074   4.328   8.085   1.173 -0.3132  1.8405  1.5932
  530MOL0     H73075   4.501   8.076   0.995  2.8296 -0.6890 -0.2163
  530MOL0     H73076   4.434   8.228   1.022  1.0833 -0.3879  0.4319
  530MOL0     H73077   4.650   8.267   1.181  3.2210 -1.2570  1.1302
  530MOL0     H73078   4.700   8.115   1.117  0.0367  0.3612  2.0534
  530MOL0     H73079   4.707   8.198   0.899 -1.6526  1.9768 -2.2026
  530MOL0     H73080   4.653   8.364   0.947  2.3361  1.8155 -0.3923
  530MOL0     H73081   4.898   8.215   1.042 -2.1397 -1.7359  0.3400
  530MOL0     H73082   4.834   8.373   1.104 -4.2500  1.2196 -1.1170
  530MOL0     H73083   4.958   8.342   0.825  0.5649 -2.2796 -0.0601
  530MOL0     H73084   4.867   8.477   0.889  1.7975 -0.1018  0.2787
  530MOL0     H73085   5.017   8.487   1.086  0.9811  0.6117  0.5510
  530MOL0     H73086   5.087   8.525   0.922  0.0750 -1.6375 -1.6170
  530MOL0     H73087   5.152   8.305   1.111 -1.5651  0.8467  0.2371
  530MOL0     H73088   5.139   8.248   0.952  1.1890  2.1324 -3.1539
  530MOL0     H73089   5.282   8.583   1.102  0.2804  4.2516 -3.0785
  530MOL0     H73090   5.641   8.627   0.949  2.0956  0.9820  3.8794
  530MOL0     H73091   5.545   8.710   1.083  1.8776  0.8235  0.2791
  530MOL0     H73092   5.472   8.723   0.791 -1.5649 -3.0967  2.7640
  530MOL0     H73093   5.406   8.820   0.928  0.8943  0.2652  1.9036
  530MOL0     H73094   5.569   8.973   0.926  1.8089  1.9089 -0.5338
  530MOL0     H73095   5.701   8.847   0.910  0.0224 -1.5962 -1.2543
  530MOL0     H73096   5.646   8.835   0.660 -1.1579  0.1174 -1.1597
  530MOL0     H73097   5.534   8.972   0.699  1.5669  0.7083 -1.0980
  530MOL0     H73098   5.940   9.160   0.665 -1.5775 -0.5540  0.2542
  530MOL0     H73099   6.000   9.395   0.391 -1.7703 -0.2456 -0.1839
  530MOL0     H73100   6.105   9.282   0.478  0.5483 -0.1219 -0.6456
  530MOL0     H73101   6.012   9.399   0.566 -0.1693 -0.0180  0.1892
  530MOL0     H73102   5.710   9.167  -0.010 -1.4675  0.4291  1.4604
  530MOL0     H73103   5.664   9.259  -0.244  2.5616 -5.6525  0.8344
  530MOL0     H73104   5.571   9.416  -0.401 -1.4601  0.0848  4.1494
  530MOL0     H73105   5.578   9.524  -0.275 -1.8464 -3.3214 -0.8936
  530MOL0     H73106   5.498   9.645  -0.460 -0.4388  0.7413  1.7091
  530MOL0     H73107   5.660   9.705  -0.450 -3.1247  1.5487  0.7964
  530MOL0     H73108   5.591   9.632  -0.682  4.8204  3.9181  2.2513
  530MOL0     H73109   5.573   9.461  -0.639 -0.6169  0.2003  0.0369
  530MOL0     H73110   5.823   9.477  -0.579 -2.2230 -0.0875  1.6064
  530MOL0     H73111   5.805   9.632  -0.668  1.1222 -0.3587  4.4962
  530MOL0     H73112   5.766   9.341  -0.773  0.2895  0.6708 -0.4418
  530MOL0     H73113   5.722   9.482  -0.877 -1.3336 -0.9395 -0.5066
  530MOL0     H73114   5.987   9.396  -0.748 -2.1183 -0.8679  0.2090
  530MOL0     H73115   5.967   9.555  -0.829 -0.0010  0.1848 -1.9187
  530MOL0     H73116   5.891   9.316  -0.993 -0.5967  0.0542  2.8356
  530MOL0     H73117   6.067   9.333  -0.963 -0.7164 -0.5626  0.8768
  530MOL0     H73118   5.896   9.559  -1.063 -0.6472 -0.4771 -1.9568
  530MOL0     H73119   5.968   9.447  -1.175 -0.2890  0.4118  0.3801
  530MOL0     H73120   5.936   9.582  -0.188 -2.1094  0.6830 -0.6318
  530MOL0     H73121   5.981   9.506   0.047 -0.9372  0.0663  1.1130
  530MOL0     H73122   5.589   9.167   0.315 -0.7039  0.8738  1.1607
  530MOL0     H73123   5.549   9.052   0.513 -0.3346 -0.0397  2.1173
  530MOL0     H73124   4.586   7.753   1.224 -0.6892  1.7885 -0.7451
  530MOL0     H73125   4.503   7.551   1.368 -0.7477  0.2652 -4.4504
  530MOL0     H73126   4.227   7.517   1.925 -0.4222 -0.6509  1.1841
  530MOL0     H73127   4.166   7.314   2.033 -1.2318  1.1104 -1.3427
  530MOL0     H73128   4.185   6.938   1.811  1.3771 -0.0143 -0.3537
  530MOL0     H73129   4.360   6.948   1.830  1.0446  1.4214  2.7932
  530MOL0     H73130   4.202   6.870   2.074  2.2593 -3.3005  3.4613
  530MOL0     H73131   4.366   6.861   2.029 -0.3546 -1.7164 -0.8171
  530MOL0     H73132   4.253   6.646   2.052 -2.8504 -0.2068 -0.5068
  530MOL0     H73133   4.156   6.673   1.905  0.4132 -2.5850  0.8723
  530MOL0     H73134   4.415   6.548   1.898  1.6824  0.0555 -2.9081
  530MOL0     H73135   4.456   6.714   1.875  1.1106 -0.2818  1.6253
  530MOL0     H73136   4.270   6.601   1.510  2.8292 -1.5935 -0.7395
  530MOL0     H73137   4.356   7.104   1.692  1.0591  1.0645 -1.9437
  530MOL0     H73138   4.455   7.190   1.528  0.4722 -0.1931 -0.4587
  530MOL0     H73139   4.410   7.346   1.467 -0.6357 -0.2879  0.0201
  530MOL0     H73140   4.540   7.348   1.578 -1.6633  3.4567  0.3270
  531MOL0     O73141   5.345   1.349  10.809 -0.0255  0.2820 -0.3015
  531MOL0     C73142   5.245   1.321  10.747 -0.1404  0.6099 -1.6807
  531MOL0     O73143   5.220   1.360  10.623  0.2844  0.4728 -0.5811
  531MOL0     C73144   5.286   1.308  10.517 -0.7161  0.3259  0.9415
  531MOL0     C73145   5.253   1.350  10.387 -0.3269 -0.3191  0.6212
  531MOL0     C73146   5.326   1.323  10.271 -0.8620 -0.0326  0.3202
  531MOL0     C73147   5.434   1.232  10.280 -1.1427 -0.1283  0.2503
  531MOL0     O73148   5.511   1.209  10.164 -0.5479  0.1007  0.2132
  531MOL0     C73149   5.629   1.134  10.179  0.6071  0.3259  0.1041
  531MOL0     C73150   5.695   1.076  10.046  0.8283 -0.8172 -0.8505
  531MOL0     C73151   5.755   1.192   9.949 -0.8140  0.7455 -0.2094
  531MOL0     C73152   5.641   1.260   9.887  0.4575  0.6248  0.4691
  531MOL0     C73153   5.692   1.343   9.778 -0.2399 -0.5270 -0.0089
  531MOL0     C73154   5.589   1.432   9.718 -0.2343  0.1090  0.2755
  531MOL0     C73155   5.638   1.488   9.590 -0.0753  0.0167 -1.0318
  531MOL0     C73156   5.519   1.532   9.513  0.1498 -0.0099 -0.0168
  531MOL0     N73157   5.569   1.533   9.375 -0.7178  0.6216 -0.1181
  531MOL0     C73158   5.569   1.427   9.289  0.4837  0.3366 -0.3221
  531MOL0     C73159   5.589   1.489   9.172  0.2280 -0.3059  0.6227
  531MOL0     C73160   5.583   1.415   9.042 -0.1863  0.5746  0.2212
  531MOL0     C73161   5.441   1.381   9.000  0.4577  0.0596  0.6543
  531MOL0     C73162   5.336   1.489   9.006  0.3186  0.0510 -0.1369
  531MOL0     C73163   5.199   1.430   8.975  0.1604  0.1567  0.2736
  531MOL0     O73164   5.154   1.331   9.077 -0.3518 -0.4087  0.6703
  531MOL0     C73165   5.135   1.201   9.055  0.0105 -0.3915 -0.4314
  531MOL0     C73166   5.194   1.130   8.944 -0.0362  0.5403  0.0827
  531MOL0     C73167   5.144   0.999   8.909  0.3196  0.4607 -0.1769
  531MOL0     C73168   5.209   0.946   8.779 -0.3875  0.0695  0.1855
  531MOL0     C73169   5.053   0.935   8.992  0.2131 -0.6464 -0.5244
  531MOL0     C73170   5.001   0.801   8.966 -0.8215  0.4874  0.4434
  531MOL0     O73171   4.876   0.765   9.008  0.2049 -0.1845  0.1404
  531MOL0     C73172   4.806   0.654   8.944  0.1991 -0.3033 -1.3033
  531MOL0     C73173   4.828   0.624   8.811 -0.4408 -1.0299 -0.1265
  531MOL0     C73174   4.771   0.512   8.751  0.4069  0.4809 -0.2274
  531MOL0     C73175   4.683   0.427   8.815  0.4995 -1.2369  0.0328
  531MOL0     O73176   4.615   0.318   8.773  0.3099  0.3097 -0.1455
  531MOL0     C73177   4.680   0.236   8.678  0.0700 -0.3112  0.9382
  531MOL0     C73178   4.595   0.115   8.669 -0.2478 -0.6118  0.6562
  531MOL0     C73179   4.617   0.015   8.789  0.1697  0.1708 -0.0440
  531MOL0     C73180   4.760  -0.045   8.804  0.5472 -0.1309  0.3563
  531MOL0     C73181   4.754  -0.151   8.920  0.6379  0.2451  0.5110
  531MOL0     C73182   4.891  -0.215   8.938 -0.3113 -0.1532  0.6861
  531MOL0     C73183   4.881  -0.316   9.053 -0.2559  0.2825 -0.8527
  531MOL0     C73184   5.022  -0.374   9.099  0.2261  0.3011 -0.2717
  531MOL0    Cl73185   5.088  -0.484   8.963  0.5407 -0.0001 -0.0888
  531MOL0     C73186   4.667   0.457   8.954 -0.8266  0.6112  0.6816
  531MOL0     C73187   4.717   0.570   9.015 -0.0842  0.8487 -0.4298
  531MOL0     O73188   5.081   0.725   8.914 -0.1362  0.1357 -0.0778
  531MOL0     C73189   5.013   1.000   9.104 -0.3902 -0.3530 -0.4197
  531MOL0     C73190   5.054   1.130   9.141  0.6884 -0.5185 -0.2114
  531MOL0     N73191   5.608   1.619   9.185 -0.7202  0.0337  0.4839
  531MOL0     N73192   5.604   1.651   9.307  0.4378 -0.2381  0.1817
  531MOL0     C73193   5.465   1.182  10.406 -0.8299  0.1878 -0.2435
  531MOL0     C73194   5.398   1.226  10.522 -0.0576 -0.0761 -0.2860
  531MOL0     C73195   5.139   1.254  10.816  0.1418 -0.2426  1.2458
  531MOL0     C73196   5.172   1.186  10.924 -0.1973 -0.1318  0.6482
  531MOL0     C73197   5.085   1.129  11.014  0.4464  0.1410  0.0125
  531MOL0     C73198   4.946   1.126  10.995  0.1276 -0.5112  0.1894
  531MOL0     O73199   4.849   1.070  11.077  0.1865 -0.7077  0.5609
  531MOL0     C73200   4.883   0.991  11.184 -0.0735 -0.2398  0.2011
  531MOL0     C73201   4.912   1.078  11.304 -0.1322  0.1636  0.0532
  531MOL0     C73202   5.005   1.008  11.393 -0.6534  0.5279 -1.0170
  531MOL0     C73203   5.062   1.105  11.502  0.2950  0.2550 -0.1256
  531MOL0     C73204   4.960   1.132  11.605 -0.2052  0.5370 -0.3438
  531MOL0     C73205   4.873   1.143  11.689  0.6070  0.7866  0.9153
  531MOL0     C73206   4.904   1.190  10.878 -0.4942 -0.5804 -0.6065
  531MOL0     C73207   5.002   1.260  10.783 -0.2913 -0.1323  0.1772
  531MOL0     C73208   4.947   1.335  10.664  0.6113  0.1526  0.0413
  531MOL0     H73209   5.169   1.417  10.372  1.8771  2.2924 -0.9649
  531MOL0     H73210   5.294   1.373  10.180 -0.9568  2.5687  1.6853
  531MOL0     H73211   5.611   1.039  10.231  0.1258  0.1343 -0.4112
  531MOL0     H73212   5.709   1.178  10.239  0.7879 -2.0808  1.7672
  531MOL0     H73213   5.767   0.998  10.073 -2.5854 -5.2586 -3.3448
  531MOL0     H73214   5.617   1.027   9.987 -1.5994  3.0266 -1.1564
  531MOL0     H73215   5.829   1.262   9.988 -2.1519  2.8705 -1.3036
  531MOL0     H73216   5.807   1.132   9.873 -0.0627  0.2947  0.6465
  531MOL0     H73217   5.565   1.190   9.852  2.8550 -1.9454  0.0430
  531MOL0     H73218   5.598   1.330   9.959 -2.7745 -0.1285 -0.5949
  531MOL0     H73219   5.740   1.277   9.706  1.1986 -1.2730  1.5812
  531MOL0     H73220   5.759   1.418   9.822  1.9686 -1.0418 -2.2898
  531MOL0     H73221   5.502   1.373   9.686  0.6865 -0.9309 -0.4081
  531MOL0     H73222   5.555   1.510   9.786  1.9235  0.6864  0.7787
  531MOL0     H73223   5.691   1.407   9.539 -1.0698 -1.0463 -0.4203
  531MOL0     H73224   5.710   1.568   9.609 -1.4459  0.8580  0.9515
  531MOL0     H73225   5.429   1.471   9.520  0.2190  0.0192  1.4764
  531MOL0     H73226   5.486   1.635   9.532 -2.4966 -0.6263 -0.7679
  531MOL0     H73227   5.558   1.320   9.305  2.1896 -0.2803 -2.6589
  531MOL0     H73228   5.653   1.332   9.053  2.8186  2.1205 -4.2714
  531MOL0     H73229   5.616   1.482   8.962  0.9588  0.6435  0.7336
  531MOL0     H73230   5.440   1.333   8.901 -2.0783 -2.4102  1.7151
  531MOL0     H73231   5.408   1.302   9.069  2.0386 -0.2302  1.1275
  531MOL0     H73232   5.335   1.546   9.099 -1.6719  3.0086 -1.7988
  531MOL0     H73233   5.358   1.557   8.922 -1.1499 -1.5851 -1.9455
  531MOL0     H73234   5.125   1.510   8.962  1.0861  1.2206  1.3850
  531MOL0     H73235   5.202   1.390   8.873 -2.1965  0.7709 -0.1163
  531MOL0     H73236   5.249   1.183   8.867 -0.1115 -0.7375 -0.8913
  531MOL0     H73237   5.278   0.866   8.806 -0.6873  0.0192  0.8192
  531MOL0     H73238   5.246   1.015   8.703 -0.5603 -1.4145 -1.2910
  531MOL0     H73239   5.136   0.891   8.719  1.7590 -0.8009 -1.7756
  531MOL0     H73240   4.895   0.683   8.750 -0.9452 -2.9596 -2.7832
  531MOL0     H73241   4.786   0.494   8.645 -0.6879 -2.8798  0.0634
  531MOL0     H73242   4.674   0.287   8.581 -1.0591 -3.1713 -0.6555
  531MOL0     H73243   4.783   0.208   8.700  0.8883  3.9485  3.5834
  531MOL0     H73244   4.491   0.148   8.667  0.2632  1.0105 -1.4157
  531MOL0     H73245   4.616   0.074   8.570  2.4873  3.0728 -0.5086
  531MOL0     H73246   4.558  -0.074   8.767 -1.2496  0.9348  0.5608
  531MOL0     H73247   4.587   0.055   8.886  3.0902  3.0845 -0.1615
  531MOL0     H73248   4.830   0.033   8.835  1.7746  0.4390 -3.2664
  531MOL0     H73249   4.785  -0.096   8.710  0.0595 -2.2265  1.3113
  531MOL0     H73250   4.730  -0.097   9.012  3.3519 -0.4501  1.7457
  531MOL0     H73251   4.688  -0.229   8.881  0.1706  2.7658 -4.6176
  531MOL0     H73252   4.949  -0.133   8.980 -0.5956  0.0461  0.6889
  531MOL0     H73253   4.932  -0.263   8.849 -2.5462 -1.0853  0.0941
  531MOL0     H73254   4.826  -0.406   9.025 -0.1170 -2.3816  5.7014
  531MOL0     H73255   4.818  -0.281   9.135  1.6053 -1.1694  1.2982
  531MOL0     H73256   5.011  -0.438   9.187  0.8114 -1.1289 -1.1855
  531MOL0     H73257   5.097  -0.294   9.104 -0.3313  0.8027  0.0687
  531MOL0     H73258   4.610   0.380   9.005 -2.3320  1.8950  1.0321
  531MOL0     H73259   4.698   0.578   9.121  1.5526 -4.2954  0.5424
  531MOL0     H73260   4.936   0.952   9.163 -1.1073  1.9415  0.6022
  531MOL0     H73261   5.011   1.176   9.229 -0.0478  0.4125 -1.0307
  531MOL0     H73262   5.547   1.113  10.419 -0.5921  0.5589  0.2550
  531MOL0     H73263   5.452   1.194  10.611  1.0927  1.4709 -0.3919
  531MOL0     H73264   5.273   1.176  10.961 -0.9177 -1.3800  2.4485
  531MOL0     H73265   5.116   1.094  11.112  1.7041  0.9954 -0.0529
  531MOL0     H73266   4.794   0.930  11.200 -2.6667  3.4486  1.1353
  531MOL0     H73267   4.970   0.925  11.169  2.1622  1.8065  3.0649
  531MOL0     H73268   4.821   1.108  11.358  1.7150  1.3180  2.7200
  531MOL0     H73269   4.955   1.175  11.278 -3.8470  1.7209 -0.9731
  531MOL0     H73270   4.964   0.924  11.449  2.2348  0.2608  0.9161
  531MOL0     H73271   5.090   0.960  11.344  0.1223  1.3086 -0.4824
  531MOL0     H73272   5.085   1.203  11.458  1.8213 -0.4488 -0.9413
  531MOL0     H73273   5.153   1.061  11.543 -0.6943 -1.8031 -0.0103
  531MOL0     H73274   4.796   1.168  11.759 -0.3741  2.3090 -0.5967
  531MOL0     H73275   4.797   1.203  10.864 -0.3561  1.1221 -0.3557
  531MOL0     H73276   4.838   1.330  10.653  0.7472 -0.0816 -1.4277
  531MOL0     H73277   4.973   1.439  10.685  2.0759 -0.1189 -0.3163
  531MOL0     H73278   4.976   1.297  10.566  0.2946 -2.3597  0.8543
  532MOL0     O73279   9.354   8.150   0.559  0.1088  0.4826 -0.0584
  532MOL0     C73280   9.385   8.246   0.483  0.4935  0.5199  0.3712
  532MOL0     O73281   9.300   8.334   0.439  0.2158  0.5258 -0.1919
  532MOL0     C73282   9.170   8.335   0.491 -0.0207 -0.7920  0.2284
  532MOL0     C73283   9.061   8.322   0.409  0.0913  0.2650 -0.3717
  532MOL0     C73284   8.928   8.306   0.463  0.1675  0.8044  0.7586
  532MOL0     C73285   8.906   8.319   0.601  0.5447  0.3362  0.1737
  532MOL0     O73286   8.781   8.299   0.647 -0.1539 -0.0748  0.0138
  532MOL0     C73287   8.735   8.403   0.726 -0.4205 -0.3203 -0.6985
  532MOL0     C73288   8.640   8.489   0.645 -0.7332 -0.8211 -0.1629
  532MOL0     C73289   8.589   8.598   0.741  0.2243 -0.2592  0.8080
  532MOL0     C73290   8.473   8.668   0.672 -0.6838 -0.4373 -0.0599
  532MOL0     C73291   8.412   8.783   0.753 -0.5027 -0.1670  0.4523
  532MOL0     C73292   8.304   8.730   0.846  0.8694  0.7184 -0.7166
  532MOL0     C73293   8.224   8.839   0.919 -0.2769  0.2418  0.8581
  532MOL0     C73294   8.305   8.900   1.026 -0.8698  0.4853 -0.2618
  532MOL0     N73295   8.360   8.807   1.130  0.3113  0.0807  0.0289
  532MOL0     C73296   8.490   8.785   1.142 -0.4536  0.2491  1.3821
  532MOL0     C73297   8.508   8.684   1.220  0.5906  0.7564 -0.2864
  532MOL0     C73298   8.636   8.628   1.275 -1.0518 -0.6521  0.2753
  532MOL0     C73299   8.743   8.611   1.164  0.7789 -0.0792  0.1330
  532MOL0     C73300   8.860   8.521   1.216  0.0909  0.2514  0.3184
  532MOL0     C73301   8.842   8.369   1.205 -0.4230  0.3923  0.3010
  532MOL0     O73302   8.960   8.322   1.145 -0.3379 -0.4335  0.5766
  532MOL0     C73303   9.043   8.254   1.225  0.1903  0.1569  0.6016
  532MOL0     C73304   9.099   8.302   1.342 -0.5278 -1.0162  0.0936
  532MOL0     C73305   9.200   8.223   1.409 -0.5130 -0.0455 -0.1853
  532MOL0     C73306   9.267   8.299   1.522 -0.1184 -0.6439  0.2040
  532MOL0     C73307   9.234   8.090   1.367 -0.2143  1.0675 -0.8646
  532MOL0     C73308   9.338   8.002   1.435  0.1684  0.8815  0.7213
  532MOL0     O73309   9.403   8.063   1.536  0.5180 -0.2035  0.1470
  532MOL0     C73310   9.497   8.005   1.616  0.2844  0.2343 -0.2709
  532MOL0     C73311   9.493   7.872   1.664 -0.7818  0.8404 -0.1693
  532MOL0     C73312   9.575   7.841   1.767 -0.0231 -0.6459 -0.4236
  532MOL0     C73313   9.659   7.932   1.833  0.3625  1.0519 -0.7846
  532MOL0     O73314   9.731   7.896   1.936 -0.4353  0.2697 -0.1667
  532MOL0     C73315   9.807   7.774   1.939  0.3617  0.6578 -0.3507
  532MOL0     C73316   9.868   7.745   2.079  0.6222 -0.3963  0.4213
  532MOL0     C73317   9.946   7.610   2.087 -0.5000 -0.0407 -0.1393
  532MOL0     C73318   9.973   7.578   2.237  0.6308 -0.4831  0.4610
  532MOL0     C73319  10.046   7.451   2.245 -0.4182 -0.4780  0.3948
  532MOL0     C73320  10.057   7.405   2.389  0.0912  0.8867 -0.2680
  532MOL0     C73321  10.151   7.495   2.471 -0.7877 -0.1468 -0.0193
  532MOL0     C73322  10.175   7.439   2.613  0.0964 -0.0140  0.3627
  532MOL0    Cl73323  10.257   7.548   2.725 -0.1801  0.5263 -0.2915
  532MOL0     C73324   9.674   8.062   1.777 -0.3542  1.2407 -0.2066
  532MOL0     C73325   9.587   8.097   1.678 -0.8639 -0.0445 -0.2177
  532MOL0     O73326   9.367   7.899   1.378 -0.8301 -0.4960 -0.2560
  532MOL0     C73327   9.172   8.046   1.251  0.3018 -0.9396  0.3287
  532MOL0     C73328   9.074   8.123   1.181 -0.5065 -0.5647  0.4078
  532MOL0     N73329   8.389   8.631   1.251  0.6365 -0.1592 -0.0065
  532MOL0     N73330   8.293   8.714   1.207 -0.6617  0.5304  0.1982
  532MOL0     C73331   9.016   8.345   0.684 -0.0581 -0.5312  0.2130
  532MOL0     C73332   9.142   8.361   0.624  0.1769  0.5009 -0.4753
  532MOL0     C73333   9.532   8.253   0.437 -0.1289 -0.0630  0.0311
  532MOL0     C73334   9.630   8.151   0.485  0.3349 -0.3996  0.0632
  532MOL0     C73335   9.762   8.160   0.458  0.3947 -0.4497 -0.0534
  532MOL0     C73336   9.808   8.266   0.373 -0.3230 -0.6782 -1.0866
  532MOL0     O73337   9.946   8.281   0.334  0.6215  0.1329  0.4009
  532MOL0     C73338  10.032   8.161   0.332  0.7260 -0.5900 -0.0834
  532MOL0     C73339  10.016   8.130   0.182 -0.1418  0.4149  0.7406
  532MOL0     C73340  10.116   8.012   0.143 -0.0887  0.0042 -0.0127
  532MOL0     C73341  10.132   8.001  -0.009 -0.1126 -0.0447 -0.2092
  532MOL0     C73342  10.014   7.941  -0.064 -0.4124 -1.2614 -0.1615
  532MOL0     C73343   9.913   7.887  -0.109 -0.4271  1.0028  0.7653
  532MOL0     C73344   9.715   8.353   0.320  0.3660 -0.0255 -0.1463
  532MOL0     C73345   9.577   8.353   0.355  0.5684  0.2789  0.6444
  532MOL0     C73346   9.490   8.458   0.295 -0.2039  0.5700  0.1355
  532MOL0     H73347   9.084   8.309   0.304 -0.1742  2.7014 -0.8044
  532MOL0     H73348   8.842   8.283   0.401  1.7388  1.6588 -1.8885
  532MOL0     H73349   8.814   8.469   0.765 -1.0643  1.0228 -1.5783
  532MOL0     H73350   8.700   8.359   0.820  1.6837 -0.8910 -0.1420
  532MOL0     H73351   8.700   8.533   0.566  0.0289 -0.1829  0.7467
  532MOL0     H73352   8.566   8.429   0.592  1.8436 -1.0936 -3.8002
  532MOL0     H73353   8.551   8.569   0.839 -1.1153  1.6995  0.9248
  532MOL0     H73354   8.674   8.666   0.754 -0.6937  0.8777  1.1264
  532MOL0     H73355   8.498   8.712   0.575  1.1522 -1.1851  0.0375
  532MOL0     H73356   8.390   8.598   0.658 -0.6454 -0.5650  0.3534
  532MOL0     H73357   8.379   8.859   0.683  1.9523 -1.4823 -2.3269
  532MOL0     H73358   8.491   8.839   0.805 -1.3525  0.0100  1.5963
  532MOL0     H73359   8.234   8.667   0.789 -1.2824  1.0617  1.3796
  532MOL0     H73360   8.336   8.653   0.916 -0.6782 -0.4302 -1.2054
  532MOL0     H73361   8.133   8.786   0.950 -1.8662 -0.1089 -3.6988
  532MOL0     H73362   8.176   8.918   0.861 -0.9100  1.5304  2.9851
  532MOL0     H73363   8.388   8.960   0.987 -1.8274 -0.1893 -3.7267
  532MOL0     H73364   8.229   8.959   1.078 -1.8528 -0.2633 -0.8090
  532MOL0     H73365   8.557   8.855   1.093  0.2683 -1.0093  0.5044
  532MOL0     H73366   8.610   8.536   1.329 -0.6838 -0.2680  1.1131
  532MOL0     H73367   8.673   8.689   1.358  0.0323 -0.2695 -0.4653
  532MOL0     H73368   8.695   8.554   1.085 -2.9708  2.8047  0.0729
  532MOL0     H73369   8.769   8.710   1.127 -0.6019 -0.0078 -0.7003
  532MOL0     H73370   8.955   8.548   1.167  0.9439 -1.8633  0.7103
  532MOL0     H73371   8.877   8.542   1.322  0.6289  0.5847  0.1715
  532MOL0     H73372   8.825   8.323   1.303  0.7721  0.3253  0.4994
  532MOL0     H73373   8.755   8.349   1.144  0.7611 -0.7942 -1.0618
  532MOL0     H73374   9.075   8.401   1.379  0.7826 -0.9390  0.7776
  532MOL0     H73375   9.376   8.302   1.512 -0.2183 -1.0433 -1.2328
  532MOL0     H73376   9.246   8.244   1.614 -0.6975 -2.3696 -0.9225
  532MOL0     H73377   9.227   8.401   1.527 -0.4776 -0.5772 -2.5961
  532MOL0     H73378   9.439   7.787   1.623  1.7329 -2.1451  2.3023
  532MOL0     H73379   9.569   7.740   1.807  1.6029  0.2767  2.4743
  532MOL0     H73380   9.741   7.691   1.916 -0.4830  0.6677  1.8180
  532MOL0     H73381   9.885   7.770   1.862 -1.8779 -3.9481 -2.7476
  532MOL0     H73382   9.920   7.839   2.104 -1.3125  1.2367 -1.3432
  532MOL0     H73383   9.782   7.728   2.144  0.4734 -2.5582 -0.2814
  532MOL0     H73384  10.048   7.616   2.048  1.0748 -3.3863  2.8456
  532MOL0     H73385   9.909   7.518   2.041  0.8804 -0.9021  0.4076
  532MOL0     H73386   9.873   7.577   2.283  0.2753 -0.1866 -0.2846
  532MOL0     H73387  10.035   7.650   2.292  2.9197 -1.3571 -0.8619
  532MOL0     H73388   9.984   7.376   2.195  0.8100 -0.1096 -1.8173
  532MOL0     H73389  10.139   7.469   2.191 -0.3116  3.1885  1.4884
  532MOL0     H73390  10.095   7.303   2.388  0.2956  0.9563  0.2560
  532MOL0     H73391   9.955   7.407   2.429 -0.5422 -1.0698 -1.6560
  532MOL0     H73392  10.102   7.592   2.481  2.0850  1.3885  0.3096
  532MOL0     H73393  10.246   7.505   2.418 -1.0239  0.8712 -0.2796
  532MOL0     H73394  10.232   7.346   2.607  1.7938  1.0495 -0.7867
  532MOL0     H73395  10.074   7.417   2.650 -0.3575  0.9666 -0.2569
  532MOL0     H73396   9.749   8.131   1.814 -3.0439  3.0055  2.4014
  532MOL0     H73397   9.581   8.203   1.654 -1.7790 -0.0615 -0.1046
  532MOL0     H73398   9.199   7.948   1.212  2.2026 -0.3325  0.0033
  532MOL0     H73399   9.031   8.075   1.094  1.5708 -5.2917  1.6708
  532MOL0     H73400   8.994   8.340   0.790 -0.3025 -1.7311  0.1177
  532MOL0     H73401   9.222   8.381   0.694  0.2269 -0.3859 -0.2697
  532MOL0     H73402   9.600   8.063   0.540  1.9440 -0.9110  0.1687
  532MOL0     H73403   9.833   8.094   0.508 -2.9461 -2.4256  2.4827
  532MOL0     H73404  10.132   8.188   0.365  1.3748  1.0470 -2.9917
  532MOL0     H73405  10.010   8.077   0.398  3.0213 -0.7752  0.5273
  532MOL0     H73406  10.053   8.215   0.125  2.6535 -1.8084 -1.0373
  532MOL0     H73407   9.911   8.116   0.154 -0.4952  2.9297  0.5471
  532MOL0     H73408  10.216   8.028   0.182 -0.7891 -0.0727  1.9298
  532MOL0     H73409  10.092   7.909   0.173 -0.2775 -0.0908 -0.4896
  532MOL0     H73410  10.216   7.936  -0.035 -0.8880 -1.4078  0.5699
  532MOL0     H73411  10.131   8.095  -0.065 -1.7596  1.2401  1.8046
  532MOL0     H73412   9.822   7.851  -0.154 -0.4079 -0.6610  1.9808
  532MOL0     H73413   9.754   8.431   0.255  1.4055 -1.3719 -1.2140
  532MOL0     H73414   9.458   8.532   0.369 -1.7840 -1.1923  1.3092
  532MOL0     H73415   9.550   8.518   0.226  0.3023 -1.7599 -1.6109
  532MOL0     H73416   9.400   8.420   0.245  0.3839  0.4821 -0.8987
  533MOL0     O73417   8.676   9.372   5.835 -0.4054  0.6522  0.4811
  533MOL0     C73418   8.562   9.347   5.784  0.2246  0.6990  0.3359
  533MOL0     O73419   8.510   9.410   5.683  0.1336 -0.0396 -0.5164
  533MOL0     C73420   8.573   9.499   5.604 -0.8302 -0.5944  0.3057
  533MOL0     C73421   8.662   9.587   5.652 -0.0910  0.3665  0.0913
  533MOL0     C73422   8.734   9.665   5.570 -0.4425 -0.0047 -0.2966
  533MOL0     C73423   8.715   9.652   5.432 -0.0374 -0.0707 -0.1076
  533MOL0     O73424   8.802   9.735   5.364  0.0073 -0.3638  0.0721
  533MOL0     C73425   8.854   9.706   5.230  0.4381  0.4551 -1.3113
  533MOL0     C73426   8.970   9.606   5.240 -0.2503 -0.8448 -0.1934
  533MOL0     C73427   9.014   9.568   5.096 -0.4518 -0.7248 -0.3590
  533MOL0     C73428   9.126   9.460   5.098 -0.8848 -0.5794 -0.1117
  533MOL0     C73429   9.256   9.516   5.179  0.2876  1.7535  1.0743
  533MOL0     C73430   9.385   9.434   5.157 -0.1143 -0.5773 -0.0159
  533MOL0     C73431   9.497   9.507   5.236  0.0315 -0.8165  0.1285
  533MOL0     C73432   9.633   9.439   5.252 -0.5611 -0.2128  0.1037
  533MOL0     N73433   9.699   9.428   5.118  0.6851  0.5323 -0.1301
  533MOL0     C73434   9.694   9.512   5.010 -0.6269  0.9175 -0.1986
  533MOL0     C73435   9.723   9.432   4.905 -1.2103 -0.5501 -0.1411
  533MOL0     C73436   9.743   9.464   4.750  0.2627 -0.0833 -0.4107
  533MOL0     C73437   9.617   9.527   4.692 -0.4994 -0.1690  0.4958
  533MOL0     C73438   9.625   9.525   4.546 -0.1545 -0.1173 -0.2602
  533MOL0     C73439   9.497   9.569   4.478 -0.1700 -0.8221  0.3470
  533MOL0     O73440   9.503   9.711   4.468 -0.6119  0.0050  0.0976
  533MOL0     C73441   9.388   9.780   4.441  0.8005 -0.5833  0.1558
  533MOL0     C73442   9.267   9.739   4.388  0.3005 -0.7846 -1.2264
  533MOL0     C73443   9.151   9.824   4.385  0.0096  0.9370 -0.7760
  533MOL0     C73444   9.029   9.735   4.362 -0.1744  0.5329  0.0376
  533MOL0     C73445   9.164   9.955   4.430  0.2459  0.0886 -0.9784
  533MOL0     C73446   9.051  10.040   4.426  0.8195  0.6085 -0.5493
  533MOL0     O73447   8.931   9.988   4.391  0.6984 -0.0692 -0.3278
  533MOL0     C73448   8.823  10.076   4.398 -1.1179  0.3547  0.0574
  533MOL0     C73449   8.782  10.140   4.516 -0.4051 -0.4088  1.0212
  533MOL0     C73450   8.671  10.220   4.511 -0.3786 -0.1699  0.0829
  533MOL0     C73451   8.587  10.236   4.403 -0.4327 -0.0883 -0.0107
  533MOL0     O73452   8.480  10.316   4.406  0.0324 -0.1036 -0.1281
  533MOL0     C73453   8.366  10.276   4.330 -0.0525  0.5391 -0.6633
  533MOL0     C73454   8.249  10.370   4.343 -0.6375  0.3876 -0.3650
  533MOL0     C73455   8.261  10.500   4.271  0.0254  0.4087 -0.3753
  533MOL0     C73456   8.155  10.601   4.305  0.6037 -0.5704  0.0994
  533MOL0     C73457   8.188  10.723   4.227 -0.0158 -0.8182 -0.8173
  533MOL0     C73458   8.091  10.829   4.258  0.1807  0.2016 -0.0409
  533MOL0     C73459   8.136  10.973   4.217  0.6406 -0.0856  0.2855
  533MOL0     C73460   8.158  11.005   4.063 -0.3193  0.5746 -0.4967
  533MOL0    Cl73461   8.002  11.019   3.973 -0.3930  0.6904  0.4840
  533MOL0     C73462   8.616  10.144   4.297 -0.2118 -0.5146 -0.2043
  533MOL0     C73463   8.736  10.066   4.293 -0.1358 -0.1316  0.0324
  533MOL0     O73464   9.067  10.160   4.452  0.0979  0.3190 -0.3254
  533MOL0     C73465   9.290   9.994   4.487 -0.1935  0.0482  0.2326
  533MOL0     C73466   9.390   9.911   4.482  0.0246  0.0867 -0.0232
  533MOL0     N73467   9.756   9.304   4.953 -0.0265  0.5504  0.2343
  533MOL0     N73468   9.752   9.303   5.079 -0.6511  0.8518 -0.2283
  533MOL0     C73469   8.616   9.570   5.372 -0.1032  0.0965 -0.5839
  533MOL0     C73470   8.547   9.490   5.467 -0.0662  0.5142  0.2194
  533MOL0     C73471   8.489   9.235   5.830  0.6705  0.3683 -1.0061
  533MOL0     C73472   8.355   9.243   5.824  0.7925  0.7896 -0.6397
  533MOL0     C73473   8.270   9.138   5.877  0.0378  0.7318  1.0479
  533MOL0     C73474   8.327   9.023   5.938  0.5614 -0.0046 -0.2740
  533MOL0     O73475   8.244   8.917   5.976  0.1322 -0.3581  0.0872
  533MOL0     C73476   8.145   8.870   5.882 -0.3689  0.2243 -0.5973
  533MOL0     C73477   8.213   8.831   5.749  0.5813  0.2604  1.0763
  533MOL0     C73478   8.140   8.705   5.692  0.3644 -0.1782 -0.0514
  533MOL0     C73479   8.169   8.679   5.548 -0.6201  0.4535  0.2059
  533MOL0     C73480   8.062   8.712   5.457  0.5102  0.3745  0.5710
  533MOL0     C73481   7.960   8.738   5.397 -0.5580  0.0572  0.0297
  533MOL0     C73482   8.470   9.012   5.933  1.0138 -0.3550 -0.3879
  533MOL0     C73483   8.540   9.118   5.876  1.1572 -0.1754 -0.7028
  533MOL0     C73484   8.692   9.092   5.856  0.6196  0.2233 -0.3413
  533MOL0     H73485   8.676   9.592   5.760 -1.9315 -1.3255  0.4659
  533MOL0     H73486   8.801   9.734   5.620  0.6525  0.2715 -2.0557
  533MOL0     H73487   8.907   9.795   5.195  0.5556  1.2037  0.6325
  533MOL0     H73488   8.778   9.680   5.157  0.1525 -4.4602  0.3890
  533MOL0     H73489   9.046   9.657   5.300 -1.6218 -0.0982  0.9684
  533MOL0     H73490   8.952   9.514   5.297  0.4260 -0.8537  0.0208
  533MOL0     H73491   8.937   9.522   5.034 -0.4773 -1.2655  0.0687
  533MOL0     H73492   9.056   9.659   5.052  0.2413 -0.2790  1.1542
  533MOL0     H73493   9.095   9.361   5.133 -1.2732 -0.7000 -0.7868
  533MOL0     H73494   9.157   9.441   4.994  0.4000 -0.3635  0.2167
  533MOL0     H73495   9.227   9.503   5.284 -0.2877 -1.3107  0.6355
  533MOL0     H73496   9.268   9.621   5.154 -2.6745  1.9490  0.0961
  533MOL0     H73497   9.365   9.332   5.191  3.3051 -1.1380  0.6995
  533MOL0     H73498   9.406   9.433   5.049 -0.3487  3.5895 -0.2753
  533MOL0     H73499   9.452   9.515   5.335  0.9590 -1.7431  0.6348
  533MOL0     H73500   9.511   9.604   5.187  1.3230 -1.1599 -0.2204
  533MOL0     H73501   9.697   9.495   5.321 -3.6948  2.7055  0.9330
  533MOL0     H73502   9.623   9.333   5.276 -0.4114 -0.3582 -0.4653
  533MOL0     H73503   9.685   9.620   5.008  3.2788  1.3936 -0.3045
  533MOL0     H73504   9.754   9.365   4.705  2.4255 -1.0366  1.9866
  533MOL0     H73505   9.833   9.518   4.720 -1.0632  1.7756 -1.1925
  533MOL0     H73506   9.528   9.476   4.729 -1.2225  0.7388  0.0578
  533MOL0     H73507   9.606   9.626   4.737 -5.8304  0.6884 -1.9244
  533MOL0     H73508   9.702   9.592   4.506 -0.8541  1.0536  0.2977
  533MOL0     H73509   9.661   9.427   4.513  0.2895  0.8578 -2.8755
  533MOL0     H73510   9.482   9.525   4.379 -0.6259  2.2174 -1.0683
  533MOL0     H73511   9.409   9.543   4.538 -0.5038 -0.8360 -0.1452
  533MOL0     H73512   9.284   9.636   4.358  5.2670 -1.0915  1.6400
  533MOL0     H73513   9.055   9.631   4.342 -0.0485  0.4620  0.5609
  533MOL0     H73514   8.973   9.775   4.277  1.1287 -0.1477 -1.1843
  533MOL0     H73515   8.966   9.745   4.451 -1.4736  0.2208 -0.8195
  533MOL0     H73516   8.844  10.131   4.605  0.2359 -1.2710  0.5087
  533MOL0     H73517   8.660  10.283   4.599  0.9525  1.0140 -0.5692
  533MOL0     H73518   8.394  10.289   4.225  2.4821  1.4173  0.0449
  533MOL0     H73519   8.333  10.179   4.367 -0.0457  0.6082 -0.4734
  533MOL0     H73520   8.167  10.312   4.300 -1.8813  2.6253 -1.1861
  533MOL0     H73521   8.230  10.378   4.450  0.6932  1.9087 -0.2032
  533MOL0     H73522   8.268  10.491   4.162  1.8913  1.1530 -0.3656
  533MOL0     H73523   8.355  10.546   4.304 -0.3932  0.8630  0.2050
  533MOL0     H73524   8.159  10.627   4.411 -2.0541 -0.1027  0.1710
  533MOL0     H73525   8.051  10.570   4.285 -0.4247  2.6351  0.0153
  533MOL0     H73526   8.289  10.765   4.236 -1.0394  2.2679 -2.4089
  533MOL0     H73527   8.177  10.703   4.120  0.9852 -0.1918 -1.0562
  533MOL0     H73528   8.085  10.827   4.367 -1.0399  1.3961 -0.0544
  533MOL0     H73529   7.992  10.808   4.216  1.2406 -1.6425 -1.7729
  533MOL0     H73530   8.232  10.986   4.269  0.3619 -2.1882  1.4487
  533MOL0     H73531   8.072  11.052   4.258  0.1031 -0.4015  0.0661
  533MOL0     H73532   8.218  10.927   4.015  0.3011  0.8174 -0.1216
  533MOL0     H73533   8.227  11.089   4.053  0.1718  0.8521  3.4751
  533MOL0     H73534   8.552  10.135   4.210 -1.3799 -0.7126  0.6500
  533MOL0     H73535   8.761   9.991   4.219  0.0959 -4.1219  3.7420
  533MOL0     H73536   9.300  10.099   4.509 -1.7165  1.1354 -3.5504
  533MOL0     H73537   9.483   9.949   4.524  0.9858 -0.2938 -1.6861
  533MOL0     H73538   8.608   9.585   5.265 -0.3707  2.7696 -0.2535
  533MOL0     H73539   8.484   9.409   5.430 -0.4324  0.7215  0.3881
  533MOL0     H73540   8.302   9.322   5.771 -3.1145 -1.0776  0.0965
  533MOL0     H73541   8.162   9.141   5.868  0.2217  1.0187 -2.5055
  533MOL0     H73542   8.096   8.792   5.940  0.9111  0.6372  1.1491
  533MOL0     H73543   8.074   8.945   5.846  1.5977  1.0047 -3.1800
  533MOL0     H73544   8.320   8.811   5.766  0.7589 -0.1820 -0.4169
  533MOL0     H73545   8.188   8.915   5.684 -0.6978 -0.3748  0.7219
  533MOL0     H73546   8.179   8.623   5.752  0.0082 -0.0380  0.3835
  533MOL0     H73547   8.032   8.706   5.712 -0.0388  0.3083 -1.9574
  533MOL0     H73548   8.188   8.572   5.540  1.1177  0.6633  1.0167
  533MOL0     H73549   8.264   8.725   5.519 -0.7882  0.4905 -0.2937
  533MOL0     H73550   7.878   8.777   5.340  0.5874  2.0255 -0.3605
  533MOL0     H73551   8.505   8.918   5.975 -1.1129 -0.1451  2.1192
  533MOL0     H73552   8.708   8.985   5.840 -0.8038 -0.1519  0.5339
  533MOL0     H73553   8.728   9.147   5.768 -1.5158  1.1539 -0.6912
  533MOL0     H73554   8.744   9.120   5.948 -0.0125 -0.8727  0.3642
  534MOL0     O73555   2.518   5.793   7.757  0.5205 -0.4467  0.0498
  534MOL0     C73556   2.510   5.724   7.656 -0.1281 -0.0548 -0.6471
  534MOL0     O73557   2.601   5.640   7.608  0.4689 -0.1866 -0.6406
  534MOL0     C73558   2.725   5.644   7.674  0.4919 -0.4683  0.3532
  534MOL0     C73559   2.829   5.707   7.605  0.4085 -0.2253  0.6218
  534MOL0     C73560   2.953   5.718   7.665 -0.1251  0.1954 -1.0136
  534MOL0     C73561   2.967   5.693   7.802  0.9790 -0.4569 -0.2777
  534MOL0     O73562   3.074   5.719   7.874 -0.1398 -0.6835 -0.3497
  534MOL0     C73563   3.059   5.807   7.983  0.3930 -0.4600 -0.0693
  534MOL0     C73564   3.183   5.856   8.054 -0.0697 -0.4755  0.1435
  534MOL0     C73565   3.262   5.947   7.966 -0.3844 -0.0789  0.3953
  534MOL0     C73566   3.399   5.981   8.031  1.2051  0.4727  0.3725
  534MOL0     C73567   3.473   6.076   7.944 -0.1552 -0.3631 -0.4087
  534MOL0     C73568   3.613   6.090   8.002  0.8746 -0.6665  0.3049
  534MOL0     C73569   3.687   6.203   7.932  0.3802 -0.7940 -0.6959
  534MOL0     C73570   3.714   6.185   7.786  0.0822  0.0006 -0.1935
  534MOL0     N73571   3.806   6.295   7.733 -0.5469  0.4102 -0.5706
  534MOL0     C73572   3.941   6.285   7.714 -0.5689 -0.2210 -0.5840
  534MOL0     C73573   3.979   6.404   7.675  0.1004 -0.1667 -0.1039
  534MOL0     C73574   4.128   6.436   7.638 -0.6922 -0.2581 -1.0611
  534MOL0     C73575   4.182   6.377   7.504  0.1815  0.0631  0.3433
  534MOL0     C73576   4.084   6.398   7.387 -0.3075 -0.3350  0.2014
  534MOL0     C73577   4.057   6.543   7.368  0.0373  0.5824  0.7441
  534MOL0     O73578   3.966   6.544   7.258 -0.3508 -0.0492 -0.6429
  534MOL0     C73579   3.943   6.662   7.191  1.1317 -0.2979  0.1798
  534MOL0     C73580   3.935   6.791   7.243 -0.5587  0.4884 -0.1550
  534MOL0     C73581   3.908   6.911   7.166  0.7257 -0.1990 -0.4236
  534MOL0     C73582   3.947   7.047   7.218 -0.1424  0.3374  0.2991
  534MOL0     C73583   3.862   6.890   7.028  0.1637 -0.5230  0.5512
  534MOL0     C73584   3.824   6.997   6.926  0.1367  0.0104  0.0702
  534MOL0     O73585   3.750   7.107   6.960 -0.2259  0.1116  0.0154
  534MOL0     C73586   3.717   7.191   6.856 -0.3964 -1.0308  1.0322
  534MOL0     C73587   3.584   7.200   6.817 -0.3547 -0.6528 -0.3155
  534MOL0     C73588   3.543   7.290   6.715 -0.0773  0.5658  0.0092
  534MOL0     C73589   3.629   7.382   6.654  0.9809 -0.2739  0.0742
  534MOL0     O73590   3.575   7.463   6.556  0.1689  0.6765 -0.1744
  534MOL0     C73591   3.670   7.550   6.494  0.1934 -0.1700  0.3207
  534MOL0     C73592   3.579   7.610   6.394 -0.0901  0.1955 -0.3058
  534MOL0     C73593   3.655   7.692   6.300 -1.2319 -0.2853 -0.5606
  534MOL0     C73594   3.567   7.768   6.209  0.6750 -0.0516  0.1775
  534MOL0     C73595   3.636   7.780   6.073 -0.4352  0.6535  0.4188
  534MOL0     C73596   3.770   7.859   6.067 -0.5071  0.0512  0.0790
  534MOL0     C73597   3.756   8.016   6.075 -0.6457 -0.0163  0.7508
  534MOL0     C73598   3.882   8.093   6.019  0.9459 -0.2971  0.2827
  534MOL0    Cl73599   4.015   8.088   6.144  0.4008 -0.3895 -0.2396
  534MOL0     C73600   3.762   7.380   6.700 -0.2114 -0.8518  0.1859
  534MOL0     C73601   3.806   7.282   6.796 -0.2952 -0.7891 -0.3906
  534MOL0     O73602   3.875   6.984   6.815 -0.1053 -0.6261  0.0487
  534MOL0     C73603   3.844   6.757   6.992 -0.0027 -1.1097 -0.0217
  534MOL0     C73604   3.880   6.647   7.069  0.1930 -0.6911 -0.4730
  534MOL0     N73605   3.873   6.486   7.671 -0.9610 -0.0082  0.2994
  534MOL0     N73606   3.770   6.425   7.709  0.3538  0.5806  0.4493
  534MOL0     C73607   2.857   5.638   7.872 -0.3132 -0.2287 -0.5354
  534MOL0     C73608   2.737   5.608   7.811  0.3059  0.5131 -0.7361
  534MOL0     C73609   2.389   5.740   7.577  0.4747  0.5822 -0.6954
  534MOL0     C73610   2.273   5.728   7.650 -0.1484  0.8411  0.1540
  534MOL0     C73611   2.153   5.733   7.590 -0.5357  1.4662  0.2495
  534MOL0     C73612   2.140   5.768   7.459 -0.0944  0.8447  0.1108
  534MOL0     O73613   2.020   5.788   7.400 -0.1160  0.2095  0.0691
  534MOL0     C73614   1.931   5.891   7.457 -0.1993  0.0762  0.6179
  534MOL0     C73615   1.896   6.004   7.362 -0.9739 -0.4652 -0.4798
  534MOL0     C73616   1.915   5.977   7.209 -0.1928  0.2440 -0.2602
  534MOL0     C73617   1.810   6.049   7.132  0.9801  0.0825 -0.0131
  534MOL0     C73618   1.845   6.190   7.139 -0.1947 -1.1830 -0.0615
  534MOL0     C73619   1.881   6.301   7.154  0.2882 -0.1699 -0.5042
  534MOL0     C73620   2.257   5.774   7.385  1.2547 -0.3471  0.0853
  534MOL0     C73621   2.385   5.761   7.437 -0.2923  0.3933 -0.3614
  534MOL0     C73622   2.501   5.797   7.350 -0.0219  0.6679  0.3008
  534MOL0     H73623   2.805   5.736   7.503 -1.3308 -2.8758  0.1733
  534MOL0     H73624   3.044   5.756   7.618 -0.0985  1.5564  0.0607
  534MOL0     H73625   2.997   5.751   8.053  1.2504 -0.8797  0.3772
  534MOL0     H73626   2.998   5.896   7.961  0.1206  0.3075  3.2488
  534MOL0     H73627   3.160   5.897   8.152 -1.5143  3.9878 -1.8308
  534MOL0     H73628   3.231   5.758   8.065 -0.6457 -0.6673  1.0111
  534MOL0     H73629   3.286   5.915   7.864 -0.7520  4.9245 -1.5419
  534MOL0     H73630   3.207   6.041   7.960  1.8460  1.3015  0.2719
  534MOL0     H73631   3.394   6.014   8.135  0.1574 -0.0483  0.5033
  534MOL0     H73632   3.453   5.890   8.056 -0.8198 -0.7844  0.4202
  534MOL0     H73633   3.420   6.171   7.934 -1.8901 -0.9929  1.9050
  534MOL0     H73634   3.472   6.044   7.839  3.2723 -1.3969 -0.2303
  534MOL0     H73635   3.596   6.119   8.106  0.7924 -1.3041  0.4704
  534MOL0     H73636   3.669   5.996   7.999  1.2781 -0.5011  1.8789
  534MOL0     H73637   3.785   6.216   7.979 -1.5017  2.1176  2.9055
  534MOL0     H73638   3.646   6.304   7.944  2.6915  0.3458 -1.7153
  534MOL0     H73639   3.770   6.096   7.757  2.0130  1.5740 -1.6289
  534MOL0     H73640   3.620   6.190   7.731  0.4275  0.6211 -0.7534
  534MOL0     H73641   4.005   6.198   7.720  1.0556  0.8406 -1.6502
  534MOL0     H73642   4.176   6.380   7.718  0.0932  0.4059 -1.0616
  534MOL0     H73643   4.140   6.544   7.646 -4.8222  0.2855  0.2549
  534MOL0     H73644   4.284   6.407   7.475 -0.1411 -0.9500 -2.1179
  534MOL0     H73645   4.185   6.271   7.527 -2.6407 -0.1312  0.0681
  534MOL0     H73646   4.120   6.354   7.294  0.1679 -0.8832  0.6347
  534MOL0     H73647   3.988   6.350   7.407 -1.3247  0.2781 -2.7388
  534MOL0     H73648   4.017   6.590   7.458 -4.9614  0.3555 -1.0596
  534MOL0     H73649   4.150   6.588   7.331  1.8407 -1.8415  2.0115
  534MOL0     H73650   3.967   6.808   7.345  0.8186 -0.5790 -0.3734
  534MOL0     H73651   4.002   7.110   7.148 -0.6356  1.6038  1.0218
  534MOL0     H73652   4.010   7.047   7.308  0.2487  3.5564  0.1325
  534MOL0     H73653   3.859   7.099   7.256 -0.4497  2.5561 -3.0699
  534MOL0     H73654   3.506   7.153   6.876 -0.5614  1.7327  1.4595
  534MOL0     H73655   3.438   7.310   6.697  0.1160  2.6768  0.8414
  534MOL0     H73656   3.711   7.623   6.564 -1.2450 -0.5382  1.6088
  534MOL0     H73657   3.753   7.494   6.449 -0.4457 -1.4504  0.6737
  534MOL0     H73658   3.537   7.528   6.334 -0.8184 -0.3833  0.9648
  534MOL0     H73659   3.501   7.668   6.443 -0.2839 -0.3792  0.0807
  534MOL0     H73660   3.731   7.625   6.260  0.1024 -0.0426  1.3993
  534MOL0     H73661   3.700   7.773   6.358 -0.3319 -1.6696  0.7554
  534MOL0     H73662   3.537   7.869   6.237  0.5404  0.3435 -1.3350
  534MOL0     H73663   3.482   7.702   6.189  0.7091 -0.3107  0.8507
  534MOL0     H73664   3.660   7.682   6.031  0.6701  2.0108 -2.3939
  534MOL0     H73665   3.568   7.823   5.998  0.2617 -2.4052 -2.1974
  534MOL0     H73666   3.818   7.834   5.972  1.7153 -1.6952  1.5313
  534MOL0     H73667   3.844   7.822   6.140  1.0541 -0.9139 -1.8821
  534MOL0     H73668   3.725   8.046   6.176  0.7918  3.7541  0.2097
  534MOL0     H73669   3.677   8.047   6.006 -2.3415  0.3367  2.7160
  534MOL0     H73670   3.870   8.197   5.985 -1.3351 -0.5539  0.2131
  534MOL0     H73671   3.914   8.036   5.931 -3.5939 -1.7334 -0.6692
  534MOL0     H73672   3.840   7.448   6.667 -1.2507  0.8457  1.0521
  534MOL0     H73673   3.909   7.267   6.829 -0.0586  1.6775  0.1700
  534MOL0     H73674   3.785   6.747   6.902  1.2443 -1.5254 -0.8061
  534MOL0     H73675   3.851   6.548   7.036  0.4824 -1.0169  0.2345
  534MOL0     H73676   2.867   5.615   7.977  0.9916 -2.1080 -1.0043
  534MOL0     H73677   2.650   5.568   7.861 -0.0685  0.6332 -1.2771
  534MOL0     H73678   2.263   5.723   7.758 -3.0127  1.1514 -0.0201
  534MOL0     H73679   2.072   5.712   7.658  1.2164  0.1708  2.0727
  534MOL0     H73680   1.845   5.837   7.497 -0.9087  0.1915 -0.6873
  534MOL0     H73681   1.979   5.940   7.542 -0.5071 -0.3058  1.0181
  534MOL0     H73682   1.972   6.077   7.392 -0.0122 -1.9503  0.8438
  534MOL0     H73683   1.793   6.021   7.393 -0.4267 -4.1785  4.5292
  534MOL0     H73684   2.015   5.990   7.165  0.0436  2.0254  0.6966
  534MOL0     H73685   1.892   5.871   7.192 -1.8414  0.5331  0.0535
  534MOL0     H73686   1.709   6.039   7.173  0.9590  3.2071  0.9681
  534MOL0     H73687   1.808   6.022   7.026  1.6922 -1.1774  0.2748
  534MOL0     H73688   1.915   6.397   7.186 -2.6428  0.3257  1.5435
  534MOL0     H73689   2.251   5.809   7.282  0.9036  0.0598  0.2416
  534MOL0     H73690   2.505   5.899   7.311  0.9943  1.4414  2.2707
  534MOL0     H73691   2.598   5.787   7.401  0.0070 -0.4277  0.0554
  534MOL0     H73692   2.514   5.718   7.275  3.4313 -1.6488  3.0157
  535MOL0     O73693   5.775   5.728   1.689  0.2986 -0.1571 -0.6909
  535MOL0     C73694   5.760   5.781   1.578 -0.0955 -0.2275  0.1133
  535MOL0     O73695   5.867   5.805   1.497  0.0550 -0.3644  0.3223
  535MOL0     C73696   5.996   5.773   1.520 -0.0456 -0.0351 -0.8056
  535MOL0     C73697   6.088   5.748   1.413  0.1547  0.1141 -0.7405
  535MOL0     C73698   6.222   5.709   1.440 -0.6320 -0.0397  0.5607
  535MOL0     C73699   6.276   5.704   1.571 -0.6541  0.5024  0.2624
  535MOL0     O73700   6.413   5.678   1.587 -0.4849 -0.3256  0.0778
  535MOL0     C73701   6.456   5.558   1.528 -0.3555 -0.4026 -0.2922
  535MOL0     C73702   6.605   5.534   1.557  0.8406 -0.7109  0.3821
  535MOL0     C73703   6.622   5.514   1.715  0.2612  0.3731  0.2452
  535MOL0     C73704   6.776   5.508   1.745 -0.7373 -0.3034  0.2947
  535MOL0     C73705   6.814   5.504   1.879  0.0254  0.0063  0.3297
  535MOL0     C73706   6.746   5.387   1.959  0.8841  0.7271  0.1720
  535MOL0     C73707   6.826   5.343   2.087  1.2101  0.0444  0.0239
  535MOL0     C73708   6.800   5.449   2.194 -0.4510 -0.3855  0.0835
  535MOL0     N73709   6.928   5.468   2.262  0.1434  0.1484  0.2682
  535MOL0     C73710   6.953   5.451   2.401  0.5792  0.5767  0.2530
  535MOL0     C73711   7.078   5.502   2.420 -0.1841  0.1207 -1.3247
  535MOL0     C73712   7.173   5.501   2.542 -0.4265  0.8807  0.2704
  535MOL0     C73713   7.152   5.405   2.659 -1.2404 -0.9188 -0.1098
  535MOL0     C73714   7.275   5.397   2.744 -0.6582  0.0641  0.9865
  535MOL0     C73715   7.288   5.305   2.861  0.5075  0.4989 -0.9776
  535MOL0     O73716   7.209   5.181   2.854 -0.2195 -0.4589 -1.1577
  535MOL0     C73717   7.080   5.166   2.891  0.1595 -0.6296  1.4760
  535MOL0     C73718   7.023   5.043   2.868  1.5538  0.1205 -0.3812
  535MOL0     C73719   6.881   5.029   2.883  0.4178 -0.6798  0.1778
  535MOL0     C73720   6.826   4.885   2.847 -0.4429 -0.7078 -0.0943
  535MOL0     C73721   6.789   5.139   2.903 -0.0139 -0.7053 -0.1851
  535MOL0     C73722   6.641   5.128   2.900  0.4086 -0.0954 -0.1843
  535MOL0     O73723   6.582   5.009   2.886  0.4175  0.0579 -0.1335
  535MOL0     C73724   6.443   5.014   2.889 -0.7505  0.3743 -0.0501
  535MOL0     C73725   6.370   5.088   2.791  1.2999 -0.2155 -0.8799
  535MOL0     C73726   6.230   5.070   2.773 -0.8015 -0.0175  0.1869
  535MOL0     C73727   6.165   4.970   2.850  0.0554 -0.4768 -0.0494
  535MOL0     O73728   6.028   4.943   2.814 -0.1085 -0.7674 -0.0733
  535MOL0     C73729   5.934   4.903   2.920 -1.4889  0.3946 -0.3004
  535MOL0     C73730   5.786   4.921   2.893  1.0276  0.0149  0.3544
  535MOL0     C73731   5.732   4.792   2.835  0.9672  0.2027  0.4232
  535MOL0     C73732   5.610   4.824   2.744  0.1382  0.3889  0.4557
  535MOL0     C73733   5.558   4.694   2.672 -0.9926 -0.8071  0.6655
  535MOL0     C73734   5.461   4.724   2.559  0.4030  0.2646  0.2647
  535MOL0     C73735   5.384   4.607   2.498 -0.0486  0.5582  0.5033
  535MOL0     C73736   5.352   4.623   2.344  0.9613  0.1588 -0.0680
  535MOL0    Cl73737   5.208   4.713   2.329  0.1217  0.1219  0.0165
  535MOL0     C73738   6.233   4.898   2.943 -0.3536 -0.9871  0.8526
  535MOL0     C73739   6.374   4.925   2.967  0.1428  0.5804 -0.3767
  535MOL0     O73740   6.583   5.231   2.928  0.4004  0.0158 -0.2096
  535MOL0     C73741   6.857   5.264   2.926 -0.3781 -0.1340 -0.5441
  535MOL0     C73742   6.996   5.275   2.930  0.3754  0.9204 -0.3983
  535MOL0     N73743   7.113   5.565   2.301 -0.4601  1.1647  1.0969
  535MOL0     N73744   7.024   5.550   2.212  0.6849  0.3792  0.9526
  535MOL0     C73745   6.186   5.737   1.673  0.7724  0.5772  0.8047
  535MOL0     C73746   6.050   5.773   1.645  0.4301  0.4030 -0.6375
  535MOL0     C73747   5.630   5.836   1.537 -0.0142 -0.4664  0.5204
  535MOL0     C73748   5.542   5.881   1.636  1.3855  0.2881 -0.4990
  535MOL0     C73749   5.411   5.938   1.601 -0.3416  0.5789  0.7284
  535MOL0     C73750   5.378   5.947   1.473  0.5567  0.5946 -0.1552
  535MOL0     O73751   5.266   6.017   1.442  0.5691  0.2081 -0.6714
  535MOL0     C73752   5.217   6.038   1.310  0.3190 -0.3263  0.0249
  535MOL0     C73753   5.084   6.115   1.313 -0.8194 -0.0963 -0.6238
  535MOL0     C73754   4.990   6.068   1.419  0.3577  0.1361  0.7534
  535MOL0     C73755   4.849   6.126   1.402 -0.3870 -0.4326  0.0916
  535MOL0     C73756   4.854   6.270   1.402  0.1865  0.5693 -0.2086
  535MOL0     C73757   4.866   6.387   1.368 -0.2373 -0.6729 -0.1259
  535MOL0     C73758   5.457   5.897   1.374 -0.6313 -0.2190 -0.5868
  535MOL0     C73759   5.592   5.853   1.408  0.4000  0.9424 -0.5236
  535MOL0     C73760   5.671   5.829   1.281 -0.3628  0.0609 -0.0144
  535MOL0     H73761   6.046   5.760   1.314  1.4733 -1.6489 -1.5704
  535MOL0     H73762   6.292   5.694   1.359 -0.9312 -3.1630  0.7369
  535MOL0     H73763   6.435   5.546   1.421 -0.1720  0.2596 -0.4064
  535MOL0     H73764   6.395   5.479   1.572 -0.9875  0.2348 -0.0180
  535MOL0     H73765   6.642   5.442   1.511  1.0908 -1.5442  2.1523
  535MOL0     H73766   6.656   5.623   1.520 -1.1615  0.4373  0.2723
  535MOL0     H73767   6.576   5.596   1.770 -0.6488 -2.2859  3.8646
  535MOL0     H73768   6.570   5.430   1.763 -1.7751  1.0127 -0.7152
  535MOL0     H73769   6.821   5.434   1.678 -2.3248  1.5651 -3.1058
  535MOL0     H73770   6.819   5.601   1.706 -1.0586 -0.9309 -1.6756
  535MOL0     H73771   6.803   5.602   1.926  2.4137  1.7661 -2.4472
  535MOL0     H73772   6.920   5.486   1.896 -0.4268 -2.6849  0.7677
  535MOL0     H73773   6.639   5.402   1.979  0.0547 -0.0189 -3.1153
  535MOL0     H73774   6.757   5.294   1.902  2.5264 -1.7760  4.1794
  535MOL0     H73775   6.930   5.344   2.053  0.3614  0.1632 -2.7917
  535MOL0     H73776   6.801   5.241   2.117  2.2765  0.0021  0.8736
  535MOL0     H73777   6.767   5.547   2.159  0.5438 -0.7831 -2.2096
  535MOL0     H73778   6.729   5.398   2.259  1.6072 -2.9625  0.4827
  535MOL0     H73779   6.899   5.387   2.471  0.3159 -1.0541 -1.3690
  535MOL0     H73780   7.176   5.601   2.586 -4.1914 -0.1350  3.4270
  535MOL0     H73781   7.271   5.486   2.495  1.7734  6.0044  2.5308
  535MOL0     H73782   7.066   5.429   2.722 -1.0021 -3.2278  1.2136
  535MOL0     H73783   7.138   5.310   2.606  0.3525  0.4661 -3.2946
  535MOL0     H73784   7.344   5.365   2.665  0.3734  2.7920  0.6686
  535MOL0     H73785   7.292   5.498   2.783 -1.0111 -0.7691  3.4912
  535MOL0     H73786   7.391   5.269   2.872 -0.4528 -2.4169 -0.8515
  535MOL0     H73787   7.266   5.367   2.949  2.4903  1.8244 -1.3438
  535MOL0     H73788   7.082   4.958   2.835  0.0941 -1.6174  1.2368
  535MOL0     H73789   6.917   4.825   2.832 -1.4945 -1.8179 -2.4663
  535MOL0     H73790   6.762   4.890   2.759  2.0017 -3.7027 -2.2807
  535MOL0     H73791   6.765   4.834   2.922 -0.5292 -3.2349 -1.7555
  535MOL0     H73792   6.415   5.152   2.716  1.7938  0.7691  0.2287
  535MOL0     H73793   6.177   5.113   2.689 -3.2733 -0.1388  1.5704
  535MOL0     H73794   5.959   4.797   2.929  0.3228  0.9034  1.3705
  535MOL0     H73795   5.953   4.957   3.013 -0.5100 -0.5711  0.0783
  535MOL0     H73796   5.728   4.952   2.980 -0.3783  1.8345 -1.1336
  535MOL0     H73797   5.762   5.004   2.825  1.4937  1.4397  1.8524
  535MOL0     H73798   5.700   4.720   2.911 -0.4674  0.0453 -0.2875
  535MOL0     H73799   5.811   4.738   2.782  3.4421  1.4970  2.5916
  535MOL0     H73800   5.651   4.894   2.671  2.0963 -1.1746 -0.0293
  535MOL0     H73801   5.535   4.866   2.812  1.1104  2.8625  0.0899
  535MOL0     H73802   5.646   4.644   2.630  1.0783  1.5931  1.8094
  535MOL0     H73803   5.511   4.637   2.752 -2.3418 -2.5431 -1.2888
  535MOL0     H73804   5.519   4.775   2.482  1.8888 -0.6268  0.7488
  535MOL0     H73805   5.385   4.792   2.600  1.4376  2.1285 -0.7865
  535MOL0     H73806   5.298   4.590   2.562 -0.4365  2.1095  0.4130
  535MOL0     H73807   5.448   4.517   2.501 -1.6595 -0.6938 -0.7618
  535MOL0     H73808   5.336   4.526   2.296 -0.2725 -0.2591  1.1242
  535MOL0     H73809   5.431   4.673   2.287  0.4969  1.1256  0.1193
  535MOL0     H73810   6.190   4.819   3.003 -0.7120 -0.5152  1.2247
  535MOL0     H73811   6.420   4.854   3.036 -4.5675 -2.6298 -0.0352
  535MOL0     H73812   6.806   5.359   2.937 -1.0819  0.0133 -3.9153
  535MOL0     H73813   7.039   5.375   2.943  0.2649  0.8176  0.9355
  535MOL0     H73814   6.232   5.737   1.772 -1.2624  2.6746  1.8369
  535MOL0     H73815   5.998   5.794   1.738  0.1272 -1.8905 -0.2240
  535MOL0     H73816   5.563   5.871   1.742  1.3169  1.7666 -0.3219
  535MOL0     H73817   5.331   5.964   1.669 -0.8235  1.3989 -0.1378
  535MOL0     H73818   5.292   6.094   1.252  0.3337 -0.5290 -0.1540
  535MOL0     H73819   5.201   5.942   1.261 -0.7673  0.3543 -1.0256
  535MOL0     H73820   5.037   6.122   1.215  0.7002  3.8156 -1.2884
  535MOL0     H73821   5.099   6.222   1.335 -3.9832  0.2526  0.2981
  535MOL0     H73822   4.985   5.960   1.400  1.4672  0.3603 -1.0168
  535MOL0     H73823   5.030   6.094   1.518  1.6430 -0.3049  0.3692
  535MOL0     H73824   4.788   6.086   1.484 -0.0036 -0.0971  0.5500
  535MOL0     H73825   4.797   6.104   1.309 -2.3902 -0.4929  1.1708
  535MOL0     H73826   4.869   6.489   1.336 -1.2315 -0.7363 -0.4420
  535MOL0     H73827   5.430   5.908   1.270 -0.1996  0.0238 -0.6787
  535MOL0     H73828   5.604   5.800   1.199  1.9084 -1.7919 -1.3252
  535MOL0     H73829   5.717   5.921   1.245  0.7812 -0.5539 -0.1736
  535MOL0     H73830   5.744   5.748   1.281 -0.0267  0.3638 -0.0490
  536MOL0     O73831   5.098   5.156   3.232 -0.4314 -0.8023  0.2642
  536MOL0     C73832   4.980   5.116   3.210  0.6592 -0.6163  0.2578
  536MOL0     O73833   4.878   5.134   3.304  0.1042  0.7560 -0.1109
  536MOL0     C73834   4.888   5.224   3.406 -0.0502  0.3919 -0.1864
  536MOL0     C73835   4.895   5.192   3.549 -0.3391  0.2911 -0.0613
  536MOL0     C73836   4.891   5.286   3.647  0.2520 -0.7493 -0.1848
  536MOL0     C73837   4.893   5.421   3.617 -0.2163  0.1253  0.8266
  536MOL0     O73838   4.879   5.528   3.710 -0.1138 -0.0988  0.7365
  536MOL0     C73839   4.793   5.511   3.821  0.3847  0.7280  0.4448
  536MOL0     C73840   4.775   5.639   3.893 -0.5005  0.0731 -1.4839
  536MOL0     C73841   4.726   5.622   4.040 -0.2878  0.8089 -0.3420
  536MOL0     C73842   4.602   5.532   4.057 -0.0657  0.2461 -0.0292
  536MOL0     C73843   4.472   5.576   3.975  0.3482  0.5499 -0.3109
  536MOL0     C73844   4.374   5.447   3.988 -0.7025 -0.0768 -0.2076
  536MOL0     C73845   4.244   5.453   3.912 -0.5235  0.9842 -0.0797
  536MOL0     C73846   4.253   5.452   3.758  0.6660  0.1836 -0.1804
  536MOL0     N73847   4.287   5.322   3.697  0.3554 -0.1863  0.0919
  536MOL0     C73848   4.390   5.230   3.730 -0.1767 -0.6371  0.0791
  536MOL0     C73849   4.352   5.117   3.669 -0.1812  0.9467 -0.2085
  536MOL0     C73850   4.438   4.995   3.677 -0.3119  0.5629 -1.0406
  536MOL0     C73851   4.559   4.991   3.579 -0.0647  0.1607  0.9537
  536MOL0     C73852   4.519   5.021   3.429 -0.2466 -0.2299  0.8857
  536MOL0     C73853   4.436   4.910   3.361  0.3393  0.4502  0.5525
  536MOL0     O73854   4.425   4.958   3.222 -0.3424 -0.1001 -0.3201
  536MOL0     C73855   4.403   4.866   3.131 -0.0019 -0.0252 -0.0607
  536MOL0     C73856   4.332   4.743   3.156  0.2522  0.5170  0.3571
  536MOL0     C73857   4.304   4.654   3.052  0.5485 -0.1098 -0.5299
  536MOL0     C73858   4.224   4.525   3.101 -0.5037 -0.7858 -0.2754
  536MOL0     C73859   4.351   4.670   2.921 -0.2869 -0.5689 -0.4804
  536MOL0     C73860   4.321   4.571   2.820  0.8098 -0.5116  0.6433
  536MOL0     O73861   4.424   4.563   2.726 -0.1775 -0.6779  0.5293
  536MOL0     C73862   4.406   4.500   2.608 -0.3589 -0.6650 -0.6542
  536MOL0     C73863   4.359   4.364   2.596 -0.2114 -1.1229  0.3307
  536MOL0     C73864   4.367   4.294   2.478  0.1477  0.3924 -0.7156
  536MOL0     C73865   4.415   4.363   2.369  0.2004 -0.1891  0.3193
  536MOL0     O73866   4.415   4.303   2.239 -0.2051 -0.4804  0.4093
  536MOL0     C73867   4.280   4.260   2.205 -0.1377 -1.0966 -1.6747
  536MOL0     C73868   4.297   4.202   2.071 -0.5889  0.3500  1.4502
  536MOL0     C73869   4.168   4.205   1.988 -0.8342 -0.8547  0.3530
  536MOL0     C73870   4.198   4.128   1.853  0.3128 -0.2466  0.3814
  536MOL0     C73871   4.082   4.128   1.762  0.1649 -0.8652  0.6977
  536MOL0     C73872   4.114   4.081   1.618 -0.3607  0.2908  0.5367
  536MOL0     C73873   3.986   4.071   1.533  0.2721 -0.7521  0.0169
  536MOL0     C73874   3.880   4.183   1.550  0.0208  0.0086 -0.3005
  536MOL0    Cl73875   3.758   4.137   1.682  0.2536 -0.5366  0.0866
  536MOL0     C73876   4.442   4.501   2.374  0.3632  0.2729 -0.5123
  536MOL0     C73877   4.442   4.567   2.495  0.8480  0.3368  0.5007
  536MOL0     O73878   4.211   4.503   2.816 -0.1957  0.1132  0.0877
  536MOL0     C73879   4.427   4.792   2.890 -0.2513 -1.0781 -0.8634
  536MOL0     C73880   4.450   4.884   2.996  0.2819  0.1911  0.8044
  536MOL0     N73881   4.237   5.138   3.603 -0.8693  0.0023  0.9716
  536MOL0     N73882   4.203   5.261   3.606 -0.2839  0.8692 -0.3337
  536MOL0     C73883   4.899   5.460   3.479  0.2114  0.1526  0.9142
  536MOL0     C73884   4.905   5.363   3.374  0.6550  0.0999  0.6102
  536MOL0     C73885   4.955   5.074   3.072  0.6767 -0.4926 -0.1470
  536MOL0     C73886   5.037   5.118   2.964  0.4265 -0.0646 -0.8575
  536MOL0     C73887   5.015   5.083   2.834 -0.4471  0.5995 -0.1160
  536MOL0     C73888   4.931   4.979   2.805  0.3709 -0.1131 -0.3769
  536MOL0     O73889   4.938   4.917   2.688 -0.4843 -0.2111  0.2544
  536MOL0     C73890   4.870   4.788   2.655 -0.3124 -0.6610 -0.5843
  536MOL0     C73891   4.893   4.735   2.507 -0.0524 -0.2311 -0.2245
  536MOL0     C73892   4.820   4.604   2.476  0.0150  0.1809 -0.1187
  536MOL0     C73893   4.887   4.485   2.543  0.1666  0.1573 -0.1131
  536MOL0     C73894   4.802   4.371   2.508  0.3146 -0.7675 -0.4175
  536MOL0     C73895   4.729   4.278   2.489  0.0040  0.4578  0.4934
  536MOL0     C73896   4.861   4.922   2.915 -0.3167  0.6766  1.0357
  536MOL0     C73897   4.867   4.969   3.046 -0.1554 -0.5638  0.7728
  536MOL0     C73898   4.797   4.879   3.144  0.2489  0.4022  0.7557
  536MOL0     H73899   4.906   5.088   3.578  1.1190  0.4707  0.0903
  536MOL0     H73900   4.893   5.269   3.754  1.2004  3.2223  0.5720
  536MOL0     H73901   4.829   5.438   3.893  1.3158  1.8123  1.1208
  536MOL0     H73902   4.697   5.479   3.779  0.7919 -0.0886  0.1263
  536MOL0     H73903   4.869   5.694   3.901 -0.0490 -0.6065 -1.9733
  536MOL0     H73904   4.709   5.701   3.832 -0.6309  2.1118  0.5944
  536MOL0     H73905   4.804   5.593   4.111 -1.2726  0.9716  0.8392
  536MOL0     H73906   4.694   5.721   4.072  3.0917  1.9060 -0.0071
  536MOL0     H73907   4.631   5.432   4.026  0.5292 -0.8026  3.4967
  536MOL0     H73908   4.574   5.531   4.163 -0.8995  1.2027 -0.2163
  536MOL0     H73909   4.483   5.597   3.868 -2.6636  3.8210 -0.1702
  536MOL0     H73910   4.412   5.657   4.017  1.1904  1.4088 -0.7434
  536MOL0     H73911   4.431   5.363   3.947  1.7574  0.1702  2.3767
  536MOL0     H73912   4.352   5.436   4.094  1.0789  0.3923  0.2466
  536MOL0     H73913   4.179   5.529   3.955 -0.8316  0.0689  1.1143
  536MOL0     H73914   4.198   5.356   3.931 -1.3911  1.2962 -0.5292
  536MOL0     H73915   4.162   5.483   3.705  1.7096  1.5806 -1.2294
  536MOL0     H73916   4.339   5.516   3.734  1.8875 -0.6292  1.7775
  536MOL0     H73917   4.474   5.246   3.798 -0.0803  0.0017 -0.1885
  536MOL0     H73918   4.376   4.905   3.672 -1.6290  1.3700 -0.1476
  536MOL0     H73919   4.484   5.005   3.776 -2.6192 -0.3966  0.2067
  536MOL0     H73920   4.645   5.053   3.606 -0.3825  0.9113  0.2957
  536MOL0     H73921   4.594   4.887   3.583 -0.4935 -0.3059 -2.9515
  536MOL0     H73922   4.466   5.117   3.424 -2.2701 -1.3292  0.1200
  536MOL0     H73923   4.611   5.037   3.371 -0.1946 -1.8716  0.4582
  536MOL0     H73924   4.500   4.821   3.355  0.6548  0.7785 -1.7862
  536MOL0     H73925   4.338   4.890   3.406 -0.5295 -2.2743 -2.1950
  536MOL0     H73926   4.304   4.706   3.254 -0.4364 -1.7030 -0.6065
  536MOL0     H73927   4.117   4.543   3.089 -0.6872  1.3439  3.3143
  536MOL0     H73928   4.241   4.505   3.207 -2.2791  1.9093  0.6061
  536MOL0     H73929   4.258   4.439   3.042  1.1341  0.4663 -1.2307
  536MOL0     H73930   4.310   4.312   2.677 -0.2028 -0.7033  0.6106
  536MOL0     H73931   4.348   4.187   2.472  2.9598 -0.1824 -0.9583
  536MOL0     H73932   4.243   4.186   2.276 -1.5263  1.3377  0.2977
  536MOL0     H73933   4.208   4.343   2.204  0.9806 -0.0444 -0.4036
  536MOL0     H73934   4.368   4.261   2.012 -1.5088 -0.4283 -0.5183
  536MOL0     H73935   4.323   4.097   2.084 -1.7080  0.0620  1.4862
  536MOL0     H73936   4.146   4.309   1.964 -3.1053 -0.9827  1.5402
  536MOL0     H73937   4.082   4.164   2.043 -0.9763  1.1640  1.7616
  536MOL0     H73938   4.240   4.029   1.878  2.0369 -0.2197 -2.0768
  536MOL0     H73939   4.278   4.172   1.793 -0.3385 -1.6162 -1.5986
  536MOL0     H73940   4.007   4.055   1.794  0.2818 -3.3527 -3.8731
  536MOL0     H73941   4.044   4.231   1.767 -0.6714 -1.0801 -0.6235
  536MOL0     H73942   4.154   3.979   1.616 -0.2259  0.2641  2.5221
  536MOL0     H73943   4.188   4.152   1.580  2.0130 -0.8614  2.7211
  536MOL0     H73944   3.935   3.976   1.550 -1.8319  0.0738 -1.3165
  536MOL0     H73945   4.020   4.069   1.429  2.4080  0.8615  0.5897
  536MOL0     H73946   3.827   4.214   1.458 -3.7851 -0.8224  1.4102
  536MOL0     H73947   3.939   4.270   1.579 -0.7305  0.5684 -0.4135
  536MOL0     H73948   4.467   4.555   2.284  2.8850  0.0667 -0.0031
  536MOL0     H73949   4.474   4.671   2.502  3.1986 -0.3506  0.7561
  536MOL0     H73950   4.451   4.804   2.785 -1.3549 -0.9105 -1.1090
  536MOL0     H73951   4.495   4.978   2.967 -1.1327  0.7532  0.3489
  536MOL0     H73952   4.904   5.568   3.470  0.5781  0.2683  2.1859
  536MOL0     H73953   4.912   5.383   3.268  0.3947 -1.7813  0.2061
  536MOL0     H73954   5.113   5.193   2.980  0.7141 -0.3374 -0.9185
  536MOL0     H73955   5.058   5.124   2.743 -2.2349  1.3970 -0.6489
  536MOL0     H73956   4.925   4.722   2.722  0.9334  0.1165 -0.7989
  536MOL0     H73957   4.763   4.799   2.675 -0.3010 -0.7072 -0.5004
  536MOL0     H73958   4.999   4.738   2.483 -0.4347 -0.7589 -2.1592
  536MOL0     H73959   4.845   4.787   2.423 -1.2472 -0.9029  0.0116
  536MOL0     H73960   4.716   4.608   2.509 -0.4950  0.6356 -1.6667
  536MOL0     H73961   4.817   4.580   2.369  2.1317 -2.3720  0.2947
  536MOL0     H73962   4.882   4.513   2.649  0.1124 -0.9405  0.1868
  536MOL0     H73963   4.993   4.479   2.518  0.1720 -0.0747 -0.0448
  536MOL0     H73964   4.653   4.204   2.475  1.9670 -1.2302 -2.1131
  536MOL0     H73965   4.804   4.835   2.883  0.2544  0.8115 -0.4175
  536MOL0     H73966   4.866   4.822   3.207 -0.6278 -2.3778 -0.6241
  536MOL0     H73967   4.723   4.934   3.203 -0.3042  0.5769 -0.0830
  536MOL0     H73968   4.755   4.792   3.093  1.0937  0.2122  0.3648
  537MOL0     O73969   2.431   5.352   0.483  0.3147 -0.9011 -0.6943
  537MOL0     C73970   2.385   5.260   0.551 -0.4487 -0.8164  0.4814
  537MOL0     O73971   2.263   5.196   0.519 -0.0430 -0.3301 -0.3106
  537MOL0     C73972   2.219   5.230   0.395  0.7210  0.0780  0.4449
  537MOL0     C73973   2.155   5.355   0.367 -0.0029 -0.2509  0.0205
  537MOL0     C73974   2.116   5.386   0.243  0.3664  0.1670 -0.3902
  537MOL0     C73975   2.132   5.295   0.136 -0.4068  0.0526 -0.4280
  537MOL0     O73976   2.093   5.334   0.017  0.1930 -0.0203  0.4067
  537MOL0     C73977   2.179   5.310  -0.095  0.3551  0.8378  1.3935
  537MOL0     C73978   2.125   5.381  -0.224  0.0091 -0.1885 -0.1094
  537MOL0     C73979   2.129   5.534  -0.221 -0.1745 -0.2961 -0.1735
  537MOL0     C73980   2.261   5.598  -0.246 -0.6155  0.6364 -0.9020
  537MOL0     C73981   2.259   5.749  -0.222 -0.3435 -1.1536  0.3033
  537MOL0     C73982   2.134   5.817  -0.282 -0.3222 -0.2955 -0.4184
  537MOL0     C73983   2.132   5.963  -0.267  0.3381 -0.2288 -1.1871
  537MOL0     C73984   2.217   6.030  -0.383  0.4756 -0.1683 -0.3421
  537MOL0     N73985   2.211   6.176  -0.384  0.5643 -0.6488 -0.4928
  537MOL0     C73986   2.317   6.263  -0.374  0.1289 -0.6065 -0.1014
  537MOL0     C73987   2.268   6.388  -0.383 -0.4317  0.3403 -0.7258
  537MOL0     C73988   2.355   6.507  -0.368 -0.7163 -0.0866  0.2899
  537MOL0     C73989   2.347   6.552  -0.232 -0.6463 -0.0575  0.7750
  537MOL0     C73990   2.430   6.675  -0.210 -0.4532 -0.7984  0.7177
  537MOL0     C73991   2.583   6.647  -0.182  0.5928  0.0530  0.2762
  537MOL0     O73992   2.595   6.597  -0.049  1.1178  0.4836 -0.2879
  537MOL0     C73993   2.714   6.606   0.013 -0.1660  1.5355 -1.2083
  537MOL0     C73994   2.726   6.544   0.138  0.5265  0.6652  0.1921
  537MOL0     C73995   2.848   6.534   0.207  0.7754  0.4376 -1.0975
  537MOL0     C73996   2.850   6.455   0.334 -0.5551  0.0747 -0.8729
  537MOL0     C73997   2.963   6.598   0.155  0.6523 -0.0222  0.2351
  537MOL0     C73998   3.102   6.584   0.206 -0.6084  0.0706 -0.6856
  537MOL0     O73999   3.180   6.696   0.185  0.0399  0.1066 -0.8355
  537MOL0     C74000   3.308   6.698   0.237  0.4247 -0.1348 -0.4749
  537MOL0     C74001   3.389   6.765   0.152 -0.1799  0.3909  0.4713
  537MOL0     C74002   3.518   6.797   0.190 -0.7141 -0.1646  0.8371
  537MOL0     C74003   3.559   6.755   0.316 -0.1009  0.3545  0.7825
  537MOL0     O74004   3.683   6.775   0.374  0.1801  0.7939  0.2994
  537MOL0     C74005   3.761   6.866   0.303 -0.1670 -0.9292  0.6314
  537MOL0     C74006   3.891   6.905   0.378  0.4969 -0.4298  0.7141
  537MOL0     C74007   3.999   6.970   0.279 -0.3653  0.3562 -0.4139
  537MOL0     C74008   4.133   7.000   0.345 -0.3953 -0.8545  0.0595
  537MOL0     C74009   4.224   7.098   0.264  0.0048  0.7186 -0.6419
  537MOL0     C74010   4.220   7.062   0.115  0.1876  0.1853 -0.7464
  537MOL0     C74011   4.350   7.108   0.046 -0.0666 -0.3543  0.5154
  537MOL0     C74012   4.368   7.039  -0.091 -0.7336 -0.0006 -0.0654
  537MOL0    Cl74013   4.311   7.153  -0.215  0.0298  0.1217  0.1137
  537MOL0     C74014   3.477   6.680   0.400  0.5554  1.3208  0.1366
  537MOL0     C74015   3.342   6.650   0.370 -0.6313  0.1608  0.1026
  537MOL0     O74016   3.139   6.473   0.239  0.2434 -0.0613 -0.0074
  537MOL0     C74017   2.946   6.676   0.036 -0.5720  0.1585 -0.6676
  537MOL0     C74018   2.833   6.669  -0.033 -1.3264 -0.7097 -1.2364
  537MOL0     N74019   2.135   6.375  -0.392 -0.4212  0.4776  0.5906
  537MOL0     N74020   2.098   6.250  -0.395 -0.0871 -0.1856 -0.0302
  537MOL0     C74021   2.181   5.166   0.161  0.0204 -0.0074  1.1295
  537MOL0     C74022   2.237   5.137   0.288  0.2698  0.0039  0.4717
  537MOL0     C74023   2.462   5.222   0.667  0.1325  0.2554 -0.1424
  537MOL0     C74024   2.430   5.104   0.723 -0.1504 -0.0900 -0.0537
  537MOL0     C74025   2.494   5.059   0.837 -0.0198 -0.0335 -0.2986
  537MOL0     C74026   2.597   5.128   0.890 -0.2267 -0.9101  0.4862
  537MOL0     O74027   2.640   5.095   1.013  0.4845 -0.0564  0.2144
  537MOL0     C74028   2.681   4.961   1.029  0.2598 -0.3735  0.2245
  537MOL0     C74029   2.805   4.979   1.128 -0.2653 -0.0053  0.3748
  537MOL0     C74030   2.929   4.888   1.091  0.2970 -0.6017 -0.0964
  537MOL0     C74031   3.025   4.873   1.206 -0.3593  0.5457 -0.6758
  537MOL0     C74032   3.130   4.972   1.219  1.3521  0.1561  0.3253
  537MOL0     C74033   3.227   5.046   1.240 -0.0760  0.4659  0.0229
  537MOL0     C74034   2.635   5.250   0.832  0.3490  0.6772 -0.6961
  537MOL0     C74035   2.566   5.298   0.726 -0.1197 -0.1289  0.1990
  537MOL0     C74036   2.610   5.437   0.682 -0.1817  0.0589 -0.0164
  537MOL0     H74037   2.123   5.417   0.450  1.0587 -0.4231  0.5773
  537MOL0     H74038   2.075   5.484   0.226 -0.2162  0.0397  0.2522
  537MOL0     H74039   2.191   5.203  -0.116  0.2882  1.0665  0.1296
  537MOL0     H74040   2.282   5.344  -0.077  0.8442  1.0346 -1.3561
  537MOL0     H74041   2.186   5.347  -0.308  1.8304 -1.6271  1.7095
  537MOL0     H74042   2.025   5.339  -0.236 -0.5247  1.1844 -0.6257
  537MOL0     H74043   2.058   5.578  -0.292  0.7211  1.4116 -0.0643
  537MOL0     H74044   2.085   5.572  -0.128 -2.7293 -2.0429 -0.5595
  537MOL0     H74045   2.330   5.543  -0.181 -2.9856 -3.0960 -1.2242
  537MOL0     H74046   2.303   5.589  -0.347  1.6764  0.8375 -0.0254
  537MOL0     H74047   2.352   5.794  -0.256 -0.7139 -1.3863 -1.0922
  537MOL0     H74048   2.253   5.767  -0.114  0.3334  0.6443  0.0716
  537MOL0     H74049   2.114   5.792  -0.387 -1.0947  1.7436 -0.8101
  537MOL0     H74050   2.056   5.787  -0.211 -0.3519 -0.0258 -0.3343
  537MOL0     H74051   2.159   5.995  -0.166 -2.3420  0.8475 -0.7152
  537MOL0     H74052   2.026   5.986  -0.281 -0.6239 -3.1273  0.4951
  537MOL0     H74053   2.320   5.994  -0.385  0.2301 -1.0892 -3.8597
  537MOL0     H74054   2.183   5.997  -0.482 -1.3909  2.7773 -0.7846
  537MOL0     H74055   2.420   6.238  -0.354  0.0531 -1.3147 -0.5298
  537MOL0     H74056   2.313   6.587  -0.430  0.9360 -0.5564 -1.5094
  537MOL0     H74057   2.454   6.486  -0.408 -0.0739  3.2379 -0.1917
  537MOL0     H74058   2.246   6.588  -0.210 -0.8005 -0.0164  0.0131
  537MOL0     H74059   2.372   6.473  -0.160  0.2461 -0.4442  0.0553
  537MOL0     H74060   2.422   6.735  -0.301 -1.9278  0.5224  1.6772
  537MOL0     H74061   2.381   6.736  -0.134 -1.5619  0.3519 -0.8496
  537MOL0     H74062   2.626   6.567  -0.244 -1.0279  0.4903 -1.4917
  537MOL0     H74063   2.619   6.749  -0.202  1.2950 -0.4468 -1.1615
  537MOL0     H74064   2.642   6.489   0.178  3.1901 -2.4424  2.0097
  537MOL0     H74065   2.868   6.350   0.308 -0.2242 -1.4831  4.3899
  537MOL0     H74066   2.756   6.466   0.390 -1.0090 -3.5170 -0.6989
  537MOL0     H74067   2.935   6.486   0.395 -0.3999  0.8446 -1.4627
  537MOL0     H74068   3.365   6.778   0.047  1.5502  0.2034  0.0170
  537MOL0     H74069   3.588   6.843   0.122 -1.7072  0.2025  0.0364
  537MOL0     H74070   3.795   6.816   0.212  1.6313  3.7495 -1.6296
  537MOL0     H74071   3.702   6.945   0.254 -0.2828 -2.6333 -2.1747
  537MOL0     H74072   3.869   6.976   0.458 -0.7138 -0.8447  0.7718
  537MOL0     H74073   3.937   6.812   0.414  0.0750 -0.6815  0.6168
  537MOL0     H74074   3.952   7.058   0.233 -0.7404  0.3934  0.0313
  537MOL0     H74075   4.021   6.894   0.203 -1.7763  0.6863 -1.1931
  537MOL0     H74076   4.195   6.913   0.367  0.7676 -0.3638 -1.1092
  537MOL0     H74077   4.119   7.047   0.442  0.6916  0.0962 -0.2168
  537MOL0     H74078   4.199   7.202   0.285  3.4995  1.5333  0.1674
  537MOL0     H74079   4.323   7.085   0.309  0.6806  3.5517 -1.1422
  537MOL0     H74080   4.133   7.116   0.077 -0.1800  0.7420  0.8320
  537MOL0     H74081   4.204   6.954   0.109  1.2314  0.0037 -0.5408
  537MOL0     H74082   4.435   7.082   0.110  1.6897  1.3174 -1.0044
  537MOL0     H74083   4.359   7.217   0.042  0.8693 -0.4708 -1.4077
  537MOL0     H74084   4.309   6.947  -0.095  0.2950 -0.7633  1.3139
  537MOL0     H74085   4.476   7.021  -0.094 -0.6771  0.3598 -0.1279
  537MOL0     H74086   3.517   6.641   0.494  1.2899 -0.3353 -0.8247
  537MOL0     H74087   3.271   6.589   0.426  1.0967 -1.9489  0.1513
  537MOL0     H74088   3.039   6.711  -0.006  1.6832 -1.9891  2.1819
  537MOL0     H74089   2.844   6.707  -0.134  0.3194 -3.4888 -2.2127
  537MOL0     H74090   2.198   5.093   0.082 -2.1851  1.1018 -0.4704
  537MOL0     H74091   2.274   5.037   0.308  2.1951  0.2056 -1.6874
  537MOL0     H74092   2.344   5.053   0.682  0.2316 -0.1410 -0.8190
  537MOL0     H74093   2.443   4.985   0.897  1.0140 -0.4689  0.0765
  537MOL0     H74094   2.604   4.903   1.080 -0.1474 -0.1691 -0.1548
  537MOL0     H74095   2.701   4.925   0.928 -0.5118  2.2455 -0.9608
  537MOL0     H74096   2.754   4.963   1.224 -3.1503  1.8456 -0.6955
  537MOL0     H74097   2.834   5.085   1.132 -0.8948  0.2722 -1.3006
  537MOL0     H74098   2.900   4.788   1.057 -0.6630 -1.0846  1.9364
  537MOL0     H74099   2.988   4.946   1.020 -0.6961 -2.1193 -2.2775
  537MOL0     H74100   3.082   4.779   1.200 -1.8990 -0.8364  3.2761
  537MOL0     H74101   2.974   4.863   1.302  1.4670 -2.3113  0.1364
  537MOL0     H74102   3.304   5.114   1.271 -0.1619  1.2155 -1.2950
  537MOL0     H74103   2.712   5.305   0.887 -3.0051  3.1377  2.0648
  537MOL0     H74104   2.674   5.435   0.593  2.2209  0.3898  1.6057
  537MOL0     H74105   2.519   5.493   0.661 -0.8286 -0.7143  0.6452
  537MOL0     H74106   2.663   5.485   0.764 -3.8161  0.5023  2.2645
  538MOL0     O74107   5.607   5.570   3.329 -0.5503  0.2525  0.4317
  538MOL0     C74108   5.723   5.543   3.345 -0.5041  0.8569 -0.6355
  538MOL0     O74109   5.779   5.413   3.335 -0.0755 -0.7040 -0.3180
  538MOL0     C74110   5.703   5.306   3.282 -0.6038  0.0326 -1.0774
  538MOL0     C74111   5.777   5.200   3.227  0.5700 -0.0642  0.4014
  538MOL0     C74112   5.717   5.076   3.191  0.5502  0.5390  0.8578
  538MOL0     C74113   5.577   5.063   3.191  0.7228 -0.3955  0.0393
  538MOL0     O74114   5.527   4.942   3.144  0.0179 -0.2678 -0.5287
  538MOL0     C74115   5.404   4.943   3.067 -0.3751  0.3422  0.0646
  538MOL0     C74116   5.370   4.803   3.013  0.7212  0.0004  0.3849
  538MOL0     C74117   5.271   4.718   3.086 -0.3496  0.3451 -1.0792
  538MOL0     C74118   5.264   4.589   3.002  0.1904 -0.3609 -0.0245
  538MOL0     C74119   5.165   4.485   3.069  0.4047 -0.2633 -0.0226
  538MOL0     C74120   5.203   4.345   3.020 -0.2545 -0.1909  0.0764
  538MOL0     C74121   5.149   4.241   3.117 -0.0725  0.0808 -0.9490
  538MOL0     C74122   5.170   4.093   3.074  0.6826 -0.3576 -0.2056
  538MOL0     N74123   5.107   4.003   3.168  0.8508  0.0040  0.1596
  538MOL0     C74124   5.170   3.940   3.270  0.2861 -0.4505  0.4801
  538MOL0     C74125   5.076   3.851   3.316  0.1871 -0.4885  0.4874
  538MOL0     C74126   5.096   3.780   3.447 -0.2926  0.0544  0.5648
  538MOL0     C74127   5.223   3.706   3.467 -0.1423 -0.7580 -0.6412
  538MOL0     C74128   5.227   3.652   3.610 -0.1890  0.2848 -0.1906
  538MOL0     C74129   5.338   3.545   3.630 -0.9690 -0.0679 -0.0545
  538MOL0     O74130   5.323   3.493   3.759 -0.0385  0.0743 -0.3774
  538MOL0     C74131   5.389   3.387   3.813  0.3140 -0.2775  0.4288
  538MOL0     C74132   5.325   3.324   3.918 -0.5310 -0.3389  0.4486
  538MOL0     C74133   5.383   3.213   3.986 -0.2468  0.0010  0.5622
  538MOL0     C74134   5.306   3.140   4.087 -0.5749  0.2431 -1.4225
  538MOL0     C74135   5.509   3.169   3.946 -0.3485 -0.2521  0.2627
  538MOL0     C74136   5.581   3.051   3.991  0.1504  0.0593 -0.1782
  538MOL0     O74137   5.510   2.957   4.052  0.4809 -0.2632  0.6728
  538MOL0     C74138   5.556   2.829   4.087 -0.7336  0.1293 -0.3255
  538MOL0     C74139   5.659   2.757   4.027  0.2193 -1.4026 -0.4097
  538MOL0     C74140   5.683   2.623   4.054 -0.1895 -0.7164  0.0365
  538MOL0     C74141   5.600   2.555   4.136 -0.0952  0.0447 -0.3895
  538MOL0     O74142   5.623   2.421   4.139 -0.2062  0.0819 -0.7126
  538MOL0     C74143   5.596   2.366   4.264 -0.0193 -0.1003 -1.2666
  538MOL0     C74144   5.647   2.222   4.251 -0.0467 -0.7391  0.3023
  538MOL0     C74145   5.663   2.150   4.388 -0.0292  0.1709 -0.1103
  538MOL0     C74146   5.693   2.000   4.370 -0.3886  0.6750  0.2348
  538MOL0     C74147   5.730   1.936   4.499 -1.0543  0.1448 -0.2877
  538MOL0     C74148   5.849   1.840   4.482  0.6258 -0.1817 -0.8238
  538MOL0     C74149   5.917   1.781   4.606 -0.4012  0.2414  0.0346
  538MOL0     C74150   6.038   1.705   4.565 -0.9713  0.6595  0.9346
  538MOL0    Cl74151   6.157   1.800   4.473 -0.3422 -0.3057  0.1345
  538MOL0     C74152   5.499   2.625   4.202 -0.3606 -0.6348 -0.5780
  538MOL0     C74153   5.478   2.762   4.180 -0.4974  0.2675  0.0669
  538MOL0     O74154   5.696   3.042   3.959  0.2427  0.0388  0.0308
  538MOL0     C74155   5.576   3.241   3.843  0.7754 -0.4389 -0.5053
  538MOL0     C74156   5.520   3.346   3.776 -0.7997  0.5146  0.4231
  538MOL0     N74157   4.957   3.869   3.242 -0.6790 -0.2820 -0.2868
  538MOL0     N74158   4.973   3.965   3.157 -0.1963  0.8767  0.6991
  538MOL0     C74159   5.503   5.174   3.228  1.0103 -0.9853 -0.4361
  538MOL0     C74160   5.564   5.291   3.283 -0.5919  0.6122 -0.1068
  538MOL0     C74161   5.824   5.647   3.397  0.2155  0.7145  0.2893
  538MOL0     C74162   5.950   5.607   3.431 -0.2731  0.0509  0.0773
  538MOL0     C74163   6.048   5.697   3.476  0.5890  1.2868 -0.0379
  538MOL0     C74164   6.016   5.833   3.487  0.4745  0.4859 -0.6226
  538MOL0     O74165   6.101   5.933   3.516 -0.8181 -0.4118 -0.8965
  538MOL0     C74166   6.134   5.926   3.660  0.5240 -0.2451 -0.6771
  538MOL0     C74167   6.230   6.046   3.694  0.1983 -1.1643  0.3496
  538MOL0     C74168   6.327   6.076   3.573  0.0285  0.5514 -0.4593
  538MOL0     C74169   6.436   6.168   3.626  0.2510  0.0126  0.1040
  538MOL0     C74170   6.524   6.122   3.732 -0.5096  0.3826  0.4166
  538MOL0     C74171   6.585   6.071   3.828  0.5526 -0.4164 -0.2923
  538MOL0     C74172   5.887   5.867   3.456  0.5254 -0.1670  0.3310
  538MOL0     C74173   5.785   5.780   3.417 -1.6446  0.7512 -0.9011
  538MOL0     C74174   5.642   5.831   3.399 -0.5311  0.2459  0.4406
  538MOL0     H74175   5.885   5.212   3.227  0.2457  5.1138 -1.5881
  538MOL0     H74176   5.777   4.988   3.166  3.1696  2.4952 -0.1901
  538MOL0     H74177   5.425   5.006   2.980  1.1579 -1.6113 -1.0693
  538MOL0     H74178   5.323   4.991   3.123  1.3579  2.0670  1.2195
  538MOL0     H74179   5.319   4.815   2.917 -1.6807 -0.8111  1.4800
  538MOL0     H74180   5.471   4.760   3.011  2.1495  3.1009 -0.6256
  538MOL0     H74181   5.307   4.692   3.185  0.8979  0.2214 -1.5479
  538MOL0     H74182   5.175   4.769   3.103  1.2992  2.6228  2.7406
  538MOL0     H74183   5.242   4.595   2.895  4.7897  1.5580 -1.0992
  538MOL0     H74184   5.360   4.538   2.999 -1.3806 -3.5046 -0.8913
  538MOL0     H74185   5.063   4.512   3.041  0.8461  2.8550  0.9774
  538MOL0     H74186   5.179   4.485   3.178 -0.0033 -0.8256  0.0347
  538MOL0     H74187   5.146   4.320   2.930 -4.0916 -1.0769  2.4983
  538MOL0     H74188   5.311   4.339   3.006 -0.3429 -2.2209 -0.0513
  538MOL0     H74189   5.043   4.260   3.136 -0.4309  2.1702 -4.2684
  538MOL0     H74190   5.201   4.247   3.213 -0.6555 -1.8096 -0.4693
  538MOL0     H74191   5.117   4.085   2.979 -1.3292  0.1179  0.8226
  538MOL0     H74192   5.274   4.063   3.064  1.5065  0.9655  2.9490
  538MOL0     H74193   5.265   3.972   3.313  0.9604 -0.1824 -1.1213
  538MOL0     H74194   5.008   3.721   3.476  0.9224 -1.4581  1.3345
  538MOL0     H74195   5.090   3.858   3.524  1.6998  3.6414 -2.5688
  538MOL0     H74196   5.231   3.622   3.397  2.7223 -1.8192  0.7682
  538MOL0     H74197   5.301   3.781   3.445 -1.8451  1.1743 -0.3531
  538MOL0     H74198   5.245   3.737   3.677 -0.0617 -0.1444  0.3278
  538MOL0     H74199   5.134   3.601   3.635  1.3071 -1.4564  2.2536
  538MOL0     H74200   5.335   3.462   3.558  0.1783  0.3260 -0.5852
  538MOL0     H74201   5.438   3.589   3.621 -1.0798  1.2695  3.6935
  538MOL0     H74202   5.238   3.373   3.959  0.8241  1.4585  1.3111
  538MOL0     H74203   5.359   3.135   4.183  0.3770 -1.6655 -1.9975
  538MOL0     H74204   5.262   3.049   4.046  2.0408 -0.5769 -2.5558
  538MOL0     H74205   5.221   3.207   4.106  0.9764  1.7707  0.5900
  538MOL0     H74206   5.728   2.806   3.959 -0.3779  0.5011  0.2951
  538MOL0     H74207   5.764   2.576   3.998 -0.6700  0.6094 -1.8823
  538MOL0     H74208   5.642   2.420   4.347  2.3763 -0.8880 -1.9830
  538MOL0     H74209   5.492   2.340   4.283 -0.0873 -0.9999 -2.6691
  538MOL0     H74210   5.584   2.162   4.184  2.6043 -3.0356 -0.2937
  538MOL0     H74211   5.743   2.214   4.199 -0.8181 -0.4544 -1.2217
  538MOL0     H74212   5.571   2.159   4.446  0.2668 -1.0602  0.5837
  538MOL0     H74213   5.740   2.203   4.445 -0.0868  1.7504 -1.4350
  538MOL0     H74214   5.773   1.990   4.296 -1.6592  0.7232 -1.1634
  538MOL0     H74215   5.617   1.939   4.322 -1.8228  2.9215 -0.4805
  538MOL0     H74216   5.742   2.004   4.583 -2.2196  2.9695 -2.2357
  538MOL0     H74217   5.643   1.875   4.527 -2.7844  2.0618 -1.1936
  538MOL0     H74218   5.923   1.900   4.429  3.0212 -0.6301  1.8413
  538MOL0     H74219   5.817   1.757   4.418  0.2563 -0.7935  0.1279
  538MOL0     H74220   5.837   1.733   4.664 -1.4793  1.7110 -0.1706
  538MOL0     H74221   5.943   1.862   4.675 -0.8257  0.3159  0.1156
  538MOL0     H74222   6.009   1.631   4.490  2.6476  2.4059 -2.5771
  538MOL0     H74223   6.081   1.645   4.647 -0.7775 -1.0893 -0.3770
  538MOL0     H74224   5.438   2.568   4.272  2.0380 -2.0327  0.5049
  538MOL0     H74225   5.396   2.818   4.223  0.0251  2.0121 -1.1326
  538MOL0     H74226   5.675   3.223   3.802 -0.0229 -2.7555 -1.5445
  538MOL0     H74227   5.575   3.402   3.701  0.9735  0.4075  1.5907
  538MOL0     H74228   5.395   5.171   3.232  1.0411 -3.5675  0.8389
  538MOL0     H74229   5.501   5.368   3.325 -1.0927  0.3192 -0.3047
  538MOL0     H74230   5.984   5.506   3.412  3.3464  1.0543  0.3559
  538MOL0     H74231   6.144   5.658   3.509 -1.1164 -1.9913  1.4931
  538MOL0     H74232   6.041   5.927   3.717 -0.5930 -2.5466 -2.3240
  538MOL0     H74233   6.186   5.832   3.680 -2.2592 -1.8889 -0.6322
  538MOL0     H74234   6.286   6.023   3.785 -0.5394 -1.1363  0.8169
  538MOL0     H74235   6.167   6.134   3.711  0.3926 -1.3943  2.6006
  538MOL0     H74236   6.364   5.981   3.533  1.4833  1.1232 -0.5395
  538MOL0     H74237   6.281   6.135   3.493 -1.6680  0.3442  0.3238
  538MOL0     H74238   6.397   6.268   3.647 -2.0567 -0.7318 -0.3156
  538MOL0     H74239   6.504   6.197   3.545 -1.2321  0.7529 -0.9362
  538MOL0     H74240   6.647   6.016   3.896 -1.3408  0.8399  2.6388
  538MOL0     H74241   5.864   5.973   3.454  0.9060 -0.0970 -0.5535
  538MOL0     H74242   5.624   5.848   3.292 -1.4467  5.2150  1.1525
  538MOL0     H74243   5.568   5.770   3.452  0.7309 -1.9034 -0.1620
  538MOL0     H74244   5.637   5.931   3.443  2.1678  0.4493  0.4170
  539MOL0     O74245   8.007   8.881   9.457 -0.7030 -0.0695 -0.1450
  539MOL0     C74246   8.092   8.820   9.515 -0.0344 -0.4243 -0.7861
  539MOL0     O74247   8.164   8.715   9.465 -0.6216 -0.6275 -0.5636
  539MOL0     C74248   8.161   8.707   9.328 -0.2431  0.1649  0.2658
  539MOL0     C74249   8.124   8.583   9.283 -0.2525  0.2300  0.4861
  539MOL0     C74250   8.121   8.557   9.151  0.0514  0.1853 -0.5875
  539MOL0     C74251   8.148   8.656   9.056 -0.1433  0.5964  0.6303
  539MOL0     O74252   8.119   8.647   8.920  0.5243 -0.7101 -0.3688
  539MOL0     C74253   8.007   8.717   8.865  0.0571  0.0618  0.3974
  539MOL0     C74254   8.004   8.711   8.721 -0.0410 -0.1557  0.4414
  539MOL0     C74255   7.954   8.839   8.641 -0.4627 -0.2912 -0.0486
  539MOL0     C74256   7.806   8.851   8.640  0.3340  0.7559 -0.0406
  539MOL0     C74257   7.739   8.977   8.594 -0.1933 -0.2046 -1.0913
  539MOL0     C74258   7.741   8.998   8.433  0.2895  0.0735  0.0694
  539MOL0     C74259   7.726   9.149   8.390 -0.1174 -0.1670  0.7292
  539MOL0     C74260   7.744   9.187   8.245 -0.8986  0.5008 -0.0709
  539MOL0     N74261   7.882   9.147   8.201  0.4765 -0.3833  0.8499
  539MOL0     C74262   8.002   9.221   8.238  0.3005  0.1071 -0.0503
  539MOL0     C74263   8.105   9.137   8.202  0.9032 -0.2693 -0.2014
  539MOL0     C74264   8.246   9.185   8.221  0.3597  0.1207  0.6064
  539MOL0     C74265   8.323   9.212   8.086 -0.6285 -0.2956 -0.3257
  539MOL0     C74266   8.469   9.256   8.127 -0.2669 -0.3878 -0.1656
  539MOL0     C74267   8.566   9.274   8.017  0.0117  0.0406  0.9514
  539MOL0     O74268   8.508   9.345   7.904  0.0525  0.0442  0.7273
  539MOL0     C74269   8.575   9.315   7.784  0.5452 -0.0694  0.6451
  539MOL0     C74270   8.690   9.232   7.767  0.2244  0.5019 -0.3918
  539MOL0     C74271   8.759   9.214   7.655 -0.1402 -0.1679 -0.6740
  539MOL0     C74272   8.898   9.139   7.657 -0.4062 -0.1858 -0.3757
  539MOL0     C74273   8.697   9.266   7.531 -0.1646 -0.7018 -0.7946
  539MOL0     C74274   8.746   9.252   7.392 -0.0601  1.2972 -1.0356
  539MOL0     O74275   8.677   9.319   7.286 -0.1117 -0.0869  0.4377
  539MOL0     C74276   8.735   9.326   7.156  0.5971  0.4776  0.2793
  539MOL0     C74277   8.847   9.401   7.122 -1.0369 -0.1925  0.3447
  539MOL0     C74278   8.900   9.410   6.991 -0.2764 -0.2557 -0.7732
  539MOL0     C74279   8.837   9.334   6.891  0.2116  0.4961  0.4657
  539MOL0     O74280   8.875   9.314   6.762  0.4149 -0.3407  0.5473
  539MOL0     C74281   8.998   9.369   6.709 -0.5813  0.0623 -0.0152
  539MOL0     C74282   8.980   9.516   6.675 -0.5939  0.2989  0.0443
  539MOL0     C74283   9.039   9.555   6.538  0.0775 -0.1393  0.4953
  539MOL0     C74284   9.058   9.715   6.535  0.2429  0.3828  0.5613
  539MOL0     C74285   9.120   9.757   6.400 -0.1480  0.7443  0.2625
  539MOL0     C74286   9.161   9.908   6.405 -0.6011  0.4392 -0.0900
  539MOL0     C74287   9.153   9.996   6.277 -1.1781  0.9773 -0.7123
  539MOL0     C74288   9.013  10.045   6.252  0.5338  0.4652  0.8904
  539MOL0    Cl74289   8.971  10.159   6.378 -0.0021 -0.0812 -0.0313
  539MOL0     C74290   8.719   9.265   6.928  0.1509 -0.4052  0.0570
  539MOL0     C74291   8.664   9.259   7.049  0.5418 -1.2626  0.5598
  539MOL0     O74292   8.837   9.173   7.370  0.2543 -0.2019 -0.6194
  539MOL0     C74293   8.577   9.338   7.547  0.5527  0.7702 -0.6735
  539MOL0     C74294   8.522   9.366   7.672  0.3351 -0.9929 -0.7289
  539MOL0     N74295   8.055   9.033   8.133  0.3413 -0.4795  0.6528
  539MOL0     N74296   7.919   9.028   8.141 -0.1878 -0.5651 -0.3312
  539MOL0     C74297   8.198   8.778   9.102 -0.2245 -0.4123  0.8891
  539MOL0     C74298   8.197   8.806   9.232 -1.0682 -0.4335  0.4239
  539MOL0     C74299   8.094   8.831   9.662  0.5984 -0.0942 -0.2328
  539MOL0     C74300   8.177   8.744   9.732 -0.0416 -0.3121  0.5129
  539MOL0     C74301   8.204   8.756   9.869  0.4143 -0.0208 -0.4871
  539MOL0     C74302   8.134   8.850   9.943 -0.3217 -0.8440  0.3954
  539MOL0     O74303   8.156   8.870  10.076 -0.5805 -0.3646 -0.7844
  539MOL0     C74304   8.170   8.741  10.150  0.7560  0.0557  1.2590
  539MOL0     C74305   8.153   8.774  10.299 -0.0699 -0.4658  0.2097
  539MOL0     C74306   8.185   8.674  10.406  0.3781  0.1517 -0.6367
  539MOL0     C74307   8.073   8.570  10.427  0.0052 -0.1474 -0.3938
  539MOL0     C74308   7.942   8.624  10.480 -0.4641  0.3482  0.2027
  539MOL0     C74309   7.829   8.652  10.496  0.2408  0.3926  0.2802
  539MOL0     C74310   8.040   8.925   9.881  0.5623 -0.1777 -0.0138
  539MOL0     C74311   8.011   8.919   9.738  0.5416 -0.1949 -0.3217
  539MOL0     C74312   7.913   9.021   9.688 -0.0839  0.3318  0.0725
  539MOL0     H74313   8.089   8.512   9.357 -0.2611 -1.4281 -1.0498
  539MOL0     H74314   8.086   8.460   9.118 -1.1829  0.1041  0.8300
  539MOL0     H74315   8.018   8.821   8.896  1.6287  0.0802 -0.1526
  539MOL0     H74316   7.913   8.677   8.906  0.5589 -0.1176  1.4089
  539MOL0     H74317   8.102   8.672   8.692  0.4969  0.8258  0.8856
  539MOL0     H74318   7.936   8.637   8.678  0.6750 -0.9892  0.7402
  539MOL0     H74319   7.999   8.933   8.676 -0.5599  0.2369 -1.2915
  539MOL0     H74320   7.982   8.829   8.536  3.2103 -1.0371  0.8683
  539MOL0     H74321   7.773   8.779   8.564 -0.6184  1.1209  0.0161
  539MOL0     H74322   7.766   8.806   8.731  3.0756 -4.8734 -1.1567
  539MOL0     H74323   7.785   9.063   8.644 -0.7100 -0.8669  0.5883
  539MOL0     H74324   7.640   8.974   8.639 -0.2646 -2.1976 -1.3094
  539MOL0     H74325   7.839   8.964   8.397  0.7939 -1.0413  2.3281
  539MOL0     H74326   7.664   8.938   8.383  1.4434  0.9007 -2.9699
  539MOL0     H74327   7.817   9.187   8.438  0.8120 -0.8552 -0.4235
  539MOL0     H74328   7.635   9.185   8.439 -0.4416 -0.5122  0.3892
  539MOL0     H74329   7.659   9.152   8.186 -2.5625  2.4599  1.0195
  539MOL0     H74330   7.729   9.295   8.243 -5.6462  0.0618  0.2506
  539MOL0     H74331   8.013   9.317   8.289 -1.6128  0.0121  0.6110
  539MOL0     H74332   8.301   9.116   8.286  1.2370  0.1433 -0.1048
  539MOL0     H74333   8.242   9.281   8.273  2.7950 -1.0491  3.2415
  539MOL0     H74334   8.321   9.120   8.026 -2.5946  0.2391 -1.1524
  539MOL0     H74335   8.283   9.297   8.031  0.3076  1.5851  1.7268
  539MOL0     H74336   8.449   9.351   8.176 -2.3499 -0.5296 -0.6590
  539MOL0     H74337   8.526   9.188   8.192 -1.0872 -2.2733 -1.3409
  539MOL0     H74338   8.654   9.323   8.061  1.5945  0.6874 -2.6216
  539MOL0     H74339   8.584   9.169   7.993  0.4642  0.3073  0.0812
  539MOL0     H74340   8.744   9.188   7.851  0.8742 -0.8253 -1.4566
  539MOL0     H74341   8.873   9.033   7.649  0.4827 -0.6093  1.8698
  539MOL0     H74342   8.949   9.140   7.754  0.8910 -1.2394 -1.0260
  539MOL0     H74343   8.974   9.167   7.583  0.2824 -0.1967  0.3195
  539MOL0     H74344   8.902   9.448   7.203  0.7382 -0.4858 -0.6170
  539MOL0     H74345   8.980   9.478   6.963  2.2110 -2.2100  1.1360
  539MOL0     H74346   9.078   9.357   6.782 -0.4322 -1.4502 -0.3904
  539MOL0     H74347   9.031   9.308   6.624  2.0038  1.2222  0.0840
  539MOL0     H74348   8.872   9.536   6.673 -1.0626 -1.7342  1.2954
  539MOL0     H74349   9.019   9.570   6.761  0.5771 -1.1283  0.4504
  539MOL0     H74350   8.965   9.531   6.461 -3.2442  2.7504  2.4684
  539MOL0     H74351   9.128   9.496   6.517 -3.0043 -4.6622 -1.5165
  539MOL0     H74352   9.117   9.740   6.623  1.2102  2.2193 -0.5403
  539MOL0     H74353   8.964   9.771   6.541  0.4476  0.7784  0.1681
  539MOL0     H74354   9.203   9.690   6.380 -0.0137  1.2520 -0.9561
  539MOL0     H74355   9.039   9.746   6.328  1.8264  1.1408 -2.1438
  539MOL0     H74356   9.261   9.910   6.450  0.5847 -0.1543 -2.5530
  539MOL0     H74357   9.097   9.958   6.479  0.8138 -0.0251  1.5170
  539MOL0     H74358   9.190   9.923   6.204 -0.8492 -0.1334  0.5352
  539MOL0     H74359   9.210  10.089   6.287 -0.0602  0.3558 -1.0991
  539MOL0     H74360   8.941   9.964   6.244  0.4776  0.6459 -0.6985
  539MOL0     H74361   9.003  10.100   6.158 -0.6036  0.2533  0.8757
  539MOL0     H74362   8.672   9.207   6.849 -1.5249  0.2689  0.5040
  539MOL0     H74363   8.578   9.193   7.055 -0.0280 -1.0512 -3.0152
  539MOL0     H74364   8.514   9.374   7.466 -0.4226  0.3110 -0.1456
  539MOL0     H74365   8.421   9.405   7.677  0.6300 -0.3913  1.1528
  539MOL0     H74366   8.203   8.845   9.016 -1.1233 -1.8046 -0.2824
  539MOL0     H74367   8.225   8.903   9.270  0.8984 -1.3436  1.4706
  539MOL0     H74368   8.239   8.666   9.688 -0.9726 -1.2107  0.7685
  539MOL0     H74369   8.275   8.693   9.921  1.0657 -0.3880 -1.7791
  539MOL0     H74370   8.089   8.678  10.112  0.3251  1.2541  0.0975
  539MOL0     H74371   8.267   8.697  10.129 -0.1493 -1.5813  0.3499
  539MOL0     H74372   8.060   8.830  10.314  1.5108  2.2775  0.4797
  539MOL0     H74373   8.228   8.854  10.307  1.0271 -1.3272 -0.9779
  539MOL0     H74374   8.279   8.627  10.377  1.5479  1.4133  0.9543
  539MOL0     H74375   8.183   8.731  10.499  1.4207  0.5547 -0.8533
  539MOL0     H74376   8.120   8.499  10.496 -1.0586 -2.0709 -1.5694
  539MOL0     H74377   8.059   8.512  10.335  1.7347 -0.6575 -0.3549
  539MOL0     H74378   7.726   8.675  10.519 -0.1506 -2.2858  1.5625
  539MOL0     H74379   7.993   8.998   9.946 -0.7416  1.1109 -2.2663
  539MOL0     H74380   7.861   9.078   9.767 -3.1055 -1.8499 -0.1711
  539MOL0     H74381   7.958   9.099   9.626 -3.6531  3.2769  0.7442
  539MOL0     H74382   7.831   8.979   9.629 -1.5721  2.9363  0.1076
  540MOL0     O74383  10.496   0.286   9.112  0.6723 -0.7904  0.3888
  540MOL0     C74384  10.471   0.300   8.997 -0.7536 -0.0968  0.2519
  540MOL0     O74385  10.355   0.354   8.951 -0.3599 -0.2443  0.5245
  540MOL0     C74386  10.241   0.366   9.030 -0.8083 -0.2601 -0.0373
  540MOL0     C74387  10.190   0.268   9.117 -0.2149 -0.4496 -0.1699
  540MOL0     C74388  10.085   0.304   9.204  0.5465  0.4171 -0.4945
  540MOL0     C74389  10.022   0.431   9.198  0.2234 -0.4184 -0.1486
  540MOL0     O74390   9.920   0.472   9.276  0.3831 -0.8092  0.2825
  540MOL0     C74391   9.887   0.404   9.397  0.0516 -0.2217  0.2813
  540MOL0     C74392   9.788   0.297   9.352 -0.2341  1.0982  0.9853
  540MOL0     C74393   9.662   0.339   9.268  0.0407 -0.1079 -0.6762
  540MOL0     C74394   9.686   0.334   9.111  0.2106  0.1450  0.3993
  540MOL0     C74395   9.701   0.472   9.036  0.2249  0.2266  1.1697
  540MOL0     C74396   9.580   0.577   9.052 -0.1046 -0.0343  0.4045
  540MOL0     C74397   9.582   0.663   8.921 -0.0882  0.0011  0.0145
  540MOL0     C74398   9.451   0.744   8.922  0.3253  0.4049 -0.0070
  540MOL0     N74399   9.431   0.820   8.801  0.3383 -0.0326  0.3868
  540MOL0     C74400   9.505   0.923   8.750  0.5925  0.6651 -0.0510
  540MOL0     C74401   9.460   0.944   8.628 -0.6417  1.2623  0.1591
  540MOL0     C74402   9.517   1.032   8.512 -0.0367 -0.1219  0.4979
  540MOL0     C74403   9.415   1.144   8.485  0.5537  0.3302 -0.4094
  540MOL0     C74404   9.452   1.221   8.363  0.2628 -0.3087  0.5495
  540MOL0     C74405   9.447   1.162   8.216 -0.2588 -1.4907 -0.5595
  540MOL0     O74406   9.462   1.264   8.110 -0.2049  0.5407  0.4424
  540MOL0     C74407   9.357   1.350   8.092 -0.2094  0.5612 -0.3517
  540MOL0     C74408   9.237   1.304   8.041  0.2912  0.6652 -0.1735
  540MOL0     C74409   9.126   1.389   8.025  1.0076  0.7034  0.2403
  540MOL0     C74410   8.991   1.327   7.973 -0.1391 -0.9360  0.5269
  540MOL0     C74411   9.128   1.531   8.066  0.5066  0.3779 -0.5555
  540MOL0     C74412   9.009   1.624   8.066 -0.7174 -0.1148 -0.5640
  540MOL0     O74413   9.039   1.754   8.068 -0.3026 -1.0424  0.0628
  540MOL0     C74414   8.935   1.840   8.064 -1.0083 -0.3917 -0.2372
  540MOL0     C74415   8.853   1.853   7.950  0.2011  0.2608 -0.1759
  540MOL0     C74416   8.747   1.953   7.945 -0.8497  0.2964  0.1111
  540MOL0     C74417   8.723   2.042   8.048 -0.2976 -0.4814 -0.6881
  540MOL0     O74418   8.612   2.119   8.063  0.2033  0.4994  0.3239
  540MOL0     C74419   8.640   2.251   8.110 -0.1002  1.0726 -0.7428
  540MOL0     C74420   8.660   2.357   8.007  0.8156  0.8124 -0.1303
  540MOL0     C74421   8.541   2.397   7.923 -0.5971 -0.7579  0.2145
  540MOL0     C74422   8.552   2.543   7.886  0.2204  0.3718  0.1358
  540MOL0     C74423   8.658   2.562   7.774 -0.5928 -1.1162  0.3410
  540MOL0     C74424   8.688   2.709   7.741  0.3737  0.9351 -0.5822
  540MOL0     C74425   8.558   2.768   7.674  0.6973 -0.7453 -0.2389
  540MOL0     C74426   8.592   2.889   7.592  0.2230 -0.6471 -0.0241
  540MOL0    Cl74427   8.456   3.006   7.576  0.3337 -0.0955  0.3425
  540MOL0     C74428   8.806   2.030   8.161  0.1430 -1.2571 -0.5255
  540MOL0     C74429   8.909   1.930   8.163  0.1177 -0.5197 -0.0932
  540MOL0     O74430   8.895   1.580   8.070 -0.2580  0.5355 -0.4681
  540MOL0     C74431   9.252   1.574   8.122  0.4790  0.2051 -0.9079
  540MOL0     C74432   9.361   1.484   8.130 -0.8432 -0.3606 -0.4076
  540MOL0     N74433   9.347   0.861   8.617  0.2072 -0.2004  0.3650
  540MOL0     N74434   9.323   0.797   8.720 -0.0590  0.6849  0.4187
  540MOL0     C74435  10.075   0.523   9.106 -0.4202  0.1178  1.1195
  540MOL0     C74436  10.188   0.498   9.026  0.0016 -0.7430  0.1564
  540MOL0     C74437  10.573   0.244   8.896 -0.3487  0.6467 -0.2312
  540MOL0     C74438  10.638   0.122   8.923 -0.7828 -0.3954 -0.0059
  540MOL0     C74439  10.730   0.056   8.834  0.7598  0.6234  0.5660
  540MOL0     C74440  10.758   0.117   8.711 -0.4949 -0.1464 -0.0345
  540MOL0     O74441  10.838   0.068   8.611  1.1605  0.6013 -0.2109
  540MOL0     C74442  10.944  -0.031   8.637  0.3884  0.6306  0.2999
  540MOL0     C74443  10.891  -0.167   8.566  0.0471  0.1085  0.0773
  540MOL0     C74444  10.997  -0.279   8.602 -0.3236 -0.8235  0.6141
  540MOL0     C74445  10.993  -0.379   8.485  0.1303 -0.2578  0.1022
  540MOL0     C74446  11.080  -0.487   8.526 -0.7917 -0.8454  0.4332
  540MOL0     C74447  11.149  -0.580   8.554 -0.0899 -1.1506  0.0712
  540MOL0     C74448  10.717   0.246   8.696  0.0927 -0.1141  0.5659
  540MOL0     C74449  10.624   0.313   8.784 -0.6083  1.0627  0.1677
  540MOL0     C74450  10.573   0.449   8.757  0.6308 -0.1271  0.0878
  540MOL0     H74451  10.237   0.171   9.133  1.9871  0.4872 -0.5621
  540MOL0     H74452  10.075   0.234   9.286 -2.7224  0.2580 -0.8925
  540MOL0     H74453   9.828   0.464   9.467 -0.3516  0.1284 -0.3452
  540MOL0     H74454   9.969   0.355   9.449 -0.9136 -0.6707  1.4345
  540MOL0     H74455   9.837   0.224   9.287 -0.9195  3.3755 -2.3581
  540MOL0     H74456   9.767   0.249   9.448  3.4453 -0.2797  1.2500
  540MOL0     H74457   9.583   0.268   9.295 -0.2160  1.3364  2.8991
  540MOL0     H74458   9.628   0.440   9.295 -0.6486 -0.9005  1.6237
  540MOL0     H74459   9.777   0.278   9.085  0.0420 -0.0268  0.1700
  540MOL0     H74460   9.601   0.275   9.076  0.8004 -0.7326  0.4110
  540MOL0     H74461   9.722   0.445   8.932  1.0943  0.5410  1.2544
  540MOL0     H74462   9.797   0.520   9.058  1.6707 -1.5279 -0.9145
  540MOL0     H74463   9.487   0.519   9.056 -1.3040  1.7656 -0.0232
  540MOL0     H74464   9.588   0.643   9.139  1.6652  2.7747 -1.7316
  540MOL0     H74465   9.571   0.596   8.836 -0.7169 -0.7271  0.6471
  540MOL0     H74466   9.671   0.727   8.919 -0.7393  1.0131  1.4316
  540MOL0     H74467   9.365   0.678   8.937 -0.0809  0.9042 -0.1045
  540MOL0     H74468   9.437   0.817   9.003 -2.4258 -0.7319  0.6528
  540MOL0     H74469   9.586   0.979   8.796  1.0564  0.6099 -0.7860
  540MOL0     H74470   9.526   0.962   8.429 -0.8712 -0.1871  0.4586
  540MOL0     H74471   9.616   1.065   8.548  0.7534 -1.6188 -0.2233
  540MOL0     H74472   9.311   1.108   8.490 -0.6610  3.4276 -0.8513
  540MOL0     H74473   9.431   1.211   8.570 -0.4335  1.6420 -1.2218
  540MOL0     H74474   9.395   1.314   8.358  2.7111  1.3759  1.7082
  540MOL0     H74475   9.553   1.259   8.386 -0.8085  1.9426  1.9218
  540MOL0     H74476   9.531   1.092   8.221  0.8488 -0.2143 -0.6051
  540MOL0     H74477   9.352   1.113   8.197 -1.6835  1.2788 -1.1036
  540MOL0     H74478   9.229   1.197   8.023  1.8986  0.8225 -2.3492
  540MOL0     H74479   9.007   1.237   7.913 -1.8634  0.0748 -1.5807
  540MOL0     H74480   8.949   1.395   7.899  3.1554 -1.1379 -1.7239
  540MOL0     H74481   8.929   1.301   8.060  0.1414 -0.9783  0.7171
  540MOL0     H74482   8.873   1.797   7.860 -2.4241 -2.7520  0.9257
  540MOL0     H74483   8.683   1.965   7.858  0.2302  1.4418 -0.5576
  540MOL0     H74484   8.550   2.277   8.167 -0.6590 -0.2582 -0.9912
  540MOL0     H74485   8.725   2.253   8.180  1.7947  1.3312 -2.9505
  540MOL0     H74486   8.692   2.443   8.067  0.9337  1.7181 -1.4362
  540MOL0     H74487   8.742   2.321   7.944 -1.2139  1.2008 -3.2260
  540MOL0     H74488   8.458   2.385   7.994 -0.3716  0.9267  0.8086
  540MOL0     H74489   8.535   2.332   7.836 -1.1764  0.4836 -0.7053
  540MOL0     H74490   8.581   2.605   7.972 -0.2120  1.8344 -0.7230
  540MOL0     H74491   8.452   2.570   7.852 -0.5410 -0.5788  1.5029
  540MOL0     H74492   8.751   2.520   7.814  0.0827  0.7377  0.8006
  540MOL0     H74493   8.624   2.497   7.693  1.8845 -2.8455  0.5587
  540MOL0     H74494   8.766   2.709   7.664 -2.2047 -0.1077 -3.3667
  540MOL0     H74495   8.723   2.766   7.828 -2.4653  2.7097 -0.4870
  540MOL0     H74496   8.489   2.800   7.752  1.7910  1.1225  0.0315
  540MOL0     H74497   8.504   2.704   7.604  1.5432 -1.2635 -0.4427
  540MOL0     H74498   8.620   2.846   7.495 -2.2552 -1.2879 -0.5332
  540MOL0     H74499   8.682   2.939   7.629  0.6532  0.0128 -1.8505
  540MOL0     H74500   8.798   2.091   8.250 -3.4534  0.5339 -1.8773
  540MOL0     H74501   8.983   1.926   8.242 -0.7725  0.2662  0.8116
  540MOL0     H74502   9.249   1.676   8.159 -1.4579 -0.2697  0.3872
  540MOL0     H74503   9.455   1.509   8.179 -0.1052 -3.5329  0.0289
  540MOL0     H74504  10.022   0.618   9.106 -0.0809  0.3807 -1.8363
  540MOL0     H74505  10.228   0.579   8.967 -0.3933  0.2888  1.2665
  540MOL0     H74506  10.619   0.084   9.023 -3.2325 -0.2056 -0.3428
  540MOL0     H74507  10.763  -0.048   8.833 -1.0541  0.0110  0.2543
  540MOL0     H74508  11.035  -0.014   8.579  0.1146 -2.9274 -1.4611
  540MOL0     H74509  10.968  -0.048   8.743  1.1447  2.4437  0.4401
  540MOL0     H74510  10.875  -0.151   8.459  2.9026  1.3102 -0.2575
  540MOL0     H74511  10.794  -0.198   8.605  0.0758  1.1454  1.0433
  540MOL0     H74512  11.094  -0.231   8.614 -0.4978 -0.7588  1.9254
  540MOL0     H74513  10.970  -0.302   8.706 -1.3112 -0.2104  0.5161
  540MOL0     H74514  11.028  -0.337   8.390 -0.6338  0.7155  0.2336
  540MOL0     H74515  10.892  -0.416   8.464  0.5236 -2.5378  1.7751
  540MOL0     H74516  11.222  -0.652   8.585 -0.4487 -1.7462 -0.4603
  540MOL0     H74517  10.755   0.298   8.609 -1.1064 -1.7836 -1.0166
  540MOL0     H74518  10.625   0.477   8.665 -1.1482 -1.6259 -1.4501
  540MOL0     H74519  10.466   0.447   8.734  0.6200 -1.4154  0.1556
  540MOL0     H74520  10.600   0.526   8.830 -0.3167  1.3263 -1.0531
  541MOL0     O74521   6.357   2.475   6.940  0.9525  0.4162  1.0671
  541MOL0     C74522   6.316   2.567   7.002  0.0928 -0.3974  0.3332
  541MOL0     O74523   6.344   2.693   6.972  0.4760 -0.8013  0.1467
  541MOL0     C74524   6.419   2.723   6.855  0.7042  0.1686 -0.2401
  541MOL0     C74525   6.550   2.750   6.867 -0.1874 -0.1063  0.3879
  541MOL0     C74526   6.635   2.759   6.752  0.5416 -0.4263 -0.4304
  541MOL0     C74527   6.573   2.767   6.628  0.5133  0.9690  0.8660
  541MOL0     O74528   6.654   2.784   6.518 -0.2223  0.4546  0.7736
  541MOL0     C74529   6.677   2.921   6.490  0.2496 -0.3095  0.0452
  541MOL0     C74530   6.813   2.986   6.523  0.1470  0.0061  0.1152
  541MOL0     C74531   6.923   2.909   6.454 -0.1193  0.4970 -0.1836
  541MOL0     C74532   7.059   2.909   6.529  0.8579  0.1259 -0.2951
  541MOL0     C74533   7.171   2.855   6.445  0.1265  1.2288 -0.0777
  541MOL0     C74534   7.309   2.886   6.498 -0.4431 -0.9894  0.2372
  541MOL0     C74535   7.415   2.851   6.387 -0.1595 -0.1383 -0.0134
  541MOL0     C74536   7.548   2.810   6.452  0.1020 -0.6616 -0.0214
  541MOL0     N74537   7.667   2.789   6.357 -0.0590  0.1147 -0.0706
  541MOL0     C74538   7.803   2.784   6.376  0.1321  0.0516  0.0718
  541MOL0     C74539   7.867   2.781   6.259 -0.4198  0.3471  0.3514
  541MOL0     C74540   8.013   2.766   6.236 -0.5983  0.6546  0.4376
  541MOL0     C74541   8.108   2.855   6.326  0.3032  0.2708  0.7880
  541MOL0     C74542   8.071   3.005   6.329 -0.0867  0.1346  0.1135
  541MOL0     C74543   8.113   3.072   6.198  0.5006 -1.0988 -0.0451
  541MOL0     O74544   8.251   3.116   6.222 -0.1984  0.4063 -0.5296
  541MOL0     C74545   8.303   3.200   6.124 -0.6291  1.0481  0.4510
  541MOL0     C74546   8.437   3.238   6.129 -0.1331 -0.3020 -0.9072
  541MOL0     C74547   8.492   3.328   6.032 -0.1628 -0.2279  0.6546
  541MOL0     C74548   8.629   3.379   6.061  0.1141 -0.7377  0.5264
  541MOL0     C74549   8.429   3.353   5.909 -0.9569  0.5166  0.1107
  541MOL0     C74550   8.484   3.427   5.791  0.0043  0.1633  1.1359
  541MOL0     O74551   8.620   3.454   5.793 -0.1761 -0.5285 -0.1756
  541MOL0     C74552   8.677   3.541   5.708 -0.3271 -0.0146  0.3861
  541MOL0     C74553   8.816   3.537   5.702  0.4046 -0.2455 -0.0011
  541MOL0     C74554   8.885   3.619   5.613 -0.4525  0.2566 -0.1987
  541MOL0     C74555   8.814   3.726   5.553 -0.3890 -0.7786  0.3283
  541MOL0     O74556   8.898   3.811   5.472 -0.4377 -0.2118 -0.2679
  541MOL0     C74557   8.857   3.924   5.395  0.6224  0.5546  1.0028
  541MOL0     C74558   8.982   3.997   5.337 -0.0197 -0.0455 -0.4074
  541MOL0     C74559   9.065   4.069   5.442 -0.3891  0.8659  0.0280
  541MOL0     C74560   9.198   4.108   5.390 -0.6364 -0.2718 -1.3113
  541MOL0     C74561   9.285   4.154   5.515 -0.2766  0.3726 -0.7943
  541MOL0     C74562   9.404   4.224   5.470  0.2419 -0.5493  0.3800
  541MOL0     C74563   9.490   4.267   5.594  0.0603  0.3475 -0.8856
  541MOL0     C74564   9.627   4.325   5.568 -1.1449 -0.2418  0.3872
  541MOL0    Cl74565   9.733   4.187   5.515 -0.0959  0.6118  0.1329
  541MOL0     C74566   8.677   3.737   5.555 -0.5206  0.4768 -0.4592
  541MOL0     C74567   8.610   3.636   5.636  0.4291  0.5319  0.2704
  541MOL0     O74568   8.404   3.455   5.696 -0.4913 -0.5252 -0.0791
  541MOL0     C74569   8.303   3.300   5.896 -0.5727 -0.4098 -0.2263
  541MOL0     C74570   8.241   3.234   6.003  0.6389  0.6681 -0.5255
  541MOL0     N74571   7.768   2.792   6.166 -0.4629  0.4878  0.8324
  541MOL0     N74572   7.649   2.798   6.226  0.4277 -0.8119  0.0367
  541MOL0     C74573   6.431   2.743   6.613 -0.6583  0.9133 -0.2879
  541MOL0     C74574   6.360   2.718   6.729 -0.0900 -0.0939 -0.5956
  541MOL0     C74575   6.216   2.542   7.109 -1.1719  0.0199  0.0935
  541MOL0     C74576   6.127   2.642   7.140 -0.4545  0.0716  0.4292
  541MOL0     C74577   6.043   2.633   7.249  0.1041 -0.4266  0.1228
  541MOL0     C74578   6.063   2.533   7.339 -0.1102  0.7572  0.0225
  541MOL0     O74579   6.008   2.527   7.462  0.2523 -0.5669  0.4207
  541MOL0     C74580   5.887   2.599   7.480 -0.8926  0.0448  1.0886
  541MOL0     C74581   5.830   2.563   7.616  0.3015 -0.0560 -0.2888
  541MOL0     C74582   5.678   2.570   7.630 -0.0037 -0.1591  0.0350
  541MOL0     C74583   5.636   2.585   7.770  1.0441  1.2857  0.0892
  541MOL0     C74584   5.493   2.592   7.791  0.6560  0.0044  0.5004
  541MOL0     C74585   5.373   2.605   7.801  0.0026  0.1541 -0.0968
  541MOL0     C74586   6.157   2.433   7.310 -0.0578 -0.6031  0.2047
  541MOL0     C74587   6.219   2.423   7.184 -0.0618 -0.6262 -0.1872
  541MOL0     C74588   6.310   2.305   7.162  0.5029 -1.7541  0.1496
  541MOL0     H74589   6.592   2.776   6.964 -0.7975  2.7932 -0.0230
  541MOL0     H74590   6.742   2.770   6.746  0.4799 -0.2754 -1.4437
  541MOL0     H74591   6.588   2.971   6.530  0.3348 -0.1512  0.0387
  541MOL0     H74592   6.659   2.940   6.384  0.4325  0.6654  0.1807
  541MOL0     H74593   6.812   3.088   6.482 -0.8652  0.3667  1.0089
  541MOL0     H74594   6.834   2.986   6.630  1.3991 -1.7781 -0.0877
  541MOL0     H74595   6.896   2.805   6.434  2.2352 -0.1340 -0.4076
  541MOL0     H74596   6.944   2.952   6.355  2.1099 -0.0997 -0.0136
  541MOL0     H74597   7.086   3.009   6.565  2.8435 -1.5407  3.3802
  541MOL0     H74598   7.043   2.850   6.619  1.6185  1.1248  0.5113
  541MOL0     H74599   7.167   2.882   6.339  1.1659  0.8645 -0.2133
  541MOL0     H74600   7.146   2.748   6.445 -2.4201  1.7410  0.7772
  541MOL0     H74601   7.313   2.995   6.510 -0.0376 -1.1102  1.3242
  541MOL0     H74602   7.329   2.844   6.597  0.6883  0.3180  0.6068
  541MOL0     H74603   7.439   2.933   6.319 -0.1666 -1.2914 -1.4505
  541MOL0     H74604   7.380   2.773   6.319  0.7715 -0.4935 -0.1032
  541MOL0     H74605   7.574   2.892   6.520 -0.7576  1.4171 -2.0945
  541MOL0     H74606   7.530   2.721   6.514  4.3534 -1.8734 -0.1959
  541MOL0     H74607   7.856   2.785   6.471  1.6076 -0.9462 -0.6886
  541MOL0     H74608   8.032   2.796   6.133 -1.1381  0.0530  0.1558
  541MOL0     H74609   8.040   2.661   6.243 -1.5985  0.1918 -1.7239
  541MOL0     H74610   8.106   2.799   6.420  0.0791  1.7194  1.6857
  541MOL0     H74611   8.212   2.846   6.295 -0.0165 -1.5687  0.1560
  541MOL0     H74612   7.963   3.004   6.341 -0.0343 -0.5096  0.5983
  541MOL0     H74613   8.121   3.066   6.405  1.2463 -0.5533 -0.1701
  541MOL0     H74614   8.101   3.002   6.115 -1.5343  0.9108 -1.5668
  541MOL0     H74615   8.049   3.159   6.179 -1.1656 -1.9330  1.4677
  541MOL0     H74616   8.489   3.217   6.222  0.7028 -1.8162 -1.6830
  541MOL0     H74617   8.699   3.333   5.991  2.4628 -1.8074  3.3767
  541MOL0     H74618   8.661   3.348   6.161 -2.0644 -0.7371  1.2888
  541MOL0     H74619   8.637   3.488   6.057 -0.5101 -0.7118 -0.2940
  541MOL0     H74620   8.876   3.462   5.753 -0.1137 -0.6111  0.0816
  541MOL0     H74621   8.990   3.612   5.586 -0.0651  0.3801  1.2107
  541MOL0     H74622   8.783   3.903   5.318 -0.8955  2.2818  1.8921
  541MOL0     H74623   8.813   4.009   5.449  0.8905  3.7976 -3.3374
  541MOL0     H74624   9.040   3.919   5.288  0.9118 -0.5855  1.4528
  541MOL0     H74625   8.962   4.081   5.269  0.9971  0.8747  0.3827
  541MOL0     H74626   9.077   4.000   5.526 -0.1736  0.5391 -0.2691
  541MOL0     H74627   9.002   4.152   5.474 -3.4943 -1.9181  1.7438
  541MOL0     H74628   9.181   4.194   5.325 -0.5616  0.0838 -0.8655
  541MOL0     H74629   9.263   4.037   5.337  3.2334  1.3916  0.7663
  541MOL0     H74630   9.228   4.230   5.570  0.6363  3.3373 -3.5789
  541MOL0     H74631   9.312   4.070   5.580  2.4271  2.3715  0.9155
  541MOL0     H74632   9.365   4.316   5.425  0.4444 -0.0201  1.2729
  541MOL0     H74633   9.461   4.165   5.397 -0.7801  1.2751 -2.0424
  541MOL0     H74634   9.500   4.184   5.665  0.5638  2.3585  1.5310
  541MOL0     H74635   9.438   4.340   5.657  1.6178  0.6158  0.1501
  541MOL0     H74636   9.669   4.381   5.652  2.6523  0.8279 -2.0042
  541MOL0     H74637   9.611   4.400   5.490 -0.5922  2.4675  2.7085
  541MOL0     H74638   8.616   3.807   5.497 -3.2888 -1.6975 -0.3975
  541MOL0     H74639   8.502   3.648   5.632  0.5514  1.4232 -1.8443
  541MOL0     H74640   8.237   3.325   5.814 -4.0050  0.3616  2.5264
  541MOL0     H74641   8.133   3.226   6.001  0.6879 -0.9342  0.9009
  541MOL0     H74642   6.382   2.738   6.517  2.1029 -0.5697 -1.7621
  541MOL0     H74643   6.255   2.692   6.719 -0.6757  1.4859  1.1229
  541MOL0     H74644   6.120   2.739   7.093  1.7560 -1.2937 -3.1065
  541MOL0     H74645   5.970   2.710   7.271  0.7406 -0.1264  1.3033
  541MOL0     H74646   5.919   2.704   7.474  2.3969 -0.9252 -2.6183
  541MOL0     H74647   5.816   2.574   7.401 -0.0346  1.5440 -0.2274
  541MOL0     H74648   5.881   2.629   7.687 -1.0472 -0.6869  1.3400
  541MOL0     H74649   5.856   2.458   7.631  0.0384 -0.1303 -0.3420
  541MOL0     H74650   5.643   2.652   7.566  0.3239  0.0090  0.0689
  541MOL0     H74651   5.635   2.478   7.590 -0.3094 -0.9844  2.1539
  541MOL0     H74652   5.677   2.684   7.795 -0.7328  2.0741  0.0536
  541MOL0     H74653   5.677   2.516   7.844  1.7669 -1.5112 -2.7545
  541MOL0     H74654   5.270   2.631   7.811 -0.0837 -0.1911 -0.0704
  541MOL0     H74655   6.160   2.352   7.382 -1.7379 -3.2031 -2.4175
  541MOL0     H74656   6.279   2.253   7.071  1.3628  0.4558 -1.4966
  541MOL0     H74657   6.416   2.329   7.159  0.5115 -1.5412  1.5452
  541MOL0     H74658   6.304   2.229   7.241  1.9494 -2.6234 -0.5373
  542MOL0     O74659   7.596   0.090   6.251 -0.4533  0.5312 -0.2817
  542MOL0     C74660   7.627   0.064   6.131 -0.4719  0.0079  0.1754
  542MOL0     O74661   7.664   0.158   6.036 -0.3746 -0.4037  0.3109
  542MOL0     C74662   7.706   0.279   6.084  0.3666  1.2251  0.8181
  542MOL0     C74663   7.844   0.295   6.106 -0.7375  0.3415 -0.5132
  542MOL0     C74664   7.880   0.412   6.178 -1.4054 -0.4130  0.3526
  542MOL0     C74665   7.789   0.524   6.198  1.0599  0.6656 -0.3683
  542MOL0     O74666   7.823   0.647   6.241  0.5892 -0.0218 -0.4309
  542MOL0     C74667   7.735   0.702   6.343  0.5185  0.1721  0.6371
  542MOL0     C74668   7.809   0.819   6.409 -0.2333 -0.9131  0.3813
  542MOL0     C74669   7.768   0.854   6.554  0.0499 -0.3191  0.9726
  542MOL0     C74670   7.793   0.743   6.650  0.0532 -0.2298 -0.0089
  542MOL0     C74671   7.788   0.789   6.799 -0.6272  1.1797 -1.0974
  542MOL0     C74672   7.828   0.671   6.884  0.1219  0.2863  0.2593
  542MOL0     C74673   7.797   0.684   7.033 -0.2589 -0.5207  0.0604
  542MOL0     C74674   7.815   0.563   7.117  0.2077  1.1361  0.2194
  542MOL0     N74675   7.818   0.600   7.252  0.3445  0.2196  0.2832
  542MOL0     C74676   7.731   0.684   7.322  0.0011 -0.7885 -0.7428
  542MOL0     C74677   7.775   0.678   7.452  0.0444 -0.6194  0.5976
  542MOL0     C74678   7.710   0.749   7.559  0.6356 -0.8962 -0.6764
  542MOL0     C74679   7.646   0.649   7.668 -0.1264 -0.4650  0.1560
  542MOL0     C74680   7.549   0.735   7.746  0.2869 -0.4421  0.1204
  542MOL0     C74681   7.446   0.638   7.822  0.6520  0.1669  0.4417
  542MOL0     O74682   7.528   0.564   7.912 -0.2466 -0.0470 -0.1884
  542MOL0     C74683   7.471   0.494   8.013 -0.7063 -0.0488  0.4330
  542MOL0     C74684   7.339   0.477   8.040  0.1394  0.1236 -0.1207
  542MOL0     C74685   7.285   0.415   8.159 -1.3658 -0.3391  0.0300
  542MOL0     C74686   7.139   0.395   8.179 -0.2373  0.0816  0.1219
  542MOL0     C74687   7.372   0.352   8.244 -0.5241  0.4037  0.3731
  542MOL0     C74688   7.330   0.261   8.350  0.1058  0.3870 -0.6401
  542MOL0     O74689   7.259   0.310   8.460  0.3959 -0.2232 -0.0100
  542MOL0     C74690   7.217   0.209   8.544  0.0952 -0.3290  1.3809
  542MOL0     C74691   7.282   0.162   8.665  0.3186 -0.8852  0.9522
  542MOL0     C74692   7.212   0.058   8.734 -0.7270  0.1986  0.4016
  542MOL0     C74693   7.094   0.008   8.695 -0.6111 -0.5666  0.8693
  542MOL0     O74694   7.032  -0.090   8.762  1.0427  0.6393 -0.1906
  542MOL0     C74695   6.983  -0.057   8.896  0.2149  1.3461 -0.0666
  542MOL0     C74696   6.945  -0.188   8.968  0.5480 -0.4002  0.6339
  542MOL0     C74697   7.063  -0.275   8.999 -0.8589  0.7108 -0.1519
  542MOL0     C74698   7.012  -0.410   9.061 -0.1721 -0.1073 -0.0556
  542MOL0     C74699   7.127  -0.513   9.071 -0.0692  0.4404  0.5634
  542MOL0     C74700   7.236  -0.483   9.180  0.3666  0.3486  0.1295
  542MOL0     C74701   7.186  -0.520   9.326  0.0358  0.2177  0.9051
  542MOL0     C74702   7.287  -0.483   9.436  0.1480  0.0002  0.6147
  542MOL0    Cl74703   7.298  -0.308   9.466  0.0621  0.5669 -0.3050
  542MOL0     C74704   7.037   0.062   8.579  0.5621 -0.4311  0.0133
  542MOL0     C74705   7.089   0.164   8.509 -0.5191 -0.1876  0.1001
  542MOL0     O74706   7.372   0.144   8.344 -0.3762  0.7558  0.2595
  542MOL0     C74707   7.512   0.358   8.211  0.1255 -0.4793  0.4733
  542MOL0     C74708   7.563   0.434   8.111  0.1060 -0.7925  0.3077
  542MOL0     N74709   7.890   0.598   7.450 -0.1008 -0.4409  0.8019
  542MOL0     N74710   7.926   0.565   7.327  0.4059  0.6943  0.4558
  542MOL0     C74711   7.655   0.500   6.147 -0.6308  0.2886  0.4084
  542MOL0     C74712   7.609   0.374   6.108 -0.5651 -0.1981  0.3038
  542MOL0     C74713   7.622  -0.072   6.079 -0.2164 -0.2520 -0.0990
  542MOL0     C74714   7.641  -0.087   5.943 -0.7137  0.2007 -0.2832
  542MOL0     C74715   7.649  -0.215   5.881  0.0871  1.3063 -0.5165
  542MOL0     C74716   7.614  -0.326   5.955 -0.4274 -0.5442 -0.3163
  542MOL0     O74717   7.609  -0.453   5.901  0.2066  0.0959  0.4949
  542MOL0     C74718   7.506  -0.467   5.801  0.1820  1.0147  0.8685
  542MOL0     C74719   7.435  -0.604   5.818 -0.3094 -0.0618 -0.1536
  542MOL0     C74720   7.328  -0.617   5.702  0.0345 -1.2860  0.4089
  542MOL0     C74721   7.237  -0.734   5.708 -0.0730 -0.5177  0.1868
  542MOL0     C74722   7.144  -0.747   5.595  0.3444  0.1721 -1.0357
  542MOL0     C74723   7.070  -0.763   5.498  0.5149  0.3795 -0.1932
  542MOL0     C74724   7.611  -0.316   6.091 -0.2396 -0.3131 -0.4039
  542MOL0     C74725   7.611  -0.192   6.158  0.7185  0.2508  0.6035
  542MOL0     C74726   7.621  -0.195   6.305  0.6934 -0.0357  0.2834
  542MOL0     H74727   7.913   0.216   6.081 -1.5119  0.1150 -2.0531
  542MOL0     H74728   7.981   0.431   6.213 -1.5006 -0.1886  0.5020
  542MOL0     H74729   7.735   0.618   6.413  2.7752 -0.6344 -0.2322
  542MOL0     H74730   7.634   0.722   6.306  0.4911 -2.5220 -1.0719
  542MOL0     H74731   7.913   0.787   6.411 -0.5089 -1.8151  1.1846
  542MOL0     H74732   7.798   0.898   6.334  0.1346 -1.6547 -0.4664
  542MOL0     H74733   7.823   0.943   6.584  1.4169 -0.1357 -1.7526
  542MOL0     H74734   7.666   0.892   6.548  0.9891  2.1451 -1.9206
  542MOL0     H74735   7.740   0.651   6.626 -0.4182  0.0888 -0.1910
  542MOL0     H74736   7.894   0.706   6.631  0.5434 -0.0020  1.8711
  542MOL0     H74737   7.681   0.807   6.810 -1.4981 -3.8441  1.5848
  542MOL0     H74738   7.858   0.872   6.810 -0.7480  1.4650 -2.3297
  542MOL0     H74739   7.766   0.587   6.850  0.3081 -0.5371  1.8275
  542MOL0     H74740   7.928   0.631   6.864  0.8692  1.8238  0.7466
  542MOL0     H74741   7.696   0.726   7.047 -0.5246 -1.4019  0.8754
  542MOL0     H74742   7.861   0.760   7.079 -1.0912 -0.7524  1.7072
  542MOL0     H74743   7.732   0.500   7.085  0.0991  1.4275 -0.0812
  542MOL0     H74744   7.906   0.504   7.101 -1.0624 -0.7636 -0.2370
  542MOL0     H74745   7.639   0.733   7.289 -0.6296 -2.1043 -0.9794
  542MOL0     H74746   7.635   0.817   7.518  1.1304  1.0583  1.4617
  542MOL0     H74747   7.783   0.816   7.605 -1.9916  1.0316  0.9460
  542MOL0     H74748   7.599   0.564   7.616 -0.4672 -0.2386  0.0873
  542MOL0     H74749   7.717   0.609   7.741 -1.2536 -2.9834 -0.0201
  542MOL0     H74750   7.609   0.794   7.816  1.7576 -1.7300  0.0014
  542MOL0     H74751   7.488   0.794   7.678 -1.3954 -2.9005 -0.6545
  542MOL0     H74752   7.371   0.701   7.872  0.6609  2.1600 -1.8633
  542MOL0     H74753   7.396   0.582   7.743  0.0704  0.4488  0.6007
  542MOL0     H74754   7.259   0.497   7.969 -1.7827 -0.0454  1.8842
  542MOL0     H74755   7.093   0.493   8.195 -0.7094  0.1297 -1.3920
  542MOL0     H74756   7.106   0.323   8.254 -2.0793  0.5114 -0.2250
  542MOL0     H74757   7.076   0.379   8.091 -0.6656  1.0983  0.2245
  542MOL0     H74758   7.373   0.209   8.701 -0.6841  0.4828  1.7511
  542MOL0     H74759   7.260   0.015   8.822 -0.5939  0.5191  0.4881
  542MOL0     H74760   7.052  -0.002   8.960  2.6802 -0.7209 -0.7843
  542MOL0     H74761   6.892   0.002   8.880  0.3968  0.8075 -4.1811
  542MOL0     H74762   6.889  -0.153   9.056 -1.8132 -0.8511 -0.5929
  542MOL0     H74763   6.865  -0.240   8.914 -0.6293 -1.4677  3.2046
  542MOL0     H74764   7.114  -0.221   9.079 -2.5178  1.1815  0.6512
  542MOL0     H74765   7.132  -0.280   8.915  0.0759  0.6014  0.6026
  542MOL0     H74766   6.948  -0.461   8.988  1.5454 -4.1424  0.9683
  542MOL0     H74767   6.949  -0.399   9.150 -2.8832 -0.9682 -1.7424
  542MOL0     H74768   7.093  -0.615   9.088  2.4826 -0.6555 -0.3777
  542MOL0     H74769   7.168  -0.516   8.970 -1.7016 -1.5362 -0.0924
  542MOL0     H74770   7.265  -0.378   9.178  0.4150  0.3283 -1.3805
  542MOL0     H74771   7.326  -0.542   9.161  0.3493  0.0143  1.0315
  542MOL0     H74772   7.160  -0.627   9.322  1.7749 -0.2139 -0.4086
  542MOL0     H74773   7.087  -0.474   9.330  0.2715  1.2021 -2.0087
  542MOL0     H74774   7.381  -0.525   9.397 -1.2333 -0.0683 -3.0337
  542MOL0     H74775   7.273  -0.538   9.529  0.7789  4.5862  3.7505
  542MOL0     H74776   6.949   0.003   8.553  0.1142 -0.7243  1.9823
  542MOL0     H74777   7.027   0.199   8.427 -1.2908  0.0536  0.7674
  542MOL0     H74778   7.583   0.294   8.263  0.4554  0.0968  0.7318
  542MOL0     H74779   7.669   0.455   8.103  0.1318  1.2376  3.9449
  542MOL0     H74780   7.586   0.584   6.139 -0.8946  0.1541  1.1303
  542MOL0     H74781   7.507   0.358   6.073 -0.5188  1.4545 -0.7028
  542MOL0     H74782   7.660  -0.007   5.873 -0.7852  1.8554  1.5061
  542MOL0     H74783   7.663  -0.216   5.774 -1.3693 -0.6025 -0.7370
  542MOL0     H74784   7.436  -0.384   5.812  1.3226  2.7880 -3.2761
  542MOL0     H74785   7.551  -0.476   5.701  2.1847  1.6747  1.6504
  542MOL0     H74786   7.393  -0.596   5.919 -0.7430 -0.1837 -0.3242
  542MOL0     H74787   7.513  -0.681   5.817 -0.2046  0.0411 -1.2028
  542MOL0     H74788   7.275  -0.522   5.693 -1.7798 -2.3325 -0.4677
  542MOL0     H74789   7.360  -0.619   5.598  1.0141  0.2369  0.6402
  542MOL0     H74790   7.182  -0.745   5.802 -1.8872 -1.1004 -0.8888
  542MOL0     H74791   7.296  -0.827   5.703  1.0146  0.1300  0.6445
  542MOL0     H74792   6.993  -0.770   5.424 -0.2417 -3.3799  0.7046
  542MOL0     H74793   7.590  -0.408   6.146 -1.1697  0.2599  0.2426
  542MOL0     H74794   7.714  -0.147   6.336  1.8879  0.0664 -3.0096
  542MOL0     H74795   7.535  -0.137   6.340  0.5313  0.2044 -0.4893
  542MOL0     H74796   7.614  -0.291   6.357 -1.4904  0.6780  1.4486
  543MOL0     O74797   6.527   0.372   3.410  0.5989 -0.7498  0.4520
  543MOL0     C74798   6.579   0.360   3.522  0.2295  0.9887 -0.4275
  543MOL0     O74799   6.645   0.243   3.555  0.3117  1.1201 -0.3788
  543MOL0     C74800   6.672   0.160   3.451 -0.1445  0.1188 -0.3070
  543MOL0     C74801   6.588   0.056   3.404  0.3679 -0.6522  0.8901
  543MOL0     C74802   6.633  -0.033   3.295 -0.8421 -1.0881 -0.1726
  543MOL0     C74803   6.763  -0.029   3.245 -0.0514 -0.1702 -0.0238
  543MOL0     O74804   6.826  -0.134   3.180 -0.0173  0.0624 -0.4091
  543MOL0     C74805   6.783  -0.263   3.227  0.1160 -0.6428  0.2059
  543MOL0     C74806   6.884  -0.367   3.184 -0.7220 -0.4760  0.3826
  543MOL0     C74807   6.872  -0.392   3.028  0.8408 -0.3678 -0.6816
  543MOL0     C74808   6.971  -0.498   2.988 -1.2323  0.8618 -0.8723
  543MOL0     C74809   6.986  -0.526   2.841  0.0882  0.5278 -0.0745
  543MOL0     C74810   7.046  -0.394   2.779  0.0539 -0.3604 -0.2892
  543MOL0     C74811   7.077  -0.430   2.628  0.5983  0.6317  0.1887
  543MOL0     C74812   7.074  -0.314   2.532 -0.4229  0.8831  1.1098
  543MOL0     N74813   7.057  -0.360   2.394  0.3607 -0.2407  0.1955
  543MOL0     C74814   7.155  -0.396   2.310 -0.1853  0.4495  0.4931
  543MOL0     C74815   7.091  -0.412   2.194  0.3265 -0.1576  0.5029
  543MOL0     C74816   7.158  -0.457   2.061 -0.3203  0.3221  0.4997
  543MOL0     C74817   7.242  -0.352   1.996  0.4109  0.0322  0.4155
  543MOL0     C74818   7.315  -0.380   1.862 -0.0529  0.9571 -0.3632
  543MOL0     C74819   7.417  -0.267   1.840  0.5611 -0.8996  0.2923
  543MOL0     O74820   7.523  -0.274   1.936  0.6762 -0.0490 -0.5690
  543MOL0     C74821   7.627  -0.181   1.921 -0.4128  0.2984 -0.3277
  543MOL0     C74822   7.656  -0.109   1.806 -1.2709  0.0118  0.4216
  543MOL0     C74823   7.763  -0.027   1.809 -0.4781 -0.7528 -0.2564
  543MOL0     C74824   7.775   0.072   1.688 -0.5090 -0.3491 -1.2122
  543MOL0     C74825   7.859  -0.028   1.910 -0.6461 -0.1489  0.5765
  543MOL0     C74826   7.971   0.072   1.927 -0.4586 -0.5749 -0.2850
  543MOL0     O74827   8.086   0.025   1.975 -1.1064  0.6586 -0.0810
  543MOL0     C74828   8.186   0.106   2.016 -0.6638 -0.1737 -0.7258
  543MOL0     C74829   8.253   0.089   2.139  0.0356 -0.2826 -0.2303
  543MOL0     C74830   8.352   0.179   2.180 -0.0158 -0.5552 -0.6169
  543MOL0     C74831   8.397   0.288   2.110  0.1749 -0.0817  0.4511
  543MOL0     O74832   8.518   0.354   2.134  0.0758 -0.1525 -0.0308
  543MOL0     C74833   8.550   0.380   2.268 -0.0750 -0.3005 -0.1809
  543MOL0     C74834   8.553   0.541   2.276 -1.3128  0.3494 -0.8186
  543MOL0     C74835   8.507   0.591   2.418 -0.2452  0.2663  0.1604
  543MOL0     C74836   8.623   0.589   2.519  0.5915 -0.0438 -0.0583
  543MOL0     C74837   8.578   0.644   2.656 -0.6304 -0.4128 -0.5501
  543MOL0     C74838   8.696   0.675   2.753  0.3668  0.4115 -0.5583
  543MOL0     C74839   8.745   0.543   2.822 -1.0354 -0.2576  0.5168
  543MOL0     C74840   8.743   0.573   2.973 -0.2307 -0.2570 -0.3651
  543MOL0    Cl74841   8.877   0.693   3.008  0.2321  0.4104  0.5366
  543MOL0     C74842   8.339   0.294   1.975  0.2711 -0.2870 -0.1844
  543MOL0     C74843   8.228   0.212   1.933  1.1696  0.2456 -0.1033
  543MOL0     O74844   7.955   0.188   1.889  0.0500  0.7956 -0.4454
  543MOL0     C74845   7.844  -0.114   2.014  0.2097 -0.0997 -0.3324
  543MOL0     C74846   7.716  -0.182   2.035 -0.6347  0.2209 -0.1113
  543MOL0     N74847   6.961  -0.378   2.197 -0.3286 -0.2900 -0.5772
  543MOL0     N74848   6.948  -0.342   2.321  0.0971 -0.3205  0.3080
  543MOL0     C74849   6.842   0.075   3.297  0.1037  0.2916 -0.1856
  543MOL0     C74850   6.795   0.165   3.395 -0.4425 -0.2787  0.6308
  543MOL0     C74851   6.563   0.468   3.622  0.4421  0.3590 -0.6416
  543MOL0     C74852   6.475   0.573   3.594 -0.3356 -0.0545  0.1692
  543MOL0     C74853   6.469   0.684   3.677  0.7128  0.5371 -0.4355
  543MOL0     C74854   6.555   0.691   3.795  0.6008 -0.8466 -0.4945
  543MOL0     O74855   6.549   0.806   3.862 -0.6097 -0.5128  0.6687
  543MOL0     C74856   6.585   0.805   4.003 -0.0011  0.0024 -1.0665
  543MOL0     C74857   6.582   0.949   4.058  0.0282 -0.5764  0.4507
  543MOL0     C74858   6.689   1.035   3.982  0.2147 -0.1147  0.7518
  543MOL0     C74859   6.666   1.181   4.011  0.7275 -0.5979 -0.4732
  543MOL0     C74860   6.681   1.209   4.154  0.5969 -0.1372 -0.2041
  543MOL0     C74861   6.681   1.226   4.277 -0.1471 -0.0432 -1.2108
  543MOL0     C74862   6.645   0.582   3.822 -0.3589  0.1223  1.0833
  543MOL0     C74863   6.655   0.472   3.739 -0.2121 -0.3563  0.2514
  543MOL0     C74864   6.761   0.368   3.769 -0.9256 -0.8085  0.4182
  543MOL0     H74865   6.491   0.045   3.451 -0.4102 -3.3803 -1.0882
  543MOL0     H74866   6.568  -0.115   3.264 -0.1232 -1.5048 -0.5934
  543MOL0     H74867   6.687  -0.288   3.181 -0.4919  2.8700 -0.7375
  543MOL0     H74868   6.772  -0.273   3.336 -2.6793  1.4541  0.2288
  543MOL0     H74869   6.985  -0.359   3.225 -1.3904  1.0210  1.8507
  543MOL0     H74870   6.850  -0.463   3.223 -3.8638  1.5106  3.0681
  543MOL0     H74871   6.772  -0.427   3.002  1.2155  0.0760 -2.9105
  543MOL0     H74872   6.894  -0.295   2.981  1.0839  1.7406  3.3040
  543MOL0     H74873   7.072  -0.470   3.020 -0.6750 -3.2492  1.6101
  543MOL0     H74874   6.955  -0.592   3.042  4.3075 -0.8669 -1.5633
  543MOL0     H74875   6.891  -0.543   2.789  0.1445 -3.4643  0.7628
  543MOL0     H74876   7.043  -0.614   2.809  0.9658  2.2017 -3.5980
  543MOL0     H74877   6.966  -0.319   2.778 -0.3358 -0.7753 -0.8455
  543MOL0     H74878   7.132  -0.352   2.831 -0.7643 -2.8636  3.4249
  543MOL0     H74879   6.998  -0.499   2.597  0.4417  1.4997 -1.4435
  543MOL0     H74880   7.174  -0.481   2.624 -0.1842 -0.7968 -1.7000
  543MOL0     H74881   6.993  -0.247   2.561  0.0568  0.9890  2.2959
  543MOL0     H74882   7.168  -0.258   2.536  0.3003  0.5883 -4.2532
  543MOL0     H74883   7.261  -0.409   2.325 -0.4886  0.8015  3.3780
  543MOL0     H74884   7.080  -0.484   1.989  0.5421 -0.1671 -0.2761
  543MOL0     H74885   7.222  -0.543   2.077  1.1965  1.1824 -0.6538
  543MOL0     H74886   7.191  -0.256   1.992  1.5638  0.6371 -2.1946
  543MOL0     H74887   7.316  -0.335   2.075 -0.5049  3.1872  0.7061
  543MOL0     H74888   7.376  -0.471   1.869 -1.5140 -0.0696 -0.5608
  543MOL0     H74889   7.249  -0.401   1.778 -0.1455 -0.1868 -0.0201
  543MOL0     H74890   7.470  -0.269   1.745  0.6192  3.6428 -0.0007
  543MOL0     H74891   7.374  -0.166   1.846  1.2288 -0.6076  0.2062
  543MOL0     H74892   7.599  -0.114   1.714 -3.3013  1.7041  1.4794
  543MOL0     H74893   7.882   0.078   1.666 -0.1887 -2.2830 -0.3531
  543MOL0     H74894   7.728   0.167   1.717 -2.1536 -0.9548 -1.7778
  543MOL0     H74895   7.715   0.045   1.600 -3.8131 -1.0749  1.0695
  543MOL0     H74896   8.235   0.004   2.204  2.0445 -0.9328 -0.4574
  543MOL0     H74897   8.408   0.150   2.268 -2.2496 -0.5052  0.9089
  543MOL0     H74898   8.475   0.346   2.340  0.2786  0.7992  0.7297
  543MOL0     H74899   8.645   0.329   2.282 -1.1099 -3.3316 -2.9922
  543MOL0     H74900   8.653   0.572   2.244 -1.0479  2.2999  1.5851
  543MOL0     H74901   8.492   0.582   2.196 -1.0215  0.4561 -0.9871
  543MOL0     H74902   8.424   0.529   2.454 -0.7518  0.8838  0.0731
  543MOL0     H74903   8.467   0.691   2.400 -2.2643 -0.6265 -0.6394
  543MOL0     H74904   8.709   0.649   2.487  2.2979 -0.6219  3.0238
  543MOL0     H74905   8.662   0.489   2.536  2.0002  0.4169 -0.4238
  543MOL0     H74906   8.507   0.726   2.641 -2.1428 -1.4234  0.7609
  543MOL0     H74907   8.513   0.571   2.705 -1.3184 -1.5705 -3.0287
  543MOL0     H74908   8.661   0.745   2.828  3.0277  0.6154  0.5718
  543MOL0     H74909   8.779   0.717   2.696  1.6295 -0.1869  0.7888
  543MOL0     H74910   8.842   0.499   2.796 -0.4053  1.1935  0.3292
  543MOL0     H74911   8.684   0.454   2.801  0.9198 -1.4501 -0.3442
  543MOL0     H74912   8.769   0.480   3.025 -3.3191  0.7659  3.5527
  543MOL0     H74913   8.651   0.609   3.021  1.1918 -0.2824  2.6437
  543MOL0     H74914   8.391   0.362   1.909 -2.1396  0.0932 -1.7871
  543MOL0     H74915   8.173   0.231   1.842 -2.2267 -1.7046  1.3486
  543MOL0     H74916   7.917  -0.132   2.092 -1.1155 -2.9476  0.3934
  543MOL0     H74917   7.705  -0.235   2.129  0.6265 -2.2503 -1.2650
  543MOL0     H74918   6.931   0.088   3.237  0.3944  4.2005  0.8456
  543MOL0     H74919   6.874   0.236   3.418  0.5128 -0.4070 -1.8507
  543MOL0     H74920   6.414   0.565   3.505  2.6188 -1.0792 -1.9557
  543MOL0     H74921   6.405   0.770   3.656  0.1273 -0.0361 -1.0556
  543MOL0     H74922   6.513   0.748   4.062 -2.6743  1.2939 -2.8507
  543MOL0     H74923   6.683   0.764   4.029 -0.2958  0.2286  0.4868
  543MOL0     H74924   6.611   0.940   4.163 -0.8808 -1.5902  0.6355
  543MOL0     H74925   6.478   0.984   4.050  0.8292  1.9096  0.1332
  543MOL0     H74926   6.791   1.011   4.014  0.6655  2.1227  1.1927
  543MOL0     H74927   6.681   1.014   3.875  1.5823  3.2507 -0.1555
  543MOL0     H74928   6.567   1.220   3.985 -0.4051 -0.8991  2.9486
  543MOL0     H74929   6.741   1.242   3.958  0.1620  2.3791  1.8706
  543MOL0     H74930   6.686   1.232   4.384 -0.9802 -1.2848 -1.0777
  543MOL0     H74931   6.710   0.603   3.906 -0.2710  0.0893  1.0237
  543MOL0     H74932   6.792   0.369   3.873 -0.3002  2.4010  0.2935
  543MOL0     H74933   6.732   0.262   3.760 -0.0364 -1.0953  0.8372
  543MOL0     H74934   6.851   0.375   3.707 -1.0295 -2.4135  0.0213
  544MOL0     O74935  10.689   5.050   9.655 -0.1917  0.2220  0.7077
  544MOL0     C74936  10.628   4.962   9.590 -0.7354  0.3344  0.4922
  544MOL0     O74937  10.486   4.946   9.583  0.7877  0.1119 -0.1401
  544MOL0     C74938  10.389   5.027   9.635 -0.1871 -0.8546 -0.5856
  544MOL0     C74939  10.413   5.161   9.671 -0.1356  0.4983 -0.1814
  544MOL0     C74940  10.312   5.232   9.722  0.5305 -0.3332 -0.1933
  544MOL0     C74941  10.181   5.186   9.741  0.2236 -0.7657 -0.1995
  544MOL0     O74942  10.095   5.272   9.807 -0.9354  0.7863  0.3471
  544MOL0     C74943   9.959   5.229   9.826 -0.0023 -0.6280 -1.2377
  544MOL0     C74944   9.875   5.351   9.829 -0.1159  0.2847 -0.0220
  544MOL0     C74945   9.891   5.438   9.946 -0.7429 -0.9141  0.0692
  544MOL0     C74946   9.850   5.370  10.083  0.0462 -0.3194  0.2713
  544MOL0     C74947   9.940   5.415  10.201  0.2771  0.1264 -0.6326
  544MOL0     C74948  10.064   5.322  10.222  0.3557 -0.3932  0.1392
  544MOL0     C74949  10.173   5.409  10.288 -0.0124  0.3366 -0.0380
  544MOL0     C74950  10.304   5.320  10.306 -0.2317  0.6483 -0.1103
  544MOL0     N74951  10.419   5.409  10.347 -0.0735  0.6294 -0.1159
  544MOL0     C74952  10.479   5.512  10.276  0.2177  0.6610  0.6958
  544MOL0     C74953  10.595   5.539  10.343 -0.0656  0.2386 -0.0635
  544MOL0     C74954  10.697   5.634  10.301 -1.0297 -0.1491  1.1059
  544MOL0     C74955  10.756   5.710  10.425  0.0681 -0.1350  0.2076
  544MOL0     C74956  10.849   5.816  10.377  0.4280  0.4863  0.7013
  544MOL0     C74957  10.792   5.906  10.265  0.1515 -0.1358  0.4603
  544MOL0     O74958  10.877   6.025  10.270 -0.6012 -0.2324 -0.1106
  544MOL0     C74959  10.991   6.026  10.194  0.7621 -0.3779  0.0022
  544MOL0     C74960  11.044   5.925  10.119 -0.6957 -0.0505  0.1858
  544MOL0     C74961  11.165   5.940  10.060 -0.9026  0.0636  1.2788
  544MOL0     C74962  11.212   5.834   9.969  0.2122  0.5640  0.6387
  544MOL0     C74963  11.247   6.056  10.083  1.0891  0.2514  0.9955
  544MOL0     C74964  11.394   6.064  10.039 -0.1697  0.1635 -0.7091
  544MOL0     O74965  11.461   6.175  10.096 -0.1192 -0.7240 -0.1024
  544MOL0     C74966  11.601   6.180  10.100  0.1110 -0.4432 -0.0560
  544MOL0     C74967  11.663   6.090  10.186 -0.1091 -0.4545  0.8528
  544MOL0     C74968  11.804   6.084  10.182  0.8944 -0.4931 -0.0191
  544MOL0     C74969  11.876   6.167  10.098  0.3111  0.7282 -1.2174
  544MOL0     O74970  12.016   6.166  10.108 -0.0742  0.3531  0.6733
  544MOL0     C74971  12.098   6.154   9.991 -0.2598 -0.6762  0.2080
  544MOL0     C74972  12.253   6.183  10.016 -0.3093 -0.6691  0.2911
  544MOL0     C74973  12.291   6.100  10.134 -0.1512  1.3754 -0.0118
  544MOL0     C74974  12.448   6.101  10.143 -0.4824  0.1565 -0.1706
  544MOL0     C74975  12.516   5.990  10.231  0.8512 -0.2139  0.5644
  544MOL0     C74976  12.423   5.969  10.352  0.1887 -0.3242 -0.4224
  544MOL0     C74977  12.472   5.857  10.447  0.1382 -0.2968  0.1517
  544MOL0     C74978  12.389   5.807  10.567 -0.3986 -0.0928  0.2678
  544MOL0    Cl74979  12.475   5.702  10.680  0.2069  0.3052  0.1964
  544MOL0     C74980  11.813   6.262  10.027 -0.4554 -0.2192  1.4125
  544MOL0     C74981  11.681   6.270  10.023  1.0409 -0.2797 -0.3284
  544MOL0     O74982  11.448   5.973   9.975 -0.2303 -1.0172 -0.6818
  544MOL0     C74983  11.176   6.158  10.145 -0.1681 -0.1097 -1.4529
  544MOL0     C74984  11.055   6.145  10.213  0.5836  0.5307 -0.3506
  544MOL0     N74985  10.592   5.474  10.460 -0.3644 -0.2890 -0.3283
  544MOL0     N74986  10.492   5.394  10.461  0.9595 -0.7437  0.3744
  544MOL0     C74987  10.161   5.052   9.692  0.2283  0.9981 -1.4149
  544MOL0     C74988  10.270   4.973   9.646  0.4690  0.6969  0.2456
  544MOL0     C74989  10.710   4.845   9.526  0.0761 -0.6991  0.5195
  544MOL0     C74990  10.643   4.751   9.453 -0.2576  0.2925  0.4004
  544MOL0     C74991  10.690   4.636   9.409 -0.5841  0.9381 -0.2421
  544MOL0     C74992  10.830   4.606   9.420  0.2292 -0.0370 -0.4483
  544MOL0     O74993  10.907   4.496   9.377 -0.1635  0.3362  0.6537
  544MOL0     C74994  10.835   4.391   9.308  0.1340  0.0713 -0.5302
  544MOL0     C74995  10.921   4.268   9.287  0.7139  0.2903 -0.8900
  544MOL0     C74996  10.848   4.130   9.255 -0.4607 -0.4392  0.4515
  544MOL0     C74997  10.791   4.105   9.116  0.1357 -0.0855  0.5026
  544MOL0     C74998  10.888   4.117   9.007 -0.4463  0.8591 -0.1665
  544MOL0     C74999  10.981   4.124   8.922  0.3654  0.0038 -0.8121
  544MOL0     C75000  10.901   4.704   9.488 -0.6667  0.2353 -0.1562
  544MOL0     C75001  10.853   4.822   9.540  0.5708  0.3637 -1.0624
  544MOL0     C75002  10.951   4.918   9.604  0.3428  0.4876  0.4331
  544MOL0     H75003  10.513   5.202   9.680  0.6196 -1.7324  4.3883
  544MOL0     H75004  10.337   5.332   9.755  0.7632 -0.8252  1.1817
  544MOL0     H75005   9.945   5.171   9.917 -0.0665  0.4726 -0.5239
  544MOL0     H75006   9.922   5.172   9.740 -2.3363  0.9755 -1.3828
  544MOL0     H75007   9.868   5.411   9.738 -0.0712 -1.3708 -1.1642
  544MOL0     H75008   9.773   5.312   9.832  0.1637 -0.5991 -1.1240
  544MOL0     H75009   9.992   5.478   9.951 -0.6990 -0.9070 -0.8031
  544MOL0     H75010   9.824   5.523   9.927  1.3345  0.9941  0.9145
  544MOL0     H75011   9.749   5.403  10.108  0.2983  0.5610  0.1412
  544MOL0     H75012   9.849   5.260  10.078 -0.2432 -0.3037 -0.0354
  544MOL0     H75013   9.880   5.416  10.292 -1.3888  0.4069 -1.6935
  544MOL0     H75014   9.967   5.520  10.189  3.6161 -0.1368  2.6750
  544MOL0     H75015  10.025   5.236  10.276 -0.5115 -0.5081 -0.6383
  544MOL0     H75016  10.103   5.283  10.127 -2.4835  2.3365 -2.3973
  544MOL0     H75017  10.132   5.445  10.383 -0.2258 -0.4527  0.1750
  544MOL0     H75018  10.200   5.490  10.220  0.3769  0.6602  0.4892
  544MOL0     H75019  10.285   5.242  10.380 -0.0137  0.2782 -0.4455
  544MOL0     H75020  10.323   5.277  10.207 -2.7293  0.4373 -0.5678
  544MOL0     H75021  10.464   5.535  10.171  1.2342 -2.7729 -0.3299
  544MOL0     H75022  10.648   5.700  10.230  0.7470 -2.1723 -2.2413
  544MOL0     H75023  10.786   5.579  10.269  1.6182  1.7565  4.4298
  544MOL0     H75024  10.677   5.758  10.485  1.2363 -1.0033  2.5814
  544MOL0     H75025  10.818   5.648  10.491  1.8109  0.0063 -1.2414
  544MOL0     H75026  10.887   5.878  10.458 -2.0131 -1.9074  3.9370
  544MOL0     H75027  10.940   5.776  10.331 -0.4748  2.4479 -3.1782
  544MOL0     H75028  10.782   5.857  10.168 -1.6628  0.3659  0.3566
  544MOL0     H75029  10.687   5.924  10.288  0.5054 -1.6768  3.9911
  544MOL0     H75030  10.994   5.831  10.102  0.2566 -0.7574  1.1664
  544MOL0     H75031  11.199   5.853   9.862  0.3260  0.2199  0.5622
  544MOL0     H75032  11.155   5.745   9.995  1.3499 -0.5282 -0.4361
  544MOL0     H75033  11.311   5.794   9.994 -0.2530 -1.1010 -0.0346
  544MOL0     H75034  11.614   6.023  10.256  0.6866  0.0503  1.9109
  544MOL0     H75035  11.844   6.020  10.259  2.0168 -0.9384 -0.9438
  544MOL0     H75036  12.091   6.052   9.952  0.8831 -0.9750  0.7327
  544MOL0     H75037  12.067   6.225   9.914  1.3456 -0.0345  0.1151
  544MOL0     H75038  12.309   6.154   9.927 -1.0525  0.0350 -0.4187
  544MOL0     H75039  12.287   6.283  10.043 -0.9138  0.3021 -2.2822
  544MOL0     H75040  12.266   5.994  10.125  0.8095  1.0127  1.2580
  544MOL0     H75041  12.235   6.135  10.220 -2.8968 -0.9819 -0.6827
  544MOL0     H75042  12.479   6.198  10.181 -1.6921  1.0227 -1.3198
  544MOL0     H75043  12.479   6.078  10.040 -2.4545 -3.0395 -0.1878
  544MOL0     H75044  12.527   5.907  10.161 -1.6101  0.8305 -1.2197
  544MOL0     H75045  12.609   6.028  10.274  1.2489 -0.1803 -0.3234
  544MOL0     H75046  12.319   5.938  10.340 -0.0081 -1.8492  3.6750
  544MOL0     H75047  12.429   6.058  10.415 -1.2520 -1.1393  0.9294
  544MOL0     H75048  12.567   5.891  10.489  0.0047 -0.1075  0.3042
  544MOL0     H75049  12.497   5.770  10.385 -0.3425 -0.2935 -0.0510
  544MOL0     H75050  12.292   5.762  10.547 -0.7893  0.6063  0.5726
  544MOL0     H75051  12.361   5.896  10.623 -0.2993  0.4392 -0.5166
  544MOL0     H75052  11.875   6.330   9.970  0.3913 -1.9710  0.1452
  544MOL0     H75053  11.640   6.350   9.962  0.0799 -0.4910  0.0159
  544MOL0     H75054  11.224   6.256  10.152 -0.8888  0.4183 -3.2946
  544MOL0     H75055  11.015   6.214  10.286 -3.7958 -1.7979 -0.2008
  544MOL0     H75056  10.069   4.995   9.698  2.0456 -2.2569 -2.2979
  544MOL0     H75057  10.253   4.874   9.607  1.6964  0.2912  0.7104
  544MOL0     H75058  10.537   4.762   9.437 -0.6446  2.1796  3.5263
  544MOL0     H75059  10.629   4.578   9.340 -2.8049  2.0028  0.7113
  544MOL0     H75060  10.746   4.367   9.367 -0.0905 -0.7508 -1.1753
  544MOL0     H75061  10.805   4.432   9.211  0.6433  2.7368  0.3612
  544MOL0     H75062  10.959   4.253   9.389 -2.0704  0.7552  0.3211
  544MOL0     H75063  11.004   4.293   9.221  0.7683  2.8046  0.0248
  544MOL0     H75064  10.916   4.051   9.287  0.6288  1.0599  2.0281
  544MOL0     H75065  10.761   4.115   9.320 -0.8441 -1.0656 -0.1937
  544MOL0     H75066  10.709   4.177   9.109  0.8955  0.6575 -1.3008
  544MOL0     H75067  10.754   4.004   9.099  0.1020  0.2940 -1.9156
  544MOL0     H75068  11.055   4.104   8.847 -1.7454 -0.4417 -2.8846
  544MOL0     H75069  11.004   4.679   9.512 -0.5586  1.6393  0.9864
  544MOL0     H75070  11.056   4.892   9.586 -0.0016 -0.4287 -0.3709
  544MOL0     H75071  10.935   5.020   9.569  0.1327 -0.2168 -1.6493
  544MOL0     H75072  10.933   4.929   9.711 -2.5217 -0.0466  0.0689
  545MOL0     O75073   8.911  10.647   4.107  0.5307 -0.3363  0.1868
  545MOL0     C75074   9.008  10.683   4.173  0.4983  0.8757  0.1605
  545MOL0     O75075   9.119  10.740   4.121 -0.4423 -0.1774  0.0406
  545MOL0     C75076   9.138  10.774   3.989  0.2449  0.7216  1.2951
  545MOL0     C75077   9.100  10.685   3.885 -0.1172 -0.3419 -0.5219
  545MOL0     C75078   9.111  10.717   3.756 -0.1194  0.0188  0.3847
  545MOL0     C75079   9.180  10.835   3.723  0.2305 -0.0982 -0.1420
  545MOL0     O75080   9.208  10.891   3.597 -0.2970  0.3676 -0.8270
  545MOL0     C75081   9.140  10.834   3.491  0.3522 -0.1722 -0.5298
  545MOL0     C75082   9.178  10.910   3.366 -0.2468 -0.3673  0.9436
  545MOL0     C75083   9.325  10.871   3.324  0.3232  0.1244  0.3761
  545MOL0     C75084   9.380  10.954   3.199  0.6652  0.0569 -0.6847
  545MOL0     C75085   9.532  10.926   3.173 -0.0953  0.9304  0.5848
  545MOL0     C75086   9.563  11.004   3.043 -1.2646  0.2852 -0.9409
  545MOL0     C75087   9.680  10.938   2.969 -0.4992 -0.6192 -0.0086
  545MOL0     C75088   9.640  10.838   2.853  0.7115 -0.0187 -0.4911
  545MOL0     N75089   9.560  10.879   2.741 -0.3579 -0.1853 -0.0362
  545MOL0     C75090   9.609  10.958   2.626  0.3116 -0.6530 -0.0760
  545MOL0     C75091   9.497  10.966   2.551 -0.3178 -0.6076 -0.5862
  545MOL0     C75092   9.484  11.043   2.426 -0.0531 -0.2726  0.7627
  545MOL0     C75093   9.563  10.976   2.308 -0.3014  0.6613 -0.4897
  545MOL0     C75094   9.562  11.052   2.187 -0.4519  0.1329  0.7695
  545MOL0     C75095   9.672  11.003   2.092 -0.4575  0.0529  0.3352
  545MOL0     O75096   9.795  11.072   2.116 -0.5543 -0.8442  0.3201
  545MOL0     C75097   9.832  11.185   2.052  0.2292 -0.0943  0.6694
  545MOL0     C75098   9.960  11.228   2.074 -0.4933 -0.5172  0.5408
  545MOL0     C75099  10.012  11.354   2.015  0.0404 -0.8556 -1.2060
  545MOL0     C75100  10.154  11.396   2.040 -0.3872 -0.4334  0.2664
  545MOL0     C75101   9.925  11.436   1.947 -0.3797 -0.2726 -0.8272
  545MOL0     C75102   9.962  11.575   1.906  0.2089  0.7041 -0.3124
  545MOL0     O75103   9.910  11.613   1.784 -0.0428 -0.6202 -0.0840
  545MOL0     C75104   9.964  11.723   1.732  0.0854  0.0903 -0.5937
  545MOL0     C75105  10.097  11.736   1.707 -0.7352 -0.9435 -0.1175
  545MOL0     C75106  10.161  11.851   1.646 -0.3299  0.0585 -0.6908
  545MOL0     C75107  10.075  11.948   1.595  1.4475 -0.0722 -0.8052
  545MOL0     O75108  10.104  12.053   1.517  0.2684  0.2398 -0.4605
  545MOL0     C75109  10.235  12.040   1.457 -0.2824  0.0812  0.2993
  545MOL0     C75110  10.252  12.161   1.365  1.1144 -0.1627  0.7525
  545MOL0     C75111  10.141  12.183   1.263  0.5270 -0.3014  0.5497
  545MOL0     C75112  10.130  12.075   1.163 -0.0531  0.4852  0.4631
  545MOL0     C75113  10.017  12.110   1.062  0.5350 -0.4886 -0.0925
  545MOL0     C75114  10.058  12.228   0.966  0.1373 -0.7980  0.0916
  545MOL0     C75115   9.962  12.247   0.853  0.3619  0.4098  0.0862
  545MOL0     C75116   9.837  12.330   0.890 -0.2953  0.1978 -0.7168
  545MOL0    Cl75117   9.737  12.364   0.749 -0.0239  0.2960 -0.2945
  545MOL0     C75118   9.936  11.934   1.618  0.3161  0.4856 -0.2047
  545MOL0     C75119   9.880  11.823   1.686  0.0718 -0.6218  0.9078
  545MOL0     O75120  10.040  11.640   1.980  0.4593  0.3448 -0.3062
  545MOL0     C75121   9.793  11.388   1.932  0.0880  0.3363  0.0955
  545MOL0     C75122   9.743  11.263   1.971 -0.2219 -0.1211 -0.2754
  545MOL0     N75123   9.396  10.904   2.613 -0.0908  0.4020  0.2193
  545MOL0     N75124   9.430  10.849   2.727  0.1862 -0.4498  0.3386
  545MOL0     C75125   9.224  10.918   3.830 -0.0856 -0.4496  0.0339
  545MOL0     C75126   9.205  10.891   3.954  0.4147 -0.5397  0.0943
  545MOL0     C75127   9.007  10.666   4.321  0.0536  1.0574  0.1386
  545MOL0     C75128   9.082  10.763   4.396  0.1548 -1.0237 -0.0991
  545MOL0     C75129   9.085  10.752   4.538 -0.5358  0.5660  0.9804
  545MOL0     C75130   9.020  10.655   4.612  0.9398  0.3147  0.9703
  545MOL0     O75131   9.039  10.651   4.743 -0.5589  0.2466 -0.6308
  545MOL0     C75132   9.063  10.518   4.800  0.3540  0.4307 -0.3345
  545MOL0     C75133   8.954  10.491   4.905 -0.2486 -0.8939  0.0023
  545MOL0     C75134   8.945  10.340   4.945  0.0737 -0.0865  0.4892
  545MOL0     C75135   8.901  10.332   5.083 -0.7700  0.4015 -0.6171
  545MOL0     C75136   8.864  10.191   5.111  0.5001 -0.5077 -0.6644
  545MOL0     C75137   8.814  10.082   5.127  0.6980 -0.0117 -0.8960
  545MOL0     C75138   8.942  10.561   4.530  0.3077  1.1951 -1.2313
  545MOL0     C75139   8.939  10.556   4.390 -1.0706 -0.3495 -0.0577
  545MOL0     C75140   8.869  10.443   4.325  0.1102  0.9008  0.3345
  545MOL0     H75141   9.062  10.585   3.905 -0.4091 -0.8428 -3.1765
  545MOL0     H75142   9.075  10.654   3.676 -2.5200 -2.3496  3.1117
  545MOL0     H75143   9.033  10.851   3.505  0.7246  0.2548  2.2958
  545MOL0     H75144   9.146  10.725   3.491 -0.6206 -0.2370 -0.2825
  545MOL0     H75145   9.114  10.865   3.290  1.1767 -0.9592  0.0482
  545MOL0     H75146   9.164  11.018   3.377 -1.3463 -0.6340  2.4848
  545MOL0     H75147   9.384  10.882   3.415 -0.7279  2.2626  0.8750
  545MOL0     H75148   9.325  10.763   3.307  2.1314 -0.0398  1.1773
  545MOL0     H75149   9.319  10.935   3.110  0.1511 -2.9545  0.2019
  545MOL0     H75150   9.372  11.058   3.232  1.4491 -0.7949  2.5272
  545MOL0     H75151   9.555  10.820   3.161 -2.6474  0.3618  0.1764
  545MOL0     H75152   9.585  10.967   3.259  0.5192 -0.0828  0.7093
  545MOL0     H75153   9.468  11.013   2.988 -2.5231  1.1473  1.2396
  545MOL0     H75154   9.591  11.101   3.084  0.2166 -0.1201 -0.9649
  545MOL0     H75155   9.745  10.888   3.042 -2.1317 -0.1662  1.8144
  545MOL0     H75156   9.740  11.012   2.915 -2.3287  0.9493  0.0066
  545MOL0     H75157   9.731  10.792   2.815  0.9096 -0.4562  0.4804
  545MOL0     H75158   9.587  10.758   2.906  1.2385 -0.5875 -0.8090
  545MOL0     H75159   9.711  10.993   2.611  0.0296  0.5478  0.7040
  545MOL0     H75160   9.526  11.142   2.447  0.1386 -0.5894  1.9274
  545MOL0     H75161   9.379  11.055   2.400  0.0889 -0.5772  0.0107
  545MOL0     H75162   9.663  10.971   2.352 -1.5176  0.2362  2.4807
  545MOL0     H75163   9.513  10.880   2.295  1.5175 -0.4643  0.3102
  545MOL0     H75164   9.464  11.052   2.137 -0.0377  1.6502 -0.0812
  545MOL0     H75165   9.578  11.156   2.218 -2.0841  0.6470  0.0314
  545MOL0     H75166   9.695  10.899   2.119  1.2454  0.5947  1.0679
  545MOL0     H75167   9.625  11.007   1.993 -2.9179  1.7553  1.4887
  545MOL0     H75168  10.017  11.165   2.142  0.7484  0.4081  0.3949
  545MOL0     H75169  10.201  11.435   1.949 -0.6514 -2.1372 -0.6406
  545MOL0     H75170  10.207  11.304   2.066  0.6659  0.4726  1.4661
  545MOL0     H75171  10.163  11.478   2.111 -1.1040  0.4819 -0.6579
  545MOL0     H75172  10.165  11.659   1.739  0.5220  0.5512  0.9484
  545MOL0     H75173  10.270  11.851   1.642 -0.2877 -2.6407 -1.5099
  545MOL0     H75174  10.313  12.046   1.534 -1.6418  1.9911  1.6449
  545MOL0     H75175  10.233  11.951   1.393 -1.1664 -1.4453  2.3275
  545MOL0     H75176  10.255  12.235   1.445 -2.7446 -1.2433  2.1134
  545MOL0     H75177  10.346  12.158   1.309  0.4653 -0.9401 -0.3517
  545MOL0     H75178  10.156  12.281   1.218 -1.6838 -0.1690 -0.0063
  545MOL0     H75179  10.039  12.183   1.303  0.0077 -4.0256 -0.4114
  545MOL0     H75180  10.094  11.979   1.201  2.7291 -1.6069 -1.7070
  545MOL0     H75181  10.222  12.058   1.105 -1.0308 -1.7619 -0.5434
  545MOL0     H75182   9.999  12.021   1.000 -1.9378 -2.3142  2.9325
  545MOL0     H75183   9.923  12.136   1.112  0.3083 -0.2669 -0.6263
  545MOL0     H75184  10.159  12.197   0.938  0.6197  2.6910 -2.8240
  545MOL0     H75185  10.071  12.329   1.005  0.4449 -0.6792 -0.3171
  545MOL0     H75186   9.939  12.152   0.804 -0.5285  0.5780  0.1614
  545MOL0     H75187  10.010  12.300   0.769  0.2760 -1.2373 -1.0432
  545MOL0     H75188   9.869  12.427   0.929  0.0466  0.8587 -2.5532
  545MOL0     H75189   9.764  12.285   0.959  1.8135  0.3954  1.8299
  545MOL0     H75190   9.863  12.007   1.584  1.5576  0.8540 -2.2071
  545MOL0     H75191   9.772  11.811   1.695  0.0806 -1.2460  0.2691
  545MOL0     H75192   9.713  11.443   1.883  1.5001  0.5388 -2.1132
  545MOL0     H75193   9.637  11.249   1.954  0.3233 -2.0468 -2.7314
  545MOL0     H75194   9.269  11.010   3.793 -3.1813  0.7664 -1.0408
  545MOL0     H75195   9.226  10.953   4.041  0.2048  0.6143 -0.6533
  545MOL0     H75196   9.126  10.849   4.346 -2.3405 -0.5064 -1.5934
  545MOL0     H75197   9.139  10.829   4.593 -1.6379  1.2373  1.1582
  545MOL0     H75198   9.055  10.432   4.733  0.6677 -0.5105  0.8086
  545MOL0     H75199   9.160  10.523   4.849  0.3611  1.4602 -0.4234
  545MOL0     H75200   8.859  10.526   4.864  0.4005  2.3454  0.9332
  545MOL0     H75201   8.967  10.559   4.989 -2.0480  1.8361 -1.7735
  545MOL0     H75202   8.860  10.301   4.889 -0.1533  2.0239 -0.7587
  545MOL0     H75203   9.038  10.285   4.927 -1.1184 -1.5067 -1.7538
  545MOL0     H75204   8.824  10.407   5.103  0.4939  1.3069  1.2152
  545MOL0     H75205   8.980  10.374   5.146  0.7649 -3.6098  0.4399
  545MOL0     H75206   8.780   9.983   5.150  0.0668  0.2541 -0.6540
  545MOL0     H75207   8.894  10.481   4.585  1.2747  3.1429  2.8777
  545MOL0     H75208   8.825  10.388   4.408  0.5244  1.2452  0.7879
  545MOL0     H75209   8.786  10.470   4.259 -0.6019 -0.4609  0.6482
  545MOL0     H75210   8.941  10.376   4.277 -1.1743  1.2807 -2.3020
  546MOL0     O75211  10.162  11.417   2.665 -0.3638 -0.1658  0.7833
  546MOL0     C75212  10.063  11.459   2.722 -0.1920 -0.1979  0.2334
  546MOL0     O75213  10.080  11.551   2.817  0.2332 -0.4718  0.1083
  546MOL0     C75214  10.193  11.590   2.885  0.2128 -0.3662  0.4948
  546MOL0     C75215  10.300  11.506   2.921 -0.0744  0.4970 -1.0831
  546MOL0     C75216  10.398  11.545   3.012  0.2516  0.8277  0.9700
  546MOL0     C75217  10.391  11.670   3.073 -0.1421  0.2095 -0.1632
  546MOL0     O75218  10.483  11.710   3.169 -0.6664 -0.4051 -0.2729
  546MOL0     C75219  10.624  11.709   3.134  0.0702  0.4690  0.3037
  546MOL0     C75220  10.713  11.782   3.234  0.1206 -0.0718 -0.9534
  546MOL0     C75221  10.651  11.905   3.301  0.5145 -0.0752 -0.1265
  546MOL0     C75222  10.744  11.981   3.397 -0.0404  0.2268 -0.2235
  546MOL0     C75223  10.681  12.074   3.505 -0.4980 -0.1503  0.5784
  546MOL0     C75224  10.609  12.193   3.452  0.2514 -0.0643 -0.3571
  546MOL0     C75225  10.694  12.287   3.369 -0.2262 -0.2691 -0.2457
  546MOL0     C75226  10.653  12.436   3.376  0.7652 -0.0485  0.6395
  546MOL0     N75227  10.542  12.469   3.289 -0.2628  0.2400  0.5224
  546MOL0     C75228  10.428  12.533   3.327  0.2820 -0.5776 -0.6603
  546MOL0     C75229  10.370  12.573   3.211 -0.5240  0.1446  0.4778
  546MOL0     C75230  10.246  12.654   3.203 -0.0553 -0.1905 -0.4435
  546MOL0     C75231  10.253  12.809   3.245  0.4999 -1.0970  0.4583
  546MOL0     C75232  10.186  12.841   3.382 -0.1758 -0.4716  0.3180
  546MOL0     C75233  10.217  12.992   3.406  0.4095 -0.0240 -0.2512
  546MOL0     O75234  10.355  13.027   3.420  0.0778  0.0734  0.4927
  546MOL0     C75235  10.385  13.161   3.441  0.9845  0.2135 -0.1996
  546MOL0     C75236  10.286  13.271   3.432 -0.3118 -0.3128 -0.7570
  546MOL0     C75237  10.324  13.404   3.452 -0.1823 -0.8300 -0.0960
  546MOL0     C75238  10.217  13.515   3.459 -0.4035  0.0622  0.5835
  546MOL0     C75239  10.463  13.437   3.469 -0.5123 -0.4275  0.2592
  546MOL0     C75240  10.509  13.574   3.493 -0.6871 -0.2317 -0.3127
  546MOL0     O75241  10.604  13.590   3.595  1.0662  0.0624 -0.6091
  546MOL0     C75242  10.665  13.707   3.616 -0.7712 -1.0321 -0.1730
  546MOL0     C75243  10.806  13.726   3.613  0.9066  0.0073 -1.0946
  546MOL0     C75244  10.868  13.844   3.626  0.3820  0.5600  0.0398
  546MOL0     C75245  10.788  13.956   3.647  0.1082 -0.0884 -0.7113
  546MOL0     O75246  10.845  14.084   3.660  0.7213 -0.1740 -0.5953
  546MOL0     C75247  10.991  14.090   3.658 -0.0548  0.1572  0.3762
  546MOL0     C75248  11.041  14.233   3.681  0.5794 -0.4581 -0.2880
  546MOL0     C75249  11.127  14.254   3.814  0.2417  0.0684  0.4706
  546MOL0     C75250  11.275  14.215   3.806 -0.2239  0.1331  0.0584
  546MOL0     C75251  11.362  14.303   3.902  1.1862 -0.5166  1.1239
  546MOL0     C75252  11.344  14.270   4.048 -0.3124  0.1953 -0.7126
  546MOL0     C75253  11.390  14.134   4.096 -0.2804  1.0806 -0.0805
  546MOL0     C75254  11.397  14.147   4.242  0.2638  0.5918 -0.8377
  546MOL0    Cl75255  11.415  13.985   4.323  0.4795  0.4732 -0.1234
  546MOL0     C75256  10.649  13.949   3.644  0.0388 -0.4269 -0.7578
  546MOL0     C75257  10.590  13.822   3.636 -0.9160  0.2175  0.1266
  546MOL0     O75258  10.470  13.661   3.409  0.2549 -0.0259  0.2198
  546MOL0     C75259  10.556  13.334   3.470 -0.4578 -0.0211 -0.8936
  546MOL0     C75260  10.512  13.203   3.454 -0.3114 -0.1553 -0.7728
  546MOL0     N75261  10.454  12.539   3.106 -0.3328 -0.1594 -0.7452
  546MOL0     N75262  10.557  12.484   3.157  0.1948  0.3557 -0.0836
  546MOL0     C75263  10.290  11.759   3.033  0.0558 -0.3831 -0.2563
  546MOL0     C75264  10.194  11.718   2.939 -0.5844  0.6200  0.2758
  546MOL0     C75265   9.929  11.405   2.701  0.4457  0.3818 -0.3798
  546MOL0     C75266   9.851  11.380   2.813  0.3367 -0.1825 -0.3705
  546MOL0     C75267   9.718  11.335   2.801  0.5907  0.8295 -0.8617
  546MOL0     C75268   9.655  11.314   2.681 -0.6039  0.1396  0.0953
  546MOL0     O75269   9.528  11.282   2.662 -1.4955  0.5355  0.6252
  546MOL0     C75270   9.439  11.308   2.767  0.4457  0.2374  0.1944
  546MOL0     C75271   9.302  11.284   2.700 -0.2965  0.1229  0.3942
  546MOL0     C75272   9.264  11.377   2.585 -0.7818 -0.0659 -0.3535
  546MOL0     C75273   9.236  11.515   2.633  0.5337 -1.3165  0.5643
  546MOL0     C75274   9.237  11.615   2.517  0.0999  0.3906  0.6650
  546MOL0     C75275   9.249  11.706   2.433  0.5408 -0.5668  0.3466
  546MOL0     C75276   9.733  11.323   2.568 -1.0509 -0.1707  0.8826
  546MOL0     C75277   9.866  11.368   2.578  0.4127  0.3394  0.3403
  546MOL0     C75278   9.939  11.395   2.442  0.5137 -0.6752  0.0393
  546MOL0     H75279  10.303  11.401   2.895  5.2265  0.0278  0.2110
  546MOL0     H75280  10.471  11.467   3.034  1.2015  1.4936  0.2228
  546MOL0     H75281  10.649  11.743   3.033 -4.0581  0.3791 -0.9417
  546MOL0     H75282  10.651  11.603   3.128  0.6777  0.5541  1.2623
  546MOL0     H75283  10.739  11.708   3.310  0.0305 -0.1351 -0.9842
  546MOL0     H75284  10.804  11.798   3.175 -0.7763 -3.2780 -3.4995
  546MOL0     H75285  10.618  11.983   3.231  1.9488  2.2302  1.5959
  546MOL0     H75286  10.556  11.882   3.349 -0.5496 -0.3974 -2.2438
  546MOL0     H75287  10.805  11.908   3.452  2.7852  0.5642 -2.6342
  546MOL0     H75288  10.813  12.025   3.323  2.3190 -1.3481  0.8908
  546MOL0     H75289  10.767  12.108   3.562 -1.3713 -0.2885  2.0177
  546MOL0     H75290  10.612  12.020   3.570 -3.5929  3.2145  0.3824
  546MOL0     H75291  10.526  12.163   3.386  0.1396  0.3246 -0.3967
  546MOL0     H75292  10.570  12.243   3.542  0.0850  1.3396 -1.1811
  546MOL0     H75293  10.699  12.260   3.264  1.8406  3.3710 -1.2602
  546MOL0     H75294  10.801  12.284   3.395 -0.9237 -1.0008  3.0085
  546MOL0     H75295  10.637  12.466   3.479  0.6412  0.8713  0.3565
  546MOL0     H75296  10.737  12.496   3.338  0.5479 -1.1962 -1.8598
  546MOL0     H75297  10.399  12.558   3.428  0.0151  0.2714 -0.9303
  546MOL0     H75298  10.178  12.595   3.265  1.8549 -2.5572 -0.4685
  546MOL0     H75299  10.213  12.644   3.100  0.9571 -0.5121 -0.7517
  546MOL0     H75300  10.360  12.829   3.253  0.4311  0.3244 -1.4229
  546MOL0     H75301  10.209  12.868   3.164  0.7078  0.7371  1.6225
  546MOL0     H75302  10.078  12.824   3.379  0.1909 -3.2062 -2.8448
  546MOL0     H75303  10.228  12.780   3.462 -0.0561 -1.8496 -0.7718
  546MOL0     H75304  10.176  13.051   3.324  0.3290  0.7425  0.3317
  546MOL0     H75305  10.167  13.021   3.499  0.9630  2.2902 -0.6064
  546MOL0     H75306  10.181  13.243   3.426  0.1909 -1.9945 -2.7733
  546MOL0     H75307  10.223  13.573   3.551  0.0410  0.4850  0.2881
  546MOL0     H75308  10.116  13.481   3.432 -0.0618  0.6933 -1.6518
  546MOL0     H75309  10.242  13.589   3.383  0.3204 -0.0400  0.7107
  546MOL0     H75310  10.868  13.637   3.615 -0.0907 -0.7539  2.0454
  546MOL0     H75311  10.976  13.850   3.635  0.4903 -2.2595  1.6886
  546MOL0     H75312  11.034  14.022   3.732 -3.2138 -4.4953 -1.5274
  546MOL0     H75313  11.032  14.056   3.562 -2.9403 -3.4220  0.1978
  546MOL0     H75314  11.079  14.269   3.585 -0.5655 -1.6248 -1.2270
  546MOL0     H75315  10.952  14.296   3.695  2.3012  1.9198  0.6405
  546MOL0     H75316  11.068  14.206   3.892 -1.2990 -1.1357 -1.3347
  546MOL0     H75317  11.129  14.363   3.820  3.6336  0.1971 -1.0605
  546MOL0     H75318  11.315  14.234   3.705  0.4978 -1.8382 -0.0634
  546MOL0     H75319  11.280  14.107   3.820 -1.3448 -0.2740 -2.1244
  546MOL0     H75320  11.469  14.302   3.877  0.8812 -3.4117 -0.5180
  546MOL0     H75321  11.342  14.409   3.881  1.3752 -0.6243  0.3699
  546MOL0     H75322  11.239  14.275   4.076 -0.6633 -2.1158 -1.3940
  546MOL0     H75323  11.397  14.351   4.098 -0.1386  0.4724 -1.3328
  546MOL0     H75324  11.493  14.117   4.062  2.3363  3.3874  5.3809
  546MOL0     H75325  11.320  14.059   4.058  1.1551 -0.6158  0.4708
  546MOL0     H75326  11.299  14.182   4.276 -0.4118 -0.5026 -1.5875
  546MOL0     H75327  11.481  14.211   4.271  0.4161  0.3448 -0.7313
  546MOL0     H75328  10.591  14.040   3.639 -0.5400 -0.7098  0.4956
  546MOL0     H75329  10.482  13.821   3.624 -0.9264 -0.9711  0.1761
  546MOL0     H75330  10.660  13.364   3.468 -0.3492 -0.1077  1.4298
  546MOL0     H75331  10.587  13.125   3.458 -1.2087 -0.9908  1.5860
  546MOL0     H75332  10.293  11.860   3.073 -2.4616 -1.2718  2.5457
  546MOL0     H75333  10.115  11.786   2.909 -1.3159 -0.5937 -0.6531
  546MOL0     H75334   9.893  11.405   2.909 -0.5232  4.1820 -0.9209
  546MOL0     H75335   9.660  11.315   2.890 -0.8407  3.1702 -1.1771
  546MOL0     H75336   9.439  11.233   2.847 -0.4801  0.0510  0.0350
  546MOL0     H75337   9.455  11.400   2.825 -2.1051  0.2400  1.0351
  546MOL0     H75338   9.214  11.288   2.765 -3.0921 -0.2997 -3.0878
  546MOL0     H75339   9.294  11.182   2.662 -0.3404 -0.1487  1.1006
  546MOL0     H75340   9.344  11.379   2.510 -1.2558 -0.1113 -0.8699
  546MOL0     H75341   9.178  11.340   2.529  0.1292 -1.8221 -0.6539
  546MOL0     H75342   9.301  11.546   2.715 -1.8815  0.7082  1.8275
  546MOL0     H75343   9.134  11.515   2.673 -0.0385  0.0373 -0.7885
  546MOL0     H75344   9.263  11.772   2.349 -1.7532  0.7350  0.8902
  546MOL0     H75345   9.695  11.306   2.467 -1.2179  1.8756  0.5556
  546MOL0     H75346   9.881  11.372   2.352 -2.3288  3.2158  0.6285
  546MOL0     H75347   9.964  11.501   2.443 -2.8235  0.2256  2.2088
  546MOL0     H75348  10.033  11.340   2.434  1.1210  0.2498  0.6402
  547MOL0     O75349   7.340  10.067   8.192 -0.7002  0.1245 -0.4261
  547MOL0     C75350   7.423  10.002   8.128 -0.0424  0.3423 -0.1705
  547MOL0     O75351   7.401   9.881   8.068  0.2631 -0.7626  0.0990
  547MOL0     C75352   7.290   9.811   8.098 -0.7065  0.7908 -0.2606
  547MOL0     C75353   7.257   9.763   8.231  0.0473 -0.1385  0.3303
  547MOL0     C75354   7.140   9.690   8.248  1.7560 -0.0189  1.1759
  547MOL0     C75355   7.049   9.669   8.141  0.6619 -0.1862 -0.2923
  547MOL0     O75356   6.934   9.590   8.165 -0.2328 -0.2670  0.3516
  547MOL0     C75357   6.864   9.533   8.055 -0.1374 -0.5986 -0.2315
  547MOL0     C75358   6.786   9.425   8.101 -0.5671  1.4431 -1.1702
  547MOL0     C75359   6.643   9.428   8.058  0.7396 -0.1303  1.2275
  547MOL0     C75360   6.568   9.490   8.170  1.3265  0.1750  0.5800
  547MOL0     C75361   6.422   9.505   8.114  0.0010 -0.2825  0.0480
  547MOL0     C75362   6.332   9.555   8.229 -0.1152  0.3385  0.9460
  547MOL0     C75363   6.193   9.569   8.172 -1.0730  0.4816 -0.7176
  547MOL0     C75364   6.076   9.601   8.257 -0.1637  0.0078  0.0501
  547MOL0     N75365   5.952   9.566   8.183  0.3352 -0.0549 -0.5528
  547MOL0     C75366   5.872   9.456   8.160 -0.7742 -0.0169  0.5119
  547MOL0     C75367   5.776   9.491   8.073  0.3592 -0.2568  0.5820
  547MOL0     C75368   5.679   9.395   8.012 -0.4433  0.3328 -0.6913
  547MOL0     C75369   5.629   9.286   8.113 -0.6404  0.1238 -0.3888
  547MOL0     C75370   5.514   9.201   8.048 -0.1248 -0.1832 -0.0041
  547MOL0     C75371   5.477   9.084   8.145  0.5459  0.8832 -0.2407
  547MOL0     O75372   5.356   9.017   8.087  0.0198 -0.1323 -0.5494
  547MOL0     C75373   5.296   8.923   8.164 -0.4274  1.0888  0.1529
  547MOL0     C75374   5.350   8.851   8.275 -0.8129 -0.3779  0.1356
  547MOL0     C75375   5.272   8.748   8.337 -0.1354  0.5315 -0.4798
  547MOL0     C75376   5.344   8.667   8.446 -0.0223  0.7254  0.3438
  547MOL0     C75377   5.142   8.721   8.297  0.1998 -0.4675 -0.6671
  547MOL0     C75378   5.057   8.617   8.370 -0.0911  0.1405 -0.2668
  547MOL0     O75379   4.993   8.518   8.293 -0.3386  0.1500  0.2257
  547MOL0     C75380   4.926   8.424   8.368 -0.4304 -0.6393  0.1687
  547MOL0     C75381   4.983   8.313   8.424 -0.1491  0.2089 -0.8443
  547MOL0     C75382   4.913   8.224   8.504 -0.3388  0.1300  0.3836
  547MOL0     C75383   4.781   8.257   8.534  0.1556  0.2517  0.1084
  547MOL0     O75384   4.718   8.187   8.628 -0.1356  0.1365 -0.3640
  547MOL0     C75385   4.574   8.173   8.624 -0.1907  0.7846  0.9111
  547MOL0     C75386   4.512   8.067   8.715 -0.5164 -0.5709 -0.4625
  547MOL0     C75387   4.556   8.103   8.861  0.6296 -0.0597 -0.9499
  547MOL0     C75388   4.426   8.112   8.938  0.4128 -0.6706  0.4569
  547MOL0     C75389   4.442   8.177   9.079 -0.3539  0.8796 -0.5440
  547MOL0     C75390   4.308   8.198   9.154 -0.1004  0.0548 -0.5653
  547MOL0     C75391   4.326   8.259   9.299  0.3709 -0.7723 -0.6636
  547MOL0     C75392   4.182   8.254   9.367 -0.7969  0.2979 -0.9382
  547MOL0    Cl75393   4.210   8.300   9.550  0.1748 -0.3487  0.5378
  547MOL0     C75394   4.724   8.369   8.481 -1.0649  1.0106  0.3030
  547MOL0     C75395   4.801   8.451   8.400  0.7550 -0.3745 -0.7533
  547MOL0     O75396   5.061   8.629   8.493 -0.3616 -0.1483  0.5540
  547MOL0     C75397   5.092   8.791   8.184 -0.9076  0.6889  0.6906
  547MOL0     C75398   5.173   8.881   8.120 -0.5833  0.0926  0.6541
  547MOL0     N75399   5.779   9.627   8.069  0.1115 -0.1489 -0.3971
  547MOL0     N75400   5.874   9.667   8.132 -0.0678 -0.3349 -0.0861
  547MOL0     C75401   7.081   9.712   8.017 -0.7340  0.0311  0.0388
  547MOL0     C75402   7.205   9.777   7.993  0.0965 -0.0878 -0.1398
  547MOL0     C75403   7.548  10.071   8.109 -0.1164  0.1268 -0.4445
  547MOL0     C75404   7.612  10.125   8.223 -0.2124 -1.1366  0.6793
  547MOL0     C75405   7.737  10.192   8.216  1.0011  0.3524  0.4619
  547MOL0     C75406   7.797  10.205   8.090 -0.4160 -0.3569  0.5257
  547MOL0     O75407   7.923  10.252   8.057 -0.5396  0.4265 -0.5517
  547MOL0     C75408   8.017  10.311   8.151 -0.2218  0.1844  0.1091
  547MOL0     C75409   8.096  10.196   8.220 -0.4004 -0.1745 -1.4007
  547MOL0     C75410   8.224  10.249   8.291  0.5104 -0.0250  0.1119
  547MOL0     C75411   8.249  10.150   8.406  0.6450  0.6631  0.1254
  547MOL0     C75412   8.374  10.190   8.471 -0.9220  0.6413 -0.3923
  547MOL0     C75413   8.481  10.221   8.515  0.3482 -0.7424 -1.1025
  547MOL0     C75414   7.735  10.148   7.975  0.1757  0.6918  0.0990
  547MOL0     C75415   7.616  10.076   7.986  0.8526  0.2526 -0.4865
  547MOL0     C75416   7.549  10.020   7.864 -0.3692  0.7417 -0.2249
  547MOL0     H75417   7.320   9.774   8.319  0.1442  1.7859  0.0594
  547MOL0     H75418   7.125   9.634   8.340  0.4797  0.7946  1.4883
  547MOL0     H75419   6.935   9.495   7.981 -1.8404 -0.3727 -2.0477
  547MOL0     H75420   6.799   9.613   8.018 -0.8825 -1.8958 -1.8075
  547MOL0     H75421   6.834   9.331   8.071 -1.1699  1.2702 -1.6138
  547MOL0     H75422   6.779   9.425   8.210 -2.5720  0.3611 -1.2338
  547MOL0     H75423   6.622   9.483   7.966 -1.2643 -0.2751  1.5555
  547MOL0     H75424   6.608   9.328   8.028 -4.7797  0.7082  3.6070
  547MOL0     H75425   6.557   9.426   8.258 -3.2439  0.8765  0.7522
  547MOL0     H75426   6.608   9.589   8.197  1.0924  0.8470 -1.3907
  547MOL0     H75427   6.391   9.404   8.087  1.1630 -0.6473  0.0305
  547MOL0     H75428   6.399   9.573   8.031 -2.3162  0.7345  1.4357
  547MOL0     H75429   6.340   9.487   8.314  2.5076  0.3154  0.7671
  547MOL0     H75430   6.375   9.653   8.249 -0.4775  0.4988  0.9393
  547MOL0     H75431   6.178   9.475   8.117 -2.2309 -0.9844  1.9152
  547MOL0     H75432   6.195   9.642   8.091  0.6087  2.1373  0.7338
  547MOL0     H75433   6.075   9.536   8.345 -4.0827  1.2341  1.1280
  547MOL0     H75434   6.075   9.703   8.296 -0.3330  0.1537 -0.3328
  547MOL0     H75435   5.878   9.356   8.202  1.0624 -1.5451 -2.9511
  547MOL0     H75436   5.734   9.357   7.926  0.0845  2.0398 -1.1479
  547MOL0     H75437   5.592   9.452   7.977 -0.5756  0.4715 -0.1482
  547MOL0     H75438   5.715   9.229   8.149  0.0669  1.5709  0.3265
  547MOL0     H75439   5.588   9.333   8.203  2.1637  3.5855 -0.6606
  547MOL0     H75440   5.423   9.261   8.032  1.8684  3.3358  0.7134
  547MOL0     H75441   5.566   9.154   7.965 -0.0070 -0.5179  0.2551
  547MOL0     H75442   5.565   9.019   8.157 -0.4646 -0.1547  2.1751
  547MOL0     H75443   5.459   9.124   8.245  0.4135 -1.8065  0.9043
  547MOL0     H75444   5.455   8.862   8.297 -0.8779 -0.1819  0.3563
  547MOL0     H75445   5.446   8.704   8.466  1.0888 -1.5838 -0.7050
  547MOL0     H75446   5.351   8.566   8.407  0.0459  1.1558 -0.7950
  547MOL0     H75447   5.289   8.654   8.540  1.6738 -0.8174  1.1850
  547MOL0     H75448   5.089   8.296   8.410 -0.5391 -1.6106 -1.9047
  547MOL0     H75449   4.966   8.149   8.563  0.6895 -0.0170 -0.6837
  547MOL0     H75450   4.523   8.267   8.645 -0.3582  1.1603 -1.0419
  547MOL0     H75451   4.546   8.156   8.520 -1.6700  0.8792  1.2687
  547MOL0     H75452   4.404   8.051   8.700 -0.0756 -1.4931 -3.3083
  547MOL0     H75453   4.560   7.973   8.685  2.0332  0.3578  0.4828
  547MOL0     H75454   4.615   8.195   8.872 -0.3346  0.2164  5.2481
  547MOL0     H75455   4.609   8.017   8.905 -2.2875  0.0701  3.3813
  547MOL0     H75456   4.374   8.016   8.944  0.2415 -0.5428  1.0688
  547MOL0     H75457   4.357   8.176   8.883  0.4840 -0.9729  0.0123
  547MOL0     H75458   4.501   8.101   9.131 -2.2971 -1.3284 -1.3679
  547MOL0     H75459   4.496   8.271   9.065 -0.7003  1.1287 -0.2140
  547MOL0     H75460   4.262   8.100   9.163 -0.7469  0.5043  1.5659
  547MOL0     H75461   4.259   8.268   9.084  2.8538  1.9518 -0.9364
  547MOL0     H75462   4.359   8.364   9.303  0.3222 -0.7970  1.3021
  547MOL0     H75463   4.404   8.218   9.363  0.7801 -1.2978 -1.4825
  547MOL0     H75464   4.132   8.157   9.369  0.7475 -0.6175  2.6642
  547MOL0     H75465   4.112   8.322   9.319  0.6395  2.7919  0.2943
  547MOL0     H75466   4.630   8.406   8.520 -2.3592 -0.3819 -1.3732
  547MOL0     H75467   4.741   8.532   8.361  3.4127  1.3891 -1.4330
  547MOL0     H75468   4.996   8.765   8.141  0.6536 -3.4760 -0.7303
  547MOL0     H75469   5.132   8.927   8.030  2.4290  2.4860  0.3257
  547MOL0     H75470   7.020   9.702   7.928  0.0430 -0.3998 -0.4524
  547MOL0     H75471   7.215   9.796   7.887 -3.9285  0.5713 -0.5279
  547MOL0     H75472   7.549  10.117   8.311  0.9323 -2.9314  1.3794
  547MOL0     H75473   7.795  10.230   8.299  1.2323 -0.8479  0.8659
  547MOL0     H75474   8.091  10.380   8.110  0.8236  0.2487  1.9873
  547MOL0     H75475   7.965  10.374   8.225  1.5334  1.5026  0.2781
  547MOL0     H75476   8.113  10.122   8.141 -0.5192 -0.3640 -1.2528
  547MOL0     H75477   8.025  10.160   8.295  0.6743  1.4122  0.4647
  547MOL0     H75478   8.309  10.261   8.224  0.6578  2.3767  0.6276
  547MOL0     H75479   8.200  10.348   8.332  1.9022 -0.0162  0.9841
  547MOL0     H75480   8.260  10.049   8.364  0.8535  0.2301  1.1907
  547MOL0     H75481   8.173  10.136   8.483  0.7953  0.9185  0.3210
  547MOL0     H75482   8.573  10.271   8.538  0.9435 -1.6031 -1.5607
  547MOL0     H75483   7.782  10.171   7.880  0.0175 -3.0215 -1.0545
  547MOL0     H75484   7.534   9.913   7.878 -1.4277  0.8118 -0.6718
  547MOL0     H75485   7.454  10.072   7.844 -1.7136 -1.7981 -0.7933
  547MOL0     H75486   7.610  10.032   7.774 -1.4948  1.0786 -0.9719
  548MOL0     O75487  10.820   5.102   5.638  0.1712  0.5631  0.3490
  548MOL0     C75488  10.807   4.995   5.698  0.6370 -0.4388 -0.1143
  548MOL0     O75489  10.881   4.881   5.679 -0.0127  0.2631 -0.0756
  548MOL0     C75490  10.996   4.892   5.600 -0.8116 -0.7511 -0.1896
  548MOL0     C75491  11.015   4.807   5.495  0.3336 -0.4621 -0.9853
  548MOL0     C75492  11.141   4.815   5.434  0.4192 -0.5536  0.2363
  548MOL0     C75493  11.239   4.905   5.464 -0.0530  0.4143  0.1444
  548MOL0     O75494  11.361   4.911   5.400 -0.2517  0.2717  0.1474
  548MOL0     C75495  11.474   4.964   5.466  0.8624 -0.4273 -0.1891
  548MOL0     C75496  11.589   4.966   5.360  0.4711 -1.2656  1.1094
  548MOL0     C75497  11.631   4.825   5.314 -0.2189 -0.7457  0.0898
  548MOL0     C75498  11.752   4.830   5.214  0.4755  0.2655 -0.1508
  548MOL0     C75499  11.772   4.701   5.142 -0.5050 -0.2364 -0.1354
  548MOL0     C75500  11.830   4.590   5.239 -0.1321  0.5431 -0.3096
  548MOL0     C75501  11.900   4.476   5.166 -0.2243  0.1060  0.5223
  548MOL0     C75502  11.806   4.358   5.132 -0.0556 -0.2900  0.9265
  548MOL0     N75503  11.731   4.370   5.003  0.3190 -0.1324 -0.2227
  548MOL0     C75504  11.801   4.377   4.886  0.2789  0.4019  0.3130
  548MOL0     C75505  11.699   4.416   4.798 -0.0983  0.1295  0.3458
  548MOL0     C75506  11.707   4.471   4.656  0.5222  0.6186 -0.0008
  548MOL0     C75507  11.665   4.352   4.569 -0.2778 -0.0021 -0.6337
  548MOL0     C75508  11.514   4.352   4.547 -0.1763 -0.1335  0.3972
  548MOL0     C75509  11.476   4.213   4.496  0.4703 -0.8383  0.0134
  548MOL0     O75510  11.340   4.206   4.445 -0.8451 -0.1992 -0.1205
  548MOL0     C75511  11.299   4.081   4.411  0.1261  0.3645 -0.4069
  548MOL0     C75512  11.172   4.082   4.351  0.1536  0.5756 -0.0631
  548MOL0     C75513  11.116   3.957   4.307 -0.2234  1.1762  0.2690
  548MOL0     C75514  10.982   3.957   4.234  0.0739 -0.0315  1.0142
  548MOL0     C75515  11.179   3.834   4.336  0.0325 -0.3653  0.0205
  548MOL0     C75516  11.122   3.706   4.301  0.0405  1.2246 -0.0759
  548MOL0     O75517  11.203   3.616   4.241 -0.8653 -0.7128 -0.0653
  548MOL0     C75518  11.154   3.490   4.208  1.7498 -0.7018  0.3424
  548MOL0     C75519  11.211   3.376   4.245 -0.0067 -0.3507  0.1633
  548MOL0     C75520  11.160   3.254   4.218 -0.9400  0.6355  0.6027
  548MOL0     C75521  11.037   3.245   4.138  0.0255 -0.7357 -0.0808
  548MOL0     O75522  10.975   3.117   4.141 -0.0299 -0.1911  0.2833
  548MOL0     C75523  10.880   3.091   4.024 -0.0020 -0.2297 -0.3297
  548MOL0     C75524  10.832   2.950   4.025 -0.3353 -1.1973 -0.0090
  548MOL0     C75525  10.802   2.903   4.174 -1.4766  0.0330  0.0222
  548MOL0     C75526  10.730   3.005   4.261 -0.6468 -0.3295 -0.4026
  548MOL0     C75527  10.630   2.928   4.363 -0.0722  0.9995  0.0938
  548MOL0     C75528  10.690   2.818   4.445 -1.0495  0.4136  0.4152
  548MOL0     C75529  10.783   2.869   4.560  0.2047  0.3677  0.1497
  548MOL0     C75530  10.840   2.747   4.642  0.4981  0.0237 -0.0156
  548MOL0    Cl75531  10.970   2.658   4.550  0.2004  0.0603 -0.7401
  548MOL0     C75532  10.972   3.356   4.100  0.5928  0.1591  0.1142
  548MOL0     C75533  11.032   3.476   4.138  0.6932  0.1885  0.9450
  548MOL0     O75534  11.001   3.692   4.340  0.6859  0.1276  0.1376
  548MOL0     C75535  11.302   3.841   4.403  0.9634 -0.1104  0.7834
  548MOL0     C75536  11.366   3.960   4.431 -0.3367  0.8463  0.4566
  548MOL0     N75537  11.579   4.431   4.865  0.5022  0.2590 -0.5000
  548MOL0     N75538  11.601   4.408   4.989  0.0542 -0.2390  0.1989
  548MOL0     C75539  11.216   4.994   5.562  0.2309 -0.4447 -0.7972
  548MOL0     C75540  11.099   4.984   5.637  0.4864 -0.1609 -0.0538
  548MOL0     C75541  10.703   4.982   5.801 -0.2267  0.3789 -0.0296
  548MOL0     C75542  10.709   4.875   5.888 -0.0210 -0.5296  0.5441
  548MOL0     C75543  10.627   4.859   5.999 -0.4317 -0.6459  0.3072
  548MOL0     C75544  10.523   4.947   6.026  0.2424 -0.0874  0.5048
  548MOL0     O75545  10.427   4.919   6.124  0.4143 -0.2035  0.4007
  548MOL0     C75546  10.476   4.876   6.251 -0.4671  0.5967  0.3998
  548MOL0     C75547  10.364   4.858   6.359  0.4902 -0.5017  0.2016
  548MOL0     C75548  10.432   4.787   6.474 -0.1186 -0.3310 -0.8648
  548MOL0     C75549  10.337   4.771   6.590 -0.9852 -0.1614 -0.2806
  548MOL0     C75550  10.404   4.720   6.709  0.8276  0.2324  0.5937
  548MOL0     C75551  10.447   4.669   6.813  0.0183 -0.1789 -0.6824
  548MOL0     C75552  10.506   5.051   5.931  0.6219  0.0794 -0.1710
  548MOL0     C75553  10.599   5.076   5.828 -0.2022 -0.8560  0.4895
  548MOL0     C75554  10.561   5.191   5.728 -0.0664 -0.0163 -0.6018
  548MOL0     H75555  10.937   4.736   5.471 -0.6431 -0.8752  2.7585
  548MOL0     H75556  11.174   4.757   5.348  0.9388 -0.3438  0.2902
  548MOL0     H75557  11.496   4.894   5.547  0.0184 -0.6179 -0.1147
  548MOL0     H75558  11.453   5.067   5.498 -1.5789 -1.0078  0.2443
  548MOL0     H75559  11.541   5.025   5.281 -1.1456 -1.2772  2.0382
  548MOL0     H75560  11.676   5.027   5.390 -0.3724 -0.6317  2.3814
  548MOL0     H75561  11.662   4.770   5.403 -0.4841  1.3273  1.5422
  548MOL0     H75562  11.540   4.778   5.274 -1.8484  0.0934  2.5645
  548MOL0     H75563  11.745   4.914   5.144  1.6704  0.7020  0.2347
  548MOL0     H75564  11.844   4.847   5.271 -0.1810  0.3835  0.9082
  548MOL0     H75565  11.851   4.729   5.072 -0.5995 -1.3936 -0.7326
  548MOL0     H75566  11.686   4.680   5.078 -1.0234 -1.6611  0.9643
  548MOL0     H75567  11.904   4.642   5.301  0.3741  1.1761 -1.4048
  548MOL0     H75568  11.765   4.554   5.319  2.1864  0.4261  1.6402
  548MOL0     H75569  11.985   4.437   5.223  1.8962 -0.5538 -2.8320
  548MOL0     H75570  11.945   4.516   5.076  2.9009 -2.0687  0.9456
  548MOL0     H75571  11.858   4.262   5.129 -0.2400 -0.4001  1.2389
  548MOL0     H75572  11.733   4.358   5.213 -0.4125  0.6311  0.6229
  548MOL0     H75573  11.905   4.358   4.863  0.3453  1.9738 -0.8410
  548MOL0     H75574  11.811   4.496   4.636  0.5810  1.5593  1.3811
  548MOL0     H75575  11.639   4.556   4.648  0.1112  0.2654 -0.3465
  548MOL0     H75576  11.718   4.362   4.474 -1.7466 -0.8176 -1.5806
  548MOL0     H75577  11.702   4.258   4.612  2.4095  1.4464  0.4638
  548MOL0     H75578  11.453   4.383   4.633 -2.5661  0.5136 -1.4110
  548MOL0     H75579  11.500   4.426   4.468 -1.9015 -2.2685 -1.4375
  548MOL0     H75580  11.529   4.167   4.412 -1.0063 -2.0010 -0.3147
  548MOL0     H75581  11.496   4.152   4.585  1.9549  0.8465  0.9144
  548MOL0     H75582  11.124   4.179   4.346 -1.2626 -0.1587 -1.2419
  548MOL0     H75583  10.895   3.971   4.298 -2.0841 -1.2651 -1.4470
  548MOL0     H75584  10.948   3.863   4.190 -0.4043  0.0938  1.1080
  548MOL0     H75585  10.979   4.041   4.164 -2.3269 -0.2098  0.8102
  548MOL0     H75586  11.303   3.379   4.303  0.4672  0.2564 -0.5904
  548MOL0     H75587  11.222   3.169   4.245 -0.5033 -0.3950 -3.0526
  548MOL0     H75588  10.791   3.155   4.027 -1.5339 -2.1324 -2.4240
  548MOL0     H75589  10.939   3.096   3.933  0.9851 -1.3958  0.2159
  548MOL0     H75590  10.734   2.948   3.976  0.1512 -0.0129 -1.0744
  548MOL0     H75591  10.898   2.880   3.973  0.5703 -0.7891  0.5752
  548MOL0     H75592  10.882   2.863   4.237 -3.4163  0.7011  3.0823
  548MOL0     H75593  10.738   2.814   4.166 -1.2397 -0.5131  3.0051
  548MOL0     H75594  10.662   3.060   4.196 -0.7359 -0.9933 -0.8764
  548MOL0     H75595  10.797   3.071   4.318  0.0187 -1.6844  0.4372
  548MOL0     H75596  10.583   3.000   4.431 -2.9191  1.7074 -2.3665
  548MOL0     H75597  10.552   2.877   4.305  2.5590 -1.9155 -1.1477
  548MOL0     H75598  10.753   2.756   4.381 -0.8151  0.0097  1.0318
  548MOL0     H75599  10.605   2.758   4.480 -0.3354 -0.4141  0.7735
  548MOL0     H75600  10.734   2.940   4.627 -0.1130  1.3133 -1.0317
  548MOL0     H75601  10.866   2.928   4.519  0.1984  0.1793 -0.1341
  548MOL0     H75602  10.757   2.682   4.672 -1.1937  2.2074  0.3601
  548MOL0     H75603  10.884   2.779   4.737 -1.5872  1.0235  0.6753
  548MOL0     H75604  10.878   3.352   4.047  1.5234  0.2902 -1.6096
  548MOL0     H75605  10.996   3.567   4.092  0.9743 -0.5199 -0.7479
  548MOL0     H75606  11.350   3.745   4.421 -1.7185 -2.0425 -1.3649
  548MOL0     H75607  11.471   3.957   4.459 -1.1707  0.2717  4.0702
  548MOL0     H75608  11.283   5.074   5.593  1.2253 -0.6969 -2.1843
  548MOL0     H75609  11.084   5.059   5.714  0.1914  1.2282 -1.4066
  548MOL0     H75610  10.778   4.792   5.876  0.3948 -0.0027 -0.8384
  548MOL0     H75611  10.654   4.781   6.069 -1.5496  0.0249  1.5458
  548MOL0     H75612  10.523   4.777   6.243 -1.5851 -0.1052  2.0508
  548MOL0     H75613  10.543   4.953   6.290  2.1846 -1.5385  0.3896
  548MOL0     H75614  10.281   4.799   6.318  0.3498  0.7158 -1.3522
  548MOL0     H75615  10.326   4.957   6.383  1.5103 -0.2495  0.8206
  548MOL0     H75616  10.478   4.692   6.445  3.2433  1.1125 -0.7598
  548MOL0     H75617  10.523   4.839   6.506  1.4182 -4.8702  3.5249
  548MOL0     H75618  10.249   4.710   6.569 -2.7731  2.3511 -0.5816
  548MOL0     H75619  10.301   4.874   6.600 -1.3620 -0.3300  0.1331
  548MOL0     H75620  10.474   4.624   6.907 -2.0432 -0.0376  0.0303
  548MOL0     H75621  10.421   5.119   5.928  2.1144  1.9649 -2.0755
  548MOL0     H75622  10.618   5.283   5.739  1.1122 -0.6991 -0.8553
  548MOL0     H75623  10.577   5.158   5.625  0.2326  1.9523 -1.2139
  548MOL0     H75624  10.458   5.228   5.732  0.6355  1.9968  1.6583
  549MOL0     O75625   0.376   2.707   2.647  0.0022  0.2452 -0.0951
  549MOL0     C75626   0.423   2.814   2.678  0.3084  0.0121  0.5900
  549MOL0     O75627   0.457   2.845   2.800 -0.4854 -0.6419  0.4990
  549MOL0     C75628   0.454   2.748   2.898  0.3812  0.8098  0.1749
  549MOL0     C75629   0.545   2.639   2.902  0.3307  0.4353  0.1370
  549MOL0     C75630   0.533   2.537   2.994  0.1271  0.1843 -0.8686
  549MOL0     C75631   0.437   2.545   3.088  0.5836  0.1936 -0.0487
  549MOL0     O75632   0.408   2.452   3.186 -0.6704 -0.3818  0.4625
  549MOL0     C75633   0.463   2.318   3.181 -0.4070 -0.2808  0.1265
  549MOL0     C75634   0.377   2.218   3.255 -0.3768 -0.1741  0.2903
  549MOL0     C75635   0.432   2.079   3.231  0.3229 -0.4776  0.5389
  549MOL0     C75636   0.345   1.969   3.285 -0.8852  0.3681 -0.1071
  549MOL0     C75637   0.407   1.900   3.409  0.4063 -0.8643  0.0098
  549MOL0     C75638   0.529   1.807   3.381 -0.3533  0.8554  0.3823
  549MOL0     C75639   0.560   1.710   3.503  0.8747 -0.1669  0.5706
  549MOL0     C75640   0.627   1.776   3.621 -0.3616 -0.7431 -0.7267
  549MOL0     N75641   0.767   1.819   3.605  0.3876  0.7123 -0.4143
  549MOL0     C75642   0.875   1.772   3.674 -0.4810  0.1965 -0.5102
  549MOL0     C75643   0.985   1.834   3.631 -0.4277  0.7516  0.5838
  549MOL0     C75644   1.122   1.808   3.679  0.1898  0.8340 -0.0682
  549MOL0     C75645   1.190   1.704   3.589  0.2108 -0.7120 -0.1498
  549MOL0     C75646   1.138   1.559   3.605  0.1915 -0.8994 -0.5244
  549MOL0     C75647   1.163   1.464   3.488  1.1464 -0.7474  1.2073
  549MOL0     O75648   1.279   1.388   3.530 -0.2771 -0.4733 -0.5863
  549MOL0     C75649   1.294   1.265   3.467  0.3322 -0.2347  0.6261
  549MOL0     C75650   1.216   1.221   3.360  0.1116 -0.3765  0.3396
  549MOL0     C75651   1.220   1.084   3.318  0.3820 -0.3211  0.8169
  549MOL0     C75652   1.136   1.044   3.196  0.9603  0.9373  0.2792
  549MOL0     C75653   1.305   0.995   3.380  0.3869  0.6092  0.1053
  549MOL0     C75654   1.315   0.843   3.351 -0.5168  0.3286 -0.1321
  549MOL0     O75655   1.376   0.775   3.453  0.1003  0.4767 -0.1901
  549MOL0     C75656   1.402   0.643   3.442 -0.2836  0.2552 -0.0916
  549MOL0     C75657   1.385   0.569   3.565 -0.4864  0.2141 -0.0983
  549MOL0     C75658   1.422   0.437   3.564 -0.0706 -0.6440 -0.8995
  549MOL0     C75659   1.481   0.378   3.449  0.5187  0.2799  0.3632
  549MOL0     O75660   1.501   0.251   3.462 -0.4125  0.1045 -0.1533
  549MOL0     C75661   1.397   0.163   3.420  0.3102  0.4851 -0.1726
  549MOL0     C75662   1.384   0.135   3.268  0.2939 -0.1306 -0.1858
  549MOL0     C75663   1.472   0.030   3.217 -0.3127 -0.0311  0.1006
  549MOL0     C75664   1.427  -0.020   3.075  0.0710 -0.6144 -0.7996
  549MOL0     C75665   1.474  -0.159   3.021 -0.5035  0.5126  0.7292
  549MOL0     C75666   1.627  -0.186   3.016  0.8268 -0.1646 -0.2005
  549MOL0     C75667   1.643  -0.328   2.959 -0.3933  0.9845  0.1885
  549MOL0     C75668   1.783  -0.372   2.955  0.0512 -0.2166 -0.0400
  549MOL0    Cl75669   1.807  -0.542   2.922  0.3583 -0.0817 -0.4213
  549MOL0     C75670   1.497   0.451   3.333  0.4509  1.3275 -0.4249
  549MOL0     C75671   1.469   0.587   3.334 -0.2384  0.0177 -0.6303
  549MOL0     O75672   1.269   0.791   3.250 -0.1781 -0.2332 -0.1787
  549MOL0     C75673   1.383   1.044   3.489  0.0319  0.2648 -1.4900
  549MOL0     C75674   1.384   1.182   3.530 -0.2613  0.0902  0.0209
  549MOL0     N75675   0.939   1.926   3.534 -0.7678 -0.5243  0.3106
  549MOL0     N75676   0.813   1.914   3.516 -0.1303 -0.2248 -0.4254
  549MOL0     C75677   0.348   2.653   3.089 -0.2864  0.0510  0.2372
  549MOL0     C75678   0.354   2.746   2.992 -0.2110 -0.7747 -0.1078
  549MOL0     C75679   0.441   2.916   2.563 -0.3094  0.3174  0.1597
  549MOL0     C75680   0.445   3.049   2.594  1.0868  0.0942 -0.6217
  549MOL0     C75681   0.446   3.156   2.502 -0.0514 -0.0829 -0.4495
  549MOL0     C75682   0.439   3.124   2.366 -0.5387 -0.5616  0.0564
  549MOL0     O75683   0.417   3.233   2.285 -0.0121  0.3592  0.2729
  549MOL0     C75684   0.404   3.225   2.143  0.6130  1.9188  0.0133
  549MOL0     C75685   0.524   3.268   2.059  0.4664 -0.0147  0.1475
  549MOL0     C75686   0.557   3.414   2.094  0.2846 -0.4987  0.6253
  549MOL0     C75687   0.679   3.453   2.013 -0.4719 -0.1240 -0.3307
  549MOL0     C75688   0.788   3.370   2.068 -0.4220 -0.2278 -0.0626
  549MOL0     C75689   0.884   3.317   2.106 -0.5748  0.3589 -0.6313
  549MOL0     C75690   0.461   2.989   2.331  0.4122  0.1189  0.2842
  549MOL0     C75691   0.441   2.885   2.425 -0.3891  0.2395  0.1324
  549MOL0     C75692   0.450   2.748   2.373  0.0279 -0.2145 -0.8396
  549MOL0     H75693   0.636   2.650   2.844  1.2974 -3.1288  0.7226
  549MOL0     H75694   0.600   2.452   3.001 -1.3962 -0.9727  0.4277
  549MOL0     H75695   0.561   2.320   3.231 -1.4069 -1.4518  2.2659
  549MOL0     H75696   0.481   2.294   3.076  1.8302  2.1121 -0.1620
  549MOL0     H75697   0.388   2.240   3.362 -1.3716 -0.2162  0.4184
  549MOL0     H75698   0.272   2.224   3.225 -0.8814  0.8547  2.0907
  549MOL0     H75699   0.456   2.068   3.125  0.4652 -0.5577  0.5790
  549MOL0     H75700   0.525   2.077   3.289  0.4688  0.3488  0.3406
  549MOL0     H75701   0.247   2.013   3.305 -0.7300 -0.1897  2.1159
  549MOL0     H75702   0.341   1.895   3.204  1.6488 -1.6602  1.4588
  549MOL0     H75703   0.329   1.839   3.454  0.1665 -1.2582 -0.9034
  549MOL0     H75704   0.429   1.984   3.475 -1.9952 -0.9113  0.9580
  549MOL0     H75705   0.503   1.745   3.295  3.2308 -1.3334  0.6744
  549MOL0     H75706   0.620   1.864   3.363  1.2538 -0.7409  2.9342
  549MOL0     H75707   0.626   1.636   3.458 -0.2018  0.0557 -1.5496
  549MOL0     H75708   0.475   1.650   3.537  0.9260 -1.3922 -1.2914
  549MOL0     H75709   0.570   1.866   3.641  0.9382  0.3852 -1.8670
  549MOL0     H75710   0.613   1.715   3.710 -1.7396 -1.5078 -1.4299
  549MOL0     H75711   0.864   1.696   3.750  0.7297 -1.0859 -1.5616
  549MOL0     H75712   1.111   1.764   3.779 -0.5172 -1.5948 -1.1596
  549MOL0     H75713   1.180   1.901   3.671  2.8270 -0.8835 -2.3615
  549MOL0     H75714   1.160   1.742   3.490 -2.2227  1.5636  1.3177
  549MOL0     H75715   1.299   1.714   3.601 -0.0824  0.2097  2.5316
  549MOL0     H75716   1.175   1.521   3.701 -1.6509  1.0684  1.0859
  549MOL0     H75717   1.029   1.559   3.621  0.6478  0.2524  4.0028
  549MOL0     H75718   1.074   1.401   3.481 -2.2731  3.7076 -0.1981
  549MOL0     H75719   1.180   1.533   3.405 -1.6471 -0.4377  0.7917
  549MOL0     H75720   1.168   1.300   3.303 -3.0765 -2.3634  0.0294
  549MOL0     H75721   1.103   1.126   3.132  1.0729 -0.0767 -1.1075
  549MOL0     H75722   1.044   0.995   3.229  1.5254  0.0520  0.5695
  549MOL0     H75723   1.189   0.978   3.128 -0.6165 -1.0450  0.8878
  549MOL0     H75724   1.350   0.624   3.651 -2.9448 -1.1607 -0.1347
  549MOL0     H75725   1.409   0.388   3.660  3.6064 -3.7898 -1.7431
  549MOL0     H75726   1.409   0.065   3.468 -1.0575 -0.0874 -0.9264
  549MOL0     H75727   1.303   0.199   3.463  2.5262  3.9693  2.2840
  549MOL0     H75728   1.286   0.089   3.257  0.9384 -1.1986 -1.7519
  549MOL0     H75729   1.383   0.222   3.202  0.3796  0.4450  0.5606
  549MOL0     H75730   1.461  -0.055   3.284 -3.8605  1.1584  1.2508
  549MOL0     H75731   1.579   0.057   3.214 -0.1519 -0.6639  0.0170
  549MOL0     H75732   1.455   0.060   3.007  4.0474 -1.2779 -0.1882
  549MOL0     H75733   1.319  -0.032   3.071 -0.5699  1.1322  4.2753
  549MOL0     H75734   1.450  -0.238   3.093  2.4990 -0.0838  1.1922
  549MOL0     H75735   1.420  -0.171   2.926 -2.1296  2.2392  1.3836
  549MOL0     H75736   1.660  -0.181   3.120  1.2547  1.0623 -0.3771
  549MOL0     H75737   1.668  -0.114   2.944 -0.8503  0.1064 -0.9193
  549MOL0     H75738   1.592  -0.328   2.862 -0.8033  3.0441  0.3726
  549MOL0     H75739   1.588  -0.395   3.026  0.9350  0.9262  1.2457
  549MOL0     H75740   1.825  -0.342   3.051 -1.8126  3.9513 -0.3061
  549MOL0     H75741   1.833  -0.312   2.878  0.1330  0.7155  0.7238
  549MOL0     H75742   1.549   0.408   3.248  1.1893  0.2803  0.5119
  549MOL0     H75743   1.492   0.632   3.239  0.0944  0.1141 -0.5041
  549MOL0     H75744   1.451   0.983   3.548 -3.2929 -1.5390  0.8231
  549MOL0     H75745   1.437   1.211   3.621 -2.0506  1.2153  0.7637
  549MOL0     H75746   0.273   2.664   3.167  0.4927  0.8860  0.8883
  549MOL0     H75747   0.272   2.817   3.000  0.6258  0.4498 -1.7981
  549MOL0     H75748   0.441   3.077   2.699  0.0878 -0.0939 -0.6018
  549MOL0     H75749   0.437   3.259   2.532  0.0214  0.1718 -1.2723
  549MOL0     H75750   0.382   3.124   2.107 -1.1076  1.9303  0.9066
  549MOL0     H75751   0.320   3.290   2.117  0.9961  2.9704  1.2948
  549MOL0     H75752   0.485   3.251   1.958 -0.7754 -0.9475  0.7628
  549MOL0     H75753   0.602   3.193   2.073 -0.5690 -0.4899  4.9336
  549MOL0     H75754   0.466   3.468   2.068  1.4876  1.8575  0.9548
  549MOL0     H75755   0.573   3.416   2.203  0.4818 -1.0062  0.6106
  549MOL0     H75756   0.703   3.558   2.032 -0.1565  0.1413 -2.1131
  549MOL0     H75757   0.683   3.436   1.905  2.2151  1.8957 -0.6544
  549MOL0     H75758   0.971   3.256   2.126 -0.0631  1.6978  1.6039
  549MOL0     H75759   0.486   2.957   2.230  0.4732 -0.7577  0.5650
  549MOL0     H75760   0.376   2.677   2.411 -2.4447  3.2919  1.4180
  549MOL0     H75761   0.434   2.746   2.265  1.0328 -1.3387 -0.9836
  549MOL0     H75762   0.549   2.702   2.384 -0.5869 -1.2126  1.0077
  550MOL0     O75763   3.096   8.632   4.119 -0.6292  0.4677  0.5360
  550MOL0     C75764   3.009   8.644   4.036  0.2385  0.0904 -1.4884
  550MOL0     O75765   2.902   8.556   4.022 -0.2678  0.0440  0.1252
  550MOL0     C75766   2.892   8.447   4.101  0.4073 -0.1622 -0.5554
  550MOL0     C75767   2.778   8.430   4.173  0.5991  0.1507  0.7857
  550MOL0     C75768   2.755   8.328   4.262  0.5785  0.0941 -0.0941
  550MOL0     C75769   2.862   8.234   4.276  0.2506  0.1094  0.4120
  550MOL0     O75770   2.849   8.117   4.350 -0.4154 -0.3242 -0.8289
  550MOL0     C75771   2.744   8.106   4.447  0.5541  0.3021 -0.1757
  550MOL0     C75772   2.759   7.972   4.521 -0.2785  0.6877 -0.6815
  550MOL0     C75773   2.679   7.973   4.653 -0.4669  0.7345 -0.1954
  550MOL0     C75774   2.530   7.938   4.635 -0.0548  0.3736 -0.4510
  550MOL0     C75775   2.463   7.972   4.767  0.0520 -0.0782 -0.3180
  550MOL0     C75776   2.459   7.858   4.875 -0.2802 -0.2745  0.1072
  550MOL0     C75777   2.545   7.877   5.002 -0.1007  0.6215 -0.3275
  550MOL0     C75778   2.573   7.746   5.082  0.1091  0.4497  0.0491
  550MOL0     N75779   2.668   7.769   5.187 -0.1152 -0.6031  0.3965
  550MOL0     C75780   2.640   7.832   5.303  0.9590 -0.5177 -0.2899
  550MOL0     C75781   2.762   7.881   5.339 -0.3525 -0.2023  0.1949
  550MOL0     C75782   2.790   7.946   5.470  0.2366 -1.2160 -0.5829
  550MOL0     C75783   2.938   7.981   5.499  0.8719  0.5954  0.6448
  550MOL0     C75784   2.962   8.003   5.656 -0.8254  0.7259  1.1082
  550MOL0     C75785   2.889   8.122   5.705  0.5643  0.3208  0.1626
  550MOL0     O75786   2.927   8.148   5.840 -0.4925  0.0074 -0.2504
  550MOL0     C75787   2.836   8.207   5.924 -0.2835  0.2815 -0.0864
  550MOL0     C75788   2.709   8.260   5.883 -0.2769  0.3705  0.5304
  550MOL0     C75789   2.616   8.312   5.969 -0.2172 -0.3383  0.2383
  550MOL0     C75790   2.480   8.359   5.910  0.2438 -0.6826  0.5508
  550MOL0     C75791   2.626   8.310   6.109 -0.8572  0.2443  0.8056
  550MOL0     C75792   2.540   8.383   6.205  0.4352  0.3133  0.2040
  550MOL0     O75793   2.487   8.298   6.300 -0.2467 -0.5267  1.2224
  550MOL0     C75794   2.389   8.339   6.383  0.6767  0.0122  0.2943
  550MOL0     C75795   2.246   8.342   6.348 -0.4759  0.2785  0.4127
  550MOL0     C75796   2.155   8.403   6.436  0.2286 -0.2187  0.0105
  550MOL0     C75797   2.198   8.468   6.547  0.2403 -0.4330  0.2737
  550MOL0     O75798   2.117   8.555   6.635 -0.6875  0.5438  0.1933
  550MOL0     C75799   1.976   8.572   6.595  1.3073  0.1998  0.3207
  550MOL0     C75800   1.901   8.661   6.696  0.4911  0.9457 -0.1289
  550MOL0     C75801   1.750   8.628   6.711  0.7176 -0.1895 -0.0015
  550MOL0     C75802   1.669   8.719   6.797 -0.5724 -0.0324  0.1600
  550MOL0     C75803   1.525   8.667   6.818 -0.2390  0.0009  0.2616
  550MOL0     C75804   1.447   8.737   6.926 -0.1222 -0.6411 -0.8154
  550MOL0     C75805   1.299   8.667   6.941 -0.0599  0.6484 -0.0380
  550MOL0     C75806   1.223   8.731   7.056 -0.0838 -0.0196  0.8219
  550MOL0    Cl75807   1.302   8.726   7.219 -0.1687  0.4673 -0.1398
  550MOL0     C75808   2.332   8.475   6.574 -0.8101 -0.3482 -0.5230
  550MOL0     C75809   2.424   8.404   6.496 -0.9031 -0.3337 -0.6122
  550MOL0     O75810   2.540   8.504   6.208  0.3995 -1.1723 -0.3091
  550MOL0     C75811   2.756   8.263   6.153  0.7370 -0.3620  0.0867
  550MOL0     C75812   2.857   8.218   6.059  0.4132 -0.3946  0.3992
  550MOL0     N75813   2.850   7.862   5.238  0.1652 -0.3629 -0.5941
  550MOL0     N75814   2.794   7.785   5.153 -0.5288 -0.7819  0.0678
  550MOL0     C75815   2.977   8.243   4.195 -0.0182  0.1417  0.2418
  550MOL0     C75816   2.994   8.355   4.118 -0.2680  0.7794 -0.1551
  550MOL0     C75817   3.005   8.766   3.958  0.6894  0.1256 -0.0463
  550MOL0     C75818   2.877   8.821   3.919 -0.2063 -0.4517  0.6186
  550MOL0     C75819   2.868   8.916   3.821 -0.3397 -0.6630 -0.2732
  550MOL0     C75820   2.991   8.974   3.776 -0.4436 -0.6744 -0.2064
  550MOL0     O75821   2.968   9.059   3.668  0.1516  0.2417  0.1607
  550MOL0     C75822   3.076   9.109   3.599 -0.0264  0.1676  0.4383
  550MOL0     C75823   3.032   9.210   3.507 -0.4624  0.2981 -0.6287
  550MOL0     C75824   3.002   9.158   3.370 -0.1613  0.7768  0.2601
  550MOL0     C75825   3.039   9.260   3.263 -0.0875  0.3953 -0.7844
  550MOL0     C75826   3.187   9.288   3.261 -0.7722 -0.1399 -0.8633
  550MOL0     C75827   3.311   9.302   3.259  0.3391  0.6104 -0.0855
  550MOL0     C75828   3.112   8.925   3.820  0.6443 -0.7729  0.5036
  550MOL0     C75829   3.115   8.817   3.903  0.2805  0.0668  0.3231
  550MOL0     C75830   3.255   8.766   3.913  0.0452  0.0641 -0.2408
  550MOL0     H75831   2.693   8.498   4.166 -0.0858 -0.7725 -0.3501
  550MOL0     H75832   2.663   8.320   4.318  1.7483 -2.1249  1.6581
  550MOL0     H75833   2.645   8.099   4.401 -2.5576 -2.9870  5.8382
  550MOL0     H75834   2.734   8.193   4.511 -0.5257 -1.1765  1.7665
  550MOL0     H75835   2.735   7.887   4.457  0.7621  1.1937 -1.7686
  550MOL0     H75836   2.863   7.973   4.555 -0.5815 -1.7708  0.5826
  550MOL0     H75837   2.729   7.900   4.717  1.8375  4.0067  2.0495
  550MOL0     H75838   2.691   8.069   4.704  0.7992 -0.6577  2.3341
  550MOL0     H75839   2.479   7.999   4.559  0.1465  2.2383  0.8325
  550MOL0     H75840   2.522   7.832   4.610  2.2266 -0.1440  0.7609
  550MOL0     H75841   2.355   7.983   4.753 -0.3912 -1.6562  1.4485
  550MOL0     H75842   2.492   8.069   4.807  1.2835  0.8676 -3.2110
  550MOL0     H75843   2.361   7.826   4.913 -0.4875 -2.4019 -2.0180
  550MOL0     H75844   2.498   7.770   4.823 -0.7462  0.5035 -1.6198
  550MOL0     H75845   2.498   7.947   5.072 -2.4339 -1.8998  0.8294
  550MOL0     H75846   2.640   7.923   4.974  0.5826 -0.0826  0.7425
  550MOL0     H75847   2.483   7.720   5.138 -0.0731 -0.1276 -0.5025
  550MOL0     H75848   2.599   7.660   5.019  0.1754 -2.8443  4.1676
  550MOL0     H75849   2.554   7.819   5.368  0.8279 -2.3586 -0.7645
  550MOL0     H75850   2.754   7.877   5.546  0.4707 -0.2930  0.3869
  550MOL0     H75851   2.737   8.041   5.483 -0.0252 -1.4914  0.4013
  550MOL0     H75852   2.990   7.887   5.477  1.3414  0.6618  1.4270
  550MOL0     H75853   2.973   8.063   5.436  1.1125  2.7579  3.4189
  550MOL0     H75854   2.933   7.917   5.716  1.7847 -1.7659 -0.9452
  550MOL0     H75855   3.070   8.020   5.670 -1.2377  2.2457  2.8307
  550MOL0     H75856   2.921   8.204   5.641 -0.6333  1.6985  1.2406
  550MOL0     H75857   2.782   8.106   5.686  1.1013 -0.8699 -2.2063
  550MOL0     H75858   2.683   8.266   5.777 -2.0613  3.0777  1.0341
  550MOL0     H75859   2.490   8.377   5.803 -3.9488  3.9457  0.5868
  550MOL0     H75860   2.458   8.457   5.954  2.7554 -0.3532  1.2651
  550MOL0     H75861   2.399   8.291   5.939  0.4088 -0.1692  2.3623
  550MOL0     H75862   2.218   8.313   6.247  0.2028  1.0397  0.0020
  550MOL0     H75863   2.050   8.405   6.412  0.7442 -0.2810 -2.5309
  550MOL0     H75864   1.972   8.625   6.499 -2.7496  2.1519  1.3477
  550MOL0     H75865   1.932   8.473   6.578  3.5026 -1.3422  2.9037
  550MOL0     H75866   1.942   8.632   6.793 -2.8155 -2.9533  0.3801
  550MOL0     H75867   1.913   8.767   6.670  1.2104  1.4194  1.9241
  550MOL0     H75868   1.742   8.524   6.742  1.1425 -0.1372  0.2929
  550MOL0     H75869   1.706   8.622   6.611  1.6350 -1.3097 -0.3576
  550MOL0     H75870   1.664   8.812   6.740  0.9074  1.1998  1.9166
  550MOL0     H75871   1.725   8.739   6.889  1.3593  1.3419 -1.2330
  550MOL0     H75872   1.473   8.678   6.722  0.9257  0.5967 -0.3281
  550MOL0     H75873   1.533   8.562   6.846 -0.4831  0.3330  1.6887
  550MOL0     H75874   1.446   8.843   6.901  0.9606  0.1719  2.2057
  550MOL0     H75875   1.517   8.740   7.010  2.1767 -3.6834 -2.3949
  550MOL0     H75876   1.302   8.561   6.968  2.5831  0.4797 -0.7330
  550MOL0     H75877   1.243   8.676   6.848 -1.4969 -0.8620  0.6199
  550MOL0     H75878   1.144   8.655   7.062  0.4387 -0.9283 -2.2610
  550MOL0     H75879   1.200   8.835   7.034  2.4920 -0.0073 -2.7894
  550MOL0     H75880   2.363   8.537   6.657  1.5445 -0.3029 -1.3546
  550MOL0     H75881   2.530   8.403   6.521 -1.1403  1.0741  0.6373
  550MOL0     H75882   2.789   8.268   6.256  3.2211 -1.4969 -0.5916
  550MOL0     H75883   2.957   8.197   6.096  0.8779 -1.8062 -1.5006
  550MOL0     H75884   3.043   8.158   4.209  0.2581  0.4996  1.1284
  550MOL0     H75885   3.089   8.372   4.068 -1.8327 -0.8681 -4.1066
  550MOL0     H75886   2.793   8.759   3.948 -0.8327 -0.2266 -0.6382
  550MOL0     H75887   2.773   8.932   3.772 -0.9101 -1.8753  0.4071
  550MOL0     H75888   3.140   9.159   3.673 -1.0923  0.2407  1.3470
  550MOL0     H75889   3.124   9.033   3.538  0.8203  1.0060  0.0336
  550MOL0     H75890   3.121   9.273   3.506  1.0606 -1.6300  1.5768
  550MOL0     H75891   2.945   9.268   3.540  1.7862  5.2299 -2.3966
  550MOL0     H75892   3.044   9.058   3.352 -2.4826 -0.7757  2.7177
  550MOL0     H75893   2.896   9.134   3.359  0.3178 -1.1517 -0.6393
  550MOL0     H75894   2.989   9.356   3.277  0.0144  0.3647 -0.2083
  550MOL0     H75895   3.006   9.224   3.165 -1.3382  1.4819 -0.7978
  550MOL0     H75896   3.418   9.303   3.256  0.5081 -1.9596  1.7124
  550MOL0     H75897   3.205   8.974   3.793  0.5944 -0.2032  1.3549
  550MOL0     H75898   3.295   8.736   3.816  1.1678 -2.2823  0.8511
  550MOL0     H75899   3.318   8.849   3.947  1.2433 -1.2263  0.7810
  550MOL0     H75900   3.274   8.675   3.971  0.1086  0.5740  0.5490
  551MOL0     O75901   0.650   4.295   5.123  0.0344  0.1070 -0.4200
  551MOL0     C75902   0.761   4.306   5.069  0.1607  0.4853 -0.7789
  551MOL0     O75903   0.819   4.426   5.035 -0.5517  1.0774  0.3835
  551MOL0     C75904   0.772   4.543   5.067  0.4760 -0.3639  0.6564
  551MOL0     C75905   0.715   4.623   4.967  0.7688 -0.4650  0.4090
  551MOL0     C75906   0.658   4.750   4.991  0.7663  0.2325  0.0412
  551MOL0     C75907   0.664   4.801   5.122  0.1026  0.5734 -0.3377
  551MOL0     O75908   0.618   4.925   5.149  0.3018  0.1785  0.4704
  551MOL0     C75909   0.662   5.000   5.265 -0.5771 -0.1830  0.2483
  551MOL0     C75910   0.652   5.150   5.241 -0.1720 -0.7822 -0.2909
  551MOL0     C75911   0.707   5.200   5.103  0.0882 -0.2065 -0.4518
  551MOL0     C75912   0.848   5.256   5.106 -0.9945 -1.0946  0.8435
  551MOL0     C75913   0.891   5.282   4.960 -0.0482 -0.5098 -0.0949
  551MOL0     C75914   0.997   5.390   4.960  0.2267  0.0321 -1.4214
  551MOL0     C75915   0.995   5.461   4.828  0.6420 -0.2135  1.0442
  551MOL0     C75916   1.072   5.584   4.815  0.2810  0.5731 -0.7419
  551MOL0     N75917   1.215   5.561   4.790 -0.3185 -0.0301 -0.2037
  551MOL0     C75918   1.285   5.557   4.670  0.8654  0.0646  0.2393
  551MOL0     C75919   1.420   5.560   4.700  0.2860  0.3756 -0.8730
  551MOL0     C75920   1.561   5.552   4.635 -0.1285  0.1337  0.6275
  551MOL0     C75921   1.602   5.400   4.633 -0.9406 -0.5167 -0.5711
  551MOL0     C75922   1.515   5.325   4.542 -0.2686  0.0931  0.7121
  551MOL0     C75923   1.574   5.194   4.494  0.2516 -0.9219  0.0798
  551MOL0     O75924   1.621   5.111   4.595  0.9285 -0.2711 -0.4511
  551MOL0     C75925   1.630   4.977   4.581 -0.8651 -0.1318 -1.6091
  551MOL0     C75926   1.608   4.901   4.698 -0.0473 -0.0006 -0.0110
  551MOL0     C75927   1.616   4.759   4.706 -1.0979  0.5541 -0.2172
  551MOL0     C75928   1.608   4.688   4.843  0.2675 -0.2619  0.1989
  551MOL0     C75929   1.624   4.696   4.576 -0.5381  0.1626 -1.2124
  551MOL0     C75930   1.650   4.541   4.559 -0.4873 -0.1746 -0.0298
  551MOL0     O75931   1.698   4.500   4.435 -0.4417 -0.0285 -0.3157
  551MOL0     C75932   1.733   4.366   4.438 -0.8986 -0.6973  0.3578
  551MOL0     C75933   1.635   4.262   4.449 -0.4964  0.5216 -0.7068
  551MOL0     C75934   1.668   4.125   4.439  0.1857 -0.4679  0.7629
  551MOL0     C75935   1.804   4.089   4.430  0.0106 -0.2452  0.3639
  551MOL0     O75936   1.831   3.960   4.427 -0.0548 -0.3085  0.3739
  551MOL0     C75937   1.770   3.869   4.345 -0.6558  0.9390 -0.2540
  551MOL0     C75938   1.869   3.745   4.349 -0.4139 -0.1139  0.2778
  551MOL0     C75939   2.013   3.757   4.293  0.4990  0.1856 -0.2436
  551MOL0     C75940   2.099   3.629   4.330  1.0358  0.1628 -0.3500
  551MOL0     C75941   2.232   3.627   4.255 -0.6218 -0.8929  0.1359
  551MOL0     C75942   2.304   3.505   4.305 -0.1615  0.7217 -0.1452
  551MOL0     C75943   2.362   3.502   4.446  0.8190  1.0758  0.0420
  551MOL0     C75944   2.477   3.603   4.465  0.2440 -0.7725  0.0443
  551MOL0    Cl75945   2.630   3.553   4.391  0.4442 -0.0603 -0.3889
  551MOL0     C75946   1.907   4.182   4.433 -0.4476  0.1035  0.5226
  551MOL0     C75947   1.875   4.321   4.430  0.3440  0.0961  0.7533
  551MOL0     O75948   1.608   4.473   4.648  0.5101 -0.2265  0.1305
  551MOL0     C75949   1.642   4.777   4.459  0.6456  0.3848  0.7514
  551MOL0     C75950   1.643   4.919   4.459  1.4299  0.2702 -0.5580
  551MOL0     N75951   1.421   5.568   4.843 -0.8177  0.1576 -0.3611
  551MOL0     N75952   1.303   5.562   4.893 -0.0616  0.3288 -0.1773
  551MOL0     C75953   0.718   4.719   5.225 -0.4790 -0.2890 -0.0617
  551MOL0     C75954   0.775   4.589   5.194 -0.0778  0.2702  0.5303
  551MOL0     C75955   0.834   4.180   5.040  0.0400  0.2431 -0.4762
  551MOL0     C75956   0.946   4.190   4.961 -0.0046 -0.1223  0.5086
  551MOL0     C75957   1.008   4.086   4.899 -0.0022 -0.4275 -0.9472
  551MOL0     C75958   0.965   3.957   4.923 -1.0775 -0.2423  0.2480
  551MOL0     O75959   1.036   3.853   4.888  1.1327 -0.1010 -0.1122
  551MOL0     C75960   1.173   3.860   4.908 -0.1415  0.1444 -0.1175
  551MOL0     C75961   1.221   3.722   4.917 -0.7724  0.0898  0.5617
  551MOL0     C75962   1.371   3.709   4.962  0.2418  0.7439  0.2801
  551MOL0     C75963   1.399   3.557   5.000  1.0894  0.3460  0.6494
  551MOL0     C75964   1.347   3.509   5.132 -0.0676 -0.1853 -1.5459
  551MOL0     C75965   1.320   3.461   5.234 -0.1065 -0.1487  0.6958
  551MOL0     C75966   0.848   3.935   5.009 -0.3972 -0.5404  0.0877
  551MOL0     C75967   0.778   4.042   5.053  0.5552  0.1268 -0.9627
  551MOL0     C75968   0.644   3.999   5.137 -0.3526  0.4900  0.1239
  551MOL0     H75969   0.719   4.585   4.866 -0.2907 -0.8971  0.5068
  551MOL0     H75970   0.625   4.816   4.912 -0.9425 -0.3788  0.2083
  551MOL0     H75971   0.762   4.973   5.300 -0.9433  1.0536  2.3863
  551MOL0     H75972   0.594   4.973   5.346  1.4567  0.1845  2.1687
  551MOL0     H75973   0.547   5.178   5.254 -0.6532 -2.8633  0.7028
  551MOL0     H75974   0.705   5.204   5.320 -2.9604 -1.9876  2.6751
  551MOL0     H75975   0.706   5.116   5.033  1.8294 -0.2545 -0.4602
  551MOL0     H75976   0.636   5.277   5.070  0.2155  0.2501  0.3103
  551MOL0     H75977   0.839   5.353   5.156 -1.7207  0.2540 -1.7303
  551MOL0     H75978   0.922   5.195   5.158  0.3955 -1.5978 -1.6048
  551MOL0     H75979   0.799   5.307   4.907 -0.7354 -1.8401  0.4076
  551MOL0     H75980   0.944   5.196   4.918 -0.2525  0.2387 -1.9531
  551MOL0     H75981   0.985   5.470   5.035  1.0800 -0.4670 -0.7307
  551MOL0     H75982   1.092   5.344   4.989  0.5556  0.1197 -2.3291
  551MOL0     H75983   0.892   5.483   4.800  1.3769  0.4362 -1.4323
  551MOL0     H75984   1.012   5.391   4.746  1.0849  0.5858  0.4296
  551MOL0     H75985   1.030   5.638   4.730 -2.4499  1.3729  1.0049
  551MOL0     H75986   1.050   5.633   4.911 -1.5291 -1.6115  0.0484
  551MOL0     H75987   1.241   5.536   4.573  0.6595 -0.1403  0.3758
  551MOL0     H75988   1.639   5.605   4.692  1.0753 -2.6830  1.7914
  551MOL0     H75989   1.561   5.592   4.533  1.7830 -1.8495 -0.2209
  551MOL0     H75990   1.705   5.399   4.595  0.2940 -2.3536  2.4841
  551MOL0     H75991   1.602   5.364   4.736  1.4354  1.3975  0.2244
  551MOL0     H75992   1.422   5.296   4.593  0.5599 -4.0816  0.1778
  551MOL0     H75993   1.491   5.388   4.456  3.4655  0.8917  0.0901
  551MOL0     H75994   1.491   5.138   4.449  2.4128 -2.1799 -2.6544
  551MOL0     H75995   1.656   5.219   4.425  1.6146 -0.3315  1.8334
  551MOL0     H75996   1.585   4.959   4.787  0.8892  0.1072  0.1753
  551MOL0     H75997   1.510   4.639   4.848  0.1919 -0.5765 -2.6412
  551MOL0     H75998   1.628   4.774   4.908 -1.1974  1.9400 -2.0615
  551MOL0     H75999   1.692   4.619   4.851 -0.1614 -0.5932  2.7821
  551MOL0     H76000   1.529   4.284   4.460 -0.5604 -0.0815 -0.1184
  551MOL0     H76001   1.585   4.057   4.421  1.0406 -1.0472 -1.2967
  551MOL0     H76002   1.672   3.849   4.389  0.9491 -3.3438  1.9806
  551MOL0     H76003   1.750   3.907   4.244 -0.3764 -0.3577 -0.8263
  551MOL0     H76004   1.896   3.716   4.451  2.9818 -0.1052 -0.4737
  551MOL0     H76005   1.811   3.673   4.290  0.2322  0.4555 -1.1007
  551MOL0     H76006   2.059   3.838   4.351 -1.1571  0.7697  0.3248
  551MOL0     H76007   2.009   3.770   4.185 -0.7630 -2.1199 -0.5479
  551MOL0     H76008   2.037   3.545   4.296 -3.1433  2.0171  1.9232
  551MOL0     H76009   2.114   3.620   4.437  0.2177 -0.4204 -0.2692
  551MOL0     H76010   2.211   3.617   4.148 -2.0979 -2.5171  0.5223
  551MOL0     H76011   2.286   3.719   4.275 -1.4143 -0.0822 -1.2577
  551MOL0     H76012   2.384   3.495   4.231 -2.8261  1.1094 -3.3172
  551MOL0     H76013   2.235   3.421   4.302 -0.4753  0.9414  0.5945
  551MOL0     H76014   2.411   3.408   4.475 -2.4715 -0.6250  0.5972
  551MOL0     H76015   2.283   3.521   4.519  1.2136 -0.5023  0.9165
  551MOL0     H76016   2.489   3.606   4.573  2.6604 -1.6247 -0.1499
  551MOL0     H76017   2.439   3.701   4.435 -1.5053 -1.1779  0.7961
  551MOL0     H76018   2.004   4.133   4.425 -0.2940  0.6583 -1.5469
  551MOL0     H76019   1.960   4.388   4.422 -0.1559  0.6447 -0.0570
  551MOL0     H76020   1.652   4.743   4.356 -1.3364  1.0773  0.2907
  551MOL0     H76021   1.654   4.990   4.378 -1.8913  2.5134  0.7349
  551MOL0     H76022   0.741   4.762   5.322 -2.9995 -0.5714  0.7419
  551MOL0     H76023   0.828   4.524   5.262 -0.2994  0.0982  0.5378
  551MOL0     H76024   0.990   4.285   4.932  0.7293 -0.6207 -0.0303
  551MOL0     H76025   1.088   4.114   4.831  0.9802 -0.1372  0.2828
  551MOL0     H76026   1.219   3.918   4.828 -0.6808  1.0327  0.1946
  551MOL0     H76027   1.208   3.915   4.996  3.2822 -2.0743  0.0607
  551MOL0     H76028   1.215   3.677   4.817  0.1594  2.4482 -0.6202
  551MOL0     H76029   1.158   3.659   4.981 -0.9986  0.1908  0.4384
  551MOL0     H76030   1.444   3.728   4.883 -0.9050  0.3050 -0.9199
  551MOL0     H76031   1.393   3.773   5.048 -0.3261  2.8813 -1.0678
  551MOL0     H76032   1.506   3.536   4.993  0.8195 -0.7571 -0.5976
  551MOL0     H76033   1.355   3.487   4.928  0.0651  2.5445 -1.0081
  551MOL0     H76034   1.288   3.403   5.318 -2.2352 -2.5345 -1.5769
  551MOL0     H76035   0.836   3.834   5.047  0.9127  0.0823  2.3385
  551MOL0     H76036   0.639   3.893   5.163 -1.6793  0.4689 -0.1809
  551MOL0     H76037   0.640   4.053   5.232  0.4568 -2.6667  2.0667
  551MOL0     H76038   0.555   4.024   5.078 -0.5952  0.4113  0.4574
  552MOL0     O76039   6.017   5.111   6.332 -0.1557 -0.1103 -0.7281
  552MOL0     C76040   6.002   5.026   6.245  0.4163 -0.7805  0.8202
  552MOL0     O76041   6.084   4.992   6.143  0.3377  0.2009  0.6816
  552MOL0     C76042   6.200   5.060   6.131 -1.0122  0.1738 -0.4012
  552MOL0     C76043   6.294   5.050   6.234  0.3468  0.4068 -0.5179
  552MOL0     C76044   6.410   5.128   6.237 -0.5628  0.4540 -0.5396
  552MOL0     C76045   6.439   5.213   6.124  1.4042  0.9707 -0.9898
  552MOL0     O76046   6.550   5.286   6.110 -0.2957 -0.2416  0.5630
  552MOL0     C76047   6.515   5.426   6.077 -0.9634  0.5591 -0.0649
  552MOL0     C76048   6.497   5.527   6.190 -0.2242 -0.5283 -0.8668
  552MOL0     C76049   6.364   5.502   6.273  0.4001  0.5488  0.9645
  552MOL0     C76050   6.237   5.497   6.188 -0.1552 -0.1033 -0.0259
  552MOL0     C76051   6.116   5.454   6.273 -0.5276 -0.6280 -0.5189
  552MOL0     C76052   5.999   5.453   6.177  0.1478 -0.0155  0.2007
  552MOL0     C76053   5.868   5.413   6.242 -0.4660 -0.1460 -0.6075
  552MOL0     C76054   5.765   5.369   6.140 -0.6705 -0.7646  0.0242
  552MOL0     N76055   5.636   5.340   6.200  0.0496 -0.5393 -0.8033
  552MOL0     C76056   5.591   5.231   6.270 -0.1182 -0.7566 -0.1294
  552MOL0     C76057   5.455   5.240   6.266 -0.3040  1.2458 -0.4682
  552MOL0     C76058   5.390   5.140   6.360  0.1683 -0.2083 -0.8376
  552MOL0     C76059   5.245   5.177   6.379  0.3150  0.0024 -0.6421
  552MOL0     C76060   5.180   5.097   6.508 -0.5642 -0.4582 -0.1016
  552MOL0     C76061   5.038   5.135   6.552  0.4715  0.3487  0.7646
  552MOL0     O76062   4.950   5.099   6.442  0.7296  0.0695  0.1541
  552MOL0     C76063   4.821   5.146   6.452  0.2686  0.5853  0.9461
  552MOL0     C76064   4.775   5.242   6.545 -0.0319 -0.1462 -0.2833
  552MOL0     C76065   4.649   5.281   6.563 -0.4422  1.3684  0.0118
  552MOL0     C76066   4.612   5.389   6.661 -0.2688  0.4158 -0.1886
  552MOL0     C76067   4.555   5.232   6.469 -0.5298 -0.5614 -0.6147
  552MOL0     C76068   4.414   5.262   6.474  0.1862  0.2447 -0.0712
  552MOL0     O76069   4.339   5.158   6.452  0.7745  0.0477  0.0864
  552MOL0     C76070   4.203   5.158   6.464  0.6458 -0.4628  0.8924
  552MOL0     C76071   4.125   5.198   6.575  0.2168  0.4382  0.0515
  552MOL0     C76072   3.989   5.170   6.576 -0.3908  0.5116 -0.4107
  552MOL0     C76073   3.925   5.104   6.467  0.1297  0.0887 -0.0204
  552MOL0     O76074   3.781   5.090   6.448  0.0027 -0.4425 -0.0607
  552MOL0     C76075   3.691   5.190   6.495 -0.5669  0.0991 -0.5122
  552MOL0     C76076   3.555   5.136   6.459 -0.3016 -0.5374 -0.4026
  552MOL0     C76077   3.442   5.228   6.512  0.1498  0.0832 -0.9019
  552MOL0     C76078   3.302   5.199   6.444  0.1729  0.4176  0.0762
  552MOL0     C76079   3.279   5.276   6.307 -0.9862  0.9173  0.3089
  552MOL0     C76080   3.141   5.248   6.264 -0.6577  0.8060  0.1713
  552MOL0     C76081   3.110   5.315   6.129  0.1413  0.7069 -0.0231
  552MOL0     C76082   3.099   5.210   6.016 -0.4087  0.4279 -0.8140
  552MOL0    Cl76083   3.242   5.105   6.003  0.3832  0.2660 -0.0885
  552MOL0     C76084   4.004   5.066   6.359 -0.2980  0.3385  0.4349
  552MOL0     C76085   4.139   5.093   6.356 -0.1195 -0.0874 -0.2240
  552MOL0     O76086   4.372   5.372   6.493  0.4579 -0.7363 -0.1447
  552MOL0     C76087   4.600   5.141   6.371  0.5156 -0.4997  0.5058
  552MOL0     C76088   4.727   5.094   6.369  0.2411  0.1624  0.6369
  552MOL0     N76089   5.409   5.350   6.197 -0.1775 -0.7172 -0.2951
  552MOL0     N76090   5.522   5.409   6.157  0.0846 -0.0685 -0.2135
  552MOL0     C76091   6.351   5.190   6.011 -0.9279  0.0021  0.0620
  552MOL0     C76092   6.227   5.132   6.019 -0.1103  0.9261 -0.4063
  552MOL0     C76093   5.858   4.977   6.256 -0.1411  0.6695 -0.1992
  552MOL0     C76094   5.789   4.951   6.140  0.5915  0.3166  0.2592
  552MOL0     C76095   5.662   4.897   6.143  0.8769  0.1190 -0.5154
  552MOL0     C76096   5.602   4.860   6.266 -0.1012  0.7342  0.2878
  552MOL0     O76097   5.486   4.794   6.256  0.6835 -0.3067 -0.0775
  552MOL0     C76098   5.417   4.750   6.378 -0.3964 -0.2369  1.1458
  552MOL0     C76099   5.275   4.702   6.341  0.2987  0.4584 -0.3407
  552MOL0     C76100   5.212   4.781   6.229  0.3974  0.3610 -0.0484
  552MOL0     C76101   5.072   4.724   6.206  0.1943  0.7896 -0.5978
  552MOL0     C76102   4.981   4.748   6.319 -0.8615 -0.2836 -0.3617
  552MOL0     C76103   4.908   4.793   6.401  0.0615 -0.4682  0.0208
  552MOL0     C76104   5.668   4.886   6.384 -0.3063 -0.0846 -0.5409
  552MOL0     C76105   5.797   4.946   6.382  1.1850  0.1136 -0.1835
  552MOL0     C76106   5.863   4.963   6.516  0.0045 -0.0638 -0.9842
  552MOL0     H76107   6.266   4.977   6.309 -1.8652  0.1216 -1.5506
  552MOL0     H76108   6.490   5.110   6.309 -0.7843 -0.8029 -0.5883
  552MOL0     H76109   6.421   5.437   6.021 -2.4675 -0.4339  2.1195
  552MOL0     H76110   6.603   5.463   6.023 -0.2836  0.6171  1.0594
  552MOL0     H76111   6.583   5.543   6.255 -2.8621 -0.5085  2.9700
  552MOL0     H76112   6.479   5.624   6.144 -0.1978  1.1379  2.3879
  552MOL0     H76113   6.384   5.414   6.335 -0.7802 -2.1796 -2.2289
  552MOL0     H76114   6.350   5.591   6.334  1.4538  0.6771  1.0251
  552MOL0     H76115   6.217   5.593   6.139  2.8580 -0.7984 -3.0057
  552MOL0     H76116   6.239   5.425   6.106 -2.3552 -2.7314  2.0465
  552MOL0     H76117   6.098   5.520   6.359  1.9219 -0.9423  0.3235
  552MOL0     H76118   6.135   5.352   6.310 -0.2350  0.3203  2.1998
  552MOL0     H76119   5.998   5.544   6.117  0.8675 -0.1674 -0.0511
  552MOL0     H76120   6.032   5.384   6.099  1.7160  1.9486 -0.9682
  552MOL0     H76121   5.807   5.488   6.292 -0.5405  1.1139 -2.4675
  552MOL0     H76122   5.887   5.347   6.327  1.3451  1.4301  0.3070
  552MOL0     H76123   5.748   5.451   6.070 -1.0156 -2.1455 -1.5704
  552MOL0     H76124   5.795   5.281   6.084  2.8131 -0.3251  0.9561
  552MOL0     H76125   5.650   5.151   6.313 -0.1049 -1.1410 -0.8530
  552MOL0     H76126   5.443   5.145   6.455 -1.4409 -1.5390  0.1912
  552MOL0     H76127   5.403   5.038   6.321  1.3430 -0.6522  0.6169
  552MOL0     H76128   5.238   5.281   6.412  0.3044 -0.0199 -0.5736
  552MOL0     H76129   5.198   5.154   6.283 -3.3568  1.9451  0.5175
  552MOL0     H76130   5.183   4.988   6.501  2.2967 -1.0673  5.3377
  552MOL0     H76131   5.250   5.123   6.588 -0.8837  2.7665 -0.7278
  552MOL0     H76132   5.012   5.077   6.641 -0.7783  0.1229  0.2755
  552MOL0     H76133   5.037   5.242   6.577  1.2046  1.3433 -2.7702
  552MOL0     H76134   4.846   5.281   6.616 -2.4552 -0.2754  2.3993
  552MOL0     H76135   4.679   5.395   6.748 -0.8214  0.4913  0.2423
  552MOL0     H76136   4.510   5.381   6.699  0.0177  4.1935  1.9322
  552MOL0     H76137   4.607   5.492   6.622 -1.4617  0.7468  0.7749
  552MOL0     H76138   4.174   5.244   6.660 -0.2996 -0.1694  0.6954
  552MOL0     H76139   3.932   5.198   6.664 -1.2790 -0.3268 -0.7026
  552MOL0     H76140   3.695   5.198   6.604  2.3364  1.5881 -0.6130
  552MOL0     H76141   3.699   5.291   6.453  0.5091 -0.4298 -1.6439
  552MOL0     H76142   3.544   5.130   6.351  1.6399 -0.7026 -0.6254
  552MOL0     H76143   3.547   5.039   6.507  1.2225  1.3161  4.2169
  552MOL0     H76144   3.459   5.336   6.504 -1.6936  0.4514 -0.1945
  552MOL0     H76145   3.432   5.209   6.619 -0.6683  0.4839 -0.8984
  552MOL0     H76146   3.213   5.224   6.501  0.9470 -0.6380  1.8447
  552MOL0     H76147   3.309   5.090   6.433  2.8264  0.6406 -1.3045
  552MOL0     H76148   3.294   5.382   6.327  0.7203  0.0478  4.9740
  552MOL0     H76149   3.354   5.250   6.231 -2.2984  3.9292 -2.2564
  552MOL0     H76150   3.075   5.284   6.343 -2.5965  4.0431 -2.6673
  552MOL0     H76151   3.106   5.145   6.258 -1.9358  1.1222  1.7264
  552MOL0     H76152   3.193   5.378   6.098 -1.8766  3.0886 -0.8578
  552MOL0     H76153   3.019   5.374   6.134 -1.0800 -0.9875 -1.0167
  552MOL0     H76154   3.075   5.264   5.924 -0.0886 -0.4754 -1.4380
  552MOL0     H76155   3.019   5.139   6.038 -0.5815  0.5591 -1.0143
  552MOL0     H76156   3.945   5.028   6.277  0.6019  2.8121 -1.4722
  552MOL0     H76157   4.194   5.065   6.267 -1.6181 -0.9468 -0.9108
  552MOL0     H76158   4.540   5.095   6.293  1.6371  1.1707 -1.4180
  552MOL0     H76159   4.755   5.027   6.289 -1.5542  0.3779 -0.2175
  552MOL0     H76160   6.371   5.232   5.913 -1.7964 -1.3314 -0.7199
  552MOL0     H76161   6.148   5.113   5.947 -0.9671 -0.9277  0.9191
  552MOL0     H76162   5.828   4.981   6.043  0.2926 -0.9981 -0.2900
  552MOL0     H76163   5.598   4.876   6.058 -1.7400 -1.4908  1.7078
  552MOL0     H76164   5.474   4.672   6.429  2.0691 -0.1650 -1.3016
  552MOL0     H76165   5.401   4.827   6.454  1.9706  0.6160  0.8301
  552MOL0     H76166   5.208   4.711   6.427  0.9736 -0.0543  0.2441
  552MOL0     H76167   5.285   4.599   6.306  0.8171  1.0826 -2.1883
  552MOL0     H76168   5.204   4.888   6.247 -0.2038  0.5592 -1.3635
  552MOL0     H76169   5.263   4.780   6.131 -0.9795  2.0248 -0.8326
  552MOL0     H76170   5.084   4.617   6.187  1.4213  0.1129  3.1400
  552MOL0     H76171   5.030   4.770   6.116  1.6786  2.0148 -0.7040
  552MOL0     H76172   4.847   4.839   6.477 -1.5829  1.6239 -2.3965
  552MOL0     H76173   5.638   4.854   6.483  2.5949  1.4082  0.9694
  552MOL0     H76174   5.969   4.941   6.503  0.5761  1.5482  0.6487
  552MOL0     H76175   5.858   5.062   6.561 -5.4657 -1.8421  3.5267
  552MOL0     H76176   5.820   4.901   6.596 -0.1633 -0.0318 -1.0479
  553MOL0     O76177  10.301  10.625   5.412  0.0575 -0.3143 -0.5646
  553MOL0     C76178  10.265  10.584   5.307 -0.7583  0.1272  0.4069
  553MOL0     O76179  10.331  10.609   5.182 -0.2844  0.2022 -0.2299
  553MOL0     C76180  10.395  10.733   5.186 -0.4003  1.1850  0.3397
  553MOL0     C76181  10.331  10.855   5.153 -0.5732 -0.8023 -0.3003
  553MOL0     C76182  10.402  10.974   5.147 -0.1528  0.2857  0.8313
  553MOL0     C76183  10.531  10.979   5.187 -0.0199  0.1441  0.0763
  553MOL0     O76184  10.587  11.102   5.175  0.8952  0.3184  0.1415
  553MOL0     C76185  10.720  11.116   5.201 -0.3453  0.1375 -0.4655
  553MOL0     C76186  10.776  11.247   5.144  0.3386  0.0022  0.3771
  553MOL0     C76187  10.895  11.289   5.224 -0.6373  0.4422 -0.2989
  553MOL0     C76188  10.964  11.407   5.150 -0.6070 -0.5016 -0.3559
  553MOL0     C76189  11.117  11.418   5.201 -0.0461  0.7208 -0.1324
  553MOL0     C76190  11.171  11.543   5.141 -0.4821  0.8567 -0.3427
  553MOL0     C76191  11.220  11.540   5.001  0.5787  0.5356  0.5841
  553MOL0     C76192  11.226  11.681   4.933 -0.5732  0.3401 -0.6047
  553MOL0     N76193  11.318  11.676   4.827  0.0705  0.9114 -0.0137
  553MOL0     C76194  11.439  11.745   4.819 -0.8515  1.1133  0.0233
  553MOL0     C76195  11.468  11.728   4.682 -0.6772  0.0125 -0.1230
  553MOL0     C76196  11.594  11.782   4.613 -0.5702 -0.0993 -0.1845
  553MOL0     C76197  11.716  11.755   4.709 -1.2849 -0.7668  0.3598
  553MOL0     C76198  11.838  11.823   4.638  0.3370 -0.1839  0.3153
  553MOL0     C76199  11.970  11.759   4.678 -0.0858 -1.0527 -0.2356
  553MOL0     O76200  12.003  11.785   4.816  0.1745  0.0139 -0.3684
  553MOL0     C76201  12.132  11.757   4.852 -0.2498  0.5099 -0.6417
  553MOL0     C76202  12.229  11.685   4.775  0.1102  0.8431 -0.5221
  553MOL0     C76203  12.356  11.639   4.826 -0.4314 -0.0781 -0.1746
  553MOL0     C76204  12.441  11.568   4.726 -0.2548 -0.9120 -0.8383
  553MOL0     C76205  12.394  11.676   4.964 -0.2000 -0.1309  0.2037
  553MOL0     C76206  12.521  11.628   5.025  0.0382 -0.3096  0.4815
  553MOL0     O76207  12.534  11.670   5.155  0.3699 -0.6329 -0.6227
  553MOL0     C76208  12.589  11.578   5.232 -0.6176  0.5122 -0.5819
  553MOL0     C76209  12.519  11.516   5.341  0.1821 -0.6316  1.0547
  553MOL0     C76210  12.582  11.423   5.417  0.2118 -0.8182 -0.3527
  553MOL0     C76211  12.714  11.383   5.387 -1.0839  0.1704 -0.5071
  553MOL0     O76212  12.761  11.288   5.475 -0.1052 -0.1993 -0.4997
  553MOL0     C76213  12.884  11.318   5.550  0.1261 -0.0216 -0.1325
  553MOL0     C76214  12.938  11.216   5.646 -0.3709  0.6515  0.9536
  553MOL0     C76215  12.902  11.081   5.584  0.1813 -0.3941 -0.0737
  553MOL0     C76216  12.977  10.964   5.663  0.3503 -0.5666  0.1863
  553MOL0     C76217  12.938  10.826   5.600  0.5599 -0.9393  0.9817
  553MOL0     C76218  13.040  10.707   5.626 -0.4377 -0.0031  0.5300
  553MOL0     C76219  13.012  10.581   5.546 -0.4055 -0.2233 -0.3581
  553MOL0     C76220  13.103  10.464   5.587  0.5109 -1.0147 -0.3259
  553MOL0    Cl76221  13.090  10.325   5.469  0.2380 -0.2873 -0.0371
  553MOL0     C76222  12.794  11.450   5.293 -0.8443  0.0424 -0.1035
  553MOL0     C76223  12.729  11.555   5.216  0.9242  0.5444 -0.6457
  553MOL0     O76224  12.596  11.550   4.967  0.3273  0.5598 -0.1128
  553MOL0     C76225  12.297  11.754   5.030  0.4323 -0.0155 -0.0850
  553MOL0     C76226  12.166  11.789   4.979  0.5692 -1.2274 -0.2217
  553MOL0     N76227  11.379  11.645   4.622 -1.1212  0.1547 -0.3204
  553MOL0     N76228  11.283  11.619   4.703  0.8677 -0.3739  0.1988
  553MOL0     C76229  10.583  10.866   5.254 -0.2323 -0.1047  0.7949
  553MOL0     C76230  10.528  10.739   5.238  0.2457  0.2603  0.3708
  553MOL0     C76231  10.156  10.481   5.293  0.7364  0.1801 -0.6762
  553MOL0     C76232  10.029  10.518   5.341 -0.1520  0.4961  0.6885
  553MOL0     C76233   9.919  10.427   5.341 -0.6224 -0.1539 -0.4586
  553MOL0     C76234   9.936  10.301   5.290  0.6105  0.0575  0.4065
  553MOL0     O76235   9.832  10.217   5.288 -0.4410  0.7972 -0.9826
  553MOL0     C76236   9.775  10.169   5.415  0.1578  0.2705  0.4394
  553MOL0     C76237   9.864  10.079   5.495 -0.1133  0.1880  0.2536
  553MOL0     C76238   9.930   9.961   5.405 -0.1928  0.1940 -0.0762
  553MOL0     C76239   9.821   9.851   5.360  0.0377 -1.0154 -0.4396
  553MOL0     C76240   9.886   9.743   5.285  0.4199  0.3621 -0.8779
  553MOL0     C76241   9.933   9.655   5.222 -0.9259 -0.3701 -0.1411
  553MOL0     C76242  10.063  10.265   5.237 -0.4145  0.2976  0.2815
  553MOL0     C76243  10.173  10.356   5.243 -0.3672 -0.2443  0.1876
  553MOL0     C76244  10.314  10.302   5.201 -0.2704 -0.2949 -0.2974
  553MOL0     H76245  10.225  10.851   5.131 -0.6927 -1.2582  0.3320
  553MOL0     H76246  10.357  11.068   5.118 -1.6407 -0.7609 -0.4395
  553MOL0     H76247  10.778  11.031   5.162  1.8514  2.5356 -2.8449
  553MOL0     H76248  10.720  11.124   5.310 -2.5591  1.9593 -0.5416
  553MOL0     H76249  10.798  11.226   5.039 -1.3421 -3.6786  0.5852
  553MOL0     H76250  10.688  11.311   5.156 -0.6423 -1.5643  1.9141
  553MOL0     H76251  10.857  11.314   5.324 -2.7643  0.1471 -0.9791
  553MOL0     H76252  10.959  11.201   5.229 -3.1390 -1.3871  3.0513
  553MOL0     H76253  10.973  11.380   5.044  2.3456  0.6636 -0.4949
  553MOL0     H76254  10.913  11.503   5.161  0.9354  0.2266  0.8781
  553MOL0     H76255  11.170  11.330   5.165 -2.6213 -0.2354 -1.9103
  553MOL0     H76256  11.125  11.424   5.310  0.5834  2.6222 -0.2337
  553MOL0     H76257  11.102  11.627   5.152  0.3561  1.4633  0.5248
  553MOL0     H76258  11.243  11.565   5.221 -0.6797 -4.1225  1.5972
  553MOL0     H76259  11.145  11.495   4.935 -0.6047  5.0770 -1.5812
  553MOL0     H76260  11.314  11.485   5.002 -0.2601 -1.0411  3.2028
  553MOL0     H76261  11.136  11.722   4.886 -0.6613  2.9984  1.6103
  553MOL0     H76262  11.257  11.756   5.006  2.1490 -0.7992 -0.4915
  553MOL0     H76263  11.498  11.787   4.900  0.3395 -0.3101 -0.0664
  553MOL0     H76264  11.591  11.891   4.597 -0.1016 -0.0675 -0.0522
  553MOL0     H76265  11.610  11.737   4.515 -3.2486 -0.6635 -0.4342
  553MOL0     H76266  11.694  11.810   4.801 -0.6558  1.9224 -0.9993
  553MOL0     H76267  11.730  11.648   4.723 -2.5190 -0.6280  3.2875
  553MOL0     H76268  11.825  11.792   4.534  1.4065 -1.6449  0.5837
  553MOL0     H76269  11.825  11.931   4.642  2.3059  0.0675  0.4793
  553MOL0     H76270  11.961  11.651   4.665 -2.0377 -1.0946  1.0373
  553MOL0     H76271  12.046  11.805   4.613 -0.1910 -1.1072 -0.3980
  553MOL0     H76272  12.206  11.658   4.672 -0.1499 -2.4975  0.2891
  553MOL0     H76273  12.462  11.466   4.761  0.8426 -0.5011 -0.2376
  553MOL0     H76274  12.537  11.616   4.704 -0.3459  0.2271  1.0772
  553MOL0     H76275  12.382  11.552   4.635 -2.2601 -1.8016  0.5469
  553MOL0     H76276  12.411  11.520   5.357  0.0668  0.7287  0.1035
  553MOL0     H76277  12.531  11.381   5.503  2.9530 -2.1664  0.7332
  553MOL0     H76278  12.961  11.333   5.473  0.1299 -0.1576 -0.1553
  553MOL0     H76279  12.889  11.417   5.597  0.6941  0.6937 -1.6190
  553MOL0     H76280  13.047  11.224   5.652 -0.0643  0.4338 -2.4643
  553MOL0     H76281  12.907  11.225   5.750 -1.4723 -1.1842  0.8388
  553MOL0     H76282  12.928  11.068   5.479  1.9449 -4.2124  0.6617
  553MOL0     H76283  12.793  11.069   5.582  0.1857 -0.3496 -1.2546
  553MOL0     H76284  12.947  10.966   5.768  0.3694  0.0589  0.1811
  553MOL0     H76285  13.084  10.982   5.654  0.5826 -1.0496  1.7151
  553MOL0     H76286  12.834  10.794   5.611 -0.0957  0.3350 -1.0157
  553MOL0     H76287  12.938  10.839   5.491  1.0659 -1.4469  0.9134
  553MOL0     H76288  13.035  10.694   5.735 -2.2441  2.2824  0.8185
  553MOL0     H76289  13.143  10.727   5.596 -0.4559 -1.8425 -0.9159
  553MOL0     H76290  13.019  10.603   5.439  0.0735 -0.3509 -0.3534
  553MOL0     H76291  12.906  10.554   5.552 -0.5517  0.1099 -1.2567
  553MOL0     H76292  13.052  10.427   5.677  0.4774  1.4658  0.7566
  553MOL0     H76293  13.206  10.491   5.611  0.8259 -3.1197  1.0261
  553MOL0     H76294  12.891  11.406   5.273 -1.7493 -0.4162 -4.5035
  553MOL0     H76295  12.784  11.607   5.138 -0.8007  2.0982 -0.8871
  553MOL0     H76296  12.318  11.780   5.134  0.5471  1.7905 -0.5267
  553MOL0     H76297  12.110  11.859   5.040  2.3512 -0.8515  1.0618
  553MOL0     H76298  10.679  10.882   5.302 -1.4840  4.5586  2.2926
  553MOL0     H76299  10.585  10.648   5.258  1.2529  0.7251 -0.3315
  553MOL0     H76300  10.021  10.614   5.390 -0.8314  0.0449  1.4821
  553MOL0     H76301   9.827  10.461   5.389 -2.2960  1.0482 -4.1763
  553MOL0     H76302   9.762  10.263   5.469  2.6196  2.5408 -2.5394
  553MOL0     H76303   9.679  10.118   5.405 -1.3188  2.4618  2.4695
  553MOL0     H76304   9.804  10.032   5.573  2.0489 -0.8708  1.3536
  553MOL0     H76305   9.932  10.146   5.547 -0.3510  1.8951 -1.4981
  553MOL0     H76306   9.987   9.995   5.318  5.2147 -3.3327  1.5751
  553MOL0     H76307  10.000   9.912   5.474 -0.8408 -1.2927 -0.4475
  553MOL0     H76308   9.752   9.903   5.293  0.5852  2.1729  1.2407
  553MOL0     H76309   9.763   9.814   5.446 -2.0476  0.7712 -0.9796
  553MOL0     H76310   9.988   9.581   5.167 -2.8097 -1.4602 -0.6604
  553MOL0     H76311  10.073  10.164   5.201  2.3989  0.5530  0.1704
  553MOL0     H76312  10.391  10.340   5.269 -0.3588 -0.1973 -0.2527
  553MOL0     H76313  10.310  10.194   5.183 -1.7098 -0.2917 -0.0837
  553MOL0     H76314  10.341  10.361   5.113 -1.6321  2.8952  1.2443
  554MOL0     O76315  10.765   8.960  10.990 -0.2793  0.9287  0.3286
  554MOL0     C76316  10.757   9.058  11.065 -0.8187 -0.6505 -1.3271
  554MOL0     O76317  10.651   9.142  11.068 -0.3382 -0.3450  0.3390
  554MOL0     C76318  10.538   9.103  11.006  0.2151 -0.6870 -0.0540
  554MOL0     C76319  10.480   9.188  10.916  1.1886 -0.1581  0.0160
  554MOL0     C76320  10.351   9.156  10.868  0.5773  0.3700 -0.4916
  554MOL0     C76321  10.286   9.039  10.908 -0.4281  0.4962 -0.8135
  554MOL0     O76322  10.163   9.014  10.856  0.4096  0.0527 -0.3291
  554MOL0     C76323  10.060   8.967  10.956 -0.6487 -0.7233  0.8435
  554MOL0     C76324   9.915   8.980  10.898  0.6489 -0.5291  0.5303
  554MOL0     C76325   9.847   9.120  10.894 -0.4641 -0.1747 -0.1092
  554MOL0     C76326   9.881   9.197  11.022  0.1857  0.5952  0.1427
  554MOL0     C76327   9.770   9.303  11.039  1.2284  0.4175 -0.3515
  554MOL0     C76328   9.800   9.389  11.155 -0.2633 -0.1115  0.1088
  554MOL0     C76329   9.757   9.335  11.291  0.0912 -0.5430 -0.4871
  554MOL0     C76330   9.714   9.441  11.383 -0.3815 -0.0802 -0.6607
  554MOL0     N76331   9.690   9.398  11.519  0.3631  0.8434  0.5354
  554MOL0     C76332   9.620   9.473  11.609  0.1215 -0.5249  0.3403
  554MOL0     C76333   9.601   9.395  11.719 -0.5301  0.3640  0.1426
  554MOL0     C76334   9.561   9.432  11.856 -0.8884 -0.6811 -0.0139
  554MOL0     C76335   9.439   9.523  11.862 -0.4734 -0.3643  0.1306
  554MOL0     C76336   9.383   9.528  12.003 -0.3184  0.0221 -0.2404
  554MOL0     C76337   9.286   9.404  12.027 -0.3267  0.2389  0.3236
  554MOL0     O76338   9.209   9.442  12.139  0.5919 -0.5033 -0.5098
  554MOL0     C76339   9.139   9.336  12.196  0.0525 -0.5112 -0.8802
  554MOL0     C76340   9.144   9.197  12.163  0.1952 -0.0956 -0.1851
  554MOL0     C76341   9.049   9.104  12.202  0.4204  0.3372  0.6469
  554MOL0     C76342   9.052   8.968  12.135  0.1487  0.3586 -0.7722
  554MOL0     C76343   8.959   9.140  12.308 -0.0528  0.7930 -0.0493
  554MOL0     C76344   8.842   9.061  12.355  0.2060 -0.5074 -0.6267
  554MOL0     O76345   8.845   8.928  12.376  0.4074  0.6990 -0.1085
  554MOL0     C76346   8.947   8.862  12.429  0.1413  0.2491  0.1166
  554MOL0     C76347   9.039   8.921  12.519  0.1923  0.2422  0.5505
  554MOL0     C76348   9.143   8.849  12.578  0.6900  0.1841  0.8705
  554MOL0     C76349   9.160   8.711  12.546  0.4272  0.0474  0.3397
  554MOL0     O76350   9.263   8.626  12.591 -0.1435 -1.0870  0.0483
  554MOL0     C76351   9.314   8.650  12.723  0.6422  0.5770  0.4158
  554MOL0     C76352   9.421   8.556  12.767  0.1317 -0.4397 -0.2316
  554MOL0     C76353   9.501   8.627  12.887  0.4742  0.1964  0.2137
  554MOL0     C76354   9.615   8.541  12.928  0.2666  0.4531 -0.4923
  554MOL0     C76355   9.681   8.584  13.066  0.3942  0.0474 -0.5352
  554MOL0     C76356   9.804   8.495  13.092 -0.4022  0.5799 -0.6642
  554MOL0     C76357   9.856   8.520  13.232 -0.0899  0.7622 -0.3635
  554MOL0     C76358   9.987   8.435  13.249  0.6187 -0.3818 -0.4253
  554MOL0    Cl76359  10.055   8.456  13.402  0.2768 -0.8918 -0.2580
  554MOL0     C76360   9.068   8.651  12.462  0.3992  0.2012 -0.6556
  554MOL0     C76361   8.959   8.727  12.408 -0.6506 -0.2355  0.4102
  554MOL0     O76362   8.742   9.122  12.392 -0.4724  0.0825 -0.5874
  554MOL0     C76363   8.959   9.270  12.352 -0.6856  0.3248 -0.7997
  554MOL0     C76364   9.045   9.361  12.298 -0.7734  1.0718  0.3616
  554MOL0     N76365   9.666   9.271  11.693  0.0605 -0.0692 -1.0490
  554MOL0     N76366   9.709   9.273  11.575  0.1030  0.0461  0.6562
  554MOL0     C76367  10.352   8.949  10.994  0.2691 -0.1495  0.0692
  554MOL0     C76368  10.476   8.985  11.049  0.0415  0.4144  0.4356
  554MOL0     C76369  10.874   9.102  11.155 -0.1242 -0.0384  0.8033
  554MOL0     C76370  10.852   9.195  11.255  0.1800  0.0483  0.8651
  554MOL0     C76371  10.951   9.241  11.334  0.4067  0.7360  0.5009
  554MOL0     C76372  11.084   9.199  11.317 -0.3903  0.8113 -0.1358
  554MOL0     O76373  11.158   9.282  11.403  0.2948 -0.5925 -0.3541
  554MOL0     C76374  11.282   9.246  11.449 -0.4733 -0.0054  0.1814
  554MOL0     C76375  11.384   9.355  11.442 -0.9419  0.7611  0.5049
  554MOL0     C76376  11.423   9.404  11.299  0.1778  0.5608  0.2327
  554MOL0     C76377  11.505   9.306  11.222  0.6303  0.5732 -0.3383
  554MOL0     C76378  11.540   9.364  11.087  0.6705 -0.5543  0.0487
  554MOL0     C76379  11.565   9.410  10.981 -0.0990 -0.1526 -0.2003
  554MOL0     C76380  11.114   9.102  11.222  0.3312  0.6429 -0.9547
  554MOL0     C76381  11.011   9.065  11.128 -0.8484  0.1674  0.9076
  554MOL0     C76382  11.056   8.957  11.028 -0.0444 -0.7174 -0.4977
  554MOL0     H76383  10.535   9.274  10.879 -1.5608  1.2067 -1.1738
  554MOL0     H76384  10.296   9.222  10.803  0.9180 -0.1402 -1.3178
  554MOL0     H76385  10.081   9.018  11.051  2.4778  0.5799 -0.4332
  554MOL0     H76386  10.072   8.862  10.983 -1.0389 -0.3612  2.5555
  554MOL0     H76387   9.921   8.934  10.799  1.6135 -0.0595  0.3656
  554MOL0     H76388   9.854   8.913  10.959  1.2320 -2.3347 -0.7452
  554MOL0     H76389   9.868   9.174  10.801 -1.1084  1.8694  0.8806
  554MOL0     H76390   9.740   9.097  10.896 -0.3702 -0.5454  1.0943
  554MOL0     H76391   9.886   9.135  11.112  1.1944  1.3806  0.6439
  554MOL0     H76392   9.982   9.238  11.025  2.2257 -3.8908  0.5943
  554MOL0     H76393   9.675   9.257  11.069  0.7292  0.6861 -1.4603
  554MOL0     H76394   9.762   9.362  10.947  2.0935  0.9513 -0.0905
  554MOL0     H76395   9.909   9.399  11.163 -0.3052 -0.3502  1.0905
  554MOL0     H76396   9.753   9.486  11.137 -2.2610  0.1335  5.1878
  554MOL0     H76397   9.836   9.280  11.343 -2.4858 -1.4578  2.8590
  554MOL0     H76398   9.681   9.258  11.278  0.0413 -0.3664 -1.2737
  554MOL0     H76399   9.783   9.526  11.373 -2.0180  1.5404  0.8894
  554MOL0     H76400   9.617   9.476  11.346 -0.8696 -2.5375 -1.8930
  554MOL0     H76401   9.594   9.578  11.608  0.3037 -0.4166  2.2647
  554MOL0     H76402   9.643   9.487  11.904 -2.1488  0.8075  0.4902
  554MOL0     H76403   9.552   9.339  11.913  0.7858  0.3188  2.0117
  554MOL0     H76404   9.476   9.621  11.829 -0.5573  0.2950  1.8994
  554MOL0     H76405   9.361   9.495  11.791 -0.9191  1.7247 -0.2854
  554MOL0     H76406   9.463   9.520  12.078  0.0618  2.0297 -0.3838
  554MOL0     H76407   9.321   9.616  12.023 -1.5476 -1.4496  3.5186
  554MOL0     H76408   9.227   9.372  11.940 -1.3044  1.4982  0.4869
  554MOL0     H76409   9.355   9.325  12.059  2.0325  2.0347 -0.1338
  554MOL0     H76410   9.206   9.177  12.077  2.1773  2.4188  0.5274
  554MOL0     H76411   9.121   8.962  12.051  1.2560 -2.7577  0.2100
  554MOL0     H76412   8.952   8.930  12.112  0.1224 -0.2466  0.2624
  554MOL0     H76413   9.101   8.906  12.211  0.5615  1.4021 -0.1661
  554MOL0     H76414   9.030   9.027  12.536  0.3428  0.2366  0.6705
  554MOL0     H76415   9.194   8.902  12.658  1.9192  1.5224 -0.7426
  554MOL0     H76416   9.353   8.752  12.740  1.7737 -0.0169  1.6099
  554MOL0     H76417   9.233   8.635  12.796 -1.4069  1.2376 -1.6039
  554MOL0     H76418   9.383   8.463  12.810  0.2090  1.5237  4.7990
  554MOL0     H76419   9.486   8.546  12.680 -2.9188  2.2211 -3.1171
  554MOL0     H76420   9.437   8.662  12.968  0.7268 -0.8638  0.8939
  554MOL0     H76421   9.545   8.721  12.854  1.2417 -0.2697 -0.1147
  554MOL0     H76422   9.691   8.552  12.850 -1.6947  1.8688 -2.3278
  554MOL0     H76423   9.593   8.434  12.933 -1.1301  0.7864  1.8195
  554MOL0     H76424   9.716   8.687  13.055  4.6404 -0.8215  2.4877
  554MOL0     H76425   9.600   8.577  13.140 -1.7640  1.7770 -2.5550
  554MOL0     H76426   9.880   8.530  13.022 -1.0136 -1.0427 -2.2109
  554MOL0     H76427   9.783   8.389  13.080 -0.3439  0.4928 -0.0203
  554MOL0     H76428   9.785   8.485  13.308 -1.2362 -1.2497 -2.2559
  554MOL0     H76429   9.874   8.628  13.239 -0.3217  0.8619 -1.2399
  554MOL0     H76430  10.060   8.482  13.183 -1.2730  2.9706 -0.3643
  554MOL0     H76431   9.960   8.330  13.233 -0.2771 -0.1171 -0.7404
  554MOL0     H76432   9.079   8.546  12.439  0.3926  0.1477 -0.4179
  554MOL0     H76433   8.905   8.682  12.325  0.9715  0.7498 -1.2605
  554MOL0     H76434   8.892   9.310  12.428  0.6030 -0.4251  0.8035
  554MOL0     H76435   9.051   9.463  12.337  0.0992  0.1204  3.0005
  554MOL0     H76436  10.302   8.853  11.006 -0.7362  0.4894  1.2405
  554MOL0     H76437  10.530   8.914  11.110 -2.0754 -1.1761  0.5496
  554MOL0     H76438  10.753   9.237  11.264 -1.1873 -2.2192 -1.9488
  554MOL0     H76439  10.930   9.320  11.405  0.5397  0.3226  1.0061
  554MOL0     H76440  11.274   9.224  11.556  1.5366 -1.0454  0.1698
  554MOL0     H76441  11.318   9.156  11.399  0.7248 -0.6312  2.0676
  554MOL0     H76442  11.476   9.328  11.493 -0.1264 -1.8687 -2.0825
  554MOL0     H76443  11.339   9.444  11.486 -0.0437  1.6881 -0.4224
  554MOL0     H76444  11.327   9.425  11.251 -0.1774  0.9975  1.1120
  554MOL0     H76445  11.479   9.498  11.301 -1.5522  1.6197  0.5569
  554MOL0     H76446  11.454   9.210  11.208 -0.3989  1.2715 -1.6957
  554MOL0     H76447  11.596   9.286  11.280  0.4144  0.8869  0.1144
  554MOL0     H76448  11.585   9.477  10.900  0.3711 -0.0084  0.0321
  554MOL0     H76449  11.215   9.061  11.226  0.7708  1.7747 -0.0292
  554MOL0     H76450  10.985   8.874  11.028 -0.6484 -0.2049 -0.7273
  554MOL0     H76451  11.057   9.009  10.932 -1.5598  2.4423  1.0434
  554MOL0     H76452  11.158   8.922  11.047  1.6517  4.5969  2.1593
  555MOL0     O76453  10.376   7.673   5.520 -0.3642 -0.0214  0.6357
  555MOL0     C76454  10.285   7.682   5.596 -0.0969 -0.3808 -1.4681
  555MOL0     O76455  10.276   7.606   5.715 -0.0889 -0.0557  0.2325
  555MOL0     C76456  10.379   7.514   5.737  0.3211  0.8213 -0.1661
  555MOL0     C76457  10.478   7.549   5.823 -0.2143  0.1118 -0.3341
  555MOL0     C76458  10.588   7.466   5.847 -0.7994 -0.3644 -0.9140
  555MOL0     C76459  10.592   7.337   5.779  0.3035  1.2126 -0.3814
  555MOL0     O76460  10.698   7.249   5.787 -0.8073 -0.2806 -0.3559
  555MOL0     C76461  10.782   7.225   5.670  0.3899 -0.1007  1.1745
  555MOL0     C76462  10.882   7.107   5.701  0.4911  0.0500  0.0135
  555MOL0     C76463  10.940   7.067   5.564  0.5446  0.6915 -0.7312
  555MOL0     C76464  11.020   6.935   5.572  0.2397 -0.5211  0.8742
  555MOL0     C76465  11.076   6.907   5.432  0.5131 -0.8452  0.5733
  555MOL0     C76466  11.129   6.763   5.416 -0.7738 -0.0063 -0.4121
  555MOL0     C76467  11.240   6.758   5.309  1.1176  0.0839 -0.4830
  555MOL0     C76468  11.324   6.631   5.323 -0.2980 -0.4449  0.3764
  555MOL0     N76469  11.399   6.638   5.446 -1.0164  0.1866  0.6428
  555MOL0     C76470  11.489   6.729   5.482 -0.3939  0.0987  1.0595
  555MOL0     C76471  11.528   6.682   5.599 -1.3743 -0.8214 -0.6843
  555MOL0     C76472  11.628   6.751   5.684  0.8612  0.5826  0.3154
  555MOL0     C76473  11.576   6.854   5.785 -0.8151  0.5062  0.1225
  555MOL0     C76474  11.460   6.942   5.743 -0.3925  0.9617  0.7213
  555MOL0     C76475  11.421   7.050   5.839 -0.2478  0.0378 -0.3741
  555MOL0     O76476  11.324   7.115   5.763 -0.1925 -0.7835  0.5236
  555MOL0     C76477  11.268   7.236   5.804 -0.2709 -0.3430  0.5734
  555MOL0     C76478  11.232   7.320   5.707  0.7351 -0.6114  0.1002
  555MOL0     C76479  11.164   7.441   5.729 -0.4369  0.1782 -1.7534
  555MOL0     C76480  11.136   7.535   5.617  0.5389  0.1066  0.6266
  555MOL0     C76481  11.135   7.476   5.865 -0.1752 -0.6772 -0.0486
  555MOL0     C76482  11.080   7.609   5.906  0.5972  0.7089  1.0530
  555MOL0     O76483  11.020   7.692   5.816  0.0256  0.9471 -0.1012
  555MOL0     C76484  10.937   7.782   5.875  0.3672 -0.0942 -0.5550
  555MOL0     C76485  10.803   7.760   5.844 -0.5380  0.0566  0.1058
  555MOL0     C76486  10.705   7.845   5.897  1.3208  0.9792 -0.9441
  555MOL0     C76487  10.740   7.949   5.981  0.6545 -0.6690 -0.1349
  555MOL0     O76488  10.634   8.013   6.043  0.3456 -0.6930  0.2076
  555MOL0     C76489  10.659   8.107   6.149 -0.6471  0.1928  0.5775
  555MOL0     C76490  10.536   8.173   6.188 -0.4509 -0.5685 -0.6728
  555MOL0     C76491  10.563   8.322   6.239  0.7069 -0.4160 -0.6857
  555MOL0     C76492  10.421   8.385   6.276 -0.0701  1.6624  0.7606
  555MOL0     C76493  10.428   8.493   6.386 -0.7874  0.9260 -0.2539
  555MOL0     C76494  10.465   8.637   6.327  0.5702  1.3713 -0.4473
  555MOL0     C76495  10.476   8.729   6.446  0.1742  0.5430  0.1305
  555MOL0     C76496  10.520   8.873   6.417  1.0211 -0.0881 -0.1572
  555MOL0    Cl76497  10.492   8.977   6.568 -0.6487 -0.1396  0.1146
  555MOL0     C76498  10.874   7.975   6.010 -0.2398  0.5127  1.1277
  555MOL0     C76499  10.974   7.892   5.950 -0.2581  0.5307 -0.8005
  555MOL0     O76500  11.075   7.631   6.023 -1.0078 -0.4947 -0.1564
  555MOL0     C76501  11.175   7.386   5.970  0.5803  0.3479  0.0757
  555MOL0     C76502  11.233   7.260   5.942 -0.3519  0.8489  0.7177
  555MOL0     N76503  11.473   6.561   5.637  0.2828  0.2123 -0.8130
  555MOL0     N76504  11.394   6.540   5.538 -0.0266 -0.1249 -0.3261
  555MOL0     C76505  10.482   7.289   5.702 -0.4327  0.0589 -0.5803
  555MOL0     C76506  10.381   7.385   5.678  0.2390  0.1805  0.0098
  555MOL0     C76507  10.189   7.806   5.586  0.6595  1.1968  0.7046
  555MOL0     C76508  10.107   7.821   5.702 -0.1467  0.0529  0.1184
  555MOL0     C76509  10.033   7.933   5.727  0.3282  0.1146  0.6105
  555MOL0     C76510  10.026   8.033   5.624 -0.3859  0.4734 -0.1313
  555MOL0     O76511   9.959   8.149   5.668  0.7246  1.0672  0.1868
  555MOL0     C76512   9.953   8.274   5.600 -0.5147 -0.2999  0.6234
  555MOL0     C76513   9.849   8.282   5.488  0.5089 -0.0563 -0.6978
  555MOL0     C76514   9.709   8.286   5.552 -0.4300  0.1148 -1.5235
  555MOL0     C76515   9.604   8.325   5.450 -0.2648  0.1074 -0.5185
  555MOL0     C76516   9.468   8.334   5.511 -1.5853  0.0610 -1.0676
  555MOL0     C76517   9.353   8.337   5.567 -0.1744  0.2525  0.1062
  555MOL0     C76518  10.100   8.009   5.506 -0.1963 -0.0400 -0.1961
  555MOL0     C76519  10.179   7.900   5.488  1.5365 -0.5566 -0.7640
  555MOL0     C76520  10.244   7.880   5.359  0.8728  0.7284 -0.4792
  555MOL0     H76521  10.464   7.639   5.882 -1.7056 -2.0368  2.8955
  555MOL0     H76522  10.664   7.481   5.922  0.6215 -0.3276 -2.3212
  555MOL0     H76523  10.845   7.312   5.651  0.8605 -0.8932 -1.2206
  555MOL0     H76524  10.725   7.218   5.577  0.5624 -2.8329  1.1853
  555MOL0     H76525  10.956   7.143   5.773  0.5856 -1.0974  0.5033
  555MOL0     H76526  10.827   7.025   5.747  0.0333  0.5221  0.3323
  555MOL0     H76527  10.860   7.053   5.490 -0.7134  0.9293  0.5365
  555MOL0     H76528  10.997   7.152   5.525  1.1688  0.9452  0.6624
  555MOL0     H76529  11.110   6.948   5.633  1.1337 -3.7508  0.4236
  555MOL0     H76530  10.969   6.844   5.606  2.2326 -1.9896  0.1344
  555MOL0     H76531  11.159   6.973   5.407  0.7334 -2.1751 -2.8051
  555MOL0     H76532  11.001   6.933   5.357 -0.5530 -1.3000  1.4552
  555MOL0     H76533  11.170   6.724   5.509  2.7943  1.8272 -1.0603
  555MOL0     H76534  11.040   6.703   5.393 -0.2274 -0.2817 -1.9008
  555MOL0     H76535  11.309   6.843   5.307  0.7406  0.3860 -0.7419
  555MOL0     H76536  11.192   6.752   5.210  0.8471  1.2709 -0.4377
  555MOL0     H76537  11.253   6.548   5.320  0.0702 -0.8045  1.1363
  555MOL0     H76538  11.397   6.616   5.243  0.4399  2.3278  0.4304
  555MOL0     H76539  11.516   6.812   5.417 -2.0356  0.3779  0.6717
  555MOL0     H76540  11.703   6.795   5.617 -0.1093 -2.5779 -3.1820
  555MOL0     H76541  11.685   6.673   5.735  0.0593  0.1439  0.5552
  555MOL0     H76542  11.538   6.807   5.877  1.2149 -0.7480  0.3852
  555MOL0     H76543  11.662   6.918   5.807  0.3051 -0.4568 -1.2485
  555MOL0     H76544  11.492   6.989   5.649  5.0815 -0.1686  1.6380
  555MOL0     H76545  11.371   6.882   5.723 -0.0887 -0.4814  3.2666
  555MOL0     H76546  11.372   7.008   5.928 -2.0990  0.7173 -1.0271
  555MOL0     H76547  11.506   7.116   5.861 -2.0641  2.7530 -0.9921
  555MOL0     H76548  11.242   7.278   5.607  2.4241  1.0704 -0.4803
  555MOL0     H76549  11.027   7.539   5.613  0.5721  3.1793 -0.7348
  555MOL0     H76550  11.160   7.502   5.515  0.8684  0.5211  0.5643
  555MOL0     H76551  11.190   7.630   5.627 -0.8837  0.9416  0.6559
  555MOL0     H76552  10.776   7.681   5.775 -0.1407 -1.0770  1.2041
  555MOL0     H76553  10.598   7.831   5.883  0.3942  2.3790  3.2537
  555MOL0     H76554  10.692   8.056   6.241 -1.2027 -1.1855  0.0399
  555MOL0     H76555  10.732   8.181   6.116 -1.4965  1.2785  1.0795
  555MOL0     H76556  10.454   8.171   6.115 -0.4383  1.9844 -0.8439
  555MOL0     H76557  10.500   8.113   6.272  0.4651 -1.0423 -0.6101
  555MOL0     H76558  10.603   8.375   6.153 -1.8574 -0.9202 -2.2875
  555MOL0     H76559  10.636   8.306   6.320 -0.0735 -1.7389 -0.2130
  555MOL0     H76560  10.359   8.308   6.323 -0.9729  1.7027 -0.3410
  555MOL0     H76561  10.386   8.428   6.182  0.3334  2.6644  1.0571
  555MOL0     H76562  10.333   8.496   6.440  0.2177 -0.1316  1.7051
  555MOL0     H76563  10.485   8.449   6.468 -4.4090 -1.1601  1.3362
  555MOL0     H76564  10.383   8.665   6.259 -0.4791  0.1428  0.2711
  555MOL0     H76565  10.551   8.642   6.260  0.8854  1.3283 -0.0438
  555MOL0     H76566  10.564   8.701   6.505  0.4009 -2.5011 -1.4944
  555MOL0     H76567  10.385   8.732   6.506  1.3526  2.8021  1.9893
  555MOL0     H76568  10.467   8.909   6.328  1.6201  1.5339  0.1148
  555MOL0     H76569  10.627   8.863   6.394  1.2038 -1.5745  1.1832
  555MOL0     H76570  10.923   8.057   6.062 -0.1228  2.4796 -1.8331
  555MOL0     H76571  11.079   7.919   5.957 -0.5553  1.4994  0.2579
  555MOL0     H76572  11.160   7.411   6.075  0.9991 -4.3007  1.4579
  555MOL0     H76573  11.266   7.195   6.022 -0.1680 -2.0573 -1.5612
  555MOL0     H76574  10.505   7.190   5.663  2.9698  0.1286  0.9062
  555MOL0     H76575  10.302   7.366   5.606 -0.3304 -1.4064  1.0036
  555MOL0     H76576  10.107   7.752   5.785 -1.2032  3.1317  2.9059
  555MOL0     H76577   9.977   7.934   5.820 -2.5504  2.5826 -0.9594
  555MOL0     H76578   9.929   8.357   5.668 -0.8236  1.0132 -1.0070
  555MOL0     H76579  10.052   8.295   5.558 -0.8512  2.0517  0.8406
  555MOL0     H76580   9.858   8.203   5.414 -2.1893 -0.3240 -0.8367
  555MOL0     H76581   9.860   8.375   5.432  0.1143 -0.7662 -1.9903
  555MOL0     H76582   9.689   8.180   5.569  1.8744  0.1413  2.6180
  555MOL0     H76583   9.689   8.343   5.643 -0.3147  1.3088 -2.2122
  555MOL0     H76584   9.604   8.241   5.379  1.5235 -0.2041 -0.1966
  555MOL0     H76585   9.635   8.420   5.405  0.6302 -0.0665 -0.2944
  555MOL0     H76586   9.258   8.354   5.613  0.6996  0.5614  1.8588
  555MOL0     H76587  10.087   8.082   5.427 -2.1167  0.3024  0.3946
  555MOL0     H76588  10.353   7.873   5.356  0.7856 -0.9595 -3.2631
  555MOL0     H76589  10.214   7.778   5.333  3.9159 -0.1008 -1.1378
  555MOL0     H76590  10.208   7.949   5.282 -1.2269 -3.6256 -3.8093
  556MOL0     O76591  10.119   9.955   7.635  0.4101 -0.6578 -0.0049
  556MOL0     C76592  10.138   9.958   7.754 -1.0416  0.1395 -0.4320
  556MOL0     O76593  10.043   9.921   7.853  0.9872 -0.2437  0.3246
  556MOL0     C76594   9.924   9.872   7.796 -0.0999 -0.0696 -0.3773
  556MOL0     C76595   9.913   9.740   7.742 -0.4718  0.3210 -0.6491
  556MOL0     C76596   9.786   9.688   7.713  0.4059 -0.0673 -0.2948
  556MOL0     C76597   9.672   9.760   7.759 -0.0994  0.6404 -0.1387
  556MOL0     O76598   9.557   9.693   7.740  0.1705 -0.1745  0.4146
  556MOL0     C76599   9.498   9.644   7.863  0.8900 -0.3436 -0.9010
  556MOL0     C76600   9.353   9.612   7.838  0.0090  0.3007  0.3233
  556MOL0     C76601   9.320   9.512   7.713 -0.6781  0.1577 -0.2764
  556MOL0     C76602   9.184   9.457   7.698  0.8566 -0.6280 -0.3385
  556MOL0     C76603   9.140   9.436   7.545 -1.0722 -0.1742  0.0952
  556MOL0     C76604   9.206   9.312   7.473  0.4178 -0.6467  0.0614
  556MOL0     C76605   9.144   9.297   7.338  0.1360  0.0150 -0.2269
  556MOL0     C76606   9.148   9.149   7.285  0.0175  0.3839 -0.1235
  556MOL0     N76607   9.280   9.091   7.264 -0.4803  0.5174  0.0718
  556MOL0     C76608   9.371   9.139   7.180  0.5615  0.2637  0.0770
  556MOL0     C76609   9.463   9.049   7.173 -0.7293 -0.0811 -0.0463
  556MOL0     C76610   9.597   9.059   7.111 -0.1439 -1.4115  0.7616
  556MOL0     C76611   9.699   9.085   7.225 -0.4594  0.2331  0.7943
  556MOL0     C76612   9.844   9.070   7.183 -0.3977 -0.8432 -0.2461
  556MOL0     C76613   9.945   9.078   7.295 -0.2368 -0.4224 -0.3940
  556MOL0     O76614   9.960   9.213   7.358  0.7167 -0.3635  0.4597
  556MOL0     C76615  10.079   9.233   7.421 -0.7860 -0.1544  0.9587
  556MOL0     C76616  10.107   9.363   7.461  0.2131 -0.1672  0.0905
  556MOL0     C76617  10.227   9.404   7.534  1.5686  0.0215 -0.9029
  556MOL0     C76618  10.230   9.548   7.558 -0.3116 -1.0539  0.7149
  556MOL0     C76619  10.328   9.313   7.556  0.4451  0.7565 -0.4060
  556MOL0     C76620  10.457   9.345   7.627 -0.7886  0.1844  0.1130
  556MOL0     O76621  10.562   9.266   7.596  1.2228  0.1409  0.5550
  556MOL0     C76622  10.685   9.312   7.614 -0.2825  0.5686 -0.3016
  556MOL0     C76623  10.785   9.211   7.608  0.5035 -0.5784 -0.8132
  556MOL0     C76624  10.920   9.244   7.609  0.4019  0.5243  0.7175
  556MOL0     C76625  10.960   9.378   7.619  0.9783 -0.2922 -0.4599
  556MOL0     O76626  11.084   9.426   7.625  0.4087  0.7296 -0.4685
  556MOL0     C76627  11.161   9.350   7.714 -0.0722 -1.1936 -0.7144
  556MOL0     C76628  11.300   9.414   7.701 -0.5333  0.6524 -0.7559
  556MOL0     C76629  11.329   9.532   7.788  0.1101  0.1677 -0.3076
  556MOL0     C76630  11.329   9.496   7.938 -0.4596 -0.8219  0.0330
  556MOL0     C76631  11.348   9.622   8.037 -0.1476 -0.7386 -0.1290
  556MOL0     C76632  11.476   9.705   8.001 -0.2995 -0.4930 -0.1860
  556MOL0     C76633  11.523   9.779   8.133 -0.1063  0.5128  0.0672
  556MOL0     C76634  11.678   9.812   8.105 -0.1329  0.8926  0.0256
  556MOL0    Cl76635  11.770   9.824   8.252 -0.2832  0.3444 -0.3333
  556MOL0     C76636  10.865   9.476   7.631  0.4415  0.2480 -0.9829
  556MOL0     C76637  10.722   9.448   7.623  0.4677  1.2897 -1.0541
  556MOL0     O76638  10.453   9.422   7.711  0.0606 -0.3917 -0.0570
  556MOL0     C76639  10.300   9.181   7.518 -0.0978  0.6827  0.4764
  556MOL0     C76640  10.173   9.138   7.458 -0.1276 -0.4777  0.0023
  556MOL0     N76641   9.415   8.927   7.228 -0.0389 -0.3158 -0.8101
  556MOL0     N76642   9.306   8.958   7.282  0.4738  0.6760  0.3428
  556MOL0     C76643   9.677   9.883   7.823  0.2538  0.6256 -0.6014
  556MOL0     C76644   9.807   9.939   7.841 -0.0643  0.0981 -0.2658
  556MOL0     C76645  10.259  10.019   7.807  1.1076 -0.4197  0.3135
  556MOL0     C76646  10.238  10.134   7.889 -0.3862  0.0023 -0.2344
  556MOL0     C76647  10.348  10.189   7.949 -1.0574  0.8462 -0.9250
  556MOL0     C76648  10.480  10.135   7.932 -0.3317  0.4043  0.5498
  556MOL0     O76649  10.577  10.187   8.005  0.0786 -0.2236  0.3777
  556MOL0     C76650  10.710  10.145   7.992 -0.4735  1.2188  0.2660
  556MOL0     C76651  10.739  10.023   8.074  1.3764 -0.8887 -0.0903
  556MOL0     C76652  10.882   9.985   8.056  0.2084 -0.1793  0.2068
  556MOL0     C76653  10.942   9.898   8.162 -0.5597 -0.1333 -0.0609
  556MOL0     C76654  10.969   9.989   8.274 -0.2120  0.4633 -0.2596
  556MOL0     C76655  11.003  10.067   8.357  0.0469  0.4007 -1.0759
  556MOL0     C76656  10.493  10.025   7.849  0.5450 -0.5984 -0.5966
  556MOL0     C76657  10.385   9.961   7.796 -0.8997  0.2044 -0.2094
  556MOL0     C76658  10.425   9.837   7.722  0.7211 -0.3773  0.7826
  556MOL0     H76659  10.001   9.694   7.697  0.2904  0.1702  0.9305
  556MOL0     H76660   9.763   9.595   7.662  1.3697 -1.7954  2.2116
  556MOL0     H76661   9.499   9.712   7.950  2.0719 -1.7865  0.2834
  556MOL0     H76662   9.544   9.549   7.893 -1.3212 -1.5732 -1.2347
  556MOL0     H76663   9.321   9.572   7.934  0.8027 -0.8078  0.1472
  556MOL0     H76664   9.299   9.706   7.827 -1.8025 -0.6855  0.3617
  556MOL0     H76665   9.354   9.561   7.621 -1.5638 -0.5665 -1.0049
  556MOL0     H76666   9.375   9.419   7.727 -2.5437 -0.8468  0.7075
  556MOL0     H76667   9.173   9.361   7.748  0.5621 -0.6528 -0.4527
  556MOL0     H76668   9.115   9.529   7.743  2.0517 -0.0368  0.5888
  556MOL0     H76669   9.160   9.525   7.485 -0.7438 -0.5716 -0.3952
  556MOL0     H76670   9.031   9.428   7.553 -1.0991 -0.6945 -0.6942
  556MOL0     H76671   9.314   9.324   7.462  0.7662 -0.3841  2.9658
  556MOL0     H76672   9.175   9.236   7.546 -2.7830  0.6477  0.2515
  556MOL0     H76673   9.205   9.361   7.272  1.1021 -3.2873 -2.8113
  556MOL0     H76674   9.046   9.345   7.335  0.0237  0.2923  3.6201
  556MOL0     H76675   9.094   9.079   7.348 -0.5085  1.5890  0.8141
  556MOL0     H76676   9.086   9.148   7.194  0.5994 -0.0800 -0.5231
  556MOL0     H76677   9.371   9.233   7.125 -3.4014  0.3539 -0.0493
  556MOL0     H76678   9.596   9.132   7.030 -3.5627 -1.1582  0.8822
  556MOL0     H76679   9.632   8.966   7.066 -2.2051 -1.9873  0.2367
  556MOL0     H76680   9.690   9.185   7.267  1.3341  1.3249 -1.2182
  556MOL0     H76681   9.677   9.006   7.297 -1.1005 -0.2302  0.1033
  556MOL0     H76682   9.849   8.978   7.123 -1.6486 -0.8722 -0.3362
  556MOL0     H76683   9.861   9.148   7.109 -2.5095  0.3723  0.4550
  556MOL0     H76684   9.904   9.013   7.372 -3.5378  1.0146 -0.7558
  556MOL0     H76685  10.045   9.044   7.263  0.9441  1.6695  0.8464
  556MOL0     H76686  10.033   9.438   7.436 -0.7678 -1.1183  0.0843
  556MOL0     H76687  10.146   9.590   7.504 -1.0483 -1.3023  1.6359
  556MOL0     H76688  10.321   9.603   7.531 -2.7931  3.9095  1.3961
  556MOL0     H76689  10.202   9.566   7.663  1.0414  1.3267  0.7558
  556MOL0     H76690  10.756   9.109   7.586  1.4293 -0.9151 -0.5133
  556MOL0     H76691  10.996   9.168   7.597  0.7239  0.6399  1.9091
  556MOL0     H76692  11.119   9.355   7.815  0.9001 -0.2796 -0.3285
  556MOL0     H76693  11.168   9.247   7.680  1.6140 -0.5143 -2.6141
  556MOL0     H76694  11.365   9.331   7.731  0.0576 -0.8304 -5.3306
  556MOL0     H76695  11.316   9.442   7.596  1.8575 -5.4345 -2.4655
  556MOL0     H76696  11.251   9.607   7.774 -1.1124 -0.6876  1.5262
  556MOL0     H76697  11.430   9.563   7.758 -0.0702 -0.6962 -1.9476
  556MOL0     H76698  11.415   9.429   7.952  0.5031  0.7927  2.4279
  556MOL0     H76699  11.238   9.450   7.976  1.8345 -2.9169  3.5150
  556MOL0     H76700  11.252   9.675   8.039 -0.3897 -0.9795 -2.4952
  556MOL0     H76701  11.373   9.593   8.139  0.7883  1.3391  0.2854
  556MOL0     H76702  11.464   9.779   7.921  1.8397  0.7359  0.5521
  556MOL0     H76703  11.556   9.635   7.976  1.1094  0.6356  0.9219
  556MOL0     H76704  11.516   9.713   8.220 -0.1382  0.7989  0.2829
  556MOL0     H76705  11.466   9.868   8.160 -2.6914  0.0751 -3.2014
  556MOL0     H76706  11.689   9.909   8.056  1.0620  1.3092  1.0655
  556MOL0     H76707  11.727   9.739   8.039  0.5302  0.7102  0.6993
  556MOL0     H76708  10.909   9.576   7.627 -0.1220  0.5347 -0.2685
  556MOL0     H76709  10.650   9.528   7.611 -2.1695 -0.7818  0.0608
  556MOL0     H76710  10.370   9.104   7.548 -1.0754 -0.1237  0.7615
  556MOL0     H76711  10.156   9.031   7.451  1.5426 -1.0358  2.7836
  556MOL0     H76712   9.586   9.923   7.867  0.1538 -1.2435  1.0395
  556MOL0     H76713   9.816  10.024   7.908 -0.5068 -1.6220  2.1350
  556MOL0     H76714  10.135  10.163   7.909 -0.7022 -1.3000  0.1609
  556MOL0     H76715  10.332  10.275   8.013  0.1913  1.5060 -1.4504
  556MOL0     H76716  10.751  10.121   7.893  3.4688  2.0832  1.5229
  556MOL0     H76717  10.767  10.232   8.026 -2.2226  2.6767 -0.3792
  556MOL0     H76718  10.680   9.935   8.046  1.4193 -1.5898  1.8682
  556MOL0     H76719  10.708  10.050   8.176  2.2202 -0.4999  0.0720
  556MOL0     H76720  10.885   9.943   7.955  1.8042  0.3016  0.0264
  556MOL0     H76721  10.945  10.071   8.029 -0.3995  0.2911  0.2578
  556MOL0     H76722  11.032   9.853   8.120 -0.0063  0.8289  0.0552
  556MOL0     H76723  10.880   9.822   8.210  0.4015 -0.3300  0.9063
  556MOL0     H76724  11.043  10.136   8.429 -0.4531  2.1569 -2.4378
  556MOL0     H76725  10.589   9.978   7.832  1.0717 -0.5436  1.8557
  556MOL0     H76726  10.476   9.755   7.773 -1.6729 -4.4925 -2.6972
  556MOL0     H76727  10.336   9.784   7.686  0.4775 -0.7863  1.9405
  556MOL0     H76728  10.489   9.863   7.637  0.6357  0.0770  0.8546
  557MOL0     O76729   5.940   8.822  10.996 -0.4299  0.3462  0.1409
  557MOL0     C76730   5.820   8.866  10.994  0.4325 -0.5802 -0.8979
  557MOL0     O76731   5.773   8.971  10.919 -0.3281  0.3681  0.2891
  557MOL0     C76732   5.842   8.995  10.802 -0.0694 -0.7608 -0.2471
  557MOL0     C76733   5.975   9.030  10.808 -0.8071 -0.2670 -0.1381
  557MOL0     C76734   6.054   9.072  10.697 -0.2506  1.2946  0.6761
  557MOL0     C76735   6.000   9.066  10.572  0.6228 -0.1212  0.3873
  557MOL0     O76736   6.082   9.095  10.465  0.1888 -0.0616 -0.1286
  557MOL0     C76737   6.014   9.103  10.339  0.4688 -0.1570 -0.1862
  557MOL0     C76738   6.113   9.151  10.241  0.1256 -1.0228  0.4182
  557MOL0     C76739   6.239   9.063  10.217 -0.0748  0.2719  0.7127
  557MOL0     C76740   6.332   9.137  10.122  0.3467  0.1322  0.4579
  557MOL0     C76741   6.465   9.059  10.113 -0.5679 -0.5799  0.1466
  557MOL0     C76742   6.557   9.107  10.001  0.6591  0.6272  0.6454
  557MOL0     C76743   6.613   9.243  10.035  0.3286 -0.7393 -0.3317
  557MOL0     C76744   6.556   9.354   9.943 -0.2275 -0.2246 -0.7246
  557MOL0     N76745   6.604   9.488   9.998 -0.3181 -0.4967  0.0978
  557MOL0     C76746   6.545   9.556  10.102  0.2434  0.4907 -0.0946
  557MOL0     C76747   6.603   9.673  10.111 -0.5681 -0.4971  0.7259
  557MOL0     C76748   6.569   9.778  10.209 -0.4179 -0.1556  0.4738
  557MOL0     C76749   6.688   9.801  10.305 -0.3619  0.3636 -0.1181
  557MOL0     C76750   6.781   9.913  10.238 -0.0717 -0.1636 -0.2340
  557MOL0     C76751   6.878   9.979  10.327  0.9415 -1.0121 -0.2939
  557MOL0     O76752   6.979  10.052  10.252  0.0425  0.2544 -0.1348
  557MOL0     C76753   7.094  10.083  10.312 -1.0722 -0.7698 -1.1961
  557MOL0     C76754   7.203  10.134  10.247 -0.2947  0.5222  0.0896
  557MOL0     C76755   7.320  10.182  10.301 -0.5329  0.8666 -0.2194
  557MOL0     C76756   7.436  10.220  10.225 -0.3468  0.9103 -0.2416
  557MOL0     C76757   7.331  10.184  10.442  0.3426 -0.2572  0.8837
  557MOL0     C76758   7.450  10.215  10.514 -0.2436 -0.8116 -0.2098
  557MOL0     O76759   7.482  10.121  10.596 -0.6107 -0.6216 -0.4717
  557MOL0     C76760   7.580  10.150  10.698  0.0591 -0.0414 -0.3567
  557MOL0     C76761   7.595  10.045  10.792  0.3267  0.1186  0.3398
  557MOL0     C76762   7.666  10.058  10.913 -0.1964  0.4878  0.2746
  557MOL0     C76763   7.737  10.175  10.940 -0.7146  0.2968  0.0509
  557MOL0     O76764   7.795  10.200  11.065 -0.0708  0.7186  0.6168
  557MOL0     C76765   7.903  10.104  11.101  1.0801  0.8651  0.4687
  557MOL0     C76766   8.019  10.181  11.063 -0.4557 -0.1338  0.8484
  557MOL0     C76767   8.144  10.116  11.135 -0.0509 -0.9437  0.2032
  557MOL0     C76768   8.277  10.156  11.078  0.0949  0.3983 -0.1527
  557MOL0     C76769   8.383  10.136  11.191 -0.0820  0.6380  0.6500
  557MOL0     C76770   8.504  10.227  11.179  0.0953 -1.1779  0.3915
  557MOL0     C76771   8.491  10.347  11.272 -0.0254  0.0160 -0.2571
  557MOL0     C76772   8.590  10.453  11.232 -0.1756 -0.4364  0.1200
  557MOL0    Cl76773   8.611  10.568  11.359 -0.0729  0.1231 -0.2872
  557MOL0     C76774   7.739  10.271  10.845 -0.6442 -0.7602  0.2233
  557MOL0     C76775   7.658  10.263  10.724 -0.8361  0.0942 -0.2273
  557MOL0     O76776   7.510  10.318  10.486  0.0841  1.3623  0.4593
  557MOL0     C76777   7.218  10.141  10.511  0.2172  0.0801 -0.0187
  557MOL0     C76778   7.103  10.099  10.449  0.2427  0.9776 -0.2492
  557MOL0     N76779   6.709   9.669  10.024  0.8353  0.0615 -0.4939
  557MOL0     N76780   6.709   9.557   9.959 -0.2571  0.0424  0.3974
  557MOL0     C76781   5.871   9.005  10.567 -0.1917  0.2486  0.0437
  557MOL0     C76782   5.791   8.973  10.678 -1.1454  0.1569  0.0486
  557MOL0     C76783   5.716   8.818  11.093 -0.5698  0.4066  0.0148
  557MOL0     C76784   5.674   8.889  11.207  0.3677 -0.8328  0.0030
  557MOL0     C76785   5.573   8.842  11.294 -0.7417  0.7246  0.5552
  557MOL0     C76786   5.511   8.719  11.267 -0.3886  0.4421 -0.0550
  557MOL0     O76787   5.420   8.658  11.349 -0.0738  0.5681  0.1052
  557MOL0     C76788   5.378   8.731  11.469  0.2931 -0.6056  0.1682
  557MOL0     C76789   5.273   8.662  11.550 -0.2110 -0.1099 -0.0394
  557MOL0     C76790   5.145   8.633  11.469 -0.0715  0.4918 -0.4065
  557MOL0     C76791   5.026   8.639  11.567  0.4505 -0.5576 -0.4676
  557MOL0     C76792   4.983   8.769  11.613 -0.2416  0.4179  0.0549
  557MOL0     C76793   4.940   8.874  11.657 -0.5321  0.8104 -0.3284
  557MOL0     C76794   5.549   8.656  11.150  0.7753 -0.7673  0.7516
  557MOL0     C76795   5.646   8.699  11.063 -0.2479  0.1198  0.5096
  557MOL0     C76796   5.648   8.621  10.933 -0.4529 -0.6753 -0.9018
  557MOL0     H76797   6.013   9.027  10.909 -1.3972  0.9408  0.1352
  557MOL0     H76798   6.155   9.107  10.710 -0.0559  1.6189 -1.3295
  557MOL0     H76799   5.938   9.181  10.348 -1.1508 -1.5898 -0.8265
  557MOL0     H76800   5.971   9.004  10.321 -1.3685  0.9840 -2.6140
  557MOL0     H76801   6.061   9.164  10.145 -1.2266 -3.5262  0.7350
  557MOL0     H76802   6.135   9.253  10.274 -0.8420 -0.0203 -1.8551
  557MOL0     H76803   6.300   9.039  10.305  3.2380  1.4431 -1.0790
  557MOL0     H76804   6.194   8.970  10.181 -0.9460  0.4754  1.2437
  557MOL0     H76805   6.289   9.140  10.022  2.4411  0.0296 -0.5044
  557MOL0     H76806   6.342   9.243  10.149  0.7206  0.7358 -1.8966
  557MOL0     H76807   6.438   8.953  10.112 -0.3461 -0.6376 -1.2687
  557MOL0     H76808   6.516   9.062  10.210  0.3696 -0.0584 -0.3520
  557MOL0     H76809   6.640   9.036   9.990  0.7723  0.1985  3.4114
  557MOL0     H76810   6.492   9.110   9.913  1.1291  2.2273  0.3238
  557MOL0     H76811   6.722   9.239  10.031  0.2850 -1.9523 -3.3872
  557MOL0     H76812   6.583   9.258  10.139  0.1419 -2.8332 -0.0405
  557MOL0     H76813   6.582   9.336   9.838 -0.2046  1.9156 -1.1243
  557MOL0     H76814   6.447   9.343   9.945 -0.4329  1.4669  1.6053
  557MOL0     H76815   6.462   9.531  10.167  1.7704  3.0616  3.1571
  557MOL0     H76816   6.482   9.744  10.267  0.0679 -0.2743  1.1452
  557MOL0     H76817   6.539   9.863  10.148 -0.4548  0.0378  0.7577
  557MOL0     H76818   6.656   9.830  10.406 -2.9101  0.2107 -0.8030
  557MOL0     H76819   6.755   9.715  10.312  0.9046  1.2760 -0.5750
  557MOL0     H76820   6.838   9.860  10.160 -0.9299  0.2713 -1.1781
  557MOL0     H76821   6.707   9.987  10.205  0.9659  0.9837 -0.0348
  557MOL0     H76822   6.816  10.047  10.386  1.5903 -1.8921  1.4684
  557MOL0     H76823   6.924   9.914  10.402  2.6770 -0.0686 -0.5002
  557MOL0     H76824   7.205  10.136  10.138  0.1521  0.9752  0.1014
  557MOL0     H76825   7.429  10.168  10.129 -0.5657 -1.3875  0.9488
  557MOL0     H76826   7.530  10.182  10.266  0.5947  1.2278 -2.0197
  557MOL0     H76827   7.448  10.328  10.210  1.1539  0.5830 -1.7223
  557MOL0     H76828   7.549   9.951  10.763  3.3746 -1.3405 -0.1268
  557MOL0     H76829   7.676   9.983  10.990 -1.9048  0.2718  0.3184
  557MOL0     H76830   7.910  10.085  11.209  3.3992 -2.3068 -0.0909
  557MOL0     H76831   7.893  10.007  11.050 -0.2590  0.6760  1.0461
  557MOL0     H76832   8.025  10.183  10.954  0.4344 -0.6950  0.8804
  557MOL0     H76833   8.010  10.283  11.101  2.9684 -0.3091  2.4789
  557MOL0     H76834   8.150  10.007  11.123  2.8686 -0.5951 -3.1875
  557MOL0     H76835   8.127  10.147  11.239 -0.0645 -1.3167  0.3164
  557MOL0     H76836   8.276  10.264  11.060 -2.3862  0.7587  1.5912
  557MOL0     H76837   8.308  10.098  10.991  0.3720 -3.9313  2.5726
  557MOL0     H76838   8.334  10.151  11.288 -1.3158 -3.3301  0.8188
  557MOL0     H76839   8.425  10.036  11.205  1.3001  0.2100 -4.6609
  557MOL0     H76840   8.514  10.261  11.075  0.7586 -1.1151  0.4704
  557MOL0     H76841   8.590  10.167  11.210 -0.7452 -0.4742  4.7817
  557MOL0     H76842   8.522  10.303  11.367 -0.3471  0.5892  0.1244
  557MOL0     H76843   8.387  10.382  11.270  0.3375  1.1406 -0.8861
  557MOL0     H76844   8.558  10.517  11.149 -0.0311  0.1071  0.4747
  557MOL0     H76845   8.684  10.403  11.205  1.0235  1.4510  0.5931
  557MOL0     H76846   7.779  10.371  10.859  0.2449 -0.9693 -0.7535
  557MOL0     H76847   7.655  10.356  10.669 -0.8373 -0.4172 -1.1239
  557MOL0     H76848   7.230  10.130  10.619 -1.6314 -3.0261 -0.0096
  557MOL0     H76849   7.017  10.083  10.514  0.6545 -1.3615 -0.1854
  557MOL0     H76850   5.837   8.984  10.466 -0.0004 -0.4300  0.1194
  557MOL0     H76851   5.695   8.928  10.657 -1.3982  1.1049 -0.9002
  557MOL0     H76852   5.714   8.987  11.230  0.6274 -0.9582  0.0912
  557MOL0     H76853   5.554   8.901  11.383  0.2457  2.0185 -0.0729
  557MOL0     H76854   5.458   8.771  11.531  1.4605 -0.7197 -1.1988
  557MOL0     H76855   5.337   8.823  11.425 -2.5754 -0.4037  2.9012
  557MOL0     H76856   5.251   8.724  11.637 -0.3123 -1.6491  1.0910
  557MOL0     H76857   5.316   8.574  11.601  2.7666 -0.1843 -2.3758
  557MOL0     H76858   5.143   8.698  11.381  0.0084 -2.5341 -2.7970
  557MOL0     H76859   5.156   8.538  11.417 -1.3499  0.4994 -0.7201
  557MOL0     H76860   5.042   8.575  11.654  3.0949 -0.7579 -1.0171
  557MOL0     H76861   4.946   8.596  11.505 -0.0331  0.8514 -0.8462
  557MOL0     H76862   4.905   8.971  11.687  0.3109  0.8159  0.7208
  557MOL0     H76863   5.486   8.571  11.122 -0.5311  1.0183 -2.2999
  557MOL0     H76864   5.550   8.634  10.886 -1.3646  0.2173  1.1591
  557MOL0     H76865   5.735   8.655  10.876  0.4744  0.9677  1.3344
  557MOL0     H76866   5.656   8.516  10.963 -0.8677 -0.8435 -1.3565
  558MOL0     O76867   8.354   7.548   4.415 -0.3961 -0.6587  0.2771
  558MOL0     C76868   8.379   7.666   4.427 -0.1603 -0.1321 -0.0209
  558MOL0     O76869   8.468   7.737   4.353  0.4187 -0.1230 -0.0618
  558MOL0     C76870   8.549   7.663   4.271 -0.3879 -0.5179 -0.0580
  558MOL0     C76871   8.577   7.706   4.142 -0.2106  0.7476  0.5815
  558MOL0     C76872   8.666   7.640   4.054  0.0731 -0.1244 -0.1097
  558MOL0     C76873   8.725   7.526   4.102 -0.2290 -0.2603  0.2549
  558MOL0     O76874   8.814   7.473   4.018  0.2782  0.1880  0.4610
  558MOL0     C76875   8.952   7.442   4.066  1.3001 -0.3851 -0.1703
  558MOL0     C76876   9.042   7.418   3.954 -0.2070 -0.1263 -0.2347
  558MOL0     C76877   9.175   7.353   4.002 -0.4130  0.1112  0.9145
  558MOL0     C76878   9.248   7.285   3.888 -0.1266 -0.0926  0.0096
  558MOL0     C76879   9.383   7.349   3.869  0.5540  0.1255  0.0305
  558MOL0     C76880   9.367   7.469   3.784 -0.2230 -0.8205  0.9768
  558MOL0     C76881   9.501   7.534   3.778 -0.3300 -0.2857 -1.2699
  558MOL0     C76882   9.600   7.455   3.686  1.0505 -0.5629 -0.0492
  558MOL0     N76883   9.714   7.530   3.632 -0.4004 -0.1040  0.1578
  558MOL0     C76884   9.729   7.670   3.632  1.0570 -0.5714  0.6294
  558MOL0     C76885   9.832   7.693   3.551  1.0482 -0.0148 -0.7442
  558MOL0     C76886   9.881   7.833   3.536  0.4353  0.0199 -0.6982
  558MOL0     C76887  10.017   7.839   3.612 -1.2581 -0.3213  0.5467
  558MOL0     C76888  10.128   7.807   3.516 -0.5774  1.6525  0.5914
  558MOL0     C76889  10.273   7.864   3.550  0.1437  0.1929  0.2192
  558MOL0     O76890  10.362   7.788   3.468 -0.1800  0.4919 -0.5604
  558MOL0     C76891  10.497   7.798   3.510  0.2783  0.4872  0.1411
  558MOL0     C76892  10.577   7.674   3.503  0.1267 -0.5416 -0.1714
  558MOL0     C76893  10.711   7.671   3.521 -0.8037 -0.2651  0.0163
  558MOL0     C76894  10.789   7.542   3.486  1.5208 -0.2191 -0.6430
  558MOL0     C76895  10.776   7.793   3.561 -1.0207 -0.6851  0.3767
  558MOL0     C76896  10.919   7.801   3.596 -0.3094 -0.6295  0.5794
  558MOL0     O76897  10.977   7.925   3.624 -0.1198 -0.0599  0.4893
  558MOL0     C76898  11.111   7.952   3.647 -0.5074  0.6477 -0.0794
  558MOL0     C76899  11.142   8.056   3.726 -0.9584 -1.4468 -0.2988
  558MOL0     C76900  11.275   8.079   3.759 -0.4156  0.0363  0.7415
  558MOL0     C76901  11.377   8.005   3.701 -0.4925  0.0502  0.8552
  558MOL0     O76902  11.513   8.026   3.712 -0.2560 -0.1909 -0.2945
  558MOL0     C76903  11.560   8.091   3.831  0.3472 -0.7482  0.0014
  558MOL0     C76904  11.703   8.047   3.840 -0.1439  0.7509  0.2071
  558MOL0     C76905  11.784   8.107   3.965 -0.1956 -0.6384 -0.1118
  558MOL0     C76906  11.929   8.062   3.951 -0.0771  0.4107  0.5799
  558MOL0     C76907  12.009   8.082   4.081 -0.2220 -0.1000  0.1021
  558MOL0     C76908  12.131   7.998   4.087 -0.7524  0.8741 -0.5445
  558MOL0     C76909  12.209   8.007   4.220 -0.1941 -0.7249  0.2110
  558MOL0     C76910  12.277   8.136   4.257  0.1953 -0.1557  0.3707
  558MOL0    Cl76911  12.292   8.142   4.445  0.0862  0.4545 -0.3029
  558MOL0     C76912  11.346   7.897   3.619 -0.0425 -0.1355  0.1140
  558MOL0     C76913  11.216   7.872   3.591 -1.3959  0.6128  0.0644
  558MOL0     O76914  10.983   7.698   3.605 -0.6159 -0.7056  0.0976
  558MOL0     C76915  10.693   7.904   3.594  0.3476  0.5674  0.0895
  558MOL0     C76916  10.561   7.907   3.564  0.7137 -0.5801 -0.0865
  558MOL0     N76917   9.877   7.573   3.490 -0.4444  0.0672  0.1253
  558MOL0     N76918   9.810   7.474   3.550  0.2377 -0.7087  0.0335
  558MOL0     C76919   8.710   7.483   4.232 -0.1210 -0.2472  0.2866
  558MOL0     C76920   8.615   7.549   4.309 -0.4494 -0.1863  0.3417
  558MOL0     C76921   8.324   7.736   4.537 -0.3495 -0.3688  0.4659
  558MOL0     C76922   8.390   7.854   4.583  0.0638 -0.3257  0.3134
  558MOL0     C76923   8.345   7.937   4.695 -0.1390 -0.1160 -0.1511
  558MOL0     C76924   8.230   7.890   4.767 -0.3743  0.5931 -0.6970
  558MOL0     O76925   8.180   7.935   4.887  0.4041 -0.2389 -0.1117
  558MOL0     C76926   8.245   8.034   4.965  0.8377 -0.5390 -0.1454
  558MOL0     C76927   8.301   7.964   5.087 -0.9637  0.1203  0.4444
  558MOL0     C76928   8.421   8.035   5.150  0.6046  0.1851  0.2964
  558MOL0     C76929   8.553   7.984   5.078 -0.0614  0.4506 -0.4493
  558MOL0     C76930   8.668   8.016   5.172 -0.0645 -0.5357  1.1585
  558MOL0     C76931   8.768   8.048   5.233  0.6811  1.3253  0.0172
  558MOL0     C76932   8.155   7.785   4.699  0.6885 -0.2059 -0.2593
  558MOL0     C76933   8.195   7.704   4.588 -0.2880 -0.0702  0.5521
  558MOL0     C76934   8.094   7.601   4.541  0.9937 -0.9273  0.0563
  558MOL0     H76935   8.531   7.801   4.115  0.1677  1.4910  2.4442
  558MOL0     H76936   8.684   7.677   3.953  0.2720  2.1238  0.7073
  558MOL0     H76937   8.945   7.353   4.130 -1.3649 -0.0946  0.0467
  558MOL0     H76938   8.991   7.533   4.112 -0.6360  0.1485  0.5348
  558MOL0     H76939   8.990   7.354   3.882 -0.4295 -0.2905  0.0707
  558MOL0     H76940   9.066   7.512   3.903  1.1517 -0.8291 -0.9279
  558MOL0     H76941   9.232   7.430   4.055 -0.6999  1.4818 -0.6705
  558MOL0     H76942   9.158   7.267   4.067 -2.1642 -0.1127  0.2210
  558MOL0     H76943   9.262   7.183   3.927  1.6137  1.0309  2.5827
  558MOL0     H76944   9.186   7.276   3.798 -1.5161 -1.0668  1.0128
  558MOL0     H76945   9.448   7.281   3.813 -2.3094  0.2630 -3.8949
  558MOL0     H76946   9.425   7.374   3.967  0.1014  1.6369 -0.1384
  558MOL0     H76947   9.335   7.442   3.683 -0.9128 -2.1042  1.5089
  558MOL0     H76948   9.292   7.539   3.823  0.4978  0.4736  0.1212
  558MOL0     H76949   9.545   7.522   3.877  3.3876  0.6162 -2.6604
  558MOL0     H76950   9.484   7.639   3.752  0.1905  0.4636  1.1973
  558MOL0     H76951   9.629   7.370   3.748  2.9850  1.9301  2.7645
  558MOL0     H76952   9.541   7.420   3.601 -0.6229  1.4409  0.1990
  558MOL0     H76953   9.680   7.750   3.686 -0.7299 -2.4133  1.9291
  558MOL0     H76954   9.812   7.907   3.577  0.5536 -0.9760  1.4365
  558MOL0     H76955   9.902   7.856   3.431  2.4355 -0.0734 -0.3542
  558MOL0     H76956  10.040   7.940   3.648 -2.0202  0.5155 -1.1567
  558MOL0     H76957  10.033   7.764   3.689  2.9262 -1.2136 -0.9004
  558MOL0     H76958  10.137   7.698   3.528  1.9288  1.9619  2.1218
  558MOL0     H76959  10.116   7.842   3.413 -0.1125  1.4044  0.4471
  558MOL0     H76960  10.259   7.970   3.527 -1.9501 -0.1383 -0.2145
  558MOL0     H76961  10.306   7.857   3.654  1.5897  1.3130 -0.1327
  558MOL0     H76962  10.530   7.586   3.461 -0.0160  0.1705 -1.5697
  558MOL0     H76963  10.814   7.489   3.578 -0.2059  0.0878  0.0296
  558MOL0     H76964  10.880   7.559   3.428  3.6358  1.6402  2.8737
  558MOL0     H76965  10.730   7.477   3.421  0.4608  0.1344 -0.0544
  558MOL0     H76966  11.052   8.113   3.748  0.5651  1.1946 -0.4526
  558MOL0     H76967  11.307   8.170   3.808 -0.2573  1.1111 -1.2734
  558MOL0     H76968  11.556   8.200   3.826  0.3080 -0.7767 -0.6630
  558MOL0     H76969  11.505   8.056   3.919  1.8989  0.4086  1.5022
  558MOL0     H76970  11.704   7.937   3.843 -3.4016  0.6425  0.8374
  558MOL0     H76971  11.761   8.064   3.749  0.4464  1.2912  0.6717
  558MOL0     H76972  11.742   8.068   4.058 -0.8039  0.3150  0.0295
  558MOL0     H76973  11.766   8.215   3.972 -5.1182 -1.3170  2.3032
  558MOL0     H76974  11.973   8.120   3.869 -2.7208 -0.2907 -1.4750
  558MOL0     H76975  11.934   7.957   3.922 -0.4012  1.4184 -4.0144
  558MOL0     H76976  12.037   8.188   4.086  0.2401 -0.2544  1.2473
  558MOL0     H76977  11.938   8.062   4.162  0.6278  0.6175  1.0424
  558MOL0     H76978  12.202   8.015   4.005  0.4319  0.6026  0.4023
  558MOL0     H76979  12.115   7.890   4.083 -0.2048  0.8173 -1.3058
  558MOL0     H76980  12.298   7.942   4.218  0.9775  0.8377 -0.6108
  558MOL0     H76981  12.135   7.988   4.298  0.0175 -0.9675  0.3524
  558MOL0     H76982  12.217   8.224   4.231  0.0320  0.0822  1.4980
  558MOL0     H76983  12.379   8.146   4.219  0.8218  2.3366  2.4140
  558MOL0     H76984  11.426   7.836   3.578 -1.7712 -1.4918 -1.4595
  558MOL0     H76985  11.185   7.790   3.527  2.5874 -0.6302 -0.5390
  558MOL0     H76986  10.735   7.995   3.636  0.9606  0.1191  0.4763
  558MOL0     H76987  10.505   8.001   3.566  2.5493  0.5591  1.3085
  558MOL0     H76988   8.760   7.388   4.246  1.0787 -0.0878 -2.3305
  558MOL0     H76989   8.596   7.499   4.404 -1.0405 -5.1136 -2.0531
  558MOL0     H76990   8.477   7.887   4.528  1.0613 -3.8232 -0.4358
  558MOL0     H76991   8.397   8.030   4.716 -2.1848  1.0777 -0.0126
  558MOL0     H76992   8.325   8.087   4.912  2.2836 -1.0724  1.4073
  558MOL0     H76993   8.175   8.108   5.003  0.1077 -2.3095  2.1473
  558MOL0     H76994   8.329   7.861   5.064  0.4934  0.5420  0.2210
  558MOL0     H76995   8.221   7.958   5.163  0.3891  1.0929  2.0106
  558MOL0     H76996   8.417   8.144   5.153  0.1650  0.1681  0.3009
  558MOL0     H76997   8.423   8.005   5.255 -1.1977 -0.4346  0.1802
  558MOL0     H76998   8.575   8.032   4.982 -0.6718 -1.2487 -1.4755
  558MOL0     H76999   8.542   7.877   5.057 -0.4778  0.8620 -2.5342
  558MOL0     H77000   8.862   8.084   5.270  2.3511 -0.3396 -2.2931
  558MOL0     H77001   8.061   7.764   4.748 -0.6244 -0.1108 -2.5704
  558MOL0     H77002   7.998   7.644   4.571  1.7171  0.2903  0.6663
  558MOL0     H77003   8.098   7.598   4.431  3.4092  1.3880 -0.0090
  558MOL0     H77004   8.112   7.500   4.579  0.2801 -3.1173 -4.6744
  559MOL0     O77005  10.309   0.710  11.121  0.3772  0.8056  0.3449
  559MOL0     C77006  10.223   0.692  11.209  0.4842 -0.4564  0.4657
  559MOL0     O77007  10.216   0.597  11.307  0.4283  0.8240 -0.4612
  559MOL0     C77008  10.315   0.513  11.321 -0.6843  0.1296 -0.3240
  559MOL0     C77009  10.441   0.547  11.369  0.8081  0.5699 -0.2074
  559MOL0     C77010  10.545   0.453  11.372 -0.0911  0.3237  0.7441
  559MOL0     C77011  10.524   0.326  11.330  0.9751 -0.2486 -0.3615
  559MOL0     O77012  10.613   0.219  11.324  0.0696  0.3931 -0.1513
  559MOL0     C77013  10.750   0.242  11.355 -0.2995  0.2858  0.3214
  559MOL0     C77014  10.807   0.105  11.360 -0.3175 -0.0814 -0.4106
  559MOL0     C77015  10.963   0.094  11.360  0.3902 -0.4451 -0.1091
  559MOL0     C77016  10.999  -0.043  11.404  0.1627  0.5158 -0.6101
  559MOL0     C77017  11.150  -0.049  11.413  0.5071 -0.2809 -0.3644
  559MOL0     C77018  11.209   0.031  11.538  0.0746  0.3271  0.3486
  559MOL0     C77019  11.351  -0.029  11.555  0.1572  0.8241 -0.6325
  559MOL0     C77020  11.421   0.036  11.662  0.0520 -0.2250 -0.6686
  559MOL0     N77021  11.531   0.119  11.607 -0.0827  0.7902 -0.4692
  559MOL0     C77022  11.665   0.092  11.616  0.7816  0.5795 -0.3776
  559MOL0     C77023  11.726   0.174  11.527  0.9103  0.0889 -0.1747
  559MOL0     C77024  11.871   0.195  11.506  1.2381 -0.8566  0.6556
  559MOL0     C77025  11.943   0.085  11.435  0.2342  0.6802 -0.8146
  559MOL0     C77026  11.869   0.027  11.314 -0.2985  0.1059  0.1685
  559MOL0     C77027  11.824   0.120  11.205  0.7699 -0.5764 -0.0323
  559MOL0     O77028  11.779   0.024  11.102  0.3346 -0.3029 -0.3341
  559MOL0     C77029  11.857  -0.008  10.996  0.3818  0.4625  0.3878
  559MOL0     C77030  11.987   0.015  10.992 -0.2174 -0.2902 -0.4157
  559MOL0     C77031  12.064  -0.024  10.880 -1.0800  0.0496 -0.4681
  559MOL0     C77032  12.209  -0.008  10.886 -0.5118 -0.0319  0.1699
  559MOL0     C77033  11.998  -0.083  10.768 -0.0123  0.7058 -0.9891
  559MOL0     C77034  12.068  -0.116  10.645  0.4310  0.1222 -0.7495
  559MOL0     O77035  12.000  -0.204  10.569 -0.0775  0.4922 -0.7691
  559MOL0     C77036  12.067  -0.270  10.471 -0.3745  0.3761 -0.8258
  559MOL0     C77037  12.084  -0.225  10.347 -0.4461 -0.1235  0.3665
  559MOL0     C77038  12.149  -0.299  10.247 -0.0951  0.1617  0.0812
  559MOL0     C77039  12.216  -0.413  10.283  0.3673 -0.4352  0.2499
  559MOL0     O77040  12.273  -0.495  10.181 -0.1184 -0.0892  0.2493
  559MOL0     C77041  12.317  -0.627  10.212 -0.2542 -0.3069 -0.1396
  559MOL0     C77042  12.358  -0.704  10.094 -0.3247  0.4085  0.5623
  559MOL0     C77043  12.491  -0.643  10.043 -0.0504 -0.5908  0.8397
  559MOL0     C77044  12.552  -0.739   9.938  0.9641 -0.2214 -0.3257
  559MOL0     C77045  12.654  -0.664   9.854  0.2077  0.1914 -0.4033
  559MOL0     C77046  12.783  -0.638   9.932 -0.0335 -0.5209  0.0312
  559MOL0     C77047  12.881  -0.554   9.846  0.2830 -0.8159  0.4220
  559MOL0     C77048  13.014  -0.519   9.914 -0.0291  1.2888  0.2929
  559MOL0    Cl77049  12.976  -0.427  10.060 -0.3294  0.0510 -0.2718
  559MOL0     C77050  12.187  -0.470  10.406 -1.0520 -0.0923  0.4013
  559MOL0     C77051  12.115  -0.398  10.502  1.0195  0.3104  0.3448
  559MOL0     O77052  12.174  -0.066  10.616  0.4719 -0.6135  0.2099
  559MOL0     C77053  11.862  -0.120  10.780  0.0282 -0.6793  0.3863
  559MOL0     C77054  11.794  -0.070  10.889  0.1820 -0.4029 -0.2821
  559MOL0     N77055  11.624   0.252  11.467 -0.1181  0.1880  0.4537
  559MOL0     N77056  11.512   0.225  11.526 -0.3157  0.0709  0.3259
  559MOL0     C77057  10.396   0.288  11.295 -0.3661 -0.0163  0.3299
  559MOL0     C77058  10.298   0.379  11.287  0.3172 -1.1950 -0.2950
  559MOL0     C77059  10.111   0.795  11.195  0.1930  0.1130 -0.5356
  559MOL0     C77060   9.986   0.759  11.250  0.3860 -0.0723  0.5195
  559MOL0     C77061   9.878   0.851  11.255 -0.6802  0.1983 -0.1881
  559MOL0     C77062   9.885   0.979  11.208  0.7498  0.3658 -0.5826
  559MOL0     O77063   9.783   1.070  11.214 -0.3910  0.6670  0.3592
  559MOL0     C77064   9.659   1.031  11.276 -1.4083  0.0313  0.3062
  559MOL0     C77065   9.574   1.157  11.255 -0.4364  0.3025  0.0497
  559MOL0     C77066   9.559   1.187  11.103  0.9278  0.1680 -0.4109
  559MOL0     C77067   9.464   1.300  11.072  0.1095 -0.4747 -0.3096
  559MOL0     C77068   9.539   1.420  11.094 -0.7263 -0.7908 -0.4390
  559MOL0     C77069   9.592   1.530  11.124  0.1811  0.5440  0.1063
  559MOL0     C77070  10.008   1.014  11.143 -0.4999  0.3203 -0.8075
  559MOL0     C77071  10.121   0.928  11.136 -1.1516  0.2334 -0.1570
  559MOL0     C77072  10.251   0.986  11.086  0.9362  0.6568 -0.6539
  559MOL0     H77073  10.460   0.643  11.414 -0.9027  1.4195 -1.2199
  559MOL0     H77074  10.642   0.482  11.411  0.8169 -0.9809 -0.4384
  559MOL0     H77075  10.756   0.297  11.449 -0.5343  0.3513  0.2981
  559MOL0     H77076  10.794   0.311  11.282  2.6611 -1.5225  0.2322
  559MOL0     H77077  10.769   0.075  11.459 -0.3287 -0.5106 -0.5436
  559MOL0     H77078  10.756   0.048  11.282 -1.5213 -3.0140  2.2676
  559MOL0     H77079  10.997   0.122  11.260  1.2672 -0.1369  0.2686
  559MOL0     H77080  11.007   0.166  11.430  2.1713 -1.1585 -0.4454
  559MOL0     H77081  10.946  -0.062  11.498 -1.2736  1.0821 -1.2773
  559MOL0     H77082  10.970  -0.107  11.319  1.7262 -1.3891  0.2130
  559MOL0     H77083  11.201  -0.012  11.324 -1.1426 -0.5260 -1.4462
  559MOL0     H77084  11.177  -0.154  11.427  1.1312 -0.2780 -1.4364
  559MOL0     H77085  11.209   0.136  11.507  0.2511  0.1314 -0.3413
  559MOL0     H77086  11.147   0.014  11.626  1.1405 -1.0390  0.8807
  559MOL0     H77087  11.404  -0.026  11.459  0.8073  2.3359 -0.2514
  559MOL0     H77088  11.338  -0.134  11.582  0.8118  0.6383 -1.0466
  559MOL0     H77089  11.348   0.090  11.723 -0.5903  2.1068 -3.3082
  559MOL0     H77090  11.459  -0.041  11.731  0.7264  0.3246 -0.4059
  559MOL0     H77091  11.724   0.030  11.683  0.9688  1.5628  0.3906
  559MOL0     H77092  11.899   0.223  11.608 -3.1608 -1.3411  2.1794
  559MOL0     H77093  11.879   0.285  11.445 -1.9735 -0.1964  1.0256
  559MOL0     H77094  12.042   0.119  11.403 -0.4465 -0.0813 -4.0317
  559MOL0     H77095  11.952   0.007  11.511 -1.2062  0.4739 -0.8324
  559MOL0     H77096  11.935  -0.044  11.264 -0.4284 -0.8367  1.2741
  559MOL0     H77097  11.782  -0.027  11.352  1.0679 -1.1321  1.6585
  559MOL0     H77098  11.740   0.179  11.243  0.3748 -0.7122 -0.6872
  559MOL0     H77099  11.905   0.190  11.182  1.8103 -1.4767  0.7662
  559MOL0     H77100  12.031   0.066  11.077 -1.9232  1.4828 -0.5472
  559MOL0     H77101  12.225   0.067  10.808 -4.5632 -0.8032 -1.6476
  559MOL0     H77102  12.259  -0.104  10.873 -0.5005 -0.0455  0.3074
  559MOL0     H77103  12.241   0.045  10.977  0.1408 -0.5152  0.2279
  559MOL0     H77104  12.047  -0.124  10.330  0.9826  0.8740  2.5890
  559MOL0     H77105  12.156  -0.281  10.140  1.2527 -0.6178  0.0209
  559MOL0     H77106  12.397  -0.625  10.287  1.2109 -0.1629 -1.6483
  559MOL0     H77107  12.229  -0.688  10.235  0.3357 -0.4559  1.9409
  559MOL0     H77108  12.364  -0.812  10.109 -2.3604  0.1692 -0.0843
  559MOL0     H77109  12.279  -0.686  10.021 -0.4140  0.6634  0.7207
  559MOL0     H77110  12.562  -0.643  10.126  0.4902 -2.3241  0.4007
  559MOL0     H77111  12.474  -0.548   9.991  1.1008 -0.7091  0.2304
  559MOL0     H77112  12.474  -0.767   9.867  0.2468  2.4013 -0.7068
  559MOL0     H77113  12.593  -0.825   9.990  1.9573  0.1463 -0.4807
  559MOL0     H77114  12.684  -0.718   9.764  2.5491  1.3960 -0.3982
  559MOL0     H77115  12.623  -0.564   9.824 -0.0466  1.8773  4.4932
  559MOL0     H77116  12.829  -0.733   9.962 -2.1188 -0.7536  2.9463
  559MOL0     H77117  12.767  -0.583  10.025 -0.3794 -0.6552  0.0504
  559MOL0     H77118  12.835  -0.465   9.801  0.7264 -0.7012  0.1899
  559MOL0     H77119  12.915  -0.617   9.763  0.1383  0.7926 -0.9114
  559MOL0     H77120  13.066  -0.461   9.837 -0.0715 -1.2700 -1.7799
  559MOL0     H77121  13.065  -0.611   9.945 -2.4674  0.8572  3.5763
  559MOL0     H77122  12.231  -0.567  10.426 -1.5092 -1.1161 -2.9076
  559MOL0     H77123  12.100  -0.450  10.596  1.4094 -0.5448 -0.0567
  559MOL0     H77124  11.812  -0.181  10.705  1.5978 -0.6244 -0.7470
  559MOL0     H77125  11.688  -0.092  10.898  0.4342 -1.5853  0.0174
  559MOL0     H77126  10.372   0.186  11.267  1.1141 -0.8099  1.7730
  559MOL0     H77127  10.197   0.352  11.257 -0.3798  0.8055  0.0461
  559MOL0     H77128   9.975   0.665  11.303  3.2643 -2.1748 -2.1754
  559MOL0     H77129   9.792   0.817  11.313 -1.4891  1.4763 -0.6014
  559MOL0     H77130   9.620   0.939  11.230  1.4819 -1.2808  0.2583
  559MOL0     H77131   9.681   1.013  11.382 -0.6325 -1.3997 -0.0672
  559MOL0     H77132   9.621   1.244  11.301  1.5839 -1.2464  1.0457
  559MOL0     H77133   9.476   1.137  11.300 -0.7350  0.8534 -0.3528
  559MOL0     H77134   9.655   1.215  11.058  2.9751 -1.8643  2.3328
  559MOL0     H77135   9.516   1.101  11.051  0.0814  1.8967 -2.7017
  559MOL0     H77136   9.373   1.284  11.132 -0.7985 -2.0300 -2.0130
  559MOL0     H77137   9.433   1.305  10.968  2.7581 -1.3945 -1.2114
  559MOL0     H77138   9.619   1.634  11.121 -3.0312  1.4696 -0.6866
  559MOL0     H77139  10.019   1.118  11.114 -0.3833  0.8363  1.0053
  559MOL0     H77140  10.328   0.986  11.164  0.9268 -0.5235 -0.6245
  559MOL0     H77141  10.293   0.921  11.009  0.6348  0.6859 -0.8417
  559MOL0     H77142  10.239   1.086  11.043  0.3263  0.5521 -0.7277
  560MOL0     O77143   6.559   3.856  10.181  0.4522 -0.0369 -0.3988
  560MOL0     C77144   6.584   3.807  10.294  0.8850 -0.5877  1.0184
  560MOL0     O77145   6.496   3.798  10.390 -0.0246 -0.2377  0.7994
  560MOL0     C77146   6.389   3.878  10.402  0.0062 -0.3535  0.0286
  560MOL0     C77147   6.263   3.821  10.394 -0.2284 -0.6569 -0.6222
  560MOL0     C77148   6.152   3.897  10.418  0.1516 -0.0038 -0.6684
  560MOL0     C77149   6.163   4.033  10.439 -0.2575 -0.6216  0.2953
  560MOL0     O77150   6.050   4.116  10.459 -0.1576 -0.3104 -0.3199
  560MOL0     C77151   5.918   4.058  10.482 -0.2302 -1.0646  0.0824
  560MOL0     C77152   5.836   4.026  10.356  0.0640  0.3441  0.5715
  560MOL0     C77153   5.715   3.929  10.371 -0.4165  0.4379 -0.1555
  560MOL0     C77154   5.676   3.879  10.229 -0.6308 -0.7056 -0.2646
  560MOL0     C77155   5.555   3.780  10.257 -1.2677 -0.3635 -0.4474
  560MOL0     C77156   5.477   3.748  10.130 -1.1159 -0.4334  0.0626
  560MOL0     C77157   5.357   3.651  10.167 -0.2410 -0.5110 -0.3519
  560MOL0     C77158   5.327   3.559  10.039 -0.0045 -0.2115  0.7743
  560MOL0     N77159   5.423   3.444  10.020  0.0641  0.0012 -0.2087
  560MOL0     C77160   5.425   3.337  10.105  0.1091 -0.3169 -1.2430
  560MOL0     C77161   5.544   3.272  10.089 -0.1750 -0.1829  0.1593
  560MOL0     C77162   5.602   3.170  10.182 -0.6960  0.8294  0.4779
  560MOL0     C77163   5.569   3.020  10.150  0.2811  0.3756  0.4288
  560MOL0     C77164   5.620   2.920  10.251  0.7974 -0.4725 -0.3322
  560MOL0     C77165   5.768   2.904  10.253 -0.2997 -0.6589 -0.6303
  560MOL0     O77166   5.813   2.896  10.116 -0.0743 -0.0991 -0.0136
  560MOL0     C77167   5.936   2.943  10.074  1.0452  0.1629 -0.1419
  560MOL0     C77168   6.008   2.855   9.992 -0.0472  1.2148  0.4285
  560MOL0     C77169   6.130   2.889   9.939 -0.5458 -0.2389 -0.1917
  560MOL0     C77170   6.206   2.799   9.839  0.0092  0.4913  0.2982
  560MOL0     C77171   6.194   3.012   9.987  0.3552  0.5856 -0.9354
  560MOL0     C77172   6.320   3.067   9.939  0.0537 -0.0752  0.3105
  560MOL0     O77173   6.337   3.204   9.965  0.3679  0.3481  0.2426
  560MOL0     C77174   6.460   3.258   9.958 -0.0266 -0.9830  0.4219
  560MOL0     C77175   6.500   3.295   9.827  0.3115 -0.7111  0.5556
  560MOL0     C77176   6.625   3.358   9.818  0.2665 -0.7032 -0.1232
  560MOL0     C77177   6.717   3.371   9.935 -0.8597  0.0835 -1.0513
  560MOL0     O77178   6.844   3.427   9.924 -0.9980 -0.2135 -0.1609
  560MOL0     C77179   6.890   3.457   9.790 -0.3588 -0.0853 -0.1610
  560MOL0     C77180   7.045   3.470   9.771  0.1735 -0.0483  0.6102
  560MOL0     C77181   7.120   3.387   9.880  0.7944  0.3049  0.0993
  560MOL0     C77182   7.270   3.402   9.866 -0.3122  0.2036  0.4496
  560MOL0     C77183   7.330   3.499   9.980  0.3391 -0.1780  0.5243
  560MOL0     C77184   7.265   3.635   9.981 -0.3567  0.0409  0.6088
  560MOL0     C77185   7.326   3.733  10.086 -0.6773 -0.5152 -0.4641
  560MOL0     C77186   7.460   3.800  10.044  0.4790 -0.0399  0.1219
  560MOL0    Cl77187   7.594   3.678  10.052  0.2275  0.1099  0.0805
  560MOL0     C77188   6.677   3.324  10.061  0.6656 -0.2335  0.1323
  560MOL0     C77189   6.544   3.276  10.070 -0.8227  1.5453  0.5274
  560MOL0     O77190   6.395   2.998   9.875  0.5064 -0.5153  0.2638
  560MOL0     C77191   6.126   3.092  10.073  0.3101  0.3654 -0.2095
  560MOL0     C77192   5.993   3.068  10.105 -0.2118 -0.4947  0.7069
  560MOL0     N77193   5.607   3.330   9.974  0.0182  0.4593  0.3963
  560MOL0     N77194   5.539   3.444   9.944 -0.5510  0.1762  0.2773
  560MOL0     C77195   6.292   4.095  10.453  0.0412  0.0650  0.4674
  560MOL0     C77196   6.407   4.014  10.448  0.6582  0.2131 -0.4082
  560MOL0     C77197   6.720   3.751  10.310  0.1247 -0.5121 -0.5367
  560MOL0     C77198   6.786   3.695  10.199 -0.4943  0.0994 -0.2144
  560MOL0     C77199   6.913   3.640  10.213  0.1274  0.6243 -0.2265
  560MOL0     C77200   6.993   3.641  10.331  0.7627 -0.8852 -0.2055
  560MOL0     O77201   7.108   3.585  10.334 -1.2921 -0.3734  0.0731
  560MOL0     C77202   7.130   3.451  10.364  1.2424  0.0994  0.1348
  560MOL0     C77203   7.244   3.424  10.466 -0.0279  0.4437  0.4328
  560MOL0     C77204   7.384   3.457  10.406 -0.8717 -0.3765 -0.1169
  560MOL0     C77205   7.495   3.446  10.504 -0.8146 -0.6869 -0.4196
  560MOL0     C77206   7.466   3.536  10.620  0.1126 -0.7225  0.6559
  560MOL0     C77207   7.434   3.607  10.718 -0.0689  0.3084  0.2845
  560MOL0     C77208   6.922   3.703  10.439 -1.1750  0.3127 -0.2305
  560MOL0     C77209   6.797   3.757  10.437 -0.3244  0.5483 -0.4252
  560MOL0     C77210   6.747   3.822  10.561  0.3978 -0.0951 -0.0776
  560MOL0     H77211   6.249   3.717  10.368 -1.8136 -0.3732 -0.9689
  560MOL0     H77212   6.062   3.839  10.403  1.5070 -1.6009 -3.4597
  560MOL0     H77213   5.858   4.128  10.542  1.3150 -0.7491  1.3292
  560MOL0     H77214   5.925   3.976  10.554 -0.3416  0.5613  2.0438
  560MOL0     H77215   5.792   4.120  10.321  1.7070  1.1196  0.5077
  560MOL0     H77216   5.906   3.982  10.285 -1.2573  1.5012 -1.5577
  560MOL0     H77217   5.763   3.852  10.431  2.8340  2.4674  0.0593
  560MOL0     H77218   5.625   3.975  10.412 -0.6182  1.2872 -1.4888
  560MOL0     H77219   5.647   3.970  10.176  1.0651  2.1453  3.2597
  560MOL0     H77220   5.758   3.820  10.185 -2.0526 -1.5173 -1.9702
  560MOL0     H77221   5.485   3.836  10.321 -0.8930  0.4781 -0.7543
  560MOL0     H77222   5.588   3.687  10.303  0.7709  0.5873  0.1062
  560MOL0     H77223   5.447   3.839  10.078 -1.5334  0.7912  2.3373
  560MOL0     H77224   5.560   3.711  10.068  1.3277  2.1494  1.5881
  560MOL0     H77225   5.268   3.711  10.190  0.7713  0.6296  0.7563
  560MOL0     H77226   5.382   3.590  10.254 -5.3501 -1.2416  0.9200
  560MOL0     H77227   5.226   3.519  10.055 -1.0544  2.1954  0.6104
  560MOL0     H77228   5.331   3.620   9.949 -0.2321 -1.3650 -0.0482
  560MOL0     H77229   5.357   3.313  10.186  0.9368  0.5366 -0.2638
  560MOL0     H77230   5.577   3.193  10.286 -0.2044  0.6288  0.6470
  560MOL0     H77231   5.711   3.177  10.172 -0.4872  1.4964  2.5903
  560MOL0     H77232   5.465   2.987  10.147  1.1979 -2.8784  0.5366
  560MOL0     H77233   5.588   2.994  10.045  0.2418  0.5054  0.3894
  560MOL0     H77234   5.588   2.958  10.348  0.2845  0.7503 -0.9609
  560MOL0     H77235   5.585   2.819  10.230 -0.1957  0.2436 -2.3383
  560MOL0     H77236   5.809   2.986  10.312 -3.1351 -0.8375  1.8461
  560MOL0     H77237   5.803   2.814  10.304 -1.3139 -1.4511 -1.2940
  560MOL0     H77238   5.960   2.765   9.954  0.2564  1.7977 -1.4897
  560MOL0     H77239   6.160   2.703   9.816  0.4415  0.5135 -0.7344
  560MOL0     H77240   6.312   2.782   9.862  0.5258  1.0658 -1.4488
  560MOL0     H77241   6.193   2.860   9.748  1.2197 -1.2402 -1.1119
  560MOL0     H77242   6.437   3.277   9.741  0.7596  2.0558 -0.4690
  560MOL0     H77243   6.655   3.393   9.719 -0.2575  0.0191 -0.0314
  560MOL0     H77244   6.867   3.366   9.733  0.1201 -0.1894 -0.1952
  560MOL0     H77245   6.841   3.536   9.733 -2.2677 -0.9975  0.1315
  560MOL0     H77246   7.068   3.426   9.673  0.6156  0.2438  0.5803
  560MOL0     H77247   7.073   3.575   9.771  1.9361 -0.4239 -1.9078
  560MOL0     H77248   7.099   3.282   9.858  0.3450  0.0849  1.5120
  560MOL0     H77249   7.095   3.403   9.985 -2.3919 -2.7370 -0.0258
  560MOL0     H77250   7.296   3.420   9.761  2.7714 -0.5473  0.9951
  560MOL0     H77251   7.311   3.302   9.882  1.1610  0.4301 -1.4664
  560MOL0     H77252   7.319   3.458  10.081 -0.8441 -0.7061  0.2003
  560MOL0     H77253   7.436   3.490   9.955  0.0706 -1.4827 -0.2465
  560MOL0     H77254   7.160   3.620  10.008  0.2241 -2.5177  1.6615
  560MOL0     H77255   7.274   3.683   9.883 -0.8651 -1.4051 -0.1735
  560MOL0     H77256   7.338   3.683  10.182 -0.8641 -0.5217 -0.4459
  560MOL0     H77257   7.255   3.813  10.108 -0.5740  0.7319 -3.9725
  560MOL0     H77258   7.466   3.884  10.112 -2.5046 -1.2027  2.0165
  560MOL0     H77259   7.452   3.841   9.943 -1.4876 -0.9317 -0.1393
  560MOL0     H77260   6.735   3.339  10.151 -0.2813 -1.0682  0.9054
  560MOL0     H77261   6.504   3.245  10.166 -1.9595  0.6009 -0.2234
  560MOL0     H77262   6.155   3.191  10.108  0.6583 -0.5809  2.4190
  560MOL0     H77263   5.937   3.139  10.165 -0.5603 -0.4312  0.3099
  560MOL0     H77264   6.295   4.201  10.476  2.1508  0.7671 -2.5058
  560MOL0     H77265   6.509   4.042  10.473  0.0785  1.4796  0.6290
  560MOL0     H77266   6.728   3.705  10.108  0.4746 -0.8303 -0.9650
  560MOL0     H77267   6.958   3.595  10.125  0.4787  1.6041 -0.5581
  560MOL0     H77268   7.038   3.401  10.397  0.7787  0.0066 -1.2335
  560MOL0     H77269   7.161   3.403  10.271 -0.8355 -1.4983  0.1820
  560MOL0     H77270   7.233   3.319  10.497 -2.1477  0.3218 -0.5960
  560MOL0     H77271   7.225   3.478  10.559  1.0615 -0.7258  1.3905
  560MOL0     H77272   7.403   3.380  10.330  2.8000  0.1224  0.1214
  560MOL0     H77273   7.381   3.562  10.376 -4.6092 -0.1880  0.4286
  560MOL0     H77274   7.590   3.451  10.450  0.1740  1.7712  1.3377
  560MOL0     H77275   7.496   3.345  10.546  0.5146 -1.0495 -1.2708
  560MOL0     H77276   7.414   3.673  10.800  0.2628 -1.9170  2.2576
  560MOL0     H77277   6.983   3.696  10.529 -1.2144  0.6444 -0.1785
  560MOL0     H77278   6.812   3.799  10.646  0.9196  2.7716  0.3990
  560MOL0     H77279   6.743   3.931  10.554 -1.0981 -0.2387 -3.9689
  560MOL0     H77280   6.644   3.787  10.572  0.0807  0.4563 -1.1595
  561MOL0     O77281   2.239   3.834   0.411 -0.5011  0.7011  0.1581
  561MOL0     C77282   2.172   3.835   0.514  0.6563  0.2175 -0.4192
  561MOL0     O77283   2.069   3.926   0.524 -0.5375  0.2364  0.3664
  561MOL0     C77284   2.072   4.038   0.446 -0.5287  0.0379  0.2048
  561MOL0     C77285   2.000   4.047   0.328 -0.6731  0.1772  0.6119
  561MOL0     C77286   1.983   4.165   0.251  0.0569 -0.2752  0.2003
  561MOL0     C77287   2.050   4.277   0.306 -0.4465  0.5998 -0.9200
  561MOL0     O77288   2.031   4.392   0.242  0.2095  0.3741  0.2315
  561MOL0     C77289   2.132   4.428   0.150 -0.1678 -0.0054 -0.0689
  561MOL0     C77290   2.257   4.481   0.221  0.6750  0.3686 -0.4941
  561MOL0     C77291   2.211   4.588   0.317  0.7589 -0.2037 -0.3434
  561MOL0     C77292   2.323   4.667   0.391  0.5080  0.3293  1.1121
  561MOL0     C77293   2.298   4.689   0.547 -0.4044 -0.1516  0.1768
  561MOL0     C77294   2.410   4.764   0.606 -0.7086 -0.1046 -0.3442
  561MOL0     C77295   2.550   4.694   0.594  0.0815 -0.4250 -0.0542
  561MOL0     C77296   2.663   4.748   0.682  0.4876  0.3661 -0.7608
  561MOL0     N77297   2.788   4.669   0.666  0.0964  0.3407  0.0446
  561MOL0     C77298   2.861   4.636   0.556  0.2787  0.1184  0.2092
  561MOL0     C77299   2.943   4.536   0.593  0.0424  0.1339 -0.4196
  561MOL0     C77300   3.038   4.461   0.497  1.1181 -0.3459 -0.6353
  561MOL0     C77301   3.182   4.493   0.531 -0.4822  0.1976  0.0551
  561MOL0     C77302   3.217   4.636   0.481 -0.2449  0.3851  0.4287
  561MOL0     C77303   3.351   4.691   0.518 -0.5945  0.1478  0.3513
  561MOL0     O77304   3.434   4.618   0.427  0.6876  1.2547  1.0107
  561MOL0     C77305   3.568   4.601   0.454  0.8919  1.2783  0.0095
  561MOL0     C77306   3.642   4.628   0.569  0.3747  0.5740  0.1241
  561MOL0     C77307   3.778   4.602   0.578  0.0050 -0.0146  0.1342
  561MOL0     C77308   3.839   4.636   0.708 -0.8235  0.2926  0.0366
  561MOL0     C77309   3.843   4.545   0.465 -0.2363 -0.6113  0.5854
  561MOL0     C77310   3.988   4.535   0.449 -0.7168  0.1448 -0.4153
  561MOL0     O77311   4.042   4.444   0.353  1.0827 -0.2113 -0.0146
  561MOL0     C77312   4.176   4.459   0.330 -0.0593  0.3369  0.1756
  561MOL0     C77313   4.218   4.590   0.296 -1.3287  0.8163 -0.6828
  561MOL0     C77314   4.349   4.608   0.252  0.3791 -0.7497  0.2232
  561MOL0     C77315   4.433   4.494   0.226 -0.5762  0.2211 -0.6936
  561MOL0     O77316   4.555   4.507   0.165  0.2847 -0.0658  0.4408
  561MOL0     C77317   4.585   4.616   0.073 -0.2580  0.1127 -0.0982
  561MOL0     C77318   4.637   4.539  -0.052 -0.8678 -0.5965  0.7676
  561MOL0     C77319   4.768   4.457  -0.024 -0.1151  0.1657  0.5052
  561MOL0     C77320   4.887   4.543   0.016  0.0932  0.5026  1.2099
  561MOL0     C77321   5.015   4.453   0.039  0.3176 -0.7645 -0.4567
  561MOL0     C77322   5.137   4.521   0.097  0.4881 -0.2510 -0.4628
  561MOL0     C77323   5.248   4.431   0.109 -0.7456 -0.3033 -0.4152
  561MOL0     C77324   5.382   4.473   0.049 -0.4228  0.8714  0.0558
  561MOL0    Cl77325   5.360   4.461  -0.135  0.1094  0.1223 -0.0692
  561MOL0     C77326   4.390   4.366   0.267  0.6400  0.5133 -0.2579
  561MOL0     C77327   4.257   4.349   0.319  0.2587  0.3886  1.4133
  561MOL0     O77328   4.059   4.595   0.526  0.0515 -0.0426 -0.6741
  561MOL0     C77329   3.769   4.514   0.348 -0.0269 -1.0788 -1.0038
  561MOL0     C77330   3.637   4.534   0.348  0.2645 -0.2909  0.2650
  561MOL0     N77331   2.927   4.501   0.726  0.2777 -0.8518 -0.5507
  561MOL0     N77332   2.835   4.585   0.765 -0.6048 -0.1879  0.1011
  561MOL0     C77333   2.126   4.270   0.428  0.6071 -0.2378 -0.8924
  561MOL0     C77334   2.131   4.150   0.500 -0.1692  0.8665 -0.0067
  561MOL0     C77335   2.186   3.737   0.631 -0.2267 -0.1505  0.3111
  561MOL0     C77336   2.119   3.763   0.755  0.5860  0.2894  0.2967
  561MOL0     C77337   2.143   3.678   0.862  0.8936  0.1903  0.3211
  561MOL0     C77338   2.225   3.568   0.865  0.5776 -0.0617  0.0951
  561MOL0     O77339   2.249   3.510   0.991  0.4245 -0.2318 -0.2277
  561MOL0     C77340   2.382   3.462   1.023 -0.1916 -0.1747 -0.3784
  561MOL0     C77341   2.400   3.366   1.144  0.0480 -1.4875  0.4254
  561MOL0     C77342   2.320   3.419   1.268 -0.2312  0.2045  0.0322
  561MOL0     C77343   2.378   3.355   1.393 -0.0147  0.4918  0.1383
  561MOL0     C77344   2.443   3.459   1.481  0.2917 -0.1133 -0.0505
  561MOL0     C77345   2.505   3.546   1.547  0.2725  0.7754 -0.6718
  561MOL0     C77346   2.290   3.546   0.746 -0.9080 -1.3203  0.6652
  561MOL0     C77347   2.274   3.627   0.630 -0.5882 -0.2211  0.2999
  561MOL0     C77348   2.342   3.579   0.508 -0.2435 -0.0271  0.9378
  561MOL0     H77349   1.956   3.951   0.301  0.1941 -0.3144  0.8999
  561MOL0     H77350   1.921   4.172   0.163 -0.5523 -0.6561  0.5850
  561MOL0     H77351   2.090   4.503   0.083  1.2977  4.6085  3.6768
  561MOL0     H77352   2.140   4.337   0.090 -3.6033 -0.0076 -0.7392
  561MOL0     H77353   2.293   4.394   0.276 -0.7754 -0.2163 -0.4437
  561MOL0     H77354   2.328   4.515   0.145  1.3517  0.8351  0.3238
  561MOL0     H77355   2.160   4.663   0.255 -1.0838  1.1209  2.5357
  561MOL0     H77356   2.137   4.549   0.388  1.9708 -5.4903 -1.5549
  561MOL0     H77357   2.404   4.594   0.385 -1.9416 -2.4316 -1.0941
  561MOL0     H77358   2.343   4.761   0.337 -1.0655  1.1989  1.9885
  561MOL0     H77359   2.291   4.584   0.578 -1.1832  0.1600  1.1012
  561MOL0     H77360   2.198   4.724   0.573 -0.6453 -1.1652  0.6902
  561MOL0     H77361   2.422   4.868   0.574  0.0968 -0.0582  0.0642
  561MOL0     H77362   2.384   4.773   0.712  1.3780  4.1533  0.0500
  561MOL0     H77363   2.577   4.702   0.488  0.8999  0.4376  0.2099
  561MOL0     H77364   2.526   4.592   0.626  0.5914 -0.2941  0.7727
  561MOL0     H77365   2.684   4.855   0.668  1.9477  0.3942  1.2843
  561MOL0     H77366   2.642   4.750   0.789  0.0234  2.1275 -0.8416
  561MOL0     H77367   2.844   4.672   0.455 -0.5968 -0.8237  0.0126
  561MOL0     H77368   3.016   4.473   0.391  0.4924 -1.1523 -0.6062
  561MOL0     H77369   3.029   4.353   0.507 -1.7803 -0.2634 -1.4816
  561MOL0     H77370   3.201   4.484   0.639  0.3995 -5.5770 -0.2645
  561MOL0     H77371   3.240   4.419   0.476 -0.0901  1.6727 -1.5928
  561MOL0     H77372   3.207   4.630   0.373 -0.2119 -2.2660  0.5152
  561MOL0     H77373   3.137   4.698   0.524 -1.0604  0.6533 -1.4199
  561MOL0     H77374   3.344   4.798   0.495 -1.7907 -0.3225 -1.7353
  561MOL0     H77375   3.380   4.664   0.620  0.7027 -1.3827 -0.3791
  561MOL0     H77376   3.590   4.671   0.655 -0.6062  0.9020 -0.6126
  561MOL0     H77377   3.892   4.545   0.736 -1.7704 -0.1405  0.4619
  561MOL0     H77378   3.754   4.646   0.777  0.7071 -3.0580  2.6816
  561MOL0     H77379   3.903   4.724   0.700  0.7800 -0.5980  2.1536
  561MOL0     H77380   4.161   4.681   0.313 -0.3276  2.1302 -3.6831
  561MOL0     H77381   4.380   4.711   0.235  0.2769 -0.9390 -1.2553
  561MOL0     H77382   4.497   4.676   0.047 -1.7884 -1.6358  0.8185
  561MOL0     H77383   4.667   4.667   0.124  0.3729 -2.4830  1.6590
  561MOL0     H77384   4.560   4.473  -0.094  1.0803 -0.5763 -3.3181
  561MOL0     H77385   4.645   4.606  -0.138 -2.1613 -1.3809 -0.0034
  561MOL0     H77386   4.796   4.409  -0.119 -0.5628 -1.1938  1.0375
  561MOL0     H77387   4.757   4.371   0.043 -2.1434  0.0403  0.0947
  561MOL0     H77388   4.863   4.582   0.116 -3.1636 -0.8522  1.0800
  561MOL0     H77389   4.899   4.627  -0.053  1.8732 -0.5094  0.2249
  561MOL0     H77390   4.991   4.362   0.094  2.2496 -1.9288 -1.4129
  561MOL0     H77391   5.045   4.419  -0.061 -2.0270 -1.5893 -0.9225
  561MOL0     H77392   5.112   4.569   0.192  0.7329 -3.1896  1.1999
  561MOL0     H77393   5.143   4.609   0.032 -1.2687 -0.0497 -0.3949
  561MOL0     H77394   5.234   4.324   0.092  0.9185 -0.3523 -1.7821
  561MOL0     H77395   5.269   4.431   0.217  0.2628  1.6768 -0.5537
  561MOL0     H77396   5.452   4.400   0.091 -2.1509  1.3921  4.4858
  561MOL0     H77397   5.407   4.571   0.089 -0.4958  0.5183  1.0134
  561MOL0     H77398   4.456   4.282   0.254  4.6385  2.2973  4.8192
  561MOL0     H77399   4.212   4.252   0.333  1.0382  0.0046  1.3171
  561MOL0     H77400   3.820   4.467   0.265  1.8366 -0.8357 -0.0388
  561MOL0     H77401   3.589   4.518   0.251  0.4494 -1.4794  0.3584
  561MOL0     H77402   2.177   4.358   0.466 -0.4865 -0.8324  2.3063
  561MOL0     H77403   2.189   4.139   0.591 -0.4130  4.0250  0.6391
  561MOL0     H77404   2.043   3.837   0.773  0.0446  0.3403 -1.8743
  561MOL0     H77405   2.078   3.706   0.944  2.1315  1.8368  0.7859
  561MOL0     H77406   2.427   3.424   0.931 -1.4465 -0.8068 -0.7396
  561MOL0     H77407   2.451   3.543   1.048 -0.1998 -1.4080  5.0189
  561MOL0     H77408   2.504   3.342   1.167  0.5530  0.4948  0.4120
  561MOL0     H77409   2.359   3.278   1.095 -1.6520  0.2158 -1.4122
  561MOL0     H77410   2.329   3.528   1.263 -2.1875  0.3563 -2.8772
  561MOL0     H77411   2.211   3.414   1.262 -0.3013 -0.1434  1.3551
  561MOL0     H77412   2.446   3.271   1.376 -1.1541 -0.4314  0.0251
  561MOL0     H77413   2.299   3.310   1.453 -0.2698  0.1531 -0.4547
  561MOL0     H77414   2.557   3.616   1.609  1.1874  0.6420 -1.2702
  561MOL0     H77415   2.347   3.454   0.734  1.1687  0.1621 -2.0890
  561MOL0     H77416   2.414   3.657   0.481 -1.7883  1.7179  1.6089
  561MOL0     H77417   2.390   3.483   0.529 -1.9596 -0.4132  3.5313
  561MOL0     H77418   2.260   3.561   0.438 -1.5760 -0.9531  2.6646
  562MOL0     O77419   5.464   8.760   5.853  0.0390 -0.1897  0.0237
  562MOL0     C77420   5.515   8.692   5.763 -0.4298 -0.1868 -0.6367
  562MOL0     O77421   5.504   8.708   5.627 -0.6317  1.2664 -0.1844
  562MOL0     C77422   5.427   8.809   5.573 -0.8354  0.7366 -0.5414
  562MOL0     C77423   5.479   8.847   5.448 -0.0889 -0.1518 -0.2930
  562MOL0     C77424   5.417   8.952   5.387 -0.4415 -0.2383  0.3231
  562MOL0     C77425   5.302   9.005   5.440  0.5842  0.0164  0.2135
  562MOL0     O77426   5.220   9.079   5.367 -0.3771  0.0243 -0.5333
  562MOL0     C77427   5.280   9.186   5.290  0.6740  0.1048 -0.1961
  562MOL0     C77428   5.179   9.206   5.180 -0.5220  0.9054 -0.2935
  562MOL0     C77429   5.069   9.294   5.203 -0.3709 -0.3516  1.0442
  562MOL0     C77430   4.957   9.227   5.287  0.5060 -0.3733  0.0117
  562MOL0     C77431   4.886   9.327   5.381 -0.3073 -0.9845  0.2433
  562MOL0     C77432   4.803   9.428   5.302  1.0356 -0.6158 -0.4407
  562MOL0     C77433   4.658   9.383   5.293 -0.0578  0.3345 -0.5723
  562MOL0     C77434   4.579   9.474   5.203 -0.0030  0.0104  0.9615
  562MOL0     N77435   4.551   9.603   5.259 -1.0218  0.0004  0.7492
  562MOL0     C77436   4.446   9.647   5.327  0.1943  0.1834 -0.9938
  562MOL0     C77437   4.469   9.779   5.354 -0.7097  0.0811  0.2973
  562MOL0     C77438   4.391   9.868   5.447  0.5098 -0.7602  1.2293
  562MOL0     C77439   4.437   9.878   5.592 -0.5632  0.4913 -0.1864
  562MOL0     C77440   4.422   9.749   5.669  0.9296 -0.4966  0.2552
  562MOL0     C77441   4.376   9.770   5.814  0.0505 -0.5231 -1.1088
  562MOL0     O77442   4.451   9.851   5.895 -0.0756  0.5417 -0.0717
  562MOL0     C77443   4.575   9.797   5.915 -0.1307  0.1236 -0.0937
  562MOL0     C77444   4.599   9.674   5.980 -0.1153  0.0937  0.6513
  562MOL0     C77445   4.725   9.617   6.008  0.5606  0.0578  0.4957
  562MOL0     C77446   4.725   9.490   6.089  0.5021  0.1118  0.6656
  562MOL0     C77447   4.836   9.688   5.953  0.8129  0.1389 -0.3047
  562MOL0     C77448   4.973   9.635   5.959 -0.5407 -0.2908 -0.8030
  562MOL0     O77449   5.080   9.717   5.944 -0.8999 -0.7861 -0.4579
  562MOL0     C77450   5.211   9.678   5.953 -0.6324 -0.3235  0.0633
  562MOL0     C77451   5.299   9.742   5.864 -0.4099 -0.1142 -0.4115
  562MOL0     C77452   5.433   9.699   5.857 -0.6028  0.1481 -0.2928
  562MOL0     C77453   5.485   9.613   5.954  0.1174  0.2379  0.7454
  562MOL0     O77454   5.619   9.562   5.947  1.0010 -0.0280  0.5375
  562MOL0     C77455   5.681   9.599   5.825 -0.5683 -0.7942  0.6497
  562MOL0     C77456   5.814   9.516   5.812 -0.0816 -0.5881 -0.8823
  562MOL0     C77457   5.915   9.578   5.905 -0.5610  0.3816 -0.0765
  562MOL0     C77458   6.050   9.509   5.887  1.2912 -0.1819  1.1093
  562MOL0     C77459   6.143   9.531   5.997  0.1512 -0.0668 -1.1718
  562MOL0     C77460   6.286   9.482   5.957 -0.0732  0.7063 -0.4170
  562MOL0     C77461   6.375   9.503   6.080  0.3006 -0.6278 -0.3055
  562MOL0     C77462   6.525   9.506   6.037 -0.6908  0.1676 -0.5325
  562MOL0    Cl77463   6.584   9.662   5.955  0.0509  0.5636 -0.4064
  562MOL0     C77464   5.402   9.567   6.059  0.7460  0.8054  0.0996
  562MOL0     C77465   5.265   9.597   6.056  0.2741 -0.9294 -0.9355
  562MOL0     O77466   4.987   9.510   5.980  0.4883 -0.1995  0.1946
  562MOL0     C77467   4.815   9.808   5.880 -0.1417  0.5209 -0.1864
  562MOL0     C77468   4.690   9.862   5.865  0.4434  0.1181  0.0016
  562MOL0     N77469   4.591   9.811   5.295  0.6213  0.0806  0.2477
  562MOL0     N77470   4.638   9.712   5.233  0.5321 -0.2032 -0.1111
  562MOL0     C77471   5.246   8.959   5.560 -0.7217 -0.4718  0.7544
  562MOL0     C77472   5.314   8.862   5.633 -0.3035  0.4718  0.7335
  562MOL0     C77473   5.602   8.582   5.813 -0.0598  0.2827 -0.0416
  562MOL0     C77474   5.677   8.610   5.933 -0.2572  0.5379 -0.7024
  562MOL0     C77475   5.766   8.514   5.989 -0.3036 -0.5278 -0.0062
  562MOL0     C77476   5.772   8.388   5.930 -0.5677  1.1907  1.2404
  562MOL0     O77477   5.861   8.286   5.972 -0.4684 -0.9684 -0.0583
  562MOL0     C77478   5.929   8.292   6.102 -0.1569  0.0236 -1.0557
  562MOL0     C77479   6.051   8.201   6.105 -0.2796  0.3622  1.0161
  562MOL0     C77480   6.013   8.077   6.190 -0.0670 -0.1692  0.8641
  562MOL0     C77481   6.119   7.971   6.164 -0.1056 -0.1806  0.9444
  562MOL0     C77482   6.249   8.010   6.220 -0.8679  0.6098  0.4931
  562MOL0     C77483   6.356   8.042   6.267 -0.5338 -0.4271  0.8926
  562MOL0     C77484   5.705   8.367   5.813  0.2863  0.3217  0.4393
  562MOL0     C77485   5.619   8.457   5.752  1.0642  0.3179 -0.1990
  562MOL0     C77486   5.538   8.422   5.631 -0.1284  0.2071 -0.1623
  562MOL0     H77487   5.564   8.803   5.396 -0.3448  1.6692 -2.4078
  562MOL0     H77488   5.455   8.986   5.291  0.4092  0.6921  0.9781
  562MOL0     H77489   5.376   9.164   5.242  1.5708  0.1790  1.4865
  562MOL0     H77490   5.285   9.282   5.343  0.3146  1.1753 -2.0252
  562MOL0     H77491   5.247   9.236   5.100  0.6018 -4.2291 -1.6539
  562MOL0     H77492   5.140   9.106   5.157  2.4339 -1.4913  3.7783
  562MOL0     H77493   5.103   9.383   5.257 -1.7809  0.6456  0.3737
  562MOL0     H77494   5.022   9.328   5.110 -0.3923 -1.4176  0.6554
  562MOL0     H77495   4.882   9.179   5.223 -1.7303  0.2579  2.0107
  562MOL0     H77496   5.001   9.149   5.350  0.4235  2.6592  4.2521
  562MOL0     H77497   4.970   9.382   5.423  1.2989 -2.7406 -0.5262
  562MOL0     H77498   4.836   9.278   5.465 -1.3992 -0.2899  0.0229
  562MOL0     H77499   4.801   9.525   5.351  1.8081  0.3942 -2.2810
  562MOL0     H77500   4.840   9.435   5.199 -0.1263 -1.5807 -0.9479
  562MOL0     H77501   4.621   9.361   5.394  1.6461 -1.5998 -0.3052
  562MOL0     H77502   4.669   9.284   5.248  3.0380  1.0893 -1.7006
  562MOL0     H77503   4.630   9.486   5.107  0.4975 -1.6739  0.9746
  562MOL0     H77504   4.484   9.425   5.181  1.0174 -1.3640 -0.6170
  562MOL0     H77505   4.355   9.592   5.350 -0.0351  0.2649 -1.6724
  562MOL0     H77506   4.289   9.831   5.461 -0.3356  0.8437 -0.3067
  562MOL0     H77507   4.382   9.969   5.406  0.8507 -0.1705  2.5558
  562MOL0     H77508   4.538   9.918   5.601  0.5780 -2.0539 -0.8011
  562MOL0     H77509   4.365   9.945   5.640 -2.2391 -2.3676  1.5226
  562MOL0     H77510   4.349   9.681   5.624 -0.8744  1.7295 -0.3837
  562MOL0     H77511   4.515   9.693   5.661 -1.4534 -4.7959 -0.7988
  562MOL0     H77512   4.280   9.823   5.819  0.0112 -0.6419 -0.4605
  562MOL0     H77513   4.341   9.677   5.860  0.0702 -0.1184 -0.2390
  562MOL0     H77514   4.521   9.614   6.027  0.0320  0.4960  1.4277
  562MOL0     H77515   4.768   9.521   6.185  0.6307 -0.9989  0.9849
  562MOL0     H77516   4.784   9.406   6.053 -1.2111 -0.2393 -1.5337
  562MOL0     H77517   4.624   9.460   6.120  0.6941 -1.0965  0.1770
  562MOL0     H77518   5.269   9.822   5.797 -1.5526  1.2439  1.5889
  562MOL0     H77519   5.487   9.742   5.773  1.1649  1.8542  1.5991
  562MOL0     H77520   5.619   9.576   5.738 -2.6812 -0.5368  2.0172
  562MOL0     H77521   5.697   9.707   5.828 -1.2286 -0.6897  0.6749
  562MOL0     H77522   5.791   9.414   5.843 -2.7052 -0.9935 -3.7330
  562MOL0     H77523   5.854   9.513   5.710 -0.8011 -1.3783 -1.1535
  562MOL0     H77524   5.874   9.557   6.004  0.7683 -2.1952  0.0156
  562MOL0     H77525   5.931   9.686   5.896 -2.0853  0.6289 -0.0420
  562MOL0     H77526   6.094   9.565   5.803 -0.2718 -0.0175  0.3717
  562MOL0     H77527   6.021   9.406   5.862  0.0332  0.6416 -1.0298
  562MOL0     H77528   6.153   9.634   6.031 -2.2970 -0.4609  1.0282
  562MOL0     H77529   6.107   9.478   6.086 -1.8878  0.3252 -1.7353
  562MOL0     H77530   6.329   9.547   5.881  3.2276 -0.4012  0.3534
  562MOL0     H77531   6.288   9.377   5.926 -1.7645  0.1701  1.0555
  562MOL0     H77532   6.366   9.427   6.158  1.1166  0.0210  0.4351
  562MOL0     H77533   6.342   9.600   6.117 -1.4725 -1.4120  0.3009
  562MOL0     H77534   6.534   9.416   5.975  1.6103 -1.7985  2.3220
  562MOL0     H77535   6.583   9.493   6.129 -0.7598  0.4135 -0.4546
  562MOL0     H77536   5.450   9.504   6.133  0.5423  0.0103 -0.4315
  562MOL0     H77537   5.205   9.550   6.133  0.7512  0.5678  0.4113
  562MOL0     H77538   4.902   9.857   5.837  0.7155 -0.8346 -0.0425
  562MOL0     H77539   4.676   9.949   5.802  0.4723  0.0980 -0.0337
  562MOL0     H77540   5.151   8.998   5.595 -1.1024 -2.9448  2.7448
  562MOL0     H77541   5.276   8.825   5.727 -3.1763  0.6424 -0.2581
  562MOL0     H77542   5.673   8.698   5.996 -0.6067 -1.2585  1.9456
  562MOL0     H77543   5.825   8.532   6.078  1.7988  0.0324 -1.4419
  562MOL0     H77544   5.973   8.392   6.106  2.9427 -1.2632  0.7224
  562MOL0     H77545   5.867   8.280   6.191 -0.4887 -1.4723 -1.4610
  562MOL0     H77546   6.138   8.249   6.151  0.0747  1.1463 -0.3935
  562MOL0     H77547   6.084   8.168   6.006  2.5840 -2.3772  2.6917
  562MOL0     H77548   5.999   8.108   6.294 -2.7996 -0.5374  0.6769
  562MOL0     H77549   5.924   8.026   6.153  0.9434 -0.4090 -1.4052
  562MOL0     H77550   6.124   7.957   6.056  0.9921 -2.7239  1.2667
  562MOL0     H77551   6.080   7.881   6.211 -2.7431 -0.2750 -1.1870
  562MOL0     H77552   6.445   8.081   6.311  2.1502 -3.6027 -1.1861
  562MOL0     H77553   5.727   8.276   5.759 -2.5358  1.8443 -3.7982
  562MOL0     H77554   5.524   8.314   5.621 -5.8527  0.7227 -1.5821
  562MOL0     H77555   5.433   8.449   5.644  0.7448  2.2966  5.2757
  562MOL0     H77556   5.579   8.449   5.534 -1.0004 -2.9219 -1.5408
  563MOL0     O77557   2.524   8.212   2.637  0.5570  0.7395 -0.2046
  563MOL0     C77558   2.604   8.129   2.681  0.6754  0.4147  0.5792
  563MOL0     O77559   2.573   8.029   2.773  0.1532  0.0998 -0.6071
  563MOL0     C77560   2.480   8.043   2.881  0.6481  1.1471 -0.0513
  563MOL0     C77561   2.439   8.156   2.955  0.0822 -0.7121 -0.0562
  563MOL0     C77562   2.370   8.145   3.077  0.2031  0.1980  0.0911
  563MOL0     C77563   2.315   8.023   3.112  0.1028  0.8769  0.3880
  563MOL0     O77564   2.223   7.996   3.213  0.3055  0.4896  0.6200
  563MOL0     C77565   2.162   8.097   3.292  0.2726 -0.4631  0.2686
  563MOL0     C77566   2.032   8.167   3.235 -0.3811  0.2402  0.3171
  563MOL0     C77567   1.969   8.265   3.323  0.1649  0.1805 -0.3974
  563MOL0     C77568   1.867   8.199   3.423  0.8155  0.0064 -0.0160
  563MOL0     C77569   1.775   8.306   3.482 -0.1358  0.0593  0.4317
  563MOL0     C77570   1.665   8.248   3.578  1.1669  0.2986  0.5694
  563MOL0     C77571   1.592   8.357   3.646  0.0575  0.6895 -0.0822
  563MOL0     C77572   1.507   8.314   3.764  0.0629 -0.8430  0.0598
  563MOL0     N77573   1.445   8.436   3.831  0.3509 -1.0777 -0.7237
  563MOL0     C77574   1.465   8.575   3.797  0.1884  0.3558  0.0285
  563MOL0     C77575   1.400   8.636   3.903  0.1256  0.0249  0.0731
  563MOL0     C77576   1.375   8.780   3.929 -0.6358 -0.2888 -0.4022
  563MOL0     C77577   1.504   8.862   3.929  1.0605  0.2378  0.7976
  563MOL0     C77578   1.615   8.827   4.025 -0.0380  0.0364 -0.4002
  563MOL0     C77579   1.725   8.934   4.042  0.4636 -0.0544 -0.3544
  563MOL0     O77580   1.829   8.887   4.129 -0.1830 -0.1903 -0.2620
  563MOL0     C77581   1.925   8.983   4.133 -0.2553 -0.1219 -0.2127
  563MOL0     C77582   2.008   9.014   4.028 -0.2096  0.7125  0.4592
  563MOL0     C77583   2.114   9.107   4.031 -0.1884  0.6622 -0.1660
  563MOL0     C77584   2.195   9.110   3.899  0.8577  0.2913 -0.4764
  563MOL0     C77585   2.135   9.185   4.150 -0.4224  0.1445 -0.0267
  563MOL0     C77586   2.249   9.285   4.163  0.1169 -0.2098 -0.2493
  563MOL0     O77587   2.251   9.343   4.283  0.0733  0.4216 -0.4784
  563MOL0     C77588   2.339   9.449   4.296 -0.0730 -0.2835  0.3590
  563MOL0     C77589   2.296   9.584   4.294  0.3673  0.5384  0.4206
  563MOL0     C77590   2.380   9.693   4.282 -0.0931  0.4686  0.0640
  563MOL0     C77591   2.521   9.674   4.296 -0.3458  0.0895  0.5919
  563MOL0     O77592   2.608   9.780   4.273  0.0837  0.5818 -0.2687
  563MOL0     C77593   2.566   9.914   4.250 -0.4406  0.6854 -0.2950
  563MOL0     C77594   2.675   9.974   4.158  1.0855 -0.8763 -0.7780
  563MOL0     C77595   2.686  10.137   4.165 -0.9625 -0.4034  0.1547
  563MOL0     C77596   2.547  10.198   4.145  0.2635 -0.3027 -1.1687
  563MOL0     C77597   2.558  10.357   4.138  0.0471  0.7320  0.0742
  563MOL0     C77598   2.674  10.422   4.218 -0.6817  0.3389 -0.0953
  563MOL0     C77599   2.650  10.577   4.210 -0.6744  0.7613 -0.3829
  563MOL0     C77600   2.781  10.652   4.244 -0.3498 -1.0790  0.1742
  563MOL0    Cl77601   2.845  10.580   4.400 -0.0462 -0.2046  0.6319
  563MOL0     C77602   2.568   9.541   4.319  0.2818 -0.9705  0.3941
  563MOL0     C77603   2.481   9.430   4.306  0.0696 -0.5255 -0.1186
  563MOL0     O77604   2.324   9.300   4.068 -0.7099  0.2976 -0.3717
  563MOL0     C77605   2.044   9.155   4.257  0.2768 -0.4154  0.6158
  563MOL0     C77606   1.936   9.065   4.246 -0.0361  0.0593 -0.6220
  563MOL0     N77607   1.358   8.544   3.998  0.1335  0.9930 -0.3300
  563MOL0     N77608   1.394   8.420   3.957  0.4764  0.3366  1.7363
  563MOL0     C77609   2.350   7.906   3.044 -0.5894 -0.6577 -0.4912
  563MOL0     C77610   2.424   7.918   2.928  0.4663 -0.2790  0.2883
  563MOL0     C77611   2.742   8.140   2.634  0.1689  0.2509  0.6871
  563MOL0     C77612   2.840   8.070   2.703  0.0287 -0.6669 -0.7080
  563MOL0     C77613   2.977   8.073   2.669  0.3860 -0.8548 -0.5863
  563MOL0     C77614   3.010   8.145   2.553 -1.2070 -0.1104 -0.3746
  563MOL0     O77615   3.148   8.149   2.529  0.1392  0.1672  0.2112
  563MOL0     C77616   3.198   8.241   2.427  0.9200 -0.4700 -0.7780
  563MOL0     C77617   3.354   8.265   2.433 -0.0237 -0.4935 -1.1619
  563MOL0     C77618   3.388   8.304   2.573  0.1189 -0.0061  0.1819
  563MOL0     C77619   3.542   8.325   2.594  0.3392 -1.0076  0.2446
  563MOL0     C77620   3.578   8.337   2.732  0.6220  0.1610 -0.7022
  563MOL0     C77621   3.604   8.350   2.851  0.3191 -1.0260 -0.3738
  563MOL0     C77622   2.916   8.215   2.479  0.2374  0.6870 -0.1061
  563MOL0     C77623   2.783   8.218   2.517  0.2703 -0.0412  0.0296
  563MOL0     C77624   2.693   8.304   2.423 -0.7873  0.3176 -0.4531
  563MOL0     H77625   2.474   8.254   2.924  1.4144 -1.2459 -0.3299
  563MOL0     H77626   2.353   8.235   3.136  0.6169  2.0402 -2.4274
  563MOL0     H77627   2.241   8.167   3.318  1.5308 -0.7565 -2.4443
  563MOL0     H77628   2.136   8.041   3.382  0.1004  1.8886  1.7599
  563MOL0     H77629   2.065   8.217   3.144  1.4207 -2.0508 -0.3745
  563MOL0     H77630   1.970   8.084   3.201  1.7631 -0.5039 -2.0874
  563MOL0     H77631   2.046   8.324   3.374 -0.2820  4.4582 -4.0153
  563MOL0     H77632   1.911   8.329   3.256 -2.1435  1.1572  2.2820
  563MOL0     H77633   1.824   8.115   3.367  0.1231 -0.6404  1.4564
  563MOL0     H77634   1.933   8.157   3.499 -0.0844  0.8963  1.2867
  563MOL0     H77635   1.725   8.359   3.401  0.2894 -1.6749 -1.0255
  563MOL0     H77636   1.836   8.378   3.537  0.4878  0.0480 -0.2386
  563MOL0     H77637   1.603   8.190   3.508  0.6442 -0.7399  1.8569
  563MOL0     H77638   1.716   8.180   3.647  0.8034 -0.5569  0.0149
  563MOL0     H77639   1.535   8.410   3.569 -0.8128 -1.9441 -1.3533
  563MOL0     H77640   1.661   8.430   3.689 -3.1961  1.9629  3.5906
  563MOL0     H77641   1.439   8.232   3.737  0.1898 -1.1446  0.6205
  563MOL0     H77642   1.566   8.259   3.839 -0.8453 -2.6711 -0.4894
  563MOL0     H77643   1.521   8.606   3.709  0.6325 -0.5611 -0.0261
  563MOL0     H77644   1.329   8.788   4.028  0.5727  1.1788  0.0859
  563MOL0     H77645   1.310   8.818   3.850 -1.5092  0.6287  0.7152
  563MOL0     H77646   1.534   8.876   3.825 -0.0488 -0.5248  0.3640
  563MOL0     H77647   1.472   8.962   3.960 -0.4221 -0.5776  2.0112
  563MOL0     H77648   1.564   8.817   4.121 -0.7539  0.9987 -0.6643
  563MOL0     H77649   1.663   8.734   3.994  0.5286  0.6356 -1.4025
  563MOL0     H77650   1.769   8.967   3.948  5.4763 -0.5712  1.5185
  563MOL0     H77651   1.672   9.019   4.085 -2.5203 -1.6655 -0.5756
  563MOL0     H77652   1.988   8.963   3.934 -0.7645  1.2362  0.2866
  563MOL0     H77653   2.169   9.206   3.852 -2.9751  0.3320  1.2822
  563MOL0     H77654   2.164   9.031   3.831 -3.1856  0.6117  0.6869
  563MOL0     H77655   2.300   9.098   3.926  0.0627 -4.8712  1.3497
  563MOL0     H77656   2.191   9.611   4.286  0.7730  1.5334 -2.3025
  563MOL0     H77657   2.339   9.793   4.289  2.3191  1.5476 -0.0635
  563MOL0     H77658   2.472   9.936   4.199  0.3113 -0.7788 -2.4357
  563MOL0     H77659   2.580   9.963   4.347 -0.8878 -0.2262  0.2536
  563MOL0     H77660   2.771   9.931   4.187  0.5687 -1.0540  0.8128
  563MOL0     H77661   2.653   9.933   4.059 -1.4888 -1.2695 -0.1393
  563MOL0     H77662   2.763  10.172   4.095  0.9236 -3.3982  0.5149
  563MOL0     H77663   2.732  10.158   4.263  0.1216 -0.3617 -0.3437
  563MOL0     H77664   2.485  10.175   4.232  1.9980  0.4263  0.3014
  563MOL0     H77665   2.508  10.152   4.053  0.7842  0.2573 -1.6820
  563MOL0     H77666   2.580  10.373   4.032 -1.1293 -2.8581 -0.8744
  563MOL0     H77667   2.459  10.394   4.165 -1.2710 -2.0710 -0.4589
  563MOL0     H77668   2.774  10.387   4.190 -0.7284 -1.0208  1.2791
  563MOL0     H77669   2.669  10.387   4.322 -2.3376  0.4035 -0.1208
  563MOL0     H77670   2.569  10.607   4.278  0.4951  2.7016  0.2424
  563MOL0     H77671   2.616  10.591   4.108  0.9753  0.4509 -1.0165
  563MOL0     H77672   2.774  10.761   4.242 -0.1291 -1.0615  0.3190
  563MOL0     H77673   2.847  10.629   4.160 -0.6577 -0.1348 -0.3433
  563MOL0     H77674   2.673   9.519   4.334  2.0104  3.9171 -1.9831
  563MOL0     H77675   2.514   9.327   4.320 -2.4098 -1.2944  0.7519
  563MOL0     H77676   2.052   9.203   4.354  1.2152  1.5785 -0.4031
  563MOL0     H77677   1.867   9.051   4.328 -0.1960 -0.9476 -0.9134
  563MOL0     H77678   2.309   7.811   3.079  0.5227 -0.2844  2.0486
  563MOL0     H77679   2.436   7.828   2.869 -0.0481  0.7115 -1.3934
  563MOL0     H77680   2.823   8.017   2.797  2.8154 -0.2521  0.1439
  563MOL0     H77681   3.058   8.030   2.726  0.1993  0.0416  0.4018
  563MOL0     H77682   3.167   8.214   2.326 -0.4844  1.9238 -1.0496
  563MOL0     H77683   3.149   8.337   2.443 -1.9269 -1.7313 -1.3582
  563MOL0     H77684   3.379   8.346   2.365 -0.3136  1.6759  1.1525
  563MOL0     H77685   3.416   8.179   2.403  2.6752  1.0442 -0.3351
  563MOL0     H77686   3.332   8.393   2.605  0.5606  0.6179 -0.7261
  563MOL0     H77687   3.363   8.218   2.635 -0.6708  0.9076  1.1719
  563MOL0     H77688   3.565   8.424   2.553 -2.3874  0.2727  1.5310
  563MOL0     H77689   3.590   8.247   2.535 -1.0203 -0.7687 -1.2401
  563MOL0     H77690   3.610   8.365   2.957 -0.6107  3.3171 -0.7340
  563MOL0     H77691   2.953   8.267   2.391  1.6230 -0.0369  0.0214
  563MOL0     H77692   2.630   8.376   2.477 -1.5526  0.3300 -1.3315
  563MOL0     H77693   2.747   8.361   2.346  1.9570 -0.3278  0.8976
  563MOL0     H77694   2.627   8.230   2.375 -1.6686  0.5640  0.3382
  564MOL0     O77695   1.984   3.282   4.313 -0.3425  0.1623  0.2499
  564MOL0     C77696   1.983   3.178   4.239  1.1493  0.6333  0.4805
  564MOL0     O77697   1.909   3.164   4.123  0.3249  0.9917 -0.9674
  564MOL0     C77698   1.824   3.257   4.090  0.8083  0.3295 -0.4439
  564MOL0     C77699   1.699   3.263   4.143 -0.1611  0.0958 -0.9298
  564MOL0     C77700   1.622   3.380   4.113  0.0813 -0.3323  0.2857
  564MOL0     C77701   1.669   3.479   4.024  0.0118 -0.5811 -0.0264
  564MOL0     O77702   1.595   3.592   4.014 -0.0465  0.6720  0.0263
  564MOL0     C77703   1.660   3.710   3.977 -0.1001 -0.6610 -0.3653
  564MOL0     C77704   1.640   3.722   3.824 -0.3338 -0.2955 -0.1333
  564MOL0     C77705   1.660   3.874   3.771  0.2450 -0.6751  0.7230
  564MOL0     C77706   1.655   3.874   3.619  0.2689  0.4484  0.5719
  564MOL0     C77707   1.667   4.018   3.566  0.6127 -0.2900  0.1411
  564MOL0     C77708   1.661   4.050   3.407 -1.3023  0.3694 -0.4454
  564MOL0     C77709   1.529   4.012   3.339 -1.2428 -0.4534 -0.1668
  564MOL0     C77710   1.521   4.068   3.198  0.2047 -0.5466 -0.3390
  564MOL0     N77711   1.502   4.211   3.200  0.6702 -0.7976  0.1967
  564MOL0     C77712   1.393   4.277   3.252  0.6346  0.1926  0.1655
  564MOL0     C77713   1.409   4.410   3.222  0.4617  0.5566 -0.3393
  564MOL0     C77714   1.326   4.526   3.271  0.2833 -0.9029  0.5309
  564MOL0     C77715   1.266   4.617   3.155 -0.4645 -0.3677  0.7393
  564MOL0     C77716   1.362   4.739   3.125  0.2533 -0.7593  1.0216
  564MOL0     C77717   1.380   4.841   3.243 -0.4134  0.0803 -0.0379
  564MOL0     O77718   1.271   4.936   3.252 -0.1236  0.2938  0.0550
  564MOL0     C77719   1.275   5.054   3.323 -0.4701 -1.0045 -0.4651
  564MOL0     C77720   1.372   5.087   3.425  0.4393 -0.7923 -0.7236
  564MOL0     C77721   1.379   5.218   3.476 -1.0516  0.2545  0.1664
  564MOL0     C77722   1.476   5.236   3.592 -0.3305 -0.3915  0.5140
  564MOL0     C77723   1.299   5.328   3.427 -0.6149  0.0128 -0.4047
  564MOL0     C77724   1.295   5.465   3.475  0.8917  0.2212 -0.3016
  564MOL0     O77725   1.226   5.559   3.406  0.5690  0.9323 -0.1967
  564MOL0     C77726   1.230   5.691   3.431  0.3719  0.1386  0.4742
  564MOL0     C77727   1.154   5.748   3.536 -1.0643 -1.2604  0.2356
  564MOL0     C77728   1.166   5.886   3.553 -0.3615  1.3015  0.3443
  564MOL0     C77729   1.220   5.974   3.459 -0.1842  0.4371 -0.4284
  564MOL0     O77730   1.214   6.115   3.483  0.7703  0.3533 -0.2281
  564MOL0     C77731   1.283   6.194   3.387  0.4601  0.4080  0.3392
  564MOL0     C77732   1.302   6.329   3.447  0.1891 -0.0156 -0.8554
  564MOL0     C77733   1.385   6.434   3.369  0.2822  0.2152 -0.8094
  564MOL0     C77734   1.404   6.569   3.436  0.3321 -0.2459 -0.0031
  564MOL0     C77735   1.450   6.683   3.344 -0.6410 -0.3482 -0.4615
  564MOL0     C77736   1.468   6.817   3.426  0.3289  0.3716  0.0202
  564MOL0     C77737   1.610   6.845   3.478  0.4769  0.3679 -0.4431
  564MOL0     C77738   1.622   6.974   3.560 -0.0282  0.3162 -1.1864
  564MOL0    Cl77739   1.781   6.985   3.649  0.1403  0.3808  0.2245
  564MOL0     C77740   1.288   5.912   3.349  0.8253  0.3553 -0.4838
  564MOL0     C77741   1.289   5.774   3.331  0.4429  0.3268  0.8899
  564MOL0     O77742   1.360   5.497   3.581  0.0914  0.3949 -0.2080
  564MOL0     C77743   1.204   5.296   3.329 -0.3598 -0.0747 -0.6126
  564MOL0     C77744   1.192   5.169   3.283  0.0052 -0.3333 -0.4084
  564MOL0     N77745   1.510   4.412   3.132  0.0524 -0.1152  0.4845
  564MOL0     N77746   1.563   4.295   3.121 -0.4329  0.0527 -0.1249
  564MOL0     C77747   1.782   3.453   3.950 -0.0598 -0.4654  0.5469
  564MOL0     C77748   1.859   3.346   3.983  0.3597  0.6563 -0.8115
  564MOL0     C77749   2.059   3.063   4.280 -1.0531  0.2286 -0.3948
  564MOL0     C77750   2.185   3.096   4.352  0.1799  0.6690  0.0472
  564MOL0     C77751   2.263   2.991   4.406  0.4177 -0.5322 -0.2090
  564MOL0     C77752   2.219   2.856   4.416 -0.3975  0.1897  0.3764
  564MOL0     O77753   2.291   2.753   4.475 -0.1534 -0.2923 -0.3399
  564MOL0     C77754   2.431   2.762   4.441 -0.0018  0.5215 -0.3648
  564MOL0     C77755   2.466   2.742   4.290 -0.4199 -0.6274 -0.6637
  564MOL0     C77756   2.613   2.697   4.255  0.3443 -0.5704  0.7082
  564MOL0     C77757   2.647   2.703   4.110 -0.0215 -0.2952  0.6762
  564MOL0     C77758   2.572   2.608   4.031  0.5692  0.4029 -0.1291
  564MOL0     C77759   2.489   2.528   3.985 -0.7888 -0.8967  0.4268
  564MOL0     C77760   2.102   2.831   4.352 -0.1403  0.2189  0.5199
  564MOL0     C77761   2.016   2.928   4.293 -0.2351 -1.1232  0.0001
  564MOL0     C77762   1.877   2.893   4.270  0.8118  0.0322  0.0252
  564MOL0     H77763   1.677   3.179   4.208  0.8110  0.5550  0.0440
  564MOL0     H77764   1.522   3.404   4.148  0.0081  1.9519 -1.2664
  564MOL0     H77765   1.764   3.705   4.010  0.0267 -0.6561 -0.7555
  564MOL0     H77766   1.614   3.796   4.026  2.7754  1.1714 -0.6744
  564MOL0     H77767   1.700   3.648   3.770  0.2844 -0.5996  0.9323
  564MOL0     H77768   1.536   3.694   3.807 -0.7325  1.9057 -1.7443
  564MOL0     H77769   1.585   3.942   3.812  1.4186  2.1985 -1.5667
  564MOL0     H77770   1.754   3.921   3.799 -0.0992  1.5059 -1.4038
  564MOL0     H77771   1.737   3.809   3.589 -0.1147 -0.6692  1.8518
  564MOL0     H77772   1.561   3.829   3.585 -0.0682 -0.3093  2.3818
  564MOL0     H77773   1.753   4.073   3.605  0.8980 -0.2612 -0.5021
  564MOL0     H77774   1.583   4.075   3.606  1.0313  0.3479  0.1385
  564MOL0     H77775   1.653   4.159   3.408 -2.5925  0.3029  1.5666
  564MOL0     H77776   1.752   4.010   3.360 -0.2670  2.1543 -0.0499
  564MOL0     H77777   1.452   4.049   3.407  2.9744  1.6913  3.9716
  564MOL0     H77778   1.518   3.905   3.318 -3.0241 -0.1625 -0.8777
  564MOL0     H77779   1.606   4.052   3.131  1.1588  1.3486  0.3642
  564MOL0     H77780   1.436   4.014   3.155  0.7896 -2.0421  0.2899
  564MOL0     H77781   1.308   4.239   3.308  1.0026 -0.0931  0.5466
  564MOL0     H77782   1.400   4.585   3.326 -1.3282  2.5306 -0.6844
  564MOL0     H77783   1.256   4.491   3.346  1.6589  0.4622  2.5496
  564MOL0     H77784   1.258   4.558   3.064  0.6077 -0.0350  0.4123
  564MOL0     H77785   1.174   4.659   3.196  0.5035  0.7566  1.8489
  564MOL0     H77786   1.463   4.703   3.103  1.6262  1.6075  2.9846
  564MOL0     H77787   1.321   4.792   3.039  3.3077  0.3173  0.1069
  564MOL0     H77788   1.380   4.782   3.336  0.0238  0.3249  0.1189
  564MOL0     H77789   1.475   4.895   3.237  0.2888 -1.2961 -2.5742
  564MOL0     H77790   1.439   5.014   3.470  0.9958  0.7140  1.0113
  564MOL0     H77791   1.515   5.140   3.628  0.1626  0.8119  3.5076
  564MOL0     H77792   1.430   5.277   3.683  0.5212  1.1102  0.3058
  564MOL0     H77793   1.571   5.287   3.575 -0.8389 -0.1110 -1.8254
  564MOL0     H77794   1.085   5.696   3.601  0.7173 -3.1722  0.7121
  564MOL0     H77795   1.100   5.923   3.631 -2.7593 -4.9797  1.8639
  564MOL0     H77796   1.383   6.154   3.367  0.3578  0.2865  0.0559
  564MOL0     H77797   1.237   6.206   3.288  2.1685 -0.9628 -0.6682
  564MOL0     H77798   1.205   6.369   3.476 -0.3923 -1.7518 -0.2643
  564MOL0     H77799   1.354   6.307   3.541  1.0346 -0.0882 -1.3293
  564MOL0     H77800   1.330   6.454   3.277  1.7310  0.9198 -1.5569
  564MOL0     H77801   1.485   6.396   3.343  1.0415  1.4048  0.2428
  564MOL0     H77802   1.484   6.554   3.509 -1.1387 -3.2367  1.1589
  564MOL0     H77803   1.312   6.596   3.489  2.7530  4.5853  2.3711
  564MOL0     H77804   1.543   6.651   3.297 -1.1066  0.1673 -1.7972
  564MOL0     H77805   1.371   6.708   3.272 -1.0229  0.1879  0.1212
  564MOL0     H77806   1.410   6.803   3.518  1.8117  2.5519  1.3942
  564MOL0     H77807   1.433   6.904   3.370 -0.3088 -0.2352 -0.5429
  564MOL0     H77808   1.680   6.848   3.393 -0.0904  0.0106 -0.9318
  564MOL0     H77809   1.636   6.761   3.543 -0.2109  1.4008  1.2315
  564MOL0     H77810   1.538   6.981   3.630 -0.7720 -2.4266 -1.6890
  564MOL0     H77811   1.608   7.059   3.493 -0.4755  0.4576 -0.9153
  564MOL0     H77812   1.336   5.986   3.285  0.8138  3.1554  2.5313
  564MOL0     H77813   1.326   5.731   3.238 -3.8027 -2.2394  0.0694
  564MOL0     H77814   1.140   5.369   3.281 -0.8419 -1.3688 -1.9986
  564MOL0     H77815   1.117   5.153   3.206  0.6700 -0.3483 -1.0678
  564MOL0     H77816   1.820   3.528   3.880  0.3282  0.1809  1.4326
  564MOL0     H77817   1.946   3.312   3.928 -0.8764 -2.1975 -1.2022
  564MOL0     H77818   2.225   3.197   4.359 -0.0192  0.8248 -0.9084
  564MOL0     H77819   2.358   3.021   4.448 -0.9578 -0.1361  2.9347
  564MOL0     H77820   2.467   2.861   4.470 -1.6270  1.6901 -2.0657
  564MOL0     H77821   2.484   2.685   4.496 -0.6048 -1.0129 -1.8508
  564MOL0     H77822   2.451   2.832   4.229 -4.5359 -2.0283 -2.0954
  564MOL0     H77823   2.398   2.672   4.240  0.3610 -1.2418 -0.8804
  564MOL0     H77824   2.684   2.762   4.307  1.1249  2.3350 -3.4761
  564MOL0     H77825   2.613   2.594   4.292 -2.5237 -0.4899  1.1536
  564MOL0     H77826   2.749   2.664   4.102 -0.3641 -0.8234 -2.8725
  564MOL0     H77827   2.635   2.804   4.069 -0.5601 -0.4736  0.3856
  564MOL0     H77828   2.408   2.460   3.966 -0.8650 -0.6909  0.0033
  564MOL0     H77829   2.062   2.730   4.360 -3.2451  1.1851 -1.0070
  564MOL0     H77830   1.870   2.784   4.282  0.7718  0.2122  1.9136
  564MOL0     H77831   1.806   2.931   4.344 -2.8263 -1.4722 -2.3684
  564MOL0     H77832   1.839   2.918   4.170  1.7825 -2.9119 -1.1930
  565MOL0     O77833   6.789   4.994   6.806  1.0959 -0.5580  0.6644
  565MOL0     C77834   6.809   5.021   6.920 -0.9421 -0.5891 -0.1856
  565MOL0     O77835   6.925   5.015   6.984 -0.1141  0.1743  0.6123
  565MOL0     C77836   7.039   4.972   6.923  0.5162 -0.0715 -0.1392
  565MOL0     C77837   7.039   4.844   6.861  0.2442 -0.4247  0.3178
  565MOL0     C77838   7.163   4.791   6.823 -0.7828 -0.6068  0.6381
  565MOL0     C77839   7.286   4.857   6.849 -0.1466 -0.2675  0.0473
  565MOL0     O77840   7.406   4.792   6.824  0.5327 -0.6414 -0.5500
  565MOL0     C77841   7.407   4.650   6.802  0.0202  0.6747  0.7358
  565MOL0     C77842   7.547   4.584   6.814 -0.5506  0.4588  0.0991
  565MOL0     C77843   7.629   4.601   6.681  0.3955 -0.2012 -0.3208
  565MOL0     C77844   7.772   4.546   6.685  0.5887 -0.4062  0.0064
  565MOL0     C77845   7.844   4.550   6.552 -0.0046 -0.2169 -0.8869
  565MOL0     C77846   7.997   4.526   6.553  0.3139  0.2975 -0.5261
  565MOL0     C77847   8.050   4.382   6.595 -0.3881 -0.6620 -0.3897
  565MOL0     C77848   7.997   4.265   6.504  0.1613 -0.9144 -0.9205
  565MOL0     N77849   8.051   4.289   6.375 -0.3137 -0.6336  0.4288
  565MOL0     C77850   7.984   4.280   6.260 -0.2325  0.3816 -0.1437
  565MOL0     C77851   8.064   4.234   6.161 -0.3965  0.1772 -1.0727
  565MOL0     C77852   8.027   4.227   6.017  0.5412  0.6264 -0.3186
  565MOL0     C77853   8.142   4.279   5.917  0.4936 -0.1842 -0.1661
  565MOL0     C77854   8.109   4.215   5.785 -0.5389  0.2400 -0.3494
  565MOL0     C77855   8.187   4.278   5.679  0.5038 -0.0793  0.5936
  565MOL0     O77856   8.180   4.214   5.556  0.8742 -0.1459 -0.1723
  565MOL0     C77857   8.285   4.254   5.477  0.4944  0.3001 -0.1150
  565MOL0     C77858   8.268   4.376   5.402 -0.4882  0.4333  0.8487
  565MOL0     C77859   8.367   4.437   5.320  0.5684  0.3442  0.0046
  565MOL0     C77860   8.300   4.539   5.228  0.0226 -1.0700  0.2061
  565MOL0     C77861   8.497   4.384   5.323 -0.7982  0.2847 -1.0437
  565MOL0     C77862   8.618   4.431   5.247 -0.1714 -0.4685 -0.3096
  565MOL0     O77863   8.733   4.363   5.256 -0.0345  0.1386  0.6592
  565MOL0     C77864   8.855   4.419   5.223  0.3984  0.0997  0.1697
  565MOL0     C77865   8.948   4.351   5.143  0.3289  0.3433  0.8128
  565MOL0     C77866   9.068   4.417   5.100  0.4778  0.5256 -0.4627
  565MOL0     C77867   9.095   4.546   5.143  0.3255 -0.3083 -0.0021
  565MOL0     O77868   9.205   4.619   5.101 -0.1865 -0.2471 -0.2209
  565MOL0     C77869   9.282   4.561   5.002 -0.1582  0.4360 -0.7825
  565MOL0     C77870   9.372   4.659   4.940  1.3993  1.1185 -1.0493
  565MOL0     C77871   9.479   4.721   5.020 -0.7704 -0.2480  0.1626
  565MOL0     C77872   9.615   4.653   4.999 -1.0754  0.0938  0.3163
  565MOL0     C77873   9.645   4.540   5.088  0.8384 -0.0142 -0.0870
  565MOL0     C77874   9.784   4.493   5.069  0.5075  0.7473 -0.4554
  565MOL0     C77875   9.801   4.366   5.160  0.2098  0.0691 -0.5181
  565MOL0     C77876   9.938   4.293   5.161  0.0221  0.4578  0.0085
  565MOL0    Cl77877   9.960   4.208   5.010 -0.2569 -0.1482 -0.0843
  565MOL0     C77878   9.004   4.607   5.220 -0.0777  0.5435 -0.0711
  565MOL0     C77879   8.888   4.549   5.260 -0.2219  0.1869 -0.3219
  565MOL0     O77880   8.609   4.536   5.182 -0.0765 -0.2085 -0.4063
  565MOL0     C77881   8.512   4.263   5.399 -0.6862  0.3051 -0.3051
  565MOL0     C77882   8.409   4.196   5.462 -0.3634 -0.0237  0.0103
  565MOL0     N77883   8.191   4.216   6.218  0.6867  0.0549  0.3380
  565MOL0     N77884   8.181   4.258   6.344 -0.4567 -0.1379  0.5026
  565MOL0     C77885   7.278   4.978   6.912 -0.9484 -1.3997  0.0686
  565MOL0     C77886   7.164   5.039   6.949  0.3151  0.0695 -0.4583
  565MOL0     C77887   6.692   5.066   6.991  0.7828 -1.4312 -1.0287
  565MOL0     C77888   6.693   5.197   7.049  0.0033 -0.4932  0.1257
  565MOL0     C77889   6.590   5.225   7.134  0.0102  0.3978 -0.7653
  565MOL0     C77890   6.471   5.150   7.143 -0.5363  0.0231 -0.4911
  565MOL0     O77891   6.363   5.193   7.221  1.0699  0.4082  0.8835
  565MOL0     C77892   6.264   5.272   7.148 -0.1016  0.0376 -0.1241
  565MOL0     C77893   6.120   5.264   7.188  0.3107 -0.0322 -0.1115
  565MOL0     C77894   6.099   5.313   7.327  0.2508 -0.4921  0.7053
  565MOL0     C77895   5.959   5.308   7.378 -0.1508  0.5484  0.1175
  565MOL0     C77896   5.864   5.393   7.300 -0.6830 -0.2320 -0.2390
  565MOL0     C77897   5.786   5.456   7.236  0.3535 -0.0515 -0.1958
  565MOL0     C77898   6.458   5.034   7.067  0.6974  0.3260  0.6474
  565MOL0     C77899   6.573   4.986   7.002  0.6328  0.0878 -0.1267
  565MOL0     C77900   6.558   4.841   6.940  0.3395 -0.1983 -0.1931
  565MOL0     H77901   6.945   4.796   6.833 -1.4637  1.2388  2.7500
  565MOL0     H77902   7.176   4.701   6.764 -0.0673 -0.0429 -0.0890
  565MOL0     H77903   7.370   4.622   6.703  1.8223  0.2668  0.1354
  565MOL0     H77904   7.349   4.592   6.875  1.8914 -1.2558  0.7776
  565MOL0     H77905   7.602   4.634   6.894 -0.2473 -0.0201  0.1893
  565MOL0     H77906   7.537   4.479   6.844  0.0061  0.4983  0.4473
  565MOL0     H77907   7.576   4.545   6.603 -0.8210  2.9448 -1.9615
  565MOL0     H77908   7.623   4.706   6.651 -0.1896 -0.4694 -1.1802
  565MOL0     H77909   7.823   4.591   6.771 -3.8828  2.7113  1.4042
  565MOL0     H77910   7.772   4.438   6.704  0.7189 -0.4731 -0.3689
  565MOL0     H77911   7.834   4.653   6.516 -2.2711 -0.2520 -0.4667
  565MOL0     H77912   7.796   4.485   6.479  0.2254 -2.1908  0.6602
  565MOL0     H77913   8.033   4.556   6.454 -1.9021  0.2282 -1.4022
  565MOL0     H77914   8.046   4.603   6.613  0.3283 -0.2463  0.1674
  565MOL0     H77915   8.021   4.365   6.700  0.3986  0.6019  0.0631
  565MOL0     H77916   8.159   4.384   6.591 -0.4106 -0.0151 -0.8613
  565MOL0     H77917   8.025   4.169   6.550  1.5345  0.2591  0.8176
  565MOL0     H77918   7.888   4.264   6.493  0.1315  0.1188 -0.7792
  565MOL0     H77919   7.883   4.315   6.244 -0.0935  1.7699  1.7063
  565MOL0     H77920   7.935   4.285   6.005 -1.3682 -2.4722 -2.1105
  565MOL0     H77921   7.997   4.129   5.980 -1.4909  0.3686  1.7514
  565MOL0     H77922   8.135   4.388   5.919 -3.9710 -0.3026  2.1724
  565MOL0     H77923   8.246   4.257   5.941  1.1005  1.0868 -1.4439
  565MOL0     H77924   8.139   4.111   5.774 -3.5233 -0.7387 -0.0074
  565MOL0     H77925   8.000   4.217   5.774 -0.7162  0.3245  1.1166
  565MOL0     H77926   8.156   4.381   5.657  3.1034  0.9147  1.1808
  565MOL0     H77927   8.292   4.269   5.707  0.7153 -2.4437 -0.7304
  565MOL0     H77928   8.171   4.423   5.415 -0.6677  0.3306 -0.0851
  565MOL0     H77929   8.320   4.522   5.122 -1.3827 -0.9548 -0.1024
  565MOL0     H77930   8.339   4.635   5.263  0.9321 -0.9653 -1.0101
  565MOL0     H77931   8.194   4.547   5.252 -0.4182  1.4742 -2.0754
  565MOL0     H77932   8.905   4.257   5.108 -0.7467  1.5077 -1.1748
  565MOL0     H77933   9.132   4.369   5.027  1.4002  2.2516 -0.8583
  565MOL0     H77934   9.352   4.490   5.048  0.4254  0.8420 -1.0369
  565MOL0     H77935   9.224   4.526   4.917 -1.1701  1.9990 -0.7658
  565MOL0     H77936   9.413   4.604   4.855  0.2046 -0.8132 -0.4583
  565MOL0     H77937   9.310   4.742   4.905 -1.1953  0.6040  1.8412
  565MOL0     H77938   9.451   4.726   5.126  0.0820  2.5657  0.3610
  565MOL0     H77939   9.499   4.825   4.990 -1.1196 -0.8382 -2.3008
  565MOL0     H77940   9.697   4.716   5.034 -0.0680 -0.2613 -1.3269
  565MOL0     H77941   9.636   4.623   4.896  0.8922  3.8898 -0.5650
  565MOL0     H77942   9.620   4.560   5.193 -0.5272  1.0211 -0.5876
  565MOL0     H77943   9.568   4.466   5.062 -1.7511  2.8890 -1.3745
  565MOL0     H77944   9.851   4.573   5.104  1.0115  1.1664 -2.2715
  565MOL0     H77945   9.798   4.478   4.962 -1.8422  0.9798 -0.8441
  565MOL0     H77946   9.732   4.285   5.133 -0.7305  0.8570 -0.5067
  565MOL0     H77947   9.784   4.397   5.263 -1.1176 -3.1042  0.3359
  565MOL0     H77948   9.931   4.215   5.237  1.7686 -1.6321 -1.8414
  565MOL0     H77949  10.014   4.368   5.184 -0.9292  1.7367 -0.8607
  565MOL0     H77950   9.039   4.702   5.259 -1.1000 -0.7443  4.6274
  565MOL0     H77951   8.836   4.608   5.335  1.1160  1.1482 -0.1112
  565MOL0     H77952   8.605   4.208   5.393 -1.1451 -0.5237  0.0248
  565MOL0     H77953   8.432   4.094   5.492  0.2147 -0.1984 -1.0200
  565MOL0     H77954   7.373   5.025   6.936 -0.9232 -1.0022 -0.7583
  565MOL0     H77955   7.166   5.140   6.990  2.6809 -0.0911 -0.0435
  565MOL0     H77956   6.786   5.252   7.040 -0.1587 -0.1102  0.7786
  565MOL0     H77957   6.581   5.312   7.198 -0.6417  0.6319 -1.1700
  565MOL0     H77958   6.297   5.372   7.179 -0.0957 -0.8332  2.9902
  565MOL0     H77959   6.279   5.255   7.041  0.4838  0.8104 -0.1757
  565MOL0     H77960   6.078   5.163   7.183  1.8631 -0.6991 -0.4339
  565MOL0     H77961   6.062   5.328   7.121  0.3886  1.2220  0.9668
  565MOL0     H77962   6.165   5.246   7.384 -1.4651 -0.3525  3.0056
  565MOL0     H77963   6.132   5.417   7.338 -3.6783  1.6152 -3.8605
  565MOL0     H77964   5.964   5.333   7.484  2.5247 -0.0839  0.1919
  565MOL0     H77965   5.928   5.204   7.364  4.3558 -0.6911 -2.2048
  565MOL0     H77966   5.725   5.531   7.190  2.3672  0.6316 -1.8868
  565MOL0     H77967   6.369   4.973   7.084  1.1494 -0.6642 -0.4106
  565MOL0     H77968   6.464   4.792   6.964 -1.0377  1.5490 -1.7398
  565MOL0     H77969   6.559   4.848   6.830 -1.2486  0.2036 -0.1963
  565MOL0     H77970   6.645   4.782   6.971  1.0100  0.8815  0.0195
  566MOL0     O77971   5.941  11.355   9.527 -0.1164  0.2866 -0.4601
  566MOL0     C77972   5.907  11.453   9.467  0.0489  0.3721 -0.2259
  566MOL0     O77973   5.967  11.574   9.466 -0.7569 -0.9848  0.4133
  566MOL0     C77974   6.094  11.581   9.532  0.4491  0.2977 -0.3138
  566MOL0     C77975   6.211  11.564   9.461  0.1414  0.3938 -0.0297
  566MOL0     C77976   6.329  11.579   9.532  0.7151 -0.6511 -0.1421
  566MOL0     C77977   6.324  11.582   9.677 -0.2836 -0.4222  1.1570
  566MOL0     O77978   6.437  11.584   9.759 -0.0374  0.2718  0.0202
  566MOL0     C77979   6.534  11.480   9.727  0.4417  0.7000 -0.0057
  566MOL0     C77980   6.476  11.334   9.740  0.5230  0.7295 -0.5086
  566MOL0     C77981   6.405  11.317   9.875 -0.4969  0.5817  1.2697
  566MOL0     C77982   6.377  11.166   9.908 -0.0953 -0.0057 -0.0912
  566MOL0     C77983   6.324  11.162  10.060  0.3356 -0.0130 -0.0498
  566MOL0     C77984   6.430  11.198  10.158 -0.0665  0.2648  0.8014
  566MOL0     C77985   6.395  11.191  10.303 -0.3703 -0.4262 -0.4383
  566MOL0     C77986   6.516  11.228  10.402  0.0531 -0.6452  0.8801
  566MOL0     N77987   6.473  11.219  10.537  0.8720 -0.1600  0.3533
  566MOL0     C77988   6.394  11.314  10.608  0.0817 -1.0317  0.6394
  566MOL0     C77989   6.321  11.257  10.703 -0.0221 -0.5491 -0.1126
  566MOL0     C77990   6.230  11.316  10.803 -0.2696  0.6858  0.1791
  566MOL0     C77991   6.143  11.430  10.746 -0.0076  0.5310 -0.8693
  566MOL0     C77992   6.036  11.467  10.843  0.3638 -0.4134 -0.1342
  566MOL0     C77993   5.950  11.579  10.784 -0.1076 -0.1519 -0.0196
  566MOL0     O77994   5.830  11.598  10.859  0.3427  0.9597  0.4542
  566MOL0     C77995   5.831  11.661  10.978  0.0467  0.2832  0.4320
  566MOL0     C77996   5.695  11.677  11.020 -0.2567  0.8116 -0.6302
  566MOL0     C77997   5.670  11.738  11.141  0.6343 -0.5074 -0.1282
  566MOL0     C77998   5.523  11.754  11.161 -0.3780 -0.3212 -0.3538
  566MOL0     C77999   5.778  11.786  11.225 -0.0741  0.3342 -0.3909
  566MOL0     C78000   5.759  11.855  11.362 -0.3708 -0.2102  0.6993
  566MOL0     O78001   5.629  11.880  11.399  0.8246  0.0440  0.1445
  566MOL0     C78002   5.590  11.874  11.530  1.3246  0.6942 -0.0872
  566MOL0     C78003   5.488  11.960  11.571  0.2988  0.6100  0.2294
  566MOL0     C78004   5.461  11.986  11.709 -0.1388  0.2021 -0.4996
  566MOL0     C78005   5.535  11.913  11.798 -0.4123 -0.3216 -0.1736
  566MOL0     O78006   5.498  11.937  11.931  0.2473  0.1331 -0.4406
  566MOL0     C78007   5.519  11.825  12.018  0.2044  0.5309 -0.0844
  566MOL0     C78008   5.521  11.876  12.157  0.9006 -0.1459 -0.4183
  566MOL0     C78009   5.649  11.887  12.227  0.5249  0.7956 -0.2717
  566MOL0     C78010   5.642  11.970  12.348 -0.1303  0.0442  0.0017
  566MOL0     C78011   5.760  11.946  12.437 -0.1082 -0.3005 -0.2737
  566MOL0     C78012   5.779  12.044  12.560  0.4596  0.3477 -0.6792
  566MOL0     C78013   5.859  12.173  12.522  0.1595 -0.2599  0.3234
  566MOL0     C78014   6.006  12.161  12.499  0.1396  0.8305  0.4288
  566MOL0    Cl78015   6.077  12.319  12.517  0.5080  0.0337  0.0096
  566MOL0     C78016   5.633  11.817  11.759  0.1475 -0.3699 -0.3019
  566MOL0     C78017   5.659  11.798  11.625  0.2535  0.8321  0.4937
  566MOL0     O78018   5.854  11.885  11.431 -0.9207  0.5822  0.1613
  566MOL0     C78019   5.909  11.771  11.176  0.8845 -0.0074  0.2178
  566MOL0     C78020   5.936  11.712  11.046 -0.0508  0.8699 -0.2519
  566MOL0     N78021   6.353  11.121  10.700 -0.6714 -0.0418  1.0210
  566MOL0     N78022   6.438  11.099  10.591 -0.0855 -0.6113 -0.1728
  566MOL0     C78023   6.201  11.582   9.742  0.3060 -0.6729 -0.1996
  566MOL0     C78024   6.087  11.596   9.668  0.2906  0.5191 -0.1285
  566MOL0     C78025   5.771  11.453   9.407 -1.1982  0.1104  0.6991
  566MOL0     C78026   5.766  11.473   9.265 -0.3744  0.1904 -1.2853
  566MOL0     C78027   5.641  11.480   9.203 -0.3764 -0.4733 -0.4646
  566MOL0     C78028   5.519  11.452   9.266 -0.1492 -1.1878 -0.4473
  566MOL0     O78029   5.393  11.468   9.214 -1.1675  0.2043  0.5210
  566MOL0     C78030   5.378  11.516   9.079 -0.4926  0.2627  0.2979
  566MOL0     C78031   5.417  11.416   8.974 -0.3323  0.8287 -0.4046
  566MOL0     C78032   5.360  11.443   8.830 -1.1203  0.3452  0.0442
  566MOL0     C78033   5.219  11.388   8.820 -0.4541 -0.3668 -0.1740
  566MOL0     C78034   5.146  11.482   8.720 -0.6061 -0.0670  0.1960
  566MOL0     C78035   5.088  11.551   8.640  1.0208  0.3076  0.1824
  566MOL0     C78036   5.530  11.421   9.405 -0.4896  0.5084 -0.0006
  566MOL0     C78037   5.652  11.423   9.472  0.6093  0.6789 -1.3842
  566MOL0     C78038   5.641  11.376   9.616 -0.7241  0.1651 -0.4647
  566MOL0     H78039   6.207  11.554   9.353 -0.8535 -0.5171  0.0805
  566MOL0     H78040   6.421  11.584   9.475 -0.0158  1.6667 -1.2548
  566MOL0     H78041   6.608  11.492   9.806 -0.0117 -1.2142  0.7626
  566MOL0     H78042   6.581  11.501   9.631 -1.9758 -1.5619 -1.8532
  566MOL0     H78043   6.412  11.305   9.657  2.0561 -0.4080 -1.3381
  566MOL0     H78044   6.563  11.269   9.727 -0.8792 -0.9329 -2.1480
  566MOL0     H78045   6.455  11.371   9.956  0.4918  2.2212 -0.3720
  566MOL0     H78046   6.305  11.357   9.858  0.7067  4.0623  1.4645
  566MOL0     H78047   6.298  11.122   9.847  1.9541 -1.7695 -1.6119
  566MOL0     H78048   6.468  11.107   9.891 -1.3715 -2.0322 -0.1898
  566MOL0     H78049   6.289  11.066  10.097 -1.2187  0.8618  0.8299
  566MOL0     H78050   6.233  11.222  10.068 -0.8443 -1.7572  0.1373
  566MOL0     H78051   6.510  11.129  10.130 -2.1117 -2.3776  1.1186
  566MOL0     H78052   6.467  11.299  10.138  0.9964  0.0961  1.8174
  566MOL0     H78053   6.364  11.089  10.325  0.9305 -0.5760  0.8801
  566MOL0     H78054   6.311  11.259  10.317 -1.5986 -1.7159 -1.3791
  566MOL0     H78055   6.598  11.160  10.378 -0.3918 -0.6006 -0.9141
  566MOL0     H78056   6.541  11.330  10.372 -4.9533  0.8262  0.8263
  566MOL0     H78057   6.397  11.422  10.595  0.4660 -1.1144  0.0112
  566MOL0     H78058   6.297  11.347  10.883 -2.2442 -0.1844  2.2828
  566MOL0     H78059   6.165  11.233  10.833 -0.3894  0.7139  0.0053
  566MOL0     H78060   6.209  11.515  10.726 -2.9643  2.5568 -2.7747
  566MOL0     H78061   6.095  11.405  10.650  2.0894 -0.0077 -1.8526
  566MOL0     H78062   5.975  11.385  10.883 -1.3700  1.3820  1.1196
  566MOL0     H78063   6.080  11.512  10.932 -0.9489  0.1396  0.2607
  566MOL0     H78064   6.012  11.668  10.787 -1.8251  1.2794 -2.7822
  566MOL0     H78065   5.927  11.570  10.678 -2.3558  1.5268  0.2496
  566MOL0     H78066   5.622  11.639  10.949 -0.2331 -0.6475  0.0981
  566MOL0     H78067   5.491  11.826  11.085  1.3122 -0.8093 -1.5821
  566MOL0     H78068   5.484  11.795  11.255 -0.6467 -0.2956 -0.4728
  566MOL0     H78069   5.470  11.660  11.143 -0.9407 -0.1233  0.2067
  566MOL0     H78070   5.434  12.013  11.494 -0.6225 -0.1225  0.3518
  566MOL0     H78071   5.386  12.053  11.749  1.0407  1.8625 -0.9604
  566MOL0     H78072   5.431  11.761  12.010 -0.6079  1.8320 -2.3172
  566MOL0     H78073   5.620  11.783  12.006  0.5583  1.1002  0.7681
  566MOL0     H78074   5.473  11.974  12.163  0.1814 -0.5962  2.3713
  566MOL0     H78075   5.457  11.812  12.219 -0.2288  1.3277  0.0267
  566MOL0     H78076   5.704  11.949  12.155  0.4514  0.0471 -0.9856
  566MOL0     H78077   5.688  11.787  12.249  0.6024  1.2294  1.6775
  566MOL0     H78078   5.547  11.950  12.398  0.2264 -2.7035 -0.2880
  566MOL0     H78079   5.633  12.076  12.323 -0.8828 -0.5570 -2.5409
  566MOL0     H78080   5.743  11.845  12.476 -0.6379  0.1852  0.7995
  566MOL0     H78081   5.851  11.934  12.379  0.0589 -1.8408  0.2503
  566MOL0     H78082   5.831  11.987  12.637 -1.3112  1.1690  1.2128
  566MOL0     H78083   5.687  12.076  12.610  1.7623  3.5133 -0.0973
  566MOL0     H78084   5.841  12.241  12.606 -0.5339 -1.4496  1.1737
  566MOL0     H78085   5.808  12.222  12.438  0.1199  1.8062  1.4800
  566MOL0     H78086   6.022  12.134  12.395  0.6671 -1.8764  1.1296
  566MOL0     H78087   6.062  12.095  12.566  3.5441  1.1284 -1.8684
  566MOL0     H78088   5.687  11.756  11.830 -0.7035 -1.6007 -0.6726
  566MOL0     H78089   5.729  11.718  11.603 -0.4406  0.7770 -1.7918
  566MOL0     H78090   5.991  11.808  11.236  2.0922  0.6972 -1.7456
  566MOL0     H78091   6.038  11.699  11.011  1.4907  1.6461  3.4398
  566MOL0     H78092   6.196  11.580   9.850 -0.5896 -0.6906 -0.2303
  566MOL0     H78093   5.994  11.618   9.719 -0.6098  3.3841 -2.7495
  566MOL0     H78094   5.863  11.490   9.220  0.0821  2.5462  0.4317
  566MOL0     H78095   5.642  11.503   9.096  0.1730  0.2666 -0.3088
  566MOL0     H78096   5.270  11.532   9.068 -0.8425  2.3651  4.7002
  566MOL0     H78097   5.420  11.616   9.065 -0.7084  0.3077 -0.0740
  566MOL0     H78098   5.387  11.316   9.006 -0.0036  0.6288 -0.7236
  566MOL0     H78099   5.525  11.413   8.959 -0.1725  1.8096  0.4537
  566MOL0     H78100   5.365  11.550   8.807  1.0189  0.4140  0.6465
  566MOL0     H78101   5.427  11.393   8.758 -1.7782 -0.9091  0.2731
  566MOL0     H78102   5.177  11.390   8.920 -2.5505  1.8973 -1.0053
  566MOL0     H78103   5.229  11.285   8.783 -0.7149 -0.0044 -1.2955
  566MOL0     H78104   5.034  11.609   8.568  0.8920 -0.9152 -0.7367
  566MOL0     H78105   5.438  11.398   9.459  0.0330  0.9412  1.1093
  566MOL0     H78106   5.675  11.273   9.621  4.9063  1.6015 -1.7550
  566MOL0     H78107   5.712  11.429   9.680 -1.6245  0.6988  0.1215
  566MOL0     H78108   5.542  11.395   9.659  0.8373  1.1554  3.0512
  567MOL0     O78109   1.766   9.048   9.166  0.8934 -0.1595 -0.1212
  567MOL0     C78110   1.787   9.152   9.229  0.7656  1.1147  0.9435
  567MOL0     O78111   1.845   9.162   9.360 -0.4147 -0.0890  0.6411
  567MOL0     C78112   1.915   9.058   9.416 -0.5384  0.0739  0.8137
  567MOL0     C78113   1.876   8.925   9.424  0.1338 -0.5440 -0.0561
  567MOL0     C78114   1.960   8.828   9.487 -0.6706 -0.9465  0.5778
  567MOL0     C78115   2.082   8.864   9.537 -0.2412 -1.3795  0.1359
  567MOL0     O78116   2.177   8.780   9.587  0.8021 -0.4985  0.0527
  567MOL0     C78117   2.173   8.653   9.531 -0.9655 -0.0581 -0.2057
  567MOL0     C78118   2.298   8.574   9.576 -0.1857  0.1675 -0.3687
  567MOL0     C78119   2.409   8.569   9.476  0.1535  1.0992  0.3520
  567MOL0     C78120   2.438   8.687   9.385 -0.2233 -0.5012  0.1208
  567MOL0     C78121   2.569   8.673   9.302 -0.4135 -0.7451  0.4345
  567MOL0     C78122   2.577   8.791   9.203  0.0626  0.2057  0.4505
  567MOL0     C78123   2.677   8.748   9.095 -0.5339 -0.2836 -0.7850
  567MOL0     C78124   2.685   8.838   8.973  0.1431 -0.3561 -0.4510
  567MOL0     N78125   2.777   8.799   8.871 -0.6942 -0.3692 -0.3596
  567MOL0     C78126   2.886   8.720   8.891  0.3927 -0.2606  0.2434
  567MOL0     C78127   2.954   8.712   8.776  0.3293 -0.5367  0.6038
  567MOL0     C78128   3.066   8.617   8.753 -0.4218  0.3602  0.8786
  567MOL0     C78129   3.166   8.678   8.641  0.1569 -0.0998  0.0130
  567MOL0     C78130   3.278   8.587   8.612  0.2097  0.6682  0.7126
  567MOL0     C78131   3.366   8.625   8.489  0.7077 -0.0057  0.5336
  567MOL0     O78132   3.487   8.552   8.487  0.1509  0.9341 -0.3978
  567MOL0     C78133   3.594   8.631   8.456 -0.3381  0.5694  0.2159
  567MOL0     C78134   3.620   8.758   8.521 -1.3207 -0.1964  0.9002
  567MOL0     C78135   3.725   8.837   8.477 -0.9804  0.6809  0.3308
  567MOL0     C78136   3.740   8.960   8.553  0.2404 -0.1509  0.1047
  567MOL0     C78137   3.823   8.793   8.386  0.0903  0.3730  0.2881
  567MOL0     C78138   3.937   8.880   8.326  0.3809  0.0444  0.0335
  567MOL0     O78139   3.928   9.021   8.333 -0.9396  0.7284 -0.1786
  567MOL0     C78140   4.041   9.088   8.322  0.1673  0.0434 -0.6176
  567MOL0     C78141   4.094   9.111   8.200  1.0165  0.4521  0.7370
  567MOL0     C78142   4.215   9.182   8.185  0.1136  0.5802  0.1296
  567MOL0     C78143   4.283   9.235   8.297  0.1698 -1.0591  0.0325
  567MOL0     O78144   4.405   9.293   8.277 -0.0401 -0.0518 -0.4376
  567MOL0     C78145   4.514   9.225   8.337  0.2356 -0.2104  0.0656
  567MOL0     C78146   4.555   9.094   8.273  0.3833 -0.4340 -0.8037
  567MOL0     C78147   4.662   9.019   8.356 -0.4974 -0.3826 -0.0405
  567MOL0     C78148   4.623   8.881   8.416 -0.0296  0.0736 -0.6561
  567MOL0     C78149   4.526   8.886   8.533 -0.4605 -0.0037 -0.3078
  567MOL0     C78150   4.448   8.754   8.553  0.1472  0.4541 -0.1210
  567MOL0     C78151   4.326   8.772   8.657 -0.1223  1.1925 -0.2449
  567MOL0     C78152   4.216   8.858   8.600 -0.8410  0.1851 -0.7835
  567MOL0    Cl78153   4.082   8.922   8.700 -0.0237  0.3473 -0.3160
  567MOL0     C78154   4.233   9.199   8.420 -0.3562  0.4844  0.0671
  567MOL0     C78155   4.110   9.144   8.431  0.2473  0.3766  0.1313
  567MOL0     O78156   4.023   8.817   8.264 -0.6023  0.3440  0.3880
  567MOL0     C78157   3.807   8.662   8.342 -0.2422  0.5400 -1.1726
  567MOL0     C78158   3.699   8.581   8.370 -0.6467 -0.9767  0.1320
  567MOL0     N78159   2.879   8.788   8.685 -0.3778 -0.1069  0.1446
  567MOL0     N78160   2.779   8.846   8.741  0.1602 -0.3673  0.1113
  567MOL0     C78161   2.115   9.001   9.535  0.1040 -0.6772  0.7607
  567MOL0     C78162   2.032   9.095   9.477 -0.0048  0.1503  0.7805
  567MOL0     C78163   1.732   9.275   9.180  1.2946 -0.6909  0.2062
  567MOL0     C78164   1.816   9.392   9.186  1.1449  0.0974  0.0070
  567MOL0     C78165   1.762   9.520   9.150 -0.1669  0.1226  0.2610
  567MOL0     C78166   1.626   9.536   9.126 -0.3010 -0.4144 -0.5991
  567MOL0     O78167   1.556   9.654   9.120 -0.0643 -0.4618 -0.3885
  567MOL0     C78168   1.607   9.784   9.155 -0.0222 -0.8084 -0.1529
  567MOL0     C78169   1.519   9.844   9.270 -0.3194 -0.7442 -1.1245
  567MOL0     C78170   1.491   9.742   9.380 -0.1195 -0.4491 -0.3978
  567MOL0     C78171   1.420   9.811   9.498  0.3760  0.8861  0.7153
  567MOL0     C78172   1.407   9.726   9.619 -0.4175  0.0997 -0.0028
  567MOL0     C78173   1.372   9.665   9.719  0.7443 -0.9005  0.7282
  567MOL0     C78174   1.545   9.424   9.129 -0.8497  0.1130 -0.1929
  567MOL0     C78175   1.593   9.293   9.147 -0.5380 -0.0451  0.0847
  567MOL0     C78176   1.484   9.179   9.138 -0.0488 -0.5622 -0.2804
  567MOL0     H78177   1.772   8.908   9.402  0.2110 -0.4880 -0.4729
  567MOL0     H78178   1.906   8.734   9.490 -1.6142 -0.4784 -0.6835
  567MOL0     H78179   2.168   8.658   9.422  3.7207  3.1115 -0.5487
  567MOL0     H78180   2.087   8.600   9.573  0.3307  0.0806  2.9567
  567MOL0     H78181   2.339   8.621   9.666  0.6269  0.9888 -1.1473
  567MOL0     H78182   2.273   8.471   9.604  3.0375 -1.1380 -1.7903
  567MOL0     H78183   2.507   8.548   9.521  0.6745  1.4475 -0.5868
  567MOL0     H78184   2.384   8.475   9.425  2.3583  0.7380 -0.1780
  567MOL0     H78185   2.352   8.688   9.318 -1.7780 -2.8714  1.8887
  567MOL0     H78186   2.435   8.787   9.429  1.3674  1.1988 -3.2895
  567MOL0     H78187   2.554   8.587   9.236 -1.5510 -0.1130 -0.1684
  567MOL0     H78188   2.661   8.662   9.361  0.4218 -1.8313 -0.9819
  567MOL0     H78189   2.477   8.792   9.159 -1.6154 -2.6311  3.6531
  567MOL0     H78190   2.599   8.890   9.245 -1.6385  1.2218 -0.9430
  567MOL0     H78191   2.653   8.652   9.046 -0.5223 -1.3658  1.2235
  567MOL0     H78192   2.769   8.733   9.151 -3.4789  1.3835  5.4030
  567MOL0     H78193   2.590   8.842   8.919  0.7097  2.6872 -1.3841
  567MOL0     H78194   2.702   8.936   9.018  0.3188 -0.7716  0.4084
  567MOL0     H78195   2.912   8.667   8.982  1.2820 -0.2932 -0.0141
  567MOL0     H78196   3.044   8.516   8.717  5.6006 -0.3763 -2.0804
  567MOL0     H78197   3.114   8.595   8.849  0.6564 -2.1178 -0.1511
  567MOL0     H78198   3.115   8.681   8.544 -1.8319  1.0205  1.0358
  567MOL0     H78199   3.203   8.779   8.661 -0.2763  0.1538 -0.4500
  567MOL0     H78200   3.341   8.580   8.702  0.0077 -0.0028  0.8078
  567MOL0     H78201   3.243   8.485   8.593  0.9005  0.5980 -0.2312
  567MOL0     H78202   3.304   8.601   8.402 -0.0071  2.5963  0.2297
  567MOL0     H78203   3.372   8.734   8.484  2.7302 -0.0065  1.7899
  567MOL0     H78204   3.546   8.784   8.596  0.8597  2.4732  2.2740
  567MOL0     H78205   3.737   9.045   8.484 -3.1761 -0.4674 -0.2855
  567MOL0     H78206   3.829   8.967   8.617 -0.3413 -0.4770  0.9670
  567MOL0     H78207   3.656   8.982   8.619  1.3992  0.5920  1.4038
  567MOL0     H78208   4.044   9.063   8.117  3.5344 -2.0583  0.4778
  567MOL0     H78209   4.256   9.194   8.085  0.8460  0.1039  0.3642
  567MOL0     H78210   4.601   9.291   8.333 -0.8772  1.2768 -0.5991
  567MOL0     H78211   4.492   9.217   8.444 -0.7408  0.3587 -0.0784
  567MOL0     H78212   4.461   9.038   8.277  0.2389 -0.1163  0.6535
  567MOL0     H78213   4.579   9.101   8.166 -2.3765  1.8941 -1.4048
  567MOL0     H78214   4.700   9.082   8.437  0.5902 -2.7500  1.4024
  567MOL0     H78215   4.747   8.996   8.292  0.0476 -0.7566  0.8022
  567MOL0     H78216   4.710   8.824   8.450 -0.2172  0.4804  0.5756
  567MOL0     H78217   4.580   8.827   8.331  1.4194 -0.0044 -1.3702
  567MOL0     H78218   4.593   8.910   8.617 -1.1128  0.8303 -0.0063
  567MOL0     H78219   4.457   8.971   8.528 -3.2505 -2.0898  0.4411
  567MOL0     H78220   4.510   8.669   8.584 -2.4076 -1.1841  0.8474
  567MOL0     H78221   4.402   8.727   8.457  0.6391  0.9606 -0.5097
  567MOL0     H78222   4.374   8.806   8.749  4.5388  0.8677 -2.2441
  567MOL0     H78223   4.281   8.675   8.681 -2.8438  2.6681  0.9709
  567MOL0     H78224   4.155   8.810   8.523 -0.3152  0.3125 -1.2813
  567MOL0     H78225   4.266   8.947   8.561 -2.9864  3.4361  3.1613
  567MOL0     H78226   4.276   9.219   8.518 -1.6106 -0.7581  0.9008
  567MOL0     H78227   4.061   9.142   8.527  0.9698  3.5975  0.6857
  567MOL0     H78228   3.878   8.612   8.277 -2.4037 -5.7167  0.6151
  567MOL0     H78229   3.696   8.478   8.334  2.8198 -0.8329 -0.9519
  567MOL0     H78230   2.208   9.037   9.578 -0.4965  3.5958 -1.0709
  567MOL0     H78231   2.064   9.198   9.489 -0.3380  0.2837  0.5675
  567MOL0     H78232   1.920   9.385   9.215  0.9351  0.1701  0.8018
  567MOL0     H78233   1.824   9.609   9.141 -1.6231  1.1456 -0.1355
  567MOL0     H78234   1.709   9.783   9.193 -0.3609  0.6084  0.8672
  567MOL0     H78235   1.603   9.849   9.067 -0.8543 -0.4418  0.1416
  567MOL0     H78236   1.421   9.869   9.227  0.1520 -0.1834 -1.8929
  567MOL0     H78237   1.571   9.931   9.312 -0.7302 -1.1562  0.2838
  567MOL0     H78238   1.428   9.659   9.346  0.7730 -2.0924  1.7972
  567MOL0     H78239   1.591   9.707   9.407  0.7959  2.8666  1.0747
  567MOL0     H78240   1.319   9.847   9.477  0.0308 -0.0325  0.7412
  567MOL0     H78241   1.463   9.910   9.517  2.3308  0.9807 -3.1231
  567MOL0     H78242   1.343   9.615   9.809  1.0318  0.3453  1.5351
  567MOL0     H78243   1.439   9.437   9.110 -0.7066 -1.6234 -2.6935
  567MOL0     H78244   1.488   9.094   9.207 -0.1776 -1.7858 -1.7300
  567MOL0     H78245   1.385   9.223   9.148 -0.1457 -1.0709  1.1969
  567MOL0     H78246   1.492   9.142   9.035  0.3251  0.6386 -0.7128
  568MOL0     O78247   7.424   5.610   9.537 -0.1993  0.6077 -0.3792
  568MOL0     C78248   7.431   5.507   9.470 -0.4230  0.0634  0.5198
  568MOL0     O78249   7.545   5.438   9.466  0.6429  0.1100  0.3539
  568MOL0     C78250   7.635   5.451   9.565  0.6139  1.0487 -0.1631
  568MOL0     C78251   7.658   5.343   9.652 -0.2634  0.2037 -0.2580
  568MOL0     C78252   7.755   5.359   9.749 -0.3448  1.1151 -0.4759
  568MOL0     C78253   7.824   5.483   9.755 -0.4412  1.1574 -0.1029
  568MOL0     O78254   7.923   5.506   9.848 -0.0058  0.1954  0.5607
  568MOL0     C78255   7.970   5.399   9.935  0.0638 -0.6262 -0.0895
  568MOL0     C78256   8.088   5.455  10.032 -0.3443 -0.5489 -0.2731
  568MOL0     C78257   8.193   5.537   9.958  0.5795  0.2894 -1.0364
  568MOL0     C78258   8.229   5.466   9.825  0.5998  0.3938  0.6705
  568MOL0     C78259   8.334   5.545   9.757 -0.1704 -0.0290  1.2195
  568MOL0     C78260   8.377   5.472   9.617  0.5383 -0.3535 -0.8523
  568MOL0     C78261   8.499   5.541   9.547 -0.1958 -0.1254  0.0454
  568MOL0     C78262   8.462   5.687   9.499  0.1906 -0.3315  0.4643
  568MOL0     N78263   8.585   5.753   9.448  0.2026 -0.3336 -0.1147
  568MOL0     C78264   8.690   5.781   9.536  0.7788  0.2941 -0.6142
  568MOL0     C78265   8.797   5.811   9.459  0.2128 -0.3308  0.5757
  568MOL0     C78266   8.919   5.881   9.498  0.2166 -0.0392 -0.0933
  568MOL0     C78267   9.010   5.774   9.571  0.7833 -0.1355  0.4139
  568MOL0     C78268   9.074   5.657   9.486  0.4066  0.1950  0.0368
  568MOL0     C78269   8.974   5.539   9.455 -0.2245 -0.3832 -0.1144
  568MOL0     O78270   9.017   5.459   9.350  0.4113 -1.4112 -0.3856
  568MOL0     C78271   9.093   5.349   9.383  0.1890  0.6605 -0.8198
  568MOL0     C78272   9.167   5.334   9.506 -0.2364 -0.1757  0.2817
  568MOL0     C78273   9.247   5.222   9.517  0.7863 -0.3866  0.3816
  568MOL0     C78274   9.341   5.222   9.637  0.5483  0.8539 -0.6148
  568MOL0     C78275   9.252   5.125   9.420  0.3375 -0.0430  0.1747
  568MOL0     C78276   9.332   5.009   9.428  0.5382  0.1551  0.0027
  568MOL0     O78277   9.380   4.954   9.316  0.1638 -0.1018  0.0275
  568MOL0     C78278   9.479   4.860   9.345 -0.8940 -0.3586 -0.7678
  568MOL0     C78279   9.446   4.736   9.385 -0.7979  0.6068 -0.2671
  568MOL0     C78280   9.540   4.635   9.375  0.4169 -0.0933  0.4461
  568MOL0     C78281   9.678   4.655   9.343  0.0613 -1.2324 -1.1588
  568MOL0     O78282   9.782   4.564   9.338 -0.1981  1.0267  0.0527
  568MOL0     C78283   9.761   4.428   9.377 -0.0505  0.3706  0.2798
  568MOL0     C78284   9.711   4.337   9.257  0.3905 -0.6181 -0.5331
  568MOL0     C78285   9.792   4.373   9.133  0.1218  0.2062  0.0393
  568MOL0     C78286   9.938   4.313   9.148 -0.1126 -0.2239 -0.4600
  568MOL0     C78287  10.020   4.330   9.018 -0.2254 -1.0283 -0.5751
  568MOL0     C78288   9.974   4.264   8.898  0.7858  0.0582 -0.3096
  568MOL0     C78289   9.954   4.105   8.906  0.0837 -0.4387  0.4053
  568MOL0     C78290   9.964   4.036   8.767 -0.3824  0.4358 -0.3546
  568MOL0    Cl78291   9.816   4.071   8.656 -0.0788 -0.1456  0.1387
  568MOL0     C78292   9.715   4.788   9.318  0.0043  0.2226 -0.5278
  568MOL0     C78293   9.614   4.886   9.299  0.7285  1.0391  0.0445
  568MOL0     O78294   9.336   4.953   9.540  0.1341 -0.8734 -0.3104
  568MOL0     C78295   9.181   5.138   9.297 -0.3781  0.4303 -0.0056
  568MOL0     C78296   9.114   5.255   9.281 -0.2711  0.1260 -1.1382
  568MOL0     N78297   8.760   5.794   9.323  0.5357  0.3469 -0.3029
  568MOL0     N78298   8.633   5.755   9.319 -0.3691 -0.5796 -0.1292
  568MOL0     C78299   7.809   5.577   9.668  0.4943  0.2463  0.6781
  568MOL0     C78300   7.713   5.571   9.572  0.5820  0.3497  0.0092
  568MOL0     C78301   7.321   5.451   9.400  0.7559  0.2240 -0.2936
  568MOL0     C78302   7.347   5.336   9.313  0.3374 -0.1736  0.2644
  568MOL0     C78303   7.251   5.291   9.224  0.1072  0.6886  0.8936
  568MOL0     C78304   7.122   5.342   9.221  1.0974  0.8154 -0.1280
  568MOL0     O78305   7.008   5.310   9.148  0.1914  0.1707  0.1419
  568MOL0     C78306   7.016   5.179   9.091 -0.1546 -0.1391  0.1197
  568MOL0     C78307   6.892   5.156   9.001 -0.2399 -0.1172 -0.0872
  568MOL0     C78308   6.891   5.012   8.950 -0.2584 -0.2816  0.1986
  568MOL0     C78309   6.751   4.954   8.906 -0.2225  0.1113 -0.4576
  568MOL0     C78310   6.764   4.820   8.847 -1.0261  0.4871  0.4917
  568MOL0     C78311   6.802   4.722   8.790  0.0740 -0.1804  0.7007
  568MOL0     C78312   7.091   5.446   9.308 -0.5869 -0.2150 -0.2991
  568MOL0     C78313   7.190   5.496   9.400 -0.3995 -0.8468 -1.0442
  568MOL0     C78314   7.141   5.603   9.495  0.0808 -0.6998  0.4389
  568MOL0     H78315   7.603   5.251   9.640  1.0323 -0.3597 -2.4497
  568MOL0     H78316   7.779   5.270   9.807  0.9619  2.1864  0.7060
  568MOL0     H78317   8.011   5.313   9.881  0.7443  0.5220 -1.4470
  568MOL0     H78318   7.888   5.358   9.995  0.1967  1.8101  1.9470
  568MOL0     H78319   8.038   5.521  10.103  2.1065  1.8415 -0.6130
  568MOL0     H78320   8.147   5.372  10.072 -0.9093 -0.2518  1.2155
  568MOL0     H78321   8.144   5.633   9.940  1.5945  1.0372  0.0466
  568MOL0     H78322   8.276   5.558  10.026  1.5492 -2.0408 -1.3960
  568MOL0     H78323   8.271   5.368   9.851 -1.9691 -0.4261  2.1367
  568MOL0     H78324   8.141   5.452   9.761  0.2277  3.1554  0.4744
  568MOL0     H78325   8.430   5.557   9.808  1.5346 -2.0003 -1.2612
  568MOL0     H78326   8.296   5.643   9.726  0.2956  0.1202  1.0998
  568MOL0     H78327   8.401   5.366   9.629 -0.7632 -0.5914 -0.1600
  568MOL0     H78328   8.297   5.478   9.542  2.6069  0.9634 -3.1062
  568MOL0     H78329   8.520   5.478   9.459 -2.1495  0.2430 -0.7459
  568MOL0     H78330   8.582   5.534   9.617 -0.3757 -0.5035  0.2241
  568MOL0     H78331   8.382   5.687   9.423  1.1311 -0.9418 -0.5639
  568MOL0     H78332   8.428   5.739   9.589  0.9622  0.6058  0.2229
  568MOL0     H78333   8.660   5.803   9.638 -0.1680 -1.9492 -0.3415
  568MOL0     H78334   8.890   5.963   9.564  0.6579 -1.2601  1.7015
  568MOL0     H78335   8.972   5.924   9.413 -0.8225 -1.4757 -1.5405
  568MOL0     H78336   9.092   5.834   9.613  1.4079 -1.3828  1.0383
  568MOL0     H78337   8.953   5.725   9.650 -0.6123  1.3308  0.3719
  568MOL0     H78338   9.094   5.699   9.387 -0.4210  0.0646 -0.1915
  568MOL0     H78339   9.168   5.617   9.527  1.7291  2.2436 -0.8509
  568MOL0     H78340   8.959   5.490   9.551  0.6301 -1.7549 -0.6460
  568MOL0     H78341   8.876   5.583   9.437 -1.5886 -2.0590  2.5968
  568MOL0     H78342   9.161   5.405   9.587 -3.4810 -1.1214  0.9917
  568MOL0     H78343   9.326   5.317   9.691  0.5644 -0.6771  2.2673
  568MOL0     H78344   9.448   5.213   9.616  0.7780  1.2770  0.3029
  568MOL0     H78345   9.312   5.144   9.707  1.4254 -1.0665 -2.2964
  568MOL0     H78346   9.339   4.724   9.394 -0.7877 -0.8678 -1.7569
  568MOL0     H78347   9.510   4.532   9.392 -1.7862  0.1472 -1.4668
  568MOL0     H78348   9.854   4.383   9.414 -0.5978 -0.6615  0.4130
  568MOL0     H78349   9.689   4.434   9.459  0.0689  4.7727  0.3398
  568MOL0     H78350   9.716   4.234   9.293 -3.7512 -0.4424  1.1294
  568MOL0     H78351   9.606   4.360   9.236 -0.0803 -1.7843  0.4090
  568MOL0     H78352   9.804   4.481   9.121  1.2630  0.2554  1.4266
  568MOL0     H78353   9.746   4.337   9.041 -1.0593  0.3903  0.5439
  568MOL0     H78354   9.927   4.207   9.173 -0.4839 -0.3699 -1.2153
  568MOL0     H78355   9.991   4.358   9.233 -0.7867 -1.4101  0.6235
  568MOL0     H78356  10.010   4.438   9.002  3.3960 -0.4877  0.0167
  568MOL0     H78357  10.125   4.307   9.040  0.0721  0.5383 -0.2767
  568MOL0     H78358  10.047   4.286   8.820 -0.5646  1.9058 -1.1404
  568MOL0     H78359   9.876   4.305   8.870  0.7090  1.2772  1.5446
  568MOL0     H78360   9.857   4.087   8.953  0.0438 -0.2665  0.3863
  568MOL0     H78361  10.036   4.065   8.967  1.2512  0.5321 -0.4724
  568MOL0     H78362   9.958   3.927   8.772  0.1097  0.3395 -1.5869
  568MOL0     H78363  10.057   4.068   8.720  0.7945 -1.8473  0.3326
  568MOL0     H78364   9.816   4.812   9.284  1.0031 -0.1067  1.9752
  568MOL0     H78365   9.626   4.982   9.250 -0.3715  0.8499 -0.6187
  568MOL0     H78366   9.203   5.068   9.216 -3.5963 -1.7280  0.7850
  568MOL0     H78367   9.061   5.257   9.186 -3.3180 -0.2181  0.4411
  568MOL0     H78368   7.877   5.662   9.669  0.1924  0.5717 -1.3005
  568MOL0     H78369   7.697   5.649   9.497  1.5692 -0.1041 -0.6875
  568MOL0     H78370   7.449   5.301   9.299 -0.0068 -1.1278  0.0802
  568MOL0     H78371   7.286   5.214   9.155  2.9322  2.8517 -0.3294
  568MOL0     H78372   7.101   5.162   9.024 -0.9214 -1.5804 -0.5141
  568MOL0     H78373   7.030   5.106   9.171 -4.0062 -0.7017  0.5016
  568MOL0     H78374   6.904   5.229   8.921 -0.3954 -1.8004 -1.7087
  568MOL0     H78375   6.795   5.165   9.052  0.6364 -0.8872  1.8298
  568MOL0     H78376   6.964   5.001   8.869  0.1854 -0.2277  0.5858
  568MOL0     H78377   6.924   4.943   9.029 -1.4944  2.1911  3.0695
  568MOL0     H78378   6.712   5.017   8.826  1.7434  2.9266  0.6270
  568MOL0     H78379   6.689   4.958   8.996  0.5601 -1.5498  0.1936
  568MOL0     H78380   6.844   4.638   8.738 -1.6862 -0.3535 -0.5159
  568MOL0     H78381   6.995   5.498   9.311 -1.2187 -1.3738  0.2187
  568MOL0     H78382   7.187   5.700   9.473  0.2530 -1.3134 -2.3368
  568MOL0     H78383   7.032   5.601   9.494  0.0862 -1.3881  0.8274
  568MOL0     H78384   7.167   5.573   9.597 -0.7847  0.4003  0.9988
  569MOL0     O78385   6.036   3.283   8.950  0.0187 -0.1063  0.1836
  569MOL0     C78386   6.077   3.387   8.894 -1.0396 -0.7897 -0.8781
  569MOL0     O78387   6.164   3.483   8.949  0.5680  0.6936 -0.0939
  569MOL0     C78388   6.187   3.493   9.086 -0.1496  0.5502  0.3710
  569MOL0     C78389   6.119   3.424   9.192  0.4072 -0.1850 -0.1958
  569MOL0     C78390   6.161   3.447   9.322 -0.1651  0.2815  0.1980
  569MOL0     C78391   6.267   3.527   9.355  0.9171 -0.3136 -0.0441
  569MOL0     O78392   6.301   3.526   9.487  0.3033  0.3602 -0.3628
  569MOL0     C78393   6.373   3.636   9.539 -0.1944 -0.5395  0.2107
  569MOL0     C78394   6.376   3.624   9.685  0.1956  0.1482  0.0938
  569MOL0     C78395   6.449   3.730   9.764 -0.6745  1.0060 -0.2185
  569MOL0     C78396   6.604   3.737   9.744 -0.1171 -0.1794  0.4490
  569MOL0     C78397   6.665   3.842   9.836  0.5854  0.2490  0.1294
  569MOL0     C78398   6.817   3.823   9.829 -0.4795  0.0583  0.2005
  569MOL0     C78399   6.914   3.913   9.909 -0.2623  0.7118  0.2157
  569MOL0     C78400   6.888   4.067   9.878  0.1590  0.5079  0.8494
  569MOL0     N78401   6.922   4.096   9.735  0.5084 -0.7564  0.5595
  569MOL0     C78402   6.931   4.231   9.696 -0.4300  0.0822  0.5968
  569MOL0     C78403   6.969   4.219   9.568  1.2517  0.3350  0.1438
  569MOL0     C78404   7.002   4.336   9.470  0.0665  1.2192  0.4204
  569MOL0     C78405   7.140   4.390   9.506  0.0989  0.6313 -0.6979
  569MOL0     C78406   7.184   4.510   9.416  0.2117  0.3779  0.0575
  569MOL0     C78407   7.324   4.555   9.429  0.4358  0.6604  0.5148
  569MOL0     O78408   7.416   4.449   9.410 -0.1427 -0.4469  0.0404
  569MOL0     C78409   7.525   4.486   9.322  1.1969 -0.8692 -0.2287
  569MOL0     C78410   7.490   4.507   9.188 -0.6397 -0.0372  0.6772
  569MOL0     C78411   7.594   4.531   9.092 -0.4086 -0.8595  0.1193
  569MOL0     C78412   7.573   4.549   8.945 -0.2308 -0.2198 -0.2530
  569MOL0     C78413   7.727   4.543   9.139 -0.7043 -0.5790  0.1963
  569MOL0     C78414   7.843   4.575   9.045  0.0695  0.3929 -0.5155
  569MOL0     O78415   7.960   4.506   9.056  0.7639 -0.1848 -1.0534
  569MOL0     C78416   8.066   4.551   8.998 -0.2224  0.7415  0.5913
  569MOL0     C78417   8.111   4.683   8.999  0.1250  0.1216  0.0512
  569MOL0     C78418   8.233   4.712   8.944 -0.0556  0.1164  0.2629
  569MOL0     C78419   8.310   4.621   8.869  0.1560 -0.1665 -0.0520
  569MOL0     O78420   8.424   4.669   8.809  0.5222  0.1558 -0.3706
  569MOL0     C78421   8.528   4.583   8.781  0.6917 -0.8388  0.0448
  569MOL0     C78422   8.642   4.671   8.755 -0.7334 -0.1532  0.0235
  569MOL0     C78423   8.637   4.736   8.622 -0.0270 -0.7461 -0.1794
  569MOL0     C78424   8.635   4.645   8.502 -0.1316 -0.1985  0.0053
  569MOL0     C78425   8.495   4.632   8.437 -0.4378 -0.1279  0.1105
  569MOL0     C78426   8.495   4.525   8.319  0.4022 -0.4572  0.0876
  569MOL0     C78427   8.359   4.530   8.263  0.5112 -0.4913  0.2426
  569MOL0     C78428   8.332   4.492   8.112  0.3805 -0.0378 -0.1589
  569MOL0    Cl78429   8.155   4.483   8.062 -0.0461  0.2714 -0.1801
  569MOL0     C78430   8.264   4.491   8.863 -0.9290 -0.3928 -0.0163
  569MOL0     C78431   8.151   4.453   8.939  0.1110  0.4680  0.9460
  569MOL0     O78432   7.834   4.675   8.977  0.7880 -0.6776  0.3201
  569MOL0     C78433   7.758   4.526   9.268 -0.4875 -0.1728  0.1811
  569MOL0     C78434   7.660   4.493   9.354  1.1436  0.5546  0.3621
  569MOL0     N78435   6.976   4.087   9.525 -0.1800  0.4713 -0.3485
  569MOL0     N78436   6.950   4.011   9.628  0.5637  0.0240  1.1120
  569MOL0     C78437   6.311   3.605   9.251  0.0870  0.1049 -0.2753
  569MOL0     C78438   6.283   3.585   9.119 -0.1690  0.5798 -0.9108
  569MOL0     C78439   6.042   3.409   8.756 -0.1692 -0.4316  0.2120
  569MOL0     C78440   6.050   3.540   8.702  0.7537 -0.3753 -0.5780
  569MOL0     C78441   5.996   3.567   8.576  0.1374 -0.3636  1.6768
  569MOL0     C78442   5.948   3.468   8.492  0.2913  0.2209 -0.9656
  569MOL0     O78443   5.898   3.506   8.370 -0.4844  1.4746  0.2775
  569MOL0     C78444   5.764   3.532   8.376 -0.1927 -0.2405 -0.1240
  569MOL0     C78445   5.677   3.408   8.381 -0.5807  0.4177 -0.8363
  569MOL0     C78446   5.546   3.416   8.310  0.0536  0.2189 -0.4035
  569MOL0     C78447   5.433   3.505   8.383  0.3782  0.3695  0.0543
  569MOL0     C78448   5.468   3.644   8.390 -0.2065  0.3237  0.4349
  569MOL0     C78449   5.503   3.760   8.381  0.1210 -0.0586  0.5497
  569MOL0     C78450   5.964   3.333   8.536  0.2869 -1.0315  0.2052
  569MOL0     C78451   6.003   3.308   8.662  0.4253  0.3721 -0.2623
  569MOL0     C78452   6.024   3.164   8.704 -0.2372 -0.0129  0.2901
  569MOL0     H78453   6.036   3.358   9.169  0.9046 -0.4682 -1.2190
  569MOL0     H78454   6.115   3.391   9.402 -0.1412 -1.1453 -0.7526
  569MOL0     H78455   6.318   3.727   9.514 -1.3395 -1.1575  0.3889
  569MOL0     H78456   6.473   3.651   9.498 -0.3096  0.0747  0.1438
  569MOL0     H78457   6.271   3.612   9.714  0.5596 -0.6557  1.1365
  569MOL0     H78458   6.421   3.528   9.714  2.5248  2.1804  4.0650
  569MOL0     H78459   6.395   3.825   9.756 -0.4662  1.1920  0.5198
  569MOL0     H78460   6.447   3.689   9.865 -1.7482  2.2037  0.2761
  569MOL0     H78461   6.636   3.633   9.757 -3.0231 -1.7621 -3.2451
  569MOL0     H78462   6.622   3.774   9.643 -0.3544  0.6721  0.7090
  569MOL0     H78463   6.631   3.837   9.940 -3.3921 -2.6559 -1.1027
  569MOL0     H78464   6.629   3.941   9.808 -0.2890 -0.2060 -0.3614
  569MOL0     H78465   6.844   3.720   9.853  1.2103 -0.4350 -3.3220
  569MOL0     H78466   6.848   3.822   9.724  1.1129  2.4641  0.5739
  569MOL0     H78467   7.020   3.885   9.906 -0.5982 -0.5135 -2.0343
  569MOL0     H78468   6.887   3.896  10.014 -1.6943 -0.9152 -0.3556
  569MOL0     H78469   6.783   4.094   9.897  1.1319  2.4606  4.2154
  569MOL0     H78470   6.949   4.126   9.946 -1.2807  0.1366  2.5467
  569MOL0     H78471   6.946   4.320   9.757  1.8956  0.1387  0.0299
  569MOL0     H78472   6.922   4.411   9.477  0.0620  1.1753  0.9154
  569MOL0     H78473   7.002   4.289   9.371  3.5511  1.6622  0.0946
  569MOL0     H78474   7.158   4.407   9.613  4.2970 -2.2415 -0.7033
  569MOL0     H78475   7.205   4.303   9.498  2.1495  1.5088  3.4320
  569MOL0     H78476   7.166   4.486   9.311  1.1652 -1.6359  0.3141
  569MOL0     H78477   7.127   4.603   9.425 -0.8054 -0.2058 -0.1360
  569MOL0     H78478   7.336   4.640   9.361 -2.8951  1.4859  0.7954
  569MOL0     H78479   7.342   4.594   9.530  0.2948 -0.6625  1.0720
  569MOL0     H78480   7.386   4.520   9.158 -1.2276 -0.1294  2.5508
  569MOL0     H78481   7.473   4.523   8.909 -1.3714  3.0338  0.2125
  569MOL0     H78482   7.654   4.500   8.890  1.3378  0.3342  1.4577
  569MOL0     H78483   7.574   4.656   8.921  0.0446  0.2595  1.7379
  569MOL0     H78484   8.055   4.765   9.043  0.4177  1.5300 -2.0394
  569MOL0     H78485   8.264   4.816   8.948 -4.1619  1.5323 -0.0557
  569MOL0     H78486   8.542   4.528   8.875 -2.1849 -0.3922  0.8310
  569MOL0     H78487   8.496   4.521   8.698  0.4758  0.1437 -0.6221
  569MOL0     H78488   8.648   4.753   8.828  0.3188  0.9128 -1.2177
  569MOL0     H78489   8.730   4.606   8.763  0.0792  0.9561  0.4298
  569MOL0     H78490   8.724   4.802   8.615  0.1210 -1.1268 -3.7549
  569MOL0     H78491   8.543   4.793   8.618 -0.8261 -1.4749  3.9022
  569MOL0     H78492   8.666   4.543   8.526  0.6869  0.0016 -0.1682
  569MOL0     H78493   8.703   4.681   8.423 -2.4716  2.7987 -0.8439
  569MOL0     H78494   8.425   4.600   8.516 -1.3301  3.2848  0.8864
  569MOL0     H78495   8.453   4.730   8.411 -1.7616 -0.4850  0.7996
  569MOL0     H78496   8.528   4.427   8.356 -1.2423 -0.4340  1.7349
  569MOL0     H78497   8.563   4.554   8.238 -1.5791  2.5822 -0.6623
  569MOL0     H78498   8.332   4.636   8.269 -0.4280 -0.7653  1.1993
  569MOL0     H78499   8.289   4.469   8.320 -0.6150  2.0741  1.7876
  569MOL0     H78500   8.375   4.394   8.091 -0.9841 -1.1766  1.9826
  569MOL0     H78501   8.385   4.559   8.044  2.2550 -1.0753  0.2098
  569MOL0     H78502   8.318   4.435   8.787  1.5580  2.3135 -0.4735
  569MOL0     H78503   8.108   4.353   8.931 -2.6626  1.3501  3.2646
  569MOL0     H78504   7.861   4.546   9.297 -0.5242  3.8353 -1.7663
  569MOL0     H78505   7.677   4.485   9.461 -2.9594  3.7004  1.4882
  569MOL0     H78506   6.391   3.677   9.268 -1.7107  1.6206  2.5179
  569MOL0     H78507   6.348   3.633   9.046 -0.7219  0.6784 -1.3467
  569MOL0     H78508   6.081   3.625   8.762  0.9478  0.9532 -2.4474
  569MOL0     H78509   6.003   3.667   8.535  0.2794 -1.6824 -1.8994
  569MOL0     H78510   5.748   3.601   8.459 -1.3858  1.1597 -1.4602
  569MOL0     H78511   5.745   3.586   8.283 -1.3138 -1.7231 -0.7891
  569MOL0     H78512   5.640   3.389   8.482 -2.2984 -0.4715 -1.5906
  569MOL0     H78513   5.744   3.327   8.351 -0.7519 -0.0351 -0.0300
  569MOL0     H78514   5.567   3.434   8.204  1.7787 -1.7160 -0.4591
  569MOL0     H78515   5.497   3.319   8.316 -2.9487  1.6700  0.7157
  569MOL0     H78516   5.429   3.473   8.488  2.3716 -1.1028 -0.2674
  569MOL0     H78517   5.332   3.482   8.348 -0.2354 -4.8233  3.9856
  569MOL0     H78518   5.536   3.859   8.358 -2.0394  0.5292 -0.2470
  569MOL0     H78519   5.950   3.249   8.468  0.7725 -1.4914  0.6626
  569MOL0     H78520   5.956   3.124   8.780 -0.3941 -0.6871 -0.1946
  569MOL0     H78521   5.991   3.095   8.626 -0.3337 -0.3179  0.5957
  569MOL0     H78522   6.130   3.147   8.723 -0.4858 -1.6584  0.3906
  570MOL0     O78523   5.494   8.465   3.694  0.4872  0.5263 -1.0986
  570MOL0     C78524   5.501   8.428   3.577  0.1724  0.1200 -0.1218
  570MOL0     O78525   5.600   8.346   3.530  0.2649 -0.2026  0.7299
  570MOL0     C78526   5.679   8.257   3.595  0.3480 -0.2800 -0.4515
  570MOL0     C78527   5.657   8.216   3.728 -0.7740  0.6750  0.0916
  570MOL0     C78528   5.767   8.150   3.790  0.0923  0.5818  0.3822
  570MOL0     C78529   5.874   8.094   3.718 -0.7704  0.7638  0.5188
  570MOL0     O78530   5.976   8.008   3.759  0.3033  0.9094  0.3543
  570MOL0     C78531   5.956   7.931   3.887  0.4821 -1.1386  0.8069
  570MOL0     C78532   6.079   7.831   3.908 -0.1879 -0.2306 -0.4132
  570MOL0     C78533   6.098   7.776   4.049 -1.2506  0.2316 -0.0630
  570MOL0     C78534   6.240   7.735   4.071 -0.2759  0.9186  0.3016
  570MOL0     C78535   6.283   7.670   4.207 -0.0664 -0.4342  0.1135
  570MOL0     C78536   6.313   7.763   4.322  0.0449  0.1544  0.3736
  570MOL0     C78537   6.447   7.829   4.299 -0.3730 -0.4641 -0.5399
  570MOL0     C78538   6.506   7.885   4.424 -0.1844  0.5563 -0.1306
  570MOL0     N78539   6.419   7.974   4.487  0.1549 -0.3309  0.2688
  570MOL0     C78540   6.346   7.954   4.600 -0.5250  0.6841  0.4180
  570MOL0     C78541   6.290   8.080   4.619  0.1863  0.9571 -0.7080
  570MOL0     C78542   6.194   8.117   4.723 -0.7153  0.0172  0.0191
  570MOL0     C78543   6.083   8.212   4.688  0.0636  0.1497  0.3234
  570MOL0     C78544   6.133   8.358   4.682 -0.2508 -0.5544  0.4488
  570MOL0     C78545   6.029   8.447   4.621 -0.2958 -0.9050 -0.5316
  570MOL0     O78546   6.053   8.580   4.673 -0.7002 -0.5697 -0.1429
  570MOL0     C78547   6.177   8.633   4.667  0.0078  0.1026 -0.2891
  570MOL0     C78548   6.277   8.609   4.573 -0.2322 -0.3723 -0.7409
  570MOL0     C78549   6.396   8.672   4.566 -0.7611  0.3270  0.3934
  570MOL0     C78550   6.495   8.635   4.455  0.4821 -0.0767  0.2948
  570MOL0     C78551   6.417   8.774   4.663 -0.5705 -0.2733  0.9879
  570MOL0     C78552   6.541   8.853   4.680 -0.3072 -0.0790 -0.5812
  570MOL0     O78553   6.529   8.977   4.744 -0.5059  0.5664  0.9215
  570MOL0     C78554   6.635   9.063   4.771  1.1501 -2.2566  0.8686
  570MOL0     C78555   6.629   9.198   4.730 -0.0731  0.5778 -0.2495
  570MOL0     C78556   6.737   9.291   4.743  0.8145 -0.6029  0.1125
  570MOL0     C78557   6.851   9.251   4.802  0.3364  1.0474 -0.1410
  570MOL0     O78558   6.958   9.336   4.794 -0.5363 -0.0617  0.8313
  570MOL0     C78559   7.098   9.303   4.825  0.3254 -0.1238  0.5809
  570MOL0     C78560   7.138   9.313   4.973  0.1097  0.2040 -0.4720
  570MOL0     C78561   7.044   9.406   5.046  0.0718  0.0370 -0.4932
  570MOL0     C78562   7.118   9.471   5.164 -0.1191 -1.1173  0.3403
  570MOL0     C78563   7.080   9.418   5.300  0.7962 -1.1476  0.3285
  570MOL0     C78564   7.145   9.498   5.410 -0.7584 -0.3723  0.4022
  570MOL0     C78565   7.099   9.433   5.546  0.1646  0.1357  0.1535
  570MOL0     C78566   7.196   9.334   5.597 -0.2890 -0.3780 -0.1010
  570MOL0    Cl78567   7.350   9.400   5.638 -0.1917 -0.1280  0.0549
  570MOL0     C78568   6.863   9.112   4.839 -0.5478  0.0618  0.4467
  570MOL0     C78569   6.750   9.022   4.840  0.1728 -0.4008  0.8936
  570MOL0     O78570   6.655   8.802   4.661  0.8433  0.0979  0.5387
  570MOL0     C78571   6.306   8.807   4.742  0.4329 -1.3839  0.5090
  570MOL0     C78572   6.190   8.738   4.749 -0.3565 -0.0509 -0.2246
  570MOL0     N78573   6.332   8.160   4.521  0.0129 -0.3562  0.6160
  570MOL0     N78574   6.399   8.095   4.442  0.4966  0.9578  0.1855
  570MOL0     C78575   5.888   8.136   3.580  0.3317 -0.3067 -0.0747
  570MOL0     C78576   5.791   8.218   3.524  0.0332  0.6426 -0.2661
  570MOL0     C78577   5.415   8.498   3.479  0.0731  0.5273  0.5316
  570MOL0     C78578   5.477   8.514   3.353  0.2091 -0.0648  1.6953
  570MOL0     C78579   5.410   8.576   3.244  0.2124  0.3549  0.4466
  570MOL0     C78580   5.284   8.620   3.263  0.4113  0.3538  0.4459
  570MOL0     O78581   5.213   8.685   3.166 -0.0303  0.5111 -0.1841
  570MOL0     C78582   5.178   8.820   3.201  0.5280 -0.1188 -0.5176
  570MOL0     C78583   5.036   8.856   3.157  0.5450  0.1486  0.0558
  570MOL0     C78584   4.922   8.797   3.240 -0.6564 -0.3116 -0.4730
  570MOL0     C78585   4.786   8.853   3.233 -0.5719 -0.6393  0.5756
  570MOL0     C78586   4.680   8.762   3.193  0.3927  0.5701 -0.6870
  570MOL0     C78587   4.588   8.702   3.132 -0.3671 -0.0556  0.1676
  570MOL0     C78588   5.218   8.608   3.388  0.0619  0.5439  0.4078
  570MOL0     C78589   5.283   8.544   3.492 -0.2419 -0.1624  0.0767
  570MOL0     C78590   5.208   8.523   3.619  0.0479  1.1167 -0.3344
  570MOL0     H78591   5.574   8.250   3.787 -1.4163 -0.9512  0.1886
  570MOL0     H78592   5.760   8.131   3.896 -5.9192 -2.8231 -0.1680
  570MOL0     H78593   5.861   7.878   3.874 -0.9470  1.6324 -1.0453
  570MOL0     H78594   5.941   8.003   3.969 -1.9906 -1.5794  0.8094
  570MOL0     H78595   6.064   7.743   3.845 -0.5231 -0.2707 -0.2800
  570MOL0     H78596   6.169   7.888   3.881 -0.4081  0.0210 -0.6119
  570MOL0     H78597   6.088   7.860   4.119 -0.3588 -0.6831  1.2081
  570MOL0     H78598   6.029   7.696   4.077 -3.1622  0.4730 -3.5506
  570MOL0     H78599   6.254   7.655   3.997 -1.3107  0.7755  0.2431
  570MOL0     H78600   6.305   7.817   4.039  0.1832  0.5249  0.2186
  570MOL0     H78601   6.358   7.593   4.189 -0.3649 -0.7440  0.1675
  570MOL0     H78602   6.197   7.609   4.237  0.3623 -0.2233  1.9380
  570MOL0     H78603   6.238   7.843   4.331  0.3476  0.2502  2.7004
  570MOL0     H78604   6.320   7.696   4.408 -2.5823 -0.2440  0.3316
  570MOL0     H78605   6.446   7.906   4.222  0.9561 -0.2686 -0.3911
  570MOL0     H78606   6.514   7.754   4.255  0.0867  0.0043 -0.6564
  570MOL0     H78607   6.542   7.800   4.482 -2.0643  0.2075  0.5870
  570MOL0     H78608   6.594   7.944   4.397 -1.2896  1.6899 -1.4165
  570MOL0     H78609   6.339   7.861   4.656  0.7951  0.9192  1.0093
  570MOL0     H78610   6.263   8.149   4.802 -0.7855  1.9325 -0.6526
  570MOL0     H78611   6.151   8.025   4.764 -0.1853 -0.5997 -0.7842
  570MOL0     H78612   6.049   8.186   4.588  0.5404 -1.5371  0.5603
  570MOL0     H78613   5.996   8.201   4.753 -2.5648 -0.5213 -3.0424
  570MOL0     H78614   6.158   8.386   4.785  0.9801 -0.0942  0.0462
  570MOL0     H78615   6.222   8.356   4.618 -1.3680 -1.9295 -1.1246
  570MOL0     H78616   6.027   8.450   4.512  3.4747  0.9872 -0.6967
  570MOL0     H78617   5.932   8.422   4.666  0.0712 -1.0915  0.1809
  570MOL0     H78618   6.269   8.527   4.502 -1.0102 -1.0605  0.1200
  570MOL0     H78619   6.559   8.722   4.441  0.5370 -0.5816 -3.9350
  570MOL0     H78620   6.444   8.621   4.359  0.8882 -5.2709  0.5604
  570MOL0     H78621   6.549   8.541   4.468  2.2449  1.0287  1.3584
  570MOL0     H78622   6.539   9.222   4.673 -0.7863  0.2522  0.7087
  570MOL0     H78623   6.729   9.393   4.707  0.5273 -0.4640  0.5658
  570MOL0     H78624   7.142   9.215   4.777 -1.0237 -0.4073 -0.1766
  570MOL0     H78625   7.153   9.385   4.777 -0.4196 -0.0395 -0.1494
  570MOL0     H78626   7.139   9.219   5.029  3.1574  0.9837  0.9795
  570MOL0     H78627   7.243   9.343   4.973  1.2080 -3.0397 -3.3291
  570MOL0     H78628   6.958   9.347   5.079 -0.9329 -0.6545 -3.9560
  570MOL0     H78629   7.002   9.479   4.977 -0.5502  1.3196  1.1603
  570MOL0     H78630   7.094   9.577   5.157  2.4542 -0.5551 -4.9952
  570MOL0     H78631   7.226   9.458   5.157  0.6639  3.3708  1.2384
  570MOL0     H78632   6.970   9.413   5.303  0.7621 -0.7355 -0.0785
  570MOL0     H78633   7.113   9.314   5.296 -1.4176 -1.9306  0.8473
  570MOL0     H78634   7.108   9.599   5.394 -0.1426  0.5538  3.8622
  570MOL0     H78635   7.254   9.503   5.394 -0.9740  1.7816 -0.8094
  570MOL0     H78636   7.001   9.385   5.539 -1.1717  2.2145  2.9817
  570MOL0     H78637   7.101   9.509   5.624  1.3627 -0.7732  1.0615
  570MOL0     H78638   7.202   9.259   5.518  0.0874  0.5683 -0.9926
  570MOL0     H78639   7.161   9.303   5.696 -0.0698  0.5377  0.2691
  570MOL0     H78640   6.957   9.074   4.877  0.4759  0.0259 -1.9433
  570MOL0     H78641   6.761   8.918   4.870 -0.1790 -1.2127 -1.5611
  570MOL0     H78642   6.329   8.878   4.820 -1.9497  0.2088 -0.1104
  570MOL0     H78643   6.102   8.767   4.807 -0.7002  0.1690 -0.8433
  570MOL0     H78644   5.978   8.115   3.522  0.4691  0.7578 -0.2664
  570MOL0     H78645   5.816   8.256   3.425  0.4787  1.8335  0.2947
  570MOL0     H78646   5.572   8.470   3.324 -0.2737 -2.0762  2.9590
  570MOL0     H78647   5.446   8.612   3.148 -0.3381  3.1075  1.1706
  570MOL0     H78648   5.180   8.841   3.309 -3.4020  0.6259 -0.4392
  570MOL0     H78649   5.242   8.893   3.150  0.4545  0.3686  0.0706
  570MOL0     H78650   5.020   8.818   3.055 -0.9294  3.9999 -1.3301
  570MOL0     H78651   5.017   8.963   3.155 -0.2504  0.0898  2.3908
  570MOL0     H78652   4.923   8.688   3.229  1.0125 -0.3906  0.0968
  570MOL0     H78653   4.952   8.810   3.344  0.4955 -1.1516 -0.6777
  570MOL0     H78654   4.785   8.948   3.180  2.0927 -0.0957  1.3507
  570MOL0     H78655   4.759   8.882   3.335  0.8837  2.0157  0.2768
  570MOL0     H78656   4.515   8.664   3.064  0.1373  0.8728 -0.9230
  570MOL0     H78657   5.116   8.643   3.404  0.9826  3.2073  0.9416
  570MOL0     H78658   5.233   8.591   3.701  0.0883  2.2197 -1.2271
  570MOL0     H78659   5.100   8.520   3.606  0.1683 -0.3967 -1.1742
  570MOL0     H78660   5.237   8.423   3.653 -0.1925  0.5089 -1.8269
  571MOL0     O78661   9.472   5.106   1.396  0.4390  0.2277 -0.3364
  571MOL0     C78662   9.350   5.097   1.380  0.3143 -0.6606  0.0615
  571MOL0     O78663   9.272   5.039   1.475 -0.6124  0.1272 -0.0952
  571MOL0     C78664   9.322   5.032   1.604 -0.3480  0.3381  0.6609
  571MOL0     C78665   9.377   4.916   1.664 -0.3342  0.5406  0.5351
  571MOL0     C78666   9.444   4.922   1.789  0.4503  0.2200  0.9221
  571MOL0     C78667   9.447   5.041   1.860 -0.0106  0.2877 -0.9080
  571MOL0     O78668   9.516   5.037   1.975 -0.2881 -0.0486  0.1863
  571MOL0     C78669   9.497   5.137   2.072  0.0944 -0.3354 -0.3317
  571MOL0     C78670   9.595   5.144   2.192  0.1117  0.1445  0.9057
  571MOL0     C78671   9.575   5.258   2.291  0.1959  0.9531  0.6727
  571MOL0     C78672   9.684   5.252   2.403 -0.0502 -0.1348 -0.1054
  571MOL0     C78673   9.652   5.339   2.522  0.1363 -0.7511  0.5039
  571MOL0     C78674   9.689   5.490   2.498  0.4888 -0.5182  0.4146
  571MOL0     C78675   9.674   5.558   2.635  0.2357  0.3652 -0.6437
  571MOL0     C78676   9.533   5.595   2.681 -0.8920 -0.1798 -0.1545
  571MOL0     N78677   9.523   5.619   2.834  0.0118  0.5468 -0.1100
  571MOL0     C78678   9.612   5.701   2.899 -0.0547 -0.1393 -0.1995
  571MOL0     C78679   9.565   5.707   3.025  0.8104 -0.8129 -0.0528
  571MOL0     C78680   9.611   5.806   3.133 -0.1832  0.7993  0.5757
  571MOL0     C78681   9.637   5.736   3.271 -0.3173  0.6420  1.0183
  571MOL0     C78682   9.652   5.856   3.369  0.1649  0.5591 -0.2393
  571MOL0     C78683   9.609   5.817   3.502  0.1808 -0.1723 -0.2303
  571MOL0     O78684   9.630   5.680   3.534 -0.4305 -0.5083  0.4995
  571MOL0     C78685   9.764   5.649   3.557  0.2358  0.8081 -0.3731
  571MOL0     C78686   9.840   5.719   3.651  0.5817 -0.4702 -0.3848
  571MOL0     C78687   9.971   5.693   3.688  0.9776  0.3852 -1.1543
  571MOL0     C78688  10.043   5.783   3.781 -0.4385  0.8629 -0.0089
  571MOL0     C78689  10.021   5.568   3.642 -0.7750  0.4269 -0.1171
  571MOL0     C78690  10.161   5.524   3.662  0.4487  0.5788  0.2044
  571MOL0     O78691  10.208   5.434   3.568 -0.3304 -0.1558 -0.1273
  571MOL0     C78692  10.326   5.369   3.607  0.5154  0.3089  0.6663
  571MOL0     C78693  10.333   5.266   3.699  0.2040 -0.6306  0.4426
  571MOL0     C78694  10.452   5.201   3.721 -0.2337  0.7048 -0.9621
  571MOL0     C78695  10.563   5.239   3.659 -1.2189 -0.4359  0.2782
  571MOL0     O78696  10.684   5.173   3.667  0.2849 -0.9816  0.0335
  571MOL0     C78697  10.666   5.030   3.663 -0.4650 -1.1531 -0.7253
  571MOL0     C78698  10.789   4.961   3.603  0.1967  0.2674 -0.1765
  571MOL0     C78699  10.833   5.003   3.464  0.1544  0.0907  0.0570
  571MOL0     C78700  10.965   4.928   3.418 -0.1024  0.1494  0.6733
  571MOL0     C78701  10.998   4.957   3.270  0.0130  0.1171  0.4314
  571MOL0     C78702  11.074   5.094   3.264 -0.5355  0.3295  0.7876
  571MOL0     C78703  11.147   5.111   3.125 -0.4413  0.7659 -0.9737
  571MOL0     C78704  11.284   5.143   3.128  0.0996  0.4201  0.1741
  571MOL0    Cl78705  11.382   5.011   3.185  0.0174 -0.0109 -0.0025
  571MOL0     C78706  10.562   5.353   3.571  0.2669  0.0904  0.1107
  571MOL0     C78707  10.439   5.412   3.543  0.1133  0.1508  1.0316
  571MOL0     O78708  10.234   5.564   3.756 -0.0043 -0.0719  0.6053
  571MOL0     C78709   9.943   5.487   3.553  1.0957 -0.1946  0.2182
  571MOL0     C78710   9.818   5.522   3.517 -0.0327  0.0603  0.2548
  571MOL0     N78711   9.448   5.629   3.029 -0.5505 -0.1170 -0.5150
  571MOL0     N78712   9.436   5.563   2.922  0.2989  0.0412  0.0463
  571MOL0     C78713   9.375   5.148   1.810 -0.5300 -0.2109  0.3399
  571MOL0     C78714   9.322   5.147   1.683  0.2422  0.2048 -0.2615
  571MOL0     C78715   9.291   5.119   1.248 -0.2690 -1.1523  0.2435
  571MOL0     C78716   9.147   5.132   1.240 -0.6498 -0.7988 -0.2882
  571MOL0     C78717   9.084   5.163   1.122  0.6267 -0.3301 -0.2410
  571MOL0     C78718   9.148   5.175   1.007 -0.6084  0.3396  0.5897
  571MOL0     O78719   9.087   5.175   0.877  0.2904  0.0740 -0.5822
  571MOL0     C78720   8.941   5.181   0.855 -1.5757 -0.0851 -0.0165
  571MOL0     C78721   8.913   5.173   0.704 -0.4498  0.1584 -0.4521
  571MOL0     C78722   8.765   5.154   0.685 -0.1816 -0.0092  0.1083
  571MOL0     C78723   8.723   5.144   0.542 -0.4165 -0.6191  1.0239
  571MOL0     C78724   8.743   5.266   0.461 -0.1279 -0.1129  0.1399
  571MOL0     C78725   8.763   5.357   0.392 -0.6405  0.2437  0.4260
  571MOL0     C78726   9.292   5.159   1.007  0.9735  0.4092 -0.5654
  571MOL0     C78727   9.365   5.133   1.123 -0.3133  0.4154 -0.3324
  571MOL0     C78728   9.514   5.112   1.116 -0.0898 -0.5530  0.2309
  571MOL0     H78729   9.380   4.830   1.598 -0.0686  2.6727 -2.4375
  571MOL0     H78730   9.501   4.839   1.827  0.7623 -0.1198 -0.2579
  571MOL0     H78731   9.392   5.124   2.099 -0.3216 -2.6761 -2.6865
  571MOL0     H78732   9.507   5.232   2.017  0.8289  1.0565  2.0709
  571MOL0     H78733   9.586   5.051   2.249 -0.6861  0.3304  1.0829
  571MOL0     H78734   9.697   5.152   2.153 -0.5452  2.7081 -0.4926
  571MOL0     H78735   9.580   5.359   2.247 -2.4334  1.2569  0.9046
  571MOL0     H78736   9.479   5.239   2.339 -0.2103 -2.6173 -1.2051
  571MOL0     H78737   9.697   5.149   2.436  2.2544  0.0063 -0.4347
  571MOL0     H78738   9.777   5.289   2.358  1.3836 -2.5861  0.6567
  571MOL0     H78739   9.719   5.307   2.602  0.9968  0.0095  0.1041
  571MOL0     H78740   9.548   5.321   2.551 -1.5632  4.3253 -1.4197
  571MOL0     H78741   9.787   5.513   2.455  0.4743 -1.6034 -0.2371
  571MOL0     H78742   9.622   5.540   2.426 -0.5839  3.3918  3.7819
  571MOL0     H78743   9.741   5.644   2.637  6.1037 -3.5271 -1.4713
  571MOL0     H78744   9.724   5.502   2.715 -2.6913 -0.2872  0.8424
  571MOL0     H78745   9.491   5.683   2.631  0.1678  0.3386 -0.1777
  571MOL0     H78746   9.467   5.512   2.656  0.8896 -1.3371 -1.2965
  571MOL0     H78747   9.697   5.750   2.852  1.3141 -2.8707 -0.7874
  571MOL0     H78748   9.526   5.875   3.137 -1.6325 -0.9346  1.2183
  571MOL0     H78749   9.700   5.857   3.097  1.1405 -1.7865 -0.0383
  571MOL0     H78750   9.548   5.679   3.300  1.6469 -1.0385  4.3540
  571MOL0     H78751   9.721   5.667   3.266 -0.8787  0.0461 -1.2887
  571MOL0     H78752   9.754   5.890   3.393  1.0956 -2.8687  1.2579
  571MOL0     H78753   9.586   5.934   3.331 -1.9475 -1.1393 -0.2405
  571MOL0     H78754   9.650   5.886   3.575  1.4128 -0.8664 -0.2470
  571MOL0     H78755   9.500   5.825   3.507 -0.1390  0.9538 -4.6367
  571MOL0     H78756   9.786   5.802   3.696 -0.4510 -0.2480 -1.9682
  571MOL0     H78757   9.980   5.866   3.815 -2.4931  0.6389 -2.8777
  571MOL0     H78758  10.121   5.824   3.716 -2.0921  0.7711 -2.1533
  571MOL0     H78759  10.083   5.739   3.873  0.4839  1.6853 -0.0038
  571MOL0     H78760  10.240   5.242   3.750  0.5873 -0.1867  1.3886
  571MOL0     H78761  10.455   5.116   3.788 -4.3225  0.0739 -1.3347
  571MOL0     H78762  10.659   4.982   3.761 -1.2550 -0.7190 -0.5630
  571MOL0     H78763  10.579   4.995   3.607 -1.2277  2.4072 -2.0079
  571MOL0     H78764  10.867   4.982   3.676 -1.6282  0.2449  1.8695
  571MOL0     H78765  10.771   4.853   3.602  0.2739  0.2543 -0.2681
  571MOL0     H78766  10.857   5.110   3.465 -4.4350  1.3391 -0.5098
  571MOL0     H78767  10.749   4.993   3.395  0.2868 -1.0583  0.0569
  571MOL0     H78768  10.941   4.822   3.417 -4.2425  0.9298 -0.9221
  571MOL0     H78769  11.054   4.938   3.481 -1.3857  0.9560  2.4543
  571MOL0     H78770  11.058   4.877   3.224 -3.1106 -1.3632 -1.4949
  571MOL0     H78771  10.907   4.969   3.210  1.9086  2.9289 -2.1731
  571MOL0     H78772  11.134   5.107   3.355 -1.9480  0.3966  1.7333
  571MOL0     H78773  10.981   5.151   3.271 -0.0218  1.1497  1.0943
  571MOL0     H78774  11.094   5.196   3.082 -1.3719  0.1969 -0.9562
  571MOL0     H78775  11.130   5.025   3.060  1.0688 -0.4233  0.1184
  571MOL0     H78776  11.304   5.229   3.193  3.3019  1.2697 -1.7614
  571MOL0     H78777  11.321   5.169   3.029 -1.1686  1.0776 -0.1506
  571MOL0     H78778  10.648   5.392   3.518  1.0554 -1.2138  0.3850
  571MOL0     H78779  10.440   5.492   3.470  0.0371 -0.8403 -0.0809
  571MOL0     H78780   9.966   5.392   3.506 -1.0983 -0.8615  0.3362
  571MOL0     H78781   9.757   5.460   3.452 -0.0510 -1.8567  2.0034
  571MOL0     H78782   9.354   5.237   1.869 -3.7371 -0.5608 -0.0733
  571MOL0     H78783   9.286   5.236   1.633  0.0433  0.6857  0.7219
  571MOL0     H78784   9.100   5.131   1.338  3.7881  2.2443  2.2652
  571MOL0     H78785   8.975   5.163   1.120  0.6270 -0.2296 -0.2877
  571MOL0     H78786   8.889   5.100   0.907  1.3080 -0.7070  2.1486
  571MOL0     H78787   8.901   5.278   0.882 -2.2889 -0.5766  0.7342
  571MOL0     H78788   8.981   5.096   0.666 -0.5195  0.8489 -2.0597
  571MOL0     H78789   8.932   5.268   0.653  0.0093 -0.9783 -2.4713
  571MOL0     H78790   8.739   5.059   0.733  0.9487 -2.0758 -3.0454
  571MOL0     H78791   8.711   5.239   0.727 -0.0454  1.4991 -2.5691
  571MOL0     H78792   8.617   5.118   0.535 -0.1784 -1.2938 -0.6346
  571MOL0     H78793   8.769   5.057   0.495 -2.9556 -0.6547 -1.6989
  571MOL0     H78794   8.779   5.440   0.327 -1.2034 -0.9645 -1.3150
  571MOL0     H78795   9.338   5.166   0.909 -3.2441 -0.6910 -2.8814
  571MOL0     H78796   9.535   5.015   1.161 -0.3216 -0.5215  0.4119
  571MOL0     H78797   9.543   5.117   1.011  0.7446  0.8143  0.4980
  571MOL0     H78798   9.559   5.189   1.180  1.7232 -0.2570 -1.3149
  572MOL0     O78799   3.178   6.951   3.213  0.5404  0.5495 -0.0316
  572MOL0     C78800   3.194   7.071   3.223 -0.5093  0.1483  0.3897
  572MOL0     O78801   3.315   7.124   3.211  0.3318 -0.4880  0.1519
  572MOL0     C78802   3.394   7.100   3.094  0.8285  0.4240 -1.0412
  572MOL0     C78803   3.528   7.141   3.107 -0.8950  1.0327 -0.4794
  572MOL0     C78804   3.619   7.104   3.006 -0.3097 -0.4574 -0.0045
  572MOL0     C78805   3.568   7.033   2.896 -0.4524  0.0775  0.2217
  572MOL0     O78806   3.642   7.010   2.780  0.7336 -0.3089 -0.3166
  572MOL0     C78807   3.777   7.052   2.776 -0.2882  0.1619  0.9143
  572MOL0     C78808   3.884   6.965   2.852  0.8234  0.9903  0.4636
  572MOL0     C78809   3.891   6.808   2.830 -0.3721  0.1983  0.9765
  572MOL0     C78810   3.988   6.756   2.716  0.3122  0.2524 -0.3016
  572MOL0     C78811   4.131   6.801   2.736  0.8916  0.6199 -1.0218
  572MOL0     C78812   4.227   6.743   2.629  0.0204 -1.4186 -1.4851
  572MOL0     C78813   4.198   6.786   2.485 -0.3969 -0.0860  0.2760
  572MOL0     C78814   4.297   6.712   2.392  1.0296 -0.4721  0.0222
  572MOL0     N78815   4.244   6.584   2.357 -0.3057  0.2069 -0.6801
  572MOL0     C78816   4.288   6.472   2.415 -0.4195  1.2428  1.0878
  572MOL0     C78817   4.203   6.372   2.367  0.1065 -0.3134 -0.0346
  572MOL0     C78818   4.227   6.225   2.389 -0.0093  0.2701  0.1837
  572MOL0     C78819   4.117   6.147   2.451  0.1602 -0.5423 -0.8205
  572MOL0     C78820   4.009   6.113   2.354 -0.2843 -0.4692  1.2613
  572MOL0     C78821   3.908   6.018   2.416 -0.9776  0.1294 -0.9207
  572MOL0     O78822   3.845   5.943   2.314 -0.5817 -0.5083 -0.0164
  572MOL0     C78823   3.756   5.841   2.341  0.6869  0.2576  0.3647
  572MOL0     C78824   3.706   5.808   2.468  0.5021 -0.1147  0.0397
  572MOL0     C78825   3.617   5.700   2.493 -0.5058  0.0143 -0.2978
  572MOL0     C78826   3.567   5.682   2.634 -1.1865  0.1476  0.1049
  572MOL0     C78827   3.579   5.614   2.386  0.5689 -0.0036  0.2587
  572MOL0     C78828   3.484   5.503   2.410  0.0904  0.3321  0.6121
  572MOL0     O78829   3.526   5.389   2.345  0.2174 -1.1094 -0.1385
  572MOL0     C78830   3.440   5.297   2.304 -1.3020  0.5286  0.4273
  572MOL0     C78831   3.478   5.166   2.298 -0.5873 -0.0340  0.2272
  572MOL0     C78832   3.408   5.054   2.258 -0.2862  0.6345  1.1135
  572MOL0     C78833   3.278   5.076   2.209 -0.2036 -0.6328  0.6432
  572MOL0     O78834   3.180   4.977   2.194  0.4196 -0.2856 -0.8016
  572MOL0     C78835   3.192   4.838   2.182  0.3853  0.3516  0.5962
  572MOL0     C78836   3.054   4.780   2.141  0.3731  0.0970  0.0780
  572MOL0     C78837   2.994   4.846   2.018  0.0457  0.0772  0.1786
  572MOL0     C78838   2.925   4.975   2.065  0.9224  0.2897 -0.6865
  572MOL0     C78839   2.776   4.978   2.027 -1.6323  0.9142 -0.8130
  572MOL0     C78840   2.714   5.114   2.062 -0.1429  0.4599 -0.0624
  572MOL0     C78841   2.565   5.116   2.035  0.1123 -0.0515  0.0986
  572MOL0     C78842   2.514   5.257   1.989  0.2475  0.5647  0.6128
  572MOL0    Cl78843   2.375   5.233   1.865  0.2439  0.1087  0.6080
  572MOL0     C78844   3.240   5.209   2.202  0.1739  0.4553 -0.2083
  572MOL0     C78845   3.314   5.320   2.251 -0.0140 -0.2168  0.2675
  572MOL0     O78846   3.375   5.515   2.463  0.2730 -0.5580  0.2123
  572MOL0     C78847   3.617   5.645   2.257  0.3088  0.5738  0.0362
  572MOL0     C78848   3.703   5.764   2.237 -0.1125  0.4348  0.1713
  572MOL0     N78849   4.107   6.434   2.283 -0.5969  0.1641  0.4937
  572MOL0     N78850   4.135   6.559   2.277  0.3017  0.5647 -0.0046
  572MOL0     C78851   3.445   6.992   2.887 -0.2937  0.1829 -0.1180
  572MOL0     C78852   3.352   7.024   2.984 -0.1955  0.3203 -0.0173
  572MOL0     C78853   3.100   7.138   3.318  0.6476  0.5059  0.2498
  572MOL0     C78854   3.154   7.221   3.422 -0.1835  0.4471  0.1784
  572MOL0     C78855   3.075   7.265   3.538  0.1351  0.6031  0.1103
  572MOL0     C78856   2.939   7.222   3.534 -0.2630  0.0629  0.1636
  572MOL0     O78857   2.870   7.254   3.646  0.6615 -0.4640  0.0842
  572MOL0     C78858   2.728   7.223   3.655 -0.2737  0.5396  0.1170
  572MOL0     C78859   2.661   7.270   3.788 -0.8600  1.0568  0.1344
  572MOL0     C78860   2.629   7.412   3.784 -0.5732  0.0289  0.1406
  572MOL0     C78861   2.549   7.453   3.896 -0.5402 -0.2330 -0.5374
  572MOL0     C78862   2.627   7.457   4.013 -0.5127 -0.3376 -0.5873
  572MOL0     C78863   2.698   7.472   4.114 -0.1503 -0.3876 -0.2471
  572MOL0     C78864   2.889   7.151   3.427  0.4105  0.0644  0.8926
  572MOL0     C78865   2.959   7.114   3.314  0.7433  0.0711  0.4220
  572MOL0     C78866   2.880   7.055   3.204 -0.0056  0.2782  0.2312
  572MOL0     H78867   3.549   7.200   3.195  0.0932  1.2105 -0.8282
  572MOL0     H78868   3.723   7.132   3.017 -0.9622  1.8139  1.0546
  572MOL0     H78869   3.789   7.154   2.811 -0.3548  0.1590  0.9445
  572MOL0     H78870   3.817   7.041   2.675 -3.0681  0.7843 -0.3649
  572MOL0     H78871   3.985   7.004   2.840  1.7401 -1.1669  0.7059
  572MOL0     H78872   3.852   6.975   2.957 -2.0266 -0.7370 -0.1289
  572MOL0     H78873   3.924   6.763   2.924  1.2598 -0.7402  0.0069
  572MOL0     H78874   3.791   6.777   2.798  0.5112  0.6106 -2.6724
  572MOL0     H78875   3.984   6.646   2.713 -1.1726  0.1880  1.7023
  572MOL0     H78876   3.959   6.797   2.619 -1.5301 -1.3907 -0.5056
  572MOL0     H78877   4.167   6.764   2.833  0.3726  0.4368 -0.8940
  572MOL0     H78878   4.134   6.910   2.736 -0.6085  0.7725  2.0880
  572MOL0     H78879   4.323   6.785   2.660 -2.2309  4.1669 -0.7587
  572MOL0     H78880   4.226   6.634   2.636 -0.8311 -1.4156 -1.4594
  572MOL0     H78881   4.208   6.894   2.475  1.9940 -0.4241 -2.1379
  572MOL0     H78882   4.095   6.764   2.458  0.6775 -1.4046 -3.2707
  572MOL0     H78883   4.319   6.773   2.303  0.1921 -1.6630 -1.0457
  572MOL0     H78884   4.398   6.699   2.431  1.7981 -0.2887 -1.7848
  572MOL0     H78885   4.368   6.461   2.488 -0.1788 -0.8071  0.5571
  572MOL0     H78886   4.318   6.223   2.449 -0.8324 -1.4271  1.4584
  572MOL0     H78887   4.259   6.180   2.295  1.9294  2.8339 -0.5016
  572MOL0     H78888   4.148   6.049   2.487 -2.0491 -0.1828  2.5161
  572MOL0     H78889   4.085   6.215   2.531  2.1993  0.5818 -0.8826
  572MOL0     H78890   3.962   6.204   2.317 -1.6184 -1.0428  1.4675
  572MOL0     H78891   4.050   6.068   2.263 -0.1581  1.5859  0.2489
  572MOL0     H78892   3.962   5.949   2.482 -2.8103 -1.9763 -1.4843
  572MOL0     H78893   3.829   6.070   2.471  1.3946  3.3655 -0.3347
  572MOL0     H78894   3.733   5.861   2.559 -2.0883 -1.0090  1.4189
  572MOL0     H78895   3.513   5.769   2.672 -0.5493  1.2431 -1.3856
  572MOL0     H78896   3.658   5.669   2.693 -2.6250  0.3855  2.5139
  572MOL0     H78897   3.506   5.593   2.653 -0.6235 -0.4212 -0.6925
  572MOL0     H78898   3.578   5.131   2.321  0.6732  2.9955 -0.3091
  572MOL0     H78899   3.451   4.955   2.246 -3.0303 -0.3121 -3.3683
  572MOL0     H78900   3.254   4.812   2.095 -0.3196  0.6944 -0.0225
  572MOL0     H78901   3.225   4.794   2.276 -2.9440  2.5174  2.9911
  572MOL0     H78902   3.086   4.677   2.120  0.1584 -0.5971  2.7387
  572MOL0     H78903   2.980   4.769   2.221 -0.0455 -0.0292 -0.3280
  572MOL0     H78904   2.924   4.779   1.968 -2.3600  2.5034  0.1114
  572MOL0     H78905   3.070   4.868   1.942  0.2566  1.7812  0.8439
  572MOL0     H78906   2.976   5.069   2.041 -1.4690  3.3648  4.5332
  572MOL0     H78907   2.929   4.993   2.173 -3.0284  2.3668 -0.7216
  572MOL0     H78908   2.780   4.958   1.920 -2.1608  3.0413 -1.2841
  572MOL0     H78909   2.720   4.899   2.079  1.5793 -0.1712  1.3036
  572MOL0     H78910   2.763   5.195   2.007 -2.0184  1.2306 -0.6978
  572MOL0     H78911   2.719   5.136   2.170 -3.8933 -2.7032  0.9836
  572MOL0     H78912   2.505   5.070   2.114  0.5570  1.5414  1.4293
  572MOL0     H78913   2.547   5.043   1.956 -3.5803 -0.3371  1.0243
  572MOL0     H78914   2.588   5.319   1.939 -3.0394  4.2104 -0.2347
  572MOL0     H78915   2.481   5.317   2.074 -1.3528 -0.7393  0.9704
  572MOL0     H78916   3.134   5.224   2.184  0.0248  0.1201  0.3482
  572MOL0     H78917   3.275   5.420   2.238  1.1863  0.4001  1.1482
  572MOL0     H78918   3.575   5.590   2.174  0.3717  2.8182 -1.5879
  572MOL0     H78919   3.743   5.781   2.138  2.6420 -0.9359  0.9575
  572MOL0     H78920   3.414   6.942   2.796  0.8308  0.3563 -0.6167
  572MOL0     H78921   3.248   6.996   2.990  0.2217 -0.9831  2.0228
  572MOL0     H78922   3.260   7.247   3.414  1.1899 -4.3073  0.2115
  572MOL0     H78923   3.122   7.323   3.616  3.2135  0.0808 -1.2216
  572MOL0     H78924   2.667   7.262   3.573  3.4135  0.9421 -2.7024
  572MOL0     H78925   2.725   7.114   3.651 -0.2852  0.5420  0.0597
  572MOL0     H78926   2.733   7.254   3.868 -0.9893 -0.7559 -0.0731
  572MOL0     H78927   2.572   7.210   3.807 -2.3541  2.4205 -2.0463
  572MOL0     H78928   2.717   7.477   3.772 -0.6789  0.0212 -0.7071
  572MOL0     H78929   2.575   7.447   3.696 -1.4254  2.9295  1.6771
  572MOL0     H78930   2.472   7.378   3.917 -0.4755 -1.0533 -2.9586
  572MOL0     H78931   2.507   7.551   3.867  2.3534  1.1646 -0.3532
  572MOL0     H78932   2.764   7.488   4.196  0.9544 -0.8040 -1.0310
  572MOL0     H78933   2.783   7.125   3.431  1.0773 -3.2293  0.3246
  572MOL0     H78934   2.803   7.120   3.162  1.6188  1.4941 -1.0169
  572MOL0     H78935   2.941   7.024   3.119 -0.4701  0.4448 -0.1652
  572MOL0     H78936   2.823   6.967   3.236 -1.8516  1.5176  0.5005
  573MOL0     O78937   9.152   3.236  10.200 -0.6570 -0.3275  0.0137
  573MOL0     C78938   9.255   3.193  10.147  0.8211 -0.6216  1.0078
  573MOL0     O78939   9.302   3.216  10.014 -0.6203  0.2273  0.5240
  573MOL0     C78940   9.208   3.294   9.948 -0.3592  0.2609 -0.2340
  573MOL0     C78941   9.077   3.248   9.933 -0.0778  1.1651  0.5607
  573MOL0     C78942   8.988   3.301   9.839 -0.9144 -0.1426  0.1076
  573MOL0     C78943   9.033   3.410   9.758 -1.5301  0.1793 -0.5259
  573MOL0     O78944   8.955   3.489   9.683  0.4446 -0.1938 -0.9416
  573MOL0     C78945   8.872   3.577   9.767 -0.0173  0.1854 -0.1868
  573MOL0     C78946   8.826   3.700   9.687 -0.3797  0.6201 -0.4221
  573MOL0     C78947   8.795   3.816   9.781  0.1175  0.1019 -0.3375
  573MOL0     C78948   8.923   3.879   9.832  0.3401 -0.5312  0.0388
  573MOL0     C78949   8.897   3.995   9.920  0.0627 -0.3554  0.5893
  573MOL0     C78950   9.026   4.056   9.986  0.6321  0.3914 -0.0896
  573MOL0     C78951   8.989   4.186  10.058  0.3546 -0.6454  0.2814
  573MOL0     C78952   8.894   4.167  10.176  0.2607  0.6434 -0.2328
  573MOL0     N78953   8.917   4.259  10.288  0.1924  0.3500 -0.7568
  573MOL0     C78954   8.963   4.388  10.275 -0.2686 -0.2878 -0.1637
  573MOL0     C78955   8.968   4.443  10.402 -0.5956 -0.4471 -0.4128
  573MOL0     C78956   9.010   4.575  10.456 -0.9100  0.1177 -0.3832
  573MOL0     C78957   9.099   4.635  10.356 -0.0394 -0.5937  0.7088
  573MOL0     C78958   9.174   4.751  10.427  0.0747  0.1260  0.3001
  573MOL0     C78959   9.298   4.802  10.350 -0.3613  0.5458 -0.4172
  573MOL0     O78960   9.401   4.690  10.341  0.2346  0.5627 -0.0797
  573MOL0     C78961   9.532   4.724  10.325  0.6744  0.1140  0.8939
  573MOL0     C78962   9.567   4.850  10.270  0.1822  1.3990  0.2156
  573MOL0     C78963   9.703   4.877  10.251  0.3798 -0.4853  0.4641
  573MOL0     C78964   9.730   5.009  10.188  0.0711  0.2614 -0.0768
  573MOL0     C78965   9.804   4.787  10.283  0.0945 -0.2718  0.2614
  573MOL0     C78966   9.946   4.810  10.256  0.6217 -0.7307 -0.6176
  573MOL0     O78967   9.993   4.943  10.235 -0.0586  0.5034  0.6796
  573MOL0     C78968  10.128   4.957  10.217 -0.0680 -0.1583 -0.1477
  573MOL0     C78969  10.181   5.004  10.092  0.3417  0.3696  0.2678
  573MOL0     C78970  10.318   5.022  10.075  0.3595  0.3500 -0.2467
  573MOL0     C78971  10.407   4.982  10.173  0.1934  0.9144  0.5079
  573MOL0     O78972  10.543   4.977  10.160  0.6603 -0.1561 -0.3221
  573MOL0     C78973  10.590   5.005  10.028 -0.6677  0.5316 -0.2968
  573MOL0     C78974  10.746   5.004  10.028  1.0030  0.6992 -0.3877
  573MOL0     C78975  10.803   5.096  10.134  0.0140  0.1362 -0.1598
  573MOL0     C78976  10.779   5.246  10.090 -0.1837 -0.4294  0.1120
  573MOL0     C78977  10.852   5.280   9.963 -0.3996  0.5238  0.1147
  573MOL0     C78978  10.847   5.424   9.920 -0.3898  0.0518 -0.1655
  573MOL0     C78979  10.712   5.491   9.924 -0.1971 -0.6001 -0.4112
  573MOL0     C78980  10.619   5.447   9.827  0.8562  0.3208 -0.4987
  573MOL0    Cl78981  10.470   5.546   9.811 -0.2919  0.0424 -0.2889
  573MOL0     C78982  10.352   4.948  10.298 -0.3358 -0.6566 -0.4131
  573MOL0     C78983  10.217   4.935  10.324 -0.3632 -0.8919  0.3266
  573MOL0     O78984  10.017   4.711  10.247 -0.4703 -0.0075 -0.1785
  573MOL0     C78985   9.766   4.665  10.341 -0.1343 -1.0894 -0.6374
  573MOL0     C78986   9.633   4.636  10.364  0.1742  0.0853 -0.2916
  573MOL0     N78987   8.897   4.357  10.482 -0.2299 -0.0057 -0.1101
  573MOL0     N78988   8.860   4.258  10.413  0.2857  1.3005 -0.0384
  573MOL0     C78989   9.159   3.461   9.785 -0.2786 -0.0459  0.4067
  573MOL0     C78990   9.247   3.411   9.876  0.5007 -0.2977  0.4132
  573MOL0     C78991   9.361   3.140  10.239  0.0692 -0.1235 -0.1607
  573MOL0     C78992   9.495   3.112  10.191  0.4667 -0.6207 -0.4683
  573MOL0     C78993   9.605   3.086  10.280  0.0071  0.1362  1.0176
  573MOL0     C78994   9.587   3.061  10.415 -0.5339  0.6278 -0.4878
  573MOL0     O78995   9.695   3.050  10.494 -0.3184 -0.7281  0.0197
  573MOL0     C78996   9.700   3.127  10.611 -0.0732  0.3215  0.0621
  573MOL0     C78997   9.844   3.181  10.618 -0.5473  0.0755  0.5373
  573MOL0     C78998   9.890   3.296  10.530 -0.6046 -0.0229  0.1126
  573MOL0     C78999   9.960   3.259  10.395 -1.0267 -0.3784  0.5173
  573MOL0     C79000  10.079   3.178  10.398  0.4092  1.0977 -0.1616
  573MOL0     C79001  10.183   3.111  10.412  0.4894  0.0946  0.1327
  573MOL0     C79002   9.455   3.077  10.458  0.3019  0.1707 -0.7776
  573MOL0     C79003   9.344   3.105  10.373 -0.3977 -0.4351  0.1578
  573MOL0     C79004   9.214   3.123  10.446  0.3284 -0.5801  0.9380
  573MOL0     H79005   9.051   3.158   9.987  0.6430  2.4989  3.2970
  573MOL0     H79006   8.890   3.257   9.826  0.4211 -2.6391 -2.7455
  573MOL0     H79007   8.930   3.599   9.857  1.2803 -2.4213 -0.2909
  573MOL0     H79008   8.775   3.531   9.789 -1.0561 -0.1365 -4.6217
  573MOL0     H79009   8.915   3.728   9.631  1.5463 -1.5042  1.4022
  573MOL0     H79010   8.748   3.679   9.613 -0.5517  0.9111 -0.3284
  573MOL0     H79011   8.741   3.900   9.738  1.5782  1.5503  0.5551
  573MOL0     H79012   8.741   3.767   9.863  2.4374 -0.4232  0.9728
  573MOL0     H79013   8.984   3.807   9.888  2.3127  1.9378  1.2762
  573MOL0     H79014   8.990   3.921   9.756 -2.2930  1.0974 -1.5251
  573MOL0     H79015   8.826   3.953   9.992  0.1511  2.2454  2.3080
  573MOL0     H79016   8.846   4.069   9.858  0.7348  0.1609  0.6459
  573MOL0     H79017   9.070   3.981  10.054 -0.8080  0.0050  0.4440
  573MOL0     H79018   9.102   4.070   9.908  0.3416 -2.9482 -1.1349
  573MOL0     H79019   8.950   4.269   9.999  2.8813  2.5747  2.7951
  573MOL0     H79020   9.082   4.220  10.104  1.1376 -3.2623  0.8097
  573MOL0     H79021   8.793   4.183  10.139 -0.4890 -0.5336  1.1582
  573MOL0     H79022   8.901   4.067  10.220 -0.5516 -0.0714 -1.6720
  573MOL0     H79023   9.005   4.440  10.190  1.9223 -0.4047  0.7797
  573MOL0     H79024   9.057   4.574  10.555 -0.2515  0.3440 -0.6885
  573MOL0     H79025   8.916   4.631  10.459 -2.0720 -1.6467 -1.4464
  573MOL0     H79026   9.164   4.555  10.319 -1.1843 -1.3442  0.2545
  573MOL0     H79027   9.044   4.678  10.271  0.0429  0.1575  1.0340
  573MOL0     H79028   9.115   4.843  10.438  2.4293  1.9411 -1.2466
  573MOL0     H79029   9.215   4.713  10.521  2.3092 -0.6293 -0.9007
  573MOL0     H79030   9.267   4.843  10.254 -0.3686  2.3960  0.3367
  573MOL0     H79031   9.343   4.893  10.390  1.0923  0.6072 -2.0907
  573MOL0     H79032   9.492   4.924  10.247 -1.9172 -0.6474  0.1372
  573MOL0     H79033   9.787   5.010  10.095 -0.7886  2.5064 -0.6712
  573MOL0     H79034   9.770   5.081  10.261 -2.1998  0.6792  0.8442
  573MOL0     H79035   9.634   5.051  10.155 -1.1797 -0.4145  2.3984
  573MOL0     H79036  10.122   5.045  10.011  1.7050  3.5571  0.7492
  573MOL0     H79037  10.359   5.067   9.985 -0.8097  2.8499  0.3775
  573MOL0     H79038  10.549   4.924   9.967 -0.8208  0.4970 -0.1501
  573MOL0     H79039  10.561   5.101   9.984 -0.6933 -0.0284 -1.5164
  573MOL0     H79040  10.784   4.902  10.046  0.6040  0.2629 -1.9239
  573MOL0     H79041  10.782   5.027   9.928 -0.3866  0.3632 -0.9794
  573MOL0     H79042  10.911   5.083  10.147  0.3143 -0.6792 -2.9272
  573MOL0     H79043  10.758   5.081  10.233 -3.5233  0.7718 -1.5239
  573MOL0     H79044  10.818   5.314  10.166 -1.5834 -0.8332  1.2329
  573MOL0     H79045  10.674   5.277  10.091 -0.0005  0.2829 -1.0060
  573MOL0     H79046  10.957   5.253   9.978 -0.9581 -2.1361 -0.1176
  573MOL0     H79047  10.814   5.217   9.882  0.7843  2.1497 -1.7900
  573MOL0     H79048  10.894   5.434   9.822  2.6372  1.4030  1.3009
  573MOL0     H79049  10.907   5.476   9.995  0.0732 -1.0116  0.2283
  573MOL0     H79050  10.724   5.598   9.901 -0.3860 -0.1706  1.3632
  573MOL0     H79051  10.674   5.491  10.026  2.2662 -3.6666  0.6204
  573MOL0     H79052  10.584   5.346   9.848 -0.6699  0.9873  0.3963
  573MOL0     H79053  10.675   5.452   9.734 -0.1740  1.9611 -1.0800
  573MOL0     H79054  10.419   4.912  10.375 -1.2427 -1.4204  0.0368
  573MOL0     H79055  10.186   4.899  10.421 -1.2510 -0.4501  0.2216
  573MOL0     H79056   9.843   4.598  10.379 -0.4343 -1.6117 -0.9400
  573MOL0     H79057   9.602   4.547  10.417 -1.8206  1.1964  0.5066
  573MOL0     H79058   9.187   3.549   9.728  0.8985  1.4313  3.0989
  573MOL0     H79059   9.348   3.448   9.861  0.2901  0.5439  0.9685
  573MOL0     H79060   9.524   3.131  10.088 -3.5684 -0.3036 -1.7189
  573MOL0     H79061   9.706   3.084  10.239  0.3146  0.8717  1.7007
  573MOL0     H79062   9.621   3.202  10.601  0.0299  0.2751 -1.2381
  573MOL0     H79063   9.671   3.054  10.688 -1.2349 -2.7438 -3.0129
  573MOL0     H79064   9.923   3.107  10.609  1.0678  1.7155  0.4773
  573MOL0     H79065   9.848   3.199  10.726 -3.5916  0.5186  0.6880
  573MOL0     H79066   9.802   3.358  10.508  0.4409  1.1494 -0.8839
  573MOL0     H79067   9.969   3.347  10.586  0.2730  1.0110 -1.9690
  573MOL0     H79068   9.992   3.349  10.341 -2.1443 -1.3787 -1.9937
  573MOL0     H79069   9.878   3.209  10.342 -0.6667 -1.1998  0.7372
  573MOL0     H79070  10.249   3.030  10.433 -1.5404 -1.5415  0.6097
  573MOL0     H79071   9.436   3.061  10.564 -0.6133 -0.2066 -0.9900
  573MOL0     H79072   9.220   3.100  10.553 -0.4529 -1.8806  0.7316
  573MOL0     H79073   9.172   3.224  10.450 -0.9347 -1.0858  0.7957
  573MOL0     H79074   9.129   3.070  10.403 -1.5050  4.0674 -1.7997
  574MOL0     O79075   6.354  10.388   2.144  0.1644 -0.2695  0.4970
  574MOL0     C79076   6.436  10.368   2.054  0.3590 -0.1286  0.2847
  574MOL0     O79077   6.411  10.390   1.922  0.1934  0.1802  0.3105
  574MOL0     C79078   6.287  10.399   1.861  0.4533  0.3494 -0.3957
  574MOL0     C79079   6.284  10.466   1.740  0.1148  0.1183  0.7102
  574MOL0     C79080   6.157  10.504   1.688  0.4531  0.6555  0.7538
  574MOL0     C79081   6.041  10.468   1.751  0.2055 -0.0936 -0.4690
  574MOL0     O79082   5.925  10.507   1.698  0.8005 -0.0738 -0.2804
  574MOL0     C79083   5.821  10.550   1.789  0.1283 -0.1985 -0.0732
  574MOL0     C79084   5.727  10.649   1.723 -0.4790  0.1011  0.5376
  574MOL0     C79085   5.676  10.579   1.602  0.9855  0.4343  0.5527
  574MOL0     C79086   5.539  10.616   1.554 -1.1249 -0.3057  0.4337
  574MOL0     C79087   5.425  10.576   1.638  1.6831  0.0702  0.3826
  574MOL0     C79088   5.286  10.596   1.569  0.0122  0.2721 -0.5200
  574MOL0     C79089   5.160  10.534   1.634  1.0023  0.5589  0.1074
  574MOL0     C79090   5.137  10.568   1.786  0.2539 -0.2736 -0.3972
  574MOL0     N79091   5.025  10.502   1.842  0.2192  0.9104  0.4856
  574MOL0     C79092   4.896  10.533   1.814  0.8498 -0.5029 -0.3130
  574MOL0     C79093   4.833  10.450   1.894 -0.3357 -0.6998  1.1480
  574MOL0     C79094   4.685  10.452   1.925 -0.2976 -0.8379 -0.1607
  574MOL0     C79095   4.597  10.418   1.805 -0.2415  0.0842 -0.3249
  574MOL0     C79096   4.597  10.270   1.748 -0.9596  0.5392  0.9671
  574MOL0     C79097   4.725  10.232   1.671  0.5952  1.0743 -0.4539
  574MOL0     O79098   4.728  10.310   1.552  0.2314  0.5807 -0.5679
  574MOL0     C79099   4.847  10.319   1.483  0.9359  0.4813 -1.0559
  574MOL0     C79100   4.972  10.254   1.487  0.3332 -0.7155 -0.0789
  574MOL0     C79101   5.082  10.284   1.408 -0.0690  0.0817  0.1430
  574MOL0     C79102   5.207  10.194   1.436  0.2869  0.6466 -1.1040
  574MOL0     C79103   5.063  10.392   1.317  0.3149 -0.0091 -0.1504
  574MOL0     C79104   5.176  10.442   1.236 -0.0872  0.4987  0.2000
  574MOL0     O79105   5.131  10.495   1.116  1.1377 -0.3230 -0.6640
  574MOL0     C79106   5.207  10.582   1.038 -0.1858  1.1266 -0.9824
  574MOL0     C79107   5.321  10.650   1.078 -0.2799 -0.2502 -0.2033
  574MOL0     C79108   5.384  10.750   0.999  0.5293 -0.1192 -0.0885
  574MOL0     C79109   5.332  10.784   0.874 -0.6476 -0.0053 -0.1280
  574MOL0     O79110   5.400  10.894   0.816  0.5246  0.5868 -0.3573
  574MOL0     C79111   5.344  10.953   0.698 -0.4214 -0.3891 -0.1464
  574MOL0     C79112   5.371  10.872   0.577  0.2718 -1.0372 -0.2474
  574MOL0     C79113   5.513  10.859   0.536  0.4593 -0.6484  0.0368
  574MOL0     C79114   5.575  10.992   0.494  0.8927 -0.2378 -0.1850
  574MOL0     C79115   5.711  11.026   0.571  0.2907 -0.8942 -0.2226
  574MOL0     C79116   5.816  10.915   0.576  0.2878 -0.1751 -0.4062
  574MOL0     C79117   5.920  10.967   0.684  0.4493  0.6636 -0.5084
  574MOL0     C79118   6.049  10.887   0.690 -0.3656  0.5128  0.2541
  574MOL0    Cl79119   6.141  10.911   0.534  0.2126  0.1463  0.4422
  574MOL0     C79120   5.223  10.707   0.824 -0.1048  0.0534  0.2207
  574MOL0     C79121   5.165  10.610   0.904  0.1330  0.4116 -0.1606
  574MOL0     O79122   5.294  10.418   1.259 -0.1988 -0.7030  0.4361
  574MOL0     C79123   4.939  10.462   1.316  0.8836 -0.3718 -0.7779
  574MOL0     C79124   4.835  10.424   1.399  0.8573  0.8465  0.7984
  574MOL0     N79125   4.913  10.357   1.956  0.1380  0.5051  0.2083
  574MOL0     N79126   5.035  10.398   1.926 -0.2154 -0.1788 -1.1015
  574MOL0     C79127   6.044  10.383   1.871  0.2831  0.4000  0.2493
  574MOL0     C79128   6.172  10.355   1.926 -0.3781  0.3759  0.2965
  574MOL0     C79129   6.583  10.368   2.091 -0.0179  0.2510  0.9650
  574MOL0     C79130   6.668  10.446   2.017 -0.7564 -0.3194 -0.1302
  574MOL0     C79131   6.799  10.465   2.061  0.7727  0.5299 -0.2055
  574MOL0     C79132   6.850  10.410   2.177 -0.3394  0.0232  0.0124
  574MOL0     O79133   6.985  10.421   2.212  0.6074 -0.3748  0.7430
  574MOL0     C79134   7.060  10.510   2.128 -0.3074  0.6893  0.2743
  574MOL0     C79135   7.194  10.519   2.205  0.1726 -0.3265  0.9707
  574MOL0     C79136   7.302  10.605   2.132 -0.5782  0.3496  0.2348
  574MOL0     C79137   7.402  10.676   2.228  0.7845  0.2109  0.2936
  574MOL0     C79138   7.453  10.797   2.168 -0.9049  0.2453  0.3026
  574MOL0     C79139   7.491  10.897   2.105 -0.2694  0.1195 -1.3454
  574MOL0     C79140   6.762  10.325   2.243 -0.2206 -0.0803  0.0038
  574MOL0     C79141   6.629  10.302   2.209  0.0940 -0.3135  0.4091
  574MOL0     C79142   6.553  10.207   2.299  0.0241 -0.1797  0.1228
  574MOL0     H79143   6.378  10.502   1.700 -0.5418 -0.3619 -1.3559
  574MOL0     H79144   6.160  10.567   1.600  2.3088  0.7267  0.8291
  574MOL0     H79145   5.876  10.576   1.879  2.2042 -3.7386 -0.1604
  574MOL0     H79146   5.759  10.463   1.810 -2.2323  1.2042 -0.7522
  574MOL0     H79147   5.653  10.687   1.793 -0.3419  2.0953 -0.3505
  574MOL0     H79148   5.789  10.733   1.692  1.3145 -0.9237  1.2006
  574MOL0     H79149   5.741  10.611   1.520 -0.4551  0.2285 -0.7172
  574MOL0     H79150   5.676  10.470   1.612  3.5002  0.4234  1.0620
  574MOL0     H79151   5.530  10.725   1.552  0.0397 -0.1954 -1.0122
  574MOL0     H79152   5.520  10.584   1.451  2.0275  3.2622 -1.5093
  574MOL0     H79153   5.426  10.626   1.736  0.2038  0.5060  0.2052
  574MOL0     H79154   5.437  10.473   1.675  3.0978  0.4336  1.0104
  574MOL0     H79155   5.275  10.701   1.543  0.2426  0.1986 -0.9291
  574MOL0     H79156   5.291  10.559   1.466 -0.2291 -0.3997 -0.2986
  574MOL0     H79157   5.190  10.429   1.632  1.1455  0.5864 -2.5783
  574MOL0     H79158   5.076  10.556   1.566  0.9345 -2.8492 -1.1108
  574MOL0     H79159   5.220  10.526   1.844 -0.2835 -1.0945 -0.2002
  574MOL0     H79160   5.135  10.677   1.798 -1.7431 -0.2312 -0.8483
  574MOL0     H79161   4.852  10.604   1.744  1.4179  0.9610  0.7470
  574MOL0     H79162   4.651  10.552   1.951  2.9127  0.6361 -1.1192
  574MOL0     H79163   4.672  10.390   2.014  1.3583  0.0512  0.7623
  574MOL0     H79164   4.499  10.438   1.849  0.7035  0.8868  1.5601
  574MOL0     H79165   4.626  10.483   1.722  3.3102  1.2704  1.5874
  574MOL0     H79166   4.591  10.200   1.832  0.1929  0.0747  0.6773
  574MOL0     H79167   4.515  10.265   1.676  0.4206 -0.4336 -0.5884
  574MOL0     H79168   4.818  10.240   1.728  2.1812 -0.8915 -2.5698
  574MOL0     H79169   4.718  10.126   1.647  1.5450  1.3972 -2.3669
  574MOL0     H79170   5.004  10.183   1.563  6.0018 -0.1613 -1.4519
  574MOL0     H79171   5.284  10.237   1.500 -1.1455  0.3212  0.9274
  574MOL0     H79172   5.252  10.170   1.339  1.8390 -0.0063 -0.2480
  574MOL0     H79173   5.173  10.096   1.470  3.1910 -0.3310 -0.7089
  574MOL0     H79174   5.356  10.643   1.181 -2.7301 -0.7048  0.6490
  574MOL0     H79175   5.459  10.814   1.045 -2.6049  3.8444 -0.0421
  574MOL0     H79176   5.235  10.964   0.711 -0.4385  0.1680 -0.7221
  574MOL0     H79177   5.384  11.054   0.687 -0.4680 -0.1516  1.5730
  574MOL0     H79178   5.327  10.772   0.583 -0.6894 -0.7206 -1.6101
  574MOL0     H79179   5.317  10.917   0.494  2.3523  2.2146 -0.0170
  574MOL0     H79180   5.523  10.797   0.446  4.6712 -0.7240  0.3500
  574MOL0     H79181   5.563  10.803   0.615 -2.4614 -1.3148  1.5501
  574MOL0     H79182   5.512  11.080   0.508  0.3561 -1.0868  4.4644
  574MOL0     H79183   5.590  10.992   0.386 -2.8547  0.5392 -0.8206
  574MOL0     H79184   5.753  11.118   0.528  0.1306 -0.3188  0.8243
  574MOL0     H79185   5.685  11.044   0.676  1.5251  1.5320 -0.2587
  574MOL0     H79186   5.862  10.912   0.477  0.6355  2.0010 -0.3567
  574MOL0     H79187   5.765  10.824   0.607  2.3545 -1.1767  0.2483
  574MOL0     H79188   5.875  10.957   0.784 -1.1852 -2.0850 -1.4111
  574MOL0     H79189   5.935  11.074   0.670  1.5991  0.6120  0.2411
  574MOL0     H79190   6.037  10.780   0.705 -1.3704 -0.0406 -3.5135
  574MOL0     H79191   6.104  10.931   0.774 -1.5000  3.0576 -0.2485
  574MOL0     H79192   5.183  10.720   0.723 -1.0271 -2.1240  0.2533
  574MOL0     H79193   5.071  10.565   0.872 -0.8676  0.5505  2.3257
  574MOL0     H79194   4.925  10.544   1.247 -1.6431 -2.7557 -3.3994
  574MOL0     H79195   4.737  10.472   1.402 -0.0444 -0.8820  3.6949
  574MOL0     H79196   5.956  10.349   1.924  1.4555 -0.2123  1.9065
  574MOL0     H79197   6.187  10.309   2.023  1.0501  0.1755  0.0042
  574MOL0     H79198   6.631  10.486   1.923  0.0129 -0.8661 -0.6812
  574MOL0     H79199   6.858  10.531   1.998  2.6087  1.0028  1.8786
  574MOL0     H79200   7.073  10.456   2.034 -0.3087 -2.2514  1.8265
  574MOL0     H79201   7.019  10.611   2.117  4.3583  2.6295 -1.7249
  574MOL0     H79202   7.239  10.420   2.217  1.7576  0.3531  0.7618
  574MOL0     H79203   7.169  10.564   2.301  0.4922  0.4008  0.7205
  574MOL0     H79204   7.360  10.545   2.061  1.0636  1.6279  0.4289
  574MOL0     H79205   7.258  10.683   2.069  0.2479  1.1587  0.6327
  574MOL0     H79206   7.475  10.605   2.269  0.6229 -0.4152 -0.4761
  574MOL0     H79207   7.350  10.713   2.317  1.0210 -1.9417  1.3946
  574MOL0     H79208   7.524  10.982   2.049 -0.4764  1.0805 -0.0471
  574MOL0     H79209   6.809  10.291   2.335 -3.5769 -0.0228  1.9286
  574MOL0     H79210   6.541  10.249   2.400 -1.5872  1.3924 -0.6625
  574MOL0     H79211   6.455  10.182   2.257 -0.1793  2.7163 -1.4032
  574MOL0     H79212   6.604  10.111   2.305  1.2148  0.4635  0.6474
  575MOL0     O79213   2.755   0.084   7.360 -0.2039  0.2798 -0.9428
  575MOL0     C79214   2.878   0.068   7.366  0.1452  0.3578 -0.1173
  575MOL0     O79215   2.968   0.149   7.313 -0.4531 -0.0169 -0.2212
  575MOL0     C79216   2.937   0.277   7.266 -0.4664  0.5091  0.2272
  575MOL0     C79217   3.006   0.316   7.152  0.0157  0.4737 -0.2202
  575MOL0     C79218   2.993   0.441   7.095  0.0452 -0.1751 -0.0657
  575MOL0     C79219   2.922   0.539   7.160  0.5706 -0.0244 -0.0152
  575MOL0     O79220   2.928   0.670   7.110  0.7730  0.1125 -0.2957
  575MOL0     C79221   2.822   0.759   7.148  0.1951  0.6085  0.1777
  575MOL0     C79222   2.694   0.720   7.061 -0.0896  0.0395  0.5758
  575MOL0     C79223   2.709   0.720   6.903 -0.0152 -1.0435  1.1818
  575MOL0     C79224   2.578   0.701   6.822 -0.5958  0.7224 -0.1919
  575MOL0     C79225   2.609   0.716   6.667  0.4421 -0.1152  0.1366
  575MOL0     C79226   2.498   0.651   6.589  0.6952  0.7149  0.8964
  575MOL0     C79227   2.518   0.652   6.437 -0.0415 -0.5404  0.4517
  575MOL0     C79228   2.642   0.569   6.401  0.3925  0.3212 -0.5929
  575MOL0     N79229   2.628   0.514   6.265  0.3811 -0.2073  0.0515
  575MOL0     C79230   2.528   0.426   6.228  0.0197 -0.8320 -0.8805
  575MOL0     C79231   2.562   0.374   6.111  0.1134 -0.0233  0.1641
  575MOL0     C79232   2.486   0.277   6.028 -0.4892 -0.2815 -0.0076
  575MOL0     C79233   2.370   0.332   5.938  1.0397 -0.0078 -0.1447
  575MOL0     C79234   2.285   0.224   5.864 -0.1521  0.0682 -0.2268
  575MOL0     C79235   2.196   0.275   5.756  0.3254 -0.4865  0.1702
  575MOL0     O79236   2.112   0.388   5.796 -0.4637 -0.0507 -0.5126
  575MOL0     C79237   2.015   0.435   5.707  0.2789 -0.1244 -0.1598
  575MOL0     C79238   1.916   0.517   5.767  0.1890  0.3849 -0.5514
  575MOL0     C79239   1.802   0.565   5.693 -0.0562 -0.6610  0.5313
  575MOL0     C79240   1.701   0.662   5.748 -0.4933  1.2043 -0.5440
  575MOL0     C79241   1.791   0.533   5.555  0.6504  0.2421  0.2970
  575MOL0     C79242   1.670   0.562   5.482 -0.1513 -0.4926  0.5708
  575MOL0     O79243   1.555   0.497   5.503  0.5852  0.1640  0.2262
  575MOL0     C79244   1.431   0.527   5.446  0.5145 -0.2818  0.2590
  575MOL0     C79245   1.407   0.595   5.322  1.0440  0.2908  0.2987
  575MOL0     C79246   1.272   0.630   5.285  0.0019 -0.4724  0.0948
  575MOL0     C79247   1.169   0.610   5.381  0.8471  0.2610 -0.4651
  575MOL0     O79248   1.041   0.641   5.370  0.8254 -0.0585 -0.6108
  575MOL0     C79249   0.980   0.723   5.263  1.3170  0.2750 -0.5589
  575MOL0     C79250   0.910   0.631   5.163 -0.2720 -0.7408  0.7123
  575MOL0     C79251   0.877   0.695   5.028  0.0437 -0.7293  0.0050
  575MOL0     C79252   0.840   0.587   4.924  0.3889  0.3454 -0.0749
  575MOL0     C79253   0.799   0.643   4.787  0.5297 -0.2130 -0.2367
  575MOL0     C79254   0.799   0.543   4.678  0.2898  0.7124  0.3000
  575MOL0     C79255   0.928   0.516   4.608 -0.4390  0.7028  0.5468
  575MOL0     C79256   0.939   0.368   4.541  0.2784 -0.1080 -0.4974
  575MOL0    Cl79257   0.839   0.351   4.401  0.1571  0.0462  0.0692
  575MOL0     C79258   1.198   0.526   5.490 -0.2885  0.1781  0.2821
  575MOL0     C79259   1.323   0.489   5.516  0.1414 -0.2995 -0.6571
  575MOL0     O79260   1.697   0.651   5.395  0.5698  0.1712  0.0171
  575MOL0     C79261   1.893   0.449   5.504 -0.0713 -0.2203 -0.3285
  575MOL0     C79262   1.999   0.400   5.574  0.3620 -0.4432  0.2345
  575MOL0     N79263   2.692   0.424   6.079 -0.4901  0.4740 -0.1114
  575MOL0     N79264   2.726   0.511   6.169 -0.3672 -0.3976  0.1107
  575MOL0     C79265   2.866   0.503   7.288  0.8396 -1.3105 -0.1681
  575MOL0     C79266   2.866   0.372   7.334 -0.6744 -0.1912  0.8303
  575MOL0     C79267   2.935  -0.042   7.432  0.7291 -0.4209 -0.4361
  575MOL0     C79268   3.044  -0.022   7.519  0.0646  0.3346 -0.6212
  575MOL0     C79269   3.094  -0.125   7.596  0.4893 -1.4763  0.2471
  575MOL0     C79270   3.038  -0.253   7.584  0.0671  0.3983  0.6307
  575MOL0     O79271   3.092  -0.355   7.655  0.3733  0.7538  0.0692
  575MOL0     C79272   3.009  -0.404   7.763 -0.1713 -0.0647 -0.6170
  575MOL0     C79273   2.968  -0.555   7.749  0.4364 -0.2151  0.1278
  575MOL0     C79274   3.092  -0.632   7.707 -0.3811 -0.3600  0.3015
  575MOL0     C79275   3.105  -0.759   7.787  0.7203 -0.5288 -0.8600
  575MOL0     C79276   3.124  -0.732   7.930  0.2280 -0.9638 -0.0964
  575MOL0     C79277   3.137  -0.699   8.047 -0.0446 -0.5278 -0.2445
  575MOL0     C79278   2.928  -0.268   7.498  0.4382 -0.3662 -0.1061
  575MOL0     C79279   2.874  -0.168   7.419  0.6850 -0.4168  0.8821
  575MOL0     C79280   2.774  -0.207   7.313 -0.0195 -0.7207  0.0783
  575MOL0     H79281   3.071   0.249   7.096 -0.8819 -1.8818  1.4322
  575MOL0     H79282   3.049   0.459   7.004  3.7713  4.3838  2.6827
  575MOL0     H79283   2.858   0.860   7.127 -1.5822  1.5136  1.2581
  575MOL0     H79284   2.788   0.752   7.251 -0.3338  1.3015  0.0545
  575MOL0     H79285   2.668   0.618   7.091  0.0552 -0.0165  0.5080
  575MOL0     H79286   2.616   0.792   7.087  0.1701  0.7761 -0.6435
  575MOL0     H79287   2.739   0.823   6.880 -2.5502 -0.8010 -1.4921
  575MOL0     H79288   2.784   0.643   6.885 -0.8605 -1.4499 -0.8764
  575MOL0     H79289   2.527   0.607   6.845  0.0571  0.3590 -0.2221
  575MOL0     H79290   2.498   0.771   6.848 -0.1601  0.8780  0.7596
  575MOL0     H79291   2.706   0.674   6.638 -0.5157 -2.3520 -0.0137
  575MOL0     H79292   2.600   0.823   6.645  2.0551  0.1204  0.4735
  575MOL0     H79293   2.476   0.549   6.621 -3.2646  0.9078 -0.6581
  575MOL0     H79294   2.412   0.714   6.615  0.3265  1.4668 -1.7983
  575MOL0     H79295   2.541   0.755   6.407 -0.0500  0.0143  2.2100
  575MOL0     H79296   2.424   0.618   6.392 -2.3025  1.6653  3.0489
  575MOL0     H79297   2.733   0.627   6.417  1.0807 -1.0635  0.8220
  575MOL0     H79298   2.659   0.483   6.467 -2.1559  0.9093  0.9795
  575MOL0     H79299   2.436   0.402   6.280  0.3835  1.7342  1.1285
  575MOL0     H79300   2.461   0.199   6.100  2.4079 -0.3307  1.1060
  575MOL0     H79301   2.556   0.223   5.963  0.2652 -1.2489  1.5332
  575MOL0     H79302   2.299   0.390   5.997  2.8605  1.6782  0.5045
  575MOL0     H79303   2.415   0.407   5.872 -0.2136  0.7097 -0.2178
  575MOL0     H79304   2.356   0.161   5.809  1.0174  0.6868  0.5331
  575MOL0     H79305   2.230   0.169   5.941  1.0887 -1.4143 -0.3391
  575MOL0     H79306   2.255   0.317   5.674 -3.2395  2.3368 -1.2258
  575MOL0     H79307   2.139   0.193   5.710  0.2891  0.7850 -2.1810
  575MOL0     H79308   1.923   0.534   5.874  0.3865  1.6956 -0.7553
  575MOL0     H79309   1.692   0.749   5.682  0.4362  0.9795 -0.9920
  575MOL0     H79310   1.720   0.684   5.853 -0.6327 -0.0430 -0.2463
  575MOL0     H79311   1.602   0.619   5.761 -2.2396  5.5902  3.5263
  575MOL0     H79312   1.487   0.630   5.257  0.6416  2.7959  1.0467
  575MOL0     H79313   1.262   0.690   5.195  3.3061 -0.0571 -0.1230
  575MOL0     H79314   0.894   0.774   5.307 -0.7398 -2.4312 -1.1818
  575MOL0     H79315   1.043   0.805   5.227 -2.4277  2.8917 -1.8761
  575MOL0     H79316   0.981   0.552   5.138 -0.8328 -0.6028 -1.5366
  575MOL0     H79317   0.826   0.590   5.220 -0.6988  0.4424  0.9544
  575MOL0     H79318   0.955   0.757   4.982  0.1409  1.3014  2.6791
  575MOL0     H79319   0.795   0.764   5.048  0.4668  0.7517 -2.7216
  575MOL0     H79320   0.763   0.523   4.968  0.1866  1.3771  1.1556
  575MOL0     H79321   0.925   0.519   4.919  0.5473  0.4866  0.5564
  575MOL0     H79322   0.699   0.686   4.805  0.7299  0.5911 -0.9969
  575MOL0     H79323   0.870   0.723   4.766  1.0743 -0.9353 -1.1721
  575MOL0     H79324   0.725   0.584   4.609  1.5316  1.0867 -0.8509
  575MOL0     H79325   0.755   0.451   4.716 -1.2183  0.1162 -2.6037
  575MOL0     H79326   1.020   0.512   4.667  1.5336  0.4986 -2.3173
  575MOL0     H79327   0.946   0.594   4.533  0.6375  2.0207  2.1165
  575MOL0     H79328   0.916   0.294   4.618  4.3774 -0.8284  0.3033
  575MOL0     H79329   1.040   0.349   4.502  0.3384 -2.4030  0.6017
  575MOL0     H79330   1.113   0.495   5.550  0.5956 -1.7745  0.5931
  575MOL0     H79331   1.340   0.434   5.609 -1.3171  2.8228  1.6259
  575MOL0     H79332   1.872   0.417   5.403 -0.2393  0.7281 -0.6016
  575MOL0     H79333   2.072   0.333   5.530  0.9819 -0.2765  0.9975
  575MOL0     H79334   2.818   0.577   7.350  1.7141 -2.0639  1.4758
  575MOL0     H79335   2.847   0.348   7.438  3.0652 -0.4383  1.5604
  575MOL0     H79336   3.090   0.076   7.521  4.3236 -1.4727 -0.8949
  575MOL0     H79337   3.168  -0.109   7.674 -0.6211  0.8304  0.9155
  575MOL0     H79338   3.083  -0.403   7.844  2.1332 -0.5237 -2.5777
  575MOL0     H79339   2.929  -0.332   7.784  0.1372 -0.2685  1.4460
  575MOL0     H79340   2.886  -0.566   7.677  2.9747 -0.9957 -2.8919
  575MOL0     H79341   2.925  -0.585   7.845 -0.0570 -0.3055 -0.1169
  575MOL0     H79342   3.086  -0.647   7.599 -3.1233  2.2057 -0.0374
  575MOL0     H79343   3.185  -0.575   7.716 -1.8449  2.1433  0.5031
  575MOL0     H79344   3.191  -0.813   7.745  0.5445 -0.2788 -1.5503
  575MOL0     H79345   3.013  -0.818   7.775  0.2092  0.5880 -2.8242
  575MOL0     H79346   3.133  -0.693   8.154 -0.0077 -0.6887 -0.2338
  575MOL0     H79347   2.894  -0.371   7.485  0.3928 -0.6456  1.9749
  575MOL0     H79348   2.808  -0.170   7.216  0.0283  1.2949  0.8234
  575MOL0     H79349   2.763  -0.316   7.309  1.2324 -0.8213 -1.2729
  575MOL0     H79350   2.673  -0.169   7.326 -0.1865 -0.0582 -2.6622
  576MOL0     O79351  11.131   8.033   4.325 -0.8407  0.3224 -0.1724
  576MOL0     C79352  11.150   8.109   4.419  1.1880  0.2697  0.6257
  576MOL0     O79353  11.206   8.230   4.409  0.4393 -0.0933  0.3032
  576MOL0     C79354  11.273   8.263   4.302  0.4091  0.8595  0.7937
  576MOL0     C79355  11.207   8.287   4.184  0.2765 -1.5893 -0.6928
  576MOL0     C79356  11.280   8.333   4.073  0.2748  0.3448 -1.1974
  576MOL0     C79357  11.417   8.351   4.079 -0.6912  0.5396 -0.3793
  576MOL0     O79358  11.466   8.404   3.967 -0.0432 -0.3530  0.1851
  576MOL0     C79359  11.569   8.505   3.972 -0.2041 -0.4806 -0.4335
  576MOL0     C79360  11.673   8.495   3.846  0.0294 -0.6345  0.4525
  576MOL0     C79361  11.597   8.495   3.711 -0.1740  0.2736  0.2712
  576MOL0     C79362  11.690   8.493   3.595 -0.2656  0.8060 -0.1048
  576MOL0     C79363  11.807   8.381   3.574 -0.1448  0.1673 -0.2756
  576MOL0     C79364  11.828   8.339   3.424 -0.3129  0.1249 -0.1365
  576MOL0     C79365  11.709   8.278   3.347 -0.2263  0.7628 -0.3384
  576MOL0     C79366  11.627   8.180   3.433  0.1657  0.3434  0.0656
  576MOL0     N79367  11.502   8.141   3.373 -1.0304 -0.4855 -0.2986
  576MOL0     C79368  11.378   8.201   3.373 -0.8149  0.7805 -0.4847
  576MOL0     C79369  11.296   8.112   3.313 -1.6396  0.2830  1.0159
  576MOL0     C79370  11.147   8.137   3.297 -0.7985 -0.0331  0.4262
  576MOL0     C79371  11.118   8.135   3.149  0.0231  0.5346 -0.1587
  576MOL0     C79372  11.085   7.996   3.091  0.6939 -0.0597  0.1742
  576MOL0     C79373  11.050   7.997   2.944 -0.0817  0.9370  0.5811
  576MOL0     O79374  10.950   8.090   2.931 -0.8272 -0.5510  0.0887
  576MOL0     C79375  10.893   8.118   2.814 -0.6393 -0.4940  0.8100
  576MOL0     C79376  10.903   8.046   2.700  0.2870 -0.1952 -0.0982
  576MOL0     C79377  10.836   8.094   2.580 -0.7257 -0.4502  0.5004
  576MOL0     C79378  10.862   8.003   2.452  0.3172 -0.3557 -0.4596
  576MOL0     C79379  10.759   8.212   2.582 -0.1016 -0.3604  0.2422
  576MOL0     C79380  10.683   8.262   2.459 -0.0270  0.7928 -1.2389
  576MOL0     O79381  10.667   8.179   2.352  0.9917  0.0023 -0.3658
  576MOL0     C79382  10.608   8.220   2.238 -0.1964  0.2417 -0.5435
  576MOL0     C79383  10.519   8.327   2.214  0.2292  0.6394 -0.4119
  576MOL0     C79384  10.486   8.359   2.076 -0.6059 -0.0115 -0.6013
  576MOL0     C79385  10.512   8.266   1.972  0.3536  0.5665  0.9684
  576MOL0     O79386  10.488   8.279   1.834 -0.2892 -0.5539 -0.0668
  576MOL0     C79387  10.433   8.407   1.797 -0.4094  0.8820  0.2367
  576MOL0     C79388  10.380   8.401   1.649 -0.1854 -1.1848 -0.0581
  576MOL0     C79389  10.500   8.399   1.555  0.2213  0.6745 -0.0183
  576MOL0     C79390  10.450   8.365   1.414 -0.8425 -0.2320  0.6851
  576MOL0     C79391  10.556   8.296   1.319 -0.0617  0.6373 -0.0494
  576MOL0     C79392  10.696   8.363   1.316  0.5098  0.3690  0.0311
  576MOL0     C79393  10.687   8.511   1.286 -0.1307  0.0128  0.3989
  576MOL0     C79394  10.617   8.548   1.150 -0.8819 -1.0364 -0.5409
  576MOL0    Cl79395  10.580   8.726   1.183  0.2584  0.6483 -0.2221
  576MOL0     C79396  10.587   8.154   2.000 -0.0870 -0.4328 -0.2616
  576MOL0     C79397  10.641   8.143   2.127 -1.2767 -0.3016  0.5868
  576MOL0     O79398  10.657   8.379   2.466  1.0604  0.6523 -0.5910
  576MOL0     C79399  10.743   8.275   2.705  0.2320 -0.0410  0.1601
  576MOL0     C79400  10.819   8.233   2.819 -0.9390 -0.0487 -0.0145
  576MOL0     N79401  11.379   8.007   3.265 -0.4029  0.2516  1.0569
  576MOL0     N79402  11.499   8.025   3.298  0.8046  0.1494 -0.5517
  576MOL0     C79403  11.488   8.319   4.198  0.3208  0.3844  0.4332
  576MOL0     C79404  11.417   8.283   4.309 -0.8371 -0.8866 -0.8403
  576MOL0     C79405  11.083   8.074   4.552  0.0725 -0.5415 -0.2456
  576MOL0     C79406  11.049   8.184   4.631  0.5031 -0.2613 -0.0365
  576MOL0     C79407  10.972   8.163   4.745 -0.8147 -0.8505 -0.1077
  576MOL0     C79408  10.930   8.041   4.787 -0.6125  0.3942  0.0365
  576MOL0     O79409  10.850   8.035   4.896  0.1033  0.2565 -0.0883
  576MOL0     C79410  10.715   8.062   4.869 -0.6304 -0.9352 -0.7574
  576MOL0     C79411  10.624   8.023   4.986  0.4968 -0.1924  0.0357
  576MOL0     C79412  10.600   7.873   4.991 -0.0720  0.5920 -0.9208
  576MOL0     C79413  10.482   7.828   5.080  0.1648  0.2501  0.7114
  576MOL0     C79414  10.360   7.818   5.001  0.3781  0.0346  0.1848
  576MOL0     C79415  10.266   7.832   4.925  0.4756  0.2353  0.0377
  576MOL0     C79416  10.964   7.928   4.710 -0.2436 -0.2740 -0.6429
  576MOL0     C79417  11.043   7.948   4.594 -0.1593  1.0677  0.8814
  576MOL0     C79418  11.069   7.815   4.508  0.1601 -1.4742 -0.1658
  576MOL0     H79419  11.099   8.295   4.184  0.3130 -0.3688  1.1771
  576MOL0     H79420  11.226   8.336   3.978 -0.3572  0.4280 -0.8408
  576MOL0     H79421  11.635   8.502   4.059  1.6609  1.6113 -1.6701
  576MOL0     H79422  11.523   8.602   3.954  1.6632  0.4581 -0.4593
  576MOL0     H79423  11.740   8.580   3.859 -0.8349  0.1665 -0.1876
  576MOL0     H79424  11.722   8.399   3.865  0.7561 -0.3830 -0.1042
  576MOL0     H79425  11.538   8.403   3.711 -0.5018  0.4662 -0.7978
  576MOL0     H79426  11.535   8.585   3.708  1.1893  1.4575  3.1784
  576MOL0     H79427  11.626   8.478   3.507 -1.0926  0.8467  0.4690
  576MOL0     H79428  11.729   8.594   3.580  1.1213  0.3539  0.3712
  576MOL0     H79429  11.785   8.292   3.634 -1.2279  0.3651 -0.3605
  576MOL0     H79430  11.905   8.419   3.605  0.7787 -2.8459  0.8069
  576MOL0     H79431  11.862   8.424   3.363 -0.1880 -1.0693 -1.8016
  576MOL0     H79432  11.905   8.262   3.427  0.4197  0.8102 -0.8334
  576MOL0     H79433  11.741   8.225   3.257  3.1646  3.4621 -0.9136
  576MOL0     H79434  11.648   8.367   3.330  1.7176  2.3049  0.4316
  576MOL0     H79435  11.688   8.090   3.441  1.0686  1.0283  1.1528
  576MOL0     H79436  11.605   8.219   3.533 -0.7410 -0.5504  0.2375
  576MOL0     H79437  11.348   8.297   3.412  0.8168  1.4568 -0.8143
  576MOL0     H79438  11.132   8.231   3.350  0.3759 -0.4846  1.6094
  576MOL0     H79439  11.090   8.057   3.346  0.7010  0.1449  2.6041
  576MOL0     H79440  11.026   8.194   3.141 -0.3216  0.0567  0.2320
  576MOL0     H79441  11.194   8.183   3.087 -1.6354 -0.2687 -2.9836
  576MOL0     H79442  11.166   7.927   3.118  1.4173  1.2047  1.3003
  576MOL0     H79443  10.999   7.961   3.149 -0.8519  1.2534 -1.2053
  576MOL0     H79444  11.136   8.020   2.879 -1.6875  2.5661 -1.0926
  576MOL0     H79445  11.017   7.899   2.909  0.3258  1.6558 -2.0277
  576MOL0     H79446  10.961   7.955   2.700  0.7914  0.0664 -2.3251
  576MOL0     H79447  10.947   7.938   2.476  2.2269  3.0479  3.1924
  576MOL0     H79448  10.892   8.058   2.363  1.9628  2.9677  1.9444
  576MOL0     H79449  10.769   7.949   2.433 -1.5510  2.1529  1.0314
  576MOL0     H79450  10.502   8.407   2.285 -0.7692  1.7272 -1.8049
  576MOL0     H79451  10.429   8.449   2.057  1.0043  0.6256 -2.8005
  576MOL0     H79452  10.346   8.422   1.862  0.0351  1.7362  0.6545
  576MOL0     H79453  10.499   8.493   1.811 -0.6820  0.9459  1.1878
  576MOL0     H79454  10.320   8.311   1.633 -0.1130 -0.8612 -2.5485
  576MOL0     H79455  10.311   8.484   1.631 -0.3620 -1.6747 -1.8062
  576MOL0     H79456  10.567   8.323   1.597 -1.3451 -0.3579  0.6751
  576MOL0     H79457  10.544   8.499   1.565 -0.6206  1.1506 -0.9624
  576MOL0     H79458  10.422   8.452   1.355  1.3621  0.0805 -0.0022
  576MOL0     H79459  10.356   8.309   1.424 -0.0041 -1.8205  0.0334
  576MOL0     H79460  10.582   8.195   1.351 -2.5787  0.1832  0.7658
  576MOL0     H79461  10.511   8.295   1.220 -0.8638  3.3683  0.1910
  576MOL0     H79462  10.763   8.319   1.242  0.6572 -0.5660  0.7096
  576MOL0     H79463  10.756   8.348   1.406  0.7754 -2.3978 -0.5250
  576MOL0     H79464  10.788   8.553   1.287 -0.4374  0.8115 -0.6850
  576MOL0     H79465  10.638   8.550   1.375  0.5894 -2.2070  1.8456
  576MOL0     H79466  10.520   8.505   1.125 -1.2745 -0.3546 -0.2310
  576MOL0     H79467  10.686   8.536   1.066  3.3285  0.9799  2.2416
  576MOL0     H79468  10.624   8.078   1.932  1.8316  0.5921 -0.4338
  576MOL0     H79469  10.712   8.063   2.142  1.1218  2.2177  4.3317
  576MOL0     H79470  10.677   8.361   2.715 -0.3016 -0.3671 -0.4585
  576MOL0     H79471  10.804   8.291   2.910  1.2471 -0.2897  0.5526
  576MOL0     H79472  11.596   8.331   4.201  0.7103 -1.1230 -2.6794
  576MOL0     H79473  11.462   8.265   4.407 -2.6045  1.7676  0.5948
  576MOL0     H79474  11.075   8.285   4.601  2.7743 -0.6635  0.3773
  576MOL0     H79475  10.925   8.246   4.798 -0.3189 -0.1980 -0.6659
  576MOL0     H79476  10.699   8.164   4.836  2.5773  0.0280  0.3308
  576MOL0     H79477  10.685   8.009   4.778  1.7956 -1.4532 -1.3274
  576MOL0     H79478  10.528   8.076   4.992  0.8289  1.0006 -3.1427
  576MOL0     H79479  10.664   8.063   5.079  1.2761  2.2312 -1.2457
  576MOL0     H79480  10.592   7.818   4.897 -0.6930 -1.9544  0.5249
  576MOL0     H79481  10.683   7.837   5.053  0.3646  3.6676  0.4483
  576MOL0     H79482  10.470   7.891   5.169 -0.5474  1.5669 -0.2806
  576MOL0     H79483  10.505   7.728   5.117 -0.0997  1.2023  3.7134
  576MOL0     H79484  10.183   7.839   4.857 -0.4349 -1.7718  0.8672
  576MOL0     H79485  10.924   7.833   4.745 -1.0082  0.2526 -0.0766
  576MOL0     H79486  11.166   7.810   4.458  1.0714  1.0720  1.1644
  576MOL0     H79487  11.054   7.719   4.558 -2.3791 -1.8932 -1.5922
  576MOL0     H79488  10.990   7.820   4.433  0.1585  0.7093 -0.0653
  577MOL0     O79489   2.558   6.094  11.377  0.8691  0.0094  0.4568
  577MOL0     C79490   2.657   6.145  11.430  0.3934  0.1255 -0.8944
  577MOL0     O79491   2.649   6.188  11.561  0.2592 -0.3375 -1.0470
  577MOL0     C79492   2.523   6.211  11.610 -0.1930 -0.2330 -0.4522
  577MOL0     C79493   2.497   6.174  11.735  0.0396  1.0768  0.2777
  577MOL0     C79494   2.370   6.194  11.790  0.7393  0.5664  0.3774
  577MOL0     C79495   2.267   6.260  11.716  1.1807 -0.3144 -0.0262
  577MOL0     O79496   2.142   6.285  11.781  0.2171  0.1099 -0.0051
  577MOL0     C79497   2.045   6.183  11.740 -0.3377 -0.1403  0.6433
  577MOL0     C79498   1.944   6.147  11.841 -0.1937 -0.3425 -0.2292
  577MOL0     C79499   1.847   6.049  11.771  0.8406 -0.6631 -0.8389
  577MOL0     C79500   1.741   6.011  11.875 -0.2541  0.6420 -0.1372
  577MOL0     C79501   1.618   5.951  11.806 -0.4133 -0.2586  0.2532
  577MOL0     C79502   1.579   5.811  11.861 -0.0346  0.6362 -0.6229
  577MOL0     C79503   1.442   5.761  11.821 -0.2433 -1.0559 -0.4853
  577MOL0     C79504   1.456   5.664  11.698 -0.3125 -0.5826  0.2258
  577MOL0     N79505   1.336   5.613  11.634 -0.3924  0.1621 -0.4867
  577MOL0     C79506   1.211   5.673  11.650  0.8437  0.7916 -0.3428
  577MOL0     C79507   1.130   5.586  11.579  0.7073  0.2087 -0.1259
  577MOL0     C79508   0.974   5.599  11.558  0.0791 -0.3508  0.4443
  577MOL0     C79509   0.928   5.552  11.424 -0.5400  0.2691 -0.6762
  577MOL0     C79510   0.783   5.602  11.394 -0.2405  0.3557 -0.4428
  577MOL0     C79511   0.675   5.555  11.495 -0.0509  0.1801 -0.1224
  577MOL0     O79512   0.555   5.602  11.432 -0.1877 -0.6656 -0.4055
  577MOL0     C79513   0.464   5.511  11.390 -0.3812  0.1607 -0.1151
  577MOL0     C79514   0.387   5.432  11.471  0.4325 -0.3938  0.2361
  577MOL0     C79515   0.278   5.360  11.420  0.0018  0.0565 -0.7327
  577MOL0     C79516   0.194   5.284  11.519 -0.0040 -0.5415 -0.7168
  577MOL0     C79517   0.258   5.343  11.280  0.0945 -0.4537 -0.1350
  577MOL0     C79518   0.163   5.263  11.197 -0.2005 -0.0690  0.5682
  577MOL0     O79519   0.151   5.274  11.065 -0.0865  0.1913  0.6811
  577MOL0     C79520   0.075   5.182  10.991  1.1900 -0.6473 -0.5014
  577MOL0     C79521   0.136   5.078  10.917 -0.5585 -0.2045 -0.1749
  577MOL0     C79522   0.065   4.988  10.834 -0.4901  1.0023 -0.2191
  577MOL0     C79523  -0.072   4.999  10.827  0.0270 -0.3112  0.0954
  577MOL0     O79524  -0.143   4.915  10.750 -0.2882 -0.0854 -0.1000
  577MOL0     C79525  -0.214   4.964  10.636  0.0376  0.4202  0.0079
  577MOL0     C79526  -0.121   4.979  10.500  0.5556  0.7764  0.2959
  577MOL0     C79527  -0.226   5.010  10.389 -0.2483 -0.9493 -0.0576
  577MOL0     C79528  -0.157   5.006  10.248 -0.5502 -0.4293 -0.2854
  577MOL0     C79529  -0.248   5.073  10.137 -0.2135  0.9061  1.1014
  577MOL0     C79530  -0.164   5.078  10.007  1.1076 -0.5418 -0.8994
  577MOL0     C79531  -0.239   5.131   9.887  0.3434  0.4462 -0.1810
  577MOL0     C79532  -0.152   5.150   9.763  0.1533  0.3205  0.1887
  577MOL0    Cl79533  -0.250   5.161   9.616 -0.0024 -0.2818  0.0162
  577MOL0     C79534  -0.139   5.096  10.908 -0.0830 -0.4490  0.5027
  577MOL0     C79535  -0.062   5.196  10.979 -0.5793 -0.0450 -0.9603
  577MOL0     O79536   0.087   5.192  11.263  0.3843  0.2818  0.1212
  577MOL0     C79537   0.347   5.421  11.198 -0.3998 -0.3296 -0.6432
  577MOL0     C79538   0.444   5.508  11.250  0.3934 -0.4973 -0.0456
  577MOL0     N79539   1.208   5.492  11.517 -0.4317 -0.0929 -0.1387
  577MOL0     N79540   1.329   5.507  11.552  0.7521 -0.6832  0.0769
  577MOL0     C79541   2.293   6.296  11.589 -1.2723 -0.3985 -0.4732
  577MOL0     C79542   2.427   6.273  11.540  0.1538 -0.1278 -0.1065
  577MOL0     C79543   2.769   6.191  11.340  0.3835 -0.9004 -0.2518
  577MOL0     C79544   2.832   6.307  11.388  0.4022 -0.0924  0.4658
  577MOL0     C79545   2.947   6.353  11.327 -0.6640  0.1344  0.4993
  577MOL0     C79546   3.005   6.294  11.214 -0.4463 -0.0835  0.1475
  577MOL0     O79547   3.110   6.348  11.132  0.6321 -0.1586  0.0965
  577MOL0     C79548   3.167   6.471  11.179 -0.0760  0.2677  0.5830
  577MOL0     C79549   3.300   6.491  11.109 -0.0075 -0.0052  0.1312
  577MOL0     C79550   3.395   6.373  11.126 -0.0961  0.2727  0.0925
  577MOL0     C79551   3.539   6.412  11.130  0.1137 -0.3102 -0.2425
  577MOL0     C79552   3.593   6.461  11.000 -0.9827 -0.0103  0.2240
  577MOL0     C79553   3.629   6.513  10.903  0.1187 -0.2577 -0.3176
  577MOL0     C79554   2.939   6.177  11.175  0.0148 -0.2780 -0.2225
  577MOL0     C79555   2.823   6.123  11.235  0.7662 -0.1851  0.0538
  577MOL0     C79556   2.749   5.993  11.186  0.4021 -0.4262 -0.2530
  577MOL0     H79557   2.580   6.138  11.794 -0.0589  2.1003  1.0682
  577MOL0     H79558   2.356   6.174  11.896 -0.2844  0.3372  0.2145
  577MOL0     H79559   2.101   6.091  11.721  3.2989  1.9579  0.1286
  577MOL0     H79560   1.996   6.217  11.649 -0.7022 -0.7624  0.6069
  577MOL0     H79561   1.988   6.106  11.932 -2.0197  0.0495  0.8752
  577MOL0     H79562   1.893   6.243  11.854 -1.3164 -0.8146 -1.0370
  577MOL0     H79563   1.796   6.094  11.685  1.3215  0.0298 -0.7743
  577MOL0     H79564   1.904   5.960  11.742  2.2689 -0.6861  1.7352
  577MOL0     H79565   1.775   5.938  11.949 -1.6199  1.6503  1.5408
  577MOL0     H79566   1.714   6.098  11.935  0.7293  1.2005 -0.4872
  577MOL0     H79567   1.641   5.934  11.700 -1.2683 -1.9261  0.2983
  577MOL0     H79568   1.534   6.021  11.803 -1.1690 -1.1337  0.4997
  577MOL0     H79569   1.657   5.742  11.828  0.3263  1.5276 -1.7006
  577MOL0     H79570   1.573   5.826  11.970 -2.5878  0.1700 -0.6523
  577MOL0     H79571   1.381   5.849  11.799  0.8413  0.5088  2.2811
  577MOL0     H79572   1.415   5.711  11.914  1.1790 -2.0907 -0.5845
  577MOL0     H79573   1.512   5.713  11.618 -1.4448 -0.1265 -0.3036
  577MOL0     H79574   1.520   5.582  11.733  1.0771 -0.4808 -1.8968
  577MOL0     H79575   1.168   5.757  11.704 -0.1765 -1.4216  2.5005
  577MOL0     H79576   0.946   5.704  11.561  2.2909  0.3056  0.2103
  577MOL0     H79577   0.931   5.538  11.638 -0.1909 -1.2780 -0.3731
  577MOL0     H79578   0.997   5.589  11.348 -1.8163 -0.9447 -2.5118
  577MOL0     H79579   0.926   5.443  11.407  1.3405  0.5608 -3.6155
  577MOL0     H79580   0.784   5.711  11.393  1.0757  0.3727  0.4914
  577MOL0     H79581   0.759   5.567  11.294  1.6649 -0.9354 -0.5017
  577MOL0     H79582   0.683   5.447  11.508  0.3429  0.3018  0.7000
  577MOL0     H79583   0.690   5.603  11.592  0.1578  2.2855 -1.1336
  577MOL0     H79584   0.388   5.449  11.579 -3.1656  2.3294  0.0414
  577MOL0     H79585   0.090   5.318  11.527  0.0767 -0.5587  0.4796
  577MOL0     H79586   0.239   5.310  11.614  3.8023  2.9913 -3.1536
  577MOL0     H79587   0.206   5.177  11.497  0.4966 -0.1880 -2.3364
  577MOL0     H79588   0.243   5.060  10.928 -0.5199  1.2956  2.6609
  577MOL0     H79589   0.130   4.915  10.787  0.1246  0.6501  1.1135
  577MOL0     H79590  -0.302   4.902  10.614 -1.4603  2.1051  0.9399
  577MOL0     H79591  -0.258   5.059  10.668 -4.9753 -0.8148 -2.1607
  577MOL0     H79592  -0.043   5.054  10.507 -0.5160  1.8423  1.5238
  577MOL0     H79593  -0.075   4.884  10.473 -3.5012 -0.8520 -1.8426
  577MOL0     H79594  -0.270   5.108  10.407  1.2332 -0.1323 -0.7196
  577MOL0     H79595  -0.304   4.935  10.407  1.1153 -2.6670 -0.9774
  577MOL0     H79596  -0.129   4.903  10.226 -0.9540 -0.2397 -1.8180
  577MOL0     H79597  -0.069   5.071  10.258  0.2197 -1.4687 -0.1547
  577MOL0     H79598  -0.327   4.998  10.128 -0.1141  1.0847 -2.4988
  577MOL0     H79599  -0.288   5.171  10.163  0.4466  1.8112 -1.0961
  577MOL0     H79600  -0.126   4.976   9.998 -0.2330 -1.4500  2.3053
  577MOL0     H79601  -0.082   5.148  10.028 -0.5107  0.8043  1.2932
  577MOL0     H79602  -0.281   5.229   9.909  2.1818  0.7946  2.2748
  577MOL0     H79603  -0.308   5.051   9.860  1.2787 -0.4408 -0.0143
  577MOL0     H79604  -0.087   5.062   9.759 -2.0711 -1.3591 -1.1932
  577MOL0     H79605  -0.098   5.244   9.781 -1.6864  1.7305 -1.2173
  577MOL0     H79606  -0.247   5.094  10.916 -0.0547  0.7011  1.5465
  577MOL0     H79607  -0.102   5.273  11.044 -3.8011 -1.4358 -1.1019
  577MOL0     H79608   0.347   5.414  11.090  0.5644 -4.4071 -0.5429
  577MOL0     H79609   0.505   5.568  11.184 -1.3968 -0.2458 -1.5716
  577MOL0     H79610   2.208   6.340  11.537 -0.5279 -0.0234 -1.4107
  577MOL0     H79611   2.440   6.293  11.434 -0.8712 -2.7099 -0.8171
  577MOL0     H79612   2.799   6.341  11.486  0.5728 -0.7370  0.7505
  577MOL0     H79613   2.981   6.450  11.360  2.4937 -1.2916  1.8276
  577MOL0     H79614   3.098   6.553  11.161 -1.4638 -1.1812 -1.0226
  577MOL0     H79615   3.196   6.458  11.284  0.0344  0.0017  0.5192
  577MOL0     H79616   3.345   6.581  11.150 -1.2006  0.1754  1.1098
  577MOL0     H79617   3.282   6.511  11.003  2.2079  0.8490 -0.1315
  577MOL0     H79618   3.377   6.300  11.205  1.1767 -1.4017 -1.0673
  577MOL0     H79619   3.380   6.312  11.036 -0.3176  1.1172 -0.4534
  577MOL0     H79620   3.602   6.333  11.171  1.2405  0.5227 -0.3291
  577MOL0     H79621   3.556   6.499  11.195  1.9385  1.1448 -2.4855
  577MOL0     H79622   3.657   6.579  10.824  0.7897  0.2483  0.3318
  577MOL0     H79623   2.981   6.119  11.094  1.3035 -2.4900  1.8767
  577MOL0     H79624   2.780   5.939  11.096 -0.4232  0.1038 -0.8709
  577MOL0     H79625   2.748   5.928  11.274 -0.1309 -0.5720 -0.3608
  577MOL0     H79626   2.647   6.030  11.169 -0.3314 -0.6945  2.9476
  578MOL0     O79627   2.953   7.263   6.602 -0.6454 -0.7000  0.6860
  578MOL0     C79628   2.839   7.287   6.570 -0.5291  0.1492 -0.1148
  578MOL0     O79629   2.759   7.199   6.510 -0.5132  0.5103  0.5314
  578MOL0     C79630   2.825   7.102   6.433 -0.4658 -0.6538 -0.0880
  578MOL0     C79631   2.881   6.991   6.487 -0.5955 -0.4105  0.6125
  578MOL0     C79632   2.945   6.894   6.404 -0.1269  0.9409 -0.6848
  578MOL0     C79633   2.955   6.916   6.266 -0.6340  0.0047 -1.0607
  578MOL0     O79634   3.029   6.849   6.175  1.2047 -0.1880  0.5227
  578MOL0     C79635   3.163   6.816   6.202 -0.9673 -0.3238  0.3007
  578MOL0     C79636   3.207   6.730   6.072 -0.2848 -0.0097  0.0390
  578MOL0     C79637   3.362   6.745   6.063  0.3341  0.3481 -0.5324
  578MOL0     C79638   3.423   6.642   5.973  0.2448 -0.0243 -0.9445
  578MOL0     C79639   3.398   6.666   5.828  0.8906 -0.5381 -0.5108
  578MOL0     C79640   3.471   6.561   5.756  0.0090 -1.2613  0.6105
  578MOL0     C79641   3.628   6.562   5.744  0.9880 -0.7798  0.4500
  578MOL0     C79642   3.654   6.477   5.620  0.1405  0.6130  0.0622
  578MOL0     N79643   3.788   6.429   5.604  0.4505 -1.0331 -0.8231
  578MOL0     C79644   3.897   6.510   5.595 -0.5712  0.1352 -0.2207
  578MOL0     C79645   3.999   6.416   5.579 -0.3101 -1.2472  0.0034
  578MOL0     C79646   4.142   6.441   5.533 -0.0345 -0.3828  0.3224
  578MOL0     C79647   4.174   6.428   5.383  0.3484  0.6380 -0.3481
  578MOL0     C79648   4.091   6.520   5.303 -0.0196  0.7122 -0.1775
  578MOL0     C79649   4.145   6.525   5.157 -0.0644 -0.6197  0.5452
  578MOL0     O79650   4.286   6.553   5.148 -0.5124  0.9707  0.5589
  578MOL0     C79651   4.362   6.524   5.030  0.0447 -0.6737 -0.5636
  578MOL0     C79652   4.502   6.517   5.036 -0.0214  0.4621 -0.4248
  578MOL0     C79653   4.591   6.483   4.934  0.5714  0.3685  0.1797
  578MOL0     C79654   4.749   6.499   4.955  0.6643  0.4119 -0.3117
  578MOL0     C79655   4.524   6.442   4.814 -0.2543  0.0615  0.2198
  578MOL0     C79656   4.604   6.422   4.690  0.3245  0.0846 -0.8827
  578MOL0     O79657   4.729   6.392   4.702  0.1492  0.7823 -0.4522
  578MOL0     C79658   4.794   6.314   4.610 -0.3648 -0.5700  0.6187
  578MOL0     C79659   4.779   6.177   4.607 -0.2088 -1.1111 -0.0657
  578MOL0     C79660   4.831   6.096   4.506  0.0528 -0.8602  0.6936
  578MOL0     C79661   4.907   6.145   4.406  0.2879  0.3066 -0.2158
  578MOL0     O79662   4.962   6.064   4.300  0.2490 -0.2218  0.1202
  578MOL0     C79663   4.867   5.971   4.238  1.1196 -0.4761 -0.9040
  578MOL0     C79664   4.803   6.031   4.118 -0.5000  0.0724  0.6441
  578MOL0     C79665   4.914   6.048   4.013  0.2143  0.7805 -0.8252
  578MOL0     C79666   4.869   6.035   3.867  0.0310 -0.3283  0.0537
  578MOL0     C79667   4.759   6.135   3.820 -0.7757 -0.8033  1.5429
  578MOL0     C79668   4.833   6.263   3.767  0.1922 -0.2224 -0.1265
  578MOL0     C79669   4.741   6.359   3.704 -0.1937 -0.7777  0.6104
  578MOL0     C79670   4.762   6.358   3.559  0.5267  0.3697 -0.2881
  578MOL0    Cl79671   4.661   6.488   3.494 -0.6940 -0.1104  0.2175
  578MOL0     C79672   4.924   6.281   4.398  1.6176  0.7180 -0.0229
  578MOL0     C79673   4.864   6.372   4.498  0.9282  0.1722  0.3233
  578MOL0     O79674   4.537   6.431   4.584 -0.3286  0.7208 -0.8740
  578MOL0     C79675   4.381   6.435   4.812  0.5235  0.6155 -0.4151
  578MOL0     C79676   4.303   6.483   4.914  1.1515 -0.6192 -0.3736
  578MOL0     N79677   3.954   6.291   5.578 -0.0498  0.3725  0.0005
  578MOL0     N79678   3.822   6.302   5.602 -1.3532  0.8508  0.0825
  578MOL0     C79679   2.901   7.031   6.213 -0.9509  0.1811  0.2370
  578MOL0     C79680   2.837   7.122   6.293 -0.4311 -0.6972  0.3903
  578MOL0     C79681   2.783   7.421   6.610 -0.6132 -0.9153  0.5508
  578MOL0     C79682   2.839   7.494   6.723  0.2521  0.4022 -0.7303
  578MOL0     C79683   2.792   7.616   6.778 -0.5097 -0.4253  0.2620
  578MOL0     C79684   2.681   7.676   6.713 -0.4900 -0.5528  0.6190
  578MOL0     O79685   2.620   7.791   6.759  0.3528  0.4614 -0.2025
  578MOL0     C79686   2.659   7.857   6.882 -0.6560 -1.3266 -0.0256
  578MOL0     C79687   2.603   8.001   6.881  0.5159 -0.1461  0.5082
  578MOL0     C79688   2.449   7.994   6.846  0.5183  0.3676 -0.3383
  578MOL0     C79689   2.373   8.132   6.866  0.1039  0.6542 -0.6090
  578MOL0     C79690   2.349   8.148   7.010  0.5543 -0.2117  0.3675
  578MOL0     C79691   2.324   8.172   7.128  0.6860 -0.9785  0.6472
  578MOL0     C79692   2.615   7.606   6.609 -0.0411 -0.0848  0.4986
  578MOL0     C79693   2.669   7.480   6.553  0.4671 -0.6573  0.7074
  578MOL0     C79694   2.592   7.415   6.441  0.3403 -0.4813  0.3447
  578MOL0     H79695   2.889   6.980   6.595 -1.0387  2.4385  1.0250
  578MOL0     H79696   3.006   6.814   6.444 -0.8815  0.8749  0.3702
  578MOL0     H79697   3.185   6.767   6.297  0.5517  0.7863  0.5700
  578MOL0     H79698   3.226   6.906   6.202  2.0822 -2.2933  0.3738
  578MOL0     H79699   3.179   6.625   6.085  0.9395 -0.7805 -2.7395
  578MOL0     H79700   3.162   6.756   5.976  0.4388 -0.7318 -0.5168
  578MOL0     H79701   3.384   6.846   6.029  0.2310  0.9771  1.1714
  578MOL0     H79702   3.402   6.721   6.162  3.7075 -0.9429 -2.0775
  578MOL0     H79703   3.531   6.645   5.988  0.3801  1.8561 -1.9814
  578MOL0     H79704   3.394   6.546   6.016  1.1677  0.5962  1.2137
  578MOL0     H79705   3.431   6.765   5.795  1.4510 -0.1681  1.0914
  578MOL0     H79706   3.290   6.656   5.811  1.2856 -1.6406 -2.7731
  578MOL0     H79707   3.427   6.465   5.783  0.1548 -1.0455  1.6299
  578MOL0     H79708   3.433   6.580   5.655  0.8702  0.4566  0.5796
  578MOL0     H79709   3.663   6.516   5.836 -0.4141 -0.1616  1.3248
  578MOL0     H79710   3.663   6.664   5.728 -0.9604 -0.4039 -2.1010
  578MOL0     H79711   3.590   6.389   5.615  0.8828  0.1037 -0.7936
  578MOL0     H79712   3.639   6.527   5.524 -2.0315  1.0924  0.5919
  578MOL0     H79713   3.909   6.617   5.606 -2.6800  0.5112 -1.0128
  578MOL0     H79714   4.217   6.373   5.576  0.5004 -0.1870 -0.2823
  578MOL0     H79715   4.164   6.544   5.563 -0.7895 -0.3204  0.6849
  578MOL0     H79716   4.275   6.466   5.365  0.8565 -1.6409 -2.8271
  578MOL0     H79717   4.162   6.324   5.351 -0.0914  1.5539 -3.3954
  578MOL0     H79718   3.983   6.501   5.309 -0.0021  1.0354  2.2853
  578MOL0     H79719   4.095   6.620   5.348 -2.0327  0.0440  1.6903
  578MOL0     H79720   4.124   6.428   5.109  0.8399  0.6194 -2.6614
  578MOL0     H79721   4.102   6.604   5.095  2.7506  1.0353  0.5467
  578MOL0     H79722   4.557   6.545   5.125 -2.6312 -1.1658  1.8273
  578MOL0     H79723   4.789   6.546   4.864 -0.1752  0.5966 -0.5924
  578MOL0     H79724   4.795   6.401   4.969 -2.5696 -1.4004 -1.3204
  578MOL0     H79725   4.770   6.566   5.039 -1.6367  2.0638 -0.9499
  578MOL0     H79726   4.716   6.123   4.678 -1.0201  1.1607  1.0593
  578MOL0     H79727   4.821   5.988   4.499  2.0719 -1.3488  3.5921
  578MOL0     H79728   4.917   5.874   4.226 -0.4259 -1.2535 -1.3508
  578MOL0     H79729   4.783   5.934   4.297  2.0097 -0.6838  0.2739
  578MOL0     H79730   4.721   5.973   4.075 -0.6802 -0.2311  1.3990
  578MOL0     H79731   4.767   6.128   4.154 -0.4379  0.9342 -1.4415
  578MOL0     H79732   4.986   5.967   4.025 -1.1416 -0.2482  0.8211
  578MOL0     H79733   4.955   6.147   4.031 -2.8520  1.5688  3.4988
  578MOL0     H79734   4.829   5.934   3.854 -0.1391 -0.3464  0.6893
  578MOL0     H79735   4.955   6.040   3.799  0.9912 -1.2062  1.1577
  578MOL0     H79736   4.707   6.086   3.737 -0.2464 -0.8165  1.2193
  578MOL0     H79737   4.684   6.162   3.896 -0.4864  1.0976  1.2030
  578MOL0     H79738   4.905   6.230   3.691  0.5328  0.0274  0.0851
  578MOL0     H79739   4.886   6.316   3.846  3.6324  0.5894 -2.7269
  578MOL0     H79740   4.760   6.463   3.730 -0.4009 -1.1647  2.3999
  578MOL0     H79741   4.634   6.341   3.723 -0.4157 -2.0130 -1.4544
  578MOL0     H79742   4.727   6.261   3.522 -2.9613  1.4093 -0.0803
  578MOL0     H79743   4.867   6.376   3.535  0.1831  1.8451 -0.8167
  578MOL0     H79744   4.966   6.335   4.314 -0.3781 -1.9964 -2.9623
  578MOL0     H79745   4.875   6.480   4.494  0.0807  0.3238  1.5127
  578MOL0     H79746   4.340   6.384   4.725  2.9358  0.6485 -1.6491
  578MOL0     H79747   4.194   6.480   4.912  0.9455  2.2355  0.8280
  578MOL0     H79748   2.914   7.047   6.107  1.8628 -1.4542  0.2332
  578MOL0     H79749   2.791   7.204   6.239 -0.6001  0.4386  2.2017
  578MOL0     H79750   2.920   7.449   6.781 -1.3184  2.1277  3.2044
  578MOL0     H79751   2.841   7.658   6.865 -1.9807 -0.5802  1.2074
  578MOL0     H79752   2.629   7.802   6.971 -1.1581  0.6807  1.0949
  578MOL0     H79753   2.768   7.862   6.894 -0.9186 -0.0833  2.5208
  578MOL0     H79754   2.643   8.051   6.792  1.6260  2.0949  2.1610
  578MOL0     H79755   2.623   8.068   6.965 -2.5202  1.8066 -0.1501
  578MOL0     H79756   2.439   7.956   6.744 -1.5841 -1.7173  0.5327
  578MOL0     H79757   2.395   7.914   6.899  5.3311 -1.9850  1.6090
  578MOL0     H79758   2.283   8.143   6.806  1.8603 -0.2094 -3.5903
  578MOL0     H79759   2.446   8.206   6.833 -0.2185  1.3714  0.2304
  578MOL0     H79760   2.286   8.190   7.227  1.6512  2.2830  0.5433
  578MOL0     H79761   2.522   7.645   6.568  0.1190  0.2981  0.4983
  578MOL0     H79762   2.662   7.388   6.361 -2.3532 -1.9808 -1.6738
  578MOL0     H79763   2.530   7.333   6.478 -1.5209  0.2610 -0.9887
  578MOL0     H79764   2.531   7.494   6.396 -0.2698  0.6686  2.9891
  579MOL0     O79765   4.165   5.751   2.533  0.8132 -0.2226 -0.1663
  579MOL0     C79766   4.239   5.687   2.608  0.5799  0.4559  0.0123
  579MOL0     O79767   4.293   5.561   2.573  0.3224  0.0843 -0.1034
  579MOL0     C79768   4.256   5.493   2.459 -0.6699  0.2516  0.0917
  579MOL0     C79769   4.124   5.470   2.427  0.4833 -1.0526  0.3236
  579MOL0     C79770   4.088   5.402   2.313  0.2929 -0.0074  0.5555
  579MOL0     C79771   4.188   5.352   2.220  0.0474  0.2022  0.1357
  579MOL0     O79772   4.143   5.255   2.121 -0.0548  0.0309 -0.4470
  579MOL0     C79773   4.226   5.280   2.000 -0.0316 -0.9694 -0.4986
  579MOL0     C79774   4.148   5.221   1.886 -0.5670 -0.1049  0.6770
  579MOL0     C79775   4.108   5.072   1.900  1.6494  0.2370 -0.0758
  579MOL0     C79776   4.037   5.000   1.782  0.3359  0.9414  0.1770
  579MOL0     C79777   4.121   4.986   1.658 -0.5041 -0.2495  1.0737
  579MOL0     C79778   4.228   4.878   1.653 -0.2431 -0.0668 -0.2036
  579MOL0     C79779   4.318   4.900   1.528  0.5905  0.0805  0.1310
  579MOL0     C79780   4.436   4.803   1.538  0.2342  0.0711  0.1673
  579MOL0     N79781   4.564   4.880   1.585  0.6442 -0.3802  0.1879
  579MOL0     C79782   4.599   4.996   1.516  0.1719  0.4186 -0.2557
  579MOL0     C79783   4.679   5.063   1.601 -0.4990  0.2332  0.3723
  579MOL0     C79784   4.738   5.202   1.559  0.2452  0.6040 -0.5372
  579MOL0     C79785   4.636   5.316   1.580  0.5438  0.2872 -0.7523
  579MOL0     C79786   4.626   5.387   1.708  0.1790  0.9247  0.0120
  579MOL0     C79787   4.564   5.310   1.817  0.0330 -0.4721 -0.3472
  579MOL0     O79788   4.521   5.413   1.905  0.1151  0.5982  0.6818
  579MOL0     C79789   4.616   5.448   1.992 -0.2939 -0.5961 -0.3311
  579MOL0     C79790   4.577   5.559   2.072  0.1343 -0.4209  0.0846
  579MOL0     C79791   4.667   5.623   2.162 -0.0079  0.0272  0.3235
  579MOL0     C79792   4.595   5.731   2.234  1.0880 -0.3726  0.8846
  579MOL0     C79793   4.809   5.586   2.160  0.5801  0.0119  0.2663
  579MOL0     C79794   4.920   5.663   2.232  1.0859  0.8502 -0.0795
  579MOL0     O79795   5.045   5.628   2.186 -0.1976  0.9829  0.6964
  579MOL0     C79796   5.152   5.670   2.264 -0.6816 -0.5200  0.0953
  579MOL0     C79797   5.218   5.794   2.234  0.8883  0.2052  0.0906
  579MOL0     C79798   5.323   5.831   2.314 -0.9447 -0.6108  0.2874
  579MOL0     C79799   5.370   5.746   2.416  0.6304 -0.5751 -0.6250
  579MOL0     O79800   5.472   5.791   2.490 -0.5449  0.1104  0.0690
  579MOL0     C79801   5.578   5.693   2.533  0.3693  0.1563 -0.1026
  579MOL0     C79802   5.688   5.763   2.615 -0.7731 -0.8423  0.1592
  579MOL0     C79803   5.761   5.883   2.535 -0.0651 -0.3273 -0.3477
  579MOL0     C79804   5.847   5.829   2.419 -0.6569  0.3795 -1.1433
  579MOL0     C79805   5.901   5.940   2.340  0.5550 -0.0485  0.4185
  579MOL0     C79806   5.850   5.920   2.194 -0.4730 -0.1850 -0.1886
  579MOL0     C79807   5.708   5.948   2.168  0.0942 -0.4375  0.0074
  579MOL0     C79808   5.649   5.893   2.046 -0.9132  0.0078  0.0368
  579MOL0    Cl79809   5.466   5.906   2.064  0.1335 -0.3173  0.1180
  579MOL0     C79810   5.313   5.619   2.429  0.9504 -0.0154  0.3378
  579MOL0     C79811   5.200   5.579   2.358  0.7504 -0.6366  0.3258
  579MOL0     O79812   4.894   5.739   2.322  0.4308 -0.2980 -0.5039
  579MOL0     C79813   4.851   5.485   2.065 -0.0172  0.3074  0.2239
  579MOL0     C79814   4.756   5.418   1.985  0.6422 -0.2070  0.0552
  579MOL0     N79815   4.670   5.003   1.726 -0.3845  0.1273 -0.5466
  579MOL0     N79816   4.599   4.897   1.713 -0.5725 -0.5686 -0.0095
  579MOL0     C79817   4.322   5.378   2.257 -0.1196 -1.0345  0.4763
  579MOL0     C79818   4.356   5.437   2.376  0.4911 -0.5656  0.3483
  579MOL0     C79819   4.279   5.750   2.731 -0.3430 -0.3005 -0.6461
  579MOL0     C79820   4.271   5.893   2.734  0.9143  0.8224  0.0746
  579MOL0     C79821   4.311   5.968   2.843  1.2752  0.3735  0.0036
  579MOL0     C79822   4.380   5.914   2.942 -0.2014  0.4540 -0.6207
  579MOL0     O79823   4.416   6.005   3.033  0.3482  0.0793 -0.2495
  579MOL0     C79824   4.545   5.976   3.093  0.6745 -0.3386  0.3226
  579MOL0     C79825   4.600   6.092   3.177  0.8757 -0.4046 -0.0152
  579MOL0     C79826   4.520   6.120   3.303  0.0191  0.2962  0.2771
  579MOL0     C79827   4.419   6.241   3.281  0.6673 -0.6050 -0.4880
  579MOL0     C79828   4.325   6.269   3.388  0.1572 -0.4833  0.0133
  579MOL0     C79829   4.235   6.293   3.462 -0.7769  0.1014 -0.1464
  579MOL0     C79830   4.397   5.774   2.949 -0.0147  0.2222 -0.3958
  579MOL0     C79831   4.341   5.686   2.846 -0.0153  0.1782  0.1840
  579MOL0     C79832   4.358   5.543   2.849 -0.4211 -0.2339  0.5230
  579MOL0     H79833   4.046   5.505   2.494  0.3571  0.4964 -0.6034
  579MOL0     H79834   3.983   5.382   2.296  0.8248 -2.0155 -0.7713
  579MOL0     H79835   4.324   5.236   2.016 -0.2368 -1.0269  0.6958
  579MOL0     H79836   4.241   5.386   1.980  1.2601 -1.4309 -2.1957
  579MOL0     H79837   4.065   5.291   1.870 -0.2798 -0.2281 -1.7560
  579MOL0     H79838   4.208   5.215   1.794 -2.4071  0.3770 -0.6282
  579MOL0     H79839   4.184   5.002   1.937  1.3734 -0.1217 -0.1728
  579MOL0     H79840   4.039   5.065   1.985 -0.0788 -2.6841 -1.5495
  579MOL0     H79841   4.014   4.895   1.803  0.4544  0.7121 -0.7677
  579MOL0     H79842   3.946   5.054   1.755 -1.4429 -2.4951 -1.2850
  579MOL0     H79843   4.172   5.079   1.629  0.3922 -0.3538  2.2616
  579MOL0     H79844   4.049   4.965   1.578 -0.6416 -1.5109  1.5032
  579MOL0     H79845   4.292   4.885   1.742  0.2911  0.8187 -0.6406
  579MOL0     H79846   4.186   4.777   1.651  1.4062 -0.8016  0.3131
  579MOL0     H79847   4.344   5.006   1.523 -3.0541  1.0458 -1.0519
  579MOL0     H79848   4.258   4.873   1.441 -0.7033 -0.0413  1.0324
  579MOL0     H79849   4.418   4.713   1.598  4.1519 -0.5143  0.7458
  579MOL0     H79850   4.451   4.762   1.438  1.9253 -1.3923  0.9520
  579MOL0     H79851   4.576   5.015   1.412 -1.3211  0.8120  0.1220
  579MOL0     H79852   4.755   5.195   1.451  2.4392 -2.7196 -0.1390
  579MOL0     H79853   4.831   5.225   1.611  0.9518  0.1013 -1.5455
  579MOL0     H79854   4.671   5.386   1.504  1.9300  0.0856 -0.3208
  579MOL0     H79855   4.538   5.275   1.554 -1.4385  3.6634  0.7759
  579MOL0     H79856   4.731   5.394   1.740  0.1761  0.7090  0.0668
  579MOL0     H79857   4.575   5.483   1.698 -1.5315  0.1069  0.5472
  579MOL0     H79858   4.468   5.262   1.793 -0.0828  0.4010 -1.7614
  579MOL0     H79859   4.627   5.232   1.860  1.3598 -0.4904 -2.2219
  579MOL0     H79860   4.472   5.588   2.078  0.6081  1.7582 -1.0347
  579MOL0     H79861   4.541   5.805   2.175  0.9573 -2.5941 -2.0103
  579MOL0     H79862   4.655   5.784   2.310 -0.9293  1.7130  1.1313
  579MOL0     H79863   4.520   5.675   2.291 -0.0271 -0.7310 -0.8844
  579MOL0     H79864   5.175   5.846   2.150 -0.0101 -0.2385  0.2651
  579MOL0     H79865   5.354   5.934   2.300  0.4884 -0.8928  1.0815
  579MOL0     H79866   5.542   5.612   2.596  0.2971 -0.4195 -0.8702
  579MOL0     H79867   5.607   5.641   2.442 -2.8265  2.2248 -2.5299
  579MOL0     H79868   5.646   5.805   2.707  1.9698 -1.4624  1.8185
  579MOL0     H79869   5.769   5.692   2.633 -1.3338 -2.0808 -1.8907
  579MOL0     H79870   5.823   5.952   2.593 -1.9644  2.9611 -1.9062
  579MOL0     H79871   5.682   5.951   2.500 -0.5654 -1.7916 -2.2752
  579MOL0     H79872   5.792   5.764   2.350  0.4205 -1.8922  0.0160
  579MOL0     H79873   5.928   5.769   2.462 -0.5099  1.2367 -0.1912
  579MOL0     H79874   5.864   6.036   2.379  1.6221  0.4797  0.1819
  579MOL0     H79875   6.011   5.940   2.339  0.6298  2.1253 -1.6809
  579MOL0     H79876   5.875   5.817   2.166  0.1124 -0.0964 -0.0014
  579MOL0     H79877   5.902   5.986   2.123 -0.4364 -0.8645 -0.8098
  579MOL0     H79878   5.688   6.055   2.180 -0.4181 -0.8217  3.7096
  579MOL0     H79879   5.647   5.897   2.244 -2.8048  0.4941 -1.5446
  579MOL0     H79880   5.678   5.788   2.040  2.1731  0.8470 -3.6740
  579MOL0     H79881   5.686   5.955   1.964  0.9759  0.7099  1.3533
  579MOL0     H79882   5.347   5.555   2.510  0.5370 -0.0330  0.4997
  579MOL0     H79883   5.137   5.495   2.388 -0.5992  0.6660  1.2773
  579MOL0     H79884   4.956   5.458   2.057  0.0425  0.5144  0.3023
  579MOL0     H79885   4.800   5.340   1.923 -1.2879 -2.0894  0.9405
  579MOL0     H79886   4.405   5.345   2.195 -1.2135 -1.6425 -0.7080
  579MOL0     H79887   4.464   5.443   2.389  0.6910 -0.7158 -1.0722
  579MOL0     H79888   4.231   5.954   2.653  0.7996  2.6219  1.4159
  579MOL0     H79889   4.288   6.074   2.837  0.4205  0.2219  0.4223
  579MOL0     H79890   4.542   5.883   3.149 -2.6768 -1.2318 -1.0751
  579MOL0     H79891   4.611   5.944   3.011  0.1064 -0.0042 -0.2811
  579MOL0     H79892   4.622   6.175   3.110  1.4340 -1.2813 -0.9502
  579MOL0     H79893   4.695   6.064   3.223  0.8514  0.4744  0.5905
  579MOL0     H79894   4.462   6.029   3.321 -0.8410  0.2683 -2.2061
  579MOL0     H79895   4.578   6.135   3.394  2.1120  1.2401 -1.1361
  579MOL0     H79896   4.364   6.209   3.191  0.8175 -0.4788 -0.6243
  579MOL0     H79897   4.470   6.332   3.249  1.5858 -0.6703  0.7275
  579MOL0     H79898   4.155   6.305   3.533 -0.4629 -1.3896  0.5094
  579MOL0     H79899   4.451   5.734   3.035 -0.3813  1.1805  0.3003
  579MOL0     H79900   4.263   5.491   2.830 -2.4318  3.1238  0.5228
  579MOL0     H79901   4.427   5.505   2.773 -1.4050 -1.6752  0.3061
  579MOL0     H79902   4.389   5.508   2.948 -1.7066  1.8717  1.7337
  580MOL0     O79903  10.957   8.348   6.675 -0.7155 -0.8045 -0.5673
  580MOL0     C79904  10.915   8.240   6.726  0.1894 -0.2436 -0.2406
  580MOL0     O79905  10.995   8.149   6.784 -0.1579  0.2583  0.3636
  580MOL0     C79906  11.130   8.184   6.803 -0.1039 -0.1291 -0.5115
  580MOL0     C79907  11.219   8.090   6.767  0.1628  0.5688  1.1039
  580MOL0     C79908  11.351   8.122   6.771 -0.5543  0.4556 -0.0776
  580MOL0     C79909  11.406   8.241   6.822  0.4801  0.4290  0.5554
  580MOL0     O79910  11.533   8.240   6.839 -0.3442 -0.2206  0.1891
  580MOL0     C79911  11.593   8.334   6.932 -0.3870  0.2148 -0.8734
  580MOL0     C79912  11.674   8.441   6.859  0.2481  0.1739  0.0141
  580MOL0     C79913  11.703   8.551   6.956 -0.2886 -1.1150 -0.4888
  580MOL0     C79914  11.841   8.618   6.924  0.7593  0.3697  0.0242
  580MOL0     C79915  11.850   8.731   7.033  0.2133 -0.6059 -0.5108
  580MOL0     C79916  11.991   8.802   7.006  0.1600  0.0468  0.4524
  580MOL0     C79917  12.004   8.936   7.081 -0.0119 -0.3231 -0.5558
  580MOL0     C79918  11.972   8.947   7.233  0.0673  0.1393  0.3805
  580MOL0     N79919  12.102   8.935   7.313 -0.0591  0.2642  0.4953
  580MOL0     C79920  12.189   9.041   7.306 -0.3532 -0.5432  0.0941
  580MOL0     C79921  12.298   9.001   7.378 -0.2154  0.1134  0.7922
  580MOL0     C79922  12.417   9.090   7.409 -0.1601  0.0911 -0.2928
  580MOL0     C79923  12.519   9.070   7.294 -0.0428 -0.2473  1.4124
  580MOL0     C79924  12.477   9.155   7.173  0.1667  0.1852 -0.0342
  580MOL0     C79925  12.591   9.167   7.064  0.0292 -0.2610  0.3470
  580MOL0     O79926  12.613   9.040   6.992  0.5333 -0.3734 -1.0979
  580MOL0     C79927  12.584   9.026   6.855  1.0843 -1.1030 -0.7811
  580MOL0     C79928  12.671   8.987   6.764 -0.0580  0.4680 -0.9635
  580MOL0     C79929  12.652   9.003   6.620  0.5882  0.2736  0.0364
  580MOL0     C79930  12.762   8.980   6.527 -0.2658 -0.5575  0.6231
  580MOL0     C79931  12.524   9.052   6.578 -0.9290 -0.0425 -0.0298
  580MOL0     C79932  12.482   9.077   6.442 -0.3196 -0.5694  0.2494
  580MOL0     O79933  12.392   9.190   6.426 -0.3958  0.5091  0.0968
  580MOL0     C79934  12.324   9.210   6.303 -0.2488  0.2266  0.5650
  580MOL0     C79935  12.184   9.201   6.289 -0.5633 -0.7400 -0.6723
  580MOL0     C79936  12.119   9.198   6.167  0.5875  0.6846 -1.1188
  580MOL0     C79937  12.185   9.252   6.054  0.1657  0.2296  0.2247
  580MOL0     O79938  12.104   9.253   5.944  0.3866 -0.0796  0.2098
  580MOL0     C79939  12.165   9.320   5.837 -0.2754 -0.1759 -0.7026
  580MOL0     C79940  12.076   9.360   5.722  0.3467 -0.6777 -0.1731
  580MOL0     C79941  11.980   9.475   5.737  0.5808 -0.7747  1.0360
  580MOL0     C79942  11.843   9.424   5.804  0.0509  0.5610 -0.4329
  580MOL0     C79943  11.719   9.508   5.770 -0.5807  0.1324  1.4774
  580MOL0     C79944  11.616   9.499   5.879  0.4085 -0.5097  1.0659
  580MOL0     C79945  11.514   9.623   5.867  0.5573 -0.0375  0.3315
  580MOL0     C79946  11.388   9.622   5.955  0.2329  0.2552  0.0490
  580MOL0    Cl79947  11.427   9.624   6.131 -0.0231 -0.2691 -0.3816
  580MOL0     C79948  12.321   9.284   6.061 -0.7632 -0.1959 -0.0332
  580MOL0     C79949  12.390   9.261   6.187 -0.2645 -0.5666  0.0566
  580MOL0     O79950  12.501   8.988   6.360 -0.4320 -0.0377 -0.4921
  580MOL0     C79951  12.427   9.086   6.679  0.0460  0.2331  0.1776
  580MOL0     C79952  12.457   9.072   6.817  0.4663  0.4497 -0.1489
  580MOL0     N79953  12.280   8.864   7.406  0.9142  0.5702  0.6175
  580MOL0     N79954  12.167   8.825   7.356  0.3833  0.2066 -0.0675
  580MOL0     C79955  11.317   8.343   6.854 -0.5193 -0.2207 -0.1174
  580MOL0     C79956  11.181   8.309   6.855  0.5828 -0.0961  0.0571
  580MOL0     C79957  10.777   8.210   6.710 -0.0751  0.8839  0.4772
  580MOL0     C79958  10.739   8.074   6.695  0.0068  0.4828  0.6223
  580MOL0     C79959  10.609   8.032   6.700 -0.6306 -0.0409  0.7214
  580MOL0     C79960  10.507   8.120   6.699 -1.1326  0.5370  0.1777
  580MOL0     O79961  10.384   8.060   6.674  0.0165 -0.1752  0.2447
  580MOL0     C79962  10.270   8.140   6.661  0.6669 -0.4630 -0.4376
  580MOL0     C79963  10.155   8.039   6.652  0.4079  0.0852  0.0135
  580MOL0     C79964  10.005   8.096   6.632  0.6634 -0.3206 -0.3175
  580MOL0     C79965   9.983   8.242   6.671 -0.6618  0.5514  0.0512
  580MOL0     C79966   9.839   8.276   6.655  0.5385 -0.7861  0.1009
  580MOL0     C79967   9.719   8.299   6.644  0.1176  0.1245  0.1522
  580MOL0     C79968  10.543   8.252   6.709  0.3744 -1.4538  0.3648
  580MOL0     C79969  10.671   8.301   6.722  0.1848 -0.0407  0.6619
  580MOL0     C79970  10.700   8.451   6.752  0.2745  0.3208  0.0841
  580MOL0     H79971  11.178   7.990   6.758 -2.2225  1.6359 -1.4901
  580MOL0     H79972  11.422   8.039   6.769 -1.1092 -0.0830  1.1544
  580MOL0     H79973  11.658   8.265   6.986 -2.4908  0.2665  1.9595
  580MOL0     H79974  11.523   8.375   7.006 -0.9795  1.0409 -1.8601
  580MOL0     H79975  11.764   8.388   6.824 -1.5135 -0.8137 -3.5167
  580MOL0     H79976  11.619   8.477   6.771  1.3857  0.7869 -0.4759
  580MOL0     H79977  11.625   8.627   6.964  1.0254  0.0664  4.3577
  580MOL0     H79978  11.699   8.501   7.053 -4.5304  0.2343  0.2132
  580MOL0     H79979  11.923   8.546   6.916 -0.3731 -0.8984 -0.4869
  580MOL0     H79980  11.829   8.662   6.824 -0.2428  1.5919  0.6542
  580MOL0     H79981  11.856   8.689   7.134  0.2154  0.7584  0.0789
  580MOL0     H79982  11.771   8.806   7.027  1.0199  0.3841  0.7212
  580MOL0     H79983  12.070   8.730   7.028 -1.7216 -2.3399 -0.1767
  580MOL0     H79984  11.990   8.812   6.897 -1.7436 -0.1487  0.4164
  580MOL0     H79985  11.945   9.015   7.035 -0.2947 -0.4740 -0.4533
  580MOL0     H79986  12.107   8.968   7.063  0.0602 -0.9721 -1.3628
  580MOL0     H79987  11.935   9.046   7.260 -3.2265 -1.2652  1.5477
  580MOL0     H79988  11.901   8.868   7.261  1.4448 -2.0468 -1.8230
  580MOL0     H79989  12.169   9.140   7.267  2.7350  1.0407  2.1682
  580MOL0     H79990  12.463   9.050   7.499  3.5696 -1.4187 -2.6144
  580MOL0     H79991  12.395   9.197   7.420 -0.6145 -0.0100 -0.2303
  580MOL0     H79992  12.619   9.094   7.331 -0.8463 -0.4815  3.9372
  580MOL0     H79993  12.530   8.969   7.255 -0.3417 -0.1487  1.0678
  580MOL0     H79994  12.399   9.096   7.123  0.9263  0.2109 -1.2877
  580MOL0     H79995  12.427   9.248   7.200 -0.8899  0.2772 -2.1101
  580MOL0     H79996  12.581   9.251   6.994 -0.0693 -0.9206 -0.4470
  580MOL0     H79997  12.687   9.184   7.113  0.3115  1.8612 -0.8271
  580MOL0     H79998  12.767   8.955   6.803 -0.9358 -2.3782 -0.8843
  580MOL0     H79999  12.853   8.998   6.585  0.7391  0.2177 -1.1255
  580MOL0     H80000  12.758   9.047   6.441  3.1799 -0.4432  0.4343
  580MOL0     H80001  12.750   8.881   6.481  0.7115  1.3413 -4.2305
  580MOL0     H80002  12.139   9.187   6.387  0.8854 -2.0314 -0.1432
  580MOL0     H80003  12.014   9.174   6.158  0.3504  0.9998  0.5312
  580MOL0     H80004  12.216   9.409   5.875  2.5464 -1.8474 -0.2617
  580MOL0     H80005  12.241   9.252   5.798  0.2097  0.3768 -0.7312
  580MOL0     H80006  12.142   9.402   5.645 -0.1116 -1.4988 -1.0399
  580MOL0     H80007  12.010   9.280   5.687  0.3595 -0.7719  0.0177
  580MOL0     H80008  11.953   9.507   5.635 -0.3688 -1.9000  0.9167
  580MOL0     H80009  12.022   9.566   5.779 -2.1039  1.7070 -1.1898
  580MOL0     H80010  11.869   9.411   5.910  1.4041  0.1246 -0.7911
  580MOL0     H80011  11.815   9.326   5.766  0.4505  1.8263 -4.4979
  580MOL0     H80012  11.752   9.608   5.740  0.1272  0.2523  2.5729
  580MOL0     H80013  11.682   9.468   5.675  1.3999 -0.9248  1.0745
  580MOL0     H80014  11.672   9.497   5.973 -1.0541 -0.8784  1.9568
  580MOL0     H80015  11.546   9.416   5.870 -0.3704  0.0079  2.1001
  580MOL0     H80016  11.481   9.626   5.763 -0.0528  0.9109  0.5399
  580MOL0     H80017  11.563   9.721   5.872 -1.9848  1.8514 -4.8004
  580MOL0     H80018  11.340   9.529   5.924  1.2684 -0.3346  0.1581
  580MOL0     H80019  11.327   9.712   5.939  3.6299  2.4958 -1.5487
  580MOL0     H80020  12.378   9.320   5.976 -0.6951 -1.7053 -0.6512
  580MOL0     H80021  12.498   9.269   6.189 -0.2804 -0.2794 -0.1966
  580MOL0     H80022  12.335   9.131   6.644  1.7466  2.4287 -1.7118
  580MOL0     H80023  12.374   9.103   6.880 -0.7630  2.6723 -2.6239
  580MOL0     H80024  11.344   8.443   6.885 -0.7798 -0.6092  1.4618
  580MOL0     H80025  11.100   8.374   6.887 -1.1050 -2.0604  0.0008
  580MOL0     H80026  10.817   7.998   6.690 -0.5182 -0.0496  0.4001
  580MOL0     H80027  10.583   7.926   6.697  1.5199 -0.7002  2.4216
  580MOL0     H80028  10.239   8.210   6.739 -3.5692  0.9333 -3.0224
  580MOL0     H80029  10.277   8.204   6.572  2.6228  0.4104  0.2778
  580MOL0     H80030  10.147   7.970   6.736 -1.5826 -0.8946 -0.9211
  580MOL0     H80031  10.177   7.973   6.568 -0.5801  0.2941 -0.4292
  580MOL0     H80032   9.970   8.092   6.529 -1.8324 -0.8780  0.4971
  580MOL0     H80033   9.928   8.042   6.687 -1.1372  1.2599 -1.1853
  580MOL0     H80034  10.044   8.309   6.609 -1.3917 -0.0875 -1.4192
  580MOL0     H80035  10.015   8.264   6.773  0.3755  2.4911 -0.6363
  580MOL0     H80036   9.622   8.343   6.640 -0.3746 -0.8333  0.8289
  580MOL0     H80037  10.455   8.315   6.716  2.3014  1.4840  0.0888
  580MOL0     H80038  10.610   8.507   6.778  0.0853  0.5865 -1.0991
  580MOL0     H80039  10.785   8.474   6.818  0.8926  2.2719 -1.3148
  580MOL0     H80040  10.736   8.498   6.660 -3.4549  1.3589 -1.0262
  581MOL0     O80041   2.159  10.019   6.512  0.4317 -0.9329  0.3184
  581MOL0     C80042   2.244   9.925   6.517 -0.2108 -1.4305  0.8319
  581MOL0     O80043   2.301   9.874   6.405 -0.1951  0.2359  0.1607
  581MOL0     C80044   2.226   9.882   6.293  0.2292  0.5140 -0.3313
  581MOL0     C80045   2.102   9.809   6.275  1.0631  0.0374 -1.1104
  581MOL0     C80046   2.028   9.835   6.164 -1.1792 -0.3508  0.2471
  581MOL0     C80047   2.065   9.926   6.063 -0.4521  0.0636  0.3056
  581MOL0     O80048   1.992   9.953   5.954  0.0916  0.3952 -0.1901
  581MOL0     C80049   1.871   9.880   5.928 -0.2660 -0.1911 -0.4850
  581MOL0     C80050   1.819   9.917   5.791  0.7296  0.6337  0.2965
  581MOL0     C80051   1.912   9.872   5.676 -0.2179 -0.1593  0.2838
  581MOL0     C80052   1.857   9.894   5.535 -0.8313 -0.2259 -0.9782
  581MOL0     C80053   1.959   9.858   5.425 -0.2844  0.3489 -0.5542
  581MOL0     C80054   2.010   9.711   5.426  0.4355  0.4172  0.4244
  581MOL0     C80055   1.909   9.595   5.434 -0.1874 -0.7385 -0.4287
  581MOL0     C80056   1.946   9.465   5.374  0.5104  0.0228  0.3677
  581MOL0     N80057   1.947   9.478   5.231  0.1543  0.6380 -0.5772
  581MOL0     C80058   1.836   9.481   5.151  1.0682  0.2904 -0.7402
  581MOL0     C80059   1.880   9.476   5.021  0.7467  0.1937  0.3118
  581MOL0     C80060   1.803   9.494   4.892 -0.2629  0.3094 -0.4966
  581MOL0     C80061   1.877   9.421   4.782  0.3749 -0.2085  0.2898
  581MOL0     C80062   1.968   9.515   4.699  0.0298  0.1419  0.0647
  581MOL0     C80063   2.014   9.442   4.572 -0.2455 -0.4066 -0.0275
  581MOL0     O80064   2.074   9.315   4.589 -0.1271 -0.5813 -0.5408
  581MOL0     C80065   2.208   9.296   4.610 -0.1276  0.3244  0.4244
  581MOL0     C80066   2.257   9.171   4.592 -0.0637 -0.0712 -0.4417
  581MOL0     C80067   2.392   9.137   4.596 -1.2232 -0.4555 -0.4458
  581MOL0     C80068   2.430   8.997   4.570 -0.2936  0.2712  0.0652
  581MOL0     C80069   2.488   9.235   4.630  0.9572 -0.2748  0.4483
  581MOL0     C80070   2.628   9.216   4.645  0.9849 -0.6101 -0.2311
  581MOL0     O80071   2.699   9.300   4.569 -0.3519 -0.0342  0.2693
  581MOL0     C80072   2.843   9.298   4.574  0.2036 -0.1152  0.3883
  581MOL0     C80073   2.926   9.272   4.683  0.0964  0.7068  0.9258
  581MOL0     C80074   3.061   9.295   4.681 -0.7993  0.5150  0.3276
  581MOL0     C80075   3.126   9.348   4.564  0.5522 -0.1162  0.2817
  581MOL0     O80076   3.256   9.379   4.560  0.0421 -0.4137 -0.0519
  581MOL0     C80077   3.328   9.394   4.678 -0.6510  0.0204 -0.5875
  581MOL0     C80078   3.441   9.489   4.631  0.1005 -0.7271 -0.8563
  581MOL0     C80079   3.569   9.478   4.709 -0.2167 -0.6509 -0.4447
  581MOL0     C80080   3.639   9.605   4.739  0.2978 -0.2828  0.2156
  581MOL0     C80081   3.783   9.590   4.777 -0.7871  0.5391 -0.5263
  581MOL0     C80082   3.858   9.721   4.800  0.5228 -0.1772  0.4763
  581MOL0     C80083   3.835   9.778   4.943  1.0181  0.1656 -0.9516
  581MOL0     C80084   3.920   9.898   4.977 -0.3199  0.9676  0.4229
  581MOL0    Cl80085   4.098   9.874   4.984 -0.3580 -0.1846  0.0719
  581MOL0     C80086   3.049   9.373   4.446 -0.2428  0.2734 -0.0515
  581MOL0     C80087   2.910   9.335   4.448  0.9767 -0.4643  0.3055
  581MOL0     O80088   2.668   9.115   4.694  0.2568 -0.1585  0.4475
  581MOL0     C80089   2.436   9.369   4.643 -0.3993 -0.4399 -0.3909
  581MOL0     C80090   2.300   9.399   4.640  0.0042 -0.0816  0.1812
  581MOL0     N80091   2.010   9.462   5.034 -0.4820  0.0014 -0.1277
  581MOL0     N80092   2.057   9.454   5.155  0.2252  0.8833  0.1463
  581MOL0     C80093   2.192   9.981   6.074  1.1881  0.5028  0.0889
  581MOL0     C80094   2.268   9.962   6.186 -0.8851 -0.8640 -0.3603
  581MOL0     C80095   2.283   9.873   6.650  0.3959 -0.5411  0.2921
  581MOL0     C80096   2.169   9.841   6.726 -0.5531 -0.3147 -0.5478
  581MOL0     C80097   2.198   9.797   6.862  0.0176  0.1312 -0.5424
  581MOL0     C80098   2.329   9.789   6.915 -0.5382  0.4520  0.2999
  581MOL0     O80099   2.338   9.740   7.044  0.3613  0.5563 -0.2473
  581MOL0     C80100   2.456   9.695   7.107 -0.1215  0.5122 -0.0904
  581MOL0     C80101   2.443   9.541   7.080  0.2793 -0.8597 -0.3288
  581MOL0     C80102   2.310   9.491   7.141 -0.4852 -0.0705 -0.2740
  581MOL0     C80103   2.295   9.336   7.133 -0.2060 -0.0659 -0.1670
  581MOL0     C80104   2.262   9.303   7.000 -0.2305 -0.8690 -0.3198
  581MOL0     C80105   2.218   9.278   6.886 -0.5010 -1.3070  0.3308
  581MOL0     C80106   2.437   9.821   6.833  0.9321 -1.3173  0.4570
  581MOL0     C80107   2.416   9.860   6.705  0.0036  0.1237  0.3959
  581MOL0     C80108   2.535   9.895   6.621 -0.4055 -0.3703  0.6235
  581MOL0     H80109   2.065   9.737   6.347  0.4486  0.8817 -0.5639
  581MOL0     H80110   1.928   9.795   6.168 -1.0715 -0.5955  0.5763
  581MOL0     H80111   1.789   9.901   5.998  0.6589 -1.0568  0.9155
  581MOL0     H80112   1.886   9.772   5.926  1.4848 -0.0485  1.8136
  581MOL0     H80113   1.721   9.868   5.784  0.5318  0.3632  3.5570
  581MOL0     H80114   1.807  10.025   5.784  0.4657  0.5098 -1.6276
  581MOL0     H80115   2.011   9.919   5.676  0.2293 -1.0875  0.6111
  581MOL0     H80116   1.930   9.765   5.683 -1.6354 -0.3507  1.7503
  581MOL0     H80117   1.772   9.826   5.522 -0.2381 -2.0246  2.9615
  581MOL0     H80118   1.831  10.000   5.531  3.0021  0.8698 -1.5038
  581MOL0     H80119   2.045   9.924   5.442  1.0712 -1.7061  1.1550
  581MOL0     H80120   1.920   9.890   5.328  0.2134 -0.2948 -0.9730
  581MOL0     H80121   2.076   9.696   5.341 -1.5065 -2.7195 -0.6999
  581MOL0     H80122   2.084   9.701   5.505  3.7571 -2.6412 -2.7096
  581MOL0     H80123   1.817   9.632   5.387 -1.5374 -2.8090  0.4377
  581MOL0     H80124   1.875   9.581   5.537  0.1639  2.5447  0.2660
  581MOL0     H80125   2.048   9.434   5.399  2.1927  2.9936 -2.1173
  581MOL0     H80126   1.879   9.388   5.413  0.3990  0.9560  2.1415
  581MOL0     H80127   1.739   9.497   5.197  1.0576 -3.9027  1.2154
  581MOL0     H80128   1.800   9.602   4.876  2.6246  0.7344  1.1167
  581MOL0     H80129   1.702   9.458   4.912 -0.2840  0.6371  0.0188
  581MOL0     H80130   1.948   9.345   4.816  1.0119  1.3807  2.6963
  581MOL0     H80131   1.804   9.378   4.712 -0.2944 -0.6829  1.2538
  581MOL0     H80132   1.914   9.605   4.671  2.9717  1.8618 -0.5346
  581MOL0     H80133   2.052   9.538   4.766 -0.4581 -0.8684  1.0769
  581MOL0     H80134   1.922   9.411   4.522 -0.4002  0.3201 -0.2092
  581MOL0     H80135   2.080   9.504   4.511  1.2311 -0.2487  1.6569
  581MOL0     H80136   2.185   9.098   4.556 -0.0932  1.1340 -2.9622
  581MOL0     H80137   2.392   8.966   4.472  0.2171 -0.7003  0.1559
  581MOL0     H80138   2.381   8.935   4.647  0.3602  0.8191  0.9445
  581MOL0     H80139   2.537   8.981   4.560 -0.4014  0.3816 -1.3643
  581MOL0     H80140   2.879   9.236   4.774  1.0883  1.9032  1.9397
  581MOL0     H80141   3.128   9.273   4.763 -1.4364 -0.5440  0.5786
  581MOL0     H80142   3.269   9.438   4.758  2.5736  2.2799  0.7309
  581MOL0     H80143   3.368   9.296   4.707 -2.3446 -0.1723  1.2826
  581MOL0     H80144   3.468   9.486   4.525 -4.1119  1.4829 -2.2363
  581MOL0     H80145   3.389   9.584   4.644 -0.9923 -1.5300  1.0676
  581MOL0     H80146   3.640   9.428   4.642 -1.1538 -1.4419 -0.8641
  581MOL0     H80147   3.560   9.431   4.808 -0.8758 -1.5378 -0.9114
  581MOL0     H80148   3.583   9.659   4.815  0.3965  1.5783 -0.9820
  581MOL0     H80149   3.625   9.663   4.647  0.3956 -3.0642 -1.6859
  581MOL0     H80150   3.794   9.515   4.855  0.3533 -1.1843 -2.2644
  581MOL0     H80151   3.831   9.542   4.691 -0.6809  1.0856 -0.7775
  581MOL0     H80152   3.811   9.789   4.727 -3.8062 -1.5333  1.6907
  581MOL0     H80153   3.966   9.708   4.792  0.3497 -3.8283  2.1545
  581MOL0     H80154   3.861   9.698   5.013 -0.3496  0.1085 -0.4751
  581MOL0     H80155   3.731   9.807   4.962  1.2365  1.8260 -2.1107
  581MOL0     H80156   3.893   9.918   5.081  2.1490 -1.5848  1.6895
  581MOL0     H80157   3.905   9.983   4.910  1.9106  1.6235  0.6921
  581MOL0     H80158   3.097   9.412   4.356  2.3074 -0.0752  1.0795
  581MOL0     H80159   2.847   9.367   4.366  4.0440  0.4849 -1.8367
  581MOL0     H80160   2.508   9.441   4.684 -2.7650  2.2284 -0.6180
  581MOL0     H80161   2.263   9.499   4.662  3.2027  1.2101  0.1841
  581MOL0     H80162   2.223  10.057   6.003 -0.2750  1.4485  0.4218
  581MOL0     H80163   2.363  10.014   6.198 -0.8883 -1.3176  2.1245
  581MOL0     H80164   2.069   9.852   6.687 -0.4649  0.9538 -0.4582
  581MOL0     H80165   2.111   9.772   6.922  1.0273  1.3792  1.5461
  581MOL0     H80166   2.547   9.743   7.070  1.2349 -0.6083  1.6379
  581MOL0     H80167   2.463   9.716   7.214  3.6900  0.2077 -0.1659
  581MOL0     H80168   2.525   9.487   7.128  0.3667 -0.9357 -0.5625
  581MOL0     H80169   2.446   9.516   6.974 -2.8672  1.5033 -1.1270
  581MOL0     H80170   2.305   9.524   7.245  2.9646 -2.6421  0.9073
  581MOL0     H80171   2.229   9.529   7.077 -1.1386 -1.3787 -0.2507
  581MOL0     H80172   2.204   9.306   7.185 -0.7951 -1.0896 -1.7375
  581MOL0     H80173   2.377   9.279   7.178 -0.6600 -1.4452 -1.0342
  581MOL0     H80174   2.173   9.263   6.790  0.7081  0.4526 -0.5514
  581MOL0     H80175   2.537   9.825   6.876  1.6578 -1.5831 -1.1316
  581MOL0     H80176   2.621   9.847   6.669  0.3337  1.1964  0.9546
  581MOL0     H80177   2.534   9.855   6.519  2.5301  0.7011  0.0714
  581MOL0     H80178   2.555  10.002   6.609 -0.5721 -0.5379 -1.5208
  582MOL0     O80179   7.216   2.282   8.727  0.4523  0.3578 -1.3179
  582MOL0     C80180   7.267   2.177   8.694  0.3740 -0.0313  0.8821
  582MOL0     O80181   7.199   2.057   8.679  0.4521  0.0031 -0.0679
  582MOL0     C80182   7.069   2.040   8.703  0.3638  0.5366 -1.0635
  582MOL0     C80183   7.030   1.915   8.653  0.2530  0.2312  1.0148
  582MOL0     C80184   6.903   1.859   8.674 -0.2938  0.0676  0.0080
  582MOL0     C80185   6.809   1.935   8.744 -0.4799 -0.0291  0.7415
  582MOL0     O80186   6.679   1.891   8.782  0.2143  0.9106  0.0727
  582MOL0     C80187   6.655   1.761   8.831 -0.4511  0.2229  0.3082
  582MOL0     C80188   6.505   1.733   8.848 -0.5535 -0.4227 -0.0661
  582MOL0     C80189   6.435   1.760   8.983  0.1183 -0.6633 -0.1303
  582MOL0     C80190   6.518   1.699   9.101  0.2303 -0.0177  0.0744
  582MOL0     C80191   6.433   1.664   9.225 -0.0580 -0.5317 -0.1703
  582MOL0     C80192   6.538   1.593   9.328  0.5331 -0.9483 -1.0787
  582MOL0     C80193   6.473   1.517   9.446 -0.3570 -0.0458  0.1284
  582MOL0     C80194   6.570   1.442   9.543  0.1694 -0.7732  0.2858
  582MOL0     N80195   6.636   1.339   9.471 -0.5229 -0.1608  0.4547
  582MOL0     C80196   6.592   1.206   9.459 -0.2797 -0.3400 -0.4990
  582MOL0     C80197   6.684   1.136   9.404 -0.0685  0.0513  0.0070
  582MOL0     C80198   6.677   0.982   9.376 -0.2947 -0.2929 -0.3000
  582MOL0     C80199   6.654   0.900   9.504 -0.5250 -0.3980 -0.8833
  582MOL0     C80200   6.662   0.754   9.466  0.7873  0.0604  0.1976
  582MOL0     C80201   6.634   0.667   9.585  0.1077 -0.3823  1.1433
  582MOL0     O80202   6.723   0.688   9.695 -0.0778 -0.8572  0.1363
  582MOL0     C80203   6.812   0.592   9.743 -0.5228  0.2607  0.1149
  582MOL0     C80204   6.892   0.530   9.645 -0.1334 -0.1705 -0.6349
  582MOL0     C80205   6.977   0.426   9.682  0.5298 -0.1314 -0.5282
  582MOL0     C80206   7.038   0.356   9.567 -0.4015  0.1833 -0.0602
  582MOL0     C80207   6.993   0.403   9.818 -0.1752 -0.2251  0.4168
  582MOL0     C80208   7.095   0.310   9.870  0.3604  0.4147 -0.6034
  582MOL0     O80209   7.181   0.245   9.781 -0.1321  0.3390  0.1272
  582MOL0     C80210   7.284   0.176   9.836 -0.3552  0.2099  0.1889
  582MOL0     C80211   7.305   0.045   9.784  0.4661 -0.1857 -0.7630
  582MOL0     C80212   7.420  -0.033   9.824 -0.4866 -0.9766  1.0056
  582MOL0     C80213   7.510   0.028   9.911 -0.6996  0.2786 -0.4956
  582MOL0     O80214   7.616  -0.042   9.959 -0.3470 -0.4595 -0.6676
  582MOL0     C80215   7.752  -0.001   9.933 -0.1697 -0.8503 -0.4957
  582MOL0     C80216   7.848  -0.102   9.879 -0.2661  0.2724 -0.6017
  582MOL0     C80217   7.893  -0.207   9.985  0.3046 -0.0590  0.0970
  582MOL0     C80218   8.007  -0.293   9.937 -0.0044  0.4409  0.1352
  582MOL0     C80219   8.037  -0.410  10.035 -0.3820 -0.4347 -0.0187
  582MOL0     C80220   8.095  -0.359  10.172  0.9990 -0.6120  0.5630
  582MOL0     C80221   8.140  -0.474  10.257  0.0069  1.2683 -0.1177
  582MOL0     C80222   8.255  -0.568  10.191 -1.1415 -0.4473 -0.0107
  582MOL0    Cl80223   8.397  -0.465  10.161 -0.2959  0.0261  0.1717
  582MOL0     C80224   7.486   0.160   9.960  0.2110  1.1489  0.3224
  582MOL0     C80225   7.373   0.235   9.928 -0.4962  0.2234  0.3324
  582MOL0     O80226   7.102   0.291   9.989  0.7449  0.8458 -0.6175
  582MOL0     C80227   6.922   0.474   9.913  0.4076 -0.4934 -0.1527
  582MOL0     C80228   6.819   0.567   9.879 -0.3941 -1.2838  1.6622
  582MOL0     N80229   6.795   1.220   9.404  0.0570 -0.3867 -0.1065
  582MOL0     N80230   6.766   1.349   9.426  0.9185 -0.3418 -0.2419
  582MOL0     C80231   6.849   2.057   8.798 -0.3945 -0.2053 -0.3274
  582MOL0     C80232   6.974   2.112   8.773  0.0859  0.1084  0.3628
  582MOL0     C80233   7.410   2.183   8.661 -0.6902  0.0069 -0.8633
  582MOL0     C80234   7.443   2.134   8.537 -0.0397 -0.0899  0.8863
  582MOL0     C80235   7.578   2.141   8.509  0.0249  0.2796  0.2362
  582MOL0     C80236   7.672   2.214   8.578  0.1332 -0.1382 -0.2700
  582MOL0     O80237   7.799   2.224   8.533  0.0667 -0.0500  0.2456
  582MOL0     C80238   7.829   2.351   8.490 -0.0176  0.0512 -0.4557
  582MOL0     C80239   7.977   2.357   8.464 -0.4668  0.6254  0.2051
  582MOL0     C80240   8.069   2.341   8.579 -0.5876 -0.3619 -0.3650
  582MOL0     C80241   8.038   2.438   8.694 -0.7089 -0.0393 -0.2288
  582MOL0     C80242   8.062   2.577   8.659 -0.4491  0.6211 -1.2084
  582MOL0     C80243   8.110   2.687   8.636 -0.1958 -0.7634 -0.1280
  582MOL0     C80244   7.634   2.261   8.701 -0.0543 -0.2734  0.8983
  582MOL0     C80245   7.503   2.241   8.748 -0.2230 -0.2581  0.5952
  582MOL0     C80246   7.480   2.311   8.885 -0.4127  0.3164  0.6939
  582MOL0     H80247   7.109   1.851   8.614 -0.5652  0.0391 -0.3774
  582MOL0     H80248   6.877   1.762   8.634 -1.6335  0.6563 -0.5925
  582MOL0     H80249   6.708   1.731   8.922  0.2031  1.2925  0.2853
  582MOL0     H80250   6.696   1.700   8.750 -1.1676  0.7142 -0.4408
  582MOL0     H80251   6.455   1.791   8.769  1.2198  1.2176 -0.0619
  582MOL0     H80252   6.479   1.630   8.823  1.0615 -0.6841 -0.7546
  582MOL0     H80253   6.425   1.868   8.989  1.6149 -0.3142 -2.4787
  582MOL0     H80254   6.334   1.717   8.985  0.7063 -2.1175 -0.2805
  582MOL0     H80255   6.566   1.609   9.061 -2.7522 -1.4914 -0.4805
  582MOL0     H80256   6.603   1.759   9.135  0.8891  0.0959 -1.6730
  582MOL0     H80257   6.357   1.598   9.183  0.8516  0.5633 -3.8978
  582MOL0     H80258   6.380   1.742   9.279  0.9489 -1.9993  3.1904
  582MOL0     H80259   6.602   1.520   9.278  0.6423 -3.3728  2.2519
  582MOL0     H80260   6.603   1.671   9.368 -0.6759 -0.4526  0.0145
  582MOL0     H80261   6.397   1.444   9.413 -2.5207  1.3693  1.6963
  582MOL0     H80262   6.427   1.598   9.503  0.9258  1.6758 -1.1980
  582MOL0     H80263   6.642   1.514   9.583  1.3992 -0.7922 -1.7346
  582MOL0     H80264   6.512   1.393   9.622  0.4619 -0.7761  0.5019
  582MOL0     H80265   6.489   1.180   9.482  0.1787  0.5711  3.3471
  582MOL0     H80266   6.778   0.964   9.339  0.3953  1.5916  0.5271
  582MOL0     H80267   6.610   0.961   9.293  0.8897 -2.3246 -0.8193
  582MOL0     H80268   6.720   0.930   9.586 -1.2454  4.0036 -1.6597
  582MOL0     H80269   6.551   0.925   9.533 -0.4128  1.6354 -1.9925
  582MOL0     H80270   6.589   0.742   9.386 -0.8606  4.2083  0.8468
  582MOL0     H80271   6.764   0.737   9.431  0.6459  3.2713 -2.1336
  582MOL0     H80272   6.530   0.692   9.606  1.1786  5.2300  1.2911
  582MOL0     H80273   6.644   0.564   9.547  2.0872 -0.5727  2.0279
  582MOL0     H80274   6.893   0.564   9.542  0.8246  0.3346 -0.4742
  582MOL0     H80275   7.143   0.384   9.559  0.9484 -4.1725 -0.1436
  582MOL0     H80276   6.981   0.372   9.475  0.0845 -2.0003 -0.7822
  582MOL0     H80277   7.034   0.250   9.592 -1.3043 -0.2297 -1.8223
  582MOL0     H80278   7.243  -0.018   9.720  1.5194  0.0997 -2.1122
  582MOL0     H80279   7.439  -0.137   9.800  1.4432 -0.0370 -2.1184
  582MOL0     H80280   7.752   0.078   9.857  0.0582  0.1259  0.4917
  582MOL0     H80281   7.806   0.045  10.016  2.5088 -1.7320 -1.6298
  582MOL0     H80282   7.805  -0.147   9.789 -0.1532  2.9553 -2.1091
  582MOL0     H80283   7.937  -0.050   9.845  1.4960 -1.4022  1.1897
  582MOL0     H80284   7.815  -0.282  10.003  0.8251 -0.3347  1.3471
  582MOL0     H80285   7.924  -0.158  10.078  0.0943  0.0779  0.0975
  582MOL0     H80286   8.103  -0.240   9.939  1.9547 -2.8322 -0.3682
  582MOL0     H80287   7.976  -0.338   9.843  1.5346  1.1465 -0.7422
  582MOL0     H80288   7.954  -0.480  10.044  1.5675 -4.2176 -5.9657
  582MOL0     H80289   8.112  -0.468   9.982 -1.2483 -1.3566 -0.2794
  582MOL0     H80290   8.021  -0.300  10.227  0.7057 -1.4514  1.0854
  582MOL0     H80291   8.179  -0.290  10.157  0.9376 -0.7655 -0.5996
  582MOL0     H80292   8.055  -0.542  10.268  1.7875 -0.6707  3.1650
  582MOL0     H80293   8.170  -0.454  10.360 -0.2637 -0.9902  0.4499
  582MOL0     H80294   8.231  -0.611  10.093 -1.4421 -0.4532  0.0643
  582MOL0     H80295   8.285  -0.645  10.263  3.2139  0.3597 -0.7116
  582MOL0     H80296   7.557   0.213  10.023  2.6303 -0.8945 -0.5189
  582MOL0     H80297   7.343   0.333   9.964  0.9704  0.5073  0.8319
  582MOL0     H80298   6.947   0.453  10.017  1.6758 -4.1134 -1.0402
  582MOL0     H80299   6.765   0.624   9.954  1.4170  0.9597  1.3702
  582MOL0     H80300   6.770   2.102   8.857 -2.1909 -0.8859 -2.1397
  582MOL0     H80301   7.008   2.209   8.808  0.5519 -0.0027  0.2243
  582MOL0     H80302   7.371   2.084   8.473  1.6229  0.5961 -1.7167
  582MOL0     H80303   7.594   2.098   8.410 -1.1664 -0.7213  0.4505
  582MOL0     H80304   7.778   2.358   8.393  2.3637 -0.4349 -1.8323
  582MOL0     H80305   7.796   2.429   8.558  0.2068 -2.6222  2.9572
  582MOL0     H80306   8.000   2.455   8.421  0.4640 -0.6617 -2.4739
  582MOL0     H80307   8.009   2.295   8.380  1.1123  3.8785 -1.8048
  582MOL0     H80308   8.052   2.238   8.611  0.0154 -0.9579 -1.8689
  582MOL0     H80309   8.171   2.356   8.543  0.2677  3.3830  2.7974
  582MOL0     H80310   8.110   2.415   8.773 -0.5828 -0.8633 -0.5717
  582MOL0     H80311   7.934   2.427   8.726 -1.5629 -0.8412 -2.9511
  582MOL0     H80312   8.172   2.772   8.617 -0.7893  0.2833  2.1684
  582MOL0     H80313   7.703   2.325   8.755  0.9627 -2.0363  1.7849
  582MOL0     H80314   7.568   2.307   8.950 -0.4387  2.3074  0.9139
  582MOL0     H80315   7.438   2.410   8.864 -2.0667 -1.1702 -4.4744
  582MOL0     H80316   7.398   2.266   8.941 -0.2435  1.2366  1.7195
  583MOL0     O80317   6.089   9.720   2.887  0.3496 -0.3820 -0.1240
  583MOL0     C80318   6.157   9.817   2.930 -0.5423  0.4944  0.2519
  583MOL0     O80319   6.286   9.804   2.972  0.3397 -0.9367 -0.5450
  583MOL0     C80320   6.336   9.689   3.012  1.0466  0.0613 -0.1109
  583MOL0     C80321   6.389   9.674   3.148 -1.1731  0.5969  0.5560
  583MOL0     C80322   6.446   9.551   3.171  0.7628  0.7980  0.1341
  583MOL0     C80323   6.470   9.456   3.073  0.7181 -0.5729 -0.3663
  583MOL0     O80324   6.538   9.338   3.092  0.3623  0.5076  0.4047
  583MOL0     C80325   6.622   9.310   3.208  0.1043  0.0146  0.2446
  583MOL0     C80326   6.757   9.393   3.195 -0.2894 -0.2331  0.4693
  583MOL0     C80327   6.849   9.394   3.313 -0.5314 -0.9162  0.3129
  583MOL0     C80328   6.907   9.251   3.350  0.7221 -0.4120  0.7770
  583MOL0     C80329   6.978   9.272   3.481 -0.1041  0.0069  0.3085
  583MOL0     C80330   6.995   9.128   3.531  0.1615  0.4531  0.0933
  583MOL0     C80331   7.063   9.102   3.666  0.2614  0.2311 -0.9536
  583MOL0     C80332   7.029   8.966   3.720 -0.0334 -0.3167 -0.0774
  583MOL0     N80333   7.080   8.957   3.858 -0.0855  0.4754 -0.0630
  583MOL0     C80334   7.022   9.021   3.964 -0.1173 -0.4497 -0.8899
  583MOL0     C80335   7.106   8.997   4.075 -0.6875  0.5521  0.8383
  583MOL0     C80336   7.090   9.061   4.211 -0.2831  0.3376  1.1609
  583MOL0     C80337   7.064   8.969   4.327  0.4856 -0.3555 -0.1179
  583MOL0     C80338   7.083   9.048   4.469  0.4522  0.4845 -1.0516
  583MOL0     C80339   7.051   8.952   4.577 -0.4758  0.1702 -0.7907
  583MOL0     O80340   7.143   8.840   4.586  0.3190  0.2774  0.4732
  583MOL0     C80341   7.125   8.746   4.682 -0.3048  0.2295 -0.0867
  583MOL0     C80342   7.240   8.682   4.727 -0.5498 -0.3847 -0.3801
  583MOL0     C80343   7.230   8.586   4.832 -0.2818 -0.2638  0.5804
  583MOL0     C80344   7.360   8.521   4.875 -0.0800 -0.2121 -0.0585
  583MOL0     C80345   7.101   8.551   4.896 -0.6836  0.1958  0.6309
  583MOL0     C80346   7.079   8.450   5.002 -0.2842 -0.1268  0.0389
  583MOL0     O80347   6.957   8.439   5.051  0.3583 -0.2150 -0.6447
  583MOL0     C80348   6.931   8.380   5.178  0.9587  1.0673  0.6042
  583MOL0     C80349   6.850   8.264   5.183 -0.7848  0.2714  0.6426
  583MOL0     C80350   6.828   8.207   5.308 -0.1822  0.4561  1.0290
  583MOL0     C80351   6.873   8.253   5.429  0.3976 -0.6122  0.7164
  583MOL0     O80352   6.852   8.183   5.544  0.3013  0.0248 -0.0648
  583MOL0     C80353   6.782   8.057   5.561 -0.4143 -0.8464 -0.0669
  583MOL0     C80354   6.732   8.017   5.703 -0.9121  0.1296 -0.3785
  583MOL0     C80355   6.848   8.038   5.793 -0.1483 -0.3070 -0.2175
  583MOL0     C80356   6.954   7.933   5.793 -0.6308 -0.1013  0.9147
  583MOL0     C80357   7.054   7.943   5.907  0.3592  0.2336 -0.0871
  583MOL0     C80358   7.161   7.834   5.896 -0.5747  0.0835 -1.3688
  583MOL0     C80359   7.279   7.835   5.996 -0.8353  0.5147 -0.1607
  583MOL0     C80360   7.223   7.800   6.135 -0.6658 -0.1992  0.2678
  583MOL0    Cl80361   7.175   7.630   6.167 -0.2111 -0.0401  0.0128
  583MOL0     C80362   6.944   8.375   5.423  0.1507  1.0090 -0.2374
  583MOL0     C80363   6.979   8.430   5.302  0.9536 -0.3475 -0.2041
  583MOL0     O80364   7.163   8.368   5.023  0.5186 -0.0998  0.6602
  583MOL0     C80365   6.990   8.627   4.859  0.5993  0.3660 -0.2417
  583MOL0     C80366   7.005   8.722   4.748 -0.2731  0.2956  0.4907
  583MOL0     N80367   7.202   8.898   4.032  1.4378  0.7525  0.3414
  583MOL0     N80368   7.187   8.890   3.902 -0.1733  0.1710 -0.1395
  583MOL0     C80369   6.420   9.473   2.943  0.1636 -0.6106  1.1930
  583MOL0     C80370   6.346   9.584   2.907 -0.0212  0.3059 -0.7741
  583MOL0     C80371   6.114   9.954   2.956  0.8184  0.2373 -0.4840
  583MOL0     C80372   6.186  10.049   3.025 -0.7784 -0.0921  0.0445
  583MOL0     C80373   6.144  10.174   3.056  0.6391  1.2485 -0.1764
  583MOL0     C80374   6.019  10.218   3.000  0.4325 -0.3080  1.2845
  583MOL0     O80375   5.968  10.342   3.036  0.3691 -0.5601 -0.1759
  583MOL0     C80376   6.045  10.453   2.976 -0.0832 -0.8142 -0.1671
  583MOL0     C80377   5.963  10.590   2.985 -0.0372 -0.6574 -0.4405
  583MOL0     C80378   5.915  10.622   3.119 -0.4144 -0.1439 -0.6102
  583MOL0     C80379   5.799  10.722   3.128 -0.2522 -0.3827  0.3548
  583MOL0     C80380   5.666  10.681   3.081  0.5043  0.9195 -1.0053
  583MOL0     C80381   5.553  10.649   3.067  0.7141  0.7579  0.7974
  583MOL0     C80382   5.947  10.130   2.924  1.3924 -0.3614 -0.0714
  583MOL0     C80383   5.989   9.999   2.905  0.3824  0.0615 -0.4980
  583MOL0     C80384   5.893   9.910   2.825 -0.7426 -0.5335 -0.0276
  583MOL0     H80385   6.387   9.755   3.221  2.2654  1.9292 -0.6268
  583MOL0     H80386   6.497   9.522   3.262  1.3770 -1.6366 -0.9005
  583MOL0     H80387   6.645   9.203   3.209 -2.1606 -0.5115  1.4339
  583MOL0     H80388   6.587   9.339   3.307  3.1508  2.0286  0.8774
  583MOL0     H80389   6.831   9.366   3.119  0.0532 -0.4168  0.8654
  583MOL0     H80390   6.724   9.493   3.168 -0.8651 -0.5995 -0.2308
  583MOL0     H80391   6.933   9.463   3.304 -0.9320 -0.5657 -0.8632
  583MOL0     H80392   6.792   9.433   3.398 -0.3210 -2.4632  1.2234
  583MOL0     H80393   6.830   9.173   3.344 -1.9307  2.0471  0.6902
  583MOL0     H80394   6.978   9.234   3.268  0.2951  3.4707 -0.5945
  583MOL0     H80395   6.914   9.333   3.546  0.4124  0.6802  0.1976
  583MOL0     H80396   7.079   9.313   3.474  0.2062 -0.9785 -1.6806
  583MOL0     H80397   6.902   9.072   3.521 -1.7864  3.4827 -0.0788
  583MOL0     H80398   7.072   9.085   3.467  3.0075 -0.0062  3.4821
  583MOL0     H80399   7.017   9.171   3.737 -0.7203 -1.8024  0.4909
  583MOL0     H80400   7.171   9.120   3.657  0.1684  0.4449 -1.6999
  583MOL0     H80401   6.921   8.948   3.711 -0.2841  0.4374  1.2269
  583MOL0     H80402   7.084   8.892   3.661 -2.8272 -2.2221 -0.4762
  583MOL0     H80403   6.938   9.090   3.962  0.5949  0.5511  1.0632
  583MOL0     H80404   6.999   9.122   4.204 -1.7901 -1.7898  1.0884
  583MOL0     H80405   7.185   9.110   4.231  0.2823  0.0525 -0.6289
  583MOL0     H80406   6.966   8.920   4.329 -0.1331  0.7667 -1.3204
  583MOL0     H80407   7.130   8.884   4.311 -0.1001 -0.3542 -2.9002
  583MOL0     H80408   7.187   9.079   4.477  1.1358 -1.9442  0.7355
  583MOL0     H80409   7.023   9.138   4.482  0.0137 -0.1270  1.8686
  583MOL0     H80410   7.059   9.001   4.675 -0.3914 -0.5151 -0.4475
  583MOL0     H80411   6.945   8.927   4.567 -2.1241  5.4263  0.5312
  583MOL0     H80412   7.339   8.703   4.688 -0.8253 -0.1563 -0.9629
  583MOL0     H80413   7.362   8.511   4.984 -1.0650 -2.2698 -0.1884
  583MOL0     H80414   7.448   8.559   4.821  0.3703 -1.9201 -0.5838
  583MOL0     H80415   7.348   8.419   4.837  0.3519  0.7125 -2.9602
  583MOL0     H80416   6.815   8.227   5.087 -1.2368  2.4136 -0.0609
  583MOL0     H80417   6.776   8.111   5.305  0.7930 -0.0545 -0.1074
  583MOL0     H80418   6.689   8.054   5.503 -1.2973 -0.3951  1.2752
  583MOL0     H80419   6.841   7.975   5.518  0.5363  1.8040 -4.4689
  583MOL0     H80420   6.656   8.090   5.733  2.1709  2.8112  1.5637
  583MOL0     H80421   6.700   7.913   5.715  1.3134 -0.5576  0.0883
  583MOL0     H80422   6.812   8.037   5.897 -0.0353 -0.5763 -0.1806
  583MOL0     H80423   6.899   8.134   5.781  1.2615 -1.0674 -0.4739
  583MOL0     H80424   7.011   7.937   5.699 -0.9347 -5.1914  0.2427
  583MOL0     H80425   6.912   7.833   5.796  0.4667 -0.7957 -2.2946
  583MOL0     H80426   7.104   8.040   5.923 -0.3320  0.7610 -0.9907
  583MOL0     H80427   6.999   7.932   6.000  0.7022  1.6107  0.3081
  583MOL0     H80428   7.206   7.839   5.796 -0.1248  2.7024 -1.0975
  583MOL0     H80429   7.126   7.731   5.912  2.0375 -0.6650  0.1036
  583MOL0     H80430   7.326   7.933   5.999  0.5921 -0.1604  1.4987
  583MOL0     H80431   7.358   7.766   5.963  0.3701  1.8357 -0.1170
  583MOL0     H80432   7.133   7.859   6.152 -1.9876 -2.4003  1.3910
  583MOL0     H80433   7.297   7.827   6.211 -0.8007  0.1372  0.2782
  583MOL0     H80434   6.988   8.408   5.517  2.0858 -0.6660 -0.4842
  583MOL0     H80435   7.027   8.527   5.301  0.9098 -0.3202 -1.1068
  583MOL0     H80436   6.888   8.622   4.897  0.0509  1.6660 -1.4270
  583MOL0     H80437   6.928   8.794   4.722 -1.2282 -1.0403 -0.5245
  583MOL0     H80438   6.453   9.400   2.870 -3.0669 -0.8175 -0.2144
  583MOL0     H80439   6.306   9.606   2.808  2.2855  1.9576 -1.4250
  583MOL0     H80440   6.279  10.023   3.076 -1.3730 -1.1417  0.6428
  583MOL0     H80441   6.204  10.242   3.116 -0.7512  2.1767  0.2157
  583MOL0     H80442   6.145  10.460   3.022 -0.4165 -3.3153  1.0872
  583MOL0     H80443   6.052  10.431   2.870  1.8120 -0.2718 -0.1953
  583MOL0     H80444   5.881  10.577   2.913 -1.7507  0.9158  1.1259
  583MOL0     H80445   6.018  10.674   2.943  0.8322 -0.9855  0.0375
  583MOL0     H80446   5.889  10.532   3.175  1.6991 -1.2775 -1.3401
  583MOL0     H80447   6.005  10.662   3.165  1.1613 -3.2542 -0.7381
  583MOL0     H80448   5.825  10.812   3.071 -0.6519 -1.0520 -0.9252
  583MOL0     H80449   5.794  10.748   3.234  1.8441 -1.7520  0.8536
  583MOL0     H80450   5.457  10.609   3.042  1.6458 -0.7811 -0.5084
  583MOL0     H80451   5.847  10.166   2.900  1.6454  1.5861  1.5045
  583MOL0     H80452   5.950   9.894   2.733 -0.5211 -3.0492  0.4790
  583MOL0     H80453   5.869   9.807   2.855 -0.0976 -0.7862 -0.3512
  583MOL0     H80454   5.798   9.962   2.811 -1.1355 -0.8097  1.4666
  584MOL0     O80455   3.494   0.803   9.320  0.4741 -0.0724 -0.7776
  584MOL0     C80456   3.523   0.918   9.288 -0.0221  0.9520  0.4822
  584MOL0     O80457   3.641   0.949   9.231 -0.2812 -0.5664  0.2208
  584MOL0     C80458   3.733   0.856   9.202 -0.4131  0.2239  0.3459
  584MOL0     C80459   3.827   0.824   9.301 -0.6290 -1.3658 -0.7523
  584MOL0     C80460   3.936   0.737   9.275 -0.2887 -0.0173  0.1955
  584MOL0     C80461   3.942   0.673   9.150 -0.2353  0.3075 -0.7736
  584MOL0     O80462   4.042   0.583   9.128 -0.7952 -0.5053 -0.2469
  584MOL0     C80463   4.005   0.447   9.125 -1.0230 -0.3803  0.8306
  584MOL0     C80464   3.947   0.396   9.257 -0.0134 -0.4905  0.5868
  584MOL0     C80465   3.882   0.258   9.241  0.7221  0.4968 -0.3284
  584MOL0     C80466   3.979   0.139   9.243  0.1331  0.1802  0.3529
  584MOL0     C80467   4.017   0.095   9.393  0.9094 -0.0183 -0.2770
  584MOL0     C80468   3.905   0.008   9.472  0.1981  0.2499 -0.7672
  584MOL0     C80469   3.950  -0.030   9.606 -0.2479 -0.5859  0.0143
  584MOL0     C80470   3.925   0.075   9.718 -0.1148 -0.8660 -0.1646
  584MOL0     N80471   3.781   0.114   9.728  1.0494  0.3783 -0.3031
  584MOL0     C80472   3.734   0.233   9.686 -1.6818 -0.0194  0.0101
  584MOL0     C80473   3.602   0.220   9.708 -0.6166 -0.6240 -0.8529
  584MOL0     C80474   3.514   0.336   9.678 -0.5833  1.3394  0.8054
  584MOL0     C80475   3.424   0.313   9.543  0.0278  0.5452 -0.0748
  584MOL0     C80476   3.499   0.320   9.404  0.2880  0.0725 -0.1532
  584MOL0     C80477   3.539   0.461   9.350  0.2374  0.1569  0.5799
  584MOL0     O80478   3.575   0.450   9.214  0.6484 -0.1297  0.2377
  584MOL0     C80479   3.472   0.470   9.123 -0.4886 -0.0170 -1.0187
  584MOL0     C80480   3.495   0.387   9.011  0.4913 -0.4027 -0.6050
  584MOL0     C80481   3.423   0.395   8.892  0.3261  0.3417  0.1781
  584MOL0     C80482   3.475   0.335   8.761  1.7467  0.0631  0.4217
  584MOL0     C80483   3.304   0.473   8.895 -0.9028 -0.7975  0.2973
  584MOL0     C80484   3.201   0.485   8.786  0.3377 -0.9181  0.4871
  584MOL0     O80485   3.116   0.595   8.783  0.2036 -0.5340 -0.0719
  584MOL0     C80486   3.010   0.584   8.692 -0.5579 -0.4154  0.1928
  584MOL0     C80487   2.899   0.497   8.701  0.5107  0.1016  1.2369
  584MOL0     C80488   2.797   0.516   8.598 -0.4500 -0.1297 -0.4401
  584MOL0     C80489   2.800   0.605   8.493 -0.4865 -0.5784 -0.1579
  584MOL0     O80490   2.698   0.604   8.400  0.8404 -0.2950 -0.2148
  584MOL0     C80491   2.710   0.706   8.296  0.2519  0.0974 -0.8485
  584MOL0     C80492   2.577   0.733   8.241 -0.2738 -0.4223 -0.3475
  584MOL0     C80493   2.568   0.881   8.195  0.0082 -0.1589 -0.7599
  584MOL0     C80494   2.432   0.916   8.127  0.2987  0.1120  0.2775
  584MOL0     C80495   2.440   1.069   8.102 -0.0561 -0.2816  0.3531
  584MOL0     C80496   2.335   1.111   7.999 -0.4943 -0.3999  0.2550
  584MOL0     C80497   2.322   1.264   7.987 -0.0076 -0.1853  0.2680
  584MOL0     C80498   2.447   1.330   7.925  0.0529  1.5172 -0.6768
  584MOL0    Cl80499   2.463   1.253   7.756 -0.2823 -0.4063 -0.3822
  584MOL0     C80500   2.908   0.699   8.493 -0.3178 -0.5140 -0.4281
  584MOL0     C80501   3.017   0.682   8.591 -0.2520  0.8999  0.2108
  584MOL0     O80502   3.186   0.387   8.704 -0.5897 -0.1354 -0.2423
  584MOL0     C80503   3.288   0.557   9.013  0.3196 -0.1259 -0.2105
  584MOL0     C80504   3.365   0.559   9.129  1.2168  1.0252 -0.2735
  584MOL0     N80505   3.564   0.092   9.752 -0.1784 -0.6926  0.3246
  584MOL0     N80506   3.673   0.031   9.760  0.3299  0.6877 -0.3791
  584MOL0     C80507   3.835   0.697   9.058 -0.1055  1.2959 -0.4388
  584MOL0     C80508   3.728   0.781   9.087 -0.1012  0.2053 -0.2501
  584MOL0     C80509   3.430   1.024   9.327 -0.4209 -0.0019 -0.3757
  584MOL0     C80510   3.490   1.138   9.384 -0.1634 -0.6352 -0.4300
  584MOL0     C80511   3.416   1.242   9.440  0.0387  0.1306  0.6433
  584MOL0     C80512   3.277   1.227   9.446  0.0027 -0.6863 -0.5329
  584MOL0     O80513   3.199   1.321   9.508  0.3521  0.0159 -0.4904
  584MOL0     C80514   3.231   1.343   9.644  0.1143 -0.5028  0.0945
  584MOL0     C80515   3.114   1.401   9.717 -0.0030  0.0471 -0.1859
  584MOL0     C80516   3.069   1.538   9.669  0.4152 -0.3586  0.3855
  584MOL0     C80517   2.950   1.592   9.750  0.3039  1.1852 -0.6135
  584MOL0     C80518   2.828   1.513   9.729 -0.1430 -0.0968 -0.5955
  584MOL0     C80519   2.731   1.449   9.692 -0.0232  0.2448  0.4295
  584MOL0     C80520   3.214   1.118   9.378  0.1348  0.2737 -0.2936
  584MOL0     C80521   3.288   1.015   9.316  0.4219 -0.1161 -0.0902
  584MOL0     C80522   3.223   0.907   9.237  0.9244 -0.8835  0.6210
  584MOL0     H80523   3.826   0.867   9.401  1.6077 -1.7698 -0.5020
  584MOL0     H80524   4.011   0.711   9.348  0.4993 -1.0816 -0.9444
  584MOL0     H80525   4.085   0.382   9.089  0.0824  0.2959  1.9904
  584MOL0     H80526   3.928   0.433   9.049  0.2328 -0.3965 -0.4716
  584MOL0     H80527   4.029   0.385   9.330  0.6958 -0.4196 -0.1816
  584MOL0     H80528   3.878   0.466   9.304 -2.1398 -1.2380 -1.2754
  584MOL0     H80529   3.818   0.246   9.329 -1.4641  0.2234 -1.8711
  584MOL0     H80530   3.819   0.251   9.151 -3.1026 -0.5114  2.1714
  584MOL0     H80531   3.938   0.049   9.198 -0.7310  1.2123 -1.0196
  584MOL0     H80532   4.063   0.172   9.181 -0.8277  2.7915  0.2801
  584MOL0     H80533   4.037   0.185   9.452 -0.6105 -0.3401  0.7903
  584MOL0     H80534   4.109   0.036   9.403  1.3851 -0.1493 -4.1250
  584MOL0     H80535   3.823   0.078   9.487 -0.5170 -1.2221  3.8086
  584MOL0     H80536   3.871  -0.079   9.416  0.7839  1.3579 -2.9342
  584MOL0     H80537   4.055  -0.062   9.613 -0.5367 -1.1672  3.5176
  584MOL0     H80538   3.893  -0.119   9.631 -1.6061  0.0860 -0.6118
  584MOL0     H80539   3.946   0.029   9.815 -0.1208  0.0924  0.3018
  584MOL0     H80540   3.993   0.159   9.704 -2.9029  1.3221 -1.7209
  584MOL0     H80541   3.800   0.310   9.647  3.3481 -3.3513  0.9611
  584MOL0     H80542   3.554   0.437   9.665 -1.3794  1.5574 -0.1495
  584MOL0     H80543   3.445   0.341   9.763 -0.8689  0.3040  0.6391
  584MOL0     H80544   3.386   0.211   9.549  0.1598  0.5937  2.8457
  584MOL0     H80545   3.339   0.382   9.551 -0.6215 -0.2973  0.4769
  584MOL0     H80546   3.586   0.254   9.408  0.2924  0.1339  2.3447
  584MOL0     H80547   3.433   0.287   9.323 -1.1745  3.9290 -0.7052
  584MOL0     H80548   3.457   0.533   9.360  1.6340  2.2845 -2.0773
  584MOL0     H80549   3.618   0.497   9.416 -1.3234  0.8147  2.1727
  584MOL0     H80550   3.579   0.323   8.989 -0.2480 -1.2053 -1.1530
  584MOL0     H80551   3.423   0.241   8.735  1.1028 -0.2432  2.5976
  584MOL0     H80552   3.582   0.317   8.766  2.3467  2.9193 -0.5673
  584MOL0     H80553   3.465   0.403   8.676 -1.4956 -3.2534 -2.2276
  584MOL0     H80554   2.888   0.428   8.784 -1.5948 -1.5389 -0.3068
  584MOL0     H80555   2.703   0.464   8.613 -1.1906  1.9159  3.4468
  584MOL0     H80556   2.728   0.805   8.339 -0.8452 -0.0794  0.0450
  584MOL0     H80557   2.780   0.687   8.214 -0.2041  0.7914 -1.4158
  584MOL0     H80558   2.552   0.671   8.154 -1.0632  0.7663 -1.0028
  584MOL0     H80559   2.502   0.722   8.320 -0.0055  1.6555  0.2570
  584MOL0     H80560   2.652   0.870   8.126  1.5764 -1.2586  1.2149
  584MOL0     H80561   2.591   0.952   8.274  0.1272 -0.0567 -0.8856
  584MOL0     H80562   2.343   0.894   8.187 -0.9043 -1.1000 -1.8529
  584MOL0     H80563   2.424   0.860   8.034 -1.5785 -0.3238  0.6632
  584MOL0     H80564   2.419   1.125   8.193  0.6549  0.3492  0.1394
  584MOL0     H80565   2.541   1.096   8.069  0.8865 -0.9559  2.4829
  584MOL0     H80566   2.242   1.056   8.020 -0.7034 -0.7964 -1.5333
  584MOL0     H80567   2.361   1.070   7.901  1.1450 -2.2699  1.3968
  584MOL0     H80568   2.320   1.289   8.093 -0.5839  1.9617 -0.1880
  584MOL0     H80569   2.234   1.297   7.930  0.3165 -0.6031 -0.4944
  584MOL0     H80570   2.542   1.320   7.980 -1.2591  3.0062  2.0716
  584MOL0     H80571   2.439   1.438   7.913 -0.8010  1.2291 -3.1578
  584MOL0     H80572   2.932   0.774   8.418 -0.6292  1.5761  1.4562
  584MOL0     H80573   3.099   0.753   8.586 -1.5589  2.4272 -0.1198
  584MOL0     H80574   3.203   0.625   9.014  0.7849  0.4664  0.9956
  584MOL0     H80575   3.358   0.627   9.213  2.4782 -0.7695  1.3655
  584MOL0     H80576   3.848   0.637   8.969  3.8225  0.4860  0.4591
  584MOL0     H80577   3.646   0.799   9.019  0.0553  1.6512 -0.0907
  584MOL0     H80578   3.598   1.149   9.387 -0.2159  0.0319 -0.7136
  584MOL0     H80579   3.470   1.331   9.469  0.9743  0.4831 -1.8714
  584MOL0     H80580   3.246   1.244   9.688 -2.2843 -1.1982 -0.5384
  584MOL0     H80581   3.325   1.399   9.656 -0.3496  0.4725 -0.6950
  584MOL0     H80582   3.140   1.401   9.823 -0.0548 -0.9570 -0.1657
  584MOL0     H80583   3.036   1.325   9.706  1.8714 -1.9431 -0.1766
  584MOL0     H80584   3.150   1.612   9.678  0.7897 -0.2207 -2.7170
  584MOL0     H80585   3.038   1.547   9.564 -2.5686 -0.1221  1.1993
  584MOL0     H80586   2.932   1.686   9.695 -0.6879  0.7850 -1.0021
  584MOL0     H80587   2.975   1.618   9.853  0.5943  2.1779 -0.9152
  584MOL0     H80588   2.633   1.414   9.667 -0.8163  3.6225 -1.9454
  584MOL0     H80589   3.109   1.117   9.354  0.3040  1.0241 -1.1020
  584MOL0     H80590   3.137   0.861   9.286 -0.3033  0.3969 -0.2561
  584MOL0     H80591   3.196   0.958   9.144 -1.1595  0.5471  1.9180
  584MOL0     H80592   3.295   0.833   9.201  1.6266  0.0608  0.0174
  585MOL0     O80593   3.558  10.208   3.843 -0.6246 -0.7642 -0.9706
  585MOL0     C80594   3.611  10.098   3.853 -0.5981 -0.3097 -0.7580
  585MOL0     O80595   3.561   9.993   3.912  0.3337  0.1946 -0.5766
  585MOL0     C80596   3.472  10.018   4.012  0.6727  0.4551 -0.6912
  585MOL0     C80597   3.341  10.061   3.991  0.5709  0.4030  1.0056
  585MOL0     C80598   3.259  10.084   4.100 -0.6608  0.3529  0.1909
  585MOL0     C80599   3.296  10.048   4.235 -0.5643 -0.4911 -0.5957
  585MOL0     O80600   3.213  10.081   4.340 -0.3062  0.5871  0.5320
  585MOL0     C80601   3.077  10.119   4.315 -0.1864  0.3215 -0.3859
  585MOL0     C80602   3.010  10.156   4.451  0.1564  0.4323 -0.5086
  585MOL0     C80603   3.061  10.280   4.503 -0.7209  0.2543  0.0511
  585MOL0     C80604   3.016  10.301   4.647 -0.8704  0.2837  1.4069
  585MOL0     C80605   3.099  10.403   4.731  1.4548  0.0909 -0.1115
  585MOL0     C80606   3.081  10.385   4.877  0.0912  0.1592  0.2255
  585MOL0     C80607   3.160  10.488   4.966  0.0333  0.0226  0.2034
  585MOL0     C80608   3.184  10.446   5.111  0.0766 -1.2303 -0.0947
  585MOL0     N80609   3.233  10.561   5.193  0.3761  0.6216  0.0504
  585MOL0     C80610   3.370  10.578   5.223  0.7419  0.7069 -0.5955
  585MOL0     C80611   3.373  10.696   5.296  1.0673 -0.1076 -0.4986
  585MOL0     C80612   3.494  10.748   5.354 -0.2582 -0.6187 -0.0537
  585MOL0     C80613   3.601  10.733   5.258 -0.1029  0.0094  0.2306
  585MOL0     C80614   3.717  10.838   5.275 -0.4703  0.3044  0.1688
  585MOL0     C80615   3.777  10.853   5.411 -0.1095 -0.3611 -0.4360
  585MOL0     O80616   3.821  10.718   5.442 -0.3782  0.2630 -0.3819
  585MOL0     C80617   3.949  10.674   5.401 -0.6652 -0.5537 -0.4344
  585MOL0     C80618   3.974  10.532   5.399  1.2223 -1.1549  0.2767
  585MOL0     C80619   4.103  10.477   5.376 -0.0591  0.2802 -0.0243
  585MOL0     C80620   4.108  10.326   5.385  0.4414  0.0935  0.3826
  585MOL0     C80621   4.210  10.568   5.349  0.8849 -0.2533 -0.3975
  585MOL0     C80622   4.349  10.534   5.330 -1.1407  0.3997 -0.2840
  585MOL0     O80623   4.426  10.618   5.258  0.0480  0.3351  0.0208
  585MOL0     C80624   4.565  10.614   5.263  0.8660  0.8802  0.6434
  585MOL0     C80625   4.643  10.654   5.153 -0.1349 -0.3591  0.0529
  585MOL0     C80626   4.784  10.636   5.147  0.0612 -0.0905 -0.5529
  585MOL0     C80627   4.854  10.599   5.266  0.0853  0.0734 -0.0681
  585MOL0     O80628   4.988  10.612   5.274 -0.8335  1.0840 -0.3958
  585MOL0     C80629   5.046  10.569   5.402 -0.6857 -1.0242 -0.1322
  585MOL0     C80630   5.196  10.594   5.399 -0.6724  0.0919 -0.0187
  585MOL0     C80631   5.236  10.738   5.378  0.4363  0.3900  1.3633
  585MOL0     C80632   5.382  10.761   5.388 -0.7995 -0.3814 -0.2434
  585MOL0     C80633   5.420  10.906   5.375 -1.4438  0.0686  1.1022
  585MOL0     C80634   5.581  10.912   5.371  1.0815  0.2854 -0.5342
  585MOL0     C80635   5.654  10.854   5.487  0.2164  0.0487  0.2191
  585MOL0     C80636   5.810  10.830   5.453  0.2379 -0.0972  0.3862
  585MOL0    Cl80637   5.895  10.982   5.406 -0.3219  0.4512 -0.4983
  585MOL0     C80638   4.777  10.555   5.377  0.5402  0.5934 -0.1230
  585MOL0     C80639   4.638  10.570   5.375 -0.5473  0.1135 -0.2338
  585MOL0     O80640   4.396  10.428   5.383  0.0787 -0.0959  0.5380
  585MOL0     C80641   4.190  10.707   5.344  0.1613 -1.1625  0.7753
  585MOL0     C80642   4.063  10.755   5.373  0.6070  0.3514 -0.0272
  585MOL0     N80643   3.251  10.752   5.305  0.6515 -0.2103 -0.4696
  585MOL0     N80644   3.163  10.665   5.246  0.0497  0.3716 -0.3767
  585MOL0     C80645   3.429   9.997   4.252 -0.0806  0.4024  0.1226
  585MOL0     C80646   3.516   9.975   4.138  0.3389  0.5376  0.2629
  585MOL0     C80647   3.741  10.076   3.780  0.3803 -0.2913 -0.7422
  585MOL0     C80648   3.762   9.960   3.707 -1.1253  0.2225  0.8933
  585MOL0     C80649   3.879   9.946   3.633 -1.0863  0.0081  0.2202
  585MOL0     C80650   3.974  10.053   3.628 -0.0314 -0.2937 -0.3908
  585MOL0     O80651   4.099  10.042   3.569  0.3119 -0.2766  0.3478
  585MOL0     C80652   4.100   9.946   3.462  0.0617 -0.7496  0.2169
  585MOL0     C80653   4.235   9.965   3.402 -0.4706  1.6436  0.1693
  585MOL0     C80654   4.240  10.081   3.305  0.9686 -0.2353 -0.9895
  585MOL0     C80655   4.365  10.115   3.231  0.0367 -0.3316 -0.3539
  585MOL0     C80656   4.408  10.004   3.142 -0.9019  0.4357 -0.1554
  585MOL0     C80657   4.419   9.917   3.060 -0.3309  0.0171  0.7208
  585MOL0     C80658   3.955  10.170   3.701 -0.3193 -0.1421 -0.7164
  585MOL0     C80659   3.836  10.186   3.767 -0.6202  0.1470  0.2004
  585MOL0     C80660   3.833  10.321   3.845 -0.2551 -0.1773 -0.0789
  585MOL0     H80661   3.307  10.096   3.894 -0.3464 -2.0583  0.3523
  585MOL0     H80662   3.169  10.143   4.084  0.0456  0.7759 -2.5604
  585MOL0     H80663   3.016  10.036   4.278 -0.2468 -0.6784  1.8231
  585MOL0     H80664   3.069  10.206   4.250 -0.8049  2.1247  1.9791
  585MOL0     H80665   2.903  10.175   4.439  0.3399  1.3780 -0.7749
  585MOL0     H80666   3.025  10.073   4.520 -0.5767  0.5354 -0.2190
  585MOL0     H80667   3.169  10.261   4.507 -1.0756 -1.7218  0.9886
  585MOL0     H80668   3.039  10.370   4.445  0.7084  0.6225  0.0253
  585MOL0     H80669   2.913  10.331   4.627 -0.3995  0.4444 -1.0995
  585MOL0     H80670   3.019  10.202   4.693 -1.2320  0.3115  1.4913
  585MOL0     H80671   3.080  10.502   4.686 -0.1045 -0.6033 -1.0752
  585MOL0     H80672   3.205  10.387   4.709  1.5488  1.2376 -0.5826
  585MOL0     H80673   2.975  10.399   4.899 -0.1174 -0.8342 -0.1281
  585MOL0     H80674   3.105  10.281   4.900  0.1968 -0.2845 -1.7584
  585MOL0     H80675   3.105  10.583   4.965 -1.6695 -0.9102 -1.8037
  585MOL0     H80676   3.257  10.506   4.919  0.7599  2.3181  2.3676
  585MOL0     H80677   3.093  10.399   5.151  0.6100 -0.2021  2.5754
  585MOL0     H80678   3.257  10.365   5.113  1.1487 -0.2938 -0.3996
  585MOL0     H80679   3.458  10.523   5.193  0.3808  0.7572 -1.7977
  585MOL0     H80680   3.528  10.719   5.454 -1.5868  2.0870  1.2834
  585MOL0     H80681   3.476  10.856   5.364  0.1974 -0.7306  2.8770
  585MOL0     H80682   3.634  10.630   5.244 -4.1975 -1.5479  0.7484
  585MOL0     H80683   3.561  10.748   5.157  0.5172 -0.8408 -0.1548
  585MOL0     H80684   3.800  10.820   5.207 -1.4272 -1.4052 -0.6100
  585MOL0     H80685   3.671  10.932   5.245  0.6237  0.8851  0.2775
  585MOL0     H80686   3.856  10.929   5.410 -0.4790  0.0372  0.0147
  585MOL0     H80687   3.697  10.887   5.478 -0.9322 -1.2071 -0.9660
  585MOL0     H80688   3.884  10.475   5.420  0.8781 -0.2084  1.5475
  585MOL0     H80689   4.082  10.306   5.489 -2.5104  1.5174  0.0171
  585MOL0     H80690   4.209  10.289   5.368  1.6767  1.7141  3.4706
  585MOL0     H80691   4.036  10.279   5.317  0.9942  1.7685 -1.4799
  585MOL0     H80692   4.577  10.666   5.067 -0.5178 -0.1137  0.3785
  585MOL0     H80693   4.829  10.675   5.057  2.2685 -1.2980 -0.0518
  585MOL0     H80694   4.996  10.627   5.480 -1.3525  3.4937 -3.5521
  585MOL0     H80695   5.028  10.461   5.404 -1.3017 -1.2241 -5.0555
  585MOL0     H80696   5.245  10.570   5.494  0.7602 -0.4142 -0.8509
  585MOL0     H80697   5.247  10.528   5.328 -1.3485 -0.8743  0.3678
  585MOL0     H80698   5.187  10.802   5.452  2.0496  1.3137  1.6750
  585MOL0     H80699   5.198  10.763   5.278 -0.6377 -1.4562  1.2520
  585MOL0     H80700   5.431  10.698   5.313 -0.4758 -1.5007  0.8828
  585MOL0     H80701   5.405  10.718   5.485 -1.2842 -3.5261 -1.4136
  585MOL0     H80702   5.374  10.958   5.291  2.5470  4.3178  1.1414
  585MOL0     H80703   5.379  10.963   5.459 -0.6937  1.2680  0.6840
  585MOL0     H80704   5.604  11.019   5.360  0.6769  0.6452  1.5950
  585MOL0     H80705   5.613  10.863   5.279 -2.2324 -3.0381 -0.1432
  585MOL0     H80706   5.618  10.756   5.519 -0.0046  0.2171  0.4914
  585MOL0     H80707   5.656  10.927   5.569 -1.2432  1.4385 -0.9388
  585MOL0     H80708   5.816  10.767   5.364  1.3521  0.5454 -0.0168
  585MOL0     H80709   5.866  10.781   5.533  1.9302 -0.3464 -0.9043
  585MOL0     H80710   4.818  10.521   5.472 -0.6727  0.6122  0.4251
  585MOL0     H80711   4.591  10.534   5.466  0.2314 -6.2343 -1.8795
  585MOL0     H80712   4.274  10.773   5.326 -0.6151 -0.6216 -1.1368
  585MOL0     H80713   4.055  10.861   5.395  2.0611  1.1540 -2.8343
  585MOL0     H80714   3.463   9.967   4.351  0.2541  1.8540  0.4644
  585MOL0     H80715   3.606   9.914   4.139 -2.2114 -3.6426  1.8148
  585MOL0     H80716   3.703   9.869   3.706  0.7424 -1.1140  2.7807
  585MOL0     H80717   3.898   9.854   3.578  3.4832 -0.5363  2.1906
  585MOL0     H80718   4.101   9.842   3.497 -0.1463 -0.1506  2.1473
  585MOL0     H80719   4.028   9.959   3.381 -1.2238 -1.6507  1.1582
  585MOL0     H80720   4.254   9.869   3.351 -0.9760  1.5448  0.1617
  585MOL0     H80721   4.303   9.978   3.487 -0.3912 -2.5496  0.9795
  585MOL0     H80722   4.161  10.063   3.231 -1.3997 -0.5160  1.4490
  585MOL0     H80723   4.195  10.169   3.353  2.8554 -0.8932  2.2868
  585MOL0     H80724   4.446  10.139   3.301  0.1268 -0.9309 -0.2503
  585MOL0     H80725   4.344  10.202   3.167 -0.5046  0.1065  0.4084
  585MOL0     H80726   4.434   9.852   2.976  3.5284 -3.1654  3.4874
  585MOL0     H80727   4.036  10.243   3.700 -0.7681  0.3566 -1.3347
  585MOL0     H80728   3.778  10.312   3.939 -1.0634 -0.2086 -0.5485
  585MOL0     H80729   3.937  10.347   3.867  0.2618 -1.5910 -0.7070
  585MOL0     H80730   3.787  10.403   3.789  3.2616  0.1946 -2.8163
  586MOL0     O80731   2.114   6.839   8.519  0.2705 -0.8588 -0.3868
  586MOL0     C80732   2.042   6.775   8.594 -0.4190  0.1502  0.4262
  586MOL0     O80733   2.077   6.657   8.647 -0.2036  0.8741 -0.2898
  586MOL0     C80734   2.196   6.593   8.614 -0.6544  0.4536  0.3184
  586MOL0     C80735   2.323   6.617   8.662 -0.1190 -0.8062 -0.0079
  586MOL0     C80736   2.431   6.545   8.607  0.2390 -0.5438 -0.5197
  586MOL0     C80737   2.417   6.445   8.514  1.0313 -0.2315 -0.8020
  586MOL0     O80738   2.511   6.374   8.452  0.2397  0.1620 -0.2475
  586MOL0     C80739   2.644   6.379   8.493 -0.1040 -0.4058  0.2704
  586MOL0     C80740   2.707   6.265   8.419 -0.7697  0.2221  0.6604
  586MOL0     C80741   2.864   6.282   8.435 -0.0232  0.8462 -0.1067
  586MOL0     C80742   2.947   6.196   8.340 -0.2934 -0.0629 -0.0550
  586MOL0     C80743   3.092   6.230   8.365  0.1467 -0.3179  0.0530
  586MOL0     C80744   3.184   6.177   8.253  0.0319 -0.7411  1.1228
  586MOL0     C80745   3.315   6.271   8.253  0.6259 -0.0474  0.6297
  586MOL0     C80746   3.393   6.264   8.383  0.7741  0.3868  0.7985
  586MOL0     N80747   3.527   6.315   8.381 -0.2279  0.1378  0.3932
  586MOL0     C80748   3.576   6.439   8.361  0.1814 -0.0309 -0.0989
  586MOL0     C80749   3.707   6.440   8.381  0.1737 -0.4228  0.2933
  586MOL0     C80750   3.803   6.564   8.382 -0.3852 -0.4123 -0.5210
  586MOL0     C80751   3.733   6.670   8.473  0.0835 -0.4288  0.5415
  586MOL0     C80752   3.724   6.645   8.625 -1.3838 -0.1250  1.5290
  586MOL0     C80753   3.704   6.770   8.704 -0.3844 -0.4433 -0.9783
  586MOL0     O80754   3.568   6.826   8.704 -0.5030  0.2395 -0.0205
  586MOL0     C80755   3.477   6.806   8.810  0.0648  0.6789 -0.5742
  586MOL0     C80756   3.359   6.881   8.813 -0.5760 -0.5870  1.0301
  586MOL0     C80757   3.257   6.869   8.906  0.2623 -0.0023 -0.8632
  586MOL0     C80758   3.144   6.966   8.892  0.0821  0.0969  0.8281
  586MOL0     C80759   3.270   6.779   9.017 -0.1819  0.1294  0.8018
  586MOL0     C80760   3.169   6.761   9.119  0.2656 -0.2698  0.8599
  586MOL0     O80761   3.183   6.648   9.191 -0.1746  0.6476  0.0195
  586MOL0     C80762   3.105   6.615   9.300 -0.1716  0.2828 -1.2198
  586MOL0     C80763   3.058   6.709   9.393 -0.2715  0.1498  0.7201
  586MOL0     C80764   2.991   6.677   9.510 -0.2174  0.1498 -0.0889
  586MOL0     C80765   2.961   6.541   9.537  0.4302  0.0617  0.0426
  586MOL0     O80766   2.890   6.506   9.652  0.0003 -0.0654  0.1952
  586MOL0     C80767   2.866   6.368   9.691 -0.0356 -0.1359  0.8537
  586MOL0     C80768   2.820   6.373   9.837 -0.2217  0.1683 -0.3941
  586MOL0     C80769   2.815   6.234   9.897 -0.1356  1.0434 -0.2669
  586MOL0     C80770   2.743   6.231  10.034  0.0710  0.0795  0.4987
  586MOL0     C80771   2.766   6.093  10.104  0.5013 -0.5697 -1.0074
  586MOL0     C80772   2.693   5.981  10.029  0.1649  0.8583  0.1500
  586MOL0     C80773   2.708   5.844  10.097 -0.1357 -0.1225 -0.3496
  586MOL0     C80774   2.663   5.738   9.994 -0.6246  0.4683 -0.0597
  586MOL0    Cl80775   2.485   5.756   9.980 -0.1343  0.4811  0.0362
  586MOL0     C80776   3.001   6.448   9.436  0.5277 -0.1703 -0.1497
  586MOL0     C80777   3.059   6.483   9.315 -1.0716  0.0659  0.5932
  586MOL0     O80778   3.082   6.849   9.132  0.0063  0.4993  0.8888
  586MOL0     C80779   3.395   6.707   9.025 -0.0037 -0.5357  0.1343
  586MOL0     C80780   3.491   6.718   8.921 -0.8445 -0.2823 -0.2765
  586MOL0     N80781   3.744   6.306   8.401  0.0434 -0.9349  0.3822
  586MOL0     N80782   3.632   6.234   8.387 -0.2037  0.1245  0.0447
  586MOL0     C80783   2.283   6.421   8.475 -0.7651  0.0808 -0.5343
  586MOL0     C80784   2.175   6.494   8.523 -0.4461 -0.0243  0.3680
  586MOL0     C80785   1.911   6.836   8.610 -0.0973  0.4251 -1.1495
  586MOL0     C80786   1.806   6.749   8.660 -0.6600 -0.0945  0.2081
  586MOL0     C80787   1.671   6.800   8.684  0.7788  0.9687  0.2942
  586MOL0     C80788   1.648   6.928   8.644 -0.2011 -0.4707  0.4151
  586MOL0     O80789   1.525   6.972   8.655  0.3354 -0.7442  0.8705
  586MOL0     C80790   1.419   6.906   8.583  0.1484 -0.0232 -0.0984
  586MOL0     C80791   1.288   6.947   8.652  0.6855  0.1674  0.1570
  586MOL0     C80792   1.160   6.919   8.566  0.7977  0.3343  0.0086
  586MOL0     C80793   1.137   7.020   8.457  0.1514 -0.8853 -0.7353
  586MOL0     C80794   1.069   6.955   8.345 -0.9880 -0.2613 -0.0274
  586MOL0     C80795   1.020   6.943   8.233  0.8274 -0.1892 -0.0112
  586MOL0     C80796   1.747   7.014   8.602  0.5618  0.0925 -0.2330
  586MOL0     C80797   1.884   6.977   8.594 -0.3220 -0.1658  0.4565
  586MOL0     C80798   1.980   7.079   8.535  0.6048  0.0220  0.0620
  586MOL0     H80799   2.347   6.692   8.737  1.6395 -0.2103 -1.1039
  586MOL0     H80800   2.531   6.567   8.641 -0.0662  3.6306 -1.7453
  586MOL0     H80801   2.675   6.368   8.597  3.6866  2.0183 -0.3986
  586MOL0     H80802   2.681   6.481   8.477 -3.7169  1.2599  1.4736
  586MOL0     H80803   2.682   6.164   8.453  0.8306 -0.7531 -0.8186
  586MOL0     H80804   2.683   6.269   8.312 -3.9214 -5.8541  0.7102
  586MOL0     H80805   2.879   6.388   8.414  3.9102  0.4048 -0.2042
  586MOL0     H80806   2.880   6.264   8.541  0.4783  2.8184  0.1889
  586MOL0     H80807   2.917   6.095   8.368  1.0832 -0.5155 -0.1496
  586MOL0     H80808   2.925   6.216   8.234 -0.4651 -1.5039 -0.3045
  586MOL0     H80809   3.119   6.181   8.459  0.1893 -1.1103 -0.3597
  586MOL0     H80810   3.094   6.339   8.371 -2.0609 -0.2142 -0.2809
  586MOL0     H80811   3.208   6.071   8.263 -0.1245 -0.8139  0.7713
  586MOL0     H80812   3.147   6.191   8.151  0.8073  4.2738  1.2498
  586MOL0     H80813   3.285   6.376   8.241 -3.1671 -1.0430 -0.0984
  586MOL0     H80814   3.382   6.235   8.174  1.0790 -1.1880  1.5092
  586MOL0     H80815   3.324   6.308   8.456  0.6742 -1.3639  1.8040
  586MOL0     H80816   3.393   6.157   8.404 -2.9589 -0.6085 -2.8711
  586MOL0     H80817   3.515   6.528   8.347 -0.3404  0.2835  3.3029
  586MOL0     H80818   3.808   6.592   8.277 -1.2562  2.1324  0.0392
  586MOL0     H80819   3.903   6.543   8.421  0.0583  0.5246 -1.1296
  586MOL0     H80820   3.806   6.751   8.476  1.0703 -1.3341  1.3961
  586MOL0     H80821   3.641   6.702   8.423  0.5879 -1.0847 -0.8606
  586MOL0     H80822   3.628   6.594   8.643 -2.1869  0.3573 -0.9407
  586MOL0     H80823   3.804   6.582   8.665 -0.5946 -0.6992 -0.7763
  586MOL0     H80824   3.732   6.748   8.807 -2.3734 -2.1011 -0.7290
  586MOL0     H80825   3.780   6.844   8.677  0.1298 -0.8288 -0.6084
  586MOL0     H80826   3.350   6.956   8.735  0.9588 -0.9350  0.4956
  586MOL0     H80827   3.053   6.914   8.863  0.5032  0.1056 -0.5873
  586MOL0     H80828   3.166   7.042   8.816  0.3691 -2.7475 -2.1405
  586MOL0     H80829   3.124   7.020   8.985  0.2135 -2.2939  2.3153
  586MOL0     H80830   3.067   6.812   9.359 -4.3235  0.6863  0.8355
  586MOL0     H80831   2.959   6.759   9.573  0.7926 -0.0681  0.7200
  586MOL0     H80832   2.791   6.320   9.627  0.2897  2.9645 -2.1461
  586MOL0     H80833   2.965   6.323   9.679  1.5105  2.8641  1.3901
  586MOL0     H80834   2.884   6.437   9.898  2.0726 -0.8001 -1.6559
  586MOL0     H80835   2.718   6.414   9.833 -1.3097 -1.6926  3.6510
  586MOL0     H80836   2.921   6.209   9.907  0.0031 -0.2934 -3.6600
  586MOL0     H80837   2.772   6.165   9.824  0.8646 -1.8572  1.7061
  586MOL0     H80838   2.637   6.244  10.010  0.3539 -1.5016 -2.0539
  586MOL0     H80839   2.774   6.316  10.095  0.0049  1.0905 -0.8230
  586MOL0     H80840   2.871   6.071  10.123  0.0271 -1.7156  0.6126
  586MOL0     H80841   2.725   6.112  10.204  0.8720  2.9109 -1.3982
  586MOL0     H80842   2.733   5.968   9.928 -1.6656 -0.5791 -0.4643
  586MOL0     H80843   2.587   6.007  10.020  0.3639  0.9217 -3.9696
  586MOL0     H80844   2.652   5.815  10.187  1.6208 -3.6008 -0.2037
  586MOL0     H80845   2.814   5.823  10.115  0.2546  1.1471 -1.0878
  586MOL0     H80846   2.687   5.636  10.028  0.3870  1.0758  1.1162
  586MOL0     H80847   2.705   5.749   9.894  0.3029  0.4331  0.3112
  586MOL0     H80848   2.983   6.341   9.442 -0.0211 -0.1655 -1.3904
  586MOL0     H80849   3.084   6.408   9.241 -2.8535  1.6179 -1.7554
  586MOL0     H80850   3.410   6.629   9.099 -1.0934 -1.6262 -0.7619
  586MOL0     H80851   3.587   6.673   8.942  0.7189  2.8808 -0.2396
  586MOL0     H80852   2.276   6.338   8.406 -2.6725  0.5862 -0.9888
  586MOL0     H80853   2.080   6.473   8.475 -0.5862 -0.4270  0.8115
  586MOL0     H80854   1.822   6.642   8.652 -1.0516 -0.0401 -2.3793
  586MOL0     H80855   1.599   6.734   8.732  3.6662 -2.0064  0.9241
  586MOL0     H80856   1.414   6.924   8.475  1.4586 -2.5048 -0.6689
  586MOL0     H80857   1.429   6.797   8.586  1.2339  0.0665 -0.0297
  586MOL0     H80858   1.286   7.055   8.674 -0.1116  0.9840 -3.3919
  586MOL0     H80859   1.284   6.897   8.749  3.5200  1.6904  1.1916
  586MOL0     H80860   1.174   6.822   8.517 -0.0089 -0.0608  0.5380
  586MOL0     H80861   1.067   6.911   8.623  2.6325 -4.8616  3.0202
  586MOL0     H80862   1.235   7.054   8.421  1.8525 -2.3729  2.0954
  586MOL0     H80863   1.087   7.106   8.502  1.2037 -1.1299  1.0159
  586MOL0     H80864   0.999   6.925   8.130  0.6705 -1.8176  0.2804
  586MOL0     H80865   1.715   7.116   8.586  2.1788  0.6713  0.0624
  586MOL0     H80866   2.075   7.080   8.588 -0.7985 -0.1243  2.7211
  586MOL0     H80867   1.995   7.081   8.426  1.0489 -1.0781  0.0950
  586MOL0     H80868   1.942   7.179   8.558  0.4032 -0.0312 -0.0358
  587MOL0     O80869   3.538   1.404   8.008  0.4413 -0.2151  0.3322
  587MOL0     C80870   3.600   1.314   8.064  1.4590 -0.0284  0.3889
  587MOL0     O80871   3.640   1.199   8.005 -0.4240  0.3911  0.1714
  587MOL0     C80872   3.615   1.192   7.867  0.6371  0.5220 -0.8147
  587MOL0     C80873   3.711   1.239   7.779  0.8483 -0.9801 -0.4870
  587MOL0     C80874   3.686   1.236   7.642  0.0420  0.9027 -0.0818
  587MOL0     C80875   3.580   1.168   7.588 -0.3792  0.1893  0.0378
  587MOL0     O80876   3.573   1.156   7.453 -0.2753 -0.8671  0.0172
  587MOL0     C80877   3.524   1.034   7.398 -0.2720 -0.3561 -0.1840
  587MOL0     C80878   3.594   1.004   7.265  0.4591 -0.4965  0.2422
  587MOL0     C80879   3.542   0.880   7.194  0.3176  0.3358 -0.0698
  587MOL0     C80880   3.563   0.889   7.042 -0.3115 -0.0184 -0.1984
  587MOL0     C80881   3.520   0.768   6.969  0.5428 -0.4120 -0.0977
  587MOL0     C80882   3.516   0.793   6.819 -0.1168  0.1729 -0.1227
  587MOL0     C80883   3.482   0.664   6.755  0.4290 -0.2775 -0.4246
  587MOL0     C80884   3.608   0.594   6.704 -0.1585 -1.1932  0.8141
  587MOL0     N80885   3.658   0.648   6.579 -0.5277  0.4522  0.9061
  587MOL0     C80886   3.630   0.590   6.454 -0.1272 -0.2704  0.4037
  587MOL0     C80887   3.701   0.667   6.359 -0.4153  0.2549 -0.1467
  587MOL0     C80888   3.681   0.663   6.209  0.6538  0.3008  0.0712
  587MOL0     C80889   3.753   0.544   6.144  1.1364 -1.1664  1.1117
  587MOL0     C80890   3.900   0.539   6.181 -0.0672 -0.5616  0.7411
  587MOL0     C80891   4.001   0.439   6.107  0.3357 -0.9347  0.4454
  587MOL0     O80892   3.992   0.449   5.959  0.3338 -0.7165 -0.0598
  587MOL0     C80893   4.095   0.485   5.885  0.1309 -0.0183  0.0203
  587MOL0     C80894   4.180   0.590   5.915  0.0962 -0.1825 -0.6946
  587MOL0     C80895   4.279   0.624   5.822 -0.5832 -0.5003  0.1390
  587MOL0     C80896   4.356   0.748   5.857  0.4276  0.2076 -0.9742
  587MOL0     C80897   4.298   0.546   5.704  0.2576 -0.6023 -0.7009
  587MOL0     C80898   4.409   0.566   5.613 -1.4013  0.6516  0.2738
  587MOL0     O80899   4.518   0.639   5.658  0.2998  0.6034  0.0352
  587MOL0     C80900   4.640   0.649   5.597 -0.3121  0.2882  0.0433
  587MOL0     C80901   4.687   0.581   5.486  0.0625 -0.6400 -0.4787
  587MOL0     C80902   4.814   0.597   5.434 -0.1022  0.5900  0.5552
  587MOL0     C80903   4.903   0.695   5.486  0.4453  0.4694 -0.0198
  587MOL0     O80904   5.028   0.699   5.425 -0.0031  0.1554  0.8979
  587MOL0     C80905   5.136   0.726   5.507  0.9450 -0.8301 -0.4026
  587MOL0     C80906   5.243   0.620   5.469  0.5901  0.7887  0.0918
  587MOL0     C80907   5.387   0.635   5.531  0.5856  0.5177  0.4822
  587MOL0     C80908   5.473   0.520   5.470 -0.1787 -1.0889  0.2405
  587MOL0     C80909   5.610   0.523   5.525 -0.1632  0.5099 -0.6859
  587MOL0     C80910   5.696   0.434   5.440 -0.7473  0.7301  0.1122
  587MOL0     C80911   5.840   0.429   5.498  0.1262 -0.1032 -0.5103
  587MOL0     C80912   5.917   0.330   5.418  0.2554 -1.3397 -1.1280
  587MOL0    Cl80913   6.005   0.213   5.523  0.4633  0.1880  0.3306
  587MOL0     C80914   4.854   0.761   5.600 -0.1622 -0.2608  0.5862
  587MOL0     C80915   4.717   0.745   5.649 -0.9942 -0.6341  1.0482
  587MOL0     O80916   4.405   0.509   5.504 -0.3209 -0.1484 -0.4240
  587MOL0     C80917   4.209   0.446   5.677  0.5031  0.7019  0.6516
  587MOL0     C80918   4.103   0.419   5.759 -0.1656 -0.0320 -1.4827
  587MOL0     N80919   3.751   0.773   6.426 -0.2120  0.7617  0.2845
  587MOL0     N80920   3.744   0.747   6.551  0.8142 -0.4726 -0.7335
  587MOL0     C80921   3.479   1.123   7.676 -0.2583 -0.0410 -0.3506
  587MOL0     C80922   3.498   1.131   7.815 -0.5532 -0.6057 -0.1365
  587MOL0     C80923   3.605   1.318   8.208 -0.2062  0.2873  0.5241
  587MOL0     C80924   3.688   1.416   8.271  0.4328  0.4146 -0.5470
  587MOL0     C80925   3.696   1.418   8.406  0.2239 -1.0548 -1.2959
  587MOL0     C80926   3.614   1.340   8.485 -0.3738  0.6801  0.9573
  587MOL0     O80927   3.630   1.338   8.620 -1.1996 -0.0990 -0.2478
  587MOL0     C80928   3.504   1.351   8.684 -0.3437 -0.2646  0.2443
  587MOL0     C80929   3.530   1.382   8.831 -0.2696 -0.5336  0.5619
  587MOL0     C80930   3.612   1.262   8.894  0.3849 -0.2255  0.7694
  587MOL0     C80931   3.641   1.289   9.040  0.0915 -0.8117  0.5472
  587MOL0     C80932   3.745   1.389   9.054  0.1929 -0.8441 -0.4306
  587MOL0     C80933   3.833   1.473   9.036  0.4822 -0.2374 -0.4282
  587MOL0     C80934   3.542   1.237   8.426 -0.5259  0.5660  0.4774
  587MOL0     C80935   3.531   1.231   8.289 -0.5544 -0.5026 -0.3753
  587MOL0     C80936   3.453   1.120   8.216  0.2890 -0.3030  0.4918
  587MOL0     H80937   3.805   1.282   7.814 -0.5192  1.5483  0.3032
  587MOL0     H80938   3.746   1.287   7.568 -0.5401  1.0604 -0.4509
  587MOL0     H80939   3.416   1.046   7.392 -0.1823  0.5408 -0.1740
  587MOL0     H80940   3.538   0.946   7.462  0.7305 -1.2637 -1.5972
  587MOL0     H80941   3.566   1.091   7.204  0.6400 -0.0527  0.7891
  587MOL0     H80942   3.703   1.005   7.275  0.4901 -0.2999 -0.0912
  587MOL0     H80943   3.593   0.788   7.223 -0.5529 -1.0221 -2.5328
  587MOL0     H80944   3.434   0.862   7.202  0.1278  0.0987 -2.5021
  587MOL0     H80945   3.503   0.967   6.996  0.1322 -0.3274 -1.3434
  587MOL0     H80946   3.670   0.900   7.018  0.0261 -0.3279  1.0714
  587MOL0     H80947   3.427   0.732   7.014 -0.1167 -2.6699 -2.9814
  587MOL0     H80948   3.589   0.687   6.992 -1.2908 -0.7086  6.1487
  587MOL0     H80949   3.432   0.859   6.795  0.4570  0.0832 -2.7511
  587MOL0     H80950   3.610   0.834   6.782 -0.4346  1.1794  0.1604
  587MOL0     H80951   3.403   0.674   6.680 -0.0359  1.5549  0.2517
  587MOL0     H80952   3.441   0.589   6.822  2.0762 -0.3919  0.5219
  587MOL0     H80953   3.687   0.605   6.778 -0.4679  1.1170  0.8717
  587MOL0     H80954   3.574   0.491   6.688 -0.0891 -0.9862 -0.8086
  587MOL0     H80955   3.557   0.514   6.427  2.1010 -2.2403 -0.3898
  587MOL0     H80956   3.712   0.753   6.155  0.1687  0.7415  0.5156
  587MOL0     H80957   3.574   0.653   6.190  1.2184 -0.0865 -3.4808
  587MOL0     H80958   3.706   0.447   6.164  0.4557 -1.1193 -0.1183
  587MOL0     H80959   3.746   0.560   6.036 -0.5639 -2.4821  0.9924
  587MOL0     H80960   3.949   0.636   6.179 -0.4336 -0.3851  0.1340
  587MOL0     H80961   3.906   0.509   6.286  1.9696 -3.5938 -0.0701
  587MOL0     H80962   4.103   0.455   6.141 -0.1983  0.9679  1.2876
  587MOL0     H80963   3.970   0.336   6.128 -1.9915 -0.4790 -0.3622
  587MOL0     H80964   4.177   0.633   6.015  3.2044  0.6161 -0.8295
  587MOL0     H80965   4.456   0.714   5.887 -0.6137 -2.7116 -0.4269
  587MOL0     H80966   4.303   0.787   5.944 -1.2217 -5.1618  0.8756
  587MOL0     H80967   4.362   0.826   5.781  3.8770  4.5343  3.1588
  587MOL0     H80968   4.626   0.513   5.428  1.1718 -2.7376  0.6732
  587MOL0     H80969   4.853   0.540   5.350  0.6178  2.1883 -0.2259
  587MOL0     H80970   5.169   0.829   5.495  1.8331 -1.2881 -2.3082
  587MOL0     H80971   5.113   0.716   5.614 -1.6822 -1.5708 -0.9633
  587MOL0     H80972   5.203   0.520   5.489 -2.1477  1.7423 -0.2037
  587MOL0     H80973   5.250   0.619   5.360 -0.2554 -4.2433 -0.1676
  587MOL0     H80974   5.385   0.629   5.641  2.8708  1.5128  0.6360
  587MOL0     H80975   5.433   0.730   5.504  0.7771 -0.1833 -1.8209
  587MOL0     H80976   5.474   0.532   5.362  0.0768  1.7388  0.4739
  587MOL0     H80977   5.414   0.431   5.492 -5.1145  0.1449 -5.3416
  587MOL0     H80978   5.636   0.629   5.527  0.3065  0.4358 -1.9933
  587MOL0     H80979   5.599   0.474   5.623 -1.6842 -0.0395 -1.1072
  587MOL0     H80980   5.705   0.483   5.343  0.4214  1.5130  0.5914
  587MOL0     H80981   5.649   0.336   5.426 -1.2622  0.2921  3.8208
  587MOL0     H80982   5.834   0.397   5.602 -2.3635 -0.8268 -0.8119
  587MOL0     H80983   5.883   0.529   5.488  2.3354 -1.1165 -1.8512
  587MOL0     H80984   5.986   0.383   5.353  1.6560 -1.0738  0.4980
  587MOL0     H80985   5.853   0.265   5.358 -2.0220  0.4749 -0.8251
  587MOL0     H80986   4.912   0.834   5.656 -0.2300  0.2050  0.0588
  587MOL0     H80987   4.679   0.805   5.731  1.7863  1.3192  1.0726
  587MOL0     H80988   4.217   0.399   5.580  1.1075 -0.4862  1.2514
  587MOL0     H80989   4.046   0.330   5.732  2.4009 -1.0638 -4.0279
  587MOL0     H80990   3.387   1.079   7.639  0.3843 -0.3752 -1.6045
  587MOL0     H80991   3.424   1.080   7.875  1.3417 -4.2946 -0.6091
  587MOL0     H80992   3.747   1.481   8.207  2.3973 -0.2266  0.5175
  587MOL0     H80993   3.758   1.491   8.458 -0.4977 -1.1922 -0.2027
  587MOL0     H80994   3.445   1.432   8.639  1.4257  0.6066 -0.5848
  587MOL0     H80995   3.447   1.258   8.680 -0.3485 -0.2220 -2.1217
  587MOL0     H80996   3.442   1.405   8.891 -0.0881  1.0072  0.2577
  587MOL0     H80997   3.588   1.474   8.823 -1.1908 -0.0637 -1.2910
  587MOL0     H80998   3.544   1.176   8.905 -1.1839  0.6408 -1.3832
  587MOL0     H80999   3.705   1.236   8.842  0.5906  0.4463  0.8018
  587MOL0     H81000   3.670   1.196   9.090  4.8294  0.3809  0.4626
  587MOL0     H81001   3.553   1.321   9.098  1.1359 -0.8831  2.2483
  587MOL0     H81002   3.900   1.553   9.011  1.0860 -1.0573 -1.5237
  587MOL0     H81003   3.477   1.164   8.474 -1.2014  0.9481  0.1727
  587MOL0     H81004   3.526   1.059   8.161 -2.9763 -2.4078 -1.8444
  587MOL0     H81005   3.389   1.055   8.276 -0.9648  0.6378  0.2071
  587MOL0     H81006   3.394   1.166   8.137  0.0032 -0.2657  0.7246
  588MOL0     O81007   9.414  11.178   1.429 -0.1621 -0.0673 -0.3389
  588MOL0     C81008   9.316  11.194   1.366 -0.3766 -0.1172 -0.2411
  588MOL0     O81009   9.239  11.094   1.321 -0.1494  0.5938  0.8783
  588MOL0     C81010   9.295  10.966   1.330  0.0650  0.0638 -0.3796
  588MOL0     C81011   9.260  10.886   1.438 -0.3074 -0.3366  0.1271
  588MOL0     C81012   9.329  10.764   1.462 -0.0991  0.2096  0.3177
  588MOL0     C81013   9.428  10.725   1.366  0.2541 -0.4529 -0.1005
  588MOL0     O81014   9.490  10.607   1.394  0.2241  0.3039  0.4040
  588MOL0     C81015   9.505  10.515   1.282 -0.1539 -1.1999 -0.3820
  588MOL0     C81016   9.509  10.374   1.327 -0.3530  0.5077 -0.3053
  588MOL0     C81017   9.628  10.349   1.418  0.3226  0.3196  0.2685
  588MOL0     C81018   9.623  10.208   1.480  1.3519  0.2351 -0.2429
  588MOL0     C81019   9.641  10.091   1.374  0.0119  0.6890 -0.0040
  588MOL0     C81020   9.760  10.110   1.274 -0.2845  0.1577  0.1660
  588MOL0     C81021   9.800   9.996   1.169  0.1858 -0.7068 -0.4917
  588MOL0     C81022   9.853   9.885   1.248  0.0649  0.7266  0.0713
  588MOL0     N81023   9.885   9.766   1.164 -0.7634  0.1274  0.0743
  588MOL0     C81024   9.794   9.679   1.111 -0.3858 -0.1872  0.0185
  588MOL0     C81025   9.870   9.590   1.043 -0.3215 -0.5386 -0.2882
  588MOL0     C81026   9.797   9.471   0.985  0.1946 -0.2185  0.2294
  588MOL0     C81027   9.871   9.340   1.034  0.1934  0.2507 -0.7941
  588MOL0     C81028   9.816   9.215   0.956 -0.6509 -0.2010 -0.9831
  588MOL0     C81029   9.902   9.093   0.962 -0.1273  0.3586 -0.2682
  588MOL0     O81030   9.829   8.983   0.903 -0.7539  0.0316 -0.0300
  588MOL0     C81031   9.870   8.860   0.942 -0.0858  0.3568 -1.4357
  588MOL0     C81032   9.999   8.821   0.948  0.3426 -0.3430  0.3087
  588MOL0     C81033  10.049   8.696   0.987 -1.6906 -0.4004 -1.0040
  588MOL0     C81034  10.205   8.679   0.977 -0.2720 -0.4309  0.3858
  588MOL0     C81035   9.961   8.594   1.023  0.8838 -0.0265  0.0905
  588MOL0     C81036  10.002   8.465   1.090  0.3245  0.8540  0.6192
  588MOL0     O81037   9.910   8.414   1.160  0.0447  0.0608  0.3581
  588MOL0     C81038   9.937   8.320   1.250  0.4519  0.9402 -0.4498
  588MOL0     C81039   9.831   8.236   1.277 -0.0609  0.3270 -0.3841
  588MOL0     C81040   9.826   8.173   1.404  0.7962 -0.9638 -0.6441
  588MOL0     C81041   9.940   8.161   1.480  0.0919 -0.5287 -0.3962
  588MOL0     O81042   9.946   8.101   1.600  0.1282  0.2241  0.1207
  588MOL0     C81043   9.982   7.957   1.593  0.1061 -0.5836  0.0701
  588MOL0     C81044  10.130   7.928   1.616  0.2830  0.6643  0.7048
  588MOL0     C81045  10.184   8.014   1.729 -0.5881 -0.2518 -0.2805
  588MOL0     C81046  10.112   8.005   1.867 -0.7128  0.8324  0.4082
  588MOL0     C81047  10.218   8.056   1.970  0.2341  0.2678  0.4534
  588MOL0     C81048  10.164   8.026   2.105  0.3142  0.1621 -0.1133
  588MOL0     C81049  10.058   8.113   2.150 -0.4640  0.1988 -1.1431
  588MOL0     C81050  10.132   8.235   2.211 -0.8639 -0.3482  0.4102
  588MOL0    Cl81051  10.193   8.182   2.369  0.0264 -0.4149  0.1011
  588MOL0     C81052  10.060   8.215   1.433 -0.3593 -0.2440  0.7372
  588MOL0     C81053  10.054   8.302   1.327  1.0671 -0.4039 -0.2278
  588MOL0     O81054  10.101   8.411   1.048  0.4698  0.0131 -0.0561
  588MOL0     C81055   9.826   8.634   1.021  1.3673 -0.2470  0.5640
  588MOL0     C81056   9.782   8.760   0.975  0.5675 -0.0497 -0.4183
  588MOL0     N81057  10.004   9.620   1.064  0.0223 -0.0651  0.3066
  588MOL0     N81058  10.014   9.731   1.129  0.2469 -0.4800  0.1620
  588MOL0     C81059   9.465  10.819   1.260  0.2706  0.2184 -0.6990
  588MOL0     C81060   9.392  10.932   1.242  0.3718  0.4708  0.3726
  588MOL0     C81061   9.277  11.332   1.339  0.1269  0.2205 -0.2121
  588MOL0     C81062   9.383  11.417   1.300  0.2605 -0.8434  0.6475
  588MOL0     C81063   9.357  11.547   1.262  0.0036 -0.3933  0.4178
  588MOL0     C81064   9.222  11.589   1.252 -0.7245  0.2157 -0.4410
  588MOL0     O81065   9.176  11.710   1.220 -0.3302 -0.2635 -0.5158
  588MOL0     C81066   9.244  11.782   1.114 -0.1945  0.3435 -0.1784
  588MOL0     C81067   9.187  11.919   1.086 -0.1929  0.2520 -0.2865
  588MOL0     C81068   9.066  11.906   0.990 -0.3896  0.1326  0.6718
  588MOL0     C81069   9.002  12.044   0.977 -0.1258  0.6104 -0.0722
  588MOL0     C81070   8.902  12.049   0.874 -0.1706 -0.0365  0.3918
  588MOL0     C81071   8.826  12.047   0.777 -0.0213  0.6029  0.5828
  588MOL0     C81072   9.115  11.507   1.296 -0.1270  0.2008 -0.5083
  588MOL0     C81073   9.141  11.376   1.337  0.2354 -0.2020  0.5393
  588MOL0     C81074   9.029  11.280   1.362  0.2003 -0.6584  0.1031
  588MOL0     H81075   9.195  10.912   1.521 -0.1280  0.9297 -0.1168
  588MOL0     H81076   9.316  10.695   1.545 -2.5085  0.3329  0.1049
  588MOL0     H81077   9.601  10.536   1.234  1.0683  3.8202  3.3891
  588MOL0     H81078   9.430  10.531   1.204 -0.5075 -1.4605 -0.0996
  588MOL0     H81079   9.417  10.364   1.387  1.2497  2.4414  2.7342
  588MOL0     H81080   9.520  10.305   1.243  2.4857 -0.5154  0.7829
  588MOL0     H81081   9.717  10.361   1.355 -0.9529  0.3440 -1.6321
  588MOL0     H81082   9.625  10.423   1.498 -1.8356  0.2702  0.2881
  588MOL0     H81083   9.698  10.195   1.558  0.5966  1.9972  0.8431
  588MOL0     H81084   9.528  10.194   1.533  0.6965  1.6302 -0.9999
  588MOL0     H81085   9.548  10.076   1.318 -0.9243  3.2854  0.7207
  588MOL0     H81086   9.648   9.998   1.430 -2.4910  0.6239  0.3302
  588MOL0     H81087   9.736  10.206   1.226 -1.2640  0.2377  0.7853
  588MOL0     H81088   9.847  10.115   1.340 -1.3884 -2.0085  1.9198
  588MOL0     H81089   9.876  10.041   1.104  2.2985 -2.5838  0.5137
  588MOL0     H81090   9.710   9.961   1.119  0.1652 -1.0166 -0.2460
  588MOL0     H81091   9.943   9.922   1.299  0.0737  1.5337 -0.5123
  588MOL0     H81092   9.789   9.855   1.331  0.5993  1.2518  0.6796
  588MOL0     H81093   9.686   9.684   1.125 -0.3004 -1.3427  1.2705
  588MOL0     H81094   9.801   9.477   0.876 -0.9846  0.1220  0.1923
  588MOL0     H81095   9.697   9.472   1.028 -0.6986  0.0072 -1.7367
  588MOL0     H81096   9.979   9.353   1.022  0.1795  0.0309 -1.1597
  588MOL0     H81097   9.860   9.319   1.141  0.9003  1.2000 -0.5167
  588MOL0     H81098   9.720   9.188   1.001  1.3037 -3.3143  1.8260
  588MOL0     H81099   9.787   9.242   0.854  0.9066  1.0360 -1.1315
  588MOL0     H81100  10.004   9.105   0.926  0.2967 -0.7968  0.4552
  588MOL0     H81101   9.923   9.065   1.066  3.5519  1.3934 -0.6263
  588MOL0     H81102  10.071   8.895   0.914  3.6472 -1.9388  3.2830
  588MOL0     H81103  10.219   8.659   0.871 -0.4938 -0.0110  0.2780
  588MOL0     H81104  10.250   8.599   1.038  1.8619  1.2447  1.1247
  588MOL0     H81105  10.265   8.764   1.009 -0.1215 -0.8591  1.3102
  588MOL0     H81106   9.740   8.252   1.220  1.6385  2.6132 -2.7267
  588MOL0     H81107   9.740   8.116   1.438  1.8685 -1.4143  1.4922
  588MOL0     H81108   9.925   7.908   1.673  2.7206 -0.1814  2.3212
  588MOL0     H81109   9.959   7.917   1.493  1.4366 -2.1851  0.3586
  588MOL0     H81110  10.128   7.823   1.646  2.0980  1.4979  4.2564
  588MOL0     H81111  10.188   7.942   1.524 -1.8879  1.8308 -0.5808
  588MOL0     H81112  10.167   8.119   1.701 -1.8711 -0.6562 -1.0711
  588MOL0     H81113  10.292   7.998   1.726 -0.6694 -0.9664  0.3414
  588MOL0     H81114  10.085   7.901   1.887  0.1345  0.3217 -0.9342
  588MOL0     H81115  10.018   8.061   1.868  0.9187  3.7700  2.5752
  588MOL0     H81116  10.310   8.005   1.943 -1.0695 -0.5942 -2.9459
  588MOL0     H81117  10.231   8.164   1.956 -3.1688  0.5391 -1.9355
  588MOL0     H81118  10.245   8.032   2.179  0.2400  0.2384 -0.0385
  588MOL0     H81119  10.136   7.921   2.114 -0.3863  0.3336 -0.2041
  588MOL0     H81120  10.003   8.074   2.236 -2.0882  0.8142 -1.8683
  588MOL0     H81121   9.983   8.146   2.078  0.4749 -1.6673 -3.0784
  588MOL0     H81122  10.059   8.314   2.232 -2.6634 -2.2375  1.7619
  588MOL0     H81123  10.224   8.276   2.168  2.8228 -3.8146  4.0546
  588MOL0     H81124  10.147   8.197   1.495 -0.8488  1.0763  1.8524
  588MOL0     H81125  10.143   8.361   1.309  2.1451 -1.3964  1.5265
  588MOL0     H81126   9.746   8.567   1.051 -0.4117  1.3402 -0.4612
  588MOL0     H81127   9.680   8.798   0.968  0.9732  1.2477  0.3855
  588MOL0     H81128   9.542  10.794   1.187  0.7770 -1.7705  0.4550
  588MOL0     H81129   9.408  11.006   1.164 -0.9867  0.8909  0.4522
  588MOL0     H81130   9.485  11.381   1.298  1.5384  2.5004 -0.5199
  588MOL0     H81131   9.434  11.610   1.217 -1.3863  0.4146 -0.9238
  588MOL0     H81132   9.347  11.797   1.147 -0.0533  1.8004 -1.1675
  588MOL0     H81133   9.232  11.706   1.035 -3.2388 -1.1015  1.4848
  588MOL0     H81134   9.259  11.993   1.049  0.1346  1.3803  2.3836
  588MOL0     H81135   9.145  11.969   1.173  0.9657  3.9242 -1.6602
  588MOL0     H81136   9.110  11.864   0.900  2.3195  4.7502 -0.5343
  588MOL0     H81137   8.988  11.842   1.032  0.9928 -0.8997  1.7788
  588MOL0     H81138   9.077  12.118   0.945  1.7879 -1.4557 -0.5981
  588MOL0     H81139   8.952  12.072   1.071 -1.3749 -0.6880 -0.3289
  588MOL0     H81140   8.759  12.036   0.694 -0.1843 -3.2949  1.0376
  588MOL0     H81141   9.020  11.556   1.278 -1.2348 -0.9147  1.8479
  588MOL0     H81142   8.938  11.338   1.379 -1.7835 -3.8566  1.4355
  588MOL0     H81143   9.011  11.215   1.276  0.8352 -0.3142 -0.2955
  588MOL0     H81144   9.049  11.222   1.453 -0.3460  0.1597  0.7672
  589MOL0     O81145   5.301   2.322   0.329 -0.3689 -0.1125 -0.5111
  589MOL0     C81146   5.305   2.441   0.285 -0.0558  0.8257  0.9330
  589MOL0     O81147   5.187   2.514   0.267  0.6106 -0.2310  0.5169
  589MOL0     C81148   5.075   2.440   0.242  0.1691 -0.6379  0.1604
  589MOL0     C81149   5.069   2.342   0.139  0.5078 -0.3184  0.4379
  589MOL0     C81150   4.948   2.271   0.131  0.1018  0.0784  0.1506
  589MOL0     C81151   4.836   2.293   0.208 -0.0770  0.4398  0.5142
  589MOL0     O81152   4.734   2.208   0.173 -0.4532 -0.0303 -0.2489
  589MOL0     C81153   4.617   2.203   0.256 -0.2560  0.0607 -0.0487
  589MOL0     C81154   4.535   2.096   0.171  0.3837  0.7789 -0.2796
  589MOL0     C81155   4.386   2.092   0.211  0.5805 -0.9335  0.0250
  589MOL0     C81156   4.280   2.010   0.117 -0.1726  0.3347 -0.0720
  589MOL0     C81157   4.140   2.013   0.173  0.1078  0.5297 -0.3130
  589MOL0     C81158   4.049   2.133   0.136  0.5831 -0.2770  0.1706
  589MOL0     C81159   3.914   2.128   0.207 -0.0007  0.4053 -0.2513
  589MOL0     C81160   3.845   1.992   0.169 -0.6692 -0.0570  0.5637
  589MOL0     N81161   3.716   1.997   0.225  0.3374  0.4221 -0.3558
  589MOL0     C81162   3.695   2.041   0.360 -0.3498  0.9493 -0.1860
  589MOL0     C81163   3.570   2.071   0.357  0.0552 -1.0422 -0.3335
  589MOL0     C81164   3.503   2.130   0.475 -0.0881  0.2286 -0.4838
  589MOL0     C81165   3.393   2.042   0.523  0.2864 -0.0427  0.8825
  589MOL0     C81166   3.317   2.091   0.648 -0.8138 -0.0614  1.0963
  589MOL0     C81167   3.177   2.036   0.674 -0.0662 -0.1931  0.1662
  589MOL0     O81168   3.099   2.060   0.556  0.1112  0.2231 -0.2939
  589MOL0     C81169   2.967   2.091   0.571  0.3348  0.6095 -0.4614
  589MOL0     C81170   2.863   2.027   0.519 -0.2079  0.3796  0.1094
  589MOL0     C81171   2.738   2.058   0.548  0.9173  0.6747  0.2032
  589MOL0     C81172   2.634   1.960   0.490 -1.2934 -0.7336 -0.9966
  589MOL0     C81173   2.711   2.154   0.654 -0.0645 -0.6354 -0.0597
  589MOL0     C81174   2.574   2.181   0.716  0.8455  0.3717 -1.0246
  589MOL0     O81175   2.557   2.285   0.806 -0.3472 -0.9376 -0.0876
  589MOL0     C81176   2.433   2.302   0.849 -0.3952 -0.1346 -1.2373
  589MOL0     C81177   2.329   2.352   0.768  0.4477 -0.1989 -0.0503
  589MOL0     C81178   2.197   2.373   0.816  0.0122 -0.3317 -0.8591
  589MOL0     C81179   2.164   2.337   0.948  0.5509  0.7848 -0.7311
  589MOL0     O81180   2.032   2.335   0.985 -0.1916 -0.1091 -0.2036
  589MOL0     C81181   2.000   2.256   1.104 -0.1252  0.5984  0.7156
  589MOL0     C81182   1.850   2.256   1.118  0.3976  0.2939 -0.3277
  589MOL0     C81183   1.800   2.128   1.055  0.4429  0.3493  0.1089
  589MOL0     C81184   1.649   2.120   1.021  0.2742 -0.2110  0.1426
  589MOL0     C81185   1.620   2.017   0.920 -0.9705  0.1787 -0.2581
  589MOL0     C81186   1.482   1.952   0.943  0.6703  0.8978  0.6436
  589MOL0     C81187   1.367   2.049   0.910 -0.1776  0.6289 -0.0604
  589MOL0     C81188   1.226   1.992   0.913 -0.6981 -0.1312  0.4272
  589MOL0    Cl81189   1.222   1.850   0.800 -0.2944  0.0919 -0.5279
  589MOL0     C81190   2.270   2.303   1.032 -0.0141  0.9308 -1.1822
  589MOL0     C81191   2.403   2.275   0.984 -0.1820 -0.2069  0.4188
  589MOL0     O81192   2.488   2.091   0.702 -0.6597 -0.0394 -0.1089
  589MOL0     C81193   2.814   2.241   0.688  0.7559  0.3467  0.5140
  589MOL0     C81194   2.944   2.206   0.652 -0.7996  1.2763 -0.2241
  589MOL0     N81195   3.509   2.048   0.235  0.3948 -0.7160  0.3486
  589MOL0     N81196   3.598   2.004   0.156  0.1932 -0.5996  0.6733
  589MOL0     C81197   4.847   2.388   0.305 -0.0619  0.0459  0.3560
  589MOL0     C81198   4.965   2.452   0.325  0.7616 -0.7866  1.0055
  589MOL0     C81199   5.439   2.511   0.289  1.2564 -0.7968 -0.1572
  589MOL0     C81200   5.433   2.652   0.274  0.0214 -0.4148 -0.9528
  589MOL0     C81201   5.549   2.729   0.276  0.0822 -0.9183 -0.2048
  589MOL0     C81202   5.674   2.670   0.278  0.4724  0.5628  0.0488
  589MOL0     O81203   5.790   2.743   0.275 -0.5379  0.5237  0.2231
  589MOL0     C81204   5.790   2.893   0.286  0.1947  0.6943 -0.0225
  589MOL0     C81205   5.741   2.966   0.160 -0.2333 -0.5560  0.1194
  589MOL0     C81206   5.809   3.103   0.150 -0.8803 -0.7361  0.4307
  589MOL0     C81207   5.776   3.188   0.024  1.0333  0.1425  0.5045
  589MOL0     C81208   5.634   3.167  -0.013 -0.1761 -0.7754  0.1597
  589MOL0     C81209   5.519   3.152  -0.048 -0.2682 -0.2508  0.6570
  589MOL0     C81210   5.685   2.534   0.294  0.4975  0.1567  0.3097
  589MOL0     C81211   5.567   2.450   0.310  0.2701  0.0798  0.3120
  589MOL0     C81212   5.598   2.298   0.330  1.1230  0.2335 -1.1176
  589MOL0     H81213   5.150   2.292   0.086 -0.8069 -2.1479  0.0566
  589MOL0     H81214   4.952   2.194   0.054 -1.8722 -1.4693  1.5097
  589MOL0     H81215   4.582   2.303   0.283  1.9149  0.9263 -0.2389
  589MOL0     H81216   4.635   2.152   0.351  0.3400  0.8897  0.2931
  589MOL0     H81217   4.534   2.130   0.067 -3.4774  0.4937 -0.4877
  589MOL0     H81218   4.587   2.000   0.187  0.1187  0.7598  0.5251
  589MOL0     H81219   4.375   2.061   0.315 -3.4824 -0.0516  0.0004
  589MOL0     H81220   4.344   2.193   0.210  0.2365 -1.0562 -2.0753
  589MOL0     H81221   4.271   2.050   0.015 -1.8030  0.2439  0.0060
  589MOL0     H81222   4.307   1.906   0.099 -1.1161  0.0531  0.0589
  589MOL0     H81223   4.140   1.999   0.281 -1.8989  2.4613 -0.0059
  589MOL0     H81224   4.093   1.925   0.127  2.3383 -0.8746 -0.0574
  589MOL0     H81225   4.088   2.225   0.182 -1.1299  0.4389  0.2761
  589MOL0     H81226   4.055   2.145   0.028 -0.3135 -1.1717  0.0075
  589MOL0     H81227   3.857   2.216   0.178 -0.6046  0.9349  2.2814
  589MOL0     H81228   3.938   2.135   0.313 -0.6013 -1.9865  0.1140
  589MOL0     H81229   3.845   1.975   0.061 -0.2972 -2.1154  0.8367
  589MOL0     H81230   3.909   1.912   0.209 -0.0825  0.1877  0.1373
  589MOL0     H81231   3.772   2.053   0.436  0.2714  0.6030 -0.7466
  589MOL0     H81232   3.464   2.230   0.454 -0.6708  0.1800  0.3284
  589MOL0     H81233   3.574   2.139   0.558 -1.1505 -0.3490  0.5217
  589MOL0     H81234   3.318   2.040   0.443 -0.5206  4.0574  1.3094
  589MOL0     H81235   3.439   1.944   0.542  2.4215  0.5902 -0.6919
  589MOL0     H81236   3.374   2.057   0.735  0.9181 -1.6836 -0.5929
  589MOL0     H81237   3.315   2.201   0.650  0.2983 -0.0223  1.0415
  589MOL0     H81238   3.175   1.927   0.684 -1.1177 -0.5478 -2.7554
  589MOL0     H81239   3.132   2.081   0.763  0.1557 -0.4492  0.4084
  589MOL0     H81240   2.891   1.952   0.446 -3.7623  0.9663 -2.1127
  589MOL0     H81241   2.686   1.887   0.427 -0.0946  1.9918 -3.4314
  589MOL0     H81242   2.572   2.014   0.417  2.6820  2.1885 -2.5441
  589MOL0     H81243   2.568   1.912   0.563 -2.7173  1.3223 -0.8464
  589MOL0     H81244   2.344   2.364   0.661  0.6915  1.1318  0.1246
  589MOL0     H81245   2.115   2.403   0.753  1.0466  2.7943 -0.8609
  589MOL0     H81246   2.030   2.152   1.087 -0.7505  0.9135 -2.9754
  589MOL0     H81247   2.050   2.297   1.192  3.8096 -0.5126 -0.7775
  589MOL0     H81248   1.828   2.245   1.225 -1.9091 -0.5331 -0.8302
  589MOL0     H81249   1.803   2.341   1.068  1.7008 -0.3742 -2.8773
  589MOL0     H81250   1.821   2.040   1.117 -1.8240  0.9950  1.9649
  589MOL0     H81251   1.854   2.117   0.961 -1.0216 -0.9195 -0.6363
  589MOL0     H81252   1.619   2.220   0.988  0.6322 -1.4689 -4.6237
  589MOL0     H81253   1.599   2.096   1.116  2.9888 -0.0090  1.7354
  589MOL0     H81254   1.625   2.056   0.817 -1.2601  2.8498  0.6629
  589MOL0     H81255   1.687   1.932   0.936  0.3942  1.0306 -1.1636
  589MOL0     H81256   1.474   1.921   1.047  0.5802 -1.0476  0.1013
  589MOL0     H81257   1.484   1.858   0.888 -1.3388  1.3816 -0.3377
  589MOL0     H81258   1.381   2.090   0.810 -2.3197  0.3033 -0.5424
  589MOL0     H81259   1.375   2.127   0.986  0.6966  0.8464 -0.3741
  589MOL0     H81260   1.153   2.066   0.879  0.8447  1.8547  1.2550
  589MOL0     H81261   1.194   1.960   1.012 -2.1822  2.1761  0.7655
  589MOL0     H81262   2.264   2.293   1.140  0.3402  1.5565 -1.1014
  589MOL0     H81263   2.484   2.261   1.055  0.6712  2.8193  0.1660
  589MOL0     H81264   2.794   2.335   0.738  1.6633  0.7559  0.1446
  589MOL0     H81265   3.023   2.273   0.683 -0.2373  0.6005 -0.1855
  589MOL0     H81266   4.756   2.406   0.361 -0.3248  0.2640 -0.1338
  589MOL0     H81267   4.980   2.528   0.401  0.7223 -1.3781  1.6207
  589MOL0     H81268   5.343   2.711   0.259 -0.9242 -2.1233 -2.3742
  589MOL0     H81269   5.527   2.835   0.266 -0.4399 -1.0926 -0.9825
  589MOL0     H81270   5.730   2.933   0.368  1.7177  3.7931 -0.2825
  589MOL0     H81271   5.891   2.914   0.323 -0.7586  0.7100  2.8768
  589MOL0     H81272   5.633   2.983   0.156 -0.0526  2.4559  3.3873
  589MOL0     H81273   5.762   2.904   0.072 -4.5820 -1.2919 -0.6303
  589MOL0     H81274   5.789   3.152   0.246  0.4845  1.7698 -0.4768
  589MOL0     H81275   5.918   3.091   0.150 -1.0226 -2.6813  2.3290
  589MOL0     H81276   5.839   3.159  -0.060  0.2077  0.8551 -0.3855
  589MOL0     H81277   5.796   3.294   0.045 -2.8462  2.0547 -3.8336
  589MOL0     H81278   5.421   3.112  -0.068  0.0129 -1.2477  1.1953
  589MOL0     H81279   5.787   2.498   0.286  1.1582  2.0549 -0.1818
  589MOL0     H81280   5.700   2.291   0.369  0.0752 -1.5295  1.6465
  589MOL0     H81281   5.524   2.257   0.400 -0.1850 -0.7354 -3.0105
  589MOL0     H81282   5.582   2.250   0.234 -4.5108  3.3119 -2.1566
  590MOL0     O81283   8.731   6.039   7.684 -0.4822 -0.1951 -0.3933
  590MOL0     C81284   8.709   6.056   7.803  0.5780  0.4517  0.2757
  590MOL0     O81285   8.806   6.076   7.904 -0.3320 -0.5403 -0.5367
  590MOL0     C81286   8.938   6.080   7.863 -0.0714  0.2081  0.4713
  590MOL0     C81287   8.979   6.149   7.748  0.6297 -0.7767  0.1967
  590MOL0     C81288   9.108   6.155   7.718 -0.0869 -0.4565  1.2023
  590MOL0     C81289   9.207   6.083   7.788 -0.8519 -0.5615 -0.1531
  590MOL0     O81290   9.334   6.090   7.742 -0.1982  0.7843 -0.6958
  590MOL0     C81291   9.437   6.031   7.824 -0.0266  0.5439  0.5106
  590MOL0     C81292   9.575   6.041   7.759 -0.3602  0.7650 -0.0394
  590MOL0     C81293   9.687   5.988   7.854  0.0491 -0.7330 -0.1042
  590MOL0     C81294   9.714   6.112   7.947 -0.4865  1.3982  0.2075
  590MOL0     C81295   9.824   6.202   7.901 -0.7975 -0.1802  0.1386
  590MOL0     C81296   9.841   6.322   7.995  0.1599  1.3058  0.0921
  590MOL0     C81297   9.954   6.418   7.958 -0.1098 -0.2079  0.0176
  590MOL0     C81298  10.087   6.373   8.006  0.7304 -0.1470  0.7941
  590MOL0     N81299  10.144   6.245   7.950  0.3709 -0.1583  0.4771
  590MOL0     C81300  10.175   6.211   7.821  0.4361 -0.4185  0.9885
  590MOL0     C81301  10.196   6.080   7.816  0.4050  0.3430  0.5718
  590MOL0     C81302  10.193   6.001   7.691 -0.2973  0.0222 -0.3332
  590MOL0     C81303  10.250   5.860   7.709 -0.4260  0.6776  0.3540
  590MOL0     C81304  10.232   5.780   7.573  0.7991  0.1130 -0.2567
  590MOL0     C81305  10.279   5.853   7.449 -0.3485  0.2708  0.4233
  590MOL0     O81306  10.409   5.904   7.469 -0.6052 -0.3215  0.1788
  590MOL0     C81307  10.446   6.034   7.432  0.3838  0.1241  0.3990
  590MOL0     C81308  10.423   6.088   7.301  0.3860  0.2951 -0.3825
  590MOL0     C81309  10.479   6.206   7.254  0.0625 -0.5960  0.7870
  590MOL0     C81310  10.437   6.275   7.124  0.4300 -0.4932 -0.4841
  590MOL0     C81311  10.559   6.278   7.353  0.1745 -0.4640 -0.4444
  590MOL0     C81312  10.614   6.414   7.338  0.5531  0.9787  0.8468
  590MOL0     O81313  10.664   6.442   7.213  0.2186  0.0543  0.1394
  590MOL0     C81314  10.699   6.574   7.174 -0.2061 -0.0425 -0.0631
  590MOL0     C81315  10.702   6.691   7.246 -0.5068 -0.1982  0.3344
  590MOL0     C81316  10.737   6.821   7.202 -0.0650  0.5190  0.1846
  590MOL0     C81317  10.764   6.833   7.064  0.3397 -0.2720 -0.7955
  590MOL0     O81318  10.782   6.950   7.002  0.1115 -1.0746  0.0071
  590MOL0     C81319  10.663   7.030   6.983  0.4586 -0.3526  0.4211
  590MOL0     C81320  10.668   7.138   7.101  0.1014  0.0662 -0.3381
  590MOL0     C81321  10.528   7.177   7.132 -0.6247 -0.2400  0.0000
  590MOL0     C81322  10.511   7.326   7.157 -0.1018 -0.6784 -0.0864
  590MOL0     C81323  10.589   7.398   7.270 -0.0554  0.5168  0.8982
  590MOL0     C81324  10.517   7.390   7.404 -0.1559  0.3323 -0.1253
  590MOL0     C81325  10.607   7.461   7.499  0.3001 -0.1698 -0.4553
  590MOL0     C81326  10.553   7.470   7.640  0.0985 -0.2863 -0.9061
  590MOL0    Cl81327  10.499   7.310   7.721  0.3381 -0.0504 -0.0582
  590MOL0     C81328  10.773   6.717   6.994  0.3661  1.1893 -0.0908
  590MOL0     C81329  10.733   6.590   7.040  0.3866 -0.7012 -0.3567
  590MOL0     O81330  10.606   6.494   7.432  0.2416  0.7640 -0.6223
  590MOL0     C81331  10.588   6.224   7.484 -0.1772  0.2574  0.5143
  590MOL0     C81332  10.530   6.103   7.520 -0.9423 -0.7139  0.1638
  590MOL0     N81333  10.197   6.029   7.942  0.2131  0.2581  0.3106
  590MOL0     N81334  10.165   6.122   8.023 -0.5533 -0.3179  0.2902
  590MOL0     C81335   9.166   6.011   7.901  0.1245  0.8979  1.1581
  590MOL0     C81336   9.032   6.000   7.932  0.1851 -0.3984  0.9335
  590MOL0     C81337   8.559   6.050   7.838 -0.4296 -0.6617  0.7421
  590MOL0     C81338   8.466   6.060   7.733 -0.0627 -0.6140 -0.4716
  590MOL0     C81339   8.331   6.039   7.751  0.9905 -0.9033 -0.7375
  590MOL0     C81340   8.281   6.026   7.881 -0.3327  0.0511 -0.4221
  590MOL0     O81341   8.148   6.020   7.903  0.0096  1.5167 -0.1359
  590MOL0     C81342   8.072   6.126   7.832 -0.0600 -0.0516  0.2755
  590MOL0     C81343   7.950   6.174   7.907 -0.0503  0.4144 -0.2428
  590MOL0     C81344   7.978   6.295   7.993  0.6360 -0.8016 -0.5053
  590MOL0     C81345   8.108   6.317   8.075  1.3112  0.2355  0.6954
  590MOL0     C81346   8.092   6.414   8.187  0.6086  0.4819 -0.4433
  590MOL0     C81347   8.072   6.488   8.270  0.1529 -0.8582 -0.5839
  590MOL0     C81348   8.375   6.019   7.986 -0.0834 -1.3848 -1.2096
  590MOL0     C81349   8.512   6.021   7.964  1.1181 -0.5221  0.1499
  590MOL0     C81350   8.590   5.982   8.083 -0.6500  0.2270 -0.8318
  590MOL0     H81351   8.909   6.205   7.686  0.9796  2.5710  2.5530
  590MOL0     H81352   9.126   6.209   7.626 -2.9633 -0.5742  0.4797
  590MOL0     H81353   9.418   5.924   7.834  0.1748  0.5293  0.7463
  590MOL0     H81354   9.440   6.080   7.922 -2.1963  1.4667  0.1880
  590MOL0     H81355   9.573   5.984   7.666 -0.5199  0.2819  0.2596
  590MOL0     H81356   9.595   6.148   7.742 -1.7398  1.5041  2.4776
  590MOL0     H81357   9.651   5.908   7.920  1.2495  0.0352  1.5760
  590MOL0     H81358   9.781   5.956   7.808  0.9495 -0.0190  1.1525
  590MOL0     H81359   9.622   6.169   7.964  0.1693  1.6028  3.6999
  590MOL0     H81360   9.727   6.082   8.051 -3.7064 -0.6635  0.1711
  590MOL0     H81361   9.781   6.247   7.811 -1.0711  3.1009  1.7572
  590MOL0     H81362   9.920   6.152   7.884  0.4289  1.9659  0.4021
  590MOL0     H81363   9.743   6.369   7.995 -1.5143 -1.7991 -1.8351
  590MOL0     H81364   9.866   6.281   8.093 -1.0803 -1.2819 -0.5682
  590MOL0     H81365   9.934   6.513   8.008  1.8240  1.2154 -1.7612
  590MOL0     H81366   9.970   6.423   7.850  0.9453 -0.3832  0.1480
  590MOL0     H81367  10.164   6.446   7.979 -0.8903  2.6419  3.1810
  590MOL0     H81368  10.084   6.360   8.114  1.9793 -1.2583  0.7197
  590MOL0     H81369  10.170   6.277   7.736 -1.5792 -0.8223  0.7252
  590MOL0     H81370  10.235   6.067   7.615 -3.3182  0.6274 -1.6229
  590MOL0     H81371  10.085   5.997   7.675 -0.2283 -1.6074 -0.4690
  590MOL0     H81372  10.351   5.858   7.751  0.3192  1.2426 -1.3176
  590MOL0     H81373  10.187   5.809   7.783 -0.6129  0.5204  0.0891
  590MOL0     H81374  10.296   5.693   7.590 -1.8162 -2.0011 -0.5756
  590MOL0     H81375  10.133   5.735   7.558  1.7932 -1.5487 -2.4373
  590MOL0     H81376  10.272   5.783   7.365 -0.4539 -1.7194  2.0090
  590MOL0     H81377  10.212   5.937   7.426 -1.1545 -0.8079 -1.3769
  590MOL0     H81378  10.358   6.032   7.234  1.4154 -0.9292 -0.4146
  590MOL0     H81379  10.394   6.191   7.070  0.1026 -0.5590 -0.1290
  590MOL0     H81380  10.514   6.321   7.061 -0.3980  3.7053  1.1837
  590MOL0     H81381  10.363   6.354   7.141  1.4204  0.1544  1.0505
  590MOL0     H81382  10.673   6.701   7.350 -0.0319  2.0032  0.2966
  590MOL0     H81383  10.762   6.894   7.278  0.7214  0.0788  0.3650
  590MOL0     H81384  10.657   7.078   6.885  0.8193 -1.1348  0.0044
  590MOL0     H81385  10.579   6.960   6.987 -0.2550  0.5412  1.8837
  590MOL0     H81386  10.712   7.093   7.190 -1.3937 -0.5393  0.1362
  590MOL0     H81387  10.732   7.225   7.085  0.3327  0.1603  0.9851
  590MOL0     H81388  10.498   7.120   7.220  1.7218 -1.4499  0.1044
  590MOL0     H81389  10.468   7.158   7.042  0.5277  3.4067 -1.7731
  590MOL0     H81390  10.406   7.350   7.170  0.3757  0.5550  1.8358
  590MOL0     H81391  10.553   7.372   7.067  3.4458  0.7228  2.0609
  590MOL0     H81392  10.691   7.359   7.278  0.7695  2.3974  0.0528
  590MOL0     H81393  10.599   7.504   7.245 -0.1546  1.4781  4.3691
  590MOL0     H81394  10.490   7.288   7.433 -0.6336 -0.3730 -2.7361
  590MOL0     H81395  10.427   7.450   7.390 -0.6842  0.5555  3.4099
  590MOL0     H81396  10.623   7.566   7.472 -1.8950  0.8696  1.8035
  590MOL0     H81397  10.696   7.399   7.516 -0.9152 -1.6436  0.8365
  590MOL0     H81398  10.471   7.541   7.626  0.2156  1.1972  4.0993
  590MOL0     H81399  10.631   7.508   7.707 -1.5578 -0.6929  1.3711
  590MOL0     H81400  10.799   6.733   6.890  1.1003 -0.7446 -0.2429
  590MOL0     H81401  10.746   6.501   6.980  0.7832 -1.9971  1.5565
  590MOL0     H81402  10.652   6.275   7.555 -1.7963  0.8119  1.6275
  590MOL0     H81403  10.555   6.066   7.619  0.7647  0.0531  0.0557
  590MOL0     H81404   9.234   5.941   7.946  0.0426 -0.8650 -1.2545
  590MOL0     H81405   9.006   5.940   8.019  0.6350  0.0199  1.3589
  590MOL0     H81406   8.503   6.089   7.635 -0.7314 -5.5403 -2.4571
  590MOL0     H81407   8.260   6.046   7.670  2.0008  3.0790 -1.5215
  590MOL0     H81408   8.133   6.215   7.814 -1.1785  1.0410  1.6235
  590MOL0     H81409   8.051   6.088   7.732  0.6094  1.0430 -0.3036
  590MOL0     H81410   7.901   6.099   7.970  2.6918 -1.8086 -0.5852
  590MOL0     H81411   7.879   6.200   7.827 -0.4008 -0.3427 -0.1898
  590MOL0     H81412   7.987   6.376   7.920  3.6621 -0.8278 -0.2858
  590MOL0     H81413   7.890   6.315   8.056  0.4513 -0.5564 -0.8388
  590MOL0     H81414   8.194   6.335   8.011  0.5788  0.0217 -0.3771
  590MOL0     H81415   8.125   6.226   8.134 -1.8152  0.6178  2.4085
  590MOL0     H81416   8.046   6.553   8.351  0.2997 -0.5118 -0.8120
  590MOL0     H81417   8.332   6.015   8.086  0.5155 -2.0315 -0.9651
  590MOL0     H81418   8.653   6.061   8.125 -1.4069  1.2728 -1.6109
  590MOL0     H81419   8.522   5.965   8.166  1.7422  3.3298  2.0548
  590MOL0     H81420   8.651   5.896   8.054 -0.3219  0.7374 -1.6990
  591MOL0     O81421   7.263   4.578   5.748 -0.0635 -0.4507  0.4052
  591MOL0     C81422   7.152   4.626   5.709 -0.6852 -0.1491  0.7470
  591MOL0     O81423   7.123   4.658   5.571 -0.7439  0.6166 -0.3961
  591MOL0     C81424   7.224   4.653   5.493  0.2406 -0.2563  0.7033
  591MOL0     C81425   7.284   4.519   5.470  0.4007 -0.1884 -0.1016
  591MOL0     C81426   7.383   4.510   5.373 -0.4335  0.8865  0.4488
  591MOL0     C81427   7.428   4.621   5.304 -0.0242  0.3495 -0.2859
  591MOL0     O81428   7.517   4.633   5.205  0.3947  0.8709 -0.4968
  591MOL0     C81429   7.588   4.517   5.157 -0.4116 -0.3765 -0.1592
  591MOL0     C81430   7.708   4.559   5.070 -0.6921  0.2094  0.5581
  591MOL0     C81431   7.836   4.612   5.147 -0.0814  0.4252  0.1368
  591MOL0     C81432   7.816   4.720   5.242 -0.2647  0.4153 -0.0634
  591MOL0     C81433   7.953   4.785   5.292  0.3363 -0.2573  0.7654
  591MOL0     C81434   7.909   4.915   5.348 -0.3274 -0.6825 -0.0560
  591MOL0     C81435   8.037   4.997   5.376  0.0011 -0.7911 -0.0928
  591MOL0     C81436   8.014   5.100   5.481  0.0551 -0.2870 -0.8819
  591MOL0     N81437   8.129   5.189   5.497 -0.1763  0.1477 -0.2321
  591MOL0     C81438   8.155   5.292   5.585  0.3697 -0.2165 -0.0805
  591MOL0     C81439   8.285   5.317   5.573 -0.1646 -0.2548 -0.3527
  591MOL0     C81440   8.370   5.416   5.648  0.4466  0.7390  0.3107
  591MOL0     C81441   8.305   5.534   5.722  0.5058 -0.5616 -0.2750
  591MOL0     C81442   8.236   5.625   5.628  0.6191 -0.5007  0.0537
  591MOL0     C81443   8.168   5.753   5.678  0.3260  0.4032 -0.1937
  591MOL0     O81444   8.091   5.817   5.575  0.1726 -0.7282  0.0692
  591MOL0     C81445   8.039   5.942   5.589  0.2352 -0.5275  1.0032
  591MOL0     C81446   8.075   6.024   5.692 -0.0520  0.0360 -0.5681
  591MOL0     C81447   8.014   6.148   5.715 -0.3637 -0.7098 -0.2989
  591MOL0     C81448   8.027   6.216   5.849 -0.4647  1.0366  0.1342
  591MOL0     C81449   7.923   6.194   5.611  0.0147 -0.3278 -0.2419
  591MOL0     C81450   7.852   6.322   5.608 -0.3613  0.6824  0.1772
  591MOL0     O81451   7.906   6.420   5.683 -0.3421 -0.1852  0.4769
  591MOL0     C81452   7.827   6.526   5.717 -0.8235 -0.1410 -0.0693
  591MOL0     C81453   7.890   6.656   5.724 -0.0155 -0.5202  0.8638
  591MOL0     C81454   7.816   6.762   5.775  0.4948 -0.7298  0.3270
  591MOL0     C81455   7.688   6.735   5.835 -0.4753  0.1000 -0.0035
  591MOL0     O81456   7.627   6.837   5.907  0.3832 -0.0945  0.6390
  591MOL0     C81457   7.709   6.922   5.987 -0.2814 -0.5568 -0.1681
  591MOL0     C81458   7.623   6.997   6.097 -0.7151 -0.1908  0.0076
  591MOL0     C81459   7.530   6.892   6.165  0.8287 -0.3295  0.7395
  591MOL0     C81460   7.383   6.909   6.116 -0.1740  0.9105 -0.2491
  591MOL0     C81461   7.282   6.890   6.226  0.2322 -0.3905  0.5995
  591MOL0     C81462   7.148   6.872   6.154  0.0086  0.1163  0.3934
  591MOL0     C81463   7.029   6.875   6.253  0.5260 -0.1978 -0.4339
  591MOL0     C81464   7.014   6.748   6.338 -0.2339  0.0358 -0.0992
  591MOL0    Cl81465   6.916   6.783   6.479 -0.4482  0.1921 -0.1441
  591MOL0     C81466   7.630   6.610   5.833  0.2465  0.2026 -0.2604
  591MOL0     C81467   7.699   6.510   5.772  1.0439 -0.1754 -1.1872
  591MOL0     O81468   7.753   6.325   5.533  0.0138 -0.0598  0.0475
  591MOL0     C81469   7.899   6.107   5.503 -0.5968 -0.7324  0.1534
  591MOL0     C81470   7.955   5.983   5.487  0.7023 -0.0424 -0.2192
  591MOL0     N81471   8.346   5.238   5.473  0.1324 -0.1247 -0.4892
  591MOL0     N81472   8.249   5.157   5.437  0.0403  0.3807  0.7954
  591MOL0     C81473   7.365   4.743   5.327 -0.5018  0.4726 -0.0400
  591MOL0     C81474   7.257   4.759   5.415  0.3369  0.3700  0.2765
  591MOL0     C81475   7.047   4.635   5.811  0.5590 -0.3053  0.3872
  591MOL0     C81476   6.932   4.708   5.770  0.5518 -0.1445  0.3644
  591MOL0     C81477   6.829   4.745   5.863  0.3111  0.9222 -0.2057
  591MOL0     C81478   6.824   4.685   5.992  0.0647  0.5040  0.0873
  591MOL0     O81479   6.723   4.713   6.086 -0.6889 -0.2621 -0.0506
  591MOL0     C81480   6.604   4.775   6.046 -0.6220 -0.1362 -1.0402
  591MOL0     C81481   6.497   4.773   6.163 -0.8164 -0.1180  1.1253
  591MOL0     C81482   6.459   4.630   6.220 -0.5908 -0.4466  0.0204
  591MOL0     C81483   6.338   4.636   6.314 -0.3965 -0.2093  0.2612
  591MOL0     C81484   6.208   4.632   6.240  0.5573  0.0606  0.4821
  591MOL0     C81485   6.107   4.643   6.176 -0.0987 -0.2389  0.7485
  591MOL0     C81486   6.931   4.609   6.025 -0.0693 -0.9633 -0.0825
  591MOL0     C81487   7.042   4.580   5.941 -0.6422 -0.0697  0.4903
  591MOL0     C81488   7.162   4.507   6.008  0.1395  0.8784 -0.7911
  591MOL0     H81489   7.254   4.437   5.535  0.5225  0.3934  0.7055
  591MOL0     H81490   7.412   4.410   5.340  0.6207  0.7662  1.6775
  591MOL0     H81491   7.526   4.454   5.093  3.3664 -1.7377 -2.8164
  591MOL0     H81492   7.617   4.462   5.247 -0.3208 -1.9407 -1.0968
  591MOL0     H81493   7.734   4.476   5.003 -2.9826 -0.3160  0.2385
  591MOL0     H81494   7.669   4.635   5.001 -0.6928  0.5056  0.8798
  591MOL0     H81495   7.890   4.525   5.187 -1.5539  0.9320  3.5789
  591MOL0     H81496   7.910   4.655   5.079  1.2253 -0.8460  0.6983
  591MOL0     H81497   7.751   4.795   5.197  1.5222  1.1728 -1.5350
  591MOL0     H81498   7.761   4.680   5.327 -0.0121 -0.0809 -0.1299
  591MOL0     H81499   8.021   4.799   5.208 -0.5871 -3.4800 -0.6795
  591MOL0     H81500   8.001   4.720   5.366 -1.4833 -0.1710  2.0717
  591MOL0     H81501   7.846   4.977   5.284  1.7698  3.3551  1.4293
  591MOL0     H81502   7.845   4.896   5.435 -2.7485  2.3315 -0.9796
  591MOL0     H81503   8.063   5.058   5.290  1.0128  1.4440  1.7036
  591MOL0     H81504   8.121   4.931   5.403  2.3921  1.9494 -0.3484
  591MOL0     H81505   7.930   5.158   5.441 -0.1883 -2.9892 -4.8993
  591MOL0     H81506   7.987   5.058   5.578 -3.3214 -1.6428 -2.2297
  591MOL0     H81507   8.082   5.346   5.645 -0.0824  0.4402 -1.1666
  591MOL0     H81508   8.442   5.451   5.573  0.3357 -2.2579 -1.3155
  591MOL0     H81509   8.423   5.357   5.723  2.4619  1.9812 -0.0523
  591MOL0     H81510   8.232   5.498   5.795 -0.3524 -0.4805 -1.0652
  591MOL0     H81511   8.386   5.584   5.776 -1.9005  0.8519  2.2224
  591MOL0     H81512   8.324   5.659   5.573  0.8477 -0.7148  0.2892
  591MOL0     H81513   8.157   5.576   5.570  1.5586  1.6881 -3.3697
  591MOL0     H81514   8.121   5.725   5.773  1.0450  1.9883  0.6576
  591MOL0     H81515   8.257   5.815   5.695 -0.2949  1.8638 -2.0301
  591MOL0     H81516   8.147   6.000   5.770 -3.2242  1.5994  3.1493
  591MOL0     H81517   8.087   6.162   5.923 -1.0434  1.0881  0.6477
  591MOL0     H81518   7.935   6.236   5.904 -1.1297 -1.8912  0.2685
  591MOL0     H81519   8.083   6.307   5.829 -1.6417  1.6927 -0.2809
  591MOL0     H81520   7.997   6.666   5.708  0.0440 -2.3998 -0.1596
  591MOL0     H81521   7.866   6.858   5.781 -1.7359  0.5071  0.3038
  591MOL0     H81522   7.794   6.875   6.036  2.3087  1.7286 -2.2042
  591MOL0     H81523   7.747   7.001   5.922  2.2197 -2.5628 -1.2994
  591MOL0     H81524   7.689   7.041   6.172 -1.6824  2.1031 -0.4234
  591MOL0     H81525   7.563   7.075   6.049 -1.2884 -1.1214 -0.8380
  591MOL0     H81526   7.531   6.914   6.272  2.6354  2.6631  0.2310
  591MOL0     H81527   7.552   6.786   6.151 -3.5794 -1.1710 -1.6323
  591MOL0     H81528   7.373   6.847   6.027  0.2287  0.4372  0.0289
  591MOL0     H81529   7.364   7.012   6.084 -4.5673  0.1429 -0.6776
  591MOL0     H81530   7.295   6.801   6.288  0.9903 -0.9988 -0.3995
  591MOL0     H81531   7.280   6.968   6.303  0.9436 -2.0568  2.3945
  591MOL0     H81532   7.150   6.772   6.109 -0.7906  0.0370  0.5184
  591MOL0     H81533   7.141   6.950   6.077  1.1065  1.6344  1.7664
  591MOL0     H81534   6.938   6.902   6.199 -1.4192 -3.0741  1.1262
  591MOL0     H81535   7.045   6.966   6.313  2.1602 -0.8501  0.1802
  591MOL0     H81536   7.116   6.717   6.363 -0.2904  0.9735  1.4399
  591MOL0     H81537   6.987   6.661   6.278  1.5397 -1.0606  0.6009
  591MOL0     H81538   7.538   6.581   5.883  2.5841 -0.3746  4.1270
  591MOL0     H81539   7.641   6.418   5.770 -3.6518  2.5071 -0.8358
  591MOL0     H81540   7.829   6.124   5.422 -1.9052 -1.2862  1.1437
  591MOL0     H81541   7.904   5.925   5.411 -2.4017  2.2086 -0.0318
  591MOL0     H81542   7.389   4.826   5.262  0.4929  0.3347  0.1442
  591MOL0     H81543   7.223   4.860   5.431  1.7260  1.4191 -2.6437
  591MOL0     H81544   6.929   4.760   5.675 -0.2690 -1.2376 -0.2322
  591MOL0     H81545   6.759   4.815   5.819  0.9666  0.9614 -1.2290
  591MOL0     H81546   6.619   4.880   6.022  0.9262  0.0684  0.6332
  591MOL0     H81547   6.569   4.717   5.959  2.5581  0.6929 -3.0418
  591MOL0     H81548   6.408   4.826   6.130 -0.2476  1.2301  1.6924
  591MOL0     H81549   6.541   4.838   6.239  2.5137 -0.2464 -0.5062
  591MOL0     H81550   6.433   4.572   6.130 -0.1787 -0.3106 -0.1905
  591MOL0     H81551   6.544   4.583   6.269 -0.1783 -2.7098 -2.5804
  591MOL0     H81552   6.321   4.727   6.373 -0.9157 -1.3975  2.0123
  591MOL0     H81553   6.349   4.553   6.383 -1.7389  0.8592  1.8436
  591MOL0     H81554   6.013   4.649   6.125  0.3236 -0.3267 -0.0703
  591MOL0     H81555   6.920   4.567   6.124  1.8332  0.4116  0.7557
  591MOL0     H81556   7.253   4.568   5.994 -0.0361  2.2039  2.9156
  591MOL0     H81557   7.130   4.502   6.112 -0.4208  0.3908 -0.9838
  591MOL0     H81558   7.167   4.409   5.959 -1.0314  1.0137 -1.2118
  592MOL0     O81559   8.331  10.873  10.500  0.4071  0.6247  0.3772
  592MOL0     C81560   8.302  10.803  10.600 -0.3602  0.4598  0.5619
  592MOL0     O81561   8.178  10.801  10.663 -0.4846 -0.0066 -0.3775
  592MOL0     C81562   8.071  10.841  10.584 -0.4767 -0.1671 -0.6155
  592MOL0     C81563   7.998  10.954  10.619 -0.4741 -0.6251  0.2069
  592MOL0     C81564   7.875  10.985  10.552  0.1843 -0.3449 -0.3334
  592MOL0     C81565   7.835  10.901  10.443  1.0684 -0.1342 -0.0688
  592MOL0     O81566   7.717  10.921  10.376  0.1624 -0.1088  0.6858
  592MOL0     C81567   7.632  11.034  10.416 -0.5549  1.2613  0.9439
  592MOL0     C81568   7.532  11.071  10.301 -0.8644 -0.5726  0.5575
  592MOL0     C81569   7.615  11.124  10.176 -0.3506 -0.2648 -0.5037
  592MOL0     C81570   7.518  11.175  10.063 -0.3422  0.1963  0.5784
  592MOL0     C81571   7.400  11.081  10.015  0.1668 -0.9523  0.5766
  592MOL0     C81572   7.449  10.970   9.927 -0.9279  0.3262 -0.4370
  592MOL0     C81573   7.339  10.876   9.874  0.1099  0.5151  0.1165
  592MOL0     C81574   7.400  10.765   9.795 -0.8651  0.7032 -0.3721
  592MOL0     N81575   7.299  10.695   9.710 -1.0309 -0.5741 -0.2865
  592MOL0     C81576   7.214  10.608   9.762  0.3796  1.2216  0.9271
  592MOL0     C81577   7.170  10.536   9.658 -1.4744  1.3468  0.0635
  592MOL0     C81578   7.078  10.418   9.676 -0.3296  0.1636  0.7457
  592MOL0     C81579   7.134  10.279   9.647  0.3449 -0.7904  0.8397
  592MOL0     C81580   7.271  10.255   9.725  0.1458  0.8465  0.8571
  592MOL0     C81581   7.297  10.109   9.749 -0.2679  0.5333 -0.4274
  592MOL0     O81582   7.178  10.061   9.811 -0.2524  0.0097 -0.6843
  592MOL0     C81583   7.162   9.925   9.827 -0.2773  1.0115  0.9413
  592MOL0     C81584   7.264   9.830   9.840  0.6322 -0.0115 -0.5793
  592MOL0     C81585   7.251   9.696   9.847 -0.1384 -0.0068  0.9913
  592MOL0     C81586   7.381   9.624   9.852 -0.1491 -0.7066 -0.3851
  592MOL0     C81587   7.124   9.638   9.826 -1.0966 -0.4688  0.8021
  592MOL0     C81588   7.096   9.492   9.820 -0.7799 -0.3400 -0.6807
  592MOL0     O81589   7.000   9.440   9.731 -0.3500 -0.4984 -0.0554
  592MOL0     C81590   6.951   9.311   9.737  0.6237  0.4497 -0.5121
  592MOL0     C81591   6.839   9.284   9.654 -0.5622 -0.7537 -1.1527
  592MOL0     C81592   6.776   9.155   9.658 -0.4037  0.2290  0.8478
  592MOL0     C81593   6.819   9.050   9.735 -0.7002  0.2533 -0.8253
  592MOL0     O81594   6.753   8.929   9.743  0.1147 -0.2443  0.7489
  592MOL0     C81595   6.623   8.906   9.671 -0.4357  0.7407  0.2763
  592MOL0     C81596   6.535   8.807   9.745  0.3946 -0.0409  0.7767
  592MOL0     C81597   6.603   8.670   9.765 -0.0737 -0.4350  0.5515
  592MOL0     C81598   6.508   8.579   9.840 -0.0239 -0.2141  0.2977
  592MOL0     C81599   6.585   8.442   9.865 -0.0256 -0.5248  0.5942
  592MOL0     C81600   6.647   8.362   9.746 -0.1154 -0.7143  0.1286
  592MOL0     C81601   6.674   8.222   9.799  0.6291  0.1357  0.1457
  592MOL0     C81602   6.781   8.226   9.904 -0.4015 -0.3235 -0.2870
  592MOL0    Cl81603   6.850   8.071   9.915  0.1670  0.1586 -0.3919
  592MOL0     C81604   6.934   9.078   9.817  0.0718 -0.2608 -0.2654
  592MOL0     C81605   6.994   9.199   9.812 -0.3919  0.0496  0.1520
  592MOL0     O81606   7.176   9.416   9.880  0.0952 -0.4347  0.8503
  592MOL0     C81607   7.017   9.729   9.825  0.0091 -0.1219  0.4041
  592MOL0     C81608   7.036   9.868   9.822  0.2673 -0.5235 -0.3529
  592MOL0     N81609   7.220  10.587   9.544 -0.3020  0.3609  0.4511
  592MOL0     N81610   7.307  10.681   9.576  0.1244  0.2429 -0.2285
  592MOL0     C81611   7.914  10.790  10.408 -0.3775  0.5694 -1.1034
  592MOL0     C81612   8.030  10.757  10.481 -0.2340  0.0022 -0.5416
  592MOL0     C81613   8.409  10.736  10.669 -0.7268  0.9046 -0.7182
  592MOL0     C81614   8.397  10.714  10.810 -0.0911  0.4150  0.1280
  592MOL0     C81615   8.506  10.651  10.886 -0.5573  0.7696  1.2920
  592MOL0     C81616   8.626  10.614  10.819  0.0939  0.3820  0.5252
  592MOL0     O81617   8.733  10.571  10.905  0.1547 -0.1177 -0.3286
  592MOL0     C81618   8.865  10.561  10.856  0.1471  0.0903  0.0263
  592MOL0     C81619   8.884  10.416  10.827 -0.1468  0.9807  0.2317
  592MOL0     C81620   8.852  10.324  10.949 -0.0451 -0.3298  0.0695
  592MOL0     C81621   8.891  10.181  10.907  0.5589 -0.8634  0.0886
  592MOL0     C81622   8.872  10.082  11.015  0.2309 -0.1029  0.5591
  592MOL0     C81623   8.854  10.012  11.109 -0.5432 -0.1698  0.3063
  592MOL0     C81624   8.623  10.619  10.682  0.2160 -0.1973  0.1226
  592MOL0     C81625   8.520  10.679  10.602 -1.0832  1.1023 -1.0840
  592MOL0     C81626   8.544  10.662  10.455 -0.1704  0.9585 -0.3836
  592MOL0     H81627   8.043  11.025  10.688 -0.5332  0.9457 -1.2685
  592MOL0     H81628   7.818  11.072  10.584  0.5439  0.7270 -2.3764
  592MOL0     H81629   7.683  11.128  10.442 -3.6182  3.4594 -0.3324
  592MOL0     H81630   7.567  10.997  10.496  1.6005 -1.3858  1.6281
  592MOL0     H81631   7.472  10.984  10.271 -0.9397  0.5107 -2.7417
  592MOL0     H81632   7.468  11.144  10.351  1.5406  0.9156  1.6806
  592MOL0     H81633   7.687  11.200  10.208 -1.0680 -1.2330  4.1522
  592MOL0     H81634   7.680  11.049  10.128  1.8471 -0.7175  2.8435
  592MOL0     H81635   7.480  11.269  10.103  3.4258  1.7469  0.9594
  592MOL0     H81636   7.576  11.190   9.971 -1.1850 -0.5634 -0.1073
  592MOL0     H81637   7.330  11.132   9.949 -3.5913 -1.5244  3.7317
  592MOL0     H81638   7.346  11.043  10.102 -0.7613  0.4637  0.6467
  592MOL0     H81639   7.498  11.025   9.847  2.4270  0.2892  1.4216
  592MOL0     H81640   7.531  10.909   9.966 -0.4766  1.1381 -0.0983
  592MOL0     H81641   7.266  10.931   9.813 -2.6187 -0.3022  2.4106
  592MOL0     H81642   7.277  10.833   9.953 -1.2625 -0.1081 -1.2474
  592MOL0     H81643   7.486  10.799   9.737 -1.2689  1.5134 -0.5141
  592MOL0     H81644   7.444  10.691   9.862 -1.3544 -1.0424 -1.9102
  592MOL0     H81645   7.188  10.591   9.866  2.0897 -1.4464  0.9984
  592MOL0     H81646   6.996  10.436   9.606 -0.5221  1.3257  1.2457
  592MOL0     H81647   7.035  10.414   9.777 -0.4823 -0.8858  0.6432
  592MOL0     H81648   7.044  10.222   9.671 -3.0661  1.7456 -4.0968
  592MOL0     H81649   7.157  10.268   9.540  1.7044  0.2301  1.0006
  592MOL0     H81650   7.350  10.291   9.660  0.7705 -0.4212  0.8816
  592MOL0     H81651   7.275  10.307   9.821  0.8972  0.9581  0.7696
  592MOL0     H81652   7.330  10.060   9.657  0.5911 -1.0170  0.6753
  592MOL0     H81653   7.382  10.108   9.818 -2.1577 -0.5314  2.0442
  592MOL0     H81654   7.366   9.868   9.842  0.6611 -0.0924  0.9502
  592MOL0     H81655   7.400   9.587   9.954 -0.6085  1.9940  0.7603
  592MOL0     H81656   7.461   9.690   9.816  1.5049 -0.9640  2.4782
  592MOL0     H81657   7.373   9.535   9.788  1.7165 -1.8389  0.8366
  592MOL0     H81658   6.808   9.366   9.590  0.5504  0.6597  0.0253
  592MOL0     H81659   6.693   9.153   9.588  1.9176  0.8072 -2.1189
  592MOL0     H81660   6.568   8.994   9.636 -1.0734  0.2616  0.0558
  592MOL0     H81661   6.657   8.858   9.579  0.0063  0.7349  0.4424
  592MOL0     H81662   6.499   8.849   9.840 -0.0763  1.7778 -0.1703
  592MOL0     H81663   6.456   8.787   9.671  1.1373 -0.0174 -0.0350
  592MOL0     H81664   6.692   8.697   9.822 -1.7618  2.5727  1.9753
  592MOL0     H81665   6.634   8.622   9.672  2.5568 -0.5960  1.4379
  592MOL0     H81666   6.415   8.561   9.784 -0.8350  2.7714  0.5500
  592MOL0     H81667   6.489   8.622   9.938  2.9664 -1.2179  1.4318
  592MOL0     H81668   6.657   8.465   9.944  1.4227 -0.7785 -0.6013
  592MOL0     H81669   6.510   8.373   9.904 -0.0222 -3.2365 -3.6029
  592MOL0     H81670   6.740   8.413   9.720 -1.7927  2.5091 -0.0636
  592MOL0     H81671   6.584   8.353   9.657 -0.0051  4.0123 -0.6535
  592MOL0     H81672   6.706   8.153   9.721  0.0900  0.2568 -0.1861
  592MOL0     H81673   6.582   8.179   9.838  1.8816 -1.4646  1.5309
  592MOL0     H81674   6.741   8.264   9.998 -5.0978  1.8964 -2.8112
  592MOL0     H81675   6.866   8.286   9.871 -0.8409 -0.2913 -1.4106
  592MOL0     H81676   6.973   8.987   9.862  0.2540 -0.1663 -0.2316
  592MOL0     H81677   7.083   9.191   9.874 -0.0144 -3.3799 -0.6258
  592MOL0     H81678   6.914   9.697   9.836 -0.6528  1.3026 -1.1552
  592MOL0     H81679   6.957   9.941   9.835  0.6970 -0.0037 -0.6529
  592MOL0     H81680   7.884  10.719  10.332 -3.1264 -0.2904  0.6394
  592MOL0     H81681   8.091  10.668  10.470 -0.6765 -0.7335  2.2088
  592MOL0     H81682   8.305  10.743  10.861 -0.6957  0.0623 -0.7399
  592MOL0     H81683   8.513  10.636  10.993  1.5572  2.9836  1.5500
  592MOL0     H81684   8.886  10.628  10.772  1.7807 -0.9892 -0.4827
  592MOL0     H81685   8.947  10.592  10.921 -0.8710  0.7549  1.0325
  592MOL0     H81686   8.992  10.416  10.814 -0.1939 -1.3622 -0.4649
  592MOL0     H81687   8.841  10.390  10.730 -0.0301  0.0960  0.4171
  592MOL0     H81688   8.924  10.351  11.028  2.4858 -3.2450 -1.0221
  592MOL0     H81689   8.747  10.318  10.979  0.1378  0.3763  0.9059
  592MOL0     H81690   8.997  10.179  10.884  0.4597  2.1753 -1.1454
  592MOL0     H81691   8.841  10.151  10.815 -1.2217  0.6425  0.4945
  592MOL0     H81692   8.829   9.960  11.199 -0.5282 -0.8028 -0.0513
  592MOL0     H81693   8.716  10.582  10.639  2.3670  2.6794  1.8897
  592MOL0     H81694   8.652  10.650  10.437 -0.2721  1.2193 -1.2194
  592MOL0     H81695   8.493  10.571  10.423  1.3068 -1.3218  3.1243
  592MOL0     H81696   8.501  10.748  10.404 -3.2870 -1.7625 -2.8168
  593MOL0     O81697   3.329   6.842  10.456  0.5365  0.9758 -0.3846
  593MOL0     C81698   3.413   6.904  10.513  0.3802 -0.6077  0.1367
  593MOL0     O81699   3.518   6.969  10.458 -0.0972 -0.4367  0.4887
  593MOL0     C81700   3.520   6.969  10.321 -0.5240 -0.4646 -0.6923
  593MOL0     C81701   3.630   6.916  10.261 -0.7609  0.4418 -0.1983
  593MOL0     C81702   3.646   6.920  10.124  0.7649 -0.1587  0.0923
  593MOL0     C81703   3.552   6.970  10.039  0.8648 -0.0342 -1.1937
  593MOL0     O81704   3.576   6.967   9.908  0.5895  1.2430 -0.1594
  593MOL0     C81705   3.451   6.993   9.834 -0.3527  1.0032  0.5963
  593MOL0     C81706   3.493   6.962   9.681 -0.2480 -0.2229 -0.1663
  593MOL0     C81707   3.398   7.049   9.597  0.0695  0.0638 -0.2573
  593MOL0     C81708   3.374   6.987   9.463 -0.0181  0.5808  0.8907
  593MOL0     C81709   3.290   7.051   9.357  0.3105  0.6454  0.7814
  593MOL0     C81710   3.336   7.195   9.325 -0.7109  0.1999 -0.4841
  593MOL0     C81711   3.267   7.240   9.192 -0.3927 -0.6841 -0.0287
  593MOL0     C81712   3.108   7.222   9.191 -0.1752 -0.2118  0.1870
  593MOL0     N81713   3.040   7.254   9.316 -0.1238  0.4286 -0.7380
  593MOL0     C81714   3.051   7.379   9.371  0.2310 -0.3099 -0.7789
  593MOL0     C81715   2.981   7.384   9.486  0.3160 -0.0638 -0.2260
  593MOL0     C81716   2.970   7.494   9.593 -0.6692 -0.7336  1.5821
  593MOL0     C81717   2.967   7.442   9.737  0.1580 -0.6187 -0.5940
  593MOL0     C81718   3.096   7.359   9.774 -0.6143 -0.1799  0.1593
  593MOL0     C81719   3.213   7.457   9.797  0.1181 -0.2274  0.3555
  593MOL0     O81720   3.306   7.389   9.883 -0.0673 -0.2046 -0.5502
  593MOL0     C81721   3.429   7.441   9.891 -0.1354  0.1629 -0.4742
  593MOL0     C81722   3.521   7.370   9.964  0.6145 -0.4764  0.0444
  593MOL0     C81723   3.658   7.416   9.988  0.6022  0.2457  0.0656
  593MOL0     C81724   3.748   7.316  10.063  0.2712  0.8232 -0.2866
  593MOL0     C81725   3.702   7.539   9.936 -0.3021 -0.4388  0.4274
  593MOL0     C81726   3.845   7.591   9.941  0.2324  0.2404 -0.0347
  593MOL0     O81727   3.867   7.710   9.884  0.9533  0.5245  0.0614
  593MOL0     C81728   3.996   7.743   9.864  0.7279 -0.6080  0.0000
  593MOL0     C81729   4.050   7.757   9.737 -0.4244 -0.8304 -0.3155
  593MOL0     C81730   4.184   7.803   9.724 -0.1207  0.0912  0.4266
  593MOL0     C81731   4.267   7.818   9.839  0.4618  0.1954 -0.0018
  593MOL0     O81732   4.403   7.832   9.831 -0.6049 -0.3077 -0.7064
  593MOL0     C81733   4.439   7.971   9.844  0.6547  0.6159  0.4015
  593MOL0     C81734   4.583   7.985   9.783  0.1867  0.3073 -0.0849
  593MOL0     C81735   4.575   8.007   9.629 -0.0906 -0.7078 -0.2284
  593MOL0     C81736   4.711   8.000   9.554  0.4477  0.1120 -0.2435
  593MOL0     C81737   4.694   8.000   9.398  1.1152 -0.3612  0.2942
  593MOL0     C81738   4.834   8.032   9.339  1.2025 -0.0986 -0.9132
  593MOL0     C81739   4.817   8.047   9.192  1.3546 -0.0426 -0.6115
  593MOL0     C81740   4.955   8.082   9.135 -0.2631  0.0405 -0.3601
  593MOL0    Cl81741   4.965   8.060   8.951 -0.1484  0.4349  0.0779
  593MOL0     C81742   4.215   7.798   9.966 -0.0434 -0.9976  0.0205
  593MOL0     C81743   4.075   7.773   9.976 -0.1917  0.1252 -0.1684
  593MOL0     O81744   3.934   7.516   9.986  0.5605 -0.7227  0.5236
  593MOL0     C81745   3.604   7.606   9.867  0.2617 -0.7521 -0.3960
  593MOL0     C81746   3.474   7.566   9.857  0.9509 -0.0230 -0.0040
  593MOL0     N81747   2.936   7.254   9.505  0.0472 -0.1124 -0.9832
  593MOL0     N81748   2.958   7.183   9.399  0.3033  0.2029 -0.2159
  593MOL0     C81749   3.431   7.020  10.103 -0.0355 -0.8914  0.2210
  593MOL0     C81750   3.425   7.028  10.239  0.4367  0.3993 -0.4415
  593MOL0     C81751   3.415   6.908  10.657 -0.5848  0.3996 -0.4917
  593MOL0     C81752   3.481   7.013  10.723 -0.3927 -0.5352 -0.2209
  593MOL0     C81753   3.483   7.026  10.862 -0.1167 -0.1931  0.9162
  593MOL0     C81754   3.451   6.915  10.939 -0.1436 -0.3381 -0.2201
  593MOL0     O81755   3.458   6.926  11.074  0.4706  0.1819 -0.6171
  593MOL0     C81756   3.572   6.853  11.126 -0.6318  0.4159 -0.1330
  593MOL0     C81757   3.680   6.940  11.193  0.1196  0.1227  0.2510
  593MOL0     C81758   3.630   7.032  11.292  0.1127  0.0963 -1.7652
  593MOL0     C81759   3.717   7.061  11.416  0.3548  0.6444  0.0860
  593MOL0     C81760   3.838   7.129  11.380  0.1319 -0.4439 -0.4476
  593MOL0     C81761   3.938   7.202  11.359 -0.0117 -0.0531 -0.4294
  593MOL0     C81762   3.394   6.805  10.881  0.1994 -0.0286 -0.0547
  593MOL0     C81763   3.381   6.805  10.742 -0.1696  0.1169  0.4514
  593MOL0     C81764   3.332   6.673  10.696 -0.3972  0.1254  0.1660
  593MOL0     H81765   3.710   6.875  10.322 -0.7145  1.4998  0.4878
  593MOL0     H81766   3.746   6.898  10.089 -0.0431 -1.8105 -1.3314
  593MOL0     H81767   3.415   7.096   9.841 -0.0490  1.5882 -3.6261
  593MOL0     H81768   3.366   6.930   9.861  0.4066 -0.0583  0.5747
  593MOL0     H81769   3.601   6.965   9.661  0.3357 -1.4738  2.3331
  593MOL0     H81770   3.473   6.856   9.662  2.8727 -0.6694 -1.5954
  593MOL0     H81771   3.303   7.061   9.651  0.6397  0.3892  0.6943
  593MOL0     H81772   3.445   7.147   9.604  0.0059  0.0958  6.4407
  593MOL0     H81773   3.470   6.960   9.418 -0.5325 -0.0774  0.1590
  593MOL0     H81774   3.321   6.898   9.499  2.1286 -0.1371  2.4683
  593MOL0     H81775   3.190   7.051   9.402  0.6151  2.2898  1.4963
  593MOL0     H81776   3.287   6.978   9.275  0.3060  0.8434  0.6074
  593MOL0     H81777   3.304   7.261   9.406 -1.4451 -0.7887  0.0524
  593MOL0     H81778   3.444   7.208   9.314 -0.5619  0.7783  1.2730
  593MOL0     H81779   3.314   7.187   9.108  1.3994 -1.2368  1.2634
  593MOL0     H81780   3.293   7.345   9.176 -0.5029 -0.5942  0.3876
  593MOL0     H81781   3.058   7.280   9.112 -0.5144  0.3427  0.8050
  593MOL0     H81782   3.084   7.115   9.189 -0.2592 -0.1891 -0.3365
  593MOL0     H81783   3.115   7.454   9.326  0.1393 -0.4031 -1.0647
  593MOL0     H81784   2.877   7.552   9.583 -0.0713  0.0715  0.3639
  593MOL0     H81785   3.059   7.557   9.581 -1.6448  0.4001 -0.1951
  593MOL0     H81786   2.953   7.523   9.809  0.5003 -1.2050  0.1396
  593MOL0     H81787   2.872   7.395   9.761  0.5147 -0.5707  1.0002
  593MOL0     H81788   3.080   7.306   9.868  3.1179  0.1959  1.1498
  593MOL0     H81789   3.121   7.286   9.696 -1.1529 -0.5079  0.2881
  593MOL0     H81790   3.253   7.489   9.700 -0.3929  0.6563  0.4308
  593MOL0     H81791   3.177   7.548   9.846  1.6684  0.4216  0.3170
  593MOL0     H81792   3.478   7.278  10.003  1.6118 -1.1147 -0.3287
  593MOL0     H81793   3.764   7.343  10.167  1.6318 -2.7881  0.6210
  593MOL0     H81794   3.849   7.300  10.022  0.7759  0.1636  1.1541
  593MOL0     H81795   3.694   7.225  10.092  1.1405  0.5297  0.4735
  593MOL0     H81796   3.986   7.740   9.651 -0.7011 -1.2766 -0.0284
  593MOL0     H81797   4.227   7.814   9.625 -1.8066 -0.4245 -0.3960
  593MOL0     H81798   4.367   8.040   9.798 -1.1238 -0.4439  1.4946
  593MOL0     H81799   4.440   7.988   9.952 -0.7766 -0.1867  0.5626
  593MOL0     H81800   4.642   8.062   9.834 -0.9829  2.3959 -1.7178
  593MOL0     H81801   4.624   7.884   9.789  0.8129  0.0677 -4.8454
  593MOL0     H81802   4.536   8.106   9.606 -1.1371 -0.7385  1.2503
  593MOL0     H81803   4.511   7.932   9.581  0.8302 -2.5144  1.2126
  593MOL0     H81804   4.764   7.908   9.579  2.0586  0.6572 -1.4696
  593MOL0     H81805   4.762   8.090   9.589  0.9571  0.6683 -2.2964
  593MOL0     H81806   4.649   7.908   9.358 -1.1468  0.8667 -0.1319
  593MOL0     H81807   4.630   8.083   9.367 -0.0304 -1.4516 -0.3656
  593MOL0     H81808   4.900   7.948   9.366  2.1566  0.8070 -0.3607
  593MOL0     H81809   4.878   8.117   9.392 -0.8595  0.6174 -0.2467
  593MOL0     H81810   4.743   8.123   9.168 -1.3372 -2.1799  0.3859
  593MOL0     H81811   4.775   7.957   9.146 -2.5152  1.7939 -1.0025
  593MOL0     H81812   5.034   8.025   9.185 -2.2087 -0.8332  1.9184
  593MOL0     H81813   4.966   8.188   9.158  0.7602 -0.0212 -0.5203
  593MOL0     H81814   4.274   7.805  10.057 -2.4503  0.3874  1.5840
  593MOL0     H81815   4.038   7.764  10.078 -0.9476 -0.1287 -0.4574
  593MOL0     H81816   3.625   7.710   9.840 -1.6730  0.1230  1.2380
  593MOL0     H81817   3.405   7.640   9.818  2.5303  2.7178  2.0254
  593MOL0     H81818   3.348   7.067  10.051 -0.4445  0.7685  2.2289
  593MOL0     H81819   3.341   7.075  10.288  2.4562 -0.1066  3.9808
  593MOL0     H81820   3.512   7.102  10.668 -0.7530  0.2625  0.8403
  593MOL0     H81821   3.515   7.113  10.918 -1.4591  0.7062  0.3512
  593MOL0     H81822   3.539   6.788  11.207 -0.6267  1.0697  0.4021
  593MOL0     H81823   3.619   6.786  11.053  0.6778  0.4270  0.6759
  593MOL0     H81824   3.740   6.992  11.118 -1.5974  1.0971 -0.5252
  593MOL0     H81825   3.748   6.869  11.241  0.7052  1.2865  1.2003
  593MOL0     H81826   3.615   7.131  11.249  0.3839  2.3744  2.8065
  593MOL0     H81827   3.529   7.004  11.324 -0.0319  1.1069 -1.3162
  593MOL0     H81828   3.739   6.971  11.474 -0.9434 -0.4140 -1.0152
  593MOL0     H81829   3.661   7.121  11.489 -3.3438 -1.8124 -0.5165
  593MOL0     H81830   4.009   7.277  11.332 -2.1760  1.7736 -1.3506
  593MOL0     H81831   3.386   6.717  10.945  1.0080  1.5867  2.4274
  593MOL0     H81832   3.422   6.631  10.651 -0.4869  0.2088 -0.0949
  593MOL0     H81833   3.286   6.625  10.782 -0.4011 -0.2578 -0.0488
  593MOL0     H81834   3.263   6.680  10.612  0.6587  1.7602 -0.6287
  594MOL0     O81835   9.319   0.903   1.005  0.4076 -1.0029 -0.0393
  594MOL0     C81836   9.236   0.999   1.013 -0.0565 -0.3404 -0.3329
  594MOL0     O81837   9.170   1.036   1.130 -0.1533 -1.0914 -0.0002
  594MOL0     C81838   9.204   0.994   1.259  0.0149  0.3563  0.3092
  594MOL0     C81839   9.227   0.862   1.296 -0.9363  0.1429  0.1507
  594MOL0     C81840   9.260   0.841   1.433  1.0097  0.6180 -0.4647
  594MOL0     C81841   9.262   0.939   1.528  0.5552 -0.4273 -0.8456
  594MOL0     O81842   9.275   0.896   1.655  0.0846 -0.3872 -0.5440
  594MOL0     C81843   9.327   0.999   1.744 -0.1493  1.0207 -0.6050
  594MOL0     C81844   9.472   1.016   1.701 -1.0095 -0.9040 -0.2275
  594MOL0     C81845   9.550   1.092   1.810 -0.2516 -0.2150 -0.0988
  594MOL0     C81846   9.631   1.006   1.913  0.0876 -0.0618 -0.1945
  594MOL0     C81847   9.719   1.105   1.997 -1.0675 -0.0759 -0.3448
  594MOL0     C81848   9.820   1.016   2.085 -0.4346 -0.8165 -0.0921
  594MOL0     C81849   9.899   1.103   2.197  0.0555  0.7297  0.5767
  594MOL0     C81850   9.819   1.124   2.329 -0.1608  0.4625 -0.5152
  594MOL0     N81851   9.843   1.017   2.430  0.2235  0.3708 -1.0529
  594MOL0     C81852   9.771   0.898   2.428  0.3248  0.2005  0.2023
  594MOL0     C81853   9.835   0.831   2.526  0.7795  0.6997 -0.2687
  594MOL0     C81854   9.824   0.680   2.543  0.2043  1.2063  0.8486
  594MOL0     C81855   9.934   0.595   2.466  0.0415  0.0926 -0.1725
  594MOL0     C81856  10.070   0.586   2.545  1.0226 -0.7228  0.1525
  594MOL0     C81857  10.175   0.699   2.523  0.4134 -0.6019 -1.2019
  594MOL0     O81858  10.187   0.745   2.392  0.1164  0.1342  1.1977
  594MOL0     C81859  10.268   0.857   2.362  0.2908  0.5000  0.3814
  594MOL0     C81860  10.258   0.913   2.236  0.6508  0.4065 -0.6623
  594MOL0     C81861  10.329   1.030   2.201  0.1955 -0.0600 -0.2364
  594MOL0     C81862  10.302   1.090   2.055  0.9067  0.8318  0.0365
  594MOL0     C81863  10.438   1.072   2.283 -0.5778  0.2628  0.0581
  594MOL0     C81864  10.518   1.192   2.257  0.9693 -1.0105 -0.0118
  594MOL0     O81865  10.616   1.218   2.350  0.1470  0.5520  0.0049
  594MOL0     C81866  10.689   1.327   2.322 -0.2972 -0.1053  0.0827
  594MOL0     C81867  10.797   1.313   2.246 -0.6244  0.4086  0.5788
  594MOL0     C81868  10.879   1.426   2.216 -0.7093  0.0254  0.7745
  594MOL0     C81869  10.832   1.557   2.252 -0.4389 -0.3817 -0.7235
  594MOL0     O81870  10.894   1.677   2.231  0.2375  0.0986  0.4917
  594MOL0     C81871  11.038   1.667   2.184 -0.7117 -0.1747  0.8204
  594MOL0     C81872  11.070   1.644   2.032  0.7135  0.3046  0.6169
  594MOL0     C81873  11.037   1.771   1.954 -0.2804  0.0657  0.5480
  594MOL0     C81874  11.008   1.757   1.798  0.3340  0.3475 -0.6869
  594MOL0     C81875  11.002   1.884   1.715 -0.3140  0.2012 -0.3719
  594MOL0     C81876  11.130   1.964   1.691  0.3509 -0.8452  0.0475
  594MOL0     C81877  11.104   2.074   1.591 -0.4842 -0.1511 -0.2152
  594MOL0     C81878  11.222   2.173   1.565  0.9975  0.2320 -0.3537
  594MOL0    Cl81879  11.156   2.290   1.450  0.0349 -0.3851  0.1106
  594MOL0     C81880  10.733   1.568   2.344  0.1681 -0.5533  0.0514
  594MOL0     C81881  10.661   1.446   2.378 -0.2527 -0.5955 -0.4601
  594MOL0     O81882  10.499   1.263   2.159  0.3925  0.2406  0.5339
  594MOL0     C81883  10.459   1.002   2.401 -0.6706  0.5313 -0.4930
  594MOL0     C81884  10.375   0.904   2.439 -0.0576  0.5042 -0.4404
  594MOL0     N81885   9.920   0.917   2.595 -0.4627  1.4984 -0.3172
  594MOL0     N81886   9.932   1.022   2.531  0.5128  0.1460  0.7788
  594MOL0     C81887   9.224   1.066   1.491 -0.0492  0.1170 -0.0778
  594MOL0     C81888   9.195   1.091   1.358 -0.8866 -0.1895  0.6641
  594MOL0     C81889   9.199   1.078   0.890  0.1565 -0.1323 -0.1158
  594MOL0     C81890   9.075   1.155   0.880 -0.0970 -0.6127  0.2785
  594MOL0     C81891   9.041   1.208   0.759 -0.1541 -0.4986 -0.7086
  594MOL0     C81892   9.105   1.181   0.637 -0.2108  0.2370  0.0423
  594MOL0     O81893   9.072   1.231   0.518  0.1764 -0.6828 -0.4361
  594MOL0     C81894   9.088   1.162   0.392  0.7150 -1.0702  0.7617
  594MOL0     C81895   8.993   1.232   0.292  0.1614 -0.2419  0.3054
  594MOL0     C81896   8.999   1.149   0.162 -0.0227  0.5579 -0.6051
  594MOL0     C81897   8.903   1.204   0.051 -0.3132  0.4421 -0.2061
  594MOL0     C81898   8.762   1.169   0.089  1.5866 -0.0656  0.9719
  594MOL0     C81899   8.658   1.137   0.147  0.2069  0.5660  0.8340
  594MOL0     C81900   9.227   1.118   0.650 -0.5873  0.5941  0.7038
  594MOL0     C81901   9.275   1.074   0.770 -0.6615 -0.6339  0.5663
  594MOL0     C81902   9.417   1.018   0.771 -0.4115  0.2795  0.4826
  594MOL0     H81903   9.215   0.779   1.228 -1.0716 -0.8327  1.3271
  594MOL0     H81904   9.282   0.740   1.468  1.3427  0.5083 -0.9637
  594MOL0     H81905   9.317   0.958   1.845 -0.8449  0.9938 -0.6808
  594MOL0     H81906   9.273   1.094   1.753 -0.5290  0.6143  2.7669
  594MOL0     H81907   9.525   0.922   1.681  0.4721  0.0067 -0.7120
  594MOL0     H81908   9.469   1.083   1.615  0.2998 -0.1104  0.3185
  594MOL0     H81909   9.627   1.150   1.758  0.8210 -2.3650 -0.9853
  594MOL0     H81910   9.473   1.158   1.851 -3.6651 -3.5747 -0.5191
  594MOL0     H81911   9.556   0.955   1.975  0.0322 -1.5956 -1.4733
  594MOL0     H81912   9.688   0.925   1.868  0.8057  1.1341 -1.5297
  594MOL0     H81913   9.658   1.162   2.068 -1.9171 -0.6156 -0.6398
  594MOL0     H81914   9.758   1.186   1.934 -0.4672 -1.1039 -1.3203
  594MOL0     H81915   9.761   0.941   2.138 -2.0439 -0.7867 -1.7566
  594MOL0     H81916   9.899   0.986   2.016  1.5961  1.5966  1.0186
  594MOL0     H81917   9.935   1.195   2.149  0.4040 -0.5207 -1.7063
  594MOL0     H81918   9.992   1.050   2.220 -0.0452  0.4595  0.3626
  594MOL0     H81919   9.853   1.220   2.369  1.6054 -1.2885  2.5994
  594MOL0     H81920   9.716   1.120   2.293 -0.1261 -1.6171 -0.4999
  594MOL0     H81921   9.706   0.872   2.345 -1.0792 -0.3104  1.4253
  594MOL0     H81922   9.729   0.647   2.499  2.3714 -0.6209 -2.9297
  594MOL0     H81923   9.828   0.668   2.651  0.6579  1.6848  0.8880
  594MOL0     H81924   9.901   0.492   2.448 -1.2215  0.6423 -1.1808
  594MOL0     H81925   9.947   0.647   2.370 -1.3816  1.3986  0.2960
  594MOL0     H81926  10.034   0.597   2.648 -1.2295  5.3906 -0.8737
  594MOL0     H81927  10.121   0.489   2.543  0.3402 -1.1477  1.7149
  594MOL0     H81928  10.149   0.787   2.582 -0.5741 -0.2457 -2.1190
  594MOL0     H81929  10.271   0.656   2.554 -0.3207 -2.7202 -1.6748
  594MOL0     H81930  10.200   0.866   2.158  0.4637  0.7869 -0.7575
  594MOL0     H81931  10.381   1.076   1.980  0.4697  2.7704 -0.8426
  594MOL0     H81932  10.254   1.188   2.065 -3.4849 -1.0338 -0.5887
  594MOL0     H81933  10.212   1.037   2.024 -1.8880  4.7640  0.6766
  594MOL0     H81934  10.811   1.209   2.218 -0.7810 -0.2627  2.8060
  594MOL0     H81935  10.968   1.412   2.155  0.4134  0.4181  2.2599
  594MOL0     H81936  11.086   1.762   2.208  1.6876 -0.6175 -1.6643
  594MOL0     H81937  11.098   1.593   2.237 -1.7062  0.1014  2.3967
  594MOL0     H81938  11.178   1.627   2.024  1.0038  1.1547  2.2609
  594MOL0     H81939  11.015   1.558   1.993 -0.7086  0.8615  1.3158
  594MOL0     H81940  11.117   1.845   1.970  0.4327 -0.8483  1.3863
  594MOL0     H81941  10.944   1.811   1.996  0.2595 -1.9755  4.1406
  594MOL0     H81942  10.914   1.701   1.794  0.9942 -1.2807  2.9084
  594MOL0     H81943  11.082   1.688   1.757  0.6410  0.9596 -1.1748
  594MOL0     H81944  10.969   1.859   1.613  0.7799 -2.3714 -0.1910
  594MOL0     H81945  10.932   1.956   1.757  1.5094  2.9937 -1.7738
  594MOL0     H81946  11.211   1.911   1.642 -0.1025  1.4289 -3.5730
  594MOL0     H81947  11.161   1.998   1.790  1.5970 -4.8363  1.1774
  594MOL0     H81948  11.021   2.135   1.627 -0.0861 -0.7555  1.8807
  594MOL0     H81949  11.084   2.028   1.493 -1.1630  2.7587 -1.5706
  594MOL0     H81950  11.312   2.127   1.523  1.4290  2.1960 -1.7230
  594MOL0     H81951  11.257   2.224   1.655  0.6168  0.5982 -0.4099
  594MOL0     H81952  10.701   1.659   2.394 -0.6398 -1.1725  0.6965
  594MOL0     H81953  10.584   1.457   2.454  1.2059 -0.2745  1.0328
  594MOL0     H81954  10.533   1.039   2.472 -0.1000  0.5719 -1.1017
  594MOL0     H81955  10.400   0.868   2.538  4.7867  1.0067 -1.2372
  594MOL0     H81956   9.208   1.158   1.548 -3.0134  1.7797 -3.2617
  594MOL0     H81957   9.161   1.189   1.325 -0.8072 -0.1737  0.6293
  594MOL0     H81958   9.004   1.177   0.959 -0.9078  4.2840 -1.4876
  594MOL0     H81959   8.951   1.267   0.744  0.0462 -0.3379 -1.3354
  594MOL0     H81960   9.192   1.159   0.358  1.1085  2.8979  1.1713
  594MOL0     H81961   9.056   1.057   0.398  1.3388 -1.3210 -0.1081
  594MOL0     H81962   9.026   1.334   0.269  0.8296 -0.5092  0.0651
  594MOL0     H81963   8.889   1.223   0.323 -0.2475  2.3715 -0.0728
  594MOL0     H81964   9.102   1.161   0.128  0.4551  1.4511  1.0491
  594MOL0     H81965   8.982   1.046   0.195 -2.1542  1.3382  1.0241
  594MOL0     H81966   8.937   1.155  -0.041  2.2743 -1.9185  1.8402
  594MOL0     H81967   8.915   1.313   0.038 -0.6078  0.4627 -0.3025
  594MOL0     H81968   8.578   1.078   0.187  0.6260 -0.1793  0.6123
  594MOL0     H81969   9.286   1.108   0.560 -1.8361  2.3575 -0.3956
  594MOL0     H81970   9.480   1.059   0.691  0.7233 -2.2987 -0.0326
  594MOL0     H81971   9.475   1.034   0.862 -0.9585 -5.4660  2.2237
  594MOL0     H81972   9.406   0.910   0.754 -2.1190  0.4161  0.4722
  595MOL0     O81973   8.162   2.957   0.568  0.3840 -0.3326 -0.9459
  595MOL0     C81974   8.198   2.886   0.476  0.3754  0.7507  0.4118
  595MOL0     O81975   8.124   2.825   0.383  0.3268 -0.2251  0.4290
  595MOL0     C81976   7.983   2.823   0.397 -0.2054 -0.7172  0.0983
  595MOL0     C81977   7.918   2.783   0.516 -0.4170 -0.2301 -0.1853
  595MOL0     C81978   7.772   2.790   0.519 -0.3697 -0.3935 -1.1051
  595MOL0     C81979   7.692   2.837   0.416  0.3232 -0.1860  0.6271
  595MOL0     O81980   7.560   2.840   0.426  0.4314  0.1119 -1.0399
  595MOL0     C81981   7.492   2.922   0.333 -0.4896 -0.0051  0.2783
  595MOL0     C81982   7.339   2.904   0.334 -0.5968 -0.5676  0.1991
  595MOL0     C81983   7.282   2.786   0.247 -0.4756 -0.6688  0.4950
  595MOL0     C81984   7.268   2.836   0.103 -0.0094  0.2406 -0.6254
  595MOL0     C81985   7.239   2.715   0.008 -0.5270 -0.1690 -0.4667
  595MOL0     C81986   7.358   2.620  -0.018 -0.3181 -0.1835 -0.3084
  595MOL0     C81987   7.481   2.675  -0.097 -0.5831  0.0418  0.3567
  595MOL0     C81988   7.602   2.580  -0.102 -0.9342 -0.4250 -1.0529
  595MOL0     N81989   7.571   2.476  -0.197 -0.9733  0.2703 -0.3880
  595MOL0     C81990   7.615   2.477  -0.324  0.0249  0.7556  0.3097
  595MOL0     C81991   7.584   2.356  -0.383  0.7043  0.0447 -0.0672
  595MOL0     C81992   7.608   2.321  -0.526  1.1266  0.2165 -0.2544
  595MOL0     C81993   7.608   2.166  -0.552 -1.4889  0.1741  0.4472
  595MOL0     C81994   7.753   2.104  -0.534 -0.5361  0.2458  0.1865
  595MOL0     C81995   7.833   2.124  -0.660  0.1174  0.3694 -0.0102
  595MOL0     O81996   7.976   2.084  -0.637  1.0161  0.0222  0.0708
  595MOL0     C81997   8.063   2.084  -0.744  0.8768  0.0423  0.3566
  595MOL0     C81998   8.192   2.023  -0.734  0.7744 -0.6401  0.7402
  595MOL0     C81999   8.259   1.989  -0.851 -0.2116  0.1522  0.1649
  595MOL0     C82000   8.390   1.919  -0.829 -0.9455  0.9791 -0.4128
  595MOL0     C82001   8.211   2.019  -0.979 -1.7084 -0.4476  0.2310
  595MOL0     C82002   8.283   1.979  -1.101 -0.5195 -0.8497 -0.5181
  595MOL0     O82003   8.269   1.847  -1.140 -0.2938 -0.8366  0.3168
  595MOL0     C82004   8.279   1.834  -1.278 -0.2585 -0.0461 -0.0276
  595MOL0     C82005   8.344   1.723  -1.330  0.7743 -0.3612  0.4316
  595MOL0     C82006   8.369   1.700  -1.470  0.2186 -0.4038 -0.6980
  595MOL0     C82007   8.308   1.783  -1.569 -0.7193 -0.1425  0.6574
  595MOL0     O82008   8.313   1.753  -1.705 -0.1914  0.2042 -0.2032
  595MOL0     C82009   8.217   1.814  -1.796 -0.4572 -0.1198 -0.5606
  595MOL0     C82010   8.294   1.907  -1.897  0.3182 -0.0961  0.8764
  595MOL0     C82011   8.439   1.933  -1.863  0.3804  0.3543 -0.2386
  595MOL0     C82012   8.508   2.008  -1.983  0.7848 -0.4684 -1.5846
  595MOL0     C82013   8.651   2.038  -1.965  0.2456 -0.8827  0.1076
  595MOL0     C82014   8.734   1.901  -1.966 -0.5545 -1.1609  0.2247
  595MOL0     C82015   8.707   1.814  -2.087 -0.1132 -0.8457  0.1302
  595MOL0     C82016   8.823   1.711  -2.122  0.2873 -0.0734 -0.5475
  595MOL0    Cl82017   8.854   1.611  -1.969 -0.0806 -0.4461 -0.0099
  595MOL0     C82018   8.241   1.901  -1.515 -0.5373 -1.2671 -0.2685
  595MOL0     C82019   8.224   1.918  -1.374  0.2221 -0.1214  0.9574
  595MOL0     O82020   8.338   2.073  -1.161  0.1783  0.1369  0.1234
  595MOL0     C82021   8.091   2.081  -0.985  0.7850  0.1715 -0.5416
  595MOL0     C82022   8.021   2.115  -0.871 -1.0982  0.7060  0.3431
  595MOL0     N82023   7.539   2.277  -0.279 -0.1180 -0.5247 -0.0191
  595MOL0     N82024   7.528   2.351  -0.178  0.4056 -0.7112 -0.9701
  595MOL0     C82025   7.765   2.858   0.294 -0.3044  0.4007 -0.8912
  595MOL0     C82026   7.907   2.854   0.285 -0.5197  0.6250 -1.1969
  595MOL0     C82027   8.343   2.839   0.476 -0.4897 -0.9338  0.4729
  595MOL0     C82028   8.385   2.731   0.402  0.9674  0.2623  1.1089
  595MOL0     C82029   8.510   2.674   0.410  0.3390  0.3193  0.2359
  595MOL0     C82030   8.606   2.736   0.482  0.3458  0.0094  0.0580
  595MOL0     O82031   8.738   2.694   0.485 -0.7345 -0.2802 -0.2471
  595MOL0     C82032   8.795   2.716   0.355 -0.3999  1.1977  0.5575
  595MOL0     C82033   8.945   2.755   0.374 -0.8950  0.6733 -0.4008
  595MOL0     C82034   9.043   2.642   0.399 -0.0122  0.9002  0.3920
  595MOL0     C82035   9.023   2.552   0.522  0.5839  0.3115  0.1832
  595MOL0     C82036   9.142   2.461   0.527 -0.0917 -0.8027  0.0615
  595MOL0     C82037   9.250   2.411   0.540  0.2417 -0.0454 -0.0652
  595MOL0     C82038   8.576   2.854   0.545  0.4254 -0.0304 -0.2472
  595MOL0     C82039   8.449   2.918   0.546  0.3526  0.2363  0.6314
  595MOL0     C82040   8.424   3.052   0.618 -0.3715  0.0603  0.0582
  595MOL0     H82041   7.976   2.758   0.604 -2.6963 -0.3992  1.3385
  595MOL0     H82042   7.726   2.741   0.605  1.7073 -2.2167 -0.9424
  595MOL0     H82043   7.517   2.910   0.228 -2.5376  1.0806 -0.3828
  595MOL0     H82044   7.523   3.024   0.359  2.7738 -0.6863 -0.5150
  595MOL0     H82045   7.284   2.895   0.428  2.1021 -1.3392  1.7937
  595MOL0     H82046   7.307   3.001   0.295  1.3964  0.1151  0.1660
  595MOL0     H82047   7.346   2.698   0.261  0.5067 -0.0301  0.1864
  595MOL0     H82048   7.189   2.740   0.282 -0.7581 -3.0980 -2.9547
  595MOL0     H82049   7.181   2.903   0.099 -0.7814 -0.7327 -0.3417
  595MOL0     H82050   7.360   2.886   0.070  0.7804 -1.2543 -0.7904
  595MOL0     H82051   7.211   2.751  -0.091  0.7415 -1.5945 -1.3997
  595MOL0     H82052   7.150   2.666   0.046  0.1594 -0.2058  1.1892
  595MOL0     H82053   7.400   2.580   0.074 -0.7800 -2.8219 -1.1594
  595MOL0     H82054   7.320   2.540  -0.082 -0.4023 -0.3827 -0.0079
  595MOL0     H82055   7.517   2.766  -0.049 -2.2980 -0.7156  3.3210
  595MOL0     H82056   7.469   2.704  -0.202 -1.1847 -1.6973 -0.0932
  595MOL0     H82057   7.695   2.627  -0.138 -0.6478  0.3398  0.6237
  595MOL0     H82058   7.613   2.524  -0.009  0.2561 -1.3002 -1.6893
  595MOL0     H82059   7.650   2.557  -0.388  0.1928  1.6190  1.4515
  595MOL0     H82060   7.704   2.363  -0.559  1.1139  1.3957  1.1152
  595MOL0     H82061   7.526   2.352  -0.591  1.7820 -1.2551 -1.8511
  595MOL0     H82062   7.519   2.117  -0.512 -1.2672  0.6504  1.5595
  595MOL0     H82063   7.585   2.148  -0.657  0.9360  1.1129 -0.3051
  595MOL0     H82064   7.812   2.141  -0.450  0.6006 -1.0342 -0.0233
  595MOL0     H82065   7.720   2.004  -0.505 -2.0738  1.0323  1.2867
  595MOL0     H82066   7.780   2.075  -0.743  1.4007 -1.2398  0.0613
  595MOL0     H82067   7.832   2.227  -0.696 -1.1756 -0.6676 -3.3147
  595MOL0     H82068   8.219   1.993  -0.633  0.7730 -1.0086  0.6324
  595MOL0     H82069   8.462   1.995  -0.798  0.4824 -0.2882 -0.4839
  595MOL0     H82070   8.428   1.861  -0.913 -2.2707  1.3544 -1.3008
  595MOL0     H82071   8.369   1.844  -0.752 -0.3821  1.6177  0.3768
  595MOL0     H82072   8.380   1.651  -1.258 -2.1783  0.4835  2.9963
  595MOL0     H82073   8.408   1.605  -1.504 -0.4251  0.3230 -3.7509
  595MOL0     H82074   8.169   1.738  -1.859 -0.5659 -1.7590  1.3869
  595MOL0     H82075   8.135   1.873  -1.755  0.2653  1.3731 -1.2049
  595MOL0     H82076   8.284   1.868  -1.998 -1.0613 -2.2627  1.7675
  595MOL0     H82077   8.245   2.005  -1.899 -1.2506 -0.8526 -0.3888
  595MOL0     H82078   8.498   1.846  -1.832 -0.3869 -0.1933 -0.2946
  595MOL0     H82079   8.438   1.997  -1.775 -1.1072 -2.9261  2.3362
  595MOL0     H82080   8.451   2.100  -2.000 -2.0656 -2.0504 -1.2405
  595MOL0     H82081   8.490   1.953  -2.077  1.9056  1.0734 -2.7496
  595MOL0     H82082   8.683   2.098  -2.051  1.4680 -0.5006  0.8091
  595MOL0     H82083   8.676   2.095  -1.875 -0.9835 -1.0922  0.5978
  595MOL0     H82084   8.711   1.843  -1.876  2.5974 -1.1321  1.1830
  595MOL0     H82085   8.841   1.926  -1.967 -0.3997 -1.8157  0.2629
  595MOL0     H82086   8.691   1.886  -2.168 -0.7319  0.2250  1.1683
  595MOL0     H82087   8.609   1.765  -2.076 -0.6281 -0.0902 -0.8880
  595MOL0     H82088   8.915   1.768  -2.136  0.7073 -0.0605  1.8070
  595MOL0     H82089   8.795   1.651  -2.209 -1.1563  0.8867 -0.7748
  595MOL0     H82090   8.185   1.968  -1.581 -1.4852 -1.2120  0.5649
  595MOL0     H82091   8.167   2.007  -1.351  0.2085  0.5919 -1.5117
  595MOL0     H82092   8.038   2.111  -1.075 -3.6514  1.0295  2.0611
  595MOL0     H82093   7.928   2.165  -0.893 -0.5001  1.6321 -0.1747
  595MOL0     H82094   7.735   2.886   0.194  1.2184  1.4372 -1.0987
  595MOL0     H82095   7.963   2.885   0.197  2.9811 -2.5097 -0.3211
  595MOL0     H82096   8.316   2.677   0.340  1.2386  1.2573 -0.1083
  595MOL0     H82097   8.526   2.579   0.362 -0.6978 -1.3702  2.9811
  595MOL0     H82098   8.783   2.628   0.291  1.4992  1.5303 -0.3226
  595MOL0     H82099   8.739   2.796   0.305 -1.1531 -0.5750 -1.6263
  595MOL0     H82100   8.952   2.823   0.460 -2.6048 -1.0157  1.1642
  595MOL0     H82101   8.984   2.802   0.284  1.1487 -2.7297 -1.4612
  595MOL0     H82102   9.045   2.580   0.309  0.9714 -0.3481  1.2373
  595MOL0     H82103   9.140   2.691   0.410  1.0676 -0.3934 -2.5372
  595MOL0     H82104   8.927   2.498   0.518  1.8563 -2.0872 -0.1503
  595MOL0     H82105   9.027   2.616   0.611  2.4468 -0.3194  0.6097
  595MOL0     H82106   9.339   2.355   0.563  0.3058  0.5654  1.2957
  595MOL0     H82107   8.665   2.902   0.585  0.4289 -1.2124  1.2420
  595MOL0     H82108   8.380   3.030   0.715 -0.2255 -0.5444 -0.0077
  595MOL0     H82109   8.519   3.101   0.641  1.5966 -2.9427 -1.0475
  595MOL0     H82110   8.363   3.122   0.561  2.0888  1.2283 -1.3139
  596MOL0     O82111   9.415   9.022   6.773 -0.4067 -0.3074 -0.7652
  596MOL0     C82112   9.353   9.094   6.695 -1.0143 -0.3302 -0.7526
  596MOL0     O82113   9.216   9.122   6.701 -0.2885 -0.3290 -0.1715
  596MOL0     C82114   9.131   9.058   6.781 -1.3149 -1.1610 -0.9377
  596MOL0     C82115   9.143   9.053   6.920  0.6752  0.1806 -0.5257
  596MOL0     C82116   9.041   8.982   6.985 -0.0633 -0.1119 -0.6685
  596MOL0     C82117   8.939   8.915   6.922  0.4143 -0.2556  0.2989
  596MOL0     O82118   8.851   8.836   6.988 -0.0637  0.2697 -1.4075
  596MOL0     C82119   8.782   8.901   7.091 -0.3094  0.0704  0.4155
  596MOL0     C82120   8.637   8.845   7.099  0.3538  0.7892 -0.7144
  596MOL0     C82121   8.546   8.895   6.994  1.3031 -1.4116  0.3396
  596MOL0     C82122   8.409   8.838   7.000  0.2237 -0.2494  0.1767
  596MOL0     C82123   8.332   8.900   7.110 -0.2169  0.2597 -0.5250
  596MOL0     C82124   8.183   8.852   7.098  0.9228  0.5757  0.3078
  596MOL0     C82125   8.171   8.711   7.160 -0.3600 -0.8504  0.1539
  596MOL0     C82126   8.031   8.651   7.139  0.6869 -0.6515  0.2895
  596MOL0     N82127   8.002   8.600   7.000 -0.5328  0.2606 -0.1717
  596MOL0     C82128   8.040   8.484   6.958 -0.9061 -0.6222 -0.9992
  596MOL0     C82129   8.040   8.489   6.822 -0.1102  0.4130  1.0876
  596MOL0     C82130   8.100   8.381   6.734  0.0554  0.2904  0.1311
  596MOL0     C82131   8.237   8.429   6.668  0.5317 -0.4450  0.1708
  596MOL0     C82132   8.303   8.327   6.577  0.1692  0.4980  0.4990
  596MOL0     C82133   8.234   8.326   6.438  0.0212  0.3026  0.1263
  596MOL0     O82134   8.130   8.232   6.448  0.1237 -0.1503  0.2747
  596MOL0     C82135   8.147   8.103   6.421 -0.6192  0.4172  0.5453
  596MOL0     C82136   8.031   8.014   6.406 -0.7880  0.0597  0.2232
  596MOL0     C82137   8.037   7.883   6.384  0.5069 -0.4072 -0.3259
  596MOL0     C82138   7.914   7.798   6.376  0.5047  0.0716  0.1445
  596MOL0     C82139   8.172   7.831   6.371 -0.7943  0.3474 -0.1116
  596MOL0     C82140   8.197   7.687   6.347 -0.4222  1.0954  0.4957
  596MOL0     O82141   8.289   7.634   6.431 -0.0207  0.3097  0.5512
  596MOL0     C82142   8.336   7.505   6.409  0.0940  0.1483 -0.1777
  596MOL0     C82143   8.469   7.485   6.373  0.0886 -0.5932 -0.6704
  596MOL0     C82144   8.525   7.361   6.343  0.0957  0.9381 -0.3652
  596MOL0     C82145   8.439   7.248   6.328 -0.5844  0.2526  1.4828
  596MOL0     O82146   8.475   7.128   6.278  0.0135 -0.2325 -0.4749
  596MOL0     C82147   8.606   7.084   6.285 -0.0295 -0.4158  0.1612
  596MOL0     C82148   8.605   6.932   6.278  0.7125 -0.0115 -0.6578
  596MOL0     C82149   8.735   6.884   6.213  0.0691  0.2738  0.6483
  596MOL0     C82150   8.863   6.885   6.294  0.1684  0.3977 -0.5300
  596MOL0     C82151   8.983   6.838   6.212  0.1293 -0.4372  0.3742
  596MOL0     C82152   9.036   6.942   6.104  0.0060  0.0999 -0.3701
  596MOL0     C82153   9.171   6.902   6.030  0.5096 -0.3912 -1.2025
  596MOL0     C82154   9.172   6.976   5.888  0.6125  0.4395  0.1438
  596MOL0    Cl82155   9.341   7.028   5.853 -0.1705  0.2193 -0.3303
  596MOL0     C82156   8.309   7.261   6.359 -0.0572  0.3527  1.3530
  596MOL0     C82157   8.260   7.387   6.392 -0.0862  0.0598 -0.3838
  596MOL0     O82158   8.155   7.634   6.240  0.3687 -0.1582 -0.2480
  596MOL0     C82159   8.290   7.908   6.373  0.6617 -0.5218 -0.0322
  596MOL0     C82160   8.271   8.042   6.406 -0.2552 -0.6192 -0.0004
  596MOL0     N82161   7.979   8.610   6.797 -0.3988 -0.0097  0.0241
  596MOL0     N82162   7.967   8.675   6.901 -0.8300 -0.0110 -0.5356
  596MOL0     C82163   8.943   8.906   6.779 -0.0029 -0.0866 -0.8538
  596MOL0     C82164   9.033   8.987   6.713 -0.3711  0.0566 -0.1144
  596MOL0     C82165   9.439   9.182   6.612  0.1665 -0.4035  0.4686
  596MOL0     C82166   9.381   9.299   6.560  1.1347  0.0284  1.7033
  596MOL0     C82167   9.444   9.394   6.484  0.2440 -0.0189  0.8215
  596MOL0     C82168   9.586   9.381   6.470  0.4939  0.7018 -0.4228
  596MOL0     O82169   9.651   9.496   6.419  1.0635  0.2543 -0.5184
  596MOL0     C82170   9.794   9.505   6.387 -0.2228  0.0161  0.0211
  596MOL0     C82171   9.812   9.464   6.239 -0.0023  0.6902  0.3278
  596MOL0     C82172   9.920   9.543   6.173  0.4487  0.1605 -0.4052
  596MOL0     C82173   9.983   9.490   6.048  0.1580 -0.5531 -0.4313
  596MOL0     C82174  10.061   9.371   6.057 -0.3726 -0.0913  0.2842
  596MOL0     C82175  10.140   9.279   6.059 -0.6024 -0.1640  0.0614
  596MOL0     C82176   9.649   9.265   6.524 -0.3264  0.1232 -0.5656
  596MOL0     C82177   9.580   9.168   6.587 -0.4090 -0.3591 -0.4628
  596MOL0     C82178   9.661   9.054   6.633  0.2690  0.9427  1.1629
  596MOL0     H82179   9.228   9.091   6.977  1.0129 -0.1115 -0.8292
  596MOL0     H82180   9.035   8.969   7.093 -1.7162 -1.6603 -0.8891
  596MOL0     H82181   8.777   9.008   7.064  2.3934 -0.0455 -0.8572
  596MOL0     H82182   8.833   8.876   7.184  1.0191  0.8439 -0.0788
  596MOL0     H82183   8.663   8.739   7.092  2.9168  1.1656  1.1918
  596MOL0     H82184   8.592   8.858   7.198 -2.3725  0.2379 -1.7936
  596MOL0     H82185   8.538   9.004   6.998  0.8593 -1.4574  0.8765
  596MOL0     H82186   8.591   8.877   6.896  2.1970  0.7257  0.2960
  596MOL0     H82187   8.362   8.856   6.903 -1.7456  1.5497  1.3763
  596MOL0     H82188   8.410   8.729   7.010 -2.0956 -0.3785 -0.5652
  596MOL0     H82189   8.325   9.008   7.093 -0.5259  0.3077 -0.1221
  596MOL0     H82190   8.370   8.872   7.209  0.0291  2.7721  0.1507
  596MOL0     H82191   8.117   8.920   7.153  1.7454  0.9683  0.8199
  596MOL0     H82192   8.150   8.857   6.993 -3.3206 -0.8129  1.3637
  596MOL0     H82193   8.176   8.722   7.269  0.4765  0.9853 -0.0496
  596MOL0     H82194   8.258   8.651   7.135 -0.1960 -0.7331  0.4343
  596MOL0     H82195   8.023   8.569   7.211  2.3689 -4.8393 -3.7993
  596MOL0     H82196   7.952   8.719   7.173 -1.1676 -2.5625  0.0163
  596MOL0     H82197   8.096   8.417   7.022  1.3075  1.0584 -1.0584
  596MOL0     H82198   8.029   8.367   6.651 -0.8310  1.9423  0.5689
  596MOL0     H82199   8.112   8.287   6.788  0.5765 -0.0304 -0.5247
  596MOL0     H82200   8.211   8.521   6.614 -2.4283 -0.3009  1.6769
  596MOL0     H82201   8.311   8.455   6.745  1.7031 -2.8643 -0.0414
  596MOL0     H82202   8.407   8.359   6.565 -0.4076  1.6892 -1.8478
  596MOL0     H82203   8.298   8.228   6.623 -0.4173  1.2672  2.1360
  596MOL0     H82204   8.206   8.429   6.411  0.4319  0.1767 -0.8283
  596MOL0     H82205   8.306   8.309   6.358 -0.7250  0.0704 -0.5100
  596MOL0     H82206   7.935   8.064   6.415  0.3131  2.6745 -1.5065
  596MOL0     H82207   7.928   7.699   6.420  1.7495  0.9065  1.7019
  596MOL0     H82208   7.882   7.780   6.273  1.6862 -2.6232  0.1595
  596MOL0     H82209   7.835   7.860   6.419  0.2671  1.0178 -1.5625
  596MOL0     H82210   8.546   7.561   6.378  1.7882 -2.1929 -1.4023
  596MOL0     H82211   8.632   7.363   6.321  0.3472  2.7347  0.7449
  596MOL0     H82212   8.668   7.116   6.201  0.3847 -0.2725  0.5180
  596MOL0     H82213   8.659   7.123   6.372 -1.5031  2.1511  0.0110
  596MOL0     H82214   8.599   6.889   6.378  1.6411  1.1443 -0.0800
  596MOL0     H82215   8.515   6.908   6.221 -0.0583  1.1989 -0.0042
  596MOL0     H82216   8.755   6.940   6.121  1.8672 -1.6186 -0.1815
  596MOL0     H82217   8.727   6.778   6.186  2.4176  0.2161 -0.0255
  596MOL0     H82218   8.843   6.804   6.366  2.0243  0.7540  0.4611
  596MOL0     H82219   8.870   6.980   6.348 -3.1330 -0.9104  2.6817
  596MOL0     H82220   9.071   6.822   6.275  2.6344  0.9502 -2.5044
  596MOL0     H82221   8.968   6.741   6.163  0.7985  0.0968 -0.9459
  596MOL0     H82222   9.049   7.038   6.155 -0.5566  0.0524 -0.1326
  596MOL0     H82223   8.954   6.967   6.037 -0.6058  3.4487  1.4108
  596MOL0     H82224   9.182   6.794   6.017 -0.4845 -0.3501 -2.5569
  596MOL0     H82225   9.259   6.932   6.087 -0.2829 -0.7335  0.2422
  596MOL0     H82226   9.109   7.066   5.892  1.9685  1.5134 -1.3172
  596MOL0     H82227   9.139   6.906   5.811  1.7192 -2.6552  2.2697
  596MOL0     H82228   8.240   7.178   6.346 -1.5339  1.3342  2.5983
  596MOL0     H82229   8.154   7.403   6.408 -0.3891  0.6578 -2.6320
  596MOL0     H82230   8.385   7.859   6.353 -0.4725 -2.6287 -0.5871
  596MOL0     H82231   8.361   8.103   6.405  0.0657 -1.0858  0.1058
  596MOL0     H82232   8.873   8.850   6.717 -0.2155  0.4975 -1.1509
  596MOL0     H82233   9.042   8.988   6.605  1.4860 -0.0542  0.0075
  596MOL0     H82234   9.276   9.325   6.558  0.7851 -1.2756  2.7372
  596MOL0     H82235   9.392   9.487   6.463 -0.1910  0.1881  2.6328
  596MOL0     H82236   9.830   9.605   6.411  1.8783 -1.2672  3.0339
  596MOL0     H82237   9.859   9.448   6.454 -0.8813  3.9114  4.4745
  596MOL0     H82238   9.716   9.479   6.188  0.0650 -1.4760 -0.5410
  596MOL0     H82239   9.834   9.357   6.245 -1.3191  0.4622  2.3354
  596MOL0     H82240   9.868   9.632   6.137 -2.1397 -1.9194 -2.1869
  596MOL0     H82241   9.996   9.572   6.247  1.4042 -1.6012 -0.6427
  596MOL0     H82242  10.041   9.566   5.995 -0.7281  2.2887  2.3885
  596MOL0     H82243   9.907   9.468   5.972  0.3157 -0.7964 -0.5213
  596MOL0     H82244  10.211   9.199   6.050  0.4748  1.0020 -4.6839
  596MOL0     H82245   9.756   9.260   6.504 -0.5018  2.4139 -2.6792
  596MOL0     H82246   9.764   9.044   6.598 -0.5454  0.9146 -1.4480
  596MOL0     H82247   9.666   9.055   6.742 -0.0034 -2.0782  1.3103
  596MOL0     H82248   9.615   8.960   6.599  1.0280  1.9393 -3.1951
  597MOL0     O82249   8.992   1.726   4.502  0.1482 -0.0955 -0.5012
  597MOL0     C82250   8.869   1.721   4.492  0.0951  0.9140 -0.3517
  597MOL0     O82251   8.792   1.814   4.446 -0.3213  0.1692  0.7023
  597MOL0     C82252   8.825   1.927   4.374 -0.1895  0.2099  0.2186
  597MOL0     C82253   8.717   1.996   4.326  0.4501  0.5366 -0.0152
  597MOL0     C82254   8.727   2.099   4.241  0.3170  0.3020  0.7582
  597MOL0     C82255   8.850   2.156   4.213  0.2228  0.4789 -0.5960
  597MOL0     O82256   8.882   2.262   4.132 -0.1673  0.0965 -0.1085
  597MOL0     C82257   8.780   2.343   4.071  0.1533 -0.0899 -1.4972
  597MOL0     C82258   8.711   2.434   4.179 -0.4388 -0.7536  0.0679
  597MOL0     C82259   8.586   2.506   4.147  0.2581 -0.5179  0.6368
  597MOL0     C82260   8.461   2.415   4.120  0.4359 -0.0406  0.2511
  597MOL0     C82261   8.357   2.485   4.046  0.4251  0.1471 -0.6578
  597MOL0     C82262   8.231   2.398   4.004  0.6774  0.8612 -1.2357
  597MOL0     C82263   8.120   2.494   3.970  0.2564  0.2230 -0.2817
  597MOL0     C82264   7.978   2.435   4.001  0.3369  0.8609 -0.2684
  597MOL0     N82265   7.867   2.519   3.951 -0.3935  0.7577  0.8617
  597MOL0     C82266   7.833   2.641   3.987 -0.6389 -1.4583 -0.6876
  597MOL0     C82267   7.714   2.666   3.936  0.3481  0.9778  0.9944
  597MOL0     C82268   7.619   2.772   3.964 -0.0384 -0.0669  1.0022
  597MOL0     C82269   7.539   2.756   4.089  0.5602  1.1903 -0.6605
  597MOL0     C82270   7.422   2.868   4.103  0.0880 -0.0510 -0.1141
  597MOL0     C82271   7.321   2.846   4.221  0.0183  0.3599 -1.1566
  597MOL0     O82272   7.205   2.765   4.189  0.0270  0.8904  0.4765
  597MOL0     C82273   7.117   2.754   4.291  0.7322  0.5583  0.2981
  597MOL0     C82274   6.985   2.716   4.257  0.9758 -0.6532 -0.6019
  597MOL0     C82275   6.890   2.697   4.355  0.7182  0.3286  0.1050
  597MOL0     C82276   6.747   2.683   4.311  0.7020 -0.1200  0.5401
  597MOL0     C82277   6.918   2.715   4.494  0.1007  0.0984  0.0281
  597MOL0     C82278   6.822   2.705   4.613  0.4032 -0.5936  0.5664
  597MOL0     O82279   6.734   2.809   4.633 -0.2768 -0.1017 -0.1248
  597MOL0     C82280   6.693   2.844   4.760  0.2161  0.8983  0.5397
  597MOL0     C82281   6.577   2.798   4.817  0.1136 -0.8181 -0.3994
  597MOL0     C82282   6.548   2.822   4.949 -0.8737 -0.2276 -0.9320
  597MOL0     C82283   6.626   2.907   5.031 -0.3852 -0.6874 -0.2242
  597MOL0     O82284   6.608   2.915   5.172  0.1948  0.3395 -0.2105
  597MOL0     C82285   6.472   2.882   5.217 -0.7434  0.6916  0.3881
  597MOL0     C82286   6.477   2.910   5.360  0.0045  0.7003  0.5476
  597MOL0     C82287   6.346   2.879   5.431 -0.5761  0.4760  0.4073
  597MOL0     C82288   6.252   2.996   5.429  0.0539 -0.3287  0.8888
  597MOL0     C82289   6.144   3.014   5.538 -0.2676  0.2255 -1.1318
  597MOL0     C82290   6.046   3.133   5.517 -0.7802 -0.2574 -0.1776
  597MOL0     C82291   5.924   3.109   5.615 -0.3079 -0.4713  0.0833
  597MOL0     C82292   5.812   3.216   5.567 -0.5483  1.0041 -0.0326
  597MOL0    Cl82293   5.697   3.254   5.705  0.5476  0.5876 -0.2007
  597MOL0     C82294   6.745   2.952   4.967  0.2050  0.8205 -1.4272
  597MOL0     C82295   6.774   2.924   4.838  0.0975 -0.4070 -0.3364
  597MOL0     O82296   6.853   2.619   4.694 -0.0966  0.1041  0.5891
  597MOL0     C82297   7.053   2.756   4.520  0.8852  0.2330 -0.5526
  597MOL0     C82298   7.151   2.768   4.426  0.1264 -0.7982  0.7514
  597MOL0     N82299   7.675   2.557   3.856 -0.3652 -0.3702 -0.9214
  597MOL0     N82300   7.770   2.466   3.870  0.0177 -0.2470  0.9955
  597MOL0     C82301   8.965   2.094   4.271  0.5486  0.2879 -0.4614
  597MOL0     C82302   8.948   1.980   4.348 -0.5660 -0.3370  0.5860
  597MOL0     C82303   8.807   1.586   4.530  0.5114  0.1471  0.1456
  597MOL0     C82304   8.892   1.480   4.531 -0.6323 -0.8184  0.2574
  597MOL0     C82305   8.852   1.346   4.555 -0.2737  0.1305 -0.1677
  597MOL0     C82306   8.716   1.326   4.586  0.7156  0.2566 -0.0939
  597MOL0     O82307   8.661   1.204   4.633 -0.1354 -0.4528  1.0335
  597MOL0     C82308   8.747   1.090   4.637 -0.1619  0.0477 -1.1017
  597MOL0     C82309   8.830   1.085   4.766 -0.3280  0.2662  0.1217
  597MOL0     C82310   8.895   0.940   4.772  0.2540  0.3388 -1.5052
  597MOL0     C82311   9.020   0.902   4.684 -0.3757 -1.0511 -0.0462
  597MOL0     C82312   8.997   0.862   4.550  0.1607 -0.4668 -0.8098
  597MOL0     C82313   8.998   0.833   4.435 -0.4226 -0.4930 -0.2410
  597MOL0     C82314   8.632   1.432   4.590 -1.0898  0.3647 -0.2986
  597MOL0     C82315   8.680   1.562   4.575 -0.3898  0.2937  0.3895
  597MOL0     C82316   8.572   1.670   4.587 -0.1519 -0.6876 -0.1230
  597MOL0     H82317   8.618   1.959   4.350 -0.8893  3.3655 -0.8179
  597MOL0     H82318   8.629   2.135   4.209  1.1445  2.9779  0.9616
  597MOL0     H82319   8.705   2.277   4.026  0.0453 -2.3962  1.6484
  597MOL0     H82320   8.821   2.415   4.000  1.1509  1.6573  0.7267
  597MOL0     H82321   8.690   2.372   4.266  2.9060 -0.5281  1.1610
  597MOL0     H82322   8.788   2.508   4.203  0.0313 -1.7073  1.6975
  597MOL0     H82323   8.548   2.564   4.231  0.2055  1.7705 -0.8650
  597MOL0     H82324   8.613   2.558   4.054  2.1144 -1.6027  0.5201
  597MOL0     H82325   8.492   2.330   4.060  1.1618  1.0165 -0.9131
  597MOL0     H82326   8.420   2.372   4.213 -1.1500 -2.8787 -1.6161
  597MOL0     H82327   8.397   2.528   3.954 -1.0027 -0.8947 -1.8258
  597MOL0     H82328   8.332   2.567   4.115  2.9131 -0.8162  1.5737
  597MOL0     H82329   8.257   2.340   3.916  1.5569  1.1845 -1.2001
  597MOL0     H82330   8.213   2.333   4.090  4.5945 -0.5334 -1.2396
  597MOL0     H82331   8.127   2.515   3.863  2.4568  0.0593 -0.2185
  597MOL0     H82332   8.135   2.586   4.027  1.7267  1.2772 -2.2510
  597MOL0     H82333   7.964   2.342   3.944 -0.7581  0.7347  0.1944
  597MOL0     H82334   7.965   2.414   4.108  0.8948 -2.6841 -0.7492
  597MOL0     H82335   7.869   2.718   4.054 -1.0344 -1.0758 -0.9061
  597MOL0     H82336   7.538   2.783   3.891  0.2030  0.6930  0.8431
  597MOL0     H82337   7.681   2.861   3.971 -1.9190  1.1158  5.4807
  597MOL0     H82338   7.483   2.661   4.083 -0.3777  1.7434 -0.8636
  597MOL0     H82339   7.600   2.769   4.178  0.6265  3.3742 -0.9712
  597MOL0     H82340   7.478   2.959   4.125 -1.2725  0.4218  1.6241
  597MOL0     H82341   7.381   2.887   4.003  1.1600  1.2024 -0.3443
  597MOL0     H82342   7.379   2.792   4.297  1.6783  1.0374 -1.8933
  597MOL0     H82343   7.300   2.945   4.263  2.1647  2.0406 -3.7382
  597MOL0     H82344   6.962   2.706   4.151 -0.7053  0.5756 -0.3835
  597MOL0     H82345   6.683   2.770   4.324  0.3861 -0.3276  0.3975
  597MOL0     H82346   6.703   2.593   4.356 -0.0705  0.5506  1.1421
  597MOL0     H82347   6.751   2.666   4.203 -3.1271  1.5253  0.0074
  597MOL0     H82348   6.509   2.738   4.757 -0.4147 -2.9090  2.1178
  597MOL0     H82349   6.454   2.776   4.977 -1.6981  1.9127  0.1155
  597MOL0     H82350   6.410   2.949   5.158  0.4172 -0.6727 -2.6133
  597MOL0     H82351   6.441   2.777   5.209 -3.8305  1.3495  2.0295
  597MOL0     H82352   6.543   2.836   5.407 -0.2194 -0.9221 -1.5518
  597MOL0     H82353   6.504   3.014   5.377  1.2841  0.3225  0.9313
  597MOL0     H82354   6.376   2.866   5.535 -1.7962 -1.2244  0.5760
  597MOL0     H82355   6.299   2.788   5.393  3.4239  0.2051 -4.9763
  597MOL0     H82356   6.209   3.000   5.329 -0.8269  3.9070  1.2525
  597MOL0     H82357   6.305   3.091   5.423  1.1666 -1.0251 -1.0099
  597MOL0     H82358   6.075   2.929   5.536  0.8963 -1.1127  3.5963
  597MOL0     H82359   6.193   3.013   5.636  2.1453  0.1023 -2.2726
  597MOL0     H82360   6.009   3.139   5.415  1.6055 -1.3562 -1.1749
  597MOL0     H82361   6.093   3.231   5.533 -1.3650 -0.0126  0.0741
  597MOL0     H82362   5.955   3.137   5.716 -1.1019 -0.8696  0.4395
  597MOL0     H82363   5.891   3.007   5.632 -3.3604  0.3501 -0.2790
  597MOL0     H82364   5.764   3.179   5.476 -0.4058  1.1959 -0.1873
  597MOL0     H82365   5.860   3.309   5.535  1.5145  0.7997  2.2009
  597MOL0     H82366   6.815   3.013   5.023 -1.9663  2.3435 -0.2224
  597MOL0     H82367   6.868   2.958   4.794 -0.1272  2.2282  0.9610
  597MOL0     H82368   7.085   2.778   4.621 -1.0544 -0.0795  0.1683
  597MOL0     H82369   7.247   2.804   4.460 -0.3057 -1.2459  2.5476
  597MOL0     H82370   9.062   2.125   4.234 -0.0719 -0.3060 -2.7740
  597MOL0     H82371   9.028   1.922   4.394 -1.1335 -0.2305  1.7434
  597MOL0     H82372   8.992   1.487   4.489 -0.4504 -1.2558  0.6015
  597MOL0     H82373   8.923   1.264   4.553 -0.5805 -0.1322 -0.2095
  597MOL0     H82374   8.683   1.002   4.623  1.2976 -0.6998 -3.9062
  597MOL0     H82375   8.809   1.089   4.547 -0.1542 -2.4672 -1.1487
  597MOL0     H82376   8.778   1.116   4.857 -2.6464  0.5718 -1.2294
  597MOL0     H82377   8.915   1.155   4.758  0.2453 -0.5300 -1.1317
  597MOL0     H82378   8.917   0.917   4.877  0.2725  0.3822 -1.4990
  597MOL0     H82379   8.812   0.872   4.752 -2.2219  2.9356 -0.6664
  597MOL0     H82380   9.061   0.822   4.746 -1.7728 -1.6025  0.2017
  597MOL0     H82381   9.083   0.991   4.675 -3.6640  1.4399 -0.3834
  597MOL0     H82382   8.976   0.818   4.331  0.9848 -0.7857 -0.5156
  597MOL0     H82383   8.530   1.414   4.624 -1.1477 -0.4151 -0.8574
  597MOL0     H82384   8.570   1.734   4.499 -4.2050 -1.5578 -0.8986
  597MOL0     H82385   8.472   1.627   4.598 -1.8103  3.3566  2.7203
  597MOL0     H82386   8.583   1.730   4.677  2.5313  1.4337 -1.7187
  598MOL0     O82387   2.444   0.045  10.297 -0.0514 -0.2575  0.6725
  598MOL0     C82388   2.407   0.159  10.311  0.5336  0.5856 -0.8916
  598MOL0     O82389   2.476   0.273  10.277 -0.4619  0.4696 -0.7070
  598MOL0     C82390   2.603   0.247  10.238 -0.5004  0.9787 -0.3413
  598MOL0     C82391   2.653   0.264  10.116 -1.0964 -0.5848  0.6163
  598MOL0     C82392   2.794   0.275  10.091  0.2885  0.2253  0.5251
  598MOL0     C82393   2.878   0.251  10.197 -0.5972 -0.4352  0.5407
  598MOL0     O82394   3.019   0.264  10.175  0.2481 -0.1181 -0.0747
  598MOL0     C82395   3.102   0.153  10.212 -0.5929  0.0530 -0.5070
  598MOL0     C82396   3.256   0.159  10.186 -0.4627  0.6630 -0.3713
  598MOL0     C82397   3.338   0.056  10.270  0.8936  0.8146 -0.4888
  598MOL0     C82398   3.484   0.060  10.214  1.1948  0.2140  0.6638
  598MOL0     C82399   3.507  -0.022  10.085 -0.0786  1.1083 -0.1433
  598MOL0     C82400   3.587  -0.144  10.113 -1.1924  0.5299 -0.1962
  598MOL0     C82401   3.613  -0.239   9.993 -0.0705 -0.2736 -1.0094
  598MOL0     C82402   3.757  -0.292  10.014  0.0023  0.9265  0.0024
  598MOL0     N82403   3.784  -0.404   9.919  0.3744 -0.0628 -0.6015
  598MOL0     C82404   3.720  -0.426   9.801  0.9844  0.1873 -0.1830
  598MOL0     C82405   3.786  -0.537   9.743  0.0989 -0.0368  0.2937
  598MOL0     C82406   3.746  -0.581   9.605 -0.4063  0.5968  0.2987
  598MOL0     C82407   3.785  -0.484   9.497  0.3936  0.3134  0.0156
  598MOL0     C82408   3.932  -0.503   9.482  0.0232  0.2322 -0.5648
  598MOL0     C82409   4.002  -0.377   9.416 -1.0005 -0.3675  0.2508
  598MOL0     O82410   3.961  -0.358   9.284 -0.0214  0.5223  0.0868
  598MOL0     C82411   4.011  -0.266   9.197 -0.7772  0.6335  0.2886
  598MOL0     C82412   3.952  -0.255   9.067  0.6669 -1.1205  0.9376
  598MOL0     C82413   3.998  -0.172   8.966  0.1320  0.0862 -0.4632
  598MOL0     C82414   3.924  -0.169   8.833 -0.3720  0.4486 -0.9910
  598MOL0     C82415   4.103  -0.088   8.994 -0.0766  0.0182 -0.3608
  598MOL0     C82416   4.163   0.008   8.890  0.7023 -0.5285  0.8436
  598MOL0     O82417   4.171   0.131   8.944 -0.6142  0.4175  0.1880
  598MOL0     C82418   4.191   0.244   8.874  0.2489  0.7944 -0.4862
  598MOL0     C82419   4.312   0.308   8.892 -0.4744  0.3223 -0.5150
  598MOL0     C82420   4.318   0.439   8.844 -0.3351  0.1912 -0.2092
  598MOL0     C82421   4.204   0.501   8.777  0.4134 -0.3919 -0.8518
  598MOL0     O82422   4.217   0.637   8.756  0.0844  0.2567  0.4195
  598MOL0     C82423   4.134   0.701   8.658  0.8483 -0.4503  0.7625
  598MOL0     C82424   4.011   0.774   8.728 -0.7433 -0.5833 -0.6906
  598MOL0     C82425   3.901   0.821   8.626  0.6678 -0.6934 -0.2546
  598MOL0     C82426   3.767   0.787   8.688  0.2654 -0.3392 -0.4449
  598MOL0     C82427   3.643   0.781   8.590 -0.1681 -1.1369 -0.7871
  598MOL0     C82428   3.519   0.724   8.646  0.6479 -0.4390 -1.2733
  598MOL0     C82429   3.419   0.696   8.537  0.3259 -0.2773  0.7078
  598MOL0     C82430   3.366   0.824   8.465 -0.4460  0.0374 -0.7790
  598MOL0    Cl82431   3.296   0.939   8.587  0.5870 -0.3952  0.4276
  598MOL0     C82432   4.086   0.428   8.760  0.3946  0.4029 -0.1097
  598MOL0     C82433   4.082   0.291   8.799 -0.0151  0.1962 -0.8869
  598MOL0     O82434   4.193  -0.021   8.771 -0.4223  0.2936  0.6973
  598MOL0     C82435   4.155  -0.090   9.125  0.0685 -1.4344  0.1496
  598MOL0     C82436   4.112  -0.175   9.228  0.4372  0.3646  0.1485
  598MOL0     N82437   3.890  -0.571   9.828  0.4275  0.4623  0.5430
  598MOL0     N82438   3.881  -0.500   9.931 -0.4456  0.5537  0.0489
  598MOL0     C82439   2.830   0.224  10.326  0.1408  0.2523  0.5782
  598MOL0     C82440   2.697   0.213  10.341 -0.2582  0.5436 -0.2795
  598MOL0     C82441   2.266   0.164  10.374 -0.2274  0.0676  0.3453
  598MOL0     C82442   2.208   0.043  10.402  0.6044 -0.8407  0.4150
  598MOL0     C82443   2.080   0.033  10.466  1.0719  0.0119 -0.2862
  598MOL0     C82444   2.017   0.151  10.509 -0.6365 -0.7971 -0.0245
  598MOL0     O82445   1.904   0.147  10.585 -0.3808  0.0737  0.4995
  598MOL0     C82446   1.821   0.268  10.581 -0.0878 -0.5726 -0.7044
  598MOL0     C82447   1.687   0.250  10.627  0.4874 -0.1115  0.3579
  598MOL0     C82448   1.597   0.375  10.603  0.4420  0.9350 -0.0391
  598MOL0     C82449   1.467   0.358  10.664 -0.5525  0.3718 -1.3940
  598MOL0     C82450   1.372   0.454  10.610 -0.1352 -0.0543  0.2671
  598MOL0     C82451   1.296   0.528  10.549  0.3447 -0.1810  0.6873
  598MOL0     C82452   2.085   0.277  10.478 -0.1864 -0.1713 -0.5022
  598MOL0     C82453   2.204   0.291  10.410 -0.0241 -0.0719 -0.4414
  598MOL0     C82454   2.259   0.421  10.386  0.1598 -0.1258 -0.0393
  598MOL0     H82455   2.588   0.278  10.029  1.3761 -2.5041 -1.7211
  598MOL0     H82456   2.821   0.290   9.987 -0.9421 -3.9819 -0.5872
  598MOL0     H82457   3.062   0.057  10.177 -1.3665 -0.0014  0.4656
  598MOL0     H82458   3.090   0.140  10.320 -1.7878  2.4905 -0.2814
  598MOL0     H82459   3.275   0.132  10.081 -0.4002 -1.4027  0.1363
  598MOL0     H82460   3.289   0.260  10.209  2.2479  0.2663 -2.0423
  598MOL0     H82461   3.333   0.095  10.372 -3.5878  3.3530 -1.3842
  598MOL0     H82462   3.292  -0.043  10.264  0.4647  1.0716 -4.2570
  598MOL0     H82463   3.508   0.167  10.214 -1.0290  0.7751  1.0840
  598MOL0     H82464   3.550   0.023  10.292  0.2093 -2.0165  0.5141
  598MOL0     H82465   3.563   0.046  10.020 -2.7133  0.0348 -3.8488
  598MOL0     H82466   3.411  -0.041  10.035  0.0274  1.1442 -0.3595
  598MOL0     H82467   3.674  -0.099  10.162 -0.5949  2.0286 -2.4916
  598MOL0     H82468   3.535  -0.206  10.187  1.5489  0.6250  1.9593
  598MOL0     H82469   3.607  -0.184   9.899  2.0449  2.1567  0.1492
  598MOL0     H82470   3.534  -0.314   9.993 -0.4091  0.0464  0.3936
  598MOL0     H82471   3.834  -0.215  10.007 -0.9968  2.1850  1.8098
  598MOL0     H82472   3.780  -0.330  10.114  1.0793  1.4298 -0.0376
  598MOL0     H82473   3.635  -0.374   9.758  1.5165  1.4812  0.2816
  598MOL0     H82474   3.638  -0.598   9.610 -0.0601 -1.7181  1.1137
  598MOL0     H82475   3.806  -0.670   9.588  1.5997  2.0159 -0.4459
  598MOL0     H82476   3.727  -0.500   9.406  1.5896  0.3442 -0.7883
  598MOL0     H82477   3.746  -0.386   9.524  0.6768 -0.0902  2.0361
  598MOL0     H82478   3.971  -0.503   9.585 -0.8806  1.1431 -0.2057
  598MOL0     H82479   3.956  -0.599   9.436 -3.6758 -0.8954 -0.4794
  598MOL0     H82480   3.985  -0.283   9.468 -1.1036  1.7791 -3.3497
  598MOL0     H82481   4.109  -0.399   9.406  0.3566  4.6917  1.0917
  598MOL0     H82482   3.879  -0.331   9.042  0.1668 -0.4666  0.3856
  598MOL0     H82483   3.882  -0.072   8.805 -0.7872  0.6421  0.2230
  598MOL0     H82484   3.841  -0.240   8.828 -1.0133  0.9261  1.4042
  598MOL0     H82485   3.995  -0.213   8.763 -0.2511 -2.7911  0.9824
  598MOL0     H82486   4.393   0.253   8.939 -0.1046  1.2715 -0.0158
  598MOL0     H82487   4.413   0.488   8.861 -0.2925  0.0372  0.0027
  598MOL0     H82488   4.191   0.779   8.608  0.1000  0.0775  0.7134
  598MOL0     H82489   4.095   0.632   8.583 -0.6273 -0.4561  1.4904
  598MOL0     H82490   3.979   0.698   8.800 -0.2628 -1.9220 -1.8490
  598MOL0     H82491   4.046   0.848   8.801  0.4989 -0.2143 -1.6346
  598MOL0     H82492   3.910   0.768   8.531  0.6074  1.2807 -1.4179
  598MOL0     H82493   3.912   0.928   8.605  1.2086 -0.4743  1.0580
  598MOL0     H82494   3.752   0.867   8.761  2.4510 -0.4343  0.1591
  598MOL0     H82495   3.772   0.683   8.719  1.3211 -0.0673  0.3242
  598MOL0     H82496   3.621   0.875   8.539  2.2123  0.9292  1.7492
  598MOL0     H82497   3.665   0.715   8.505 -1.1846 -1.2028 -1.0182
  598MOL0     H82498   3.489   0.790   8.728 -2.0698 -3.1060  0.0571
  598MOL0     H82499   3.535   0.636   8.709  1.8944  1.1028  0.6911
  598MOL0     H82500   3.328   0.649   8.576 -0.3922 -0.2746 -0.9013
  598MOL0     H82501   3.476   0.631   8.470  0.2962 -0.2513  0.6575
  598MOL0     H82502   3.288   0.794   8.395 -1.0401 -0.3449  0.0265
  598MOL0     H82503   3.441   0.887   8.417  1.8908 -0.6718  1.6728
  598MOL0     H82504   4.000   0.481   8.721  0.7889  1.3759  0.2953
  598MOL0     H82505   4.001   0.221   8.782  0.6495 -0.2941 -2.1554
  598MOL0     H82506   4.231  -0.021   9.159 -0.0304 -1.7067  0.9358
  598MOL0     H82507   4.129  -0.156   9.334 -1.1315 -1.0641  0.7039
  598MOL0     H82508   2.904   0.201  10.402  1.1859 -0.3816 -0.5977
  598MOL0     H82509   2.647   0.195  10.436 -0.6987  0.0196 -0.6011
  598MOL0     H82510   2.246  -0.052  10.367  0.8457  0.3608 -3.0248
  598MOL0     H82511   2.037  -0.067  10.469 -0.2013  0.5527  2.1942
  598MOL0     H82512   1.862   0.347  10.645  2.7660 -2.1861 -0.3598
  598MOL0     H82513   1.824   0.306  10.479  1.0669  1.9476  0.1693
  598MOL0     H82514   1.694   0.226  10.734  1.5321  0.9050  0.5284
  598MOL0     H82515   1.639   0.164  10.578 -0.7544 -0.6162  2.3465
  598MOL0     H82516   1.650   0.461  10.644  0.7175 -0.3547  2.5293
  598MOL0     H82517   1.589   0.381  10.494  1.0262 -1.8708 -0.3319
  598MOL0     H82518   1.467   0.367  10.773  0.5792 -1.5565 -1.1854
  598MOL0     H82519   1.426   0.261  10.636  0.5640  0.6713 -4.5075
  598MOL0     H82520   1.231   0.600  10.503  1.4664  1.8650  2.1844
  598MOL0     H82521   2.035   0.370  10.501  2.4566  2.3639 -3.9893
  598MOL0     H82522   2.356   0.425  10.437 -0.4083 -4.0584  1.7017
  598MOL0     H82523   2.268   0.444  10.280  2.5919  0.6058  0.2678
  598MOL0     H82524   2.208   0.507  10.433 -1.4274 -0.3082 -1.3570
  599MOL0     O82525   1.176   7.718   8.610  0.1956 -0.3890 -0.0020
  599MOL0     C82526   1.154   7.839   8.607 -0.3881 -1.1362  0.2109
  599MOL0     O82527   1.238   7.929   8.544  0.3458  0.4119  0.6082
  599MOL0     C82528   1.358   7.879   8.501  0.1676 -0.0487  0.3967
  599MOL0     C82529   1.476   7.902   8.580 -0.3095  0.1150  0.2975
  599MOL0     C82530   1.605   7.843   8.537 -0.1567  0.6736 -0.7662
  599MOL0     C82531   1.608   7.777   8.412  0.0874 -0.1653 -0.1297
  599MOL0     O82532   1.734   7.732   8.385  0.1349  0.9167 -0.4116
  599MOL0     C82533   1.753   7.669   8.259 -0.4495 -0.7934  0.0531
  599MOL0     C82534   1.891   7.613   8.257  0.1415  0.3936  0.3057
  599MOL0     C82535   1.999   7.722   8.228 -0.8621 -0.6254  0.4200
  599MOL0     C82536   2.131   7.649   8.177 -0.5474  1.1416  0.2263
  599MOL0     C82537   2.252   7.742   8.141 -0.3230  0.2516 -0.1334
  599MOL0     C82538   2.395   7.680   8.172  0.1938 -0.4503 -0.3407
  599MOL0     C82539   2.511   7.778   8.169 -0.2008 -0.3821 -0.1760
  599MOL0     C82540   2.552   7.826   8.030 -0.4382 -0.5516 -0.6921
  599MOL0     N82541   2.618   7.965   8.047  0.1408 -0.2801  0.6067
  599MOL0     C82542   2.742   8.012   8.074  0.2996 -0.1396  0.2215
  599MOL0     C82543   2.730   8.146   8.081 -0.1432 -0.5397  0.1358
  599MOL0     C82544   2.851   8.233   8.108 -0.2307 -0.3233 -0.3171
  599MOL0     C82545   2.928   8.288   7.976  0.0355 -0.6987  0.1372
  599MOL0     C82546   3.014   8.411   8.016  0.7651 -0.5067 -0.4191
  599MOL0     C82547   3.134   8.432   7.936 -0.4000 -0.5939 -0.5611
  599MOL0     O82548   3.207   8.538   8.016 -0.4194 -0.2914 -0.7678
  599MOL0     C82549   3.333   8.548   7.965  0.5159  0.0210 -0.5793
  599MOL0     C82550   3.364   8.615   7.846  0.1199  0.3825 -0.0852
  599MOL0     C82551   3.496   8.639   7.803  0.4426 -0.7431  0.4239
  599MOL0     C82552   3.500   8.726   7.683  0.1404  0.2288  0.1667
  599MOL0     C82553   3.601   8.599   7.891 -0.8292 -1.0172 -0.1892
  599MOL0     C82554   3.746   8.609   7.860 -0.0467 -0.1395  1.1134
  599MOL0     O82555   3.788   8.586   7.734  0.1002 -0.6501  0.5298
  599MOL0     C82556   3.911   8.625   7.700 -0.3983 -0.3340  0.1357
  599MOL0     C82557   3.933   8.740   7.625  0.9603 -0.0447 -0.1264
  599MOL0     C82558   4.070   8.774   7.608  0.5943 -0.3476  0.1509
  599MOL0     C82559   4.171   8.696   7.661  0.2364 -0.0694 -0.1269
  599MOL0     O82560   4.302   8.732   7.646  0.3454 -0.3885 -0.5026
  599MOL0     C82561   4.343   8.770   7.515 -0.3140  0.6371  0.8640
  599MOL0     C82562   4.500   8.773   7.513 -1.1960  0.4377 -0.1279
  599MOL0     C82563   4.555   8.631   7.520  0.5236 -0.0185  0.2947
  599MOL0     C82564   4.708   8.631   7.502 -0.0564 -0.8238 -0.4765
  599MOL0     C82565   4.762   8.492   7.493  0.9775 -0.0721  0.8947
  599MOL0     C82566   4.901   8.466   7.538  0.0022  0.6737 -0.0683
  599MOL0     C82567   4.934   8.321   7.539 -0.9437  0.0032  0.0660
  599MOL0     C82568   5.090   8.295   7.539  0.4920 -0.6469  0.3199
  599MOL0    Cl82569   5.133   8.127   7.469 -0.3781 -0.5256 -0.1369
  599MOL0     C82570   4.145   8.573   7.718 -0.0676  0.2853  0.4158
  599MOL0     C82571   4.013   8.539   7.736 -0.0734 -0.4929 -0.2616
  599MOL0     O82572   3.821   8.634   7.951  0.3127  0.2318 -0.5606
  599MOL0     C82573   3.566   8.523   8.005 -0.5551 -0.2130  0.9463
  599MOL0     C82574   3.434   8.500   8.046  0.5629  0.0506  0.3553
  599MOL0     N82575   2.600   8.185   8.049  0.9529 -0.0953  0.2005
  599MOL0     N82576   2.534   8.074   8.035  0.5919 -0.1803 -0.2281
  599MOL0     C82577   1.494   7.766   8.335 -0.7015 -0.1173 -0.1913
  599MOL0     C82578   1.375   7.813   8.379  0.0272  0.5303 -0.0918
  599MOL0     C82579   1.027   7.891   8.664 -0.0702  0.0353 -0.5113
  599MOL0     C82580   0.924   7.791   8.686 -0.2101  0.3541  0.0299
  599MOL0     C82581   0.806   7.837   8.742 -0.0280 -0.0235  0.0306
  599MOL0     C82582   0.792   7.964   8.794  0.7057 -0.2732  0.3448
  599MOL0     O82583   0.679   8.002   8.865 -0.4900 -0.8067  0.1629
  599MOL0     C82584   0.562   8.028   8.792  0.2319  0.0667  0.2708
  599MOL0     C82585   0.576   8.159   8.701 -0.6778  1.4632  0.0198
  599MOL0     C82586   0.442   8.193   8.627  0.2330  0.5958 -0.4791
  599MOL0     C82587   0.342   8.267   8.732  0.3244  0.6998 -0.6384
  599MOL0     C82588   0.202   8.229   8.700 -0.7413  0.6439  0.4867
  599MOL0     C82589   0.091   8.206   8.652 -0.0940  0.5745 -0.5383
  599MOL0     C82590   0.894   8.055   8.783 -0.0980  0.2518  0.6294
  599MOL0     C82591   1.008   8.022   8.715  0.3984  0.5298  0.6160
  599MOL0     C82592   1.123   8.123   8.730 -0.2016  0.4761  0.9496
  599MOL0     H82593   1.466   7.954   8.675  2.2908 -0.9791  1.2553
  599MOL0     H82594   1.688   7.870   8.601 -1.3655  0.7548  0.8117
  599MOL0     H82595   1.747   7.758   8.195  0.5304  2.0040  3.5677
  599MOL0     H82596   1.675   7.594   8.240 -0.2864 -1.4840  1.9670
  599MOL0     H82597   1.904   7.557   8.350  0.1336  0.4547  0.3438
  599MOL0     H82598   1.898   7.534   8.181  1.4654  0.1151  0.6904
  599MOL0     H82599   1.967   7.788   8.147  1.4251 -2.3811 -2.0923
  599MOL0     H82600   2.032   7.783   8.313  0.1172 -1.1274  0.4167
  599MOL0     H82601   2.172   7.578   8.249  2.2342  2.8462  0.4725
  599MOL0     H82602   2.112   7.589   8.087 -3.4524  1.1576  0.7418
  599MOL0     H82603   2.246   7.833   8.201  3.7619  0.4134  0.3109
  599MOL0     H82604   2.260   7.764   8.035  1.9853  0.0654 -0.0549
  599MOL0     H82605   2.391   7.633   8.270 -1.5400 -1.3696 -0.8108
  599MOL0     H82606   2.414   7.601   8.099 -2.3453  0.3085 -1.9683
  599MOL0     H82607   2.598   7.729   8.212 -0.7612 -1.4663 -0.2279
  599MOL0     H82608   2.481   7.852   8.244  1.3061 -3.0970  3.4120
  599MOL0     H82609   2.633   7.764   7.989  1.0076  0.0996  1.0266
  599MOL0     H82610   2.462   7.825   7.969 -1.8573 -1.0688  1.3243
  599MOL0     H82611   2.835   7.955   8.078 -0.0027 -0.5713  1.6074
  599MOL0     H82612   2.917   8.181   8.178  0.1710  2.5099  1.5491
  599MOL0     H82613   2.814   8.314   8.170  0.3854 -0.1348 -0.1934
  599MOL0     H82614   2.998   8.217   7.931  0.8354 -0.6544  1.2654
  599MOL0     H82615   2.850   8.312   7.903 -0.6793  0.8129  1.3542
  599MOL0     H82616   2.965   8.509   8.013  3.2820  0.8201 -2.0260
  599MOL0     H82617   3.044   8.384   8.117  0.1095 -0.6183 -0.2548
  599MOL0     H82618   3.194   8.343   7.918  0.4658  0.0491 -0.9585
  599MOL0     H82619   3.111   8.477   7.838 -2.5313  2.2811  1.0876
  599MOL0     H82620   3.282   8.657   7.790  1.3147 -0.3292 -2.5066
  599MOL0     H82621   3.438   8.680   7.605  1.3730 -1.1542 -0.0253
  599MOL0     H82622   3.597   8.738   7.633  0.6127 -0.9069  0.7799
  599MOL0     H82623   3.471   8.825   7.719 -0.0919 -0.6279  2.4934
  599MOL0     H82624   3.844   8.791   7.592 -1.2726 -1.8018  2.7654
  599MOL0     H82625   4.077   8.861   7.543 -1.1202 -1.1327 -1.1514
  599MOL0     H82626   4.306   8.700   7.440  1.3652  0.7370 -0.1093
  599MOL0     H82627   4.299   8.868   7.492 -2.0148 -0.7562 -2.5004
  599MOL0     H82628   4.542   8.820   7.424 -0.3748 -0.3821 -0.1978
  599MOL0     H82629   4.539   8.823   7.602  0.1339 -0.5338 -0.1267
  599MOL0     H82630   4.512   8.570   7.440  1.2314 -0.4893  0.2604
  599MOL0     H82631   4.529   8.581   7.614  0.8032  0.5715  0.6899
  599MOL0     H82632   4.744   8.682   7.592  1.1001 -0.3668 -1.1841
  599MOL0     H82633   4.720   8.696   7.415  0.7034 -0.6922 -0.2777
  599MOL0     H82634   4.699   8.421   7.548 -1.5730  0.2974 -1.3449
  599MOL0     H82635   4.758   8.458   7.389  1.5033  0.2532  0.7672
  599MOL0     H82636   4.911   8.505   7.640  0.1617 -1.9578  0.9937
  599MOL0     H82637   4.979   8.508   7.473 -0.2338 -1.9663 -2.2573
  599MOL0     H82638   4.896   8.269   7.450 -0.5184 -0.8025  0.3510
  599MOL0     H82639   4.887   8.270   7.623 -0.7143 -0.7236 -0.2353
  599MOL0     H82640   5.125   8.311   7.642 -2.4774 -1.2315  1.5178
  599MOL0     H82641   5.141   8.376   7.485 -1.5873  0.8359  0.4422
  599MOL0     H82642   4.224   8.501   7.738 -1.2018 -1.7909 -1.9720
  599MOL0     H82643   4.002   8.445   7.790  0.4887 -1.3065 -1.5118
  599MOL0     H82644   3.643   8.478   8.068 -1.0624 -3.1458 -0.3643
  599MOL0     H82645   3.421   8.452   8.143  3.5964  2.4161  2.1244
  599MOL0     H82646   1.504   7.738   8.230 -1.4651  3.2065 -1.2595
  599MOL0     H82647   1.287   7.809   8.315  1.9952 -4.8778 -3.1276
  599MOL0     H82648   0.914   7.686   8.657  2.6134 -0.3662  1.3817
  599MOL0     H82649   0.723   7.769   8.758 -1.1936  0.9879 -1.4656
  599MOL0     H82650   0.537   7.936   8.738 -0.0254  1.0597 -1.3467
  599MOL0     H82651   0.482   8.048   8.864 -2.1506 -2.6950 -1.3925
  599MOL0     H82652   0.666   8.155   8.638  2.0688 -2.6934  3.6286
  599MOL0     H82653   0.616   8.241   8.763 -0.2185  2.3258 -1.3708
  599MOL0     H82654   0.463   8.261   8.543  0.2486 -0.5700 -1.4499
  599MOL0     H82655   0.403   8.097   8.590  1.1369 -0.1610  0.4773
  599MOL0     H82656   0.347   8.375   8.746  1.2908  0.6862 -0.7972
  599MOL0     H82657   0.369   8.236   8.833  2.4316  0.6997 -1.1356
  599MOL0     H82658  -0.010   8.189   8.621  0.0439  1.5380 -1.6004
  599MOL0     H82659   0.875   8.155   8.823  3.1487  0.5585  1.6345
  599MOL0     H82660   1.114   8.180   8.822  2.3211 -0.0138  1.5879
  599MOL0     H82661   1.219   8.071   8.737 -0.3448  0.2738  1.4689
  599MOL0     H82662   1.118   8.199   8.652  0.7494  0.7010  1.0984
  600MOL0     O82663   8.257   2.580   8.999 -0.3422 -0.7094 -0.1804
  600MOL0     C82664   8.250   2.658   9.098  0.6996 -0.3811 -0.0444
  600MOL0     O82665   8.190   2.626   9.215  0.5771 -0.2696  0.3183
  600MOL0     C82666   8.137   2.506   9.244 -1.3096 -0.6169 -1.4501
  600MOL0     C82667   8.134   2.483   9.383  0.3911 -0.4857 -0.3779
  600MOL0     C82668   8.068   2.371   9.433 -0.2545  0.0223  0.6058
  600MOL0     C82669   8.009   2.282   9.350 -0.2230 -0.8140 -0.1682
  600MOL0     O82670   7.949   2.165   9.396 -0.4535  0.0674 -0.0763
  600MOL0     C82671   7.931   2.140   9.542 -0.0937 -0.2575 -0.2774
  600MOL0     C82672   7.844   2.014   9.558 -0.7039  0.1884 -0.2839
  600MOL0     C82673   7.906   1.903   9.461  0.3619 -0.6325 -0.1105
  600MOL0     C82674   7.830   1.767   9.478  0.2169  0.0202  0.1438
  600MOL0     C82675   7.863   1.661   9.378 -0.0404  0.2574  0.4390
  600MOL0     C82676   7.940   1.541   9.440 -0.5764  0.3835  0.0249
  600MOL0     C82677   7.905   1.410   9.363  0.1102  0.2817  0.7181
  600MOL0     C82678   7.964   1.409   9.220  0.2038 -0.3134 -0.0502
  600MOL0     N82679   8.114   1.398   9.216 -0.6186 -0.5083 -0.6056
  600MOL0     C82680   8.195   1.509   9.210 -0.7223  0.2969 -0.0965
  600MOL0     C82681   8.321   1.452   9.187 -0.8796  0.7803  1.0413
  600MOL0     C82682   8.450   1.525   9.145 -0.2367  0.1841 -0.0522
  600MOL0     C82683   8.563   1.500   9.238  0.0861 -0.5652  0.3169
  600MOL0     C82684   8.599   1.354   9.263  0.6322 -0.2264  0.2406
  600MOL0     C82685   8.739   1.337   9.323  0.5047  0.8796  0.1331
  600MOL0     O82686   8.774   1.201   9.347 -1.1125  0.4371  0.0902
  600MOL0     C82687   8.892   1.181   9.427  1.3122 -0.3243  0.9263
  600MOL0     C82688   8.990   1.274   9.454  0.7876  0.3712  0.1437
  600MOL0     C82689   9.098   1.250   9.536  0.0487  0.3336 -0.2939
  600MOL0     C82690   9.180   1.371   9.570  0.5858 -0.1987 -0.6907
  600MOL0     C82691   9.107   1.125   9.588  0.0232  0.5197 -0.4505
  600MOL0     C82692   9.221   1.077   9.674  0.2531 -0.4649 -0.1225
  600MOL0     O82693   9.247   0.941   9.679  0.0462 -0.1153 -0.3848
  600MOL0     C82694   9.348   0.892   9.754  0.5957 -0.7862 -0.7183
  600MOL0     C82695   9.315   0.811   9.859 -0.1928 -0.7160 -0.2327
  600MOL0     C82696   9.415   0.750   9.937 -0.2539 -0.3900  0.3340
  600MOL0     C82697   9.555   0.771   9.913  0.1222 -0.2766 -0.0018
  600MOL0     O82698   9.654   0.713   9.992 -0.4394 -0.2187 -0.3452
  600MOL0     C82699   9.672   0.767  10.129  0.7512  0.0276 -0.0457
  600MOL0     C82700   9.728   0.658  10.219  0.1430  0.2898 -1.4633
  600MOL0     C82701   9.750   0.702  10.361  0.0667 -0.0057 -0.0700
  600MOL0     C82702   9.804   0.601  10.465 -1.3564 -0.0835  0.4379
  600MOL0     C82703   9.904   0.672  10.561  0.1791  0.1113  0.5137
  600MOL0     C82704   9.944   0.592  10.683  1.2684  0.4450 -0.2935
  600MOL0     C82705  10.026   0.666  10.787  0.1365 -0.0986 -0.2567
  600MOL0     C82706   9.948   0.686  10.907 -0.3090  0.8828  1.1078
  600MOL0    Cl82707   9.832   0.821  10.898 -0.0975  0.7219 -0.2764
  600MOL0     C82708   9.585   0.851   9.798  1.1416  0.1027  0.1230
  600MOL0     C82709   9.480   0.908   9.719 -0.1156 -0.5199  0.0626
  600MOL0     O82710   9.290   1.163   9.735  0.8094  1.0645 -0.4573
  600MOL0     C82711   8.997   1.033   9.580  0.8039 -0.1421 -0.5179
  600MOL0     C82712   8.891   1.059   9.494  0.6578 -0.0917 -0.7103
  600MOL0     N82713   8.310   1.313   9.210 -0.2086  0.5309  0.5960
  600MOL0     N82714   8.190   1.285   9.227 -0.4429  1.1425 -0.5628
  600MOL0     C82715   8.013   2.305   9.212 -0.3132 -0.4977 -0.2008
  600MOL0     C82716   8.076   2.415   9.160  0.6139 -0.1584  0.0527
  600MOL0     C82717   8.319   2.791   9.087  0.4755  0.3835 -0.7434
  600MOL0     C82718   8.297   2.875   9.199  0.1865  0.1721 -0.1200
  600MOL0     C82719   8.341   3.008   9.209  0.4912 -0.4051  0.1463
  600MOL0     C82720   8.415   3.055   9.103 -0.0258 -0.2574 -0.2050
  600MOL0     O82721   8.476   3.174   9.126  0.2400  0.0668 -0.6151
  600MOL0     C82722   8.572   3.232   9.032 -0.5448  0.6641  0.3872
  600MOL0     C82723   8.648   3.341   9.101  0.3503  0.8082  0.8988
  600MOL0     C82724   8.682   3.324   9.249 -0.5746  0.3257 -0.2177
  600MOL0     C82725   8.829   3.298   9.260  0.3462  1.2220 -0.9621
  600MOL0     C82726   8.860   3.165   9.203  0.1202 -0.2010 -0.5060
  600MOL0     C82727   8.901   3.074   9.134 -0.0335  0.2197  0.6465
  600MOL0     C82728   8.444   2.975   8.992  0.0638  0.7589  0.1210
  600MOL0     C82729   8.390   2.849   8.978 -0.0945  0.3693  0.5028
  600MOL0     C82730   8.409   2.780   8.847  0.6134 -0.3093  0.1077
  600MOL0     H82731   8.178   2.558   9.448  1.6689 -0.7611 -0.8894
  600MOL0     H82732   8.055   2.361   9.540  1.9801 -0.6032  0.8743
  600MOL0     H82733   7.882   2.227   9.587 -0.1222  0.7085 -2.0739
  600MOL0     H82734   8.029   2.118   9.586 -0.1465 -1.2341 -0.6319
  600MOL0     H82735   7.847   1.995   9.665  2.0494 -2.6478 -0.7376
  600MOL0     H82736   7.736   2.028   9.541 -1.1112 -1.0089  1.1367
  600MOL0     H82737   7.917   1.920   9.353  0.8574 -0.5521 -0.0484
  600MOL0     H82738   8.010   1.889   9.492  0.8795  4.8997  1.7388
  600MOL0     H82739   7.843   1.727   9.579  3.8620 -0.2368 -0.2994
  600MOL0     H82740   7.726   1.791   9.455  0.6080  2.5264  0.6938
  600MOL0     H82741   7.928   1.705   9.301 -0.2739  3.0249  1.6855
  600MOL0     H82742   7.765   1.638   9.336  0.8210 -0.5722 -1.2571
  600MOL0     H82743   8.047   1.566   9.447 -0.0325 -1.4463 -1.0773
  600MOL0     H82744   7.908   1.521   9.543  0.4670  0.4357  0.3799
  600MOL0     H82745   7.797   1.398   9.372  0.1986 -1.5379 -0.2088
  600MOL0     H82746   7.940   1.327   9.426  0.8728  1.0500  1.3420
  600MOL0     H82747   7.925   1.325   9.160 -2.8000  1.3377 -0.6078
  600MOL0     H82748   7.918   1.493   9.168 -2.8877 -1.9251 -0.1725
  600MOL0     H82749   8.188   1.617   9.218 -0.3913  0.2307  1.4837
  600MOL0     H82750   8.428   1.632   9.145  1.3028  0.5552  1.5725
  600MOL0     H82751   8.478   1.502   9.042 -0.9461 -0.8183 -0.0370
  600MOL0     H82752   8.656   1.537   9.194  0.0831 -1.0448 -0.0995
  600MOL0     H82753   8.543   1.548   9.334 -0.2844 -1.0293  0.4734
  600MOL0     H82754   8.529   1.302   9.329  1.1064 -0.8683  0.2501
  600MOL0     H82755   8.596   1.290   9.174 -1.8788 -1.6212  1.2275
  600MOL0     H82756   8.816   1.386   9.262  1.0742 -2.7157 -2.3756
  600MOL0     H82757   8.735   1.401   9.411  1.0851  0.4725  0.4609
  600MOL0     H82758   8.995   1.366   9.397  0.0368  1.2093  1.3912
  600MOL0     H82759   9.192   1.369   9.678  1.2142 -1.1445 -0.7731
  600MOL0     H82760   9.124   1.462   9.547  2.2747  1.2063  0.5036
  600MOL0     H82761   9.273   1.368   9.514 -0.4622 -0.7200 -2.5023
  600MOL0     H82762   9.208   0.798   9.872 -0.4995  0.9868 -0.7315
  600MOL0     H82763   9.388   0.686  10.020 -1.0652 -0.1989  0.2269
  600MOL0     H82764   9.749   0.845  10.132 -2.2844  3.3420  4.1131
  600MOL0     H82765   9.578   0.802  10.171 -0.0538 -2.1249  0.0592
  600MOL0     H82766   9.657   0.575  10.221 -1.6264  1.7420  1.7488
  600MOL0     H82767   9.823   0.628  10.172 -1.7098 -4.4551 -2.7490
  600MOL0     H82768   9.657   0.740  10.405  0.4408 -1.5329  2.2532
  600MOL0     H82769   9.820   0.786  10.358  0.7597 -0.5003  1.3734
  600MOL0     H82770   9.863   0.531  10.404 -3.6523 -0.7187 -1.1887
  600MOL0     H82771   9.726   0.539  10.510 -0.4453  0.3257  2.7271
  600MOL0     H82772   9.988   0.713  10.504 -1.7095  1.0359 -1.7614
  600MOL0     H82773   9.854   0.760  10.601 -0.6830  0.0537 -0.4174
  600MOL0     H82774   9.983   0.492  10.659  1.7278  0.8755 -1.4084
  600MOL0     H82775   9.846   0.557  10.715  0.4397 -0.6488 -3.6597
  600MOL0     H82776  10.059   0.763  10.749 -2.4496 -0.0231 -2.5671
  600MOL0     H82777  10.116   0.609  10.814  0.4221 -0.9568 -2.7871
  600MOL0     H82778  10.016   0.704  10.991 -1.1707 -0.6338  2.1869
  600MOL0     H82779   9.890   0.597  10.935 -1.3200  2.2181  3.6751
  600MOL0     H82780   9.691   0.861   9.773  1.2269  0.4011  0.5953
  600MOL0     H82781   9.501   0.957   9.625  1.9276 -0.7067  0.3839
  600MOL0     H82782   8.991   0.939   9.634 -1.5946 -0.1641 -0.7189
  600MOL0     H82783   8.823   0.981   9.462  2.2414 -0.8473 -2.4602
  600MOL0     H82784   7.970   2.226   9.151 -1.3233  0.5221 -0.8518
  600MOL0     H82785   8.084   2.422   9.052  2.3835 -1.8329  0.0300
  600MOL0     H82786   8.239   2.844   9.285 -0.7406 -0.3301 -0.9129
  600MOL0     H82787   8.328   3.075   9.294 -0.5977 -0.0325 -0.2882
  600MOL0     H82788   8.644   3.152   9.018 -0.0039  1.1413  0.4069
  600MOL0     H82789   8.530   3.259   8.934 -0.0474  1.2882  0.3372
  600MOL0     H82790   8.588   3.432   9.090  1.1075  1.1072 -1.0073
  600MOL0     H82791   8.742   3.364   9.051 -0.9049  3.9392 -0.2408
  600MOL0     H82792   8.683   3.423   9.296  3.3699  0.4793 -0.2282
  600MOL0     H82793   8.624   3.249   9.303  0.3209 -2.2186 -2.5118
  600MOL0     H82794   8.858   3.289   9.366  1.5233 -0.8497 -1.4039
  600MOL0     H82795   8.881   3.376   9.205 -1.5388  2.1426 -1.5219
  600MOL0     H82796   8.929   2.986   9.079 -0.2785  0.2037  0.5445
  600MOL0     H82797   8.505   3.011   8.910 -1.3497 -0.1768 -1.4301
  600MOL0     H82798   8.494   2.711   8.847  0.0912 -0.9968 -1.3158
  600MOL0     H82799   8.329   2.709   8.825  2.3911 -3.1886  2.2485
  600MOL0     H82800   8.420   2.855   8.767  2.2586 -0.2619  0.3489
  601MOL0     O82801   5.182   7.507   6.201  0.4078 -0.4844  0.4360
  601MOL0     C82802   5.230   7.572   6.293 -0.9799 -0.3273 -0.6445
  601MOL0     O82803   5.295   7.512   6.405 -0.3098  0.0145 -0.5403
  601MOL0     C82804   5.255   7.383   6.443 -0.2969 -0.4105 -0.6358
  601MOL0     C82805   5.125   7.370   6.492  0.2018  0.7927 -0.0211
  601MOL0     C82806   5.074   7.243   6.526 -0.1853 -0.0466  0.9023
  601MOL0     C82807   5.148   7.128   6.508 -0.3508  0.5118  0.3996
  601MOL0     O82808   5.114   7.006   6.567  0.6716  0.4076  0.2152
  601MOL0     C82809   5.181   6.885   6.545  0.7020 -0.6623  0.0087
  601MOL0     C82810   5.170   6.821   6.398 -0.1813  0.1147  0.3216
  601MOL0     C82811   5.031   6.752   6.380  0.1486 -0.2640  0.3367
  601MOL0     C82812   5.034   6.652   6.272  0.3963  0.8860 -0.4072
  601MOL0     C82813   4.898   6.583   6.264  0.5319 -0.6114 -0.9458
  601MOL0     C82814   4.886   6.505   6.130 -0.1071 -0.1771 -0.6931
  601MOL0     C82815   4.740   6.466   6.080 -0.4490 -0.5401 -0.6790
  601MOL0     C82816   4.745   6.345   5.983 -0.9686  0.7784 -0.6047
  601MOL0     N82817   4.751   6.222   6.064  0.1722  0.0938 -0.5612
  601MOL0     C82818   4.649   6.177   6.136 -0.2673 -0.3807 -0.0400
  601MOL0     C82819   4.690   6.045   6.174 -0.1308 -0.6021 -0.4370
  601MOL0     C82820   4.614   5.959   6.276  0.4455  0.6378 -0.0211
  601MOL0     C82821   4.580   5.815   6.228 -0.1066  0.8718 -0.8651
  601MOL0     C82822   4.490   5.737   6.331  0.9550  0.9390  0.4130
  601MOL0     C82823   4.482   5.591   6.286  0.4541 -0.3178  1.0634
  601MOL0     O82824   4.476   5.593   6.136 -0.0263  1.0759 -0.4184
  601MOL0     C82825   4.393   5.496   6.079  0.8805  0.2621 -0.6551
  601MOL0     C82826   4.313   5.525   5.964  0.6135  0.0037  0.1848
  601MOL0     C82827   4.220   5.433   5.917  0.5441 -0.1528  0.2907
  601MOL0     C82828   4.132   5.477   5.800 -0.2023  0.0800  0.4613
  601MOL0     C82829   4.219   5.304   5.965 -0.9773 -0.6003 -0.1519
  601MOL0     C82830   4.128   5.201   5.914 -0.0578 -0.1645  0.7079
  601MOL0     O82831   4.141   5.088   5.986  0.1253  0.4738  0.5282
  601MOL0     C82832   4.159   4.973   5.915 -0.1860  0.5702 -0.3345
  601MOL0     C82833   4.057   4.884   5.886 -0.5296 -0.5844  0.0418
  601MOL0     C82834   4.083   4.769   5.802 -0.0144  1.1146 -0.1681
  601MOL0     C82835   4.207   4.750   5.748 -0.1664 -0.5094  0.3769
  601MOL0     O82836   4.252   4.641   5.675  0.1697  0.7258  0.4725
  601MOL0     C82837   4.168   4.554   5.593 -0.2914 -0.3214 -0.5638
  601MOL0     C82838   4.063   4.630   5.502 -0.4971  0.1133 -0.0757
  601MOL0     C82839   4.126   4.721   5.398 -0.6240  0.7529  0.4615
  601MOL0     C82840   4.173   4.643   5.280 -0.3208  0.7454  0.4491
  601MOL0     C82841   4.233   4.729   5.171  0.9239 -0.1766  0.0042
  601MOL0     C82842   4.224   4.649   5.039  0.8503  0.0652 -0.0841
  601MOL0     C82843   4.282   4.720   4.914  0.2681  0.4446  0.6219
  601MOL0     C82844   4.424   4.770   4.932  0.8918 -0.1267  0.4566
  601MOL0    Cl82845   4.485   4.849   4.788  0.0877 -0.4159 -0.1000
  601MOL0     C82846   4.314   4.835   5.776 -0.3077  0.0314  0.3061
  601MOL0     C82847   4.288   4.950   5.856  0.4335  0.2049 -0.0440
  601MOL0     O82848   4.053   5.211   5.810 -0.1438 -0.1218 -0.2359
  601MOL0     C82849   4.306   5.269   6.070  1.0828 -0.2392 -1.2313
  601MOL0     C82850   4.391   5.362   6.133  1.8559 -0.5973 -1.3444
  601MOL0     N82851   4.811   6.014   6.113  0.2998 -0.1760  0.2853
  601MOL0     N82852   4.842   6.120   6.050  0.0931  0.1686  0.5639
  601MOL0     C82853   5.270   7.140   6.451 -0.6592  0.4351  0.4205
  601MOL0     C82854   5.330   7.266   6.429 -0.2320  0.4344  0.0687
  601MOL0     C82855   5.232   7.728   6.290 -1.3708  0.9438 -0.1123
  601MOL0     C82856   5.278   7.797   6.411  0.3227  0.1293 -0.0808
  601MOL0     C82857   5.256   7.932   6.424  0.3011  0.4407 -0.2219
  601MOL0     C82858   5.209   8.010   6.321  0.2591  0.0266  1.1154
  601MOL0     O82859   5.186   8.144   6.310 -0.2230  0.2730  0.1277
  601MOL0     C82860   5.256   8.223   6.407 -0.4774  0.0943  0.4042
  601MOL0     C82861   5.272   8.373   6.358  0.1835  0.4192 -0.1852
  601MOL0     C82862   5.357   8.390   6.237  0.0019  0.1393  0.3229
  601MOL0     C82863   5.502   8.426   6.272 -0.3424  0.6154  0.0541
  601MOL0     C82864   5.579   8.328   6.337 -0.8326 -0.6892 -1.0860
  601MOL0     C82865   5.640   8.242   6.405  0.5535  0.2562  0.4685
  601MOL0     C82866   5.181   7.949   6.199  0.7048  0.2012  0.5383
  601MOL0     C82867   5.195   7.812   6.180 -0.6980 -0.6806  0.3114
  601MOL0     C82868   5.141   7.749   6.049  0.3414 -0.9986 -0.7631
  601MOL0     H82869   5.066   7.461   6.495  0.3927  0.9661 -1.2030
  601MOL0     H82870   4.973   7.229   6.564  0.3864 -1.5889  1.9334
  601MOL0     H82871   5.137   6.819   6.620 -0.4003 -0.7585 -0.6964
  601MOL0     H82872   5.285   6.876   6.578  0.2548 -5.2585  0.8435
  601MOL0     H82873   5.199   6.894   6.321  1.4004 -1.2725 -0.4503
  601MOL0     H82874   5.244   6.741   6.393  1.7137  1.8304 -0.9142
  601MOL0     H82875   4.994   6.701   6.469 -0.8858 -3.5294 -1.7855
  601MOL0     H82876   4.952   6.826   6.363 -1.5826 -2.0889  0.1060
  601MOL0     H82877   5.047   6.703   6.176  0.2935 -2.8709 -2.6064
  601MOL0     H82878   5.119   6.586   6.288  2.3543  2.5428 -3.1048
  601MOL0     H82879   4.823   6.662   6.271 -1.4789 -2.1803 -3.1841
  601MOL0     H82880   4.882   6.508   6.342  1.5660  0.4671  0.3555
  601MOL0     H82881   4.934   6.561   6.049 -1.6077 -2.7001 -3.5560
  601MOL0     H82882   4.944   6.416   6.154 -2.9229 -1.7260  0.9853
  601MOL0     H82883   4.692   6.551   6.032  1.4107  1.0695  0.1931
  601MOL0     H82884   4.680   6.444   6.169 -0.8290 -0.2879 -0.8752
  601MOL0     H82885   4.649   6.335   5.931 -1.9313  1.9431  0.8589
  601MOL0     H82886   4.831   6.352   5.916 -0.4250  3.0556  0.2546
  601MOL0     H82887   4.564   6.233   6.172  0.6639  0.9520  0.1486
  601MOL0     H82888   4.513   5.996   6.293 -0.0895 -0.3272 -0.9897
  601MOL0     H82889   4.664   5.958   6.374 -0.0034 -3.5805  0.3468
  601MOL0     H82890   4.545   5.824   6.125  0.5493 -1.8704 -1.4042
  601MOL0     H82891   4.675   5.762   6.218 -1.4854 -1.6867 -1.2588
  601MOL0     H82892   4.527   5.760   6.431  0.0505  2.1596  0.4925
  601MOL0     H82893   4.387   5.773   6.326  0.5135 -0.3624 -0.1502
  601MOL0     H82894   4.568   5.535   6.324 -1.7418 -4.5549  0.4035
  601MOL0     H82895   4.394   5.537   6.321 -0.6713 -0.1603 -1.3331
  601MOL0     H82896   4.326   5.621   5.916  0.3721  1.9075  3.6257
  601MOL0     H82897   4.160   5.416   5.713  0.9451  1.7141 -0.3709
  601MOL0     H82898   4.154   5.579   5.768 -0.6497  0.2142  0.5712
  601MOL0     H82899   4.026   5.461   5.819  0.0974 -1.4364  0.9555
  601MOL0     H82900   3.949   4.889   5.902 -0.4029  0.9451  0.5753
  601MOL0     H82901   4.009   4.690   5.807  1.4861 -0.3161  0.6973
  601MOL0     H82902   4.228   4.489   5.528 -0.6162 -4.0379  2.4438
  601MOL0     H82903   4.108   4.484   5.652  1.3811 -1.4979 -0.1723
  601MOL0     H82904   3.991   4.562   5.454 -3.0563  2.5605  0.0678
  601MOL0     H82905   3.997   4.692   5.562 -0.0556 -0.0016  0.5398
  601MOL0     H82906   4.210   4.770   5.449  0.7155  0.9487 -1.7864
  601MOL0     H82907   4.049   4.795   5.375  0.1696  1.9808  1.5710
  601MOL0     H82908   4.085   4.596   5.236  0.2617  0.0016  0.0524
  601MOL0     H82909   4.240   4.560   5.306 -2.5554 -0.9265  1.2062
  601MOL0     H82910   4.167   4.816   5.164  0.9675 -0.2061 -0.8391
  601MOL0     H82911   4.338   4.749   5.194  1.8601  0.1261 -3.9231
  601MOL0     H82912   4.117   4.642   5.015  1.5059  0.4769 -3.7161
  601MOL0     H82913   4.253   4.544   5.041  1.8931  0.3493  0.1106
  601MOL0     H82914   4.215   4.800   4.881 -1.0016 -0.8234  0.0199
  601MOL0     H82915   4.286   4.652   4.828 -1.1288  0.0600  0.8409
  601MOL0     H82916   4.489   4.690   4.970  2.1612  0.7802  0.2389
  601MOL0     H82917   4.417   4.851   5.004 -3.3360  0.8909 -0.8272
  601MOL0     H82918   4.415   4.817   5.741  1.0566 -1.2945  4.3339
  601MOL0     H82919   4.367   5.018   5.888 -0.4561  0.4283  1.7932
  601MOL0     H82920   4.311   5.169   6.111  1.4387  0.2301 -0.0915
  601MOL0     H82921   4.458   5.330   6.212  2.5940 -1.7066 -2.3713
  601MOL0     H82922   5.325   7.048   6.442 -1.0735  0.3374 -1.5621
  601MOL0     H82923   5.428   7.264   6.381  0.5660 -0.0928  1.6582
  601MOL0     H82924   5.309   7.756   6.507 -2.0801  1.8720  1.5382
  601MOL0     H82925   5.275   7.974   6.522 -1.5230 -0.2405  0.4504
  601MOL0     H82926   5.191   8.214   6.494  1.4985  1.7068  2.1435
  601MOL0     H82927   5.352   8.176   6.432 -0.2960 -0.5075 -1.2820
  601MOL0     H82928   5.319   8.439   6.432  1.9743 -1.8113  0.8206
  601MOL0     H82929   5.176   8.424   6.351 -1.2066 -0.9993  4.5814
  601MOL0     H82930   5.354   8.296   6.182 -6.0215 -0.0026  0.2102
  601MOL0     H82931   5.314   8.464   6.168  0.0417 -1.7304 -1.8226
  601MOL0     H82932   5.498   8.520   6.328  0.7782  3.2192 -3.7493
  601MOL0     H82933   5.550   8.460   6.179 -0.9233  1.7173  0.1325
  601MOL0     H82934   5.690   8.185   6.480 -2.6648 -0.1624  2.4988
  601MOL0     H82935   5.151   8.015   6.118 -2.2517  0.1221  1.4599
  601MOL0     H82936   5.218   7.684   6.007  1.1302 -0.0213 -0.8776
  601MOL0     H82937   5.040   7.708   6.052 -0.4031  0.7582 -0.6540
  601MOL0     H82938   5.143   7.834   5.980 -2.7130  0.5786  0.8937
  602MOL0     O82939   9.194   5.109   8.966  0.3607 -0.4982  0.1672
  602MOL0     C82940   9.263   5.170   8.882 -0.2041  0.5036 -0.0928
  602MOL0     O82941   9.391   5.217   8.900  0.4573  0.6568 -0.8781
  602MOL0     C82942   9.416   5.253   9.031  0.4056  0.3562 -1.3729
  602MOL0     C82943   9.351   5.365   9.085 -0.0544  1.0783 -0.1169
  602MOL0     C82944   9.393   5.415   9.203 -0.3782  0.2539  0.5450
  602MOL0     C82945   9.512   5.375   9.257 -0.4364 -0.8857  0.0507
  602MOL0     O82946   9.574   5.435   9.370  0.5548 -0.6628 -0.3374
  602MOL0     C82947   9.514   5.547   9.433  0.2637  0.3215  0.7530
  602MOL0     C82948   9.596   5.607   9.534  0.5605  0.1926 -0.3375
  602MOL0     C82949   9.574   5.556   9.678  0.0335 -0.2367  0.1341
  602MOL0     C82950   9.452   5.608   9.748  0.7224 -0.2098  0.0263
  602MOL0     C82951   9.452   5.577   9.889  0.6640  0.2334  0.4702
  602MOL0     C82952   9.313   5.572   9.953 -0.0727  0.4613  0.1304
  602MOL0     C82953   9.248   5.706   9.974 -0.1736 -0.7646 -0.9745
  602MOL0     C82954   9.340   5.805  10.048 -0.0198 -0.5850  0.5116
  602MOL0     N82955   9.279   5.937  10.088  0.1601 -0.5751 -0.3263
  602MOL0     C82956   9.165   5.952  10.160  0.4143 -0.0663 -0.1640
  602MOL0     C82957   9.148   6.090  10.169 -0.6362 -0.0064  0.0895
  602MOL0     C82958   9.051   6.166  10.249  0.4883  0.6682 -0.5749
  602MOL0     C82959   9.025   6.104  10.390 -0.3640  0.5563 -0.2353
  602MOL0     C82960   8.940   6.202  10.467  0.6846  0.4842 -0.0402
  602MOL0     C82961   8.914   6.160  10.611  0.0535 -0.2780 -1.9273
  602MOL0     O82962   8.999   6.224  10.715 -0.2054  1.0174 -0.0026
  602MOL0     C82963   9.069   6.142  10.801 -0.3061  0.4677  0.9381
  602MOL0     C82964   9.055   6.004  10.831  0.9446  0.0957  0.8257
  602MOL0     C82965   9.124   5.934  10.929 -1.0132  0.8282  0.4167
  602MOL0     C82966   9.098   5.788  10.951  0.1562  0.3141 -0.6837
  602MOL0     C82967   9.230   6.003  10.998 -0.4729  0.5813 -0.7482
  602MOL0     C82968   9.342   5.940  11.078  0.2704 -0.1071 -0.0776
  602MOL0     O82969   9.466   6.008  11.089 -0.7472 -0.3632  0.1662
  602MOL0     C82970   9.576   5.930  11.128  0.4721  0.2176  0.1531
  602MOL0     C82971   9.605   5.908  11.258  0.7946  0.0700  0.6287
  602MOL0     C82972   9.724   5.845  11.291  0.0865 -0.5274 -0.7867
  602MOL0     C82973   9.811   5.795  11.198  0.2715 -0.2805 -0.1411
  602MOL0     O82974   9.939   5.753  11.234  0.0859  0.3324  0.9209
  602MOL0     C82975  10.042   5.750  11.134  0.7008 -0.2901 -0.6218
  602MOL0     C82976  10.178   5.726  11.202  1.1742  0.5170  0.0472
  602MOL0     C82977  10.176   5.623  11.322 -1.3707  0.3684 -0.1595
  602MOL0     C82978  10.315   5.598  11.387  0.7221  0.5483 -0.0168
  602MOL0     C82979  10.318   5.530  11.517 -0.0574 -0.0889  0.0727
  602MOL0     C82980  10.242   5.398  11.509 -0.4615 -0.1413  0.3179
  602MOL0     C82981  10.249   5.332  11.641  0.1543  0.1551 -0.2375
  602MOL0     C82982  10.166   5.209  11.638 -0.8538  0.2784 -0.0065
  602MOL0    Cl82983   9.992   5.248  11.644 -0.1428 -0.2229 -0.0539
  602MOL0     C82984   9.777   5.808  11.065 -0.3038 -0.0524  0.8944
  602MOL0     C82985   9.660   5.884  11.030 -0.1154  0.2149  0.5968
  602MOL0     O82986   9.317   5.834  11.135  0.1946  0.3834  0.1767
  602MOL0     C82987   9.244   6.139  10.970 -0.2930 -1.1046 -1.1262
  602MOL0     C82988   9.165   6.210  10.878 -0.4363 -0.9763  0.1208
  602MOL0     N82989   9.242   6.137  10.084  0.9373  0.7154  0.2061
  602MOL0     N82990   9.321   6.046  10.042  0.0716 -0.6434  0.2997
  602MOL0     C82991   9.582   5.275   9.203 -0.1201  0.0668  0.6231
  602MOL0     C82992   9.531   5.205   9.098 -0.1838 -0.8520  0.1463
  602MOL0     C82993   9.216   5.167   8.741 -0.6868  1.4015  0.0310
  602MOL0     C82994   9.310   5.175   8.638 -0.9689 -0.2327  0.2888
  602MOL0     C82995   9.258   5.178   8.503 -0.4527  0.1734 -0.1910
  602MOL0     C82996   9.124   5.153   8.467 -0.0530 -0.4397  0.6731
  602MOL0     O82997   9.099   5.127   8.340  0.3757  0.1024  0.4864
  602MOL0     C82998   8.966   5.151   8.286 -0.7072  0.1529  0.6466
  602MOL0     C82999   8.978   5.222   8.153  1.0810  0.0222 -1.3794
  602MOL0     C83000   8.997   5.369   8.177  0.3320 -0.0902 -0.7300
  602MOL0     C83001   8.855   5.432   8.183 -0.5204  0.0841  0.0806
  602MOL0     C83002   8.875   5.573   8.155 -0.4848  0.0644  0.0718
  602MOL0     C83003   8.892   5.696   8.145 -0.1928  1.5764  0.2437
  602MOL0     C83004   9.042   5.125   8.566 -0.4053 -0.7939 -1.6436
  602MOL0     C83005   9.076   5.143   8.701 -1.0630 -0.4785  0.3690
  602MOL0     C83006   8.950   5.165   8.790 -1.2143  0.5641 -0.6455
  602MOL0     H83007   9.263   5.391   9.026 -0.0204 -0.2546 -0.7979
  602MOL0     H83008   9.336   5.499   9.242  0.8616  2.3304 -1.8494
  602MOL0     H83009   9.415   5.518   9.471 -0.9975 -0.0547 -2.4904
  602MOL0     H83010   9.504   5.617   9.350 -2.3064  0.4696  1.1017
  602MOL0     H83011   9.703   5.602   9.512  0.6593  0.3061  0.1084
  602MOL0     H83012   9.563   5.710   9.519 -2.3359 -0.5208  0.4105
  602MOL0     H83013   9.568   5.447   9.677 -0.4035 -0.2266  1.2413
  602MOL0     H83014   9.664   5.577   9.736  0.2854  0.7832 -0.5955
  602MOL0     H83015   9.458   5.714   9.722  1.8424  0.8830  4.0363
  602MOL0     H83016   9.367   5.557   9.700 -1.6569  1.4791  2.1807
  602MOL0     H83017   9.524   5.639   9.943  1.3123  0.5384 -0.7186
  602MOL0     H83018   9.485   5.473   9.900  2.2574  0.6228 -0.3002
  602MOL0     H83019   9.244   5.510   9.895 -1.9678  3.6158 -1.2110
  602MOL0     H83020   9.324   5.528  10.052  0.7112  1.9271  0.7305
  602MOL0     H83021   9.153   5.686  10.023 -0.5598  2.4103 -0.2587
  602MOL0     H83022   9.233   5.762   9.881 -1.2844 -2.2462 -1.7429
  602MOL0     H83023   9.379   5.765  10.142  1.2345  4.1517  2.3283
  602MOL0     H83024   9.420   5.828   9.977 -1.8608  4.3823 -0.3326
  602MOL0     H83025   9.114   5.873  10.213  0.5368  1.1945  1.9345
  602MOL0     H83026   8.956   6.181  10.196 -0.3338  1.6397  1.1122
  602MOL0     H83027   9.096   6.263  10.268  0.5081  0.4973  0.2560
  602MOL0     H83028   8.963   6.017  10.365 -1.6740  2.0629 -2.5648
  602MOL0     H83029   9.114   6.077  10.447 -2.4318 -1.3971  2.3119
  602MOL0     H83030   8.974   6.305  10.456 -0.4762  0.8937  0.0835
  602MOL0     H83031   8.847   6.191  10.412  0.3571 -0.4374  0.6572
  602MOL0     H83032   8.812   6.198  10.622  0.6726  0.6506  3.1927
  602MOL0     H83033   8.911   6.051  10.618  1.9064 -0.2488  0.9519
  602MOL0     H83034   8.978   5.952  10.774  1.8102 -0.0154 -0.2888
  602MOL0     H83035   9.196   5.738  10.951 -0.2902 -0.5898 -1.1562
  602MOL0     H83036   9.033   5.750  10.872 -0.5277  4.0068 -2.0796
  602MOL0     H83037   9.057   5.760  11.049 -0.8706  1.3367 -0.8053
  602MOL0     H83038   9.550   5.948  11.343  1.3569  1.2253  0.4635
  602MOL0     H83039   9.757   5.851  11.394  0.1987 -2.0790 -0.7006
  602MOL0     H83040  10.026   5.665  11.068 -0.6749 -0.4041 -0.1714
  602MOL0     H83041  10.042   5.838  11.069 -3.4566 -0.7234 -1.4831
  602MOL0     H83042  10.260   5.708  11.132  0.4579  0.7298 -0.8829
  602MOL0     H83043  10.193   5.819  11.257 -0.1643  2.4702 -2.6347
  602MOL0     H83044  10.142   5.527  11.280  0.6057  0.0186 -1.0895
  602MOL0     H83045  10.106   5.653  11.400 -0.9420 -2.1219  1.2916
  602MOL0     H83046  10.363   5.696  11.393 -2.8149  2.4361 -0.3241
  602MOL0     H83047  10.379   5.533  11.325  1.3040  1.1997 -0.1141
  602MOL0     H83048  10.421   5.509  11.549  0.0929  1.7748  0.9264
  602MOL0     H83049  10.266   5.587  11.595  0.8456  3.0785 -1.4764
  602MOL0     H83050  10.278   5.338  11.425  3.4988  0.7826  1.1693
  602MOL0     H83051  10.136   5.420  11.492 -0.8432 -0.5458  1.9666
  602MOL0     H83052  10.200   5.391  11.720  0.7587 -0.9740  1.0227
  602MOL0     H83053  10.353   5.306  11.663  0.0033 -0.2586  0.0101
  602MOL0     H83054  10.190   5.158  11.732 -1.4850 -1.8741 -0.9550
  602MOL0     H83055  10.183   5.132  11.562  1.1830  0.4396  0.2262
  602MOL0     H83056   9.841   5.767  10.986 -2.0352 -2.6861  0.7126
  602MOL0     H83057   9.635   5.890  10.924 -0.4269 -1.5356  0.5350
  602MOL0     H83058   9.325   6.195  11.015  0.4300 -1.8543 -1.4516
  602MOL0     H83059   9.179   6.315  10.856  1.8753 -1.2427  0.0511
  602MOL0     H83060   9.679   5.240   9.237  1.3071  2.1971 -0.9824
  602MOL0     H83061   9.588   5.124   9.054  0.8804 -1.2342  2.1019
  602MOL0     H83062   9.415   5.193   8.662 -1.3618 -0.6881  2.5464
  602MOL0     H83063   9.332   5.198   8.427 -2.6874  0.2214 -2.4893
  602MOL0     H83064   8.912   5.056   8.278  1.8892 -1.3133 -1.0894
  602MOL0     H83065   8.916   5.214   8.359  0.1560  0.7787  0.7161
  602MOL0     H83066   8.887   5.204   8.096  0.5936  1.0988 -0.9770
  602MOL0     H83067   9.065   5.186   8.098 -0.8102 -2.9783 -2.6679
  602MOL0     H83068   9.058   5.408   8.259 -1.9312  2.5211 -0.1177
  602MOL0     H83069   9.049   5.408   8.089 -0.2228  0.7736 -0.6882
  602MOL0     H83070   8.836   5.420   8.290  0.7306 -0.4425  0.2535
  602MOL0     H83071   8.776   5.382   8.126 -0.3435 -1.5327  1.1787
  602MOL0     H83072   8.904   5.800   8.121 -2.8423  1.6457 -1.1164
  602MOL0     H83073   8.941   5.099   8.535 -0.3150 -3.1281 -0.2301
  602MOL0     H83074   8.920   5.084   8.856 -3.4314  0.1332 -2.0806
  602MOL0     H83075   8.965   5.258   8.846  1.2608 -0.5733  0.7107
  602MOL0     H83076   8.856   5.173   8.735  0.0514 -1.5396 -3.3035
  603MOL0     O83077   6.053   6.072   4.864 -0.4746  0.2243  0.1247
  603MOL0     C83078   5.997   6.152   4.789 -0.6085 -0.4228 -0.4460
  603MOL0     O83079   5.990   6.148   4.651  0.1147  0.6516  0.3747
  603MOL0     C83080   6.090   6.074   4.593 -0.7064 -0.5929 -1.2867
  603MOL0     C83081   6.064   5.956   4.526 -0.3058  0.6616 -0.9636
  603MOL0     C83082   6.168   5.890   4.456 -0.2365  0.0331 -1.1004
  603MOL0     C83083   6.291   5.947   4.446  0.5624  0.1392 -0.7918
  603MOL0     O83084   6.384   5.867   4.382 -0.1636 -0.5240 -0.2798
  603MOL0     C83085   6.509   5.922   4.335  0.6863 -0.1227 -0.0065
  603MOL0     C83086   6.596   5.819   4.281 -0.1733  0.3379  0.0477
  603MOL0     C83087   6.662   5.745   4.404 -0.5339  0.9515  0.1432
  603MOL0     C83088   6.785   5.660   4.362  0.0991  0.0704 -0.0480
  603MOL0     C83089   6.886   5.632   4.476  0.1978  0.5413  0.0417
  603MOL0     C83090   6.844   5.527   4.579  0.8649  0.1564 -0.3280
  603MOL0     C83091   6.939   5.532   4.701 -0.7719 -0.5235  0.0332
  603MOL0     C83092   7.085   5.505   4.654 -0.0653  0.2998 -0.8438
  603MOL0     N83093   7.185   5.474   4.761 -0.0448  0.7398  0.0710
  603MOL0     C83094   7.314   5.503   4.753 -0.5008  0.2879 -0.9632
  603MOL0     C83095   7.365   5.468   4.870  0.7866  0.5824  1.0588
  603MOL0     C83096   7.512   5.492   4.914 -0.0299 -0.0321  0.7023
  603MOL0     C83097   7.536   5.633   4.975 -0.8181 -0.1763  0.8723
  603MOL0     C83098   7.690   5.644   5.019  0.4693  0.1968 -0.4234
  603MOL0     C83099   7.718   5.781   5.070 -0.2628 -0.0802 -0.0632
  603MOL0     O83100   7.649   5.813   5.193  0.4319  0.3217 -0.0508
  603MOL0     C83101   7.682   5.762   5.316 -0.1641  0.0287  0.2439
  603MOL0     C83102   7.611   5.801   5.428  0.1134  0.0659 -0.4194
  603MOL0     C83103   7.650   5.769   5.554  0.2840 -0.0312 -0.5178
  603MOL0     C83104   7.578   5.842   5.671 -0.1621  0.7481  0.0285
  603MOL0     C83105   7.762   5.687   5.582  0.7912 -0.7832 -0.7290
  603MOL0     C83106   7.812   5.635   5.707  0.3652  0.6770 -0.4567
  603MOL0     O83107   7.737   5.657   5.819 -0.6022 -0.1007 -0.0798
  603MOL0     C83108   7.784   5.622   5.944 -0.5767 -0.4373  0.1982
  603MOL0     C83109   7.922   5.628   5.977 -0.0691 -0.8170 -0.4730
  603MOL0     C83110   7.966   5.589   6.104  0.5166 -0.3258 -0.0464
  603MOL0     C83111   7.875   5.549   6.203 -0.0993  0.3552  0.1017
  603MOL0     O83112   7.909   5.492   6.321  0.2090 -0.2801  0.0747
  603MOL0     C83113   8.038   5.444   6.341 -0.5744  0.0500  0.6401
  603MOL0     C83114   8.037   5.360   6.466 -0.3285 -0.0015  0.8976
  603MOL0     C83115   7.956   5.236   6.466  0.2853  0.0067  0.4246
  603MOL0     C83116   7.961   5.184   6.608  0.7677  0.0884 -0.4911
  603MOL0     C83117   7.843   5.088   6.625  0.7772  0.7318  0.6278
  603MOL0     C83118   7.813   5.045   6.764  0.0332  0.2879  0.8113
  603MOL0     C83119   7.922   4.964   6.835  0.6186  0.2458 -0.2550
  603MOL0     C83120   7.967   4.853   6.746  0.8357  0.8189 -0.2751
  603MOL0    Cl83121   8.075   4.736   6.837  0.6939  0.1304 -0.4204
  603MOL0     C83122   7.731   5.551   6.180  0.0017  0.1508 -0.1907
  603MOL0     C83123   7.693   5.586   6.046  0.1747  0.2324 -0.3023
  603MOL0     O83124   7.908   5.556   5.704  0.2745 -0.7555  0.2169
  603MOL0     C83125   7.837   5.644   5.468  0.6428  0.0872  0.5468
  603MOL0     C83126   7.799   5.681   5.340 -0.1680  0.0459  0.1199
  603MOL0     N83127   7.264   5.421   4.945  0.0749 -0.1121  0.4010
  603MOL0     N83128   7.149   5.424   4.877 -0.2063 -0.0843 -0.0934
  603MOL0     C83129   6.320   6.068   4.520  0.1848  0.9560 -0.1319
  603MOL0     C83130   6.219   6.133   4.588  0.3824 -0.1441  0.6257
  603MOL0     C83131   5.921   6.272   4.852  0.9594  0.8706  0.9878
  603MOL0     C83132   5.810   6.320   4.773  0.2174 -0.1923  0.5205
  603MOL0     C83133   5.723   6.429   4.820 -0.0332 -0.3743  0.2306
  603MOL0     C83134   5.740   6.476   4.949 -0.8141 -0.3980 -0.5504
  603MOL0     O83135   5.654   6.578   4.980  0.5523  0.6076 -0.7928
  603MOL0     C83136   5.679   6.653   5.101 -0.1054 -0.1489 -1.0561
  603MOL0     C83137   5.565   6.744   5.134 -0.2685 -0.0975 -0.4973
  603MOL0     C83138   5.439   6.655   5.156  0.4651  0.2371  0.2579
  603MOL0     C83139   5.299   6.733   5.153  0.5792  0.3337  0.4311
  603MOL0     C83140   5.300   6.829   5.264  0.4107 -0.4958  0.0599
  603MOL0     C83141   5.295   6.918   5.347  0.3023  0.0854 -0.4823
  603MOL0     C83142   5.837   6.426   5.030  0.3121  0.3429  0.3353
  603MOL0     C83143   5.930   6.322   4.979 -0.3025 -0.3976  0.1904
  603MOL0     C83144   6.038   6.269   5.072  0.3507 -0.5941  0.1059
  603MOL0     H83145   5.967   5.914   4.552  0.2682  1.3807  3.0068
  603MOL0     H83146   6.161   5.784   4.432  3.4932 -0.1328 -2.0616
  603MOL0     H83147   6.557   5.983   4.412  2.7424 -0.6413 -0.8206
  603MOL0     H83148   6.479   5.984   4.250  0.3508  0.6389  0.6542
  603MOL0     H83149   6.543   5.737   4.234  1.4897 -0.7968  0.0527
  603MOL0     H83150   6.673   5.849   4.209 -1.0886  0.1582 -1.0231
  603MOL0     H83151   6.691   5.812   4.484 -0.6524  3.9778 -2.1725
  603MOL0     H83152   6.583   5.679   4.442 -1.5966  2.4721  0.6596
  603MOL0     H83153   6.754   5.562   4.325  0.7680 -0.2880  0.3279
  603MOL0     H83154   6.834   5.702   4.274 -2.4715  2.1356 -0.6005
  603MOL0     H83155   6.926   5.722   4.522  5.3506 -1.7931  0.8552
  603MOL0     H83156   6.973   5.583   4.430  0.3081 -1.5378  2.2511
  603MOL0     H83157   6.747   5.537   4.629  0.6643 -3.1645  0.1510
  603MOL0     H83158   6.831   5.431   4.529  0.0986 -0.2474  0.6287
  603MOL0     H83159   6.905   5.459   4.774  2.2759  0.7488  2.9864
  603MOL0     H83160   6.935   5.630   4.748  1.1612  0.9429 -2.5710
  603MOL0     H83161   7.086   5.425   4.579  0.6557 -0.8826  0.3791
  603MOL0     H83162   7.126   5.593   4.605  2.4601 -0.7543 -0.7853
  603MOL0     H83163   7.369   5.533   4.664 -2.1852  0.9800 -1.8248
  603MOL0     H83164   7.582   5.483   4.830  3.0877  0.7338  3.0508
  603MOL0     H83165   7.528   5.416   4.990 -2.7294  0.3790  1.8186
  603MOL0     H83166   7.516   5.716   4.907 -0.4630 -0.3401  0.5669
  603MOL0     H83167   7.455   5.635   5.049 -2.1161 -1.3273 -0.4632
  603MOL0     H83168   7.698   5.584   5.109 -1.2403  1.1055  0.3767
  603MOL0     H83169   7.756   5.616   4.936  3.5096 -0.0570  1.8897
  603MOL0     H83170   7.826   5.797   5.076 -0.4227  0.5670  2.3027
  603MOL0     H83171   7.697   5.849   4.988  2.3023 -0.4260 -1.0909
  603MOL0     H83172   7.526   5.866   5.415  0.6680  1.2341  1.3572
  603MOL0     H83173   7.534   5.937   5.639  1.3712  0.7881 -2.2508
  603MOL0     H83174   7.646   5.865   5.753 -0.7618  0.1605  0.7104
  603MOL0     H83175   7.496   5.778   5.706  1.2748 -0.7407  0.8527
  603MOL0     H83176   7.995   5.657   5.902  0.4161 -0.6274  0.0715
  603MOL0     H83177   8.072   5.602   6.122  0.1791  1.1615  1.1322
  603MOL0     H83178   8.078   5.389   6.256  1.2400 -0.3138  1.6633
  603MOL0     H83179   8.113   5.523   6.353  1.0624 -0.8239 -2.7708
  603MOL0     H83180   8.141   5.333   6.485  0.7623 -1.3982 -5.0775
  603MOL0     H83181   8.005   5.419   6.553  1.7221 -0.5476  2.0819
  603MOL0     H83182   8.004   5.168   6.394 -1.7293 -1.1119  0.0509
  603MOL0     H83183   7.854   5.262   6.439  0.0077 -1.1851  0.2686
  603MOL0     H83184   7.944   5.268   6.676  1.6645 -0.1642  0.0603
  603MOL0     H83185   8.061   5.141   6.624  0.0556 -1.6372 -0.5035
  603MOL0     H83186   7.756   5.147   6.591  1.3319  0.6262 -1.0595
  603MOL0     H83187   7.852   5.002   6.558  0.6628 -1.1253  2.9164
  603MOL0     H83188   7.731   4.974   6.750  0.0196  0.8478 -3.1279
  603MOL0     H83189   7.796   5.127   6.834 -4.1425  1.6196 -1.3903
  603MOL0     H83190   7.883   4.942   6.935 -0.1478 -0.9484 -0.7927
  603MOL0     H83191   8.005   5.032   6.856  1.2137  0.5145 -3.0512
  603MOL0     H83192   8.028   4.894   6.665 -0.6004 -0.9354 -2.3650
  603MOL0     H83193   7.875   4.805   6.709  1.2649 -0.7789  0.6490
  603MOL0     H83194   7.664   5.531   6.263  0.0189  0.3973 -0.1149
  603MOL0     H83195   7.586   5.588   6.026  0.2086  0.6516 -0.4481
  603MOL0     H83196   7.915   5.569   5.483 -0.4793 -0.7160  2.9563
  603MOL0     H83197   7.872   5.650   5.266  1.7156  1.0554  1.4744
  603MOL0     H83198   6.418   6.113   4.504  1.0063 -0.4796  0.6147
  603MOL0     H83199   6.245   6.232   4.626  1.8345  1.0085 -2.9018
  603MOL0     H83200   5.793   6.272   4.678  0.6390 -0.1717  0.4337
  603MOL0     H83201   5.653   6.470   4.747 -0.2847  1.2677  1.3158
  603MOL0     H83202   5.684   6.584   5.185 -1.2385  1.1214  0.1168
  603MOL0     H83203   5.769   6.715   5.091  1.7002 -2.8978 -3.3204
  603MOL0     H83204   5.550   6.817   5.054 -2.2433 -0.2475 -0.3243
  603MOL0     H83205   5.590   6.797   5.227  1.3360  1.0352 -1.5259
  603MOL0     H83206   5.427   6.575   5.082 -2.9423  0.3535  0.5258
  603MOL0     H83207   5.438   6.615   5.258  0.7503 -1.7151 -0.4586
  603MOL0     H83208   5.205   6.677   5.151  0.0369  1.2536 -0.2815
  603MOL0     H83209   5.290   6.778   5.054  0.9687 -0.3701  0.0623
  603MOL0     H83210   5.298   7.000   5.417  2.0528 -0.8650  0.6483
  603MOL0     H83211   5.840   6.457   5.134 -0.7757 -0.0674  0.5043
  603MOL0     H83212   6.006   6.168   5.100 -0.3587 -0.9647 -1.8750
  603MOL0     H83213   6.122   6.266   5.003 -1.6751  0.5829 -2.6187
  603MOL0     H83214   6.044   6.326   5.165 -0.3901  3.1874 -1.9398
  604MOL0     O83215   7.419   1.697   7.964  0.1839 -0.4649  0.3523
  604MOL0     C83216   7.431   1.687   7.838 -0.4858 -0.1739 -0.3472
  604MOL0     O83217   7.352   1.729   7.742 -0.3595  0.0079  0.4367
  604MOL0     C83218   7.222   1.771   7.766  0.0016  0.0877 -0.4421
  604MOL0     C83219   7.139   1.701   7.855  0.5325 -0.5086  0.8151
  604MOL0     C83220   7.005   1.741   7.858  0.2728 -0.2243 -0.6046
  604MOL0     C83221   6.955   1.849   7.781 -0.1319 -0.8809 -0.2235
  604MOL0     O83222   6.816   1.876   7.793 -0.0572 -0.0735 -0.1521
  604MOL0     C83223   6.760   2.010   7.771  0.8614 -0.4062 -0.5786
  604MOL0     C83224   6.618   2.012   7.830 -1.2058  0.7582 -0.0506
  604MOL0     C83225   6.543   1.879   7.849  0.2002  0.2524  0.1874
  604MOL0     C83226   6.488   1.835   7.716  0.3275 -0.1175 -0.3949
  604MOL0     C83227   6.450   1.685   7.709 -0.2279  0.3052 -0.7853
  604MOL0     C83228   6.369   1.658   7.586 -0.4494 -0.5537 -0.3584
  604MOL0     C83229   6.349   1.505   7.543  0.8320 -0.3812 -0.6269
  604MOL0     C83230   6.298   1.404   7.644 -0.1325  0.2940  0.3780
  604MOL0     N83231   6.329   1.267   7.604 -0.0569 -0.3742 -0.0493
  604MOL0     C83232   6.437   1.193   7.637 -0.1034 -0.2251 -0.5008
  604MOL0     C83233   6.430   1.076   7.563 -1.0243  0.0389 -0.2811
  604MOL0     C83234   6.523   0.951   7.563 -0.6366 -0.0309 -0.0564
  604MOL0     C83235   6.468   0.839   7.656 -0.8480 -0.0525  0.0984
  604MOL0     C83236   6.516   0.692   7.641 -0.0865 -0.0801  1.4807
  604MOL0     C83237   6.672   0.675   7.617 -0.3178 -0.6235 -0.4037
  604MOL0     O83238   6.737   0.557   7.669 -0.2542  0.7852  0.5302
  604MOL0     C83239   6.739   0.535   7.802  0.4072  0.5889 -0.3373
  604MOL0     C83240   6.725   0.635   7.902  0.1930  0.1821  0.2842
  604MOL0     C83241   6.748   0.601   8.038  0.8540  0.1067 -0.5311
  604MOL0     C83242   6.747   0.719   8.141 -0.1543 -0.6868 -0.6008
  604MOL0     C83243   6.779   0.466   8.080 -0.6327 -0.0110 -1.1401
  604MOL0     C83244   6.795   0.422   8.221 -1.2031  1.0954  0.2507
  604MOL0     O83245   6.744   0.499   8.311  0.9892 -0.0624 -0.3176
  604MOL0     C83246   6.770   0.475   8.445 -0.5412  1.0162  0.2028
  604MOL0     C83247   6.894   0.511   8.501  0.0041  0.0672  0.0619
  604MOL0     C83248   6.922   0.484   8.633 -0.5003  0.2431 -1.0071
  604MOL0     C83249   6.821   0.425   8.712  0.6863  0.5260 -0.7113
  604MOL0     O83250   6.838   0.390   8.844  0.0134 -0.6374  0.4062
  604MOL0     C83251   6.962   0.331   8.881 -0.4939  0.6652  0.5041
  604MOL0     C83252   7.043   0.435   8.956  0.7091  0.1594 -0.9612
  604MOL0     C83253   7.166   0.372   9.019  1.0074 -0.2388  0.5104
  604MOL0     C83254   7.136   0.258   9.116 -0.1264 -0.2456 -0.7292
  604MOL0     C83255   7.265   0.202   9.187  0.2416 -0.1626 -0.7498
  604MOL0     C83256   7.240   0.052   9.227 -0.1343  0.1708 -0.3192
  604MOL0     C83257   7.360  -0.016   9.290  0.5384 -0.9177 -0.0067
  604MOL0     C83258   7.402   0.054   9.430 -0.1329  0.2106  1.0931
  604MOL0    Cl83259   7.539  -0.023   9.521 -0.3771  0.0458 -0.2665
  604MOL0     C83260   6.702   0.386   8.653 -0.1539 -0.0007 -0.4518
  604MOL0     C83261   6.673   0.410   8.519 -0.1865 -0.3508 -0.2993
  604MOL0     O83262   6.847   0.312   8.241  0.1815  0.5150 -0.2261
  604MOL0     C83263   6.794   0.378   7.974 -0.3747 -0.6411  0.4311
  604MOL0     C83264   6.769   0.402   7.841  0.7106 -0.6214 -0.6441
  604MOL0     N83265   6.315   1.082   7.500  0.3560  0.1494 -0.1410
  604MOL0     N83266   6.247   1.192   7.520  0.5114 -1.6596 -0.8765
  604MOL0     C83267   7.038   1.910   7.695 -0.6321  0.7441  0.0824
  604MOL0     C83268   7.173   1.876   7.684  1.5810 -0.4233  0.5499
  604MOL0     C83269   7.559   1.613   7.798  0.6023 -0.2443  0.0977
  604MOL0     C83270   7.555   1.499   7.715 -0.0578 -0.2664  0.3224
  604MOL0     C83271   7.683   1.436   7.683 -0.1658 -0.7872  0.4954
  604MOL0     C83272   7.804   1.477   7.727  1.0529  0.1135  0.2688
  604MOL0     O83273   7.911   1.405   7.685 -0.4450  0.0575 -0.4018
  604MOL0     C83274   8.036   1.414   7.759  0.0507  0.6880 -0.0220
  604MOL0     C83275   8.031   1.342   7.887 -0.0026  0.2873  0.2123
  604MOL0     C83276   8.008   1.190   7.883 -0.2451 -0.1202 -0.2536
  604MOL0     C83277   8.134   1.111   7.832 -0.9858  0.5353  0.3418
  604MOL0     C83278   8.106   1.014   7.718  0.3687  0.3193  0.0556
  604MOL0     C83279   8.073   0.931   7.637  0.0879 -0.4351 -0.4573
  604MOL0     C83280   7.806   1.591   7.812  0.2990  0.5648 -0.4183
  604MOL0     C83281   7.683   1.662   7.844  0.0360 -0.9838 -0.3877
  604MOL0     C83282   7.694   1.784   7.929  0.5464  1.0554 -0.0933
  604MOL0     H83283   7.176   1.618   7.915 -1.0139 -2.1703 -0.3904
  604MOL0     H83284   6.935   1.692   7.925 -0.9012  1.1167 -0.8062
  604MOL0     H83285   6.773   2.042   7.667  1.2907  1.6680  0.0605
  604MOL0     H83286   6.821   2.083   7.826  3.7256  0.3728 -4.4108
  604MOL0     H83287   6.622   2.058   7.929 -2.1704 -1.8380  1.2952
  604MOL0     H83288   6.558   2.083   7.772 -0.4524 -2.9556 -6.3514
  604MOL0     H83289   6.609   1.798   7.880 -1.5454 -1.8135 -1.2543
  604MOL0     H83290   6.455   1.886   7.914 -0.5847 -1.2068 -0.6718
  604MOL0     H83291   6.401   1.899   7.699  1.5124  0.6854 -4.4724
  604MOL0     H83292   6.547   1.858   7.627 -0.7750  0.0251 -1.1050
  604MOL0     H83293   6.390   1.662   7.798 -0.7880  0.2740 -1.1642
  604MOL0     H83294   6.536   1.619   7.723 -2.1164 -1.7597  2.6918
  604MOL0     H83295   6.273   1.710   7.598 -1.0608 -1.3363 -1.6026
  604MOL0     H83296   6.416   1.704   7.499  1.4398 -1.2315  0.2515
  604MOL0     H83297   6.446   1.466   7.512  0.6446 -2.2728  0.9569
  604MOL0     H83298   6.287   1.506   7.453 -0.1786 -0.8929  0.0364
  604MOL0     H83299   6.351   1.433   7.735 -1.0369  2.1412  0.3668
  604MOL0     H83300   6.189   1.416   7.646 -0.1512  1.0961 -2.1664
  604MOL0     H83301   6.513   1.233   7.704  2.7323  1.1699 -4.1885
  604MOL0     H83302   6.622   0.984   7.594 -1.7304  0.5858  3.1709
  604MOL0     H83303   6.538   0.910   7.463  2.4803 -1.1805  0.7537
  604MOL0     H83304   6.474   0.868   7.762  1.5474  0.3334 -0.0859
  604MOL0     H83305   6.362   0.827   7.632 -0.2275 -2.2343 -1.8875
  604MOL0     H83306   6.481   0.642   7.732 -0.9973 -2.5601 -0.1374
  604MOL0     H83307   6.465   0.652   7.554  1.4754  0.5284  0.2313
  604MOL0     H83308   6.696   0.675   7.511  1.1257  2.4655 -0.1992
  604MOL0     H83309   6.718   0.764   7.661 -1.5488 -0.0331 -0.2713
  604MOL0     H83310   6.702   0.738   7.877  0.2574  0.0481 -0.3623
  604MOL0     H83311   6.669   0.718   8.218  0.2509 -2.4208 -0.1775
  604MOL0     H83312   6.735   0.805   8.075  2.7282  0.0152 -0.3333
  604MOL0     H83313   6.840   0.714   8.198 -2.1489 -3.4680  2.8281
  604MOL0     H83314   6.974   0.560   8.447  0.6784  1.5483  2.2802
  604MOL0     H83315   7.017   0.510   8.679 -0.6226 -1.1533  0.0888
  604MOL0     H83316   6.941   0.245   8.945  0.6152  0.8828  1.1819
  604MOL0     H83317   7.024   0.287   8.803 -0.1438 -5.0081  3.4829
  604MOL0     H83318   7.053   0.532   8.907 -4.1159  0.9201 -0.9389
  604MOL0     H83319   6.981   0.465   9.041 -0.2221 -0.6108 -1.3423
  604MOL0     H83320   7.232   0.450   9.059  0.9136 -0.6464  1.4827
  604MOL0     H83321   7.227   0.329   8.938 -1.4505  0.6471 -1.9730
  604MOL0     H83322   7.076   0.181   9.068 -0.8812 -0.0532 -0.1247
  604MOL0     H83323   7.072   0.280   9.203 -0.7499 -3.1678 -0.3617
  604MOL0     H83324   7.353   0.218   9.125  2.2284 -1.5510  1.4978
  604MOL0     H83325   7.290   0.268   9.271 -0.4494  1.2622 -1.6376
  604MOL0     H83326   7.213  -0.005   9.137  1.9285 -2.1775  0.4081
  604MOL0     H83327   7.158   0.044   9.299  0.7766 -1.7859  0.5946
  604MOL0     H83328   7.448  -0.015   9.223  1.3418 -1.6412  1.0140
  604MOL0     H83329   7.330  -0.121   9.294 -0.2986 -0.8425 -2.4652
  604MOL0     H83330   7.311   0.064   9.491 -1.9439  3.6222 -1.7603
  604MOL0     H83331   7.429   0.155   9.398  1.8799 -1.3331 -2.7397
  604MOL0     H83332   6.625   0.335   8.710  0.6415 -1.9894 -1.0950
  604MOL0     H83333   6.582   0.380   8.467 -0.4301  2.2033 -1.5467
  604MOL0     H83334   6.835   0.281   8.001 -0.7257 -0.7968  0.4040
  604MOL0     H83335   6.786   0.312   7.782  2.3784 -1.1182  0.5093
  604MOL0     H83336   7.004   1.977   7.617  1.0620 -0.1562 -1.5309
  604MOL0     H83337   7.239   1.921   7.612 -1.5609  1.7452 -1.2008
  604MOL0     H83338   7.458   1.470   7.676 -0.1692 -0.0502  0.4356
  604MOL0     H83339   7.675   1.351   7.616  1.8275 -0.9640  0.4201
  604MOL0     H83340   8.123   1.385   7.699  0.6101  0.9523  0.6370
  604MOL0     H83341   8.047   1.519   7.787  0.0999  1.0373 -1.2984
  604MOL0     H83342   7.960   1.393   7.952  0.4163  2.3589 -0.8723
  604MOL0     H83343   8.136   1.355   7.915  0.5143  0.8137 -1.8051
  604MOL0     H83344   7.997   1.159   7.988  0.2772 -1.5092 -0.5819
  604MOL0     H83345   7.920   1.161   7.824  0.1951 -1.1982 -0.4178
  604MOL0     H83346   8.185   1.058   7.913  1.0116  0.9651 -0.5680
  604MOL0     H83347   8.206   1.181   7.790 -0.8354  1.5733  2.2317
  604MOL0     H83348   8.039   0.855   7.570 -1.4530 -1.8489  1.8058
  604MOL0     H83349   7.898   1.637   7.845  0.6883  0.7186 -1.6421
  604MOL0     H83350   7.635   1.781   8.021  1.8435 -0.3308  0.7282
  604MOL0     H83351   7.799   1.792   7.959  0.5814 -2.0222  0.8772
  604MOL0     H83352   7.677   1.874   7.869  0.8107  0.1998 -1.4829
  605MOL0     O83353  10.231   0.685   8.719 -0.3103  0.7995  0.4431
  605MOL0     C83354  10.209   0.750   8.616 -0.1237  0.5907 -0.2377
  605MOL0     O83355  10.271   0.730   8.499 -0.3675 -0.3550  0.2230
  605MOL0     C83356  10.354   0.623   8.479  0.2662  0.5875  0.0277
  605MOL0     C83357  10.313   0.488   8.511 -0.2031  0.2177 -1.2640
  605MOL0     C83358  10.383   0.366   8.492  0.1140  0.4966 -0.4240
  605MOL0     C83359  10.502   0.380   8.421  0.1193 -0.3125  0.1903
  605MOL0     O83360  10.581   0.280   8.377  0.1073 -0.1737 -0.5004
  605MOL0     C83361  10.540   0.140   8.415 -0.8693 -0.2560 -0.7287
  605MOL0     C83362  10.655   0.047   8.368 -0.0202  0.1074  0.3926
  605MOL0     C83363  10.635   0.002   8.234 -0.4681  0.6595  0.6160
  605MOL0     C83364  10.547  -0.130   8.223 -0.1585  0.3347  0.0276
  605MOL0     C83365  10.473  -0.125   8.101  0.3499 -0.2162 -0.7355
  605MOL0     C83366  10.375  -0.238   8.103 -0.1011 -0.9753 -0.2586
  605MOL0     C83367  10.303  -0.247   7.971  1.0480  0.5709  0.0445
  605MOL0     C83368  10.376  -0.312   7.853 -0.1685 -0.2870 -0.0260
  605MOL0     N83369  10.292  -0.350   7.731 -0.7154  0.1435 -0.2068
  605MOL0     C83370  10.188  -0.282   7.684 -0.5170 -0.9219 -0.2742
  605MOL0     C83371  10.136  -0.365   7.590 -0.1105  0.5215 -0.1799
  605MOL0     C83372   9.998  -0.361   7.531 -0.0020  0.1200  0.6100
  605MOL0     C83373   9.991  -0.254   7.417  0.4628  0.0889  0.6292
  605MOL0     C83374   9.927  -0.307   7.287  0.0297 -0.4173  0.1316
  605MOL0     C83375  10.034  -0.355   7.182  0.4225  0.1372 -1.0284
  605MOL0     O83376  10.100  -0.238   7.123  0.2547 -0.4837  0.0629
  605MOL0     C83377  10.241  -0.228   7.122 -0.0962  0.5763 -0.6164
  605MOL0     C83378  10.332  -0.297   7.215  0.2347 -0.8093 -0.6867
  605MOL0     C83379  10.472  -0.277   7.211 -0.7470  0.0126 -0.1422
  605MOL0     C83380  10.541  -0.345   7.330 -1.6505  0.8485  0.2242
  605MOL0     C83381  10.526  -0.184   7.114  0.1125 -0.0604  1.0966
  605MOL0     C83382  10.673  -0.142   7.114  0.1684 -0.4760  1.0134
  605MOL0     O83383  10.710  -0.065   7.000  0.5296  0.6689  0.1230
  605MOL0     C83384  10.837  -0.006   7.008  1.0018 -0.0962  0.2858
  605MOL0     C83385  10.836   0.128   7.034 -0.9174 -0.6417  1.3282
  605MOL0     C83386  10.960   0.199   7.058 -0.4261  0.3286  0.2533
  605MOL0     C83387  11.079   0.128   7.063  0.4418 -0.0242 -0.5865
  605MOL0     O83388  11.191   0.193   7.123  0.3116 -0.1863  0.3941
  605MOL0     C83389  11.322   0.155   7.072 -0.3163 -0.5331 -0.2553
  605MOL0     C83390  11.396   0.284   7.087  0.1045  0.4462 -0.7417
  605MOL0     C83391  11.537   0.261   7.025 -0.7628 -0.2264  0.1658
  605MOL0     C83392  11.597   0.406   7.030 -0.2653 -0.2160 -0.6533
  605MOL0     C83393  11.736   0.405   6.966 -0.4753  0.2938 -0.2900
  605MOL0     C83394  11.795   0.544   6.968 -0.3281 -0.1402  0.5544
  605MOL0     C83395  11.944   0.543   6.933 -0.7306  0.2264 -0.2442
  605MOL0     C83396  12.038   0.491   7.045  0.7937  1.1849  0.3959
  605MOL0    Cl83397  12.214   0.513   6.993 -0.2007 -0.0211 -0.3926
  605MOL0     C83398  11.076  -0.013   7.036  0.1627  0.1806  0.8855
  605MOL0     C83399  10.960  -0.079   7.002 -0.0448  0.8269  0.0428
  605MOL0     O83400  10.749  -0.162   7.207  0.5273  0.4229 -0.8498
  605MOL0     C83401  10.435  -0.124   7.025  0.1938 -0.5985  0.5091
  605MOL0     C83402  10.299  -0.151   7.022 -0.4505  0.2659 -0.1797
  605MOL0     N83403  10.210  -0.480   7.589 -0.3117 -0.1873 -0.1004
  605MOL0     N83404  10.307  -0.467   7.668  0.3884 -0.6832  0.2099
  605MOL0     C83405  10.555   0.512   8.390 -0.0806 -0.7949  0.2760
  605MOL0     C83406  10.482   0.628   8.422  0.0258 -0.0244 -0.1224
  605MOL0     C83407  10.106   0.861   8.631  1.0945 -0.0645  0.4922
  605MOL0     C83408  10.052   0.918   8.522 -0.7434  0.4308  0.6462
  605MOL0     C83409   9.957   1.020   8.518 -0.7226  0.1686 -0.2258
  605MOL0     C83410   9.905   1.057   8.636 -0.5841 -0.3239 -0.0136
  605MOL0     O83411   9.813   1.164   8.625 -0.0534  0.4491  0.5838
  605MOL0     C83412   9.789   1.231   8.746 -0.1712  0.0699 -0.5497
  605MOL0     C83413   9.923   1.294   8.796 -1.0784  0.4396 -0.7173
  605MOL0     C83414   9.987   1.387   8.701  0.2345 -0.4459  0.2115
  605MOL0     C83415  10.106   1.461   8.766 -0.0149 -0.4838  0.1133
  605MOL0     C83416  10.145   1.573   8.670  0.7323  0.6724  0.5367
  605MOL0     C83417  10.148   1.670   8.602  0.7279  0.2132 -0.1933
  605MOL0     C83418   9.946   0.994   8.755  1.0203 -0.0880 -0.0692
  605MOL0     C83419  10.056   0.907   8.754  0.6962  0.3281  0.9061
  605MOL0     C83420  10.094   0.858   8.889 -0.6173 -0.5808 -0.6882
  605MOL0     H83421  10.214   0.470   8.551 -0.0170 -0.9034 -1.2700
  605MOL0     H83422  10.339   0.273   8.526  1.2300 -0.9177 -2.5726
  605MOL0     H83423  10.444   0.095   8.389 -0.0307 -2.4887 -0.2293
  605MOL0     H83424  10.544   0.150   8.524  0.5219 -1.5299 -0.6190
  605MOL0     H83425  10.751   0.100   8.370  0.2985 -0.4608  1.4654
  605MOL0     H83426  10.660  -0.042   8.432  1.1822 -0.1425 -0.0119
  605MOL0     H83427  10.582   0.086   8.189 -0.9283  0.5505  0.9415
  605MOL0     H83428  10.727  -0.021   8.179 -1.2564 -0.8804 -0.1194
  605MOL0     H83429  10.612  -0.218   8.215  0.3160  0.6279  0.5461
  605MOL0     H83430  10.473  -0.134   8.303  1.1654 -3.2164  1.2624
  605MOL0     H83431  10.537  -0.142   8.014 -1.6261 -2.3476 -1.8972
  605MOL0     H83432  10.415  -0.033   8.089  0.4568  0.2389  1.6474
  605MOL0     H83433  10.430  -0.329   8.125 -1.1596 -0.9806  2.9366
  605MOL0     H83434  10.298  -0.226   8.180  0.8710 -2.1669  0.9371
  605MOL0     H83435  10.272  -0.148   7.938 -1.9638  0.1270  1.2653
  605MOL0     H83436  10.214  -0.309   7.981  2.2941 -1.2117  0.7687
  605MOL0     H83437  10.460  -0.250   7.819  0.0813 -0.9417 -0.6198
  605MOL0     H83438  10.414  -0.408   7.888 -2.8768 -1.4746 -0.1227
  605MOL0     H83439  10.149  -0.189   7.724 -1.0605 -0.2021 -2.3663
  605MOL0     H83440   9.924  -0.352   7.611 -0.9021  0.1032 -0.2030
  605MOL0     H83441   9.982  -0.457   7.481  0.4571  1.0304 -1.3916
  605MOL0     H83442   9.932  -0.171   7.456  0.6998  0.8416 -0.5480
  605MOL0     H83443  10.086  -0.208   7.389  0.2882 -1.4395 -2.9875
  605MOL0     H83444   9.856  -0.388   7.304 -3.5261  2.4837  0.2487
  605MOL0     H83445   9.865  -0.231   7.241  2.4823  1.0654 -0.9451
  605MOL0     H83446  10.093  -0.434   7.230  0.5543 -0.7549 -2.5784
  605MOL0     H83447   9.975  -0.410   7.109 -3.3677 -3.3755  4.0061
  605MOL0     H83448  10.292  -0.371   7.284 -1.2465 -0.5772 -1.2520
  605MOL0     H83449  10.522  -0.288   7.422 -1.4271  1.4824 -0.1191
  605MOL0     H83450  10.650  -0.354   7.324 -1.5767  1.8658 -0.2517
  605MOL0     H83451  10.510  -0.450   7.333  1.1773 -0.0297  1.8180
  605MOL0     H83452  10.741   0.181   7.042 -0.0722  0.8460  2.0292
  605MOL0     H83453  10.959   0.296   7.107  0.5522 -0.6873  2.4598
  605MOL0     H83454  11.367   0.081   7.139 -2.4584  0.6111  2.6459
  605MOL0     H83455  11.314   0.125   6.967  1.6181 -0.1121 -0.5730
  605MOL0     H83456  11.349   0.375   7.047  1.0605  1.9027  1.2497
  605MOL0     H83457  11.390   0.308   7.194  2.1064  1.7772 -0.8801
  605MOL0     H83458  11.540   0.230   6.920  0.7236  2.8830 -0.8418
  605MOL0     H83459  11.602   0.205   7.092  1.3251  2.3094  0.4496
  605MOL0     H83460  11.609   0.442   7.133  0.4508 -2.2144  0.0105
  605MOL0     H83461  11.536   0.477   6.973 -0.1956 -1.8632 -2.9090
  605MOL0     H83462  11.798   0.339   7.028 -0.7901 -2.1612 -2.4446
  605MOL0     H83463  11.732   0.355   6.869  2.6137 -2.3818  0.7692
  605MOL0     H83464  11.772   0.610   7.052 -0.0503  2.1088 -1.0522
  605MOL0     H83465  11.749   0.595   6.883  0.4633 -2.0594 -1.1057
  605MOL0     H83466  11.974   0.646   6.910  2.3800 -0.1787  1.4463
  605MOL0     H83467  11.957   0.485   6.840  2.5145 -1.6949  1.2237
  605MOL0     H83468  12.010   0.386   7.052  0.0093  1.1615 -1.9572
  605MOL0     H83469  12.029   0.548   7.138 -0.3773 -1.2260  1.8396
  605MOL0     H83470  11.170  -0.067   7.046 -0.4916 -1.8916 -2.4825
  605MOL0     H83471  10.962  -0.184   6.975 -0.6045  0.4940  1.2281
  605MOL0     H83472  10.466  -0.054   6.949  0.4024 -1.6515 -0.3962
  605MOL0     H83473  10.229  -0.114   6.948 -0.4160 -1.0631 -0.9139
  605MOL0     H83474  10.645   0.520   8.330  0.6741 -1.2121  1.3277
  605MOL0     H83475  10.535   0.721   8.401  1.9102 -0.5901  1.8141
  605MOL0     H83476  10.079   0.876   8.425 -0.8092 -0.5164  1.0286
  605MOL0     H83477   9.916   1.055   8.424 -2.2524 -0.8286  0.0406
  605MOL0     H83478   9.720   1.312   8.721  0.2840  0.6738  0.1356
  605MOL0     H83479   9.735   1.157   8.806 -0.6437  0.5254 -0.4101
  605MOL0     H83480   9.997   1.218   8.821 -1.7074 -0.5670 -1.7894
  605MOL0     H83481   9.899   1.350   8.887  0.2080  1.4524 -0.9877
  605MOL0     H83482  10.026   1.339   8.610  2.9790  1.0331  0.5138
  605MOL0     H83483   9.909   1.459   8.676 -0.5497 -1.3360  0.0203
  605MOL0     H83484  10.194   1.398   8.780  1.4922  1.4595 -0.1593
  605MOL0     H83485  10.080   1.506   8.862 -2.7775  0.9625 -1.2126
  605MOL0     H83486  10.166   1.757   8.541  0.3281  0.3617 -0.1030
  605MOL0     H83487   9.910   1.032   8.850  0.1382  0.7387 -0.7225
  605MOL0     H83488  10.072   0.930   8.969 -0.3055 -1.6249  0.3591
  605MOL0     H83489  10.051   0.764   8.923  1.5221 -1.1701  0.5727
  605MOL0     H83490  10.203   0.848   8.901 -0.3140  2.6721  0.3085
  606MOL0     O83491   0.087   8.145   2.683 -0.5443 -0.1173 -0.1733
  606MOL0     C83492   0.044   8.054   2.759  0.2581 -0.0684  0.6039
  606MOL0     O83493   0.097   8.018   2.876 -0.2698  0.2415 -0.4816
  606MOL0     C83494   0.186   8.111   2.928  0.7963  0.2003 -0.0442
  606MOL0     C83495   0.165   8.247   2.929  0.5077  0.1910 -0.1715
  606MOL0     C83496   0.261   8.333   2.993 -0.1138 -0.2348 -0.0377
  606MOL0     C83497   0.384   8.284   3.038  0.7769 -0.4005  0.5911
  606MOL0     O83498   0.477   8.370   3.090  0.2105 -0.6466 -0.3092
  606MOL0     C83499   0.615   8.328   3.104  0.4918 -0.0962  0.5145
  606MOL0     C83500   0.704   8.447   3.129 -0.2559 -0.4343 -1.0154
  606MOL0     C83501   0.648   8.523   3.252 -0.3956  0.1909 -0.0317
  606MOL0     C83502   0.746   8.631   3.311  0.3842 -0.8034  0.3684
  606MOL0     C83503   0.835   8.565   3.416  0.8374  0.3233 -0.2839
  606MOL0     C83504   0.941   8.656   3.472  0.1076  0.1810  0.9273
  606MOL0     C83505   1.065   8.567   3.521 -0.6768 -0.0963 -0.4501
  606MOL0     C83506   1.163   8.626   3.623 -0.1556  0.3645 -0.6868
  606MOL0     N83507   1.239   8.726   3.557 -0.3760 -0.5285  0.2194
  606MOL0     C83508   1.212   8.858   3.590 -0.8652  0.2874 -0.4559
  606MOL0     C83509   1.281   8.925   3.510  0.1879  0.1591  0.8293
  606MOL0     C83510   1.267   9.076   3.517 -0.5145  0.8808  0.6177
  606MOL0     C83511   1.338   9.133   3.638 -0.4635 -0.0645  0.3217
  606MOL0     C83512   1.301   9.283   3.638 -0.0408 -0.4226 -0.2814
  606MOL0     C83513   1.343   9.337   3.775 -0.4479  0.3401  0.4518
  606MOL0     O83514   1.480   9.328   3.800  0.3408  0.3064 -0.0982
  606MOL0     C83515   1.563   9.414   3.737 -0.7924  0.5167 -0.0411
  606MOL0     C83516   1.530   9.526   3.661 -0.0976 -0.1164  0.2818
  606MOL0     C83517   1.623   9.600   3.574  0.8196 -0.2234 -0.2017
  606MOL0     C83518   1.564   9.714   3.492 -0.3335 -0.0484 -0.5716
  606MOL0     C83519   1.755   9.551   3.568 -0.9362  1.1550 -0.0185
  606MOL0     C83520   1.850   9.621   3.481  0.2826 -0.0700  0.6770
  606MOL0     O83521   1.865   9.750   3.492 -0.2852 -1.1541 -0.2172
  606MOL0     C83522   1.948   9.827   3.413 -0.1749  0.3852  0.2057
  606MOL0     C83523   2.080   9.802   3.417  0.2133  0.2726  1.2366
  606MOL0     C83524   2.168   9.868   3.340 -0.1508 -0.8671  1.0952
  606MOL0     C83525   2.124   9.972   3.254  0.8561 -0.7450  0.0317
  606MOL0     O83526   2.206  10.068   3.196 -0.3643 -0.2902  0.2318
  606MOL0     C83527   2.349  10.067   3.224 -0.2366 -0.0619  0.4109
  606MOL0     C83528   2.417  10.166   3.123 -0.7940  0.3806 -0.6210
  606MOL0     C83529   2.397  10.135   2.981  0.5520  0.0877  0.2928
  606MOL0     C83530   2.471  10.229   2.882  0.2668 -0.3748 -0.2616
  606MOL0     C83531   2.491  10.162   2.748  1.1579 -0.2849 -0.2091
  606MOL0     C83532   2.576  10.243   2.644 -1.1531 -0.7371 -0.5713
  606MOL0     C83533   2.533  10.229   2.502  0.0524 -0.1425 -0.1129
  606MOL0     C83534   2.567  10.089   2.445 -0.0069 -0.6121  0.7076
  606MOL0    Cl83535   2.572  10.108   2.274 -0.0834  0.7245  0.4077
  606MOL0     C83536   1.987   9.993   3.244 -0.0812 -0.4706 -0.8838
  606MOL0     C83537   1.899   9.921   3.326 -0.1041 -0.2325 -0.3484
  606MOL0     O83538   1.924   9.546   3.419  0.0617 -0.6413 -0.0943
  606MOL0     C83539   1.790   9.452   3.657 -1.0050 -0.0395 -0.5752
  606MOL0     C83540   1.700   9.374   3.733 -0.5889  0.1033  0.5678
  606MOL0     N83541   1.359   8.847   3.433 -0.2232  0.4854  0.2207
  606MOL0     N83542   1.321   8.723   3.452 -0.6943  0.0829 -0.4173
  606MOL0     C83543   0.393   8.143   3.047  0.5236 -0.2728 -0.3726
  606MOL0     C83544   0.296   8.061   2.983 -0.7184  0.1427  0.2943
  606MOL0     C83545  -0.075   7.974   2.716  0.0959 -0.0870 -0.2492
  606MOL0     C83546  -0.117   7.970   2.579  1.0939 -0.1984  0.2251
  606MOL0     C83547  -0.236   7.917   2.534 -1.0477 -0.4905 -0.5705
  606MOL0     C83548  -0.313   7.837   2.614  0.9236 -0.1021  0.0819
  606MOL0     O83549  -0.424   7.773   2.555  0.7747 -0.1772  0.1238
  606MOL0     C83550  -0.496   7.671   2.628 -0.3684  0.4855  0.1990
  606MOL0     C83551  -0.475   7.529   2.564  0.5275 -0.2473  0.8919
  606MOL0     C83552  -0.335   7.459   2.568 -0.3408 -0.4934  0.0624
  606MOL0     C83553  -0.282   7.441   2.717  0.3404 -0.0542  0.4679
  606MOL0     C83554  -0.143   7.386   2.710  0.5144 -0.9034 -0.0619
  606MOL0     C83555  -0.035   7.339   2.687  0.0615  0.3680  1.0025
  606MOL0     C83556  -0.269   7.819   2.743 -0.0609 -0.0450 -0.8074
  606MOL0     C83557  -0.153   7.893   2.802 -0.0724 -0.0943  0.3616
  606MOL0     C83558  -0.118   7.871   2.950  0.0531 -0.3619  0.2119
  606MOL0     H83559   0.076   8.295   2.889  0.1041 -0.9307 -0.6426
  606MOL0     H83560   0.246   8.440   2.985 -2.6679 -0.4759  0.5907
  606MOL0     H83561   0.650   8.269   3.020 -0.9716 -0.7215  0.3131
  606MOL0     H83562   0.618   8.254   3.184  1.2338 -0.6145  0.0107
  606MOL0     H83563   0.809   8.420   3.146 -0.2794  0.4934  0.8441
  606MOL0     H83564   0.707   8.510   3.040  0.3887 -1.1064 -1.4838
  606MOL0     H83565   0.557   8.573   3.216 -0.1146 -0.1445 -1.2486
  606MOL0     H83566   0.625   8.448   3.328  1.6741  0.0903  0.5596
  606MOL0     H83567   0.803   8.686   3.237  3.2461 -1.7840  1.6683
  606MOL0     H83568   0.681   8.706   3.355  3.4805  2.6939 -0.4776
  606MOL0     H83569   0.886   8.476   3.378  1.2832  0.2881  0.3748
  606MOL0     H83570   0.786   8.534   3.509  3.0066  1.5553  1.3646
  606MOL0     H83571   0.980   8.730   3.402  0.3802 -0.0383  0.8469
  606MOL0     H83572   0.893   8.708   3.555  1.1393  0.3859  1.4090
  606MOL0     H83573   1.121   8.526   3.436  2.8596 -1.3324  2.2097
  606MOL0     H83574   1.024   8.478   3.569 -1.5903  1.2084  1.3305
  606MOL0     H83575   1.111   8.654   3.715  0.9852 -0.4201  0.2342
  606MOL0     H83576   1.243   8.554   3.645  0.5557  0.5593 -2.4634
  606MOL0     H83577   1.153   8.899   3.671  0.4143  0.8280  0.2384
  606MOL0     H83578   1.163   9.110   3.511 -0.2086  1.6081 -3.5633
  606MOL0     H83579   1.312   9.124   3.430  1.3533  0.5569  1.3642
  606MOL0     H83580   1.318   9.081   3.732  0.0450 -2.7577 -0.9527
  606MOL0     H83581   1.447   9.123   3.630 -0.3684  0.2771  1.1300
  606MOL0     H83582   1.341   9.328   3.547  1.0661 -3.1395 -1.2559
  606MOL0     H83583   1.192   9.282   3.647  0.0954  0.8321  4.4296
  606MOL0     H83584   1.308   9.440   3.782  0.1753  0.5530  0.4749
  606MOL0     H83585   1.291   9.271   3.845  0.0012 -3.1674 -2.2355
  606MOL0     H83586   1.429   9.566   3.664  0.9080  2.6410 -0.1003
  606MOL0     H83587   1.458   9.713   3.518 -0.5260  2.5290 -0.9906
  606MOL0     H83588   1.572   9.695   3.385  2.6609 -2.5515 -0.0482
  606MOL0     H83589   1.600   9.813   3.524 -1.4059 -0.9590  4.2362
  606MOL0     H83590   2.121   9.730   3.488 -0.2864 -0.6872  0.5835
  606MOL0     H83591   2.272   9.839   3.327 -0.8008 -3.4904  1.1609
  606MOL0     H83592   2.364  10.099   3.328 -3.4370 -0.5069  1.1242
  606MOL0     H83593   2.402   9.972   3.214 -1.0203 -0.3773 -1.0292
  606MOL0     H83594   2.374  10.266   3.139  0.6186  0.6334  2.5043
  606MOL0     H83595   2.525  10.175   3.141 -1.0798  1.3240  0.8590
  606MOL0     H83596   2.290  10.144   2.962  0.5161 -0.2327  0.3424
  606MOL0     H83597   2.418  10.028   2.969 -3.5412 -0.7816 -0.6833
  606MOL0     H83598   2.569  10.259   2.919 -0.1000 -1.6174  1.9198
  606MOL0     H83599   2.403  10.313   2.866  1.8513  0.7730 -1.1966
  606MOL0     H83600   2.537  10.064   2.765 -0.5199 -1.3204 -1.3849
  606MOL0     H83601   2.388  10.152   2.713  0.0269  2.0462  2.0736
  606MOL0     H83602   2.680  10.219   2.664 -0.7050  0.8800 -0.8148
  606MOL0     H83603   2.566  10.350   2.666 -0.8116 -0.5788 -1.1689
  606MOL0     H83604   2.571  10.310   2.438  0.0285 -1.8106 -2.3637
  606MOL0     H83605   2.424  10.238   2.506 -0.0156 -1.3752  1.3748
  606MOL0     H83606   2.500  10.012   2.486  1.4749 -2.0456  0.5278
  606MOL0     H83607   2.665  10.059   2.482  0.7214  1.9263  0.9907
  606MOL0     H83608   1.945  10.066   3.175  2.1689  0.7808 -1.0478
  606MOL0     H83609   1.797   9.954   3.340  0.9296  3.6399 -0.9260
  606MOL0     H83610   1.894   9.425   3.670 -1.3078 -0.3013  1.8662
  606MOL0     H83611   1.745   9.292   3.788  0.4954  1.2454  1.4383
  606MOL0     H83612   0.480   8.089   3.083  0.9278  0.6316  0.0372
  606MOL0     H83613   0.308   7.953   2.987  0.5444  0.2467 -0.1255
  606MOL0     H83614  -0.049   8.025   2.514  3.0001 -2.5958  0.0482
  606MOL0     H83615  -0.266   7.937   2.432  0.4862  2.3995 -0.5921
  606MOL0     H83616  -0.450   7.662   2.727  3.0812  0.1198 -1.2941
  606MOL0     H83617  -0.602   7.698   2.632 -1.0565 -1.4033 -2.5696
  606MOL0     H83618  -0.498   7.544   2.458  0.2554  0.7374  1.0870
  606MOL0     H83619  -0.550   7.466   2.612 -2.3087  0.6168 -2.0742
  606MOL0     H83620  -0.343   7.359   2.523  2.5216 -0.6891 -0.1823
  606MOL0     H83621  -0.273   7.531   2.514  0.9068 -2.1990 -0.8980
  606MOL0     H83622  -0.331   7.354   2.762  1.7413  0.3696  2.9475
  606MOL0     H83623  -0.303   7.519   2.790  1.5068  1.7241 -1.0010
  606MOL0     H83624   0.058   7.302   2.650 -0.0315  1.7598 -0.7990
  606MOL0     H83625  -0.326   7.764   2.818 -0.3922  1.1444 -0.1664
  606MOL0     H83626  -0.196   7.802   2.985  2.1850 -2.5446  0.8969
  606MOL0     H83627  -0.028   7.811   2.963  0.6848  0.3059 -0.9526
  606MOL0     H83628  -0.127   7.967   3.003 -1.5784  0.3492 -1.2543
  607MOL0     O83629   2.820  11.272   0.865 -0.4477 -0.3762 -0.3192
  607MOL0     C83630   2.880  11.364   0.817 -0.0715  0.8880 -0.3877
  607MOL0     O83631   2.838  11.450   0.722  0.5335 -0.0423  0.0249
  607MOL0     C83632   2.710  11.431   0.666 -0.3122 -0.8642  0.4695
  607MOL0     C83633   2.610  11.504   0.719  0.4334 -0.1328 -0.7862
  607MOL0     C83634   2.477  11.488   0.657  0.0535  0.3854 -0.2572
  607MOL0     C83635   2.454  11.395   0.555 -0.0133 -0.8171 -0.3245
  607MOL0     O83636   2.318  11.386   0.522  0.2107 -0.0882 -0.7308
  607MOL0     C83637   2.281  11.291   0.419  0.2516  1.0189 -0.5234
  607MOL0     C83638   2.145  11.318   0.360 -1.5229  0.4325  0.7426
  607MOL0     C83639   2.049  11.343   0.478 -0.2873  0.1559 -0.3899
  607MOL0     C83640   1.900  11.327   0.430 -0.4500 -0.0054 -0.1416
  607MOL0     C83641   1.801  11.314   0.548 -0.2909 -0.5082  0.0356
  607MOL0     C83642   1.826  11.401   0.676 -0.6401  0.4268  0.0901
  607MOL0     C83643   1.802  11.558   0.650  0.2332  0.4286 -0.0316
  607MOL0     C83644   1.838  11.652   0.761  0.2659  0.2368 -0.1315
  607MOL0     N83645   1.980  11.671   0.791 -0.1553 -0.0533 -0.6453
  607MOL0     C83646   2.039  11.646   0.914  1.0481  0.0565  1.0067
  607MOL0     C83647   2.161  11.701   0.905  0.6625 -0.3097  0.1172
  607MOL0     C83648   2.267  11.708   1.001 -0.5757 -0.0891 -0.0017
  607MOL0     C83649   2.314  11.855   1.030  0.4761 -0.6163  0.4192
  607MOL0     C83650   2.212  11.917   1.129  0.3141 -0.1838 -0.3156
  607MOL0     C83651   2.292  12.032   1.195 -0.1354 -0.1258 -1.1216
  607MOL0     O83652   2.384  11.968   1.295 -0.4381 -0.8566 -0.5909
  607MOL0     C83653   2.493  12.044   1.345  0.4334  0.9233  0.1104
  607MOL0     C83654   2.556  11.991   1.452 -0.4328  0.8014  1.1391
  607MOL0     C83655   2.659  12.056   1.512  0.0418  0.7057 -0.0196
  607MOL0     C83656   2.722  11.980   1.635 -0.3244 -0.2849  0.9320
  607MOL0     C83657   2.706  12.179   1.463 -0.1613 -0.6840 -0.4495
  607MOL0     C83658   2.825  12.254   1.531 -0.3523  0.2771  0.2882
  607MOL0     O83659   2.864  12.378   1.470  0.0632  0.4228 -0.1158
  607MOL0     C83660   2.991  12.418   1.498 -0.1041 -1.8921 -0.4003
  607MOL0     C83661   3.100  12.338   1.495 -0.2025  0.5758 -0.2810
  607MOL0     C83662   3.221  12.385   1.524  0.1364 -0.1180 -0.1265
  607MOL0     C83663   3.245  12.523   1.552  0.2416 -0.6970 -0.4698
  607MOL0     O83664   3.368  12.569   1.582  0.3182  0.1167 -0.1196
  607MOL0     C83665   3.422  12.701   1.588 -0.1559  0.9023  0.0749
  607MOL0     C83666   3.414  12.774   1.451 -0.3982 -0.4638 -0.0616
  607MOL0     C83667   3.513  12.729   1.348 -0.0073  0.2266 -0.6385
  607MOL0     C83668   3.508  12.815   1.222 -0.0992  0.0679  0.2550
  607MOL0     C83669   3.647  12.809   1.163  0.0445  0.5629 -0.2341
  607MOL0     C83670   3.661  12.878   1.029  0.4486 -0.2444  0.4063
  607MOL0     C83671   3.806  12.918   1.005 -0.1891 -0.7789  0.2535
  607MOL0     C83672   3.828  12.937   0.849  0.2471 -0.1153 -0.0284
  607MOL0    Cl83673   3.996  12.990   0.804 -0.2386 -0.5977 -0.2940
  607MOL0     C83674   3.134  12.610   1.552  0.8774 -0.3785  0.7955
  607MOL0     C83675   3.007  12.553   1.530  0.0007  0.0288  0.2505
  607MOL0     O83676   2.879  12.215   1.638  0.2206 -0.9497 -0.0849
  607MOL0     C83677   2.648  12.233   1.346 -0.3120 -0.5417  0.5945
  607MOL0     C83678   2.539  12.167   1.292  0.2143  0.2757  0.6669
  607MOL0     N83679   2.164  11.764   0.781 -0.7249  0.1764  0.4258
  607MOL0     N83680   2.064  11.740   0.710 -0.0182 -0.3329 -0.3661
  607MOL0     C83681   2.559  11.328   0.507 -0.2619 -0.6615 -0.4588
  607MOL0     C83682   2.690  11.341   0.555 -0.4813 -0.0463 -0.4086
  607MOL0     C83683   3.002  11.404   0.881 -0.4205  0.8788 -0.5331
  607MOL0     C83684   2.992  11.522   0.937 -0.4350 -0.5192  0.2250
  607MOL0     C83685   3.106  11.573   1.002  0.6234 -0.6286  0.1552
  607MOL0     C83686   3.232  11.507   1.000 -0.0572  0.3490  0.0130
  607MOL0     O83687   3.352  11.554   1.049  0.5113  0.1533 -0.0294
  607MOL0     C83688   3.351  11.698   1.074 -0.3944 -0.4424 -0.0838
  607MOL0     C83689   3.496  11.744   1.121  0.2658  0.6811  0.1111
  607MOL0     C83690   3.502  11.780   1.271 -0.4527 -0.1027 -0.5988
  607MOL0     C83691   3.641  11.728   1.326 -0.3966 -0.2938  0.4394
  607MOL0     C83692   3.692  11.801   1.443  0.5246 -0.8717 -0.8204
  607MOL0     C83693   3.743  11.837   1.544 -0.5263  0.7924 -0.4168
  607MOL0     C83694   3.230  11.371   0.957 -0.0352  0.6645  0.4423
  607MOL0     C83695   3.120  11.323   0.883 -0.6567 -0.0396  0.3195
  607MOL0     C83696   3.140  11.198   0.799 -0.0427 -1.0073  0.2736
  607MOL0     H83697   2.625  11.566   0.807  0.1535 -0.2695 -0.6398
  607MOL0     H83698   2.393  11.551   0.686 -0.8045 -0.9340  0.1877
  607MOL0     H83699   2.271  11.196   0.472  3.0182  0.7263 -0.4115
  607MOL0     H83700   2.360  11.284   0.344  1.7263  0.8138  0.9754
  607MOL0     H83701   2.149  11.408   0.296  0.1447  0.5545  0.9752
  607MOL0     H83702   2.118  11.232   0.298  0.0951  0.6126 -0.2964
  607MOL0     H83703   2.059  11.268   0.557  0.4271  3.5503  3.0114
  607MOL0     H83704   2.073  11.440   0.522  2.0893  0.3906 -2.0281
  607MOL0     H83705   1.874  11.413   0.368  2.5926  1.0639 -0.1047
  607MOL0     H83706   1.896  11.236   0.369  0.8156  1.0197 -1.8532
  607MOL0     H83707   1.794  11.208   0.572  2.8407 -1.4132 -2.4617
  607MOL0     H83708   1.700  11.343   0.516 -1.5576 -1.6225  2.6522
  607MOL0     H83709   1.749  11.361   0.742 -0.7407 -2.4167 -1.5853
  607MOL0     H83710   1.921  11.388   0.729 -0.9996 -2.9752  0.0968
  607MOL0     H83711   1.699  11.572   0.613  0.0317  0.1959  0.4417
  607MOL0     H83712   1.865  11.577   0.563 -0.6579 -1.6331 -1.2104
  607MOL0     H83713   1.795  11.750   0.737  2.3172  1.3200  0.3290
  607MOL0     H83714   1.790  11.605   0.847  2.4093 -1.1515  0.3799
  607MOL0     H83715   1.997  11.603   1.004 -0.5872  0.4411  0.4646
  607MOL0     H83716   2.361  11.659   0.974 -0.7849 -0.3229 -0.3118
  607MOL0     H83717   2.242  11.675   1.102  2.2509  1.2746  1.2612
  607MOL0     H83718   2.412  11.857   1.079 -0.0817 -1.0131  1.5754
  607MOL0     H83719   2.326  11.910   0.936  2.2125  3.3856  2.7831
  607MOL0     H83720   2.125  11.967   1.086  0.8727  0.6558 -0.5017
  607MOL0     H83721   2.181  11.850   1.210  1.7234  0.1761  0.5549
  607MOL0     H83722   2.351  12.077   1.115  0.1739 -0.2308 -0.9564
  607MOL0     H83723   2.223  12.105   1.238  2.0435  1.7166 -0.5836
  607MOL0     H83724   2.534  11.888   1.479 -3.8401  1.5371  1.6274
  607MOL0     H83725   2.830  11.968   1.620 -0.7431 -1.8415 -1.3762
  607MOL0     H83726   2.685  11.880   1.657 -1.0569  0.4152  3.0493
  607MOL0     H83727   2.691  12.046   1.716  1.5863  1.7755  0.1342
  607MOL0     H83728   3.085  12.233   1.470 -1.2684  0.5799  0.3220
  607MOL0     H83729   3.301  12.312   1.521 -2.5539 -3.4846  1.9642
  607MOL0     H83730   3.365  12.758   1.662 -2.5398  1.8198 -2.3232
  607MOL0     H83731   3.525  12.688   1.621 -0.5514 -0.7042  0.7880
  607MOL0     H83732   3.320  12.768   1.394  1.1303  0.4269 -2.9228
  607MOL0     H83733   3.441  12.877   1.475 -1.3885  0.2549 -1.7967
  607MOL0     H83734   3.490  12.623   1.335 -2.2243  0.3156  1.6694
  607MOL0     H83735   3.611  12.727   1.396 -0.6008 -1.3797  0.6158
  607MOL0     H83736   3.483  12.917   1.253  3.2468  0.3022  2.6599
  607MOL0     H83737   3.438  12.778   1.146  1.8131  0.3361 -1.7484
  607MOL0     H83738   3.707  12.868   1.233 -0.5814  2.0575 -0.9070
  607MOL0     H83739   3.679  12.705   1.165  0.8729  0.8078  1.6644
  607MOL0     H83740   3.614  12.977   1.023  1.2098  0.1644  1.0578
  607MOL0     H83741   3.632  12.812   0.947 -0.8565 -0.7951  1.2877
  607MOL0     H83742   3.880  12.850   1.048  1.5492  1.9508  1.8127
  607MOL0     H83743   3.830  13.010   1.059 -0.7712  0.6245 -1.7437
  607MOL0     H83744   3.756  13.013   0.817  0.7685  1.4197  2.1831
  607MOL0     H83745   3.804  12.848   0.791 -0.3900  0.2055 -0.2678
  607MOL0     H83746   3.143  12.716   1.576 -2.1572  0.0268  0.5314
  607MOL0     H83747   2.913  12.609   1.526 -0.2167 -0.3182  0.4832
  607MOL0     H83748   2.705  12.303   1.285 -2.8853  1.0324 -0.1645
  607MOL0     H83749   2.491  12.193   1.198 -1.7635 -0.3883  1.4455
  607MOL0     H83750   2.555  11.272   0.414  0.0187  0.1792 -0.9947
  607MOL0     H83751   2.782  11.298   0.518  0.1968 -2.7179  3.6887
  607MOL0     H83752   2.896  11.571   0.954 -0.2755  0.2453 -0.9350
  607MOL0     H83753   3.093  11.667   1.055  0.8809 -0.3156 -0.3311
  607MOL0     H83754   3.323  11.758   0.987  0.4072 -1.3630 -1.0048
  607MOL0     H83755   3.270  11.735   1.137 -1.5534  1.3787 -2.4959
  607MOL0     H83756   3.515  11.835   1.063 -1.0503  1.1267  0.3567
  607MOL0     H83757   3.565  11.660   1.106  0.5430  0.6905  1.1933
  607MOL0     H83758   3.487  11.887   1.289  0.1889 -0.5545  3.3618
  607MOL0     H83759   3.428  11.715   1.318 -0.4889  1.9736  2.5350
  607MOL0     H83760   3.718  11.726   1.249 -0.6046  0.2248  0.2093
  607MOL0     H83761   3.628  11.621   1.341  1.6430 -0.6462  0.0393
  607MOL0     H83762   3.786  11.851   1.641  0.0256 -1.6898 -0.2236
  607MOL0     H83763   3.317  11.308   0.970 -0.2875  0.4751  1.2665
  607MOL0     H83764   3.242  11.164   0.819  1.8182  2.1100 -2.7824
  607MOL0     H83765   3.072  11.115   0.817  2.0620 -2.5282  1.7957
  607MOL0     H83766   3.133  11.239   0.698 -1.3725 -0.8101  0.4291
  608MOL0     O83767   4.873   6.414   5.491 -0.0873 -0.2171  0.4464
  608MOL0     C83768   4.774   6.398   5.415  0.4224  0.2390  0.4916
  608MOL0     O83769   4.643   6.427   5.439 -0.2901  0.0280 -0.2343
  608MOL0     C83770   4.604   6.472   5.563  0.3094  0.0076 -0.0306
  608MOL0     C83771   4.497   6.406   5.631  0.6060 -0.2907  0.3014
  608MOL0     C83772   4.451   6.451   5.751  0.3237 -0.6243 -0.7891
  608MOL0     C83773   4.513   6.561   5.814  0.3349 -0.2856 -0.2229
  608MOL0     O83774   4.460   6.627   5.929 -0.2990  0.2341 -0.2569
  608MOL0     C83775   4.401   6.538   6.027  0.5687 -0.9022 -0.8445
  608MOL0     C83776   4.307   6.609   6.121 -0.5931  0.0349  0.0670
  608MOL0     C83777   4.360   6.736   6.185 -0.5387 -0.3971 -0.1958
  608MOL0     C83778   4.269   6.776   6.298  0.7625  0.1482 -0.7880
  608MOL0     C83779   4.313   6.889   6.385 -0.3367 -0.1955  0.6088
  608MOL0     C83780   4.215   6.923   6.505 -0.1220  0.3715  0.0858
  608MOL0     C83781   4.258   7.042   6.590 -1.0010  0.0788  0.4221
  608MOL0     C83782   4.254   7.184   6.521 -1.2155  0.4743  0.8664
  608MOL0     N83783   4.132   7.203   6.443  0.1107  1.1596  0.1377
  608MOL0     C83784   4.008   7.194   6.494 -0.3705  0.4431 -0.0455
  608MOL0     C83785   3.915   7.182   6.396 -0.8424 -0.4323  0.0894
  608MOL0     C83786   3.770   7.156   6.430 -0.9296  1.0264  0.0682
  608MOL0     C83787   3.732   7.017   6.368 -0.0096  0.0884  0.0993
  608MOL0     C83788   3.588   6.994   6.386  0.2014 -0.9292 -0.8286
  608MOL0     C83789   3.553   6.927   6.520  0.7589 -0.3851 -0.1719
  608MOL0     O83790   3.406   6.930   6.536  0.2711 -0.0224 -0.2154
  608MOL0     C83791   3.355   6.888   6.657  0.4521 -0.0576  0.0431
  608MOL0     C83792   3.229   6.929   6.691 -0.0849 -1.0530  0.3264
  608MOL0     C83793   3.161   6.884   6.806  0.4578 -1.0397 -0.7025
  608MOL0     C83794   3.031   6.959   6.842  0.3859  0.3788  0.2069
  608MOL0     C83795   3.231   6.799   6.898  0.1240 -0.8172 -0.0202
  608MOL0     C83796   3.147   6.717   6.999  0.5104  0.0426  0.5700
  608MOL0     O83797   3.220   6.670   7.104  0.3711  0.2948  0.0703
  608MOL0     C83798   3.163   6.563   7.162  0.0603 -0.0786  1.2436
  608MOL0     C83799   3.071   6.585   7.275  1.3025  0.0273 -0.1416
  608MOL0     C83800   3.019   6.479   7.351 -0.4927  0.7161 -0.0277
  608MOL0     C83801   3.061   6.349   7.322  0.1927  0.0178 -0.0040
  608MOL0     O83802   3.016   6.246   7.402  0.0113 -0.6934 -0.4765
  608MOL0     C83803   2.943   6.155   7.330  0.2468 -0.2143 -0.5848
  608MOL0     C83804   2.856   6.063   7.413 -0.0212 -0.2839 -0.8908
  608MOL0     C83805   2.773   6.140   7.509 -0.1736  0.4205  0.1716
  608MOL0     C83806   2.682   6.049   7.579  0.1164  0.3870 -0.0015
  608MOL0     C83807   2.560   6.120   7.642 -0.1316 -0.4953 -0.1795
  608MOL0     C83808   2.445   6.128   7.548  1.1910 -0.1601  0.3902
  608MOL0     C83809   2.327   6.206   7.614  0.3620 -0.1676  0.1753
  608MOL0     C83810   2.245   6.132   7.730 -0.2982  0.6154  0.3674
  608MOL0    Cl83811   2.118   6.238   7.790 -0.0123  0.0206  0.0496
  608MOL0     C83812   3.142   6.324   7.209 -1.1535 -0.0287  0.2301
  608MOL0     C83813   3.202   6.432   7.136  0.6770 -0.8017  0.5521
  608MOL0     O83814   3.025   6.719   6.991  0.0449 -0.1142  0.0538
  608MOL0     C83815   3.363   6.757   6.864  0.7352 -0.3318  0.9458
  608MOL0     C83816   3.428   6.815   6.752  0.3619 -0.2128 -1.0515
  608MOL0     N83817   3.990   7.192   6.280  0.4728  0.0915 -0.8010
  608MOL0     N83818   4.124   7.204   6.307 -1.1875  0.0089  0.0543
  608MOL0     C83819   4.619   6.624   5.755  0.1452 -1.1066 -0.1144
  608MOL0     C83820   4.663   6.584   5.633 -0.3566 -0.8069 -0.2447
  608MOL0     C83821   4.791   6.312   5.301 -0.5664  0.0940  0.8678
  608MOL0     C83822   4.928   6.311   5.254 -0.7272 -0.0498 -1.0408
  608MOL0     C83823   4.972   6.239   5.145 -0.3128  0.0451 -1.2858
  608MOL0     C83824   4.888   6.157   5.075  0.3865 -0.0945 -0.2505
  608MOL0     O83825   4.930   6.117   4.953  0.0260 -0.2665 -0.5651
  608MOL0     C83826   4.952   5.978   4.963 -1.3476 -0.1000 -0.8923
  608MOL0     C83827   5.045   5.942   4.840 -0.6235  0.4218 -0.1299
  608MOL0     C83828   5.188   6.002   4.857 -0.4035  0.6553  0.6901
  608MOL0     C83829   5.259   5.991   4.722 -0.2141 -0.5286 -0.1568
  608MOL0     C83830   5.289   5.858   4.684 -0.5130 -0.0614 -0.5852
  608MOL0     C83831   5.311   5.745   4.659  0.9757 -0.0097  0.2289
  608MOL0     C83832   4.755   6.151   5.117 -1.0182  0.7426  0.5646
  608MOL0     C83833   4.705   6.220   5.223 -0.2861 -0.2466 -0.0196
  608MOL0     C83834   4.565   6.192   5.269 -0.1183 -0.2269 -0.0273
  608MOL0     H83835   4.444   6.322   5.587  2.7618 -1.4669 -0.1955
  608MOL0     H83836   4.358   6.418   5.796  0.6602 -0.9771 -0.3404
  608MOL0     H83837   4.476   6.491   6.091  0.7857  1.4763  0.7989
  608MOL0     H83838   4.348   6.451   5.987  1.9720 -2.0104 -0.3731
  608MOL0     H83839   4.220   6.643   6.064  0.2138 -0.1458 -1.3181
  608MOL0     H83840   4.275   6.544   6.203  2.0567 -2.7649 -0.9328
  608MOL0     H83841   4.465   6.726   6.215  0.2469  3.0417 -1.3574
  608MOL0     H83842   4.358   6.808   6.103  2.0188 -0.7847 -0.6897
  608MOL0     H83843   4.166   6.808   6.277 -0.6958 -2.3377  1.9384
  608MOL0     H83844   4.256   6.689   6.361  0.6623  0.8164  0.1312
  608MOL0     H83845   4.313   6.979   6.323 -0.1517 -1.4829 -1.3660
  608MOL0     H83846   4.408   6.861   6.430 -1.7696 -4.0219  1.6286
  608MOL0     H83847   4.113   6.943   6.472 -0.3752 -0.5316  0.3018
  608MOL0     H83848   4.200   6.838   6.572 -3.0913  2.3473  2.1939
  608MOL0     H83849   4.356   7.029   6.637 -1.0782  0.3846  0.6720
  608MOL0     H83850   4.183   7.042   6.670 -0.9516 -1.5514  0.5064
  608MOL0     H83851   4.260   7.259   6.601 -2.5543  3.1794 -1.4064
  608MOL0     H83852   4.334   7.204   6.449 -0.8942  0.5462  1.2387
  608MOL0     H83853   3.984   7.171   6.598 -0.2271 -1.0320 -0.3325
  608MOL0     H83854   3.705   7.227   6.378  0.0021  0.6794 -1.6129
  608MOL0     H83855   3.767   7.146   6.539  6.0916  2.6391  0.8412
  608MOL0     H83856   3.753   7.024   6.261 -1.8252  1.9426 -0.1914
  608MOL0     H83857   3.788   6.932   6.408 -3.6616 -2.4682  0.2598
  608MOL0     H83858   3.533   7.087   6.374 -0.5147 -1.5947 -3.2681
  608MOL0     H83859   3.561   6.919   6.311  0.6987 -0.5654 -1.3792
  608MOL0     H83860   3.597   6.827   6.526  0.3388 -0.7959 -2.6678
  608MOL0     H83861   3.587   6.989   6.603 -2.0099 -0.4937  1.1603
  608MOL0     H83862   3.181   7.003   6.627  4.2542 -0.2467 -2.4501
  608MOL0     H83863   3.033   6.966   6.951  1.1872 -0.0574  0.2287
  608MOL0     H83864   2.941   6.902   6.814 -0.6345  2.0549 -0.0370
  608MOL0     H83865   3.014   7.055   6.792  2.5487  1.0375  0.6524
  608MOL0     H83866   3.051   6.690   7.295  1.5154  0.2757 -1.1607
  608MOL0     H83867   2.952   6.500   7.434 -2.4172 -1.3304 -0.9440
  608MOL0     H83868   2.882   6.211   7.257  1.5576  2.4339  0.2369
  608MOL0     H83869   3.000   6.080   7.275  0.3875 -1.5110  1.2691
  608MOL0     H83870   2.798   6.003   7.343  0.0265  0.9620 -2.0578
  608MOL0     H83871   2.922   5.993   7.464  0.2709  2.1921  2.4132
  608MOL0     H83872   2.711   6.200   7.442  2.3193  0.9751 -1.7828
  608MOL0     H83873   2.824   6.208   7.579 -0.6483  0.4479  0.4955
  608MOL0     H83874   2.741   5.989   7.648 -1.3414 -0.1986  0.7821
  608MOL0     H83875   2.643   5.965   7.520 -2.3756 -1.2381  3.5606
  608MOL0     H83876   2.531   6.068   7.734  2.5045  0.5717  1.3885
  608MOL0     H83877   2.586   6.223   7.668  1.5792 -1.1739  1.0656
  608MOL0     H83878   2.399   6.036   7.512 -1.7877  1.6001 -0.6269
  608MOL0     H83879   2.471   6.185   7.459 -1.4053  0.1674 -0.2335
  608MOL0     H83880   2.253   6.242   7.542 -0.0004  0.0269  0.6396
  608MOL0     H83881   2.370   6.302   7.646  0.8630 -1.2226  2.9460
  608MOL0     H83882   2.318   6.100   7.805 -1.1485 -1.7410  0.2882
  608MOL0     H83883   2.196   6.044   7.688  1.0119  1.6789 -3.8621
  608MOL0     H83884   3.165   6.220   7.187 -2.4334 -0.0060 -1.4151
  608MOL0     H83885   3.276   6.392   7.068 -0.0607 -4.4142  1.6312
  608MOL0     H83886   3.410   6.675   6.917 -1.5235 -1.6351  1.0437
  608MOL0     H83887   3.530   6.779   6.740  1.4200  1.4359  1.9783
  608MOL0     H83888   4.661   6.714   5.799  1.1123 -1.6855  0.1810
  608MOL0     H83889   4.739   6.638   5.577  0.5576 -0.5826  1.1656
  608MOL0     H83890   5.006   6.363   5.308 -0.2346  0.0088 -1.8037
  608MOL0     H83891   5.071   6.255   5.103 -0.4140  0.7974 -1.2517
  608MOL0     H83892   4.998   5.954   5.059 -3.8094 -1.7000  0.0059
  608MOL0     H83893   4.870   5.906   4.947 -2.4560  1.7665 -4.8308
  608MOL0     H83894   4.998   5.977   4.748 -1.1929 -2.8215 -1.1958
  608MOL0     H83895   5.048   5.834   4.820  3.9367  0.6695 -1.7393
  608MOL0     H83896   5.193   6.106   4.889 -0.2036  0.1149  2.5421
  608MOL0     H83897   5.240   5.947   4.936  1.7578  0.1386 -0.9689
  608MOL0     H83898   5.358   6.037   4.720 -0.7412  0.8036  1.8374
  608MOL0     H83899   5.192   6.041   4.651 -2.7724 -0.8486  1.8849
  608MOL0     H83900   5.338   5.643   4.644  2.5896  0.0868  2.0661
  608MOL0     H83901   4.696   6.079   5.061 -0.9179  0.7893  0.4001
  608MOL0     H83902   4.557   6.163   5.374  1.0001 -0.0325  0.1207
  608MOL0     H83903   4.496   6.277   5.261  0.8167  0.4199 -1.8222
  608MOL0     H83904   4.513   6.117   5.208 -1.0086  1.1217 -0.9817
  609MOL0     O83905   5.509   9.661   2.208 -0.4428  0.5697 -0.3742
  609MOL0     C83906   5.395   9.704   2.233 -0.9405  0.7055  0.6485
  609MOL0     O83907   5.365   9.830   2.283  1.1877  0.5746  1.0451
  609MOL0     C83908   5.473   9.908   2.311 -0.1207 -0.3450  0.0680
  609MOL0     C83909   5.592   9.921   2.238 -0.2740 -0.9678 -0.5338
  609MOL0     C83910   5.703   9.998   2.280  0.3337  0.1384 -0.7246
  609MOL0     C83911   5.702  10.071   2.397 -0.1783 -0.4769 -0.4804
  609MOL0     O83912   5.804  10.135   2.461 -0.0382 -0.2317  0.0231
  609MOL0     C83913   5.945  10.119   2.419  0.2729  0.1520 -0.3289
  609MOL0     C83914   6.008  10.255   2.386  0.3385 -0.7785  0.2636
  609MOL0     C83915   6.020  10.339   2.515 -0.2269  0.0124  0.5836
  609MOL0     C83916   6.062  10.478   2.475  0.0176 -0.3382 -0.3121
  609MOL0     C83917   6.122  10.570   2.584  0.2657 -0.2142 -0.3127
  609MOL0     C83918   6.142  10.711   2.526 -0.3112  0.2130  0.2573
  609MOL0     C83919   6.236  10.792   2.617 -0.7060  0.0204 -0.1870
  609MOL0     C83920   6.341  10.880   2.555  0.0742 -0.0359  0.0373
  609MOL0     N83921   6.294  10.957   2.439 -0.1336 -0.0906 -0.0789
  609MOL0     C83922   6.186  11.041   2.437  0.5758  0.7275 -0.9537
  609MOL0     C83923   6.199  11.104   2.322  0.7692  0.5523  0.0359
  609MOL0     C83924   6.115  11.216   2.284  0.0396 -0.0287 -0.1919
  609MOL0     C83925   6.106  11.331   2.380  0.0068  0.0510  0.3688
  609MOL0     C83926   6.000  11.442   2.337 -0.6756  0.5011 -0.2232
  609MOL0     C83927   6.006  11.580   2.410 -0.4189 -0.0749 -0.6640
  609MOL0     O83928   5.909  11.667   2.362  0.2796 -0.0383  0.0658
  609MOL0     C83929   5.944  11.755   2.266  1.0522 -0.3636  0.3726
  609MOL0     C83930   5.847  11.852   2.221  0.3212  0.1228 -0.5115
  609MOL0     C83931   5.862  11.915   2.095  0.3119  0.0659 -0.1635
  609MOL0     C83932   5.741  12.005   2.058 -0.2959 -0.3600 -0.6630
  609MOL0     C83933   5.982  11.897   2.015 -0.5314 -0.2544 -0.3051
  609MOL0     C83934   6.014  11.954   1.882  0.2753 -0.9440  0.4311
  609MOL0     O83935   5.913  12.039   1.835 -0.2024  0.9730 -0.4141
  609MOL0     C83936   5.947  12.127   1.741 -0.0702 -0.0414 -0.1588
  609MOL0     C83937   5.952  12.267   1.762  0.3245  0.0150 -0.6991
  609MOL0     C83938   6.006  12.350   1.660  0.6762 -0.1749  0.1716
  609MOL0     C83939   6.024  12.309   1.531 -0.0428  0.1596  0.2511
  609MOL0     O83940   6.058  12.390   1.431  0.3458 -0.1409 -0.0791
  609MOL0     C83941   6.090  12.528   1.465  0.0297 -0.0985  0.6271
  609MOL0     C83942   6.162  12.607   1.349  0.0048  0.5877 -0.1225
  609MOL0     C83943   6.312  12.571   1.333 -0.4851 -0.5214  0.7716
  609MOL0     C83944   6.332  12.422   1.283 -0.9671 -0.0496 -1.4039
  609MOL0     C83945   6.482  12.395   1.251 -0.2421 -0.0049 -0.8665
  609MOL0     C83946   6.539  12.465   1.120  0.2927  0.2806  0.3007
  609MOL0     C83947   6.489  12.396   0.986 -0.8265 -0.0204 -0.2299
  609MOL0     C83948   6.543  12.464   0.860 -0.3614  0.2475 -0.0632
  609MOL0    Cl83949   6.459  12.607   0.813 -0.6361 -0.2543  0.3630
  609MOL0     C83950   5.999  12.169   1.508 -0.6649 -0.3513  0.5659
  609MOL0     C83951   5.976  12.080   1.616  0.4330 -0.1676 -1.1163
  609MOL0     O83952   6.129  11.937   1.826 -0.5321  0.2267 -0.1399
  609MOL0     C83953   6.078  11.818   2.066  0.7112  0.7269 -0.3796
  609MOL0     C83954   6.061  11.750   2.188 -0.2934  0.6363  0.4247
  609MOL0     N83955   6.296  11.043   2.239 -0.2757  0.1161  0.0571
  609MOL0     N83956   6.354  10.957   2.313 -0.6466 -0.2863  0.4478
  609MOL0     C83957   5.586  10.067   2.472 -0.4537  0.5887  0.6809
  609MOL0     C83958   5.470   9.988   2.431  0.0188 -0.3256 -0.7183
  609MOL0     C83959   5.267   9.645   2.169 -0.8364  0.0247  0.9446
  609MOL0     C83960   5.154   9.726   2.146 -0.2234 -0.2775  0.5659
  609MOL0     C83961   5.031   9.684   2.073  0.6764  0.4887  0.4540
  609MOL0     C83962   5.024   9.547   2.040 -0.5220 -0.7348  0.2306
  609MOL0     O83963   4.909   9.510   1.983 -0.3024 -0.0959  0.7471
  609MOL0     C83964   4.872   9.369   1.976 -1.4943  0.4295  0.4614
  609MOL0     C83965   4.754   9.368   1.875 -0.8453  0.1441 -0.3250
  609MOL0     C83966   4.692   9.228   1.863  0.7339 -0.7533 -0.3970
  609MOL0     C83967   4.770   9.107   1.811  0.6693  0.0833 -0.1797
  609MOL0     C83968   4.688   8.985   1.807 -0.1222 -0.2920  0.1830
  609MOL0     C83969   4.625   8.883   1.810 -0.0745  0.4311 -0.4450
  609MOL0     C83970   5.134   9.461   2.085 -0.0131  0.0357 -0.1311
  609MOL0     C83971   5.250   9.506   2.151  0.3099  0.2442 -0.9005
  609MOL0     C83972   5.355   9.407   2.199 -0.3666 -0.2658  0.0982
  609MOL0     H83973   5.608   9.883   2.137  1.8044 -3.5613  0.6621
  609MOL0     H83974   5.789   9.986   2.215  0.7571 -0.2472 -0.1047
  609MOL0     H83975   5.946  10.054   2.331 -0.1582 -1.0465  0.5183
  609MOL0     H83976   6.005  10.064   2.492 -0.4006 -1.6763 -1.0771
  609MOL0     H83977   6.107  10.248   2.341  1.2433 -1.1354  2.2169
  609MOL0     H83978   5.948  10.306   2.310  1.3978 -0.1195 -0.1590
  609MOL0     H83979   5.922  10.351   2.561 -1.3872  1.1806 -1.9491
  609MOL0     H83980   6.087  10.287   2.584  0.2963 -0.0684  0.0299
  609MOL0     H83981   6.140  10.470   2.398 -1.6405 -4.2085 -1.8457
  609MOL0     H83982   5.975  10.530   2.434  2.5633  2.6735 -2.4097
  609MOL0     H83983   6.217  10.523   2.613  0.7557  1.5378  1.0804
  609MOL0     H83984   6.061  10.589   2.672  0.1245 -2.0229  0.0146
  609MOL0     H83985   6.174  10.708   2.421 -0.7569 -1.4716  0.1464
  609MOL0     H83986   6.048  10.765   2.520  0.4311  1.6128  0.7727
  609MOL0     H83987   6.300  10.726   2.676 -0.9124 -0.9662 -1.0340
  609MOL0     H83988   6.173  10.854   2.681  0.3166  0.1451  0.7334
  609MOL0     H83989   6.388  10.940   2.633 -1.8717  0.1104  1.1550
  609MOL0     H83990   6.422  10.822   2.512  0.0439  3.1516 -5.1877
  609MOL0     H83991   6.121  11.082   2.513  0.2606 -2.8401  0.9315
  609MOL0     H83992   6.019  11.165   2.267  0.6443 -1.9660  1.8008
  609MOL0     H83993   6.135  11.244   2.180 -3.8508  0.8136 -0.8733
  609MOL0     H83994   6.092  11.292   2.481  1.0393  1.5438  1.1370
  609MOL0     H83995   6.204  11.381   2.380  0.7366 -1.3045  1.7504
  609MOL0     H83996   6.012  11.453   2.229 -0.4433  0.7369 -0.1747
  609MOL0     H83997   5.897  11.405   2.350  0.3371 -2.4983  0.2078
  609MOL0     H83998   5.997  11.578   2.519  0.7500  0.2556 -0.5432
  609MOL0     H83999   6.105  11.622   2.388  0.0738 -0.5829  0.5092
  609MOL0     H84000   5.767  11.872   2.292  0.1369  1.5704 -1.0827
  609MOL0     H84001   5.660  11.999   2.130  0.8638 -5.4397  0.5756
  609MOL0     H84002   5.697  11.970   1.964  1.7160 -0.8015 -1.5040
  609MOL0     H84003   5.769  12.111   2.050 -0.5120 -0.2152  0.4706
  609MOL0     H84004   5.920  12.310   1.856  1.6213  1.6169 -0.9302
  609MOL0     H84005   6.017  12.453   1.693  0.4733 -0.3587  0.8257
  609MOL0     H84006   5.994  12.573   1.492 -0.5649 -1.7432  1.3909
  609MOL0     H84007   6.153  12.530   1.555 -0.8760 -3.1648  1.4444
  609MOL0     H84008   6.109  12.573   1.260 -0.1318  2.3984 -0.7672
  609MOL0     H84009   6.142  12.713   1.368 -4.9128 -0.5518  2.6703
  609MOL0     H84010   6.374  12.584   1.422 -0.5068 -0.4140  0.7704
  609MOL0     H84011   6.342  12.640   1.253 -1.9493 -0.1393  0.5177
  609MOL0     H84012   6.264  12.383   1.207 -2.6203 -1.5522  0.7151
  609MOL0     H84013   6.317  12.360   1.372  3.0398 -1.4819 -1.5525
  609MOL0     H84014   6.535  12.418   1.345 -1.7707  1.6829 -0.3604
  609MOL0     H84015   6.499  12.288   1.237  1.8680  0.2718 -0.8493
  609MOL0     H84016   6.648  12.459   1.119  0.2904 -3.2533 -2.9353
  609MOL0     H84017   6.505  12.569   1.116 -1.3457 -0.2003  0.9727
  609MOL0     H84018   6.379  12.398   0.981 -0.8097  1.7337 -0.4741
  609MOL0     H84019   6.523  12.293   0.993  2.4928  0.8574 -1.5564
  609MOL0     H84020   6.526  12.390   0.781  3.6914  1.5623 -2.5055
  609MOL0     H84021   6.650  12.479   0.878 -0.2005 -2.4172  1.9133
  609MOL0     H84022   5.996  12.145   1.402 -3.1412  1.9257  0.0167
  609MOL0     H84023   5.963  11.974   1.601 -0.6842 -0.0798 -0.8877
  609MOL0     H84024   6.172  11.808   2.014  0.3821  1.0497 -1.0506
  609MOL0     H84025   6.141  11.679   2.207 -0.1382  0.8915  0.7266
  609MOL0     H84026   5.590  10.116   2.569 -0.8401  3.0265 -0.4729
  609MOL0     H84027   5.383   9.979   2.495  1.8706  3.0741  2.7641
  609MOL0     H84028   5.151   9.834   2.155 -3.3950 -0.2267 -0.1646
  609MOL0     H84029   4.950   9.751   2.050 -2.8848 -3.7232 -0.6538
  609MOL0     H84030   4.953   9.299   1.954 -2.9803 -2.0792  2.4366
  609MOL0     H84031   4.825   9.339   2.070 -0.2010  2.5369  1.8671
  609MOL0     H84032   4.787   9.395   1.774 -1.0364 -1.8437 -0.9778
  609MOL0     H84033   4.681   9.439   1.915 -1.2374  0.2228 -1.1432
  609MOL0     H84034   4.651   9.200   1.960  0.5658  2.3682  0.5414
  609MOL0     H84035   4.603   9.245   1.801  1.1233  0.1934 -0.7177
  609MOL0     H84036   4.854   9.090   1.880 -0.1475  2.1383  1.4298
  609MOL0     H84037   4.809   9.138   1.713  1.4364  1.5051  0.5360
  609MOL0     H84038   4.559   8.800   1.824 -0.0807  0.6977  1.3870
  609MOL0     H84039   5.142   9.353   2.081 -0.3016 -0.1195  2.1725
  609MOL0     H84040   5.392   9.436   2.298  0.8793  1.7814 -0.8943
  609MOL0     H84041   5.310   9.309   2.221 -0.5472 -0.5380 -1.4034
  609MOL0     H84042   5.437   9.389   2.129 -0.1214  2.1331 -0.3224
  610MOL0     O84043  10.117   6.269  10.775 -0.5581  0.5398  0.5224
  610MOL0     C84044  10.025   6.334  10.825 -0.2348  0.3427  0.0554
  610MOL0     O84045   9.913   6.368  10.769  0.3557  0.4547 -0.5065
  610MOL0     C84046   9.865   6.338  10.641 -0.3653 -0.2008  0.1431
  610MOL0     C84047   9.762   6.424  10.602 -0.3824 -0.8207  0.7048
  610MOL0     C84048   9.701   6.417  10.475 -0.1171  1.2090  0.4394
  610MOL0     C84049   9.744   6.319  10.386  0.6529 -0.1950  0.2053
  610MOL0     O84050   9.697   6.306  10.259 -0.1174  0.4479  1.0357
  610MOL0     C84051   9.644   6.414  10.189 -0.1176 -0.2301 -0.1955
  610MOL0     C84052   9.562   6.356  10.081  0.1145 -0.2637 -0.0056
  610MOL0     C84053   9.476   6.458  10.006 -1.0029 -0.4927 -0.6468
  610MOL0     C84054   9.394   6.396   9.894  0.0909 -0.2661 -0.8987
  610MOL0     C84055   9.482   6.318   9.789  0.1554 -0.2427 -0.7869
  610MOL0     C84056   9.401   6.295   9.659 -0.3825  0.4365  0.2666
  610MOL0     C84057   9.307   6.176   9.673  0.1472 -0.2206  0.0175
  610MOL0     C84058   9.386   6.029   9.685  0.1342 -0.5601 -0.2692
  610MOL0     N84059   9.433   5.990   9.554  0.8419  0.1623 -0.3558
  610MOL0     C84060   9.559   6.018   9.505  0.0732 -0.1263 -0.0853
  610MOL0     C84061   9.557   5.964   9.384  0.1184  0.0966 -0.6256
  610MOL0     C84062   9.673   5.996   9.294  0.3083 -0.4221  0.3108
  610MOL0     C84063   9.779   5.878   9.288  0.2262 -0.2435 -0.2148
  610MOL0     C84064   9.876   5.888   9.176 -0.9056 -0.0733 -0.7136
  610MOL0     C84065   9.962   6.009   9.163 -1.0375 -0.2260 -0.0205
  610MOL0     O84066  10.052   6.021   9.274  0.1416  0.6546  0.8251
  610MOL0     C84067  10.138   6.128   9.275 -0.4641 -0.6615 -0.4365
  610MOL0     C84068  10.257   6.100   9.326 -0.8869  0.1915  0.4804
  610MOL0     C84069  10.367   6.179   9.323  0.3999  0.0130  0.5512
  610MOL0     C84070  10.490   6.136   9.396 -0.0863 -0.9732 -0.0854
  610MOL0     C84071  10.359   6.295   9.246 -0.1067 -0.2985  0.1731
  610MOL0     C84072  10.470   6.387   9.212 -0.8670 -0.1603  0.2201
  610MOL0     O84073  10.441   6.491   9.137 -0.6941 -0.7915 -0.9309
  610MOL0     C84074  10.544   6.587   9.122  0.0101  0.2735  0.3044
  610MOL0     C84075  10.597   6.670   9.226 -0.2675  0.1800 -0.7960
  610MOL0     C84076  10.686   6.772   9.200 -0.3889  0.2867 -0.8032
  610MOL0     C84077  10.748   6.781   9.074  0.8707  0.4576  0.0621
  610MOL0     O84078  10.838   6.878   9.034  0.4561 -0.4991 -0.0749
  610MOL0     C84079  10.904   6.947   9.136 -0.9703  0.6455 -0.6763
  610MOL0     C84080  11.010   7.043   9.092 -0.0937 -0.2380 -0.0521
  610MOL0     C84081  11.129   6.984   9.007 -0.1443  0.6776  0.1568
  610MOL0     C84082  11.221   7.099   8.975 -0.4116  1.0475  0.1950
  610MOL0     C84083  11.342   7.054   8.883  0.9607  0.6452 -0.0814
  610MOL0     C84084  11.418   7.161   8.819  0.8001  0.2004  0.0881
  610MOL0     C84085  11.522   7.222   8.914 -0.2403 -0.2585 -0.0462
  610MOL0     C84086  11.633   7.300   8.842 -0.1696  0.8109  0.4469
  610MOL0    Cl84087  11.569   7.433   8.744 -0.2310  0.4283 -0.5398
  610MOL0     C84088  10.699   6.698   8.971  0.8189 -1.3647  0.0026
  610MOL0     C84089  10.594   6.606   8.992  0.1780  1.1780 -0.4818
  610MOL0     O84090  10.588   6.352   9.241 -0.5752  0.9251  0.3972
  610MOL0     C84091  10.223   6.332   9.206 -0.1652  0.1650  1.1506
  610MOL0     C84092  10.119   6.247   9.223 -0.0460 -0.3748  0.9454
  610MOL0     N84093   9.443   5.904   9.357 -0.4132  0.3712 -0.1374
  610MOL0     N84094   9.363   5.921   9.452 -0.4162 -0.3557  0.4099
  610MOL0     C84095   9.845   6.229  10.427  0.2936 -0.7436 -0.5734
  610MOL0     C84096   9.904   6.241  10.554  0.2409  0.2731 -0.1418
  610MOL0     C84097  10.057   6.385  10.958 -0.2262  0.9935 -0.1852
  610MOL0     C84098  10.014   6.514  10.993 -0.5553  0.2697  0.4810
  610MOL0     C84099  10.043   6.570  11.119 -0.4687 -1.0744 -0.5907
  610MOL0     C84100  10.118   6.507  11.216  0.0527  1.3156  0.0011
  610MOL0     O84101  10.122   6.565  11.340  0.1309 -0.2897  0.1546
  610MOL0     C84102  10.202   6.502  11.445 -0.2704 -0.6885  0.0939
  610MOL0     C84103  10.099   6.433  11.536  0.0837 -0.1669 -0.6317
  610MOL0     C84104  10.168   6.361  11.659  0.3970 -0.2684  0.3152
  610MOL0     C84105  10.054   6.316  11.757 -0.6533  0.4121  0.3484
  610MOL0     C84106  10.122   6.252  11.872  0.3187 -0.0787  0.3940
  610MOL0     C84107  10.184   6.192  11.963  0.1990 -0.0273 -0.9665
  610MOL0     C84108  10.165   6.377  11.179 -0.0367 -0.1308  0.0499
  610MOL0     C84109  10.132   6.318  11.053 -0.8130  0.2926 -0.4430
  610MOL0     C84110  10.175   6.168  11.032  0.2514 -0.4508  0.4575
  610MOL0     H84111   9.726   6.501  10.669  2.8909  1.3995  0.1617
  610MOL0     H84112   9.624   6.490  10.452 -1.1375  0.3892  1.1818
  610MOL0     H84113   9.725   6.474  10.146 -1.5082  1.4733 -0.5250
  610MOL0     H84114   9.576   6.473  10.250 -2.5978 -5.0785  2.3215
  610MOL0     H84115   9.632   6.310  10.011  1.3929 -0.1503  1.1485
  610MOL0     H84116   9.494   6.281  10.122  0.5784 -0.8463 -0.2910
  610MOL0     H84117   9.411   6.501  10.083  1.4208  1.5880  0.4038
  610MOL0     H84118   9.537   6.543   9.975 -0.5654 -0.4526  0.2669
  610MOL0     H84119   9.320   6.327   9.936 -0.6807  0.9899 -0.1229
  610MOL0     H84120   9.347   6.478   9.839 -1.1731 -1.3259 -1.4544
  610MOL0     H84121   9.536   6.228   9.820 -2.1143 -1.0991  0.9981
  610MOL0     H84122   9.558   6.387   9.754  0.4807 -1.7054 -3.1943
  610MOL0     H84123   9.339   6.379   9.627 -2.3141 -0.8536  0.4198
  610MOL0     H84124   9.469   6.280   9.575  0.8655 -0.5459  1.3975
  610MOL0     H84125   9.242   6.178   9.585  1.4130 -0.4534 -0.9538
  610MOL0     H84126   9.246   6.176   9.765  0.0113 -0.3026 -0.0731
  610MOL0     H84127   9.469   6.021   9.755  1.4984 -0.0119 -1.7493
  610MOL0     H84128   9.310   5.953   9.705 -0.6398  0.5190  1.1318
  610MOL0     H84129   9.641   6.073   9.551  1.5945 -2.5552  0.3066
  610MOL0     H84130   9.711   6.095   9.322  0.3799  0.7140 -3.3618
  610MOL0     H84131   9.630   6.016   9.196  2.7601 -1.0290 -0.9496
  610MOL0     H84132   9.840   5.871   9.378  1.2691  2.9699 -0.5407
  610MOL0     H84133   9.719   5.787   9.276 -1.8782  1.1189 -0.5325
  610MOL0     H84134   9.943   5.802   9.183 -0.3134  0.4155 -0.1246
  610MOL0     H84135   9.819   5.877   9.084 -0.7967  0.8484 -0.8973
  610MOL0     H84136  10.026   5.991   9.076  2.9698 -3.7831  3.2004
  610MOL0     H84137   9.910   6.103   9.142  0.8308  1.0573  0.8489
  610MOL0     H84138  10.263   6.004   9.377 -2.6877 -1.0248 -1.4528
  610MOL0     H84139  10.517   6.218   9.463  0.1008 -0.6147 -0.5832
  610MOL0     H84140  10.572   6.113   9.328  0.7290 -1.9946  1.2116
  610MOL0     H84141  10.472   6.050   9.460 -0.8641 -1.0113 -0.3387
  610MOL0     H84142  10.593   6.649   9.333 -1.3682  0.2076 -0.8216
  610MOL0     H84143  10.715   6.836   9.283  0.6931  0.0588 -0.9882
  610MOL0     H84144  10.829   7.003   9.192 -0.0689 -0.4635  1.8040
  610MOL0     H84145  10.950   6.886   9.215 -0.5288  1.5230 -0.2454
  610MOL0     H84146  10.963   7.118   9.028  0.7581 -1.1028 -1.7575
  610MOL0     H84147  11.054   7.086   9.182  0.8587 -1.9044  0.3264
  610MOL0     H84148  11.075   6.945   8.920  1.0788  1.0848 -0.8101
  610MOL0     H84149  11.179   6.903   9.061 -0.7268 -1.4891 -2.3366
  610MOL0     H84150  11.268   7.132   9.068  0.0748 -1.2001  0.8127
  610MOL0     H84151  11.168   7.184   8.930 -0.6310  0.6462 -0.3158
  610MOL0     H84152  11.404   6.991   8.946 -1.0694 -0.0096  1.3677
  610MOL0     H84153  11.292   7.005   8.799  1.5667 -2.9102  1.4600
  610MOL0     H84154  11.351   7.238   8.779  0.7637 -0.7161 -1.6648
  610MOL0     H84155  11.474   7.125   8.733 -0.7556  0.4237 -1.0656
  610MOL0     H84156  11.566   7.140   8.972 -0.0558  1.3190  2.1525
  610MOL0     H84157  11.472   7.290   8.983 -1.7341 -1.5763  0.2335
  610MOL0     H84158  11.686   7.234   8.772 -1.6847  1.2329 -1.1695
  610MOL0     H84159  11.716   7.329   8.907  0.2225  0.3737  0.1462
  610MOL0     H84160  10.733   6.715   8.869  1.1094  3.4814  0.6973
  610MOL0     H84161  10.552   6.544   8.913 -0.8966 -0.3998  1.2416
  610MOL0     H84162  10.186   6.418   9.151  0.6056  0.7174  1.4759
  610MOL0     H84163  10.020   6.277   9.188  0.1346  0.7346  1.3435
  610MOL0     H84164   9.881   6.159  10.352 -1.2015 -1.6057 -0.5238
  610MOL0     H84165   9.986   6.179  10.586 -2.5290 -2.8818  1.4654
  610MOL0     H84166   9.963   6.588  10.933  1.2985 -0.7981 -2.6568
  610MOL0     H84167   9.999   6.665  11.146 -2.0339 -2.1908  1.1013
  610MOL0     H84168  10.280   6.437  11.404  1.0362  1.2366 -0.5878
  610MOL0     H84169  10.242   6.578  11.512 -2.0852 -2.5333  3.5489
  610MOL0     H84170  10.048   6.358  11.476 -0.6634 -0.6228  0.5497
  610MOL0     H84171  10.017   6.496  11.571 -0.7918 -1.3194 -0.5843
  610MOL0     H84172  10.236   6.279  11.635  3.3252  2.3438 -1.0660
  610MOL0     H84173  10.229   6.433  11.714  0.3606  0.7278 -0.9082
  610MOL0     H84174   9.991   6.248  11.699  1.7851 -1.9545  0.2722
  610MOL0     H84175  10.007   6.405  11.801  0.7735  1.3850 -0.0246
  610MOL0     H84176  10.228   6.160  12.055  0.0928  0.4685 -0.7424
  610MOL0     H84177  10.232   6.330  11.250  0.7928  3.3454  1.8109
  610MOL0     H84178  10.216   6.129  11.125 -0.4564 -0.6258  0.6996
  610MOL0     H84179  10.089   6.115  10.989  0.2701 -0.5693  0.5671
  610MOL0     H84180  10.250   6.160  10.952  1.4239  1.0595  1.3555
  611MOL0     O84181  10.143   3.261   2.188  0.0124  0.2240  0.9676
  611MOL0     C84182  10.116   3.152   2.248  0.3364  0.1994  0.4807
  611MOL0     O84183  10.199   3.045   2.262  0.4460 -0.4699  0.0380
  611MOL0     C84184  10.331   3.059   2.224 -0.5034  0.2461 -0.4235
  611MOL0     C84185  10.395   2.976   2.125 -0.1475 -0.8873 -0.0777
  611MOL0     C84186  10.532   2.995   2.091 -0.0124  0.1237 -0.0229
  611MOL0     C84187  10.611   3.084   2.157  0.5374 -0.4025 -0.5063
  611MOL0     O84188  10.747   3.091   2.119 -0.1027 -0.0077  0.0794
  611MOL0     C84189  10.842   3.130   2.217  0.3035 -0.4570 -0.9243
  611MOL0     C84190  10.980   3.091   2.155  0.1364 -0.2078 -0.4176
  611MOL0     C84191  11.004   3.185   2.041  0.5582  0.3727 -0.7089
  611MOL0     C84192  11.136   3.162   1.970  0.2663 -0.0410  0.4091
  611MOL0     C84193  11.138   3.263   1.853  0.1203  0.6124 -0.5024
  611MOL0     C84194  11.267   3.237   1.766  0.0749  0.5748 -0.5622
  611MOL0     C84195  11.265   3.290   1.620 -0.3958 -0.0472  0.3447
  611MOL0     C84196  11.162   3.223   1.532  0.1943 -0.4418 -0.4283
  611MOL0     N84197  11.167   3.083   1.537 -0.4261 -0.3988 -0.0824
  611MOL0     C84198  11.259   2.998   1.484 -0.0210 -0.0152  0.0672
  611MOL0     C84199  11.232   2.875   1.509 -0.3480  0.6846  0.3773
  611MOL0     C84200  11.339   2.761   1.482 -0.2180  0.4215 -0.0875
  611MOL0     C84201  11.354   2.727   1.330 -0.0251  0.7644  0.2533
  611MOL0     C84202  11.242   2.631   1.281 -0.3761  0.7310  0.7445
  611MOL0     C84203  11.248   2.590   1.139  1.0268 -0.7432 -0.0268
  611MOL0     O84204  11.384   2.566   1.098  0.2621  0.9186  0.1609
  611MOL0     C84205  11.421   2.575   0.964 -0.4672 -0.5088  0.2743
  611MOL0     C84206  11.542   2.516   0.924 -0.1849 -0.4371  1.0078
  611MOL0     C84207  11.589   2.534   0.789  0.3030 -0.1710 -0.0452
  611MOL0     C84208  11.707   2.446   0.747 -0.3381 -0.7421 -0.1218
  611MOL0     C84209  11.519   2.618   0.704 -0.1149  0.3956 -0.1318
  611MOL0     C84210  11.552   2.643   0.559  0.7776  0.5422 -0.7656
  611MOL0     O84211  11.452   2.670   0.474  0.5756 -0.6329  0.3029
  611MOL0     C84212  11.481   2.699   0.340 -0.2001 -0.2320 -0.3963
  611MOL0     C84213  11.425   2.640   0.224 -0.2817  0.9437  0.1659
  611MOL0     C84214  11.453   2.692   0.101  0.0557  0.7096  0.6248
  611MOL0     C84215  11.542   2.804   0.083 -0.2093  0.0729 -0.0756
  611MOL0     O84216  11.560   2.852  -0.040 -0.0483  0.5253 -0.1157
  611MOL0     C84217  11.651   2.793  -0.124  0.8664  0.6872  0.2364
  611MOL0     C84218  11.787   2.866  -0.130 -0.4517  0.2878 -0.2713
  611MOL0     C84219  11.771   3.014  -0.173  0.1190 -1.1525  0.0720
  611MOL0     C84220  11.823   3.035  -0.317  0.7489  0.5166 -0.6502
  611MOL0     C84221  11.970   3.064  -0.338 -0.2709  0.0555 -0.0926
  611MOL0     C84222  12.065   2.945  -0.306  0.2390 -0.2701 -0.0412
  611MOL0     C84223  12.117   2.944  -0.160  0.4221  0.0027  0.3934
  611MOL0     C84224  12.238   2.857  -0.145  0.4001 -0.6493 -0.4277
  611MOL0    Cl84225  12.193   2.690  -0.173  0.7611  0.2892 -0.1281
  611MOL0     C84226  11.598   2.867   0.196  0.6778  1.1246 -0.1350
  611MOL0     C84227  11.552   2.814   0.320 -0.3488  1.0667 -0.4073
  611MOL0     O84228  11.671   2.630   0.530 -0.3219 -0.1067 -0.0499
  611MOL0     C84229  11.395   2.667   0.751 -0.6720  0.6707  0.2095
  611MOL0     C84230  11.342   2.650   0.876  0.3838 -0.0550  0.2944
  611MOL0     N84231  11.112   2.884   1.580 -0.4054  0.3289 -0.0138
  611MOL0     N84232  11.070   3.005   1.594  0.3962 -0.7172 -0.2846
  611MOL0     C84233  10.553   3.175   2.251  1.1091  0.6752 -0.5069
  611MOL0     C84234  10.414   3.164   2.280 -0.9831  0.7001 -0.9451
  611MOL0     C84235   9.975   3.151   2.289 -0.5612 -0.3761 -0.0770
  611MOL0     C84236   9.909   3.034   2.315  0.1331 -0.0539 -0.7915
  611MOL0     C84237   9.773   3.029   2.354  0.9708  0.0730  0.1801
  611MOL0     C84238   9.703   3.139   2.385  0.2704  0.0281  0.9465
  611MOL0     O84239   9.567   3.125   2.396  0.0813 -0.0907 -0.5068
  611MOL0     C84240   9.483   3.234   2.361 -0.3212 -0.1117 -1.1532
  611MOL0     C84241   9.346   3.184   2.374  0.2640 -0.1531  0.1925
  611MOL0     C84242   9.245   3.283   2.311 -0.0337  0.2618 -0.7006
  611MOL0     C84243   9.105   3.233   2.352  0.0929  0.5591 -0.3647
  611MOL0     C84244   9.058   3.319   2.456  0.9397 -0.5536  0.5591
  611MOL0     C84245   9.022   3.399   2.541  0.5502 -0.1274  0.6072
  611MOL0     C84246   9.773   3.262   2.383  0.7862 -0.1969  0.8251
  611MOL0     C84247   9.905   3.268   2.334 -1.3760 -0.1613  0.1115
  611MOL0     C84248   9.969   3.405   2.345  0.7941  0.3717 -0.2501
  611MOL0     H84249  10.331   2.906   2.072 -2.2574  0.8005  0.0956
  611MOL0     H84250  10.589   2.929   2.026 -0.1749 -0.5634  0.5205
  611MOL0     H84251  10.831   3.078   2.313 -2.5868  0.9409 -0.3878
  611MOL0     H84252  10.840   3.237   2.240 -1.3545 -0.7318  0.4791
  611MOL0     H84253  11.059   3.096   2.230 -0.8547  0.3249  0.6033
  611MOL0     H84254  10.962   2.989   2.120 -3.1256  0.5451 -1.3003
  611MOL0     H84255  10.925   3.168   1.967 -0.6224 -0.1962  0.6363
  611MOL0     H84256  10.990   3.289   2.072 -1.6278  0.4837 -1.8269
  611MOL0     H84257  11.216   3.180   2.043  1.2128  1.5056 -0.9442
  611MOL0     H84258  11.144   3.060   1.933 -0.8912  0.7333 -2.2171
  611MOL0     H84259  11.137   3.363   1.897  0.3901 -0.1481  1.3504
  611MOL0     H84260  11.048   3.256   1.792 -1.3924  0.5814  1.6140
  611MOL0     H84261  11.362   3.276   1.805  0.9149  0.8425 -2.7250
  611MOL0     H84262  11.268   3.129   1.751 -2.7023  0.4238 -0.1606
  611MOL0     H84263  11.365   3.264   1.584 -0.8532 -2.4055  0.6094
  611MOL0     H84264  11.245   3.398   1.624 -1.9430 -0.3420  1.9050
  611MOL0     H84265  11.059   3.255   1.549  0.9316  1.3486  0.9637
  611MOL0     H84266  11.171   3.256   1.428 -0.1018  1.6938  0.1874
  611MOL0     H84267  11.351   3.027   1.435  0.9853  0.2464  2.0183
  611MOL0     H84268  11.327   2.671   1.542  1.5201 -0.3560 -0.8231
  611MOL0     H84269  11.440   2.783   1.517 -0.4545 -0.1412  0.9766
  611MOL0     H84270  11.335   2.818   1.273 -0.6062  1.5754  1.6760
  611MOL0     H84271  11.457   2.702   1.302  0.4386  2.9458 -0.2210
  611MOL0     H84272  11.246   2.536   1.336  0.5969 -1.2300 -2.4314
  611MOL0     H84273  11.143   2.677   1.284  0.3636  3.3982 -4.4211
  611MOL0     H84274  11.193   2.501   1.107  1.6589 -0.6565 -1.3905
  611MOL0     H84275  11.209   2.671   1.077  0.0781 -1.0682  0.1213
  611MOL0     H84276  11.597   2.463   1.002  0.8221  2.7584  2.6759
  611MOL0     H84277  11.733   2.367   0.818 -0.3426  1.3367  2.3684
  611MOL0     H84278  11.792   2.513   0.730 -0.5453 -1.1372 -3.2251
  611MOL0     H84279  11.691   2.399   0.649  0.9540 -1.2707 -0.1042
  611MOL0     H84280  11.381   2.541   0.227  1.6960  0.0225  0.5744
  611MOL0     H84281  11.419   2.635   0.015  0.7858  2.3961 -0.8598
  611MOL0     H84282  11.664   2.686  -0.109  4.3208  0.4129 -3.1169
  611MOL0     H84283  11.602   2.799  -0.221  0.1990  1.5159  0.6059
  611MOL0     H84284  11.825   2.860  -0.027 -1.7504 -0.3716  0.1891
  611MOL0     H84285  11.852   2.809  -0.196  0.3815 -1.1671  1.7219
  611MOL0     H84286  11.819   3.083  -0.103 -0.0675  0.3618 -1.2518
  611MOL0     H84287  11.665   3.038  -0.177  0.0986 -0.3417  3.1266
  611MOL0     H84288  11.763   3.110  -0.370  1.1049  1.6456  0.4981
  611MOL0     H84289  11.793   2.944  -0.369 -1.9860 -0.6084  2.5574
  611MOL0     H84290  11.986   3.094  -0.442 -0.4455  0.7146  0.0649
  611MOL0     H84291  11.995   3.147  -0.271 -0.2001  0.2465 -0.3557
  611MOL0     H84292  12.151   2.962  -0.371 -2.0897  1.1186 -3.0706
  611MOL0     H84293  12.023   2.846  -0.329 -0.5272 -0.3330  1.5060
  611MOL0     H84294  12.039   2.916  -0.088 -2.0382  0.2207 -2.0472
  611MOL0     H84295  12.133   3.048  -0.130 -1.8559  0.2432  0.9895
  611MOL0     H84296  12.272   2.874  -0.042 -0.7724  1.9072 -0.3849
  611MOL0     H84297  12.315   2.894  -0.214  2.9027 -1.6207  1.6787
  611MOL0     H84298  11.664   2.952   0.182  0.1057  1.3606 -1.6023
  611MOL0     H84299  11.599   2.862   0.405 -0.6023  0.9204 -0.1836
  611MOL0     H84300  11.334   2.720   0.679 -0.0807 -1.8449 -2.3176
  611MOL0     H84301  11.241   2.686   0.890  0.7167  2.0360 -1.9435
  611MOL0     H84302  10.617   3.249   2.297  2.4581 -1.4167  1.1826
  611MOL0     H84303  10.378   3.234   2.354  1.3868  1.3898 -0.3483
  611MOL0     H84304   9.963   2.940   2.313 -0.1268 -0.1939 -1.9080
  611MOL0     H84305   9.714   2.938   2.350  1.8806 -0.4950 -1.5301
  611MOL0     H84306   9.489   3.315   2.434 -0.7177 -1.3844  0.3760
  611MOL0     H84307   9.503   3.275   2.262 -1.4541  1.5924 -0.7168
  611MOL0     H84308   9.317   3.167   2.478 -3.1885  0.5721 -0.5129
  611MOL0     H84309   9.333   3.088   2.323 -3.3453  0.5666 -0.5180
  611MOL0     H84310   9.260   3.389   2.335 -1.6593  0.2083  0.7554
  611MOL0     H84311   9.254   3.276   2.202 -0.2762  1.4537 -0.8116
  611MOL0     H84312   9.099   3.128   2.383 -3.3203  0.7764  0.0420
  611MOL0     H84313   9.026   3.231   2.277 -1.4295  1.5494  1.1348
  611MOL0     H84314   9.015   3.485   2.605  0.7200  0.5256 -0.2375
  611MOL0     H84315   9.709   3.346   2.410  0.6723 -0.4320  1.3025
  611MOL0     H84316  10.041   3.395   2.427 -2.5739  1.1546  3.0956
  611MOL0     H84317  10.009   3.449   2.253 -0.5913 -0.2134 -1.1681
  611MOL0     H84318   9.893   3.471   2.387 -1.3037 -1.5521 -0.8041
  612MOL0     O84319   3.454   4.199   5.127 -0.0968  0.3302  0.0947
  612MOL0     C84320   3.444   4.082   5.095  0.2803 -0.2750 -0.8303
  612MOL0     O84321   3.491   3.976   5.176  0.6618 -0.2410  0.0061
  612MOL0     C84322   3.485   3.974   5.316 -0.4940 -0.1508 -0.5798
  612MOL0     C84323   3.509   4.089   5.400 -0.9690 -0.1029  0.6905
  612MOL0     C84324   3.487   4.097   5.535  0.2200 -0.2405 -0.9454
  612MOL0     C84325   3.477   3.970   5.602  0.8181  0.6008  0.7894
  612MOL0     O84326   3.497   3.958   5.738  0.4539 -0.3709 -0.1692
  612MOL0     C84327   3.502   4.077   5.820  0.5195  0.0768  0.1162
  612MOL0     C84328   3.540   4.042   5.958 -0.2520  0.7806 -0.3670
  612MOL0     C84329   3.677   3.956   5.962 -0.0685 -0.8912 -1.2372
  612MOL0     C84330   3.746   3.940   6.095 -0.4675  0.4163 -0.3658
  612MOL0     C84331   3.896   3.907   6.057  0.1416  0.0470  0.0548
  612MOL0     C84332   3.987   3.889   6.188 -0.8021 -0.0433  0.4160
  612MOL0     C84333   4.117   3.814   6.149 -0.2896  0.4933  1.0383
  612MOL0     C84334   4.233   3.906   6.104  0.2136 -0.0690 -0.5811
  612MOL0     N84335   4.371   3.843   6.111 -0.4264  0.1027 -0.0212
  612MOL0     C84336   4.465   3.844   6.217  0.7587  0.0721  0.5968
  612MOL0     C84337   4.576   3.790   6.166  0.2361 -0.6906 -0.1076
  612MOL0     C84338   4.700   3.746   6.239  0.6907 -0.2139 -0.7594
  612MOL0     C84339   4.834   3.818   6.191  0.1957 -0.3678 -0.6711
  612MOL0     C84340   4.966   3.757   6.229  0.2837 -0.4274 -0.3850
  612MOL0     C84341   5.008   3.794   6.371  0.4104 -0.2577  1.0376
  612MOL0     O84342   5.065   3.926   6.390  0.0544  0.5088 -0.3861
  612MOL0     C84343   5.200   3.950   6.373  0.0365  0.4490 -0.1679
  612MOL0     C84344   5.244   4.084   6.397  0.0335  0.0947  0.1929
  612MOL0     C84345   5.383   4.115   6.392 -0.1190 -0.4087 -0.4255
  612MOL0     C84346   5.421   4.258   6.428 -0.3655  0.4294  0.4014
  612MOL0     C84347   5.477   4.013   6.350  0.0405  0.7177  0.1618
  612MOL0     C84348   5.628   4.032   6.344 -0.0170 -0.1574  0.2097
  612MOL0     O84349   5.700   3.925   6.308 -0.4162  0.0358 -0.3178
  612MOL0     C84350   5.832   3.930   6.284  0.2855 -0.5300  0.7269
  612MOL0     C84351   5.893   4.050   6.235 -0.2899  0.4498 -0.1784
  612MOL0     C84352   6.033   4.042   6.212  0.4171  0.4845 -0.2140
  612MOL0     C84353   6.113   3.927   6.237  0.4267 -0.6302  0.8819
  612MOL0     O84354   6.255   3.943   6.205  0.6723 -0.1371  0.1032
  612MOL0     C84355   6.339   3.835   6.234  0.9406  0.5255 -0.4698
  612MOL0     C84356   6.458   3.835   6.140 -0.4313  0.6390  0.4508
  612MOL0     C84357   6.525   3.695   6.149  0.2422  0.1573 -0.1078
  612MOL0     C84358   6.654   3.696   6.071 -1.0943  0.6242 -0.1210
  612MOL0     C84359   6.732   3.562   6.091  0.3428  0.4199 -1.2252
  612MOL0     C84360   6.670   3.443   6.011 -0.2589  0.2906  0.2313
  612MOL0     C84361   6.757   3.318   6.029 -0.1025 -0.1082 -0.2876
  612MOL0     C84362   6.691   3.191   5.978  0.0212 -0.2057  0.6196
  612MOL0    Cl84363   6.611   3.105   6.114 -0.7651  0.0152  0.0824
  612MOL0     C84364   6.053   3.812   6.287 -0.0064 -0.1176  0.5727
  612MOL0     C84365   5.911   3.813   6.298  0.0956 -0.2100 -0.0218
  612MOL0     O84366   5.670   4.134   6.397  0.1712  0.6982 -0.2467
  612MOL0     C84367   5.424   3.886   6.320 -0.0651 -0.6735  0.5615
  612MOL0     C84368   5.289   3.850   6.333 -0.1689 -0.6429  1.0541
  612MOL0     N84369   4.561   3.775   6.032 -0.3629  0.6400 -0.2245
  612MOL0     N84370   4.441   3.802   5.995 -0.2448  0.4802 -1.2486
  612MOL0     C84371   3.474   3.854   5.529  0.4975 -0.7189  0.9434
  612MOL0     C84372   3.467   3.856   5.388  0.1786 -0.2468  0.5960
  612MOL0     C84373   3.391   4.050   4.960 -0.4644  0.4538 -0.4036
  612MOL0     C84374   3.321   3.927   4.948 -0.0603  0.3463  0.0518
  612MOL0     C84375   3.253   3.895   4.836 -0.1941  0.6081 -0.7900
  612MOL0     C84376   3.244   3.989   4.734 -0.7156  0.3962 -0.6096
  612MOL0     O84377   3.169   3.971   4.620  0.8574  1.1079  0.8391
  612MOL0     C84378   3.099   3.847   4.605 -0.2730  0.5685 -0.5579
  612MOL0     C84379   3.030   3.831   4.467  0.3413 -0.1271  0.6923
  612MOL0     C84380   2.891   3.910   4.473  0.2918 -0.7061 -0.7151
  612MOL0     C84381   2.831   3.912   4.339 -0.3276  0.2771 -0.2949
  612MOL0     C84382   2.690   3.952   4.344  0.0129  0.6874 -0.0770
  612MOL0     C84383   2.567   3.984   4.360 -0.2438  0.5144  0.2303
  612MOL0     C84384   3.313   4.114   4.738 -0.3450 -0.6569 -0.0220
  612MOL0     C84385   3.390   4.135   4.850  1.2915 -0.7315  0.4745
  612MOL0     C84386   3.471   4.266   4.855 -1.1945 -0.6372 -1.3697
  612MOL0     H84387   3.524   4.185   5.351  0.8442 -1.6762 -2.1469
  612MOL0     H84388   3.497   4.195   5.581  0.4977 -0.9819  0.6655
  612MOL0     H84389   3.401   4.118   5.812 -0.6916 -2.9089 -1.6844
  612MOL0     H84390   3.566   4.150   5.772 -0.0742  0.7227  0.2910
  612MOL0     H84391   3.540   4.135   6.016 -1.5697  0.5855 -0.0226
  612MOL0     H84392   3.457   3.987   6.004  0.0969 -0.2477 -0.9327
  612MOL0     H84393   3.659   3.851   5.940  0.2233 -1.9990  2.9344
  612MOL0     H84394   3.733   4.002   5.880 -0.2466  1.5545 -0.1019
  612MOL0     H84395   3.732   4.030   6.155 -0.9484 -2.2889  4.0582
  612MOL0     H84396   3.698   3.864   6.157  0.0386  0.5960  0.2629
  612MOL0     H84397   3.934   3.987   5.993  0.1895 -0.5905 -0.7284
  612MOL0     H84398   3.909   3.814   6.000  1.2811 -0.6033  1.2936
  612MOL0     H84399   4.013   3.985   6.234  2.8736  0.8790 -3.0375
  612MOL0     H84400   3.952   3.819   6.265  1.8077  0.7229  2.4488
  612MOL0     H84401   4.098   3.738   6.073  1.2105  2.0037 -0.9454
  612MOL0     H84402   4.152   3.757   6.236 -2.0487 -0.6126  1.0621
  612MOL0     H84403   4.234   3.938   6.000 -0.9972  1.5168 -0.1556
  612MOL0     H84404   4.226   3.997   6.166 -0.7295  0.0018 -0.7823
  612MOL0     H84405   4.451   3.886   6.316  0.6324 -1.0863  1.0829
  612MOL0     H84406   4.709   3.637   6.235  1.5570 -0.1470 -0.7903
  612MOL0     H84407   4.691   3.773   6.345  0.6692  0.3636 -0.9017
  612MOL0     H84408   4.834   3.841   6.084 -1.8624 -1.5972 -0.9897
  612MOL0     H84409   4.819   3.916   6.237 -0.2990 -1.1347  0.8625
  612MOL0     H84410   4.939   3.651   6.223 -1.1160 -0.5207  4.1023
  612MOL0     H84411   5.045   3.774   6.155  0.4094  1.0699  0.0498
  612MOL0     H84412   4.914   3.796   6.428  0.6635  0.9217  1.4526
  612MOL0     H84413   5.075   3.719   6.415  0.5702 -1.6242 -1.3950
  612MOL0     H84414   5.165   4.156   6.415 -0.2839 -0.2745  0.2867
  612MOL0     H84415   5.337   4.328   6.423 -0.4235  0.7900  3.7881
  612MOL0     H84416   5.502   4.284   6.360  0.4950 -3.3726 -0.2691
  612MOL0     H84417   5.464   4.269   6.528 -0.1089  2.4687  0.1043
  612MOL0     H84418   5.832   4.138   6.221 -0.9457 -0.1811 -1.3957
  612MOL0     H84419   6.086   4.124   6.163 -1.0822  3.0435  2.1451
  612MOL0     H84420   6.364   3.823   6.340 -3.5907  2.0462  1.0141
  612MOL0     H84421   6.290   3.741   6.207  3.1848 -1.3878  1.6413
  612MOL0     H84422   6.420   3.851   6.039 -0.1598  2.5792  0.6201
  612MOL0     H84423   6.524   3.919   6.161 -1.8384  1.4788  1.7584
  612MOL0     H84424   6.469   3.620   6.092  0.0770  0.1507  0.0624
  612MOL0     H84425   6.525   3.675   6.256 -3.8929  0.0720  0.0463
  612MOL0     H84426   6.727   3.772   6.098  2.6340 -1.8205 -2.4135
  612MOL0     H84427   6.637   3.714   5.964  0.6902  0.7541 -0.4120
  612MOL0     H84428   6.837   3.580   6.065  0.9575  0.7639  1.2477
  612MOL0     H84429   6.734   3.539   6.198 -0.8074  2.5811 -0.6828
  612MOL0     H84430   6.666   3.467   5.904  1.0209  0.9162  0.3100
  612MOL0     H84431   6.564   3.428   6.033 -0.1229  0.7245  1.1949
  612MOL0     H84432   6.791   3.319   6.133  0.3610  1.6785 -0.4105
  612MOL0     H84433   6.850   3.328   5.972  1.1932  1.9642  1.9595
  612MOL0     H84434   6.755   3.124   5.920 -2.5903  1.2129 -4.5286
  612MOL0     H84435   6.608   3.210   5.908  1.2957 -1.7715 -1.4307
  612MOL0     H84436   6.116   3.732   6.325 -2.8108 -1.2652  3.2246
  612MOL0     H84437   5.862   3.730   6.349 -1.4364 -0.6269 -2.0682
  612MOL0     H84438   5.489   3.801   6.298 -1.3067 -1.0810 -1.7772
  612MOL0     H84439   5.260   3.748   6.312  0.4805 -1.0170  1.9036
  612MOL0     H84440   3.459   3.756   5.571 -2.6591 -1.2205 -0.9988
  612MOL0     H84441   3.448   3.767   5.328 -2.7645  2.2693 -2.6302
  612MOL0     H84442   3.338   3.851   5.024  2.9973  0.1234 -0.7280
  612MOL0     H84443   3.200   3.801   4.846  0.0790  0.6168  1.1846
  612MOL0     H84444   3.169   3.764   4.598 -0.1962  0.5606  0.1834
  612MOL0     H84445   3.034   3.832   4.692  1.0987 -1.5576  0.1762
  612MOL0     H84446   3.011   3.725   4.450  2.4494 -0.5172  0.5104
  612MOL0     H84447   3.104   3.864   4.393 -2.4988 -1.6690 -3.1035
  612MOL0     H84448   2.830   3.858   4.548  0.0622  1.8233  0.9714
  612MOL0     H84449   2.905   4.008   4.520  0.3185 -0.2463 -1.6585
  612MOL0     H84450   2.844   3.814   4.292  0.5740 -0.5201  1.4900
  612MOL0     H84451   2.894   3.980   4.281 -0.1369 -1.7902 -2.6667
  612MOL0     H84452   2.461   3.995   4.368 -0.3478 -0.8216  1.0461
  612MOL0     H84453   3.315   4.179   4.651  2.7559 -0.5077  0.0748
  612MOL0     H84454   3.416   4.338   4.916  0.2574  1.0719 -1.9931
  612MOL0     H84455   3.562   4.259   4.915 -0.6246  0.3137 -2.0871
  612MOL0     H84456   3.485   4.304   4.754 -0.1615  1.4456 -0.5062
  613MOL0     O84457   3.743   2.097   5.079  0.1079 -0.5171  0.8513
  613MOL0     C84458   3.855   2.073   5.030  0.2392  0.4944 -0.0302
  613MOL0     O84459   3.910   2.128   4.915 -0.0846 -0.0423  0.8225
  613MOL0     C84460   3.920   2.260   4.921 -1.0293 -0.2074 -0.6662
  613MOL0     C84461   3.934   2.333   5.042  1.2496 -0.0950 -0.0732
  613MOL0     C84462   3.951   2.472   5.037 -0.4930  0.3447 -0.9898
  613MOL0     C84463   3.958   2.543   4.924  0.3100 -0.0079  0.0522
  613MOL0     O84464   3.971   2.682   4.912 -0.4448 -0.2538  0.3526
  613MOL0     C84465   3.938   2.769   5.022 -0.0064  0.0040  1.1116
  613MOL0     C84466   3.943   2.911   4.952 -0.5431  0.6894  0.2301
  613MOL0     C84467   3.809   2.942   4.875  0.1097  0.2647 -0.9319
  613MOL0     C84468   3.836   3.063   4.787  0.1575 -0.5609  1.6329
  613MOL0     C84469   3.699   3.130   4.739 -0.3541  1.2659 -1.0983
  613MOL0     C84470   3.705   3.271   4.685  0.3512 -0.4304  0.4774
  613MOL0     C84471   3.822   3.296   4.590  0.5888 -0.1401  0.9096
  613MOL0     C84472   3.831   3.441   4.544  0.2060 -0.6810 -0.1004
  613MOL0     N84473   3.927   3.464   4.435 -0.3876  0.3807 -0.2609
  613MOL0     C84474   4.046   3.394   4.411 -0.4649  0.1545  0.2793
  613MOL0     C84475   4.102   3.464   4.324  0.6474 -1.0434  0.7965
  613MOL0     C84476   4.244   3.439   4.277 -0.2884  0.4447 -0.0502
  613MOL0     C84477   4.243   3.408   4.132 -0.6563  0.0774  0.0982
  613MOL0     C84478   4.370   3.333   4.106 -0.2451  0.5246 -0.3374
  613MOL0     C84479   4.383   3.321   3.959  0.7194 -0.8152  0.1109
  613MOL0     O84480   4.519   3.296   3.910  0.9812 -0.1031  0.0703
  613MOL0     C84481   4.565   3.169   3.926 -0.3122 -0.4264 -0.3105
  613MOL0     C84482   4.539   3.073   3.834  0.0398 -0.1300  0.3153
  613MOL0     C84483   4.587   2.940   3.842 -0.6355  0.6475  0.4109
  613MOL0     C84484   4.562   2.842   3.734 -0.9287  0.1516  0.6282
  613MOL0     C84485   4.673   2.906   3.949 -0.4517  0.0884  0.0346
  613MOL0     C84486   4.728   2.769   3.964 -0.1580  0.0005 -0.4086
  613MOL0     O84487   4.862   2.768   3.974  0.5243 -0.4197 -0.5081
  613MOL0     C84488   4.944   2.658   3.969 -0.3380  0.3511  0.2244
  613MOL0     C84489   5.081   2.678   4.012  0.0749  0.0978 -0.1925
  613MOL0     C84490   5.181   2.579   3.990 -0.8663 -0.5009  0.9707
  613MOL0     C84491   5.150   2.459   3.924  0.1233  0.3044 -0.2820
  613MOL0     O84492   5.240   2.385   3.861 -0.1924  0.1552 -0.4277
  613MOL0     C84493   5.378   2.408   3.856 -0.4229 -0.0325 -0.3039
  613MOL0     C84494   5.460   2.297   3.773 -0.4569 -0.0440 -0.5620
  613MOL0     C84495   5.496   2.182   3.877  0.5516  0.1420 -0.3512
  613MOL0     C84496   5.552   2.059   3.806 -0.2720  0.1627  0.1588
  613MOL0     C84497   5.566   1.926   3.891 -0.0933  0.1103  0.1345
  613MOL0     C84498   5.436   1.843   3.918 -0.3676  0.1007  0.5368
  613MOL0     C84499   5.469   1.715   4.017  0.5090  0.1277  0.3803
  613MOL0     C84500   5.412   1.739   4.144  0.6720  0.2788 -0.5511
  613MOL0    Cl84501   5.463   1.636   4.281 -0.0368  0.4707  0.3055
  613MOL0     C84502   5.017   2.441   3.886 -0.3248 -0.7719  0.2573
  613MOL0     C84503   4.909   2.528   3.920 -0.9950  0.2867  0.4315
  613MOL0     O84504   4.652   2.674   3.966 -0.0582  0.3222  0.1173
  613MOL0     C84505   4.714   3.012   4.029  1.2227  0.2760 -0.0107
  613MOL0     C84506   4.659   3.136   4.015  0.7678 -0.0862 -0.5783
  613MOL0     N84507   4.028   3.572   4.283 -0.2009 -0.1917 -0.3270
  613MOL0     N84508   3.926   3.575   4.351 -0.0676 -0.8527  0.2043
  613MOL0     C84509   3.965   2.474   4.800 -0.0453 -0.7392  0.2351
  613MOL0     C84510   3.950   2.335   4.799  0.3160  0.1913  0.3584
  613MOL0     C84511   3.936   1.962   5.097 -0.8346  0.4442 -0.7160
  613MOL0     C84512   4.071   1.952   5.052  0.4064  0.4462 -0.0615
  613MOL0     C84513   4.157   1.850   5.092 -0.2678  0.5954  0.4740
  613MOL0     C84514   4.106   1.758   5.195  0.5488  0.1087 -0.1582
  613MOL0     O84515   4.180   1.657   5.246 -0.5500  0.2803  0.2330
  613MOL0     C84516   4.318   1.636   5.219  0.7594  0.3203 -0.1391
  613MOL0     C84517   4.352   1.500   5.280 -0.5938 -0.6461 -0.7218
  613MOL0     C84518   4.363   1.496   5.442  0.6050  0.4074 -0.6402
  613MOL0     C84519   4.229   1.485   5.512  0.8392  0.0708 -0.7771
  613MOL0     C84520   4.245   1.529   5.652 -0.4161 -0.9100  0.5949
  613MOL0     C84521   4.250   1.570   5.763  0.0605  0.0696  0.1245
  613MOL0     C84522   3.976   1.775   5.237 -0.0099 -0.5849 -0.3770
  613MOL0     C84523   3.885   1.870   5.187  0.0982  0.5627 -0.4058
  613MOL0     C84524   3.743   1.860   5.237 -0.5514  0.0457  1.3122
  613MOL0     H84525   3.914   2.294   5.141 -1.8385  0.4170 -0.4095
  613MOL0     H84526   3.960   2.521   5.133  1.0924  1.8283 -1.8378
  613MOL0     H84527   4.022   2.751   5.090  0.3329 -2.5582  0.1260
  613MOL0     H84528   3.847   2.746   5.078  0.3301 -1.4509  1.0822
  613MOL0     H84529   3.972   2.989   5.023 -0.7645  1.3397 -0.3768
  613MOL0     H84530   4.017   2.904   4.873  0.2372  0.2740  0.9833
  613MOL0     H84531   3.783   2.869   4.799 -1.7736 -0.0891 -0.0075
  613MOL0     H84532   3.728   2.952   4.948 -0.8821  2.2078 -2.2034
  613MOL0     H84533   3.894   3.133   4.848 -0.8718  1.7582  0.0904
  613MOL0     H84534   3.891   3.029   4.698 -0.9697 -0.3100  0.8133
  613MOL0     H84535   3.629   3.121   4.823  3.2509  2.6996  2.3940
  613MOL0     H84536   3.680   3.066   4.652  3.2362  0.0632 -1.1433
  613MOL0     H84537   3.616   3.279   4.621  2.3530 -0.3368 -2.4899
  613MOL0     H84538   3.707   3.338   4.771  1.4865 -1.3230  1.1879
  613MOL0     H84539   3.814   3.230   4.504  0.1751 -1.2972  1.8100
  613MOL0     H84540   3.915   3.259   4.634  1.2416 -3.4196 -2.7505
  613MOL0     H84541   3.730   3.469   4.512  0.9139  3.7861  0.9590
  613MOL0     H84542   3.862   3.502   4.630 -1.4600  0.1239 -0.0249
  613MOL0     H84543   4.088   3.309   4.465 -0.1005 -0.5483 -1.0623
  613MOL0     H84544   4.286   3.350   4.324 -0.7948  0.0962 -0.2513
  613MOL0     H84545   4.304   3.530   4.287  0.0400 -0.0293  3.8295
  613MOL0     H84546   4.155   3.345   4.117 -1.3832  0.4078  2.5166
  613MOL0     H84547   4.234   3.498   4.069  2.8431  2.2091  2.2885
  613MOL0     H84548   4.458   3.379   4.151 -0.1348  1.1027 -1.1293
  613MOL0     H84549   4.366   3.232   4.149  2.8995  0.8937  1.0898
  613MOL0     H84550   4.312   3.244   3.930 -0.6839 -0.4573  2.3479
  613MOL0     H84551   4.354   3.413   3.907 -4.4598 -1.0257  2.0666
  613MOL0     H84552   4.473   3.104   3.753 -0.2399  1.5140  1.1255
  613MOL0     H84553   4.657   2.819   3.684 -2.1393 -1.3548 -1.1638
  613MOL0     H84554   4.494   2.871   3.653  0.0128 -2.5752 -1.3377
  613MOL0     H84555   4.518   2.750   3.775 -0.0638  0.3805  2.1544
  613MOL0     H84556   5.110   2.780   4.038  1.5771  0.2982 -2.3880
  613MOL0     H84557   5.287   2.587   4.009 -0.3220  0.0995 -1.8924
  613MOL0     H84558   5.388   2.493   3.788  0.7221 -0.0137 -0.1378
  613MOL0     H84559   5.429   2.432   3.951 -1.8775  1.0334  0.2473
  613MOL0     H84560   5.405   2.266   3.683 -1.0785  1.0995 -0.6018
  613MOL0     H84561   5.558   2.334   3.742 -0.7491 -0.5698 -2.2243
  613MOL0     H84562   5.398   2.155   3.918  0.3817 -1.0846 -1.4610
  613MOL0     H84563   5.577   2.217   3.941  1.6004  4.2317 -3.5208
  613MOL0     H84564   5.653   2.094   3.786 -0.0835  0.0452  0.8779
  613MOL0     H84565   5.497   2.033   3.715  0.7624 -0.9286 -0.1740
  613MOL0     H84566   5.644   1.861   3.852  0.7878  0.2544  1.5822
  613MOL0     H84567   5.589   1.944   3.996 -1.8252 -2.2442  1.0010
  613MOL0     H84568   5.395   1.809   3.822  0.1850  0.0434  0.3195
  613MOL0     H84569   5.353   1.903   3.957 -1.5353 -1.8361  1.1448
  613MOL0     H84570   5.575   1.693   4.027  1.3378  2.1093 -2.7460
  613MOL0     H84571   5.424   1.623   3.979 -0.4850  0.6381  0.2909
  613MOL0     H84572   5.303   1.733   4.146  0.7856 -3.5411  0.3977
  613MOL0     H84573   5.437   1.843   4.167 -0.3917 -0.4167  5.4073
  613MOL0     H84574   4.984   2.354   3.829  1.7046 -1.6453  0.3216
  613MOL0     H84575   4.808   2.498   3.892 -0.8298  0.0084  0.1235
  613MOL0     H84576   4.797   3.007   4.098  2.7642 -0.6707 -1.8567
  613MOL0     H84577   4.681   3.213   4.088 -0.8631  0.0567 -0.2009
  613MOL0     H84578   3.967   2.519   4.702 -0.0250 -1.8386 -0.2782
  613MOL0     H84579   3.962   2.276   4.709 -0.2901  1.5552 -0.6605
  613MOL0     H84580   4.118   2.028   4.991  0.1570  0.5696 -0.0995
  613MOL0     H84581   4.253   1.856   5.042 -1.9238 -0.4332 -3.1452
  613MOL0     H84582   4.350   1.628   5.114 -0.0532 -2.0686 -0.2714
  613MOL0     H84583   4.370   1.720   5.266  1.2224  1.3973 -2.3907
  613MOL0     H84584   4.448   1.474   5.235 -1.1218 -2.0596 -1.0801
  613MOL0     H84585   4.277   1.427   5.247 -3.4359  1.4463  0.5828
  613MOL0     H84586   4.438   1.424   5.476  1.7248  3.1527  3.2543
  613MOL0     H84587   4.408   1.592   5.468  0.8071 -0.1953  1.3408
  613MOL0     H84588   4.191   1.382   5.515 -2.6413  1.2514  0.5415
  613MOL0     H84589   4.154   1.551   5.468 -0.0280 -0.7654 -0.6014
  613MOL0     H84590   4.252   1.604   5.864 -0.3778  3.0359 -0.7960
  613MOL0     H84591   3.924   1.719   5.315 -3.5273 -0.4151 -2.3951
  613MOL0     H84592   3.676   1.850   5.150 -1.6463 -1.8688  2.3107
  613MOL0     H84593   3.728   1.781   5.311  3.7244  0.2150  2.5894
  613MOL0     H84594   3.720   1.959   5.278 -0.5376  2.1059 -3.0088
  614MOL0     O84595   3.888   5.879   3.528 -0.0744  0.1318  0.7486
  614MOL0     C84596   3.925   5.888   3.408  0.1908 -0.0330 -0.6053
  614MOL0     O84597   3.862   5.974   3.316 -0.4259  0.4210 -0.2575
  614MOL0     C84598   3.756   6.054   3.330  0.5034 -0.1696 -0.7592
  614MOL0     C84599   3.719   6.117   3.212 -0.1268 -0.1706 -0.9394
  614MOL0     C84600   3.618   6.213   3.202 -0.3505 -0.0069 -0.0189
  614MOL0     C84601   3.529   6.229   3.316  0.1812 -0.2319  0.4486
  614MOL0     O84602   3.419   6.309   3.291  0.0050 -1.0310 -0.1551
  614MOL0     C84603   3.289   6.299   3.361 -0.5095 -0.4610 -0.0777
  614MOL0     C84604   3.275   6.428   3.454 -0.4224 -0.4357  0.2570
  614MOL0     C84605   3.297   6.389   3.599 -0.2958 -0.5868  0.3096
  614MOL0     C84606   3.297   6.527   3.664  0.0708  0.4479  0.0018
  614MOL0     C84607   3.430   6.609   3.652 -0.0126 -0.5319 -0.5087
  614MOL0     C84608   3.563   6.532   3.683  0.0067 -0.0540 -0.7166
  614MOL0     C84609   3.673   6.639   3.699 -0.9628  0.1391  0.0260
  614MOL0     C84610   3.797   6.563   3.754 -0.5685  0.4422  0.9366
  614MOL0     N84611   3.921   6.635   3.725  0.2819  0.4169 -0.2944
  614MOL0     C84612   4.003   6.619   3.612  0.1434 -0.2156  0.2471
  614MOL0     C84613   4.097   6.716   3.637  0.1308 -0.3696  0.0685
  614MOL0     C84614   4.214   6.737   3.551 -0.5869  0.0385  0.0470
  614MOL0     C84615   4.180   6.755   3.405  0.3328 -0.2949 -0.1175
  614MOL0     C84616   4.295   6.828   3.322 -0.9213  1.3315 -0.8542
  614MOL0     C84617   4.266   6.815   3.167  0.7649  0.1322 -0.2257
  614MOL0     O84618   4.307   6.685   3.121  0.1015 -0.3245  0.2979
  614MOL0     C84619   4.437   6.668   3.094 -0.1839 -0.5758 -0.4290
  614MOL0     C84620   4.487   6.718   2.975 -0.3924 -0.3176  0.3576
  614MOL0     C84621   4.624   6.679   2.936  0.0274  0.0320  0.3310
  614MOL0     C84622   4.643   6.741   2.799  0.0812 -0.5653  0.0019
  614MOL0     C84623   4.712   6.607   3.023 -0.3869  0.3590 -0.4339
  614MOL0     C84624   4.847   6.569   2.982  0.7773  0.1381  0.0811
  614MOL0     O84625   4.905   6.611   2.871  0.3434 -0.2617 -0.5426
  614MOL0     C84626   5.030   6.563   2.846  0.3635 -0.2406 -0.1838
  614MOL0     C84627   5.149   6.598   2.915 -0.0532  0.2398  0.7329
  614MOL0     C84628   5.274   6.565   2.864  0.7249  0.2497 -0.1457
  614MOL0     C84629   5.289   6.489   2.745 -0.0669 -1.5627  0.3740
  614MOL0     O84630   5.406   6.441   2.690 -0.1527  0.0767  0.8489
  614MOL0     C84631   5.522   6.460   2.766  0.7217 -0.9758 -1.4394
  614MOL0     C84632   5.632   6.371   2.708  0.3674 -0.3559  0.2299
  614MOL0     C84633   5.690   6.424   2.581  0.0092 -0.1512 -0.1093
  614MOL0     C84634   5.803   6.335   2.522 -0.1560  0.0754  0.1287
  614MOL0     C84635   5.809   6.314   2.369  0.6144  0.6553 -0.7447
  614MOL0     C84636   5.802   6.438   2.282  0.0628  0.1870  0.0493
  614MOL0     C84637   5.799   6.372   2.144  1.0338  0.5490  0.6936
  614MOL0     C84638   5.775   6.496   2.050  0.2326  0.5203  0.8762
  614MOL0    Cl84639   5.740   6.443   1.882  0.3734 -0.1314  0.2151
  614MOL0     C84640   5.173   6.455   2.683 -0.1110  0.0094  0.1037
  614MOL0     C84641   5.044   6.487   2.725  0.0498  0.0600  0.0859
  614MOL0     O84642   4.898   6.491   3.059  0.5293  0.2307  0.1208
  614MOL0     C84643   4.651   6.552   3.138 -0.8237  0.0483  0.5272
  614MOL0     C84644   4.517   6.589   3.178  0.5247 -0.4691  0.5428
  614MOL0     N84645   4.067   6.793   3.743  0.1336  0.3654  0.0546
  614MOL0     N84646   3.961   6.746   3.793 -0.4931 -0.5451 -0.2388
  614MOL0     C84647   3.556   6.153   3.432 -0.3207 -0.6263  0.4602
  614MOL0     C84648   3.671   6.076   3.442 -0.1292  0.4519  0.2258
  614MOL0     C84649   4.023   5.795   3.370 -0.6519 -0.3476  0.4470
  614MOL0     C84650   4.002   5.656   3.395 -0.0543  0.1152 -0.7563
  614MOL0     C84651   4.107   5.563   3.362  0.5761  0.4354  0.5828
  614MOL0     C84652   4.216   5.602   3.289  0.0598  0.8970 -0.5403
  614MOL0     O84653   4.309   5.521   3.231  0.0783 -0.4961 -0.1449
  614MOL0     C84654   4.333   5.391   3.288 -1.0727  0.2891  0.1909
  614MOL0     C84655   4.403   5.311   3.178  0.0828  0.1470  0.1615
  614MOL0     C84656   4.555   5.336   3.174 -0.3156 -0.1882  0.0973
  614MOL0     C84657   4.644   5.254   3.074 -0.0975  0.3762 -0.1688
  614MOL0     C84658   4.605   5.256   2.932  0.4870 -0.4810 -0.0653
  614MOL0     C84659   4.563   5.255   2.820  0.3346 -0.9411 -0.6282
  614MOL0     C84660   4.224   5.735   3.247 -0.0365  0.5643  0.1274
  614MOL0     C84661   4.133   5.832   3.287  0.4911 -0.2651 -0.6289
  614MOL0     C84662   4.154   5.974   3.231 -0.0244  0.1176  0.1891
  614MOL0     H84663   3.786   6.104   3.127 -0.1148 -0.0787 -0.9443
  614MOL0     H84664   3.596   6.260   3.107 -1.9401  1.7371  1.1475
  614MOL0     H84665   3.282   6.203   3.414 -1.4139  1.1262  2.8779
  614MOL0     H84666   3.203   6.294   3.293 -1.3761 -3.8619  1.0536
  614MOL0     H84667   3.338   6.511   3.420 -2.7923  1.0143 -0.8434
  614MOL0     H84668   3.170   6.457   3.444 -1.1704 -3.0489 -0.0731
  614MOL0     H84669   3.211   6.323   3.619 -0.7046 -0.2260 -0.2173
  614MOL0     H84670   3.394   6.342   3.615  1.1340  2.6823  2.0056
  614MOL0     H84671   3.209   6.581   3.628 -1.6279 -1.3264  1.3092
  614MOL0     H84672   3.277   6.520   3.771 -0.8721  0.5855 -0.1586
  614MOL0     H84673   3.431   6.665   3.746  0.3601  0.5287 -1.1284
  614MOL0     H84674   3.431   6.678   3.567  2.5848  2.8182  1.9111
  614MOL0     H84675   3.542   6.491   3.783 -2.9292  4.0621  0.6559
  614MOL0     H84676   3.578   6.454   3.608 -0.7463 -1.6490  0.7369
  614MOL0     H84677   3.652   6.712   3.778  1.7680  1.3086 -0.2221
  614MOL0     H84678   3.705   6.703   3.616 -1.6587  1.9436  1.0755
  614MOL0     H84679   3.792   6.540   3.861  0.7509 -3.1514  0.3922
  614MOL0     H84680   3.814   6.467   3.703  1.1747  1.4531 -0.5073
  614MOL0     H84681   3.992   6.557   3.523 -0.4670  1.3816 -0.8357
  614MOL0     H84682   4.270   6.645   3.571  1.3202  1.2250  0.3420
  614MOL0     H84683   4.268   6.829   3.575 -0.6016  0.1070 -0.1797
  614MOL0     H84684   4.160   6.657   3.361 -1.4439 -0.4286  0.9116
  614MOL0     H84685   4.089   6.816   3.406  1.7470  1.9799  1.9928
  614MOL0     H84686   4.309   6.933   3.347  1.0050  1.2668 -1.4766
  614MOL0     H84687   4.393   6.785   3.344 -1.2491 -0.0351 -1.9253
  614MOL0     H84688   4.163   6.840   3.142 -0.4314 -1.3798  2.7105
  614MOL0     H84689   4.330   6.888   3.118  1.8044 -1.4514 -1.3416
  614MOL0     H84690   4.417   6.752   2.899  0.1124 -1.8111 -0.8302
  614MOL0     H84691   4.616   6.659   2.731 -0.9720 -1.8171  1.8501
  614MOL0     H84692   4.743   6.783   2.784 -0.8345  0.4446 -4.9784
  614MOL0     H84693   4.581   6.829   2.779  0.3812  0.8199  4.1770
  614MOL0     H84694   5.144   6.663   3.002 -4.9447  1.5623 -0.2474
  614MOL0     H84695   5.359   6.593   2.925  0.2956 -0.8124  1.0044
  614MOL0     H84696   5.564   6.560   2.762  0.8005 -0.6032  2.9899
  614MOL0     H84697   5.513   6.432   2.872  2.4250 -0.8509 -1.2305
  614MOL0     H84698   5.715   6.360   2.778 -1.3796  0.0556  2.4880
  614MOL0     H84699   5.595   6.268   2.703 -0.4813 -0.3905  4.0468
  614MOL0     H84700   5.728   6.526   2.585 -0.2353 -0.0727  0.2962
  614MOL0     H84701   5.605   6.436   2.513  0.2235  1.1750 -0.1715
  614MOL0     H84702   5.787   6.234   2.562 -2.0937  0.1608 -0.3017
  614MOL0     H84703   5.899   6.366   2.564  0.3307 -1.5369  0.2904
  614MOL0     H84704   5.899   6.258   2.341 -0.9459 -1.5408 -1.6425
  614MOL0     H84705   5.730   6.241   2.352  2.0030 -2.6359  4.6841
  614MOL0     H84706   5.887   6.501   2.309  0.0447  0.7813 -1.2174
  614MOL0     H84707   5.711   6.496   2.298  1.2054  2.2745 -0.7576
  614MOL0     H84708   5.716   6.302   2.133  0.3359  1.2755  1.2017
  614MOL0     H84709   5.888   6.320   2.109  0.2938 -1.7851  2.0836
  614MOL0     H84710   5.861   6.564   2.058  0.0983  0.5910  1.8483
  614MOL0     H84711   5.689   6.555   2.083  1.0381  1.8384  0.7015
  614MOL0     H84712   5.189   6.403   2.589  1.3043  2.7371 -1.2762
  614MOL0     H84713   4.954   6.461   2.670  0.1783 -3.3846  1.2533
  614MOL0     H84714   4.688   6.468   3.195 -1.5847  0.3025  1.4224
  614MOL0     H84715   4.473   6.546   3.268 -1.5423  4.4174  2.2287
  614MOL0     H84716   3.491   6.154   3.520  0.3407 -3.0004  1.0521
  614MOL0     H84717   3.700   6.046   3.542 -1.1238  2.9414  1.3410
  614MOL0     H84718   3.918   5.625   3.456  1.4935  0.0576  1.4594
  614MOL0     H84719   4.084   5.459   3.382 -1.7247  0.7736  0.0018
  614MOL0     H84720   4.400   5.391   3.375 -0.7854 -1.0438 -0.0140
  614MOL0     H84721   4.246   5.329   3.313 -1.1931  1.4411  3.0669
  614MOL0     H84722   4.367   5.347   3.081  1.3149  0.5793 -0.1609
  614MOL0     H84723   4.387   5.203   3.188  0.6777 -0.3687 -3.0819
  614MOL0     H84724   4.581   5.440   3.156 -0.4042 -0.4568 -1.7715
  614MOL0     H84725   4.601   5.311   3.271  0.6229  1.3957  0.0889
  614MOL0     H84726   4.641   5.150   3.106 -0.8156  0.9796  1.9092
  614MOL0     H84727   4.748   5.284   3.084 -0.6167  1.8862  1.2883
  614MOL0     H84728   4.536   5.270   2.718  4.2756 -1.6586 -1.9234
  614MOL0     H84729   4.305   5.750   3.177  0.2506 -4.1727 -0.8683
  614MOL0     H84730   4.251   6.013   3.263 -0.3646  1.5693 -0.4809
  614MOL0     H84731   4.171   5.958   3.124  2.2058 -0.3167  0.5523
  614MOL0     H84732   4.091   6.058   3.258  0.2765  0.0470  1.1395
  615MOL0     O84733   8.034   7.799   4.168  0.0382  0.3142 -0.7228
  615MOL0     C84734   7.957   7.738   4.093 -0.0513 -0.0216  0.2571
  615MOL0     O84735   7.859   7.664   4.136  0.1834 -0.5236  0.5660
  615MOL0     C84736   7.805   7.675   4.259 -0.9216 -0.2265  0.2556
  615MOL0     C84737   7.780   7.561   4.325 -0.1178  0.6669 -0.1745
  615MOL0     C84738   7.721   7.559   4.452 -0.4681  0.5271 -0.6388
  615MOL0     C84739   7.678   7.681   4.500 -0.4518  0.8465 -0.0647
  615MOL0     O84740   7.604   7.669   4.614  0.8200 -0.8114 -0.9144
  615MOL0     C84741   7.608   7.783   4.700 -0.1116 -0.4306  0.2566
  615MOL0     C84742   7.589   7.744   4.841 -0.4679  0.6474  0.3233
  615MOL0     C84743   7.691   7.632   4.894  0.4642 -0.3964  0.1542
  615MOL0     C84744   7.729   7.652   5.045  0.0894  0.6101  1.0349
  615MOL0     C84745   7.802   7.534   5.104 -0.2050 -0.0076 -0.4944
  615MOL0     C84746   7.899   7.457   5.002  0.4278 -0.4438 -0.2497
  615MOL0     C84747   8.006   7.538   4.949 -0.2285 -1.0927 -0.4298
  615MOL0     C84748   8.073   7.640   5.030 -0.0758  0.6027 -0.5199
  615MOL0     N84749   8.166   7.583   5.139  0.1925  0.2150  0.0506
  615MOL0     C84750   8.302   7.592   5.149  0.6376 -0.7981  0.4345
  615MOL0     C84751   8.332   7.503   5.249  0.1121  0.0505  0.4221
  615MOL0     C84752   8.467   7.465   5.305  0.4875 -0.6837  0.5425
  615MOL0     C84753   8.528   7.366   5.202 -0.5024 -0.4841 -0.1207
  615MOL0     C84754   8.466   7.222   5.209 -0.0201 -0.1543  0.8387
  615MOL0     C84755   8.546   7.134   5.306 -0.8634 -0.4481  0.8267
  615MOL0     O84756   8.478   7.015   5.352  0.2853  0.2171 -0.2623
  615MOL0     C84757   8.499   6.892   5.291  0.8720  0.0238 -0.1918
  615MOL0     C84758   8.628   6.842   5.286 -0.1036 -0.3148 -0.4167
  615MOL0     C84759   8.662   6.728   5.209  0.3556 -0.3205  0.1192
  615MOL0     C84760   8.813   6.680   5.203 -0.6578  0.1551  0.8232
  615MOL0     C84761   8.550   6.654   5.148  1.0403  0.4236  0.2387
  615MOL0     C84762   8.564   6.522   5.079 -0.2703  0.7159  0.5011
  615MOL0     O84763   8.447   6.443   5.065 -0.2318  0.1208 -0.6316
  615MOL0     C84764   8.476   6.320   5.014 -0.6406 -0.5291  0.7792
  615MOL0     C84765   8.482   6.212   5.104  0.2899  0.4909  0.3137
  615MOL0     C84766   8.511   6.080   5.061 -0.2911  0.6521 -0.0377
  615MOL0     C84767   8.536   6.052   4.921 -0.0264 -0.2785  0.1071
  615MOL0     O84768   8.551   5.932   4.858 -0.3147 -0.1921  0.0845
  615MOL0     C84769   8.592   5.816   4.925  0.1348 -0.1837 -0.6400
  615MOL0     C84770   8.729   5.778   4.861 -0.5881  0.5924 -0.3497
  615MOL0     C84771   8.779   5.638   4.900  0.3641  0.1424 -0.3845
  615MOL0     C84772   8.920   5.617   4.839  0.1946  0.5422 -0.4087
  615MOL0     C84773   8.977   5.479   4.877  0.1726 -0.9445  0.2216
  615MOL0     C84774   9.109   5.499   4.949  0.5041  0.2026  0.5956
  615MOL0     C84775   9.094   5.574   5.081  0.8640 -0.1987 -1.1560
  615MOL0     C84776   9.224   5.556   5.164  0.5218 -0.3895  1.0746
  615MOL0    Cl84777   9.354   5.667   5.098  0.1805 -0.3448 -0.0482
  615MOL0     C84778   8.530   6.166   4.830  0.7605  0.4326 -0.5262
  615MOL0     C84779   8.496   6.295   4.874  0.2485 -0.0111  0.0265
  615MOL0     O84780   8.675   6.492   5.043 -0.2476 -0.0331 -0.5594
  615MOL0     C84781   8.416   6.693   5.167  0.2631  0.0266 -0.2529
  615MOL0     C84782   8.395   6.817   5.235 -0.6270 -0.0340 -0.3312
  615MOL0     N84783   8.214   7.445   5.289 -0.8460 -0.1353 -0.7685
  615MOL0     N84784   8.116   7.502   5.234  0.2461 -0.1489  0.0252
  615MOL0     C84785   7.690   7.803   4.438 -1.1569  0.0878  0.1663
  615MOL0     C84786   7.765   7.803   4.310 -0.2217  0.1161 -0.1684
  615MOL0     C84787   7.987   7.739   3.948  0.4285  0.8581 -0.6353
  615MOL0     C84788   7.964   7.620   3.865 -0.2716 -0.4949 -0.0778
  615MOL0     C84789   7.996   7.615   3.733  0.0467  0.8335 -0.1251
  615MOL0     C84790   8.017   7.728   3.662 -0.7949 -0.4525 -0.1627
  615MOL0     O84791   8.044   7.712   3.534  0.2017 -1.1862 -0.0426
  615MOL0     C84792   7.998   7.814   3.444 -0.5021 -0.2471 -0.4224
  615MOL0     C84793   7.855   7.780   3.413  0.3387  0.5467  0.3935
  615MOL0     C84794   7.836   7.627   3.379  0.0834  1.2288 -0.3928
  615MOL0     C84795   7.700   7.606   3.318  0.1520  0.2579 -0.5908
  615MOL0     C84796   7.661   7.460   3.309 -0.0560 -0.2967 -0.4396
  615MOL0     C84797   7.621   7.349   3.309 -0.6800  0.3635  0.8740
  615MOL0     C84798   8.036   7.846   3.736 -0.8666 -1.1318  1.2819
  615MOL0     C84799   8.024   7.861   3.874 -0.0956 -0.5178 -0.1322
  615MOL0     C84800   8.045   8.003   3.942 -0.9806 -0.5679 -0.8134
  615MOL0     H84801   7.802   7.470   4.270 -3.1243  1.0123 -2.2150
  615MOL0     H84802   7.707   7.472   4.515  0.5170  1.2346  0.6107
  615MOL0     H84803   7.536   7.861   4.672 -2.6181 -2.8951 -0.5642
  615MOL0     H84804   7.710   7.822   4.691  0.5082 -2.0581 -0.1187
  615MOL0     H84805   7.602   7.832   4.904  4.4199  0.8505 -0.6081
  615MOL0     H84806   7.488   7.704   4.854  0.2810 -0.9827  1.4000
  615MOL0     H84807   7.658   7.530   4.874  1.5471 -0.6681 -0.3167
  615MOL0     H84808   7.782   7.653   4.837  0.1861 -0.3469 -0.2771
  615MOL0     H84809   7.794   7.740   5.051 -0.4327  1.3669 -2.2409
  615MOL0     H84810   7.641   7.674   5.107 -0.6410  2.0630 -0.4373
  615MOL0     H84811   7.723   7.467   5.140  0.0810  0.7721  1.7424
  615MOL0     H84812   7.866   7.568   5.186 -1.0664 -3.2496  1.6993
  615MOL0     H84813   7.939   7.363   5.041 -0.9299 -1.1326 -0.4468
  615MOL0     H84814   7.834   7.421   4.921 -2.0330  1.1455  0.8741
  615MOL0     H84815   7.963   7.596   4.867 -0.1138 -0.3091  0.0553
  615MOL0     H84816   8.088   7.479   4.907  2.1994  2.8389 -1.7376
  615MOL0     H84817   8.139   7.691   4.960  0.9947 -1.2296 -0.9009
  615MOL0     H84818   8.001   7.713   5.068 -0.0620  0.5494 -0.3899
  615MOL0     H84819   8.373   7.643   5.084 -1.8405  3.3263  0.5904
  615MOL0     H84820   8.453   7.419   5.404 -2.3494  2.0391  1.5706
  615MOL0     H84821   8.536   7.550   5.307 -2.0880  2.0150 -4.6932
  615MOL0     H84822   8.512   7.410   5.103  1.5739 -2.2338 -1.3063
  615MOL0     H84823   8.637   7.362   5.199 -0.5064 -0.5467 -0.2011
  615MOL0     H84824   8.363   7.228   5.247  0.2670 -0.6706  1.7409
  615MOL0     H84825   8.453   7.177   5.111 -1.0298  0.0196  0.8768
  615MOL0     H84826   8.640   7.099   5.263  1.2248  3.1154  2.0469
  615MOL0     H84827   8.580   7.197   5.389  1.6349  2.8048 -2.3311
  615MOL0     H84828   8.701   6.896   5.344  1.3199 -2.2697 -0.2990
  615MOL0     H84829   8.824   6.571   5.215  1.3769  0.4034  1.7171
  615MOL0     H84830   8.877   6.735   5.273  0.2169  0.0928  0.0910
  615MOL0     H84831   8.854   6.698   5.103  0.5861 -1.2645  1.0378
  615MOL0     H84832   8.466   6.237   5.209  1.0091 -3.1262  1.4246
  615MOL0     H84833   8.524   6.002   5.136 -0.4219  1.7376  1.1372
  615MOL0     H84834   8.607   5.826   5.033  3.7698 -0.1078 -1.0280
  615MOL0     H84835   8.518   5.739   4.901 -2.3256  2.1199 -0.9949
  615MOL0     H84836   8.715   5.782   4.753 -2.9595 -1.5367 -0.2365
  615MOL0     H84837   8.799   5.857   4.891 -2.5145  1.2931  2.8653
  615MOL0     H84838   8.713   5.557   4.867  0.3003 -0.2480  0.6633
  615MOL0     H84839   8.778   5.626   5.009  1.8792  0.9499 -0.2528
  615MOL0     H84840   8.967   5.709   4.875 -0.3240  2.5390 -4.2953
  615MOL0     H84841   8.923   5.620   4.730  2.7167 -2.0874 -0.5006
  615MOL0     H84842   8.907   5.438   4.951  0.8113 -0.1457  1.2863
  615MOL0     H84843   8.989   5.410   4.793  0.2709  1.2677 -1.6807
  615MOL0     H84844   9.174   5.555   4.881  0.4619  0.8012  1.0440
  615MOL0     H84845   9.161   5.405   4.972  0.8368  0.1468 -0.3332
  615MOL0     H84846   9.009   5.539   5.141 -0.7216  2.9565 -1.3816
  615MOL0     H84847   9.087   5.676   5.043 -2.2435 -0.8564 -2.6699
  615MOL0     H84848   9.264   5.455   5.153  1.8448  0.4054 -2.4091
  615MOL0     H84849   9.208   5.584   5.269 -1.8385 -1.6738  1.1257
  615MOL0     H84850   8.559   6.139   4.729 -3.1081  0.7887 -1.8859
  615MOL0     H84851   8.501   6.375   4.801  0.8898 -0.3579 -0.3230
  615MOL0     H84852   8.337   6.635   5.121 -0.6600  1.3537 -0.4008
  615MOL0     H84853   8.290   6.843   5.239 -0.6045  0.3167 -1.6008
  615MOL0     H84854   7.642   7.886   4.487 -1.0308  0.0234  0.4010
  615MOL0     H84855   7.769   7.891   4.247 -1.7742 -1.0613 -2.0181
  615MOL0     H84856   7.927   7.531   3.914 -1.5415  0.3989  0.6182
  615MOL0     H84857   7.982   7.524   3.675  0.5556  0.2787  0.6048
  615MOL0     H84858   7.989   7.911   3.494  1.3603  0.2845 -1.0472
  615MOL0     H84859   8.063   7.821   3.357  0.5869  0.2379  0.4148
  615MOL0     H84860   7.814   7.839   3.330  1.5277  0.7198 -0.0948
  615MOL0     H84861   7.791   7.802   3.499 -1.0390 -0.5322 -0.3225
  615MOL0     H84862   7.910   7.585   3.309 -1.4152 -3.4390  0.4233
  615MOL0     H84863   7.851   7.579   3.477  1.7651  1.5304 -0.4785
  615MOL0     H84864   7.713   7.653   3.220 -0.9961  2.3355  0.1760
  615MOL0     H84865   7.614   7.657   3.364 -2.1357 -2.1583 -1.9105
  615MOL0     H84866   7.586   7.248   3.322 -1.7005  0.4495 -0.8949
  615MOL0     H84867   8.081   7.932   3.687 -1.9369 -1.7456 -0.9632
  615MOL0     H84868   8.148   8.032   3.969 -1.3449  0.1263 -0.1235
  615MOL0     H84869   8.004   8.077   3.873  1.3321  1.8037  0.1601
  615MOL0     H84870   7.983   8.000   4.032 -1.6671  1.5462 -1.1490
  616MOL0     O84871   9.398   2.669   6.331 -0.4440 -0.2944 -0.4623
  616MOL0     C84872   9.322   2.756   6.370  0.3147 -0.2376 -0.1384
  616MOL0     O84873   9.344   2.889   6.363 -0.6978  0.2409 -0.0728
  616MOL0     C84874   9.460   2.951   6.340 -0.0601  0.9950  0.0025
  616MOL0     C84875   9.486   3.057   6.429 -0.2521  0.4743  0.3927
  616MOL0     C84876   9.606   3.130   6.393 -0.3997  0.3095 -0.5710
  616MOL0     C84877   9.694   3.086   6.293 -1.0353  0.5262 -0.4799
  616MOL0     O84878   9.811   3.167   6.280  0.0969 -0.0002  0.3842
  616MOL0     C84879   9.828   3.204   6.149  0.6496 -0.0645 -0.0528
  616MOL0     C84880   9.932   3.315   6.144 -0.3310  0.2139 -0.0142
  616MOL0     C84881  10.060   3.243   6.185 -0.5903 -0.1753 -0.3489
  616MOL0     C84882  10.182   3.330   6.201  0.0223  0.5675 -0.4186
  616MOL0     C84883  10.311   3.264   6.224  0.1855 -0.8330  0.3205
  616MOL0     C84884  10.420   3.374   6.246  0.0486 -0.7628  0.5817
  616MOL0     C84885  10.560   3.327   6.274  0.9826  0.8703  0.1718
  616MOL0     C84886  10.666   3.434   6.266 -0.1380  1.2088 -0.1991
  616MOL0     N84887  10.664   3.528   6.380 -0.2446  0.8162 -0.0214
  616MOL0     C84888  10.574   3.636   6.399  0.4984  0.3993 -0.0516
  616MOL0     C84889  10.606   3.691   6.518  0.4887  0.0774 -0.1821
  616MOL0     C84890  10.546   3.820   6.582 -0.0757 -0.4331  0.4249
  616MOL0     C84891  10.613   3.949   6.557  0.9515 -0.4886  0.1707
  616MOL0     C84892  10.538   4.067   6.620  0.7996 -0.1089  0.3058
  616MOL0     C84893  10.551   4.087   6.770 -0.4427 -0.6493  0.3449
  616MOL0     O84894  10.679   4.153   6.791  0.3625 -0.6792  0.2828
  616MOL0     C84895  10.695   4.290   6.768 -0.5880  0.5396 -0.1806
  616MOL0     C84896  10.821   4.337   6.806 -0.2677  1.1633  0.1465
  616MOL0     C84897  10.873   4.464   6.780 -0.5151  0.8560 -0.1971
  616MOL0     C84898  11.015   4.487   6.823 -0.0287 -0.3398 -0.1478
  616MOL0     C84899  10.791   4.551   6.711 -0.4738  0.5736 -0.2642
  616MOL0     C84900  10.832   4.685   6.682  0.0692 -0.0138  0.4091
  616MOL0     O84901  10.892   4.762   6.776  0.9037 -1.2181 -0.3537
  616MOL0     C84902  10.947   4.883   6.720 -1.1618  0.7496 -0.7084
  616MOL0     C84903  10.880   4.984   6.655 -0.1336 -0.0870  0.1661
  616MOL0     C84904  10.945   5.096   6.607  0.8022  0.1498  1.0508
  616MOL0     C84905  11.083   5.122   6.628 -0.5356  0.6684  0.6169
  616MOL0     O84906  11.168   5.224   6.588  0.3971 -0.2044 -0.9783
  616MOL0     C84907  11.102   5.341   6.536 -0.2930 -1.1097  0.4294
  616MOL0     C84908  11.210   5.431   6.472  0.2277  0.5045 -0.4487
  616MOL0     C84909  11.149   5.530   6.375  0.3633  0.5946  0.2617
  616MOL0     C84910  11.262   5.616   6.313  0.9851 -0.1414  0.1944
  616MOL0     C84911  11.340   5.549   6.208 -0.2046  0.5005  0.7972
  616MOL0     C84912  11.479   5.611   6.189  0.1698 -0.0043 -0.7258
  616MOL0     C84913  11.540   5.549   6.067  0.0665 -0.1242 -0.1070
  616MOL0     C84914  11.661   5.630   6.019  0.4440 -0.0564  0.2521
  616MOL0    Cl84915  11.716   5.569   5.860 -0.2253  0.0673 -0.2054
  616MOL0     C84916  11.148   5.029   6.702  0.2827  0.6478 -0.0574
  616MOL0     C84917  11.081   4.911   6.749  0.1554  0.5801  0.8076
  616MOL0     O84918  10.810   4.713   6.561  0.0584 -0.6508  0.5402
  616MOL0     C84919  10.659   4.509   6.667 -0.6273 -0.1295 -0.0995
  616MOL0     C84920  10.617   4.378   6.700  0.3281 -0.0347  0.2461
  616MOL0     N84921  10.713   3.615   6.565  0.0410 -0.0292  0.4906
  616MOL0     N84922  10.744   3.516   6.488 -0.3655  0.5799  0.0001
  616MOL0     C84923   9.666   2.970   6.212  0.8316 -0.0528 -0.3854
  616MOL0     C84924   9.545   2.911   6.237 -0.3576 -0.6259  0.1344
  616MOL0     C84925   9.196   2.718   6.439 -0.4128 -0.5325 -0.7422
  616MOL0     C84926   9.097   2.814   6.445 -0.7062 -0.1727 -0.2153
  616MOL0     C84927   8.961   2.772   6.472  0.1780  0.4471  0.0159
  616MOL0     C84928   8.932   2.640   6.519  0.1824 -0.6285  0.1821
  616MOL0     O84929   8.806   2.613   6.561  0.1728 -0.4995 -0.1513
  616MOL0     C84930   8.782   2.533   6.679  0.1821 -0.0734 -0.3972
  616MOL0     C84931   8.755   2.385   6.659  1.3439  0.3494  0.2747
  616MOL0     C84932   8.620   2.383   6.579  0.1843 -0.8650 -0.8138
  616MOL0     C84933   8.631   2.326   6.438 -1.3339 -0.2747  1.0498
  616MOL0     C84934   8.522   2.336   6.351  0.5923 -1.1916  0.9956
  616MOL0     C84935   8.424   2.345   6.288 -0.7427 -1.4349  0.0803
  616MOL0     C84936   9.038   2.556   6.526  0.4401  0.2534  0.1968
  616MOL0     C84937   9.165   2.580   6.470 -0.5809 -0.3912 -0.1873
  616MOL0     C84938   9.267   2.465   6.467  0.2893 -0.3836 -1.0333
  616MOL0     H84939   9.418   3.080   6.510  1.3205 -0.3773  2.0107
  616MOL0     H84940   9.625   3.229   6.434 -1.5166  0.0547  0.6292
  616MOL0     H84941   9.744   3.252   6.098  2.7406  2.9408 -0.9749
  616MOL0     H84942   9.848   3.115   6.089 -0.1804  1.1649 -2.2796
  616MOL0     H84943   9.924   3.365   6.047 -5.0213  1.0374  0.5599
  616MOL0     H84944   9.902   3.397   6.209 -0.5175  3.4603 -3.8153
  616MOL0     H84945  10.045   3.190   6.279 -0.7145 -0.9117 -0.7736
  616MOL0     H84946  10.098   3.160   6.124  1.1275 -1.3302  2.1165
  616MOL0     H84947  10.180   3.404   6.120  0.6572  2.0746  0.8743
  616MOL0     H84948  10.168   3.387   6.294 -0.8652 -2.6045  1.5489
  616MOL0     H84949  10.356   3.208   6.142  2.6578  3.0232 -1.2007
  616MOL0     H84950  10.297   3.196   6.308 -2.4267 -1.2798 -0.3577
  616MOL0     H84951  10.428   3.423   6.149 -0.7185 -3.9787 -1.2610
  616MOL0     H84952  10.389   3.449   6.319  2.2407  3.9880 -2.8756
  616MOL0     H84953  10.585   3.243   6.208  1.2976  4.1373 -4.3699
  616MOL0     H84954  10.560   3.291   6.377 -2.2252 -1.8621 -0.6020
  616MOL0     H84955  10.762   3.382   6.270 -1.3817 -1.1285  1.7042
  616MOL0     H84956  10.655   3.487   6.171  1.2627  2.7360  0.4313
  616MOL0     H84957  10.488   3.665   6.339  0.3251 -1.4355 -0.7612
  616MOL0     H84958  10.554   3.815   6.691  1.6340  2.1838  0.5045
  616MOL0     H84959  10.441   3.820   6.550 -0.1757 -1.8120  0.7088
  616MOL0     H84960  10.717   3.946   6.590  0.4150 -5.2001  2.2335
  616MOL0     H84961  10.604   3.956   6.448 -1.5928 -0.4156  0.3418
  616MOL0     H84962  10.576   4.153   6.565 -1.8053  0.3188 -0.9996
  616MOL0     H84963  10.432   4.061   6.592  0.8385  2.2962 -0.5571
  616MOL0     H84964  10.471   4.149   6.812 -0.0412 -0.5187  0.9315
  616MOL0     H84965  10.540   3.987   6.813 -0.9208 -0.1060  1.5247
  616MOL0     H84966  10.885   4.263   6.852 -1.2414  0.2124  0.0208
  616MOL0     H84967  11.033   4.562   6.900  1.9586 -1.9035  1.0190
  616MOL0     H84968  11.071   4.530   6.740  2.9995  0.3294  2.0651
  616MOL0     H84969  11.063   4.392   6.849 -0.2203 -0.9639 -1.8986
  616MOL0     H84970  10.772   4.981   6.649 -0.1848  0.6751  0.4974
  616MOL0     H84971  10.871   5.166   6.569  0.2514 -1.2822 -0.6539
  616MOL0     H84972  11.025   5.316   6.463 -2.0034  3.2655  0.4131
  616MOL0     H84973  11.057   5.391   6.622  0.6302  0.4833  0.0307
  616MOL0     H84974  11.256   5.490   6.552 -0.9363  0.0622  0.5661
  616MOL0     H84975  11.278   5.371   6.411 -1.2067 -0.3905 -1.2079
  616MOL0     H84976  11.077   5.594   6.427 -1.4448  0.9297 -2.4545
  616MOL0     H84977  11.098   5.476   6.295  3.5347 -1.6822 -0.4426
  616MOL0     H84978  11.323   5.649   6.398 -0.6487 -1.7339  2.0732
  616MOL0     H84979  11.211   5.703   6.269 -0.8043 -1.3995 -0.3308
  616MOL0     H84980  11.347   5.441   6.228  1.0693  0.6829  1.5041
  616MOL0     H84981  11.284   5.565   6.116 -1.1031  0.2242  1.2894
  616MOL0     H84982  11.543   5.577   6.271  1.5083  1.6875 -0.9999
  616MOL0     H84983  11.480   5.720   6.197 -0.6079 -0.0647  0.4156
  616MOL0     H84984  11.473   5.545   5.980 -0.0573  0.3497 -0.0406
  616MOL0     H84985  11.584   5.453   6.093  2.7735  1.2987  0.9425
  616MOL0     H84986  11.740   5.631   6.094 -1.3976 -0.0948  2.2866
  616MOL0     H84987  11.629   5.734   6.015  1.5304  0.2802 -0.0230
  616MOL0     H84988  11.254   5.030   6.723  0.5797 -4.0698 -0.2443
  616MOL0     H84989  11.136   4.843   6.814  0.8074  1.6814  1.4452
  616MOL0     H84990  10.605   4.581   6.607 -1.0212 -0.1835  0.1903
  616MOL0     H84991  10.530   4.334   6.652  2.3909 -2.1195 -1.7932
  616MOL0     H84992   9.729   2.942   6.128  1.2232 -0.0202 -0.1070
  616MOL0     H84993   9.525   2.833   6.164  3.4648 -2.0288  0.3459
  616MOL0     H84994   9.116   2.919   6.427  2.3520 -0.8452 -1.5555
  616MOL0     H84995   8.876   2.839   6.485  0.4768  0.4786  2.2942
  616MOL0     H84996   8.860   2.536   6.756 -1.4285  1.1195  1.2613
  616MOL0     H84997   8.690   2.575   6.722  2.1912  0.6937  3.6226
  616MOL0     H84998   8.744   2.348   6.761 -1.5330  3.1771  1.1840
  616MOL0     H84999   8.825   2.325   6.600 -0.0518  2.4471 -3.9328
  616MOL0     H85000   8.537   2.335   6.630 -0.2484 -1.3198 -1.8979
  616MOL0     H85001   8.581   2.484   6.563  1.2522 -0.4732 -1.0457
  616MOL0     H85002   8.650   2.219   6.447  3.1158  0.1891 -0.6747
  616MOL0     H85003   8.723   2.369   6.397 -0.0665 -2.1088  1.8710
  616MOL0     H85004   8.332   2.355   6.235  0.9002 -0.4756 -2.7986
  616MOL0     H85005   9.019   2.455   6.562 -1.3980  1.0504  1.5805
  616MOL0     H85006   9.217   2.396   6.535 -0.2369  0.9244 -0.0455
  616MOL0     H85007   9.266   2.407   6.374 -1.9710  0.8870 -1.8866
  616MOL0     H85008   9.367   2.488   6.504 -0.1823 -0.6652  0.4649
  617MOL0     O85009   5.822   0.255   4.235  0.1311  1.1196 -0.6012
  617MOL0     C85010   5.714   0.285   4.293  0.6015 -0.0536  0.9344
  617MOL0     O85011   5.595   0.233   4.261 -0.0398 -0.0983 -0.9289
  617MOL0     C85012   5.554   0.183   4.140 -0.2818  0.0118 -1.0708
  617MOL0     C85013   5.627   0.175   4.022  0.8594 -0.4315  0.7995
  617MOL0     C85014   5.567   0.102   3.912  0.1311 -0.0052 -0.4004
  617MOL0     C85015   5.448   0.032   3.922  0.1354  0.0400  0.3700
  617MOL0     O85016   5.378  -0.018   3.817 -0.0003 -0.1929  0.0646
  617MOL0     C85017   5.449  -0.065   3.696  0.9997 -0.4675 -0.0716
  617MOL0     C85018   5.345  -0.134   3.606  0.3442  0.0277  0.2941
  617MOL0     C85019   5.301  -0.279   3.654  0.0636 -0.0718 -0.4091
  617MOL0     C85020   5.222  -0.359   3.541 -0.4745 -0.2759  0.6122
  617MOL0     C85021   5.210  -0.507   3.559  0.3512 -0.5484  0.5563
  617MOL0     C85022   5.087  -0.570   3.487  0.9844  0.7274 -0.4903
  617MOL0     C85023   5.119  -0.717   3.460 -0.4133  0.0603 -0.5430
  617MOL0     C85024   4.999  -0.797   3.396  0.2788 -0.3427  0.0382
  617MOL0     N85025   5.052  -0.929   3.386 -0.0509  0.3654 -0.4804
  617MOL0     C85026   5.085  -1.014   3.489  0.0047  0.3445  1.0265
  617MOL0     C85027   5.122  -1.127   3.430 -0.4870  0.1953 -0.4085
  617MOL0     C85028   5.171  -1.246   3.506 -0.5169  0.0182  0.5814
  617MOL0     C85029   5.225  -1.232   3.644  0.5138  0.0814 -1.1022
  617MOL0     C85030   5.309  -1.346   3.689  0.6723  0.0997  0.0753
  617MOL0     C85031   5.241  -1.485   3.691 -0.6587 -0.1045 -0.2560
  617MOL0     O85032   5.181  -1.530   3.820  0.0571 -0.6773  0.8662
  617MOL0     C85033   5.059  -1.587   3.802  0.6165 -0.0711 -0.5737
  617MOL0     C85034   5.042  -1.724   3.786 -0.5243 -0.8939 -0.0762
  617MOL0     C85035   4.921  -1.788   3.790  1.0332  0.4007  0.7813
  617MOL0     C85036   4.900  -1.926   3.738  0.4003  0.2154  0.3719
  617MOL0     C85037   4.807  -1.713   3.819 -0.1591 -0.6183 -0.2762
  617MOL0     C85038   4.670  -1.773   3.841 -0.4432 -1.2278 -0.8868
  617MOL0     O85039   4.677  -1.881   3.927  0.7917 -0.4131 -0.4213
  617MOL0     C85040   4.548  -1.933   3.954 -0.8050 -0.0930  0.0366
  617MOL0     C85041   4.496  -2.043   3.890  0.4112  0.0409 -0.1412
  617MOL0     C85042   4.374  -2.093   3.916 -0.5899  0.3594 -0.2597
  617MOL0     C85043   4.295  -2.025   4.014  0.3104 -0.0855  0.5722
  617MOL0     O85044   4.177  -2.084   4.050  0.4327 -0.3764  0.1039
  617MOL0     C85045   4.111  -2.179   3.962 -1.1364 -0.3609 -0.3150
  617MOL0     C85046   3.981  -2.224   4.034 -0.4448  0.1341  0.1190
  617MOL0     C85047   3.891  -2.298   3.937  0.2328  0.4715  0.2014
  617MOL0     C85048   3.747  -2.318   4.005 -0.2596 -0.4646 -0.0662
  617MOL0     C85049   3.752  -2.438   4.109 -0.2174 -0.3621 -0.2179
  617MOL0     C85050   3.609  -2.479   4.143 -0.1732  0.0867  0.0432
  617MOL0     C85051   3.584  -2.556   4.276 -0.1068  0.2502 -0.4190
  617MOL0     C85052   3.603  -2.476   4.400  0.4037  0.8124  0.1740
  617MOL0    Cl85053   3.499  -2.340   4.410  0.0355  0.1394 -0.1575
  617MOL0     C85054   4.343  -1.910   4.072 -0.4943  0.1615 -0.1559
  617MOL0     C85055   4.469  -1.868   4.046 -0.3944 -0.7156 -1.2227
  617MOL0     O85056   4.563  -1.715   3.800 -0.1854  0.3954  0.2865
  617MOL0     C85057   4.820  -1.578   3.831 -0.1593 -0.4892 -0.8099
  617MOL0     C85058   4.943  -1.509   3.818  0.4719 -0.6422  0.0900
  617MOL0     N85059   5.122  -1.110   3.288  0.9621 -0.2154  0.2295
  617MOL0     N85060   5.077  -0.995   3.267  0.1529 -0.5940  0.1276
  617MOL0     C85061   5.389   0.032   4.047 -0.7181 -0.8858  0.3077
  617MOL0     C85062   5.436   0.103   4.160 -0.6255 -0.2061  0.5004
  617MOL0     C85063   5.720   0.379   4.415  0.4734  0.5684 -0.3341
  617MOL0     C85064   5.600   0.388   4.491 -0.3107  0.3248  0.6227
  617MOL0     C85065   5.594   0.469   4.605  0.1556 -0.9472 -0.2692
  617MOL0     C85066   5.701   0.546   4.648  0.1392 -0.2153 -0.1728
  617MOL0     O85067   5.704   0.629   4.756 -0.0717 -0.0685 -0.2013
  617MOL0     C85068   5.611   0.619   4.861 -0.2157 -0.0947 -0.5323
  617MOL0     C85069   5.642   0.712   4.978 -0.5469  0.2146 -0.1598
  617MOL0     C85070   5.531   0.709   5.083  0.4532  0.7568  0.0097
  617MOL0     C85071   5.530   0.824   5.172 -0.3772  0.6969  0.2603
  617MOL0     C85072   5.649   0.833   5.258 -0.4549  0.3546  0.2569
  617MOL0     C85073   5.747   0.850   5.325  0.0110 -0.1229  0.3178
  617MOL0     C85074   5.816   0.546   4.568  0.5936  0.1114 -0.5264
  617MOL0     C85075   5.824   0.469   4.453 -0.1978 -0.0208  0.4391
  617MOL0     C85076   5.959   0.471   4.377 -0.4163 -0.4180  0.7508
  617MOL0     H85077   5.720   0.230   4.016  0.4216  0.4817  1.9003
  617MOL0     H85078   5.622   0.114   3.819 -0.0206  0.8420 -0.3880
  617MOL0     H85079   5.515  -0.149   3.718  0.8811 -0.5919 -0.1776
  617MOL0     H85080   5.502   0.020   3.653 -0.2201 -0.2969 -1.3147
  617MOL0     H85081   5.256  -0.071   3.596  0.4746  0.1331 -0.2278
  617MOL0     H85082   5.394  -0.136   3.509 -0.2057  0.9761 -0.0133
  617MOL0     H85083   5.384  -0.345   3.682 -1.7290 -2.2945 -0.0185
  617MOL0     H85084   5.249  -0.267   3.749  1.4120 -1.0163  0.4716
  617MOL0     H85085   5.124  -0.318   3.517  0.2580  0.4704 -1.3989
  617MOL0     H85086   5.272  -0.339   3.445  0.8317 -4.0896  0.3582
  617MOL0     H85087   5.193  -0.528   3.665 -2.2210 -1.2631  0.0695
  617MOL0     H85088   5.306  -0.555   3.537  2.2434  1.0948  4.3524
  617MOL0     H85089   4.993  -0.553   3.541  1.4629 -1.7803  1.3420
  617MOL0     H85090   5.082  -0.517   3.392  0.0371  1.8020  0.1356
  617MOL0     H85091   5.164  -0.760   3.550 -1.6711  2.6704  1.4755
  617MOL0     H85092   5.197  -0.722   3.384  0.7021  3.7809  0.1188
  617MOL0     H85093   4.911  -0.805   3.461 -0.5898 -1.5712 -1.2434
  617MOL0     H85094   4.967  -0.752   3.302 -0.3010  0.2456  0.5044
  617MOL0     H85095   5.052  -1.003   3.592  0.7134  0.1313  1.2807
  617MOL0     H85096   5.247  -1.287   3.439 -2.5003 -2.6917 -0.1853
  617MOL0     H85097   5.092  -1.321   3.500  1.2049 -1.7482 -2.3071
  617MOL0     H85098   5.302  -1.155   3.633  2.3871 -1.7456 -1.4245
  617MOL0     H85099   5.149  -1.190   3.709  3.2775  1.9129  1.1730
  617MOL0     H85100   5.393  -1.360   3.621  0.4805  0.2039 -0.1834
  617MOL0     H85101   5.340  -1.326   3.792 -0.4168  0.9003  0.2646
  617MOL0     H85102   5.170  -1.496   3.608  1.4814 -1.7612 -2.0096
  617MOL0     H85103   5.322  -1.555   3.666 -0.5097  0.5497 -1.7077
  617MOL0     H85104   5.137  -1.775   3.771 -0.1307 -0.4582  0.8317
  617MOL0     H85105   4.979  -1.964   3.673 -0.1403 -1.3667  0.6133
  617MOL0     H85106   4.808  -1.956   3.688 -0.3708 -2.3469  3.0509
  617MOL0     H85107   4.907  -1.999   3.819  1.2246 -1.6578 -1.3192
  617MOL0     H85108   4.560  -2.082   3.812  1.2908 -0.7951  0.9616
  617MOL0     H85109   4.342  -2.177   3.856 -3.9149  2.3129 -1.4465
  617MOL0     H85110   4.097  -2.137   3.862 -4.4485 -0.7557 -0.1337
  617MOL0     H85111   4.176  -2.267   3.957 -3.2965 -2.0053 -0.7488
  617MOL0     H85112   4.009  -2.283   4.122 -0.3459 -0.8199 -0.5317
  617MOL0     H85113   3.924  -2.138   4.070 -1.4315  0.1911 -1.4591
  617MOL0     H85114   3.929  -2.400   3.925 -1.9193 -0.2948 -0.6208
  617MOL0     H85115   3.887  -2.241   3.844  0.8613 -1.6510 -1.2134
  617MOL0     H85116   3.664  -2.340   3.937  0.6153 -1.4756 -0.8437
  617MOL0     H85117   3.717  -2.222   4.047  1.6076  1.7549 -3.3573
  617MOL0     H85118   3.803  -2.527   4.070 -0.3604  0.5486 -2.6330
  617MOL0     H85119   3.813  -2.406   4.195  0.2814  0.7189 -0.9494
  617MOL0     H85120   3.566  -2.539   4.062 -1.3170 -1.8572  1.9784
  617MOL0     H85121   3.561  -2.382   4.138  1.9546  1.1454 -1.3001
  617MOL0     H85122   3.639  -2.650   4.266 -1.7993 -1.0852  1.8839
  617MOL0     H85123   3.479  -2.585   4.276 -0.3621  1.1494 -1.3505
  617MOL0     H85124   3.709  -2.450   4.404  0.8104 -0.7693  0.4151
  617MOL0     H85125   3.589  -2.535   4.492  0.0865 -0.1007 -0.4504
  617MOL0     H85126   4.269  -1.862   4.135 -3.9499 -2.2718 -2.0262
  617MOL0     H85127   4.497  -1.771   4.087 -1.3201 -0.1586 -1.8515
  617MOL0     H85128   4.738  -1.509   3.852  0.7975  0.7673 -1.1240
  617MOL0     H85129   4.938  -1.401   3.827 -0.2631 -0.3717 -2.6852
  617MOL0     H85130   5.306  -0.037   4.054 -0.7902 -0.6548  2.8207
  617MOL0     H85131   5.395   0.080   4.258 -0.4112 -0.9262  0.4271
  617MOL0     H85132   5.510   0.346   4.446  0.8831 -1.5527 -0.1284
  617MOL0     H85133   5.495   0.480   4.646 -0.2755 -1.1599 -1.2256
  617MOL0     H85134   5.512   0.649   4.827 -0.5175  2.4060  2.1161
  617MOL0     H85135   5.593   0.517   4.895 -3.0437 -0.2337 -2.1742
  617MOL0     H85136   5.652   0.815   4.942  0.4364  0.1072 -0.2105
  617MOL0     H85137   5.729   0.673   5.031 -1.0541 -1.0313 -0.2008
  617MOL0     H85138   5.432   0.707   5.036 -0.4598 -1.5380  1.8751
  617MOL0     H85139   5.554   0.616   5.134  0.1304  1.1679  0.9246
  617MOL0     H85140   5.451   0.817   5.248 -0.1111 -0.4050  0.4474
  617MOL0     H85141   5.529   0.916   5.112  0.4215  0.3178 -0.3419
  617MOL0     H85142   5.828   0.881   5.388  0.7102 -0.9239 -0.1804
  617MOL0     H85143   5.905   0.600   4.597 -1.5938  2.3534  2.7356
  617MOL0     H85144   6.008   0.374   4.368  0.7583 -0.0788  2.8634
  617MOL0     H85145   5.948   0.497   4.271  1.0187 -1.4780  0.3195
  617MOL0     H85146   6.023   0.550   4.416  0.5050  0.4902 -2.3130
  618MOL0     O85147   6.676   6.827   4.541  0.0096  0.1180 -0.1310
  618MOL0     C85148   6.764   6.778   4.609 -0.2495 -0.5822 -0.0423
  618MOL0     O85149   6.900   6.774   4.570 -0.3088  0.4304  0.0442
  618MOL0     C85150   6.935   6.830   4.452 -0.1075 -0.2244 -0.1883
  618MOL0     C85151   6.945   6.967   4.435  0.2183 -1.7665  1.1133
  618MOL0     C85152   6.992   7.027   4.317 -0.0438  0.7048  0.5234
  618MOL0     C85153   7.009   6.942   4.207 -0.0711 -1.1044 -1.0349
  618MOL0     O85154   7.036   7.003   4.084  0.5792 -0.3982 -0.4071
  618MOL0     C85155   6.914   7.001   4.006  0.4467 -0.5471 -0.4988
  618MOL0     C85156   6.947   7.104   3.892 -0.4379  0.5792 -0.2955
  618MOL0     C85157   6.844   7.119   3.786 -0.1145  0.1818  0.0386
  618MOL0     C85158   6.796   6.991   3.737 -0.1840 -0.0479 -0.1332
  618MOL0     C85159   6.692   7.029   3.637 -0.4861 -0.4564  0.3557
  618MOL0     C85160   6.668   6.914   3.535 -0.0534  0.0021  0.7545
  618MOL0     C85161   6.546   6.922   3.442 -0.4445  0.2394 -0.2050
  618MOL0     C85162   6.551   7.046   3.345 -0.2784  0.0326 -0.4769
  618MOL0     N85163   6.429   7.062   3.267  0.2852  0.5516 -0.5926
  618MOL0     C85164   6.359   7.177   3.263  0.4436 -0.4732  0.9118
  618MOL0     C85165   6.271   7.162   3.163  0.3196  1.5564  0.0473
  618MOL0     C85166   6.177   7.273   3.115  0.3850 -0.1987 -0.3817
  618MOL0     C85167   6.034   7.231   3.124  0.0510 -0.1839 -0.1322
  618MOL0     C85168   5.943   7.355   3.145  0.6750  0.0168 -0.5054
  618MOL0     C85169   5.801   7.343   3.072 -0.1061 -0.2620 -0.2226
  618MOL0     O85170   5.732   7.228   3.127 -1.4600  0.7629  0.1360
  618MOL0     C85171   5.638   7.242   3.237 -0.3083  0.5291 -0.2611
  618MOL0     C85172   5.575   7.121   3.272  0.5537 -0.6868  0.0907
  618MOL0     C85173   5.470   7.128   3.364  0.1419  0.6576  0.2939
  618MOL0     C85174   5.387   7.003   3.381  0.7402  0.0047  0.5334
  618MOL0     C85175   5.447   7.242   3.443  0.4374  0.3030 -0.2308
  618MOL0     C85176   5.349   7.255   3.553 -0.1784 -0.3836 -0.2832
  618MOL0     O85177   5.214   7.216   3.531 -0.1333 -0.1368 -0.0040
  618MOL0     C85178   5.125   7.198   3.633  0.3212 -1.2120  0.4605
  618MOL0     C85179   4.989   7.207   3.595 -0.2970  0.3675 -0.2306
  618MOL0     C85180   4.890   7.190   3.701 -0.3698 -0.1466 -0.0912
  618MOL0     C85181   4.925   7.165   3.837  1.1226  0.5226  0.0413
  618MOL0     O85182   4.824   7.149   3.935 -0.3831 -0.4149  0.1790
  618MOL0     C85183   4.683   7.155   3.900  1.1171 -0.6757 -0.2332
  618MOL0     C85184   4.622   7.031   3.825  0.7833 -0.5892 -0.7878
  618MOL0     C85185   4.676   6.896   3.876 -0.2203  0.8325 -0.2931
  618MOL0     C85186   4.608   6.779   3.814 -0.1904 -0.4615  0.5434
  618MOL0     C85187   4.497   6.739   3.895  0.2223 -0.3492 -0.0922
  618MOL0     C85188   4.434   6.600   3.860 -0.1577 -0.5279 -0.5505
  618MOL0     C85189   4.303   6.578   3.938 -0.0070  0.3312 -0.8584
  618MOL0     C85190   4.279   6.428   3.971  0.1014 -0.3261 -0.6051
  618MOL0    Cl85191   4.263   6.347   3.817  0.4084 -0.2031 -0.1246
  618MOL0     C85192   5.067   7.149   3.870 -0.7453  0.6886 -0.6584
  618MOL0     C85193   5.161   7.172   3.766 -0.7568 -0.8593  0.4054
  618MOL0     O85194   5.379   7.334   3.642  0.7108  0.1644 -0.0328
  618MOL0     C85195   5.523   7.355   3.414  0.7727  0.3169  0.1959
  618MOL0     C85196   5.613   7.353   3.312  0.4997 -0.3473  0.1364
  618MOL0     N85197   6.297   7.037   3.111  0.5206  0.3175 -0.4296
  618MOL0     N85198   6.389   6.971   3.173  0.0835 -0.5222  0.6789
  618MOL0     C85199   6.991   6.804   4.217 -0.4404  0.1818  0.5325
  618MOL0     C85200   6.965   6.743   4.341 -0.7359 -0.3049  0.3122
  618MOL0     C85201   6.726   6.705   4.733 -0.8483 -0.0909 -0.1697
  618MOL0     C85202   6.812   6.613   4.776 -0.5198  0.7456  0.0604
  618MOL0     C85203   6.793   6.534   4.886 -0.2830 -0.9405 -0.8070
  618MOL0     C85204   6.675   6.544   4.956 -0.5982  0.2167  0.9792
  618MOL0     O85205   6.645   6.469   5.067 -0.3209 -0.2072  0.1350
  618MOL0     C85206   6.701   6.338   5.074  0.3910 -0.4418 -0.2450
  618MOL0     C85207   6.638   6.242   4.965 -0.0992  0.5063  0.1980
  618MOL0     C85208   6.502   6.170   5.006 -0.6693  0.2129 -0.0458
  618MOL0     C85209   6.426   6.098   4.881  0.4661  1.5176 -0.4550
  618MOL0     C85210   6.501   5.998   4.806  0.4183 -0.1167  0.4628
  618MOL0     C85211   6.550   5.910   4.735  0.9395  0.1968  0.1575
  618MOL0     C85212   6.577   6.632   4.909 -0.9627 -0.1006 -0.7253
  618MOL0     C85213   6.595   6.711   4.793 -0.4989  0.1974  0.1630
  618MOL0     C85214   6.498   6.834   4.787 -0.2538  0.4679 -1.1862
  618MOL0     H85215   6.932   7.029   4.523  2.0138  0.0984  0.1699
  618MOL0     H85216   7.024   7.130   4.313  1.3031  0.3644  1.5281
  618MOL0     H85217   6.826   7.028   4.064  2.8157  0.7411  2.8275
  618MOL0     H85218   6.902   6.899   3.969  1.2978 -0.7383 -0.2648
  618MOL0     H85219   6.964   7.204   3.934 -2.6185  1.4787 -1.4195
  618MOL0     H85220   7.035   7.071   3.836 -1.0469 -0.6864 -0.5451
  618MOL0     H85221   6.757   7.176   3.821 -2.3352 -3.4389  0.9606
  618MOL0     H85222   6.888   7.180   3.707  0.5293  1.9405  1.6658
  618MOL0     H85223   6.873   6.927   3.692  0.8053  1.1875 -0.2502
  618MOL0     H85224   6.748   6.937   3.819 -2.6567  1.5478 -0.4412
  618MOL0     H85225   6.717   7.120   3.582 -2.4507  0.2185  0.4918
  618MOL0     H85226   6.599   7.050   3.691 -1.3656  0.8845 -1.5765
  618MOL0     H85227   6.756   6.899   3.473  0.9975  1.9276  1.6706
  618MOL0     H85228   6.661   6.823   3.596  2.3562 -0.8160 -0.0758
  618MOL0     H85229   6.452   6.922   3.497  0.0232 -1.4862  0.6886
  618MOL0     H85230   6.547   6.829   3.385 -0.8659 -1.8379  2.9288
  618MOL0     H85231   6.567   7.138   3.403  1.0889 -0.3105 -0.2815
  618MOL0     H85232   6.633   7.022   3.276  0.1390 -0.6000  0.2196
  618MOL0     H85233   6.372   7.271   3.314  2.3878  0.8999 -1.8128
  618MOL0     H85234   6.200   7.301   3.012 -1.0625 -0.4193 -0.7824
  618MOL0     H85235   6.197   7.361   3.177 -0.2451  1.0381 -1.8884
  618MOL0     H85236   6.010   7.188   3.026 -0.4200 -0.3651  0.0626
  618MOL0     H85237   6.024   7.158   3.204  0.9159  4.0860  4.3516
  618MOL0     H85238   5.914   7.371   3.249 -2.0926  2.6222 -1.5269
  618MOL0     H85239   5.983   7.450   3.109  1.3051 -0.4718 -1.1155
  618MOL0     H85240   5.738   7.432   3.076  0.2952 -0.0109  1.0843
  618MOL0     H85241   5.824   7.325   2.967  1.6785 -0.3490  0.1517
  618MOL0     H85242   5.576   7.038   3.202 -0.9011  1.1419 -2.2405
  618MOL0     H85243   5.333   6.981   3.473 -1.2631  0.0176 -0.5953
  618MOL0     H85244   5.456   6.922   3.356  0.5754 -0.6440  2.1050
  618MOL0     H85245   5.322   6.995   3.293  0.8797 -3.0293  0.6019
  618MOL0     H85246   4.963   7.233   3.493 -0.3523  1.9363  0.1559
  618MOL0     H85247   4.791   7.218   3.666  0.0114  2.3805  0.6486
  618MOL0     H85248   4.617   7.164   3.987 -0.4095 -0.2553 -1.3900
  618MOL0     H85249   4.673   7.244   3.838  2.6144 -1.4423 -1.6334
  618MOL0     H85250   4.515   7.035   3.848  0.0112  2.7956 -3.9918
  618MOL0     H85251   4.634   7.041   3.717  0.6641 -1.1274 -0.8524
  618MOL0     H85252   4.679   6.894   3.986 -0.0679  0.2330 -0.3055
  618MOL0     H85253   4.780   6.896   3.842 -1.3259  0.4248 -4.1445
  618MOL0     H85254   4.672   6.690   3.818 -1.2036 -1.2206  0.2839
  618MOL0     H85255   4.577   6.787   3.710  0.4045  0.6669  0.4438
  618MOL0     H85256   4.529   6.740   3.999  0.9910  1.8966 -0.3006
  618MOL0     H85257   4.419   6.812   3.871 -0.6185 -1.5568 -1.1970
  618MOL0     H85258   4.503   6.521   3.892 -1.8014 -2.5078 -1.6517
  618MOL0     H85259   4.414   6.587   3.753  1.3630  1.2450 -1.1069
  618MOL0     H85260   4.218   6.615   3.879 -1.9308  0.5464  1.8987
  618MOL0     H85261   4.291   6.630   4.033 -1.0547 -1.9971  0.3581
  618MOL0     H85262   4.185   6.424   4.026 -0.4444 -0.2041 -1.5098
  618MOL0     H85263   4.364   6.387   4.026 -1.0542 -1.4394  0.4130
  618MOL0     H85264   5.102   7.145   3.972 -0.7274  1.7959 -0.6059
  618MOL0     H85265   5.266   7.172   3.794 -0.3138 -1.5397 -1.1738
  618MOL0     H85266   5.506   7.452   3.459 -1.3262  0.1704 -0.1812
  618MOL0     H85267   5.660   7.444   3.277 -0.6795 -0.3046 -1.4381
  618MOL0     H85268   7.029   6.747   4.132 -2.1914 -2.2332  1.2687
  618MOL0     H85269   6.954   6.639   4.367 -1.7312  0.0574  1.4241
  618MOL0     H85270   6.907   6.599   4.724 -0.1133  0.6637  0.8093
  618MOL0     H85271   6.875   6.476   4.927  0.6045  1.0111  0.3673
  618MOL0     H85272   6.809   6.340   5.057  0.8981  2.9371  2.1621
  618MOL0     H85273   6.674   6.308   5.176  1.3694 -0.0476  0.1444
  618MOL0     H85274   6.725   6.177   4.958 -0.5431 -0.4700  2.8109
  618MOL0     H85275   6.618   6.297   4.872 -3.4416  2.1083  1.6831
  618MOL0     H85276   6.517   6.099   5.088 -1.3016  1.4816  1.2148
  618MOL0     H85277   6.433   6.248   5.039  0.7184  0.2588  3.1364
  618MOL0     H85278   6.413   6.179   4.807 -2.7831  1.5980  0.0615
  618MOL0     H85279   6.326   6.058   4.901  1.5477 -2.0373 -1.4331
  618MOL0     H85280   6.602   5.829   4.688  1.2512 -0.0514  0.9111
  618MOL0     H85281   6.486   6.628   4.968 -1.1644 -2.4696 -1.1082
  618MOL0     H85282   6.550   6.925   4.818  1.5063 -0.6284 -0.7578
  618MOL0     H85283   6.456   6.862   4.690 -1.8452 -1.3261 -1.0956
  618MOL0     H85284   6.412   6.802   4.848  1.5586 -2.4388  0.0649
  619MOL0     O85285   6.440   7.919   2.597  0.0405  0.3964  0.6624
  619MOL0     C85286   6.523   7.953   2.677 -0.3254 -0.2862  0.1185
  619MOL0     O85287   6.666   7.960   2.652  0.6722 -0.7865  0.0274
  619MOL0     C85288   6.688   7.948   2.519  0.4242  0.2129 -0.1428
  619MOL0     C85289   6.630   8.023   2.413  1.2414 -0.4452 -0.3821
  619MOL0     C85290   6.665   8.007   2.275 -0.2766  0.5983  0.6325
  619MOL0     C85291   6.779   7.928   2.243  0.3806  0.2538 -0.0364
  619MOL0     O85292   6.849   7.916   2.126  0.0204 -0.3429  0.3849
  619MOL0     C85293   6.788   7.987   2.008  1.1035 -0.2422 -0.9029
  619MOL0     C85294   6.874   7.944   1.892  0.9316 -0.0341  0.5643
  619MOL0     C85295   6.835   7.812   1.829  0.2966  0.4214 -0.2944
  619MOL0     C85296   6.903   7.800   1.706 -0.1626  0.1256  0.2119
  619MOL0     C85297   6.845   7.693   1.602 -0.3703 -0.3685 -0.4061
  619MOL0     C85298   6.923   7.687   1.466  0.7274  0.9541 -1.2054
  619MOL0     C85299   6.913   7.542   1.409 -0.5963  0.5211 -0.2760
  619MOL0     C85300   6.773   7.525   1.349  0.3540  1.0805 -0.4096
  619MOL0     N85301   6.754   7.386   1.301  0.3502 -0.0300 -0.2924
  619MOL0     C85302   6.827   7.322   1.203  0.1206  0.4006  0.6193
  619MOL0     C85303   6.754   7.215   1.162  0.7844 -0.3553  0.1867
  619MOL0     C85304   6.796   7.129   1.050 -0.4565 -0.0104 -0.8790
  619MOL0     C85305   6.921   7.050   1.087  0.3070 -0.1284 -0.5198
  619MOL0     C85306   6.985   6.981   0.965  0.3849  0.5023  0.7801
  619MOL0     C85307   7.029   7.086   0.865 -0.1449 -0.5517  0.1656
  619MOL0     O85308   7.118   7.045   0.765  0.4464  0.4623  0.6558
  619MOL0     C85309   7.074   6.993   0.641 -0.0517  0.1521 -0.2591
  619MOL0     C85310   7.173   6.991   0.548 -0.0669 -0.3988  0.0112
  619MOL0     C85311   7.143   6.961   0.411 -0.3060  0.1555  0.6406
  619MOL0     C85312   7.260   6.969   0.313 -0.3497  0.6570 -0.2267
  619MOL0     C85313   7.007   6.932   0.371  0.0942  0.7856  0.5203
  619MOL0     C85314   6.961   6.931   0.231 -0.0289  0.2687  0.8143
  619MOL0     O85315   6.844   7.003   0.198 -0.9022  0.3926  0.4700
  619MOL0     C85316   6.811   6.994   0.069 -0.1567 -0.8941  0.3460
  619MOL0     C85317   6.675   6.965   0.038 -0.1475 -0.8088  0.0489
  619MOL0     C85318   6.627   6.948  -0.091 -0.1935 -1.2141 -0.0101
  619MOL0     C85319   6.724   6.960  -0.197  0.0815  0.3040  0.1122
  619MOL0     O85320   6.693   6.928  -0.327 -0.1300  0.1626  0.1156
  619MOL0     C85321   6.723   7.022  -0.429 -0.1976  0.2407 -0.3903
  619MOL0     C85322   6.641   7.149  -0.415 -0.9373  0.8520 -0.1549
  619MOL0     C85323   6.492   7.130  -0.388  0.2690  0.2223 -0.1545
  619MOL0     C85324   6.415   7.269  -0.382  0.9208  0.6757 -0.9952
  619MOL0     C85325   6.277   7.245  -0.448  1.3151  0.5801  0.1430
  619MOL0     C85326   6.188   7.364  -0.432 -0.5099 -0.2098 -0.4486
  619MOL0     C85327   6.226   7.477  -0.526 -0.4043  0.4443 -0.2653
  619MOL0     C85328   6.108   7.571  -0.533 -0.6151  0.4451  0.7960
  619MOL0    Cl85329   6.153   7.731  -0.605  0.1541 -0.1755 -0.0445
  619MOL0     C85330   6.858   6.990  -0.165  0.7998 -0.3490  0.5211
  619MOL0     C85331   6.904   7.010  -0.040  0.4279  0.1017  0.2809
  619MOL0     O85332   7.020   6.846   0.159 -0.6201 -0.0934  0.1590
  619MOL0     C85333   6.912   6.938   0.468 -0.5569  1.5352 -0.8925
  619MOL0     C85334   6.940   6.968   0.600 -0.6499  0.0427 -0.1193
  619MOL0     N85335   6.637   7.223   1.236  0.2875  0.3229  0.0310
  619MOL0     N85336   6.637   7.323   1.318 -0.1971  0.3688 -0.1720
  619MOL0     C85337   6.834   7.852   2.351 -0.1087  0.8384  0.5617
  619MOL0     C85338   6.794   7.865   2.486 -1.0230  1.0382  1.0294
  619MOL0     C85339   6.489   7.992   2.817  0.3399  0.3212 -0.1559
  619MOL0     C85340   6.586   8.004   2.920  0.5511  0.2686  0.3883
  619MOL0     C85341   6.567   8.043   3.055  0.3432  0.9025  0.3551
  619MOL0     C85342   6.436   8.077   3.087 -0.3066 -1.0830  0.1651
  619MOL0     O85343   6.397   8.142   3.203 -0.6087 -0.0823  0.2145
  619MOL0     C85344   6.490   8.231   3.264 -0.3029  0.2167 -0.3134
  619MOL0     C85345   6.424   8.355   3.309  0.0086  0.4582  0.4507
  619MOL0     C85346   6.310   8.334   3.402 -0.0124  0.4263 -0.5712
  619MOL0     C85347   6.261   8.452   3.465  0.2150  0.6553 -0.1519
  619MOL0     C85348   6.155   8.412   3.553 -0.4922 -0.2454  0.4984
  619MOL0     C85349   6.080   8.373   3.630  0.8353 -0.7239 -0.8014
  619MOL0     C85350   6.333   8.062   2.990  0.7768 -0.2871  0.0963
  619MOL0     C85351   6.362   8.018   2.861  0.8972  0.5859  0.3920
  619MOL0     C85352   6.240   8.014   2.772 -0.5911 -0.2182 -0.0793
  619MOL0     H85353   6.550   8.093   2.437  1.7798  1.3028 -3.2037
  619MOL0     H85354   6.618   8.064   2.195  1.0274 -2.6569 -2.7329
  619MOL0     H85355   6.804   8.095   2.016  0.9617 -0.3221  0.7989
  619MOL0     H85356   6.684   7.957   1.996  1.1091 -0.3185 -0.7640
  619MOL0     H85357   6.873   8.019   1.813  3.0322  0.1253  0.6458
  619MOL0     H85358   6.980   7.937   1.918  0.8994  1.0372  1.0631
  619MOL0     H85359   6.864   7.729   1.894 -1.9229 -3.2259 -3.5157
  619MOL0     H85360   6.727   7.799   1.815  0.4522 -1.2229 -0.1989
  619MOL0     H85361   6.892   7.889   1.644  1.3552  0.2818  0.1305
  619MOL0     H85362   7.010   7.775   1.708 -0.5605 -2.3058 -2.5624
  619MOL0     H85363   6.741   7.719   1.578 -0.2399 -0.7570 -1.4335
  619MOL0     H85364   6.838   7.595   1.650 -0.4959 -1.0618 -1.7921
  619MOL0     H85365   6.882   7.757   1.393 -0.6745  0.1063 -1.2707
  619MOL0     H85366   7.027   7.717   1.481 -0.0477  3.9519 -1.1487
  619MOL0     H85367   6.951   7.477   1.488  2.0230  1.2304 -0.8540
  619MOL0     H85368   6.987   7.522   1.331 -0.8959 -2.6609  0.1278
  619MOL0     H85369   6.693   7.540   1.422  0.0652 -0.4709 -0.3704
  619MOL0     H85370   6.760   7.602   1.273 -0.4081 -1.1477 -2.6564
  619MOL0     H85371   6.929   7.348   1.177  0.2852 -1.4778 -0.8212
  619MOL0     H85372   6.806   7.199   0.966 -1.7945 -1.3722 -2.2490
  619MOL0     H85373   6.711   7.068   1.017 -0.4012 -0.8805  0.5275
  619MOL0     H85374   6.994   7.121   1.125 -1.0913  2.8983 -2.9941
  619MOL0     H85375   6.898   6.970   1.158  0.7366  0.0921 -0.1332
  619MOL0     H85376   7.066   6.914   0.993 -0.4570 -0.8235  0.1427
  619MOL0     H85377   6.919   6.902   0.928 -0.1697  1.1527  0.3536
  619MOL0     H85378   6.938   7.126   0.819  0.2700  1.0188  0.6561
  619MOL0     H85379   7.081   7.174   0.905 -2.1352  1.8764 -2.2012
  619MOL0     H85380   7.274   7.025   0.570  0.0684 -1.3155  0.8495
  619MOL0     H85381   7.275   6.863   0.290 -0.5098  0.3518  1.0064
  619MOL0     H85382   7.352   7.008   0.359 -0.8605  0.4682  0.9964
  619MOL0     H85383   7.245   7.023   0.219 -1.4829 -1.4788 -1.3543
  619MOL0     H85384   6.611   6.948   0.124 -0.7826 -1.5568 -0.5550
  619MOL0     H85385   6.527   6.916  -0.115 -1.0924  1.6950 -0.5101
  619MOL0     H85386   6.825   7.062  -0.427 -0.2196  0.3190 -0.8805
  619MOL0     H85387   6.708   6.987  -0.531 -0.5087  1.8619 -0.9188
  619MOL0     H85388   6.690   7.206  -0.335  0.7531  0.4356 -0.8405
  619MOL0     H85389   6.655   7.219  -0.498 -0.3038  1.5137  0.4995
  619MOL0     H85390   6.479   7.086  -0.289  1.0244  1.3766  0.4875
  619MOL0     H85391   6.447   7.069  -0.467 -1.6554  0.8699  0.3937
  619MOL0     H85392   6.473   7.335  -0.446  0.0148 -1.8138 -4.7410
  619MOL0     H85393   6.411   7.311  -0.281 -0.0277 -1.1736 -0.1988
  619MOL0     H85394   6.296   7.228  -0.554 -0.5950  2.1428 -0.5213
  619MOL0     H85395   6.217   7.163  -0.407 -3.2503  3.4030 -0.1023
  619MOL0     H85396   6.218   7.398  -0.333  3.2942 -2.1950 -0.7199
  619MOL0     H85397   6.080   7.346  -0.433 -0.4723 -0.4405 -0.6109
  619MOL0     H85398   6.264   7.430  -0.616 -1.1500 -1.6894  0.4736
  619MOL0     H85399   6.319   7.518  -0.486  0.1066 -0.7907 -0.1337
  619MOL0     H85400   6.092   7.570  -0.425  0.3690 -1.9716  0.9890
  619MOL0     H85401   6.028   7.528  -0.594 -0.9957  2.0214  0.1387
  619MOL0     H85402   6.928   6.999  -0.248 -0.3824  1.0251 -0.3738
  619MOL0     H85403   7.008   7.023  -0.011  0.6066 -2.7600  1.2146
  619MOL0     H85404   6.810   6.948   0.431 -0.2382  2.4285 -1.5501
  619MOL0     H85405   6.866   6.986   0.678 -0.5564  2.0417 -0.4200
  619MOL0     H85406   6.914   7.781   2.332 -1.7830 -0.3681 -2.7138
  619MOL0     H85407   6.847   7.817   2.567  3.1799  0.5643 -1.6752
  619MOL0     H85408   6.693   7.994   2.902  0.6030 -0.6631  1.1478
  619MOL0     H85409   6.657   8.058   3.113  1.6009  0.8128 -1.4740
  619MOL0     H85410   6.519   8.167   3.348 -1.6431  0.8967  0.6966
  619MOL0     H85411   6.569   8.267   3.196 -2.2015  2.1956 -1.5988
  619MOL0     H85412   6.379   8.404   3.222 -0.0828 -3.8816 -2.2202
  619MOL0     H85413   6.501   8.417   3.357  2.0785  1.0966 -3.3319
  619MOL0     H85414   6.234   8.277   3.348 -0.6153  2.1388 -1.5736
  619MOL0     H85415   6.339   8.268   3.485 -2.8964  0.2906  0.4508
  619MOL0     H85416   6.232   8.534   3.398 -1.1665 -1.2544 -2.0147
  619MOL0     H85417   6.341   8.495   3.526 -0.1085 -1.9191  2.2899
  619MOL0     H85418   6.001   8.359   3.702  0.7894  2.1862 -0.1506
  619MOL0     H85419   6.228   8.061   3.016  0.1060 -2.5468 -2.2900
  619MOL0     H85420   6.148   8.048   2.820 -1.4915 -1.4198 -0.9080
  619MOL0     H85421   6.261   8.091   2.697 -0.3145  0.2497  0.4739
  619MOL0     H85422   6.222   7.917   2.724 -0.8739 -1.6502  2.6900
  620MOL0     O85423   4.844  10.735   1.547 -0.1909  1.3377 -0.4971
  620MOL0     C85424   4.792  10.805   1.455 -0.1008  0.3577 -0.3730
  620MOL0     O85425   4.664  10.816   1.414 -0.4077 -0.2217  0.5212
  620MOL0     C85426   4.575  10.743   1.480  0.0829  0.5378 -0.0723
  620MOL0     C85427   4.531  10.789   1.605  1.3927  0.1544 -0.9242
  620MOL0     C85428   4.427  10.717   1.669  0.6621  0.2755  0.3234
  620MOL0     C85429   4.367  10.605   1.608 -0.1976 -0.5394 -0.1749
  620MOL0     O85430   4.277  10.532   1.674 -0.4860  0.3577 -0.1671
  620MOL0     C85431   4.156  10.607   1.693  0.2507 -0.4071 -1.0724
  620MOL0     C85432   4.018  10.542   1.659  0.1059  0.2934 -1.3305
  620MOL0     C85433   3.995  10.513   1.511 -0.6860 -0.5940 -0.9300
  620MOL0     C85434   3.972  10.652   1.453 -0.5407  0.1051  0.0504
  620MOL0     C85435   3.977  10.635   1.298  0.1016 -0.3285 -0.8155
  620MOL0     C85436   3.905  10.765   1.239 -0.4083  0.4016 -0.8396
  620MOL0     C85437   3.942  10.776   1.085  0.4475 -0.6364  0.1033
  620MOL0     C85438   3.836  10.710   1.006  0.0465  0.3551  0.0503
  620MOL0     N85439   3.855  10.705   0.862 -0.4301  0.1768 -0.6233
  620MOL0     C85440   3.950  10.636   0.801 -0.8172  0.4791 -0.5080
  620MOL0     C85441   3.937  10.662   0.673 -0.3871 -0.8706 -0.4133
  620MOL0     C85442   4.017  10.616   0.560  0.0717  0.0422 -0.0048
  620MOL0     C85443   3.993  10.466   0.520 -0.5490  1.0935  0.5665
  620MOL0     C85444   4.028  10.445   0.375  0.4863 -0.1625 -0.3866
  620MOL0     C85445   4.030  10.298   0.339  0.0328  0.5602  0.5228
  620MOL0     O85446   3.929  10.221   0.394 -0.1083 -0.2244 -0.1003
  620MOL0     C85447   3.924  10.086   0.403 -0.0605 -0.1033  0.3954
  620MOL0     C85448   4.033  10.000   0.375  0.3747 -0.4356 -0.1548
  620MOL0     C85449   4.019   9.863   0.400 -0.1286  0.7273 -1.3743
  620MOL0     C85450   4.151   9.786   0.392 -0.6894  0.4214 -0.1190
  620MOL0     C85451   3.893   9.809   0.442 -0.9686  0.6809 -0.2712
  620MOL0     C85452   3.868   9.661   0.465  0.5016  0.5899  0.2031
  620MOL0     O85453   3.958   9.575   0.405  0.3132  0.3535 -0.7518
  620MOL0     C85454   3.952   9.446   0.451  0.3188 -0.7454 -0.7189
  620MOL0     C85455   3.991   9.338   0.370  0.1532 -0.1835 -0.5288
  620MOL0     C85456   3.999   9.206   0.414 -0.6698  0.1451 -0.0524
  620MOL0     C85457   3.949   9.178   0.535 -0.4077 -0.1956  0.0560
  620MOL0     O85458   3.955   9.046   0.572  0.3689  0.3736 -0.2225
  620MOL0     C85459   3.826   8.984   0.602 -0.1149 -0.2478  0.6536
  620MOL0     C85460   3.853   8.886   0.718 -0.0859  0.1450 -1.1830
  620MOL0     C85461   3.709   8.838   0.773  0.5972 -0.7171  0.5865
  620MOL0     C85462   3.699   8.739   0.890 -0.3395  0.2103 -0.4539
  620MOL0     C85463   3.556   8.705   0.925 -0.3688 -0.1146 -0.3831
  620MOL0     C85464   3.539   8.582   1.014 -0.3124  0.3265 -0.5133
  620MOL0     C85465   3.392   8.545   1.024  0.3428  0.1656  0.4467
  620MOL0     C85466   3.381   8.404   1.075  0.7360  0.3689  1.2978
  620MOL0    Cl85467   3.491   8.346   1.200 -0.3293  0.1483 -0.0846
  620MOL0     C85468   3.900   9.272   0.622 -0.4620 -0.4999 -0.9119
  620MOL0     C85469   3.908   9.407   0.583 -1.2240  0.3940  0.5596
  620MOL0     O85470   3.752   9.628   0.508 -0.4399  0.7049 -0.8025
  620MOL0     C85471   3.783   9.894   0.457  0.0103  0.3126  0.0178
  620MOL0     C85472   3.794  10.034   0.433 -0.0555  0.1028 -0.0757
  620MOL0     N85473   3.837  10.753   0.644  1.2535 -0.0858  0.0527
  620MOL0     N85474   3.784  10.774   0.759 -0.2643  0.5031 -0.5597
  620MOL0     C85475   4.428  10.552   1.494 -0.1627  0.0776  0.9360
  620MOL0     C85476   4.520  10.632   1.419  0.4233 -0.0976  0.3459
  620MOL0     C85477   4.895  10.898   1.402  0.1050  0.4656 -0.5835
  620MOL0     C85478   5.029  10.871   1.419  0.5190  0.4552  0.0649
  620MOL0     C85479   5.125  10.955   1.365 -0.1875 -0.1229  0.3002
  620MOL0     C85480   5.096  11.078   1.293 -0.0248 -0.1194 -0.0208
  620MOL0     O85481   5.183  11.152   1.219 -0.2673  0.0699  0.3232
  620MOL0     C85482   5.313  11.155   1.268 -0.3112 -0.9254 -0.0701
  620MOL0     C85483   5.393  11.147   1.147  0.2096 -0.0635  0.0055
  620MOL0     C85484   5.551  11.138   1.167 -0.3404 -0.6848  0.3952
  620MOL0     C85485   5.618  11.108   1.027 -0.3577  0.6643 -0.1884
  620MOL0     C85486   5.766  11.131   1.021  0.8257 -1.3922 -0.4966
  620MOL0     C85487   5.876  11.168   1.018 -0.2312  0.0785  0.1006
  620MOL0     C85488   4.959  11.106   1.299  1.4360 -0.5018  0.2235
  620MOL0     C85489   4.862  11.024   1.359  0.3060  0.3018 -0.3172
  620MOL0     C85490   4.726  11.071   1.360  0.0601  0.4188 -0.0838
  620MOL0     H85491   4.563  10.876   1.662  0.0647 -0.8843  1.5646
  620MOL0     H85492   4.374  10.742   1.760 -2.2766 -1.4107 -0.7873
  620MOL0     H85493   4.147  10.713   1.666 -3.2041 -0.3654 -0.3037
  620MOL0     H85494   4.152  10.608   1.802 -2.5804  1.4527 -1.0903
  620MOL0     H85495   4.000  10.448   1.710  2.8274  0.0546 -0.6570
  620MOL0     H85496   3.947  10.616   1.698  1.0116  0.4734  0.0416
  620MOL0     H85497   4.082  10.462   1.467 -1.8123 -1.2718 -2.4565
  620MOL0     H85498   3.901  10.458   1.506 -2.2633  1.9074 -0.1353
  620MOL0     H85499   3.877  10.691   1.489 -0.2658 -0.1474  1.0588
  620MOL0     H85500   4.055  10.719   1.475 -1.8262  2.0146 -0.6030
  620MOL0     H85501   3.915  10.548   1.275 -1.8904  1.1812 -1.4447
  620MOL0     H85502   4.081  10.632   1.263  0.2470  1.4254 -0.6303
  620MOL0     H85503   3.797  10.755   1.250 -0.1042 -2.9742  0.3703
  620MOL0     H85504   3.933  10.854   1.297 -0.4034  1.1485 -1.9539
  620MOL0     H85505   4.040  10.729   1.071  1.3385  1.2780 -0.4436
  620MOL0     H85506   3.948  10.880   1.054  0.1334 -1.0940 -1.5634
  620MOL0     H85507   3.822  10.610   1.047  0.0262 -0.1639 -1.1724
  620MOL0     H85508   3.745  10.766   1.026  0.0119 -0.1344  1.3879
  620MOL0     H85509   4.027  10.574   0.846 -0.4054  0.2363 -1.5079
  620MOL0     H85510   4.119  10.620   0.598 -0.0359 -3.4238  1.0325
  620MOL0     H85511   4.015  10.677   0.469 -0.3452 -0.5832 -0.4307
  620MOL0     H85512   4.065  10.406   0.576 -1.0381  0.0401  0.0864
  620MOL0     H85513   3.891  10.428   0.527  0.4437 -1.7873  0.8785
  620MOL0     H85514   3.958  10.505   0.317 -0.8857  0.0122  1.3767
  620MOL0     H85515   4.132  10.477   0.361  0.7828 -1.4723 -1.4516
  620MOL0     H85516   4.031  10.286   0.230  0.8597 -2.5240  0.7796
  620MOL0     H85517   4.125  10.270   0.385 -0.5362 -4.3741 -0.7487
  620MOL0     H85518   4.126  10.047   0.345  0.9551  0.6824  2.9406
  620MOL0     H85519   4.151   9.689   0.442  0.7288  1.5437  2.2676
  620MOL0     H85520   4.224   9.848   0.446 -0.9825  0.6175  0.0563
  620MOL0     H85521   4.175   9.783   0.286 -0.9713 -0.1657 -0.1661
  620MOL0     H85522   4.024   9.367   0.271 -2.1129  1.2191 -0.9178
  620MOL0     H85523   4.038   9.132   0.345 -0.8751  0.7983 -0.8882
  620MOL0     H85524   3.755   9.056   0.643  2.3485  1.2427  2.6302
  620MOL0     H85525   3.780   8.936   0.515 -3.5791 -3.1454  3.7406
  620MOL0     H85526   3.918   8.803   0.689  2.0025  2.1533 -2.5340
  620MOL0     H85527   3.899   8.952   0.792 -0.3607 -0.9929  0.0591
  620MOL0     H85528   3.651   8.805   0.686 -0.2105 -1.4415  1.3918
  620MOL0     H85529   3.667   8.930   0.814  0.9321 -0.4294  0.3031
  620MOL0     H85530   3.730   8.789   0.983 -3.0861  2.1503 -0.4391
  620MOL0     H85531   3.757   8.652   0.860 -0.6885 -0.0713 -0.3139
  620MOL0     H85532   3.518   8.791   0.981  1.0307  0.3882 -0.1802
  620MOL0     H85533   3.496   8.713   0.834  1.6336  2.4932 -1.6084
  620MOL0     H85534   3.581   8.602   1.113 -1.7319  0.0669  0.1551
  620MOL0     H85535   3.596   8.503   0.964 -0.5734  0.4575 -1.0164
  620MOL0     H85536   3.342   8.554   0.928 -3.4356  1.5560  2.3212
  620MOL0     H85537   3.341   8.611   1.094 -1.1481  0.6785 -1.0734
  620MOL0     H85538   3.385   8.345   0.983 -0.3382 -0.1089  1.5462
  620MOL0     H85539   3.282   8.388   1.117  0.8108 -1.2471  0.9172
  620MOL0     H85540   3.857   9.237   0.715  0.3183 -0.6458 -0.5950
  620MOL0     H85541   3.875   9.475   0.662  0.1454 -2.1609  3.5412
  620MOL0     H85542   3.679   9.866   0.476  0.6817 -1.8933  0.8651
  620MOL0     H85543   3.709  10.099   0.450  0.3493  0.9876 -1.2761
  620MOL0     H85544   4.388  10.459   1.454  0.5283 -0.1179  0.6939
  620MOL0     H85545   4.576  10.599   1.332 -0.8954 -1.0351 -0.1685
  620MOL0     H85546   5.061  10.771   1.448  0.3352  0.0885 -0.9428
  620MOL0     H85547   5.227  10.921   1.376 -0.2423 -0.7319 -0.9093
  620MOL0     H85548   5.332  11.251   1.316  0.5380  0.3688 -2.7849
  620MOL0     H85549   5.332  11.073   1.337  0.1146 -0.9118 -0.1667
  620MOL0     H85550   5.380  11.238   1.088  1.4563  0.5744  0.6824
  620MOL0     H85551   5.370  11.055   1.093  0.5282  0.6817 -1.4504
  620MOL0     H85552   5.585  11.237   1.198 -0.6915  0.2427 -1.9712
  620MOL0     H85553   5.576  11.067   1.246  0.2472  1.2319  2.0232
  620MOL0     H85554   5.568  11.167   0.950 -0.5027 -0.4439 -0.9505
  620MOL0     H85555   5.585  11.007   1.003  1.4964 -0.9085  3.0792
  620MOL0     H85556   5.975  11.208   1.001 -0.2518  0.3980  0.7163
  620MOL0     H85557   4.929  11.199   1.252 -0.1581 -1.1852 -0.2013
  620MOL0     H85558   4.677  11.030   1.271 -0.6456  0.8680  0.0860
  620MOL0     H85559   4.665  11.056   1.450  1.8972  0.7929  1.2779
  620MOL0     H85560   4.724  11.178   1.337 -0.6732 -0.5256 -6.2939
  621MOL0     O85561   4.321   4.631  11.389  0.3384 -0.1564 -1.0422
  621MOL0     C85562   4.249   4.721  11.352 -0.5901  0.2872  1.4494
  621MOL0     O85563   4.290   4.834  11.290 -0.0970  0.4011  0.5640
  621MOL0     C85564   4.426   4.867  11.303 -0.9836 -0.3265  0.0550
  621MOL0     C85565   4.507   4.830  11.196 -0.0454 -0.5536 -0.5797
  621MOL0     C85566   4.650   4.849  11.190  0.0110  0.5893 -0.6373
  621MOL0     C85567   4.701   4.911  11.307  0.6339 -0.5993 -1.2979
  621MOL0     O85568   4.832   4.937  11.333 -0.7776 -0.5391 -0.4805
  621MOL0     C85569   4.923   4.907  11.226  0.6177 -0.1126 -0.0645
  621MOL0     C85570   4.998   4.777  11.254 -0.4733 -0.2711  0.3251
  621MOL0     C85571   5.122   4.766  11.176 -0.4121 -0.5151  0.0068
  621MOL0     C85572   5.095   4.719  11.030  0.2726 -0.3586  0.5926
  621MOL0     C85573   5.170   4.767  10.910  0.9952 -0.2953  0.6099
  621MOL0     C85574   5.315   4.749  10.912 -0.6232 -0.0489  0.2943
  621MOL0     C85575   5.387   4.788  10.779  0.3769 -0.1415 -0.4382
  621MOL0     C85576   5.533   4.751  10.761  0.2179 -0.7197  0.3246
  621MOL0     N85577   5.609   4.804  10.871  0.9316  0.1453 -0.8240
  621MOL0     C85578   5.617   4.734  10.992 -0.3394 -0.3487 -0.2536
  621MOL0     C85579   5.720   4.801  11.058 -0.8046 -0.1750  0.9618
  621MOL0     C85580   5.786   4.754  11.188  0.0462  0.6813  0.5174
  621MOL0     C85581   5.693   4.811  11.299 -0.4512  0.0082 -0.8841
  621MOL0     C85582   5.736   4.766  11.431  0.1194  0.7974  0.6198
  621MOL0     C85583   5.642   4.821  11.542 -0.2681  0.0043  0.3869
  621MOL0     O85584   5.695   4.953  11.587  0.6712  0.1104 -0.1645
  621MOL0     C85585   5.608   5.016  11.664 -0.7145  0.0040 -0.8596
  621MOL0     C85586   5.588   5.152  11.637  0.1577  0.7136 -0.6388
  621MOL0     C85587   5.504   5.235  11.710  0.9477  0.1459  0.0429
  621MOL0     C85588   5.474   5.375  11.661 -0.6767 -0.2756 -0.2355
  621MOL0     C85589   5.439   5.184  11.827 -0.8546  0.2882  0.6980
  621MOL0     C85590   5.353   5.258  11.909 -0.0449 -0.2388 -1.0901
  621MOL0     O85591   5.245   5.194  11.969 -0.6206 -0.0781 -0.3393
  621MOL0     C85592   5.160   5.268  12.045 -0.3084 -0.3192 -0.0987
  621MOL0     C85593   5.192   5.337  12.173 -0.2587  0.4327  0.1909
  621MOL0     C85594   5.088   5.381  12.246  1.9360  0.4680 -0.3580
  621MOL0     C85595   4.952   5.363  12.202 -0.3049 -0.2054 -0.3147
  621MOL0     O85596   4.849   5.403  12.286 -0.4418  0.4354 -0.5361
  621MOL0     C85597   4.713   5.434  12.242  0.9260 -0.0873  0.3470
  621MOL0     C85598   4.628   5.497  12.363 -0.3904 -0.0223  1.3134
  621MOL0     C85599   4.620   5.407  12.490  0.3023  0.0034  0.6121
  621MOL0     C85600   4.602   5.503  12.607  1.1024  0.4405 -0.3393
  621MOL0     C85601   4.560   5.418  12.738  0.3216  0.0647  0.2055
  621MOL0     C85602   4.440   5.318  12.744  0.4241 -0.4588 -0.0770
  621MOL0     C85603   4.308   5.387  12.707 -0.2435  0.2226 -0.6954
  621MOL0     C85604   4.259   5.483  12.818 -0.0647 -0.2397 -0.1377
  621MOL0    Cl85605   4.243   5.393  12.980 -0.1318 -0.1890  0.2628
  621MOL0     C85606   4.929   5.315  12.071  0.1708  0.5262 -0.4027
  621MOL0     C85607   5.034   5.255  12.005 -1.4663 -0.2890 -0.2809
  621MOL0     O85608   5.371   5.382  11.914  0.3112 -0.0146  0.2295
  621MOL0     C85609   5.459   5.043  11.846  0.1942 -0.0303 -0.0407
  621MOL0     C85610   5.539   4.958  11.770 -0.1693 -0.9375 -0.2842
  621MOL0     N85611   5.755   4.917  10.993  0.0817 -1.6319  0.2761
  621MOL0     N85612   5.690   4.916  10.883  0.3878 -0.3122  0.9864
  621MOL0     C85613   4.616   4.956  11.415 -0.5150 -0.1577  0.1656
  621MOL0     C85614   4.480   4.929  11.419 -0.1503  0.1104 -0.5834
  621MOL0     C85615   4.098   4.703  11.363 -0.4703  1.2858 -0.4500
  621MOL0     C85616   4.013   4.804  11.309  0.0205  0.7434  0.3438
  621MOL0     C85617   3.880   4.792  11.309  0.1813  0.2006 -0.8656
  621MOL0     C85618   3.814   4.690  11.384 -0.4525 -0.2791  0.8576
  621MOL0     O85619   3.680   4.686  11.404  0.2558 -0.0174  0.4359
  621MOL0     C85620   3.593   4.768  11.323 -0.0929  0.1765  0.7681
  621MOL0     C85621   3.446   4.759  11.363  1.0596  0.0370 -0.2908
  621MOL0     C85622   3.406   4.818  11.497  0.0939  0.0841  0.1197
  621MOL0     C85623   3.390   4.969  11.486  0.1802 -0.3818 -0.1261
  621MOL0     C85624   3.324   5.017  11.614 -0.6330 -0.8587 -0.5204
  621MOL0     C85625   3.278   5.071  11.717  0.0851  0.2836 -0.3587
  621MOL0     C85626   3.891   4.589  11.436 -0.7253  0.2536  0.2892
  621MOL0     C85627   4.032   4.588  11.420 -0.2132  1.0908 -0.7800
  621MOL0     C85628   4.099   4.474  11.491 -0.0406 -0.2790 -0.0492
  621MOL0     H85629   4.468   4.794  11.101 -0.2023  3.9142 -2.4998
  621MOL0     H85630   4.719   4.826  11.110  2.9042  1.5153  1.4391
  621MOL0     H85631   4.994   4.987  11.252 -1.1306  0.9497  1.6973
  621MOL0     H85632   4.893   4.918  11.122  1.2683 -0.5742 -0.3068
  621MOL0     H85633   5.030   4.786  11.358  2.9048  1.8703 -0.7473
  621MOL0     H85634   4.938   4.688  11.234  1.6396 -1.5604 -0.6234
  621MOL0     H85635   5.161   4.868  11.161  2.6609 -1.4814  0.5827
  621MOL0     H85636   5.196   4.706  11.230  0.9192  0.1290 -1.0163
  621MOL0     H85637   5.117   4.612  11.030  0.1912 -0.4422 -2.2074
  621MOL0     H85638   4.988   4.725  11.008  0.1251  2.3030  1.6806
  621MOL0     H85639   5.131   4.869  10.901 -5.9619 -2.3160  1.5594
  621MOL0     H85640   5.129   4.713  10.824  1.6565  0.0503  0.0640
  621MOL0     H85641   5.347   4.811  10.997 -4.1469  0.1690  1.6681
  621MOL0     H85642   5.343   4.647  10.941 -0.7875  0.4331  2.3411
  621MOL0     H85643   5.382   4.897  10.764 -1.1721  0.7662  4.7179
  621MOL0     H85644   5.337   4.736  10.697 -0.6387 -0.9022  0.6513
  621MOL0     H85645   5.549   4.643  10.755  1.1058 -0.5197 -1.8627
  621MOL0     H85646   5.573   4.795  10.669  2.7083  0.6398  1.9469
  621MOL0     H85647   5.581   4.638  11.027  1.3513 -1.2743 -0.9250
  621MOL0     H85648   5.887   4.797  11.192 -0.1229  1.2282 -0.5077
  621MOL0     H85649   5.782   4.645  11.191  2.3135  0.4748 -1.0290
  621MOL0     H85650   5.690   4.920  11.296  0.7127  0.0567 -3.8072
  621MOL0     H85651   5.595   4.777  11.264  0.7173 -2.3641 -2.0983
  621MOL0     H85652   5.746   4.657  11.430 -0.2240  0.7566 -0.3063
  621MOL0     H85653   5.840   4.785  11.456  1.2788 -5.4402  2.3076
  621MOL0     H85654   5.536   4.822  11.514  0.0875 -0.7339 -1.1416
  621MOL0     H85655   5.654   4.751  11.625  1.2725 -0.9847 -0.6341
  621MOL0     H85656   5.641   5.192  11.551 -1.2342 -0.9156 -2.3518
  621MOL0     H85657   5.365   5.386  11.664 -0.5536  1.3385  3.9168
  621MOL0     H85658   5.519   5.390  11.562  3.4366 -3.9268  0.7997
  621MOL0     H85659   5.518   5.456  11.720  1.0197 -1.5144  0.2487
  621MOL0     H85660   5.294   5.348  12.209 -1.4065 -0.2697  4.2148
  621MOL0     H85661   5.102   5.429  12.343 -0.7617  0.7102  0.0074
  621MOL0     H85662   4.715   5.510  12.163 -0.4881  1.5970  1.8465
  621MOL0     H85663   4.660   5.346  12.205  0.5548 -0.0206  0.7225
  621MOL0     H85664   4.668   5.592  12.399  0.3284 -0.4842  1.7484
  621MOL0     H85665   4.533   5.532  12.321  1.0408  1.0544 -1.2828
  621MOL0     H85666   4.715   5.352  12.500  1.5783  2.3377  2.6342
  621MOL0     H85667   4.538   5.336  12.487 -0.2467  0.5457  2.1140
  621MOL0     H85668   4.514   5.565  12.589  0.8679  0.5835  1.1250
  621MOL0     H85669   4.679   5.579  12.625 -2.2621  4.2499 -0.4995
  621MOL0     H85670   4.642   5.353  12.770  0.8983  0.0977 -1.1579
  621MOL0     H85671   4.534   5.492  12.814 -2.5262  0.8421 -1.3824
  621MOL0     H85672   4.444   5.281  12.847  1.7433 -0.3661 -0.0765
  621MOL0     H85673   4.444   5.229  12.679  0.0947 -0.4150 -0.1624
  621MOL0     H85674   4.237   5.305  12.720  2.3872 -1.9462  0.9983
  621MOL0     H85675   4.302   5.427  12.606 -0.0611 -1.6722 -1.4904
  621MOL0     H85676   4.164   5.535  12.798 -0.0790 -0.3079 -0.2481
  621MOL0     H85677   4.335   5.561  12.826  2.8521 -2.5823 -2.5808
  621MOL0     H85678   4.829   5.301  12.030 -0.4510 -1.1222  1.5041
  621MOL0     H85679   5.007   5.189  11.923 -2.0365  1.4086 -1.5179
  621MOL0     H85680   5.414   5.002  11.935  0.5550  3.7215  2.0585
  621MOL0     H85681   5.557   4.856  11.803  1.8691  0.1251  2.2869
  621MOL0     H85682   4.662   4.994  11.506  1.3846 -0.2446 -0.7054
  621MOL0     H85683   4.412   4.950  11.502 -1.6998  0.3672 -1.8714
  621MOL0     H85684   4.064   4.885  11.258 -0.0695  0.1792 -0.6686
  621MOL0     H85685   3.822   4.861  11.249 -0.1559  0.8231  0.1593
  621MOL0     H85686   3.620   4.874  11.330 -0.0686  0.1112  1.8226
  621MOL0     H85687   3.598   4.728  11.222 -2.0287 -1.2354  1.1895
  621MOL0     H85688   3.420   4.652  11.357  0.7201 -0.0996  2.2042
  621MOL0     H85689   3.374   4.803  11.294 -1.3275 -1.8039  0.8495
  621MOL0     H85690   3.314   4.766  11.527  1.4204 -1.4726  1.7271
  621MOL0     H85691   3.477   4.793  11.576 -0.4451  1.3628  1.0629
  621MOL0     H85692   3.325   4.994  11.402  0.7430  0.1132 -0.4202
  621MOL0     H85693   3.486   5.016  11.465  0.4792 -0.7834  0.3202
  621MOL0     H85694   3.242   5.113  11.808 -0.1638  0.4617 -0.5407
  621MOL0     H85695   3.841   4.509  11.489 -1.0019 -0.6017 -1.2160
  621MOL0     H85696   4.189   4.446  11.436  0.0290  2.5603 -1.5368
  621MOL0     H85697   4.132   4.512  11.588 -2.9202 -1.2314  1.4096
  621MOL0     H85698   4.037   4.386  11.511  2.0781 -1.4278  1.9297
  622MOL0     O85699   7.572   8.467   3.224  0.2087 -0.0652 -0.1177
  622MOL0     C85700   7.574   8.452   3.100  0.2806 -0.6045 -0.3300
  622MOL0     O85701   7.582   8.337   3.031 -0.1894  0.2818 -0.3247
  622MOL0     C85702   7.547   8.222   3.100 -0.6226 -0.0123  1.1398
  622MOL0     C85703   7.411   8.193   3.115 -0.6267 -0.4451 -0.5088
  622MOL0     C85704   7.371   8.077   3.183 -0.6724 -0.9907 -0.5222
  622MOL0     C85705   7.459   7.996   3.239 -0.7560  0.3996 -0.0881
  622MOL0     O85706   7.434   7.877   3.309 -0.1676  0.2553  0.2367
  622MOL0     C85707   7.302   7.864   3.368 -0.2502 -0.5324  0.3016
  622MOL0     C85708   7.319   7.763   3.485 -0.0480 -0.2350  0.1787
  622MOL0     C85709   7.422   7.807   3.578  0.2380  0.0631 -0.0389
  622MOL0     C85710   7.442   7.682   3.667 -0.7619  0.7018 -0.5178
  622MOL0     C85711   7.559   7.693   3.762 -0.4881 -0.0646  0.1180
  622MOL0     C85712   7.581   7.812   3.856 -0.1538 -0.8680 -0.6346
  622MOL0     C85713   7.455   7.841   3.937  0.0661 -0.5268 -0.6412
  622MOL0     C85714   7.413   7.746   4.048  0.5330  0.3434 -1.4841
  622MOL0     N85715   7.315   7.820   4.135  0.6314  0.2153 -0.7649
  622MOL0     C85716   7.342   7.891   4.247  0.8342 -0.7739 -0.3447
  622MOL0     C85717   7.231   7.902   4.317 -0.2306 -0.4946 -0.0068
  622MOL0     C85718   7.211   7.968   4.457 -0.7592  0.0495  0.1164
  622MOL0     C85719   7.213   8.122   4.454  0.5548 -0.5339  0.2114
  622MOL0     C85720   7.181   8.189   4.588 -0.4409 -0.1697 -0.1541
  622MOL0     C85721   7.275   8.145   4.709 -0.0312  0.1012 -0.1181
  622MOL0     O85722   7.411   8.139   4.673  0.0937 -0.3949 -0.2091
  622MOL0     C85723   7.501   8.111   4.773 -0.6080 -0.6851 -0.3082
  622MOL0     C85724   7.631   8.108   4.736  0.2340 -0.1323  1.0484
  622MOL0     C85725   7.733   8.091   4.830 -0.0883  0.1500  0.0817
  622MOL0     C85726   7.874   8.074   4.784  0.2930 -0.2678  0.1732
  622MOL0     C85727   7.697   8.072   4.965 -0.4202 -0.4055 -0.3051
  622MOL0     C85728   7.793   8.052   5.081  0.4889 -0.4042  1.6024
  622MOL0     O85729   7.736   7.981   5.183 -1.3267  0.0131  0.5764
  622MOL0     C85730   7.823   7.931   5.279 -0.2133  0.2228  0.4006
  622MOL0     C85731   7.958   7.889   5.259 -0.2660  0.3861 -0.3217
  622MOL0     C85732   8.042   7.853   5.362  0.2940  0.9520 -0.3640
  622MOL0     C85733   8.006   7.859   5.498 -0.0013  0.4132 -0.1259
  622MOL0     O85734   8.086   7.821   5.612  0.1589 -0.1864  0.1686
  622MOL0     C85735   8.225   7.853   5.600 -0.1215  0.4260  0.2959
  622MOL0     C85736   8.300   7.726   5.544  0.2938  0.6027 -0.8119
  622MOL0     C85737   8.336   7.623   5.650  0.2307  0.4864 -0.0403
  622MOL0     C85738   8.224   7.561   5.737 -0.6450  0.6535  0.5870
  622MOL0     C85739   8.249   7.444   5.833 -0.2744 -0.6077  0.3073
  622MOL0     C85740   8.336   7.323   5.798  0.7342 -0.7520 -0.5624
  622MOL0     C85741   8.371   7.235   5.923  0.4037 -0.2305  0.6730
  622MOL0     C85742   8.466   7.129   5.880 -1.2621  0.7047 -0.6600
  622MOL0    Cl85743   8.402   7.002   5.774  0.3128 -0.0015 -0.0161
  622MOL0     C85744   7.874   7.891   5.520  0.7775  0.3787  0.3498
  622MOL0     C85745   7.777   7.910   5.410 -0.9690 -1.9412 -0.6881
  622MOL0     O85746   7.909   8.095   5.072 -0.9075 -0.1764  0.9473
  622MOL0     C85747   7.560   8.069   5.000 -0.2895  0.1397  0.7808
  622MOL0     C85748   7.457   8.086   4.907 -0.4999  0.1175  0.6045
  622MOL0     N85749   7.133   7.818   4.260 -0.3679 -1.2382  0.6674
  622MOL0     N85750   7.193   7.769   4.154  0.4648  0.1366  0.9861
  622MOL0     C85751   7.594   8.023   3.230  0.3932 -0.0760 -1.4928
  622MOL0     C85752   7.643   8.132   3.153  0.6112 -0.0811 -0.4587
  622MOL0     C85753   7.561   8.577   3.022  0.1274 -0.7793  0.2533
  622MOL0     C85754   7.622   8.692   3.070  0.4802 -0.0652  0.3563
  622MOL0     C85755   7.608   8.820   3.014  1.0759  0.6618 -1.2696
  622MOL0     C85756   7.544   8.822   2.887 -0.6205 -0.8073  0.7863
  622MOL0     O85757   7.561   8.928   2.804  0.2583 -0.2547  0.6263
  622MOL0     C85758   7.567   9.067   2.858 -0.5928  0.9786  0.5325
  622MOL0     C85759   7.563   9.181   2.755 -0.4150  0.3974  0.4592
  622MOL0     C85760   7.519   9.324   2.801  0.0877  0.5276 -0.1211
  622MOL0     C85761   7.524   9.437   2.696 -0.3195  0.7019  0.5718
  622MOL0     C85762   7.450   9.561   2.720  0.3918  0.6310  0.1000
  622MOL0     C85763   7.389   9.665   2.733 -0.2908 -0.1432  0.6691
  622MOL0     C85764   7.482   8.708   2.838 -0.3812  0.1427 -0.2987
  622MOL0     C85765   7.478   8.587   2.910  0.1061  0.1221  1.8805
  622MOL0     C85766   7.387   8.481   2.857  0.1229 -0.0664 -0.3663
  622MOL0     H85767   7.326   8.256   3.088 -1.7214 -1.1758  1.0815
  622MOL0     H85768   7.265   8.060   3.199 -0.4173 -0.7582  1.6146
  622MOL0     H85769   7.237   7.819   3.292  1.3329  0.4624 -1.7489
  622MOL0     H85770   7.267   7.957   3.412  2.0514 -0.3725  2.0044
  622MOL0     H85771   7.218   7.758   3.526 -0.8459  1.7330 -1.3774
  622MOL0     H85772   7.343   7.666   3.440 -1.4516 -1.1879  1.3797
  622MOL0     H85773   7.512   7.839   3.525 -1.2403  0.6850 -2.3216
  622MOL0     H85774   7.382   7.901   3.617  0.4388  0.2172 -0.2030
  622MOL0     H85775   7.364   7.653   3.738  1.8105 -1.8847  1.4958
  622MOL0     H85776   7.455   7.595   3.603  0.6541  0.2541  0.3274
  622MOL0     H85777   7.647   7.700   3.697 -0.1527  0.1611  0.5920
  622MOL0     H85778   7.578   7.599   3.815 -1.9403  1.1457  2.9821
  622MOL0     H85779   7.673   7.800   3.914  1.4964 -0.7460 -3.0734
  622MOL0     H85780   7.597   7.898   3.790 -0.3037 -1.7849 -1.8975
  622MOL0     H85781   7.375   7.843   3.863  1.7360  0.7696 -2.5145
  622MOL0     H85782   7.466   7.944   3.970  1.8088 -0.8253 -0.1750
  622MOL0     H85783   7.383   7.650   4.004  2.1597 -0.9388  0.0518
  622MOL0     H85784   7.499   7.720   4.110  0.2230  0.6059 -0.9411
  622MOL0     H85785   7.436   7.929   4.286 -1.1914  1.0304  3.2977
  622MOL0     H85786   7.288   7.930   4.525 -0.8093 -3.4923 -1.5485
  622MOL0     H85787   7.114   7.935   4.496  0.0358 -1.7433  0.7173
  622MOL0     H85788   7.318   8.140   4.428  0.4646 -0.0560  0.1618
  622MOL0     H85789   7.151   8.171   4.379 -2.9241 -1.4190  2.3057
  622MOL0     H85790   7.204   8.295   4.571 -3.1003  0.7069  1.0941
  622MOL0     H85791   7.072   8.178   4.595 -0.0680 -4.2198  2.1498
  622MOL0     H85792   7.254   8.217   4.789  1.5503 -1.6580  1.9766
  622MOL0     H85793   7.243   8.045   4.741 -1.5345  0.1216 -1.3794
  622MOL0     H85794   7.650   8.117   4.629 -0.6833  1.7179  0.9957
  622MOL0     H85795   7.886   8.064   4.676  0.2023 -0.5463  0.1871
  622MOL0     H85796   7.916   7.979   4.820  4.1487  1.7374  1.4692
  622MOL0     H85797   7.931   8.162   4.816  0.0493  0.2050 -0.6646
  622MOL0     H85798   7.994   7.899   5.157 -0.2326 -0.8885 -0.4473
  622MOL0     H85799   8.137   7.803   5.345 -1.2638 -2.7313  0.7040
  622MOL0     H85800   8.235   7.924   5.516  1.1216 -0.3204 -0.2181
  622MOL0     H85801   8.262   7.893   5.695 -2.1656 -1.1331  1.8333
  622MOL0     H85802   8.241   7.680   5.464  1.1839  1.5002 -2.0255
  622MOL0     H85803   8.389   7.766   5.494  0.9942 -0.1703 -0.2088
  622MOL0     H85804   8.408   7.666   5.720  1.5037 -2.3261  0.5264
  622MOL0     H85805   8.400   7.550   5.601  1.9607 -0.4411  3.2524
  622MOL0     H85806   8.159   7.527   5.656  0.7844  2.0824 -1.2502
  622MOL0     H85807   8.165   7.643   5.780  0.3358  1.9377 -0.4352
  622MOL0     H85808   8.280   7.482   5.930 -1.8382 -1.2003  1.0771
  622MOL0     H85809   8.146   7.415   5.855 -1.1765  1.1420 -1.2985
  622MOL0     H85810   8.433   7.354   5.758  1.6054 -1.3828  0.9744
  622MOL0     H85811   8.283   7.270   5.718 -1.7618  2.6092 -1.3717
  622MOL0     H85812   8.280   7.188   5.960 -0.9668 -0.5381 -2.7782
  622MOL0     H85813   8.426   7.295   5.996  1.5765 -0.0365 -0.3463
  622MOL0     H85814   8.509   7.086   5.971  2.7572  0.8073 -2.2989
  622MOL0     H85815   8.553   7.179   5.837 -2.8350  2.0358 -2.4441
  622MOL0     H85816   7.836   7.887   5.622  0.6557 -1.1810  0.2582
  622MOL0     H85817   7.672   7.923   5.431 -0.8192  0.5055 -1.1915
  622MOL0     H85818   7.527   8.048   5.102  2.2527 -0.4292  1.5591
  622MOL0     H85819   7.354   8.087   4.941 -0.7745  0.1637 -0.2081
  622MOL0     H85820   7.675   7.962   3.267 -0.9163 -1.0345 -0.0633
  622MOL0     H85821   7.748   8.151   3.135  0.9332 -0.9096  0.4571
  622MOL0     H85822   7.681   8.696   3.162 -0.9033 -0.4745  1.2870
  622MOL0     H85823   7.661   8.904   3.058  0.2317 -0.2636  1.7395
  622MOL0     H85824   7.486   9.080   2.930 -1.3370 -0.7472  0.0486
  622MOL0     H85825   7.662   9.072   2.913 -1.8175  1.7824  2.6894
  622MOL0     H85826   7.489   9.152   2.680 -1.2846  1.2863  0.9454
  622MOL0     H85827   7.659   9.188   2.704 -2.1818  0.9355 -3.1259
  622MOL0     H85828   7.413   9.305   2.822  0.1484 -0.7848 -0.8720
  622MOL0     H85829   7.584   9.346   2.886 -1.8467  1.3892  1.1900
  622MOL0     H85830   7.471   9.398   2.608 -1.1981  0.9593  0.9756
  622MOL0     H85831   7.627   9.460   2.667 -0.2130  2.7362  2.3405
  622MOL0     H85832   7.334   9.754   2.752  0.3965  0.0103  2.0390
  622MOL0     H85833   7.429   8.721   2.745  2.3109  2.0252 -1.7368
  622MOL0     H85834   7.311   8.531   2.797 -3.7411 -1.5648  2.8318
  622MOL0     H85835   7.445   8.412   2.795 -1.4484  1.3276 -3.6126
  622MOL0     H85836   7.329   8.421   2.927 -0.7731  1.7699  0.5299
  623MOL0     O85837  11.427   8.986   7.625  0.3039 -0.1335  0.1269
  623MOL0     C85838  11.451   9.062   7.534  0.2860  0.2848  0.5204
  623MOL0     O85839  11.582   9.109   7.507 -0.3481 -0.6067 -0.2054
  623MOL0     C85840  11.685   9.058   7.583 -0.2054 -1.1094 -0.3431
  623MOL0     C85841  11.759   8.957   7.530 -0.8535  0.2637  0.1757
  623MOL0     C85842  11.867   8.911   7.601  0.5973  0.5358 -0.2195
  623MOL0     C85843  11.899   8.968   7.725 -0.7339  0.1994 -0.2156
  623MOL0     O85844  12.008   8.928   7.801 -0.0144 -0.3852  0.2610
  623MOL0     C85845  12.133   8.896   7.733  0.3025  0.0564 -0.0824
  623MOL0     C85846  12.249   8.898   7.836  0.0080  0.0001  0.1481
  623MOL0     C85847  12.379   8.869   7.762 -0.1996  0.1972 -0.0752
  623MOL0     C85848  12.500   8.878   7.852 -0.4882  0.6620 -0.5010
  623MOL0     C85849  12.628   8.916   7.765 -0.5384  0.3298  0.1920
  623MOL0     C85850  12.670   8.803   7.682  0.2490 -0.5006  0.4932
  623MOL0     C85851  12.792   8.833   7.594  0.3419 -0.0859 -0.0543
  623MOL0     C85852  12.929   8.844   7.667 -0.5678  0.4855 -0.4514
  623MOL0     N85853  13.037   8.842   7.564  0.5090 -0.7713  0.1861
  623MOL0     C85854  13.076   8.752   7.468 -0.6706 -0.1029  0.3199
  623MOL0     C85855  13.190   8.801   7.420 -0.5103  0.6661 -0.9778
  623MOL0     C85856  13.280   8.717   7.340 -0.8143  0.3175  0.0664
  623MOL0     C85857  13.404   8.678   7.416 -0.5407  0.3853  0.2177
  623MOL0     C85858  13.383   8.553   7.511  0.1612  0.0095 -0.2263
  623MOL0     C85859  13.519   8.506   7.564 -0.0704  0.2317  0.7721
  623MOL0     O85860  13.596   8.464   7.450 -0.0545  0.8075  0.0230
  623MOL0     C85861  13.733   8.442   7.474 -0.6663  0.5909  0.3335
  623MOL0     C85862  13.819   8.407   7.363  0.1936  0.7061 -0.2817
  623MOL0     C85863  13.950   8.386   7.380 -0.7383 -0.8636 -0.1565
  623MOL0     C85864  14.032   8.371   7.254 -0.7464  0.8286 -0.6255
  623MOL0     C85865  14.009   8.398   7.508 -0.2724  0.3167 -0.3022
  623MOL0     C85866  14.153   8.403   7.519  0.8444 -0.1548  0.6198
  623MOL0     O85867  14.214   8.511   7.576 -0.3637  0.6254  0.0516
  623MOL0     C85868  14.355   8.526   7.566 -1.0391  0.0171  0.2070
  623MOL0     C85869  14.449   8.422   7.586 -0.3945  0.4014 -1.1480
  623MOL0     C85870  14.582   8.449   7.564 -0.1326  0.4635  0.7273
  623MOL0     C85871  14.626   8.582   7.522  0.6155 -0.4161 -0.6243
  623MOL0     O85872  14.742   8.610   7.468  0.1004 -0.1509  0.3022
  623MOL0     C85873  14.802   8.506   7.387 -0.1088 -0.2030 -0.3550
  623MOL0     C85874  14.895   8.419   7.476  0.1650 -0.2697 -0.2664
  623MOL0     C85875  14.921   8.281   7.406 -0.2329 -0.0800 -0.9884
  623MOL0     C85876  15.016   8.302   7.292  0.3939 -0.7013  0.4578
  623MOL0     C85877  15.074   8.175   7.237  0.7807  0.6062  0.2963
  623MOL0     C85878  15.171   8.104   7.329 -0.5513 -0.3387 -0.0467
  623MOL0     C85879  15.250   7.992   7.261  0.3329 -0.2965  0.1279
  623MOL0     C85880  15.326   7.912   7.363 -0.3704  0.4573  0.6785
  623MOL0    Cl85881  15.448   7.848   7.251 -0.5307 -0.1595  0.0678
  623MOL0     C85882  14.528   8.677   7.508  0.2494 -1.2862 -0.1855
  623MOL0     C85883  14.393   8.656   7.531  0.5503  0.9050  0.2483
  623MOL0     O85884  14.219   8.307   7.476  0.1387 -0.8338  0.0965
  623MOL0     C85885  13.929   8.423   7.619 -0.1164 -0.2787  0.0420
  623MOL0     C85886  13.790   8.450   7.601  0.1238  0.0796 -0.0263
  623MOL0     N85887  13.231   8.916   7.495  0.0246 -0.2480 -0.0167
  623MOL0     N85888  13.121   8.947   7.571 -0.6820 -1.3468  0.0973
  623MOL0     C85889  11.809   9.053   7.788 -0.4355  0.7285  0.2320
  623MOL0     C85890  11.704   9.089   7.718  0.7008 -0.1095  0.6257
  623MOL0     C85891  11.347   9.113   7.445  0.5374  0.2840 -0.1416
  623MOL0     C85892  11.356   9.249   7.395 -0.4876  1.7032 -0.0242
  623MOL0     C85893  11.261   9.297   7.305  0.7583  0.0976 -0.3177
  623MOL0     C85894  11.156   9.218   7.250  0.0957 -0.0697  0.2975
  623MOL0     O85895  11.057   9.267   7.169  0.3716 -0.7070 -0.6151
  623MOL0     C85896  11.085   9.315   7.042 -1.0538 -0.6444  0.2444
  623MOL0     C85897  10.955   9.332   6.962  0.6030  0.7338 -0.4336
  623MOL0     C85898  10.894   9.193   6.925 -0.1099 -0.4013 -0.7443
  623MOL0     C85899  10.748   9.202   6.887 -0.1757  0.7862  0.6625
  623MOL0     C85900  10.732   9.280   6.767  0.4189  0.0242 -0.1122
  623MOL0     C85901  10.696   9.340   6.669  0.0837 -0.9164  0.5749
  623MOL0     C85902  11.128   9.101   7.322  0.8327  0.0432 -0.2880
  623MOL0     C85903  11.222   9.046   7.413 -0.7891  0.4910  0.4257
  623MOL0     C85904  11.174   8.920   7.485  0.8569 -0.2529 -0.6455
  623MOL0     H85905  11.739   8.926   7.427 -4.1543  1.8578  0.1896
  623MOL0     H85906  11.917   8.820   7.568  1.4148  1.1842 -0.7972
  623MOL0     H85907  12.147   8.973   7.656 -0.0690  0.9283  0.6996
  623MOL0     H85908  12.124   8.803   7.677 -0.6241 -2.2063  3.5239
  623MOL0     H85909  12.243   8.999   7.879  2.1489  0.1773  0.1337
  623MOL0     H85910  12.219   8.831   7.917 -0.6941 -0.8548 -0.8045
  623MOL0     H85911  12.378   8.776   7.705  0.1673  1.4609 -2.2660
  623MOL0     H85912  12.382   8.944   7.683 -0.8225  0.3240  0.0122
  623MOL0     H85913  12.478   8.964   7.917 -0.4285  1.0485 -0.9850
  623MOL0     H85914  12.520   8.787   7.909 -1.5738  0.8684  0.2395
  623MOL0     H85915  12.713   8.944   7.828  1.7267  1.5528 -3.1103
  623MOL0     H85916  12.609   9.006   7.706 -3.0988  0.3812  0.9623
  623MOL0     H85917  12.693   8.720   7.750 -0.8078 -0.6763  0.6478
  623MOL0     H85918  12.591   8.769   7.615 -1.4304 -0.4424  2.3405
  623MOL0     H85919  12.775   8.920   7.530  0.1361 -1.5151 -2.0170
  623MOL0     H85920  12.797   8.750   7.524  0.6140 -0.4742  0.4180
  623MOL0     H85921  12.942   8.932   7.730  1.7495 -0.0724 -0.0514
  623MOL0     H85922  12.947   8.759   7.734  0.9749 -0.3207 -1.7932
  623MOL0     H85923  13.026   8.669   7.418  2.3127 -1.6779 -0.2946
  623MOL0     H85924  13.310   8.762   7.245  1.4478  0.3919  0.7517
  623MOL0     H85925  13.229   8.624   7.312  0.1067 -0.2099  0.0796
  623MOL0     H85926  13.474   8.647   7.338 -1.5811  0.4282 -0.7652
  623MOL0     H85927  13.448   8.761   7.472 -3.4781  0.0999  3.2577
  623MOL0     H85928  13.318   8.582   7.594 -1.8518 -0.3830 -1.5816
  623MOL0     H85929  13.328   8.478   7.453 -1.2351  0.8571 -0.0493
  623MOL0     H85930  13.562   8.593   7.616  1.0966  1.0615 -1.4525
  623MOL0     H85931  13.521   8.425   7.637  2.1413 -2.0789 -1.6468
  623MOL0     H85932  13.782   8.411   7.261 -0.1864 -1.5109 -0.2661
  623MOL0     H85933  14.116   8.440   7.265 -0.1899  0.2186 -0.9887
  623MOL0     H85934  13.970   8.406   7.172  0.4528  2.6422 -0.8158
  623MOL0     H85935  14.056   8.267   7.230 -1.2045  1.3432 -3.7199
  623MOL0     H85936  14.421   8.320   7.609  0.7347  0.4457  0.5875
  623MOL0     H85937  14.651   8.365   7.568 -1.4921 -0.6864  0.6800
  623MOL0     H85938  14.723   8.445   7.342 -2.0716  1.3803  0.8018
  623MOL0     H85939  14.859   8.556   7.308 -0.2080  1.1398  0.4061
  623MOL0     H85940  14.986   8.479   7.490  0.3152 -0.0068 -2.1592
  623MOL0     H85941  14.853   8.402   7.576  0.2271 -1.9687 -0.5163
  623MOL0     H85942  14.821   8.240   7.385 -0.8921  0.5355  0.7454
  623MOL0     H85943  14.964   8.207   7.475 -1.7165 -1.3115 -1.3233
  623MOL0     H85944  15.094   8.378   7.303 -0.1687 -0.0856  0.2354
  623MOL0     H85945  14.958   8.338   7.207  2.4242 -3.2461 -2.2655
  623MOL0     H85946  14.991   8.106   7.219  3.3870 -2.8393  0.3151
  623MOL0     H85947  15.132   8.193   7.146  0.4603  0.3367  0.0360
  623MOL0     H85948  15.111   8.056   7.406  0.6267 -2.4827 -0.3796
  623MOL0     H85949  15.247   8.177   7.357  2.0572 -1.2021 -3.9624
  623MOL0     H85950  15.313   8.039   7.184 -2.9618  1.0203 -2.0021
  623MOL0     H85951  15.168   7.931   7.224 -1.0476  0.2817  2.1041
  623MOL0     H85952  15.274   7.839   7.425  1.4638 -0.2863  1.4320
  623MOL0     H85953  15.387   7.972   7.430 -1.6543  1.4313  1.0026
  623MOL0     H85954  14.553   8.777   7.476 -3.4675  0.5783  2.0140
  623MOL0     H85955  14.310   8.723   7.513 -1.3692 -0.6678  2.5237
  623MOL0     H85956  13.972   8.423   7.719 -0.8169  0.0111  0.3565
  623MOL0     H85957  13.729   8.468   7.689  0.4269 -1.3249  0.4850
  623MOL0     H85958  11.826   9.099   7.885  0.3464 -0.7208  0.8207
  623MOL0     H85959  11.632   9.159   7.759 -0.3922 -1.6657  1.4459
  623MOL0     H85960  11.439   9.317   7.409  1.0273  0.4422 -2.2967
  623MOL0     H85961  11.278   9.391   7.253 -0.3950  0.3668 -0.2508
  623MOL0     H85962  11.133   9.413   7.035 -1.2526 -0.3873  2.1627
  623MOL0     H85963  11.156   9.246   6.996 -0.2355 -1.0547  2.0498
  623MOL0     H85964  10.980   9.385   6.869  0.2255 -2.5987 -2.6022
  623MOL0     H85965  10.888   9.401   7.015  0.0090 -0.6137  0.6154
  623MOL0     H85966  10.945   9.155   6.836  1.1044 -2.0880  0.6079
  623MOL0     H85967  10.910   9.130   7.014 -0.5438 -1.2814 -1.2711
  623MOL0     H85968  10.691   9.251   6.966 -0.6259  1.1981  0.0991
  623MOL0     H85969  10.708   9.103   6.864  2.0204  0.6477 -3.4958
  623MOL0     H85970  10.660   9.393   6.584 -1.7598  0.8543  2.3487
  623MOL0     H85971  11.032   9.053   7.305  1.2248 -1.5270  1.5538
  623MOL0     H85972  11.252   8.844   7.491  1.3997  0.3565  0.3183
  623MOL0     H85973  11.151   8.952   7.587 -0.5177  0.4699 -1.1628
  623MOL0     H85974  11.078   8.878   7.452  1.6333 -1.7965 -1.0318
  624MOL0     O85975   8.241   4.605   9.670  0.2382 -0.8853  0.2352
  624MOL0     C85976   8.179   4.570   9.572 -0.2574  0.7322 -0.3913
  624MOL0     O85977   8.218   4.568   9.445 -0.1758 -0.5129 -0.5339
  624MOL0     C85978   8.342   4.625   9.417 -0.2698  0.6439  0.4758
  624MOL0     C85979   8.458   4.560   9.457 -0.9497  0.3490  0.7217
  624MOL0     C85980   8.577   4.620   9.421  0.3242 -0.2335 -0.2981
  624MOL0     C85981   8.582   4.734   9.338 -0.1590 -0.3578  0.3632
  624MOL0     O85982   8.698   4.793   9.288 -0.8754 -0.0167 -0.4819
  624MOL0     C85983   8.823   4.720   9.301 -0.0119 -1.1307  1.2964
  624MOL0     C85984   8.943   4.812   9.260  0.1454 -0.1869 -0.3944
  624MOL0     C85985   8.943   4.861   9.111  0.8531  0.7682 -0.0852
  624MOL0     C85986   8.978   4.748   9.010 -0.3720  0.2770  0.2140
  624MOL0     C85987   9.007   4.802   8.874 -0.7083 -0.3721 -0.3700
  624MOL0     C85988   9.028   4.683   8.786 -0.2751 -0.4716 -0.9534
  624MOL0     C85989   9.070   4.724   8.650 -0.0157  1.0051 -0.9111
  624MOL0     C85990   9.145   4.610   8.594  0.2458 -0.0156 -0.2192
  624MOL0     N85991   9.204   4.659   8.468 -0.5536 -0.4242 -0.7989
  624MOL0     C85992   9.290   4.767   8.462  0.2982  0.1962 -0.2363
  624MOL0     C85993   9.335   4.757   8.337  0.2339 -0.4422  0.7624
  624MOL0     C85994   9.424   4.860   8.270  0.4571  0.1228  0.5649
  624MOL0     C85995   9.488   4.818   8.139  0.3320  0.7200  0.3759
  624MOL0     C85996   9.611   4.890   8.125 -0.2759  0.3997  0.1879
  624MOL0     C85997   9.655   4.886   7.974  0.6752 -0.9241  0.5328
  624MOL0     O85998   9.784   4.953   7.956  0.4538 -0.0332  0.7577
  624MOL0     C85999   9.832   4.948   7.824  0.4097 -0.3165 -0.0272
  624MOL0     C86000   9.760   5.008   7.716  0.0265 -0.5764 -0.2111
  624MOL0     C86001   9.817   5.001   7.592  0.2145  0.5767 -0.5875
  624MOL0     C86002   9.743   5.062   7.483  0.4609 -0.0446 -0.3437
  624MOL0     C86003   9.941   4.948   7.563 -0.2815  0.2426  0.2344
  624MOL0     C86004  10.015   4.946   7.428 -0.7633 -0.1412  0.5827
  624MOL0     O86005  10.107   4.839   7.404  0.8001 -0.4846  0.0481
  624MOL0     C86006  10.177   4.869   7.287  0.2045  0.1538  0.1412
  624MOL0     C86007  10.292   4.958   7.298  0.7179  0.5626  0.9389
  624MOL0     C86008  10.341   5.005   7.181 -0.6798 -0.5678  0.8310
  624MOL0     C86009  10.292   4.978   7.056 -0.3689  1.3392  0.1645
  624MOL0     O86010  10.343   5.013   6.937 -0.1049 -0.4971 -0.2323
  624MOL0     C86011  10.465   5.098   6.932 -0.7820  0.4375 -0.0997
  624MOL0     C86012  10.508   5.109   6.782 -0.2694  0.2017 -0.1166
  624MOL0     C86013  10.409   5.179   6.695  0.0573 -0.4263  0.8119
  624MOL0     C86014  10.473   5.202   6.557 -1.0069  0.3684 -0.3256
  624MOL0     C86015  10.405   5.282   6.448  0.3527  0.3122  0.8308
  624MOL0     C86016  10.492   5.301   6.315 -0.7155 -0.4795 -0.2616
  624MOL0     C86017  10.604   5.400   6.336 -0.0313  0.3000  0.7455
  624MOL0     C86018  10.675   5.437   6.204  0.2865  0.2898 -0.4490
  624MOL0    Cl86019  10.771   5.303   6.138  0.2858  0.5631  0.0167
  624MOL0     C86020  10.186   4.896   7.051  0.0959 -0.6010 -1.0515
  624MOL0     C86021  10.128   4.842   7.165  0.5688 -0.3228  0.9152
  624MOL0     O86022   9.997   5.043   7.355  0.5207 -0.0661 -0.8775
  624MOL0     C86023  10.007   4.896   7.673  0.1709 -0.4347  0.1910
  624MOL0     C86024   9.954   4.900   7.801 -1.3322 -0.0117 -0.3270
  624MOL0     N86025   9.275   4.652   8.274  0.6103  0.9556  0.1875
  624MOL0     N86026   9.201   4.589   8.354  0.3455  0.1127  0.0661
  624MOL0     C86027   8.457   4.791   9.293 -0.3083 -0.4028  0.2451
  624MOL0     C86028   8.340   4.733   9.332 -0.6342  0.1800 -1.0222
  624MOL0     C86029   8.051   4.491   9.605  0.0118  0.3049  0.7603
  624MOL0     C86030   8.040   4.359   9.563  0.4025 -0.3249 -0.3311
  624MOL0     C86031   7.924   4.282   9.593  0.0854  0.2679  0.1788
  624MOL0     C86032   7.819   4.342   9.660  0.4530 -0.4371 -0.7156
  624MOL0     O86033   7.700   4.275   9.698 -0.4722  0.3376  0.4516
  624MOL0     C86034   7.633   4.188   9.609 -0.2965 -0.5600  0.0190
  624MOL0     C86035   7.483   4.178   9.640  0.1929 -0.6855  0.1231
  624MOL0     C86036   7.450   4.108   9.769 -0.2080 -0.7296  0.6776
  624MOL0     C86037   7.291   4.108   9.792 -0.8471  0.2159  0.4515
  624MOL0     C86038   7.254   4.089   9.937 -0.4924  0.1174  0.2640
  624MOL0     C86039   7.225   4.071  10.057 -0.2160  0.5906  0.7305
  624MOL0     C86040   7.833   4.472   9.714 -1.0207  0.7759  0.0787
  624MOL0     C86041   7.949   4.555   9.678  0.9600  1.6387 -0.1889
  624MOL0     C86042   7.964   4.692   9.749 -0.0539 -0.2795 -0.2706
  624MOL0     H86043   8.461   4.475   9.524 -1.5251 -0.6670 -0.4889
  624MOL0     H86044   8.661   4.564   9.459  0.2250 -0.3711 -0.2809
  624MOL0     H86045   8.816   4.632   9.238 -0.9899  0.6233 -1.2270
  624MOL0     H86046   8.838   4.693   9.406  0.3246 -1.2960  1.2077
  624MOL0     H86047   8.964   4.898   9.323  4.0274 -0.5992 -0.8667
  624MOL0     H86048   9.035   4.753   9.269  0.7652  0.7680 -0.3969
  624MOL0     H86049   8.846   4.902   9.081  1.0303  0.8135 -0.6037
  624MOL0     H86050   9.014   4.943   9.097  0.1121  1.5515  0.5904
  624MOL0     H86051   9.071   4.703   9.048 -0.7221 -1.6409 -1.0621
  624MOL0     H86052   8.894   4.678   9.003 -0.9474  0.9788  0.0599
  624MOL0     H86053   9.106   4.847   8.885  0.2966 -2.5136 -0.1198
  624MOL0     H86054   8.930   4.868   8.833 -0.0012  0.7441  0.0693
  624MOL0     H86055   9.096   4.610   8.832 -0.1875 -0.1738 -0.6042
  624MOL0     H86056   8.941   4.617   8.789  0.1050 -0.9710 -0.7138
  624MOL0     H86057   9.136   4.812   8.650  3.1403 -1.2083 -1.1298
  624MOL0     H86058   8.978   4.744   8.595 -2.8213  2.2238  3.6515
  624MOL0     H86059   9.228   4.588   8.663 -0.9116  1.6755  1.8262
  624MOL0     H86060   9.093   4.514   8.591  0.9459 -0.4788  1.2535
  624MOL0     H86061   9.308   4.845   8.536 -0.5696  4.4455 -4.0689
  624MOL0     H86062   9.497   4.895   8.343 -1.5056 -0.6934  3.0947
  624MOL0     H86063   9.368   4.950   8.242  3.5579  1.8653 -0.4195
  624MOL0     H86064   9.512   4.712   8.152 -1.1508  0.2125 -0.7962
  624MOL0     H86065   9.423   4.822   8.052  1.4008  0.4751 -0.4598
  624MOL0     H86066   9.602   4.995   8.157  1.4881  0.5205  0.3574
  624MOL0     H86067   9.678   4.835   8.191 -0.1150 -0.3152 -0.5597
  624MOL0     H86068   9.664   4.785   7.932 -1.2349 -1.6677  1.7851
  624MOL0     H86069   9.576   4.938   7.919 -0.6544 -1.2809  2.0452
  624MOL0     H86070   9.671   5.064   7.744 -0.7351  0.0891 -3.5904
  624MOL0     H86071   9.806   5.141   7.441  2.6426 -1.2278  0.5303
  624MOL0     H86072   9.653   5.121   7.502  1.3593  0.9742  0.8600
  624MOL0     H86073   9.724   4.986   7.406  4.3903 -1.7164  0.0867
  624MOL0     H86074  10.316   4.981   7.401 -0.4649  1.1018  1.1160
  624MOL0     H86075  10.421   5.077   7.189 -0.0668 -1.1476  0.0676
  624MOL0     H86076  10.444   5.199   6.971  1.2242 -0.4564  3.8372
  624MOL0     H86077  10.551   5.062   6.988  0.9277  4.0317 -0.1371
  624MOL0     H86078  10.602   5.165   6.789  0.8851 -1.4396 -1.7424
  624MOL0     H86079  10.523   5.004   6.756 -0.4823  0.3694 -0.9309
  624MOL0     H86080  10.385   5.277   6.738 -2.7741 -1.0572  0.8879
  624MOL0     H86081  10.318   5.120   6.682  0.5410 -0.5216 -4.2665
  624MOL0     H86082  10.492   5.108   6.504  2.7660  1.3220 -0.9936
  624MOL0     H86083  10.569   5.256   6.563 -1.7333  1.8886 -1.6629
  624MOL0     H86084  10.324   5.220   6.408 -0.4115  1.8965 -0.1912
  624MOL0     H86085  10.366   5.380   6.477  1.4121  1.5226 -1.5084
  624MOL0     H86086  10.429   5.352   6.242 -2.6447 -0.0354  1.6014
  624MOL0     H86087  10.525   5.204   6.276 -1.3130 -0.6609 -0.3237
  624MOL0     H86088  10.679   5.348   6.397 -0.8350 -0.7302  0.8828
  624MOL0     H86089  10.573   5.490   6.390  1.1141  1.8932 -1.1153
  624MOL0     H86090  10.747   5.520   6.212  2.9614 -1.9245  0.0548
  624MOL0     H86091  10.596   5.473   6.138  1.0690  2.3495 -0.3493
  624MOL0     H86092  10.135   4.883   6.956 -1.5934 -2.8256  0.0637
  624MOL0     H86093  10.035   4.789   7.150 -0.3858  1.5604 -0.2694
  624MOL0     H86094  10.107   4.856   7.660  0.4725 -0.0165  1.1520
  624MOL0     H86095  10.014   4.871   7.886  1.9521  1.0797 -2.0978
  624MOL0     H86096   8.456   4.879   9.230  0.3445 -0.0122  0.7571
  624MOL0     H86097   8.244   4.771   9.298 -1.1743  0.8892  1.1696
  624MOL0     H86098   8.107   4.301   9.500 -1.9203 -1.8739 -1.5308
  624MOL0     H86099   7.924   4.186   9.542 -3.4662  0.0577  0.3067
  624MOL0     H86100   7.656   4.245   9.518 -0.8463  1.9069  1.3296
  624MOL0     H86101   7.685   4.092   9.602 -3.3267 -2.2237 -1.9160
  624MOL0     H86102   7.438   4.118   9.560 -0.2188  1.0222 -0.9724
  624MOL0     H86103   7.440   4.278   9.639  1.2553 -0.2187 -0.8627
  624MOL0     H86104   7.505   4.013   9.763  3.8754  1.4697 -0.2071
  624MOL0     H86105   7.492   4.172   9.847 -1.4648 -0.5809  1.2494
  624MOL0     H86106   7.237   4.047   9.719  1.1446  0.2348 -1.1184
  624MOL0     H86107   7.241   4.203   9.771 -1.1473  0.1498  0.8528
  624MOL0     H86108   7.208   4.046  10.160  0.6568 -0.8982  0.5486
  624MOL0     H86109   7.747   4.508   9.770 -2.3110  1.8777 -2.4786
  624MOL0     H86110   8.026   4.707   9.839 -0.2624 -0.1020 -0.1560
  624MOL0     H86111   7.988   4.768   9.674  2.5758 -0.8415 -0.0940
  624MOL0     H86112   7.863   4.725   9.774  0.4939  2.0196 -0.9093
  625MOL0     O86113  10.913  10.364   7.874 -0.0194 -0.3359 -0.0227
  625MOL0     C86114  10.959  10.460   7.816  0.5959 -1.5606 -0.3314
  625MOL0     O86115  10.906  10.503   7.695 -0.9409 -0.2018 -0.6179
  625MOL0     C86116  10.826  10.413   7.629 -0.3354  0.5648  0.3368
  625MOL0     C86117  10.882  10.331   7.523 -0.0309 -0.6252  0.2113
  625MOL0     C86118  10.803  10.236   7.451 -0.3513 -0.0366 -0.9617
  625MOL0     C86119  10.668  10.223   7.474 -0.4139  0.0550 -0.0817
  625MOL0     O86120  10.602  10.123   7.408  0.6812  0.2655  0.7489
  625MOL0     C86121  10.457  10.103   7.415 -0.2484 -0.8244 -0.0661
  625MOL0     C86122  10.382  10.175   7.301 -0.6218 -0.2956  0.0098
  625MOL0     C86123  10.226  10.146   7.289 -0.7543  0.0259 -0.7430
  625MOL0     C86124  10.172   9.991   7.304 -0.5749 -0.1288  0.7093
  625MOL0     C86125  10.021   9.986   7.299  0.5550  0.2826 -0.3541
  625MOL0     C86126   9.949  10.048   7.170 -0.8953  0.8974  0.1176
  625MOL0     C86127   9.815  10.107   7.201 -0.1150 -0.9001  0.1103
  625MOL0     C86128   9.735  10.143   7.076 -0.8673 -0.3565  0.5024
  625MOL0     N86129   9.794  10.254   7.004  0.1283  0.2078 -0.2917
  625MOL0     C86130   9.900  10.238   6.919 -0.5354  0.4883 -0.6669
  625MOL0     C86131   9.929  10.370   6.884  0.1045  1.1536 -0.7531
  625MOL0     C86132  10.043  10.414   6.795  0.2602  0.0899 -0.0607
  625MOL0     C86133  10.158  10.477   6.882  0.9590  0.5433  0.2826
  625MOL0     C86134  10.236  10.367   6.944 -0.7747  0.0310 -0.3402
  625MOL0     C86135  10.352  10.407   7.032  0.0625 -0.1098  1.2464
  625MOL0     O86136  10.464  10.454   6.951 -0.5269  0.5224 -0.1217
  625MOL0     C86137  10.582  10.468   7.005  0.1746  0.1604 -0.4848
  625MOL0     C86138  10.689  10.508   6.930  0.2636  0.1227  0.3523
  625MOL0     C86139  10.818  10.520   6.979 -0.5585 -0.2393 -0.0709
  625MOL0     C86140  10.926  10.569   6.876  0.8003  0.0154  0.1924
  625MOL0     C86141  10.847  10.498   7.113  0.0540 -0.6395  0.3137
  625MOL0     C86142  10.972  10.538   7.180 -0.5044 -0.4872 -0.4442
  625MOL0     O86143  11.065  10.616   7.112 -0.5848 -0.3453  0.7726
  625MOL0     C86144  11.192  10.627   7.160 -0.7209  0.7262  0.5706
  625MOL0     C86145  11.229  10.748   7.219  0.8302 -0.1823 -0.4727
  625MOL0     C86146  11.368  10.767   7.233  0.2876 -0.5415 -0.4084
  625MOL0     C86147  11.470  10.666   7.217  0.4960 -0.1863 -0.0769
  625MOL0     O86148  11.602  10.691   7.239  0.8599 -0.0400  0.4579
  625MOL0     C86149  11.682  10.586   7.300  0.3202  0.3610  0.6398
  625MOL0     C86150  11.794  10.529   7.214 -0.4168 -0.6757 -0.6242
  625MOL0     C86151  11.874  10.410   7.287 -0.6226  0.5763  0.2844
  625MOL0     C86152  12.003  10.374   7.213 -0.4730  0.4942 -0.2113
  625MOL0     C86153  11.986  10.349   7.068  0.6308  1.0445  0.7670
  625MOL0     C86154  12.106  10.275   7.000  0.7685 -0.1736 -0.3274
  625MOL0     C86155  12.089  10.235   6.862 -0.0670 -0.1457 -0.1470
  625MOL0     C86156  12.199  10.143   6.808  0.3578 -0.4642 -0.3547
  625MOL0    Cl86157  12.143   9.974   6.826 -0.1032 -0.2191 -0.1355
  625MOL0     C86158  11.429  10.546   7.153  0.9128 -0.2451  0.1099
  625MOL0     C86159  11.296  10.527   7.125  0.2237 -0.6331  0.0250
  625MOL0     O86160  10.982  10.506   7.302 -0.0684 -0.2818 -0.3831
  625MOL0     C86161  10.739  10.460   7.191 -0.0776 -0.2892 -0.9894
  625MOL0     C86162  10.610  10.456   7.145  0.0024  0.2144 -0.7531
  625MOL0     N86163   9.826  10.455   6.928 -0.0764 -0.3786 -0.1205
  625MOL0     N86164   9.747  10.384   7.003  0.1472  0.5720  0.1335
  625MOL0     C86165  10.605  10.320   7.560  0.3046  0.1067 -0.5224
  625MOL0     C86166  10.686  10.412   7.638 -0.0205  0.6377  0.9133
  625MOL0     C86167  11.059  10.547   7.880  0.3258  0.3000  0.9468
  625MOL0     C86168  11.037  10.573   8.013  0.3333 -0.9006  0.1935
  625MOL0     C86169  11.126  10.646   8.089 -0.2909  0.9881  0.1014
  625MOL0     C86170  11.246  10.706   8.017  0.3057 -0.4756 -0.1006
  625MOL0     O86171  11.330  10.794   8.078 -0.5548 -0.3681  0.9417
  625MOL0     C86172  11.277  10.857   8.194 -0.2251  0.8068  0.1305
  625MOL0     C86173  11.361  10.985   8.216 -0.0604 -0.1913  0.0883
  625MOL0     C86174  11.361  11.083   8.095 -0.4317  0.1513 -0.4533
  625MOL0     C86175  11.400  11.230   8.113 -0.3507  0.0865 -0.1407
  625MOL0     C86176  11.543  11.253   8.151 -0.0647  0.2138  0.1061
  625MOL0     C86177  11.660  11.265   8.175  0.2855  0.3185 -0.4594
  625MOL0     C86178  11.258  10.677   7.884  0.3173  0.3964  0.3076
  625MOL0     C86179  11.165  10.607   7.805  0.5374  0.8260  0.8107
  625MOL0     C86180  11.200  10.592   7.658 -0.8297 -0.7172  0.1155
  625MOL0     H86181  10.989  10.335   7.510  0.4067 -1.6282  2.8673
  625MOL0     H86182  10.857  10.172   7.382  1.6698  2.7715 -2.1416
  625MOL0     H86183  10.419  10.137   7.512  2.0579  0.3784  0.4940
  625MOL0     H86184  10.446   9.994   7.416  0.0782 -0.8690  1.3102
  625MOL0     H86185  10.391  10.283   7.307  2.2169 -0.5177  2.2423
  625MOL0     H86186  10.425  10.132   7.211 -3.2192  0.1110 -1.5208
  625MOL0     H86187  10.171  10.211   7.357 -0.4082  0.2262 -0.6505
  625MOL0     H86188  10.205  10.180   7.187  0.5982  1.9444 -0.4316
  625MOL0     H86189  10.208   9.930   7.221 -4.0201  2.6149 -3.2205
  625MOL0     H86190  10.210   9.949   7.398 -2.1287  0.8426  1.8266
  625MOL0     H86191   9.988  10.038   7.389  1.2082  0.8427 -0.4331
  625MOL0     H86192   9.988   9.881   7.295 -0.9722  0.6318  1.8590
  625MOL0     H86193  10.021  10.119   7.130  0.3190 -0.5361 -0.3288
  625MOL0     H86194   9.936   9.960   7.105 -0.6439  0.4002  0.7336
  625MOL0     H86195   9.835  10.202   7.251 -0.3519 -0.4998 -0.5390
  625MOL0     H86196   9.759  10.052   7.278 -0.5494 -0.3815  0.1722
  625MOL0     H86197   9.739  10.049   7.020  1.3552 -1.3143  2.1249
  625MOL0     H86198   9.629  10.165   7.093 -1.6674 -0.9671 -2.9729
  625MOL0     H86199   9.950  10.146   6.893 -1.7420 -0.5408  0.4888
  625MOL0     H86200   9.995  10.482   6.724  1.3820  0.0236 -0.8953
  625MOL0     H86201  10.075  10.332   6.732 -1.8363 -2.1971  1.6559
  625MOL0     H86202  10.221  10.533   6.812 -0.4648  0.5524 -1.0372
  625MOL0     H86203  10.113  10.548   6.952 -1.0163 -0.5237  0.1628
  625MOL0     H86204  10.171  10.308   7.008  1.7940  1.7472  4.3646
  625MOL0     H86205  10.274  10.301   6.865 -0.2900 -0.8236  0.5913
  625MOL0     H86206  10.315  10.475   7.109  1.4831 -0.3883  2.2157
  625MOL0     H86207  10.380  10.315   7.083  0.8401  0.4232  1.8092
  625MOL0     H86208  10.662  10.515   6.825 -2.0607 -0.6045  0.8368
  625MOL0     H86209  11.018  10.511   6.885  1.0623 -0.1902 -2.7814
  625MOL0     H86210  10.942  10.676   6.894  0.0575  0.1932 -0.1658
  625MOL0     H86211  10.890  10.546   6.775  0.2518 -1.6149  0.7294
  625MOL0     H86212  11.152  10.817   7.253  0.6088 -1.4461  1.8238
  625MOL0     H86213  11.410  10.859   7.274 -0.1062 -1.3910  2.1028
  625MOL0     H86214  11.716  10.611   7.400 -3.2424 -1.8687  2.6187
  625MOL0     H86215  11.624  10.496   7.323 -1.7540  1.9391  1.9361
  625MOL0     H86216  11.750  10.489   7.121 -0.2944  3.4382 -2.6745
  625MOL0     H86217  11.859  10.612   7.187 -0.4145 -0.8578 -1.2057
  625MOL0     H86218  11.809  10.323   7.282  0.5435 -0.2974 -0.2310
  625MOL0     H86219  11.910  10.426   7.389  3.3980  1.6781 -1.1192
  625MOL0     H86220  12.052  10.288   7.258  2.1030  1.6760 -0.6017
  625MOL0     H86221  12.066  10.462   7.228 -0.4544  0.6878 -1.3420
  625MOL0     H86222  11.895  10.292   7.049 -0.2721  2.4381  0.7728
  625MOL0     H86223  11.968  10.446   7.020  0.1857  0.3112 -0.5921
  625MOL0     H86224  12.138  10.189   7.060 -0.9240 -1.7915 -1.6162
  625MOL0     H86225  12.187  10.348   7.003 -0.1642  1.0639 -2.5652
  625MOL0     H86226  12.078  10.317   6.791 -1.3066 -2.3132 -2.6573
  625MOL0     H86227  11.988  10.193   6.868 -0.2793  0.4507  0.5749
  625MOL0     H86228  12.297  10.170   6.850 -0.2740  0.8403  0.3489
  625MOL0     H86229  12.203  10.161   6.701  1.4265 -0.8311 -0.3847
  625MOL0     H86230  11.506  10.473   7.129  0.2584 -1.6723  2.0703
  625MOL0     H86231  11.266  10.437   7.072  0.6433 -0.2291 -0.9261
  625MOL0     H86232  10.745  10.461   7.299 -2.8471  0.9918 -0.7380
  625MOL0     H86233  10.536  10.422   7.218  0.7789 -1.6265 -0.7598
  625MOL0     H86234  10.497  10.320   7.570  0.3488 -2.7128  1.5320
  625MOL0     H86235  10.627  10.479   7.699  1.3187  2.1769  0.5613
  625MOL0     H86236  10.952  10.531   8.066 -2.6637  1.0136 -2.6704
  625MOL0     H86237  11.113  10.671   8.194  1.9797  0.5238  0.5297
  625MOL0     H86238  11.173  10.884   8.177 -0.0459  1.2658 -0.2549
  625MOL0     H86239  11.293  10.780   8.271  1.9203  0.6990 -0.3448
  625MOL0     H86240  11.463  10.959   8.248  1.2315  1.8457 -2.0766
  625MOL0     H86241  11.316  11.039   8.300 -0.9463  1.5604 -1.4388
  625MOL0     H86242  11.431  11.039   8.024  0.2236  1.2783 -0.5231
  625MOL0     H86243  11.257  11.083   8.059 -0.5016  3.1847 -0.4747
  625MOL0     H86244  11.341  11.267   8.197  0.4109  1.5031 -0.1905
  625MOL0     H86245  11.364  11.287   8.027 -1.7036  0.4206  0.6169
  625MOL0     H86246  11.765  11.284   8.177  1.0656 -3.2163 -1.2726
  625MOL0     H86247  11.344  10.723   7.838 -0.2637  0.3020 -0.9201
  625MOL0     H86248  11.240  10.491   7.644  1.9879  0.5516 -2.0096
  625MOL0     H86249  11.122  10.619   7.586  2.5757  1.2680 -3.1617
  625MOL0     H86250  11.288  10.653   7.638 -0.8301 -1.2144 -1.5620
  626MOL0     O86251   6.199   7.469   9.352  0.1558 -0.1367  0.3721
  626MOL0     C86252   6.090   7.522   9.387 -0.4431  0.6720 -0.5488
  626MOL0     O86253   6.063   7.657   9.384  0.5110 -0.2562  0.5174
  626MOL0     C86254   6.127   7.738   9.302  0.8228  0.9419  0.9827
  626MOL0     C86255   6.073   7.760   9.171 -0.3820  0.0280 -0.1813
  626MOL0     C86256   6.136   7.860   9.086  1.1546  0.4115 -0.6546
  626MOL0     C86257   6.257   7.921   9.122 -0.0714 -0.1464 -0.5876
  626MOL0     O86258   6.316   8.006   9.035 -0.5103 -0.7700 -0.0932
  626MOL0     C86259   6.249   8.123   9.006 -0.4596  0.5732 -0.6284
  626MOL0     C86260   6.356   8.235   8.990 -0.4360  0.1521  0.1428
  626MOL0     C86261   6.441   8.240   8.865 -0.5672  0.2412  1.2079
  626MOL0     C86262   6.570   8.155   8.890  0.6113  0.1457 -0.1883
  626MOL0     C86263   6.671   8.146   8.775 -0.2097  0.2374  0.0079
  626MOL0     C86264   6.778   8.044   8.814  0.4940  0.7290 -0.8614
  626MOL0     C86265   6.885   8.020   8.700 -0.0520 -0.2839 -0.3902
  626MOL0     C86266   6.988   7.912   8.738 -0.3057  1.0472 -0.0269
  626MOL0     N86267   7.090   7.969   8.830 -0.0774 -0.4309 -0.3363
  626MOL0     C86268   7.069   7.963   8.968 -0.3873  0.2342  0.3821
  626MOL0     C86269   7.160   8.053   9.019  0.2740  0.7385  0.1024
  626MOL0     C86270   7.178   8.069   9.172 -0.4832  0.2644 -0.3217
  626MOL0     C86271   7.287   7.977   9.204 -0.3998  0.4813 -0.4586
  626MOL0     C86272   7.422   8.028   9.168 -1.0858 -0.3378  0.0921
  626MOL0     C86273   7.482   8.177   9.214  0.1003  0.8495  0.0601
  626MOL0     O86274   7.499   8.197   9.360 -0.4023 -0.7351  0.9550
  626MOL0     C86275   7.512   8.334   9.385 -1.3029 -0.8723 -0.0103
  626MOL0     C86276   7.630   8.389   9.435  0.3125 -0.7062 -0.0784
  626MOL0     C86277   7.649   8.532   9.454 -0.5860  0.2650  0.0989
  626MOL0     C86278   7.792   8.574   9.491  0.3782  1.1480 -0.2179
  626MOL0     C86279   7.540   8.623   9.428 -0.0994  0.5878  0.2114
  626MOL0     C86280   7.542   8.760   9.472 -0.3447 -0.9217 -0.2427
  626MOL0     O86281   7.432   8.833   9.433  0.5680 -0.2260 -0.2026
  626MOL0     C86282   7.429   8.961   9.481  0.6966  0.3495 -0.2029
  626MOL0     C86283   7.355   8.992   9.591  0.2926 -0.2382 -0.1042
  626MOL0     C86284   7.324   9.125   9.620  0.1744 -0.4469 -0.0057
  626MOL0     C86285   7.367   9.226   9.538 -0.2792 -1.0004  0.4827
  626MOL0     O86286   7.326   9.353   9.577  0.2876  0.1117 -0.4913
  626MOL0     C86287   7.281   9.449   9.478  0.0234  0.5067  0.3866
  626MOL0     C86288   7.361   9.578   9.488 -0.2675 -0.5305  0.0377
  626MOL0     C86289   7.287   9.685   9.399 -0.7791 -0.0924  0.0176
  626MOL0     C86290   7.153   9.753   9.465 -0.0701  0.0654  0.0450
  626MOL0     C86291   7.110   9.882   9.398 -0.0493 -1.0042  0.3380
  626MOL0     C86292   6.973   9.915   9.454  0.2563  0.5854  0.1714
  626MOL0     C86293   6.909  10.036   9.394  0.2529 -1.0802 -0.5988
  626MOL0     C86294   6.775  10.073   9.463 -0.3154 -0.0077  1.0357
  626MOL0    Cl86295   6.674  10.181   9.350 -0.1997  0.3068  0.1083
  626MOL0     C86296   7.448   9.195   9.428  0.8711  1.0029 -0.3684
  626MOL0     C86297   7.480   9.060   9.395  0.9502  0.0980  0.0480
  626MOL0     O86298   7.622   8.800   9.559 -0.3926  0.6266  0.7175
  626MOL0     C86299   7.422   8.559   9.387 -0.1132  0.4558 -0.4061
  626MOL0     C86300   7.405   8.422   9.362 -0.1005 -0.6813  0.9221
  626MOL0     N86301   7.233   8.109   8.919  0.1955 -0.6651 -0.0029
  626MOL0     N86302   7.191   8.053   8.805 -1.6285  0.1461 -0.0254
  626MOL0     C86303   6.306   7.895   9.254 -0.3932 -0.4645 -1.3168
  626MOL0     C86304   6.248   7.794   9.340  0.3890  0.0592  0.5034
  626MOL0     C86305   5.978   7.430   9.434  1.1797 -0.2588  0.0565
  626MOL0     C86306   5.848   7.491   9.445  0.6746  0.1046  0.2160
  626MOL0     C86307   5.731   7.425   9.476  0.8689 -0.2900  0.7596
  626MOL0     C86308   5.735   7.286   9.507 -0.1197  0.8008 -0.7361
  626MOL0     O86309   5.636   7.206   9.567 -0.0810 -0.3147 -0.8460
  626MOL0     C86310   5.507   7.259   9.600 -0.1059  0.2086  0.5785
  626MOL0     C86311   5.512   7.325   9.733  0.5796 -0.2431 -0.8610
  626MOL0     C86312   5.369   7.373   9.775 -0.6004  1.0097 -0.5073
  626MOL0     C86313   5.365   7.517   9.819  0.2560  0.1893 -0.1545
  626MOL0     C86314   5.379   7.612   9.710 -0.4051 -0.1193 -0.2224
  626MOL0     C86315   5.390   7.672   9.606 -0.5544 -0.3188  0.5135
  626MOL0     C86316   5.860   7.215   9.493 -0.2555  0.3542  0.2403
  626MOL0     C86317   5.981   7.284   9.453 -1.1017  1.0294 -0.2691
  626MOL0     C86318   6.108   7.203   9.452  1.1256  0.1458  0.2360
  626MOL0     H86319   5.992   7.708   9.122  1.8929 -0.9206 -3.3136
  626MOL0     H86320   6.089   7.885   8.991  0.1018 -1.6654 -0.7271
  626MOL0     H86321   6.172   8.146   9.080 -0.6022  1.4442 -1.0424
  626MOL0     H86322   6.206   8.103   8.908 -3.7921 -0.3429  0.8573
  626MOL0     H86323   6.299   8.328   8.978  2.0212  1.8548  0.7935
  626MOL0     H86324   6.414   8.259   9.079  1.9987  0.1515 -1.3642
  626MOL0     H86325   6.382   8.196   8.784  2.9687 -2.0897 -0.3509
  626MOL0     H86326   6.472   8.337   8.827 -2.7368 -0.0060 -1.5711
  626MOL0     H86327   6.616   8.172   8.987 -0.0969  0.4221  0.1070
  626MOL0     H86328   6.534   8.055   8.915  3.6036 -0.9110  0.2786
  626MOL0     H86329   6.727   8.240   8.770  3.6919 -1.8813  0.3025
  626MOL0     H86330   6.622   8.131   8.678  0.9103  0.3914 -0.6020
  626MOL0     H86331   6.839   8.082   8.896  1.0618  2.6576 -2.1214
  626MOL0     H86332   6.742   7.949   8.856  1.7251  0.5689 -0.0947
  626MOL0     H86333   6.933   8.115   8.678 -1.0772 -0.2731 -2.8337
  626MOL0     H86334   6.835   7.988   8.608  0.1227  0.8723 -0.8994
  626MOL0     H86335   6.930   7.833   8.787  0.3460  0.7492  0.2726
  626MOL0     H86336   7.040   7.874   8.650 -1.7924 -0.1192 -0.4406
  626MOL0     H86337   6.984   7.918   9.018 -0.5672  0.8174  0.6120
  626MOL0     H86338   7.094   8.029   9.230 -1.9519 -0.3011 -2.7023
  626MOL0     H86339   7.193   8.177   9.185 -1.2521  0.6039 -2.0284
  626MOL0     H86340   7.296   7.955   9.310  3.0079  0.3259 -0.6766
  626MOL0     H86341   7.276   7.883   9.150 -1.3934 -0.0848  0.6821
  626MOL0     H86342   7.489   7.955   9.216  1.0436  2.0337  0.9632
  626MOL0     H86343   7.438   8.028   9.060 -0.5353  0.6480  0.1650
  626MOL0     H86344   7.568   8.210   9.156  0.0952  1.2449  0.2775
  626MOL0     H86345   7.412   8.251   9.175 -2.4201 -1.8312 -0.9039
  626MOL0     H86346   7.707   8.319   9.466  0.5931  1.3665  4.9146
  626MOL0     H86347   7.835   8.661   9.440  2.0531  1.3113  1.3595
  626MOL0     H86348   7.865   8.492   9.483  2.2768  2.6026  1.1164
  626MOL0     H86349   7.796   8.602   9.596  1.5607 -1.2642  0.4490
  626MOL0     H86350   7.308   8.912   9.647  0.4461 -0.3239 -0.0963
  626MOL0     H86351   7.246   9.147   9.692  2.0479 -1.7394  2.5764
  626MOL0     H86352   7.289   9.409   9.376 -1.2029 -0.2593  0.5682
  626MOL0     H86353   7.174   9.461   9.496 -0.3770  1.2512 -2.1580
  626MOL0     H86354   7.351   9.622   9.588  0.3890  0.5568 -0.3579
  626MOL0     H86355   7.468   9.568   9.466 -0.1819  0.0254  0.2014
  626MOL0     H86356   7.267   9.629   9.306 -0.3192 -1.0555  0.4825
  626MOL0     H86357   7.357   9.765   9.375 -1.7230  0.7118 -0.0809
  626MOL0     H86358   7.167   9.784   9.569 -1.9395 -0.2935  0.4317
  626MOL0     H86359   7.073   9.678   9.461  2.2250 -2.5119 -0.4015
  626MOL0     H86360   7.174   9.968   9.418 -0.2946 -0.9137  0.7473
  626MOL0     H86361   7.106   9.872   9.289  1.1584  2.1247 -0.0938
  626MOL0     H86362   6.976   9.927   9.563  1.2475  4.4174 -0.1431
  626MOL0     H86363   6.900   9.837   9.427 -2.0954  3.4203 -2.3785
  626MOL0     H86364   6.890  10.008   9.290  0.5676 -0.3195 -0.8630
  626MOL0     H86365   6.974  10.123   9.385 -3.6994  2.0949 -0.9816
  626MOL0     H86366   6.794  10.130   9.555 -3.6114  0.7376  1.4067
  626MOL0     H86367   6.715   9.986   9.491 -2.7279 -0.2078 -3.7671
  626MOL0     H86368   7.476   9.277   9.362  0.6919  1.5719  0.2482
  626MOL0     H86369   7.525   9.048   9.297  1.0655 -1.3597  0.2631
  626MOL0     H86370   7.330   8.614   9.369 -0.2951  0.4926  0.5658
  626MOL0     H86371   7.303   8.399   9.334 -1.2381  2.1921  2.4083
  626MOL0     H86372   6.400   7.935   9.291  0.2193 -0.5464 -2.7259
  626MOL0     H86373   6.289   7.765   9.436  0.3416 -2.7513 -0.2503
  626MOL0     H86374   5.850   7.598   9.428  2.2295  0.0960  0.1745
  626MOL0     H86375   5.640   7.485   9.483  0.0557 -1.0402 -2.0839
  626MOL0     H86376   5.470   7.338   9.534 -0.6907 -0.7925 -0.3303
  626MOL0     H86377   5.440   7.173   9.596 -0.8799  0.8252 -0.1085
  626MOL0     H86378   5.575   7.413   9.720 -0.5949  1.3894  3.0426
  626MOL0     H86379   5.552   7.262   9.813  0.4381  0.3650 -0.3118
  626MOL0     H86380   5.299   7.350   9.694 -0.8624  1.3251 -0.3725
  626MOL0     H86381   5.340   7.311   9.861  0.1108 -1.1656 -1.7661
  626MOL0     H86382   5.438   7.534   9.899  1.0295  2.0283 -1.1918
  626MOL0     H86383   5.268   7.545   9.863  0.2216  2.2537 -1.4330
  626MOL0     H86384   5.374   7.734   9.520 -0.4777  0.3612  0.9838
  626MOL0     H86385   5.871   7.108   9.503  0.3337  0.4808  1.0915
  626MOL0     H86386   6.144   7.177   9.551  2.8233  0.7615 -0.1960
  626MOL0     H86387   6.090   7.109   9.399  1.8760  2.1552 -4.0019
  626MOL0     H86388   6.191   7.250   9.398  1.0650 -0.8128 -0.7299
  627MOL0     O86389   0.791   1.665   4.999 -0.0824 -1.3831  0.2875
  627MOL0     C86390   0.676   1.699   5.022  0.2996 -0.6520  0.1926
  627MOL0     O86391   0.609   1.672   5.137 -0.5876  0.5184 -0.1071
  627MOL0     C86392   0.687   1.645   5.249  0.6099  0.6102 -0.4707
  627MOL0     C86393   0.754   1.744   5.321 -0.4920  0.2713  0.2244
  627MOL0     C86394   0.844   1.709   5.427 -0.6978  0.6765 -0.3041
  627MOL0     C86395   0.858   1.575   5.468  0.1134  0.5717  0.8928
  627MOL0     O86396   0.929   1.538   5.580  0.2070  0.1853 -0.5374
  627MOL0     C86397   1.014   1.422   5.561  0.2385  0.3769  0.7372
  627MOL0     C86398   1.135   1.426   5.660  0.6128 -0.1946  0.5308
  627MOL0     C86399   1.210   1.563   5.669 -0.2687 -0.5421 -0.3506
  627MOL0     C86400   1.263   1.613   5.530 -0.2513 -0.0413  0.5500
  627MOL0     C86401   1.333   1.740   5.557 -0.6295  0.4473  0.0438
  627MOL0     C86402   1.248   1.859   5.593  0.9199  1.2714  0.2153
  627MOL0     C86403   1.335   1.985   5.609  0.9452 -0.2919 -0.4124
  627MOL0     C86404   1.242   2.114   5.611  0.6380  0.3065 -0.6386
  627MOL0     N86405   1.320   2.242   5.631  0.0284 -0.1099 -1.0595
  627MOL0     C86406   1.296   2.333   5.738  0.5508 -0.0745  0.4023
  627MOL0     C86407   1.392   2.434   5.712 -0.3534  0.6418 -0.5581
  627MOL0     C86408   1.429   2.562   5.783 -0.3089  0.6601  0.4353
  627MOL0     C86409   1.578   2.553   5.827  0.0926 -0.7623  0.1738
  627MOL0     C86410   1.580   2.487   5.963  0.4708  0.0679  0.2680
  627MOL0     C86411   1.717   2.470   6.036 -1.5038  0.0634 -0.3376
  627MOL0     O86412   1.706   2.457   6.179  0.2079  0.0377 -0.6639
  627MOL0     C86413   1.812   2.422   6.260  0.3429  0.4874  0.4014
  627MOL0     C86414   1.944   2.433   6.225 -0.4384  0.2449  0.5360
  627MOL0     C86415   2.059   2.379   6.294 -0.5013  0.0672  0.9960
  627MOL0     C86416   2.200   2.401   6.241  0.3653  0.3521  0.1281
  627MOL0     C86417   2.033   2.312   6.411 -0.6191 -0.4427 -0.4325
  627MOL0     C86418   2.143   2.259   6.505  0.4122  0.3611  0.6275
  627MOL0     O86419   2.241   2.173   6.461  0.5035  0.4658  0.5143
  627MOL0     C86420   2.330   2.113   6.549 -0.4709 -0.6480  0.5353
  627MOL0     C86421   2.356   2.130   6.683  1.5459  1.3402 -0.0070
  627MOL0     C86422   2.457   2.058   6.752 -0.2960  1.1960 -0.4384
  627MOL0     C86423   2.544   1.970   6.682 -0.9057 -0.7751  0.1768
  627MOL0     O86424   2.633   1.894   6.749  0.0150 -0.0559  0.0220
  627MOL0     C86425   2.676   1.774   6.687  0.1355  0.2694 -0.0943
  627MOL0     C86426   2.751   1.702   6.805 -0.3550  0.6435  0.7999
  627MOL0     C86427   2.848   1.594   6.746  0.5190  0.4051 -0.0612
  627MOL0     C86428   2.790   1.454   6.714 -0.0565 -0.1174  0.2820
  627MOL0     C86429   2.902   1.360   6.674  0.7203  0.6307 -0.5801
  627MOL0     C86430   2.861   1.233   6.589  0.5898  0.0914  0.5543
  627MOL0     C86431   2.802   1.264   6.451 -0.0316  0.1799  0.1220
  627MOL0     C86432   2.791   1.136   6.354  0.7622  0.4216  0.2443
  627MOL0    Cl86433   2.689   1.005   6.430  0.5974  0.2283 -0.5733
  627MOL0     C86434   2.507   1.947   6.547 -0.3604 -0.7068 -0.5549
  627MOL0     C86435   2.413   2.024   6.473 -0.3061  0.4098 -0.9842
  627MOL0     O86436   2.141   2.309   6.616  0.3926  0.4330 -0.3066
  627MOL0     C86437   1.895   2.307   6.463 -0.2148 -0.8973  0.2495
  627MOL0     C86438   1.787   2.354   6.384 -0.0074  0.4569 -0.3525
  627MOL0     N86439   1.459   2.400   5.597 -0.0671 -0.4831 -0.1126
  627MOL0     N86440   1.420   2.285   5.547  0.0060  0.6274  0.2682
  627MOL0     C86441   0.769   1.480   5.414 -0.7519  0.8329 -0.0313
  627MOL0     C86442   0.684   1.510   5.310 -0.0331 -0.4817  0.3224
  627MOL0     C86443   0.595   1.743   4.908  0.7520  0.1865  0.7734
  627MOL0     C86444   0.581   1.654   4.795 -0.1660  0.3604 -0.6204
  627MOL0     C86445   0.508   1.683   4.684 -0.2067 -0.1992  0.0661
  627MOL0     C86446   0.426   1.802   4.679 -0.4885  0.0029  0.3045
  627MOL0     O86447   0.364   1.838   4.557  0.0539 -0.2587 -0.0218
  627MOL0     C86448   0.411   1.807   4.424  0.1524  0.3082 -0.5454
  627MOL0     C86449   0.560   1.848   4.415 -0.1056 -0.3449  0.2239
  627MOL0     C86450   0.631   1.812   4.280 -0.8934  0.0481 -0.1468
  627MOL0     C86451   0.625   1.662   4.246  0.3061  0.2408  0.6602
  627MOL0     C86452   0.677   1.574   4.352  0.8657 -0.2997  0.3367
  627MOL0     C86453   0.745   1.521   4.436 -0.3035  0.0006 -0.1994
  627MOL0     C86454   0.422   1.879   4.794 -0.0874 -0.4056 -0.2201
  627MOL0     C86455   0.501   1.854   4.909  0.3478  0.9717  0.8360
  627MOL0     C86456   0.526   1.950   5.011  0.5178  0.1914  0.1571
  627MOL0     H86457   0.750   1.850   5.294  1.6135  0.5625  0.8360
  627MOL0     H86458   0.892   1.783   5.490 -1.6125 -0.4467  1.7903
  627MOL0     H86459   1.060   1.415   5.462  0.8810 -0.3839  1.0719
  627MOL0     H86460   0.962   1.329   5.585  1.1756 -0.3967 -0.1426
  627MOL0     H86461   1.087   1.404   5.755 -3.9499  2.4657 -0.8604
  627MOL0     H86462   1.212   1.348   5.652  0.4890 -0.3381  0.7467
  627MOL0     H86463   1.136   1.636   5.704  1.8667 -0.8256  6.0878
  627MOL0     H86464   1.289   1.562   5.745 -2.7907 -2.8369  2.4857
  627MOL0     H86465   1.341   1.546   5.495  0.1240  1.8310 -2.6766
  627MOL0     H86466   1.191   1.618   5.447 -1.3455 -0.1246  1.4697
  627MOL0     H86467   1.406   1.749   5.476  0.5744 -2.8155  0.5865
  627MOL0     H86468   1.409   1.719   5.633  2.0804  0.4150 -2.5048
  627MOL0     H86469   1.181   1.892   5.512  0.0214  1.0389  0.8542
  627MOL0     H86470   1.191   1.837   5.684  2.4138 -3.1125  0.2978
  627MOL0     H86471   1.402   1.987   5.522  0.5409 -0.2298 -0.7262
  627MOL0     H86472   1.396   1.981   5.699  0.9400  5.0348  0.0999
  627MOL0     H86473   1.200   2.131   5.512 -0.3978  2.9463  0.1670
  627MOL0     H86474   1.155   2.095   5.676  1.1710 -2.3557 -0.6020
  627MOL0     H86475   1.239   2.324   5.829  3.7275 -3.2649  2.3259
  627MOL0     H86476   1.357   2.566   5.866 -0.3279 -0.3529  0.4829
  627MOL0     H86477   1.399   2.647   5.722 -2.4709  0.9152  1.7175
  627MOL0     H86478   1.637   2.493   5.756 -0.5598  0.7489 -1.7352
  627MOL0     H86479   1.627   2.651   5.831 -0.7258 -0.2600 -1.1421
  627MOL0     H86480   1.515   2.546   6.029  1.4438  1.2447  0.2065
  627MOL0     H86481   1.542   2.385   5.953  4.0856 -1.5591  1.5176
  627MOL0     H86482   1.772   2.387   5.990 -0.8214  1.0657 -1.3997
  627MOL0     H86483   1.779   2.560   6.035 -2.8808  1.6765  6.9635
  627MOL0     H86484   1.964   2.483   6.131 -1.3283 -0.0254  0.1950
  627MOL0     H86485   2.275   2.334   6.285  1.3911 -2.5863 -5.1195
  627MOL0     H86486   2.227   2.507   6.240 -3.7605  1.5759 -0.6128
  627MOL0     H86487   2.194   2.379   6.133 -0.2843  2.0655 -0.2058
  627MOL0     H86488   2.292   2.194   6.743  0.4319  1.4021 -1.2225
  627MOL0     H86489   2.460   2.063   6.860 -0.9496  3.5139 -0.4889
  627MOL0     H86490   2.589   1.721   6.646 -1.2567 -0.0084  2.9536
  627MOL0     H86491   2.745   1.805   6.608  0.2648  0.1773 -0.0156
  627MOL0     H86492   2.808   1.778   6.859  0.5664  0.4051  0.1817
  627MOL0     H86493   2.678   1.668   6.880  1.8216 -2.1066  1.8306
  627MOL0     H86494   2.913   1.582   6.833 -1.0147 -1.1223  0.9335
  627MOL0     H86495   2.893   1.637   6.656 -0.3915  2.2310  0.3038
  627MOL0     H86496   2.702   1.446   6.649 -0.0655  0.2814  0.2374
  627MOL0     H86497   2.743   1.413   6.805  1.5498 -0.7931  0.8400
  627MOL0     H86498   2.979   1.408   6.614  1.9096 -2.3856 -1.6577
  627MOL0     H86499   2.956   1.324   6.762  2.0355  0.7047 -1.3296
  627MOL0     H86500   2.788   1.178   6.649 -0.6032  0.3651 -0.5906
  627MOL0     H86501   2.947   1.166   6.586 -0.9406 -1.9517 -1.5838
  627MOL0     H86502   2.860   1.346   6.408  1.7241 -0.7340  0.6657
  627MOL0     H86503   2.702   1.308   6.465  0.1749 -0.0124  2.7084
  627MOL0     H86504   2.895   1.106   6.336  0.2249 -3.9978  2.7695
  627MOL0     H86505   2.736   1.152   6.261 -0.6258 -1.0840  0.7360
  627MOL0     H86506   2.557   1.871   6.489 -0.9001 -1.4771 -0.0218
  627MOL0     H86507   2.413   2.002   6.367  1.9110 -1.3009 -0.6987
  627MOL0     H86508   1.879   2.264   6.562  2.3815 -2.6536  0.0289
  627MOL0     H86509   1.687   2.340   6.423  1.0633 -0.6154  2.1900
  627MOL0     H86510   0.788   1.382   5.457  0.4099  1.5106  1.1066
  627MOL0     H86511   0.625   1.430   5.268 -0.1267  1.1426 -2.9870
  627MOL0     H86512   0.631   1.558   4.793  1.5825  1.2024  0.3562
  627MOL0     H86513   0.513   1.612   4.602  0.3515 -1.8306  1.4524
  627MOL0     H86514   0.405   1.699   4.406 -0.8620 -0.0692  1.6522
  627MOL0     H86515   0.352   1.855   4.346  0.1841 -1.1337 -1.5020
  627MOL0     H86516   0.612   1.806   4.502 -2.3734 -0.7104  1.4868
  627MOL0     H86517   0.561   1.957   4.428 -0.7135  0.1013 -2.7934
  627MOL0     H86518   0.586   1.866   4.196 -0.9016  0.0253 -0.1572
  627MOL0     H86519   0.734   1.849   4.287 -0.8855 -0.0033  0.0084
  627MOL0     H86520   0.679   1.638   4.154  0.0381 -0.7446  0.7568
  627MOL0     H86521   0.523   1.629   4.226 -0.6640  2.7449  1.0868
  627MOL0     H86522   0.817   1.474   4.500  0.6404  0.4654 -0.8814
  627MOL0     H86523   0.361   1.969   4.798 -2.2107 -1.8281  2.0042
  627MOL0     H86524   0.503   2.054   4.984 -1.4053  0.8419  3.7194
  627MOL0     H86525   0.474   1.920   5.102 -2.0807 -1.1277 -1.6446
  627MOL0     H86526   0.631   1.957   5.042  0.3112  2.1739  0.5303
  628MOL0     O86527   1.583   5.683   1.029 -0.1284  0.0579 -0.0469
  628MOL0     C86528   1.637   5.664   0.918 -0.0497  0.0587  0.3187
  628MOL0     O86529   1.589   5.583   0.819  0.5708  0.3875 -0.5859
  628MOL0     C86530   1.500   5.483   0.857 -0.6922 -0.2045 -0.2156
  628MOL0     C86531   1.394   5.449   0.769 -0.2109 -0.1093 -0.2340
  628MOL0     C86532   1.296   5.361   0.803  0.3588  1.0987 -0.0834
  628MOL0     C86533   1.299   5.288   0.916  1.1075  0.8665 -0.4710
  628MOL0     O86534   1.197   5.201   0.956  0.3347  0.2542 -0.4963
  628MOL0     C86535   1.094   5.271   1.015  0.0383  0.6587 -0.0278
  628MOL0     C86536   1.053   5.200   1.149  0.0002  0.5143 -0.1551
  628MOL0     C86537   1.028   5.057   1.133 -0.1259 -0.8491 -0.7400
  628MOL0     C86538   0.942   4.998   1.241  0.2889 -0.4083 -0.1114
  628MOL0     C86539   0.909   4.859   1.187 -0.1604 -0.5687 -0.1563
  628MOL0     C86540   0.862   4.768   1.301  0.2764  0.0592 -0.1372
  628MOL0     C86541   0.720   4.805   1.338 -0.2532 -1.0595  0.3253
  628MOL0     C86542   0.684   4.737   1.472 -0.4625  0.3302 -0.0332
  628MOL0     N86543   0.673   4.590   1.461 -0.3975 -0.1277  0.4782
  628MOL0     C86544   0.748   4.509   1.544  1.2723  1.1252  0.4591
  628MOL0     C86545   0.706   4.392   1.498 -0.6594  0.1351  0.5428
  628MOL0     C86546   0.769   4.263   1.563  1.0352  0.0434  0.6946
  628MOL0     C86547   0.917   4.240   1.564  0.2656 -0.3533 -0.2991
  628MOL0     C86548   0.981   4.251   1.428  0.1546  0.4168 -0.0194
  628MOL0     C86549   1.139   4.233   1.441  0.9027 -0.2691 -0.6830
  628MOL0     O86550   1.175   4.122   1.515 -0.5918  0.0822  0.1523
  628MOL0     C86551   1.308   4.110   1.547  0.5226  0.2171 -0.3083
  628MOL0     C86552   1.413   4.181   1.486  0.6505  0.5119 -0.6721
  628MOL0     C86553   1.547   4.163   1.538  0.2984 -0.6186  0.0387
  628MOL0     C86554   1.655   4.205   1.447  0.4262  0.0238  0.2920
  628MOL0     C86555   1.571   4.096   1.668 -0.1913 -0.6234  0.0620
  628MOL0     C86556   1.705   4.064   1.723 -0.8322  0.0934  0.0625
  628MOL0     O86557   1.723   4.021   1.854 -0.7401  0.0151 -0.2967
  628MOL0     C86558   1.840   4.010   1.907  0.0681  0.3999 -0.5600
  628MOL0     C86559   1.864   3.885   1.969 -0.5489 -0.0772  0.5981
  628MOL0     C86560   1.988   3.859   2.030  0.1547 -0.4719 -0.2612
  628MOL0     C86561   2.082   3.961   2.041 -0.3794 -0.3741 -0.6381
  628MOL0     O86562   2.202   3.920   2.096  0.1108  0.3735 -0.6784
  628MOL0     C86563   2.305   4.021   2.128  0.1561 -0.0717 -1.2159
  628MOL0     C86564   2.395   3.981   2.243 -0.5362 -0.8024  0.3383
  628MOL0     C86565   2.456   3.848   2.211 -0.5623  0.2521 -0.4651
  628MOL0     C86566   2.587   3.815   2.287 -0.4168 -0.8373 -0.4444
  628MOL0     C86567   2.561   3.760   2.430 -0.1441  0.4838 -0.0580
  628MOL0     C86568   2.689   3.760   2.513 -0.3852 -0.5967 -0.3788
  628MOL0     C86569   2.667   3.684   2.645  0.0303 -0.3364 -0.0830
  628MOL0     C86570   2.793   3.622   2.698 -0.4487 -1.1100 -0.8931
  628MOL0    Cl86571   2.892   3.516   2.571  0.1500 -0.4205  0.4797
  628MOL0     C86572   2.053   4.088   1.985  0.7299 -0.6345  0.2192
  628MOL0     C86573   1.934   4.112   1.912 -0.1306 -0.9262  0.0930
  628MOL0     O86574   1.794   4.084   1.644 -0.1499 -0.2631  0.2015
  628MOL0     C86575   1.456   4.038   1.730 -0.3967 -0.1499  0.2603
  628MOL0     C86576   1.334   4.038   1.661  0.1239 -0.4394 -0.3977
  628MOL0     N86577   0.605   4.393   1.395 -2.0058 -0.3706  0.3069
  628MOL0     N86578   0.603   4.519   1.368 -0.2667 -0.8617 -0.0898
  628MOL0     C86579   1.400   5.311   1.010 -0.0673 -0.2840 -0.3230
  628MOL0     C86580   1.505   5.403   0.979 -0.0348 -0.1243  0.3247
  628MOL0     C86581   1.746   5.739   0.865  0.2487 -0.7477  0.8132
  628MOL0     C86582   1.749   5.755   0.727  0.6358 -0.1498 -0.1547
  628MOL0     C86583   1.857   5.818   0.665 -0.3866 -0.4792 -0.4939
  628MOL0     C86584   1.971   5.876   0.738 -0.7320  0.4075  1.0231
  628MOL0     O86585   2.086   5.924   0.682  0.2520  0.1797 -0.1878
  628MOL0     C86586   2.163   5.813   0.635  0.0904  1.2116 -0.3847
  628MOL0     C86587   2.303   5.850   0.567 -0.1315  0.2481  0.2950
  628MOL0     C86588   2.404   5.743   0.577  0.1683  0.2317  0.0397
  628MOL0     C86589   2.525   5.743   0.473  0.8035 -0.1448  0.6463
  628MOL0     C86590   2.614   5.858   0.482  0.7187  0.3145  0.9100
  628MOL0     C86591   2.699   5.947   0.484  0.3521 -0.0189  1.3783
  628MOL0     C86592   1.944   5.890   0.879 -0.5188 -0.8587 -0.1902
  628MOL0     C86593   1.841   5.814   0.943  0.7687  0.4612 -0.4294
  628MOL0     C86594   1.844   5.806   1.096 -0.7896  0.5377  0.2354
  628MOL0     H86595   1.387   5.497   0.672 -0.6908  1.9330  0.7430
  628MOL0     H86596   1.207   5.348   0.742 -0.3922  2.1680  0.7404
  628MOL0     H86597   1.010   5.287   0.946 -0.9007 -0.5443  0.7940
  628MOL0     H86598   1.124   5.368   1.055  2.6966 -0.7826  1.7773
  628MOL0     H86599   1.137   5.219   1.216  0.9444 -1.0122 -0.8469
  628MOL0     H86600   0.964   5.248   1.191  0.2141  0.2063  0.6646
  628MOL0     H86601   0.969   5.031   1.045  0.3848 -3.9186 -0.2829
  628MOL0     H86602   1.124   5.005   1.125  0.2560  0.0785 -3.1578
  628MOL0     H86603   1.001   4.991   1.333 -1.4299 -0.8491  1.0076
  628MOL0     H86604   0.850   5.056   1.247  1.1838  1.3395 -2.0736
  628MOL0     H86605   0.989   4.807   1.135 -1.2831 -3.3851  0.7550
  628MOL0     H86606   0.834   4.874   1.109  0.0677  1.8701  0.0182
  628MOL0     H86607   0.869   4.663   1.270 -2.4614 -0.0575 -0.6344
  628MOL0     H86608   0.914   4.785   1.395 -0.8689 -0.3677  0.6035
  628MOL0     H86609   0.652   4.791   1.254 -1.2038 -1.3104  1.1135
  628MOL0     H86610   0.719   4.913   1.360 -1.4300 -1.0096  0.1196
  628MOL0     H86611   0.759   4.759   1.549 -1.1733  1.3086  0.4019
  628MOL0     H86612   0.593   4.788   1.503 -2.0877 -1.3716 -1.7184
  628MOL0     H86613   0.820   4.534   1.621  1.2980  2.6812 -0.0312
  628MOL0     H86614   0.709   4.190   1.509 -1.2975  1.5308  1.1491
  628MOL0     H86615   0.730   4.255   1.665 -1.3435  0.9476 -0.0788
  628MOL0     H86616   0.966   4.318   1.623  4.7039 -2.8001 -0.3217
  628MOL0     H86617   0.932   4.142   1.611  1.2992 -0.3797 -0.6582
  628MOL0     H86618   0.938   4.178   1.359 -1.8448  2.8288 -1.4972
  628MOL0     H86619   0.958   4.344   1.376 -1.5135 -0.7149 -1.4325
  628MOL0     H86620   1.183   4.230   1.341  0.8231 -0.9916 -0.6960
  628MOL0     H86621   1.178   4.328   1.480  1.0443 -0.5298 -0.1788
  628MOL0     H86622   1.389   4.232   1.393  0.2022 -0.8074 -1.3008
  628MOL0     H86623   1.705   4.119   1.401  2.3214  1.1862  0.0980
  628MOL0     H86624   1.731   4.268   1.493  2.8717 -1.7042 -1.1432
  628MOL0     H86625   1.608   4.274   1.376  2.5477  0.2289 -0.9808
  628MOL0     H86626   1.782   3.819   1.943 -2.5030  2.7037 -0.9801
  628MOL0     H86627   2.005   3.755   2.058 -2.8868 -1.1828 -0.7517
  628MOL0     H86628   2.356   4.030   2.031  0.5233 -2.6951 -1.3224
  628MOL0     H86629   2.253   4.114   2.155  0.7439 -0.1583  0.2938
  628MOL0     H86630   2.472   4.060   2.244 -1.8557  0.5400 -0.3597
  628MOL0     H86631   2.348   3.985   2.342  0.2643  0.8157  0.6926
  628MOL0     H86632   2.477   3.851   2.104 -1.1025  0.0716 -0.5794
  628MOL0     H86633   2.388   3.766   2.232  1.1856 -1.3615 -0.8491
  628MOL0     H86634   2.643   3.907   2.304  1.1670 -0.7058 -4.9799
  628MOL0     H86635   2.645   3.751   2.220  2.4598 -1.8615  2.7672
  628MOL0     H86636   2.488   3.822   2.482 -1.1378 -2.0564  1.8055
  628MOL0     H86637   2.521   3.659   2.443 -0.9802  1.2049  4.1860
  628MOL0     H86638   2.721   3.862   2.537 -0.8955 -0.2443 -1.1526
  628MOL0     H86639   2.776   3.724   2.458  1.1075  0.3019  1.2734
  628MOL0     H86640   2.593   3.607   2.623  0.9703 -1.0445 -0.8198
  628MOL0     H86641   2.630   3.763   2.711 -2.5658 -0.7536 -0.9461
  628MOL0     H86642   2.779   3.562   2.788  3.3991  1.2902  1.5857
  628MOL0     H86643   2.850   3.705   2.740 -2.6858 -0.7893  1.8246
  628MOL0     H86644   2.125   4.169   1.991  0.0942  0.3262 -3.3291
  628MOL0     H86645   1.920   4.202   1.853  2.6414 -1.0552 -0.9356
  628MOL0     H86646   1.461   3.981   1.822 -0.8156 -0.3568  0.1595
  628MOL0     H86647   1.252   3.979   1.700  0.8388 -2.1303 -1.3841
  628MOL0     H86648   1.393   5.267   1.110 -1.3883  0.6994  0.0385
  628MOL0     H86649   1.592   5.413   1.043  0.7598 -1.9394 -0.4137
  628MOL0     H86650   1.682   5.701   0.662  0.7153  0.1890 -0.5169
  628MOL0     H86651   1.878   5.804   0.559 -0.0765  1.5400 -0.7342
  628MOL0     H86652   2.189   5.749   0.720  4.5348  0.4938 -2.0410
  628MOL0     H86653   2.101   5.749   0.571 -1.1605  0.2238  1.6934
  628MOL0     H86654   2.347   5.936   0.619  1.8429 -0.0795 -0.7570
  628MOL0     H86655   2.287   5.875   0.462  0.2943  0.3830  0.2598
  628MOL0     H86656   2.448   5.745   0.677 -0.8406 -0.4575  0.5081
  628MOL0     H86657   2.363   5.642   0.577 -0.7688  0.5176 -2.7352
  628MOL0     H86658   2.477   5.747   0.375 -2.8319  3.4525  2.2611
  628MOL0     H86659   2.576   5.647   0.487 -1.1996 -1.4447 -0.5239
  628MOL0     H86660   2.782   6.013   0.502  0.7277 -0.1897  0.3123
  628MOL0     H86661   2.011   5.942   0.946 -0.3377 -1.3252 -0.0082
  628MOL0     H86662   1.757   5.860   1.135 -1.0794 -0.0937  0.4741
  628MOL0     H86663   1.839   5.699   1.119  0.4984  0.3387 -0.3106
  628MOL0     H86664   1.929   5.851   1.149 -1.2114  1.3331  0.2544
  629MOL0     O86665   0.743   4.634   2.404  0.0029  0.2782 -0.3485
  629MOL0     C86666   0.794   4.730   2.340 -0.7890 -0.1180 -0.1506
  629MOL0     O86667   0.728   4.844   2.303  0.0681  0.0706  0.1431
  629MOL0     C86668   0.602   4.869   2.341  1.2267 -0.0127  0.3893
  629MOL0     C86669   0.545   4.828   2.471  1.0604 -0.7727 -1.0072
  629MOL0     C86670   0.418   4.881   2.500  0.6837 -0.1433 -0.0526
  629MOL0     C86671   0.337   4.958   2.410  0.2113 -0.3244 -0.6300
  629MOL0     O86672   0.218   5.015   2.438 -0.2461 -0.4389 -0.9273
  629MOL0     C86673   0.112   4.939   2.505  0.3643 -0.1588  0.9831
  629MOL0     C86674   0.069   4.824   2.411 -0.6520  0.1484 -0.8252
  629MOL0     C86675  -0.068   4.769   2.441  0.3896 -0.0276  0.0759
  629MOL0     C86676  -0.081   4.632   2.376 -0.1300 -0.2249 -0.1504
  629MOL0     C86677  -0.226   4.579   2.397 -0.2081  0.0748  0.2527
  629MOL0     C86678  -0.235   4.447   2.330  0.5740  0.1150  0.2510
  629MOL0     C86679  -0.378   4.385   2.360  0.1228 -0.0828  0.2010
  629MOL0     C86680  -0.476   4.432   2.247 -0.3814 -0.7665 -0.0925
  629MOL0     N86681  -0.601   4.366   2.247  0.0562  0.2000  0.2162
  629MOL0     C86682  -0.618   4.229   2.282  0.0036 -0.8859  0.1549
  629MOL0     C86683  -0.751   4.213   2.294  0.3327 -0.8083 -0.1476
  629MOL0     C86684  -0.807   4.075   2.312 -0.7627  0.3849  0.7026
  629MOL0     C86685  -0.927   4.075   2.404  0.1487  0.6186 -0.1680
  629MOL0     C86686  -0.931   3.950   2.501  0.5822 -0.2519 -0.1855
  629MOL0     C86687  -1.024   3.983   2.619 -0.4845 -0.5119 -0.0418
  629MOL0     O86688  -0.958   4.071   2.711  0.4200  0.0500  0.0457
  629MOL0     C86689  -1.036   4.133   2.809 -0.0734 -1.1656  0.4321
  629MOL0     C86690  -1.166   4.079   2.858 -0.0889 -0.1412  0.0564
  629MOL0     C86691  -1.241   4.155   2.947  0.2403  0.7745  0.6297
  629MOL0     C86692  -1.373   4.101   2.988 -0.1196  0.0380  0.3649
  629MOL0     C86693  -1.179   4.272   3.007 -0.1984  1.2423  0.3902
  629MOL0     C86694  -1.256   4.354   3.104  0.7488  0.3448  0.5390
  629MOL0     O86695  -1.343   4.287   3.186  0.2532 -0.1480 -0.3057
  629MOL0     C86696  -1.414   4.360   3.282 -1.3752 -0.3993  1.0059
  629MOL0     C86697  -1.354   4.397   3.412  0.0303  0.5033 -0.1992
  629MOL0     C86698  -1.426   4.455   3.516  0.8538  1.0955  0.0202
  629MOL0     C86699  -1.563   4.490   3.500 -0.3068  0.9307 -0.2543
  629MOL0     O86700  -1.633   4.542   3.600  0.2224  0.1114 -0.9384
  629MOL0     C86701  -1.771   4.557   3.605  0.1596 -0.2420  0.3372
  629MOL0     C86702  -1.827   4.613   3.735 -0.0755 -0.4637  0.4456
  629MOL0     C86703  -1.825   4.506   3.849  0.2213  0.7236 -0.3807
  629MOL0     C86704  -1.874   4.548   3.981 -0.1036  0.3606 -0.7673
  629MOL0     C86705  -2.029   4.557   3.993  1.0170 -1.0024 -0.9705
  629MOL0     C86706  -2.076   4.520   4.128  1.0189 -0.3975 -0.4421
  629MOL0     C86707  -2.009   4.588   4.251  0.4969 -0.4909 -0.0506
  629MOL0     C86708  -2.073   4.562   4.389 -0.3236  0.2202  0.0060
  629MOL0    Cl86709  -2.094   4.384   4.410  0.3640 -0.5080  0.5236
  629MOL0     C86710  -1.616   4.468   3.368  1.0212 -0.3285 -0.7293
  629MOL0     C86711  -1.544   4.402   3.260  0.3861 -0.2049 -0.3065
  629MOL0     O86712  -1.233   4.472   3.112 -0.3565  0.2305 -0.0999
  629MOL0     C86713  -1.048   4.316   2.969  0.9150 -0.2593 -0.2748
  629MOL0     C86714  -0.978   4.243   2.872  0.0223 -0.0226 -0.7274
  629MOL0     N86715  -0.814   4.346   2.276  0.9207  0.4317  0.6176
  629MOL0     N86716  -0.723   4.430   2.277  0.0327  0.1374 -0.4512
  629MOL0     C86717   0.397   4.990   2.290  0.8849  0.4833 -0.2430
  629MOL0     C86718   0.525   4.954   2.251 -0.2743 -0.0406  0.7195
  629MOL0     C86719   0.934   4.706   2.297  0.2658 -0.1399  0.0736
  629MOL0     C86720   0.978   4.798   2.198  0.1204  0.7918  0.4817
  629MOL0     C86721   1.105   4.784   2.141 -0.0290 -0.0051  0.4921
  629MOL0     C86722   1.204   4.703   2.192  0.8232  0.3541  0.0751
  629MOL0     O86723   1.334   4.718   2.143  0.4222  0.3059  0.3610
  629MOL0     C86724   1.420   4.601   2.169 -0.4933  0.3643 -0.5947
  629MOL0     C86725   1.525   4.602   2.290 -0.3210 -0.8209  0.4350
  629MOL0     C86726   1.647   4.681   2.255  0.3252 -0.1710  0.4199
  629MOL0     C86727   1.714   4.759   2.368 -1.3138  0.1282 -0.6958
  629MOL0     C86728   1.756   4.686   2.483 -0.8797  0.5095 -0.4859
  629MOL0     C86729   1.763   4.629   2.590  0.1298 -0.4234 -0.1573
  629MOL0     C86730   1.163   4.615   2.294  0.0034  0.6032 -0.0547
  629MOL0     C86731   1.026   4.609   2.340 -0.8380  0.8578  0.3417
  629MOL0     C86732   0.995   4.491   2.431  0.9532 -0.6165 -0.1145
  629MOL0     H86733   0.598   4.772   2.547  1.9309  0.7596 -0.4455
  629MOL0     H86734   0.388   4.844   2.597 -1.3819 -0.0788 -0.6335
  629MOL0     H86735   0.030   5.006   2.535  1.0542  0.9599  0.4280
  629MOL0     H86736   0.155   4.890   2.592  2.5656 -0.0694 -0.0086
  629MOL0     H86737   0.074   4.849   2.305 -0.1778 -0.5651 -0.9821
  629MOL0     H86738   0.144   4.747   2.430  1.8745  2.3510 -1.3074
  629MOL0     H86739  -0.082   4.766   2.549  0.1567 -3.2954  0.0540
  629MOL0     H86740  -0.142   4.840   2.401  1.3102 -0.0986 -1.8770
  629MOL0     H86741  -0.056   4.653   2.272  0.7409 -0.8811 -0.0852
  629MOL0     H86742  -0.006   4.571   2.427  0.4331  1.3686  1.0114
  629MOL0     H86743  -0.290   4.650   2.344 -1.8505 -2.8951 -2.0381
  629MOL0     H86744  -0.257   4.578   2.502  1.3849  1.0900  0.7806
  629MOL0     H86745  -0.230   4.468   2.223  1.2218 -0.2982  0.1965
  629MOL0     H86746  -0.160   4.369   2.340 -0.1940 -1.3404 -3.5954
  629MOL0     H86747  -0.422   4.407   2.458  0.0825 -1.4907  0.5315
  629MOL0     H86748  -0.379   4.276   2.348 -1.9494 -0.3421  2.0059
  629MOL0     H86749  -0.495   4.538   2.267  0.2304 -0.6925  0.1375
  629MOL0     H86750  -0.424   4.417   2.152  0.4076  2.6121 -0.3314
  629MOL0     H86751  -0.539   4.154   2.284  0.2748 -0.6254 -0.4802
  629MOL0     H86752  -0.730   4.012   2.357 -1.6850  0.1823  2.0605
  629MOL0     H86753  -0.829   4.030   2.215 -0.5005  0.5231  0.5783
  629MOL0     H86754  -0.919   4.162   2.471 -0.9695 -0.8664  2.0354
  629MOL0     H86755  -1.014   4.081   2.339  0.6015 -1.6030 -1.0532
  629MOL0     H86756  -0.986   3.870   2.450 -0.9035  0.0504  0.8491
  629MOL0     H86757  -0.837   3.901   2.528 -0.1977 -1.7817 -0.0883
  629MOL0     H86758  -1.128   4.009   2.599 -1.2364 -3.4193 -0.4437
  629MOL0     H86759  -1.047   3.886   2.664 -1.5449 -0.7538 -1.0841
  629MOL0     H86760  -1.201   3.983   2.820  0.7546 -0.1858 -0.6399
  629MOL0     H86761  -1.448   4.180   2.997  0.5296  0.7343 -0.1756
  629MOL0     H86762  -1.357   4.046   3.081  2.2005  1.6644  1.0145
  629MOL0     H86763  -1.411   4.030   2.914 -1.8661 -0.1885  1.4230
  629MOL0     H86764  -1.256   4.354   3.433 -0.7422 -1.5146 -0.4935
  629MOL0     H86765  -1.383   4.450   3.616 -0.2037  1.2396  0.4923
  629MOL0     H86766  -1.819   4.618   3.528 -0.0193 -0.5214  0.2225
  629MOL0     H86767  -1.814   4.457   3.591 -1.2131  0.5477 -1.5899
  629MOL0     H86768  -1.775   4.704   3.766 -0.0672 -0.1831 -0.3584
  629MOL0     H86769  -1.933   4.635   3.723 -0.4974 -1.8222  1.3926
  629MOL0     H86770  -1.720   4.477   3.847  0.9214  2.2658  3.6998
  629MOL0     H86771  -1.888   4.419   3.827 -1.3023  1.4214  1.0077
  629MOL0     H86772  -1.833   4.646   4.008 -1.5193  0.0557  3.0383
  629MOL0     H86773  -1.839   4.475   4.055 -0.7464 -0.2011 -1.0085
  629MOL0     H86774  -2.060   4.659   3.968 -0.8562 -1.2719  0.0979
  629MOL0     H86775  -2.088   4.495   3.926 -1.3985 -0.3472  0.4294
  629MOL0     H86776  -2.067   4.414   4.150 -0.8394  0.3606  5.7646
  629MOL0     H86777  -2.183   4.542   4.119  1.6182  2.2472 -2.6257
  629MOL0     H86778  -1.984   4.694   4.236 -0.8450 -0.0120  0.8873
  629MOL0     H86779  -1.914   4.535   4.254 -0.4241 -2.3377 -1.3391
  629MOL0     H86780  -2.172   4.610   4.387  0.0020  0.9950  1.4229
  629MOL0     H86781  -2.012   4.594   4.473 -0.6653 -1.3166  0.8758
  629MOL0     H86782  -1.709   4.513   3.335  0.5451 -1.2952 -0.7439
  629MOL0     H86783  -1.603   4.383   3.171 -0.6354  0.4175  0.2064
  629MOL0     H86784  -0.992   4.402   3.005 -0.9053  1.4372 -1.3479
  629MOL0     H86785  -0.873   4.263   2.852  0.5639 -1.3170  0.6240
  629MOL0     H86786   0.344   5.053   2.219 -0.2890  0.5881  0.6768
  629MOL0     H86787   0.583   4.977   2.163 -1.1595  0.6892  0.3090
  629MOL0     H86788   0.918   4.871   2.145 -0.0592 -1.4750 -2.7704
  629MOL0     H86789   1.149   4.850   2.067 -0.1427 -2.1889 -1.6590
  629MOL0     H86790   1.355   4.514   2.183  0.5028 -0.7837 -2.7087
  629MOL0     H86791   1.485   4.588   2.082  2.4103  2.9007  0.9583
  629MOL0     H86792   1.543   4.498   2.321  1.7872 -0.7792 -0.4950
  629MOL0     H86793   1.486   4.660   2.374  0.3983  1.6153 -0.8412
  629MOL0     H86794   1.725   4.620   2.208  0.6987  0.2157  0.5261
  629MOL0     H86795   1.622   4.762   2.186  1.5777 -0.1786 -0.0632
  629MOL0     H86796   1.640   4.834   2.396  0.1297  1.9220 -1.4585
  629MOL0     H86797   1.798   4.820   2.334 -0.4008 -0.2585  0.7722
  629MOL0     H86798   1.779   4.573   2.680  1.1696 -1.4690 -0.9740
  629MOL0     H86799   1.232   4.550   2.346  0.3333 -1.7526 -3.1243
  629MOL0     H86800   0.944   4.516   2.525  0.1146 -2.2055 -0.1045
  629MOL0     H86801   0.915   4.438   2.378  0.7442 -0.7370  0.3137
  629MOL0     H86802   1.084   4.428   2.436  0.1398 -2.0316 -2.0873
  630MOL0     O86803   0.322   8.749   8.844  0.0225 -0.1256  0.7793
  630MOL0     C86804   0.318   8.715   8.966  0.1635 -0.5928  0.3681
  630MOL0     O86805   0.216   8.649   9.021  0.8407 -0.1434 -0.7659
  630MOL0     C86806   0.105   8.623   8.953 -0.2447  0.1071  0.3691
  630MOL0     C86807   0.072   8.490   8.937 -0.6263 -1.2411  1.3692
  630MOL0     C86808  -0.035   8.450   8.854  0.3351 -0.3034 -0.5541
  630MOL0     C86809  -0.114   8.549   8.791  0.3958 -0.2777  0.2406
  630MOL0     O86810  -0.229   8.524   8.722 -0.1927 -0.3674  0.3929
  630MOL0     C86811  -0.270   8.383   8.700  0.0744  0.5326 -0.5013
  630MOL0     C86812  -0.403   8.366   8.622 -0.2401  0.2398 -0.5593
  630MOL0     C86813  -0.434   8.215   8.600  1.3831  0.0205 -0.3958
  630MOL0     C86814  -0.591   8.194   8.589  0.3324  0.1287 -0.0210
  630MOL0     C86815  -0.624   8.048   8.588 -0.6701  0.4273  0.3449
  630MOL0     C86816  -0.764   8.021   8.560 -0.1853 -0.1939  1.1841
  630MOL0     C86817  -0.809   7.872   8.562  0.2086  0.3005  0.0723
  630MOL0     C86818  -0.953   7.878   8.566  0.4203  0.2108 -0.3697
  630MOL0     N86819  -1.017   7.741   8.552  0.0712 -1.0344  0.1402
  630MOL0     C86820  -1.014   7.634   8.632  0.7878  0.5637 -0.3252
  630MOL0     C86821  -1.095   7.537   8.575 -0.4362  0.3504  0.4547
  630MOL0     C86822  -1.108   7.393   8.619 -0.6738 -0.6402  0.7654
  630MOL0     C86823  -1.235   7.375   8.700  0.2227  0.2523 -0.3442
  630MOL0     C86824  -1.373   7.415   8.627 -0.7069 -0.1273  0.3898
  630MOL0     C86825  -1.401   7.324   8.509  0.0314 -0.0298 -0.3306
  630MOL0     O86826  -1.395   7.182   8.531 -1.1877  0.0369  0.0316
  630MOL0     C86827  -1.461   7.094   8.623 -0.4093  0.5093 -0.1274
  630MOL0     C86828  -1.580   7.124   8.695 -0.7018  0.3874  0.0879
  630MOL0     C86829  -1.645   7.022   8.775 -0.4313 -0.0527  0.9164
  630MOL0     C86830  -1.779   7.057   8.835  0.6029  0.6172  0.0329
  630MOL0     C86831  -1.583   6.890   8.772  0.9875  0.3663 -1.1461
  630MOL0     C86832  -1.654   6.766   8.839 -0.4440  0.3705 -0.9788
  630MOL0     O86833  -1.570   6.656   8.856  0.2348  0.3251  0.2483
  630MOL0     C86834  -1.621   6.531   8.884 -0.0032 -0.1389  0.8462
  630MOL0     C86835  -1.719   6.506   8.981 -0.3424  0.0931 -0.0422
  630MOL0     C86836  -1.781   6.382   9.009 -0.4262 -0.7206  0.9457
  630MOL0     C86837  -1.741   6.277   8.924  0.2026  0.1729  0.1815
  630MOL0     O86838  -1.801   6.156   8.947 -0.9471 -0.3681  0.3220
  630MOL0     C86839  -1.929   6.144   8.887 -0.1732  0.2889 -0.3445
  630MOL0     C86840  -1.962   5.993   8.898  0.4930  0.7418  0.3945
  630MOL0     C86841  -2.088   5.974   8.832  0.0145 -0.3278  0.0462
  630MOL0     C86842  -2.117   5.826   8.813  0.2470  0.1317  0.3601
  630MOL0     C86843  -2.249   5.806   8.735 -0.3600  0.0024  0.2039
  630MOL0     C86844  -2.276   5.670   8.684 -0.0415 -0.3279  0.1754
  630MOL0     C86845  -2.223   5.651   8.542  0.0368  0.3180  0.2102
  630MOL0     C86846  -2.309   5.544   8.475 -0.3500 -0.3304  0.7806
  630MOL0    Cl86847  -2.220   5.519   8.324 -0.1440  0.2034  0.5910
  630MOL0     C86848  -1.638   6.291   8.831 -0.2878  0.5508  0.7443
  630MOL0     C86849  -1.576   6.419   8.808 -0.1470 -0.0354  0.0559
  630MOL0     O86850  -1.775   6.762   8.861  0.1728 -0.1255 -0.3029
  630MOL0     C86851  -1.455   6.868   8.714  0.2308 -0.0590  0.8995
  630MOL0     C86852  -1.402   6.970   8.640  0.7556  1.1633  0.0065
  630MOL0     N86853  -1.141   7.584   8.459 -0.4668 -0.3700  0.1612
  630MOL0     N86854  -1.107   7.708   8.445 -0.1307  0.4435 -0.3689
  630MOL0     C86855  -0.080   8.685   8.809  0.1904  0.1859 -0.2438
  630MOL0     C86856   0.027   8.728   8.891  1.1351 -0.1770 -0.4492
  630MOL0     C86857   0.443   8.756   9.052  0.0815  0.7634  0.3636
  630MOL0     C86858   0.529   8.850   8.996  0.4794  0.1301  1.0300
  630MOL0     C86859   0.642   8.899   9.063 -0.1934  0.6698  0.4922
  630MOL0     C86860   0.673   8.848   9.191 -0.1736 -0.5767 -0.6089
  630MOL0     O86861   0.773   8.899   9.269  0.4359  0.3076  0.5617
  630MOL0     C86862   0.894   8.818   9.269  0.2751 -0.5099  0.6785
  630MOL0     C86863   0.991   8.875   9.157  0.4215  0.3587 -0.3009
  630MOL0     C86864   0.993   9.033   9.127  0.6800  0.4512 -1.5658
  630MOL0     C86865   1.115   9.059   9.039  0.1164 -0.8250 -0.3534
  630MOL0     C86866   1.122   9.206   9.017 -0.0753  0.0402 -0.0531
  630MOL0     C86867   1.125   9.328   9.010 -0.0783 -0.6253  0.0527
  630MOL0     C86868   0.590   8.756   9.250 -0.1543  0.1753 -0.9018
  630MOL0     C86869   0.474   8.703   9.177  0.4528 -0.0910  0.7238
  630MOL0     C86870   0.378   8.624   9.264  0.1708 -0.1942  0.2041
  630MOL0     H86871   0.142   8.416   8.974  3.3888  2.3075  1.7548
  630MOL0     H86872  -0.055   8.344   8.843  0.3431 -0.4571  0.8185
  630MOL0     H86873  -0.280   8.332   8.797 -0.9334  1.7850  0.0900
  630MOL0     H86874  -0.184   8.344   8.645  0.3791  0.3473  0.0988
  630MOL0     H86875  -0.477   8.403   8.693  0.5445  1.0457 -0.1356
  630MOL0     H86876  -0.410   8.428   8.532  1.8061  0.3240 -0.7267
  630MOL0     H86877  -0.386   8.180   8.509  0.6907 -2.4951  0.1207
  630MOL0     H86878  -0.395   8.156   8.683  0.2997 -0.7158 -0.3900
  630MOL0     H86879  -0.647   8.238   8.671  1.0546  1.9936 -0.4789
  630MOL0     H86880  -0.632   8.248   8.503 -2.7729 -0.9185  0.6751
  630MOL0     H86881  -0.599   8.008   8.687  2.4455  0.6705 -0.2381
  630MOL0     H86882  -0.566   7.991   8.515 -2.2875 -0.3537 -0.3943
  630MOL0     H86883  -0.815   8.082   8.635  4.1909  2.2413  2.5239
  630MOL0     H86884  -0.785   8.051   8.457 -0.4747 -2.4445  0.5304
  630MOL0     H86885  -0.775   7.820   8.652  2.5173  1.5491 -0.0122
  630MOL0     H86886  -0.766   7.818   8.477 -1.5581 -3.6107  1.3935
  630MOL0     H86887  -0.985   7.913   8.665  2.7977  1.0936  0.1362
  630MOL0     H86888  -0.992   7.929   8.478 -0.2229 -2.2711 -1.6169
  630MOL0     H86889  -0.968   7.624   8.730  0.6333 -4.0329 -0.5119
  630MOL0     H86890  -1.019   7.364   8.675  1.1960  1.3193 -0.9886
  630MOL0     H86891  -1.109   7.341   8.523 -0.7639 -0.3715  0.6188
  630MOL0     H86892  -1.231   7.272   8.737 -2.1297  0.1996 -0.0582
  630MOL0     H86893  -1.216   7.434   8.790  0.0592  0.5351 -0.4942
  630MOL0     H86894  -1.458   7.406   8.696 -2.5813 -2.1257 -1.9832
  630MOL0     H86895  -1.372   7.518   8.588 -2.5857 -0.3819 -0.4840
  630MOL0     H86896  -1.502   7.344   8.472  0.3654 -1.0746 -1.9453
  630MOL0     H86897  -1.330   7.354   8.432  3.2062  4.3847  3.7269
  630MOL0     H86898  -1.626   7.222   8.690  0.6552  0.9980 -2.6985
  630MOL0     H86899  -1.796   6.996   8.925 -1.6362 -0.5243 -1.0721
  630MOL0     H86900  -1.856   7.037   8.760  0.9966 -0.0250 -0.2110
  630MOL0     H86901  -1.798   7.163   8.854  3.5456  1.6511 -2.0733
  630MOL0     H86902  -1.744   6.589   9.046  0.8807  1.5073 -1.2923
  630MOL0     H86903  -1.848   6.363   9.092 -0.1138  1.4369  1.7755
  630MOL0     H86904  -2.010   6.191   8.944 -1.3176 -0.1883 -1.5413
  630MOL0     H86905  -1.934   6.165   8.780  0.4143  2.8963  0.0715
  630MOL0     H86906  -1.882   5.939   8.847  0.4598  1.3311 -0.3039
  630MOL0     H86907  -1.969   5.953   9.000 -0.1232 -1.8496 -0.5689
  630MOL0     H86908  -2.091   6.014   8.731 -1.3588  0.1520  0.2666
  630MOL0     H86909  -2.167   6.027   8.887  0.7410  0.0304  0.7811
  630MOL0     H86910  -2.130   5.784   8.913 -0.4177  1.3574  0.8157
  630MOL0     H86911  -2.033   5.776   8.764  1.4020  2.0916  0.2537
  630MOL0     H86912  -2.332   5.832   8.801 -0.1591 -0.1866  0.5373
  630MOL0     H86913  -2.243   5.880   8.655 -1.0800  1.5609  1.5234
  630MOL0     H86914  -2.385   5.659   8.682 -0.2097  0.3766  2.5763
  630MOL0     H86915  -2.238   5.589   8.747 -0.0248 -1.3019 -1.0365
  630MOL0     H86916  -2.117   5.627   8.538 -0.3130 -1.0963 -1.3791
  630MOL0     H86917  -2.240   5.741   8.481  1.4420  0.6469  0.2711
  630MOL0     H86918  -2.414   5.572   8.468 -0.0621  0.4965 -0.5875
  630MOL0     H86919  -2.297   5.450   8.528 -1.0894 -0.2872  1.0303
  630MOL0     H86920  -1.622   6.212   8.759 -0.3935  2.3703 -1.3662
  630MOL0     H86921  -1.499   6.424   8.732 -0.2533 -1.2144 -0.1449
  630MOL0     H86922  -1.406   6.771   8.705  0.6054  0.3152 -2.5223
  630MOL0     H86923  -1.321   6.940   8.575 -0.6035 -2.4102 -0.3204
  630MOL0     H86924  -0.150   8.758   8.770 -1.5105 -1.0941  0.2923
  630MOL0     H86925   0.055   8.828   8.924 -0.0294 -0.7378  2.5585
  630MOL0     H86926   0.516   8.890   8.896 -0.4283 -0.5774  0.8472
  630MOL0     H86927   0.689   8.983   9.012 -0.6677  0.6076 -0.0563
  630MOL0     H86928   0.929   8.830   9.372  1.0531  1.2200  0.2545
  630MOL0     H86929   0.867   8.713   9.256  0.0135 -0.3144 -0.4930
  630MOL0     H86930   0.966   8.823   9.064  1.9658 -0.0987 -0.4797
  630MOL0     H86931   1.094   8.842   9.171  1.1172  2.3115 -0.4387
  630MOL0     H86932   0.900   9.068   9.080  0.1905 -0.1820 -1.0832
  630MOL0     H86933   1.005   9.086   9.222 -2.9489  0.6636 -1.0867
  630MOL0     H86934   1.120   9.015   8.940  2.9273 -0.6479 -0.3548
  630MOL0     H86935   1.194   9.014   9.099  1.2559 -0.1076 -1.2786
  630MOL0     H86936   1.128   9.435   9.001  1.4068 -0.4498  2.0278
  630MOL0     H86937   0.612   8.727   9.353  1.4853 -4.0394 -2.2269
  630MOL0     H86938   0.425   8.616   9.362 -0.6988 -3.1246  0.4678
  630MOL0     H86939   0.273   8.656   9.269 -0.3540 -1.6274 -0.9281
  630MOL0     H86940   0.373   8.522   9.226 -3.4673  0.1629 -0.6711
  631MOL0     O86941   0.623   1.273   8.672  0.6833 -0.0249 -0.7154
  631MOL0     C86942   0.510   1.268   8.733 -0.1257  0.0678  0.5556
  631MOL0     O86943   0.487   1.216   8.855  0.1935 -0.0296  0.2016
  631MOL0     C86944   0.600   1.161   8.922 -0.1882 -0.4409 -0.9141
  631MOL0     C86945   0.612   1.190   9.059 -0.0759 -0.6962  0.0068
  631MOL0     C86946   0.707   1.123   9.138 -0.3298 -0.4573 -0.3495
  631MOL0     C86947   0.783   1.021   9.075  0.2561 -0.2610 -0.1552
  631MOL0     O86948   0.880   0.952   9.148 -0.3722  0.2113  0.0863
  631MOL0     C86949   0.927   0.828   9.101 -0.1332 -0.3046 -0.2774
  631MOL0     C86950   1.017   0.763   9.202  0.8247 -1.1665 -0.3363
  631MOL0     C86951   1.144   0.849   9.234  0.6571  0.9504 -0.4351
  631MOL0     C86952   1.249   0.777   9.311 -0.1516  0.1671 -0.5862
  631MOL0     C86953   1.386   0.859   9.308  0.5553 -0.0225  0.5002
  631MOL0     C86954   1.368   0.991   9.375 -0.6108 -0.5941 -0.1862
  631MOL0     C86955   1.514   1.046   9.397 -0.3192  0.3969  0.5279
  631MOL0     C86956   1.509   1.184   9.462 -1.1592  0.6208  0.3860
  631MOL0     N86957   1.648   1.205   9.502 -0.7975  0.8004 -0.0475
  631MOL0     C86958   1.692   1.193   9.633  1.0580 -0.2917  0.2563
  631MOL0     C86959   1.812   1.258   9.628  0.7237  0.0531  0.1759
  631MOL0     C86960   1.915   1.283   9.735 -0.2371 -0.0346  0.5873
  631MOL0     C86961   1.878   1.392   9.837 -0.5142  0.8826 -0.4383
  631MOL0     C86962   1.847   1.533   9.788 -0.1952 -0.5173 -0.1888
  631MOL0     C86963   1.778   1.618   9.901  0.1548  0.3111  0.4034
  631MOL0     O86964   1.836   1.596  10.032 -0.8713  0.3042 -0.6502
  631MOL0     C86965   1.928   1.683  10.087  0.2297 -0.5707  1.0621
  631MOL0     C86966   1.910   1.732  10.211 -0.3862 -0.3187 -0.5760
  631MOL0     C86967   2.014   1.816  10.258 -0.5851 -0.8617 -0.9569
  631MOL0     C86968   1.968   1.876  10.390  1.2772  0.3928  0.5401
  631MOL0     C86969   2.140   1.848  10.198 -0.0329 -0.2346  0.0637
  631MOL0     C86970   2.248   1.920  10.258 -0.1996  0.1331 -0.5127
  631MOL0     O86971   2.368   1.896  10.210 -0.5511 -0.2238  0.1189
  631MOL0     C86972   2.477   1.950  10.274 -0.2435 -0.2922  0.3257
  631MOL0     C86973   2.585   1.978  10.186  0.1504 -0.5205 -0.3666
  631MOL0     C86974   2.704   2.034  10.225 -1.4929 -0.1111 -0.6811
  631MOL0     C86975   2.723   2.076  10.356 -0.5694  0.0185 -0.5395
  631MOL0     O86976   2.829   2.147  10.400  0.3495  0.3842  1.4112
  631MOL0     C86977   2.951   2.147  10.332 -0.8862 -0.3520 -0.0987
  631MOL0     C86978   3.046   2.241  10.419  0.9823  0.4259  0.3569
  631MOL0     C86979   3.153   2.282  10.318 -1.1149  0.3745  0.1862
  631MOL0     C86980   3.293   2.311  10.391 -0.2521  0.2635  0.3816
  631MOL0     C86981   3.388   2.395  10.302 -0.0800  0.8154 -0.9949
  631MOL0     C86982   3.423   2.318  10.176  0.0387 -0.4242 -0.1224
  631MOL0     C86983   3.526   2.374  10.094  0.6135  0.6463 -0.4842
  631MOL0     C86984   3.534   2.302   9.960  0.4617 -0.2807  0.4348
  631MOL0    Cl86985   3.425   2.359   9.832  0.1808 -0.4294 -0.0553
  631MOL0     C86986   2.609   2.058  10.450 -0.8225  0.2588  1.1604
  631MOL0     C86987   2.490   1.999  10.406 -0.7167 -0.4103  0.2561
  631MOL0     O86988   2.223   2.004  10.346 -0.1951  0.5449  0.2880
  631MOL0     C86989   2.157   1.791  10.072 -0.3749 -0.6181  0.0662
  631MOL0     C86990   2.051   1.706  10.021 -1.5578  0.1618 -0.8442
  631MOL0     N86991   1.845   1.279   9.491 -0.6889  0.5689  0.8685
  631MOL0     N86992   1.746   1.255   9.419  0.2719  0.1503 -0.8350
  631MOL0     C86993   0.782   1.004   8.935  0.2494  0.2600  0.3771
  631MOL0     C86994   0.682   1.071   8.857  0.5761 -0.0593  0.2088
  631MOL0     C86995   0.398   1.320   8.653  0.0452  0.5569  0.3629
  631MOL0     C86996   0.273   1.320   8.716  0.3077 -0.0935  0.1049
  631MOL0     C86997   0.165   1.376   8.648  0.1210  0.4102 -1.2678
  631MOL0     C86998   0.175   1.428   8.525  0.2988 -0.0726 -0.8992
  631MOL0     O86999   0.076   1.481   8.441  0.1882  0.2013 -0.1547
  631MOL0     C87000  -0.057   1.507   8.488  0.0490 -0.3852  1.0375
  631MOL0     C87001  -0.132   1.597   8.392 -0.2973 -1.1436  0.0065
  631MOL0     C87002  -0.136   1.552   8.244 -0.1762 -0.8736  0.6307
  631MOL0     C87003  -0.178   1.659   8.144 -0.0724  0.3350  0.2462
  631MOL0     C87004  -0.314   1.715   8.158  0.3361 -0.0491 -0.0524
  631MOL0     C87005  -0.431   1.757   8.173 -0.1371 -0.1490 -0.0080
  631MOL0     C87006   0.300   1.431   8.464 -0.4937  0.2044  0.1401
  631MOL0     C87007   0.413   1.383   8.526 -0.2599  0.7362  0.2302
  631MOL0     C87008   0.542   1.422   8.458 -0.3643  0.4080  0.8165
  631MOL0     H87009   0.543   1.262   9.101  1.0376  1.0994 -1.1268
  631MOL0     H87010   0.705   1.158   9.241  0.5022 -0.0157 -0.4795
  631MOL0     H87011   0.992   0.857   9.019 -0.2842  1.1297  0.0869
  631MOL0     H87012   0.850   0.755   9.073 -0.9651 -0.0081  1.0952
  631MOL0     H87013   0.972   0.745   9.300  2.7304  0.3286  0.8966
  631MOL0     H87014   1.044   0.660   9.176  1.9611 -1.2712  1.1082
  631MOL0     H87015   1.191   0.884   9.142 -2.2803  1.2962 -1.9039
  631MOL0     H87016   1.106   0.935   9.291 -1.1843  0.4636 -0.8751
  631MOL0     H87017   1.227   0.753   9.416  0.7253  2.4625  0.1949
  631MOL0     H87018   1.264   0.681   9.262 -1.8155  0.1782 -1.1881
  631MOL0     H87019   1.422   0.875   9.205  1.0136 -3.1142  0.0980
  631MOL0     H87020   1.462   0.794   9.352  2.0331  2.1293  1.2997
  631MOL0     H87021   1.307   1.055   9.310 -0.0690  1.9888  1.6534
  631MOL0     H87022   1.328   0.976   9.476 -1.0184 -1.4075 -0.4630
  631MOL0     H87023   1.582   1.067   9.314  0.1596 -0.3899  0.7114
  631MOL0     H87024   1.579   0.970   9.442 -0.8904 -1.9350 -2.2589
  631MOL0     H87025   1.473   1.257   9.390  0.0647 -1.8043 -2.9541
  631MOL0     H87026   1.453   1.170   9.554 -1.2221  0.0818  0.2652
  631MOL0     H87027   1.659   1.138   9.721 -0.9012 -0.2797 -0.4257
  631MOL0     H87028   2.006   1.314   9.682 -0.6478 -1.5487 -1.1322
  631MOL0     H87029   1.933   1.194   9.796  3.6269  1.1121  1.3726
  631MOL0     H87030   1.787   1.360   9.887  0.1748 -0.1090  0.2293
  631MOL0     H87031   1.955   1.385   9.914 -0.3393 -0.1650 -0.6822
  631MOL0     H87032   1.938   1.576   9.746 -0.5377 -0.9225 -1.4048
  631MOL0     H87033   1.778   1.525   9.702 -0.2323 -1.6367 -0.0730
  631MOL0     H87034   1.769   1.724   9.874  0.1164  0.7015  1.8269
  631MOL0     H87035   1.679   1.573   9.911  0.7728 -0.9056  1.4265
  631MOL0     H87036   1.818   1.717  10.266  0.2057  2.0315  1.2454
  631MOL0     H87037   1.895   1.807  10.432  5.6862 -2.4273  4.5474
  631MOL0     H87038   1.923   1.974  10.368  1.6597 -0.4319 -6.0849
  631MOL0     H87039   2.040   1.893  10.471 -0.6712  0.0148  2.4216
  631MOL0     H87040   2.563   1.957  10.081  1.1349 -2.0579 -0.3028
  631MOL0     H87041   2.776   2.035  10.144  1.8135 -3.3135  1.9016
  631MOL0     H87042   2.992   2.045  10.333  1.5399  0.5180  2.4610
  631MOL0     H87043   2.941   2.197  10.235 -1.7462 -1.0418 -0.3823
  631MOL0     H87044   2.992   2.332  10.446 -1.0360 -1.0227  1.4439
  631MOL0     H87045   3.096   2.196  10.505  0.4307  0.3120  0.6232
  631MOL0     H87046   3.127   2.371  10.260  4.0283 -0.4654 -4.3042
  631MOL0     H87047   3.164   2.196  10.251 -2.3864 -0.8989  1.5331
  631MOL0     H87048   3.330   2.213  10.421 -1.3022 -0.5371 -0.8460
  631MOL0     H87049   3.286   2.376  10.479 -1.5822 -3.9548  3.7351
  631MOL0     H87050   3.345   2.490  10.269  0.5300  1.5642  0.2724
  631MOL0     H87051   3.476   2.413  10.365 -2.1918  1.7977  1.8439
  631MOL0     H87052   3.332   2.325  10.115  0.0165  2.3290  0.0904
  631MOL0     H87053   3.455   2.217  10.203  4.3289  0.1938 -2.0866
  631MOL0     H87054   3.620   2.357  10.147 -1.1588 -1.8544  2.1591
  631MOL0     H87055   3.505   2.478  10.067  1.7326  0.9903 -0.0794
  631MOL0     H87056   3.519   2.195   9.975  0.5833 -0.1527  1.5238
  631MOL0     H87057   3.634   2.314   9.915 -0.5293 -0.3612 -1.9726
  631MOL0     H87058   2.610   2.085  10.555  0.4985  2.2564  0.6732
  631MOL0     H87059   2.421   1.994  10.490  2.1394 -0.4783  2.7875
  631MOL0     H87060   2.255   1.778  10.027 -0.3743 -0.3241 -0.0183
  631MOL0     H87061   2.063   1.642   9.934  0.2440 -1.4256  0.4722
  631MOL0     H87062   0.853   0.939   8.884 -0.1892 -0.2403  0.3967
  631MOL0     H87063   0.668   1.033   8.757  0.1896 -0.2758  0.3415
  631MOL0     H87064   0.247   1.265   8.806 -1.2596 -1.9475 -1.3840
  631MOL0     H87065   0.075   1.385   8.708 -0.6051  3.1263 -2.6075
  631MOL0     H87066  -0.107   1.410   8.493 -0.6637 -0.0669  0.3111
  631MOL0     H87067  -0.060   1.556   8.586 -1.8396 -1.0108  1.3319
  631MOL0     H87068  -0.078   1.692   8.397  0.8036 -1.7147 -0.6756
  631MOL0     H87069  -0.236   1.618   8.417 -1.6079  0.3029 -5.3595
  631MOL0     H87070  -0.037   1.517   8.212  0.8694  0.9290  1.7375
  631MOL0     H87071  -0.208   1.469   8.241  0.0761 -1.1151  1.1304
  631MOL0     H87072  -0.169   1.624   8.041  2.1192  3.0703 -0.6477
  631MOL0     H87073  -0.105   1.739   8.162  2.2782 -2.1643  2.6713
  631MOL0     H87074  -0.520   1.813   8.190 -0.3483 -1.2348  3.0172
  631MOL0     H87075   0.306   1.459   8.360  2.6122  1.8110  0.5994
  631MOL0     H87076   0.528   1.489   8.372 -0.8500 -0.2451  0.3781
  631MOL0     H87077   0.598   1.482   8.530 -3.9612  2.6245  2.0339
  631MOL0     H87078   0.594   1.335   8.416 -1.7763  0.4556 -1.1924
  632MOL0     O87079   0.685   6.116   8.811  0.0637 -0.9418 -0.6026
  632MOL0     C87080   0.611   6.201   8.754  0.2761 -0.1730 -0.3965
  632MOL0     O87081   0.468   6.193   8.745 -0.2604  0.1209 -0.0822
  632MOL0     C87082   0.407   6.095   8.812 -0.7282 -0.1016 -0.0406
  632MOL0     C87083   0.385   6.103   8.950 -0.1570 -0.1319 -0.2022
  632MOL0     C87084   0.305   6.005   9.010 -0.1097  0.5907 -0.3594
  632MOL0     C87085   0.244   5.909   8.935  0.6441  0.2189 -0.2236
  632MOL0     O87086   0.166   5.823   9.009  0.2267  0.0713 -0.0421
  632MOL0     C87087   0.070   5.737   8.936  0.2136 -0.7034  0.6890
  632MOL0     C87088  -0.019   5.648   9.028  0.0655 -0.0404  0.6334
  632MOL0     C87089  -0.139   5.605   8.943  0.8212 -0.4156  0.4965
  632MOL0     C87090  -0.240   5.524   9.028  0.3678  0.4653 -0.2894
  632MOL0     C87091  -0.359   5.471   8.958 -0.0561 -0.7022  0.0236
  632MOL0     C87092  -0.449   5.382   9.039  0.3992  0.4454 -0.0925
  632MOL0     C87093  -0.586   5.356   8.975  0.1895 -1.2411  0.4042
  632MOL0     C87094  -0.589   5.285   8.842 -0.9253 -0.1365  1.1563
  632MOL0     N87095  -0.725   5.287   8.788  0.7107  0.0154 -0.4374
  632MOL0     C87096  -0.848   5.332   8.836  0.3978  0.3666  0.1781
  632MOL0     C87097  -0.943   5.309   8.743 -0.2091  0.8157  0.0960
  632MOL0     C87098  -1.086   5.348   8.737 -0.6104 -0.3275  1.4984
  632MOL0     C87099  -1.101   5.484   8.666  0.6929  0.5438 -0.0724
  632MOL0     C87100  -1.091   5.466   8.519  0.9126  0.3515  0.0491
  632MOL0     C87101  -1.120   5.598   8.436 -0.0579 -0.6007 -0.7960
  632MOL0     O87102  -1.250   5.640   8.478 -0.1727 -0.0509 -0.2944
  632MOL0     C87103  -1.338   5.638   8.370  0.5135 -0.1542  0.2411
  632MOL0     C87104  -1.386   5.514   8.319 -0.9171  1.3029 -0.3365
  632MOL0     C87105  -1.459   5.510   8.206  0.8263  0.2248  1.1385
  632MOL0     C87106  -1.499   5.363   8.176 -0.0823 -0.7339  0.8133
  632MOL0     C87107  -1.480   5.633   8.127  0.9701 -0.3390 -0.8432
  632MOL0     C87108  -1.541   5.638   7.999 -0.1110  0.4887 -0.5025
  632MOL0     O87109  -1.568   5.520   7.936 -0.2574 -0.1696  0.0974
  632MOL0     C87110  -1.630   5.512   7.806 -0.2518 -0.5270  0.0725
  632MOL0     C87111  -1.603   5.604   7.706  0.4097  0.4635 -0.5362
  632MOL0     C87112  -1.667   5.600   7.583 -0.4336  0.5218 -0.3538
  632MOL0     C87113  -1.752   5.502   7.555 -0.4395  0.8111 -0.5308
  632MOL0     O87114  -1.820   5.490   7.439 -0.3820  0.2576  0.7797
  632MOL0     C87115  -1.729   5.459   7.328 -0.0817  0.4666 -0.2619
  632MOL0     C87116  -1.801   5.402   7.207  0.0229  0.2711  0.1207
  632MOL0     C87117  -1.845   5.513   7.105 -0.2500 -0.2055  0.0349
  632MOL0     C87118  -1.909   5.452   6.981 -0.0424 -0.4767  0.4352
  632MOL0     C87119  -1.956   5.558   6.881 -0.3757 -0.1844 -0.2296
  632MOL0     C87120  -2.063   5.501   6.793  0.3538 -0.2064  0.0956
  632MOL0     C87121  -2.201   5.518   6.851  0.5449  0.8033 -0.2259
  632MOL0     C87122  -2.304   5.418   6.794 -0.3038  0.0027  0.6938
  632MOL0    Cl87123  -2.302   5.256   6.866 -0.0199 -0.3882 -0.1268
  632MOL0     C87124  -1.778   5.398   7.646  0.6581 -0.8795 -0.5312
  632MOL0     C87125  -1.729   5.418   7.775  0.4302 -1.1678 -0.1763
  632MOL0     O87126  -1.584   5.746   7.954  0.4892 -0.9515 -0.0171
  632MOL0     C87127  -1.443   5.759   8.183  0.6797 -0.0329 -0.5154
  632MOL0     C87128  -1.370   5.759   8.302 -0.9157  0.4076 -0.2932
  632MOL0     N87129  -0.880   5.234   8.645  0.9488 -0.5355  0.4239
  632MOL0     N87130  -0.754   5.222   8.673  0.5672 -0.1321 -0.4826
  632MOL0     C87131   0.260   5.906   8.796 -0.1859  0.4681  0.0039
  632MOL0     C87132   0.347   5.997   8.737 -0.2776  0.4079  0.2194
  632MOL0     C87133   0.673   6.331   8.703  0.2649  0.0413  0.0476
  632MOL0     C87134   0.590   6.421   8.637  0.6470 -0.0611  1.0483
  632MOL0     C87135   0.631   6.546   8.600 -0.2026 -0.3468 -0.7713
  632MOL0     C87136   0.756   6.592   8.628 -0.4595 -0.4342 -1.0818
  632MOL0     O87137   0.805   6.709   8.592 -0.3581 -1.0814 -0.2602
  632MOL0     C87138   0.732   6.795   8.503 -0.9093  0.3748  0.3386
  632MOL0     C87139   0.652   6.899   8.572  0.9860 -0.3721  0.9507
  632MOL0     C87140   0.753   6.993   8.647  1.1519  0.1825  0.3183
  632MOL0     C87141   0.665   7.090   8.720 -0.0265 -0.7282 -0.4186
  632MOL0     C87142   0.735   7.190   8.802 -0.1937 -0.5139  0.3191
  632MOL0     C87143   0.784   7.270   8.876  0.7396  0.6740  0.1768
  632MOL0     C87144   0.848   6.503   8.685 -0.2618 -0.4613  0.6177
  632MOL0     C87145   0.809   6.374   8.725  0.7282  0.0258 -0.5246
  632MOL0     C87146   0.903   6.291   8.814  0.7158 -0.8709  0.1155
  632MOL0     H87147   0.421   6.177   9.021 -1.5379 -0.1027  0.5104
  632MOL0     H87148   0.290   5.997   9.117 -2.7858  0.6637 -0.6743
  632MOL0     H87149   0.117   5.678   8.856  1.3638  0.3384  0.5726
  632MOL0     H87150   0.005   5.809   8.885 -0.0655 -1.0187  0.5934
  632MOL0     H87151   0.029   5.553   9.052 -2.5079 -1.8292 -0.6966
  632MOL0     H87152  -0.051   5.707   9.114  0.8187  0.4850  0.5555
  632MOL0     H87153  -0.188   5.699   8.917  1.3458 -0.1879  0.3041
  632MOL0     H87154  -0.115   5.557   8.848 -1.8207  0.8119 -0.8903
  632MOL0     H87155  -0.188   5.432   9.056 -2.1835 -0.9140  0.2679
  632MOL0     H87156  -0.267   5.592   9.109  1.4822 -1.1567  1.5282
  632MOL0     H87157  -0.310   5.418   8.875  0.1825  1.9293 -1.6580
  632MOL0     H87158  -0.415   5.543   8.897  0.3155 -0.3250  0.1198
  632MOL0     H87159  -0.397   5.287   9.050  1.4022  0.6103 -2.7623
  632MOL0     H87160  -0.461   5.437   9.133  1.0666  3.9914 -1.8892
  632MOL0     H87161  -0.646   5.447   8.970  0.9278 -0.6607  1.6886
  632MOL0     H87162  -0.633   5.280   9.040 -1.5392 -1.5385 -1.1111
  632MOL0     H87163  -0.521   5.326   8.766 -3.2461  2.6037  0.4101
  632MOL0     H87164  -0.562   5.180   8.858  0.6137  0.3162  1.7337
  632MOL0     H87165  -0.861   5.382   8.932  0.0790 -0.6718  0.7010
  632MOL0     H87166  -1.126   5.356   8.839  0.1383  1.4743  1.6852
  632MOL0     H87167  -1.148   5.272   8.688 -1.1147  1.2012 -0.3470
  632MOL0     H87168  -1.195   5.530   8.699  1.3626  0.7263  1.6996
  632MOL0     H87169  -1.018   5.546   8.699  0.0425 -0.0068  2.9134
  632MOL0     H87170  -0.996   5.420   8.492  0.3577 -1.2625  0.7176
  632MOL0     H87171  -1.160   5.385   8.491  4.1620 -1.9340 -2.0747
  632MOL0     H87172  -1.054   5.684   8.452 -0.4351 -0.3919 -0.3283
  632MOL0     H87173  -1.112   5.590   8.328  2.6864  0.5883 -0.7553
  632MOL0     H87174  -1.352   5.431   8.381  2.1638  1.8198 -1.2167
  632MOL0     H87175  -1.480   5.298   8.262  0.0949  0.8758  2.0228
  632MOL0     H87176  -1.441   5.324   8.092  2.1467 -0.5943  2.1995
  632MOL0     H87177  -1.606   5.356   8.155  0.3256 -1.9893 -1.0672
  632MOL0     H87178  -1.518   5.670   7.717 -0.4755  1.3517  1.7645
  632MOL0     H87179  -1.652   5.674   7.505  0.5938  0.1529 -0.5185
  632MOL0     H87180  -1.681   5.555   7.305 -3.7056  2.2953 -0.8990
  632MOL0     H87181  -1.653   5.386   7.356  2.5094  3.2536  0.4852
  632MOL0     H87182  -1.726   5.341   7.155  1.9449  2.0422  0.6814
  632MOL0     H87183  -1.880   5.335   7.242  1.8540  0.2010  4.8210
  632MOL0     H87184  -1.759   5.575   7.080 -0.6791 -0.3679 -2.0133
  632MOL0     H87185  -1.904   5.589   7.157  1.9136  0.2173  2.0102
  632MOL0     H87186  -1.999   5.394   7.001 -0.4899 -0.0039 -0.1955
  632MOL0     H87187  -1.842   5.382   6.928 -1.3431 -0.2677 -1.5923
  632MOL0     H87188  -1.992   5.654   6.920 -0.4246 -0.5933  0.7728
  632MOL0     H87189  -1.862   5.573   6.827  1.2216 -3.1407  1.4773
  632MOL0     H87190  -2.032   5.403   6.757  1.8246  0.8174 -1.6513
  632MOL0     H87191  -2.068   5.564   6.703  3.4135 -0.5745 -0.4418
  632MOL0     H87192  -2.239   5.620   6.836 -1.4001  0.1552 -0.0112
  632MOL0     H87193  -2.205   5.497   6.958  0.5964  1.0457 -0.1764
  632MOL0     H87194  -2.293   5.414   6.685  0.7745  4.7758  0.3939
  632MOL0     H87195  -2.400   5.458   6.829  0.1455  1.7648  0.0455
  632MOL0     H87196  -1.858   5.330   7.620 -0.3096  0.0944 -0.1549
  632MOL0     H87197  -1.777   5.356   7.849 -0.7627 -0.0526  0.0119
  632MOL0     H87198  -1.456   5.856   8.136  0.5856  1.4421  2.3385
  632MOL0     H87199  -1.322   5.850   8.336 -0.4268  0.5554 -1.3257
  632MOL0     H87200   0.213   5.832   8.732  2.2050  2.5874 -4.6996
  632MOL0     H87201   0.369   5.982   8.631  0.9424  1.8388  0.2351
  632MOL0     H87202   0.487   6.390   8.621  1.0566 -1.4394  0.9366
  632MOL0     H87203   0.559   6.609   8.548 -0.2286 -0.0254 -0.3530
  632MOL0     H87204   0.808   6.842   8.440 -1.1082 -1.8524 -1.6937
  632MOL0     H87205   0.668   6.747   8.429 -0.1375  2.7954 -2.0408
  632MOL0     H87206   0.584   6.852   8.644  0.3013 -0.2363  0.4063
  632MOL0     H87207   0.598   6.956   8.495  2.0275  0.4503  0.8012
  632MOL0     H87208   0.801   6.936   8.727 -0.1643 -0.8835  0.3966
  632MOL0     H87209   0.823   7.046   8.582  2.7106 -1.2566  0.7646
  632MOL0     H87210   0.589   7.049   8.788 -1.0387  2.0529  0.2416
  632MOL0     H87211   0.605   7.139   8.642 -1.5512 -3.7992 -1.3777
  632MOL0     H87212   0.821   7.347   8.940  0.8588  0.0969  0.8192
  632MOL0     H87213   0.948   6.536   8.711 -0.0380  1.7220 -2.5253
  632MOL0     H87214   0.911   6.203   8.750  1.0042  0.6742 -2.0805
  632MOL0     H87215   1.001   6.331   8.843 -0.5558  1.7310  1.2524
  632MOL0     H87216   0.851   6.258   8.905 -0.9274 -2.4345 -1.3343
  633MOL0     O87217   6.491  10.695   0.821  0.4227 -0.5149  0.0842
  633MOL0     C87218   6.536  10.591   0.866 -0.3849 -0.3634 -0.4492
  633MOL0     O87219   6.630  10.586   0.963  0.0320 -1.0446 -0.2916
  633MOL0     C87220   6.662  10.695   1.044 -0.4062 -0.4165  0.1174
  633MOL0     C87221   6.575  10.768   1.123 -0.4908  0.0608 -0.1833
  633MOL0     C87222   6.613  10.883   1.188  0.5834 -0.5153 -0.6429
  633MOL0     C87223   6.745  10.924   1.177 -0.1673 -0.1541  0.3285
  633MOL0     O87224   6.792  11.039   1.233  0.7230  0.4869 -0.5976
  633MOL0     C87225   6.769  11.043   1.382 -0.5001  0.4062  0.4315
  633MOL0     C87226   6.891  11.116   1.440 -0.0801 -0.2814  0.1826
  633MOL0     C87227   6.879  11.122   1.593  0.6062 -0.9704 -0.0809
  633MOL0     C87228   6.971  11.213   1.676  0.3079 -0.9415  0.5983
  633MOL0     C87229   6.992  11.362   1.634  0.1083  0.7342  0.0673
  633MOL0     C87230   7.014  11.449   1.764  1.1837  0.7439 -0.4661
  633MOL0     C87231   7.014  11.594   1.738  0.1735 -1.4988 -0.4488
  633MOL0     C87232   7.133  11.651   1.664 -0.0162  0.2795 -0.4877
  633MOL0     N87233   7.258  11.662   1.740  0.0423 -1.1080  1.0076
  633MOL0     C87234   7.276  11.768   1.833 -0.2199  0.5472  0.0277
  633MOL0     C87235   7.401  11.751   1.886  0.0749 -0.9815  0.1823
  633MOL0     C87236   7.466  11.848   1.989  0.5469  0.2200 -1.3204
  633MOL0     C87237   7.595  11.792   2.040 -0.1459  0.1587  1.1979
  633MOL0     C87238   7.679  11.892   2.118 -0.4157  0.5480 -1.1712
  633MOL0     C87239   7.809  11.825   2.183 -0.0916 -0.0109  1.3136
  633MOL0     O87240   7.794  11.717   2.267  0.8345 -0.8580 -0.9531
  633MOL0     C87241   7.897  11.682   2.354 -1.1514 -0.0191  0.5456
  633MOL0     C87242   7.898  11.559   2.424  0.0033 -0.5410  0.1647
  633MOL0     C87243   8.011  11.522   2.499  0.4993 -0.1043  0.3909
  633MOL0     C87244   7.978  11.419   2.603  1.0225  0.2058 -0.6552
  633MOL0     C87245   8.136  11.582   2.486  0.5658 -0.9590  0.3801
  633MOL0     C87246   8.258  11.538   2.565 -0.0496  0.3406  0.8834
  633MOL0     O87247   8.369  11.615   2.543 -0.9662  0.2920  0.4380
  633MOL0     C87248   8.485  11.592   2.601  0.1597  0.3795  1.5202
  633MOL0     C87249   8.599  11.619   2.530 -0.3123  0.4188 -0.2840
  633MOL0     C87250   8.724  11.597   2.595 -0.3618 -0.4272 -0.3477
  633MOL0     C87251   8.741  11.545   2.723 -0.2420 -0.4891  1.0495
  633MOL0     O87252   8.864  11.556   2.792 -0.0056 -0.3085  0.3439
  633MOL0     C87253   8.857  11.665   2.884 -0.3565 -0.4174 -0.2465
  633MOL0     C87254   8.995  11.706   2.926  0.5374 -0.1770  0.3728
  633MOL0     C87255   9.063  11.590   3.018 -0.0306  0.4390 -0.0167
  633MOL0     C87256   9.174  11.637   3.105  0.2949  0.0935 -0.2107
  633MOL0     C87257   9.314  11.655   3.032  0.0870 -0.9158 -0.3858
  633MOL0     C87258   9.429  11.724   3.117 -0.3161  0.3739  0.0433
  633MOL0     C87259   9.484  11.629   3.228 -0.4835  0.8651  0.3378
  633MOL0     C87260   9.544  11.720   3.330  0.0651 -0.0015 -0.2497
  633MOL0    Cl87261   9.665  11.837   3.263  0.3828  0.0789  0.2239
  633MOL0     C87262   8.625  11.521   2.793  0.0158 -0.4373  0.6948
  633MOL0     C87263   8.499  11.544   2.733  0.5631  0.5127  0.8907
  633MOL0     O87264   8.250  11.438   2.637 -0.1288 -0.6796 -0.9319
  633MOL0     C87265   8.131  11.711   2.428 -0.1160 -0.4481 -0.3962
  633MOL0     C87266   8.020  11.764   2.363  0.0535  0.8317  0.4444
  633MOL0     N87267   7.451  11.637   1.829  0.0700 -0.1163  0.1176
  633MOL0     N87268   7.369  11.580   1.739  0.2865 -0.0083 -0.4937
  633MOL0     C87269   6.838  10.844   1.105  0.8270 -1.1211 -0.7704
  633MOL0     C87270   6.796  10.727   1.030  0.4855  0.2485 -0.6200
  633MOL0     C87271   6.497  10.454   0.807  0.3101 -0.2359  0.7541
  633MOL0     C87272   6.593  10.355   0.812 -0.7033  0.5164 -0.7494
  633MOL0     C87273   6.567  10.225   0.770  0.0468  1.2076 -0.1422
  633MOL0     C87274   6.450  10.205   0.691  1.0295  0.1512  0.0922
  633MOL0     O87275   6.424  10.073   0.651  0.7982 -0.4994 -0.0747
  633MOL0     C87276   6.361  10.060   0.527  0.2524  0.0619  0.9845
  633MOL0     C87277   6.404   9.929   0.463  0.1862  0.2437 -0.5364
  633MOL0     C87278   6.560   9.915   0.457  0.4672 -0.1425  0.0211
  633MOL0     C87279   6.598   9.790   0.377  0.4426  0.7944 -0.4185
  633MOL0     C87280   6.559   9.797   0.237  0.2000  0.4206  0.6784
  633MOL0     C87281   6.521   9.811   0.123  0.0843  0.1612 -0.0249
  633MOL0     C87282   6.364  10.308   0.672  0.1354 -0.4442  0.8574
  633MOL0     C87283   6.379  10.434   0.736  0.3843  0.0658 -0.0835
  633MOL0     C87284   6.269  10.536   0.724 -0.3178 -0.2885  0.0529
  633MOL0     H87285   6.470  10.741   1.118 -0.4405 -0.3352  0.6879
  633MOL0     H87286   6.543  10.941   1.247  2.5585 -0.1762  1.5342
  633MOL0     H87287   6.765  10.938   1.412 -0.5199 -0.3089 -1.8400
  633MOL0     H87288   6.672  11.085   1.410 -0.7360 -0.0430  0.3089
  633MOL0     H87289   6.982  11.065   1.406 -0.5108 -0.6023 -0.5004
  633MOL0     H87290   6.899  11.218   1.402 -0.5241 -0.8983 -1.6711
  633MOL0     H87291   6.787  11.178   1.613  0.9133 -0.8458  1.0118
  633MOL0     H87292   6.873  11.021   1.633 -2.2942 -0.1177  1.9748
  633MOL0     H87293   6.919  11.219   1.772 -2.8740  1.9414 -1.1190
  633MOL0     H87294   7.065  11.158   1.685  2.5322  2.6213  0.9795
  633MOL0     H87295   6.910  11.401   1.573  2.2447  0.9465 -2.8575
  633MOL0     H87296   7.077  11.367   1.566 -0.5122 -0.3200 -0.8099
  633MOL0     H87297   6.929  11.424   1.827  0.2002 -1.4307 -2.4762
  633MOL0     H87298   7.108  11.415   1.809 -0.5707 -0.5983  2.4797
  633MOL0     H87299   7.011  11.646   1.834 -3.0558  0.9504 -1.6962
  633MOL0     H87300   6.919  11.620   1.690 -1.2270 -0.2668  2.7292
  633MOL0     H87301   7.153  11.584   1.581 -1.8288 -2.4003  1.0793
  633MOL0     H87302   7.102  11.748   1.624  1.0881  0.3349 -1.2322
  633MOL0     H87303   7.218  11.856   1.860  0.8185  1.0711  0.6332
  633MOL0     H87304   7.394  11.871   2.067 -1.1343 -1.2103 -2.3685
  633MOL0     H87305   7.492  11.940   1.937  2.0355 -1.0334 -2.9244
  633MOL0     H87306   7.580  11.702   2.100  0.2789 -1.9170 -1.6250
  633MOL0     H87307   7.651  11.768   1.950 -1.6492  2.6086 -0.5262
  633MOL0     H87308   7.711  11.968   2.046  3.2590  0.1038 -0.2285
  633MOL0     H87309   7.625  11.944   2.197 -1.8067 -0.3639 -1.4984
  633MOL0     H87310   7.866  11.799   2.093 -2.9208 -0.8515 -0.3710
  633MOL0     H87311   7.859  11.905   2.237 -1.3996  0.7044  1.5130
  633MOL0     H87312   7.800  11.513   2.436  0.8160 -2.1421  1.0052
  633MOL0     H87313   7.871  11.406   2.620  0.8070  1.3048 -1.0586
  633MOL0     H87314   8.023  11.443   2.700  0.9753 -2.5471  0.1305
  633MOL0     H87315   8.012  11.325   2.559 -1.5095 -0.5110 -1.2089
  633MOL0     H87316   8.602  11.665   2.432  0.7168  2.6333  0.7204
  633MOL0     H87317   8.805  11.621   2.527 -1.9451 -0.3867 -2.2974
  633MOL0     H87318   8.808  11.754   2.843 -0.5124 -0.1174  0.5666
  633MOL0     H87319   8.787  11.641   2.965 -2.4828 -2.1825 -2.4452
  633MOL0     H87320   9.040  11.741   2.833 -1.3896  1.5074 -0.0125
  633MOL0     H87321   8.969  11.793   2.988 -1.6533 -1.1693  0.9477
  633MOL0     H87322   9.104  11.513   2.953  0.7318  1.3786 -0.6836
  633MOL0     H87323   8.986  11.545   3.082  1.1292 -0.9774  0.4349
  633MOL0     H87324   9.184  11.567   3.188  1.1131  0.0360 -0.3540
  633MOL0     H87325   9.152  11.726   3.166  0.8491 -0.9848  1.6528
  633MOL0     H87326   9.342  11.554   3.001  1.1524 -0.5060 -0.8052
  633MOL0     H87327   9.300  11.705   2.936  1.8145 -0.5227 -0.4614
  633MOL0     H87328   9.377  11.811   3.157 -0.3115 -0.0387  0.9655
  633MOL0     H87329   9.508  11.751   3.046  0.5642  0.0335  0.8778
  633MOL0     H87330   9.563  11.562   3.192 -0.9061 -0.4969  1.8510
  633MOL0     H87331   9.400  11.566   3.258 -0.5459  2.0201  2.7746
  633MOL0     H87332   9.595  11.656   3.402  0.5382  1.5217  0.8193
  633MOL0     H87333   9.466  11.774   3.385 -1.4068 -2.0092 -0.2822
  633MOL0     H87334   8.650  11.495   2.895  2.0466  0.4332  0.4558
  633MOL0     H87335   8.406  11.534   2.789 -1.3570 -0.4889 -2.1854
  633MOL0     H87336   8.223  11.769   2.437  0.0706 -0.7971  0.0310
  633MOL0     H87337   8.050  11.850   2.304  0.6960  1.4164  1.5815
  633MOL0     H87338   6.938  10.883   1.096  1.5668 -2.6445  0.4825
  633MOL0     H87339   6.857  10.667   0.963 -1.5955 -2.6872 -0.0781
  633MOL0     H87340   6.687  10.372   0.864  0.1172 -3.5349 -0.5996
  633MOL0     H87341   6.640  10.147   0.787 -1.3573 -0.1478 -0.1106
  633MOL0     H87342   6.252  10.054   0.536 -0.0549 -1.0202 -2.1118
  633MOL0     H87343   6.396  10.132   0.452 -0.7220  0.2044  0.6600
  633MOL0     H87344   6.355   9.913   0.367  1.5077 -1.0153 -1.0332
  633MOL0     H87345   6.382   9.845   0.530 -0.1799  1.8718  1.5199
  633MOL0     H87346   6.594  10.002   0.401  2.7804 -1.5057 -0.8308
  633MOL0     H87347   6.600   9.922   0.558 -1.5012  0.3351  0.8198
  633MOL0     H87348   6.539   9.711   0.426 -1.4651  1.2196 -1.8987
  633MOL0     H87349   6.707   9.782   0.372  0.4263  0.3786 -0.1262
  633MOL0     H87350   6.494   9.831   0.022  0.4762 -1.6183 -0.5197
  633MOL0     H87351   6.271  10.307   0.616 -1.0182 -1.8596  2.6861
  633MOL0     H87352   6.290  10.607   0.644 -0.3087  0.9654  1.1366
  633MOL0     H87353   6.176  10.486   0.697 -0.5420 -1.0136  1.9831
  633MOL0     H87354   6.238  10.584   0.817 -3.8635 -0.9053 -0.6682
  634MOL0     O87355   4.117   8.566   4.779  0.1633  0.5391 -0.2416
  634MOL0     C87356   4.082   8.464   4.724 -0.2631  0.1105  0.1913
  634MOL0     O87357   4.159   8.346   4.717 -0.3566 -0.5416 -0.4925
  634MOL0     C87358   4.272   8.335   4.798  0.2525 -0.5926  0.4891
  634MOL0     C87359   4.280   8.229   4.883 -0.9465  0.5196  0.7847
  634MOL0     C87360   4.395   8.210   4.962 -0.3819 -0.4124 -0.1426
  634MOL0     C87361   4.507   8.307   4.954  0.6379 -0.0361 -0.0122
  634MOL0     O87362   4.626   8.303   5.028  0.1742  0.2099 -0.6129
  634MOL0     C87363   4.641   8.236   5.155 -0.2629  0.1001 -0.3014
  634MOL0     C87364   4.583   8.326   5.269  0.0683  0.5211  1.0226
  634MOL0     C87365   4.678   8.311   5.387  0.8251 -0.5322  0.4381
  634MOL0     C87366   4.638   8.408   5.494  0.5716 -0.8230 -0.6758
  634MOL0     C87367   4.729   8.375   5.618 -0.6820  0.9151 -0.3190
  634MOL0     C87368   4.738   8.479   5.727 -0.6908  0.2776 -0.3724
  634MOL0     C87369   4.605   8.465   5.810 -0.8507  0.1160 -0.2064
  634MOL0     C87370   4.587   8.556   5.925 -0.0252  0.4496 -0.8507
  634MOL0     N87371   4.579   8.695   5.877 -0.5839 -1.2893  0.1076
  634MOL0     C87372   4.682   8.789   5.877 -0.1234  0.1923  0.5801
  634MOL0     C87373   4.626   8.895   5.813  0.0742 -0.1304  0.6780
  634MOL0     C87374   4.704   9.024   5.776 -0.5706  0.3430 -1.1005
  634MOL0     C87375   4.808   8.980   5.683 -0.1874  0.2748 -0.3180
  634MOL0     C87376   4.760   8.974   5.540  0.3624  0.1692 -0.4079
  634MOL0     C87377   4.866   8.916   5.445 -0.2453 -0.1794 -0.0047
  634MOL0     O87378   4.808   8.793   5.403  0.2113 -0.6771  0.3391
  634MOL0     C87379   4.890   8.709   5.328 -0.1407  0.1226  0.0064
  634MOL0     C87380   5.035   8.706   5.336  0.3652  0.1604 -0.2848
  634MOL0     C87381   5.110   8.612   5.254  0.3518 -0.3826  0.2835
  634MOL0     C87382   5.261   8.633   5.256  0.7319  0.0065 -0.1459
  634MOL0     C87383   5.038   8.513   5.183 -0.6098  0.0714  0.5087
  634MOL0     C87384   5.112   8.413   5.096 -0.4933  0.4689  0.0344
  634MOL0     O87385   5.038   8.351   4.996 -1.2997 -0.3904 -0.5487
  634MOL0     C87386   5.104   8.291   4.899 -0.1736 -0.3635  1.3555
  634MOL0     C87387   5.138   8.365   4.788 -0.1529 -1.1109  0.4177
  634MOL0     C87388   5.192   8.305   4.676  0.7943 -0.0351  0.2925
  634MOL0     C87389   5.202   8.162   4.667 -0.0985 -0.2413  0.3455
  634MOL0     O87390   5.263   8.115   4.550 -0.1308 -0.3899 -1.0911
  634MOL0     C87391   5.237   7.978   4.532  0.5200  1.2629  0.0723
  634MOL0     C87392   5.271   7.953   4.383  0.2483 -0.0793 -0.0009
  634MOL0     C87393   5.295   7.805   4.369 -0.0550 -0.0524  0.3868
  634MOL0     C87394   5.327   7.755   4.228  0.2181 -0.5321  0.9082
  634MOL0     C87395   5.375   7.613   4.235  0.4956  0.0942 -0.6767
  634MOL0     C87396   5.344   7.544   4.104  1.0851 -0.6794  0.1953
  634MOL0     C87397   5.401   7.409   4.085 -0.3115  0.3854 -0.1268
  634MOL0     C87398   5.504   7.411   3.967  0.8098 -0.2893  0.4809
  634MOL0    Cl87399   5.565   7.249   3.920  0.2543  0.7238  0.2343
  634MOL0     C87400   5.146   8.080   4.768  0.7593  0.9171 -0.3201
  634MOL0     C87401   5.112   8.147   4.885 -0.0346 -0.6270 -0.8930
  634MOL0     O87402   5.235   8.386   5.113  0.3251 -0.3483 -0.9235
  634MOL0     C87403   4.896   8.515   5.178 -0.5831 -0.3311  0.1014
  634MOL0     C87404   4.828   8.614   5.244  0.1504 -0.5664 -0.9876
  634MOL0     N87405   4.502   8.870   5.763 -0.0286 -1.0168 -0.7272
  634MOL0     N87406   4.478   8.747   5.794 -0.0040  0.3282  0.4162
  634MOL0     C87407   4.500   8.424   4.870 -0.1444  1.4046  0.1718
  634MOL0     C87408   4.383   8.426   4.793 -0.6102  0.0063 -0.1809
  634MOL0     C87409   3.958   8.470   4.645  1.0553  0.4351 -0.3056
  634MOL0     C87410   3.875   8.583   4.656 -0.0917 -0.4199  1.2764
  634MOL0     C87411   3.748   8.591   4.603 -0.4204 -0.1215 -0.6199
  634MOL0     C87412   3.694   8.491   4.535 -0.1348 -0.2793  0.8821
  634MOL0     O87413   3.571   8.489   4.471 -0.0020 -0.8208  0.4846
  634MOL0     C87414   3.505   8.611   4.447 -0.4690  0.2012  0.5764
  634MOL0     C87415   3.373   8.569   4.385 -1.1496 -0.3208 -0.0077
  634MOL0     C87416   3.302   8.463   4.481 -0.3049  0.0459  0.9161
  634MOL0     C87417   3.150   8.461   4.463  0.2876 -0.3767  0.4967
  634MOL0     C87418   3.077   8.356   4.544  0.1856  0.1796  0.2640
  634MOL0     C87419   3.023   8.281   4.620  0.2030  0.6783  0.2719
  634MOL0     C87420   3.785   8.384   4.498  1.0311 -0.9351  0.1336
  634MOL0     C87421   3.907   8.371   4.559  0.6972 -0.4359 -0.8028
  634MOL0     C87422   3.972   8.237   4.526 -0.5035  0.1503 -0.4817
  634MOL0     H87423   4.205   8.150   4.885  0.0530 -0.6136 -1.9564
  634MOL0     H87424   4.419   8.122   5.021  2.1874 -0.7858 -1.5968
  634MOL0     H87425   4.740   8.206   5.188  0.6846  2.5940 -0.5970
  634MOL0     H87426   4.579   8.146   5.159  0.0122 -0.2119 -2.1971
  634MOL0     H87427   4.578   8.430   5.237  0.2669  0.7738  1.7917
  634MOL0     H87428   4.479   8.300   5.292 -0.3391  1.9122  0.7975
  634MOL0     H87429   4.661   8.218   5.443  0.2790  0.3351  1.7622
  634MOL0     H87430   4.784   8.309   5.358  0.4840 -1.1332 -0.8174
  634MOL0     H87431   4.656   8.503   5.443  1.2825 -1.6605 -2.0317
  634MOL0     H87432   4.532   8.395   5.517  0.7833 -1.3943  0.0357
  634MOL0     H87433   4.830   8.365   5.579 -2.2232 -2.3500 -4.2098
  634MOL0     H87434   4.688   8.290   5.674 -1.0407  2.7913  2.4621
  634MOL0     H87435   4.820   8.465   5.798  0.7718  1.6007 -1.7131
  634MOL0     H87436   4.751   8.573   5.672 -1.2781 -0.5306 -1.9552
  634MOL0     H87437   4.597   8.367   5.856  0.2674  0.1940  0.1731
  634MOL0     H87438   4.521   8.469   5.739 -0.7747  0.0276 -0.3000
  634MOL0     H87439   4.493   8.539   5.977 -0.1147  0.6785 -0.9362
  634MOL0     H87440   4.672   8.542   5.993 -1.6746  0.4765  1.3377
  634MOL0     H87441   4.781   8.779   5.919 -0.9666 -3.1758  2.0540
  634MOL0     H87442   4.752   9.072   5.862  0.7145  0.3317 -1.7835
  634MOL0     H87443   4.642   9.107   5.740  0.1404  1.8817  1.0236
  634MOL0     H87444   4.883   9.059   5.693  1.7036 -1.3858 -0.8571
  634MOL0     H87445   4.858   8.889   5.716 -2.1250 -0.6380  0.2053
  634MOL0     H87446   4.666   8.918   5.532  0.9648 -1.2946  1.9763
  634MOL0     H87447   4.731   9.074   5.506 -3.8618 -0.5584  0.4350
  634MOL0     H87448   4.877   8.980   5.357  2.3389 -1.0078 -0.3584
  634MOL0     H87449   4.965   8.907   5.490  0.2158 -0.4392 -1.0466
  634MOL0     H87450   5.103   8.763   5.398 -0.8070  1.0064  0.2797
  634MOL0     H87451   5.294   8.729   5.296  5.2825 -1.3837  0.0023
  634MOL0     H87452   5.297   8.637   5.153  4.1503  3.4375  0.9600
  634MOL0     H87453   5.314   8.549   5.302 -1.1924 -1.6497 -0.7903
  634MOL0     H87454   5.147   8.471   4.810  2.2079 -0.7097 -1.8912
  634MOL0     H87455   5.228   8.369   4.596  2.3456  1.8822  2.4352
  634MOL0     H87456   5.296   7.913   4.597  0.9049  0.4886 -1.0110
  634MOL0     H87457   5.134   7.948   4.557  1.3766  0.0043  2.4760
  634MOL0     H87458   5.177   7.977   4.331 -0.4270 -2.1231  0.1854
  634MOL0     H87459   5.352   8.020   4.353  1.4669 -1.4288  0.1553
  634MOL0     H87460   5.222   7.745   4.424  0.9058  0.5965  2.5101
  634MOL0     H87461   5.386   7.793   4.429  1.1248  3.2155 -0.5489
  634MOL0     H87462   5.399   7.815   4.171 -0.9343  2.1544  2.0823
  634MOL0     H87463   5.232   7.756   4.174 -0.1100 -1.2900  1.4634
  634MOL0     H87464   5.480   7.598   4.263 -0.0426  1.2130  2.2308
  634MOL0     H87465   5.318   7.563   4.313  0.9883 -0.5449 -0.7157
  634MOL0     H87466   5.370   7.616   4.025  0.3145 -0.0037  0.5379
  634MOL0     H87467   5.236   7.528   4.107  0.6699  1.8233  1.8018
  634MOL0     H87468   5.319   7.342   4.057 -1.5367  1.5537  0.5700
  634MOL0     H87469   5.453   7.378   4.176 -0.3884 -1.2666 -0.6174
  634MOL0     H87470   5.583   7.484   3.986 -0.9426  1.6198  0.7864
  634MOL0     H87471   5.457   7.456   3.880 -0.0328 -0.8194  0.6454
  634MOL0     H87472   5.133   7.972   4.764 -0.2021  1.0583 -1.8488
  634MOL0     H87473   5.070   8.090   4.967 -2.4885  1.4962 -0.5467
  634MOL0     H87474   4.845   8.441   5.117  0.2834 -2.4971  1.8599
  634MOL0     H87475   4.720   8.625   5.240  0.1592 -0.5937 -1.3275
  634MOL0     H87476   4.564   8.511   4.875 -1.1583  2.1252  0.9589
  634MOL0     H87477   4.366   8.518   4.736  0.4581  0.8853  0.8749
  634MOL0     H87478   3.913   8.671   4.706 -1.3224  0.6657  0.3834
  634MOL0     H87479   3.686   8.677   4.628 -0.1528 -0.4947  1.5400
  634MOL0     H87480   3.497   8.672   4.538  4.1130  0.5418  0.9430
  634MOL0     H87481   3.562   8.676   4.380 -1.9110 -0.0580 -0.9666
  634MOL0     H87482   3.402   8.513   4.296 -2.0543  0.1181 -0.5941
  634MOL0     H87483   3.309   8.648   4.347 -2.4100 -0.6884  1.2664
  634MOL0     H87484   3.337   8.361   4.464  0.7428  0.8123 -2.5460
  634MOL0     H87485   3.322   8.494   4.584  2.5392  1.4615  0.0667
  634MOL0     H87486   3.137   8.441   4.356  0.4532  1.7778  0.0434
  634MOL0     H87487   3.099   8.557   4.472 -1.4043 -1.1536 -0.2688
  634MOL0     H87488   2.986   8.199   4.678  1.9727 -0.3798  0.0002
  634MOL0     H87489   3.752   8.308   4.429 -0.4564 -0.5438  0.3877
  634MOL0     H87490   3.907   8.169   4.472  2.1073 -1.5238 -1.7166
  634MOL0     H87491   4.066   8.259   4.475  3.4582 -2.1958  4.8019
  634MOL0     H87492   4.012   8.196   4.619 -1.1976 -0.1259 -0.3058
  635MOL0     O87493   3.958  10.924   5.763 -0.0646 -0.2875  0.4720
  635MOL0     C87494   3.893  11.002   5.695  0.2923  0.0689  0.7357
  635MOL0     O87495   3.955  11.103   5.620 -0.2961 -0.4515 -0.0316
  635MOL0     C87496   4.090  11.108   5.603  0.6801  0.8953  0.6517
  635MOL0     C87497   4.186  10.996   5.597  0.0927 -0.0411 -0.1552
  635MOL0     C87498   4.320  11.035   5.577 -0.5637 -0.0030 -0.6894
  635MOL0     C87499   4.368  11.168   5.549  0.4245 -1.2800 -0.1237
  635MOL0     O87500   4.505  11.177   5.534  0.2435  0.2836  0.4647
  635MOL0     C87501   4.568  11.301   5.489 -0.6365  0.7078 -0.8056
  635MOL0     C87502   4.721  11.281   5.465  0.2594  0.4300 -0.3957
  635MOL0     C87503   4.756  11.174   5.374  0.3371 -0.2909 -0.4881
  635MOL0     C87504   4.909  11.149   5.361  0.2404 -0.1038  0.7387
  635MOL0     C87505   4.944  11.024   5.281  0.0199  0.2460  0.5434
  635MOL0     C87506   5.087  11.008   5.228 -0.8512  0.0191 -0.1207
  635MOL0     C87507   5.159  11.117   5.137  1.0849 -0.4767  0.1457
  635MOL0     C87508   5.077  11.151   5.003 -0.4370  0.2042 -0.1760
  635MOL0     N87509   5.161  11.234   4.903 -0.0779 -0.8116 -0.4672
  635MOL0     C87510   5.230  11.188   4.795  0.4446  0.1175 -0.3463
  635MOL0     C87511   5.270  11.293   4.737 -0.8034 -0.3293 -0.0679
  635MOL0     C87512   5.330  11.307   4.596  0.1384 -0.0389  0.2909
  635MOL0     C87513   5.453  11.393   4.609 -0.3396  0.1684  0.1291
  635MOL0     C87514   5.540  11.385   4.477 -0.1906  0.6606  0.8505
  635MOL0     C87515   5.668  11.467   4.470  1.4544  0.1027  0.8178
  635MOL0     O87516   5.756  11.409   4.567 -0.1414  0.7877  0.1212
  635MOL0     C87517   5.874  11.479   4.593  0.5663  0.2387  0.5173
  635MOL0     C87518   5.938  11.446   4.714  0.9573  0.4598 -0.6898
  635MOL0     C87519   6.075  11.474   4.737  0.5977 -0.8896  0.0055
  635MOL0     C87520   6.128  11.419   4.857 -1.0773 -0.0211 -0.0299
  635MOL0     C87521   6.149  11.544   4.640 -0.1208 -0.1675 -0.5024
  635MOL0     C87522   6.296  11.577   4.658 -0.1243  0.4221  0.4184
  635MOL0     O87523   6.341  11.697   4.601 -0.4119  0.3851  0.1466
  635MOL0     C87524   6.469  11.744   4.637 -0.9592  0.1384  0.8876
  635MOL0     C87525   6.476  11.851   4.732  0.4569  0.1207  0.6791
  635MOL0     C87526   6.602  11.888   4.770  0.5444  0.2260 -0.4939
  635MOL0     C87527   6.717  11.824   4.715 -0.2609  0.5858 -0.1687
  635MOL0     O87528   6.844  11.868   4.746  0.5804  0.6356 -0.0223
  635MOL0     C87529   6.875  11.963   4.641  1.4624  0.8166 -0.2076
  635MOL0     C87530   7.005  12.029   4.678 -0.5760 -0.3582 -1.1417
  635MOL0     C87531   6.986  12.166   4.753  0.3830  0.7663 -0.1903
  635MOL0     C87532   6.924  12.138   4.889  0.4651  0.0846  0.1815
  635MOL0     C87533   6.966  12.256   4.988 -0.1090 -0.0215 -0.6734
  635MOL0     C87534   6.893  12.388   4.964  0.4258 -0.2133 -0.4384
  635MOL0     C87535   6.950  12.506   5.048  0.7576  0.4852  0.2444
  635MOL0     C87536   6.875  12.641   5.025  0.4808 -0.4469 -0.6554
  635MOL0    Cl87537   6.747  12.661   5.156 -0.0736  0.1346  0.0112
  635MOL0     C87538   6.706  11.722   4.618  0.4167 -0.1658  0.4308
  635MOL0     C87539   6.586  11.679   4.580  0.1942  0.4879 -0.6574
  635MOL0     O87540   6.374  11.502   4.710  0.4067 -0.2902 -0.1064
  635MOL0     C87541   6.078  11.587   4.530 -0.3918  0.2850  1.3205
  635MOL0     C87542   5.945  11.554   4.508 -0.1073  0.0008  0.1120
  635MOL0     N87543   5.243  11.408   4.805 -0.7581 -0.4552 -0.3986
  635MOL0     N87544   5.173  11.371   4.903  0.0865 -0.0033  0.6143
  635MOL0     C87545   4.276  11.273   5.554 -0.4230  1.0773  0.2405
  635MOL0     C87546   4.149  11.245   5.595 -0.7536 -0.5810 -0.3718
  635MOL0     C87547   3.748  11.018   5.708  0.9742  0.3027 -0.8353
  635MOL0     C87548   3.690  11.149   5.684  0.5421 -0.1573 -0.0216
  635MOL0     C87549   3.561  11.181   5.738  0.0098 -0.2198  0.1228
  635MOL0     C87550   3.479  11.075   5.795 -1.0515  0.3160  0.3366
  635MOL0     O87551   3.355  11.090   5.842 -0.1502 -0.1894  0.0885
  635MOL0     C87552   3.315  11.228   5.873 -0.7193 -0.1716  1.2512
  635MOL0     C87553   3.220  11.286   5.757  0.1573  0.4201 -1.3078
  635MOL0     C87554   3.195  11.432   5.786 -0.0539  0.9550  0.1123
  635MOL0     C87555   3.070  11.483   5.715 -0.2235  0.2720  0.5845
  635MOL0     C87556   3.050  11.630   5.732 -0.5227 -0.2994 -0.2332
  635MOL0     C87557   3.024  11.748   5.743  0.1724 -0.3422 -0.0358
  635MOL0     C87558   3.533  10.939   5.793 -0.0867 -0.6282 -0.1947
  635MOL0     C87559   3.663  10.911   5.761 -0.3921  0.7576  0.5879
  635MOL0     C87560   3.705  10.768   5.758  0.5170 -1.0432 -0.0082
  635MOL0     H87561   4.165  10.890   5.608 -1.8032  0.3011 -0.1062
  635MOL0     H87562   4.397  10.958   5.583  0.7975  1.4048  1.4812
  635MOL0     H87563   4.558  11.373   5.572 -0.8223  0.4168 -0.5738
  635MOL0     H87564   4.522  11.336   5.397  1.1179  3.5281 -0.7342
  635MOL0     H87565   4.772  11.372   5.433 -0.0455  0.2756 -1.3416
  635MOL0     H87566   4.764  11.266   5.565  0.3696  1.1346 -0.3335
  635MOL0     H87567   4.710  11.078   5.399  2.0794 -0.9872  0.1940
  635MOL0     H87568   4.726  11.204   5.273 -1.1995 -0.6326 -0.1527
  635MOL0     H87569   4.951  11.237   5.311 -2.6958  0.4779 -0.9438
  635MOL0     H87570   4.948  11.140   5.462  1.6548  0.4716  0.2661
  635MOL0     H87571   4.875  11.017   5.196  1.3406 -0.7123 -0.5001
  635MOL0     H87572   4.919  10.936   5.340  1.8429  0.8328  2.2971
  635MOL0     H87573   5.150  10.991   5.316 -3.0696 -3.9454  0.9545
  635MOL0     H87574   5.096  10.916   5.170  3.9563 -0.5445  1.1056
  635MOL0     H87575   5.260  11.079   5.122  1.0087 -1.3907  1.6963
  635MOL0     H87576   5.158  11.208   5.197 -0.5811  0.2341 -0.8760
  635MOL0     H87577   5.055  11.057   4.952  2.0568  0.5961 -2.1253
  635MOL0     H87578   4.982  11.202   5.022 -0.9769  0.2106 -2.6334
  635MOL0     H87579   5.237  11.086   4.757  0.6600 -0.1075  0.2832
  635MOL0     H87580   5.257  11.355   4.529  0.3715  0.5336  0.4406
  635MOL0     H87581   5.362  11.209   4.559 -3.2167 -0.6291 -1.4284
  635MOL0     H87582   5.421  11.497   4.621  3.0313  1.7809 -2.9319
  635MOL0     H87583   5.512  11.358   4.695 -4.5790 -6.1471  1.0911
  635MOL0     H87584   5.571  11.280   4.477 -0.6581  0.4893 -0.5459
  635MOL0     H87585   5.478  11.406   4.389  1.4345  1.0394 -0.2426
  635MOL0     H87586   5.701  11.459   4.366  1.6861 -0.7617  0.9526
  635MOL0     H87587   5.640  11.571   4.489 -0.6046 -0.0077 -1.1582
  635MOL0     H87588   5.882  11.377   4.776  1.4834  0.4721 -0.1910
  635MOL0     H87589   6.214  11.361   4.825 -1.6552  0.0597 -1.8239
  635MOL0     H87590   6.059  11.345   4.898 -0.6069 -0.2909  0.2801
  635MOL0     H87591   6.148  11.498   4.931 -1.8896 -1.6652  2.0441
  635MOL0     H87592   6.393  11.906   4.775  1.4055  2.8170 -0.6350
  635MOL0     H87593   6.608  11.974   4.836  2.3472 -1.4001  1.6087
  635MOL0     H87594   6.884  11.911   4.545  0.6952  0.1510  0.0649
  635MOL0     H87595   6.800  12.041   4.631  0.6213  0.2931  1.5736
  635MOL0     H87596   7.085  11.973   4.728  0.8523  1.8329 -0.8374
  635MOL0     H87597   7.049  12.058   4.582  0.3028 -2.1528 -1.3297
  635MOL0     H87598   6.923  12.237   4.697  1.3894  1.2277 -0.7688
  635MOL0     H87599   7.084  12.208   4.776  1.7463 -0.4925 -3.1688
  635MOL0     H87600   6.960  12.042   4.926  0.1907  0.7439  2.2736
  635MOL0     H87601   6.816  12.128   4.877  0.3856  1.1868 -0.1436
  635MOL0     H87602   6.943  12.219   5.088 -1.2362  1.8095 -0.2124
  635MOL0     H87603   7.074  12.274   4.989 -0.0468 -0.3456 -1.0269
  635MOL0     H87604   6.794  12.376   5.009  0.3848 -2.1894 -0.9852
  635MOL0     H87605   6.883  12.400   4.855  1.5968  1.5894 -0.3894
  635MOL0     H87606   7.055  12.532   5.030  0.9403  0.4011  1.1320
  635MOL0     H87607   6.953  12.470   5.151  2.5964 -1.7484 -0.4900
  635MOL0     H87608   6.830  12.651   4.926  0.6464 -1.9085 -0.8921
  635MOL0     H87609   6.945  12.725   5.036 -0.9947  0.8608 -0.9139
  635MOL0     H87610   6.797  11.676   4.580 -1.5257 -3.7235 -0.2916
  635MOL0     H87611   6.578  11.608   4.498 -2.1145  0.7623 -0.7562
  635MOL0     H87612   6.126  11.632   4.444  1.2837 -0.8460  1.5955
  635MOL0     H87613   5.897  11.589   4.417 -0.2238 -2.7764 -0.9960
  635MOL0     H87614   4.302  11.376   5.536 -0.8930  1.0740 -0.5291
  635MOL0     H87615   4.087  11.333   5.605  2.3446  1.5172  2.7948
  635MOL0     H87616   3.737  11.237   5.643 -2.5600  1.5206 -0.3157
  635MOL0     H87617   3.529  11.284   5.736 -0.0835 -0.2370  0.6714
  635MOL0     H87618   3.256  11.226   5.965 -1.3814 -1.9528  0.8256
  635MOL0     H87619   3.402  11.291   5.894  0.9692 -1.6632 -0.9076
  635MOL0     H87620   3.125  11.237   5.779 -0.1841  1.6241 -0.0043
  635MOL0     H87621   3.264  11.267   5.658  2.9014  1.4913 -0.3973
  635MOL0     H87622   3.195  11.440   5.895  2.7409  0.3125  0.2263
  635MOL0     H87623   3.278  11.496   5.754  1.4697 -1.6309 -1.4714
  635MOL0     H87624   2.986  11.429   5.760 -0.0347  0.6435  1.4153
  635MOL0     H87625   3.081  11.460   5.609 -2.4717 -1.2615  0.6243
  635MOL0     H87626   3.015  11.853   5.756 -0.2483 -0.4106  0.2431
  635MOL0     H87627   3.467  10.865   5.836  0.5628 -1.0778  0.0393
  635MOL0     H87628   3.718  10.734   5.861  1.1945 -0.5403  0.0788
  635MOL0     H87629   3.625  10.707   5.716  0.1213 -1.2191  0.9715
  635MOL0     H87630   3.791  10.740   5.696 -0.6562 -4.5158 -0.2734
  636MOL0     O87631   4.505   2.561   3.150  0.1812 -0.6352  0.6242
  636MOL0     C87632   4.498   2.620   3.256  0.9291  0.0973 -0.0818
  636MOL0     O87633   4.419   2.581   3.364 -0.1819  0.4181 -0.2614
  636MOL0     C87634   4.348   2.463   3.338 -0.2197  0.1474 -0.2129
  636MOL0     C87635   4.414   2.341   3.352  0.3229 -0.2856 -0.1097
  636MOL0     C87636   4.347   2.213   3.325 -1.1190 -0.6471 -0.5570
  636MOL0     C87637   4.209   2.218   3.292  0.5789  0.2394  0.0047
  636MOL0     O87638   4.129   2.103   3.266  0.2489 -0.3033 -0.0166
  636MOL0     C87639   4.005   2.085   3.343  0.4077 -1.3456  0.1688
  636MOL0     C87640   3.993   1.931   3.375 -0.3920  0.2795 -0.4720
  636MOL0     C87641   4.005   1.902   3.528  0.8322 -0.9336  0.1789
  636MOL0     C87642   4.043   1.770   3.551 -0.5661  0.0688 -0.2307
  636MOL0     C87643   4.047   1.741   3.697 -0.2901  0.2736 -0.0410
  636MOL0     C87644   4.070   1.592   3.742 -0.3109 -0.0207 -0.6869
  636MOL0     C87645   4.193   1.521   3.677 -0.6417 -0.7558 -0.3730
  636MOL0     C87646   4.325   1.605   3.693  0.7673 -0.2851  0.4291
  636MOL0     N87647   4.430   1.544   3.616  0.3628  0.0765 -0.5290
  636MOL0     C87648   4.448   1.557   3.474  0.3185 -0.4212 -0.1742
  636MOL0     C87649   4.562   1.492   3.450 -0.3837  0.2462  0.9729
  636MOL0     C87650   4.645   1.498   3.325 -0.9019  0.0406  0.0535
  636MOL0     C87651   4.745   1.621   3.324 -0.5331 -0.5970 -0.9336
  636MOL0     C87652   4.836   1.621   3.199 -0.7077 -0.2250 -1.0066
  636MOL0     C87653   4.944   1.719   3.226 -0.3158 -1.1544  0.7447
  636MOL0     O87654   4.983   1.780   3.104 -0.9182 -0.3921  0.1057
  636MOL0     C87655   5.098   1.728   3.041 -0.7113  0.2729  0.5356
  636MOL0     C87656   5.155   1.803   2.933 -0.4863  0.7586 -0.0012
  636MOL0     C87657   5.251   1.753   2.849  0.5485  0.3814 -0.4018
  636MOL0     C87658   5.296   1.834   2.733  0.4128  0.3188 -0.6589
  636MOL0     C87659   5.306   1.624   2.878  0.4455  0.4594 -0.3040
  636MOL0     C87660   5.381   1.548   2.781 -0.2669  0.0377  0.5704
  636MOL0     O87661   5.323   1.444   2.719  0.4806  0.2083  0.5931
  636MOL0     C87662   5.390   1.345   2.651 -0.5202 -0.4547 -0.3867
  636MOL0     C87663   5.329   1.271   2.548  1.1597  0.6054  0.5695
  636MOL0     C87664   5.392   1.166   2.481  0.1530 -0.7305  0.2409
  636MOL0     C87665   5.515   1.120   2.520 -0.2523 -0.1495 -1.0087
  636MOL0     O87666   5.560   1.009   2.448  0.4043  0.5750 -0.3521
  636MOL0     C87667   5.699   0.964   2.451  0.6395 -1.2080 -0.4093
  636MOL0     C87668   5.724   0.828   2.384  0.2877  0.6891 -1.1327
  636MOL0     C87669   5.631   0.709   2.429 -0.7754  0.1398 -0.1478
  636MOL0     C87670   5.629   0.699   2.581  0.6674 -0.1279 -0.0015
  636MOL0     C87671   5.559   0.564   2.611  0.6337  0.2649  0.3164
  636MOL0     C87672   5.642   0.439   2.582  0.2472 -0.4010 -0.9789
  636MOL0     C87673   5.780   0.445   2.651 -0.8148  1.1068 -0.1998
  636MOL0     C87674   5.833   0.304   2.654  0.1737 -0.3237 -0.1713
  636MOL0    Cl87675   5.992   0.307   2.727  0.3461  0.4460  0.3373
  636MOL0     C87676   5.590   1.202   2.612  0.3719 -0.3641  0.5000
  636MOL0     C87677   5.520   1.306   2.678  0.0925 -0.2660 -0.8459
  636MOL0     O87678   5.496   1.580   2.769 -0.4658  0.4676  0.5654
  636MOL0     C87679   5.249   1.546   2.980  0.3301 -0.1207 -0.1960
  636MOL0     C87680   5.144   1.600   3.059  0.2288  1.1991  0.2153
  636MOL0     N87681   4.603   1.434   3.570  0.1937 -0.1679 -0.2893
  636MOL0     N87682   4.520   1.457   3.669 -0.1530  0.6060  0.1466
  636MOL0     C87683   4.142   2.344   3.289  0.5441 -0.2427  0.0006
  636MOL0     C87684   4.209   2.463   3.317 -0.0943 -1.0394  0.8787
  636MOL0     C87685   4.573   2.753   3.275  0.5425 -0.2135 -1.1256
  636MOL0     C87686   4.526   2.852   3.364  0.6301 -0.7979  0.8171
  636MOL0     C87687   4.556   2.987   3.337  1.0101  0.2913  0.7398
  636MOL0     C87688   4.669   3.029   3.267  0.2627  0.3238 -0.9049
  636MOL0     O87689   4.719   3.158   3.254  0.1099  0.0929 -0.1587
  636MOL0     C87690   4.711   3.231   3.376 -0.9150  0.0664 -0.4832
  636MOL0     C87691   4.755   3.369   3.352 -0.1327 -0.7241 -0.0851
  636MOL0     C87692   4.643   3.451   3.284 -0.6017 -0.9942 -0.5521
  636MOL0     C87693   4.678   3.602   3.270  0.3221 -0.6969  0.6799
  636MOL0     C87694   4.590   3.677   3.186  0.5014 -0.0925 -0.2440
  636MOL0     C87695   4.513   3.717   3.100 -0.0646 -0.2173 -0.2577
  636MOL0     C87696   4.730   2.924   3.197 -0.2671  1.2891  0.1302
  636MOL0     C87697   4.681   2.788   3.191  0.1449 -1.2050 -0.3375
  636MOL0     C87698   4.756   2.692   3.096  0.5583  0.2126  0.8389
  636MOL0     H87699   4.511   2.341   3.402  1.2626 -3.2617 -1.6918
  636MOL0     H87700   4.387   2.113   3.337 -0.4493 -0.4890 -1.3488
  636MOL0     H87701   3.912   2.108   3.290  0.1665 -2.7418 -0.0720
  636MOL0     H87702   4.007   2.151   3.430 -0.1248  1.8124 -2.0461
  636MOL0     H87703   3.903   1.891   3.328  0.8922  0.1653 -2.9865
  636MOL0     H87704   4.075   1.879   3.324 -0.8392  0.2865 -1.2154
  636MOL0     H87705   4.078   1.971   3.571 -0.6169  1.2927 -0.7656
  636MOL0     H87706   3.907   1.932   3.566  1.5932  0.5909  1.0445
  636MOL0     H87707   3.974   1.699   3.504 -0.9248 -0.8006  1.5240
  636MOL0     H87708   4.141   1.753   3.505  0.4131  2.6573  0.7396
  636MOL0     H87709   3.953   1.773   3.743 -0.2051  3.0693 -1.6290
  636MOL0     H87710   4.127   1.796   3.747 -0.5250  0.6720 -0.1040
  636MOL0     H87711   4.080   1.589   3.851  3.8067 -0.6974 -0.9374
  636MOL0     H87712   3.984   1.529   3.717  0.6283 -2.1637  1.1391
  636MOL0     H87713   4.176   1.514   3.569 -0.2807 -0.3969 -0.4556
  636MOL0     H87714   4.221   1.422   3.714  0.6937  0.4493  2.0763
  636MOL0     H87715   4.317   1.703   3.646  2.0799  0.7196  2.1908
  636MOL0     H87716   4.344   1.619   3.800  0.0645  0.3292  0.4859
  636MOL0     H87717   4.391   1.627   3.414  0.3765 -0.9212 -0.8188
  636MOL0     H87718   4.583   1.486   3.236 -0.0713  0.3635 -0.5825
  636MOL0     H87719   4.692   1.399   3.328 -1.4337 -0.2501 -0.7826
  636MOL0     H87720   4.681   1.709   3.318  0.6305  0.3381  0.0114
  636MOL0     H87721   4.810   1.617   3.412 -3.2070 -0.5605  1.1539
  636MOL0     H87722   4.893   1.529   3.180 -0.0419 -0.5455  1.9647
  636MOL0     H87723   4.783   1.633   3.105 -1.6594 -2.9544 -0.9029
  636MOL0     H87724   4.905   1.808   3.276  2.6410  0.4445  0.4334
  636MOL0     H87725   5.027   1.680   3.286 -0.7665 -3.0034  0.2524
  636MOL0     H87726   5.120   1.903   2.912  1.6717  1.9276  1.5947
  636MOL0     H87727   5.396   1.802   2.704  0.8784  0.1423  1.0249
  636MOL0     H87728   5.301   1.940   2.761 -2.6918 -0.4407  3.9244
  636MOL0     H87729   5.231   1.814   2.647 -0.4928 -1.4951  0.3872
  636MOL0     H87730   5.221   1.278   2.534  0.9956 -1.2558  0.6557
  636MOL0     H87731   5.337   1.109   2.407 -1.7458  0.8082  0.3826
  636MOL0     H87732   5.755   1.043   2.401 -3.0868  3.7514  2.3477
  636MOL0     H87733   5.738   0.976   2.553 -1.9788 -1.5605  0.7121
  636MOL0     H87734   5.717   0.843   2.276  0.4886 -0.3910 -1.3111
  636MOL0     H87735   5.824   0.794   2.414 -0.9728 -1.4414  0.9764
  636MOL0     H87736   5.667   0.618   2.379 -2.1875  1.0983 -3.1070
  636MOL0     H87737   5.525   0.714   2.403 -2.0575  0.6425  4.2875
  636MOL0     H87738   5.571   0.783   2.620  0.7164 -0.3729  0.6189
  636MOL0     H87739   5.724   0.714   2.635 -0.3442  3.3816  1.0884
  636MOL0     H87740   5.537   0.567   2.718  0.8269 -3.2890  0.5979
  636MOL0     H87741   5.464   0.550   2.558  0.0289  1.5953  1.0157
  636MOL0     H87742   5.664   0.433   2.475  3.8982  1.2053 -0.4774
  636MOL0     H87743   5.594   0.347   2.618  2.0966 -0.7362  0.8257
  636MOL0     H87744   5.770   0.459   2.759  3.1496  0.3203  0.4185
  636MOL0     H87745   5.853   0.518   2.617 -0.4436  1.1989  0.7646
  636MOL0     H87746   5.858   0.272   2.552  0.2046  0.5042 -0.4338
  636MOL0     H87747   5.766   0.247   2.719 -0.6313  3.9658  3.1814
  636MOL0     H87748   5.684   1.154   2.636 -0.3273 -2.7439 -1.1278
  636MOL0     H87749   5.568   1.359   2.760 -0.3821  0.8273 -1.2589
  636MOL0     H87750   5.274   1.442   2.996  0.0404  0.0060  1.1603
  636MOL0     H87751   5.099   1.527   3.125 -0.3217  0.3857 -1.0086
  636MOL0     H87752   4.036   2.341   3.266  0.3270 -1.7210  1.0622
  636MOL0     H87753   4.163   2.562   3.317  3.3592  0.7266  0.4028
  636MOL0     H87754   4.451   2.812   3.432 -0.9244  0.5013 -0.0652
  636MOL0     H87755   4.499   3.056   3.397 -0.0523 -1.8086  2.2756
  636MOL0     H87756   4.613   3.245   3.422 -0.3317  0.9000  0.5615
  636MOL0     H87757   4.777   3.182   3.449 -2.1695  0.4491  0.9621
  636MOL0     H87758   4.850   3.374   3.299  0.2125 -1.2180  0.4713
  636MOL0     H87759   4.775   3.394   3.457  0.2440  0.1639 -0.3656
  636MOL0     H87760   4.605   3.405   3.192 -2.4407  1.5903 -1.1964
  636MOL0     H87761   4.555   3.455   3.349  0.3285 -4.9272  1.2826
  636MOL0     H87762   4.775   3.607   3.219  0.4361 -1.9416  0.7420
  636MOL0     H87763   4.677   3.630   3.376  1.2956 -6.9032  2.7710
  636MOL0     H87764   4.448   3.769   3.032 -0.6092 -0.4841  0.0572
  636MOL0     H87765   4.820   2.957   3.146  1.1911 -2.2499  0.1258
  636MOL0     H87766   4.843   2.738   3.047  0.6096 -0.1288  0.6093
  636MOL0     H87767   4.782   2.599   3.147  0.1582  0.2037  1.0298
  636MOL0     H87768   4.695   2.652   3.015  0.8172 -0.4842  0.9830
  637MOL0     O87769   6.254   8.454   7.038 -0.4655  0.7860  0.6833
  637MOL0     C87770   6.240   8.350   6.971  0.4152 -0.1877  0.3282
  637MOL0     O87771   6.346   8.266   6.936 -0.6563 -0.9365  0.2609
  637MOL0     C87772   6.467   8.305   7.001 -0.3156 -0.4915 -0.8582
  637MOL0     C87773   6.484   8.300   7.147 -0.2161 -0.2478  0.5454
  637MOL0     C87774   6.611   8.326   7.209  0.2455 -0.0376 -0.2867
  637MOL0     C87775   6.710   8.359   7.128 -0.3391 -0.0982  0.9396
  637MOL0     O87776   6.837   8.377   7.179 -0.0597 -0.4029  0.0050
  637MOL0     C87777   6.856   8.436   7.312 -0.7756  0.0533 -0.2426
  637MOL0     C87778   6.884   8.312   7.415 -0.8772  0.7176 -0.1719
  637MOL0     C87779   7.013   8.233   7.384 -1.3579  0.3984  0.6841
  637MOL0     C87780   7.057   8.149   7.509 -0.1676  0.1123 -0.1972
  637MOL0     C87781   7.102   8.009   7.473 -0.3266  0.7964  0.4325
  637MOL0     C87782   7.217   8.007   7.369  0.5298 -0.3738  0.2158
  637MOL0     C87783   7.283   7.868   7.342  0.1780  0.7812 -0.1339
  637MOL0     C87784   7.196   7.790   7.242 -0.2654 -0.1630 -0.4057
  637MOL0     N87785   7.158   7.848   7.117  0.3438  0.2594 -0.2253
  637MOL0     C87786   7.049   7.921   7.091 -0.0808 -0.3117 -0.7309
  637MOL0     C87787   7.085   7.985   6.975  0.2049  0.5137  0.5856
  637MOL0     C87788   6.982   8.078   6.905  0.5132 -0.2925  0.1367
  637MOL0     C87789   6.906   8.003   6.788 -0.5417 -0.3225  0.5704
  637MOL0     C87790   6.787   8.079   6.738  0.2417 -1.0910  0.3534
  637MOL0     C87791   6.834   8.209   6.652  0.2710 -1.0374  0.2732
  637MOL0     O87792   6.713   8.252   6.590 -0.6183  0.4242  0.0741
  637MOL0     C87793   6.725   8.352   6.493 -0.3587 -1.1576 -0.4792
  637MOL0     C87794   6.616   8.395   6.416  0.1728 -0.9794 -0.1001
  637MOL0     C87795   6.627   8.491   6.322 -0.3742 -0.1931  1.1157
  637MOL0     C87796   6.495   8.529   6.247 -0.1799 -0.8719 -0.4776
  637MOL0     C87797   6.738   8.569   6.301 -0.4282 -0.0016  0.8234
  637MOL0     C87798   6.756   8.683   6.205 -0.9043 -0.3927 -0.4846
  637MOL0     O87799   6.864   8.764   6.231  0.0836  0.0784 -0.3321
  637MOL0     C87800   6.883   8.872   6.156 -0.3206 -0.9076 -0.2516
  637MOL0     C87801   6.768   8.958   6.131 -0.4866  0.6915 -0.1077
  637MOL0     C87802   6.787   9.077   6.057 -0.2090 -0.3113 -0.5273
  637MOL0     C87803   6.921   9.120   6.019 -0.3342  0.1105 -0.7383
  637MOL0     O87804   6.948   9.237   5.955 -0.2299  0.1795  0.3935
  637MOL0     C87805   6.844   9.327   5.932 -0.4848 -1.2157  0.4188
  637MOL0     C87806   6.898   9.454   5.873 -0.9411 -0.4811  0.3601
  637MOL0     C87807   6.948   9.550   5.989  0.7186 -0.1088  0.2733
  637MOL0     C87808   7.000   9.685   5.936 -1.1308 -0.0940  0.0405
  637MOL0     C87809   7.146   9.694   5.886  0.0786 -1.1426 -0.4104
  637MOL0     C87810   7.241   9.617   5.977  0.8039  0.3614  0.0402
  637MOL0     C87811   7.389   9.653   5.955 -0.1596 -0.6548 -0.3324
  637MOL0     C87812   7.486   9.542   5.999  0.8473 -0.3960  0.2367
  637MOL0    Cl87813   7.458   9.493   6.171 -0.2214  0.1843 -0.1539
  637MOL0     C87814   7.029   9.041   6.055  0.5456  0.3372 -0.3345
  637MOL0     C87815   7.010   8.921   6.130  0.4717  0.1536 -0.3528
  637MOL0     O87816   6.678   8.687   6.108 -0.8945 -0.2308 -0.8356
  637MOL0     C87817   6.854   8.525   6.370 -0.4372 -0.3468 -0.1578
  637MOL0     C87818   6.847   8.428   6.474  0.3743  0.4942  0.0687
  637MOL0     N87819   7.205   7.934   6.926 -0.4013 -1.3447 -0.5302
  637MOL0     N87820   7.246   7.854   7.012 -0.5112 -0.4687 -0.7131
  637MOL0     C87821   6.705   8.358   6.991 -0.1708  0.1167 -0.6437
  637MOL0     C87822   6.583   8.338   6.927 -0.2779  1.3653 -0.4892
  637MOL0     C87823   6.109   8.323   6.912 -0.1591  0.2656  0.4836
  637MOL0     C87824   6.067   8.188   6.915  0.5176 -0.1329  0.4373
  637MOL0     C87825   5.940   8.149   6.891  0.0673 -0.4535 -0.5454
  637MOL0     C87826   5.840   8.245   6.873 -0.1634  0.2100  1.1812
  637MOL0     O87827   5.708   8.215   6.842  0.2481 -0.1333 -0.4860
  637MOL0     C87828   5.660   8.077   6.856  0.2032 -0.5185 -0.0458
  637MOL0     C87829   5.687   8.000   6.738 -0.5425  0.6288 -0.1468
  637MOL0     C87830   5.649   7.849   6.747  0.9379  0.3020 -0.5869
  637MOL0     C87831   5.718   7.770   6.864 -0.4666  0.8544 -0.3017
  637MOL0     C87832   5.857   7.766   6.841 -0.6060 -0.2983  0.8583
  637MOL0     C87833   5.979   7.768   6.838 -0.3684  0.2870  0.3890
  637MOL0     C87834   5.880   8.381   6.864  0.2382 -0.1380 -0.7210
  637MOL0     C87835   6.017   8.421   6.877  0.0840  1.1190 -1.0431
  637MOL0     C87836   6.044   8.573   6.862 -0.4233  0.1076 -0.0546
  637MOL0     H87837   6.400   8.256   7.200 -0.7851 -1.9640 -1.5941
  637MOL0     H87838   6.626   8.295   7.312 -0.6826 -0.9544 -0.4178
  637MOL0     H87839   6.765   8.485   7.347 -1.1815 -1.2255  0.5900
  637MOL0     H87840   6.944   8.500   7.317 -1.6398  1.1841  3.1154
  637MOL0     H87841   6.896   8.347   7.518  0.0959  0.5716 -0.2273
  637MOL0     H87842   6.796   8.247   7.415 -0.5173  0.2120 -0.8818
  637MOL0     H87843   7.006   8.172   7.293 -1.3363 -1.0586  1.6396
  637MOL0     H87844   7.096   8.303   7.369  1.5557 -3.0585 -1.1130
  637MOL0     H87845   7.143   8.201   7.552 -1.7399  4.0589 -1.2717
  637MOL0     H87846   6.972   8.134   7.577 -0.3336 -0.9505 -0.6309
  637MOL0     H87847   7.014   7.955   7.436  0.0727 -0.5578  1.3913
  637MOL0     H87848   7.127   7.955   7.564  3.4195  0.1157 -0.8581
  637MOL0     H87849   7.185   8.058   7.277 -2.7830 -3.7336 -0.7367
  637MOL0     H87850   7.307   8.062   7.399  1.0370  2.1071 -4.7287
  637MOL0     H87851   7.302   7.811   7.433  0.8593  2.1532  0.6212
  637MOL0     H87852   7.381   7.886   7.295 -0.5150  2.1641 -1.1184
  637MOL0     H87853   7.241   7.695   7.214  1.2590  0.1131  0.9630
  637MOL0     H87854   7.107   7.762   7.300  0.3024  1.5207  1.4108
  637MOL0     H87855   6.957   7.938   7.146 -1.3751 -3.9354 -1.5117
  637MOL0     H87856   7.037   8.158   6.855 -1.6048 -0.8467 -3.3450
  637MOL0     H87857   6.921   8.123   6.984  1.4727  0.7958  0.2960
  637MOL0     H87858   6.971   7.984   6.703 -2.7854  0.5913 -1.4816
  637MOL0     H87859   6.878   7.904   6.827  1.6893 -1.1121  0.2659
  637MOL0     H87860   6.744   8.008   6.668 -2.0048  1.1163 -0.6726
  637MOL0     H87861   6.709   8.100   6.812  1.5358 -1.8155  1.9718
  637MOL0     H87862   6.860   8.287   6.724 -1.6847  0.4970 -0.5849
  637MOL0     H87863   6.911   8.199   6.575 -1.6080  1.0844 -2.0511
  637MOL0     H87864   6.527   8.333   6.413 -0.1823 -0.4940 -2.4831
  637MOL0     H87865   6.417   8.454   6.266 -0.0107 -1.0857 -0.6254
  637MOL0     H87866   6.511   8.522   6.139  1.8448  0.3720 -0.2938
  637MOL0     H87867   6.457   8.625   6.281 -0.6279 -1.2654  0.1568
  637MOL0     H87868   6.664   8.934   6.152 -0.3982 -1.6591 -1.9502
  637MOL0     H87869   6.695   9.131   6.040  1.2651  1.9399 -2.0732
  637MOL0     H87870   6.770   9.284   5.864 -1.1401  0.5192 -0.0344
  637MOL0     H87871   6.791   9.347   6.026  0.8694 -0.2058  1.0033
  637MOL0     H87872   6.983   9.433   5.808 -1.6181 -1.3387 -0.2662
  637MOL0     H87873   6.822   9.504   5.813  0.3675  0.4407 -0.5972
  637MOL0     H87874   7.029   9.500   6.043  0.0277 -1.8819 -0.2724
  637MOL0     H87875   6.856   9.565   6.046  0.8521  2.2775 -0.0341
  637MOL0     H87876   7.003   9.761   6.015  0.5752 -2.0813  2.0099
  637MOL0     H87877   6.947   9.727   5.850  0.5442  0.4846 -0.7575
  637MOL0     H87878   7.150   9.661   5.782  0.5446 -0.9346 -0.4639
  637MOL0     H87879   7.186   9.796   5.893 -2.6260  0.0198 -0.6159
  637MOL0     H87880   7.216   9.513   5.951 -2.5527  0.8811  0.6590
  637MOL0     H87881   7.211   9.627   6.082  2.1657  0.3366  0.4454
  637MOL0     H87882   7.388   9.736   6.027 -1.9205 -0.8802 -0.0375
  637MOL0     H87883   7.411   9.688   5.854 -2.0827 -0.1921 -0.6318
  637MOL0     H87884   7.592   9.565   5.981  0.3771  1.1589 -0.7115
  637MOL0     H87885   7.487   9.459   5.928  2.4289  1.1658 -1.7076
  637MOL0     H87886   7.135   9.059   6.039  0.9050 -1.1375  0.2079
  637MOL0     H87887   7.103   8.876   6.164  2.3923  3.4831 -0.7033
  637MOL0     H87888   6.953   8.556   6.341 -0.5632 -0.7530 -1.0833
  637MOL0     H87889   6.931   8.409   6.541 -0.4122 -0.0408  0.9203
  637MOL0     H87890   6.792   8.383   6.932  0.4199  4.2726  1.6064
  637MOL0     H87891   6.582   8.341   6.819 -3.1556 -0.5913 -0.6184
  637MOL0     H87892   6.138   8.115   6.953 -1.0892 -1.6747  0.6608
  637MOL0     H87893   5.926   8.042   6.902 -0.9270 -0.3913 -1.1660
  637MOL0     H87894   5.702   8.028   6.945  2.7188  0.9635 -0.3081
  637MOL0     H87895   5.551   8.077   6.859  0.1445  2.1250 -0.5875
  637MOL0     H87896   5.794   7.989   6.717 -0.3360 -1.9244  1.7159
  637MOL0     H87897   5.644   8.052   6.652 -2.1716 -0.9301 -0.3257
  637MOL0     H87898   5.543   7.834   6.765  1.3138 -1.0645  0.6724
  637MOL0     H87899   5.679   7.810   6.649  2.8055 -1.6119  0.6558
  637MOL0     H87900   5.677   7.669   6.872 -0.5507  0.9820  1.1746
  637MOL0     H87901   5.685   7.808   6.961 -1.7114 -0.5389 -0.1396
  637MOL0     H87902   6.086   7.760   6.835 -0.4670 -1.8856  0.9951
  637MOL0     H87903   5.808   8.459   6.843  0.9999  1.2309  1.4165
  637MOL0     H87904   6.151   8.599   6.868 -0.8472  2.2581 -0.9265
  637MOL0     H87905   6.013   8.605   6.762 -1.2398 -3.0726 -0.9176
  637MOL0     H87906   5.984   8.625   6.937  1.2664 -0.2537  1.6495
  638MOL0     O87907   3.014   9.345   2.952 -1.0274  0.6519 -0.8969
  638MOL0     C87908   3.025   9.286   2.837 -0.4585 -0.6084 -0.3867
  638MOL0     O87909   3.139   9.231   2.789 -0.0023  0.3581 -0.0713
  638MOL0     C87910   3.253   9.223   2.863 -1.1906  0.6239  0.0038
  638MOL0     C87911   3.283   9.112   2.938  1.1004  0.0462 -0.3947
  638MOL0     C87912   3.395   9.105   3.014 -0.2706 -0.6170  0.3767
  638MOL0     C87913   3.497   9.204   3.014 -0.7657 -0.3907 -0.3432
  638MOL0     O87914   3.608   9.173   3.086  0.1723 -1.0228 -0.0485
  638MOL0     C87915   3.696   9.286   3.118 -0.0749 -0.4490  0.3115
  638MOL0     C87916   3.810   9.229   3.199  0.1730 -0.2319  0.8595
  638MOL0     C87917   3.747   9.164   3.331 -0.1547  0.1575  0.2712
  638MOL0     C87918   3.705   9.281   3.424  0.3134  0.3856 -0.2372
  638MOL0     C87919   3.658   9.227   3.558 -0.0220  0.5688  0.2653
  638MOL0     C87920   3.514   9.178   3.544  0.1450  0.5682  1.2468
  638MOL0     C87921   3.467   9.128   3.676 -0.3606  0.6067  0.3685
  638MOL0     C87922   3.447   9.228   3.790 -0.4205  0.0698  0.3234
  638MOL0     N87923   3.330   9.321   3.762 -0.3671  0.1795 -0.6306
  638MOL0     C87924   3.336   9.420   3.675 -0.1752 -0.3990  1.4410
  638MOL0     C87925   3.214   9.477   3.685  0.3195 -0.8473  0.0069
  638MOL0     C87926   3.151   9.581   3.602 -0.1471 -0.6990 -0.4422
  638MOL0     C87927   3.171   9.727   3.659  0.0681  0.1078  0.0719
  638MOL0     C87928   3.314   9.774   3.687  0.9418 -0.1059  0.4051
  638MOL0     C87929   3.394   9.797   3.555  0.4466  0.1860 -0.3612
  638MOL0     O87930   3.487   9.679   3.553 -0.0683 -0.1904 -0.1923
  638MOL0     C87931   3.548   9.664   3.434 -0.3909 -0.5685  0.2994
  638MOL0     C87932   3.686   9.693   3.417  0.4944  0.5916 -1.5856
  638MOL0     C87933   3.755   9.685   3.294  0.9730 -0.4139 -0.0003
  638MOL0     C87934   3.900   9.660   3.279 -0.4734  0.9445  0.2596
  638MOL0     C87935   3.671   9.671   3.177 -1.1383  0.1576  0.6133
  638MOL0     C87936   3.730   9.692   3.040  0.5878  1.0592 -0.2546
  638MOL0     O87937   3.799   9.798   3.017 -0.3825 -0.7150  0.0182
  638MOL0     C87938   3.885   9.816   2.909 -0.3523  0.5123  0.9399
  638MOL0     C87939   3.943   9.936   2.909  0.3799 -0.1292  1.0296
  638MOL0     C87940   4.034   9.976   2.815  0.7656 -0.5396  0.3316
  638MOL0     C87941   4.073   9.888   2.712 -0.0563 -0.6203  0.3734
  638MOL0     O87942   4.158   9.924   2.609 -0.4886  0.3584 -0.2995
  638MOL0     C87943   4.119   9.905   2.475 -0.4395 -0.0225  0.0617
  638MOL0     C87944   4.024  10.015   2.413 -0.9202  0.4205 -0.4382
  638MOL0     C87945   4.012   9.976   2.267 -1.0740 -0.9162 -0.4382
  638MOL0     C87946   3.934  10.070   2.170  0.0161 -0.7804  0.0503
  638MOL0     C87947   3.896  10.008   2.031  0.1994  0.8172 -0.7838
  638MOL0     C87948   3.787  10.094   1.970  0.4949 -0.2595  0.4217
  638MOL0     C87949   3.719  10.044   1.845 -0.3178 -0.3463  0.3161
  638MOL0     C87950   3.716  10.144   1.736 -0.1441 -0.4597  0.9800
  638MOL0    Cl87951   3.638  10.294   1.785 -0.3965  0.5313  0.0884
  638MOL0     C87952   4.022   9.752   2.722 -1.2751 -0.1859  1.0687
  638MOL0     C87953   3.925   9.722   2.814  0.7113 -0.4485  0.9215
  638MOL0     O87954   3.705   9.605   2.955  0.5274  0.3886  0.1154
  638MOL0     C87955   3.528   9.664   3.185 -0.1166 -0.5350  0.4495
  638MOL0     C87956   3.475   9.653   3.311  1.0277 -0.0760  0.5086
  638MOL0     N87957   3.142   9.426   3.795  0.1011 -0.5568 -0.0246
  638MOL0     N87958   3.215   9.326   3.837 -0.6155  0.2659 -0.8232
  638MOL0     C87959   3.457   9.321   2.945  0.6983  0.0961 -0.1756
  638MOL0     C87960   3.340   9.332   2.863 -0.2519 -0.8883  0.4884
  638MOL0     C87961   2.903   9.260   2.748 -0.0747 -0.1767 -0.1971
  638MOL0     C87962   2.890   9.133   2.687 -0.1499  0.5636  0.2290
  638MOL0     C87963   2.788   9.109   2.599 -1.0707  0.3950 -0.1549
  638MOL0     C87964   2.687   9.200   2.576 -0.1326 -0.2683  0.5260
  638MOL0     O87965   2.599   9.185   2.473 -0.1352 -0.2859  0.3052
  638MOL0     C87966   2.523   9.296   2.424  0.5489 -0.6373 -0.2700
  638MOL0     C87967   2.434   9.233   2.315 -0.2029 -0.3686 -0.3605
  638MOL0     C87968   2.386   9.356   2.218 -0.2440 -0.3457 -0.2580
  638MOL0     C87969   2.291   9.314   2.100  0.6857  0.4732 -0.4520
  638MOL0     C87970   2.260   9.431   2.021  0.6582  1.4959 -0.9174
  638MOL0     C87971   2.253   9.533   1.961  0.2112  0.2565 -0.2365
  638MOL0     C87972   2.692   9.321   2.656  0.2268 -0.6288  0.3096
  638MOL0     C87973   2.802   9.349   2.739 -0.3315 -0.3371  1.1500
  638MOL0     C87974   2.801   9.479   2.811 -0.3958  0.6221  0.2746
  638MOL0     H87975   3.219   9.026   2.921  0.5167  0.3525  0.2134
  638MOL0     H87976   3.413   9.019   3.078 -0.9480 -1.7308 -0.8663
  638MOL0     H87977   3.660   9.371   3.176 -0.6754  0.5515 -1.4526
  638MOL0     H87978   3.740   9.317   3.022  1.0256  1.7773  1.4627
  638MOL0     H87979   3.849   9.149   3.135  1.9982  0.2963  1.2688
  638MOL0     H87980   3.891   9.294   3.234 -0.3486  0.5503  0.6466
  638MOL0     H87981   3.674   9.085   3.312  0.7956 -0.9132  0.9859
  638MOL0     H87982   3.822   9.105   3.383 -1.5643 -2.7442 -0.7806
  638MOL0     H87983   3.783   9.355   3.443 -0.8985  1.2426  1.6448
  638MOL0     H87984   3.621   9.341   3.389  1.6267  2.2182 -0.3806
  638MOL0     H87985   3.654   9.310   3.628 -2.8576 -0.5569  1.5737
  638MOL0     H87986   3.715   9.148   3.609 -1.0106  0.5396  1.3714
  638MOL0     H87987   3.446   9.258   3.511  1.3410  0.5407 -1.5995
  638MOL0     H87988   3.508   9.098   3.469  1.5221  1.9460 -0.4304
  638MOL0     H87989   3.542   9.059   3.716  0.5087  1.4998  0.3176
  638MOL0     H87990   3.372   9.075   3.666 -1.4482  2.4238  0.7420
  638MOL0     H87991   3.437   9.179   3.888  0.9364  1.2154  1.0738
  638MOL0     H87992   3.539   9.287   3.797  0.5064 -1.3280  0.4373
  638MOL0     H87993   3.404   9.447   3.595  1.8345  3.0496  4.0093
  638MOL0     H87994   3.043   9.562   3.594 -0.2983 -0.5230  0.9114
  638MOL0     H87995   3.209   9.577   3.510  0.7376  0.4275  0.0422
  638MOL0     H87996   3.124   9.792   3.585 -2.2107 -0.4648  0.9295
  638MOL0     H87997   3.110   9.736   3.749  3.8952 -2.2124  3.1977
  638MOL0     H87998   3.309   9.859   3.757  2.5582 -0.1294  0.5761
  638MOL0     H87999   3.369   9.701   3.747 -1.4145 -0.0027  2.8863
  638MOL0     H88000   3.330   9.803   3.466  0.5969 -0.2152 -0.4994
  638MOL0     H88001   3.453   9.888   3.569  0.9871 -0.1434 -0.4749
  638MOL0     H88002   3.761   9.702   3.494 -0.4443 -0.3169 -0.5376
  638MOL0     H88003   3.942   9.760   3.267 -1.6822  1.2289 -2.1042
  638MOL0     H88004   3.927   9.584   3.204 -2.4910 -0.9435  1.3256
  638MOL0     H88005   3.948   9.618   3.368 -0.4890  1.0169  0.3028
  638MOL0     H88006   3.913  10.017   2.975  0.0633  0.4572  0.1765
  638MOL0     H88007   4.075  10.077   2.822  2.5513 -1.0508 -1.5783
  638MOL0     H88008   4.208   9.898   2.411 -1.0442 -1.8265 -0.6439
  638MOL0     H88009   4.073   9.808   2.455 -0.6638  0.1536 -0.2939
  638MOL0     H88010   3.927  10.014   2.463 -0.1668  2.6898  1.2431
  638MOL0     H88011   4.072  10.112   2.429 -1.9440  1.0882 -1.3384
  638MOL0     H88012   3.959   9.881   2.272  0.5635 -1.8218  0.9939
  638MOL0     H88013   4.112   9.956   2.228 -1.6329 -5.3686 -0.0313
  638MOL0     H88014   4.001  10.153   2.145 -0.2156 -0.6617 -0.1871
  638MOL0     H88015   3.846  10.105   2.224  0.6744 -0.2875  0.8252
  638MOL0     H88016   3.983  10.002   1.966  0.4726 -2.1017 -0.3030
  638MOL0     H88017   3.857   9.907   2.046  4.1507 -1.0152 -1.5878
  638MOL0     H88018   3.822  10.197   1.956 -0.1451 -0.0643  0.2084
  638MOL0     H88019   3.708  10.119   2.042  1.0817 -1.5872  1.5854
  638MOL0     H88020   3.615  10.019   1.865 -0.8184  2.1598  1.2360
  638MOL0     H88021   3.774   9.956   1.808 -1.4394 -0.3723 -1.4034
  638MOL0     H88022   3.663  10.115   1.644 -2.6901  2.0035  1.5251
  638MOL0     H88023   3.823  10.155   1.713 -0.5223 -0.3159 -0.9502
  638MOL0     H88024   4.051   9.689   2.639  2.2092  1.6952  0.6328
  638MOL0     H88025   3.891   9.619   2.821 -0.8668  0.0651  1.3202
  638MOL0     H88026   3.464   9.671   3.098  2.1216  1.7743 -1.1664
  638MOL0     H88027   3.367   9.646   3.315  0.7401 -2.3495 -3.9150
  638MOL0     H88028   3.515   9.412   2.959 -1.2824  1.3557  0.1667
  638MOL0     H88029   3.323   9.424   2.808  1.7287 -0.4889  0.4672
  638MOL0     H88030   2.961   9.055   2.710  0.2520  0.9273  0.2393
  638MOL0     H88031   2.795   9.019   2.539 -1.5612  0.4543 -0.3110
  638MOL0     H88032   2.460   9.334   2.505  0.9729  1.3907 -0.8455
  638MOL0     H88033   2.582   9.376   2.380  0.5990 -0.9631 -0.7998
  638MOL0     H88034   2.344   9.180   2.347  0.0236 -2.1195 -2.3766
  638MOL0     H88035   2.496   9.170   2.251 -1.1797  0.4157 -2.1540
  638MOL0     H88036   2.338   9.431   2.281  3.1381  2.7715 -1.0342
  638MOL0     H88037   2.467   9.411   2.169  0.6205 -0.8061  0.5964
  638MOL0     H88038   2.197   9.272   2.138 -1.2565  1.6998 -3.5919
  638MOL0     H88039   2.353   9.244   2.043 -1.0448 -0.4860 -1.2029
  638MOL0     H88040   2.245   9.625   1.906 -1.1706  1.6923  2.1924
  638MOL0     H88041   2.612   9.393   2.644  0.7917  0.2512  1.6099
  638MOL0     H88042   2.753   9.552   2.745  1.3406 -1.0735 -3.1575
  638MOL0     H88043   2.742   9.471   2.902  1.3019 -0.2973  1.3533
  638MOL0     H88044   2.900   9.518   2.837 -0.7986  0.6708  1.8388
  639MOL0     O88045   0.632   4.201   2.627 -0.2996 -0.1793  0.5834
  639MOL0     C88046   0.691   4.227   2.521  0.5208  0.3966  0.3988
  639MOL0     O88047   0.834   4.215   2.496 -0.0244  0.4988  0.3883
  639MOL0     C88048   0.925   4.177   2.595 -0.0713  0.4941  0.4440
  639MOL0     C88049   0.969   4.258   2.704 -0.7098 -0.8014  0.3784
  639MOL0     C88050   1.089   4.223   2.778 -0.0611 -1.0405  0.6293
  639MOL0     C88051   1.169   4.117   2.743 -0.6208 -0.0043 -0.3149
  639MOL0     O88052   1.288   4.087   2.807  0.2183 -0.3866 -0.3452
  639MOL0     C88053   1.364   3.984   2.763 -0.8950 -0.3251  0.4800
  639MOL0     C88054   1.495   3.972   2.847  1.0988 -0.2276 -0.1081
  639MOL0     C88055   1.591   3.866   2.785 -0.8452  0.4564 -0.7321
  639MOL0     C88056   1.535   3.723   2.798 -0.4323  0.1778  0.2413
  639MOL0     C88057   1.638   3.623   2.741  0.6221  0.1066 -0.7966
  639MOL0     C88058   1.639   3.616   2.587  0.6892  0.5511  0.3500
  639MOL0     C88059   1.521   3.536   2.526  0.7134  0.4139  0.7059
  639MOL0     C88060   1.557   3.413   2.449 -0.0510  1.1795  0.7002
  639MOL0     N88061   1.566   3.308   2.557  0.0511  0.2594 -0.0036
  639MOL0     C88062   1.666   3.216   2.569  0.0106  0.4978 -0.5178
  639MOL0     C88063   1.640   3.151   2.686 -0.3979 -0.6557  0.6061
  639MOL0     C88064   1.722   3.038   2.741  0.3052 -0.0563 -0.1399
  639MOL0     C88065   1.635   2.918   2.777 -0.5500 -0.3598  0.1327
  639MOL0     C88066   1.716   2.787   2.812  0.1765  0.2735 -0.0853
  639MOL0     C88067   1.854   2.818   2.895  0.0172 -0.7557  0.3761
  639MOL0     O88068   1.880   2.723   2.990 -0.0537  0.0861 -0.4562
  639MOL0     C88069   1.896   2.594   2.947 -1.1552  1.1759  0.0294
  639MOL0     C88070   1.825   2.495   3.023  0.0856 -0.6415 -1.0406
  639MOL0     C88071   1.846   2.357   3.004 -0.3885 -0.0681 -0.0892
  639MOL0     C88072   1.781   2.260   3.085  0.6423 -0.0299 -0.0482
  639MOL0     C88073   1.949   2.318   2.910  0.5019  0.8722  0.1312
  639MOL0     C88074   1.983   2.181   2.875 -0.2164  0.7023 -0.4591
  639MOL0     O88075   2.006   2.143   2.747  0.0906 -0.0594 -0.4134
  639MOL0     C88076   2.034   2.013   2.709 -0.0949  0.1598  0.4562
  639MOL0     C88077   2.160   1.982   2.636  0.2318  0.4336 -0.2772
  639MOL0     C88078   2.201   1.844   2.632  0.2416  0.3975 -0.3043
  639MOL0     C88079   2.101   1.743   2.657  0.5226  0.5394 -0.2621
  639MOL0     O88080   2.132   1.616   2.629 -0.5954  0.9913 -0.5541
  639MOL0     C88081   2.060   1.493   2.658  0.6378  0.0945 -0.4697
  639MOL0     C88082   1.963   1.453   2.552  0.8989 -0.2235  0.2226
  639MOL0     C88083   2.004   1.344   2.446  0.2571  0.1284  0.6846
  639MOL0     C88084   2.099   1.408   2.347  0.6591  0.5396  0.6780
  639MOL0     C88085   2.141   1.302   2.242 -0.0451 -0.5792 -0.5352
  639MOL0     C88086   2.262   1.370   2.172  0.0770  0.4665 -0.4767
  639MOL0     C88087   2.321   1.271   2.078 -0.0598 -0.7118 -0.7925
  639MOL0     C88088   2.470   1.286   2.041  0.5611 -1.0206  0.0261
  639MOL0    Cl88089   2.566   1.232   2.181  0.4467 -0.0558  0.1280
  639MOL0     C88090   1.973   1.774   2.712 -0.0130  0.1022 -0.3332
  639MOL0     C88091   1.942   1.910   2.733  0.4350 -0.5426 -0.8199
  639MOL0     O88092   1.972   2.094   2.965  0.6355  0.0024 -0.6973
  639MOL0     C88093   2.011   2.417   2.832 -0.2239 -0.3285 -0.6426
  639MOL0     C88094   1.985   2.554   2.849 -0.5361 -0.0595  0.3827
  639MOL0     N88095   1.512   3.192   2.724 -0.4187 -0.5687  0.5945
  639MOL0     N88096   1.470   3.283   2.653  0.4375  0.0497 -0.2263
  639MOL0     C88097   1.123   4.032   2.645 -0.1871  0.2182 -0.6232
  639MOL0     C88098   1.013   4.068   2.562  0.9465 -1.1521  0.2126
  639MOL0     C88099   0.610   4.289   2.414  0.1227 -1.0295  0.3858
  639MOL0     C88100   0.601   4.224   2.291  0.5375  0.5337  0.2342
  639MOL0     C88101   0.503   4.265   2.196 -0.2783 -0.1099  0.3556
  639MOL0     C88102   0.421   4.378   2.221  0.0586  0.7021 -0.3072
  639MOL0     O88103   0.326   4.405   2.121 -0.1300 -0.9997 -0.4489
  639MOL0     C88104   0.212   4.490   2.144  0.6297  0.4744  0.2025
  639MOL0     C88105   0.176   4.543   2.012  0.2186  0.2127  0.3372
  639MOL0     C88106   0.273   4.652   1.953  0.0389  0.2849  1.0157
  639MOL0     C88107   0.224   4.716   1.816  0.0066  0.7541 -0.2518
  639MOL0     C88108   0.090   4.775   1.832  0.4547 -0.9163 -0.2712
  639MOL0     C88109  -0.010   4.843   1.846 -0.1201 -0.8061  0.2297
  639MOL0     C88110   0.421   4.435   2.350 -0.2402 -1.0300  0.0190
  639MOL0     C88111   0.512   4.389   2.443 -0.0146 -0.5986 -0.1182
  639MOL0     C88112   0.519   4.467   2.572 -0.1126 -0.9977  0.3478
  639MOL0     H88113   0.903   4.342   2.721 -3.4637 -2.4233 -1.5584
  639MOL0     H88114   1.120   4.292   2.857  2.7608  0.8597 -1.9101
  639MOL0     H88115   1.382   3.992   2.656  2.3736 -0.1261  0.9271
  639MOL0     H88116   1.307   3.892   2.779  0.3694 -1.9646 -3.3464
  639MOL0     H88117   1.543   4.069   2.832  0.6101  0.1304  0.5943
  639MOL0     H88118   1.477   3.957   2.954  1.4406  0.2990  0.0217
  639MOL0     H88119   1.619   3.886   2.681  0.1993  0.4236 -0.4774
  639MOL0     H88120   1.690   3.870   2.832  0.0888  2.5786 -2.6673
  639MOL0     H88121   1.525   3.696   2.903 -2.1780 -0.4444 -0.0468
  639MOL0     H88122   1.434   3.706   2.759 -0.3999  1.7197 -0.5876
  639MOL0     H88123   1.621   3.529   2.793 -4.0380  1.3793  0.4934
  639MOL0     H88124   1.740   3.660   2.752  1.0353 -0.6990 -1.8138
  639MOL0     H88125   1.638   3.713   2.537 -5.3253  0.1743 -1.0828
  639MOL0     H88126   1.735   3.570   2.563 -0.3900 -0.6816 -1.9453
  639MOL0     H88127   1.485   3.610   2.455 -2.4050 -0.6493  1.0556
  639MOL0     H88128   1.438   3.515   2.594 -0.0706  2.0668  0.3100
  639MOL0     H88129   1.472   3.400   2.381 -0.0104 -0.1322  0.8784
  639MOL0     H88130   1.644   3.436   2.387 -1.2556  4.0080 -0.1276
  639MOL0     H88131   1.742   3.196   2.495 -1.4545 -2.0048 -1.4727
  639MOL0     H88132   1.758   3.085   2.832 -0.9161  0.9571 -0.1612
  639MOL0     H88133   1.796   3.004   2.668 -1.3904  0.0589 -2.0148
  639MOL0     H88134   1.568   2.947   2.859 -0.6327  4.1990 -1.3115
  639MOL0     H88135   1.567   2.903   2.693 -0.7975  0.4153  0.1868
  639MOL0     H88136   1.655   2.718   2.871  0.8997 -0.1353  0.1904
  639MOL0     H88137   1.744   2.727   2.725 -0.6227 -1.4594  0.7930
  639MOL0     H88138   1.949   2.822   2.841  0.6416 -2.9913  1.2178
  639MOL0     H88139   1.857   2.918   2.941  3.5871 -1.8851  3.0410
  639MOL0     H88140   1.762   2.526   3.106  2.0046 -0.2201  0.3357
  639MOL0     H88141   1.697   2.302   3.142 -1.9487 -2.0656 -2.0573
  639MOL0     H88142   1.851   2.209   3.152  0.9196 -3.7954 -2.8570
  639MOL0     H88143   1.741   2.181   3.021  0.5886 -0.8410  0.9555
  639MOL0     H88144   2.238   2.056   2.619 -0.3843  0.8063 -1.5797
  639MOL0     H88145   2.301   1.810   2.609  0.7927  3.6038 -3.5853
  639MOL0     H88146   2.126   1.407   2.669 -2.0559 -1.8553  1.8758
  639MOL0     H88147   2.005   1.510   2.751  2.3860 -1.3049  0.8973
  639MOL0     H88148   1.880   1.407   2.608  0.5420 -0.0441 -0.1554
  639MOL0     H88149   1.925   1.546   2.509  0.5955  1.2754  3.4339
  639MOL0     H88150   1.912   1.318   2.393  0.9021 -2.5385  0.7436
  639MOL0     H88151   2.051   1.254   2.486 -2.7847 -1.5351  0.8219
  639MOL0     H88152   2.184   1.442   2.407  0.3312  1.7322  0.4933
  639MOL0     H88153   2.050   1.496   2.304  0.1239 -0.1570 -0.1812
  639MOL0     H88154   2.183   1.212   2.288 -1.0366 -0.4517  0.6720
  639MOL0     H88155   2.066   1.267   2.171 -0.1735 -0.6179 -0.3807
  639MOL0     H88156   2.337   1.388   2.249  0.6609 -5.7399  0.9497
  639MOL0     H88157   2.233   1.463   2.123  0.7592  0.9549  0.0316
  639MOL0     H88158   2.261   1.264   1.987 -0.2990 -0.1198 -0.6809
  639MOL0     H88159   2.311   1.170   2.121 -0.7557 -0.0419  0.6843
  639MOL0     H88160   2.495   1.390   2.020 -0.6213 -1.0357 -1.6436
  639MOL0     H88161   2.500   1.229   1.953 -0.2186  1.7161 -2.1697
  639MOL0     H88162   1.899   1.695   2.714 -1.4824  1.4167  0.3480
  639MOL0     H88163   1.848   1.930   2.783  0.3412  0.9328 -1.5474
  639MOL0     H88164   2.082   2.415   2.750 -0.1843  0.2091 -0.6291
  639MOL0     H88165   2.034   2.622   2.780 -1.3570  1.0204  0.8338
  639MOL0     H88166   1.177   3.951   2.597  1.4861  1.2680 -0.6044
  639MOL0     H88167   0.997   4.005   2.475  0.6756 -0.3073 -0.3697
  639MOL0     H88168   0.667   4.138   2.285 -0.9402 -0.6944  0.6641
  639MOL0     H88169   0.491   4.218   2.098  0.4857  2.6837 -1.1973
  639MOL0     H88170   0.123   4.436   2.177  1.3424 -1.0671 -0.3070
  639MOL0     H88171   0.225   4.574   2.214 -2.0621  2.9173 -1.9761
  639MOL0     H88172   0.079   4.588   2.032  0.1028 -0.4879  1.4038
  639MOL0     H88173   0.169   4.458   1.944  1.1901 -0.0592  0.5581
  639MOL0     H88174   0.285   4.734   2.025 -0.6737  0.3529  1.0648
  639MOL0     H88175   0.370   4.606   1.932 -1.3090 -1.0660 -3.3113
  639MOL0     H88176   0.215   4.636   1.741  2.0191  0.0871  0.1673
  639MOL0     H88177   0.294   4.791   1.779  2.0169 -0.0558  1.6991
  639MOL0     H88178  -0.096   4.905   1.861  0.9485  1.1774 -1.2916
  639MOL0     H88179   0.343   4.508   2.371  1.5455  0.7340  0.9063
  639MOL0     H88180   0.465   4.558   2.542  0.6720 -0.1880  1.3063
  639MOL0     H88181   0.460   4.432   2.656  0.2167  0.9577  1.4587
  639MOL0     H88182   0.618   4.500   2.605  0.8811 -3.1408 -0.3588
  640MOL0     O88183   3.326   3.343  11.275 -0.7447  0.1515  0.4833
  640MOL0     C88184   3.361   3.417  11.365 -0.7430 -0.5645  0.0515
  640MOL0     O88185   3.282   3.500  11.441 -0.4706 -0.5066 -0.1686
  640MOL0     C88186   3.151   3.492  11.415 -0.2509  0.4856  0.8392
  640MOL0     C88187   3.083   3.614  11.420  0.2978 -0.4019 -0.4311
  640MOL0     C88188   2.943   3.617  11.412  0.1527 -0.0655 -0.5909
  640MOL0     C88189   2.875   3.505  11.381  1.0549  0.2239 -0.0262
  640MOL0     O88190   2.741   3.508  11.360 -0.7279  1.0753  0.4486
  640MOL0     C88191   2.652   3.407  11.415 -0.5571  0.9133 -0.0380
  640MOL0     C88192   2.500   3.464  11.424  1.0692  0.3669  0.0349
  640MOL0     C88193   2.411   3.455  11.291  0.7637  0.3515 -0.2076
  640MOL0     C88194   2.284   3.546  11.293 -0.1201  1.2204  0.6734
  640MOL0     C88195   2.245   3.577  11.144 -0.0745  0.6419  0.3721
  640MOL0     C88196   2.212   3.728  11.121 -0.4457 -0.2808  0.4059
  640MOL0     C88197   2.140   3.750  10.984  0.1604 -0.1679  0.5661
  640MOL0     C88198   1.993   3.712  10.986  0.0037 -0.1415 -0.0087
  640MOL0     N88199   1.914   3.756  10.869 -0.3687  0.3445  0.4485
  640MOL0     C88200   1.939   3.721  10.736 -0.0852 -0.1818 -0.0220
  640MOL0     C88201   1.899   3.824  10.652  0.1425  1.1780  1.0288
  640MOL0     C88202   1.877   3.820  10.496 -0.4030  0.1313  0.7759
  640MOL0     C88203   1.987   3.759  10.409 -0.6280 -0.3174 -0.5715
  640MOL0     C88204   2.112   3.838  10.366  0.3886 -0.8063  0.0138
  640MOL0     C88205   2.174   3.906  10.492 -0.5372  0.2407 -0.0541
  640MOL0     O88206   2.295   3.965  10.439 -0.6040 -0.3433  0.0515
  640MOL0     C88207   2.348   4.052  10.532  1.0884  0.0142 -0.1186
  640MOL0     C88208   2.443   4.135  10.472 -0.0879 -0.8042 -1.2367
  640MOL0     C88209   2.499   4.243  10.536 -0.1459  0.5956 -0.7132
  640MOL0     C88210   2.603   4.317  10.459 -0.0959 -0.2116  0.1431
  640MOL0     C88211   2.486   4.259  10.678 -0.3654  0.4728 -0.0071
  640MOL0     C88212   2.540   4.375  10.751  0.2166 -0.7914 -1.1120
  640MOL0     O88213   2.648   4.455  10.709  1.0426  0.1389  0.3003
  640MOL0     C88214   2.691   4.563  10.781  0.3086  0.0744 -0.0924
  640MOL0     C88215   2.736   4.675  10.702  0.9014  0.4581  0.4713
  640MOL0     C88216   2.807   4.781  10.759 -0.5776  0.4369  0.2235
  640MOL0     C88217   2.830   4.774  10.895  0.1510  0.1242 -0.7587
  640MOL0     O88218   2.897   4.882  10.949  0.2999 -1.1733  0.7717
  640MOL0     C88219   2.977   4.865  11.065 -0.6100 -0.4172 -0.2402
  640MOL0     C88220   2.989   4.989  11.156 -0.4116 -0.0326 -0.1857
  640MOL0     C88221   2.851   5.049  11.188  0.7310  0.4915 -0.3272
  640MOL0     C88222   2.852   5.196  11.128 -0.6157  0.3299 -0.6313
  640MOL0     C88223   2.728   5.280  11.161 -0.4061 -0.4782  0.1696
  640MOL0     C88224   2.754   5.430  11.187  0.2387  0.1445  0.4534
  640MOL0     C88225   2.614   5.506  11.157 -0.4528  1.7522 -0.7203
  640MOL0     C88226   2.643   5.646  11.122  0.0712  1.0121  0.2715
  640MOL0    Cl88227   2.743   5.667  10.979 -0.1007  0.2284 -0.0375
  640MOL0     C88228   2.806   4.652  10.970  0.4468 -0.9471  0.5731
  640MOL0     C88229   2.731   4.558  10.913 -0.3952  0.4922 -0.1342
  640MOL0     O88230   2.482   4.399  10.861 -0.1514 -0.3409 -0.8890
  640MOL0     C88231   2.411   4.159  10.744 -0.6652 -0.5671  0.7920
  640MOL0     C88232   2.341   4.065  10.666 -0.2632 -0.2323  0.5244
  640MOL0     N88233   1.848   3.917  10.742 -0.0833  0.6738 -0.3996
  640MOL0     N88234   1.861   3.879  10.865  0.0377 -1.0404 -0.2058
  640MOL0     C88235   2.940   3.384  11.387 -0.8964  0.1174 -0.3453
  640MOL0     C88236   3.076   3.375  11.414 -0.6854 -0.0552  0.2644
  640MOL0     C88237   3.505   3.432  11.397 -0.3370 -0.2778 -0.7897
  640MOL0     C88238   3.543   3.499  11.518 -1.1007  0.3509 -0.0548
  640MOL0     C88239   3.678   3.494  11.571 -0.9279  0.3372  0.5501
  640MOL0     C88240   3.774   3.418  11.513  0.3060  0.3069  0.3307
  640MOL0     O88241   3.900   3.399  11.574 -0.1183 -0.1148  0.3680
  640MOL0     C88242   4.006   3.449  11.496  0.3288  0.9889 -0.0884
  640MOL0     C88243   4.128   3.489  11.583  1.1899 -0.6228 -0.6135
  640MOL0     C88244   4.101   3.605  11.682 -0.4862 -0.7049  0.2785
  640MOL0     C88245   4.093   3.743  11.615 -1.1023  0.6689  0.3144
  640MOL0     C88246   4.088   3.849  11.714  0.3194  0.1215  0.2474
  640MOL0     C88247   4.098   3.927  11.806  0.3004  0.0592 -0.3611
  640MOL0     C88248   3.742   3.357  11.390 -0.4961 -0.3876  0.8106
  640MOL0     C88249   3.616   3.371  11.330  0.3392  0.9327  0.2752
  640MOL0     C88250   3.605   3.331  11.179 -0.0374  0.0259 -0.2840
  640MOL0     H88251   3.129   3.711  11.439  0.6827 -0.9618  1.6848
  640MOL0     H88252   2.901   3.716  11.404 -0.6072 -0.2658  0.7074
  640MOL0     H88253   2.681   3.371  11.514  1.2475 -3.0394 -1.8142
  640MOL0     H88254   2.662   3.321  11.349  3.3258  1.1527  0.0344
  640MOL0     H88255   2.441   3.393  11.482 -0.7999  1.0985 -0.8794
  640MOL0     H88256   2.503   3.562  11.472  1.6206  0.9864 -1.2184
  640MOL0     H88257   2.461   3.484  11.198 -0.9227 -0.1749 -1.3284
  640MOL0     H88258   2.385   3.351  11.269 -1.5066  1.2712 -2.3528
  640MOL0     H88259   2.199   3.490  11.331  1.5485 -0.9905  1.3516
  640MOL0     H88260   2.318   3.638  11.342  0.7729  0.6436  1.1595
  640MOL0     H88261   2.168   3.503  11.122  0.9210 -0.6131  1.0080
  640MOL0     H88262   2.331   3.564  11.078 -0.4021 -0.2164  0.0985
  640MOL0     H88263   2.141   3.760  11.198  0.7336 -2.2476  2.4314
  640MOL0     H88264   2.299   3.793  11.125 -0.8078  0.6462 -3.2022
  640MOL0     H88265   2.192   3.710  10.897 -1.0354  0.3087 -0.4027
  640MOL0     H88266   2.138   3.859  10.977 -0.5396  0.3559  5.4618
  640MOL0     H88267   1.977   3.605  11.002 -1.7298 -0.6047 -3.8432
  640MOL0     H88268   1.957   3.770  11.072  4.3822 -0.8385  2.5951
  640MOL0     H88269   1.984   3.624  10.717 -1.4324 -0.5177 -1.7609
  640MOL0     H88270   1.852   3.921  10.463  0.8108  0.3513  0.5006
  640MOL0     H88271   1.781   3.770  10.479 -2.5375  3.9887  0.2865
  640MOL0     H88272   2.022   3.669  10.460 -0.6700  0.1805  0.3662
  640MOL0     H88273   1.943   3.730  10.313  2.5204  1.5757 -2.7897
  640MOL0     H88274   2.179   3.761  10.327  0.9093 -1.9508  2.8433
  640MOL0     H88275   2.079   3.914  10.296  2.2763  1.8356  1.7931
  640MOL0     H88276   2.111   3.984  10.537 -1.3539 -0.4344 -0.0017
  640MOL0     H88277   2.185   3.826  10.565 -0.8392  2.0537  2.0733
  640MOL0     H88278   2.457   4.135  10.364 -1.1796 -1.6547 -1.3979
  640MOL0     H88279   2.581   4.304  10.352 -1.8247 -0.2192  0.4770
  640MOL0     H88280   2.704   4.283  10.484  0.0834  0.5461  0.4531
  640MOL0     H88281   2.603   4.425  10.475  0.6149 -0.5164  2.6273
  640MOL0     H88282   2.708   4.683  10.598 -0.8817  0.6798  0.9302
  640MOL0     H88283   2.837   4.868  10.702 -1.9831  0.5743 -0.3576
  640MOL0     H88284   2.919   4.795  11.126 -2.4875  0.2842 -1.1620
  640MOL0     H88285   3.076   4.828  11.036 -0.6864  0.5906 -1.8726
  640MOL0     H88286   3.051   4.956  11.240  0.2153 -1.6009 -1.2404
  640MOL0     H88287   3.043   5.073  11.112 -0.5977  2.2372  3.4345
  640MOL0     H88288   2.835   5.055  11.296 -1.1079  2.3131 -0.6201
  640MOL0     H88289   2.764   4.995  11.150 -0.3497  0.6110  1.8303
  640MOL0     H88290   2.864   5.195  11.020 -1.2887  2.1849 -0.7600
  640MOL0     H88291   2.935   5.243  11.182 -2.2588  0.0056  2.4377
  640MOL0     H88292   2.665   5.272  11.071  0.7383 -1.5142 -0.5764
  640MOL0     H88293   2.669   5.237  11.242  2.4224 -2.3085  1.4085
  640MOL0     H88294   2.822   5.467  11.109 -3.1655 -0.1153 -2.9556
  640MOL0     H88295   2.796   5.446  11.287 -1.1327  4.0978  0.5863
  640MOL0     H88296   2.549   5.508  11.245  1.6069  0.6422  0.9446
  640MOL0     H88297   2.568   5.453  11.073  1.5245 -0.9150 -0.2767
  640MOL0     H88298   2.683   5.688  11.214 -1.1007 -0.8964  1.7349
  640MOL0     H88299   2.549   5.698  11.100 -1.0754 -0.8027  0.6779
  640MOL0     H88300   2.831   4.642  11.075 -0.8984  0.7508  1.1132
  640MOL0     H88301   2.696   4.473  10.971 -0.1002 -0.9369 -1.9586
  640MOL0     H88302   2.395   4.170  10.851  2.4370 -0.0268  1.3109
  640MOL0     H88303   2.283   3.988  10.716 -0.4609 -0.5796 -0.2271
  640MOL0     H88304   2.891   3.290  11.363 -0.1291  0.8172 -5.9604
  640MOL0     H88305   3.118   3.278  11.437 -1.5493  0.2025  3.5215
  640MOL0     H88306   3.476   3.556  11.583  0.2368  0.0840  1.6279
  640MOL0     H88307   3.703   3.543  11.665  1.2561  1.8344 -0.7246
  640MOL0     H88308   4.033   3.368  11.428 -1.3224  0.8319 -0.5892
  640MOL0     H88309   3.975   3.536  11.437  2.2468  1.4663 -0.4479
  640MOL0     H88310   4.203   3.507  11.506 -0.1626 -0.9362 -2.0547
  640MOL0     H88311   4.150   3.404  11.647  1.6273 -1.1874 -1.5006
  640MOL0     H88312   4.009   3.597  11.741  0.7769 -2.3341  2.1903
  640MOL0     H88313   4.184   3.602  11.754  0.7969  0.7083 -1.0774
  640MOL0     H88314   4.015   3.747  11.539  0.9893  0.5302 -1.9776
  640MOL0     H88315   4.185   3.763  11.560  0.8143  1.3659  3.4978
  640MOL0     H88316   4.109   3.992  11.890 -1.0440 -3.2832  2.6510
  640MOL0     H88317   3.810   3.298  11.329 -0.7748  2.8023 -2.9895
  640MOL0     H88318   3.565   3.231  11.162  1.0637 -0.4405 -0.2242
  640MOL0     H88319   3.549   3.406  11.124  1.4912  2.6308  1.4845
  640MOL0     H88320   3.706   3.328  11.138  0.0552 -0.7380 -0.0125
  641MOL0     O88321   6.561   0.893   4.622 -0.4312 -0.4397 -0.2516
  641MOL0     C88322   6.528   0.809   4.534 -0.2393  0.0374 -0.0600
  641MOL0     O88323   6.403   0.770   4.512 -0.5589  0.4758  0.4609
  641MOL0     C88324   6.288   0.840   4.546  0.1944  0.6922 -0.1528
  641MOL0     C88325   6.173   0.795   4.477  0.3547  0.7740  0.0401
  641MOL0     C88326   6.048   0.848   4.498 -0.4919 -0.0264 -0.1248
  641MOL0     C88327   6.034   0.959   4.585 -0.2543  0.0843  0.1253
  641MOL0     O88328   5.914   1.023   4.624 -0.1381  1.2328  0.0061
  641MOL0     C88329   5.790   0.964   4.593  1.5496  0.5079  0.9782
  641MOL0     C88330   5.680   1.037   4.664  0.0300 -0.0016 -0.6380
  641MOL0     C88331   5.541   0.967   4.655 -0.2086 -0.0282  0.2963
  641MOL0     C88332   5.448   1.041   4.757 -0.2427  0.0176 -0.3464
  641MOL0     C88333   5.309   0.978   4.770  0.0542 -0.0353 -0.4987
  641MOL0     C88334   5.221   1.091   4.828  0.7302 -0.3573 -0.2071
  641MOL0     C88335   5.075   1.045   4.850  0.1272 -0.4229 -0.4108
  641MOL0     C88336   5.025   1.027   4.998  0.6538 -0.8942  0.3255
  641MOL0     N88337   4.881   0.982   5.016 -0.5160  0.4845 -0.0703
  641MOL0     C88338   4.762   1.058   5.023 -0.2023  0.5810 -0.6272
  641MOL0     C88339   4.659   0.976   5.035  0.1056 -0.5707 -0.6108
  641MOL0     C88340   4.513   1.004   5.025 -0.0919  0.0115 -0.4353
  641MOL0     C88341   4.455   0.979   4.885 -0.3101 -0.2877  0.2151
  641MOL0     C88342   4.503   1.077   4.775 -0.6431 -0.6443  0.1625
  641MOL0     C88343   4.396   1.173   4.717 -0.3091 -0.1626 -1.1945
  641MOL0     O88344   4.306   1.094   4.637 -0.3178 -0.2894 -0.0118
  641MOL0     C88345   4.180   1.142   4.601 -0.0545 -0.1422 -1.0658
  641MOL0     C88346   4.080   1.050   4.569  0.0833 -0.3121 -0.7142
  641MOL0     C88347   3.947   1.085   4.544  0.1119  0.8681  0.1932
  641MOL0     C88348   3.847   0.970   4.525 -0.2966 -0.2742 -0.4214
  641MOL0     C88349   3.917   1.222   4.536 -0.0480 -0.9666 -0.2793
  641MOL0     C88350   3.781   1.277   4.499  0.5865 -0.2437  0.2802
  641MOL0     O88351   3.778   1.400   4.445 -0.1715  0.4400  0.5957
  641MOL0     C88352   3.661   1.464   4.455  0.5953  0.3643 -0.2559
  641MOL0     C88353   3.557   1.418   4.374  0.2717 -0.0249  0.5934
  641MOL0     C88354   3.428   1.468   4.384  0.3192 -0.0740  0.0818
  641MOL0     C88355   3.395   1.560   4.477 -0.5711 -0.0736  0.6819
  641MOL0     O88356   3.267   1.611   4.481 -0.9935 -0.6569  0.1566
  641MOL0     C88357   3.231   1.698   4.585  0.5280 -0.0154  0.5047
  641MOL0     C88358   3.080   1.716   4.564 -0.9479  0.6279 -0.5442
  641MOL0     C88359   3.003   1.600   4.627  0.4726  0.0428 -0.1409
  641MOL0     C88360   2.862   1.642   4.674 -0.3512  0.4276  0.4820
  641MOL0     C88361   2.874   1.681   4.820 -0.5635 -0.1750 -0.4577
  641MOL0     C88362   2.816   1.575   4.918 -0.2011 -0.0351  0.1673
  641MOL0     C88363   2.840   1.633   5.058  0.1803  0.9577  0.0148
  641MOL0     C88364   2.903   1.524   5.152 -0.2273  0.2982  0.1608
  641MOL0    Cl88365   2.937   1.627   5.291  0.0748 -0.1911 -0.6966
  641MOL0     C88366   3.502   1.610   4.555  0.5987  0.8121 -0.1291
  641MOL0     C88367   3.632   1.568   4.538  1.0535  0.2250 -0.6441
  641MOL0     O88368   3.681   1.221   4.540 -0.2475  0.3843 -0.0761
  641MOL0     C88369   4.017   1.320   4.571  0.2212 -0.6901  0.2094
  641MOL0     C88370   4.144   1.279   4.598 -0.7356  0.0043  0.7495
  641MOL0     N88371   4.718   0.850   5.033  0.2359  0.8445 -0.3104
  641MOL0     N88372   4.843   0.846   5.022 -0.0963 -0.3309 -0.4242
  641MOL0     C88373   6.148   1.005   4.654 -0.2763  0.1838  0.3446
  641MOL0     C88374   6.274   0.955   4.632  0.0858  0.7620  0.4816
  641MOL0     C88375   6.636   0.739   4.468 -0.1411 -0.5285 -0.0942
  641MOL0     C88376   6.609   0.611   4.417  0.3332 -1.0468  0.4260
  641MOL0     C88377   6.707   0.542   4.343  0.6248  0.2833 -0.4730
  641MOL0     C88378   6.832   0.590   4.321 -0.7302  0.1232  0.0423
  641MOL0     O88379   6.938   0.517   4.276  0.6981 -0.1201  0.6282
  641MOL0     C88380   6.921   0.424   4.168  0.5621  0.3859  0.7352
  641MOL0     C88381   6.855   0.286   4.189  0.3728 -0.4552 -0.8240
  641MOL0     C88382   6.910   0.171   4.100  0.3102  0.3221 -1.5182
  641MOL0     C88383   6.807   0.054   4.076  0.1920 -0.5330 -0.0213
  641MOL0     C88384   6.802  -0.032   4.190  0.1194  0.3427  0.4580
  641MOL0     C88385   6.788  -0.106   4.282  0.4128 -0.6983 -0.1074
  641MOL0     C88386   6.864   0.716   4.387  0.3919  0.2003  0.1550
  641MOL0     C88387   6.769   0.789   4.456 -1.1316  0.4973 -0.5717
  641MOL0     C88388   6.807   0.933   4.504  0.7231  0.9832 -0.1310
  641MOL0     H88389   6.177   0.710   4.408  1.4389 -2.3245  3.5825
  641MOL0     H88390   5.965   0.803   4.445  1.9571 -2.5356 -2.0560
  641MOL0     H88391   5.775   0.860   4.623  0.0695  0.3119 -0.3222
  641MOL0     H88392   5.766   0.969   4.486 -2.2159  2.4158  1.7523
  641MOL0     H88393   5.714   1.045   4.768 -1.7936  1.9018 -0.1017
  641MOL0     H88394   5.675   1.143   4.636 -1.3801  0.1655  0.1113
  641MOL0     H88395   5.504   0.975   4.552 -1.8328  1.3779  0.9351
  641MOL0     H88396   5.555   0.860   4.674  0.6691  0.1610  0.7414
  641MOL0     H88397   5.495   1.028   4.855 -0.7320 -1.3910 -0.2761
  641MOL0     H88398   5.435   1.149   4.740 -4.2131 -0.2715 -0.1092
  641MOL0     H88399   5.311   0.892   4.838 -2.2058 -2.1656 -2.8850
  641MOL0     H88400   5.263   0.953   4.675 -1.0618  0.2475 -0.0467
  641MOL0     H88401   5.257   1.130   4.923 -0.2258  2.8858 -1.0413
  641MOL0     H88402   5.217   1.177   4.760 -2.2268  0.5842  1.0032
  641MOL0     H88403   5.074   0.945   4.804  2.3238 -1.1924  1.0476
  641MOL0     H88404   5.006   1.111   4.798  3.8773  2.4826 -2.2209
  641MOL0     H88405   5.097   0.958   5.043  2.4125  0.8164  0.2550
  641MOL0     H88406   5.031   1.122   5.052  1.0516 -1.5417  1.4594
  641MOL0     H88407   4.753   1.167   5.027 -2.0422  0.4826 -1.2713
  641MOL0     H88408   4.493   1.108   5.050 -1.6946 -0.4699  0.4340
  641MOL0     H88409   4.459   0.933   5.088 -2.4886  1.0009 -1.2561
  641MOL0     H88410   4.491   0.878   4.864  1.5742  0.1176  1.2535
  641MOL0     H88411   4.346   0.976   4.897 -0.9549  0.6999 -3.7518
  641MOL0     H88412   4.586   1.136   4.816 -0.4958  0.2167 -1.3045
  641MOL0     H88413   4.532   1.015   4.689 -0.5163  1.3532 -1.2993
  641MOL0     H88414   4.347   1.231   4.797  0.4395 -1.5418  0.3210
  641MOL0     H88415   4.447   1.259   4.673 -0.8320 -0.0046 -1.5073
  641MOL0     H88416   4.102   0.944   4.565  0.4532 -0.2417 -0.5414
  641MOL0     H88417   3.906   0.882   4.498  1.0599 -0.5801  2.9190
  641MOL0     H88418   3.774   1.007   4.453 -0.2782 -1.1282 -0.8762
  641MOL0     H88419   3.794   0.952   4.619 -1.3113  2.5643 -0.3458
  641MOL0     H88420   3.582   1.336   4.307  1.7423  0.3094  0.6965
  641MOL0     H88421   3.338   1.436   4.332 -0.9331  2.9494  0.1854
  641MOL0     H88422   3.243   1.648   4.681 -2.3503 -1.9596 -0.0211
  641MOL0     H88423   3.284   1.794   4.577 -0.9483  0.6764 -2.6836
  641MOL0     H88424   3.060   1.811   4.614  5.0175  2.0401 -0.0728
  641MOL0     H88425   3.048   1.746   4.464 -2.8347 -0.0671 -0.1983
  641MOL0     H88426   3.052   1.552   4.712 -1.4607 -2.1135 -0.1359
  641MOL0     H88427   2.986   1.528   4.547  3.2373  0.9892 -1.7180
  641MOL0     H88428   2.786   1.565   4.662 -0.2757  0.6086 -1.6239
  641MOL0     H88429   2.828   1.730   4.618 -0.7616 -0.6957 -1.0861
  641MOL0     H88430   2.978   1.696   4.851 -0.4565  0.1948 -0.9853
  641MOL0     H88431   2.815   1.770   4.847 -0.6133 -0.4495  0.3759
  641MOL0     H88432   2.873   1.483   4.904 -0.6779 -0.0187 -2.3206
  641MOL0     H88433   2.709   1.557   4.913 -0.1082 -3.2626  4.1098
  641MOL0     H88434   2.744   1.657   5.105  1.6043  0.7731  3.2757
  641MOL0     H88435   2.897   1.726   5.052 -0.5201  1.3063 -2.2439
  641MOL0     H88436   2.997   1.480   5.115  0.8861  0.7406  2.3141
  641MOL0     H88437   2.833   1.442   5.169 -0.5754  0.7400  0.8921
  641MOL0     H88438   3.477   1.690   4.625  0.3408  0.6575 -0.0444
  641MOL0     H88439   3.714   1.600   4.601  1.6033  2.4666 -2.3685
  641MOL0     H88440   3.991   1.425   4.579  1.2716 -0.4448  0.7054
  641MOL0     H88441   4.209   1.355   4.640  2.9106 -2.8918  0.9258
  641MOL0     H88442   6.145   1.092   4.719  0.7106  0.6564 -0.2256
  641MOL0     H88443   6.360   1.009   4.671  0.3929  1.3640 -0.9495
  641MOL0     H88444   6.519   0.552   4.431  0.9378 -2.7303 -2.0279
  641MOL0     H88445   6.685   0.440   4.315  0.1941  0.5026 -0.9587
  641MOL0     H88446   6.870   0.482   4.090  0.5499 -0.3353  0.1950
  641MOL0     H88447   7.020   0.395   4.132  0.7534 -1.2501  2.4221
  641MOL0     H88448   6.752   0.299   4.155  0.6108  0.2768 -1.2768
  641MOL0     H88449   6.856   0.248   4.292  1.6907 -0.6926 -0.9039
  641MOL0     H88450   6.925   0.212   4.000  1.1410  0.8485 -1.1864
  641MOL0     H88451   7.011   0.143   4.132  0.4747  0.2818 -2.0702
  641MOL0     H88452   6.850  -0.016   4.004 -0.1891 -2.1139  1.2435
  641MOL0     H88453   6.710   0.086   4.036  0.2027  0.8209  0.9523
  641MOL0     H88454   6.761  -0.166   4.366  2.7224 -0.9189  0.5216
  641MOL0     H88455   6.963   0.761   4.386  0.9965 -0.8252  3.1783
  641MOL0     H88456   6.902   0.970   4.464  1.0742  0.2301 -0.0093
  641MOL0     H88457   6.726   1.002   4.477 -1.2422 -2.0635 -2.6839
  641MOL0     H88458   6.813   0.941   4.613 -0.3549  1.7689 -0.1152
  642MOL0     O88459   5.578   6.003   2.908  0.4606  0.2608  0.2838
  642MOL0     C88460   5.627   6.088   2.980  0.9863  0.2095  0.3293
  642MOL0     O88461   5.760   6.102   2.990 -0.2494  0.3999  1.0407
  642MOL0     C88462   5.845   6.021   2.910 -0.0212  0.1344  1.3218
  642MOL0     C88463   5.917   6.080   2.808 -0.1377 -1.0018  0.6050
  642MOL0     C88464   6.017   6.019   2.731 -1.1122  0.0107  0.1807
  642MOL0     C88465   6.044   5.891   2.746 -0.4022 -0.0838  0.4755
  642MOL0     O88466   6.151   5.838   2.686 -0.1867 -0.6070 -0.3486
  642MOL0     C88467   6.170   5.708   2.696 -0.1249  0.4296 -0.0068
  642MOL0     C88468   6.301   5.669   2.625 -1.0734 -0.0228  0.7561
  642MOL0     C88469   6.339   5.525   2.639  0.7063 -0.6080 -0.3034
  642MOL0     C88470   6.316   5.428   2.523 -0.3113  0.7412 -0.1170
  642MOL0     C88471   6.166   5.377   2.509  0.2313 -0.0878 -0.2557
  642MOL0     C88472   6.134   5.252   2.427  0.3047  0.4263 -0.0279
  642MOL0     C88473   6.177   5.264   2.280 -0.5258  0.1644  0.3213
  642MOL0     C88474   6.324   5.213   2.267  0.6202 -0.3741 -0.2454
  642MOL0     N88475   6.352   5.172   2.133  0.2860 -0.2945  0.6731
  642MOL0     C88476   6.293   5.075   2.057  0.6420 -0.0413  0.2259
  642MOL0     C88477   6.373   5.051   1.953 -0.1844  0.5465 -0.1020
  642MOL0     C88478   6.365   4.940   1.857  0.3055  0.7427  0.4837
  642MOL0     C88479   6.449   4.816   1.907 -0.5287 -0.0399  0.0256
  642MOL0     C88480   6.409   4.753   2.037 -0.0556 -0.0826  0.7297
  642MOL0     C88481   6.283   4.668   2.012  0.2924 -0.6153  0.1327
  642MOL0     O88482   6.315   4.569   1.912  0.3747 -0.3330  0.1293
  642MOL0     C88483   6.219   4.470   1.878 -0.5606  0.1307  0.2215
  642MOL0     C88484   6.265   4.371   1.785  0.2966 -0.5900 -0.0620
  642MOL0     C88485   6.186   4.264   1.746  0.0298 -0.0619 -0.1637
  642MOL0     C88486   6.245   4.152   1.660 -0.7343  0.2410 -0.4287
  642MOL0     C88487   6.052   4.262   1.796  0.3987  0.1976  0.1895
  642MOL0     C88488   5.949   4.160   1.773  0.2350  0.3345 -0.1517
  642MOL0     O88489   5.817   4.203   1.778  0.0501  0.4197  0.1252
  642MOL0     C88490   5.728   4.102   1.802  0.3027 -0.1205 -0.8981
  642MOL0     C88491   5.644   4.057   1.705 -0.0361  0.8459  0.3171
  642MOL0     C88492   5.559   3.947   1.736 -0.5615  0.6652 -1.1908
  642MOL0     C88493   5.554   3.891   1.865 -0.0607  0.3311  0.2587
  642MOL0     O88494   5.471   3.782   1.887 -0.3079 -0.2755  0.1371
  642MOL0     C88495   5.437   3.724   2.018  0.1691 -0.1443  0.5793
  642MOL0     C88496   5.353   3.588   2.018  0.1728  0.8919 -0.1626
  642MOL0     C88497   5.358   3.504   2.139 -1.0103 -0.2129 -0.6794
  642MOL0     C88498   5.277   3.560   2.260  0.5063 -0.3320 -0.0837
  642MOL0     C88499   5.237   3.445   2.360 -0.3675  0.1566 -0.6743
  642MOL0     C88500   5.335   3.434   2.480  0.8743 -0.7027  0.2577
  642MOL0     C88501   5.286   3.330   2.581  0.2811 -0.4926  0.6344
  642MOL0     C88502   5.391   3.328   2.698  0.3346  0.8484 -0.6775
  642MOL0    Cl88503   5.379   3.197   2.814 -0.0061  0.2835 -0.0867
  642MOL0     C88504   5.642   3.945   1.967 -0.1914  0.2400 -0.7950
  642MOL0     C88505   5.725   4.049   1.931  0.2181  0.9091 -0.8596
  642MOL0     O88506   5.997   4.043   1.783 -0.1760 -0.4690 -0.1966
  642MOL0     C88507   6.006   4.354   1.897  0.7506  0.0074  0.9257
  642MOL0     C88508   6.090   4.459   1.929  0.5956  0.0030 -1.1843
  642MOL0     N88509   6.485   5.126   1.970  0.0033  0.9065 -0.0305
  642MOL0     N88510   6.461   5.211   2.071  0.1524  0.1114 -0.4235
  642MOL0     C88511   5.963   5.816   2.844  0.9789  0.1337  0.6595
  642MOL0     C88512   5.859   5.880   2.914  0.4244 -0.2407 -0.2669
  642MOL0     C88513   5.538   6.171   3.056  1.5764 -0.8603 -0.6785
  642MOL0     C88514   5.402   6.171   3.030 -0.2116 -0.9775  0.9493
  642MOL0     C88515   5.313   6.264   3.082 -0.5761  0.4113  1.0712
  642MOL0     C88516   5.355   6.357   3.181 -1.3258  0.2998  0.5443
  642MOL0     O88517   5.269   6.448   3.234  0.4974 -0.0991  0.9405
  642MOL0     C88518   5.314   6.563   3.308  0.4116 -0.3628  0.8994
  642MOL0     C88519   5.200   6.671   3.333 -0.6889  1.2060 -0.0114
  642MOL0     C88520   5.083   6.599   3.408  0.0509 -0.1400  0.4400
  642MOL0     C88521   4.958   6.679   3.431  0.6502  0.0125  0.3206
  642MOL0     C88522   4.960   6.759   3.548 -0.3303 -0.1380  0.3614
  642MOL0     C88523   4.962   6.843   3.635  0.1675 -0.3186  0.4385
  642MOL0     C88524   5.488   6.357   3.207 -0.7307  0.1134  0.1855
  642MOL0     C88525   5.585   6.268   3.143  0.2371 -0.7071 -0.2832
  642MOL0     C88526   5.730   6.294   3.186  1.1283 -0.8602 -0.4353
  642MOL0     H88527   5.886   6.183   2.794 -4.1717 -2.0074  1.0763
  642MOL0     H88528   6.071   6.081   2.660 -1.7355 -0.8097 -1.0546
  642MOL0     H88529   6.095   5.644   2.649  0.8264  0.2761 -1.3691
  642MOL0     H88530   6.176   5.687   2.804  1.1133  0.5111 -0.0516
  642MOL0     H88531   6.283   5.687   2.519 -0.7745  2.0630  1.0096
  642MOL0     H88532   6.379   5.732   2.669  0.4479 -0.3861 -1.2340
  642MOL0     H88533   6.443   5.520   2.672 -0.2105 -0.7693  2.9032
  642MOL0     H88534   6.284   5.487   2.726 -1.0825  0.3568 -0.9598
  642MOL0     H88535   6.345   5.485   2.433 -4.9766 -0.4687 -2.7039
  642MOL0     H88536   6.384   5.343   2.538 -0.0690  0.9602  0.0295
  642MOL0     H88537   6.105   5.464   2.483 -2.1369 -0.3579  3.6563
  642MOL0     H88538   6.123   5.355   2.607  2.2139 -0.6481  0.5428
  642MOL0     H88539   6.187   5.175   2.483 -0.7373  0.6752  1.3252
  642MOL0     H88540   6.030   5.222   2.435  0.5181  0.1507  2.5483
  642MOL0     H88541   6.173   5.364   2.236 -0.4897 -0.1483 -0.3917
  642MOL0     H88542   6.114   5.200   2.219  1.6939 -0.8447 -1.0614
  642MOL0     H88543   6.391   5.297   2.288  1.5272 -1.2104  0.2494
  642MOL0     H88544   6.347   5.130   2.334  0.7466  1.3013  1.9084
  642MOL0     H88545   6.199   5.023   2.073  0.2518  0.3209 -0.7951
  642MOL0     H88546   6.404   4.976   1.762 -0.5846 -1.3396 -0.7239
  642MOL0     H88547   6.261   4.908   1.848  0.3646 -0.0833  2.2893
  642MOL0     H88548   6.463   4.737   1.833  1.4807 -1.4994  1.8450
  642MOL0     H88549   6.546   4.861   1.929  1.0689 -3.1887 -0.0478
  642MOL0     H88550   6.500   4.702   2.068  0.6902  0.3371 -0.6766
  642MOL0     H88551   6.396   4.834   2.109 -0.7960  0.4960 -0.0345
  642MOL0     H88552   6.255   4.618   2.105 -3.0997 -0.8001 -0.8642
  642MOL0     H88553   6.205   4.739   1.984  2.0816  1.8685  1.0704
  642MOL0     H88554   6.373   4.377   1.774  0.8034 -1.1886  3.5087
  642MOL0     H88555   6.331   4.190   1.603  1.0472 -0.1877  1.8123
  642MOL0     H88556   6.178   4.113   1.583 -2.0746  1.1533  0.2334
  642MOL0     H88557   6.278   4.074   1.729 -1.5795  0.9359  0.8098
  642MOL0     H88558   5.623   4.094   1.605 -4.4506  1.6525  1.3357
  642MOL0     H88559   5.491   3.906   1.663  2.2107 -3.6979 -1.6644
  642MOL0     H88560   5.530   3.698   2.069  0.5916  0.7231  0.2761
  642MOL0     H88561   5.383   3.795   2.080  0.9591  2.0153 -1.0569
  642MOL0     H88562   5.248   3.612   1.997 -0.2623  0.8467  1.7186
  642MOL0     H88563   5.402   3.528   1.941 -2.0563 -1.5396  0.1746
  642MOL0     H88564   5.465   3.501   2.164 -0.5825  1.1278 -2.2277
  642MOL0     H88565   5.334   3.400   2.113  1.9663 -1.1419 -0.1283
  642MOL0     H88566   5.189   3.614   2.223  2.3283  0.9917 -2.8715
  642MOL0     H88567   5.339   3.636   2.310 -0.8236  2.0344 -1.8054
  642MOL0     H88568   5.142   3.469   2.407  0.2577  0.8956  0.2578
  642MOL0     H88569   5.234   3.346   2.313  3.4654  0.5924 -2.2025
  642MOL0     H88570   5.337   3.532   2.530  0.5178 -1.5939  2.0995
  642MOL0     H88571   5.434   3.405   2.444  0.4543 -1.0307 -0.6684
  642MOL0     H88572   5.286   3.234   2.530  0.5356 -0.6147  0.8577
  642MOL0     H88573   5.194   3.360   2.633 -0.1446 -0.7553  0.0328
  642MOL0     H88574   5.372   3.420   2.754  0.2390 -0.5631  1.7476
  642MOL0     H88575   5.495   3.329   2.664  1.1470 -0.5328  1.5991
  642MOL0     H88576   5.653   3.907   2.069 -0.3779  0.8154 -0.5567
  642MOL0     H88577   5.791   4.094   2.005  0.5144  0.0360 -0.5847
  642MOL0     H88578   5.915   4.352   1.955 -0.2580  0.5397 -0.5619
  642MOL0     H88579   6.040   4.526   1.998 -2.8109 -0.8162 -2.6492
  642MOL0     H88580   5.971   5.709   2.854 -1.2736  0.0752  2.9867
  642MOL0     H88581   5.792   5.830   2.982 -0.1152  1.9195  0.8835
  642MOL0     H88582   5.358   6.087   2.977  0.9883  0.6384 -2.9574
  642MOL0     H88583   5.208   6.268   3.055 -0.3263 -0.2032 -0.0172
  642MOL0     H88584   5.370   6.533   3.397  1.1740 -2.5225 -0.2482
  642MOL0     H88585   5.388   6.616   3.248  2.8053 -2.1954  2.0533
  642MOL0     H88586   5.173   6.718   3.238  2.4166 -0.2896 -1.7890
  642MOL0     H88587   5.246   6.745   3.400  1.9257  0.6793 -1.1301
  642MOL0     H88588   5.040   6.517   3.350 -3.4768  1.6534  0.2435
  642MOL0     H88589   5.124   6.548   3.496  1.2731  0.3590  0.1666
  642MOL0     H88590   4.885   6.599   3.445 -0.0241  0.5093 -0.2706
  642MOL0     H88591   4.920   6.718   3.336  1.6755 -1.1250 -0.5971
  642MOL0     H88592   4.981   6.924   3.703 -2.0088 -0.0233  0.7576
  642MOL0     H88593   5.532   6.435   3.268  0.0281  0.9865 -1.4072
  642MOL0     H88594   5.736   6.361   3.273  0.9792 -0.8795 -0.4099
  642MOL0     H88595   5.774   6.201   3.223 -1.2789 -2.4219 -1.2569
  642MOL0     H88596   5.792   6.336   3.107  0.0408 -0.4246 -1.0734
  643MOL0     O88597   7.772   2.888   3.278 -0.7740  0.5408  0.1953
  643MOL0     C88598   7.749   2.788   3.350  0.1164 -0.4345 -0.0095
  643MOL0     O88599   7.848   2.710   3.406  1.1024 -0.1382  0.8344
  643MOL0     C88600   7.980   2.731   3.397 -0.3616 -0.1994 -0.5377
  643MOL0     C88601   8.071   2.692   3.499  0.5510  0.0901 -0.7463
  643MOL0     C88602   8.209   2.707   3.478 -0.8075 -0.0242 -0.2794
  643MOL0     C88603   8.271   2.754   3.356 -0.8703 -0.5486 -0.5261
  643MOL0     O88604   8.394   2.789   3.338 -0.2015  0.0262 -0.7360
  643MOL0     C88605   8.485   2.794   3.439 -0.3647  0.8709 -0.5235
  643MOL0     C88606   8.631   2.808   3.379  0.3411  0.6508 -0.9555
  643MOL0     C88607   8.722   2.825   3.500  0.0234  0.5726 -0.2638
  643MOL0     C88608   8.855   2.874   3.448 -0.3258  0.5556 -0.6756
  643MOL0     C88609   8.957   2.866   3.556 -0.4550 -0.0653  0.0839
  643MOL0     C88610   9.101   2.843   3.500 -0.8024 -0.6661  0.6456
  643MOL0     C88611   9.215   2.864   3.606  0.6044  0.5273 -0.3252
  643MOL0     C88612   9.355   2.836   3.567 -0.1258  0.1978  0.7275
  643MOL0     N88613   9.441   2.954   3.577  0.9444  0.6872 -0.3020
  643MOL0     C88614   9.411   3.072   3.510  0.6653  0.0956  0.4354
  643MOL0     C88615   9.504   3.154   3.553  0.5225 -0.4610  0.1994
  643MOL0     C88616   9.519   3.298   3.517  0.8815 -0.0451 -0.7370
  643MOL0     C88617   9.659   3.321   3.442 -0.3185 -0.4459  0.1200
  643MOL0     C88618   9.640   3.276   3.297 -0.4019  0.0155 -0.4896
  643MOL0     C88619   9.763   3.307   3.209 -0.2303  0.2531 -0.4597
  643MOL0     O88620   9.824   3.436   3.232 -0.1652 -0.1975 -0.4621
  643MOL0     C88621   9.948   3.467   3.174 -0.3342  0.2376 -0.8529
  643MOL0     C88622  10.013   3.580   3.219 -0.0221 -0.2441 -0.2153
  643MOL0     C88623  10.144   3.605   3.191  0.7890 -0.1138  0.8345
  643MOL0     C88624  10.208   3.725   3.255 -0.1315 -0.6380 -0.7059
  643MOL0     C88625  10.217   3.518   3.109 -0.4154  0.5680  0.0013
  643MOL0     C88626  10.368   3.535   3.088 -0.1465 -0.2526 -0.0327
  643MOL0     O88627  10.413   3.483   2.969 -0.0458 -0.2856 -0.0504
  643MOL0     C88628  10.547   3.515   2.933  0.8065 -0.9285 -0.6885
  643MOL0     C88629  10.568   3.636   2.856 -0.6393 -0.1319 -0.2895
  643MOL0     C88630  10.690   3.661   2.796 -0.0646 -0.4841 -0.2636
  643MOL0     C88631  10.793   3.571   2.820 -0.1265  0.3034 -0.6329
  643MOL0     O88632  10.916   3.581   2.768  0.1674  0.3581  0.3254
  643MOL0     C88633  10.922   3.575   2.628  0.2241 -0.2084  0.1608
  643MOL0     C88634  11.052   3.518   2.566 -0.6375 -0.2818  0.4381
  643MOL0     C88635  11.051   3.504   2.414  0.0003  0.2785 -0.0581
  643MOL0     C88636  11.190   3.469   2.349  0.1214 -0.3756 -0.2140
  643MOL0     C88637  11.176   3.507   2.198 -0.2346 -0.1230 -0.3211
  643MOL0     C88638  11.293   3.589   2.153 -0.3458  0.0712  0.0837
  643MOL0     C88639  11.428   3.518   2.156  0.7286  0.7999 -0.2161
  643MOL0     C88640  11.524   3.573   2.055  0.3444  0.4445  0.1626
  643MOL0    Cl88641  11.476   3.508   1.888 -0.1758 -0.1207  0.0383
  643MOL0     C88642  10.778   3.460   2.903  1.1363  0.1313 -0.1063
  643MOL0     C88643  10.654   3.423   2.956  0.3558 -0.6014  1.2955
  643MOL0     O88644  10.441   3.571   3.182 -0.0800 -0.9754  0.4038
  643MOL0     C88645  10.153   3.413   3.044 -0.4822  0.1849  0.2569
  643MOL0     C88646  10.019   3.385   3.082 -0.0988  0.2016  0.2256
  643MOL0     N88647   9.589   3.091   3.631  0.5871  0.0215 -0.2980
  643MOL0     N88648   9.551   2.967   3.655  0.2784 -0.7665 -0.3145
  643MOL0     C88649   8.176   2.781   3.257 -0.1041  0.5087 -0.4711
  643MOL0     C88650   8.041   2.767   3.278  0.3742 -0.1764  0.1337
  643MOL0     C88651   7.605   2.742   3.382  0.2865 -0.0147  0.7090
  643MOL0     C88652   7.573   2.661   3.502  0.1071 -0.3080 -0.4143
  643MOL0     C88653   7.446   2.616   3.529 -0.1466  0.0507  0.4499
  643MOL0     C88654   7.343   2.650   3.445 -0.5314 -0.5089 -0.4856
  643MOL0     O88655   7.225   2.589   3.470 -0.1292 -0.4539 -0.0487
  643MOL0     C88656   7.121   2.578   3.361 -0.4550  0.5979  0.4029
  643MOL0     C88657   7.004   2.495   3.410 -0.5646  0.5548  0.7173
  643MOL0     C88658   7.060   2.364   3.491 -0.0885 -0.2426 -0.1362
  643MOL0     C88659   7.097   2.252   3.391  0.4765  0.8680  0.3804
  643MOL0     C88660   6.975   2.195   3.327  0.7650  0.2534  0.0470
  643MOL0     C88661   6.875   2.140   3.268 -0.2252  0.7074 -0.2803
  643MOL0     C88662   7.370   2.729   3.337 -0.5646 -0.4007 -0.0269
  643MOL0     C88663   7.495   2.774   3.297 -0.1923  0.0903  0.9211
  643MOL0     C88664   7.505   2.854   3.168  0.6354 -0.0506 -0.2527
  643MOL0     H88665   8.033   2.664   3.597  0.5072  1.3347 -0.3922
  643MOL0     H88666   8.279   2.685   3.558 -0.7421 -1.2360 -0.6478
  643MOL0     H88667   8.487   2.695   3.486  1.6278  0.0774 -2.1206
  643MOL0     H88668   8.460   2.869   3.515  0.3291 -1.0582  1.7520
  643MOL0     H88669   8.650   2.714   3.328 -0.8103  0.1496 -0.4921
  643MOL0     H88670   8.653   2.895   3.316  2.3806  1.0937  0.2768
  643MOL0     H88671   8.684   2.902   3.568 -3.8965 -1.0655 -0.3456
  643MOL0     H88672   8.729   2.725   3.542 -4.1467 -1.6574 -3.9798
  643MOL0     H88673   8.883   2.820   3.357 -0.6340  2.2628 -1.8310
  643MOL0     H88674   8.846   2.978   3.414  0.7657  1.4260  1.5047
  643MOL0     H88675   8.935   2.771   3.605  0.5676 -1.5394 -2.1627
  643MOL0     H88676   8.944   2.959   3.612 -1.0227  1.6838 -2.7599
  643MOL0     H88677   9.104   2.747   3.447 -0.7740  1.1067 -2.9240
  643MOL0     H88678   9.123   2.904   3.411  0.2603 -1.8077  0.0837
  643MOL0     H88679   9.197   2.789   3.683 -1.0869  1.5315  0.3125
  643MOL0     H88680   9.208   2.965   3.646 -1.2130  0.5821 -0.7024
  643MOL0     H88681   9.386   2.753   3.631 -2.0299  0.4021  1.9776
  643MOL0     H88682   9.357   2.803   3.462 -1.9119  1.0355  0.4002
  643MOL0     H88683   9.331   3.101   3.443  0.5579 -0.1519  0.4543
  643MOL0     H88684   9.519   3.357   3.609  0.0521  0.5320 -1.0966
  643MOL0     H88685   9.430   3.332   3.465  0.8201  0.8096 -0.1033
  643MOL0     H88686   9.679   3.428   3.440  1.1167 -0.6928  0.1880
  643MOL0     H88687   9.744   3.271   3.489  1.4888  1.0016 -1.4522
  643MOL0     H88688   9.641   3.167   3.303  0.2257  0.1023  1.6925
  643MOL0     H88689   9.549   3.319   3.254 -0.4009  1.8025  1.1818
  643MOL0     H88690   9.839   3.230   3.226  1.7695  2.0191 -0.8123
  643MOL0     H88691   9.760   3.309   3.100  2.8433 -0.8449 -0.6561
  643MOL0     H88692   9.969   3.644   3.295 -1.4193  0.3266 -1.4436
  643MOL0     H88693  10.143   3.808   3.281  0.6568  0.4484 -2.0746
  643MOL0     H88694  10.278   3.767   3.183 -0.3961 -3.1239 -2.5600
  643MOL0     H88695  10.256   3.688   3.346 -1.7692 -0.4867  0.2579
  643MOL0     H88696  10.490   3.710   2.847  0.7246  1.1498 -2.6251
  643MOL0     H88697  10.725   3.739   2.728  2.1402 -2.0763 -1.1002
  643MOL0     H88698  10.849   3.503   2.589 -0.7543  0.2926  1.0490
  643MOL0     H88699  10.905   3.676   2.590 -0.0701 -0.0156  0.7961
  643MOL0     H88700  11.123   3.597   2.593  0.3615 -1.5776  1.7092
  643MOL0     H88701  11.078   3.423   2.613 -2.2167 -1.1188 -0.2920
  643MOL0     H88702  11.004   3.590   2.364  0.2907 -0.3398 -1.4602
  643MOL0     H88703  10.970   3.432   2.400 -1.8261  1.8773  1.6586
  643MOL0     H88704  11.217   3.366   2.374  0.3461  0.2920  2.6252
  643MOL0     H88705  11.261   3.537   2.396 -0.4680 -0.2967  0.5849
  643MOL0     H88706  11.178   3.410   2.149  2.0782 -0.5674  0.5357
  643MOL0     H88707  11.091   3.568   2.163 -2.4320 -1.5015  2.2391
  643MOL0     H88708  11.305   3.663   2.233  2.5449  0.7656 -0.8912
  643MOL0     H88709  11.284   3.636   2.055 -0.6261  2.9021  1.3527
  643MOL0     H88710  11.420   3.410   2.143 -0.3024  1.0165 -1.5684
  643MOL0     H88711  11.487   3.537   2.246 -2.5153 -2.1848  2.8660
  643MOL0     H88712  11.627   3.541   2.075  0.6438  2.1294  1.5595
  643MOL0     H88713  11.516   3.682   2.047 -1.5627  0.4148  1.1161
  643MOL0     H88714  10.857   3.394   2.939  2.9919  3.6392  2.9117
  643MOL0     H88715  10.640   3.334   3.017 -0.6241 -0.5253  1.2083
  643MOL0     H88716  10.192   3.340   2.974 -1.6799 -0.9722  0.7652
  643MOL0     H88717   9.962   3.301   3.045 -1.5718 -0.1666  3.0434
  643MOL0     H88718   8.210   2.798   3.156 -0.5550 -0.8649 -0.8689
  643MOL0     H88719   7.985   2.795   3.190 -0.3595  3.0456  1.4694
  643MOL0     H88720   7.643   2.635   3.581 -1.2409  3.2380  2.2448
  643MOL0     H88721   7.428   2.572   3.626 -0.6295 -0.1937  0.2546
  643MOL0     H88722   7.091   2.678   3.328  2.2226  1.7387  1.1865
  643MOL0     H88723   7.151   2.527   3.269  0.5241  0.8103  0.5916
  643MOL0     H88724   6.940   2.472   3.325  1.0636  1.4068 -0.7988
  643MOL0     H88725   6.950   2.557   3.483 -1.0409  1.5625 -0.4677
  643MOL0     H88726   7.143   2.386   3.559  0.3146 -0.3489 -0.5918
  643MOL0     H88727   6.979   2.326   3.554  0.6594  0.4066  1.2620
  643MOL0     H88728   7.144   2.172   3.448 -2.2610 -1.6113 -0.6135
  643MOL0     H88729   7.159   2.283   3.306  2.4418 -1.5690  0.8002
  643MOL0     H88730   6.796   2.089   3.215  2.1295 -0.8100 -2.5852
  643MOL0     H88731   7.291   2.757   3.268 -0.4713 -0.9325 -0.3550
  643MOL0     H88732   7.590   2.817   3.110  0.8636 -1.6828  1.0331
  643MOL0     H88733   7.414   2.846   3.109 -0.5708  0.0584  1.5107
  643MOL0     H88734   7.516   2.963   3.173  0.0200  0.0033 -0.0623
  644MOL0     O88735   0.585   0.784   7.568  0.3512  0.1770 -0.3811
  644MOL0     C88736   0.582   0.762   7.445 -0.2088  0.3041 -0.1107
  644MOL0     O88737   0.478   0.688   7.384 -0.4559 -0.2603 -0.0474
  644MOL0     C88738   0.346   0.689   7.424 -0.0825  0.0027 -0.0700
  644MOL0     C88739   0.285   0.797   7.506 -0.2253 -0.0214  0.0342
  644MOL0     C88740   0.147   0.796   7.519 -0.3283 -0.3862  0.5570
  644MOL0     C88741   0.073   0.700   7.460 -0.1279  0.3631  0.4281
  644MOL0     O88742  -0.060   0.698   7.497 -0.2644 -0.3523 -0.0198
  644MOL0     C88743  -0.166   0.624   7.435 -0.0219 -0.6993 -0.4166
  644MOL0     C88744  -0.202   0.488   7.494  0.2438 -0.5441  1.0185
  644MOL0     C88745  -0.333   0.435   7.425  0.2210 -0.4559 -0.4699
  644MOL0     C88746  -0.389   0.308   7.477  0.7778  0.8374 -0.1802
  644MOL0     C88747  -0.524   0.285   7.421 -0.4635 -0.4682 -0.5564
  644MOL0     C88748  -0.576   0.143   7.424  0.3804  0.1381 -0.0503
  644MOL0     C88749  -0.519   0.049   7.533 -0.1932 -0.6517 -0.0593
  644MOL0     C88750  -0.603  -0.069   7.565 -0.6582  0.1766 -0.0863
  644MOL0     N88751  -0.736  -0.041   7.601  0.0391  0.1036  0.2688
  644MOL0     C88752  -0.852  -0.021   7.529 -0.9910 -0.7111  0.5825
  644MOL0     C88753  -0.955  -0.026   7.613  0.0773  0.7418  1.0532
  644MOL0     C88754  -1.104  -0.035   7.576  1.3292  0.5576  0.0169
  644MOL0     C88755  -1.152   0.051   7.460 -0.3385 -0.7214 -0.8938
  644MOL0     C88756  -1.193   0.191   7.503  0.3210  0.8819  0.3635
  644MOL0     C88757  -1.068   0.284   7.512 -0.6262  0.1208 -0.4750
  644MOL0     O88758  -1.000   0.295   7.396 -0.4251 -0.4374  0.3162
  644MOL0     C88759  -0.929   0.404   7.368 -0.2125 -0.6832  0.3657
  644MOL0     C88760  -0.897   0.418   7.234 -0.9658 -0.4920 -0.2644
  644MOL0     C88761  -0.804   0.502   7.180 -0.0467 -0.5565  0.7706
  644MOL0     C88762  -0.808   0.514   7.031  0.4934  0.3808  0.0197
  644MOL0     C88763  -0.733   0.592   7.272 -0.4924  0.0057  0.4267
  644MOL0     C88764  -0.628   0.686   7.224 -0.4518 -0.2302 -0.2310
  644MOL0     O88765  -0.587   0.771   7.325 -0.4736  0.3893 -0.5538
  644MOL0     C88766  -0.477   0.856   7.322 -0.6245  0.3348 -0.5055
  644MOL0     C88767  -0.462   0.936   7.435 -0.1806 -0.0030  1.0277
  644MOL0     C88768  -0.371   1.039   7.441  0.2453 -0.1368 -0.5691
  644MOL0     C88769  -0.275   1.051   7.340 -0.0478 -0.0364 -0.2640
  644MOL0     O88770  -0.174   1.145   7.356 -0.1533 -0.1374 -0.2540
  644MOL0     C88771  -0.040   1.106   7.376 -0.7575 -0.7825 -0.4793
  644MOL0     C88772   0.054   1.224   7.418 -0.1140  0.3909  0.5230
  644MOL0     C88773   0.066   1.330   7.307 -0.4071  0.5539 -0.8391
  644MOL0     C88774   0.148   1.449   7.344 -0.1553 -0.6296 -0.1287
  644MOL0     C88775   0.297   1.429   7.312 -0.2290  0.1734 -1.4018
  644MOL0     C88776   0.382   1.508   7.409 -0.1018 -0.4485 -0.2860
  644MOL0     C88777   0.527   1.517   7.351  0.8391  0.1697  0.3999
  644MOL0     C88778   0.618   1.585   7.444 -0.1592  0.4455  0.4164
  644MOL0    Cl88779   0.553   1.728   7.516 -0.0262  0.0976  0.2585
  644MOL0     C88780  -0.276   0.966   7.233 -0.4994  1.0721  0.2173
  644MOL0     C88781  -0.383   0.869   7.219 -0.0140  0.1169  0.3110
  644MOL0     O88782  -0.587   0.679   7.106  0.5201  0.1674 -0.2300
  644MOL0     C88783  -0.764   0.583   7.406  0.7730  0.7778  0.0550
  644MOL0     C88784  -0.865   0.496   7.453  0.1877  0.1261 -1.2319
  644MOL0     N88785  -0.906  -0.042   7.739  0.0311 -0.3237  0.1064
  644MOL0     N88786  -0.779  -0.061   7.730  0.0639  1.3214  0.1001
  644MOL0     C88787   0.133   0.596   7.386  0.5399 -0.2132  0.1943
  644MOL0     C88788   0.266   0.591   7.375  1.1571  0.0836 -0.6874
  644MOL0     C88789   0.694   0.810   7.358 -0.3485  0.1661 -0.2040
  644MOL0     C88790   0.686   0.788   7.222  0.0286 -0.2040  0.5389
  644MOL0     C88791   0.790   0.827   7.131  0.4136  0.0103  0.8405
  644MOL0     C88792   0.910   0.884   7.174 -0.3538  0.1247  0.1486
  644MOL0     O88793   1.016   0.931   7.103 -0.2136 -1.3186  0.4022
  644MOL0     C88794   1.000   0.971   6.962 -0.1502  0.2740 -0.6544
  644MOL0     C88795   1.083   0.883   6.872 -0.4406 -0.3453  1.2517
  644MOL0     C88796   1.070   0.914   6.721 -0.0289 -0.2858 -0.4860
  644MOL0     C88797   1.159   0.824   6.637 -0.0602 -0.4678  0.0590
  644MOL0     C88798   1.179   0.886   6.504  0.2536 -0.3181  0.1299
  644MOL0     C88799   1.189   0.928   6.392 -0.2332  0.0906  0.4348
  644MOL0     C88800   0.924   0.886   7.314 -0.0671  0.3902 -0.4183
  644MOL0     C88801   0.820   0.866   7.412  0.7637  0.2330  0.6083
  644MOL0     C88802   0.842   0.904   7.562 -0.7401  0.1281  0.7638
  644MOL0     H88803   0.336   0.880   7.554 -2.0436 -0.2495  2.5527
  644MOL0     H88804   0.092   0.873   7.573  0.5705  0.3984  0.3823
  644MOL0     H88805  -0.132   0.613   7.331 -2.0146 -0.3359 -1.1658
  644MOL0     H88806  -0.255   0.688   7.445  3.4692  4.7618 -0.2603
  644MOL0     H88807  -0.110   0.430   7.478  0.0656 -0.8216  0.9944
  644MOL0     H88808  -0.221   0.487   7.602 -1.1085  1.8889  0.8736
  644MOL0     H88809  -0.409   0.513   7.427  0.3852 -0.2242 -1.8522
  644MOL0     H88810  -0.305   0.410   7.322 -1.5973 -3.8716 -0.2680
  644MOL0     H88811  -0.321   0.225   7.456 -0.5906 -0.7329  1.3661
  644MOL0     H88812  -0.395   0.315   7.586 -0.3275  2.4030 -0.3060
  644MOL0     H88813  -0.533   0.311   7.315 -2.5902  3.6980  0.4434
  644MOL0     H88814  -0.595   0.342   7.482 -1.7297 -2.5188 -0.0156
  644MOL0     H88815  -0.684   0.156   7.411 -0.0434 -3.4188 -1.2867
  644MOL0     H88816  -0.545   0.093   7.332  0.9865 -0.2342  0.3446
  644MOL0     H88817  -0.505   0.113   7.621 -1.1475 -2.2091  1.2703
  644MOL0     H88818  -0.429   0.003   7.491  1.2669  1.5766  0.4478
  644MOL0     H88819  -0.610  -0.138   7.480  2.1131 -3.5842  2.4147
  644MOL0     H88820  -0.563  -0.123   7.651 -2.1190  0.7391  0.9830
  644MOL0     H88821  -0.853  -0.002   7.422 -0.5176 -1.8435  0.3668
  644MOL0     H88822  -1.173  -0.010   7.658  1.2858  2.0450 -0.4360
  644MOL0     H88823  -1.128  -0.136   7.543  2.6546 -0.2739  1.4416
  644MOL0     H88824  -1.091   0.043   7.370 -2.1040  0.5771 -2.2639
  644MOL0     H88825  -1.245   0.002   7.429 -1.6261  1.9587 -1.5495
  644MOL0     H88826  -1.263   0.226   7.427  0.5040  0.9022  0.2056
  644MOL0     H88827  -1.253   0.195   7.595  2.3717  1.1830  1.7592
  644MOL0     H88828  -1.096   0.383   7.551  0.6555  0.3030  0.0214
  644MOL0     H88829  -1.012   0.225   7.585 -1.1988 -0.6785 -0.6678
  644MOL0     H88830  -0.930   0.341   7.165  3.9245 -1.4680 -1.9487
  644MOL0     H88831  -0.874   0.436   6.992  1.3451 -0.1977 -0.2893
  644MOL0     H88832  -0.709   0.503   6.987  1.8874 -1.9866  3.3722
  644MOL0     H88833  -0.855   0.604   6.989  0.5180  0.0734 -0.6819
  644MOL0     H88834  -0.541   0.920   7.508 -0.7371  1.3945  0.7644
  644MOL0     H88835  -0.371   1.107   7.525  0.4021  1.6631 -1.9754
  644MOL0     H88836  -0.045   1.044   7.466 -0.5792  0.1993  0.2222
  644MOL0     H88837   0.005   1.057   7.289 -3.3071  0.1259 -2.4473
  644MOL0     H88838   0.023   1.274   7.510 -1.6779  2.0504 -0.8305
  644MOL0     H88839   0.155   1.185   7.430  0.8390  2.3809 -0.5812
  644MOL0     H88840  -0.036   1.361   7.285 -0.8014  0.5666  0.8516
  644MOL0     H88841   0.084   1.292   7.206 -0.7285  0.2226 -0.7759
  644MOL0     H88842   0.143   1.482   7.449  3.1920  1.5870 -0.5061
  644MOL0     H88843   0.093   1.525   7.289 -4.2016 -1.7076  1.9978
  644MOL0     H88844   0.321   1.324   7.331 -2.8253 -0.0557  1.3941
  644MOL0     H88845   0.318   1.470   7.213 -3.1947  4.6993 -0.4253
  644MOL0     H88846   0.383   1.473   7.512  3.9222  0.3125  0.1206
  644MOL0     H88847   0.342   1.609   7.392 -0.1900  0.0092  2.2868
  644MOL0     H88848   0.523   1.573   7.257  1.1126 -1.1332 -0.4320
  644MOL0     H88849   0.571   1.418   7.331 -2.1405 -1.2847  0.4493
  644MOL0     H88850   0.701   1.608   7.377 -1.2016  0.3503 -0.9386
  644MOL0     H88851   0.644   1.505   7.514 -2.1156  0.2984  1.0608
  644MOL0     H88852  -0.197   0.983   7.160 -0.3220 -0.7961 -0.0759
  644MOL0     H88853  -0.369   0.802   7.135  1.1194  2.3082 -1.3527
  644MOL0     H88854  -0.702   0.623   7.485  0.6423 -2.6556  2.1019
  644MOL0     H88855  -0.882   0.486   7.560  0.0794 -0.6367 -1.3148
  644MOL0     H88856   0.077   0.520   7.332  2.1473 -0.1476 -1.6877
  644MOL0     H88857   0.294   0.505   7.315  1.8187  1.4520 -2.4421
  644MOL0     H88858   0.607   0.725   7.182  2.2755 -2.5199 -0.5522
  644MOL0     H88859   0.775   0.806   7.025  1.6089  0.7360  0.5100
  644MOL0     H88860   0.900   0.972   6.917 -0.6106 -1.3218  0.2608
  644MOL0     H88861   1.023   1.078   6.962  0.4401  0.1667 -1.7072
  644MOL0     H88862   1.055   0.781   6.901  3.7900 -1.7177  1.1567
  644MOL0     H88863   1.184   0.898   6.909  0.5924 -3.8103  0.2436
  644MOL0     H88864   0.965   0.890   6.699 -0.6799  2.3751 -0.6570
  644MOL0     H88865   1.084   1.022   6.714 -1.4869 -0.0071  0.4414
  644MOL0     H88866   1.107   0.735   6.602  0.1709  0.5955 -3.3651
  644MOL0     H88867   1.253   0.816   6.692  0.0744 -0.9081 -0.2368
  644MOL0     H88868   1.179   0.956   6.289 -0.3881 -0.9087  0.1653
  644MOL0     H88869   1.023   0.911   7.349  1.2820 -0.8208 -3.1093
  644MOL0     H88870   0.762   0.970   7.597 -0.9468 -0.9356  2.4208
  644MOL0     H88871   0.846   0.814   7.624  3.1318  0.0975  0.7405
  644MOL0     H88872   0.936   0.959   7.571  0.4802 -1.8050  0.3276
  645MOL0     O88873   0.908   3.526   0.375 -0.9084  0.0763 -0.2828
  645MOL0     C88874   1.002   3.527   0.295  0.5521 -0.5832 -0.5824
  645MOL0     O88875   1.131   3.493   0.326  0.5656  0.3044 -0.2601
  645MOL0     C88876   1.191   3.514   0.449 -0.8230 -0.6214 -0.5875
  645MOL0     C88877   1.135   3.577   0.562  0.2179  0.1513 -0.2423
  645MOL0     C88878   1.198   3.589   0.676 -0.0915  0.9278  0.2845
  645MOL0     C88879   1.314   3.521   0.708 -0.0863 -0.4852  0.4394
  645MOL0     O88880   1.375   3.545   0.829  0.3054 -0.1775 -0.0392
  645MOL0     C88881   1.474   3.449   0.877  0.8271 -0.2163 -0.3488
  645MOL0     C88882   1.512   3.482   1.027 -0.1541 -0.2666  0.0916
  645MOL0     C88883   1.639   3.411   1.081  0.7138  0.3770 -0.3231
  645MOL0     C88884   1.756   3.467   1.007  0.3664 -0.2792 -0.2102
  645MOL0     C88885   1.890   3.412   1.064 -0.7096 -0.2064 -0.6709
  645MOL0     C88886   1.906   3.266   1.030  0.1369 -0.5039 -0.8668
  645MOL0     C88887   2.033   3.204   1.081 -1.0907 -0.4305 -0.4922
  645MOL0     C88888   2.058   3.062   1.031  0.1882  0.1951  0.2562
  645MOL0     N88889   2.189   3.003   1.069 -0.4987  0.3102  1.2648
  645MOL0     C88890   2.243   2.906   0.992 -0.5910  0.2224 -0.3952
  645MOL0     C88891   2.340   2.858   1.072 -0.5122  0.5412 -0.4723
  645MOL0     C88892   2.449   2.753   1.048 -0.1482  0.5548  1.0092
  645MOL0     C88893   2.567   2.803   0.965  0.2120 -1.1075 -0.0135
  645MOL0     C88894   2.663   2.879   1.058 -0.1270 -0.1527  0.2225
  645MOL0     C88895   2.807   2.901   0.980 -0.1399 -0.2568  0.5800
  645MOL0     O88896   2.896   2.980   1.054  0.0765  0.1936  0.3721
  645MOL0     C88897   2.993   2.920   1.120  0.7863  0.1101 -0.1693
  645MOL0     C88898   3.017   2.775   1.130  0.3912 -0.2622 -0.4588
  645MOL0     C88899   3.117   2.719   1.208  0.1955 -0.6385  0.6446
  645MOL0     C88900   3.149   2.573   1.189 -0.4148 -0.3179 -0.1966
  645MOL0     C88901   3.189   2.811   1.283 -0.1386  0.7589 -0.4408
  645MOL0     C88902   3.293   2.749   1.374 -0.3470  0.0710  0.1892
  645MOL0     O88903   3.392   2.686   1.300 -0.7134  0.7268  0.1080
  645MOL0     C88904   3.494   2.632   1.376  0.1996  0.8824  0.4522
  645MOL0     C88905   3.481   2.533   1.475 -0.7256  0.2386 -0.0022
  645MOL0     C88906   3.596   2.468   1.530  0.4236 -1.1488  0.1298
  645MOL0     C88907   3.718   2.517   1.486 -0.6755 -0.3197  0.7432
  645MOL0     O88908   3.828   2.459   1.546 -0.3878 -0.6221  0.1878
  645MOL0     C88909   3.957   2.530   1.543 -0.2704 -0.2982  0.0643
  645MOL0     C88910   4.036   2.489   1.671 -0.4773 -0.1710 -0.1305
  645MOL0     C88911   4.122   2.362   1.660  0.0835  0.2241 -0.0975
  645MOL0     C88912   4.212   2.345   1.782  0.3261 -0.0458  0.1416
  645MOL0     C88913   4.311   2.235   1.775 -0.0021  0.4556  0.0069
  645MOL0     C88914   4.246   2.101   1.759 -1.1069  0.3141 -1.2774
  645MOL0     C88915   4.236   2.014   1.887  0.1060 -0.3013  0.4291
  645MOL0     C88916   4.193   1.866   1.846  0.2642 -0.3256  0.5580
  645MOL0    Cl88917   4.233   1.734   1.965 -0.8212  0.0823  0.1930
  645MOL0     C88918   3.724   2.620   1.388 -0.5622 -0.3397 -0.0460
  645MOL0     C88919   3.614   2.679   1.334 -0.8202  0.1866  0.0637
  645MOL0     O88920   3.268   2.744   1.492 -1.2633  0.7157 -0.4357
  645MOL0     C88921   3.163   2.943   1.278 -0.6064  0.9979 -0.2339
  645MOL0     C88922   3.070   2.998   1.199  0.2427  0.0728 -0.1068
  645MOL0     N88923   2.346   2.921   1.194  0.2022 -0.3550 -0.2058
  645MOL0     N88924   2.257   3.013   1.187  0.2542 -0.6109  0.1339
  645MOL0     C88925   1.372   3.460   0.607  0.5426 -0.5346  1.4179
  645MOL0     C88926   1.311   3.449   0.481 -1.1374 -0.0701  0.3007
  645MOL0     C88927   0.968   3.535   0.147  0.1173 -0.0465  0.5103
  645MOL0     C88928   1.080   3.518   0.055  0.2139  0.6253 -0.8518
  645MOL0     C88929   1.051   3.530  -0.076 -0.6684 -0.2707  0.3019
  645MOL0     C88930   0.926   3.561  -0.133 -0.3126 -0.2682  1.0317
  645MOL0     O88931   0.895   3.581  -0.269 -0.2575  0.1513 -0.9873
  645MOL0     C88932   1.009   3.585  -0.358  0.6733 -0.0710 -0.2032
  645MOL0     C88933   1.007   3.703  -0.454 -0.1188  0.0040 -0.1975
  645MOL0     C88934   0.886   3.705  -0.551 -0.0501 -0.6581 -1.2776
  645MOL0     C88935   0.871   3.844  -0.616 -0.4619  0.0263 -0.6768
  645MOL0     C88936   0.755   3.835  -0.705 -1.0316 -1.0502 -0.3656
  645MOL0     C88937   0.655   3.847  -0.773  0.2940 -0.6223  0.3088
  645MOL0     C88938   0.821   3.579  -0.047  0.7909 -0.2706 -0.0384
  645MOL0     C88939   0.839   3.557   0.090  0.1176  0.4949 -0.1257
  645MOL0     C88940   0.721   3.561   0.181  0.6951  0.2775 -0.3090
  645MOL0     H88941   1.038   3.624   0.550 -2.3841 -4.3317  0.6434
  645MOL0     H88942   1.157   3.649   0.758  0.2239  0.3105  0.9024
  645MOL0     H88943   1.555   3.465   0.805 -0.2435  2.2580 -1.1315
  645MOL0     H88944   1.432   3.348   0.877 -0.4931  0.3087  0.2731
  645MOL0     H88945   1.522   3.591   1.030 -2.5709  0.0029  0.5871
  645MOL0     H88946   1.431   3.456   1.096 -1.7265 -0.3096 -1.6675
  645MOL0     H88947   1.648   3.427   1.189 -0.1536  1.4438 -0.3897
  645MOL0     H88948   1.630   3.304   1.063  0.1610  0.4267 -0.3683
  645MOL0     H88949   1.754   3.440   0.901  0.1578 -0.2795 -0.2052
  645MOL0     H88950   1.752   3.576   1.006  0.4600 -0.1588  2.7957
  645MOL0     H88951   1.890   3.418   1.173  2.8892  0.4928 -0.6080
  645MOL0     H88952   1.980   3.458   1.023 -0.1762 -1.9526 -1.5719
  645MOL0     H88953   1.821   3.207   1.066 -0.7978  1.2884 -0.0011
  645MOL0     H88954   1.912   3.253   0.921  1.1861 -0.8124 -0.7810
  645MOL0     H88955   2.035   3.208   1.191  4.6330 -0.7845 -0.2772
  645MOL0     H88956   2.114   3.271   1.048 -0.7712 -0.5915 -0.0477
  645MOL0     H88957   1.982   2.991   1.063 -0.3600 -0.6881 -2.7310
  645MOL0     H88958   2.046   3.058   0.922  1.2961 -3.4473  0.1392
  645MOL0     H88959   2.222   2.879   0.889 -2.0053  0.1262 -0.1035
  645MOL0     H88960   2.409   2.667   0.994  1.7334  0.5516 -0.4917
  645MOL0     H88961   2.485   2.729   1.149  0.0096  4.6635  2.1182
  645MOL0     H88962   2.621   2.716   0.927 -0.0851  0.0513 -3.4772
  645MOL0     H88963   2.528   2.865   0.883  0.7208 -1.0282 -0.1979
  645MOL0     H88964   2.632   2.976   1.097  5.0857  1.4810  1.2013
  645MOL0     H88965   2.692   2.825   1.149  0.2399  4.5821  3.2522
  645MOL0     H88966   2.850   2.809   0.941  0.9484 -0.2844  1.7995
  645MOL0     H88967   2.785   2.962   0.892 -2.2794 -2.0583 -0.2160
  645MOL0     H88968   2.956   2.714   1.065  1.0846  0.9684 -2.3662
  645MOL0     H88969   3.215   2.556   1.103 -0.6394 -2.2906 -0.0123
  645MOL0     H88970   3.056   2.517   1.204 -0.1346 -0.2386  2.3408
  645MOL0     H88971   3.196   2.542   1.283 -1.7845  1.0791  1.0260
  645MOL0     H88972   3.381   2.503   1.505  0.3294 -1.6859  1.9450
  645MOL0     H88973   3.608   2.405   1.618  0.3754  1.6263  2.2648
  645MOL0     H88974   4.018   2.503   1.456  1.6618  3.8931 -0.1279
  645MOL0     H88975   3.939   2.638   1.550 -2.7376 -0.5498 -1.3763
  645MOL0     H88976   4.100   2.573   1.700  0.8831 -0.9017 -0.8838
  645MOL0     H88977   3.961   2.463   1.746 -1.6758  1.5393 -0.6770
  645MOL0     H88978   4.193   2.368   1.577 -0.0403 -1.8244 -0.4116
  645MOL0     H88979   4.068   2.271   1.631  1.8589 -0.2897 -2.0348
  645MOL0     H88980   4.150   2.333   1.872 -1.5615 -0.1192 -1.1188
  645MOL0     H88981   4.274   2.434   1.793  1.8918 -0.5849 -3.1657
  645MOL0     H88982   4.370   2.250   1.684 -2.3366  2.8108 -1.2713
  645MOL0     H88983   4.377   2.232   1.862 -3.2646 -0.4695  2.6609
  645MOL0     H88984   4.307   2.044   1.687 -0.1413 -2.1695  1.2894
  645MOL0     H88985   4.141   2.109   1.731 -1.6489  1.7210  0.9266
  645MOL0     H88986   4.154   2.048   1.951 -0.5212 -0.4921 -0.2568
  645MOL0     H88987   4.333   2.015   1.936  1.5489 -0.3197 -2.2729
  645MOL0     H88988   4.241   1.837   1.752 -0.3031  1.2710 -0.2750
  645MOL0     H88989   4.086   1.878   1.825  0.3280  0.3030  0.5476
  645MOL0     H88990   3.825   2.644   1.355 -0.6345 -0.4204 -0.3319
  645MOL0     H88991   3.615   2.742   1.245 -2.4482 -2.7901 -2.2561
  645MOL0     H88992   3.214   2.996   1.357  0.3313 -0.9660  0.5633
  645MOL0     H88993   3.063   3.106   1.208  3.9876  0.5048 -0.4655
  645MOL0     H88994   1.467   3.410   0.622  1.2886 -0.7204 -2.7457
  645MOL0     H88995   1.367   3.384   0.415 -0.1633 -0.2975  1.3209
  645MOL0     H88996   1.178   3.493   0.094 -0.5043  0.0265  0.6622
  645MOL0     H88997   1.142   3.523  -0.136  1.0300  2.4476  2.3371
  645MOL0     H88998   1.104   3.607  -0.310 -0.1944 -0.5597  1.8521
  645MOL0     H88999   1.018   3.487  -0.406 -0.1028  0.2484 -1.0245
  645MOL0     H89000   1.103   3.714  -0.505  0.5974 -1.5255  0.7639
  645MOL0     H89001   1.000   3.795  -0.395 -2.5571 -0.6389  0.6112
  645MOL0     H89002   0.913   3.630  -0.625  1.6041 -2.0803  0.6471
  645MOL0     H89003   0.793   3.676  -0.501  0.5144  1.3596  1.2165
  645MOL0     H89004   0.962   3.863  -0.674  0.2273 -0.8647  0.0787
  645MOL0     H89005   0.855   3.918  -0.537 -2.1503 -2.2449  1.2521
  645MOL0     H89006   0.564   3.857  -0.828  0.0147 -1.5789  0.5763
  645MOL0     H89007   0.722   3.598  -0.088  1.0767 -0.0920 -0.6623
  645MOL0     H89008   0.708   3.464   0.230 -2.0680  0.9495  0.4602
  645MOL0     H89009   0.739   3.627   0.266 -0.9601  1.0230 -0.4949
  645MOL0     H89010   0.621   3.573   0.137  0.5728 -1.4707 -0.5718
  646MOL0     O89011   4.411   2.543   6.146  0.2365  0.3917 -0.4163
  646MOL0     C89012   4.419   2.419   6.153 -0.1660 -0.3589  0.3611
  646MOL0     O89013   4.497   2.350   6.241  0.1133  0.5506  0.2738
  646MOL0     C89014   4.559   2.428   6.337  0.3162  0.4593 -0.7439
  646MOL0     C89015   4.686   2.468   6.313 -0.3116 -0.3187  0.1495
  646MOL0     C89016   4.755   2.566   6.395 -0.8323  0.0502  0.1687
  646MOL0     C89017   4.690   2.627   6.499  0.4563  0.0487 -1.0574
  646MOL0     O89018   4.738   2.729   6.577  0.4741  0.5560  0.0487
  646MOL0     C89019   4.883   2.740   6.574  0.3463  0.6471  0.4190
  646MOL0     C89020   4.925   2.833   6.680 -1.0964 -1.1767  0.8106
  646MOL0     C89021   5.075   2.878   6.644  0.4425  0.0862 -0.1115
  646MOL0     C89022   5.141   2.936   6.769 -0.9388 -0.5526 -0.7779
  646MOL0     C89023   5.296   2.928   6.759 -0.8950 -0.3449 -0.1442
  646MOL0     C89024   5.358   2.998   6.875 -0.6883  0.7335 -0.0284
  646MOL0     C89025   5.503   2.964   6.901  0.1516  0.2469  0.1200
  646MOL0     C89026   5.560   3.052   7.011  0.4006  0.2582  0.0551
  646MOL0     N89027   5.695   3.024   7.050  0.1777  0.5610 -0.1722
  646MOL0     C89028   5.798   3.095   6.991  0.0301  0.2409 -0.6005
  646MOL0     C89029   5.911   3.034   7.041 -0.2351 -0.0332  0.6538
  646MOL0     C89030   6.053   3.093   7.014 -0.3455  0.5234  0.4939
  646MOL0     C89031   6.117   3.038   6.886  1.5983 -0.3406  0.3042
  646MOL0     C89032   6.234   3.131   6.848 -0.8071 -0.8070 -0.6168
  646MOL0     C89033   6.358   3.127   6.944 -0.1223  0.5828  0.7262
  646MOL0     O89034   6.488   3.141   6.881 -0.2781  0.3053  0.3112
  646MOL0     C89035   6.593   3.127   6.962 -0.4621 -0.2673  0.1093
  646MOL0     C89036   6.706   3.066   6.916  0.1930  0.0896  0.0059
  646MOL0     C89037   6.817   3.026   6.996  0.9281  0.3847 -0.4980
  646MOL0     C89038   6.926   2.946   6.922 -0.1643  0.3052 -0.5490
  646MOL0     C89039   6.812   3.064   7.132 -0.0463 -1.0845  0.0311
  646MOL0     C89040   6.921   3.029   7.230 -0.4926 -1.1183 -0.5002
  646MOL0     O89041   6.892   3.050   7.359 -0.2321 -0.4851 -0.3991
  646MOL0     C89042   6.979   3.002   7.459  0.4864 -0.4643 -0.1048
  646MOL0     C89043   7.057   3.099   7.533  0.7612  0.6094 -0.3113
  646MOL0     C89044   7.124   3.057   7.648 -0.9398  0.6354 -0.0633
  646MOL0     C89045   7.128   2.921   7.675 -0.5869 -0.2022 -0.9396
  646MOL0     O89046   7.209   2.865   7.783 -0.4617 -0.0700  0.2390
  646MOL0     C89047   7.193   2.728   7.829  0.0873  0.2168 -0.0984
  646MOL0     C89048   7.265   2.725   7.964  0.1801  0.5769  0.5703
  646MOL0     C89049   7.267   2.588   8.021  0.3860  0.6217 -0.6605
  646MOL0     C89050   7.307   2.601   8.176  0.3495 -0.3801  0.1415
  646MOL0     C89051   7.326   2.465   8.252 -0.0681 -0.4249  0.5997
  646MOL0     C89052   7.360   2.464   8.396 -0.7164 -0.9733  0.3255
  646MOL0     C89053   7.507   2.511   8.438  1.3299  1.1275 -0.1735
  646MOL0     C89054   7.491   2.658   8.498 -1.3016  0.3439 -0.2469
  646MOL0    Cl89055   7.650   2.690   8.564 -0.1415 -0.0086 -0.0026
  646MOL0     C89056   7.058   2.831   7.599 -0.2120  0.4905  0.3025
  646MOL0     C89057   6.984   2.867   7.494 -0.3712  1.0862  0.5702
  646MOL0     O89058   7.029   2.986   7.190  0.3555 -0.0431 -0.0333
  646MOL0     C89059   6.705   3.139   7.176 -0.6079  0.5136  0.0041
  646MOL0     C89060   6.589   3.164   7.097  0.2278  0.2907 -0.0417
  646MOL0     N89061   5.875   2.926   7.119  0.9317  0.3757  0.4075
  646MOL0     N89062   5.744   2.926   7.120  0.2229  0.0793 -0.8026
  646MOL0     C89063   4.561   2.567   6.531 -0.6786 -0.1488  0.0001
  646MOL0     C89064   4.496   2.483   6.442 -0.0568  0.7676 -0.4619
  646MOL0     C89065   4.335   2.354   6.052  0.1008  0.6200 -0.4862
  646MOL0     C89066   4.315   2.212   6.065 -0.0317  0.4272 -0.7413
  646MOL0     C89067   4.241   2.138   5.979 -0.1416 -0.2893  0.3798
  646MOL0     C89068   4.197   2.196   5.861 -0.6803 -0.0141 -0.6022
  646MOL0     O89069   4.124   2.124   5.774  0.3625  0.8007  0.0626
  646MOL0     C89070   4.140   1.980   5.769  0.1287 -0.6862  0.0250
  646MOL0     C89071   4.048   1.930   5.649  0.5969  0.8594 -0.4126
  646MOL0     C89072   3.906   1.908   5.691  0.0533 -0.7368  1.0464
  646MOL0     C89073   3.820   1.822   5.591 -0.0974  0.2714  1.3415
  646MOL0     C89074   3.687   1.829   5.635  0.3054  0.2545  0.5127
  646MOL0     C89075   3.572   1.825   5.656 -0.0882  0.0409 -0.0562
  646MOL0     C89076   4.214   2.331   5.841  0.0547  0.8094  0.5380
  646MOL0     C89077   4.281   2.407   5.937  0.2976 -0.0668  0.7306
  646MOL0     C89078   4.282   2.555   5.896 -0.4743  0.1971  0.1264
  646MOL0     H89079   4.750   2.421   6.239  1.1717  1.3011  0.3409
  646MOL0     H89080   4.858   2.591   6.372 -1.0338 -2.2445 -4.1746
  646MOL0     H89081   4.904   2.772   6.471 -3.0099 -0.0818 -0.5967
  646MOL0     H89082   4.926   2.640   6.585 -0.2973  0.1986 -0.9510
  646MOL0     H89083   4.859   2.921   6.679 -1.2951 -1.3261  0.5788
  646MOL0     H89084   4.919   2.778   6.774 -0.8342  2.3642  3.1167
  646MOL0     H89085   5.139   2.799   6.604  0.5318 -1.0783  2.1694
  646MOL0     H89086   5.067   2.954   6.566  0.4411  1.3948  1.1262
  646MOL0     H89087   5.118   3.042   6.783  1.2023 -0.1384  0.0244
  646MOL0     H89088   5.102   2.887   6.859 -0.4926  3.7332  2.0236
  646MOL0     H89089   5.336   2.970   6.666  0.8586 -0.4513  0.5205
  646MOL0     H89090   5.323   2.823   6.752 -0.9830 -0.3461 -0.4721
  646MOL0     H89091   5.357   3.105   6.854  0.6501  0.5224 -1.3559
  646MOL0     H89092   5.298   2.982   6.965 -0.4476  3.6720  0.7365
  646MOL0     H89093   5.550   2.994   6.807 -1.7170  3.2035 -0.0279
  646MOL0     H89094   5.519   2.860   6.929 -1.4902  0.2346  1.1727
  646MOL0     H89095   5.544   3.158   6.990  2.0239  0.4808 -0.1747
  646MOL0     H89096   5.500   3.036   7.101  0.2065  1.0145  0.0649
  646MOL0     H89097   5.799   3.188   6.935  2.1411  1.3921  1.1791
  646MOL0     H89098   6.119   3.073   7.098 -0.8422 -3.5491  0.0960
  646MOL0     H89099   6.035   3.201   7.010 -0.6605  0.4459 -1.1375
  646MOL0     H89100   6.149   2.939   6.920  1.8299  0.9441  4.3221
  646MOL0     H89101   6.040   3.026   6.810 -0.8830 -0.0553  2.6140
  646MOL0     H89102   6.268   3.098   6.750 -1.0350 -2.5583 -0.1411
  646MOL0     H89103   6.201   3.235   6.842 -0.4913 -0.6196  0.6322
  646MOL0     H89104   6.336   3.197   7.025 -1.9915  2.6397 -1.4305
  646MOL0     H89105   6.355   3.022   6.977 -0.6102 -1.0613 -3.8005
  646MOL0     H89106   6.718   3.040   6.812  0.0719  1.4572 -0.3696
  646MOL0     H89107   6.932   2.848   6.972 -3.5271 -0.8360 -2.0793
  646MOL0     H89108   7.021   2.998   6.938 -0.7543  1.4383 -0.6497
  646MOL0     H89109   6.913   2.921   6.817  0.2025 -0.7038 -0.3745
  646MOL0     H89110   7.040   3.204   7.510 -1.0832  0.6692  1.1410
  646MOL0     H89111   7.183   3.131   7.702  2.9888 -1.2928 -1.3141
  646MOL0     H89112   7.087   2.705   7.841 -0.0738  1.0586  0.1778
  646MOL0     H89113   7.227   2.656   7.754 -1.9957  0.5590 -1.4376
  646MOL0     H89114   7.366   2.767   7.961  0.9679 -0.4576  5.1761
  646MOL0     H89115   7.202   2.787   8.028 -0.5109 -1.2605  1.7471
  646MOL0     H89116   7.341   2.527   7.968 -0.1026 -0.6019  0.0391
  646MOL0     H89117   7.171   2.540   7.999  0.5974 -1.2487  2.0604
  646MOL0     H89118   7.219   2.648   8.222 -0.9261 -0.8802 -1.7012
  646MOL0     H89119   7.399   2.656   8.199  0.1983 -0.6006  1.3625
  646MOL0     H89120   7.243   2.400   8.223 -0.7609  0.7852 -0.2441
  646MOL0     H89121   7.411   2.423   8.198 -0.4319  1.7704 -1.9068
  646MOL0     H89122   7.359   2.361   8.431 -1.2113 -1.2510 -0.4760
  646MOL0     H89123   7.292   2.524   8.456 -0.4161  2.7255 -2.6209
  646MOL0     H89124   7.576   2.500   8.354 -0.4829 -2.5641 -1.3738
  646MOL0     H89125   7.531   2.446   8.522 -1.0270 -0.9989 -1.0246
  646MOL0     H89126   7.409   2.663   8.571  0.2656  0.1854  1.5914
  646MOL0     H89127   7.470   2.721   8.411 -0.8426  1.2926  0.3127
  646MOL0     H89128   7.050   2.729   7.636  1.8249 -0.9609 -2.7981
  646MOL0     H89129   6.930   2.803   7.425 -0.5791  1.1044  0.7125
  646MOL0     H89130   6.714   3.168   7.280  5.0792  0.9175 -0.2826
  646MOL0     H89131   6.503   3.206   7.149 -0.1237 -0.6866  0.1732
  646MOL0     H89132   4.508   2.589   6.623  1.2407  0.2503  1.0725
  646MOL0     H89133   4.390   2.461   6.458 -0.0014  0.9594  0.2197
  646MOL0     H89134   4.354   2.159   6.151  0.9443 -0.6452 -1.8062
  646MOL0     H89135   4.235   2.032   6.001  3.5961 -0.5447  0.7806
  646MOL0     H89136   4.242   1.948   5.748  1.4723  1.9996  1.8728
  646MOL0     H89137   4.101   1.932   5.860  1.1379 -2.3467 -0.3735
  646MOL0     H89138   4.081   1.829   5.621  0.9766  1.0015 -0.4814
  646MOL0     H89139   4.054   1.991   5.558 -2.2040 -0.5375 -1.6494
  646MOL0     H89140   3.912   1.849   5.783 -1.0305  0.2891  1.7960
  646MOL0     H89141   3.855   2.004   5.696 -1.5917 -1.4486 -0.5919
  646MOL0     H89142   3.856   1.719   5.587 -1.9712 -0.3668 -0.9422
  646MOL0     H89143   3.826   1.856   5.487 -1.9007 -5.1608 -0.8479
  646MOL0     H89144   3.467   1.822   5.676 -0.7069 -4.3966 -2.5934
  646MOL0     H89145   4.173   2.374   5.751 -1.7987 -4.7007 -1.6456
  646MOL0     H89146   4.384   2.594   5.893 -1.0113  2.3006 -6.1965
  646MOL0     H89147   4.251   2.571   5.792 -3.1070 -3.7259  0.1046
  646MOL0     H89148   4.207   2.603   5.958 -2.0002  0.1175 -1.5768
  647MOL0     O89149   4.805   0.919   4.355 -0.1308 -0.6585  0.3139
  647MOL0     C89150   4.803   0.904   4.479  0.9593  0.2615  0.4932
  647MOL0     O89151   4.785   0.997   4.572  0.6946  0.7166 -0.5078
  647MOL0     C89152   4.849   1.109   4.534 -0.6298  0.9788 -1.0313
  647MOL0     C89153   4.773   1.224   4.505  0.1564  0.4951 -0.0640
  647MOL0     C89154   4.829   1.354   4.478  0.0548  0.0788  0.0559
  647MOL0     C89155   4.972   1.365   4.472  0.4028  0.3329  0.0448
  647MOL0     O89156   5.011   1.499   4.460  0.2839 -0.0123  1.0090
  647MOL0     C89157   5.134   1.528   4.392 -0.2387  0.6140 -0.3473
  647MOL0     C89158   5.141   1.465   4.248 -0.1298 -0.2983 -0.5009
  647MOL0     C89159   5.060   1.560   4.153  0.0211  0.1742 -0.3589
  647MOL0     C89160   5.073   1.525   4.003 -0.1757  0.0425 -0.0467
  647MOL0     C89161   5.058   1.662   3.940 -0.2589  0.4260  0.5075
  647MOL0     C89162   5.012   1.627   3.794  0.1973  0.0448 -0.5642
  647MOL0     C89163   5.125   1.600   3.695 -0.2936 -0.4465  0.4181
  647MOL0     C89164   5.088   1.537   3.559  0.2701  0.2247  0.1389
  647MOL0     N89165   5.205   1.502   3.480 -0.1742 -0.0745 -0.4535
  647MOL0     C89166   5.322   1.571   3.460  0.6136  0.1772  0.7887
  647MOL0     C89167   5.389   1.502   3.366 -1.2680  0.0218 -0.6928
  647MOL0     C89168   5.528   1.531   3.313 -0.4843  0.6256 -0.6025
  647MOL0     C89169   5.521   1.590   3.175  1.1498  1.5032 -0.4964
  647MOL0     C89170   5.645   1.662   3.131  0.4507  0.0849 -0.0634
  647MOL0     C89171   5.766   1.570   3.116  0.5079 -0.0818 -1.0802
  647MOL0     O89172   5.733   1.466   3.022 -0.5201 -0.2978 -0.8906
  647MOL0     C89173   5.800   1.347   3.018  0.2403 -0.2975  0.8580
  647MOL0     C89174   5.732   1.239   2.949  0.6121  0.4639  1.3353
  647MOL0     C89175   5.789   1.113   2.927  0.3966 -0.4374  0.0088
  647MOL0     C89176   5.719   0.983   2.881 -0.1655 -0.2885  0.2899
  647MOL0     C89177   5.925   1.104   2.968  0.2622 -0.0453 -0.0478
  647MOL0     C89178   6.013   0.982   2.946 -0.0974 -0.2149 -0.5853
  647MOL0     O89179   5.993   0.904   2.829  0.6179 -0.0664 -0.1021
  647MOL0     C89180   6.090   0.806   2.805  0.5324 -0.2306  0.0986
  647MOL0     C89181   6.063   0.666   2.827  0.5303  0.2534  0.0404
  647MOL0     C89182   6.162   0.567   2.800  0.4222  0.1328 -0.2159
  647MOL0     C89183   6.285   0.595   2.733 -0.2889 -0.5217  0.2215
  647MOL0     O89184   6.378   0.502   2.699  0.2562 -0.1249 -0.6785
  647MOL0     C89185   6.333   0.373   2.642  0.0463 -0.8944 -0.3651
  647MOL0     C89186   6.454   0.306   2.580 -0.2623  0.2493  0.9726
  647MOL0     C89187   6.413   0.179   2.498 -0.9917  0.4815 -0.6585
  647MOL0     C89188   6.524   0.076   2.498  0.5953  0.2323  0.0656
  647MOL0     C89189   6.477  -0.066   2.462  0.1218 -0.1812 -0.4849
  647MOL0     C89190   6.582  -0.173   2.494  0.4205 -0.2768 -0.2327
  647MOL0     C89191   6.527  -0.307   2.447  0.2078 -0.2153 -0.4211
  647MOL0     C89192   6.635  -0.420   2.440  0.1703  0.1103 -0.0519
  647MOL0    Cl89193   6.709  -0.446   2.602  0.2539 -0.1590 -0.6256
  647MOL0     C89194   6.302   0.731   2.705 -0.4160 -0.1740 -0.4545
  647MOL0     C89195   6.211   0.832   2.741  0.4844  1.0037 -0.5771
  647MOL0     O89196   6.090   0.958   3.034 -0.4272 -0.9081  0.2974
  647MOL0     C89197   5.986   1.210   3.045  0.8530  0.2796  0.5348
  647MOL0     C89198   5.922   1.323   3.069 -0.2526  0.6504 -0.1153
  647MOL0     N89199   5.303   1.405   3.315  0.4784  0.2470 -0.5400
  647MOL0     N89200   5.204   1.399   3.398 -0.3370  0.0825  1.1083
  647MOL0     C89201   5.049   1.246   4.492  0.4790 -0.9403 -0.0019
  647MOL0     C89202   4.989   1.125   4.524  0.2193  0.2983  0.5674
  647MOL0     C89203   4.813   0.759   4.523  0.8292 -0.6144  0.3551
  647MOL0     C89204   4.778   0.738   4.659 -0.7599 -0.1857  0.1372
  647MOL0     C89205   4.756   0.603   4.709 -0.7484  0.6273  0.9324
  647MOL0     C89206   4.781   0.495   4.619  0.2203 -0.2575  0.3509
  647MOL0     O89207   4.766   0.363   4.645  0.0853  0.3558 -0.5141
  647MOL0     C89208   4.681   0.333   4.755 -0.1176  0.5596 -1.1145
  647MOL0     C89209   4.681   0.181   4.764 -0.2221  0.1931  0.6178
  647MOL0     C89210   4.818   0.112   4.778 -0.1098  0.2902 -0.2256
  647MOL0     C89211   4.808  -0.036   4.807 -0.0548  0.8927  0.3198
  647MOL0     C89212   4.765  -0.059   4.952 -0.0148 -0.3432  0.6436
  647MOL0     C89213   4.742  -0.097   5.064 -0.2764 -0.6479 -0.4612
  647MOL0     C89214   4.832   0.524   4.493 -0.1203  0.1061  0.3962
  647MOL0     C89215   4.836   0.649   4.443 -0.4401  0.0409  0.2638
  647MOL0     C89216   4.906   0.659   4.308 -0.0414 -0.4327 -0.0189
  647MOL0     H89217   4.666   1.216   4.520  0.0225  1.1991 -0.5610
  647MOL0     H89218   4.762   1.439   4.478 -0.1895 -0.0874 -1.7741
  647MOL0     H89219   5.208   1.480   4.457  0.8809  2.2212 -0.3895
  647MOL0     H89220   5.157   1.634   4.399 -0.8193  0.6773  1.0053
  647MOL0     H89221   5.247   1.474   4.220 -0.2222  2.7959 -0.1929
  647MOL0     H89222   5.100   1.364   4.248 -1.1685  0.0669  1.7245
  647MOL0     H89223   4.956   1.554   4.188  0.5944 -1.4551  1.2222
  647MOL0     H89224   5.101   1.660   4.167  3.1289 -1.1767  1.2174
  647MOL0     H89225   5.161   1.467   3.974 -1.8287 -1.9135 -1.4083
  647MOL0     H89226   4.994   1.455   3.974 -2.4496  1.2917  2.6386
  647MOL0     H89227   5.152   1.717   3.933  0.8413 -1.3841  0.6572
  647MOL0     H89228   4.985   1.720   3.997 -0.1472 -1.8590  3.1625
  647MOL0     H89229   4.938   1.547   3.792 -0.1634  0.3767 -2.3017
  647MOL0     H89230   4.955   1.711   3.752  0.3671  0.1487 -0.5889
  647MOL0     H89231   5.198   1.532   3.740 -0.0148  0.9881  2.2887
  647MOL0     H89232   5.171   1.698   3.679  1.5390 -0.8674  2.5600
  647MOL0     H89233   5.045   1.438   3.572  2.9019 -1.0085  0.2361
  647MOL0     H89234   5.035   1.604   3.490  1.6072  0.6850 -0.4856
  647MOL0     H89235   5.349   1.661   3.514 -0.4172  0.4194  0.9342
  647MOL0     H89236   5.580   1.435   3.307 -3.7032 -1.3528  0.3724
  647MOL0     H89237   5.588   1.591   3.383 -1.8363  0.4053  0.7982
  647MOL0     H89238   5.515   1.514   3.096  2.3010 -0.0943  0.8805
  647MOL0     H89239   5.438   1.660   3.168  0.5948  0.9644  0.5017
  647MOL0     H89240   5.627   1.709   3.035  0.7676  2.4225  0.9680
  647MOL0     H89241   5.665   1.746   3.198 -0.8800 -3.2668  5.1396
  647MOL0     H89242   5.856   1.625   3.084 -0.6568  2.5017 -0.2105
  647MOL0     H89243   5.781   1.539   3.220 -1.4690  1.1747 -0.3747
  647MOL0     H89244   5.627   1.249   2.925  0.4635 -1.9576  0.6355
  647MOL0     H89245   5.611   0.979   2.897  0.1704 -0.3298  2.8100
  647MOL0     H89246   5.748   0.902   2.948  1.2818  0.8915  1.1549
  647MOL0     H89247   5.740   0.950   2.778  0.3736 -2.7152  1.1012
  647MOL0     H89248   5.974   0.629   2.876  0.7964 -2.9181 -1.6098
  647MOL0     H89249   6.142   0.466   2.835  0.9043  1.3606  4.3646
  647MOL0     H89250   6.280   0.300   2.704 -1.2776 -0.6142 -1.1306
  647MOL0     H89251   6.253   0.399   2.572 -1.7099  0.1732  1.9186
  647MOL0     H89252   6.508   0.376   2.516 -1.2707 -0.9830 -1.3109
  647MOL0     H89253   6.526   0.278   2.658  1.5654 -2.4782 -1.4644
  647MOL0     H89254   6.392   0.212   2.396 -2.6704 -0.1709 -0.5481
  647MOL0     H89255   6.329   0.117   2.529 -0.6049 -1.4837 -3.2194
  647MOL0     H89256   6.569   0.071   2.598  0.4796  1.5710  0.2041
  647MOL0     H89257   6.601   0.113   2.430  0.4705  4.9055  2.0722
  647MOL0     H89258   6.379  -0.091   2.502 -0.3311 -1.8687 -2.5063
  647MOL0     H89259   6.462  -0.070   2.354  0.6753  0.8115 -0.6117
  647MOL0     H89260   6.600  -0.175   2.602  1.5910  0.7401 -0.3853
  647MOL0     H89261   6.681  -0.159   2.450  0.2739  1.7312 -0.0025
  647MOL0     H89262   6.488  -0.310   2.345 -3.8928 -4.4249  0.8850
  647MOL0     H89263   6.437  -0.339   2.501  1.4099 -0.5046  1.4907
  647MOL0     H89264   6.707  -0.383   2.366  0.7776  1.1651  1.0238
  647MOL0     H89265   6.591  -0.513   2.404 -0.3383  0.9422 -1.6997
  647MOL0     H89266   6.378   0.762   2.634 -2.3572  3.5678 -1.1994
  647MOL0     H89267   6.225   0.940   2.739 -3.3966  1.8264  2.3663
  647MOL0     H89268   6.083   1.188   3.089  2.3396  2.0534 -1.6264
  647MOL0     H89269   5.965   1.396   3.138 -1.9169  3.2590 -1.6553
  647MOL0     H89270   5.157   1.244   4.480  0.6812 -3.1922  1.6681
  647MOL0     H89271   5.052   1.037   4.534  0.7572  0.6911  0.6874
  647MOL0     H89272   4.745   0.808   4.735 -2.8929 -0.0920 -0.8054
  647MOL0     H89273   4.725   0.598   4.813  1.5172  1.4632  1.7220
  647MOL0     H89274   4.719   0.359   4.854 -0.6680 -3.7965  0.4521
  647MOL0     H89275   4.581   0.376   4.749 -1.6834 -2.7228 -0.9070
  647MOL0     H89276   4.637   0.129   4.679  2.8013 -2.7843  0.6677
  647MOL0     H89277   4.617   0.172   4.851  1.9512 -0.6900  2.2135
  647MOL0     H89278   4.865   0.130   4.681 -0.5775 -2.4960 -1.0647
  647MOL0     H89279   4.883   0.159   4.852 -0.3421 -0.2325  0.3178
  647MOL0     H89280   4.904  -0.083   4.786 -0.0973  0.8416  0.2408
  647MOL0     H89281   4.726  -0.075   4.745 -0.6388  1.4032  0.7574
  647MOL0     H89282   4.728  -0.124   5.166  2.5548 -1.4707 -0.2229
  647MOL0     H89283   4.871   0.439   4.439  0.4202  0.7783 -0.3028
  647MOL0     H89284   4.995   0.718   4.330  0.0283 -0.5724  0.0658
  647MOL0     H89285   4.927   0.562   4.263  1.9116 -0.3001  0.5507
  647MOL0     H89286   4.836   0.709   4.239 -2.3068 -1.1155  1.6684
  648MOL0     O89287   1.265   5.866   9.524 -0.0157 -0.2173  0.2325
  648MOL0     C89288   1.238   5.764   9.582 -0.3550 -0.2759  0.0120
  648MOL0     O89289   1.271   5.638   9.536  0.3105  0.2439 -0.1585
  648MOL0     C89290   1.357   5.645   9.432  0.1116  0.3760  0.0994
  648MOL0     C89291   1.311   5.662   9.303  0.3096 -0.1556 -0.4067
  648MOL0     C89292   1.396   5.667   9.192  0.4645 -0.4151  0.3338
  648MOL0     C89293   1.534   5.675   9.208  0.0508  0.7528 -0.7238
  648MOL0     O89294   1.634   5.703   9.111  0.4294  0.5631  0.0342
  648MOL0     C89295   1.595   5.644   8.984  1.1197 -0.0075  0.1845
  648MOL0     C89296   1.717   5.597   8.909 -0.1385 -0.0761 -0.3044
  648MOL0     C89297   1.825   5.700   8.880  0.4034 -0.5547 -0.4439
  648MOL0     C89298   1.951   5.639   8.807 -0.8284 -0.2516 -0.0467
  648MOL0     C89299   2.067   5.741   8.791 -0.0303 -0.1901  0.4205
  648MOL0     C89300   2.205   5.686   8.728  0.3140 -0.0212 -0.6357
  648MOL0     C89301   2.205   5.712   8.571 -0.4557  0.3095 -1.1694
  648MOL0     C89302   2.345   5.682   8.505  0.0714 -0.4575 -0.0971
  648MOL0     N89303   2.403   5.560   8.550  1.0128 -0.1443  0.5474
  648MOL0     C89304   2.511   5.542   8.646  0.5784 -0.1736  0.0082
  648MOL0     C89305   2.560   5.421   8.624 -0.2628  0.7833 -0.0681
  648MOL0     C89306   2.660   5.343   8.696 -0.1803  0.9606 -0.8525
  648MOL0     C89307   2.790   5.410   8.670 -0.7152  0.6637  0.1337
  648MOL0     C89308   2.828   5.453   8.530 -0.6589  0.1317 -0.0911
  648MOL0     C89309   2.979   5.494   8.512  1.0501 -0.3547  0.2379
  648MOL0     O89310   3.049   5.369   8.506  0.0393 -0.0500 -0.1610
  648MOL0     C89311   3.164   5.352   8.439  0.4573  0.5169 -1.0720
  648MOL0     C89312   3.218   5.433   8.345 -0.1323  0.7324  0.4275
  648MOL0     C89313   3.348   5.412   8.285  0.3500 -0.1009 -0.3308
  648MOL0     C89314   3.387   5.495   8.163 -0.3164  0.2552 -0.3997
  648MOL0     C89315   3.437   5.321   8.344 -0.1940 -0.1017  0.1223
  648MOL0     C89316   3.580   5.307   8.307 -0.2669  0.4356  0.8276
  648MOL0     O89317   3.653   5.232   8.396 -0.2872 -0.5031  0.0581
  648MOL0     C89318   3.787   5.203   8.378  0.0838 -0.0852  0.0380
  648MOL0     C89319   3.844   5.195   8.249 -0.4198  0.0611  0.2805
  648MOL0     C89320   3.977   5.141   8.241  0.1117  0.1182 -0.0881
  648MOL0     C89321   4.048   5.101   8.353 -0.4579  0.3469  0.1931
  648MOL0     O89322   4.173   5.056   8.350 -0.4584  0.5853  0.3437
  648MOL0     C89323   4.271   5.102   8.259  0.0052  0.4387  0.3483
  648MOL0     C89324   4.403   5.074   8.320  1.0551 -0.5212 -0.2590
  648MOL0     C89325   4.496   5.111   8.206  0.7641  0.1050  0.2041
  648MOL0     C89326   4.642   5.104   8.259  0.0134 -0.0119 -0.6809
  648MOL0     C89327   4.685   4.960   8.299 -0.3686 -0.4289 -0.4914
  648MOL0     C89328   4.821   4.965   8.358 -0.3988 -0.3074 -0.0393
  648MOL0     C89329   4.859   4.832   8.428 -0.5491  0.3011 -0.7644
  648MOL0     C89330   5.010   4.843   8.470 -0.0852 -0.3056 -0.1496
  648MOL0    Cl89331   5.125   4.808   8.343 -0.0212  0.1023  0.2735
  648MOL0     C89332   3.990   5.103   8.483 -0.0042 -0.5991 -0.3150
  648MOL0     C89333   3.858   5.151   8.493 -0.8467  0.0958  0.3738
  648MOL0     O89334   3.632   5.376   8.219  0.7624  0.8504  0.2606
  648MOL0     C89335   3.390   5.233   8.434 -0.6534 -0.7036 -0.5544
  648MOL0     C89336   3.248   5.241   8.474  0.5872  0.5535  0.0658
  648MOL0     N89337   2.487   5.364   8.521 -0.0714  0.2334 -0.3811
  648MOL0     N89338   2.394   5.448   8.479 -0.8161  0.5254  0.6337
  648MOL0     C89339   1.583   5.654   9.339  0.8793  0.5872 -0.6734
  648MOL0     C89340   1.495   5.638   9.449  0.5553 -0.4557  1.2180
  648MOL0     C89341   1.156   5.772   9.710 -0.1975  0.4361 -0.4633
  648MOL0     C89342   1.162   5.660   9.798  0.2603  0.5607  1.0800
  648MOL0     C89343   1.067   5.639   9.902  0.3823 -0.0508 -0.1534
  648MOL0     C89344   0.959   5.733   9.919 -0.2032 -0.3255  0.2285
  648MOL0     O89345   0.878   5.725  10.021 -0.2253  0.0572  0.2587
  648MOL0     C89346   0.885   5.603  10.097 -0.2570 -1.0379 -0.7219
  648MOL0     C89347   0.792   5.621  10.212  0.3233  0.7299  0.1754
  648MOL0     C89348   0.800   5.491  10.298 -0.3930 -0.2499 -0.3505
  648MOL0     C89349   0.705   5.375  10.266  0.2441  0.3489  0.4519
  648MOL0     C89350   0.780   5.250  10.272 -0.6983 -0.2018  0.0367
  648MOL0     C89351   0.840   5.142  10.268  0.4788 -0.2917  0.1889
  648MOL0     C89352   0.946   5.836   9.825 -0.2299 -0.8186  0.6303
  648MOL0     C89353   1.043   5.860   9.734  0.5775  0.3620  0.5447
  648MOL0     C89354   1.023   5.986   9.645  0.0845  0.4888 -0.5955
  648MOL0     H89355   1.205   5.649   9.289  0.2414  0.9160 -0.9681
  648MOL0     H89356   1.354   5.663   9.092 -2.4698  1.4667  1.3346
  648MOL0     H89357   1.560   5.725   8.920  0.5372  1.0037  1.7468
  648MOL0     H89358   1.520   5.564   8.987  2.4914 -1.4166 -0.8780
  648MOL0     H89359   1.767   5.527   8.977  1.7378  2.5676  1.2243
  648MOL0     H89360   1.702   5.548   8.812  2.0968 -2.2495  0.3433
  648MOL0     H89361   1.772   5.776   8.822  0.4304  0.6891  1.0965
  648MOL0     H89362   1.856   5.746   8.974  0.4023 -0.7173 -0.3647
  648MOL0     H89363   1.978   5.548   8.863 -2.2997  0.8168  2.5928
  648MOL0     H89364   1.925   5.601   8.708 -2.0751 -0.6211  0.4067
  648MOL0     H89365   2.089   5.785   8.889 -1.1451 -1.6858  1.3982
  648MOL0     H89366   2.041   5.824   8.725  1.7786 -0.0557 -0.1779
  648MOL0     H89367   2.290   5.730   8.781  0.2661  0.0998 -0.6584
  648MOL0     H89368   2.212   5.581   8.756 -0.0139  0.2932  0.7239
  648MOL0     H89369   2.162   5.807   8.539 -0.5768 -0.1216 -2.3233
  648MOL0     H89370   2.143   5.633   8.529 -1.1309  1.2205 -1.9239
  648MOL0     H89371   2.323   5.681   8.398  0.4449  0.1767 -0.1832
  648MOL0     H89372   2.408   5.770   8.513 -0.6684  0.5205 -3.3702
  648MOL0     H89373   2.547   5.604   8.727  2.5592 -2.1686  0.7528
  648MOL0     H89374   2.661   5.240   8.661  0.3492  1.5508 -2.6508
  648MOL0     H89375   2.643   5.327   8.803 -3.5126  0.6505 -1.3291
  648MOL0     H89376   2.802   5.493   8.741  0.0196 -2.9311  4.7165
  648MOL0     H89377   2.864   5.333   8.693 -0.8535  0.8328  1.2018
  648MOL0     H89378   2.802   5.377   8.455 -2.2304  1.0613 -0.5253
  648MOL0     H89379   2.770   5.545   8.516  1.1475  1.5142  1.1286
  648MOL0     H89380   2.989   5.548   8.417 -1.5849 -2.3716 -1.3303
  648MOL0     H89381   3.025   5.552   8.593  0.5429 -1.1932  1.1483
  648MOL0     H89382   3.180   5.528   8.307 -1.9692 -0.6555 -1.4348
  648MOL0     H89383   3.441   5.447   8.081 -0.9171 -1.0626 -0.0427
  648MOL0     H89384   3.453   5.579   8.188  1.8766 -1.3486 -0.5310
  648MOL0     H89385   3.300   5.543   8.118 -0.6442  0.5810  0.5466
  648MOL0     H89386   3.798   5.232   8.158 -1.2491  3.6686  1.9613
  648MOL0     H89387   4.017   5.119   8.142 -2.6150 -2.7420 -0.7167
  648MOL0     H89388   4.261   5.060   8.158 -0.5671  2.6085 -0.5522
  648MOL0     H89389   4.263   5.208   8.233  1.3781  0.9725  1.8768
  648MOL0     H89390   4.426   5.145   8.401  0.6956  1.5210 -1.8694
  648MOL0     H89391   4.395   4.972   8.357 -3.3813  0.1188  1.1651
  648MOL0     H89392   4.476   5.217   8.185  0.5181  0.8654  3.7491
  648MOL0     H89393   4.471   5.051   8.118  3.4035 -0.4311 -0.2652
  648MOL0     H89394   4.635   5.176   8.341  0.2516 -2.3728  1.5219
  648MOL0     H89395   4.706   5.134   8.175 -1.0763  0.6249 -1.3090
  648MOL0     H89396   4.612   4.914   8.366  0.7551  0.4659  1.4139
  648MOL0     H89397   4.688   4.894   8.212  0.0387  2.6561 -3.0060
  648MOL0     H89398   4.840   5.053   8.420 -2.0410  0.1010 -0.0750
  648MOL0     H89399   4.884   4.979   8.269 -0.9363 -1.4721 -0.6305
  648MOL0     H89400   4.850   4.741   8.369  1.7498 -0.4590 -0.0772
  648MOL0     H89401   4.797   4.821   8.517 -0.9700  0.4874 -1.0331
  648MOL0     H89402   5.016   4.765   8.548 -3.0794 -1.7360 -1.2012
  648MOL0     H89403   5.038   4.939   8.514  0.8443  0.4975 -2.3661
  648MOL0     H89404   4.059   5.077   8.563  1.1208  2.0522 -0.3454
  648MOL0     H89405   3.806   5.150   8.589 -2.2160 -1.9360 -0.3174
  648MOL0     H89406   3.449   5.146   8.461 -0.9493 -0.5211  0.7822
  648MOL0     H89407   3.212   5.166   8.543 -0.9902  1.9493  0.8214
  648MOL0     H89408   1.689   5.633   9.349  0.9704  1.0128 -0.7192
  648MOL0     H89409   1.526   5.604   9.548 -0.0097  0.6589  1.7994
  648MOL0     H89410   1.235   5.585   9.770  0.9494  0.6167  2.5971
  648MOL0     H89411   1.064   5.546   9.958 -1.6077 -1.0202 -1.7389
  648MOL0     H89412   0.865   5.510  10.043 -1.8080 -1.1035 -0.0714
  648MOL0     H89413   0.983   5.594  10.146 -1.1355 -0.4980  1.1926
  648MOL0     H89414   0.690   5.641  10.178 -0.0203 -0.9655  0.0962
  648MOL0     H89415   0.816   5.711  10.268  0.6283  1.8972 -1.7482
  648MOL0     H89416   0.900   5.446  10.298 -0.4706 -0.4601 -1.5792
  648MOL0     H89417   0.787   5.525  10.401 -1.9952  0.5326 -0.7869
  648MOL0     H89418   0.665   5.385  10.165  0.5627 -2.0371  0.0379
  648MOL0     H89419   0.628   5.361  10.343  1.5435  0.4035  1.7962
  648MOL0     H89420   0.908   5.059  10.259  2.4100  1.1983  0.2223
  648MOL0     H89421   0.868   5.907   9.852 -0.5982 -2.2860  3.8449
  648MOL0     H89422   0.971   6.069   9.694  3.7867  2.2321  0.7980
  648MOL0     H89423   1.121   6.031   9.625 -1.5249  4.0816 -1.3016
  648MOL0     H89424   0.976   5.962   9.550 -0.5517  3.0242 -0.9922
  649MOL0     O89425   5.713   1.066   7.743 -0.0627  0.9202 -0.9162
  649MOL0     C89426   5.660   1.174   7.763 -0.0889 -0.1768 -0.7376
  649MOL0     O89427   5.537   1.199   7.816  0.4074 -0.0861 -0.1199
  649MOL0     C89428   5.453   1.094   7.843  0.2669  0.7088 -0.9262
  649MOL0     C89429   5.335   1.074   7.764 -0.4021  0.0186 -0.0901
  649MOL0     C89430   5.263   0.953   7.793  0.6682 -0.7371  0.5224
  649MOL0     C89431   5.283   0.868   7.900 -0.4102 -0.5034 -0.0680
  649MOL0     O89432   5.195   0.768   7.920  0.0386  0.8560  0.0310
  649MOL0     C89433   5.232   0.674   8.022 -0.3632 -0.0274 -0.7805
  649MOL0     C89434   5.132   0.564   8.034  0.4707 -0.4703 -0.7306
  649MOL0     C89435   5.114   0.489   7.900  0.0513  0.3143 -0.7232
  649MOL0     C89436   4.999   0.386   7.911 -0.0262 -0.1978 -0.5495
  649MOL0     C89437   4.992   0.312   7.775  0.6439  0.2789 -0.0978
  649MOL0     C89438   4.878   0.202   7.767 -0.0713 -0.1700 -0.3043
  649MOL0     C89439   4.867   0.136   7.630  0.1826  0.6111  0.4452
  649MOL0     C89440   4.988   0.056   7.588  0.0159  0.6540 -0.5618
  649MOL0     N89441   5.006  -0.049   7.695 -0.3168  0.8479  0.0880
  649MOL0     C89442   4.976  -0.179   7.684  0.1507 -0.0168  0.2604
  649MOL0     C89443   5.023  -0.253   7.777  0.2334  0.2161  0.4167
  649MOL0     C89444   4.998  -0.397   7.802  0.1194 -0.3636 -0.1661
  649MOL0     C89445   4.925  -0.423   7.936 -0.8179 -0.5107  1.0494
  649MOL0     C89446   4.958  -0.564   7.982  0.3880  0.7527  0.1116
  649MOL0     C89447   4.873  -0.620   8.093  0.3920 -0.5559 -0.3230
  649MOL0     O89448   4.899  -0.761   8.104  0.4049  0.0858  0.3427
  649MOL0     C89449   5.000  -0.809   8.174 -0.3147  0.8805 -0.2082
  649MOL0     C89450   5.033  -0.946   8.153 -0.6851 -0.4925  0.2498
  649MOL0     C89451   5.132  -1.020   8.229  0.3303 -0.4275  0.2577
  649MOL0     C89452   5.149  -1.167   8.192 -0.3663  0.4535 -0.5554
  649MOL0     C89453   5.212  -0.942   8.316  0.3965 -0.2374 -0.0578
  649MOL0     C89454   5.320  -1.000   8.397 -1.3671 -0.4587  0.1078
  649MOL0     O89455   5.359  -1.133   8.371 -0.6020 -0.3518  0.0660
  649MOL0     C89456   5.460  -1.170   8.458 -0.0711  0.0236  0.5894
  649MOL0     C89457   5.598  -1.137   8.434 -0.0506 -0.3125 -0.4811
  649MOL0     C89458   5.699  -1.180   8.525  0.0886  0.3542  0.3420
  649MOL0     C89459   5.661  -1.268   8.628 -0.6366 -0.2230 -0.6520
  649MOL0     O89460   5.743  -1.328   8.720 -0.0999  0.1079 -0.3049
  649MOL0     C89461   5.885  -1.294   8.752  0.7435 -0.6282  0.8747
  649MOL0     C89462   5.972  -1.359   8.638 -0.1663  0.1599 -0.2243
  649MOL0     C89463   6.113  -1.291   8.638 -0.9698  0.2395 -0.2673
  649MOL0     C89464   6.115  -1.169   8.545  1.0908  0.0076 -0.5828
  649MOL0     C89465   6.258  -1.112   8.516 -0.0568 -0.6296 -0.2327
  649MOL0     C89466   6.259  -0.973   8.472 -0.6007  0.1597 -0.3352
  649MOL0     C89467   6.159  -0.946   8.351  0.0665  0.1132 -0.2351
  649MOL0     C89468   6.164  -0.804   8.299 -0.1970 -0.5598  0.3033
  649MOL0    Cl89469   6.328  -0.729   8.290  0.4500  0.1218  0.4900
  649MOL0     C89470   5.533  -1.301   8.650  0.7693 -0.2091  0.9205
  649MOL0     C89471   5.430  -1.246   8.568  0.1127  0.6955 -0.1563
  649MOL0     O89472   5.364  -0.929   8.489 -0.3295  0.3563  0.3554
  649MOL0     C89473   5.175  -0.805   8.343  0.2473  0.4585  0.3109
  649MOL0     C89474   5.066  -0.750   8.282  0.1476 -0.8892 -0.7101
  649MOL0     N89475   5.093  -0.166   7.858 -0.0084  0.3813  0.4127
  649MOL0     N89476   5.087  -0.044   7.810  0.4041 -0.0606 -0.1232
  649MOL0     C89477   5.395   0.906   7.975  0.2746 -0.0900 -1.1622
  649MOL0     C89478   5.474   1.010   7.951 -0.1866 -1.0908  0.6753
  649MOL0     C89479   5.736   1.297   7.757 -0.4442  0.5539  0.5386
  649MOL0     C89480   5.823   1.309   7.644 -0.2135 -0.1592 -0.5740
  649MOL0     C89481   5.904   1.419   7.613 -1.0499  0.6806 -0.2624
  649MOL0     C89482   5.895   1.530   7.692  0.4135  1.0603 -0.3555
  649MOL0     O89483   5.975   1.640   7.660  0.6431 -0.3356 -0.0176
  649MOL0     C89484   5.891   1.733   7.588 -0.4482  0.4443  0.0307
  649MOL0     C89485   5.932   1.872   7.604 -0.9803  0.1875  0.3183
  649MOL0     C89486   6.026   1.913   7.490  0.6250 -0.7027 -0.2310
  649MOL0     C89487   6.059   2.068   7.489 -0.3458  0.0723  0.0715
  649MOL0     C89488   6.152   2.105   7.596  0.4333  0.2518 -0.4246
  649MOL0     C89489   6.227   2.118   7.689 -0.1372 -0.1453 -0.8420
  649MOL0     C89490   5.812   1.525   7.804  0.3031  0.4031  0.2385
  649MOL0     C89491   5.737   1.409   7.842 -0.8202 -0.0134 -0.6777
  649MOL0     C89492   5.667   1.412   7.976 -0.0274  0.5586  0.1941
  649MOL0     H89493   5.315   1.139   7.679 -1.7923  0.6879  0.7069
  649MOL0     H89494   5.171   0.937   7.736  0.1187  0.1225  1.1455
  649MOL0     H89495   5.250   0.726   8.116 -0.4719  0.9790 -1.2956
  649MOL0     H89496   5.329   0.628   8.004  0.2141 -0.8972  3.4999
  649MOL0     H89497   5.168   0.488   8.104  0.8051 -1.8079 -2.3056
  649MOL0     H89498   5.038   0.601   8.077  0.8682 -0.4733  0.1634
  649MOL0     H89499   5.093   0.553   7.814  0.3834 -0.2268 -1.2116
  649MOL0     H89500   5.210   0.438   7.886  1.9056  2.6238  2.2971
  649MOL0     H89501   5.002   0.307   7.987 -4.1566 -0.7401 -0.7302
  649MOL0     H89502   4.912   0.444   7.941  1.0436 -0.0365  2.6934
  649MOL0     H89503   5.088   0.265   7.753 -0.0803 -0.6165 -1.5273
  649MOL0     H89504   4.976   0.388   7.698 -0.5902 -0.0543 -0.1953
  649MOL0     H89505   4.902   0.124   7.840 -1.3687  0.0112  0.3662
  649MOL0     H89506   4.781   0.240   7.800 -1.3086 -2.0594 -1.5583
  649MOL0     H89507   4.851   0.217   7.560  1.5482  1.6369  1.2662
  649MOL0     H89508   4.780   0.069   7.628  0.5932  0.0878 -1.7675
  649MOL0     H89509   4.961   0.008   7.493 -1.5390 -1.0269  0.6506
  649MOL0     H89510   5.078   0.116   7.571 -0.3669  2.1208  1.9778
  649MOL0     H89511   4.924  -0.220   7.598  3.5825  0.3268 -2.2033
  649MOL0     H89512   5.093  -0.449   7.792  1.3612  1.4325  1.6560
  649MOL0     H89513   4.924  -0.438   7.732 -1.5774 -0.2257  1.4516
  649MOL0     H89514   4.955  -0.355   8.017 -2.2503 -1.2502  2.2444
  649MOL0     H89515   4.818  -0.407   7.923 -0.4855  0.4252 -1.0341
  649MOL0     H89516   4.951  -0.636   7.900 -3.5066 -1.6016  2.2216
  649MOL0     H89517   5.063  -0.575   8.013  0.1615  0.7397  0.8849
  649MOL0     H89518   4.890  -0.554   8.178  0.6485  1.2486 -1.7299
  649MOL0     H89519   4.768  -0.609   8.063 -0.7695  0.7059  3.5448
  649MOL0     H89520   4.987  -0.992   8.066 -1.4174  1.5223 -0.4667
  649MOL0     H89521   5.064  -1.208   8.136 -1.8225  0.7337  1.3682
  649MOL0     H89522   5.170  -1.232   8.277 -0.6313 -0.3633 -1.0965
  649MOL0     H89523   5.234  -1.173   8.123  0.1023  0.4754  0.0179
  649MOL0     H89524   5.615  -1.089   8.338  1.5275  0.7599  0.2921
  649MOL0     H89525   5.804  -1.155   8.510  0.8400 -3.7602 -3.9138
  649MOL0     H89526   5.901  -1.187   8.742  2.5064 -0.9848 -0.8527
  649MOL0     H89527   5.907  -1.348   8.844 -0.0183 -1.4615  0.5828
  649MOL0     H89528   5.994  -1.464   8.658 -1.0370  0.0686  0.2931
  649MOL0     H89529   5.928  -1.348   8.538 -0.7044  0.3986  0.0371
  649MOL0     H89530   6.179  -1.363   8.589  2.1890  1.2844  2.0310
  649MOL0     H89531   6.159  -1.263   8.734  0.6086  1.5947 -1.3569
  649MOL0     H89532   6.048  -1.089   8.579  1.4670  0.3595 -0.6573
  649MOL0     H89533   6.075  -1.199   8.447  0.4646  0.2436 -0.4065
  649MOL0     H89534   6.336  -1.123   8.592 -0.7676  0.6137  0.7024
  649MOL0     H89535   6.298  -1.173   8.434 -1.2862 -2.0903  0.2149
  649MOL0     H89536   6.360  -0.948   8.439 -0.3622 -1.8533 -1.2791
  649MOL0     H89537   6.231  -0.911   8.558  0.2183 -0.3225  0.2953
  649MOL0     H89538   6.055  -0.978   8.364  0.4206 -0.4305  1.4926
  649MOL0     H89539   6.188  -1.011   8.267  1.5723  0.7304 -0.2284
  649MOL0     H89540   6.094  -0.750   8.363  1.0084  1.7398 -0.2060
  649MOL0     H89541   6.118  -0.792   8.201 -0.2437 -1.5814  0.1895
  649MOL0     H89542   5.502  -1.378   8.719 -0.2444 -0.0575  0.6573
  649MOL0     H89543   5.331  -1.274   8.605  0.7739  0.4206  1.5105
  649MOL0     H89544   5.231  -0.747   8.416 -0.8682 -2.0223  3.3332
  649MOL0     H89545   5.028  -0.653   8.313 -1.9463 -1.8252 -0.1661
  649MOL0     H89546   5.419   0.847   8.063 -0.8288  0.2421 -0.6205
  649MOL0     H89547   5.563   1.026   8.010 -0.8847  0.7126  1.3159
  649MOL0     H89548   5.830   1.232   7.568  0.1808  0.4928 -1.2137
  649MOL0     H89549   5.960   1.422   7.520  1.4726 -2.2349  0.9882
  649MOL0     H89550   5.898   1.706   7.482 -3.9132 -3.2848  0.5044
  649MOL0     H89551   5.786   1.730   7.620 -0.9695  1.6906 -1.4188
  649MOL0     H89552   5.984   1.862   7.700 -1.7184 -1.6427  0.5818
  649MOL0     H89553   5.850   1.943   7.593  0.3519  2.2161  2.5699
  649MOL0     H89554   6.117   1.851   7.486  2.3882  1.7783 -1.1692
  649MOL0     H89555   5.966   1.889   7.402 -1.9007 -0.6570  1.4089
  649MOL0     H89556   5.967   2.122   7.509 -0.7459 -1.3886  2.5899
  649MOL0     H89557   6.102   2.100   7.393 -1.1891  1.6763  0.2041
  649MOL0     H89558   6.309   2.122   7.758 -0.4334  0.2277 -0.5024
  649MOL0     H89559   5.831   1.603   7.877 -0.2102  0.1352  0.6591
  649MOL0     H89560   5.682   1.320   8.034  0.8083 -0.2244 -1.2088
  649MOL0     H89561   5.700   1.495   8.039  0.2975  0.7459 -0.2247
  649MOL0     H89562   5.559   1.426   7.969 -0.2749 -1.7070 -2.3993
  650MOL0     O89563   4.885   2.038   4.169 -0.4069 -0.7012 -0.1354
  650MOL0     C89564   4.846   2.058   4.052  0.4075  0.5446  0.1717
  650MOL0     O89565   4.732   2.113   4.013 -0.7475 -0.5742  0.4342
  650MOL0     C89566   4.660   2.183   4.110  0.4510 -0.0274  0.8059
  650MOL0     C89567   4.702   2.312   4.152  0.0589 -0.7890  0.0343
  650MOL0     C89568   4.613   2.389   4.229  0.4793  0.4221 -0.1149
  650MOL0     C89569   4.493   2.340   4.273  0.0868 -0.4031 -0.0258
  650MOL0     O89570   4.401   2.418   4.345 -0.5844  0.2149 -0.1000
  650MOL0     C89571   4.424   2.559   4.366 -0.3426  0.1362 -0.3068
  650MOL0     C89572   4.426   2.644   4.238  0.8460  0.5198 -0.4364
  650MOL0     C89573   4.299   2.665   4.164  0.4220 -0.3072 -0.5442
  650MOL0     C89574   4.330   2.715   4.026 -0.7203 -0.3903 -0.4366
  650MOL0     C89575   4.207   2.777   3.971 -0.2388  0.6812 -0.5566
  650MOL0     C89576   4.174   2.742   3.827 -0.4633  0.1986 -0.8107
  650MOL0     C89577   4.091   2.618   3.808  0.7821 -0.7679  0.0392
  650MOL0     C89578   4.102   2.573   3.662 -0.1338  0.4582  0.3011
  650MOL0     N89579   4.009   2.467   3.631  0.4376 -0.4039  0.3749
  650MOL0     C89580   4.002   2.345   3.692 -0.8644  0.5708  0.3726
  650MOL0     C89581   3.892   2.293   3.644 -0.7001  0.0750 -0.3836
  650MOL0     C89582   3.828   2.171   3.699 -0.0245 -0.4402 -0.1033
  650MOL0     C89583   3.767   2.196   3.841 -0.1657  0.2682 -0.6712
  650MOL0     C89584   3.681   2.080   3.892  0.4372 -0.4353  0.5168
  650MOL0     C89585   3.769   1.954   3.907  0.1083  0.3609  0.6287
  650MOL0     O89586   3.875   1.987   3.988 -0.4604  0.3213  0.0828
  650MOL0     C89587   3.953   1.881   4.031  0.3764 -0.7261  0.0665
  650MOL0     C89588   3.892   1.769   4.091  0.4486  0.7252 -0.3535
  650MOL0     C89589   3.973   1.659   4.127  0.3503 -0.4395  0.2457
  650MOL0     C89590   3.893   1.539   4.180  0.5148  1.0675 -0.8333
  650MOL0     C89591   4.118   1.673   4.104  0.3370  0.2501 -0.1877
  650MOL0     C89592   4.208   1.560   4.141  0.4266  0.6292 -0.1994
  650MOL0     O89593   4.185   1.444   4.080  0.0092  0.6416  0.1410
  650MOL0     C89594   4.263   1.334   4.125  0.8373  0.6468  0.4595
  650MOL0     C89595   4.211   1.265   4.236  0.3090  1.0297  1.2869
  650MOL0     C89596   4.278   1.139   4.262 -0.1595  0.1541 -0.5218
  650MOL0     C89597   4.391   1.106   4.191  0.1459 -0.4807 -0.2003
  650MOL0     O89598   4.462   0.988   4.205  0.0884  0.3518  0.5070
  650MOL0     C89599   4.434   0.892   4.307  0.6428  0.3597 -0.8484
  650MOL0     C89600   4.536   0.784   4.320 -0.6842  0.0769 -0.3006
  650MOL0     C89601   4.472   0.657   4.257  0.0810 -0.3118  0.8203
  650MOL0     C89602   4.562   0.534   4.295  0.4628  0.6795 -0.6642
  650MOL0     C89603   4.490   0.398   4.265 -0.8275  0.5861  0.2644
  650MOL0     C89604   4.562   0.280   4.333  0.4864 -0.3253 -1.0655
  650MOL0     C89605   4.486   0.134   4.321 -0.0418 -0.0857 -0.1144
  650MOL0     C89606   4.347   0.130   4.374  0.2370  0.3617 -0.2460
  650MOL0    Cl89607   4.271  -0.032   4.380 -0.1130  0.1643 -0.0908
  650MOL0     C89608   4.432   1.183   4.082 -0.3173 -1.0024 -0.3872
  650MOL0     C89609   4.365   1.300   4.050 -0.6391  0.4510  0.5320
  650MOL0     O89610   4.291   1.577   4.232 -0.5364  0.1883 -0.2226
  650MOL0     C89611   4.171   1.788   4.044 -1.1376  0.7697 -0.9297
  650MOL0     C89612   4.087   1.894   4.015 -0.3422 -0.0659  0.0847
  650MOL0     N89613   3.839   2.372   3.547  0.7349  0.0974  0.9459
  650MOL0     N89614   3.910   2.480   3.543 -0.5309 -0.6757  0.1455
  650MOL0     C89615   4.453   2.215   4.234 -0.1024 -0.5152 -0.8417
  650MOL0     C89616   4.533   2.139   4.158 -0.2603 -0.0640  0.2147
  650MOL0     C89617   4.930   2.033   3.932  0.8320  0.9825 -0.7660
  650MOL0     C89618   4.871   1.996   3.811  0.1635 -0.1293 -0.2024
  650MOL0     C89619   4.946   1.969   3.698 -0.0619  0.2862  0.1746
  650MOL0     C89620   5.087   1.995   3.700  0.1995 -0.1877 -0.4857
  650MOL0     O89621   5.156   1.996   3.583 -0.2201 -0.8586 -0.0758
  650MOL0     C89622   5.103   1.985   3.452 -0.3117  0.0747 -0.6966
  650MOL0     C89623   5.211   2.007   3.342 -0.7137  0.2250 -0.0865
  650MOL0     C89624   5.359   1.990   3.395  0.3271 -0.1163  0.0570
  650MOL0     C89625   5.469   2.003   3.285  0.4094  0.2770 -1.2059
  650MOL0     C89626   5.498   2.140   3.267  0.0210 -0.3523 -0.0689
  650MOL0     C89627   5.525   2.258   3.239  1.5712 -0.2405  0.0029
  650MOL0     C89628   5.144   2.034   3.813 -0.5865 -0.5025 -0.5785
  650MOL0     C89629   5.069   2.050   3.930 -0.1948 -0.1891 -0.1322
  650MOL0     C89630   5.149   2.092   4.058  0.6156  0.1296 -0.0270
  650MOL0     H89631   4.792   2.365   4.126 -1.4802  1.9627 -0.0327
  650MOL0     H89632   4.654   2.482   4.266 -1.5309  1.8262 -1.2609
  650MOL0     H89633   4.522   2.563   4.414 -1.0810  0.3905  1.2358
  650MOL0     H89634   4.360   2.598   4.445 -1.5370 -0.1787 -1.0811
  650MOL0     H89635   4.465   2.742   4.268  0.2238  1.7316 -3.2873
  650MOL0     H89636   4.495   2.605   4.163 -0.7383 -0.6617 -1.3273
  650MOL0     H89637   4.250   2.567   4.159 -0.0701 -0.0385 -1.0228
  650MOL0     H89638   4.241   2.740   4.218  0.9524 -0.5167  0.3494
  650MOL0     H89639   4.420   2.776   4.026 -0.7159 -0.3355  1.5115
  650MOL0     H89640   4.359   2.628   3.966  0.1787  0.5224 -1.3577
  650MOL0     H89641   4.221   2.886   3.974 -0.4729  0.7005  0.3688
  650MOL0     H89642   4.122   2.750   4.035 -2.3596 -3.2921 -4.5625
  650MOL0     H89643   4.130   2.833   3.783 -2.3029  0.0223  0.5440
  650MOL0     H89644   4.271   2.734   3.777  1.2112  1.6447  1.9879
  650MOL0     H89645   3.988   2.625   3.843  1.2315 -1.9339  1.7832
  650MOL0     H89646   4.126   2.532   3.867 -0.6323 -0.7590  0.9451
  650MOL0     H89647   4.081   2.657   3.595 -0.8689  2.1753  2.5394
  650MOL0     H89648   4.202   2.533   3.642  0.1230 -1.1758  4.0604
  650MOL0     H89649   4.064   2.306   3.772 -1.5043 -1.7563 -0.1910
  650MOL0     H89650   3.901   2.090   3.706  2.5594  1.3697 -3.1740
  650MOL0     H89651   3.743   2.144   3.635  0.2401 -1.6483  0.0320
  650MOL0     H89652   3.845   2.226   3.912  1.1772 -1.0870 -1.5068
  650MOL0     H89653   3.696   2.278   3.848 -0.7587 -0.3569  2.6978
  650MOL0     H89654   3.643   2.120   3.986  2.2853  2.1078  0.2976
  650MOL0     H89655   3.593   2.053   3.832  0.8345  1.0654 -0.8247
  650MOL0     H89656   3.700   1.880   3.948  0.1621  0.6183  1.1987
  650MOL0     H89657   3.806   1.924   3.809 -0.8486  0.4919  0.2181
  650MOL0     H89658   3.784   1.768   4.098  0.4280 -2.7514  0.8754
  650MOL0     H89659   3.939   1.483   4.261 -3.1629 -1.7614 -0.4513
  650MOL0     H89660   3.887   1.469   4.096 -1.3023  1.3305 -0.9523
  650MOL0     H89661   3.798   1.569   4.225  2.6386  4.0912  2.1104
  650MOL0     H89662   4.118   1.289   4.286 -2.0147 -1.1710 -1.5866
  650MOL0     H89663   4.270   1.090   4.358  5.8383  0.9989  0.8629
  650MOL0     H89664   4.441   0.950   4.399 -0.4624  0.7690 -1.0074
  650MOL0     H89665   4.334   0.851   4.290  1.7098 -2.4079 -0.8691
  650MOL0     H89666   4.629   0.803   4.266 -1.4959  2.8672 -0.9083
  650MOL0     H89667   4.552   0.778   4.428 -0.5758  1.7690 -0.1869
  650MOL0     H89668   4.462   0.663   4.148 -2.3563 -0.2258  0.9873
  650MOL0     H89669   4.372   0.631   4.296 -1.5494  3.3163 -0.4802
  650MOL0     H89670   4.581   0.538   4.402 -1.9956  2.5709 -0.2092
  650MOL0     H89671   4.657   0.549   4.242  1.9753 -1.2679  1.2914
  650MOL0     H89672   4.387   0.407   4.300 -0.4710  2.0210  1.0135
  650MOL0     H89673   4.486   0.378   4.157  1.4993 -0.9922  0.4064
  650MOL0     H89674   4.584   0.301   4.438 -0.0990  3.7591 -1.6188
  650MOL0     H89675   4.659   0.262   4.286  1.3357  0.4043  0.3463
  650MOL0     H89676   4.546   0.059   4.373  0.2272  0.9826  1.1846
  650MOL0     H89677   4.479   0.100   4.218  3.6505 -0.6066 -0.3194
  650MOL0     H89678   4.278   0.196   4.321  0.1997 -0.5109 -1.3326
  650MOL0     H89679   4.359   0.164   4.477 -0.1512 -2.2152  0.7261
  650MOL0     H89680   4.510   1.139   4.021  2.1603  2.3020  0.1854
  650MOL0     H89681   4.412   1.352   3.966 -0.5868  0.4174  0.5399
  650MOL0     H89682   4.275   1.788   4.014 -0.6218 -1.2503  0.5834
  650MOL0     H89683   4.119   1.983   3.963 -1.4312 -0.2287 -0.8970
  650MOL0     H89684   4.360   2.174   4.273 -0.9670  2.9768  1.1322
  650MOL0     H89685   4.499   2.039   4.135  0.5842 -0.0289 -1.3611
  650MOL0     H89686   4.765   1.969   3.808 -0.0124  0.2973  1.2132
  650MOL0     H89687   4.897   1.924   3.612 -1.6874 -2.9025  2.5819
  650MOL0     H89688   5.054   1.888   3.443  0.1667 -0.3478  0.8050
  650MOL0     H89689   5.023   2.057   3.436  0.9662  1.7726  0.1639
  650MOL0     H89690   5.202   2.108   3.302 -1.3618 -0.1109 -0.8102
  650MOL0     H89691   5.195   1.934   3.263 -0.0753 -0.1030  0.0811
  650MOL0     H89692   5.384   2.070   3.465  0.5720 -0.2669  0.1414
  650MOL0     H89693   5.357   1.888   3.434 -2.2148  0.2912  1.1956
  650MOL0     H89694   5.447   1.963   3.185  2.2924  1.3570 -2.1141
  650MOL0     H89695   5.560   1.956   3.323 -0.1630 -2.1820 -2.6570
  650MOL0     H89696   5.523   2.364   3.220 -6.6213 -0.0600 -1.6433
  650MOL0     H89697   5.247   2.061   3.791 -0.9602  0.3112 -1.4149
  650MOL0     H89698   5.091   2.141   4.136 -0.0825 -1.1201  0.2586
  650MOL0     H89699   5.209   2.015   4.106  1.3023  0.5818 -0.1357
  650MOL0     H89700   5.214   2.174   4.027  1.7615 -0.4707  0.7189
  651MOL0     O89701  10.799   3.299   9.059  0.6859  0.3468 -0.3782
  651MOL0     C89702  10.797   3.269   9.178  0.8827 -0.8172 -0.4821
  651MOL0     O89703  10.900   3.218   9.244  0.1493 -0.0529  0.5068
  651MOL0     C89704  11.026   3.243   9.200  0.4864  0.2293 -0.4835
  651MOL0     C89705  11.056   3.360   9.142  0.7375 -0.1238 -0.0346
  651MOL0     C89706  11.196   3.383   9.119 -0.6776  0.4642  1.3793
  651MOL0     C89707  11.296   3.290   9.148 -0.5072  1.5262  0.0021
  651MOL0     O89708  11.424   3.300   9.120 -0.1972 -0.5327  0.0043
  651MOL0     C89709  11.494   3.425   9.125  1.0790 -0.0890  0.9430
  651MOL0     C89710  11.647   3.410   9.114  0.7914 -0.7168 -0.0019
  651MOL0     C89711  11.704   3.518   9.202 -1.5324  0.0730  0.1492
  651MOL0     C89712  11.865   3.529   9.173  0.3409 -0.8500 -0.1240
  651MOL0     C89713  11.926   3.633   9.274 -0.2590 -0.3887 -0.2456
  651MOL0     C89714  12.076   3.630   9.288 -0.3779 -0.0210 -0.6890
  651MOL0     C89715  12.124   3.745   9.372 -0.3267 -0.5007 -0.0364
  651MOL0     C89716  12.274   3.725   9.393  0.3504 -0.0490  0.2847
  651MOL0     N89717  12.288   3.670   9.522 -0.4905  0.2070 -0.2651
  651MOL0     C89718  12.271   3.547   9.571  0.3907  0.6040 -0.2694
  651MOL0     C89719  12.262   3.553   9.704 -0.2389 -0.3095 -0.7556
  651MOL0     C89720  12.213   3.432   9.779  0.3699  0.1465 -0.6093
  651MOL0     C89721  12.297   3.312   9.801  0.3350  1.0620 -0.3350
  651MOL0     C89722  12.217   3.185   9.845 -1.6106  0.1584  0.2525
  651MOL0     C89723  12.190   3.105   9.715  0.6269 -0.8090  0.6732
  651MOL0     O89724  12.304   3.042   9.654 -0.0504  0.2964  0.2935
  651MOL0     C89725  12.275   2.974   9.539 -0.4834 -0.5759  0.6350
  651MOL0     C89726  12.373   2.910   9.459 -0.7562  0.2480 -0.5900
  651MOL0     C89727  12.349   2.845   9.337  0.0109 -0.5124 -0.1573
  651MOL0     C89728  12.462   2.783   9.264  0.0556  0.2956 -0.4894
  651MOL0     C89729  12.211   2.840   9.290  0.4809 -0.5822  0.5203
  651MOL0     C89730  12.159   2.755   9.172  0.2493  0.1698  0.0025
  651MOL0     O89731  12.226   2.646   9.145 -0.5581 -0.0334 -0.0157
  651MOL0     C89732  12.200   2.571   9.039 -0.1946  0.0681  1.5567
  651MOL0     C89733  12.266   2.599   8.904 -0.0239 -1.0648 -0.2983
  651MOL0     C89734  12.232   2.530   8.792  1.8297  1.0046 -0.5296
  651MOL0     C89735  12.111   2.447   8.788  0.6435  0.7962  0.4349
  651MOL0     O89736  12.075   2.378   8.674  0.3486 -0.0275 -0.2210
  651MOL0     C89737  12.074   2.447   8.543  0.7443  0.1783 -1.5165
  651MOL0     C89738  11.943   2.529   8.523  0.4000 -0.9927  0.1323
  651MOL0     C89739  11.828   2.439   8.497 -0.9235 -0.7632 -0.6638
  651MOL0     C89740  11.698   2.498   8.563 -0.5784  1.1953 -0.1845
  651MOL0     C89741  11.595   2.388   8.545 -0.8904 -0.2053  0.0437
  651MOL0     C89742  11.467   2.440   8.603  0.6583  0.4923 -0.4161
  651MOL0     C89743  11.344   2.373   8.527 -0.4543 -0.2181 -0.8841
  651MOL0     C89744  11.214   2.385   8.614  0.1083  0.0273  0.1938
  651MOL0    Cl89745  11.204   2.238   8.708 -0.2216  0.1779 -0.0793
  651MOL0     C89746  12.048   2.424   8.908  0.0864 -1.3171 -0.0506
  651MOL0     C89747  12.089   2.481   9.032 -0.7480 -0.6273 -0.0851
  651MOL0     O89748  12.056   2.783   9.116  0.7239 -0.1369 -0.4160
  651MOL0     C89749  12.112   2.907   9.356 -0.2137 -0.9153 -0.3791
  651MOL0     C89750  12.149   2.968   9.480  0.3385  0.5134  0.2613
  651MOL0     N89751  12.278   3.689   9.736 -0.0245  0.6373 -0.1165
  651MOL0     N89752  12.292   3.758   9.630 -0.4267 -0.4266  0.3135
  651MOL0     C89753  11.246   3.164   9.194 -0.6942 -0.4621 -0.5539
  651MOL0     C89754  11.112   3.138   9.211  1.0988 -0.2354 -0.7045
  651MOL0     C89755  10.667   3.307   9.248  0.3635  0.3293  0.8791
  651MOL0     C89756  10.580   3.399   9.196 -1.0996  0.7403 -0.1805
  651MOL0     C89757  10.456   3.436   9.251  0.1989  0.2014  0.0117
  651MOL0     C89758  10.415   3.377   9.368 -0.0017  0.9789  0.6046
  651MOL0     O89759  10.293   3.402   9.423  0.0976  0.0465  0.0322
  651MOL0     C89760  10.184   3.478   9.352 -0.5334 -0.8542 -0.7074
  651MOL0     C89761  10.067   3.504   9.450  0.3621 -0.0782 -0.3722
  651MOL0     C89762   9.966   3.390   9.479 -0.1790  0.6179  0.4415
  651MOL0     C89763   9.903   3.335   9.347 -0.6353 -0.9264  0.1168
  651MOL0     C89764   9.843   3.441   9.267 -0.5614  0.9039  0.7718
  651MOL0     C89765   9.795   3.523   9.194  0.1158  0.1922  0.1175
  651MOL0     C89766  10.500   3.280   9.422 -0.1762 -0.3770 -0.1481
  651MOL0     C89767  10.623   3.244   9.366 -0.4365 -0.0437 -0.2716
  651MOL0     C89768  10.699   3.125   9.419 -0.1809  0.6154 -1.6817
  651MOL0     H89769  10.981   3.435   9.116  0.2646 -0.9466 -1.1173
  651MOL0     H89770  11.235   3.472   9.070 -1.7933 -0.3954 -1.2458
  651MOL0     H89771  11.464   3.478   9.216  0.3669 -0.3817  0.8886
  651MOL0     H89772  11.461   3.489   9.042  2.5587 -2.4622 -1.6308
  651MOL0     H89773  11.684   3.324   9.170 -0.4951 -0.7314  0.8537
  651MOL0     H89774  11.680   3.393   9.011  1.4723 -3.8540  0.6281
  651MOL0     H89775  11.653   3.611   9.174 -3.3957 -1.1440 -0.7428
  651MOL0     H89776  11.685   3.498   9.307 -1.6463  2.7953  0.7317
  651MOL0     H89777  11.900   3.427   9.191  0.0856 -0.7846  0.8341
  651MOL0     H89778  11.892   3.553   9.070 -0.1446 -1.1427 -0.3249
  651MOL0     H89779  11.884   3.601   9.370 -3.5977  0.1011 -1.4081
  651MOL0     H89780  11.906   3.735   9.240 -0.1573 -0.1381  0.4254
  651MOL0     H89781  12.102   3.543   9.349 -4.1799  1.3760  3.4130
  651MOL0     H89782  12.118   3.615   9.187  0.7701 -0.6008 -0.1513
  651MOL0     H89783  12.072   3.750   9.468  0.7095  0.4774  0.5046
  651MOL0     H89784  12.104   3.842   9.325 -2.4964 -1.4415 -1.1837
  651MOL0     H89785  12.320   3.657   9.320  3.2706  1.7156  0.3075
  651MOL0     H89786  12.327   3.821   9.387 -2.3214  1.4730 -0.1751
  651MOL0     H89787  12.248   3.452   9.523 -0.1891  0.0809  1.0041
  651MOL0     H89788  12.119   3.394   9.738 -1.4003 -1.3234  4.1655
  651MOL0     H89789  12.189   3.464   9.881 -2.8198 -1.3915 -0.7805
  651MOL0     H89790  12.346   3.284   9.707 -0.5860 -2.4398  0.1063
  651MOL0     H89791  12.371   3.342   9.877  0.5071  1.0887 -0.5109
  651MOL0     H89792  12.283   3.120   9.903  0.8907  0.1213 -2.3982
  651MOL0     H89793  12.119   3.203   9.892 -2.1144 -0.2086 -0.6291
  651MOL0     H89794  12.108   3.035   9.734 -2.5952  1.8446 -2.2108
  651MOL0     H89795  12.165   3.191   9.653  1.2777 -0.1758  1.2695
  651MOL0     H89796  12.475   2.909   9.495 -0.2096 -3.2618 -1.8655
  651MOL0     H89797  12.440   2.795   9.158 -1.0905  2.9304 -0.0232
  651MOL0     H89798  12.488   2.679   9.284 -1.7340 -0.0289  0.3586
  651MOL0     H89799  12.552   2.840   9.289 -0.9525  0.8760  2.1081
  651MOL0     H89800  12.363   2.646   8.898  1.2486 -3.3319  1.1995
  651MOL0     H89801  12.288   2.529   8.699  0.2282 -1.3052 -1.5692
  651MOL0     H89802  12.160   2.512   8.521  1.4284 -0.5309 -1.0132
  651MOL0     H89803  12.083   2.373   8.463 -0.5906 -0.7837 -0.8028
  651MOL0     H89804  11.926   2.590   8.611 -2.5614 -1.7406  0.1832
  651MOL0     H89805  11.955   2.597   8.438 -0.0444  0.2074  1.0128
  651MOL0     H89806  11.859   2.340   8.530  1.4280  0.8956  2.7029
  651MOL0     H89807  11.819   2.431   8.388 -0.2887  0.6207 -0.8492
  651MOL0     H89808  11.671   2.585   8.502  4.0685  2.4192 -0.8969
  651MOL0     H89809  11.714   2.520   8.669  1.3432 -1.0489  0.0868
  651MOL0     H89810  11.577   2.353   8.443  1.8231 -1.8168  0.0033
  651MOL0     H89811  11.614   2.294   8.598  0.7357  0.5265  0.8449
  651MOL0     H89812  11.464   2.547   8.581 -1.1428  1.0064  1.8218
  651MOL0     H89813  11.470   2.427   8.712  4.1655  0.7654 -0.3789
  651MOL0     H89814  11.360   2.270   8.493  2.6325 -0.5541  1.1071
  651MOL0     H89815  11.313   2.424   8.436 -2.1414 -0.0972 -0.2693
  651MOL0     H89816  11.126   2.381   8.549  1.2085  2.4741 -1.6225
  651MOL0     H89817  11.216   2.474   8.677 -2.1937 -1.6404  2.8406
  651MOL0     H89818  11.969   2.350   8.910 -1.0235 -0.2779 -1.9068
  651MOL0     H89819  12.031   2.465   9.123 -0.2264 -1.1685  0.1592
  651MOL0     H89820  12.011   2.912   9.316 -0.1551 -3.2414 -0.9524
  651MOL0     H89821  12.057   3.003   9.525  0.3709 -1.1218  1.7111
  651MOL0     H89822  11.312   3.081   9.217 -2.7249 -1.7990  0.7863
  651MOL0     H89823  11.083   3.042   9.254  0.6072  1.0935  2.1518
  651MOL0     H89824  10.622   3.456   9.113  1.7639 -1.0658 -0.1183
  651MOL0     H89825  10.393   3.507   9.199  1.0752 -0.5902 -2.2849
  651MOL0     H89826  10.227   3.573   9.318 -0.3881 -0.8810 -0.6000
  651MOL0     H89827  10.146   3.423   9.265  1.6167 -1.1090 -1.5305
  651MOL0     H89828  10.012   3.589   9.408  0.6999 -0.4129 -1.5181
  651MOL0     H89829  10.092   3.546   9.548  1.8354  0.8855 -1.1209
  651MOL0     H89830  10.028   3.315   9.528  1.4263 -0.0760 -2.4157
  651MOL0     H89831   9.882   3.409   9.546  0.0541  0.1844  0.8554
  651MOL0     H89832   9.827   3.263   9.378 -2.2282  0.4993 -0.3298
  651MOL0     H89833   9.977   3.293   9.279 -1.2710  1.7194 -2.4108
  651MOL0     H89834   9.739   3.589   9.130 -0.8797  0.5010  1.2600
  651MOL0     H89835  10.452   3.226   9.503  0.1790  0.7806  0.8597
  651MOL0     H89836  10.632   3.065   9.482  1.6548 -0.4541 -0.6428
  651MOL0     H89837  10.738   3.054   9.346 -0.1880 -2.7262  1.2648
  651MOL0     H89838  10.770   3.160   9.494 -0.9825 -2.8303  1.0030
  652MOL0     O89839   6.734   5.713   9.168  0.1026  0.6063 -0.1535
  652MOL0     C89840   6.621   5.760   9.164  0.2241 -0.2069 -0.0027
  652MOL0     O89841   6.593   5.875   9.103  0.1224  0.2838 -0.5915
  652MOL0     C89842   6.687   5.926   9.013 -0.2699 -0.9981  0.0886
  652MOL0     C89843   6.760   6.049   9.047  0.0718 -0.6805  0.8290
  652MOL0     C89844   6.837   6.120   8.950 -0.5164  0.6436  0.0246
  652MOL0     C89845   6.860   6.064   8.827  0.5190 -0.5714  0.0300
  652MOL0     O89846   6.929   6.134   8.731  0.4735 -0.4067 -0.1180
  652MOL0     C89847   7.015   6.071   8.647 -0.1385  0.1503  0.5241
  652MOL0     C89848   7.131   5.988   8.705  0.1639  0.2630 -0.6088
  652MOL0     C89849   7.198   6.051   8.835  0.5292  0.7551 -0.2154
  652MOL0     C89850   7.291   6.162   8.787 -0.2448 -1.0352 -0.2712
  652MOL0     C89851   7.364   6.237   8.902  0.1244 -0.3657  1.6403
  652MOL0     C89852   7.461   6.349   8.853  0.5671  0.5031 -0.3179
  652MOL0     C89853   7.549   6.398   8.972  0.1784  0.5620 -0.7820
  652MOL0     C89854   7.483   6.509   9.050 -0.1761  0.3739  0.2685
  652MOL0     N89855   7.427   6.609   8.966  0.4917 -0.7467 -0.4769
  652MOL0     C89856   7.292   6.605   8.949 -0.0814 -0.1884  0.4687
  652MOL0     C89857   7.260   6.695   8.855  0.6214 -0.0408 -0.0305
  652MOL0     C89858   7.120   6.705   8.802 -0.1834  0.4031  1.3399
  652MOL0     C89859   7.079   6.588   8.718  1.1414 -0.0004  0.2598
  652MOL0     C89860   6.928   6.587   8.720 -0.1553  0.5076  0.6746
  652MOL0     C89861   6.875   6.474   8.633 -0.0080 -0.0525 -0.4285
  652MOL0     O89862   6.899   6.515   8.501 -0.1078 -0.1117  0.1893
  652MOL0     C89863   6.819   6.459   8.394  0.4348  0.2602 -0.6360
  652MOL0     C89864   6.734   6.342   8.403 -1.5520  0.0111 -0.9399
  652MOL0     C89865   6.655   6.301   8.289 -0.1713 -0.0290 -0.0824
  652MOL0     C89866   6.572   6.181   8.319  0.2888  0.2837  0.1171
  652MOL0     C89867   6.659   6.366   8.159  0.1202 -0.0632 -0.3349
  652MOL0     C89868   6.572   6.337   8.045  0.4335 -1.0115  0.5396
  652MOL0     O89869   6.597   6.410   7.933 -1.2203  0.8471 -0.2395
  652MOL0     C89870   6.504   6.416   7.836  0.4248  0.4923  0.4440
  652MOL0     C89871   6.417   6.531   7.832 -0.1306  0.5212  0.7178
  652MOL0     C89872   6.319   6.537   7.742  0.5363  0.8932 -0.1325
  652MOL0     C89873   6.293   6.433   7.655 -0.9200  0.9146 -0.7893
  652MOL0     O89874   6.183   6.438   7.570 -0.4365  0.0777 -0.4337
  652MOL0     C89875   6.150   6.320   7.491  0.6728 -0.5438 -0.2537
  652MOL0     C89876   6.078   6.215   7.582 -0.7056  0.3737 -0.2180
  652MOL0     C89877   5.957   6.288   7.647 -0.7098 -0.5906 -0.3915
  652MOL0     C89878   5.871   6.197   7.738  0.6071 -1.0247 -0.0465
  652MOL0     C89879   5.748   6.280   7.799 -0.4377 -0.6097  0.3835
  652MOL0     C89880   5.674   6.211   7.911 -0.5032  0.5773 -0.3742
  652MOL0     C89881   5.578   6.314   7.984  0.7922  1.0481  0.0030
  652MOL0     C89882   5.490   6.243   8.088 -0.8675  0.0284 -0.3556
  652MOL0    Cl89883   5.381   6.123   8.003 -0.5937  0.8238 -0.1086
  652MOL0     C89884   6.383   6.326   7.661  0.5497  0.2169  0.2540
  652MOL0     C89885   6.486   6.315   7.740 -0.2163 -0.2739 -0.3253
  652MOL0     O89886   6.495   6.249   8.051 -0.6125 -0.0848 -0.1436
  652MOL0     C89887   6.745   6.481   8.154  0.1164  0.8969 -0.0813
  652MOL0     C89888   6.828   6.515   8.266 -0.2456  0.1808  0.0342
  652MOL0     N89889   7.373   6.761   8.829  0.0836 -0.1911  0.3254
  652MOL0     N89890   7.476   6.707   8.887  0.0480 -0.3135  0.2685
  652MOL0     C89891   6.799   5.943   8.798  0.2350 -0.4511 -0.3371
  652MOL0     C89892   6.709   5.884   8.888 -0.4370  0.3169 -0.2606
  652MOL0     C89893   6.496   5.686   9.181 -0.5569  0.0557 -0.2854
  652MOL0     C89894   6.368   5.734   9.135 -0.9731 -0.0501  0.2601
  652MOL0     C89895   6.258   5.649   9.128 -0.2731  0.0013  0.2331
  652MOL0     C89896   6.266   5.516   9.164 -0.1907 -0.0459  0.9024
  652MOL0     O89897   6.171   5.426   9.142  0.1569  0.2830  0.4797
  652MOL0     C89898   6.075   5.456   9.035 -0.7667 -0.1014 -0.2492
  652MOL0     C89899   5.971   5.350   9.040 -0.4971 -0.4718 -0.1754
  652MOL0     C89900   5.872   5.349   9.164  0.1421 -0.5654  0.1076
  652MOL0     C89901   5.929   5.279   9.278 -1.5570 -0.4528 -0.5649
  652MOL0     C89902   5.828   5.248   9.378 -0.1981 -0.3042 -0.2257
  652MOL0     C89903   5.742   5.202   9.453  0.0757 -0.1030  0.6703
  652MOL0     C89904   6.381   5.465   9.223 -0.2897 -0.4187 -0.5702
  652MOL0     C89905   6.500   5.548   9.234 -0.8192 -0.7787  0.0799
  652MOL0     C89906   6.615   5.493   9.317 -0.8888 -0.8938 -0.3110
  652MOL0     H89907   6.750   6.097   9.144  1.8077  0.3075  0.5540
  652MOL0     H89908   6.873   6.216   8.986  0.2810 -0.3207  1.9621
  652MOL0     H89909   7.059   6.149   8.584  1.8529  0.0656  1.7203
  652MOL0     H89910   6.949   6.011   8.584  0.1826 -1.1796  1.3952
  652MOL0     H89911   7.085   5.892   8.731 -1.7900  1.8012  2.1829
  652MOL0     H89912   7.195   5.972   8.618  0.2019 -2.8283 -0.1237
  652MOL0     H89913   7.121   6.095   8.900 -2.3947 -0.4980 -2.6106
  652MOL0     H89914   7.259   5.980   8.890  0.4355  1.0104  0.2292
  652MOL0     H89915   7.367   6.129   8.717  0.4329 -0.6873  0.2833
  652MOL0     H89916   7.234   6.232   8.724 -0.1411 -3.5502 -3.4047
  652MOL0     H89917   7.425   6.163   8.954 -0.5695 -3.0492 -1.0920
  652MOL0     H89918   7.286   6.278   8.967 -1.8003  0.0239 -0.7616
  652MOL0     H89919   7.533   6.304   8.783 -0.5727  2.1208 -2.6707
  652MOL0     H89920   7.392   6.416   8.802 -3.3366 -1.5856  1.7899
  652MOL0     H89921   7.644   6.434   8.930 -0.2630 -0.9244 -3.3246
  652MOL0     H89922   7.581   6.314   9.034 -0.6178  0.5223 -0.4203
  652MOL0     H89923   7.399   6.465   9.104 -0.8089  1.2469  0.0173
  652MOL0     H89924   7.546   6.559   9.124  0.9276  0.2406 -0.5570
  652MOL0     H89925   7.234   6.537   9.010 -0.0402 -0.8943 -0.2663
  652MOL0     H89926   7.124   6.795   8.741 -0.5355  0.7578  1.8349
  652MOL0     H89927   7.050   6.728   8.882 -0.6360  0.5998  0.8966
  652MOL0     H89928   7.105   6.606   8.614  2.0683  0.6592  0.5951
  652MOL0     H89929   7.119   6.491   8.750 -1.4369 -0.9452  0.8976
  652MOL0     H89930   6.892   6.564   8.821  0.3707  0.8085  0.9307
  652MOL0     H89931   6.891   6.681   8.678 -1.0067 -0.1762 -0.1446
  652MOL0     H89932   6.929   6.379   8.641 -3.6571 -2.2257  0.7071
  652MOL0     H89933   6.772   6.460   8.666  0.9249  0.3985  2.9899
  652MOL0     H89934   6.749   6.292   8.498  1.4683 -0.6307 -1.6517
  652MOL0     H89935   6.468   6.215   8.315  0.0502 -0.0635  2.1000
  652MOL0     H89936   6.594   6.135   8.416 -0.6126 -1.3476 -0.4266
  652MOL0     H89937   6.577   6.101   8.245  0.1134 -0.6524  1.0892
  652MOL0     H89938   6.436   6.613   7.902  0.2553 -0.1783  1.4551
  652MOL0     H89939   6.255   6.624   7.733 -0.1083  0.2906 -1.7215
  652MOL0     H89940   6.079   6.358   7.416  0.5161 -2.4728 -1.1290
  652MOL0     H89941   6.232   6.274   7.435  1.5850  0.3165  0.3400
  652MOL0     H89942   6.038   6.126   7.533  0.5770 -1.4915  1.9627
  652MOL0     H89943   6.148   6.176   7.656 -1.1289  0.4703  0.2385
  652MOL0     H89944   5.891   6.320   7.566 -1.2192 -0.2294  0.1560
  652MOL0     H89945   5.993   6.374   7.703  3.8348 -2.7002  0.3933
  652MOL0     H89946   5.928   6.177   7.829 -1.5769  0.5376  1.7966
  652MOL0     H89947   5.841   6.100   7.697  3.1664 -2.5682  1.4165
  652MOL0     H89948   5.799   6.371   7.833 -0.1444 -0.7791  0.3945
  652MOL0     H89949   5.685   6.311   7.714  2.8584  1.4189 -1.5468
  652MOL0     H89950   5.744   6.161   7.979  0.4494 -0.4934 -2.1027
  652MOL0     H89951   5.619   6.130   7.862  1.4553  0.8387 -3.2455
  652MOL0     H89952   5.524   6.371   7.908  1.3864  0.1923 -1.0847
  652MOL0     H89953   5.644   6.377   8.045  1.3400 -1.6371  2.4082
  652MOL0     H89954   5.427   6.316   8.139 -0.8235 -0.9457  1.1578
  652MOL0     H89955   5.553   6.188   8.158 -2.1031 -2.9090 -1.3850
  652MOL0     H89956   6.382   6.244   7.590  0.5281  1.6304 -1.4526
  652MOL0     H89957   6.536   6.219   7.745 -0.7929 -0.5154  2.2564
  652MOL0     H89958   6.755   6.538   8.062 -1.1021  1.7351  0.2860
  652MOL0     H89959   6.886   6.602   8.239 -1.4097  1.1372  0.5125
  652MOL0     H89960   6.824   5.891   8.706  2.7168 -2.5074  1.3586
  652MOL0     H89961   6.653   5.795   8.859 -1.7511  0.3027  2.1185
  652MOL0     H89962   6.377   5.833   9.092  2.4617  0.5715  2.0392
  652MOL0     H89963   6.164   5.691   9.095 -1.0699 -1.2606  0.8021
  652MOL0     H89964   6.028   5.553   9.055  1.6758  0.9212  0.9991
  652MOL0     H89965   6.108   5.468   8.931  0.4082  0.8831  0.2097
  652MOL0     H89966   6.014   5.251   9.024  2.2002  0.7375 -0.9545
  652MOL0     H89967   5.910   5.365   8.950 -0.3494 -1.6717 -0.4985
  652MOL0     H89968   5.832   5.447   9.192  1.5315  0.8800 -2.5825
  652MOL0     H89969   5.782   5.300   9.126  1.2340 -2.8741  0.3463
  652MOL0     H89970   6.004   5.342   9.326 -0.8599 -0.5548 -1.4781
  652MOL0     H89971   5.982   5.192   9.236  2.2290  0.7022  1.3612
  652MOL0     H89972   5.663   5.167   9.516  2.7486 -4.5207  2.0251
  652MOL0     H89973   6.368   5.368   9.270  0.6498  0.9184  2.7621
  652MOL0     H89974   6.586   5.415   9.388 -0.8437 -0.9680 -0.3728
  652MOL0     H89975   6.686   5.447   9.248  0.7045  0.5039  0.3274
  652MOL0     H89976   6.671   5.565   9.378  0.1294  0.0857 -2.2972
  653MOL0     O89977   5.005  11.149   1.717 -0.0215 -0.7550 -0.4007
  653MOL0     C89978   5.101  11.079   1.729  0.8227  0.2183  0.6653
  653MOL0     O89979   5.103  10.954   1.793 -0.8769 -0.2174  0.3547
  653MOL0     C89980   5.000  10.917   1.869  0.9972  0.8521  0.4311
  653MOL0     C89981   4.865  10.927   1.837  0.4775 -0.3193  0.0290
  653MOL0     C89982   4.765  10.883   1.922  0.0306  0.6173 -0.7767
  653MOL0     C89983   4.796  10.825   2.044  0.4648  0.4466  0.2837
  653MOL0     O89984   4.700  10.794   2.132  0.5666 -0.3131 -0.2829
  653MOL0     C89985   4.742  10.713   2.245 -0.0833 -0.2926  0.7211
  653MOL0     C89986   4.620  10.674   2.319  0.4090  0.8034 -0.7955
  653MOL0     C89987   4.626  10.567   2.433  0.4867 -0.0761 -0.0529
  653MOL0     C89988   4.706  10.611   2.554  0.7671  0.1851 -0.1713
  653MOL0     C89989   4.658  10.749   2.610  0.0855  0.7803  0.4984
  653MOL0     C89990   4.504  10.768   2.630  0.2442  0.8776 -0.1041
  653MOL0     C89991   4.486  10.893   2.719 -0.2471  0.1424  0.8349
  653MOL0     C89992   4.431  11.002   2.637 -0.3836 -0.4836  0.4061
  653MOL0     N89993   4.378  11.097   2.729 -0.6588  0.5461 -0.6405
  653MOL0     C89994   4.263  11.070   2.792  0.5322  0.3687  0.0092
  653MOL0     C89995   4.235  11.177   2.866  0.3811  0.4027  0.2449
  653MOL0     C89996   4.112  11.193   2.958  0.0015  1.2815  0.0522
  653MOL0     C89997   4.149  11.175   3.107  0.3751  0.4865 -0.2265
  653MOL0     C89998   4.234  11.293   3.164  0.6853 -0.7311 -0.2024
  653MOL0     C89999   4.270  11.272   3.309 -0.3107  0.4542 -0.0170
  653MOL0     O90000   4.397  11.333   3.349 -0.0522  0.3116  0.4537
  653MOL0     C90001   4.467  11.293   3.467 -0.0301 -0.1704  0.0722
  653MOL0     C90002   4.599  11.338   3.483  0.0021 -0.6956 -0.0467
  653MOL0     C90003   4.673  11.306   3.596 -0.2183 -0.4687 -0.6498
  653MOL0     C90004   4.803  11.375   3.600  0.1548 -0.1339  0.6452
  653MOL0     C90005   4.611  11.232   3.703  0.3868  0.3127  0.3315
  653MOL0     C90006   4.682  11.205   3.824  0.0875  0.8882 -0.7538
  653MOL0     O90007   4.817  11.187   3.816 -0.0131  0.4126 -0.2981
  653MOL0     C90008   4.891  11.140   3.927  1.0610 -0.6875  0.7686
  653MOL0     C90009   4.989  11.225   3.980 -0.0699 -0.0770  0.5277
  653MOL0     C90010   5.052  11.189   4.095 -0.2154  0.1762 -0.2637
  653MOL0     C90011   5.023  11.074   4.163 -0.5122  0.2568  0.9903
  653MOL0     O90012   5.071  11.031   4.280 -0.5004  0.1242 -0.1765
  653MOL0     C90013   4.984  10.994   4.382 -0.2848  0.2686 -0.7336
  653MOL0     C90014   4.991  11.094   4.492 -0.9251 -0.6925 -0.0051
  653MOL0     C90015   4.901  11.073   4.623 -0.5098 -0.5366  0.5294
  653MOL0     C90016   4.755  11.020   4.599  0.3010  0.0857 -0.2218
  653MOL0     C90017   4.665  11.014   4.725  0.1881 -1.1585 -0.4778
  653MOL0     C90018   4.736  10.980   4.858  0.4008  0.2565 -0.3923
  653MOL0     C90019   4.638  10.967   4.975 -0.4294  0.5263  0.0941
  653MOL0     C90020   4.576  11.093   5.010 -0.4705  0.1556  0.0803
  653MOL0    Cl90021   4.484  11.076   5.162 -0.0597  0.7670  0.1286
  653MOL0     C90022   4.925  10.989   4.104  0.0020 -0.1866  0.4140
  653MOL0     C90023   4.861  11.025   3.992  0.7798  1.3175  0.2363
  653MOL0     O90024   4.623  11.186   3.929  0.0493 -0.6469 -0.1515
  653MOL0     C90025   4.475  11.191   3.686 -0.6528 -0.2306  1.1275
  653MOL0     C90026   4.413  11.215   3.568  0.5569 -0.6422 -0.3938
  653MOL0     N90027   4.335  11.269   2.854 -0.6986  0.1234 -0.5101
  653MOL0     N90028   4.413  11.225   2.762 -0.4333  0.7684 -0.1538
  653MOL0     C90029   4.935  10.804   2.068  0.3392  0.9073 -0.4060
  653MOL0     C90030   5.034  10.848   1.976  0.4474  0.3099 -0.7840
  653MOL0     C90031   5.231  11.115   1.666 -1.2443 -0.2654 -0.5131
  653MOL0     C90032   5.331  11.014   1.674 -0.2880  0.0815  0.1777
  653MOL0     C90033   5.459  11.047   1.637  0.9579  0.9922 -1.0519
  653MOL0     C90034   5.492  11.172   1.592 -0.1296 -0.1471  0.2517
  653MOL0     O90035   5.619  11.198   1.565  0.4447 -0.2701  0.2235
  653MOL0     C90036   5.667  11.331   1.512  0.0881  0.4452  0.2207
  653MOL0     C90037   5.818  11.325   1.473  0.1370  0.1555  0.0021
  653MOL0     C90038   5.878  11.421   1.368 -0.5880 -0.8175  0.4579
  653MOL0     C90039   5.817  11.424   1.229 -0.5977 -0.3755  0.5192
  653MOL0     C90040   5.730  11.541   1.219 -0.5353  0.5335 -0.1924
  653MOL0     C90041   5.664  11.638   1.178 -0.3867 -0.6848 -0.6013
  653MOL0     C90042   5.393  11.266   1.575  0.8152  0.4325 -0.5725
  653MOL0     C90043   5.257  11.239   1.609 -0.4588 -0.7496 -0.3927
  653MOL0     C90044   5.170  11.364   1.618  0.1473  0.6029 -0.6428
  653MOL0     H90045   4.841  10.971   1.741  0.5312  2.1833  1.0569
  653MOL0     H90046   4.658  10.889   1.904 -0.1041 -3.0753 -2.0716
  653MOL0     H90047   4.810  10.775   2.305  0.6705  1.4787 -1.7990
  653MOL0     H90048   4.807  10.627   2.224  0.6309  0.6906 -1.4259
  653MOL0     H90049   4.570  10.764   2.356 -0.3334 -0.0086  0.2224
  653MOL0     H90050   4.561  10.620   2.244  1.7543 -2.0650  0.0750
  653MOL0     H90051   4.523  10.551   2.466  1.3924 -1.3937  2.3667
  653MOL0     H90052   4.664  10.477   2.386 -1.7284 -0.9147 -0.3695
  653MOL0     H90053   4.684  10.546   2.639 -2.1250  1.0764 -0.1502
  653MOL0     H90054   4.815  10.612   2.539  0.7589 -0.2698 -0.2713
  653MOL0     H90055   4.685  10.835   2.548 -0.4138 -0.5085 -1.6266
  653MOL0     H90056   4.715  10.764   2.703 -4.1850  0.5593  3.4247
  653MOL0     H90057   4.450  10.771   2.536  0.6082  0.7232 -0.3205
  653MOL0     H90058   4.471  10.676   2.679 -3.5623  0.5052 -2.9559
  653MOL0     H90059   4.576  10.919   2.774  1.3772  0.0463 -1.6390
  653MOL0     H90060   4.409  10.867   2.792 -1.1215 -0.9279 -0.4092
  653MOL0     H90061   4.508  11.052   2.578  0.0638  0.6368  1.8789
  653MOL0     H90062   4.354  10.956   2.575  1.1701 -1.2808 -1.0002
  653MOL0     H90063   4.206  10.979   2.776 -1.7630  1.7933 -0.4372
  653MOL0     H90064   4.043  11.109   2.944 -0.4703  1.4940  1.0485
  653MOL0     H90065   4.073  11.292   2.932  2.2047  2.9679  2.6682
  653MOL0     H90066   4.054  11.160   3.161 -0.3470  1.0886 -1.3015
  653MOL0     H90067   4.217  11.092   3.127 -0.3194  0.1219  0.7352
  653MOL0     H90068   4.325  11.307   3.106  1.0269  0.4051  0.5749
  653MOL0     H90069   4.179  11.387   3.151  1.9322 -0.2409 -2.3209
  653MOL0     H90070   4.191  11.310   3.375 -1.8896 -0.0543 -1.5190
  653MOL0     H90071   4.283  11.165   3.327 -1.0847  0.3308 -0.1253
  653MOL0     H90072   4.651  11.392   3.405  3.1340 -3.4148 -0.0801
  653MOL0     H90073   4.826  11.431   3.508 -0.2874  2.0049  1.7751
  653MOL0     H90074   4.881  11.300   3.617  0.9308 -0.5291 -3.5115
  653MOL0     H90075   4.823  11.446   3.681  1.6670 -2.9532  2.9305
  653MOL0     H90076   5.028  11.317   3.938 -3.4430  3.9757  5.1254
  653MOL0     H90077   5.116  11.269   4.132  1.0051  0.5676 -3.0270
  653MOL0     H90078   4.880  10.990   4.347 -0.2912  2.1994 -1.0512
  653MOL0     H90079   5.030  10.901   4.418  0.2393  0.4736 -0.8761
  653MOL0     H90080   5.095  11.097   4.526 -1.2899 -2.3951  1.4288
  653MOL0     H90081   4.969  11.197   4.462  0.2534  0.8548  3.8195
  653MOL0     H90082   4.901  11.166   4.680 -1.8581 -1.6699  2.5360
  653MOL0     H90083   4.962  11.007   4.686  1.0570  1.3034  1.0377
  653MOL0     H90084   4.770  10.917   4.565  0.4194  0.4716 -1.3722
  653MOL0     H90085   4.709  11.088   4.527  0.1335  2.4071  1.9603
  653MOL0     H90086   4.620  11.113   4.731 -3.3110 -2.6642  1.7790
  653MOL0     H90087   4.579  10.951   4.700 -1.6132  1.2231 -0.6585
  653MOL0     H90088   4.826  11.039   4.877  0.8049  0.0347 -1.5586
  653MOL0     H90089   4.775  10.880   4.842 -0.0777 -0.0824  0.4719
  653MOL0     H90090   4.687  10.925   5.063  0.8470 -1.1571 -1.3279
  653MOL0     H90091   4.564  10.891   4.948 -0.6147 -0.0542  2.1046
  653MOL0     H90092   4.512  11.125   4.927  1.3913  2.5448 -0.5554
  653MOL0     H90093   4.651  11.172   5.021 -0.1175 -0.4192  2.2378
  653MOL0     H90094   4.916  10.889   4.145  0.3576 -0.4513 -0.1381
  653MOL0     H90095   4.791  10.968   3.930  3.4791 -0.6444 -1.2083
  653MOL0     H90096   4.416  11.145   3.765 -0.3888  1.3304  2.2647
  653MOL0     H90097   4.307  11.193   3.566  0.2045  0.7072  1.0182
  653MOL0     H90098   4.973  10.750   2.154 -3.4266  0.0560  0.8970
  653MOL0     H90099   5.140  10.839   1.998  0.3896  0.1557 -0.5625
  653MOL0     H90100   5.312  10.917   1.720 -1.4351 -0.0730 -0.5896
  653MOL0     H90101   5.545  10.982   1.654 -0.1629 -0.4800 -0.8085
  653MOL0     H90102   5.606  11.373   1.431 -2.4217 -0.6062  1.4357
  653MOL0     H90103   5.661  11.416   1.580  1.1723  2.2002 -1.7541
  653MOL0     H90104   5.838  11.220   1.448  0.9321  0.4663 -0.6955
  653MOL0     H90105   5.888  11.332   1.556  1.2905 -2.4917 -0.6525
  653MOL0     H90106   5.885  11.522   1.410 -0.1541 -0.3435 -0.7291
  653MOL0     H90107   5.980  11.386   1.349  1.3792  4.3152  0.0701
  653MOL0     H90108   5.763  11.331   1.215 -1.0548 -0.1439  0.7128
  653MOL0     H90109   5.897  11.441   1.157 -1.3423  0.2966 -0.1645
  653MOL0     H90110   5.610  11.726   1.148  1.4603  1.0076  0.7570
  653MOL0     H90111   5.412  11.365   1.537 -1.4329  1.6827  1.3121
  653MOL0     H90112   5.232  11.453   1.632  1.1200 -0.3213  1.2867
  653MOL0     H90113   5.097  11.353   1.537 -0.0811 -0.6182 -0.2792
  653MOL0     H90114   5.110  11.365   1.709  1.4044  0.3891  0.2220
  654MOL0     O90115   4.360   5.845   1.918 -0.8512 -0.4168 -0.5714
  654MOL0     C90116   4.284   5.775   1.852 -0.1146  0.7508 -1.1559
  654MOL0     O90117   4.300   5.755   1.729  0.1057  0.6737 -0.0638
  654MOL0     C90118   4.418   5.777   1.659  0.2076  0.2475 -0.0885
  654MOL0     C90119   4.426   5.814   1.525  0.1403  0.3710  0.8460
  654MOL0     C90120   4.549   5.822   1.459 -0.0702 -0.7498  0.7102
  654MOL0     C90121   4.663   5.778   1.517  0.3828 -0.2367 -0.1002
  654MOL0     O90122   4.779   5.773   1.444 -0.2468  0.3012 -0.0396
  654MOL0     C90123   4.847   5.647   1.411 -0.5547  0.5632 -0.0143
  654MOL0     C90124   4.997   5.673   1.435 -0.4416 -0.4012  0.4416
  654MOL0     C90125   5.072   5.568   1.520  0.1273  0.2571 -0.0810
  654MOL0     C90126   5.174   5.638   1.606  0.0645  0.5503  0.2885
  654MOL0     C90127   5.221   5.535   1.715  0.1545 -0.1039  0.1773
  654MOL0     C90128   5.367   5.568   1.773 -0.0717  0.2113 -0.3970
  654MOL0     C90129   5.420   5.463   1.872 -0.2625  0.5049 -0.2967
  654MOL0     C90130   5.338   5.438   2.006 -0.4491 -0.6226 -0.2959
  654MOL0     N90131   5.412   5.339   2.086  0.5203 -0.0758  0.1124
  654MOL0     C90132   5.424   5.197   2.063 -0.2670  0.0888  1.1728
  654MOL0     C90133   5.513   5.154   2.159  0.0285  0.5547 -0.1923
  654MOL0     C90134   5.567   5.015   2.176 -0.1669 -0.6014  0.7541
  654MOL0     C90135   5.651   4.983   2.049  0.5081  0.5570  0.2078
  654MOL0     C90136   5.690   4.827   2.038  0.5936 -0.0963  0.3674
  654MOL0     C90137   5.800   4.779   2.136 -0.9305 -0.0047 -0.4876
  654MOL0     O90138   5.848   4.652   2.093 -0.1680 -0.2611  0.1341
  654MOL0     C90139   5.758   4.550   2.119  0.0371 -1.2315  0.5447
  654MOL0     C90140   5.687   4.490   2.023 -0.0585 -0.0751  0.3794
  654MOL0     C90141   5.580   4.403   2.055  0.5056  0.1670 -0.7053
  654MOL0     C90142   5.507   4.344   1.930 -0.1454 -0.3959 -0.2082
  654MOL0     C90143   5.567   4.359   2.188  0.1927  0.5242 -0.0695
  654MOL0     C90144   5.483   4.247   2.217 -0.1150  0.9985 -0.0852
  654MOL0     O90145   5.358   4.243   2.153 -0.6498  0.0409 -0.7301
  654MOL0     C90146   5.266   4.156   2.207  0.8212 -0.0122 -0.5209
  654MOL0     C90147   5.295   4.020   2.222 -0.6571  0.0012 -0.4961
  654MOL0     C90148   5.192   3.939   2.278 -0.1894 -0.3382  0.1639
  654MOL0     C90149   5.063   3.988   2.296  0.6411  0.8828  0.5713
  654MOL0     O90150   4.968   3.901   2.319 -0.1952 -0.3694 -0.2396
  654MOL0     C90151   4.967   3.864   2.454 -0.0795 -0.5943 -0.2591
  654MOL0     C90152   4.823   3.809   2.483  0.1169 -0.5939 -0.8149
  654MOL0     C90153   4.820   3.666   2.529 -0.4936 -0.2777  0.4658
  654MOL0     C90154   4.681   3.622   2.591 -0.6768 -0.3391  0.8950
  654MOL0     C90155   4.594   3.551   2.481 -1.0117  0.3890 -0.3086
  654MOL0     C90156   4.491   3.464   2.552  0.5630 -0.1044 -0.5433
  654MOL0     C90157   4.415   3.394   2.439 -0.0511 -0.4630 -0.2167
  654MOL0     C90158   4.263   3.425   2.445  0.0194 -0.5318 -0.7251
  654MOL0    Cl90159   4.209   3.328   2.589 -0.8012 -0.3378 -0.0355
  654MOL0     C90160   5.035   4.122   2.289  0.6775 -0.2012  0.0486
  654MOL0     C90161   5.139   4.209   2.252 -0.3495 -0.0657 -0.2010
  654MOL0     O90162   5.527   4.165   2.307 -0.8689 -0.7102  0.3034
  654MOL0     C90163   5.651   4.408   2.287 -0.1247 -0.7312  0.2572
  654MOL0     C90164   5.741   4.502   2.254 -0.4460  0.2619  0.3774
  654MOL0     N90165   5.544   5.263   2.239  0.0396  0.4091  0.3802
  654MOL0     N90166   5.480   5.369   2.197 -0.4558  1.0366 -0.6039
  654MOL0     C90167   4.663   5.756   1.650  0.5999  1.0153  0.4946
  654MOL0     C90168   4.538   5.747   1.723  0.4054  0.0395  0.1049
  654MOL0     C90169   4.165   5.711   1.904  1.1977 -0.6541 -0.2073
  654MOL0     C90170   4.091   5.618   1.822 -0.6441  0.7637 -0.4988
  654MOL0     C90171   3.977   5.564   1.857 -0.3015 -0.9583  0.5484
  654MOL0     C90172   3.915   5.600   1.984  0.4406 -0.0559  0.6645
  654MOL0     O90173   3.798   5.546   2.034  0.1196  1.1461 -0.3561
  654MOL0     C90174   3.705   5.482   1.938 -0.1033 -0.4036  0.3312
  654MOL0     C90175   3.741   5.334   1.916  0.4133  0.0814 -0.1934
  654MOL0     C90176   3.754   5.252   2.041  0.7254 -0.5687 -0.6914
  654MOL0     C90177   3.739   5.106   2.018  0.0097 -0.0434 -0.5369
  654MOL0     C90178   3.764   5.034   2.148  0.0540  0.9611  0.3747
  654MOL0     C90179   3.803   4.967   2.247 -0.0680 -0.5931  0.8404
  654MOL0     C90180   3.987   5.678   2.068 -0.0397  0.3850  0.0718
  654MOL0     C90181   4.112   5.734   2.033 -0.2109  0.1753  0.5388
  654MOL0     C90182   4.182   5.787   2.142  0.6269  0.7725 -0.4795
  654MOL0     H90183   4.344   5.855   1.466  1.9839  1.4883 -1.0617
  654MOL0     H90184   4.557   5.858   1.357 -0.9023  1.3725  1.3557
  654MOL0     H90185   4.833   5.623   1.305 -0.7207 -0.4424  0.2295
  654MOL0     H90186   4.811   5.565   1.473  4.9906 -2.1443  0.2648
  654MOL0     H90187   5.052   5.688   1.341 -1.9418  1.1541 -0.2570
  654MOL0     H90188   5.017   5.771   1.480  0.8614 -1.4602  2.2897
  654MOL0     H90189   5.005   5.518   1.591  1.2767  0.7288  1.3940
  654MOL0     H90190   5.119   5.490   1.461 -2.3065  1.2051 -3.6287
  654MOL0     H90191   5.263   5.661   1.547  1.0401 -2.4221  0.4038
  654MOL0     H90192   5.135   5.725   1.659  2.4392  0.8123  1.7058
  654MOL0     H90193   5.227   5.437   1.668  1.0402  1.0970 -2.3800
  654MOL0     H90194   5.151   5.526   1.798 -0.8003  1.3209 -0.4210
  654MOL0     H90195   5.440   5.569   1.691  0.1925 -1.9658 -0.2548
  654MOL0     H90196   5.364   5.669   1.812 -0.5363 -0.5531  1.6545
  654MOL0     H90197   5.520   5.501   1.895  1.3572 -3.3239 -0.2294
  654MOL0     H90198   5.441   5.364   1.830 -2.8365  0.3695 -1.4497
  654MOL0     H90199   5.332   5.531   2.063 -0.6003 -1.2693  0.7691
  654MOL0     H90200   5.238   5.398   1.988  0.9188 -3.3924 -2.7500
  654MOL0     H90201   5.368   5.157   1.979 -4.4330  2.6614  2.4226
  654MOL0     H90202   5.481   4.948   2.169 -0.6822  0.2015 -1.5322
  654MOL0     H90203   5.623   4.998   2.269 -1.5802  0.7161  1.8951
  654MOL0     H90204   5.592   5.009   1.961  0.6860  0.0447 -0.0694
  654MOL0     H90205   5.746   5.037   2.061  0.1277  0.8411  2.5360
  654MOL0     H90206   5.601   4.766   2.052  0.7414 -0.6341 -0.9278
  654MOL0     H90207   5.728   4.814   1.937 -1.3561  0.6816 -0.5165
  654MOL0     H90208   5.883   4.846   2.111 -0.5066  0.1682  1.2529
  654MOL0     H90209   5.767   4.777   2.241  1.7252  0.0368  0.4203
  654MOL0     H90210   5.719   4.520   1.924  1.5955  1.7740  1.3826
  654MOL0     H90211   5.430   4.415   1.899  0.1883  0.6965  1.2994
  654MOL0     H90212   5.480   4.239   1.942 -0.4417 -0.1001  2.2967
  654MOL0     H90213   5.592   4.344   1.860  1.0615  2.9127  1.0150
  654MOL0     H90214   5.390   3.978   2.191  0.8058  2.7094  0.0123
  654MOL0     H90215   5.218   3.836   2.301 -0.4971 -1.3989 -3.6754
  654MOL0     H90216   5.043   3.795   2.492  1.4768  0.8011 -0.7120
  654MOL0     H90217   4.972   3.961   2.505  1.1653  0.3951 -2.1264
  654MOL0     H90218   4.791   3.872   2.567  0.8519 -0.7545 -0.4051
  654MOL0     H90219   4.756   3.828   2.399 -3.4865 -1.1406  1.6933
  654MOL0     H90220   4.894   3.657   2.609 -0.0798 -0.3439  0.0705
  654MOL0     H90221   4.834   3.594   2.448 -2.7148 -1.8063  1.3168
  654MOL0     H90222   4.622   3.705   2.632  0.3328  1.5156 -1.1587
  654MOL0     H90223   4.706   3.557   2.675 -0.4708 -1.8786 -0.3138
  654MOL0     H90224   4.551   3.623   2.410 -2.7857 -0.5372 -0.2245
  654MOL0     H90225   4.660   3.490   2.418 -1.2134  1.0472 -1.1742
  654MOL0     H90226   4.425   3.524   2.614 -0.9135 -1.7590 -0.4350
  654MOL0     H90227   4.544   3.387   2.609 -0.7257 -0.4028  0.2837
  654MOL0     H90228   4.433   3.288   2.458  1.7682 -0.1041  0.2370
  654MOL0     H90229   4.456   3.420   2.341 -0.9726 -0.5216 -0.6236
  654MOL0     H90230   4.198   3.391   2.364 -3.7417 -1.9810  2.5285
  654MOL0     H90231   4.246   3.533   2.451  1.8417 -0.1541 -1.6387
  654MOL0     H90232   4.938   4.171   2.295  1.6825  2.0289 -0.6040
  654MOL0     H90233   5.115   4.315   2.241 -2.8015 -0.3474  1.5917
  654MOL0     H90234   5.637   4.364   2.385 -1.5227 -3.2212 -0.9483
  654MOL0     H90235   5.805   4.538   2.334  1.7461 -2.3259 -0.0698
  654MOL0     H90236   4.761   5.736   1.694  0.4710 -2.3230 -0.5031
  654MOL0     H90237   4.553   5.707   1.822  3.3317  0.0171 -0.2656
  654MOL0     H90238   4.133   5.585   1.728  1.0877 -0.6761  0.7099
  654MOL0     H90239   3.938   5.508   1.772  0.1557  0.2284 -0.4639
  654MOL0     H90240   3.599   5.497   1.962 -0.9724 -4.0516 -0.5170
  654MOL0     H90241   3.703   5.532   1.840 -0.7428 -1.9247 -0.4628
  654MOL0     H90242   3.829   5.329   1.852  0.6398 -1.2563  0.1866
  654MOL0     H90243   3.666   5.287   1.851 -0.2404  1.1079 -0.2086
  654MOL0     H90244   3.854   5.270   2.083  0.2088 -2.9755  1.8391
  654MOL0     H90245   3.671   5.280   2.107  2.0617  4.1150 -0.5657
  654MOL0     H90246   3.812   5.075   1.943  1.5452 -0.6752  1.1770
  654MOL0     H90247   3.634   5.087   1.993 -0.4450  2.1825 -0.5883
  654MOL0     H90248   3.838   4.912   2.333  1.1219  2.9142  2.7837
  654MOL0     H90249   3.952   5.675   2.171 -0.4274 -1.4458 -0.0816
  654MOL0     H90250   4.284   5.750   2.158  0.3186  0.2426  0.3059
  654MOL0     H90251   4.203   5.894   2.131  2.9250  0.4740  0.3953
  654MOL0     H90252   4.116   5.784   2.229 -1.6242  0.9737 -2.1022
  655MOL0     O90253   9.070   1.478   3.276  0.2820 -0.4359  0.3770
  655MOL0     C90254   9.112   1.587   3.236 -0.7397 -0.5166  0.2811
  655MOL0     O90255   9.028   1.674   3.176 -0.1486  0.0987  0.3814
  655MOL0     C90256   8.906   1.631   3.115  0.0872  0.1080  0.2577
  655MOL0     C90257   8.851   1.726   3.036  0.6183 -0.1200  0.5300
  655MOL0     C90258   8.727   1.703   2.969  0.4329  0.3894  0.7903
  655MOL0     C90259   8.654   1.584   2.983 -0.2807 -0.2757  0.5440
  655MOL0     O90260   8.533   1.573   2.921 -0.8425 -0.5342  0.8233
  655MOL0     C90261   8.523   1.601   2.786  0.1308  0.0163 -0.2943
  655MOL0     C90262   8.395   1.548   2.723  0.4422  0.0238  0.0895
  655MOL0     C90263   8.384   1.562   2.573  0.1782 -0.2097  0.8523
  655MOL0     C90264   8.503   1.537   2.488  0.3177  0.4066  0.9560
  655MOL0     C90265   8.489   1.590   2.343 -0.4789 -0.4236  0.4758
  655MOL0     C90266   8.381   1.509   2.276 -0.9581 -0.3607  0.2020
  655MOL0     C90267   8.407   1.506   2.118  0.4025  0.3106 -0.2660
  655MOL0     C90268   8.300   1.427   2.044  1.2703 -0.0931 -0.4502
  655MOL0     N90269   8.335   1.418   1.900 -0.3496 -0.2074 -0.4525
  655MOL0     C90270   8.369   1.526   1.828  0.3593 -0.0868  0.9579
  655MOL0     C90271   8.403   1.478   1.705  0.4075  0.6059 -0.3040
  655MOL0     C90272   8.439   1.567   1.587 -0.2734 -0.2570 -0.1326
  655MOL0     C90273   8.600   1.588   1.584  0.8213  0.3177 -0.1825
  655MOL0     C90274   8.660   1.667   1.706  0.2079  0.4663  0.3728
  655MOL0     C90275   8.616   1.816   1.702  0.1654 -0.5878  0.3560
  655MOL0     O90276   8.722   1.898   1.735  0.2738  0.3772  0.2918
  655MOL0     C90277   8.756   1.908   1.876 -0.1728  0.6046  1.1553
  655MOL0     C90278   8.838   2.017   1.909 -0.0118  0.8956 -0.5802
  655MOL0     C90279   8.873   2.053   2.040 -0.2583 -0.2234 -0.5954
  655MOL0     C90280   8.964   2.169   2.065 -0.0399  0.1637  0.7437
  655MOL0     C90281   8.824   1.962   2.143  0.7013 -0.2982 -0.7797
  655MOL0     C90282   8.880   1.969   2.289 -1.2153  0.7661  0.5406
  655MOL0     O90283   8.824   1.892   2.397  0.0333  0.0779  0.5751
  655MOL0     C90284   8.882   1.937   2.516  0.6118 -0.2630 -0.3052
  655MOL0     C90285   8.846   2.055   2.577  0.2089 -0.2902 -0.0389
  655MOL0     C90286   8.893   2.093   2.694 -0.5490 -0.2160 -0.9311
  655MOL0     C90287   8.991   2.024   2.761  0.3657 -0.7347  0.7587
  655MOL0     O90288   9.042   2.084   2.877 -0.7699  0.5502  0.1807
  655MOL0     C90289   9.126   2.014   2.971  0.5848  0.2261  0.7679
  655MOL0     C90290   9.142   2.105   3.097 -0.3447  0.3248 -0.4765
  655MOL0     C90291   9.250   2.050   3.196  0.6697 -0.5032 -0.0314
  655MOL0     C90292   9.308   2.162   3.287  0.8523 -0.7031 -0.3395
  655MOL0     C90293   9.405   2.110   3.391  0.1389 -0.6758 -0.2163
  655MOL0     C90294   9.348   2.006   3.486  0.0642  0.3735  0.1004
  655MOL0     C90295   9.428   1.985   3.607 -0.1548  0.1844 -0.5176
  655MOL0     C90296   9.359   1.884   3.700 -0.7931  0.6900 -0.6881
  655MOL0    Cl90297   9.467   1.873   3.851 -0.4456 -0.5342  0.1469
  655MOL0     C90298   9.023   1.900   2.708  0.1414  0.3453 -0.2072
  655MOL0     C90299   8.967   1.851   2.585  1.3512  0.0311 -0.7254
  655MOL0     O90300   8.974   2.049   2.301 -0.4654  0.3454  0.0731
  655MOL0     C90301   8.746   1.853   2.107  0.2995 -1.0375 -0.5264
  655MOL0     C90302   8.702   1.834   1.984 -0.3813 -0.7449 -0.1951
  655MOL0     N90303   8.389   1.344   1.696 -0.6917 -0.0469 -0.3621
  655MOL0     N90304   8.363   1.306   1.822  0.4115  0.3977  0.0490
  655MOL0     C90305   8.696   1.499   3.082 -0.3069 -0.0784 -0.7375
  655MOL0     C90306   8.819   1.522   3.154 -0.7739  0.2905  0.0780
  655MOL0     C90307   9.255   1.625   3.244  0.3252 -0.6981  0.3579
  655MOL0     C90308   9.314   1.711   3.146  0.0016  0.3833  1.4610
  655MOL0     C90309   9.453   1.738   3.145  0.2214 -0.5175 -0.5148
  655MOL0     C90310   9.539   1.683   3.233  0.1023  0.2781 -1.0277
  655MOL0     O90311   9.670   1.706   3.243  0.6832  0.1573 -0.0117
  655MOL0     C90312   9.714   1.798   3.341 -0.0888 -0.4368  0.6857
  655MOL0     C90313   9.862   1.838   3.299  0.1453 -0.9223  0.3948
  655MOL0     C90314   9.884   1.851   3.148 -0.7930 -0.3876  0.3302
  655MOL0     C90315  10.003   1.938   3.124 -0.2942  0.0490 -0.4856
  655MOL0     C90316  10.043   1.945   2.989 -0.7841 -0.6781 -0.0162
  655MOL0     C90317  10.080   1.939   2.868  0.3721  0.7663 -0.6733
  655MOL0     C90318   9.475   1.594   3.331  0.0132 -0.9246  0.0683
  655MOL0     C90319   9.336   1.571   3.349  0.0075 -0.2273 -0.6666
  655MOL0     C90320   9.291   1.497   3.469  0.6987 -0.3546 -0.5127
  655MOL0     H90321   8.892   1.826   3.028 -2.1882  1.2128  1.5235
  655MOL0     H90322   8.701   1.778   2.896  1.9000 -0.6718 -0.9120
  655MOL0     H90323   8.610   1.565   2.729 -1.7886 -1.1659 -2.6933
  655MOL0     H90324   8.527   1.707   2.758 -1.6964  0.8029  2.1271
  655MOL0     H90325   8.377   1.442   2.739 -0.2641  0.2222  0.6915
  655MOL0     H90326   8.310   1.606   2.759  0.0794 -0.1400 -0.5035
  655MOL0     H90327   8.300   1.496   2.548 -1.0720  2.0720 -1.4348
  655MOL0     H90328   8.345   1.661   2.547 -0.9216 -0.6245  0.8699
  655MOL0     H90329   8.586   1.595   2.531 -1.5445  2.6791  1.6954
  655MOL0     H90330   8.525   1.430   2.496 -1.5666  0.0593  2.0574
  655MOL0     H90331   8.586   1.583   2.293  0.2959 -0.3429  1.9329
  655MOL0     H90332   8.458   1.692   2.365 -1.3024 -1.2476  3.7472
  655MOL0     H90333   8.385   1.405   2.308  0.3592 -0.4057 -0.0483
  655MOL0     H90334   8.283   1.550   2.300 -1.2169 -0.2101 -1.0339
  655MOL0     H90335   8.494   1.441   2.100  0.1724 -1.0376  2.7542
  655MOL0     H90336   8.411   1.605   2.074 -0.0238  0.9658  1.1168
  655MOL0     H90337   8.290   1.325   2.082 -1.8596 -0.6164 -2.3461
  655MOL0     H90338   8.196   1.461   2.046  0.7223 -1.6641 -0.5685
  655MOL0     H90339   8.359   1.631   1.851  0.5281  0.0426  0.4679
  655MOL0     H90340   8.381   1.660   1.586  4.0012  2.7708 -2.4296
  655MOL0     H90341   8.405   1.518   1.496  1.5274  1.5433 -1.8990
  655MOL0     H90342   8.637   1.485   1.574 -1.9876 -0.5727 -3.1611
  655MOL0     H90343   8.634   1.639   1.493 -0.1368  1.2613 -0.0273
  655MOL0     H90344   8.641   1.606   1.795  1.4575 -1.2529 -0.4836
  655MOL0     H90345   8.769   1.662   1.711  0.4411 -4.9227 -2.4648
  655MOL0     H90346   8.579   1.863   1.610  2.1946  0.9282  0.2437
  655MOL0     H90347   8.531   1.819   1.770 -0.8079  0.1787 -0.8563
  655MOL0     H90348   8.874   2.079   1.828 -2.0445 -0.2841 -2.5029
  655MOL0     H90349   8.952   2.243   1.985 -1.9532  0.1211  0.9498
  655MOL0     H90350   9.070   2.142   2.056 -0.1187 -0.3856  1.3334
  655MOL0     H90351   8.942   2.216   2.162  0.0157 -1.9299  1.8272
  655MOL0     H90352   8.787   2.126   2.520  1.4921 -0.0989 -1.1880
  655MOL0     H90353   8.850   2.175   2.752 -1.9814 -2.5038  1.4447
  655MOL0     H90354   9.088   1.915   2.996  0.4485  0.0188 -0.2248
  655MOL0     H90355   9.224   1.998   2.923 -0.1575 -0.4635 -0.5727
  655MOL0     H90356   9.173   2.204   3.061  1.9965 -0.8009 -1.7904
  655MOL0     H90357   9.045   2.116   3.146  0.4767  2.2087  0.8911
  655MOL0     H90358   9.323   2.008   3.126 -0.4798  2.0532 -3.0554
  655MOL0     H90359   9.201   1.971   3.253 -2.9429  3.1522  2.5162
  655MOL0     H90360   9.226   2.207   3.344  1.9015 -1.3280  1.7307
  655MOL0     H90361   9.344   2.249   3.230  1.5997 -1.5733 -1.2325
  655MOL0     H90362   9.496   2.082   3.336  1.1831  0.8307  0.6842
  655MOL0     H90363   9.441   2.199   3.442 -0.2216  1.7175 -3.7956
  655MOL0     H90364   9.344   1.913   3.428  0.3715  0.4040  0.0317
  655MOL0     H90365   9.245   2.035   3.509  0.4802  2.1472 -0.1269
  655MOL0     H90366   9.443   2.076   3.664  3.4796 -0.8209  0.4140
  655MOL0     H90367   9.529   1.952   3.580 -0.2475  0.9543 -1.8790
  655MOL0     H90368   9.354   1.787   3.649 -5.9908  0.6420 -0.6704
  655MOL0     H90369   9.253   1.901   3.724 -0.8791 -1.1929  0.4800
  655MOL0     H90370   9.112   1.855   2.750  0.7281  0.0748 -1.6639
  655MOL0     H90371   9.004   1.758   2.543 -0.7579 -1.3299  0.1994
  655MOL0     H90372   8.725   1.777   2.182 -0.8481  0.1463  0.4040
  655MOL0     H90373   8.634   1.749   1.975 -0.0276 -1.1721  0.9756
  655MOL0     H90374   8.634   1.412   3.105 -1.8017  1.7207  2.9318
  655MOL0     H90375   8.846   1.440   3.220 -0.5597 -1.1058 -1.6651
  655MOL0     H90376   9.246   1.766   3.083  0.4467  4.5270  4.2167
  655MOL0     H90377   9.502   1.799   3.069 -1.3137 -0.9013 -1.8583
  655MOL0     H90378   9.658   1.892   3.344 -2.9948 -2.0267  0.0496
  655MOL0     H90379   9.705   1.754   3.440 -2.9135 -1.7617 -0.0674
  655MOL0     H90380   9.929   1.760   3.337  0.8326 -0.9285 -0.7799
  655MOL0     H90381   9.892   1.929   3.353  0.1343  0.0007 -1.1089
  655MOL0     H90382   9.918   1.761   3.096  0.5021 -1.4851  2.9283
  655MOL0     H90383   9.794   1.898   3.108 -0.4929 -0.1321 -0.0563
  655MOL0     H90384  10.087   1.897   3.181 -0.0462  1.9383  0.5915
  655MOL0     H90385   9.979   2.037   3.164 -1.8344 -0.5566  0.1581
  655MOL0     H90386  10.100   1.938   2.763  1.9777 -2.3282 -0.4382
  655MOL0     H90387   9.527   1.541   3.411 -1.4491  1.6645  2.9717
  655MOL0     H90388   9.202   1.545   3.511  0.7055 -0.6921 -0.1117
  655MOL0     H90389   9.255   1.399   3.437 -4.3744 -0.3016  3.5740
  655MOL0     H90390   9.369   1.497   3.545  0.2691  2.4422  0.0536
  656MOL0     O90391   3.964  11.429   3.343 -0.4140 -0.3511 -0.6263
  656MOL0     C90392   3.883  11.518   3.348  0.7684 -0.1209 -0.2857
  656MOL0     O90393   3.796  11.546   3.253  0.5821  0.1303 -1.1195
  656MOL0     C90394   3.777  11.454   3.151 -0.9389  0.0577  0.7179
  656MOL0     C90395   3.776  11.509   3.019  0.2281 -0.2774  1.0486
  656MOL0     C90396   3.784  11.417   2.905 -0.4774 -0.2728  0.4528
  656MOL0     C90397   3.796  11.277   2.929  0.2286 -0.3299 -0.1091
  656MOL0     O90398   3.819  11.182   2.837  0.1001  0.3263 -0.3616
  656MOL0     C90399   3.848  11.227   2.702  0.3039  0.4722  0.8747
  656MOL0     C90400   3.920  11.112   2.625 -0.9093  0.4818 -1.2620
  656MOL0     C90401   3.963  11.141   2.481  0.5021 -0.8296  0.1241
  656MOL0     C90402   4.098  11.070   2.432 -0.2923 -0.0636 -0.7723
  656MOL0     C90403   4.152  11.131   2.298  0.6483  0.3975 -0.5855
  656MOL0     C90404   4.270  11.054   2.239  0.0911 -0.0402 -0.1957
  656MOL0     C90405   4.318  11.130   2.110  0.3961  0.2509  0.1336
  656MOL0     C90406   4.434  11.054   2.052  0.1884 -0.4228  0.2415
  656MOL0     N90407   4.476  11.137   1.937 -0.0039  0.8057  0.5778
  656MOL0     C90408   4.500  11.274   1.930  0.0157 -0.1097 -0.4798
  656MOL0     C90409   4.524  11.308   1.797 -0.6879 -0.1843 -0.5426
  656MOL0     C90410   4.549  11.448   1.743 -0.4927  0.1489 -0.7986
  656MOL0     C90411   4.682  11.487   1.686 -0.1270  0.6261 -0.2539
  656MOL0     C90412   4.700  11.410   1.560  0.1705  0.6290 -0.1507
  656MOL0     C90413   4.842  11.437   1.510  0.6197  0.2761  0.4217
  656MOL0     O90414   4.862  11.579   1.474  0.2457  1.2440 -0.2454
  656MOL0     C90415   4.962  11.588   1.380  0.2092  0.0826  0.9631
  656MOL0     C90416   5.088  11.626   1.409 -0.3611 -0.5100  0.6287
  656MOL0     C90417   5.193  11.624   1.319  0.8159  0.0344 -0.0420
  656MOL0     C90418   5.328  11.643   1.378  1.3348  0.2922  0.4285
  656MOL0     C90419   5.164  11.602   1.179  0.4989 -0.5407  1.0856
  656MOL0     C90420   5.260  11.619   1.073 -0.3736 -0.2693 -0.2246
  656MOL0     O90421   5.271  11.519   0.986  0.4194  0.4199  0.4617
  656MOL0     C90422   5.363  11.530   0.895 -0.5281 -0.5914  0.4962
  656MOL0     C90423   5.337  11.549   0.755 -0.3511 -0.6299 -0.2165
  656MOL0     C90424   5.448  11.524   0.664  0.0153 -0.3323 -0.2794
  656MOL0     C90425   5.579  11.506   0.714 -0.2399  0.2542 -0.1389
  656MOL0     O90426   5.689  11.505   0.619  0.0884 -1.2215 -0.5228
  656MOL0     C90427   5.777  11.399   0.626  0.4980  0.8527 -0.0741
  656MOL0     C90428   5.832  11.379   0.481 -0.4316 -0.7631  0.3303
  656MOL0     C90429   5.909  11.502   0.426 -0.0817 -0.1693  0.0225
  656MOL0     C90430   5.972  11.477   0.286  0.2269 -0.2003 -0.6656
  656MOL0     C90431   6.051  11.601   0.243 -0.7946 -0.6201 -0.0976
  656MOL0     C90432   6.089  11.597   0.092  0.4953 -0.4727  0.5997
  656MOL0     C90433   6.180  11.717   0.047  0.1723 -0.0145 -0.0502
  656MOL0     C90434   6.295  11.680  -0.060 -0.1068  0.8458 -0.2114
  656MOL0    Cl90435   6.216  11.604  -0.200  0.4339  0.1764 -0.3996
  656MOL0     C90436   5.594  11.476   0.842  0.3503 -0.5082 -0.3751
  656MOL0     C90437   5.496  11.488   0.932  1.1079  0.2319 -0.4364
  656MOL0     O90438   5.336  11.714   1.087 -0.5363 -0.3062 -0.2973
  656MOL0     C90439   5.019  11.580   1.146 -0.8153  0.9258  0.4741
  656MOL0     C90440   4.930  11.565   1.250 -0.1471 -1.0013  0.4495
  656MOL0     N90441   4.522  11.185   1.727  0.0533 -0.5293 -0.1636
  656MOL0     N90442   4.488  11.093   1.807 -0.4690 -0.1499 -0.3858
  656MOL0     C90443   3.796  11.227   3.059  0.6099  0.1010  0.2327
  656MOL0     C90444   3.777  11.311   3.166 -1.0386  0.6705 -0.3699
  656MOL0     C90445   3.882  11.617   3.459 -0.4232 -0.4947  0.0689
  656MOL0     C90446   3.766  11.694   3.484 -0.5838  0.4531 -0.4182
  656MOL0     C90447   3.756  11.795   3.581 -0.2547 -0.4445 -0.2994
  656MOL0     C90448   3.867  11.827   3.654 -0.9948 -0.1460  0.2368
  656MOL0     O90449   3.878  11.920   3.754  0.6501 -0.4511 -0.2012
  656MOL0     C90450   3.756  11.972   3.815 -0.0908  0.3254  0.3724
  656MOL0     C90451   3.686  11.866   3.908 -0.0783 -0.3392  0.0738
  656MOL0     C90452   3.755  11.822   4.038 -0.1871  0.4282 -0.0342
  656MOL0     C90453   3.872  11.730   4.008  0.2957  0.1729 -0.0838
  656MOL0     C90454   3.910  11.620   4.102  0.8140 -0.9005 -0.0815
  656MOL0     C90455   3.923  11.541   4.192  0.2363  0.2539 -0.6674
  656MOL0     C90456   3.987  11.755   3.640  0.3238 -0.1166  0.3722
  656MOL0     C90457   3.999  11.656   3.541  0.5749 -0.5151  0.3410
  656MOL0     C90458   4.135  11.604   3.509 -0.4970 -0.4060  0.2259
  656MOL0     H90459   3.787  11.617   3.012 -1.1927 -0.0535  1.8995
  656MOL0     H90460   3.795  11.457   2.805  2.2112 -0.6337  0.5359
  656MOL0     H90461   3.920  11.309   2.702  0.9573 -0.0556  2.7142
  656MOL0     H90462   3.754  11.257   2.655  0.1576 -0.0927  0.7954
  656MOL0     H90463   4.011  11.095   2.683 -1.0244  0.3569 -1.1184
  656MOL0     H90464   3.853  11.026   2.624  0.7970 -0.8944 -1.3385
  656MOL0     H90465   3.884  11.119   2.409 -0.0719 -0.7099  0.7146
  656MOL0     H90466   3.972  11.250   2.485 -1.0991 -0.7153  2.0982
  656MOL0     H90467   4.170  11.090   2.512 -1.1477  0.1489 -0.0368
  656MOL0     H90468   4.079  10.963   2.427  1.4372 -0.4436  0.0977
  656MOL0     H90469   4.182  11.235   2.318 -1.5300  0.6454  1.9710
  656MOL0     H90470   4.062  11.132   2.236  0.6569 -3.1855 -0.8587
  656MOL0     H90471   4.351  11.071   2.311  3.7928  1.8482 -4.3003
  656MOL0     H90472   4.251  10.948   2.218  3.1682 -1.2448  2.2560
  656MOL0     H90473   4.356  11.226   2.146 -2.0379  1.3768 -0.1330
  656MOL0     H90474   4.238  11.142   2.036  2.0869  0.7952 -1.6863
  656MOL0     H90475   4.518  11.054   2.121  1.8597  0.8986 -1.6772
  656MOL0     H90476   4.403  10.949   2.045 -1.4522 -0.2142  2.8354
  656MOL0     H90477   4.504  11.350   2.007 -1.0522  0.2646 -0.7680
  656MOL0     H90478   4.523  11.507   1.831  0.5378  0.6648 -0.8210
  656MOL0     H90479   4.474  11.464   1.665  0.2605 -1.7895 -1.9920
  656MOL0     H90480   4.692  11.593   1.660  1.9133  0.8012  1.0134
  656MOL0     H90481   4.752  11.458   1.765 -1.3333  2.8084  1.7356
  656MOL0     H90482   4.692  11.302   1.576 -2.5570  0.9957  1.7001
  656MOL0     H90483   4.625  11.445   1.488 -1.0346  0.6382  1.0686
  656MOL0     H90484   4.910  11.387   1.579  1.1939  0.2916 -0.1134
  656MOL0     H90485   4.849  11.387   1.412 -1.6768 -0.5071  0.6055
  656MOL0     H90486   5.104  11.640   1.515  0.6511  0.0874  0.4148
  656MOL0     H90487   5.356  11.746   1.399  1.7048  0.2409  0.1930
  656MOL0     H90488   5.381  11.601   1.292  0.9980  1.4578 -0.3699
  656MOL0     H90489   5.325  11.583   1.470 -0.5377  1.0542  0.9132
  656MOL0     H90490   5.232  11.565   0.730 -0.9294 -2.3403  0.9087
  656MOL0     H90491   5.424  11.517   0.559 -0.5477  1.5152 -0.3191
  656MOL0     H90492   5.860  11.407   0.697 -0.9635  1.1024  1.6885
  656MOL0     H90493   5.726  11.305   0.648 -1.2469  2.2642  2.5552
  656MOL0     H90494   5.904  11.297   0.485 -1.0229 -1.6787 -3.7886
  656MOL0     H90495   5.745  11.353   0.419 -1.5083 -0.7055  1.7569
  656MOL0     H90496   5.990  11.520   0.497 -1.5377 -1.2737  2.0678
  656MOL0     H90497   5.844  11.590   0.422 -2.1270 -1.4255  2.5122
  656MOL0     H90498   5.895  11.455   0.211 -2.1075  1.0139  1.2519
  656MOL0     H90499   6.049  11.400   0.291  0.2405 -0.2904 -1.9643
  656MOL0     H90500   5.983  11.684   0.263 -0.9742 -1.2582  2.3745
  656MOL0     H90501   6.134  11.613   0.314  0.4223  0.0772 -1.5694
  656MOL0     H90502   5.999  11.601   0.029 -0.2946 -0.5085  1.6962
  656MOL0     H90503   6.147  11.509   0.063  1.2075  1.7197 -6.4070
  656MOL0     H90504   6.229  11.771   0.129  0.7738  0.2982 -0.6047
  656MOL0     H90505   6.115  11.791  -0.000  2.4157  0.8562 -1.9613
  656MOL0     H90506   6.376  11.615  -0.027  0.3518  0.2316 -2.4134
  656MOL0     H90507   6.339  11.777  -0.085 -0.6303  1.4805  1.2165
  656MOL0     H90508   5.696  11.454   0.872  1.3770  2.5468 -1.3510
  656MOL0     H90509   5.514  11.477   1.039  0.2638  1.3365 -0.1585
  656MOL0     H90510   4.988  11.565   1.043 -2.4885  0.7911  0.9811
  656MOL0     H90511   4.841  11.509   1.221 -0.6022 -0.9186  1.6443
  656MOL0     H90512   3.792  11.121   3.083  0.2305  0.1880  0.5612
  656MOL0     H90513   3.787  11.283   3.270 -2.7269  1.9178  0.1696
  656MOL0     H90514   3.682  11.674   3.419  0.2414 -0.7924 -1.1298
  656MOL0     H90515   3.668  11.856   3.597  0.1806 -0.2452  1.4699
  656MOL0     H90516   3.783  12.064   3.867  1.7819 -0.5841  1.0920
  656MOL0     H90517   3.681  12.014   3.748 -0.5127  1.4446  1.5112
  656MOL0     H90518   3.635  11.787   3.852  2.3609 -0.5532 -1.9897
  656MOL0     H90519   3.608  11.935   3.942 -2.0514 -0.8548 -3.0853
  656MOL0     H90520   3.792  11.905   4.098 -1.5044  0.6172  0.5468
  656MOL0     H90521   3.700  11.765   4.114  1.0677 -0.9600 -0.1259
  656MOL0     H90522   3.963  11.790   4.000  1.7903 -1.8242  1.0266
  656MOL0     H90523   3.853  11.685   3.910 -0.9387 -3.6166  1.7050
  656MOL0     H90524   3.953  11.464   4.261  1.6298  0.0683 -1.4358
  656MOL0     H90525   4.072  11.791   3.697 -0.4656  2.7642 -0.1043
  656MOL0     H90526   4.203  11.653   3.579  1.0602 -0.2814 -1.2829
  656MOL0     H90527   4.144  11.495   3.514 -2.8883 -0.5955  1.8754
  656MOL0     H90528   4.165  11.642   3.410  2.7070 -2.3831  0.2760
  657MOL0     O90529   0.931  10.853   2.142 -0.2448  0.5453 -0.5737
  657MOL0     C90530   0.949  10.977   2.151  0.3776 -1.0293 -0.4569
  657MOL0     O90531   0.853  11.074   2.140  0.0528 -0.4763 -0.4483
  657MOL0     C90532   0.736  11.035   2.083 -0.8299  0.2166  0.0156
  657MOL0     C90533   0.617  11.010   2.150 -0.8192  0.3497 -0.3925
  657MOL0     C90534   0.501  10.973   2.083 -0.0176 -0.2624  0.3970
  657MOL0     C90535   0.502  10.960   1.948  0.2339  0.3201  0.5450
  657MOL0     O90536   0.386  10.927   1.871  0.0730  0.6875  0.3011
  657MOL0     C90537   0.283  10.849   1.941  0.3612 -0.9569  0.8092
  657MOL0     C90538   0.193  10.790   1.834  0.7049 -0.3946  0.3515
  657MOL0     C90539   0.052  10.758   1.886 -0.0318 -0.6390 -0.5658
  657MOL0     C90540   0.041  10.646   1.985 -0.0508 -0.8247  0.9069
  657MOL0     C90541   0.064  10.513   1.917 -0.1139 -0.4123 -0.2969
  657MOL0     C90542  -0.026  10.409   1.985  0.4684  0.7002  0.4738
  657MOL0     C90543  -0.022  10.269   1.920  0.2305 -1.0429  0.7907
  657MOL0     C90544   0.126  10.219   1.895  0.8094  0.8190  0.3043
  657MOL0     N90545   0.194  10.264   1.777 -0.0500 -0.0848 -0.0506
  657MOL0     C90546   0.330  10.286   1.771  0.2705 -0.6698 -0.2274
  657MOL0     C90547   0.360  10.332   1.649  0.8881 -0.2370 -0.6085
  657MOL0     C90548   0.495  10.395   1.608  0.6367  0.6803 -0.2739
  657MOL0     C90549   0.507  10.398   1.455 -0.9872 -0.0055 -0.4286
  657MOL0     C90550   0.630  10.462   1.413 -0.4842 -0.3144  0.5795
  657MOL0     C90551   0.647  10.465   1.254  0.2022  0.9756 -1.5090
  657MOL0     O90552   0.740  10.562   1.200  0.2439 -0.3376 -0.4017
  657MOL0     C90553   0.866  10.526   1.178 -0.1069  0.0405  0.2032
  657MOL0     C90554   0.936  10.622   1.111 -0.8666 -0.2512 -0.5653
  657MOL0     C90555   1.072  10.594   1.071  0.1973 -0.8010 -0.4119
  657MOL0     C90556   1.134  10.713   0.994 -0.1266  0.2201  0.1848
  657MOL0     C90557   1.129  10.471   1.108 -0.1987  0.0613  0.0358
  657MOL0     C90558   1.265  10.441   1.074  0.7241 -0.3901 -0.7337
  657MOL0     O90559   1.330  10.353   1.153  0.1294  0.1580  0.3760
  657MOL0     C90560   1.422  10.274   1.089  0.1653  0.6273 -0.3122
  657MOL0     C90561   1.563  10.290   1.098  0.9076  0.3627 -0.5192
  657MOL0     C90562   1.653  10.203   1.040 -0.0075  1.0868 -0.0211
  657MOL0     C90563   1.613  10.093   0.971  0.3549  0.3733  0.3157
  657MOL0     O90564   1.702  10.008   0.924  0.4181 -0.2142  0.0439
  657MOL0     C90565   1.661   9.916   0.816 -0.0093 -0.1949 -1.0221
  657MOL0     C90566   1.784   9.840   0.760 -0.7537 -0.1909 -0.4058
  657MOL0     C90567   1.835   9.723   0.848 -0.1757  0.4474 -0.7904
  657MOL0     C90568   1.762   9.590   0.826  0.2546  0.1461 -0.9117
  657MOL0     C90569   1.798   9.508   0.952 -1.1185  0.8469 -0.7755
  657MOL0     C90570   1.692   9.476   1.058  0.3520 -0.2725  0.0093
  657MOL0     C90571   1.612   9.599   1.105 -0.9474 -0.3670 -0.7552
  657MOL0     C90572   1.533   9.560   1.231  0.2865 -0.3308 -0.2936
  657MOL0    Cl90573   1.423   9.421   1.184  0.3162 -0.0316 -0.3086
  657MOL0     C90574   1.471  10.071   0.965  0.1346  0.4808  0.2039
  657MOL0     C90575   1.378  10.162   1.018  0.1015 -0.2690 -0.6375
  657MOL0     O90576   1.303  10.485   0.966 -0.5592 -0.1328  0.3836
  657MOL0     C90577   1.054  10.383   1.196  0.4615  0.3408 -0.3315
  657MOL0     C90578   0.926  10.413   1.229 -1.0924  0.0057 -0.9553
  657MOL0     N90579   0.235  10.330   1.577 -0.2954 -1.3378 -0.2618
  657MOL0     N90580   0.137  10.294   1.662  0.4592 -0.1357  0.3184
  657MOL0     C90581   0.624  10.984   1.881 -0.0042  1.0730 -0.0503
  657MOL0     C90582   0.744  11.023   1.947 -0.2035  1.4015  0.0325
  657MOL0     C90583   1.088  11.034   2.173 -0.5968  0.3035  0.9698
  657MOL0     C90584   1.196  10.957   2.129  0.1462  0.7406 -0.1664
  657MOL0     C90585   1.320  10.997   2.142 -1.6636  0.0403  0.0606
  657MOL0     C90586   1.356  11.108   2.219 -0.7089 -0.0610  0.1167
  657MOL0     O90587   1.489  11.125   2.261  0.3008 -0.7136 -0.5144
  657MOL0     C90588   1.569  11.214   2.175 -0.1957 -0.6872  0.4613
  657MOL0     C90589   1.631  11.135   2.058 -0.2674  0.5719  0.6449
  657MOL0     C90590   1.741  11.041   2.084  0.5139  0.1332 -0.4311
  657MOL0     C90591   1.870  11.096   2.156  0.4483 -0.0089  0.5499
  657MOL0     C90592   1.950  11.171   2.056 -0.1860 -0.0107 -0.5374
  657MOL0     C90593   1.999  11.209   1.953 -0.5590 -0.8144 -0.5039
  657MOL0     C90594   1.256  11.186   2.269  1.2306 -0.4580  0.2060
  657MOL0     C90595   1.115  11.151   2.249  0.0865  0.3491 -0.1528
  657MOL0     C90596   1.009  11.231   2.320 -0.0895  0.8578  0.3269
  657MOL0     H90597   0.616  11.026   2.258  1.2462 -1.5790 -0.0086
  657MOL0     H90598   0.413  10.958   2.146  0.2360  1.3561  1.1900
  657MOL0     H90599   0.222  10.918   2.000 -1.2410 -0.4548 -1.3385
  657MOL0     H90600   0.328  10.771   2.003  0.6741 -0.7787  0.8110
  657MOL0     H90601   0.189  10.851   1.743 -0.1567 -2.1152 -0.8163
  657MOL0     H90602   0.246  10.698   1.810  0.0559 -0.6002 -0.3385
  657MOL0     H90603  -0.003  10.845   1.923  0.0556 -0.7555 -0.1536
  657MOL0     H90604  -0.011  10.739   1.798 -0.8921  4.0281 -1.2192
  657MOL0     H90605   0.106  10.651   2.074  0.1439 -1.1747  0.7877
  657MOL0     H90606  -0.062  10.644   2.021 -0.6135  1.5611 -0.3858
  657MOL0     H90607   0.167  10.475   1.928 -0.6294 -1.4276  1.4355
  657MOL0     H90608   0.044  10.515   1.809 -0.3035 -2.1572 -0.3297
  657MOL0     H90609  -0.006  10.401   2.092  0.4717  0.7566  0.4773
  657MOL0     H90610  -0.129  10.441   1.967  1.3266  2.9166 -1.0246
  657MOL0     H90611  -0.064  10.272   1.819 -0.1791 -2.5832  0.8954
  657MOL0     H90612  -0.081  10.199   1.980  0.1748 -2.9898 -1.4066
  657MOL0     H90613   0.185  10.220   1.988 -0.9547 -0.3712  1.5103
  657MOL0     H90614   0.115  10.114   1.867  2.3847  1.4092 -2.9920
  657MOL0     H90615   0.391  10.283   1.860  0.6096 -0.5573 -0.4568
  657MOL0     H90616   0.572  10.325   1.643  1.3304  1.8402  0.5920
  657MOL0     H90617   0.512  10.491   1.658  0.6756 -0.4926  2.1187
  657MOL0     H90618   0.498  10.297   1.415  0.5969 -0.0570 -0.7161
  657MOL0     H90619   0.427  10.463   1.418  0.1585  3.3654  2.4512
  657MOL0     H90620   0.620  10.567   1.443 -3.9456 -0.1596 -0.6595
  657MOL0     H90621   0.716  10.419   1.465  0.9965  0.9859 -0.7004
  657MOL0     H90622   0.673  10.362   1.228 -1.7345 -0.2519  0.8729
  657MOL0     H90623   0.544  10.470   1.216 -1.3877 -1.6407  1.8839
  657MOL0     H90624   0.885  10.714   1.085 -0.2936  0.6317  1.2925
  657MOL0     H90625   1.091  10.810   1.020  0.4308  0.7191 -0.6971
  657MOL0     H90626   1.139  10.698   0.886  1.3562  0.7697  0.1440
  657MOL0     H90627   1.232  10.724   1.042 -0.8723 -0.9834  2.1133
  657MOL0     H90628   1.620  10.370   1.143 -0.1159  0.6958  0.2372
  657MOL0     H90629   1.759  10.225   1.051  0.9869 -3.0838  0.4151
  657MOL0     H90630   1.583   9.845   0.844 -2.3076  1.5973 -2.4756
  657MOL0     H90631   1.615   9.974   0.735 -0.0843 -0.5647 -1.2491
  657MOL0     H90632   1.756   9.809   0.658  1.1491  0.5790 -1.2102
  657MOL0     H90633   1.862   9.916   0.763 -0.5468 -0.3705  3.1181
  657MOL0     H90634   1.824   9.755   0.952  0.1350 -0.8869 -0.3288
  657MOL0     H90635   1.941   9.705   0.830 -0.6345 -1.5842 -1.7787
  657MOL0     H90636   1.805   9.544   0.736 -1.3626 -1.4889 -0.8994
  657MOL0     H90637   1.655   9.601   0.811  0.4202  1.2414 -1.4002
  657MOL0     H90638   1.845   9.417   0.913 -2.3179  0.5864 -1.6845
  657MOL0     H90639   1.876   9.558   1.010  0.5965 -0.0898 -2.1722
  657MOL0     H90640   1.743   9.427   1.141  1.3576 -0.8792 -0.9408
  657MOL0     H90641   1.621   9.409   1.008  0.0512  1.3192 -1.7816
  657MOL0     H90642   1.544   9.631   1.026 -1.7964 -4.7719 -2.0850
  657MOL0     H90643   1.687   9.678   1.113 -1.2356 -0.2481  1.2940
  657MOL0     H90644   1.471   9.646   1.259  0.4395 -0.5135  0.6387
  657MOL0     H90645   1.598   9.543   1.318 -0.5961  0.4064  0.5264
  657MOL0     H90646   1.437   9.991   0.899  0.3144  1.6554 -1.3636
  657MOL0     H90647   1.274  10.131   1.013  0.2593 -0.9042 -0.1167
  657MOL0     H90648   1.106  10.301   1.245  1.1326  2.1993  2.2901
  657MOL0     H90649   0.879  10.352   1.306  0.1198  0.2904  0.0522
  657MOL0     H90650   0.635  10.969   1.774  1.8063 -2.6090  0.4889
  657MOL0     H90651   0.831  11.033   1.884 -0.8412  1.9021 -0.7831
  657MOL0     H90652   1.175  10.864   2.077 -0.3677 -0.7397  2.4967
  657MOL0     H90653   1.393  10.928   2.101 -1.1176  1.3872 -1.2886
  657MOL0     H90654   1.511  11.295   2.129  0.2683 -0.5033  0.1810
  657MOL0     H90655   1.643  11.277   2.224 -2.2479  3.4923 -1.3355
  657MOL0     H90656   1.657  11.198   1.972 -0.0855 -1.1064 -0.5705
  657MOL0     H90657   1.558  11.065   2.016  2.2443 -2.0693  0.4228
  657MOL0     H90658   1.693  10.964   2.145  0.7951 -0.0277 -0.4175
  657MOL0     H90659   1.773  10.991   1.992 -0.0160  0.7715 -0.9692
  657MOL0     H90660   1.928  11.005   2.175  0.6319  0.2457  1.2322
  657MOL0     H90661   1.847  11.143   2.252 -2.3767  1.8703 -0.9064
  657MOL0     H90662   2.035  11.257   1.865 -0.7647  0.3213  0.0231
  657MOL0     H90663   1.277  11.271   2.333  1.2090 -1.4571  1.6042
  657MOL0     H90664   1.047  11.288   2.404  0.3967  1.1586 -0.0892
  657MOL0     H90665   0.976  11.306   2.247  2.1788  2.2627  0.6682
  657MOL0     H90666   0.931  11.167   2.361  1.0201 -3.1600 -3.1283
  658MOL0     O90667   7.771   7.871   1.742 -0.3688  0.4015  0.1079
  658MOL0     C90668   7.848   7.865   1.846  0.3628 -0.4303 -0.3770
  658MOL0     O90669   7.811   7.810   1.962  0.1247  0.0263  0.1021
  658MOL0     C90670   7.686   7.840   1.998 -0.0947  1.1515 -0.7052
  658MOL0     C90671   7.617   7.960   1.982 -0.2312  0.9374  0.3006
  658MOL0     C90672   7.487   7.977   2.026  0.0478 -1.0282 -0.0126
  658MOL0     C90673   7.424   7.874   2.101  1.2662 -0.3234  0.3794
  658MOL0     O90674   7.295   7.902   2.135 -0.3217 -0.1744  0.3147
  658MOL0     C90675   7.206   7.805   2.190 -0.7697  0.6087 -1.1939
  658MOL0     C90676   7.166   7.707   2.078 -0.2514 -0.5014  0.0482
  658MOL0     C90677   7.053   7.612   2.114 -0.0495  0.0529 -0.1590
  658MOL0     C90678   7.110   7.495   2.204 -0.5095 -0.7886  0.2107
  658MOL0     C90679   7.006   7.414   2.272 -0.4287  0.0851 -1.2759
  658MOL0     C90680   7.082   7.303   2.358  0.0360 -0.6906 -0.0329
  658MOL0     C90681   6.981   7.225   2.441 -0.3210  0.1871  0.0038
  658MOL0     C90682   6.856   7.187   2.374 -0.0792  0.2781  0.3378
  658MOL0     N90683   6.780   7.104   2.463 -0.5268  1.6271 -0.1083
  658MOL0     C90684   6.707   7.149   2.566 -0.0066  1.1971  0.3517
  658MOL0     C90685   6.643   7.041   2.612 -0.4169 -0.5880 -0.3525
  658MOL0     C90686   6.534   7.065   2.720 -0.3748  0.5489  0.0472
  658MOL0     C90687   6.386   7.030   2.695  0.4535 -0.3605  0.2551
  658MOL0     C90688   6.356   6.883   2.694 -0.5954  0.2908 -0.6443
  658MOL0     C90689   6.333   6.818   2.839 -0.2686  0.0206 -0.2815
  658MOL0     O90690   6.308   6.672   2.825 -0.6263 -0.2867 -0.6096
  658MOL0     C90691   6.355   6.600   2.936  0.1601  0.6373  0.2196
  658MOL0     C90692   6.325   6.632   3.065 -0.2742 -0.0751  0.1420
  658MOL0     C90693   6.380   6.558   3.169  0.4298 -0.6998  0.1541
  658MOL0     C90694   6.317   6.601   3.308 -0.0641 -0.3175 -0.3629
  658MOL0     C90695   6.474   6.461   3.148  1.2269  1.0528  1.1125
  658MOL0     C90696   6.549   6.385   3.249 -0.6185  0.0706  0.0020
  658MOL0     O90697   6.636   6.286   3.207  0.7790 -0.3843  0.6891
  658MOL0     C90698   6.686   6.194   3.297 -0.8272 -0.8479  0.6223
  658MOL0     C90699   6.606   6.078   3.322 -0.3355  0.4846 -0.5791
  658MOL0     C90700   6.652   5.974   3.407  0.0634 -0.3390  0.2537
  658MOL0     C90701   6.767   6.004   3.488 -1.0928  0.5922 -0.3346
  658MOL0     O90702   6.814   5.912   3.583 -0.2320 -0.1920  0.5461
  658MOL0     C90703   6.723   5.814   3.637 -0.2355 -0.7323  1.3547
  658MOL0     C90704   6.782   5.786   3.773 -0.9402 -0.2013 -0.3565
  658MOL0     C90705   6.914   5.701   3.782  0.7554 -1.2223 -0.3829
  658MOL0     C90706   6.947   5.647   3.922  0.4528 -0.2514  0.5955
  658MOL0     C90707   7.056   5.532   3.917  0.0064  0.3852  0.4493
  658MOL0     C90708   7.144   5.532   4.038 -0.2982  0.5948 -0.2199
  658MOL0     C90709   7.061   5.503   4.168  0.6879 -0.3849  0.1692
  658MOL0     C90710   7.149   5.429   4.271  1.6649 -0.2480 -1.4167
  658MOL0    Cl90711   7.042   5.329   4.371 -0.0023 -0.3878  0.1004
  658MOL0     C90712   6.853   6.113   3.457 -0.0398 -0.5424  0.1736
  658MOL0     C90713   6.813   6.210   3.355 -0.2322 -0.1361  0.2170
  658MOL0     O90714   6.499   6.393   3.363 -0.3795  0.4588  0.2276
  658MOL0     C90715   6.513   6.433   3.012  0.6967  0.1199 -0.1397
  658MOL0     C90716   6.448   6.504   2.908  0.1143 -0.0623  0.3648
  658MOL0     N90717   6.680   6.930   2.537 -0.1581 -0.9556  0.1463
  658MOL0     N90718   6.768   6.967   2.450  0.4584 -0.0775 -0.5033
  658MOL0     C90719   7.491   7.749   2.121  0.4842 -0.4479 -0.5031
  658MOL0     C90720   7.625   7.741   2.074  0.8196  1.2616  0.6456
  658MOL0     C90721   7.988   7.920   1.841 -0.5335 -0.4008  0.2158
  658MOL0     C90722   8.069   7.923   1.961  0.5617  0.6562 -0.2344
  658MOL0     C90723   8.211   7.954   1.946  0.1633  0.2037 -0.2267
  658MOL0     C90724   8.264   7.998   1.825 -0.1690 -0.3611 -0.0121
  658MOL0     O90725   8.388   8.053   1.806 -0.6818  0.2007 -0.5335
  658MOL0     C90726   8.486   8.044   1.913  1.0154  0.0240  0.2304
  658MOL0     C90727   8.551   7.902   1.909 -0.4512  0.1354 -0.0606
  658MOL0     C90728   8.641   7.869   2.023  0.1095  1.2196  0.4527
  658MOL0     C90729   8.784   7.912   2.010  0.3214  0.8539  0.5505
  658MOL0     C90730   8.860   7.900   2.136 -0.6927 -0.6256  0.0122
  658MOL0     C90731   8.925   7.898   2.241 -0.0379 -0.8053 -0.5989
  658MOL0     C90732   8.184   7.997   1.719 -0.3575  0.4486  0.4268
  658MOL0     C90733   8.050   7.966   1.719  0.3654 -0.7068  0.7849
  658MOL0     C90734   7.976   7.988   1.585  0.3744  0.2711 -0.0015
  658MOL0     H90735   7.658   8.044   1.926 -1.9737 -0.3630 -3.2333
  658MOL0     H90736   7.434   8.069   2.004  3.3776  0.1658 -4.3800
  658MOL0     H90737   7.123   7.866   2.227  1.0803  1.7951  1.3327
  658MOL0     H90738   7.254   7.751   2.272 -1.1392  1.1681 -0.5995
  658MOL0     H90739   7.129   7.764   1.992  0.4942 -2.5080 -1.6851
  658MOL0     H90740   7.252   7.653   2.037  0.4926  0.7869 -0.1339
  658MOL0     H90741   6.980   7.669   2.172 -0.1129  0.3698 -0.5536
  658MOL0     H90742   6.990   7.574   2.034 -1.1138 -0.1123  0.7260
  658MOL0     H90743   7.177   7.428   2.149 -1.6672 -1.5593 -0.2891
  658MOL0     H90744   7.172   7.543   2.280 -0.2830 -0.9643  0.1373
  658MOL0     H90745   6.948   7.371   2.190 -1.3318  0.1015 -0.6513
  658MOL0     H90746   6.950   7.479   2.339  0.1273 -0.6182 -0.0822
  658MOL0     H90747   7.135   7.233   2.293 -0.6412 -1.1765 -0.0771
  658MOL0     H90748   7.150   7.357   2.425 -1.3547 -1.0636  1.7692
  658MOL0     H90749   6.950   7.299   2.516 -3.4199 -0.1830 -0.7770
  658MOL0     H90750   7.020   7.136   2.492 -0.7762  0.8343  1.5480
  658MOL0     H90751   6.794   7.274   2.348  0.1118 -0.7385 -4.6687
  658MOL0     H90752   6.868   7.153   2.270  0.3727 -0.2335  0.5567
  658MOL0     H90753   6.694   7.249   2.607  2.7325  1.0722  1.8035
  658MOL0     H90754   6.531   7.172   2.744  0.1905  0.8284 -1.0273
  658MOL0     H90755   6.567   7.007   2.807 -0.4780  0.5155  0.0639
  658MOL0     H90756   6.315   7.088   2.755 -2.1149  0.2838 -3.0617
  658MOL0     H90757   6.363   7.063   2.593  0.4759 -3.1170 -0.7314
  658MOL0     H90758   6.270   6.864   2.630 -0.0802 -0.3080 -1.1655
  658MOL0     H90759   6.440   6.832   2.646 -0.0145  0.5485  0.0726
  658MOL0     H90760   6.419   6.838   2.903 -1.3507  1.3732  0.7962
  658MOL0     H90761   6.242   6.863   2.878 -0.0664  0.0327  0.1728
  658MOL0     H90762   6.270   6.724   3.085  1.0488  0.9079 -0.5473
  658MOL0     H90763   6.273   6.701   3.305  1.6862  0.5312  0.8337
  658MOL0     H90764   6.396   6.611   3.383 -1.5569 -3.5709  1.8771
  658MOL0     H90765   6.247   6.527   3.349 -0.3601  0.3939  0.4563
  658MOL0     H90766   6.508   6.068   3.277  0.6583  0.8654 -2.9734
  658MOL0     H90767   6.589   5.886   3.413 -0.8177  0.1619 -1.1473
  658MOL0     H90768   6.619   5.847   3.641 -0.1674  0.3482 -2.0779
  658MOL0     H90769   6.720   5.721   3.580  0.4154  0.2521 -0.3729
  658MOL0     H90770   6.812   5.879   3.823  1.9872 -0.3963 -1.5772
  658MOL0     H90771   6.712   5.729   3.835 -1.2094 -0.2032 -0.6555
  658MOL0     H90772   7.002   5.759   3.752  1.1599 -1.3566  0.4924
  658MOL0     H90773   6.900   5.614   3.717 -0.9056  0.3543 -2.2594
  658MOL0     H90774   6.850   5.615   3.962 -0.9006  5.6137  2.9641
  658MOL0     H90775   6.975   5.730   3.987 -0.4285  1.0129 -0.6024
  658MOL0     H90776   7.011   5.436   3.890 -0.2925  0.7011 -0.1966
  658MOL0     H90777   7.117   5.570   3.834 -2.5185  3.1496 -0.2695
  658MOL0     H90778   7.203   5.622   4.057  2.1357 -1.0307  0.4611
  658MOL0     H90779   7.216   5.451   4.021 -2.1559 -1.1661 -0.1082
  658MOL0     H90780   6.982   5.432   4.145 -0.3101  0.8687 -0.4253
  658MOL0     H90781   7.018   5.593   4.214 -0.2070 -1.3415  1.2488
  658MOL0     H90782   7.196   5.505   4.334 -0.8900  0.4102 -0.1910
  658MOL0     H90783   7.227   5.360   4.235  2.1791 -1.4494  1.7131
  658MOL0     H90784   6.946   6.118   3.512 -1.5632 -0.3743  2.8872
  658MOL0     H90785   6.881   6.293   3.341  1.6812 -1.4461  1.2713
  658MOL0     H90786   6.590   6.364   2.979 -0.3793  0.2846 -3.2568
  658MOL0     H90787   6.470   6.487   2.803 -1.1903 -2.7987  0.4512
  658MOL0     H90788   7.443   7.665   2.171 -1.0110 -0.1590 -1.4065
  658MOL0     H90789   7.679   7.648   2.087  2.1024  1.7711 -0.7128
  658MOL0     H90790   8.031   7.903   2.061  0.4547  0.1346 -0.3772
  658MOL0     H90791   8.267   7.935   2.037  0.7293 -0.0871 -0.6287
  658MOL0     H90792   8.558   8.124   1.895 -0.2425  1.4717  1.3769
  658MOL0     H90793   8.442   8.055   2.013  0.8497  0.7483  0.0826
  658MOL0     H90794   8.593   7.896   1.809 -0.8903  1.9132 -0.3843
  658MOL0     H90795   8.464   7.837   1.903 -0.2349 -0.1161 -0.5255
  658MOL0     H90796   8.590   7.899   2.115  2.4258  2.2041  1.4841
  658MOL0     H90797   8.644   7.759   2.023  2.6678  1.2403  1.0662
  658MOL0     H90798   8.788   8.013   1.967  0.2337 -0.2316 -2.2455
  658MOL0     H90799   8.835   7.849   1.936  1.2898  2.6692 -0.4121
  658MOL0     H90800   8.977   7.882   2.333 -0.5261 -1.7967 -0.4855
  658MOL0     H90801   8.226   8.027   1.624 -2.9790 -2.3833 -1.8361
  658MOL0     H90802   7.933   7.897   1.543  1.7838  0.1639 -1.3101
  658MOL0     H90803   7.897   8.062   1.602  0.2033 -0.1084  0.9565
  658MOL0     H90804   8.044   8.019   1.506 -0.6970 -0.6744 -1.3333
  659MOL0     O90805  10.610   6.792   0.555  0.2232  0.2047 -0.1456
  659MOL0     C90806  10.531   6.844   0.635  0.8302  0.4021 -0.0318
  659MOL0     O90807  10.570   6.936   0.725 -0.1753 -0.6570  0.0030
  659MOL0     C90808  10.699   6.981   0.717  0.7179  0.2587 -0.4728
  659MOL0     C90809  10.759   7.040   0.608  0.7113  0.1588 -0.0739
  659MOL0     C90810  10.891   7.085   0.607 -0.3712 -0.2408 -0.1745
  659MOL0     C90811  10.971   7.085   0.717  0.3730 -0.1819  0.4804
  659MOL0     O90812  11.098   7.147   0.702  0.0094 -0.8484  0.7180
  659MOL0     C90813  11.199   7.080   0.770  0.4732  0.9761  0.7435
  659MOL0     C90814  11.317   7.163   0.781 -0.3092  0.7614 -0.2121
  659MOL0     C90815  11.297   7.303   0.840 -0.2953  0.0733  0.0281
  659MOL0     C90816  11.439   7.361   0.882 -0.4068 -0.2376 -0.4223
  659MOL0     C90817  11.402   7.502   0.936 -0.3798  0.6230  0.0766
  659MOL0     C90818  11.518   7.578   0.983 -0.2271  0.3241 -0.1641
  659MOL0     C90819  11.482   7.725   0.979 -0.1447  0.8827 -0.6310
  659MOL0     C90820  11.608   7.812   0.987 -0.1071  0.0986  0.6107
  659MOL0     N90821  11.712   7.767   1.068  0.3676 -0.6613 -0.0432
  659MOL0     C90822  11.724   7.820   1.191 -0.3507  0.1513  0.3908
  659MOL0     C90823  11.852   7.787   1.225 -0.7646  0.5156  0.5702
  659MOL0     C90824  11.916   7.819   1.348  0.3900  0.8593  0.3435
  659MOL0     C90825  11.921   7.688   1.432 -0.2291 -0.7056  0.2344
  659MOL0     C90826  11.974   7.709   1.576 -0.5942  0.0228  0.2093
  659MOL0     C90827  11.911   7.830   1.652 -0.0819  0.7744 -1.0401
  659MOL0     O90828  11.982   7.843   1.772  0.7053  0.8006 -0.1401
  659MOL0     C90829  12.102   7.907   1.787  0.3857  0.0700  0.3156
  659MOL0     C90830  12.135   7.942   1.911  0.7612  0.3345  0.9229
  659MOL0     C90831  12.252   7.999   1.948 -0.9532 -0.5863  0.6962
  659MOL0     C90832  12.271   8.025   2.092 -0.1201  0.6583 -0.3995
  659MOL0     C90833  12.356   8.028   1.852  0.5987 -0.3831 -0.4066
  659MOL0     C90834  12.480   8.100   1.895 -0.4773  0.2688  1.9559
  659MOL0     O90835  12.583   8.025   1.928 -0.1095  0.8948  0.3943
  659MOL0     C90836  12.693   8.083   1.957 -1.0631 -0.4011 -1.1333
  659MOL0     C90837  12.796   8.104   1.866 -0.8910 -1.0635 -0.4789
  659MOL0     C90838  12.914   8.170   1.892 -0.0811 -0.2761 -0.5446
  659MOL0     C90839  12.936   8.221   2.024  0.6089 -0.4494  0.0505
  659MOL0     O90840  13.047   8.303   2.051 -0.2805 -0.5468  0.0880
  659MOL0     C90841  13.050   8.389   2.177 -0.1051  0.2598 -0.5556
  659MOL0     C90842  13.177   8.480   2.170 -0.3401  0.4420  0.7746
  659MOL0     C90843  13.200   8.552   2.034 -0.3645  1.0563 -0.6170
  659MOL0     C90844  13.345   8.612   2.035 -0.4852  0.3449 -0.7788
  659MOL0     C90845  13.371   8.716   1.930 -0.0094 -0.5859 -0.3295
  659MOL0     C90846  13.524   8.728   1.908 -0.6986  0.0851  0.4909
  659MOL0     C90847  13.614   8.753   2.030 -0.3627 -0.4366 -0.6619
  659MOL0     C90848  13.727   8.851   2.007 -0.9427  0.1939 -0.0837
  659MOL0    Cl90849  13.666   9.008   2.007 -0.1407 -0.2841  0.0984
  659MOL0     C90850  12.840   8.187   2.116 -0.7708  0.3238 -0.6842
  659MOL0     C90851  12.724   8.115   2.084 -0.1212 -0.3555 -0.9509
  659MOL0     O90852  12.484   8.220   1.896 -0.0814 -0.3948  0.2835
  659MOL0     C90853  12.326   8.001   1.719  0.1796 -0.2711 -0.4494
  659MOL0     C90854  12.198   7.943   1.686  0.8612  0.1811  0.1537
  659MOL0     N90855  11.899   7.706   1.129 -0.7783  0.5550 -0.4700
  659MOL0     N90856  11.824   7.701   1.024  0.5950 -0.1408 -0.1085
  659MOL0     C90857  10.915   7.027   0.831 -0.3858  0.3920  0.2835
  659MOL0     C90858  10.780   6.972   0.822 -0.1905 -0.6596 -0.6607
  659MOL0     C90859  10.385   6.813   0.628  0.5472 -0.6749  0.5063
  659MOL0     C90860  10.295   6.919   0.667 -0.2735  0.4388  0.1637
  659MOL0     C90861  10.158   6.893   0.656 -0.3585  0.1796 -0.3474
  659MOL0     C90862  10.098   6.769   0.625 -0.4544 -0.9070  0.8924
  659MOL0     O90863   9.960   6.754   0.621  0.3254 -1.1742 -0.0971
  659MOL0     C90864   9.915   6.630   0.677  0.2415 -0.2668 -0.0843
  659MOL0     C90865   9.872   6.527   0.573  0.3301  0.4082  0.1695
  659MOL0     C90866   9.769   6.427   0.624  0.5423 -0.3833 -0.9734
  659MOL0     C90867   9.810   6.348   0.748 -0.6403  0.2209 -0.3471
  659MOL0     C90868   9.691   6.259   0.769  0.6110 -0.1392  0.4487
  659MOL0     C90869   9.591   6.196   0.783  0.8462  0.1296  0.6959
  659MOL0     C90870  10.188   6.668   0.586 -0.6098 -0.3937 -0.3794
  659MOL0     C90871  10.324   6.693   0.576  0.0984 -0.9969 -0.6938
  659MOL0     C90872  10.414   6.586   0.519  0.8221 -0.0959 -0.0719
  659MOL0     H90873  10.703   7.041   0.516  0.0659  2.8305  0.2639
  659MOL0     H90874  10.938   7.121   0.516 -4.6519  0.3518 -2.3916
  659MOL0     H90875  11.221   6.988   0.714 -1.5690  0.2358  1.0465
  659MOL0     H90876  11.174   7.041   0.870 -2.3051  1.6668  0.4052
  659MOL0     H90877  11.389   7.106   0.840  0.3090  0.1288 -1.5197
  659MOL0     H90878  11.355   7.164   0.678 -2.5729 -0.4974 -1.1492
  659MOL0     H90879  11.262   7.366   0.757  1.9584  2.0907  0.5023
  659MOL0     H90880  11.240   7.300   0.933 -0.8048 -0.1407 -0.2915
  659MOL0     H90881  11.489   7.305   0.962  2.4340 -0.2894 -2.1187
  659MOL0     H90882  11.515   7.364   0.804  0.9019 -0.9939  0.7602
  659MOL0     H90883  11.334   7.497   1.022  0.8867  4.1422  1.4544
  659MOL0     H90884  11.341   7.549   0.859  0.2584 -2.6888 -2.6833
  659MOL0     H90885  11.545   7.543   1.083 -1.4206  1.4721  0.5873
  659MOL0     H90886  11.608   7.558   0.923  0.1910 -1.2355  0.9055
  659MOL0     H90887  11.427   7.743   1.072  0.0681  3.2545 -0.8969
  659MOL0     H90888  11.426   7.750   0.889  1.4397 -3.0253 -2.9454
  659MOL0     H90889  11.636   7.809   0.882 -2.0443  0.7109  0.0307
  659MOL0     H90890  11.581   7.914   1.016  2.5169  1.0033  0.1412
  659MOL0     H90891  11.662   7.897   1.235  2.8909  2.7010  0.8994
  659MOL0     H90892  11.842   7.888   1.392  1.1258  1.9366 -0.0544
  659MOL0     H90893  12.019   7.854   1.337  0.0962  0.8550 -3.7506
  659MOL0     H90894  11.819   7.653   1.450  0.2989 -1.5378  1.8032
  659MOL0     H90895  11.986   7.611   1.390  2.2650  0.5148  1.6199
  659MOL0     H90896  11.961   7.613   1.627  2.9932  1.5248  4.6090
  659MOL0     H90897  12.081   7.729   1.566 -0.3555 -0.2583  1.9762
  659MOL0     H90898  11.930   7.918   1.590 -0.5708 -0.2190 -2.6674
  659MOL0     H90899  11.802   7.829   1.668  0.2163  2.7520  2.1082
  659MOL0     H90900  12.049   7.922   1.975 -0.6838  0.1436 -1.0025
  659MOL0     H90901  12.183   7.983   2.141 -0.9667  1.6308 -1.0256
  659MOL0     H90902  12.268   8.131   2.121  3.6178  1.3606 -1.9332
  659MOL0     H90903  12.373   7.995   2.118 -0.2985 -1.9078 -2.3615
  659MOL0     H90904  12.782   8.058   1.768  2.9411 -0.8324 -1.2777
  659MOL0     H90905  12.990   8.186   1.816 -0.9260  2.8869 -0.8544
  659MOL0     H90906  12.962   8.452   2.190  0.6297  0.8563  2.0091
  659MOL0     H90907  13.059   8.334   2.271 -0.7175  1.2037  0.0635
  659MOL0     H90908  13.171   8.555   2.249 -3.0454 -1.2973  2.4093
  659MOL0     H90909  13.262   8.416   2.196 -1.7163 -0.3595  3.7101
  659MOL0     H90910  13.124   8.630   2.033 -2.0078 -0.4272 -3.0948
  659MOL0     H90911  13.196   8.485   1.948 -1.1922  0.9197 -0.4842
  659MOL0     H90912  13.412   8.529   2.012  0.0077  1.3882 -3.3817
  659MOL0     H90913  13.357   8.660   2.133  0.1401  2.0166 -1.6307
  659MOL0     H90914  13.319   8.707   1.835 -0.8566  1.9477 -0.2023
  659MOL0     H90915  13.341   8.816   1.965 -0.9114  0.1787 -3.0170
  659MOL0     H90916  13.534   8.808   1.835 -1.4748  1.1320  1.5037
  659MOL0     H90917  13.558   8.643   1.848  0.0262  0.6240  0.1279
  659MOL0     H90918  13.665   8.661   2.061  1.2971  0.8051  0.4365
  659MOL0     H90919  13.559   8.784   2.120  1.6037  0.2912  0.3428
  659MOL0     H90920  13.777   8.830   1.912  1.8503  1.2960  1.0424
  659MOL0     H90921  13.791   8.844   2.095 -0.5566 -2.0956 -0.5025
  659MOL0     H90922  12.853   8.208   2.221 -2.4909 -0.2783 -0.3125
  659MOL0     H90923  12.654   8.094   2.164 -0.5309  2.2626 -0.5197
  659MOL0     H90924  12.400   8.009   1.640  1.2901  0.0277  0.5917
  659MOL0     H90925  12.183   7.919   1.581 -1.4216  0.7985  0.2897
  659MOL0     H90926  10.974   7.005   0.920 -2.9113 -2.0463  1.5505
  659MOL0     H90927  10.735   6.935   0.914  2.5150 -0.4988  0.8044
  659MOL0     H90928  10.326   7.011   0.715  1.2170  0.7739 -1.3648
  659MOL0     H90929  10.086   6.973   0.671 -3.2911 -2.3258 -0.0319
  659MOL0     H90930   9.987   6.581   0.743 -1.0572  0.1070  1.7007
  659MOL0     H90931   9.829   6.663   0.736  1.3664 -0.3922  1.6880
  659MOL0     H90932   9.959   6.473   0.532 -0.6727 -1.1970  0.0775
  659MOL0     H90933   9.843   6.586   0.486  1.5958  4.6532  2.3544
  659MOL0     H90934   9.677   6.479   0.655 -0.6741 -3.2037  0.5119
  659MOL0     H90935   9.734   6.366   0.541 -1.0150 -1.2177  0.2423
  659MOL0     H90936   9.826   6.414   0.833  2.1372  0.6612 -1.0950
  659MOL0     H90937   9.897   6.287   0.720 -1.7248 -0.7252 -1.7704
  659MOL0     H90938   9.499   6.143   0.795  0.6455  0.0019 -1.1757
  659MOL0     H90939  10.154   6.571   0.552 -0.5844 -0.3962 -0.3969
  659MOL0     H90940  10.357   6.502   0.477  0.3193 -0.1447  0.7015
  659MOL0     H90941  10.475   6.627   0.438 -0.6934  1.8787 -0.2741
  659MOL0     H90942  10.474   6.537   0.596 -1.0284 -0.1928  1.3663
  660MOL0     O90943   5.634  11.202  10.581 -0.9184  0.3390 -0.0497
  660MOL0     C90944   5.625  11.191  10.703  0.3155 -0.4314 -0.2601
  660MOL0     O90945   5.694  11.103  10.776  0.1302  0.2879 -0.1696
  660MOL0     C90946   5.797  11.037  10.717 -0.8978  0.4225  0.4003
  660MOL0     C90947   5.921  11.102  10.713  0.2289 -0.1992 -0.8284
  660MOL0     C90948   6.032  11.049  10.648 -0.6681  0.3367  0.7793
  660MOL0     C90949   6.027  10.916  10.607 -0.1589  0.2781  0.1445
  660MOL0     O90950   6.135  10.854  10.543  0.7637 -0.1110  0.1119
  660MOL0     C90951   6.237  10.811  10.633 -0.1987  0.2826 -0.3719
  660MOL0     C90952   6.201  10.676  10.686  0.0884  0.5180  0.1386
  660MOL0     C90953   6.161  10.574  10.577  0.0129 -0.4687 -0.5603
  660MOL0     C90954   6.126  10.441  10.636 -1.2761  0.5415  0.3544
  660MOL0     C90955   6.150  10.329  10.530  0.2348 -0.1962  0.7646
  660MOL0     C90956   6.123  10.192  10.585 -0.3960  0.4803  0.1550
  660MOL0     C90957   6.250  10.127  10.643  0.0076  0.0682  0.0093
  660MOL0     C90958   6.228   9.996  10.710  1.3153  0.2103  0.1144
  660MOL0     N90959   6.349   9.925  10.758 -0.7906  0.5399  0.1841
  660MOL0     C90960   6.418   9.829  10.687  0.3280  0.5753  0.1171
  660MOL0     C90961   6.534   9.795  10.760  0.1642  0.0171  0.2803
  660MOL0     C90962   6.656   9.721  10.709 -0.1778  0.7035 -0.6989
  660MOL0     C90963   6.756   9.706  10.820  0.1390  0.3779 -0.6248
  660MOL0     C90964   6.838   9.836  10.853 -0.1075  0.1108 -0.1423
  660MOL0     C90965   6.937   9.866  10.745 -0.2974  0.0675 -0.6251
  660MOL0     O90966   7.033   9.963  10.784  0.2733 -0.6391  0.3030
  660MOL0     C90967   7.152   9.908  10.823 -0.0645  0.0313  0.4243
  660MOL0     C90968   7.232   9.829  10.729  0.2553  0.5643 -0.6035
  660MOL0     C90969   7.348   9.770  10.764 -0.4955 -0.5133  0.3798
  660MOL0     C90970   7.422   9.685  10.663  0.4082  0.0167  0.0370
  660MOL0     C90971   7.390   9.779  10.901 -0.2469 -0.5716 -1.0253
  660MOL0     C90972   7.524   9.736  10.966  0.5292  0.3671  0.2681
  660MOL0     O90973   7.534   9.736  11.103 -0.2093  0.0221 -0.2226
  660MOL0     C90974   7.654   9.708  11.163 -0.8509 -0.1805  0.4790
  660MOL0     C90975   7.712   9.811  11.242  0.4574 -1.0619  0.1228
  660MOL0     C90976   7.838   9.787  11.294 -0.6276  0.5704 -0.6837
  660MOL0     C90977   7.904   9.666  11.278 -0.0387 -0.0113 -1.2640
  660MOL0     O90978   8.030   9.635  11.326 -1.3219  0.1062 -0.2291
  660MOL0     C90979   8.095   9.743  11.398  0.0803  0.1464 -0.1830
  660MOL0     C90980   8.234   9.720  11.449  0.9007  0.3112  0.6447
  660MOL0     C90981   8.231   9.616  11.558  0.2059  0.2253  0.7759
  660MOL0     C90982   8.354   9.605  11.652  0.1276  0.1532  0.2006
  660MOL0     C90983   8.330   9.508  11.765  0.2085 -0.0912  0.3138
  660MOL0     C90984   8.251   9.568  11.879  0.6666  0.6848 -0.5086
  660MOL0     C90985   8.166   9.466  11.954 -0.3081 -0.3786 -0.5490
  660MOL0     C90986   8.087   9.515  12.081  0.3921 -0.7012 -0.7841
  660MOL0    Cl90987   8.198   9.603  12.200 -0.0564 -0.1670 -0.2190
  660MOL0     C90988   7.842   9.560  11.204 -0.2909 -0.3805 -0.9611
  660MOL0     C90989   7.720   9.583  11.149  0.1480 -0.0141 -0.7741
  660MOL0     O90990   7.614   9.724  10.893 -0.3991  0.0739 -0.3579
  660MOL0     C90991   7.305   9.847  11.000 -0.2443  0.0598 -0.3470
  660MOL0     C90992   7.192   9.908  10.958  0.0494  0.0721  0.2543
  660MOL0     N90993   6.527   9.866  10.878  0.6112  0.3820  0.7811
  660MOL0     N90994   6.420   9.939  10.871  0.6541  0.3015 -0.3120
  660MOL0     C90995   5.899  10.853  10.592  0.1497  0.2424  0.5571
  660MOL0     C90996   5.785  10.911  10.654 -0.1530  0.2386  0.1043
  660MOL0     C90997   5.524  11.286  10.772  0.2878 -0.2997  0.4712
  660MOL0     C90998   5.516  11.416  10.720 -0.7126 -0.2261  0.1644
  660MOL0     C90999   5.439  11.515  10.791 -0.5623 -0.1925  0.7257
  660MOL0     C91000   5.351  11.478  10.899  0.4067  0.1351  0.2287
  660MOL0     O91001   5.263  11.570  10.948  0.5184 -0.7258  0.3156
  660MOL0     C91002   5.147  11.531  11.022 -0.2299 -0.8539 -0.0449
  660MOL0     C91003   5.043  11.642  11.017 -0.1113 -0.8405 -0.6593
  660MOL0     C91004   5.062  11.769  11.100 -0.3373 -0.4579  0.0672
  660MOL0     C91005   5.038  11.759  11.250  0.1068  0.1706  0.2255
  660MOL0     C91006   5.151  11.692  11.325  0.0630 -0.0883  0.7433
  660MOL0     C91007   5.228  11.619  11.389 -0.0593  0.5266 -0.0841
  660MOL0     C91008   5.361  11.347  10.941  0.4209 -0.1779  1.1509
  660MOL0     C91009   5.444  11.245  10.883  0.4774 -1.3752  0.4104
  660MOL0     C91010   5.435  11.111  10.935 -0.9662  0.7719 -0.5785
  660MOL0     H91011   5.942  11.193  10.768  3.0223 -1.6892  0.8218
  660MOL0     H91012   6.128  11.100  10.642  0.3275 -1.3145  1.8525
  660MOL0     H91013   6.249  10.882  10.716  0.0631 -0.4292  0.2058
  660MOL0     H91014   6.332  10.806  10.581  0.8168  2.2507  1.1648
  660MOL0     H91015   6.285  10.646  10.749 -2.5500 -1.0618  3.2334
  660MOL0     H91016   6.117  10.694  10.754 -2.2833  2.0076 -2.9101
  660MOL0     H91017   6.071  10.610  10.528 -1.7011 -1.5395  1.5926
  660MOL0     H91018   6.247  10.569  10.510  0.3133 -2.2571 -0.0901
  660MOL0     H91019   6.190  10.430  10.724  0.6303  2.3533 -0.7235
  660MOL0     H91020   6.022  10.433  10.669 -0.4300  1.2448  3.5260
  660MOL0     H91021   6.249  10.339  10.483  1.4636 -2.3064  2.7162
  660MOL0     H91022   6.065  10.347  10.464 -0.8695 -0.2655  2.1407
  660MOL0     H91023   6.041  10.198  10.657 -0.2102  0.3657  0.3782
  660MOL0     H91024   6.088  10.123  10.507  1.6719 -0.1132 -0.3072
  660MOL0     H91025   6.305  10.189  10.715 -0.7941 -1.0083  1.6175
  660MOL0     H91026   6.325  10.100  10.569  0.4500 -1.3201  0.9156
  660MOL0     H91027   6.168  10.027  10.795  1.0994  2.3558 -0.7478
  660MOL0     H91028   6.170   9.924  10.651 -0.1440  0.7306  0.8751
  660MOL0     H91029   6.402   9.799  10.584  0.5061  1.5710 -0.2180
  660MOL0     H91030   6.685   9.765  10.613  1.6246  1.7775  0.2803
  660MOL0     H91031   6.623   9.619  10.688  0.6863 -0.3648  2.5262
  660MOL0     H91032   6.705   9.670  10.909  1.0090 -0.2007 -0.3440
  660MOL0     H91033   6.806   9.612  10.793  1.7914  1.3858 -1.2449
  660MOL0     H91034   6.770   9.917  10.880 -0.3830 -0.3391  0.5502
  660MOL0     H91035   6.903   9.817  10.939  3.9697 -0.4907 -3.1070
  660MOL0     H91036   6.992   9.779  10.706  4.2844  1.2312  2.5292
  660MOL0     H91037   6.887   9.917  10.663  1.6552  2.9253 -0.1631
  660MOL0     H91038   7.211   9.839  10.623  4.1300  1.4093 -1.4402
  660MOL0     H91039   7.484   9.612  10.715  1.9659  2.3576  1.6606
  660MOL0     H91040   7.484   9.744  10.596  1.0202 -0.9242 -0.2498
  660MOL0     H91041   7.346   9.634  10.602 -2.6824  1.8288  2.0977
  660MOL0     H91042   7.652   9.900  11.256  0.9283 -0.4298 -1.5941
  660MOL0     H91043   7.881   9.855  11.365 -0.7408 -0.6814  0.6281
  660MOL0     H91044   8.104   9.841  11.350  1.6588  1.7928  3.1347
  660MOL0     H91045   8.032   9.747  11.487 -0.4881  0.0936 -0.5849
  660MOL0     H91046   8.300   9.693  11.366  3.2377 -2.3892  3.1308
  660MOL0     H91047   8.263   9.813  11.498 -1.1098  0.2383  2.1108
  660MOL0     H91048   8.222   9.524  11.499  1.8837  0.6879 -0.2899
  660MOL0     H91049   8.145   9.622  11.626 -0.2329  2.0583  0.1176
  660MOL0     H91050   8.381   9.706  11.683  3.4355 -0.7379  0.5580
  660MOL0     H91051   8.431   9.573  11.581 -0.4642  1.4283 -1.0832
  660MOL0     H91052   8.264   9.429  11.728  0.3186  1.0145 -2.5069
  660MOL0     H91053   8.424   9.461  11.797  0.4799 -0.1448 -0.5357
  660MOL0     H91054   8.175   9.639  11.845  0.1000  0.5475  0.4169
  660MOL0     H91055   8.319   9.621  11.946 -1.3771  1.3468  1.1599
  660MOL0     H91056   8.224   9.377  11.983 -1.7197 -1.8862 -2.1147
  660MOL0     H91057   8.094   9.422  11.885 -0.0306 -0.9693 -0.4797
  660MOL0     H91058   8.033   9.438  12.137 -2.0392 -0.9412 -3.2498
  660MOL0     H91059   8.010   9.589  12.053  0.2762 -0.4370  0.1917
  660MOL0     H91060   7.892   9.465  11.188  0.1912 -1.0351  3.2219
  660MOL0     H91061   7.669   9.503  11.095  0.9492  0.7109 -2.6918
  660MOL0     H91062   7.315   9.858  11.108  1.3354 -0.9442 -0.3641
  660MOL0     H91063   7.135   9.966  11.029 -0.4694 -1.8118  1.4500
  660MOL0     H91064   5.890  10.763  10.532  1.4164  1.2072 -1.1451
  660MOL0     H91065   5.686  10.866  10.643 -1.0727  2.6951 -4.7264
  660MOL0     H91066   5.573  11.461  10.639 -2.9102 -1.4990 -2.2800
  660MOL0     H91067   5.457  11.616  10.756  0.7093 -1.3176 -2.1220
  660MOL0     H91068   5.098  11.444  10.977 -0.5719 -0.6643 -0.0435
  660MOL0     H91069   5.170  11.511  11.127  1.6814 -2.7715 -0.7593
  660MOL0     H91070   4.945  11.600  11.043 -1.1544  1.5608 -0.4298
  660MOL0     H91071   5.051  11.677  10.914  1.1705  1.7971  0.2482
  660MOL0     H91072   5.163  11.805  11.083 -0.6079  0.7462  0.9451
  660MOL0     H91073   4.989  11.839  11.057 -0.5903  1.1297  2.8840
  660MOL0     H91074   4.948  11.697  11.253  0.4787 -0.4088 -0.2245
  660MOL0     H91075   5.028  11.860  11.292 -0.3215 -0.1530  0.9213
  660MOL0     H91076   5.292  11.554  11.444  2.8163  0.0882 -3.5536
  660MOL0     H91077   5.304  11.328  11.032 -2.0098 -0.6117 -0.3706
  660MOL0     H91078   5.332  11.080  10.957 -0.8147  0.4618 -0.2910
  660MOL0     H91079   5.475  11.036  10.867 -1.1116 -1.4156  1.5943
  660MOL0     H91080   5.482  11.110  11.034  0.6663  0.2257 -1.3384
  661MOL0     O91081   2.550   1.752   4.866 -0.2378 -0.2228  0.6897
  661MOL0     C91082   2.441   1.793   4.919 -0.2496  0.8147 -0.1116
  661MOL0     O91083   2.426   1.918   4.982  0.0269 -0.2427 -0.6001
  661MOL0     C91084   2.521   2.023   4.976  0.3897 -0.0409 -0.0805
  661MOL0     C91085   2.490   2.156   4.931 -0.3911 -0.4145 -0.0040
  661MOL0     C91086   2.584   2.260   4.948 -0.6378 -0.4931  0.7345
  661MOL0     C91087   2.708   2.242   5.008  0.2594 -0.0068 -0.6574
  661MOL0     O91088   2.812   2.329   5.025 -0.1133  0.4240  0.9284
  661MOL0     C91089   2.815   2.463   4.974 -0.4546  0.6176 -0.4134
  661MOL0     C91090   2.755   2.563   5.067  0.6006  0.4519  0.0718
  661MOL0     C91091   2.832   2.572   5.194 -0.8671  0.4219  0.4784
  661MOL0     C91092   2.765   2.665   5.289 -0.1719 -0.0060 -0.5664
  661MOL0     C91093   2.865   2.707   5.413 -0.5987  0.5423  0.2056
  661MOL0     C91094   2.815   2.632   5.544  0.0055  0.4290  0.0197
  661MOL0     C91095   2.887   2.690   5.675 -0.4944 -0.5185  1.5394
  661MOL0     C91096   2.818   2.822   5.714 -0.1326  1.1770  0.2709
  661MOL0     N91097   2.880   2.868   5.836  0.8590 -0.6184  0.6718
  661MOL0     C91098   2.870   2.827   5.959 -0.3899 -0.2380 -0.1797
  661MOL0     C91099   2.948   2.902   6.040 -0.9167  0.4502  0.3214
  661MOL0     C91100   2.955   2.870   6.182 -0.0084  0.4110  0.1138
  661MOL0     C91101   2.886   2.967   6.280  0.2252 -0.5790  0.9567
  661MOL0     C91102   2.896   2.917   6.425 -0.5203  0.0501 -0.7644
  661MOL0     C91103   2.763   2.851   6.478  0.5785 -0.3134  0.7647
  661MOL0     O91104   2.759   2.839   6.618 -0.5035  0.2618 -0.8958
  661MOL0     C91105   2.655   2.779   6.686  0.9984  0.1499  0.5333
  661MOL0     C91106   2.541   2.720   6.627 -0.3940 -0.3477 -0.9025
  661MOL0     C91107   2.449   2.643   6.701 -1.0555 -1.2814 -0.0683
  661MOL0     C91108   2.344   2.572   6.617  0.0038 -0.3619 -0.2806
  661MOL0     C91109   2.486   2.615   6.838 -0.4948  0.4274 -0.8747
  661MOL0     C91110   2.409   2.523   6.922 -0.5846  0.8156  0.6874
  661MOL0     O91111   2.470   2.394   6.960  0.3222 -0.2918 -0.2468
  661MOL0     C91112   2.402   2.310   7.043 -0.0243 -0.6625  0.4799
  661MOL0     C91113   2.480   2.242   7.130  0.3816  0.7515 -0.4574
  661MOL0     C91114   2.422   2.146   7.217 -0.1591  0.1993 -0.1305
  661MOL0     C91115   2.277   2.131   7.216 -0.0966  0.2185  0.1918
  661MOL0     O91116   2.204   2.069   7.317  0.0958 -0.6849  0.6859
  661MOL0     C91117   2.263   1.982   7.414 -0.0518  0.3020 -1.2199
  661MOL0     C91118   2.160   1.886   7.472  0.1634  0.8530  0.2542
  661MOL0     C91119   2.162   1.846   7.621 -0.0497  0.8843  0.0745
  661MOL0     C91120   2.083   1.951   7.707 -0.3244  0.5702  0.2369
  661MOL0     C91121   2.121   1.940   7.844  0.7294  0.3998 -0.4238
  661MOL0     C91122   2.127   2.075   7.924 -0.2662 -0.1123 -0.2819
  661MOL0     C91123   2.111   2.066   8.074 -0.0345  0.2963 -0.3396
  661MOL0     C91124   2.241   2.008   8.119 -0.8178  0.7424 -0.3278
  661MOL0    Cl91125   2.213   1.853   8.189 -0.1671  0.1406 -0.0735
  661MOL0     C91126   2.204   2.196   7.114 -0.1506  0.3606  0.5897
  661MOL0     C91127   2.264   2.289   7.030  0.4530  0.3375  0.0019
  661MOL0     O91128   2.301   2.559   6.954  0.0588 -0.6363  1.3250
  661MOL0     C91129   2.602   2.669   6.896  0.4080  0.0825 -0.1725
  661MOL0     C91130   2.677   2.757   6.821  0.0729  0.4327 -0.1930
  661MOL0     N91131   3.010   2.993   5.964  0.3617 -0.3550 -0.2299
  661MOL0     N91132   2.965   2.969   5.845 -0.2653 -0.2596  0.1078
  661MOL0     C91133   2.737   2.113   5.050  0.4828  0.4849 -0.2501
  661MOL0     C91134   2.650   2.012   5.032  0.7043  0.4703 -0.6785
  661MOL0     C91135   2.314   1.708   4.904 -1.0158 -0.0553  0.1015
  661MOL0     C91136   2.201   1.748   4.982 -0.6796  0.0422 -0.0683
  661MOL0     C91137   2.091   1.667   4.987  0.3163 -0.1265  1.2383
  661MOL0     C91138   2.085   1.555   4.907 -0.2110  0.3785  0.0952
  661MOL0     O91139   1.974   1.472   4.907 -0.4425 -0.0489 -0.2501
  661MOL0     C91140   1.941   1.408   5.033  0.7391 -0.0773 -0.2205
  661MOL0     C91141   2.012   1.276   5.062  0.2440 -0.7547  0.5284
  661MOL0     C91142   1.961   1.156   4.979  1.5100  0.0808 -0.1119
  661MOL0     C91143   2.027   1.142   4.847 -0.0386 -0.3814 -0.1391
  661MOL0     C91144   1.960   1.050   4.757  0.4936 -0.0197 -0.3716
  661MOL0     C91145   1.891   0.984   4.684 -0.0618 -0.1064  0.1153
  661MOL0     C91146   2.193   1.515   4.829 -0.4924 -0.5050  0.4500
  661MOL0     C91147   2.308   1.594   4.826  0.3600 -0.1137  0.0419
  661MOL0     C91148   2.422   1.543   4.727 -0.3323 -0.3635 -0.4248
  661MOL0     H91149   2.400   2.165   4.871 -0.5051 -2.9987 -0.3421
  661MOL0     H91150   2.548   2.356   4.911 -0.5090 -1.4332 -2.0479
  661MOL0     H91151   2.762   2.474   4.879  1.2193  0.5318 -1.4053
  661MOL0     H91152   2.920   2.486   4.950 -0.0950 -1.7618 -1.4479
  661MOL0     H91153   2.756   2.654   5.008 -0.8091  0.4789  0.0673
  661MOL0     H91154   2.651   2.535   5.084  0.7296 -0.0759  0.0180
  661MOL0     H91155   2.850   2.475   5.241  1.9768 -1.9154 -4.6227
  661MOL0     H91156   2.929   2.615   5.168 -0.0234 -2.4986 -1.7524
  661MOL0     H91157   2.752   2.766   5.248  2.2752  0.8648  0.6228
  661MOL0     H91158   2.673   2.626   5.333 -0.2281  2.6324  1.9726
  661MOL0     H91159   2.844   2.813   5.432 -2.5667  0.3158 -0.5136
  661MOL0     H91160   2.969   2.693   5.382 -1.1681  0.9865 -2.0783
  661MOL0     H91161   2.709   2.651   5.562  0.4506  0.2447  3.5705
  661MOL0     H91162   2.851   2.532   5.517 -0.1357  0.6100 -0.8772
  661MOL0     H91163   2.994   2.705   5.661 -0.8596  0.5455 -0.5162
  661MOL0     H91164   2.874   2.626   5.763  0.2103 -0.4791  1.6755
  661MOL0     H91165   2.831   2.905   5.644 -0.5354  1.0259  0.0120
  661MOL0     H91166   2.713   2.793   5.727 -0.5843  1.8583 -1.5215
  661MOL0     H91167   2.796   2.753   5.989 -1.0256  0.0212 -1.0941
  661MOL0     H91168   3.062   2.862   6.202  0.3094  3.3848  0.0346
  661MOL0     H91169   2.902   2.775   6.183  0.4676  0.1461  1.2287
  661MOL0     H91170   2.920   3.070   6.271 -0.9154 -0.3321 -1.4402
  661MOL0     H91171   2.779   2.961   6.254  0.1767 -3.7457  1.4872
  661MOL0     H91172   2.976   2.843   6.426  1.7019  2.2800 -1.9249
  661MOL0     H91173   2.920   3.004   6.488  0.9296  0.2437 -1.5468
  661MOL0     H91174   2.679   2.915   6.451 -0.6652 -1.7786  0.9842
  661MOL0     H91175   2.755   2.753   6.429  0.9651  0.8163 -1.7170
  661MOL0     H91176   2.523   2.754   6.525 -1.6197  3.9246  0.5050
  661MOL0     H91177   2.265   2.532   6.682 -0.6741  2.1922  0.5842
  661MOL0     H91178   2.398   2.488   6.572 -1.3286 -1.4997  0.1428
  661MOL0     H91179   2.294   2.629   6.538 -0.7909 -0.1511  0.3565
  661MOL0     H91180   2.587   2.253   7.120  0.2577  0.0559 -4.0707
  661MOL0     H91181   2.466   2.095   7.302 -2.1832 -0.1604  0.7540
  661MOL0     H91182   2.356   1.936   7.377 -0.1013 -0.6451 -0.2392
  661MOL0     H91183   2.298   2.039   7.501 -1.0063 -0.1468 -0.5244
  661MOL0     H91184   2.058   1.919   7.453 -0.9608 -2.0257  0.8169
  661MOL0     H91185   2.162   1.793   7.414 -0.7858  2.0469 -1.7861
  661MOL0     H91186   2.268   1.847   7.647  0.2950  0.4692 -1.2106
  661MOL0     H91187   2.126   1.743   7.632 -0.4956  0.7969 -1.7979
  661MOL0     H91188   1.976   1.949   7.687 -0.1771 -2.3643 -0.7488
  661MOL0     H91189   2.124   2.045   7.669  2.2877 -0.3509  0.5906
  661MOL0     H91190   2.049   1.877   7.898  1.5891  1.1756  1.7635
  661MOL0     H91191   2.211   1.878   7.850  1.2580  1.2224  0.5053
  661MOL0     H91192   2.041   2.132   7.888  0.2314  0.8858  0.0688
  661MOL0     H91193   2.223   2.123   7.905  1.8656 -3.0178  2.1306
  661MOL0     H91194   2.026   2.002   8.102  2.0176 -1.5667  2.0912
  661MOL0     H91195   2.097   2.166   8.118  2.6931  0.2456  0.8488
  661MOL0     H91196   2.283   2.069   8.200  3.9891 -1.1740 -1.0216
  661MOL0     H91197   2.322   2.007   8.045 -0.9919 -1.6863 -0.5677
  661MOL0     H91198   2.096   2.181   7.120  0.0396 -1.6772 -0.2530
  661MOL0     H91199   2.203   2.340   6.957  1.2488  1.1847 -0.0905
  661MOL0     H91200   2.638   2.639   6.994  1.5718  0.5860 -0.4267
  661MOL0     H91201   2.771   2.780   6.871 -0.5748  0.9284  0.8190
  661MOL0     H91202   2.835   2.096   5.095  0.2743 -3.1647 -0.8445
  661MOL0     H91203   2.685   1.914   5.065 -0.7177  0.0845 -0.2535
  661MOL0     H91204   2.196   1.829   5.055  1.4247  1.5634 -1.4933
  661MOL0     H91205   2.003   1.686   5.048 -1.4315 -0.7679 -0.9615
  661MOL0     H91206   1.972   1.473   5.116 -1.3785 -0.2273  0.7549
  661MOL0     H91207   1.832   1.396   5.031  0.5558  1.1071 -3.4454
  661MOL0     H91208   1.999   1.252   5.168 -2.2614 -0.3515  0.3565
  661MOL0     H91209   2.118   1.295   5.040 -0.2494 -1.8871 -3.5904
  661MOL0     H91210   1.981   1.070   5.043 -0.6750 -0.6419 -0.3208
  661MOL0     H91211   1.852   1.156   4.979  1.5011 -0.3353  0.9002
  661MOL0     H91212   2.130   1.108   4.865 -0.1636 -0.5070  0.3627
  661MOL0     H91213   2.028   1.244   4.808  0.7393  0.1908  1.3184
  661MOL0     H91214   1.825   0.921   4.628 -1.0860 -0.8363  2.0666
  661MOL0     H91215   2.182   1.427   4.766 -1.2060  1.3123 -2.1357
  661MOL0     H91216   2.387   1.447   4.687  1.7743 -1.3708  0.0248
  661MOL0     H91217   2.440   1.619   4.651 -1.3369  0.0162 -0.3031
  661MOL0     H91218   2.510   1.525   4.790 -0.8418  0.8139  0.6793
  662MOL0     O91219   8.490  11.412   2.311  0.1410  0.4679 -0.0790
  662MOL0     C91220   8.602  11.359   2.309  0.0799 -0.6757  0.2081
  662MOL0     O91221   8.633  11.233   2.360  0.0571 -0.5054  1.4217
  662MOL0     C91222   8.534  11.153   2.410  0.2510  0.1949 -0.0717
  662MOL0     C91223   8.442  11.201   2.507  0.4348 -0.8076  0.8410
  662MOL0     C91224   8.355  11.117   2.573 -0.9434 -0.4227  0.5617
  662MOL0     C91225   8.347  10.981   2.548 -0.7482  0.3490  1.1593
  662MOL0     O91226   8.258  10.887   2.609  0.2526 -0.3123  0.0717
  662MOL0     C91227   8.158  10.935   2.702  0.2446 -0.8157 -0.8763
  662MOL0     C91228   8.033  10.839   2.723 -0.2688  0.0990 -1.1334
  662MOL0     C91229   8.082  10.710   2.791  0.2473 -0.8330 -0.2675
  662MOL0     C91230   7.975  10.618   2.849  0.1302  0.2518 -0.2057
  662MOL0     C91231   8.039  10.492   2.921 -0.4907  0.3191 -0.5407
  662MOL0     C91232   7.928  10.403   2.983 -1.0642  0.0878 -0.6548
  662MOL0     C91233   7.993  10.299   3.075  0.2635 -0.0293  0.6302
  662MOL0     C91234   8.068  10.349   3.193  0.6422  0.0512  0.5729
  662MOL0     N91235   7.980  10.430   3.279  0.3730  0.8052  0.1767
  662MOL0     C91236   7.956  10.566   3.272 -0.6258  0.5880 -0.0059
  662MOL0     C91237   7.854  10.585   3.353  0.5621  0.0958  1.0988
  662MOL0     C91238   7.778  10.708   3.364  0.3460  0.1592 -0.5210
  662MOL0     C91239   7.700  10.720   3.489 -0.7001  0.4016  0.0660
  662MOL0     C91240   7.602  10.827   3.479  0.2668 -0.0335 -0.7214
  662MOL0     C91241   7.531  10.832   3.608 -0.2374  0.1393 -0.1437
  662MOL0     O91242   7.614  10.856   3.724 -0.4562  0.0751  0.1369
  662MOL0     C91243   7.556  10.835   3.853 -1.0444 -0.3369 -0.5678
  662MOL0     C91244   7.639  10.864   3.955 -0.1000  0.4656 -0.0722
  662MOL0     C91245   7.599  10.857   4.091 -0.4776  0.4857  0.1405
  662MOL0     C91246   7.704  10.912   4.185 -0.1692 -0.1482  0.4162
  662MOL0     C91247   7.465  10.806   4.121  0.5781  0.1584 -0.4270
  662MOL0     C91248   7.423  10.770   4.258 -0.3103 -0.8215 -0.6679
  662MOL0     O91249   7.295  10.787   4.297 -0.6767  0.1969 -0.5101
  662MOL0     C91250   7.254  10.773   4.427 -0.0037  0.3967  0.3127
  662MOL0     C91251   7.155  10.675   4.459 -0.3527 -0.2663  0.0805
  662MOL0     C91252   7.106  10.661   4.587 -0.0947 -0.4926 -0.7267
  662MOL0     C91253   7.138  10.751   4.686  0.8760  0.3100 -0.4163
  662MOL0     O91254   7.063  10.761   4.806  0.0150 -0.0843 -0.3775
  662MOL0     C91255   7.123  10.688   4.909  0.3464  0.2304  0.0609
  662MOL0     C91256   7.237  10.770   4.970  0.5982  0.2959  0.1668
  662MOL0     C91257   7.215  10.902   5.040 -0.1577 -0.1948  0.0432
  662MOL0     C91258   7.105  10.901   5.146 -0.3781 -0.5825  0.9335
  662MOL0     C91259   7.131  10.999   5.274  0.4793 -0.2985  0.3671
  662MOL0     C91260   7.106  11.147   5.234 -0.2722  0.0363  0.5222
  662MOL0     C91261   6.952  11.188   5.206 -0.8847  0.1337  0.4164
  662MOL0     C91262   6.897  11.267   5.321 -0.3911 -0.3976 -0.1003
  662MOL0    Cl91263   6.747  11.328   5.256  0.0946  0.2303 -0.1266
  662MOL0     C91264   7.229  10.846   4.661 -0.4478  0.0326 -0.1382
  662MOL0     C91265   7.293  10.853   4.531  0.1184  0.9402  0.3361
  662MOL0     O91266   7.512  10.718   4.328  0.2160  0.1517 -0.1663
  662MOL0     C91267   7.382  10.768   4.012  0.4531 -0.4109 -0.1600
  662MOL0     C91268   7.431  10.781   3.879  0.4044  0.4252  0.1712
  662MOL0     N91269   7.833  10.468   3.425  1.3518 -0.0775 -0.4010
  662MOL0     N91270   7.912  10.377   3.382  0.1530  0.5414  0.9538
  662MOL0     C91271   8.423  10.929   2.444  0.1685  0.1412 -0.1205
  662MOL0     C91272   8.523  11.012   2.379  0.2802  0.0053  0.4356
  662MOL0     C91273   8.710  11.439   2.244  0.1845  0.2778 -0.0412
  662MOL0     C91274   8.662  11.519   2.132 -0.1739  0.1643 -0.4122
  662MOL0     C91275   8.749  11.602   2.058  0.1482 -0.1016  0.0160
  662MOL0     C91276   8.890  11.605   2.093  0.4198 -0.3551 -0.1381
  662MOL0     O91277   8.980  11.679   2.023 -0.2535  0.0556 -0.3497
  662MOL0     C91278   8.956  11.820   2.045 -0.0244 -0.1137 -0.4717
  662MOL0     C91279   9.075  11.897   2.116 -0.2924  0.1954 -0.0827
  662MOL0     C91280   9.195  11.910   2.013 -0.8040 -0.9121 -0.1946
  662MOL0     C91281   9.166  12.034   1.914  0.5980 -0.2809 -0.0822
  662MOL0     C91282   9.291  12.061   1.840  0.3693  0.3918  0.2763
  662MOL0     C91283   9.395  12.091   1.794 -0.2882 -0.5234  1.1608
  662MOL0     C91284   8.931  11.531   2.199 -0.1016  1.0609  0.0648
  662MOL0     C91285   8.849  11.443   2.273 -0.1170 -0.0813  0.1132
  662MOL0     C91286   8.901  11.376   2.392  0.1753  0.3631 -0.0275
  662MOL0     H91287   8.433  11.306   2.535 -2.7366 -0.7748  0.0989
  662MOL0     H91288   8.291  11.164   2.647 -1.2255 -0.6216  0.4462
  662MOL0     H91289   8.120  11.030   2.664  1.6150 -0.3403 -1.1113
  662MOL0     H91290   8.203  10.956   2.799 -2.3410 -1.2413  0.5046
  662MOL0     H91291   7.954  10.879   2.786  1.5412  0.3059  1.1407
  662MOL0     H91292   7.988  10.810   2.627 -2.8602 -1.1640  0.3504
  662MOL0     H91293   8.128  10.643   2.718  2.9525 -3.7965  3.6987
  662MOL0     H91294   8.160  10.730   2.865  1.0776 -1.2434 -1.0202
  662MOL0     H91295   7.914  10.673   2.921 -1.2588  3.2867 -3.4195
  662MOL0     H91296   7.903  10.574   2.779  0.3044 -0.1839 -0.1134
  662MOL0     H91297   8.102  10.528   3.003 -3.9012 -1.1094  3.0389
  662MOL0     H91298   8.099  10.434   2.850 -1.8178  1.1269 -2.3954
  662MOL0     H91299   7.859  10.461   3.045 -1.2835 -1.1068  0.2456
  662MOL0     H91300   7.877  10.350   2.903 -1.4008 -0.1046 -0.3149
  662MOL0     H91301   8.058  10.236   3.014  0.4402 -0.5185  1.3155
  662MOL0     H91302   7.916  10.242   3.129  0.5492 -2.5070 -1.3856
  662MOL0     H91303   8.095  10.261   3.253 -1.8332 -2.2657 -1.4162
  662MOL0     H91304   8.156  10.412   3.178  1.1357 -0.3938  1.4738
  662MOL0     H91305   8.024  10.630   3.218 -0.6106 -0.2429 -1.0163
  662MOL0     H91306   7.713  10.711   3.276  0.3446 -2.0682 -0.6510
  662MOL0     H91307   7.844  10.794   3.346 -2.8539  3.1222  0.8391
  662MOL0     H91308   7.650  10.623   3.502  0.4445 -0.1750  0.3931
  662MOL0     H91309   7.774  10.733   3.569  0.4410 -0.6831 -0.7810
  662MOL0     H91310   7.638  10.926   3.451 -1.1780  1.4307  2.2425
  662MOL0     H91311   7.535  10.796   3.399  0.2445 -1.2761 -0.2429
  662MOL0     H91312   7.447  10.902   3.607  0.1142  0.5708 -2.3460
  662MOL0     H91313   7.499  10.729   3.629  0.8337 -0.2810 -0.5318
  662MOL0     H91314   7.740  10.892   3.926  0.2461  1.6318  2.0381
  662MOL0     H91315   7.777  10.842   4.227  0.4780  1.9877  3.1617
  662MOL0     H91316   7.647  10.960   4.265  0.1714  2.5588 -0.8434
  662MOL0     H91317   7.760  10.999   4.148  0.1540 -0.3103  0.5142
  662MOL0     H91318   7.108  10.610   4.385  1.2754  2.0009 -3.1750
  662MOL0     H91319   7.026  10.595   4.620 -0.4431 -0.4031 -1.3864
  662MOL0     H91320   7.057  10.671   4.994  1.4794  1.2638  1.2104
  662MOL0     H91321   7.148  10.586   4.879  2.4135  0.6371  0.2265
  662MOL0     H91322   7.294  10.705   5.037  0.6717 -0.3225 -0.4738
  662MOL0     H91323   7.310  10.790   4.890  0.4847 -0.0078 -0.0151
  662MOL0     H91324   7.179  10.974   4.967 -1.0878  0.4526  1.1114
  662MOL0     H91325   7.308  10.946   5.078 -1.9361  1.5012  2.8247
  662MOL0     H91326   7.101  10.801   5.189  0.0959 -1.0393 -0.0542
  662MOL0     H91327   7.012  10.925   5.095  1.2508 -0.0424 -1.9784
  662MOL0     H91328   7.063  10.966   5.354 -0.2969 -4.6313 -1.8176
  662MOL0     H91329   7.232  10.981   5.312  0.3724  0.6938  1.1758
  662MOL0     H91330   7.175  11.163   5.151 -2.0351 -0.4090 -1.0895
  662MOL0     H91331   7.164  11.200   5.311  1.8052 -1.0807 -0.1874
  662MOL0     H91332   6.887  11.108   5.171 -1.3234  2.2872 -4.5423
  662MOL0     H91333   6.962  11.264   5.128 -1.2081 -1.3118 -1.0866
  662MOL0     H91334   6.957  11.354   5.347 -0.8414 -0.2983  0.6706
  662MOL0     H91335   6.898  11.207   5.413 -0.2135 -2.2016 -1.2359
  662MOL0     H91336   7.248  10.932   4.725 -0.0448 -1.1422  1.3701
  662MOL0     H91337   7.369  10.928   4.510  0.7795  0.1102 -0.2949
  662MOL0     H91338   7.276  10.751   4.025  0.1146 -0.4454 -2.5311
  662MOL0     H91339   7.375  10.747   3.792  1.9212 -0.4349 -0.5151
  662MOL0     H91340   8.407  10.824   2.424 -1.0592 -0.1688  2.1731
  662MOL0     H91341   8.592  10.962   2.311  0.8569 -2.3262  2.5910
  662MOL0     H91342   8.559  11.515   2.099 -0.2905  1.4777 -0.2819
  662MOL0     H91343   8.706  11.670   1.986  0.9788  0.1350 -0.2665
  662MOL0     H91344   8.929  11.864   1.948  1.5827 -1.4768 -1.6065
  662MOL0     H91345   8.868  11.847   2.104 -0.7499  1.3278 -2.1434
  662MOL0     H91346   9.118  11.847   2.203  4.1710 -1.8793 -3.0781
  662MOL0     H91347   9.050  12.000   2.142  1.6570  0.3858  1.2203
  662MOL0     H91348   9.295  11.915   2.056 -0.7697 -0.9557 -0.2689
  662MOL0     H91349   9.201  11.816   1.957 -2.2862 -2.0547  1.4641
  662MOL0     H91350   9.135  12.127   1.961 -2.5868  0.3911 -3.0706
  662MOL0     H91351   9.078  11.997   1.860  0.7072 -1.6956  0.6580
  662MOL0     H91352   9.493  12.115   1.760 -0.0521 -2.8926 -0.1011
  662MOL0     H91353   9.036  11.542   2.224  0.0497 -1.6356  0.8800
  662MOL0     H91354   8.953  11.292   2.345 -0.0885 -0.4684  1.1046
  662MOL0     H91355   8.979  11.424   2.452 -0.1147 -0.7836  1.3424
  662MOL0     H91356   8.833  11.345   2.472  1.1200  0.5347  0.8756
  663MOL0     O91357   7.732  10.938   0.903  0.1098  0.5644  0.8521
  663MOL0     C91358   7.849  10.933   0.866 -0.0180 -0.5708 -0.8397
  663MOL0     O91359   7.908  10.827   0.811 -0.1064 -0.2847  0.0305
  663MOL0     C91360   7.848  10.703   0.823  0.2520 -0.3471  0.5011
  663MOL0     C91361   7.744  10.680   0.737 -0.6488  0.2490 -1.2705
  663MOL0     C91362   7.672  10.564   0.750  0.1685 -0.6940  0.0559
  663MOL0     C91363   7.719  10.458   0.834 -0.3280  0.0789 -0.0036
  663MOL0     O91364   7.661  10.335   0.846  0.2831 -0.1516  0.6455
  663MOL0     C91365   7.522  10.321   0.820 -0.2021 -0.1622  0.3547
  663MOL0     C91366   7.432  10.392   0.926 -0.4465 -0.4068  0.1169
  663MOL0     C91367   7.285  10.369   0.901  0.2594  0.2342  0.2329
  663MOL0     C91368   7.202  10.437   1.006  0.2728  0.0679  0.3364
  663MOL0     C91369   7.202  10.591   1.014 -0.3673  0.0487  0.3977
  663MOL0     C91370   7.232  10.669   0.876 -0.2515 -0.0190 -0.9912
  663MOL0     C91371   7.221  10.824   0.896  0.2500 -0.2633 -0.2190
  663MOL0     C91372   7.302  10.884   1.023 -0.2495  0.0215  0.2561
  663MOL0     N91373   7.307  11.028   1.011  0.7865 -0.1053  0.6407
  663MOL0     C91374   7.366  11.094   0.906 -0.1419  0.1875 -0.2637
  663MOL0     C91375   7.351  11.224   0.940 -0.6412  0.4988 -0.6259
  663MOL0     C91376   7.399  11.346   0.857 -0.7301 -0.5183 -0.0485
  663MOL0     C91377   7.389  11.483   0.930  0.3940 -0.4141  0.5301
  663MOL0     C91378   7.484  11.575   0.864 -0.6774 -0.0103  0.1747
  663MOL0     C91379   7.620  11.575   0.943  0.4332 -0.5621 -0.4206
  663MOL0     O91380   7.722  11.649   0.870 -0.1086 -0.6436 -1.1013
  663MOL0     C91381   7.782  11.593   0.764  0.0692  0.4334 -0.0200
  663MOL0     C91382   7.845  11.669   0.667 -0.0235 -0.3999  0.5746
  663MOL0     C91383   7.920  11.614   0.559 -0.8332 -0.3124 -0.2639
  663MOL0     C91384   7.968  11.725   0.466  0.0254 -0.3276  0.3128
  663MOL0     C91385   7.943  11.473   0.552  0.9107  0.0609  0.8675
  663MOL0     C91386   7.999  11.412   0.435  0.6161  0.0573 -0.2944
  663MOL0     O91387   8.042  11.282   0.458  0.3461 -0.8335  0.4379
  663MOL0     C91388   8.138  11.231   0.373  0.2548  0.3546 -0.0290
  663MOL0     C91389   8.232  11.304   0.306  0.0105  0.4186  0.1684
  663MOL0     C91390   8.316  11.245   0.223  0.1942 -0.2557  0.0920
  663MOL0     C91391   8.317  11.112   0.200  0.3684 -0.4132  0.1276
  663MOL0     O91392   8.419  11.062   0.115 -0.1244  0.8793  0.0648
  663MOL0     C91393   8.455  11.131  -0.003  0.2566 -0.1542 -0.4671
  663MOL0     C91394   8.516  11.037  -0.109  0.4975  0.5732 -0.1121
  663MOL0     C91395   8.638  10.952  -0.067 -0.5401 -0.7647 -0.4322
  663MOL0     C91396   8.764  10.989  -0.150  0.1897 -0.1171 -0.3732
  663MOL0     C91397   8.877  10.898  -0.115 -0.1587 -0.2864  0.4136
  663MOL0     C91398   8.952  10.917   0.021 -0.2866 -0.5845 -0.4483
  663MOL0     C91399   9.074  10.826   0.048 -0.4556 -0.2369 -0.2082
  663MOL0     C91400   9.201  10.855  -0.033  0.0936  0.2676 -0.3466
  663MOL0    Cl91401   9.300  10.984   0.030  0.1636  0.2404 -0.2066
  663MOL0     C91402   8.223  11.028   0.255 -1.0742  0.1338  0.7394
  663MOL0     C91403   8.135  11.084   0.343  0.6813 -0.8023 -0.4293
  663MOL0     O91404   7.991  11.469   0.326  0.0283  0.5711  0.1831
  663MOL0     C91405   7.860  11.394   0.636 -0.3847  0.2117 -1.3828
  663MOL0     C91406   7.784  11.451   0.742 -0.3017 -0.4212  0.5174
  663MOL0     N91407   7.265  11.228   1.050  0.3790  0.7808 -0.7246
  663MOL0     N91408   7.237  11.109   1.097  0.2935  0.5751 -0.4873
  663MOL0     C91409   7.839  10.476   0.907 -0.6002 -0.7180 -0.0875
  663MOL0     C91410   7.894  10.603   0.901 -0.4648 -0.2475 -0.4711
  663MOL0     C91411   7.920  11.055   0.884 -0.7457  0.4121  0.6624
  663MOL0     C91412   8.019  11.077   0.792  0.0357  0.1311 -0.2427
  663MOL0     C91413   8.116  11.179   0.816 -1.0596  0.1657 -0.2436
  663MOL0     C91414   8.098  11.262   0.922 -0.3019  0.2196 -0.6587
  663MOL0     O91415   8.185  11.368   0.944  0.0429 -0.2412 -0.3018
  663MOL0     C91416   8.191  11.458   0.831  0.5715  0.4704 -0.8267
  663MOL0     C91417   8.215  11.600   0.887  0.1236 -0.6283 -0.5137
  663MOL0     C91418   8.110  11.674   0.965 -0.6458 -0.7683  0.3168
  663MOL0     C91419   8.153  11.800   1.032  0.0030 -0.9791 -0.4234
  663MOL0     C91420   8.194  11.900   0.934  0.1875 -0.2773 -0.2176
  663MOL0     C91421   8.241  11.980   0.851  0.9296 -0.9411 -0.4118
  663MOL0     C91422   7.985  11.247   1.004 -0.1620 -0.6696  0.4407
  663MOL0     C91423   7.892  11.150   0.981  0.1212  0.3028 -0.4504
  663MOL0     C91424   7.778  11.147   1.083  0.1402  0.8149 -1.0051
  663MOL0     H91425   7.706  10.753   0.667  0.3144  1.3071 -0.7062
  663MOL0     H91426   7.587  10.549   0.684  0.4472 -2.5037  0.0586
  663MOL0     H91427   7.502  10.214   0.814 -0.0728 -0.1534 -0.3466
  663MOL0     H91428   7.491  10.360   0.722 -0.8228  0.1327  0.6638
  663MOL0     H91429   7.459  10.330   1.012  1.8521  2.4614  1.6537
  663MOL0     H91430   7.464  10.496   0.936  0.8741 -0.3199 -3.5690
  663MOL0     H91431   7.251  10.394   0.800 -1.7701 -2.1863  0.1999
  663MOL0     H91432   7.258  10.263   0.915  0.5979  0.0692 -0.3495
  663MOL0     H91433   7.099  10.414   0.976  0.4307  2.9148 -3.0966
  663MOL0     H91434   7.231  10.392   1.101 -1.1809 -2.8654 -0.4857
  663MOL0     H91435   7.277  10.616   1.090 -1.8467 -0.2780  2.0362
  663MOL0     H91436   7.107  10.618   1.061  0.0380  2.0361  0.1713
  663MOL0     H91437   7.338  10.650   0.857  1.3617  3.3371  3.0203
  663MOL0     H91438   7.162  10.637   0.799  0.8494 -2.2580 -1.1268
  663MOL0     H91439   7.120  10.867   0.893  1.1997  2.2055  0.8057
  663MOL0     H91440   7.271  10.870   0.810 -1.8648  0.1418 -1.3139
  663MOL0     H91441   7.258  10.842   1.114 -1.6399 -0.9125 -0.7898
  663MOL0     H91442   7.400  10.836   1.024 -0.1268  0.0349 -2.5761
  663MOL0     H91443   7.429  11.055   0.826  0.5081  0.9347 -0.1350
  663MOL0     H91444   7.338  11.362   0.768 -0.2951  2.9847  0.1478
  663MOL0     H91445   7.502  11.322   0.831 -0.0332 -0.0857  2.0626
  663MOL0     H91446   7.285  11.508   0.906  0.7287  0.4108 -0.1024
  663MOL0     H91447   7.392  11.499   1.039  1.3899  2.3656  0.1687
  663MOL0     H91448   7.503  11.566   0.757  1.8549  5.0169 -0.1437
  663MOL0     H91449   7.440  11.675   0.871  2.1840  1.5792 -1.9876
  663MOL0     H91450   7.595  11.615   1.042 -2.6114 -0.5887 -1.0689
  663MOL0     H91451   7.647  11.475   0.977 -2.3346 -0.2872  3.3254
  663MOL0     H91452   7.852  11.776   0.683  2.6004 -0.3108 -0.7092
  663MOL0     H91453   7.952  11.823   0.512 -0.0560 -0.7756  1.2555
  663MOL0     H91454   7.910  11.715   0.373 -2.3312 -0.2406  1.6850
  663MOL0     H91455   8.076  11.723   0.447  0.1687 -3.6242  0.7928
  663MOL0     H91456   8.235  11.411   0.318 -1.6590  0.6127 -0.8848
  663MOL0     H91457   8.394  11.293   0.164 -1.2929 -1.0612 -2.7346
  663MOL0     H91458   8.372  11.189  -0.046 -0.0724  0.7531  1.2673
  663MOL0     H91459   8.526  11.213   0.013  1.7545 -1.5924  0.5695
  663MOL0     H91460   8.438  10.973  -0.151  0.2823  0.7165  0.0619
  663MOL0     H91461   8.541  11.106  -0.190  1.1756  0.6846  0.1828
  663MOL0     H91462   8.619  10.847  -0.089  1.2891 -1.0024 -1.0842
  663MOL0     H91463   8.656  10.969   0.040  3.1634 -0.4180 -0.9553
  663MOL0     H91464   8.785  11.097  -0.143 -1.2520  0.0769  2.9233
  663MOL0     H91465   8.724  10.971  -0.250 -0.1808 -1.8740  0.0653
  663MOL0     H91466   8.850  10.795  -0.139 -2.6139 -0.1158  2.1042
  663MOL0     H91467   8.941  10.943  -0.192 -0.2529 -0.6449  0.1199
  663MOL0     H91468   8.877  10.900   0.099 -1.5529  2.8534 -0.7453
  663MOL0     H91469   8.976  11.023   0.035  1.3436 -1.0745  0.7045
  663MOL0     H91470   9.048  10.722   0.031 -2.3819  0.2575 -0.4650
  663MOL0     H91471   9.095  10.825   0.155 -3.0529  1.1772  0.3833
  663MOL0     H91472   9.171  10.880  -0.135  1.5229 -1.3631 -1.2363
  663MOL0     H91473   9.271  10.770  -0.034  0.2933  0.4257 -1.4830
  663MOL0     H91474   8.221  10.922   0.232 -4.5517  0.4597 -1.1783
  663MOL0     H91475   8.066  11.015   0.390 -0.7433 -0.2987 -1.6838
  663MOL0     H91476   7.858  11.286   0.646 -3.1011  0.3972  2.2307
  663MOL0     H91477   7.722  11.376   0.790 -0.0060 -0.3700  0.9886
  663MOL0     H91478   7.887  10.397   0.965 -0.3263 -0.2823  0.2885
  663MOL0     H91479   7.978  10.638   0.960 -0.6122  0.2179 -0.5280
  663MOL0     H91480   8.025  11.014   0.705  1.6099  2.0857 -1.6591
  663MOL0     H91481   8.184  11.193   0.732  0.0416  2.5571  0.9379
  663MOL0     H91482   8.274  11.428   0.767  0.8246  0.9817 -0.7375
  663MOL0     H91483   8.094  11.460   0.779  0.4080  2.0411 -0.5061
  663MOL0     H91484   8.240  11.662   0.801 -0.3067 -0.6427 -0.6525
  663MOL0     H91485   8.302  11.588   0.951 -0.8585  1.3317  1.3111
  663MOL0     H91486   8.038  11.701   0.887  1.5689 -0.4429 -1.7451
  663MOL0     H91487   8.069  11.603   1.037  0.3446  1.2771  3.0662
  663MOL0     H91488   8.243  11.787   1.093  0.5041 -2.6003 -1.4303
  663MOL0     H91489   8.064  11.832   1.086  0.3930 -0.8862  0.1752
  663MOL0     H91490   8.263  12.051   0.775  1.7724 -3.1916 -2.3749
  663MOL0     H91491   7.973  11.315   1.087 -1.3632 -1.0636  0.6122
  663MOL0     H91492   7.772  11.239   1.142  0.3603  0.9390 -1.1787
  663MOL0     H91493   7.681  11.143   1.031  1.0992  1.7688 -2.9534
  663MOL0     H91494   7.789  11.052   1.137 -0.0245  1.6517  0.5477
  664MOL0     O91495   2.226   7.809   6.532 -0.2830 -0.9453 -0.1099
  664MOL0     C91496   2.255   7.721   6.455  0.2475  0.1572  0.8996
  664MOL0     O91497   2.256   7.579   6.481 -0.5916 -0.3302  0.3800
  664MOL0     C91498   2.195   7.535   6.594  0.2796 -0.2697 -0.3991
  664MOL0     C91499   2.075   7.459   6.575 -0.6212 -0.1422  0.5323
  664MOL0     C91500   2.026   7.387   6.682  0.1146 -0.0506  0.2735
  664MOL0     C91501   2.095   7.377   6.805  0.1372  0.1427  0.9770
  664MOL0     O91502   2.018   7.320   6.904 -0.3670  0.1225  1.0422
  664MOL0     C91503   2.058   7.361   7.033  0.6221  0.1028 -0.6105
  664MOL0     C91504   1.969   7.290   7.135  0.1641 -0.3419  0.1182
  664MOL0     C91505   2.009   7.325   7.284  0.4691 -0.0442 -0.5474
  664MOL0     C91506   1.943   7.229   7.388  0.3261  0.3977 -0.5234
  664MOL0     C91507   2.015   7.246   7.525  0.4185  0.1928 -0.9084
  664MOL0     C91508   1.924   7.161   7.612 -0.9532  0.7434 -0.2498
  664MOL0     C91509   1.974   7.159   7.760  0.1236  0.1472 -0.3351
  664MOL0     C91510   1.959   7.292   7.827 -0.0813 -0.2270  0.8606
  664MOL0     N91511   1.983   7.281   7.969 -0.1353 -0.5411  0.2184
  664MOL0     C91512   2.102   7.234   8.016  0.4450  0.5750  0.5973
  664MOL0     C91513   2.088   7.240   8.146 -0.1316 -0.2338 -0.1913
  664MOL0     C91514   2.203   7.201   8.241  0.0663 -0.9183 -0.9752
  664MOL0     C91515   2.287   7.325   8.292  0.1638 -0.2837 -0.2574
  664MOL0     C91516   2.394   7.267   8.387 -0.4002 -0.1563  0.3846
  664MOL0     C91517   2.532   7.336   8.387 -0.1968  0.0686  0.5956
  664MOL0     O91518   2.585   7.369   8.254  0.1857  0.0407  0.1757
  664MOL0     C91519   2.694   7.439   8.238  1.2610  0.5119  0.0003
  664MOL0     C91520   2.723   7.478   8.106  1.0487  0.5335  0.3460
  664MOL0     C91521   2.830   7.546   8.067 -0.1903  0.4564 -0.2606
  664MOL0     C91522   2.845   7.563   7.917  0.0953  0.4356  0.7819
  664MOL0     C91523   2.923   7.581   8.166  0.0437 -1.1468 -0.3650
  664MOL0     C91524   3.054   7.652   8.136  0.1303 -0.7948 -0.8613
  664MOL0     O91525   3.165   7.609   8.205  0.9261  0.1521 -0.2874
  664MOL0     C91526   3.292   7.636   8.166  0.0685 -0.7652 -0.1411
  664MOL0     C91527   3.386   7.651   8.271 -0.4635  0.0812  0.9872
  664MOL0     C91528   3.518   7.676   8.239  0.3605 -0.0768 -0.1150
  664MOL0     C91529   3.565   7.674   8.107  1.5211 -0.4793 -0.5561
  664MOL0     O91530   3.697   7.693   8.064  0.1143  0.3385  0.3543
  664MOL0     C91531   3.806   7.656   8.160  0.6935 -0.2016  0.5262
  664MOL0     C91532   3.941   7.687   8.098 -0.3885  0.2801  0.0284
  664MOL0     C91533   3.976   7.610   7.968 -0.0695  0.4031 -0.0002
  664MOL0     C91534   3.985   7.453   7.980 -0.3377  0.5466 -0.9552
  664MOL0     C91535   4.075   7.390   8.095 -0.1340  0.0872 -0.2085
  664MOL0     C91536   4.055   7.238   8.116  0.1591  1.0705  0.1544
  664MOL0     C91537   4.130   7.160   8.220 -0.1189 -0.4213  0.6516
  664MOL0     C91538   4.080   7.181   8.364  0.8373  0.0623 -0.7063
  664MOL0    Cl91539   4.179   7.073   8.463  0.0382 -0.0811 -0.0145
  664MOL0     C91540   3.475   7.663   8.005  0.3397 -0.2059 -0.6934
  664MOL0     C91541   3.341   7.638   8.030  0.0972 -0.1896  0.0776
  664MOL0     O91542   3.046   7.751   8.055 -0.1493  0.1342 -0.2868
  664MOL0     C91543   2.899   7.557   8.305  0.3166 -0.0365  0.3697
  664MOL0     C91544   2.785   7.484   8.344  0.2659 -1.0452  0.6897
  664MOL0     N91545   1.962   7.283   8.177 -0.3929  0.0868  0.6065
  664MOL0     N91546   1.901   7.313   8.070  0.4834 -0.8764  0.0355
  664MOL0     C91547   2.211   7.451   6.821 -0.3614  0.0557  0.1071
  664MOL0     C91548   2.264   7.523   6.712  0.0698 -0.3857  0.4405
  664MOL0     C91549   2.310   7.758   6.319 -0.3913  0.0900  1.3446
  664MOL0     C91550   2.398   7.869   6.304  1.0442  0.7572  0.8851
  664MOL0     C91551   2.475   7.872   6.187  0.2519 -0.3611  0.7810
  664MOL0     C91552   2.468   7.783   6.085 -0.0597  0.0424 -0.4559
  664MOL0     O91553   2.536   7.803   5.969 -0.3184 -0.2896  0.7177
  664MOL0     C91554   2.543   7.936   5.914 -0.0428 -0.1940 -0.0885
  664MOL0     C91555   2.416   7.982   5.841 -0.3540  0.3969  0.6165
  664MOL0     C91556   2.383   7.900   5.709  0.7618 -0.4510 -0.2026
  664MOL0     C91557   2.355   7.755   5.726  0.4624 -0.0544  0.6070
  664MOL0     C91558   2.327   7.708   5.592 -1.4709  0.2979 -0.6924
  664MOL0     C91559   2.287   7.663   5.489 -0.8780  0.6261  0.0310
  664MOL0     C91560   2.365   7.688   6.086 -0.9754 -0.8519  0.3444
  664MOL0     C91561   2.296   7.671   6.204  0.3883 -0.8121 -0.8536
  664MOL0     C91562   2.176   7.576   6.196 -0.0565  0.2834 -0.2795
  664MOL0     H91563   2.025   7.461   6.478 -2.4258 -1.1319  1.3769
  664MOL0     H91564   1.931   7.334   6.687  0.1927 -0.2329 -0.1620
  664MOL0     H91565   2.042   7.468   7.051 -1.0336 -0.1358 -0.5100
  664MOL0     H91566   2.159   7.332   7.063 -0.2059  0.5308  3.0863
  664MOL0     H91567   1.869   7.329   7.115  1.4047  1.6048 -3.0770
  664MOL0     H91568   1.979   7.184   7.112  0.2866 -0.5655  1.1594
  664MOL0     H91569   2.118   7.333   7.294  0.6271  0.4511 -2.4089
  664MOL0     H91570   1.979   7.429   7.301  1.7844 -0.0857  2.7967
  664MOL0     H91571   1.836   7.249   7.386  0.4644  1.6414  1.8043
  664MOL0     H91572   1.956   7.126   7.351  1.7601 -0.1435  1.3113
  664MOL0     H91573   2.015   7.350   7.560 -0.5127 -0.6234  1.7594
  664MOL0     H91574   2.119   7.212   7.529  0.1071 -0.8260  4.1973
  664MOL0     H91575   1.827   7.207   7.593 -1.1151 -0.5339 -2.9978
  664MOL0     H91576   1.919   7.061   7.567 -3.4453  0.3874  0.6575
  664MOL0     H91577   2.077   7.122   7.758 -0.1131 -1.6729  5.1732
  664MOL0     H91578   1.914   7.094   7.824  0.4682 -0.6952 -0.8498
  664MOL0     H91579   2.027   7.365   7.781 -0.6535  0.2343  0.7241
  664MOL0     H91580   1.854   7.321   7.816 -0.0845 -0.1581  1.0711
  664MOL0     H91581   2.181   7.201   7.950 -0.1092  3.6273 -1.8311
  664MOL0     H91582   2.264   7.121   8.198 -0.9507 -3.9236  2.6276
  664MOL0     H91583   2.158   7.162   8.333 -0.2280 -0.3423 -0.8681
  664MOL0     H91584   2.335   7.383   8.214  2.1606  0.9961  1.8185
  664MOL0     H91585   2.227   7.396   8.350  1.7849 -0.2861  1.5164
  664MOL0     H91586   2.365   7.248   8.491  2.4373  1.2851  1.5454
  664MOL0     H91587   2.416   7.164   8.356  0.3133 -0.1358  0.7963
  664MOL0     H91588   2.518   7.428   8.444 -0.0152 -1.0071  2.4319
  664MOL0     H91589   2.596   7.272   8.449  1.1972  2.9172  2.2876
  664MOL0     H91590   2.651   7.438   8.036  1.3952 -0.3044  0.4608
  664MOL0     H91591   2.754   7.519   7.873 -0.2415 -0.3686  2.2077
  664MOL0     H91592   2.922   7.502   7.870 -0.1557  3.7508 -4.8009
  664MOL0     H91593   2.859   7.667   7.888  2.9820  0.3148  1.4460
  664MOL0     H91594   3.357   7.639   8.375 -1.0638  4.1719  1.4372
  664MOL0     H91595   3.582   7.694   8.324 -0.8907 -0.2954  0.9024
  664MOL0     H91596   3.789   7.706   8.256  0.6729  1.6263 -0.3946
  664MOL0     H91597   3.809   7.547   8.173 -1.3390 -0.5670 -1.3888
  664MOL0     H91598   3.936   7.793   8.071 -2.8543  0.1838 -0.0479
  664MOL0     H91599   4.025   7.669   8.166 -1.0328 -2.1344  0.2875
  664MOL0     H91600   4.070   7.648   7.926 -0.0445 -0.2501 -0.5485
  664MOL0     H91601   3.897   7.624   7.894 -1.7089  1.4272  1.8622
  664MOL0     H91602   4.015   7.412   7.883 -0.6374 -0.4032 -0.6586
  664MOL0     H91603   3.883   7.420   8.001 -0.1509 -0.7458 -1.9626
  664MOL0     H91604   4.182   7.400   8.076 -0.2272  1.1713 -0.2166
  664MOL0     H91605   4.051   7.447   8.185  0.8590  1.3416 -0.7098
  664MOL0     H91606   4.074   7.178   8.027 -1.1135 -1.3711  1.4037
  664MOL0     H91607   3.952   7.218   8.148  0.0875 -0.5954 -1.0141
  664MOL0     H91608   4.235   7.188   8.208 -0.8151  1.0695 -3.2155
  664MOL0     H91609   4.130   7.054   8.195  1.4505 -0.5213  1.0106
  664MOL0     H91610   3.975   7.150   8.369  0.5914  1.0228  2.9925
  664MOL0     H91611   4.103   7.283   8.395  0.9439 -1.1455  3.7620
  664MOL0     H91612   3.514   7.653   7.904  3.5815  0.7473  0.3544
  664MOL0     H91613   3.277   7.611   7.946 -0.2201 -0.7683  0.4982
  664MOL0     H91614   2.969   7.592   8.380 -0.6675  4.8804 -0.6365
  664MOL0     H91615   2.762   7.457   8.446 -1.0987  2.6968  1.5476
  664MOL0     H91616   2.258   7.467   6.918  0.2261  1.9106 -0.4502
  664MOL0     H91617   2.352   7.586   6.725  0.7035 -1.5676  2.3315
  664MOL0     H91618   2.399   7.930   6.393 -3.5056  0.2813  1.4821
  664MOL0     H91619   2.542   7.958   6.181  0.8437 -0.8524  0.1891
  664MOL0     H91620   2.558   8.018   5.984 -1.0206 -0.2621  0.2196
  664MOL0     H91621   2.623   7.933   5.839  0.2100  0.0744  0.1710
  664MOL0     H91622   2.421   8.086   5.810 -1.2793 -0.4773 -2.8417
  664MOL0     H91623   2.341   7.990   5.921  1.2585  2.1203  2.0657
  664MOL0     H91624   2.304   7.955   5.657  0.9321  1.8635  1.8295
  664MOL0     H91625   2.469   7.904   5.640 -0.3723  0.0127 -1.6559
  664MOL0     H91626   2.277   7.737   5.801  0.6891  0.0873  0.8782
  664MOL0     H91627   2.444   7.714   5.774  2.1469  2.9063  0.2488
  664MOL0     H91628   2.236   7.619   5.405  1.2088  0.0912 -1.0189
  664MOL0     H91629   2.353   7.639   5.990  0.3925  0.3694 -0.5095
  664MOL0     H91630   2.119   7.603   6.106  0.2798  1.5902 -0.1208
  664MOL0     H91631   2.208   7.472   6.188 -2.6276 -0.5835 -0.1462
  664MOL0     H91632   2.104   7.587   6.278 -1.7304 -0.2867 -1.6021
  665MOL0     O91633   0.313   1.020   7.250  0.4226 -0.5049  0.0474
  665MOL0     C91634   0.341   1.070   7.140 -1.3701  0.6556 -0.3627
  665MOL0     O91635   0.285   1.034   7.026 -0.0187  0.2701 -0.2205
  665MOL0     C91636   0.172   0.950   7.015 -1.3844  0.4484  0.0530
  665MOL0     C91637   0.101   0.962   6.900 -1.1257  0.4983  0.5096
  665MOL0     C91638  -0.013   0.878   6.871 -1.0743 -0.1770 -0.1865
  665MOL0     C91639  -0.064   0.792   6.977 -0.2718  0.4617  0.8493
  665MOL0     O91640  -0.176   0.714   6.978 -0.1738  0.4305 -0.4116
  665MOL0     C91641  -0.263   0.706   6.861 -0.0001  0.7043 -0.2999
  665MOL0     C91642  -0.346   0.571   6.887  0.2190 -0.5645  0.3001
  665MOL0     C91643  -0.455   0.548   6.772  0.0065  0.4767 -0.4684
  665MOL0     C91644  -0.498   0.396   6.764  0.7577 -0.2982  0.8475
  665MOL0     C91645  -0.603   0.371   6.661  0.1241  0.0600 -0.6328
  665MOL0     C91646  -0.551   0.362   6.513  1.4607 -0.1485 -0.7420
  665MOL0     C91647  -0.639   0.293   6.414  1.2127 -1.0726  0.2891
  665MOL0     C91648  -0.788   0.359   6.411 -0.3533 -0.1300  0.1578
  665MOL0     N91649  -0.870   0.273   6.330 -0.1955 -0.1294  0.1305
  665MOL0     C91650  -0.856   0.254   6.193  0.0130 -0.2426 -0.0704
  665MOL0     C91651  -0.936   0.149   6.156  0.1185 -1.0839 -0.1930
  665MOL0     C91652  -0.969   0.095   6.015  1.1973  0.2561  0.2065
  665MOL0     C91653  -1.097   0.156   5.958 -0.5864 -0.3940 -0.2755
  665MOL0     C91654  -1.113   0.127   5.807  1.3623  0.9222 -0.2090
  665MOL0     C91655  -0.988   0.172   5.725 -0.1994 -0.6581 -2.0433
  665MOL0     O91656  -0.946   0.304   5.762 -0.5107 -0.1872 -0.4394
  665MOL0     C91657  -0.826   0.331   5.710 -0.5126 -0.1874 -0.3500
  665MOL0     C91658  -0.707   0.328   5.788 -0.1476 -0.2167  0.4810
  665MOL0     C91659  -0.583   0.349   5.724  0.0855  0.4418 -1.0102
  665MOL0     C91660  -0.470   0.370   5.822 -0.5619 -0.5246  0.1889
  665MOL0     C91661  -0.564   0.358   5.585  0.2065 -0.1204 -0.5011
  665MOL0     C91662  -0.443   0.407   5.519 -0.7012 -0.5727 -0.1684
  665MOL0     O91663  -0.447   0.399   5.377  0.5624  0.1556 -0.6307
  665MOL0     C91664  -0.326   0.428   5.311  0.5196  0.4102 -0.0017
  665MOL0     C91665  -0.322   0.547   5.229 -0.3449 -0.0628 -0.7859
  665MOL0     C91666  -0.204   0.574   5.166 -0.4483  0.3876 -0.2305
  665MOL0     C91667  -0.089   0.488   5.169 -0.1489  0.9853  0.4856
  665MOL0     O91668   0.021   0.497   5.091  0.1388 -0.3441 -0.1905
  665MOL0     C91669   0.073   0.629   5.073  0.1508 -0.1016 -0.1947
  665MOL0     C91670   0.206   0.626   5.006  0.0614  0.3141  0.4326
  665MOL0     C91671   0.304   0.527   5.086  0.3744 -0.3519  0.5199
  665MOL0     C91672   0.322   0.576   5.233 -0.1762  1.0671  0.7285
  665MOL0     C91673   0.469   0.556   5.275  0.0322  0.4879 -0.2425
  665MOL0     C91674   0.476   0.619   5.408  0.3034 -0.9685 -0.0858
  665MOL0     C91675   0.622   0.610   5.460  0.4906  0.3268 -0.8415
  665MOL0     C91676   0.622   0.670   5.600  0.5636  0.3810  0.0922
  665MOL0    Cl91677   0.783   0.673   5.679 -0.0465  0.5272 -0.2633
  665MOL0     C91678  -0.107   0.369   5.244 -0.1891 -0.3047 -0.4885
  665MOL0     C91679  -0.220   0.333   5.311  0.0053 -0.2245 -0.0099
  665MOL0     O91680  -0.342   0.445   5.577  0.1424  1.2765 -0.0301
  665MOL0     C91681  -0.682   0.354   5.512  0.4216 -0.2874 -1.0308
  665MOL0     C91682  -0.808   0.344   5.573 -0.2102 -0.5617  0.6036
  665MOL0     N91683  -1.009   0.123   6.273 -0.3242  0.5088 -0.9468
  665MOL0     N91684  -0.959   0.187   6.382  0.2060 -0.7325 -0.0543
  665MOL0     C91685   0.009   0.779   7.089  0.2189  0.1616 -0.7731
  665MOL0     C91686   0.123   0.855   7.110  0.1813  0.4004 -0.2102
  665MOL0     C91687   0.458   1.164   7.125 -0.2316 -0.2948 -0.1164
  665MOL0     C91688   0.575   1.124   7.196  0.8411 -0.0287  0.1840
  665MOL0     C91689   0.687   1.201   7.172  0.1505 -0.6359 -0.4908
  665MOL0     C91690   0.695   1.314   7.087  0.5036  0.3617  0.1385
  665MOL0     O91691   0.826   1.365   7.070 -0.5113  1.0428 -0.4737
  665MOL0     C91692   0.868   1.432   6.953  0.0709  0.2375  0.3350
  665MOL0     C91693   0.890   1.341   6.826 -0.1990  0.9458 -0.2551
  665MOL0     C91694   0.769   1.282   6.756  0.1236  0.6441  0.6084
  665MOL0     C91695   0.794   1.216   6.619 -0.1072 -0.0872 -0.3328
  665MOL0     C91696   0.868   1.299   6.517  0.6118 -0.3128 -1.4342
  665MOL0     C91697   0.911   1.358   6.424  0.4923  0.4077  0.0305
  665MOL0     C91698   0.578   1.354   7.017  0.1260  0.6616  0.1888
  665MOL0     C91699   0.463   1.274   7.036  1.2609  0.5545  0.4053
  665MOL0     C91700   0.347   1.308   6.944 -0.1483  0.2556  0.0827
  665MOL0     H91701   0.129   1.033   6.823 -0.5493 -1.3998 -1.1162
  665MOL0     H91702  -0.064   0.900   6.777 -2.8271 -3.2098 -0.0815
  665MOL0     H91703  -0.215   0.703   6.763  0.6185 -1.8784 -0.0138
  665MOL0     H91704  -0.333   0.789   6.848 -1.6760 -0.4938  0.6232
  665MOL0     H91705  -0.279   0.486   6.875 -0.0118 -1.0528  2.1037
  665MOL0     H91706  -0.388   0.570   6.988  4.6382  2.2692  2.5010
  665MOL0     H91707  -0.550   0.600   6.788 -1.6691 -1.3683 -3.4912
  665MOL0     H91708  -0.420   0.581   6.674  0.6256 -1.4267 -0.9390
  665MOL0     H91709  -0.407   0.337   6.752  0.9820  0.4810 -2.2173
  665MOL0     H91710  -0.552   0.369   6.855 -3.5733  1.1529 -1.0325
  665MOL0     H91711  -0.674   0.452   6.680  1.7413  1.4073 -0.0171
  665MOL0     H91712  -0.649   0.273   6.677  3.9857 -1.4880  3.0024
  665MOL0     H91713  -0.542   0.467   6.484 -2.0785  0.1112 -1.3608
  665MOL0     H91714  -0.454   0.311   6.506  2.3320  1.2561  0.6108
  665MOL0     H91715  -0.657   0.187   6.438 -1.2593 -1.1096 -1.3697
  665MOL0     H91716  -0.584   0.296   6.319 -1.2635  0.6516 -1.1975
  665MOL0     H91717  -0.833   0.370   6.510  0.1398 -0.0273  0.3764
  665MOL0     H91718  -0.787   0.462   6.374  1.0839  0.1402  0.8753
  665MOL0     H91719  -0.815   0.324   6.121  0.4628  0.0558  0.4640
  665MOL0     H91720  -0.983  -0.012   6.031 -0.7923  0.5494  0.7088
  665MOL0     H91721  -0.887   0.112   5.944  0.8500 -3.7457 -1.4300
  665MOL0     H91722  -1.185   0.108   6.003  0.7314 -1.9847  0.7078
  665MOL0     H91723  -1.112   0.264   5.970 -2.2405 -0.0661 -3.9669
  665MOL0     H91724  -1.119   0.019   5.788  0.9744  1.0420 -0.8157
  665MOL0     H91725  -1.201   0.173   5.761  2.1560  1.3295 -1.3464
  665MOL0     H91726  -0.901   0.107   5.733  3.9048  4.1665 -1.9943
  665MOL0     H91727  -0.996   0.157   5.617 -1.4800 -0.6351 -1.9609
  665MOL0     H91728  -0.712   0.305   5.893  2.2149  0.0863  0.7083
  665MOL0     H91729  -0.449   0.477   5.830 -1.0538 -0.4146  0.0544
  665MOL0     H91730  -0.381   0.320   5.782  1.0067  2.3716 -0.2030
  665MOL0     H91731  -0.489   0.334   5.924 -0.0049  0.2745  0.5876
  665MOL0     H91732  -0.399   0.624   5.231  0.4923  1.0835  4.9412
  665MOL0     H91733  -0.206   0.662   5.102 -2.9898  0.4608 -0.1743
  665MOL0     H91734   0.003   0.686   5.011  0.2749  1.2271  0.8528
  665MOL0     H91735   0.085   0.690   5.163  0.6726  1.8815 -1.5433
  665MOL0     H91736   0.211   0.594   4.902  1.4770  0.2480  0.5030
  665MOL0     H91737   0.252   0.725   5.014  1.5339 -0.4836  3.3351
  665MOL0     H91738   0.398   0.548   5.034 -1.1060  1.2851 -1.7004
  665MOL0     H91739   0.279   0.422   5.073 -2.0077  0.1328  0.7226
  665MOL0     H91740   0.245   0.527   5.293 -0.2292 -1.6267 -1.3409
  665MOL0     H91741   0.297   0.682   5.245 -1.7531  0.7156  0.6889
  665MOL0     H91742   0.505   0.453   5.266  1.0916  0.8705 -0.6189
  665MOL0     H91743   0.529   0.623   5.212 -0.7307  1.0757 -0.3565
  665MOL0     H91744   0.404   0.575   5.478 -2.4898  2.3372 -0.6329
  665MOL0     H91745   0.451   0.724   5.391 -0.4765 -1.0140  0.7108
  665MOL0     H91746   0.689   0.664   5.393 -0.5147 -0.4704 -2.5539
  665MOL0     H91747   0.641   0.503   5.477  1.0785  0.5767  0.2179
  665MOL0     H91748   0.550   0.631   5.673 -0.0166 -1.5601 -1.4208
  665MOL0     H91749   0.585   0.771   5.580  0.4584 -0.2186 -3.3246
  665MOL0     H91750  -0.027   0.295   5.247 -1.0826 -1.3039  2.1348
  665MOL0     H91751  -0.235   0.237   5.358 -3.7565 -0.0148 -0.5388
  665MOL0     H91752  -0.679   0.379   5.406  1.1027  1.8376 -0.5486
  665MOL0     H91753  -0.898   0.342   5.512 -0.0941 -0.8523  0.4377
  665MOL0     H91754  -0.030   0.729   7.177 -1.1052  0.4300 -1.1776
  665MOL0     H91755   0.164   0.831   7.208  0.0354 -3.0256 -0.8814
  665MOL0     H91756   0.568   1.036   7.260 -2.1573 -0.1805 -0.2305
  665MOL0     H91757   0.787   1.182   7.210  1.3241 -1.7578 -3.8459
  665MOL0     H91758   0.797   1.503   6.909  0.6031  0.5394 -0.0448
  665MOL0     H91759   0.966   1.479   6.963 -0.1951  0.5371  1.7359
  665MOL0     H91760   0.961   1.262   6.852 -1.2343  0.4493  1.2117
  665MOL0     H91761   0.940   1.409   6.757  1.1225  0.0434 -0.2200
  665MOL0     H91762   0.714   1.219   6.826 -4.0826  1.6282 -1.5075
  665MOL0     H91763   0.694   1.359   6.738 -0.3026  0.9152  3.1295
  665MOL0     H91764   0.697   1.191   6.575  1.0836 -0.8410 -2.7207
  665MOL0     H91765   0.840   1.118   6.631 -0.4182 -0.9703 -4.6053
  665MOL0     H91766   0.935   1.413   6.335  0.7922 -2.0639 -1.5310
  665MOL0     H91767   0.582   1.441   6.953 -1.6824 -0.8103 -2.0742
  665MOL0     H91768   0.245   1.270   6.962 -1.2401  2.2366 -1.5226
  665MOL0     H91769   0.356   1.416   6.936  2.1364  0.0981  0.0826
  665MOL0     H91770   0.384   1.282   6.845  2.9096 -1.7572  1.6023
  666MOL0     O91771   3.310   7.649  10.163  0.2025 -0.7079 -0.2881
  666MOL0     C91772   3.372   7.583  10.247  0.2351 -0.3333  0.3968
  666MOL0     O91773   3.319   7.472  10.306 -0.2068  0.5972 -0.3125
  666MOL0     C91774   3.186   7.447  10.278 -0.0357 -0.4129 -0.1354
  666MOL0     C91775   3.160   7.344  10.192 -0.4193 -0.1100  0.6571
  666MOL0     C91776   3.026   7.314  10.158 -0.2142 -0.5547 -0.2236
  666MOL0     C91777   2.917   7.376  10.218 -0.1075 -0.2795  0.7245
  666MOL0     O91778   2.796   7.327  10.197  0.4316 -0.2517  0.2824
  666MOL0     C91779   2.704   7.414  10.132  0.4209 -0.3252  1.0242
  666MOL0     C91780   2.556   7.385  10.168 -0.3152 -0.3662 -0.8850
  666MOL0     C91781   2.452   7.439  10.063 -0.2943  0.1459 -0.3533
  666MOL0     C91782   2.452   7.589  10.042 -0.1241 -0.5794 -0.1150
  666MOL0     C91783   2.521   7.621   9.916  0.0370 -0.7826  0.2240
  666MOL0     C91784   2.441   7.588   9.789  1.0252  0.2576  0.0081
  666MOL0     C91785   2.527   7.598   9.662  0.5252 -0.6854 -0.8353
  666MOL0     C91786   2.434   7.569   9.544  0.1206  1.2648 -0.5587
  666MOL0     N91787   2.336   7.668   9.507  0.2494 -0.2376 -0.0260
  666MOL0     C91788   2.335   7.731   9.384  0.3053 -0.8798  0.3331
  666MOL0     C91789   2.215   7.800   9.383  0.4394 -0.0436  0.1378
  666MOL0     C91790   2.159   7.893   9.277  0.2943 -0.0249 -0.5314
  666MOL0     C91791   2.112   8.031   9.334 -0.9623  0.3398  0.0562
  666MOL0     C91792   2.066   8.131   9.232  0.7168  0.2442  0.1812
  666MOL0     C91793   1.978   8.237   9.295  0.5411 -0.9974 -0.3341
  666MOL0     O91794   1.919   8.320   9.195 -0.5262  0.2862  0.4041
  666MOL0     C91795   1.826   8.414   9.235  0.2481  0.7919  0.0355
  666MOL0     C91796   1.783   8.501   9.133 -0.1909  0.4788 -0.0384
  666MOL0     C91797   1.675   8.583   9.147 -0.4696 -0.2692 -1.0554
  666MOL0     C91798   1.644   8.683   9.034 -0.1360  0.6597 -0.1470
  666MOL0     C91799   1.609   8.588   9.273 -0.1725 -0.0085  0.2616
  666MOL0     C91800   1.487   8.664   9.307 -0.4348  0.0221 -0.4038
  666MOL0     O91801   1.478   8.725   9.425  0.4991 -0.5961  0.3215
  666MOL0     C91802   1.358   8.755   9.479  0.0882  0.7735 -0.5262
  666MOL0     C91803   1.245   8.672   9.479  0.9505 -0.3291  0.0629
  666MOL0     C91804   1.125   8.700   9.539 -0.5342  0.6188 -0.0319
  666MOL0     C91805   1.103   8.825   9.614 -0.1377  0.2711  0.1019
  666MOL0     O91806   0.997   8.833   9.702 -0.3784  1.3189 -0.1837
  666MOL0     C91807   0.922   8.952   9.674 -1.0234 -0.7051  0.8216
  666MOL0     C91808   0.774   8.928   9.691 -0.2936 -0.1807  0.0439
  666MOL0     C91809   0.720   8.813   9.594  0.2672 -0.0850  1.3246
  666MOL0     C91810   0.565   8.768   9.612 -0.2362 -0.4333  1.0670
  666MOL0     C91811   0.472   8.873   9.571  0.9720 -0.6665 -0.2292
  666MOL0     C91812   0.324   8.826   9.570 -0.7764 -0.3564 -0.1149
  666MOL0     C91813   0.233   8.945   9.575  0.4453  0.2000  0.1716
  666MOL0     C91814   0.084   8.906   9.559 -0.5350 -0.2407 -0.2722
  666MOL0    Cl91815   0.002   8.873   9.718 -0.1268  0.1097  0.4035
  666MOL0     C91816   1.211   8.912   9.624 -1.0837  0.2881  0.1426
  666MOL0     C91817   1.335   8.877   9.554  0.2806 -0.2031  0.1249
  666MOL0     O91818   1.399   8.664   9.220 -0.0070 -0.8695 -0.8452
  666MOL0     C91819   1.671   8.516   9.384  0.5519 -1.2309 -0.4997
  666MOL0     C91820   1.772   8.424   9.361 -0.2335  0.4721  0.2729
  666MOL0     N91821   2.147   7.763   9.499  0.0347 -0.4125  0.4687
  666MOL0     N91822   2.222   7.684   9.571 -0.3814 -0.2953 -0.2302
  666MOL0     C91823   2.940   7.487  10.294 -0.3254 -1.1551 -0.6464
  666MOL0     C91824   3.070   7.520  10.320 -0.8774 -1.0824 -0.9284
  666MOL0     C91825   3.514   7.628  10.269 -0.4254  0.8328  0.5943
  666MOL0     C91826   3.554   7.742  10.195  0.3738 -0.1814  0.0399
  666MOL0     C91827   3.685   7.785  10.201 -0.0784  0.4128  0.2842
  666MOL0     C91828   3.784   7.719  10.274 -0.1534  0.4558  1.2029
  666MOL0     O91829   3.909   7.779  10.278  0.6206  0.1077  0.0757
  666MOL0     C91830   3.972   7.787  10.402  0.8488  1.2553  0.6022
  666MOL0     C91831   3.948   7.934  10.455  0.2698  0.3497 -0.1408
  666MOL0     C91832   4.063   8.026  10.409 -0.5028  0.0531  0.8952
  666MOL0     C91833   4.053   8.158  10.485  0.2164  0.6763  0.1497
  666MOL0     C91834   3.945   8.247  10.440 -0.1485  0.0783  0.0260
  666MOL0     C91835   3.848   8.307  10.421 -0.3311  0.1611  1.1044
  666MOL0     C91836   3.746   7.606  10.339 -0.0865  0.4749 -0.3080
  666MOL0     C91837   3.615   7.555  10.343 -0.7127  0.2857  0.5978
  666MOL0     C91838   3.596   7.423  10.418 -0.3297  0.1985  0.5475
  666MOL0     H91839   3.232   7.280  10.144 -0.7285 -1.1694  1.5662
  666MOL0     H91840   2.999   7.234  10.090 -1.5302  1.0524 -1.6652
  666MOL0     H91841   2.702   7.394  10.025  0.8228 -2.6601  1.4069
  666MOL0     H91842   2.731   7.519  10.147 -1.5137  0.3616  0.0093
  666MOL0     H91843   2.555   7.276  10.171  1.8787 -0.4039  1.4400
  666MOL0     H91844   2.534   7.410  10.272 -2.2444 -1.0011 -1.1044
  666MOL0     H91845   2.470   7.384   9.970 -0.5943  0.0375 -0.3485
  666MOL0     H91846   2.354   7.417  10.106 -0.1503  1.2737  0.5967
  666MOL0     H91847   2.350   7.628  10.037  0.6259  1.3302 -1.6697
  666MOL0     H91848   2.494   7.639  10.130 -0.1096  0.6239 -0.7767
  666MOL0     H91849   2.613   7.562   9.917  3.2216  3.5443 -3.2438
  666MOL0     H91850   2.549   7.726   9.911  2.5936 -1.4272 -0.0006
  666MOL0     H91851   2.406   7.485   9.782  0.4434  0.5262 -1.3420
  666MOL0     H91852   2.352   7.651   9.788  0.8582  0.0322 -1.4920
  666MOL0     H91853   2.605   7.522   9.667  0.5953 -0.5335  0.7239
  666MOL0     H91854   2.570   7.695   9.635  2.3109 -0.8441  1.1755
  666MOL0     H91855   2.501   7.538   9.464 -1.0381  3.4348 -2.5002
  666MOL0     H91856   2.371   7.484   9.572 -0.9356  1.1893 -2.9638
  666MOL0     H91857   2.409   7.725   9.305  1.3302 -3.1035  1.3916
  666MOL0     H91858   2.071   7.855   9.225 -0.5792 -1.5746  1.9248
  666MOL0     H91859   2.236   7.894   9.199  0.1071 -0.8492 -0.7288
  666MOL0     H91860   2.023   7.991   9.383 -2.1472  0.3469 -1.9823
  666MOL0     H91861   2.186   8.073   9.403 -0.2148 -1.9340  0.7202
  666MOL0     H91862   2.155   8.187   9.202  1.0039  1.7476  3.4706
  666MOL0     H91863   2.014   8.087   9.146 -2.4706  2.5009  0.7752
  666MOL0     H91864   1.893   8.183   9.337 -1.5145  2.1728 -0.1160
  666MOL0     H91865   2.027   8.305   9.365  0.1629 -0.1140 -0.9196
  666MOL0     H91866   1.834   8.511   9.038  0.8159  3.5959  0.7084
  666MOL0     H91867   1.631   8.630   8.940 -1.2006  0.3883  0.1343
  666MOL0     H91868   1.733   8.745   9.020  1.9926 -2.2063 -0.0453
  666MOL0     H91869   1.560   8.748   9.060  1.3823  1.9651  1.8087
  666MOL0     H91870   1.265   8.570   9.446  3.5372  0.1599 -0.1248
  666MOL0     H91871   1.039   8.633   9.544  1.0420 -1.6259 -1.0755
  666MOL0     H91872   0.948   9.025   9.751  0.0007  1.3521 -1.3527
  666MOL0     H91873   0.937   8.991   9.573  0.6955 -0.7797  1.0166
  666MOL0     H91874   0.735   8.912   9.791  0.5297 -0.0869  0.3873
  666MOL0     H91875   0.732   9.022   9.655 -0.5214 -0.7333 -1.1945
  666MOL0     H91876   0.789   8.729   9.604  1.3658  0.8314  1.7097
  666MOL0     H91877   0.735   8.848   9.492  0.3742 -0.1997  1.3010
  666MOL0     H91878   0.548   8.759   9.720  3.8846  0.2555  1.9518
  666MOL0     H91879   0.548   8.677   9.554 -0.8934  1.4114 -1.8140
  666MOL0     H91880   0.471   8.950   9.649  3.0405  0.0770 -0.8841
  666MOL0     H91881   0.494   8.919   9.474 -3.7283  0.1776 -1.1412
  666MOL0     H91882   0.294   8.774   9.661  0.0042  0.1313  0.4380
  666MOL0     H91883   0.295   8.762   9.487  2.9676 -2.4772 -0.0358
  666MOL0     H91884   0.261   9.010   9.491 -2.7757 -1.6455 -2.5763
  666MOL0     H91885   0.237   8.990   9.674  0.3144 -0.5715  0.5338
  666MOL0     H91886   0.060   8.832   9.483 -3.1519 -2.0352  2.1183
  666MOL0     H91887   0.042   9.002   9.526 -2.1454 -1.3173 -1.4787
  666MOL0     H91888   1.222   9.000   9.686 -1.2652  0.8885 -0.6558
  666MOL0     H91889   1.419   8.945   9.570 -0.2314  0.1150  1.5680
  666MOL0     H91890   1.633   8.516   9.486 -0.8262 -0.4592 -0.9861
  666MOL0     H91891   1.792   8.363   9.448 -2.0299 -0.4794  0.0643
  666MOL0     H91892   2.859   7.538  10.345 -0.9465 -3.0351  0.3455
  666MOL0     H91893   3.097   7.610  10.376  0.8016 -1.6720 -0.7209
  666MOL0     H91894   3.489   7.811  10.143  1.9932  0.9538 -0.5471
  666MOL0     H91895   3.710   7.873  10.142 -1.1917  0.9520  0.5883
  666MOL0     H91896   3.926   7.722  10.477 -0.3077 -2.5941 -3.0204
  666MOL0     H91897   4.075   7.756  10.386 -0.0854 -1.1004 -1.5824
  666MOL0     H91898   3.943   7.917  10.563 -1.6306 -2.1285 -0.5291
  666MOL0     H91899   3.853   7.974  10.419 -0.8771 -0.9640  1.2908
  666MOL0     H91900   4.157   7.981  10.441 -1.1751 -1.8516  0.3539
  666MOL0     H91901   4.053   8.043  10.301 -5.2087 -3.6371  0.3790
  666MOL0     H91902   4.147   8.200  10.449 -0.3438 -0.4421 -3.0054
  666MOL0     H91903   4.060   8.141  10.592  1.9890  0.5434  0.0466
  666MOL0     H91904   3.755   8.358  10.410  1.2610  2.7535 -2.5334
  666MOL0     H91905   3.827   7.552  10.387 -0.5947  1.0078  1.2163
  666MOL0     H91906   3.499   7.424  10.468 -1.0788 -2.0367 -0.7125
  666MOL0     H91907   3.596   7.334  10.355 -1.4340 -1.6221  2.9514
  666MOL0     H91908   3.678   7.422  10.490  0.7107 -3.5818 -0.4793
  667MOL0     O91909   1.301   5.282   8.660  0.3230  0.1698  0.3240
  667MOL0     C91910   1.318   5.188   8.733 -0.0914 -0.5115  1.0909
  667MOL0     O91911   1.370   5.066   8.691  0.1496  0.3683 -0.9082
  667MOL0     C91912   1.438   5.060   8.574  0.1917 -0.7942  0.5433
  667MOL0     C91913   1.576   5.059   8.578  0.1730  0.1767 -0.0197
  667MOL0     C91914   1.640   5.068   8.457 -0.3896 -0.4530 -0.3631
  667MOL0     C91915   1.571   5.059   8.330  0.0989 -0.2502 -1.0767
  667MOL0     O91916   1.642   5.054   8.220 -0.3014 -0.7292  0.3389
  667MOL0     C91917   1.628   4.935   8.135  0.5556  0.4488 -0.1144
  667MOL0     C91918   1.748   4.839   8.164 -0.3056  0.4385 -0.3446
  667MOL0     C91919   1.759   4.705   8.080  0.5989 -0.5514  0.1618
  667MOL0     C91920   1.867   4.694   7.967 -0.0664  0.3698 -0.4054
  667MOL0     C91921   1.853   4.794   7.858  0.0347 -0.2893  0.7945
  667MOL0     C91922   1.949   4.776   7.734 -0.0930 -0.5736 -0.3037
  667MOL0     C91923   2.090   4.793   7.769 -1.1144  0.6721 -0.8125
  667MOL0     C91924   2.181   4.834   7.657  0.8975  0.3052  0.6575
  667MOL0     N91925   2.187   4.979   7.623  1.0854 -0.5727 -0.1791
  667MOL0     C91926   2.112   5.047   7.534  1.1946  0.4238 -0.1617
  667MOL0     C91927   2.170   5.167   7.521 -0.1063  0.3517  0.0146
  667MOL0     C91928   2.130   5.278   7.435 -0.3917 -0.2402 -0.4963
  667MOL0     C91929   2.239   5.390   7.409  0.9402  0.0009 -0.2159
  667MOL0     C91930   2.367   5.323   7.342 -0.1417  0.5754 -0.1725
  667MOL0     C91931   2.457   5.434   7.285 -0.1318 -0.0561 -0.1419
  667MOL0     O91932   2.567   5.404   7.206 -0.3774  0.6071 -0.4463
  667MOL0     C91933   2.680   5.334   7.263 -0.4195  0.2653 -0.9561
  667MOL0     C91934   2.702   5.335   7.407  0.2256 -0.1049 -0.4779
  667MOL0     C91935   2.821   5.297   7.466  0.8937 -0.2280  0.1306
  667MOL0     C91936   2.833   5.305   7.617  0.4365  0.4696  0.1800
  667MOL0     C91937   2.916   5.235   7.369  0.1283 -0.1243  0.1434
  667MOL0     C91938   3.049   5.184   7.399  0.0094 -0.4281 -0.0010
  667MOL0     O91939   3.099   5.233   7.516  0.2925  0.3866 -0.2889
  667MOL0     C91940   3.217   5.189   7.565  0.3127  0.0986  0.2392
  667MOL0     C91941   3.246   5.055   7.611 -0.2733  0.2385 -0.4382
  667MOL0     C91942   3.371   5.020   7.659 -0.1705  0.3191 -0.0253
  667MOL0     C91943   3.469   5.114   7.684 -0.3115  0.2805  0.7633
  667MOL0     O91944   3.592   5.064   7.730 -0.0667 -0.0190  0.3339
  667MOL0     C91945   3.699   5.157   7.765  1.1388 -0.5630  0.2848
  667MOL0     C91946   3.829   5.080   7.757 -0.3407  0.3021  0.4440
  667MOL0     C91947   3.863   4.990   7.880 -0.2866 -0.4421 -0.2738
  667MOL0     C91948   4.002   4.923   7.862 -0.1356  0.0932  0.0033
  667MOL0     C91949   4.017   4.809   7.972 -0.0378  1.5600 -0.1344
  667MOL0     C91950   4.147   4.738   7.972  0.1600  0.7612 -0.5533
  667MOL0     C91951   4.146   4.644   8.095  0.3077 -0.1084  0.0478
  667MOL0     C91952   4.278   4.565   8.099  0.1944 -0.8536  0.3029
  667MOL0    Cl91953   4.433   4.674   8.087 -0.0158  0.3154 -0.0311
  667MOL0     C91954   3.450   5.242   7.627  0.8762 -0.0396  1.2783
  667MOL0     C91955   3.321   5.288   7.563 -0.1459  0.7397  0.1093
  667MOL0     O91956   3.093   5.091   7.335 -0.0427 -0.8440 -0.0695
  667MOL0     C91957   2.879   5.231   7.231 -0.6267  0.9370 -0.5017
  667MOL0     C91958   2.770   5.280   7.175  0.7265 -0.0850 -0.7044
  667MOL0     N91959   2.272   5.171   7.615  0.1917 -0.3935  0.4483
  667MOL0     N91960   2.278   5.065   7.682 -0.3235 -0.4983  0.6083
  667MOL0     C91961   1.430   5.064   8.333 -0.2862  0.4211 -0.2928
  667MOL0     C91962   1.368   5.066   8.456 -0.5073  0.4463  0.0358
  667MOL0     C91963   1.271   5.197   8.875  0.0910  0.1929 -0.3833
  667MOL0     C91964   1.176   5.296   8.908 -0.0343 -0.6656  0.1193
  667MOL0     C91965   1.125   5.318   9.039  0.0793 -0.3864 -0.2008
  667MOL0     C91966   1.182   5.242   9.146  0.3906 -0.7226  0.3427
  667MOL0     O91967   1.130   5.247   9.278 -0.7106 -0.5490  0.1483
  667MOL0     C91968   1.234   5.288   9.372  0.0982  0.3177  0.4521
  667MOL0     C91969   1.163   5.318   9.509 -0.4836  0.8121  0.0102
  667MOL0     C91970   1.131   5.187   9.581 -0.0839 -0.6489  0.9390
  667MOL0     C91971   1.057   5.221   9.706  1.1464  0.3213  0.6567
  667MOL0     C91972   0.967   5.125   9.762 -0.2268  0.2306 -0.5394
  667MOL0     C91973   0.878   5.050   9.811 -0.3308  0.0216  0.2881
  667MOL0     C91974   1.275   5.143   9.119  0.4818 -0.3208 -0.4360
  667MOL0     C91975   1.319   5.112   8.986 -0.1044 -0.2677 -0.1513
  667MOL0     C91976   1.419   5.008   8.973  0.1832 -0.4572 -0.5443
  667MOL0     H91977   1.610   5.051   8.680 -3.0267  0.6009  1.1993
  667MOL0     H91978   1.748   5.073   8.446 -0.4853  2.8941 -0.8926
  667MOL0     H91979   1.631   4.948   8.027 -1.2688 -0.4570 -0.3071
  667MOL0     H91980   1.531   4.891   8.161 -0.3442  4.1559  3.8770
  667MOL0     H91981   1.840   4.899   8.165  0.1275 -0.0545  3.5015
  667MOL0     H91982   1.736   4.803   8.266 -1.4651  1.2618 -0.1704
  667MOL0     H91983   1.779   4.619   8.144 -0.2325  0.0230  1.2114
  667MOL0     H91984   1.667   4.692   8.023  0.8147  2.5183 -1.1056
  667MOL0     H91985   1.960   4.711   8.021 -1.7358 -0.6615  3.1092
  667MOL0     H91986   1.866   4.591   7.929 -0.4847 -0.5557  1.9876
  667MOL0     H91987   1.871   4.895   7.898 -0.1999  0.3322 -0.6316
  667MOL0     H91988   1.750   4.787   7.822 -0.6355 -0.9727  2.7204
  667MOL0     H91989   1.939   4.674   7.696 -1.6209 -1.9150  3.2147
  667MOL0     H91990   1.923   4.848   7.656  1.6622  3.5377  2.5295
  667MOL0     H91991   2.139   4.711   7.823  0.2372  1.7031 -0.4185
  667MOL0     H91992   2.088   4.883   7.831 -2.2519  0.8269 -1.0454
  667MOL0     H91993   2.284   4.821   7.692  1.2614  0.6254 -0.2679
  667MOL0     H91994   2.161   4.767   7.573 -0.3998  1.0428  0.3530
  667MOL0     H91995   2.027   5.005   7.481  2.5402 -1.7730 -0.7546
  667MOL0     H91996   2.037   5.312   7.482 -1.1189 -1.9010 -0.6509
  667MOL0     H91997   2.107   5.237   7.336  1.3953 -0.9674 -0.6402
  667MOL0     H91998   2.199   5.465   7.341  0.7119 -1.5947 -1.9073
  667MOL0     H91999   2.272   5.432   7.505  0.5691 -2.8933  1.3089
  667MOL0     H92000   2.420   5.257   7.411 -0.1015  2.3215  1.5296
  667MOL0     H92001   2.336   5.266   7.254  1.1089 -1.2182  0.4722
  667MOL0     H92002   2.393   5.502   7.228 -1.6774 -2.3104 -1.2989
  667MOL0     H92003   2.497   5.495   7.365 -0.9166  0.2807  0.0054
  667MOL0     H92004   2.629   5.375   7.477  2.4536 -0.2192  2.0307
  667MOL0     H92005   2.893   5.221   7.653  1.0147  1.1521  0.8422
  667MOL0     H92006   2.732   5.299   7.658  0.0564  0.4438 -0.7443
  667MOL0     H92007   2.879   5.401   7.640  0.0183  0.4807  1.0119
  667MOL0     H92008   3.177   4.972   7.616 -0.2311  0.2219 -0.1025
  667MOL0     H92009   3.392   4.920   7.696 -0.4757  0.6279  1.0309
  667MOL0     H92010   3.702   5.241   7.695  4.3445  0.0378  1.0037
  667MOL0     H92011   3.670   5.202   7.860 -3.6928  0.6322 -1.4946
  667MOL0     H92012   3.832   5.015   7.669 -1.4004 -2.3754  2.2564
  667MOL0     H92013   3.907   5.156   7.745  0.8750 -0.7691  1.2320
  667MOL0     H92014   3.792   4.908   7.887 -0.4641 -0.5833 -2.7840
  667MOL0     H92015   3.867   5.052   7.970  3.5156  1.0466 -1.2468
  667MOL0     H92016   4.080   5.000   7.862 -1.3687  1.3854  0.5222
  667MOL0     H92017   4.000   4.878   7.762  2.4158  0.6280 -0.3559
  667MOL0     H92018   3.996   4.856   8.069  2.3343 -0.5901  1.5628
  667MOL0     H92019   3.937   4.736   7.957  0.8582  0.5105  0.0754
  667MOL0     H92020   4.226   4.811   7.994  1.7880 -0.3220 -2.5057
  667MOL0     H92021   4.173   4.689   7.878 -0.8279 -4.5423  1.5784
  667MOL0     H92022   4.063   4.574   8.079 -0.0019  0.3179 -0.2367
  667MOL0     H92023   4.122   4.699   8.187 -1.2115 -2.0388  0.8872
  667MOL0     H92024   4.271   4.493   8.016 -1.5740 -0.7867  0.3522
  667MOL0     H92025   4.271   4.502   8.189 -1.6531  0.5901  1.2324
  667MOL0     H92026   3.521   5.323   7.629 -1.2870  2.0296 -0.1151
  667MOL0     H92027   3.323   5.393   7.535  2.2239  0.4829 -0.9805
  667MOL0     H92028   2.960   5.194   7.169  1.4584  1.4080  1.7559
  667MOL0     H92029   2.739   5.291   7.071 -2.2969 -1.9719 -0.1468
  667MOL0     H92030   1.377   5.059   8.239  0.5156  1.5799 -0.8354
  667MOL0     H92031   1.260   5.070   8.444 -0.5345  0.8109  0.4133
  667MOL0     H92032   1.155   5.367   8.828  1.9340 -1.6064 -1.3231
  667MOL0     H92033   1.071   5.406   9.074  1.8618  0.2224  1.1197
  667MOL0     H92034   1.315   5.215   9.380  0.0488 -0.4463 -3.9364
  667MOL0     H92035   1.283   5.374   9.327  1.1106 -1.8240 -2.9015
  667MOL0     H92036   1.074   5.380   9.498 -2.6819 -2.0332  0.6218
  667MOL0     H92037   1.243   5.367   9.565  2.7261 -1.8248 -1.9377
  667MOL0     H92038   1.071   5.125   9.513  0.5477  0.1645 -0.4063
  667MOL0     H92039   1.217   5.125   9.607  0.2862 -0.1828  0.8352
  667MOL0     H92040   0.989   5.304   9.684 -2.4305 -2.8316 -1.4282
  667MOL0     H92041   1.117   5.238   9.795 -0.4275 -0.4510  1.9126
  667MOL0     H92042   0.804   4.985   9.853 -0.0030 -0.2455  0.4583
  667MOL0     H92043   1.289   5.066   9.193  2.3023 -2.1355 -2.5312
  667MOL0     H92044   1.371   4.918   8.934  0.4185 -1.0694  0.5339
  667MOL0     H92045   1.495   5.035   8.900  1.9157  0.6007  1.5437
  667MOL0     H92046   1.465   4.987   9.070  0.6306  1.5927 -0.2737
  668MOL0     O92047   3.862   6.874   4.513  0.2635  0.1402 -0.0108
  668MOL0     C92048   3.824   6.972   4.572  0.1209  0.1626 -0.4974
  668MOL0     O92049   3.694   7.001   4.591  0.2225  0.1600 -0.5138
  668MOL0     C92050   3.597   6.904   4.585  0.9022 -0.7273  0.2457
  668MOL0     C92051   3.585   6.784   4.652  0.1967 -0.6433  0.7089
  668MOL0     C92052   3.463   6.707   4.647 -0.8223 -0.8761  0.0794
  668MOL0     C92053   3.364   6.747   4.565  0.2585  0.3675 -0.1445
  668MOL0     O92054   3.241   6.677   4.555  0.2863  0.4847 -0.2357
  668MOL0     C92055   3.131   6.715   4.461 -0.1640 -0.5433 -0.3499
  668MOL0     C92056   3.032   6.803   4.524  0.5497 -0.3426 -0.7456
  668MOL0     C92057   2.895   6.843   4.456 -0.7830 -0.9467 -0.3188
  668MOL0     C92058   2.904   6.920   4.318  0.3002  0.1427 -0.7994
  668MOL0     C92059   3.009   7.030   4.312 -0.1960  0.1989  0.4217
  668MOL0     C92060   2.972   7.159   4.382  0.0815  0.0655  0.1265
  668MOL0     C92061   3.024   7.284   4.305 -0.7613 -0.9312  0.2000
  668MOL0     C92062   3.032   7.421   4.389  0.1320  0.3307  0.9666
  668MOL0     N92063   3.070   7.528   4.300 -0.2397  0.2826 -0.0464
  668MOL0     C92064   3.043   7.659   4.320  0.3498 -0.0209 -0.1863
  668MOL0     C92065   3.131   7.731   4.248 -0.6259 -0.6743  1.5934
  668MOL0     C92066   3.131   7.882   4.238 -0.6098  0.3483  0.0677
  668MOL0     C92067   3.245   7.958   4.303 -0.4337  0.0048  0.3303
  668MOL0     C92068   3.245   7.909   4.449 -0.5022  0.2098 -0.4509
  668MOL0     C92069   3.353   7.982   4.532  0.3446  0.0066 -0.2926
  668MOL0     O92070   3.482   7.938   4.471  0.0328  0.0992 -0.1804
  668MOL0     C92071   3.585   7.921   4.562  0.0554  0.6048 -0.2996
  668MOL0     C92072   3.651   7.797   4.540  0.8252 -0.3768  0.4187
  668MOL0     C92073   3.764   7.769   4.615 -0.3361 -0.3277 -0.1843
  668MOL0     C92074   3.842   7.649   4.567 -0.6786  0.3822 -0.0604
  668MOL0     C92075   3.809   7.861   4.718 -0.3391  0.6221 -0.1122
  668MOL0     C92076   3.944   7.843   4.797 -0.5687 -0.1818 -0.5372
  668MOL0     O92077   4.004   7.724   4.786  0.2153 -0.4678  0.3028
  668MOL0     C92078   4.105   7.680   4.875 -0.1618 -0.3542  0.9002
  668MOL0     C92079   4.235   7.742   4.879 -0.1102  0.3411 -0.4538
  668MOL0     C92080   4.333   7.691   4.968  0.4108  0.1862 -0.0511
  668MOL0     C92081   4.308   7.580   5.051  0.1652 -0.3185 -0.7848
  668MOL0     O92082   4.411   7.520   5.123  0.5456 -0.1262 -0.6300
  668MOL0     C92083   4.373   7.420   5.215  0.0509  0.7447 -0.3228
  668MOL0     C92084   4.511   7.385   5.281 -0.3620 -0.1121  0.5145
  668MOL0     C92085   4.594   7.280   5.198  0.1716 -0.4645 -0.0380
  668MOL0     C92086   4.717   7.364   5.145  0.2225 -0.1544  0.1338
  668MOL0     C92087   4.810   7.275   5.059 -0.4913  0.0205  0.3960
  668MOL0     C92088   4.935   7.349   5.033 -0.4891 -0.0720  0.4704
  668MOL0     C92089   5.050   7.278   5.113 -0.2852 -0.3300  1.0039
  668MOL0     C92090   5.174   7.357   5.130  0.3385 -1.4050  0.7823
  668MOL0    Cl92091   5.247   7.404   4.981  0.2161  0.4714  0.3439
  668MOL0     C92092   4.176   7.530   5.046 -0.2784 -0.2819 -0.4056
  668MOL0     C92093   4.079   7.574   4.960  0.0928  0.3096 -0.1716
  668MOL0     O92094   3.979   7.931   4.877  0.2140 -0.4713  0.2128
  668MOL0     C92095   3.732   7.975   4.746 -0.7394 -0.6836  0.1956
  668MOL0     C92096   3.619   7.993   4.668 -0.4551  0.2956  0.0161
  668MOL0     N92097   3.207   7.639   4.172  0.8719 -0.8565 -0.0306
  668MOL0     N92098   3.177   7.521   4.213  0.8925 -1.1717  1.0383
  668MOL0     C92099   3.377   6.870   4.496  0.1570  0.0584 -0.4605
  668MOL0     C92100   3.494   6.949   4.508  0.3202 -0.5085 -0.5706
  668MOL0     C92101   3.932   7.058   4.620 -0.2946 -0.2936 -0.3384
  668MOL0     C92102   4.020   7.107   4.530 -0.0022 -0.7093  0.0565
  668MOL0     C92103   4.121   7.197   4.570  0.2190  0.0269  0.7848
  668MOL0     C92104   4.146   7.224   4.708  1.1069  0.1668 -0.8400
  668MOL0     O92105   4.246   7.311   4.739 -0.3212 -0.1626  0.0578
  668MOL0     C92106   4.354   7.225   4.782  1.4491  1.1526 -0.7797
  668MOL0     C92107   4.467   7.301   4.842  0.2325  0.2593 -0.0433
  668MOL0     C92108   4.493   7.441   4.770  0.3402 -0.5580  0.0465
  668MOL0     C92109   4.644   7.467   4.731 -0.0302 -0.4031 -0.8141
  668MOL0     C92110   4.676   7.359   4.639  0.8278  0.6601 -0.6133
  668MOL0     C92111   4.704   7.274   4.554 -0.5560 -0.2696  0.2109
  668MOL0     C92112   4.056   7.181   4.803  0.4702  0.4331 -0.1310
  668MOL0     C92113   3.942   7.102   4.757 -0.2917  0.2765  0.1047
  668MOL0     C92114   3.829   7.071   4.853 -0.5909 -0.2640  0.3785
  668MOL0     H92115   3.657   6.752   4.727  2.0190 -1.0366 -1.1289
  668MOL0     H92116   3.438   6.622   4.710  0.0954 -0.8568  0.4784
  668MOL0     H92117   3.071   6.625   4.443 -0.9999  0.0242 -0.4469
  668MOL0     H92118   3.162   6.771   4.373 -0.9271  0.0247 -0.2634
  668MOL0     H92119   3.002   6.768   4.623 -0.7929 -0.1296 -1.0491
  668MOL0     H92120   3.072   6.901   4.551 -2.1458  1.2037 -1.9344
  668MOL0     H92121   2.831   6.757   4.437 -3.1654  0.3575  1.2297
  668MOL0     H92122   2.849   6.914   4.526  1.1362  0.2365 -0.1772
  668MOL0     H92123   2.913   6.843   4.241  0.4631 -0.9419  0.2884
  668MOL0     H92124   2.806   6.961   4.290 -0.8196  0.0780  2.5805
  668MOL0     H92125   3.028   7.039   4.205 -1.4806 -0.7028  0.0953
  668MOL0     H92126   3.109   7.002   4.346 -0.1909  2.1469  2.2052
  668MOL0     H92127   2.864   7.176   4.383  0.2978  1.6265  0.6647
  668MOL0     H92128   3.020   7.149   4.480  1.0605 -3.6998 -0.5922
  668MOL0     H92129   2.964   7.303   4.215 -0.5267  1.7302  0.5249
  668MOL0     H92130   3.127   7.263   4.275 -0.2776 -0.5991  1.5552
  668MOL0     H92131   2.928   7.423   4.424  0.0439 -0.8978  0.8344
  668MOL0     H92132   3.104   7.413   4.471 -0.6174  1.8280  1.8011
  668MOL0     H92133   2.964   7.703   4.380 -0.1490 -0.7587 -0.2838
  668MOL0     H92134   3.044   7.924   4.288 -0.9610 -1.4688  1.0768
  668MOL0     H92135   3.141   7.910   4.133  1.5990  0.9398  0.3866
  668MOL0     H92136   3.339   7.934   4.253 -0.9406  0.0799 -0.6943
  668MOL0     H92137   3.228   8.066   4.304  2.4297  0.5460 -0.6702
  668MOL0     H92138   3.154   7.929   4.507  1.6896  0.6592  3.1914
  668MOL0     H92139   3.267   7.802   4.459  2.2689  0.6599 -1.0967
  668MOL0     H92140   3.337   8.090   4.519 -0.4081 -0.1936 -1.0471
  668MOL0     H92141   3.340   7.943   4.634 -0.1716 -3.3020 -1.5216
  668MOL0     H92142   3.615   7.734   4.459 -1.1443 -1.6035  2.1527
  668MOL0     H92143   3.827   7.619   4.463 -0.5427  0.1397 -0.0122
  668MOL0     H92144   3.838   7.564   4.636  0.0884  0.1029 -0.3515
  668MOL0     H92145   3.944   7.687   4.576 -1.2332  1.9162  0.1608
  668MOL0     H92146   4.247   7.824   4.810 -0.2889 -0.0741 -0.9913
  668MOL0     H92147   4.426   7.747   4.970 -0.1833  1.1819  0.1134
  668MOL0     H92148   4.305   7.461   5.291  1.1319 -1.7324  2.1733
  668MOL0     H92149   4.337   7.325   5.174 -1.1709  1.4376 -0.9083
  668MOL0     H92150   4.557   7.480   5.308 -1.4692  0.8266 -0.8004
  668MOL0     H92151   4.500   7.334   5.377  1.6379  0.0354  0.8760
  668MOL0     H92152   4.546   7.229   5.114 -3.2476 -3.2948  3.2234
  668MOL0     H92153   4.631   7.196   5.258  1.7234 -0.4371 -0.9134
  668MOL0     H92154   4.767   7.405   5.234 -0.4355 -0.5003  0.6690
  668MOL0     H92155   4.676   7.443   5.081  0.4214  1.0312  1.4139
  668MOL0     H92156   4.835   7.187   5.118 -0.1805 -0.6572 -0.7232
  668MOL0     H92157   4.764   7.233   4.970  2.1899  0.7230 -1.4249
  668MOL0     H92158   4.923   7.453   5.063 -1.6395  0.1758 -0.7602
  668MOL0     H92159   4.960   7.341   4.927  1.9847 -3.0242  1.1418
  668MOL0     H92160   5.078   7.182   5.070  1.9026  0.4185  0.6437
  668MOL0     H92161   5.018   7.241   5.211 -0.7249 -3.3460 -0.1695
  668MOL0     H92162   5.248   7.303   5.190  3.4274 -0.5586 -2.0167
  668MOL0     H92163   5.141   7.450   5.177  3.8779  1.9567 -2.6758
  668MOL0     H92164   4.141   7.455   5.116  0.7551  0.5501  1.0455
  668MOL0     H92165   3.977   7.535   4.953  0.2428 -0.2111  0.4693
  668MOL0     H92166   3.758   8.050   4.820  2.1187 -0.0495 -1.3151
  668MOL0     H92167   3.544   8.064   4.701 -2.5770 -1.5684 -0.5849
  668MOL0     H92168   3.300   6.904   4.427 -3.3638 -4.1457  0.9918
  668MOL0     H92169   3.505   7.041   4.451  2.6129  0.3290  1.0619
  668MOL0     H92170   3.997   7.086   4.426  0.5907  1.5484 -0.5823
  668MOL0     H92171   4.173   7.247   4.489  0.5014 -0.0371  0.9273
  668MOL0     H92172   4.312   7.145   4.843  1.3826 -1.0631 -3.5144
  668MOL0     H92173   4.406   7.174   4.701 -0.1113  0.5971 -1.4668
  668MOL0     H92174   4.558   7.240   4.837  0.4824  0.6940 -2.5609
  668MOL0     H92175   4.443   7.326   4.945  4.3404 -1.4385  1.5460
  668MOL0     H92176   4.452   7.433   4.669  2.3014  2.3924 -1.1118
  668MOL0     H92177   4.438   7.523   4.819 -0.8818 -0.6709 -1.0813
  668MOL0     H92178   4.703   7.478   4.822  1.3168 -1.8672 -1.4741
  668MOL0     H92179   4.655   7.565   4.684  0.2990  0.5414  1.1376
  668MOL0     H92180   4.735   7.196   4.487  1.8399 -0.7933  1.8208
  668MOL0     H92181   4.056   7.207   4.908 -2.6788 -0.3148  0.1603
  668MOL0     H92182   3.873   7.073   4.953 -3.9416  1.2918  2.0042
  668MOL0     H92183   3.753   7.149   4.846 -0.0415  0.1523 -1.6179
  668MOL0     H92184   3.784   6.972   4.837 -0.9512 -0.1630  0.7457
  669MOL0     O92185   5.324   0.459   5.004  0.2418 -0.1923 -0.4887
  669MOL0     C92186   5.253   0.358   5.016  0.5059  0.3467 -0.1775
  669MOL0     O92187   5.304   0.233   5.003 -0.0760  0.5098 -0.1690
  669MOL0     C92188   5.444   0.220   4.989  0.0729  0.2745 -0.0875
  669MOL0     C92189   5.506   0.170   4.876  0.1710 -0.1715  0.5809
  669MOL0     C92190   5.643   0.159   4.853 -0.3947  0.1669 -0.8313
  669MOL0     C92191   5.728   0.187   4.960 -0.6846  0.2401  0.4314
  669MOL0     O92192   5.863   0.158   4.935 -0.3046  0.0089 -0.1920
  669MOL0     C92193   5.928   0.264   4.862 -0.0502  0.8624  0.1130
  669MOL0     C92194   6.003   0.355   4.960 -0.2124  0.0326  0.2919
  669MOL0     C92195   6.133   0.425   4.911 -0.0490 -0.2077  0.0376
  669MOL0     C92196   6.150   0.565   4.976 -0.0790 -0.4480 -0.5865
  669MOL0     C92197   6.058   0.667   4.915 -0.1650  0.8078 -0.2785
  669MOL0     C92198   6.107   0.805   4.955 -0.3101 -0.7741  0.0923
  669MOL0     C92199   6.009   0.918   4.953  1.0318  0.2653 -0.3994
  669MOL0     C92200   6.047   1.048   5.012 -0.1880 -0.4688 -0.2721
  669MOL0     N92201   5.931   1.134   5.023 -0.9560 -0.2375 -0.1047
  669MOL0     C92202   5.814   1.121   5.091 -0.6641  0.6011  0.2785
  669MOL0     C92203   5.739   1.230   5.070  0.5768  0.6407  1.0877
  669MOL0     C92204   5.620   1.254   5.157 -0.0617  0.2534 -0.1380
  669MOL0     C92205   5.499   1.320   5.083  0.6894  0.2741  0.9495
  669MOL0     C92206   5.422   1.406   5.182  1.0611  0.5434 -0.0334
  669MOL0     C92207   5.332   1.479   5.088 -0.6408 -0.4327  0.7501
  669MOL0     O92208   5.267   1.406   4.982 -0.2464  0.2507  0.5131
  669MOL0     C92209   5.127   1.410   4.989  0.0472  0.5687  0.3222
  669MOL0     C92210   5.049   1.407   5.105  0.1852  0.6967  0.4637
  669MOL0     C92211   4.906   1.407   5.091  1.1842 -0.1195  0.5360
  669MOL0     C92212   4.832   1.394   5.224 -0.0871 -0.7519  0.7325
  669MOL0     C92213   4.836   1.436   4.969  0.8172  0.0415  0.1577
  669MOL0     C92214   4.696   1.470   4.947 -0.2011 -0.5342  0.6481
  669MOL0     O92215   4.669   1.509   4.816  0.0570 -0.5578 -0.5565
  669MOL0     C92216   4.544   1.542   4.767 -0.4891  0.1447  0.3234
  669MOL0     C92217   4.451   1.590   4.849  0.5730 -0.2441 -0.4422
  669MOL0     C92218   4.311   1.615   4.804  0.2626 -0.4194  0.0994
  669MOL0     C92219   4.274   1.604   4.670  0.7996 -0.6205 -0.2301
  669MOL0     O92220   4.154   1.605   4.617 -0.1216 -0.1403  0.5649
  669MOL0     C92221   4.048   1.670   4.681 -0.4078 -1.2014  0.0463
  669MOL0     C92222   4.051   1.821   4.672  0.7798  0.5775  0.0681
  669MOL0     C92223   4.010   1.871   4.536  0.5659 -1.3872  0.8806
  669MOL0     C92224   4.015   2.025   4.545 -0.1828 -0.1976  0.6491
  669MOL0     C92225   4.017   2.082   4.407  0.1282 -0.0772 -0.2468
  669MOL0     C92226   4.046   2.231   4.411 -0.7241 -0.2068 -0.3077
  669MOL0     C92227   4.097   2.297   4.279  0.2691 -0.2511  0.1021
  669MOL0     C92228   3.986   2.265   4.166 -1.0439 -0.7179 -0.9411
  669MOL0    Cl92229   4.017   2.382   4.041  0.3310  0.4195  0.0553
  669MOL0     C92230   4.376   1.563   4.582 -0.0094  0.3144  0.8146
  669MOL0     C92231   4.506   1.536   4.632  0.1021  0.3979 -0.7401
  669MOL0     O92232   4.619   1.445   5.038 -0.2024  0.4495 -0.4680
  669MOL0     C92233   4.922   1.429   4.855  0.3364  0.0884 -0.7763
  669MOL0     C92234   5.052   1.406   4.868 -0.3915  0.3407  0.3470
  669MOL0     N92235   5.811   1.303   4.975  0.5835  0.3497  0.5878
  669MOL0     N92236   5.926   1.249   4.951  0.1483  0.2349  0.1828
  669MOL0     C92237   5.674   0.241   5.077 -0.3499  0.5559 -0.3287
  669MOL0     C92238   5.531   0.255   5.092 -0.4451  1.1864  0.2341
  669MOL0     C92239   5.106   0.383   5.043  0.0098 -0.1240 -0.0275
  669MOL0     C92240   5.029   0.267   5.061  0.7585 -0.6440 -0.7576
  669MOL0     C92241   4.891   0.272   5.094 -0.0932 -0.2065 -0.4330
  669MOL0     C92242   4.817   0.391   5.113 -0.0587  0.8815  0.7199
  669MOL0     O92243   4.684   0.385   5.133 -0.5582 -0.7427  0.0097
  669MOL0     C92244   4.600   0.500   5.096 -0.1621 -0.0279  0.6408
  669MOL0     C92245   4.459   0.465   5.143  0.6393  0.1189  0.2580
  669MOL0     C92246   4.355   0.574   5.105 -0.2558 -0.1687  0.4139
  669MOL0     C92247   4.217   0.560   5.181 -0.3716 -0.4651 -0.5688
  669MOL0     C92248   4.125   0.465   5.115  0.2709 -0.0214 -0.9912
  669MOL0     C92249   4.051   0.398   5.052  0.0852 -0.1397  0.4113
  669MOL0     C92250   4.904   0.512   5.103  0.3365  0.7711 -0.4878
  669MOL0     C92251   5.042   0.510   5.081  0.4847  0.5786 -0.1814
  669MOL0     C92252   5.124   0.639   5.093  0.2550  0.3244  0.5733
  669MOL0     H92253   5.441   0.126   4.801  0.5973 -1.0294  0.7106
  669MOL0     H92254   5.684   0.128   4.758 -1.4454  3.8752 -2.6931
  669MOL0     H92255   5.862   0.321   4.796 -0.3240  0.3344 -0.0704
  669MOL0     H92256   6.011   0.217   4.809 -1.0775  0.7417 -1.4379
  669MOL0     H92257   5.922   0.427   4.975 -1.2495 -0.2720 -2.9024
  669MOL0     H92258   6.022   0.296   5.050 -1.4080 -1.9361 -0.6540
  669MOL0     H92259   6.219   0.363   4.939  2.1940  1.3270 -2.8978
  669MOL0     H92260   6.134   0.433   4.802 -2.5113 -1.5703 -0.1547
  669MOL0     H92261   6.120   0.560   5.081 -1.2486 -3.7346 -0.9325
  669MOL0     H92262   6.250   0.607   4.969 -0.0865  0.3617  2.7062
  669MOL0     H92263   5.956   0.647   4.948 -0.7785  1.5373 -1.6510
  669MOL0     H92264   6.062   0.659   4.806  0.1672 -0.3819 -0.1864
  669MOL0     H92265   6.139   0.803   5.060  1.6397  3.9319 -0.1456
  669MOL0     H92266   6.193   0.827   4.890 -0.3864  0.0852  0.2770
  669MOL0     H92267   5.928   0.884   5.017  1.1843  1.5155  0.4978
  669MOL0     H92268   5.960   0.930   4.856 -0.8735 -3.8197 -0.1449
  669MOL0     H92269   6.085   1.033   5.113 -0.0401  2.5083  0.2178
  669MOL0     H92270   6.125   1.094   4.950  2.5393 -2.8643  1.1489
  669MOL0     H92271   5.789   1.038   5.156  1.7751 -1.5135 -1.2674
  669MOL0     H92272   5.661   1.324   5.230  0.5338 -0.2022 -0.0335
  669MOL0     H92273   5.574   1.162   5.193  2.1303 -2.1848 -3.0589
  669MOL0     H92274   5.530   1.367   4.990  0.5312 -1.4778 -0.0267
  669MOL0     H92275   5.426   1.244   5.052  1.8744 -0.5067  0.0049
  669MOL0     H92276   5.363   1.349   5.255 -3.3275  1.6778 -2.3579
  669MOL0     H92277   5.488   1.480   5.228  1.5002  0.2003 -0.1089
  669MOL0     H92278   5.259   1.541   5.141 -0.1263 -1.0213  2.1968
  669MOL0     H92279   5.401   1.547   5.037 -1.1877 -1.9759 -2.2941
  669MOL0     H92280   5.098   1.386   5.199  0.9634 -1.5829 -0.3743
  669MOL0     H92281   4.791   1.491   5.255  0.0529 -0.7904  1.0480
  669MOL0     H92282   4.907   1.372   5.300  2.0167  3.7551  0.3149
  669MOL0     H92283   4.759   1.313   5.222 -0.8464 -0.1782  2.5733
  669MOL0     H92284   4.472   1.609   4.954 -1.7844 -1.4405  0.3103
  669MOL0     H92285   4.236   1.643   4.878 -1.4717 -2.3130 -0.8355
  669MOL0     H92286   3.959   1.637   4.628  0.3287 -3.0441 -0.1158
  669MOL0     H92287   4.039   1.647   4.788 -0.6355 -0.9010  0.0916
  669MOL0     H92288   3.977   1.862   4.742  0.9003 -1.9080  1.7717
  669MOL0     H92289   4.152   1.855   4.695  1.0794  0.9021 -1.5796
  669MOL0     H92290   3.910   1.842   4.501  0.6035 -0.5685  0.0653
  669MOL0     H92291   4.087   1.833   4.468 -1.0359 -2.1883 -0.5528
  669MOL0     H92292   4.111   2.053   4.590  1.1942 -0.5735 -1.8963
  669MOL0     H92293   3.925   2.063   4.593 -0.3220  1.1155 -0.5883
  669MOL0     H92294   4.107   2.035   4.367 -0.6832 -2.5418  0.6420
  669MOL0     H92295   3.929   2.058   4.346  0.9165  2.3799 -2.5611
  669MOL0     H92296   4.123   2.252   4.486 -1.3948  2.2253 -0.2091
  669MOL0     H92297   3.953   2.278   4.446 -2.5213 -1.0770 -3.4899
  669MOL0     H92298   4.185   2.248   4.235 -0.5359 -0.7754 -0.9736
  669MOL0     H92299   4.122   2.403   4.287  2.5146 -0.5357 -1.8468
  669MOL0     H92300   3.884   2.284   4.199  0.0174  3.0318  0.7756
  669MOL0     H92301   4.006   2.163   4.133  0.4532 -0.9426  0.5243
  669MOL0     H92302   4.357   1.579   4.476  1.9198 -0.3177  0.3351
  669MOL0     H92303   4.588   1.497   4.572  0.6347 -4.9530  2.8111
  669MOL0     H92304   4.892   1.448   4.752 -1.9568  2.8999  0.2887
  669MOL0     H92305   5.114   1.405   4.779 -1.1619  2.9669 -0.3040
  669MOL0     H92306   5.742   0.268   5.157  1.5175  1.8918 -2.2325
  669MOL0     H92307   5.496   0.297   5.186  0.5030  2.3679  0.0709
  669MOL0     H92308   5.073   0.170   5.040  2.6291 -0.0707  0.3362
  669MOL0     H92309   4.830   0.183   5.110  0.0518 -0.0526  1.1428
  669MOL0     H92310   4.633   0.595   5.139  1.2941 -1.9384  4.1693
  669MOL0     H92311   4.620   0.510   4.989  4.2318  2.6586  1.4537
  669MOL0     H92312   4.460   0.442   5.250  3.5295  0.8120  0.4655
  669MOL0     H92313   4.440   0.366   5.099 -0.6566  0.2306  0.5331
  669MOL0     H92314   4.400   0.672   5.122  2.0192 -1.6083  4.0448
  669MOL0     H92315   4.337   0.570   4.998 -0.2255 -1.6859  0.4480
  669MOL0     H92316   4.163   0.652   5.205 -1.4691 -1.7351  2.2765
  669MOL0     H92317   4.230   0.535   5.287  0.3551  0.7361 -0.3570
  669MOL0     H92318   3.978   0.331   5.013  1.4848 -2.8732  2.2168
  669MOL0     H92319   4.857   0.609   5.112  1.9010  1.4769  0.4238
  669MOL0     H92320   5.081   0.711   5.164  0.4889 -0.7103  1.8057
  669MOL0     H92321   5.223   0.616   5.133  1.7271 -0.1150 -2.9587
  669MOL0     H92322   5.143   0.682   4.995  1.3871 -0.3803  0.4722
  670MOL0     O92323   4.242   6.137   4.568  0.0117 -0.1381 -0.0178
  670MOL0     C92324   4.163   6.076   4.492  0.4075 -0.4688  0.1200
  670MOL0     O92325   4.042   6.038   4.538  0.4038  0.1238 -0.2225
  670MOL0     C92326   4.010   6.067   4.666 -0.0077  0.4480 -0.5548
  670MOL0     C92327   3.961   5.964   4.749  0.2191 -0.1390  0.5064
  670MOL0     C92328   3.916   5.978   4.876  0.0244 -0.9437 -0.5502
  670MOL0     C92329   3.930   6.104   4.937  0.1163 -0.0663  0.5430
  670MOL0     O92330   3.880   6.133   5.063 -0.1313  0.8772  0.9088
  670MOL0     C92331   3.830   6.022   5.148  1.0676  0.0458  0.2721
  670MOL0     C92332   3.768   6.076   5.271 -0.2999  0.4504 -0.2530
  670MOL0     C92333   3.632   6.153   5.245 -0.1361  0.6086 -0.1294
  670MOL0     C92334   3.581   6.243   5.366 -0.0542  0.1480  0.4560
  670MOL0     C92335   3.437   6.278   5.329 -0.1454  0.8855 -1.4821
  670MOL0     C92336   3.382   6.379   5.437  0.2491 -0.1166  0.1647
  670MOL0     C92337   3.230   6.403   5.423 -0.0804 -0.2165  0.3762
  670MOL0     C92338   3.131   6.287   5.459 -0.1572 -0.1065 -0.1853
  670MOL0     N92339   3.161   6.230   5.592  0.0602 -0.1695 -0.0255
  670MOL0     C92340   3.144   6.292   5.712  0.3796  0.7550 -0.2901
  670MOL0     C92341   3.182   6.201   5.805 -0.8289 -1.3235  0.1705
  670MOL0     C92342   3.174   6.237   5.948  0.0465  0.3049 -0.5328
  670MOL0     C92343   3.137   6.110   6.030 -0.4963  0.0097 -0.5456
  670MOL0     C92344   3.253   6.015   6.065 -0.5006 -0.6457 -0.5881
  670MOL0     C92345   3.231   5.878   5.995 -0.0960  0.3159 -0.0399
  670MOL0     O92346   3.338   5.787   6.019  0.7787 -0.3275  0.5796
  670MOL0     C92347   3.462   5.799   5.972  0.1383 -0.4646 -0.6241
  670MOL0     C92348   3.487   5.851   5.845  0.3978 -0.0562 -0.6396
  670MOL0     C92349   3.615   5.835   5.793 -0.6866  0.2694  0.9799
  670MOL0     C92350   3.641   5.895   5.651 -0.4712  0.1086  0.0320
  670MOL0     C92351   3.725   5.795   5.867 -0.7302  0.1069 -0.6462
  670MOL0     C92352   3.870   5.795   5.824  0.4007 -0.2885  0.2914
  670MOL0     O92353   3.959   5.838   5.920  0.9449  0.1254  0.3045
  670MOL0     C92354   4.076   5.887   5.875 -0.2521  0.7074  0.2107
  670MOL0     C92355   4.195   5.834   5.928  0.2634  0.0349  0.1022
  670MOL0     C92356   4.319   5.883   5.888 -0.5427 -1.1660 -0.2025
  670MOL0     C92357   4.320   5.985   5.785 -0.6741  0.6216 -0.2406
  670MOL0     O92358   4.445   6.042   5.755  0.0576  0.1638 -0.0206
  670MOL0     C92359   4.526   5.966   5.659 -0.0050 -0.1969 -0.0410
  670MOL0     C92360   4.663   6.021   5.651  0.1124 -0.0692  0.2481
  670MOL0     C92361   4.730   5.956   5.537  1.0094 -0.1340 -0.8510
  670MOL0     C92362   4.866   6.018   5.507  0.4298 -0.2396 -0.9950
  670MOL0     C92363   4.948   5.938   5.402  0.0294 -0.6102  0.3493
  670MOL0     C92364   5.100   5.960   5.416 -0.0925  0.7642 -0.3265
  670MOL0     C92365   5.182   5.875   5.317  0.8911 -0.9271 -0.3823
  670MOL0     C92366   5.317   5.841   5.378 -0.0057  0.1800  0.0227
  670MOL0    Cl92367   5.433   5.830   5.259  0.0590 -0.2121 -0.0226
  670MOL0     C92368   4.204   6.047   5.746 -0.7903 -0.4339  0.3063
  670MOL0     C92369   4.083   5.993   5.783  0.3518 -0.2927 -0.8587
  670MOL0     O92370   3.892   5.762   5.709 -0.0563  0.2502  0.3819
  670MOL0     C92371   3.700   5.745   5.991  0.7194  0.6833 -1.2328
  670MOL0     C92372   3.567   5.751   6.045 -0.5524 -1.0446  0.3811
  670MOL0     N92373   3.253   6.103   5.739  0.1599 -0.2296  0.4466
  670MOL0     N92374   3.237   6.114   5.618 -0.3633 -0.1377  0.5594
  670MOL0     C92375   3.982   6.206   4.860  0.0355 -0.0352  0.2536
  670MOL0     C92376   4.026   6.193   4.730 -0.0651  1.3091 -0.4654
  670MOL0     C92377   4.200   6.048   4.350 -0.2063  0.3673  0.0127
  670MOL0     C92378   4.112   5.975   4.278 -0.6228 -0.5768 -0.3264
  670MOL0     C92379   4.145   5.933   4.154 -0.5615  0.4691 -0.3023
  670MOL0     C92380   4.270   5.963   4.094  0.4054 -0.1143 -0.9609
  670MOL0     O92381   4.299   5.922   3.971  0.3947 -0.1840 -0.6814
  670MOL0     C92382   4.264   6.013   3.864  0.3844  0.4883 -0.0804
  670MOL0     C92383   4.247   5.940   3.729 -0.2399  1.4388  0.4177
  670MOL0     C92384   4.391   5.901   3.679 -0.0359  0.7660  0.6256
  670MOL0     C92385   4.375   5.822   3.555  1.2381  0.6893  0.4074
  670MOL0     C92386   4.498   5.761   3.514 -0.8262 -0.2800 -0.3193
  670MOL0     C92387   4.603   5.717   3.484 -0.1982 -1.2056 -0.4156
  670MOL0     C92388   4.359   6.037   4.167  0.5449 -0.1110 -0.7175
  670MOL0     C92389   4.329   6.083   4.300 -0.0928 -0.3322  0.0094
  670MOL0     C92390   4.440   6.155   4.377 -0.3248  0.8449  0.4006
  670MOL0     H92391   3.964   5.868   4.700  0.1891 -1.1799  2.4483
  670MOL0     H92392   3.877   5.889   4.925 -1.7971 -0.2064 -0.5853
  670MOL0     H92393   3.908   5.950   5.174  2.5232  0.1227 -3.3277
  670MOL0     H92394   3.755   5.961   5.096  1.3519 -0.1508  0.0879
  670MOL0     H92395   3.748   5.988   5.332  1.0216 -0.1935 -0.7151
  670MOL0     H92396   3.833   6.155   5.310 -2.7231  1.3843  2.2824
  670MOL0     H92397   3.636   6.214   5.154 -1.5863  2.9510  1.2663
  670MOL0     H92398   3.550   6.084   5.221 -0.6076  0.7611  0.9695
  670MOL0     H92399   3.596   6.189   5.460  1.8095 -3.3321 -1.6420
  670MOL0     H92400   3.646   6.331   5.367 -0.2761  0.3284 -0.2198
  670MOL0     H92401   3.380   6.185   5.336  0.1419  0.8160  0.6207
  670MOL0     H92402   3.427   6.329   5.233 -2.9132  2.6029 -0.4062
  670MOL0     H92403   3.402   6.342   5.538  0.2357  4.2636  1.9850
  670MOL0     H92404   3.447   6.467   5.432  1.0716 -0.7584 -1.5882
  670MOL0     H92405   3.217   6.437   5.320  2.3874 -2.7039 -0.9142
  670MOL0     H92406   3.202   6.480   5.495  0.1629  0.2811 -0.0551
  670MOL0     H92407   3.027   6.320   5.464  0.0890  0.5223  1.8447
  670MOL0     H92408   3.134   6.210   5.382  0.3473 -0.7129  0.4317
  670MOL0     H92409   3.086   6.383   5.721 -0.8378  0.1486 -1.6715
  670MOL0     H92410   3.097   6.314   5.960  0.5792  0.9754 -1.2944
  670MOL0     H92411   3.265   6.286   5.984 -1.0452  0.6983  1.9299
  670MOL0     H92412   3.080   6.139   6.118 -2.1696 -0.4360 -1.4511
  670MOL0     H92413   3.064   6.053   5.971 -0.0554 -1.2116  0.0370
  670MOL0     H92414   3.351   6.061   6.052 -0.4001 -1.1224 -1.5971
  670MOL0     H92415   3.253   5.987   6.171 -0.0984 -1.3597 -0.7744
  670MOL0     H92416   3.139   5.835   6.035 -0.1646 -1.1051 -1.5978
  670MOL0     H92417   3.221   5.883   5.886 -0.4168  0.9287  0.0135
  670MOL0     H92418   3.407   5.897   5.787  0.4880 -1.2616 -1.7795
  670MOL0     H92419   3.555   5.945   5.605 -2.3068 -1.6633  1.3734
  670MOL0     H92420   3.681   5.826   5.576 -2.3721 -1.7427  0.6393
  670MOL0     H92421   3.714   5.976   5.663  0.9511 -0.9629 -1.0662
  670MOL0     H92422   4.187   5.757   6.004  3.3997 -1.4600 -0.8859
  670MOL0     H92423   4.414   5.855   5.933 -0.5730 -1.6519 -0.4288
  670MOL0     H92424   4.527   5.863   5.695 -1.4952 -0.1987  0.0509
  670MOL0     H92425   4.487   5.962   5.557  1.0481  0.2737 -0.4802
  670MOL0     H92426   4.654   6.129   5.639 -0.6694 -0.2561 -1.0612
  670MOL0     H92427   4.727   6.006   5.738  2.2132 -0.8568 -1.3428
  670MOL0     H92428   4.656   5.968   5.457 -4.5592  1.1347  3.8387
  670MOL0     H92429   4.740   5.849   5.557  2.0813  0.1536  0.2342
  670MOL0     H92430   4.926   6.008   5.598  0.6864 -1.8462 -1.3031
  670MOL0     H92431   4.863   6.124   5.482 -0.3070 -0.6432 -2.7783
  670MOL0     H92432   4.947   5.829   5.410 -4.6591 -0.6986  0.8863
  670MOL0     H92433   4.910   5.977   5.307 -1.8325  0.2983  1.4282
  670MOL0     H92434   5.121   5.918   5.515  0.3254 -1.8735 -1.4380
  670MOL0     H92435   5.131   6.065   5.422 -0.2695  0.7377  3.2342
  670MOL0     H92436   5.186   5.934   5.225 -0.1941  0.7850  0.6018
  670MOL0     H92437   5.122   5.786   5.299  0.0110 -0.4127 -0.0450
  670MOL0     H92438   5.302   5.749   5.435 -5.3209 -0.2583 -1.5415
  670MOL0     H92439   5.336   5.916   5.454 -3.0528 -0.5669  1.6756
  670MOL0     H92440   4.205   6.132   5.679 -0.5046  1.2247  2.3043
  670MOL0     H92441   3.998   6.043   5.737 -0.9422 -0.4356  1.2793
  670MOL0     H92442   3.780   5.704   6.052 -0.3723 -1.8745 -1.4094
  670MOL0     H92443   3.544   5.723   6.147 -3.3408 -2.1916 -0.4668
  670MOL0     H92444   3.986   6.307   4.900 -1.9882 -0.4961  1.8009
  670MOL0     H92445   4.068   6.285   4.691  0.9677  1.0273 -0.0502
  670MOL0     H92446   4.017   5.946   4.320 -1.2067  0.1869 -1.0803
  670MOL0     H92447   4.080   5.871   4.092  0.7286 -2.3266  0.9510
  670MOL0     H92448   4.173   6.071   3.885  0.4522 -0.1733  2.3351
  670MOL0     H92449   4.347   6.082   3.847  0.3947  0.3657 -0.5300
  670MOL0     H92450   4.181   6.001   3.666  1.4223  0.3998 -2.5131
  670MOL0     H92451   4.195   5.846   3.752  1.4450  0.8487  1.9931
  670MOL0     H92452   4.450   5.987   3.646  0.9571 -0.6096 -1.3306
  670MOL0     H92453   4.442   5.852   3.762 -0.9448  0.5384  1.0674
  670MOL0     H92454   4.341   5.892   3.478  1.2782 -0.5484 -0.7876
  670MOL0     H92455   4.298   5.744   3.564 -1.5649  2.5603 -3.7717
  670MOL0     H92456   4.698   5.677   3.455 -1.1007 -1.7803 -2.8616
  670MOL0     H92457   4.458   6.060   4.129  1.8701 -1.3514  1.6795
  670MOL0     H92458   4.462   6.112   4.475  1.0973  0.0047 -0.2519
  670MOL0     H92459   4.538   6.147   4.329 -0.4777 -2.3055  0.4118
  670MOL0     H92460   4.409   6.259   4.388 -0.5696  1.0227 -1.5522
  671MOL0     O92461   3.636   5.655   3.762 -1.2351 -0.7751 -0.1743
  671MOL0     C92462   3.715   5.566   3.801  1.0667  0.3768 -0.7973
  671MOL0     O92463   3.832   5.592   3.874 -0.6299  0.1086 -0.1612
  671MOL0     C92464   3.842   5.725   3.915 -0.1858  0.4098  0.2174
  671MOL0     C92465   3.796   5.754   4.041  0.3263  0.0557 -0.3698
  671MOL0     C92466   3.783   5.888   4.098 -1.2939  0.9084  0.1234
  671MOL0     C92467   3.831   5.992   4.015  1.0125 -0.0911  0.3513
  671MOL0     O92468   3.836   6.120   4.072  1.0533  0.0239  0.6174
  671MOL0     C92469   3.893   6.232   4.009 -0.3385  0.1764 -0.2904
  671MOL0     C92470   3.886   6.361   4.091 -0.0102 -0.6830 -0.4191
  671MOL0     C92471   3.972   6.348   4.217  0.0013 -0.1697 -0.9976
  671MOL0     C92472   4.018   6.487   4.274  0.6640 -0.9013  0.3245
  671MOL0     C92473   4.157   6.493   4.326 -0.0826  0.2426 -0.2443
  671MOL0     C92474   4.164   6.528   4.474 -0.1191  0.0470  0.2295
  671MOL0     C92475   4.115   6.669   4.498 -0.5047 -0.1101  0.1343
  671MOL0     C92476   4.096   6.694   4.651 -0.2535 -0.1708  0.3749
  671MOL0     N92477   4.216   6.757   4.716  0.1016 -1.5527 -0.5422
  671MOL0     C92478   4.349   6.759   4.675  0.0774  0.3046  0.5129
  671MOL0     C92479   4.408   6.850   4.756  0.2414  0.4289 -0.1756
  671MOL0     C92480   4.544   6.901   4.750  0.1639 -0.6343  0.2339
  671MOL0     C92481   4.646   6.799   4.777 -0.8394 -0.6279 -0.5471
  671MOL0     C92482   4.779   6.866   4.818 -0.5807  0.4697  0.3916
  671MOL0     C92483   4.857   6.913   4.690 -0.5741  0.5171  0.0428
  671MOL0     O92484   4.897   6.790   4.613 -0.2809  0.5559 -0.6758
  671MOL0     C92485   4.989   6.793   4.513  0.4285 -0.2635 -1.0988
  671MOL0     C92486   5.004   6.907   4.433  0.2622  0.6485  0.5590
  671MOL0     C92487   5.103   6.906   4.339  0.4252 -0.0127  0.7950
  671MOL0     C92488   5.116   7.039   4.263 -0.2205 -0.5662 -1.1775
  671MOL0     C92489   5.193   6.790   4.318 -0.8560  0.2675  0.1929
  671MOL0     C92490   5.313   6.798   4.230  0.6187  0.1213 -0.5425
  671MOL0     O92491   5.392   6.684   4.225 -0.2440  0.1216  0.2844
  671MOL0     C92492   5.501   6.680   4.143  0.1400 -0.0376 -0.0447
  671MOL0     C92493   5.521   6.557   4.078 -0.3170  0.5429  0.4133
  671MOL0     C92494   5.639   6.530   4.019 -0.7416 -0.3487 -0.6137
  671MOL0     C92495   5.747   6.623   4.009  0.6958 -1.1017 -0.9490
  671MOL0     O92496   5.845   6.596   3.918  0.1481  0.1855 -0.1009
  671MOL0     C92497   5.957   6.678   3.898 -0.3656  0.3788  0.2893
  671MOL0     C92498   6.037   6.630   3.775  0.3300 -0.3535  0.3370
  671MOL0     C92499   6.106   6.496   3.796 -0.0770 -0.4585  0.1788
  671MOL0     C92500   6.228   6.529   3.874 -0.5561 -0.9027  0.4277
  671MOL0     C92501   6.301   6.404   3.939  0.3625 -0.3695 -0.3289
  671MOL0     C92502   6.441   6.438   3.995  0.4047  0.5546  0.2699
  671MOL0     C92503   6.549   6.488   3.900 -0.5410 -0.2156  0.2167
  671MOL0     C92504   6.681   6.448   3.956  0.2645  0.3847 -0.4200
  671MOL0    Cl92505   6.728   6.562   4.102  0.0622 -0.0696 -0.0321
  671MOL0     C92506   5.720   6.752   4.071 -1.0304 -0.4595  0.2959
  671MOL0     C92507   5.604   6.774   4.151  1.4554  0.8496 -0.1192
  671MOL0     O92508   5.340   6.899   4.171  0.5153 -0.2109 -0.6455
  671MOL0     C92509   5.167   6.674   4.399 -0.1945 -0.6227 -1.0056
  671MOL0     C92510   5.065   6.681   4.493  0.5814  0.2355 -0.6334
  671MOL0     N92511   4.315   6.894   4.851 -0.0121 -0.5098 -0.3508
  671MOL0     N92512   4.202   6.840   4.824 -0.7604 -0.4775 -1.0825
  671MOL0     C92513   3.885   5.962   3.888  0.5236  0.0911  0.1028
  671MOL0     C92514   3.896   5.827   3.844  0.4180 -1.0901  0.1321
  671MOL0     C92515   3.691   5.425   3.765 -0.1250  0.0079  1.4931
  671MOL0     C92516   3.798   5.342   3.733  0.3034  0.0038 -0.4248
  671MOL0     C92517   3.788   5.216   3.670  0.0333 -0.0179 -0.5337
  671MOL0     C92518   3.662   5.164   3.645  0.4820  0.7060 -1.6245
  671MOL0     O92519   3.652   5.036   3.600 -0.0422  0.5681  0.0642
  671MOL0     C92520   3.554   4.991   3.505  0.4482 -0.0433 -0.1030
  671MOL0     C92521   3.534   4.845   3.516 -0.2485 -0.1407 -0.3635
  671MOL0     C92522   3.452   4.815   3.643  0.1207  0.6901  1.0332
  671MOL0     C92523   3.375   4.675   3.640 -0.9591  0.5890  0.6288
  671MOL0     C92524   3.449   4.566   3.570 -0.2717 -0.2021 -0.2781
  671MOL0     C92525   3.502   4.466   3.540 -0.2436 -0.4210  0.0792
  671MOL0     C92526   3.543   5.239   3.686  0.3132  0.4548  0.2314
  671MOL0     C92527   3.561   5.360   3.752  0.5325 -0.2088 -0.0214
  671MOL0     C92528   3.440   5.440   3.761 -0.1276 -0.1703 -0.0219
  671MOL0     H92529   3.759   5.671   4.100 -0.8282  0.0217 -1.0982
  671MOL0     H92530   3.731   5.910   4.191 -2.5566 -1.4926  0.0624
  671MOL0     H92531   3.831   6.239   3.919  1.6818  0.7307 -1.7162
  671MOL0     H92532   3.997   6.212   3.981 -0.1221  1.4723 -0.4808
  671MOL0     H92533   3.927   6.447   4.037  2.5011 -1.7401 -0.3503
  671MOL0     H92534   3.784   6.393   4.115  0.2710 -0.4605  0.5148
  671MOL0     H92535   3.921   6.298   4.299  2.8516 -4.9087 -1.7439
  671MOL0     H92536   4.061   6.288   4.197  2.7223  3.6468 -1.4105
  671MOL0     H92537   4.014   6.560   4.193  0.2741 -0.1322  1.0210
  671MOL0     H92538   3.936   6.510   4.343 -2.5894 -3.1218 -2.4823
  671MOL0     H92539   4.218   6.561   4.266 -0.3088 -1.6496 -2.7892
  671MOL0     H92540   4.203   6.394   4.326  0.6628  0.3217  4.5218
  671MOL0     H92541   4.098   6.454   4.522  1.2579 -0.4372  1.4341
  671MOL0     H92542   4.267   6.512   4.507  0.2366 -2.6798 -1.8514
  671MOL0     H92543   4.026   6.681   4.436  0.1986 -2.0016 -1.3662
  671MOL0     H92544   4.181   6.743   4.451 -0.8755  0.2801  0.2260
  671MOL0     H92545   4.006   6.754   4.669  0.8092  2.1403 -1.3430
  671MOL0     H92546   4.084   6.597   4.699 -0.8113 -0.7192 -0.8202
  671MOL0     H92547   4.403   6.713   4.592 -0.3630  0.4057  0.1670
  671MOL0     H92548   4.553   6.970   4.835 -1.4369  0.6352 -0.5739
  671MOL0     H92549   4.551   6.971   4.666 -2.8073  1.2326  1.3887
  671MOL0     H92550   4.612   6.738   4.861 -1.3240  0.7489  0.2897
  671MOL0     H92551   4.658   6.740   4.686 -0.3173  0.0774 -0.9549
  671MOL0     H92552   4.771   6.948   4.889  1.7450  1.7531 -0.7168
  671MOL0     H92553   4.838   6.791   4.871 -0.0452  2.5382  2.9094
  671MOL0     H92554   4.791   6.974   4.628  0.7019  3.6773  1.5694
  671MOL0     H92555   4.943   6.976   4.715 -1.6966  2.8667 -1.5818
  671MOL0     H92556   4.938   6.992   4.447  1.1947  1.4356  0.1942
  671MOL0     H92557   5.027   7.104   4.270 -0.2878 -0.6403 -1.3372
  671MOL0     H92558   5.123   7.014   4.156  0.9648  2.0203 -1.7688
  671MOL0     H92559   5.203   7.094   4.299 -0.9241  0.7962 -1.4614
  671MOL0     H92560   5.442   6.484   4.076 -0.8210  1.0983 -0.7605
  671MOL0     H92561   5.659   6.434   3.973 -1.9853 -1.1102  0.3853
  671MOL0     H92562   5.929   6.781   3.876  3.0585  1.8568  2.0765
  671MOL0     H92563   6.025   6.680   3.983 -1.0661 -1.0212  0.9125
  671MOL0     H92564   5.977   6.637   3.684 -0.0599 -0.1829  0.6035
  671MOL0     H92565   6.109   6.711   3.761  1.4543 -0.8341  2.7860
  671MOL0     H92566   6.128   6.441   3.704 -2.2230  0.0588 -0.7120
  671MOL0     H92567   6.048   6.432   3.863 -0.9044  1.5491  1.4713
  671MOL0     H92568   6.204   6.585   3.965  0.5240  2.2327 -1.0504
  671MOL0     H92569   6.290   6.593   3.810 -0.7032 -2.5934 -1.5215
  671MOL0     H92570   6.233   6.356   4.010 -0.0705 -1.2454 -1.3003
  671MOL0     H92571   6.325   6.327   3.865 -1.7584 -0.1321 -1.3164
  671MOL0     H92572   6.464   6.345   4.048 -3.4796 -0.7961 -0.0921
  671MOL0     H92573   6.427   6.506   4.079  2.5111 -1.1715  2.1558
  671MOL0     H92574   6.527   6.595   3.895 -3.4163 -0.7798 -1.4888
  671MOL0     H92575   6.539   6.448   3.799  1.5316  0.8485 -0.4849
  671MOL0     H92576   6.753   6.473   3.877 -0.4746  1.7313 -0.7061
  671MOL0     H92577   6.673   6.343   3.983 -0.3097 -0.1187 -2.3957
  671MOL0     H92578   5.798   6.827   4.062 -1.7889  0.6513  2.2230
  671MOL0     H92579   5.584   6.868   4.202 -1.9202  0.1006  0.2010
  671MOL0     H92580   5.228   6.586   4.384  0.3135 -0.0851 -2.2967
  671MOL0     H92581   5.045   6.599   4.562 -3.7874  0.7537 -1.0238
  671MOL0     H92582   3.918   6.037   3.816 -0.4419  1.4814  1.0548
  671MOL0     H92583   3.935   5.803   3.746  0.5294 -0.4182  0.0086
  671MOL0     H92584   3.895   5.378   3.766  0.8448  0.8540 -2.7574
  671MOL0     H92585   3.865   5.145   3.641 -1.2359 -1.6662  0.0121
  671MOL0     H92586   3.458   5.042   3.516 -1.4926 -3.6894  1.3319
  671MOL0     H92587   3.589   5.015   3.404  1.2134 -2.4285 -0.4701
  671MOL0     H92588   3.630   4.795   3.526 -0.9453 -1.7331 -1.2455
  671MOL0     H92589   3.475   4.802   3.434  0.8486 -0.8823 -0.7806
  671MOL0     H92590   3.513   4.834   3.731 -0.6544  1.9227  1.3411
  671MOL0     H92591   3.373   4.892   3.645 -0.2699  0.2829  1.9176
  671MOL0     H92592   3.269   4.681   3.614 -1.0683  1.0573  1.1745
  671MOL0     H92593   3.378   4.661   3.748  2.0866  1.0695  0.7055
  671MOL0     H92594   3.551   4.379   3.500 -1.4068 -0.1324 -2.1206
  671MOL0     H92595   3.441   5.202   3.683  0.3759  0.2491  0.5506
  671MOL0     H92596   3.395   5.446   3.661  0.5340  0.9069 -0.2752
  671MOL0     H92597   3.371   5.394   3.832  1.8887 -3.7538 -0.1274
  671MOL0     H92598   3.467   5.535   3.809  3.3616 -0.0265 -1.9335
  672MOL0     O92599  11.440  10.863   4.068  0.7463 -0.3669  0.3151
  672MOL0     C92600  11.454  10.785   3.977  0.2861 -0.2705  0.0847
  672MOL0     O92601  11.555  10.790   3.880  0.1840  0.0327  0.1747
  672MOL0     C92602  11.645  10.902   3.866  0.2656  0.2113  0.0118
  672MOL0     C92603  11.608  11.037   3.889 -0.3179  0.6405 -0.1826
  672MOL0     C92604  11.699  11.137   3.853 -0.0883 -0.2261 -1.0281
  672MOL0     C92605  11.830  11.108   3.805 -1.2676  0.5490  0.0917
  672MOL0     O92606  11.923  11.210   3.785 -0.1748 -0.0806 -0.0380
  672MOL0     C92607  12.056  11.192   3.738 -0.8548  0.2107 -0.3051
  672MOL0     C92608  12.142  11.314   3.738 -0.3731  0.1953  0.2238
  672MOL0     C92609  12.148  11.380   3.875  0.0306  0.7108 -0.0023
  672MOL0     C92610  12.278  11.350   3.952 -0.0336 -0.3697  0.3198
  672MOL0     C92611  12.281  11.425   4.088 -0.0561  0.1141 -0.3790
  672MOL0     C92612  12.416  11.404   4.167  0.7849  0.4106  0.1564
  672MOL0     C92613  12.544  11.418   4.082 -0.1402  0.9367 -0.3534
  672MOL0     C92614  12.658  11.454   4.185  0.1626 -0.5518 -1.3578
  672MOL0     N92615  12.785  11.430   4.117  0.3620 -0.3388 -0.2203
  672MOL0     C92616  12.849  11.508   4.023  0.8933 -0.3299 -0.5130
  672MOL0     C92617  12.971  11.444   4.017 -0.0213  0.0694 -0.3238
  672MOL0     C92618  13.089  11.486   3.938 -1.0325 -0.3419 -0.2110
  672MOL0     C92619  13.109  11.429   3.791  0.6632 -0.1056 -0.2442
  672MOL0     C92620  13.125  11.281   3.788 -0.2132 -0.0261  0.5361
  672MOL0     C92621  13.188  11.233   3.659  0.1936  0.7448  0.6557
  672MOL0     O92622  13.107  11.282   3.547  0.3202  0.1895 -0.1511
  672MOL0     C92623  13.077  11.191   3.462  0.6326  1.0779 -0.2380
  672MOL0     C92624  12.943  11.178   3.430  0.3401 -0.5730 -0.7438
  672MOL0     C92625  12.896  11.089   3.332 -0.7512 -0.6600 -0.7170
  672MOL0     C92626  12.747  11.088   3.298 -0.2451  0.2832 -0.1952
  672MOL0     C92627  12.986  11.003   3.263  0.3928  0.1840  0.2024
  672MOL0     C92628  12.951  10.911   3.152 -0.3452 -0.3575 -0.5043
  672MOL0     O92629  13.013  10.787   3.161 -0.2024 -0.0707  0.4250
  672MOL0     C92630  13.063  10.736   3.043 -0.0708 -0.2807  0.3016
  672MOL0     C92631  13.153  10.631   3.062  0.1496  0.0506  0.5671
  672MOL0     C92632  13.207  10.565   2.948 -0.1681  0.7809 -0.0793
  672MOL0     C92633  13.191  10.608   2.817  0.0290  0.4910 -0.1891
  672MOL0     O92634  13.265  10.559   2.716  0.7138  0.5136 -0.6487
  672MOL0     C92635  13.198  10.486   2.607  0.1901 -0.1774 -0.0347
  672MOL0     C92636  13.130  10.352   2.653 -0.2449 -0.1959  0.4815
  672MOL0     C92637  13.232  10.242   2.701  0.6939  0.3238  0.8906
  672MOL0     C92638  13.138  10.137   2.771  0.6001  0.6514 -0.1371
  672MOL0     C92639  13.231  10.033   2.834 -0.7794 -0.5775 -0.2426
  672MOL0     C92640  13.147   9.961   2.936  0.5360 -0.3568  0.6201
  672MOL0     C92641  13.209   9.826   2.968  0.7527 -0.0376 -0.1539
  672MOL0     C92642  13.105   9.724   3.019  0.5952 -0.1105 -0.3085
  672MOL0    Cl92643  13.179   9.599   3.113  0.1967 -0.0740 -0.3420
  672MOL0     C92644  13.103  10.717   2.801 -0.2448 -0.1036  0.7335
  672MOL0     C92645  13.036  10.780   2.909  0.0529 -0.7490 -0.5403
  672MOL0     O92646  12.869  10.946   3.068 -1.1335 -0.3205  0.4579
  672MOL0     C92647  13.124  11.019   3.293 -0.1923  0.4581 -0.6454
  672MOL0     C92648  13.171  11.107   3.398  0.8123  0.8790  0.2487
  672MOL0     N92649  12.975  11.333   4.094 -0.4866 -0.2698  1.6706
  672MOL0     N92650  12.867  11.333   4.156  0.3061 -0.8277  0.7731
  672MOL0     C92651  11.858  10.972   3.785 -0.9513 -0.4382  0.2956
  672MOL0     C92652  11.771  10.874   3.821  0.5363  1.0999 -0.6424
  672MOL0     C92653  11.351  10.676   3.968 -0.2441 -0.0433 -0.0065
  672MOL0     C92654  11.359  10.584   3.860  0.3631  0.2952 -0.0291
  672MOL0     C92655  11.271  10.481   3.844 -0.9457 -0.7464 -0.2889
  672MOL0     C92656  11.171  10.454   3.929 -1.0030  0.0222  0.1838
  672MOL0     O92657  11.098  10.343   3.885  0.4107 -0.3032  0.4191
  672MOL0     C92658  10.972  10.315   3.946  0.7668 -0.1070  0.1485
  672MOL0     C92659  10.859  10.402   3.889 -0.1500 -0.0889  0.0951
  672MOL0     C92660  10.721  10.362   3.941 -0.2623 -0.5986 -0.3893
  672MOL0     C92661  10.633  10.290   3.829 -0.2576  0.1673 -0.6838
  672MOL0     C92662  10.526  10.219   3.898 -0.4197 -0.8723  0.9521
  672MOL0     C92663  10.437  10.169   3.960  0.0440 -0.3148  0.7126
  672MOL0     C92664  11.155  10.537   4.041  0.6568  0.0363  0.1264
  672MOL0     C92665  11.244  10.650   4.063 -0.4922  0.3764 -0.4973
  672MOL0     C92666  11.221  10.733   4.186  0.3301 -0.0719 -0.1286
  672MOL0     H92667  11.507  11.062   3.920 -0.2580  1.0566 -0.3224
  672MOL0     H92668  11.667  11.239   3.874 -2.2427 -1.2236  0.9570
  672MOL0     H92669  12.051  11.152   3.637 -1.9800  1.4223 -0.7505
  672MOL0     H92670  12.119  11.116   3.787 -1.5387  0.0880  0.4004
  672MOL0     H92671  12.247  11.303   3.710 -0.6470  1.2469 -1.3622
  672MOL0     H92672  12.096  11.391   3.676 -0.2424  0.2953  0.2522
  672MOL0     H92673  12.131  11.487   3.860 -1.6322  0.4261 -0.3109
  672MOL0     H92674  12.065  11.348   3.938  0.3809  0.3400  0.2827
  672MOL0     H92675  12.292  11.243   3.965  2.2173 -0.1350  0.3335
  672MOL0     H92676  12.357  11.396   3.892 -0.7532  0.9814  0.3730
  672MOL0     H92677  12.206  11.377   4.151 -1.7059 -1.2312 -3.1803
  672MOL0     H92678  12.240  11.526   4.090 -2.1795 -0.6784 -1.5974
  672MOL0     H92679  12.421  11.474   4.251 -1.0394 -0.3883  0.9849
  672MOL0     H92680  12.404  11.302   4.204 -0.9479  0.5045 -0.0462
  672MOL0     H92681  12.522  11.503   4.016 -1.5907  1.5207  0.8209
  672MOL0     H92682  12.576  11.328   4.030  0.0654  0.6499  0.2564
  672MOL0     H92683  12.653  11.558   4.219 -0.3070 -0.7218 -0.9109
  672MOL0     H92684  12.661  11.387   4.272  0.0230  0.0971 -0.8471
  672MOL0     H92685  12.815  11.602   3.980 -0.8320 -0.6178  0.1198
  672MOL0     H92686  13.184  11.454   3.982 -2.0840 -3.5914  0.0148
  672MOL0     H92687  13.075  11.594   3.943 -0.7359 -0.2908 -0.4190
  672MOL0     H92688  13.026  11.458   3.727 -1.3968 -0.7252  2.0241
  672MOL0     H92689  13.197  11.477   3.746  1.6038 -0.9365  0.6526
  672MOL0     H92690  13.195  11.253   3.866  1.4825 -0.2659 -0.9993
  672MOL0     H92691  13.026  11.236   3.801  0.3222 -1.2474  0.5677
  672MOL0     H92692  13.291  11.271   3.664 -0.3171  2.1383  1.1127
  672MOL0     H92693  13.198  11.125   3.645  1.6266  0.9525 -0.1008
  672MOL0     H92694  12.872  11.249   3.470 -0.0413 -1.2886 -0.1207
  672MOL0     H92695  12.692  11.002   3.338  0.2118  0.2237  0.3236
  672MOL0     H92696  12.727  11.088   3.191  1.7108  3.5170 -0.6866
  672MOL0     H92697  12.701  11.178   3.340 -1.4523 -0.3958 -0.0215
  672MOL0     H92698  13.164  10.602   3.166 -0.4769  1.4460  1.0549
  672MOL0     H92699  13.281  10.486   2.957  0.9842  1.9614  1.2599
  672MOL0     H92700  13.126  10.559   2.567  0.5625  0.1487 -0.1207
  672MOL0     H92701  13.269  10.460   2.528  1.0774  1.1356  0.2857
  672MOL0     H92702  13.046  10.379   2.717 -1.5611  1.7844 -1.9156
  672MOL0     H92703  13.072  10.312   2.569 -1.0758  1.7021  0.0996
  672MOL0     H92704  13.308  10.274   2.772  0.5419  1.0650  0.7317
  672MOL0     H92705  13.284  10.197   2.616  0.4463 -1.4073  1.6277
  672MOL0     H92706  13.065  10.093   2.703  1.4011 -1.1590  0.0981
  672MOL0     H92707  13.087  10.185   2.855  1.2611 -0.9275  1.2491
  672MOL0     H92708  13.257   9.969   2.749  0.0276 -1.6373  0.7802
  672MOL0     H92709  13.313  10.076   2.892  0.3729 -1.0879 -1.4369
  672MOL0     H92710  13.050   9.938   2.891  1.2278 -2.7717  0.1646
  672MOL0     H92711  13.131  10.028   3.020 -1.3696  0.4632 -0.3307
  672MOL0     H92712  13.283   9.847   3.046 -2.1468 -0.3157  2.8888
  672MOL0     H92713  13.267   9.781   2.887  0.4895 -1.5047  0.4290
  672MOL0     H92714  13.054   9.688   2.930  0.3765 -2.2586  0.6321
  672MOL0     H92715  13.035   9.773   3.088  0.4114 -0.0022 -0.5709
  672MOL0     H92716  13.086  10.754   2.700 -0.4488 -0.2605  0.7107
  672MOL0     H92717  12.977  10.867   2.882 -0.3360 -0.3413  1.4536
  672MOL0     H92718  13.206  10.981   3.232  1.5639 -0.4782  2.1309
  672MOL0     H92719  13.277  11.122   3.410  0.9702 -1.3288  2.3514
  672MOL0     H92720  11.958  10.945   3.751 -0.2558  0.3583  1.5959
  672MOL0     H92721  11.818  10.777   3.824  1.8578  1.7341  0.9350
  672MOL0     H92722  11.435  10.576   3.783  2.8085 -0.9188  2.3432
  672MOL0     H92723  11.283  10.436   3.746 -2.2942  2.0133 -1.8341
  672MOL0     H92724  10.946  10.215   3.911  1.6118 -0.0414 -0.7254
  672MOL0     H92725  10.972  10.314   4.055 -2.6025 -0.1200  0.2701
  672MOL0     H92726  10.853  10.387   3.781 -4.1586 -2.7582  0.4753
  672MOL0     H92727  10.877  10.508   3.912  1.9379 -0.3181 -0.2931
  672MOL0     H92728  10.720  10.291   4.024  1.0360  0.4768  0.5898
  672MOL0     H92729  10.675  10.457   3.969  3.1221  1.3270 -0.9111
  672MOL0     H92730  10.695  10.229   3.763  0.7247 -0.9074  1.1473
  672MOL0     H92731  10.579  10.372   3.780  2.5985  2.6915  0.0462
  672MOL0     H92732  10.357  10.127   4.017 -0.7437  1.5332  1.0447
  672MOL0     H92733  11.068  10.505   4.097  0.0335 -4.3836 -2.8589
  672MOL0     H92734  11.162  10.680   4.261  0.9742  0.4187  0.7450
  672MOL0     H92735  11.320  10.754   4.228  1.5666  1.2491 -3.3877
  672MOL0     H92736  11.181  10.828   4.151 -1.0863 -1.2294 -1.8222
  673MOL0     O92737   4.162   0.129   1.258 -0.5417 -0.1017  0.3833
  673MOL0     C92738   4.137   0.004   1.258 -0.0182  0.1164  0.4667
  673MOL0     O92739   4.216  -0.099   1.231 -0.3308 -0.7111 -0.1523
  673MOL0     C92740   4.340  -0.067   1.176  0.0108 -0.8180  0.0544
  673MOL0     C92741   4.354   0.009   1.060 -0.4663 -1.1345  0.6318
  673MOL0     C92742   4.477   0.019   0.996  0.3872 -0.0887  0.6842
  673MOL0     C92743   4.587  -0.052   1.041 -0.4379  1.1971  1.2980
  673MOL0     O92744   4.717  -0.057   0.988 -0.2241  0.5229  0.5706
  673MOL0     C92745   4.726  -0.026   0.848 -0.1033  1.3042  0.6179
  673MOL0     C92746   4.852  -0.087   0.785 -0.3133  1.3052 -0.3849
  673MOL0     C92747   4.867  -0.241   0.796  0.1829 -0.1056  0.0222
  673MOL0     C92748   4.917  -0.293   0.932  0.2221 -0.9156  0.7112
  673MOL0     C92749   4.994  -0.432   0.928  0.7412  0.1292  0.0959
  673MOL0     C92750   4.907  -0.555   0.884  0.4745 -0.0056 -0.0143
  673MOL0     C92751   4.942  -0.686   0.961  0.1644  0.4938 -0.1192
  673MOL0     C92752   4.857  -0.716   1.086 -0.4612 -0.1207 -0.7970
  673MOL0     N92753   4.730  -0.787   1.058  0.0452 -0.2375  0.4132
  673MOL0     C92754   4.715  -0.919   1.035 -0.7713  0.4605 -0.0843
  673MOL0     C92755   4.584  -0.941   1.040 -0.7834  0.3636 -1.2597
  673MOL0     C92756   4.519  -1.072   1.022  0.2647  0.1620  0.3394
  673MOL0     C92757   4.506  -1.147   1.154 -0.6347 -0.0373  0.0121
  673MOL0     C92758   4.411  -1.268   1.137 -0.1012  0.0202 -0.3498
  673MOL0     C92759   4.361  -1.324   1.269 -0.3309 -0.6344  0.1505
  673MOL0     O92760   4.354  -1.461   1.269 -0.3215 -0.1661  0.5193
  673MOL0     C92761   4.314  -1.527   1.388 -1.0060 -0.6324  0.1432
  673MOL0     C92762   4.260  -1.459   1.497  1.0051 -0.0750  0.1585
  673MOL0     C92763   4.228  -1.535   1.610 -0.4815 -0.3045 -0.3787
  673MOL0     C92764   4.178  -1.460   1.728 -0.3190  0.8211  0.6732
  673MOL0     C92765   4.227  -1.681   1.610  0.0432  0.2698  0.2803
  673MOL0     C92766   4.188  -1.763   1.727  0.2282 -0.3451 -0.6204
  673MOL0     O92767   4.065  -1.747   1.777  0.5648  0.1066  0.6585
  673MOL0     C92768   4.029  -1.798   1.898  0.4340  0.4888 -0.2994
  673MOL0     C92769   3.895  -1.832   1.902  0.4127 -0.2878 -0.2577
  673MOL0     C92770   3.845  -1.888   2.018 -0.4365 -0.4440  0.6494
  673MOL0     C92771   3.915  -1.892   2.134  0.3699 -0.9984 -0.5416
  673MOL0     O92772   3.858  -1.949   2.249  0.8538  0.4490 -0.1074
  673MOL0     C92773   3.915  -1.927   2.377  0.4022 -0.4552  0.6162
  673MOL0     C92774   3.842  -1.998   2.486  0.6103  0.9470  0.0983
  673MOL0     C92775   3.702  -1.943   2.500 -0.4915 -0.4521  0.1452
  673MOL0     C92776   3.623  -1.972   2.621  0.3572  1.0855  0.5175
  673MOL0     C92777   3.512  -1.879   2.662  1.5030 -0.1515 -0.1002
  673MOL0     C92778   3.400  -1.881   2.555  0.2792 -0.5816 -0.5588
  673MOL0     C92779   3.289  -1.776   2.569  0.2031 -0.2850  0.2113
  673MOL0     C92780   3.162  -1.806   2.650 -0.1507 -0.0170 -1.0084
  673MOL0    Cl92781   3.110  -1.972   2.618 -0.1819 -0.1160 -0.3032
  673MOL0     C92782   4.052  -1.852   2.129 -0.0998  0.7074  0.0273
  673MOL0     C92783   4.105  -1.809   2.008 -0.5193  0.1838 -0.3546
  673MOL0     O92784   4.269  -1.857   1.761 -1.0568  0.0466  0.2384
  673MOL0     C92785   4.277  -1.745   1.495 -0.3451 -0.0545 -1.2642
  673MOL0     C92786   4.319  -1.667   1.389  0.2351  0.3163  1.0026
  673MOL0     N92787   4.519  -0.818   1.066 -0.6900 -0.6414  0.8634
  673MOL0     N92788   4.606  -0.731   1.074 -0.8267  0.3458  0.1331
  673MOL0     C92789   4.575  -0.118   1.158 -0.3769  0.7043 -0.9817
  673MOL0     C92790   4.453  -0.124   1.233  0.9044  0.2390  0.7233
  673MOL0     C92791   4.008  -0.044   1.298  0.3390 -0.1979 -0.0607
  673MOL0     C92792   3.927  -0.111   1.206  0.0820  0.0575 -0.3169
  673MOL0     C92793   3.796  -0.150   1.235  0.1525 -0.0002  0.0739
  673MOL0     C92794   3.742  -0.125   1.360 -0.0355 -0.3094 -0.4254
  673MOL0     O92795   3.623  -0.173   1.404 -0.2424  0.7406  0.6072
  673MOL0     C92796   3.541  -0.256   1.319  0.1620 -0.4189 -0.2357
  673MOL0     C92797   3.590  -0.394   1.312 -0.2985 -0.0525  0.9570
  673MOL0     C92798   3.483  -0.495   1.251 -0.7866 -1.0006  0.5680
  673MOL0     C92799   3.448  -0.468   1.104  0.0932 -0.1995  0.6709
  673MOL0     C92800   3.566  -0.477   1.013 -0.4472 -0.7055 -0.3345
  673MOL0     C92801   3.656  -0.474   0.933 -0.8925  0.5187  0.1030
  673MOL0     C92802   3.828  -0.047   1.446 -0.6907 -0.9481 -0.9996
  673MOL0     C92803   3.951  -0.003   1.416 -0.6330 -0.7009  0.0137
  673MOL0     C92804   4.022   0.079   1.520 -0.2314  0.0665  0.2352
  673MOL0     H92805   4.265   0.048   1.012 -0.7571  0.2756  2.2056
  673MOL0     H92806   4.488   0.089   0.914 -4.3829  0.1851 -0.0064
  673MOL0     H92807   4.726   0.083   0.833 -2.2446  1.4906  1.7156
  673MOL0     H92808   4.642  -0.073   0.797 -0.5221 -1.8055  3.8272
  673MOL0     H92809   4.858  -0.059   0.680 -0.6572  3.2786  0.0829
  673MOL0     H92810   4.932  -0.037   0.842 -1.9677  3.6114  0.0528
  673MOL0     H92811   4.777  -0.289   0.758 -0.9885 -0.7762  3.3211
  673MOL0     H92812   4.942  -0.280   0.727  0.2153 -1.2531  0.6802
  673MOL0     H92813   4.973  -0.213   0.981 -0.2904  0.5012 -0.9213
  673MOL0     H92814   4.833  -0.319   0.997  0.3990 -1.6754  0.6386
  673MOL0     H92815   5.034  -0.444   1.029  0.2800  0.7167  0.3515
  673MOL0     H92816   5.078  -0.431   0.859  2.7581  0.2934  2.4440
  673MOL0     H92817   4.802  -0.533   0.905  0.8247 -1.7263  4.6917
  673MOL0     H92818   4.930  -0.581   0.781 -0.3730 -0.2984 -0.1398
  673MOL0     H92819   5.048  -0.681   0.985  0.4144 -1.2634 -0.7197
  673MOL0     H92820   4.912  -0.764   0.891 -1.6846  2.6206 -1.8439
  673MOL0     H92821   4.920  -0.777   1.152  0.9131 -0.7309 -2.5677
  673MOL0     H92822   4.836  -0.622   1.137  2.8782  0.9923 -1.2140
  673MOL0     H92823   4.785  -1.001   1.018 -0.5205  0.4452  0.9600
  673MOL0     H92824   4.577  -1.124   0.946  1.2181 -0.1652  1.2775
  673MOL0     H92825   4.421  -1.056   0.974 -0.8613 -0.0152  2.4522
  673MOL0     H92826   4.606  -1.179   1.185 -1.3467 -3.2305 -0.5779
  673MOL0     H92827   4.464  -1.075   1.225  3.9129  2.1207  0.8885
  673MOL0     H92828   4.324  -1.257   1.071 -1.0670  2.5283  1.2006
  673MOL0     H92829   4.478  -1.347   1.103 -1.6846 -2.2926  1.5010
  673MOL0     H92830   4.428  -1.280   1.344  2.7137 -2.6203 -1.2592
  673MOL0     H92831   4.259  -1.289   1.292  0.4713  2.2496 -0.3160
  673MOL0     H92832   4.250  -1.351   1.500 -2.1441 -0.2938  0.0805
  673MOL0     H92833   4.071  -1.479   1.741 -0.4629 -1.7783 -2.7136
  673MOL0     H92834   4.199  -1.353   1.725  1.8047  0.4767 -3.0770
  673MOL0     H92835   4.225  -1.495   1.820  0.0627 -0.4607  0.0293
  673MOL0     H92836   3.837  -1.801   1.816 -1.3816  2.4101  1.7613
  673MOL0     H92837   3.744  -1.928   2.016 -0.6633  0.1348  0.2915
  673MOL0     H92838   4.010  -1.980   2.385  0.9583  0.7914  3.3585
  673MOL0     H92839   3.930  -1.819   2.388 -1.7156  0.3768 -2.9767
  673MOL0     H92840   3.838  -2.108   2.482  0.2945  0.9663 -0.1599
  673MOL0     H92841   3.893  -1.973   2.580  0.4644  0.1392  0.4080
  673MOL0     H92842   3.646  -1.959   2.408  1.8727  1.8398 -1.8504
  673MOL0     H92843   3.717  -1.835   2.509  1.4685 -0.2381 -3.6425
  673MOL0     H92844   3.688  -1.977   2.709  1.4031 -0.3047 -0.3001
  673MOL0     H92845   3.582  -2.072   2.608  4.4086 -0.7230  0.3157
  673MOL0     H92846   3.470  -1.913   2.757 -0.6795 -1.9897 -1.6012
  673MOL0     H92847   3.550  -1.776   2.663 -0.8990  0.9140 -3.1335
  673MOL0     H92848   3.359  -1.981   2.541  2.9528 -1.6729 -1.1265
  673MOL0     H92849   3.440  -1.859   2.455 -1.4995 -0.9617 -1.3977
  673MOL0     H92850   3.258  -1.753   2.466  2.9996 -1.1885 -0.9059
  673MOL0     H92851   3.347  -1.688   2.599 -0.2205  0.4807 -1.1196
  673MOL0     H92852   3.084  -1.735   2.623 -0.3323 -0.4298 -1.5877
  673MOL0     H92853   3.177  -1.808   2.758  2.3313 -0.3817 -1.3051
  673MOL0     H92854   4.121  -1.858   2.212  0.0212  2.2581  0.0579
  673MOL0     H92855   4.201  -1.760   1.999 -1.3262  1.7421 -0.9174
  673MOL0     H92856   4.262  -1.853   1.495 -0.9539 -0.0324  1.3105
  673MOL0     H92857   4.373  -1.729   1.319  1.5588  4.0933 -1.6109
  673MOL0     H92858   4.668  -0.164   1.191  0.1507 -0.0517 -3.3512
  673MOL0     H92859   4.431  -0.190   1.317 -0.7432  0.7865  0.7592
  673MOL0     H92860   3.976  -0.138   1.113  0.9075 -1.3098  0.4754
  673MOL0     H92861   3.736  -0.198   1.158  0.8130  0.9379 -1.0738
  673MOL0     H92862   3.443  -0.242   1.366  0.2807 -0.0843 -0.0771
  673MOL0     H92863   3.521  -0.227   1.215  0.1103  1.3690  0.2304
  673MOL0     H92864   3.612  -0.421   1.416  0.3820  2.0093  1.4159
  673MOL0     H92865   3.685  -0.398   1.258 -0.7406  0.5233  0.1310
  673MOL0     H92866   3.523  -0.596   1.258 -0.2953 -0.6938  3.4285
  673MOL0     H92867   3.393  -0.484   1.312 -0.5356 -2.1477  1.1827
  673MOL0     H92868   3.398  -0.371   1.092 -0.0495 -0.5079 -1.6654
  673MOL0     H92869   3.375  -0.544   1.075 -1.6164  1.5310  0.2092
  673MOL0     H92870   3.735  -0.473   0.861 -1.0482  1.5089 -0.0649
  673MOL0     H92871   3.788  -0.025   1.545 -0.9158 -0.7541 -1.1318
  673MOL0     H92872   4.026   0.183   1.487  1.4012  1.2215  3.5751
  673MOL0     H92873   3.971   0.085   1.617 -0.8456  1.9424 -0.1707
  673MOL0     H92874   4.126   0.050   1.537 -0.1162  0.8493  0.9387
  674MOL0     O92875   4.186   2.086   0.811  0.5057  0.1737  0.2615
  674MOL0     C92876   4.173   1.969   0.832 -0.7644  0.4703  0.3260
  674MOL0     O92877   4.266   1.869   0.808  0.0808  0.1764  1.1826
  674MOL0     C92878   4.383   1.892   0.741  0.6359 -0.4468 -0.6640
  674MOL0     C92879   4.448   2.013   0.724  0.2685  0.0659 -0.5917
  674MOL0     C92880   4.568   2.024   0.662  0.1357 -0.3512 -0.0567
  674MOL0     C92881   4.642   1.916   0.619 -0.3624 -0.0632 -0.4739
  674MOL0     O92882   4.769   1.926   0.563  0.1729  0.3170 -0.3337
  674MOL0     C92883   4.808   1.843   0.457  0.0701  1.4807 -1.5121
  674MOL0     C92884   4.935   1.909   0.382 -0.4412 -0.0867  0.5705
  674MOL0     C92885   5.060   1.903   0.473  0.4060  0.4981 -0.6511
  674MOL0     C92886   5.180   1.973   0.418  0.2504  1.5199 -0.1963
  674MOL0     C92887   5.235   1.910   0.288 -0.0865 -0.3129  0.5419
  674MOL0     C92888   5.359   1.984   0.238  0.3126  0.1968  0.2580
  674MOL0     C92889   5.447   1.888   0.138  0.3244 -1.2737 -0.3860
  674MOL0     C92890   5.376   1.856   0.012  0.1812  0.5284  0.0036
  674MOL0     N92891   5.472   1.841  -0.098 -0.0876  0.1302  0.1825
  674MOL0     C92892   5.538   1.724  -0.114 -0.5666 -0.3713  0.4539
  674MOL0     C92893   5.596   1.743  -0.233 -0.5192  0.3648  0.3351
  674MOL0     C92894   5.688   1.646  -0.303  0.1772  0.4785  0.7803
  674MOL0     C92895   5.832   1.690  -0.275 -0.4730 -0.5777 -0.1461
  674MOL0     C92896   5.878   1.819  -0.344 -0.1027  0.1368  0.2062
  674MOL0     C92897   6.026   1.856  -0.309 -0.2065  0.3813  0.0901
  674MOL0     O92898   6.123   1.754  -0.336  0.0530  0.4908  0.3094
  674MOL0     C92899   6.157   1.732  -0.468 -0.1941 -0.6635  0.4635
  674MOL0     C92900   6.128   1.801  -0.585  0.1696 -0.3534  0.4287
  674MOL0     C92901   6.186   1.771  -0.708  0.3014 -0.2347  0.8735
  674MOL0     C92902   6.129   1.850  -0.826 -0.0026  0.0489  0.0797
  674MOL0     C92903   6.274   1.661  -0.718 -0.1225  0.0783  0.2394
  674MOL0     C92904   6.327   1.620  -0.848 -0.8759  0.4855  0.0221
  674MOL0     O92905   6.413   1.713  -0.897 -0.9336  0.1818 -0.5384
  674MOL0     C92906   6.473   1.701  -1.015  0.1542 -0.7822 -0.2137
  674MOL0     C92907   6.435   1.623  -1.130  0.4720 -0.1972 -0.3482
  674MOL0     C92908   6.516   1.636  -1.244  1.0367 -0.2288  0.0015
  674MOL0     C92909   6.639   1.699  -1.250  0.3794  0.7321 -0.0349
  674MOL0     O92910   6.710   1.686  -1.365  0.4460 -0.6146 -0.6748
  674MOL0     C92911   6.839   1.634  -1.348 -0.4432  0.3012 -0.5102
  674MOL0     C92912   6.936   1.730  -1.418 -0.0393  0.5411  0.8461
  674MOL0     C92913   7.074   1.691  -1.378 -0.2949  1.2474  0.3896
  674MOL0     C92914   7.175   1.792  -1.431  0.4038  0.5609 -0.0492
  674MOL0     C92915   7.208   1.780  -1.578  0.3163  0.6708  0.2322
  674MOL0     C92916   7.292   1.883  -1.634 -0.2081 -0.6987 -0.6578
  674MOL0     C92917   7.269   1.887  -1.792 -0.0474  0.2541  0.6596
  674MOL0     C92918   7.350   2.009  -1.847  0.4863  0.7768 -0.1593
  674MOL0    Cl92919   7.378   1.983  -2.018 -0.0459  0.6582  0.0499
  674MOL0     C92920   6.675   1.768  -1.135  0.7127 -0.7992  0.3112
  674MOL0     C92921   6.591   1.775  -1.025  0.5978 -0.7706 -0.5522
  674MOL0     O92922   6.301   1.503  -0.895 -0.2512 -0.5969 -0.0101
  674MOL0     C92923   6.285   1.574  -0.611 -0.5044  0.0838  0.3534
  674MOL0     C92924   6.234   1.616  -0.481  0.2102  1.4445  0.1563
  674MOL0     N92925   5.547   1.851  -0.297  0.2728 -0.1388 -0.2811
  674MOL0     N92926   5.476   1.919  -0.207  1.1871 -0.1154 -0.1369
  674MOL0     C92927   4.581   1.788   0.624 -0.0455 -0.1643 -0.4329
  674MOL0     C92928   4.447   1.779   0.677  0.4340  0.2169 -0.5658
  674MOL0     C92929   4.051   1.936   0.905  0.1421 -0.5279 -0.5015
  674MOL0     C92930   3.940   2.021   0.888 -0.1979  0.4147  0.2154
  674MOL0     C92931   3.828   2.009   0.964 -0.2589 -0.4702 -0.1459
  674MOL0     C92932   3.815   1.904   1.058  0.0421 -0.3586 -0.3057
  674MOL0     O92933   3.696   1.881   1.118 -0.2890 -0.2725  0.3556
  674MOL0     C92934   3.693   1.854   1.257  0.7948  0.5808 -0.2883
  674MOL0     C92935   3.615   1.723   1.274  0.0215 -0.4264 -0.7503
  674MOL0     C92936   3.500   1.712   1.174 -0.5899 -0.2049  0.2323
  674MOL0     C92937   3.400   1.821   1.183  0.6031  0.1718  0.4757
  674MOL0     C92938   3.274   1.806   1.102  0.1156 -0.0779 -0.4843
  674MOL0     C92939   3.181   1.779   1.029 -0.9693  0.1033  0.2390
  674MOL0     C92940   3.919   1.811   1.068  0.0180 -0.0518  0.1369
  674MOL0     C92941   4.033   1.831   0.996 -0.5030 -0.4603 -0.5965
  674MOL0     C92942   4.136   1.725   1.028 -0.5457  0.2257  0.0624
  674MOL0     H92943   4.417   2.103   0.776  0.0130 -0.4178  0.1064
  674MOL0     H92944   4.609   2.123   0.648  0.4238 -0.4029  0.3785
  674MOL0     H92945   4.727   1.824   0.386 -1.2092 -0.9973  0.4338
  674MOL0     H92946   4.837   1.748   0.502  0.1509  1.4316 -1.6694
  674MOL0     H92947   4.947   1.865   0.283 -1.7432 -0.3133  0.5074
  674MOL0     H92948   4.909   2.010   0.351 -1.1285 -1.4076 -3.7440
  674MOL0     H92949   5.030   1.950   0.567 -0.6462  2.9269 -2.1086
  674MOL0     H92950   5.092   1.799   0.487 -0.4239  0.0830 -1.6874
  674MOL0     H92951   5.157   2.077   0.394  0.8064  1.4231 -1.2079
  674MOL0     H92952   5.260   1.975   0.491 -0.2843  3.6025  0.3801
  674MOL0     H92953   5.159   1.893   0.211 -0.0516 -2.7391  0.9618
  674MOL0     H92954   5.275   1.812   0.318 -1.0606 -0.0758  2.7905
  674MOL0     H92955   5.330   2.077   0.187 -1.2114 -0.4480 -0.1084
  674MOL0     H92956   5.425   2.025   0.316  0.5560  1.2039 -0.4505
  674MOL0     H92957   5.470   1.789   0.178 -2.3829 -2.9501 -2.6512
  674MOL0     H92958   5.542   1.939   0.121 -0.6171  0.7687  0.0806
  674MOL0     H92959   5.319   1.764   0.026  0.2384  0.7359  1.8724
  674MOL0     H92960   5.298   1.931  -0.004  1.6742  2.5343  1.5554
  674MOL0     H92961   5.540   1.638  -0.049  0.4500 -0.9623 -0.3265
  674MOL0     H92962   5.674   1.638  -0.411  0.3048 -3.2599  0.9080
  674MOL0     H92963   5.671   1.548  -0.258 -1.1354  1.4519  2.5496
  674MOL0     H92964   5.849   1.712  -0.169  0.1793  0.7487 -0.5043
  674MOL0     H92965   5.902   1.609  -0.296 -0.8233 -1.5121  2.0572
  674MOL0     H92966   5.870   1.803  -0.452 -0.9250  0.1231  0.2638
  674MOL0     H92967   5.812   1.901  -0.313 -0.3730 -0.5905  1.6625
  674MOL0     H92968   6.055   1.952  -0.353 -0.8591  0.5365 -0.0260
  674MOL0     H92969   6.037   1.862  -0.201  2.7030 -3.7556  0.2536
  674MOL0     H92970   6.067   1.892  -0.586  0.4741 -0.1490 -0.7660
  674MOL0     H92971   6.182   1.818  -0.916  2.0245 -1.8647  1.8502
  674MOL0     H92972   6.155   1.955  -0.812  0.4282  0.1405 -1.3104
  674MOL0     H92973   6.021   1.839  -0.844 -0.1495  1.3004  0.1038
  674MOL0     H92974   6.344   1.566  -1.117 -0.2067  0.1339 -3.1444
  674MOL0     H92975   6.479   1.596  -1.338 -3.9320  0.2732  1.4691
  674MOL0     H92976   6.876   1.605  -1.249  1.3074  2.3735 -0.4692
  674MOL0     H92977   6.842   1.542  -1.407 -0.7667  1.1183 -1.8349
  674MOL0     H92978   6.921   1.732  -1.526  4.5832 -1.0880 -0.0488
  674MOL0     H92979   6.925   1.827  -1.368 -3.3799 -0.6768  2.8564
  674MOL0     H92980   7.099   1.597  -1.430 -0.1093  2.7953 -2.4997
  674MOL0     H92981   7.084   1.675  -1.271  1.9062 -2.5379 -0.2004
  674MOL0     H92982   7.273   1.782  -1.383  1.0535  1.9201 -1.0446
  674MOL0     H92983   7.143   1.895  -1.413 -1.0266 -0.0597  1.2279
  674MOL0     H92984   7.250   1.679  -1.590  1.8424  0.8218  3.4408
  674MOL0     H92985   7.113   1.775  -1.632 -0.1159  1.1502  0.9468
  674MOL0     H92986   7.400   1.871  -1.617 -0.1291  0.3891 -0.2603
  674MOL0     H92987   7.270   1.986  -1.605  2.7540 -0.2744  0.5135
  674MOL0     H92988   7.164   1.887  -1.819  0.2141 -0.5085 -0.4074
  674MOL0     H92989   7.317   1.797  -1.831 -1.8276  0.3787 -2.0088
  674MOL0     H92990   7.445   2.032  -1.799  2.5629 -1.3692 -2.9021
  674MOL0     H92991   7.288   2.100  -1.841 -1.4981 -0.6105  2.7249
  674MOL0     H92992   6.761   1.832  -1.154  0.3542 -0.1588  0.7825
  674MOL0     H92993   6.613   1.836  -0.939  2.5654  0.2473 -1.7081
  674MOL0     H92994   6.349   1.487  -0.617 -1.0205 -0.2956  0.2957
  674MOL0     H92995   6.256   1.549  -0.399  1.3967  0.2676 -1.0542
  674MOL0     H92996   4.631   1.698   0.590  1.3600  1.0374 -1.7230
  674MOL0     H92997   4.393   1.687   0.660  0.1030  0.5353 -1.3067
  674MOL0     H92998   3.943   2.101   0.815  0.4627 -0.0198 -0.2457
  674MOL0     H92999   3.746   2.079   0.959  1.2914  1.8059  2.6834
  674MOL0     H93000   3.784   1.850   1.317  0.3064 -0.1388  0.4268
  674MOL0     H93001   3.631   1.928   1.308  0.6625  0.5147 -0.3529
  674MOL0     H93002   3.591   1.696   1.378  3.3160 -0.1417  0.1909
  674MOL0     H93003   3.676   1.637   1.245 -1.6260 -3.3057  3.3762
  674MOL0     H93004   3.543   1.716   1.074  3.1927  1.2412  1.7087
  674MOL0     H93005   3.470   1.610   1.200 -0.9142 -0.7658 -2.1822
  674MOL0     H93006   3.458   1.908   1.153  4.2042 -1.6311  1.6815
  674MOL0     H93007   3.359   1.838   1.283  0.0080  0.4021  0.2027
  674MOL0     H93008   3.096   1.758   0.967 -1.6458 -3.5460  2.1189
  674MOL0     H93009   3.910   1.729   1.139  4.3456 -1.0486 -0.2156
  674MOL0     H93010   4.237   1.765   1.028 -0.0678 -0.8693 -1.3060
  674MOL0     H93011   4.130   1.675   1.125  1.5491  1.0621  0.6610
  674MOL0     H93012   4.124   1.644   0.955  0.2980  0.0058  0.1656
  675MOL0     O93013   7.454   6.071   7.541  0.3183 -0.1697  0.5167
  675MOL0     C93014   7.350   6.125   7.560  0.2393 -0.3869  0.0412
  675MOL0     O93015   7.337   6.218   7.642 -0.4400 -1.0130 -0.6618
  675MOL0     C93016   7.444   6.281   7.696 -0.4147  0.6144  0.2859
  675MOL0     C93017   7.508   6.226   7.799  0.9112 -0.7933 -0.8592
  675MOL0     C93018   7.595   6.302   7.887 -0.2100 -0.4946  0.4726
  675MOL0     C93019   7.637   6.433   7.847 -0.6557  0.0566 -0.2808
  675MOL0     O93020   7.736   6.491   7.920  0.0362 -1.0310  0.1893
  675MOL0     C93021   7.730   6.635   7.928 -1.3186  0.2176 -0.1812
  675MOL0     C93022   7.839   6.691   8.010 -0.4895  1.1119 -0.5519
  675MOL0     C93023   7.818   6.829   8.056 -0.6171 -0.0939  0.4922
  675MOL0     C93024   7.957   6.896   8.102  0.0226 -0.9613 -0.0277
  675MOL0     C93025   7.917   7.026   8.171 -0.6028 -0.0217 -0.4254
  675MOL0     C93026   7.871   7.142   8.075 -0.1241 -0.1061 -0.6436
  675MOL0     C93027   7.915   7.285   8.125 -0.4904  0.2894 -0.5981
  675MOL0     C93028   8.064   7.309   8.142  0.5471 -1.1981  0.0399
  675MOL0     N93029   8.083   7.453   8.153  0.7869  0.5261 -0.7462
  675MOL0     C93030   8.179   7.524   8.094 -0.1682 -0.1665 -0.0949
  675MOL0     C93031   8.179   7.641   8.164  0.9589  0.5257 -0.0491
  675MOL0     C93032   8.261   7.758   8.131 -0.7257  0.6216 -0.8376
  675MOL0     C93033   8.408   7.722   8.128  0.3100 -0.3825 -0.3545
  675MOL0     C93034   8.488   7.823   8.060 -0.9903  0.5264  0.6157
  675MOL0     C93035   8.639   7.825   8.082  0.0332  0.6367  0.1273
  675MOL0     O93036   8.691   7.948   8.032 -0.3159 -0.2985  0.3189
  675MOL0     C93037   8.821   7.952   7.999  0.1114  0.1160 -0.5533
  675MOL0     C93038   8.927   7.904   8.076  0.7993  0.0016 -0.6672
  675MOL0     C93039   9.048   7.917   8.029 -0.4183  0.2225  0.3024
  675MOL0     C93040   9.168   7.892   8.132 -0.6761  0.3838 -0.0484
  675MOL0     C93041   9.072   7.935   7.890 -0.1615  0.5235  0.3252
  675MOL0     C93042   9.206   7.916   7.838  0.4296 -0.8653 -0.2283
  675MOL0     O93043   9.277   7.812   7.875  0.2853  0.6188  0.3385
  675MOL0     C93044   9.396   7.787   7.807  0.2096  0.6799  0.0906
  675MOL0     C93045   9.500   7.874   7.769  0.1300  0.7031 -0.3595
  675MOL0     C93046   9.611   7.834   7.703 -0.4229  0.0797 -0.2799
  675MOL0     C93047   9.625   7.699   7.672 -0.0655 -0.0952  0.4621
  675MOL0     O93048   9.726   7.654   7.585 -1.2194  0.0199  0.0941
  675MOL0     C93049   9.837   7.747   7.574  0.9534  0.3209  0.9673
  675MOL0     C93050   9.953   7.670   7.513 -0.2689 -0.0244  0.1821
  675MOL0     C93051  10.081   7.752   7.525  1.0669 -0.1094  0.5403
  675MOL0     C93052  10.197   7.677   7.461 -1.0939 -0.4422  0.0423
  675MOL0     C93053  10.329   7.758   7.436  0.3770 -1.0449  0.4889
  675MOL0     C93054  10.380   7.811   7.573 -0.6004 -0.4303 -0.8474
  675MOL0     C93055  10.537   7.840   7.568 -0.2598  0.3686  0.2368
  675MOL0     C93056  10.569   7.984   7.568  0.3661 -0.2750  0.2587
  675MOL0    Cl93057  10.525   8.063   7.412  0.3777 -0.1919  0.6597
  675MOL0     C93058   9.528   7.607   7.712 -0.1469 -0.0144  0.8742
  675MOL0     C93059   9.416   7.651   7.782  0.7365  0.0184  0.2285
  675MOL0     O93060   9.239   8.009   7.763 -0.4886 -0.5836 -0.4562
  675MOL0     C93061   8.966   7.950   7.804 -0.3776  0.6599  0.2882
  675MOL0     C93062   8.839   7.967   7.862  0.4611 -0.5062  0.3335
  675MOL0     N93063   8.077   7.642   8.253  0.4359  0.7905  0.4338
  675MOL0     N93064   8.016   7.528   8.247  0.3033 -0.5534 -0.0589
  675MOL0     C93065   7.586   6.480   7.725  0.0591  0.2582  0.7687
  675MOL0     C93066   7.486   6.410   7.654  1.0692  0.5991 -0.5177
  675MOL0     C93067   7.220   6.082   7.487 -0.1421  0.1928  0.0006
  675MOL0     C93068   7.106   6.165   7.503  0.6058 -0.3329 -0.4154
  675MOL0     C93069   6.987   6.134   7.439  1.0714 -0.7140 -0.0343
  675MOL0     C93070   6.979   6.027   7.349  0.3289 -0.2958  0.1999
  675MOL0     O93071   6.867   6.011   7.274 -0.2044  0.4965  0.8242
  675MOL0     C93072   6.875   5.933   7.153 -0.3854  0.4174 -0.7589
  675MOL0     C93073   6.757   5.955   7.063  0.6566  0.0562 -0.1485
  675MOL0     C93074   6.619   5.903   7.115 -0.3271 -0.3741  1.5494
  675MOL0     C93075   6.594   5.758   7.068  0.8659  0.2192 -0.2364
  675MOL0     C93076   6.520   5.675   7.162  0.5640 -0.4270  0.8942
  675MOL0     C93077   6.453   5.610   7.229 -0.7187  1.4020 -0.2481
  675MOL0     C93078   7.085   5.937   7.343 -0.4556 -0.0616  0.7299
  675MOL0     C93079   7.204   5.961   7.411  0.5099 -0.6396  0.1997
  675MOL0     C93080   7.313   5.853   7.429  0.2913  0.1330 -0.3355
  675MOL0     H93081   7.467   6.129   7.826 -2.7608  0.7114 -0.4215
  675MOL0     H93082   7.630   6.265   7.983  4.2687 -2.9712 -1.7677
  675MOL0     H93083   7.636   6.650   7.982  0.8354  2.0057  3.4800
  675MOL0     H93084   7.738   6.689   7.833 -0.8657  2.4239  1.0446
  675MOL0     H93085   7.857   6.636   8.102  1.6997  0.0376 -1.5258
  675MOL0     H93086   7.928   6.693   7.945 -0.9023  0.9103 -1.1323
  675MOL0     H93087   7.786   6.893   7.973  0.7925 -0.8409 -0.6736
  675MOL0     H93088   7.745   6.830   8.137 -0.6984 -3.5977  0.6026
  675MOL0     H93089   8.028   6.845   8.168  2.7990  0.6506 -1.5764
  675MOL0     H93090   8.017   6.916   8.014  0.4182 -0.1354  0.4225
  675MOL0     H93091   8.010   7.054   8.222 -0.8798  0.4221 -0.1558
  675MOL0     H93092   7.839   7.013   8.247 -0.1346 -1.2925 -0.1460
  675MOL0     H93093   7.909   7.129   7.973 -1.5291  0.4361 -1.2678
  675MOL0     H93094   7.763   7.141   8.060 -0.1998  0.6322 -0.1955
  675MOL0     H93095   7.866   7.309   8.219 -2.5505  0.3054 -1.6299
  675MOL0     H93096   7.886   7.356   8.046 -1.2544  0.8983  0.2112
  675MOL0     H93097   8.113   7.256   8.223 -0.9958 -0.4845  1.4973
  675MOL0     H93098   8.104   7.277   8.045 -0.3944 -0.2070 -0.6951
  675MOL0     H93099   8.235   7.511   8.002 -1.5571  0.2986 -1.0403
  675MOL0     H93100   8.239   7.841   8.199 -0.3872  1.3087 -1.5475
  675MOL0     H93101   8.230   7.782   8.029  0.7704  0.9497 -1.2408
  675MOL0     H93102   8.430   7.703   8.233  0.1534  0.3356 -0.1910
  675MOL0     H93103   8.422   7.629   8.072 -2.7178 -0.3978 -1.2303
  675MOL0     H93104   8.465   7.828   7.953 -1.2089 -3.1439  0.3712
  675MOL0     H93105   8.461   7.916   8.111 -1.9996 -0.0175  1.1147
  675MOL0     H93106   8.661   7.808   8.188  0.7358 -5.3693 -0.5984
  675MOL0     H93107   8.686   7.744   8.026 -2.6479  1.5000 -3.7308
  675MOL0     H93108   8.905   7.871   8.177 -0.0892  1.3541 -0.3989
  675MOL0     H93109   9.145   7.890   8.239  0.5411 -0.7248  0.2176
  675MOL0     H93110   9.246   7.967   8.121 -0.9275  1.3397  3.3690
  675MOL0     H93111   9.207   7.792   8.112 -0.5010  0.6550 -1.0823
  675MOL0     H93112   9.489   7.980   7.790  1.2375  0.8841 -0.6521
  675MOL0     H93113   9.678   7.910   7.665  0.9884 -0.2989  1.3455
  675MOL0     H93114   9.810   7.823   7.499  4.0336 -1.3825 -2.1532
  675MOL0     H93115   9.856   7.791   7.672 -2.9521  1.3688  1.4333
  675MOL0     H93116   9.968   7.576   7.566 -1.1930 -0.2623  0.0461
  675MOL0     H93117   9.933   7.643   7.409 -2.6131  1.4861  0.1758
  675MOL0     H93118  10.098   7.763   7.632  1.8022 -1.0740  0.5341
  675MOL0     H93119  10.057   7.846   7.475 -1.1485 -0.6330  0.5089
  675MOL0     H93120  10.163   7.631   7.368 -1.8303 -2.2547  1.1573
  675MOL0     H93121  10.229   7.593   7.522  3.5874  2.2697  1.8365
  675MOL0     H93122  10.401   7.700   7.378  1.8411  2.8323 -1.9207
  675MOL0     H93123  10.299   7.844   7.375  1.2161 -1.9509 -1.2694
  675MOL0     H93124  10.361   7.753   7.664  2.4129  0.5630  0.5570
  675MOL0     H93125  10.326   7.903   7.594  0.2736 -0.4541  1.9520
  675MOL0     H93126  10.572   7.794   7.475 -0.5933  1.2837 -0.3553
  675MOL0     H93127  10.574   7.792   7.660  0.9066  0.6703 -0.0618
  675MOL0     H93128  10.678   7.978   7.578  0.2300 -1.5925  1.2211
  675MOL0     H93129  10.524   8.032   7.655 -1.0516  0.9429 -1.0872
  675MOL0     H93130   9.538   7.500   7.696 -0.5902 -0.4907  3.2946
  675MOL0     H93131   9.357   7.565   7.811  1.3313 -0.6413 -0.4785
  675MOL0     H93132   8.981   7.951   7.696  0.2319 -0.0624  0.3506
  675MOL0     H93133   8.751   7.986   7.802 -0.6483 -1.1636  1.6924
  675MOL0     H93134   7.620   6.575   7.686  0.3612  0.6295  1.8983
  675MOL0     H93135   7.431   6.468   7.581  3.5104 -1.0080 -3.8679
  675MOL0     H93136   7.115   6.259   7.558 -0.4031 -1.0212  0.9718
  675MOL0     H93137   6.908   6.208   7.433  1.2289 -0.5671 -0.2872
  675MOL0     H93138   6.960   5.957   7.088 -0.1575 -1.8959 -1.4223
  675MOL0     H93139   6.886   5.827   7.180  0.0482  1.0143  1.5877
  675MOL0     H93140   6.783   5.907   6.968  3.7603  0.7218  0.2456
  675MOL0     H93141   6.764   6.064   7.060 -1.7789  0.5634  4.2506
  675MOL0     H93142   6.639   5.901   7.223  3.9794 -1.0067  0.9293
  675MOL0     H93143   6.548   5.978   7.081  1.3109 -0.2369 -2.1057
  675MOL0     H93144   6.692   5.709   7.063  0.3623 -0.7682 -0.4674
  675MOL0     H93145   6.552   5.759   6.967 -0.2260  3.8136  0.1080
  675MOL0     H93146   6.417   5.547   7.308  2.7027  0.9888  1.1962
  675MOL0     H93147   7.079   5.845   7.286 -1.1382  1.1226 -1.2518
  675MOL0     H93148   7.277   5.762   7.379 -2.0160  2.4623 -3.3417
  675MOL0     H93149   7.392   5.887   7.362 -0.4334  2.6873  0.0194
  675MOL0     H93150   7.353   5.831   7.528 -1.6444 -3.6858 -0.2124
  676MOL0     O93151   5.731   5.777   9.295  0.8186 -0.0067  0.2901
  676MOL0     C93152   5.675   5.700   9.369  0.1754 -0.3904 -0.2702
  676MOL0     O93153   5.728   5.659   9.486 -0.4120 -0.2154 -0.7281
  676MOL0     C93154   5.861   5.695   9.497 -0.0805  0.1442 -0.4264
  676MOL0     C93155   5.895   5.801   9.585  0.7126 -0.3596 -0.5011
  676MOL0     C93156   6.023   5.829   9.616 -0.3117  0.2224  0.1516
  676MOL0     C93157   6.125   5.762   9.552 -0.9533  0.7343  0.7945
  676MOL0     O93158   6.249   5.803   9.583 -0.2229 -0.4344  0.0503
  676MOL0     C93159   6.341   5.697   9.601 -0.0347  0.2537 -0.5857
  676MOL0     C93160   6.460   5.741   9.670 -0.4524 -0.0708 -0.4002
  676MOL0     C93161   6.536   5.859   9.603  0.5508  0.0404 -0.5524
  676MOL0     C93162   6.683   5.860   9.636 -0.3117 -0.0682 -0.5139
  676MOL0     C93163   6.762   5.986   9.598  0.4916 -0.0694  0.4395
  676MOL0     C93164   6.911   5.989   9.607 -0.1612  0.2597  0.1721
  676MOL0     C93165   6.967   5.939   9.746  0.5804  0.7715 -0.3546
  676MOL0     C93166   7.118   5.945   9.761  0.2586 -0.2882 -0.3596
  676MOL0     N93167   7.166   5.859   9.867 -0.0136  0.5657  0.0535
  676MOL0     C93168   7.296   5.808   9.858 -0.1005  0.2052 -0.9219
  676MOL0     C93169   7.319   5.741   9.974  0.2709 -0.1176 -0.2929
  676MOL0     C93170   7.434   5.651  10.018 -0.1941 -0.7525 -0.1515
  676MOL0     C93171   7.572   5.673   9.955  0.2377  0.9803 -0.0462
  676MOL0     C93172   7.627   5.812   9.983  0.3236  0.5780 -0.5650
  676MOL0     C93173   7.779   5.811   9.963  0.1112 -0.3500  0.4032
  676MOL0     O93174   7.823   5.947   9.931  0.0651  0.1652  0.0312
  676MOL0     C93175   7.917   5.997  10.009  0.3842  0.3346  0.0827
  676MOL0     C93176   7.879   6.108  10.085  0.0510  0.3838 -0.0969
  676MOL0     C93177   7.974   6.163  10.172  0.1249 -0.0042 -0.8838
  676MOL0     C93178   7.936   6.298  10.242  0.4228 -0.3456 -1.1603
  676MOL0     C93179   8.107   6.115  10.185 -0.0377 -1.1254 -0.1130
  676MOL0     C93180   8.216   6.158  10.279  0.5975  0.2721  0.3860
  676MOL0     O93181   8.196   6.280  10.342  0.3759 -0.5452 -0.2955
  676MOL0     C93182   8.280   6.357  10.419  0.1853 -0.4170  0.0827
  676MOL0     C93183   8.411   6.322  10.448  0.1237 -0.2189  1.5149
  676MOL0     C93184   8.494   6.402  10.528 -0.3501 -0.1461 -0.1077
  676MOL0     C93185   8.434   6.512  10.592 -0.1198 -0.0650 -0.1920
  676MOL0     O93186   8.499   6.606  10.674  0.2659  0.5627  0.7711
  676MOL0     C93187   8.632   6.581  10.721  0.3792  1.0488 -0.5233
  676MOL0     C93188   8.678   6.701  10.803 -0.7153  0.0711  0.3594
  676MOL0     C93189   8.801   6.653  10.890  0.1193 -0.1081  0.3044
  676MOL0     C93190   8.822   6.758  11.002  0.0617  0.4864  0.2955
  676MOL0     C93191   8.957   6.740  11.078  0.3509  0.4212 -0.0843
  676MOL0     C93192   8.958   6.794  11.221  0.8774  1.1398  0.2504
  676MOL0     C93193   9.092   6.790  11.293  0.7243 -0.0261 -0.5318
  676MOL0     C93194   9.156   6.651  11.304 -0.2824 -0.0623  0.2679
  676MOL0    Cl93195   9.225   6.588  11.144 -0.1285  0.4516  0.0530
  676MOL0     C93196   8.303   6.544  10.559  0.3238  0.2019 -0.6043
  676MOL0     C93197   8.224   6.466  10.474  0.1913 -0.0997 -0.1002
  676MOL0     O93198   8.297   6.072  10.329 -0.1267 -0.8764  0.6986
  676MOL0     C93199   8.132   6.003  10.103 -0.3129  0.1846 -0.2626
  676MOL0     C93200   8.044   5.949  10.017  0.4617  0.7892 -0.2853
  676MOL0     N93201   7.204   5.775  10.060 -0.1373 -0.0027  0.3701
  676MOL0     N93202   7.114   5.843   9.992  0.1925  0.1329 -0.2363
  676MOL0     C93203   6.089   5.658   9.463 -1.0890  0.8707 -0.3512
  676MOL0     C93204   5.961   5.617   9.438 -0.1137  0.0023 -0.6420
  676MOL0     C93205   5.552   5.634   9.324 -0.0868 -0.4020 -1.1890
  676MOL0     C93206   5.538   5.495   9.351  1.2729 -0.0931  0.2362
  676MOL0     C93207   5.424   5.424   9.308 -0.1894 -0.2629  0.1577
  676MOL0     C93208   5.318   5.497   9.235  0.4393 -0.0144  1.1005
  676MOL0     O93209   5.186   5.444   9.204 -0.6010 -0.3020  0.1045
  676MOL0     C93210   5.162   5.300   9.225 -0.3539  0.3847  0.6797
  676MOL0     C93211   5.126   5.269   9.373  0.7195  0.3829 -0.1723
  676MOL0     C93212   4.969   5.302   9.396 -0.0593  0.5185 -0.4930
  676MOL0     C93213   4.921   5.273   9.538  0.9058  0.4982  0.1674
  676MOL0     C93214   4.777   5.293   9.554  0.6919  1.3654  0.0903
  676MOL0     C93215   4.659   5.306   9.586 -0.3024  0.1744  0.4733
  676MOL0     C93216   5.343   5.628   9.196 -0.2592 -0.8094 -0.5672
  676MOL0     C93217   5.454   5.700   9.242  0.9330 -0.4086 -1.1178
  676MOL0     C93218   5.472   5.845   9.217 -0.4753 -0.1386 -0.0020
  676MOL0     H93219   5.812   5.853   9.630 -0.8235 -1.2739 -2.1373
  676MOL0     H93220   6.059   5.910   9.679 -0.2804 -0.1841  0.6709
  676MOL0     H93221   6.375   5.654   9.506  1.0054  2.6211 -1.3368
  676MOL0     H93222   6.288   5.620   9.658 -4.7017  0.2943 -4.2804
  676MOL0     H93223   6.431   5.776   9.770  0.8960 -0.3365  0.1191
  676MOL0     H93224   6.530   5.657   9.673  0.1770  0.4264 -0.8844
  676MOL0     H93225   6.537   5.838   9.496  0.4018 -1.9219 -0.2165
  676MOL0     H93226   6.493   5.953   9.638  1.2748 -0.6639  2.5250
  676MOL0     H93227   6.700   5.839   9.742 -0.2788  2.8674  0.1595
  676MOL0     H93228   6.726   5.776   9.580 -0.5909 -0.6505  0.1406
  676MOL0     H93229   6.734   6.068   9.664 -0.7187  1.8263 -2.2356
  676MOL0     H93230   6.738   6.012   9.494 -1.0231 -0.2783  0.7275
  676MOL0     H93231   6.953   5.915   9.538  2.9679  0.0024  2.1523
  676MOL0     H93232   6.948   6.090   9.588 -1.4048  1.4377  3.3628
  676MOL0     H93233   6.934   5.836   9.760 -2.5674  2.0918  4.1285
  676MOL0     H93234   6.916   6.005   9.817  2.2170  1.8632 -0.1428
  676MOL0     H93235   7.167   5.925   9.665 -0.7866  3.3227 -1.8101
  676MOL0     H93236   7.135   6.052   9.778  0.9474  0.1646 -3.3011
  676MOL0     H93237   7.371   5.819   9.780  3.3416 -2.4850  1.6637
  676MOL0     H93238   7.396   5.548  10.011 -0.8932 -0.5370  0.3180
  676MOL0     H93239   7.447   5.666  10.126  1.7607 -0.0948 -0.4493
  676MOL0     H93240   7.629   5.583   9.979 -0.6718 -0.1970 -1.9437
  676MOL0     H93241   7.556   5.660   9.847  1.0484  1.4105 -0.2219
  676MOL0     H93242   7.586   5.878   9.906  2.5243  1.7614 -0.8097
  676MOL0     H93243   7.615   5.849  10.085  1.0858 -0.5072 -0.0585
  676MOL0     H93244   7.820   5.787  10.062  0.5020  0.9535  0.5681
  676MOL0     H93245   7.816   5.742   9.887  0.6699  0.9776 -0.5478
  676MOL0     H93246   7.783   6.150  10.056  1.6333  2.9519 -2.0515
  676MOL0     H93247   7.947   6.283  10.349  3.9474 -1.2794 -1.5396
  676MOL0     H93248   7.839   6.330  10.203  0.2613 -2.8393 -3.0873
  676MOL0     H93249   8.003   6.376  10.204  0.9442 -0.6145 -0.8035
  676MOL0     H93250   8.451   6.232  10.403 -1.8432 -1.4054  2.0054
  676MOL0     H93251   8.599   6.376  10.537 -0.7413 -1.3749  1.2659
  676MOL0     H93252   8.612   6.487  10.774  0.4849  0.4797 -1.4804
  676MOL0     H93253   8.698   6.567  10.635 -0.7313  2.5487 -1.6680
  676MOL0     H93254   8.708   6.774  10.727  2.6971 -1.7284 -0.2182
  676MOL0     H93255   8.595   6.729  10.869 -3.4871 -1.8959 -2.0530
  676MOL0     H93256   8.899   6.645  10.842  0.8882 -1.2150  1.9423
  676MOL0     H93257   8.776   6.553  10.927  0.9194 -0.2008  0.6077
  676MOL0     H93258   8.740   6.756  11.075 -2.2694 -1.0245 -2.1876
  676MOL0     H93259   8.835   6.857  10.959  1.2201  0.4695  0.5729
  676MOL0     H93260   8.964   6.631  11.077  2.0435  0.4972 -0.9972
  676MOL0     H93261   9.040   6.777  11.018  0.2469 -2.8346 -2.5276
  676MOL0     H93262   8.885   6.742  11.284  0.7663  1.2350  0.1976
  676MOL0     H93263   8.922   6.897  11.208 -0.7069  0.8668  2.0025
  676MOL0     H93264   9.092   6.830  11.395  1.8453  1.1794 -0.9704
  676MOL0     H93265   9.153   6.856  11.231  0.1224 -0.8541 -2.0754
  676MOL0     H93266   9.073   6.585  11.332  0.2693 -1.4072 -1.1424
  676MOL0     H93267   9.229   6.625  11.381 -0.0513  0.1122  0.1049
  676MOL0     H93268   8.265   6.636  10.602  0.3020 -0.6982  1.4318
  676MOL0     H93269   8.117   6.481  10.457 -0.0217  2.3432  2.6756
  676MOL0     H93270   8.231   5.959  10.106 -0.2511  0.3650  1.1474
  676MOL0     H93271   8.070   5.855   9.969  1.8332  0.9608  0.0862
  676MOL0     H93272   6.172   5.593   9.440 -0.1389 -1.0850  6.3069
  676MOL0     H93273   5.938   5.530   9.377  1.6588 -0.9093 -0.1010
  676MOL0     H93274   5.614   5.435   9.400  1.1599 -0.0256  0.4923
  676MOL0     H93275   5.426   5.318   9.333 -0.8577 -0.4941 -0.7018
  676MOL0     H93276   5.076   5.279   9.161  0.8337  0.7468 -1.1176
  676MOL0     H93277   5.241   5.234   9.190 -0.9143 -0.0638  0.2374
  676MOL0     H93278   5.188   5.333   9.437 -2.4872  3.5448  0.0705
  676MOL0     H93279   5.147   5.165   9.398  0.8392  0.1401 -1.2412
  676MOL0     H93280   4.945   5.406   9.371  2.0001  1.0073 -0.5813
  676MOL0     H93281   4.905   5.242   9.330 -2.1206 -0.9106  2.5566
  676MOL0     H93282   4.976   5.331   9.612  3.1558  0.2547 -1.2193
  676MOL0     H93283   4.941   5.167   9.554 -0.2194  0.2968  0.3193
  676MOL0     H93284   4.554   5.298   9.608 -0.8147 -0.6796 -1.9380
  676MOL0     H93285   5.267   5.685   9.143  1.0773  1.4665 -0.1699
  676MOL0     H93286   5.508   5.896   9.307  0.9555  0.0849 -0.6598
  676MOL0     H93287   5.548   5.864   9.140 -0.0436 -0.2207  0.4022
  676MOL0     H93288   5.377   5.891   9.187 -1.4127 -1.3560  1.0369
  677MOL0     O93289  10.823   5.476   0.953  0.2832  0.2215  0.1193
  677MOL0     C93290  10.816   5.355   0.958 -0.4166  0.2712 -0.1493
  677MOL0     O93291  10.914   5.275   1.006  0.0536  0.3958  0.1812
  677MOL0     C93292  11.024   5.338   1.051 -0.0543  1.0402 -0.2641
  677MOL0     C93293  11.041   5.357   1.185  0.2410  0.4602 -0.3673
  677MOL0     C93294  11.156   5.412   1.233  0.0512  0.3365 -0.0890
  677MOL0     C93295  11.252   5.464   1.153 -0.7733  0.9258 -0.3186
  677MOL0     O93296  11.353   5.531   1.216 -1.5425  0.0035  0.5335
  677MOL0     C93297  11.472   5.578   1.143  1.3063  0.7306 -0.3749
  677MOL0     C93298  11.532   5.692   1.224  0.2154 -0.4003 -0.7213
  677MOL0     C93299  11.431   5.808   1.249 -0.7675  0.2898  0.7601
  677MOL0     C93300  11.462   5.926   1.341  1.4921  0.4103 -0.1302
  677MOL0     C93301  11.489   5.882   1.486 -0.2992 -0.8570  0.8509
  677MOL0     C93302  11.537   5.992   1.571 -0.0991 -0.6631 -0.3206
  677MOL0     C93303  11.551   5.986   1.719 -0.3781  0.7512 -0.8849
  677MOL0     C93304  11.602   5.847   1.770 -0.2779  0.3946  0.4487
  677MOL0     N93305  11.743   5.818   1.752  0.2206  0.6131  0.7272
  677MOL0     C93306  11.842   5.884   1.813  0.5071  0.3037  0.4009
  677MOL0     C93307  11.952   5.813   1.783  0.1847 -1.1103  0.9458
  677MOL0     C93308  12.090   5.834   1.838 -0.5860  0.4229  0.5365
  677MOL0     C93309  12.184   5.896   1.738  0.0704 -1.2568  0.8648
  677MOL0     C93310  12.330   5.921   1.773  0.1044  0.1326  0.3711
  677MOL0     C93311  12.359   6.050   1.844  1.5376 -0.1226  0.6937
  677MOL0     O93312  12.492   6.063   1.902  0.9044  0.3652  0.0874
  677MOL0     C93313  12.576   6.157   1.854 -0.1927 -0.6332 -0.0844
  677MOL0     C93314  12.690   6.181   1.924  0.1867  0.7449  0.2179
  677MOL0     C93315  12.794   6.269   1.885  0.0743  0.9835 -0.0623
  677MOL0     C93316  12.919   6.258   1.980 -0.5213  0.2184  0.0885
  677MOL0     C93317  12.785   6.335   1.760 -0.1716 -0.6408  0.7000
  677MOL0     C93318  12.887   6.423   1.704 -0.8968  0.0577  0.2438
  677MOL0     O93319  12.866   6.502   1.588 -0.1807  0.2587 -0.0820
  677MOL0     C93320  12.932   6.624   1.568  0.9517  0.6050 -0.2118
  677MOL0     C93321  12.951   6.717   1.673  0.6930 -0.6419 -0.3929
  677MOL0     C93322  13.003   6.845   1.652 -0.1751 -0.4216 -0.0705
  677MOL0     C93323  13.033   6.884   1.522  0.2800 -0.0510  0.6411
  677MOL0     O93324  13.091   7.007   1.502 -0.0225  0.7598 -0.1413
  677MOL0     C93325  13.196   7.002   1.411 -0.6342 -0.0754 -1.4354
  677MOL0     C93326  13.300   7.091   1.466  0.4764  0.1979  0.1434
  677MOL0     C93327  13.427   7.062   1.400 -0.8644  1.4264  0.5899
  677MOL0     C93328  13.537   7.156   1.450  0.7318  0.9762 -0.1788
  677MOL0     C93329  13.669   7.126   1.372 -0.8355  0.5560  0.0125
  677MOL0     C93330  13.653   7.132   1.217 -0.7302  0.3498  0.7776
  677MOL0     C93331  13.786   7.115   1.146  0.5868 -0.2167 -0.4103
  677MOL0     C93332  13.765   7.105   0.995  0.0062  0.6924 -0.1769
  677MOL0    Cl93333  13.758   7.267   0.925  0.2708 -0.1750 -0.0832
  677MOL0     C93334  13.016   6.794   1.414  0.7753 -0.0451 -0.4947
  677MOL0     C93335  12.971   6.668   1.446  0.7251 -0.3191  0.2981
  677MOL0     O93336  12.995   6.425   1.766 -0.2392  0.0798 -0.6738
  677MOL0     C93337  12.675   6.316   1.690  0.1045 -0.2742  0.0875
  677MOL0     C93338  12.569   6.236   1.733 -1.2731  0.2404 -0.1566
  677MOL0     N93339  11.914   5.704   1.706 -0.2059  0.0200 -0.0803
  677MOL0     N93340  11.781   5.700   1.693  0.6148 -0.1674 -0.1687
  677MOL0     C93341  11.237   5.455   1.011 -0.4874  1.0159 -0.6368
  677MOL0     C93342  11.121   5.389   0.965 -0.1444  0.6302  0.9508
  677MOL0     C93343  10.680   5.301   0.920 -1.5779 -0.7401 -0.5274
  677MOL0     C93344  10.568   5.395   0.936  1.1417  0.1097  0.3121
  677MOL0     C93345  10.441   5.367   0.878 -0.1912  0.7865  0.0579
  677MOL0     C93346  10.423   5.242   0.821  0.2554 -0.4611  0.0770
  677MOL0     O93347  10.312   5.202   0.747  0.2754  0.5673  0.2146
  677MOL0     C93348  10.197   5.279   0.715 -0.6802  0.2798 -0.4080
  677MOL0     C93349  10.101   5.211   0.616 -0.1383  0.3720 -0.3026
  677MOL0     C93350  10.016   5.307   0.540  0.1158 -0.3430 -0.2228
  677MOL0     C93351   9.977   5.432   0.618  0.0153 -0.3337  0.0296
  677MOL0     C93352   9.857   5.486   0.568  0.0241 -0.2160  0.6179
  677MOL0     C93353   9.755   5.535   0.528  0.0145  0.8973 -0.9454
  677MOL0     C93354  10.519   5.141   0.831  0.2732  0.5604  0.1848
  677MOL0     C93355  10.652   5.160   0.883  0.7643 -0.2738 -0.0144
  677MOL0     C93356  10.754   5.048   0.893 -0.1517  0.0902 -0.6816
  677MOL0     H93357  10.952   5.329   1.240  1.2561 -1.7772  0.2747
  677MOL0     H93358  11.173   5.417   1.340 -0.2578 -2.1922  0.1383
  677MOL0     H93359  11.440   5.627   1.051  1.4511  2.5061  0.4809
  677MOL0     H93360  11.543   5.499   1.119 -0.3519 -0.9118 -0.1127
  677MOL0     H93361  11.565   5.644   1.317 -1.0330 -0.3703 -0.2423
  677MOL0     H93362  11.624   5.718   1.171  1.4059 -2.6759  0.1275
  677MOL0     H93363  11.399   5.832   1.147  3.1350 -1.3386 -1.0835
  677MOL0     H93364  11.343   5.762   1.294 -1.3950  0.2589 -0.4420
  677MOL0     H93365  11.545   5.986   1.301  0.2120  1.1214 -1.8683
  677MOL0     H93366  11.370   5.985   1.342 -0.4914 -2.5244 -0.1775
  677MOL0     H93367  11.562   5.801   1.493 -1.8205 -2.3616  0.1034
  677MOL0     H93368  11.399   5.834   1.527 -0.7260 -0.7201  0.0936
  677MOL0     H93369  11.639   6.019   1.544 -0.2090 -0.3680 -0.4442
  677MOL0     H93370  11.466   6.074   1.556 -0.4261 -0.2560  2.8136
  677MOL0     H93371  11.463   6.004   1.781  0.6468 -1.7290  1.4900
  677MOL0     H93372  11.617   6.069   1.747  2.3615 -1.7649  0.6932
  677MOL0     H93373  11.606   5.850   1.879  0.7146  2.6138  0.3964
  677MOL0     H93374  11.543   5.762   1.734 -0.1050 -0.7669  2.6964
  677MOL0     H93375  11.831   5.964   1.885  0.8983  1.0204 -0.3298
  677MOL0     H93376  12.123   5.732   1.859  2.2529  1.4719  1.5501
  677MOL0     H93377  12.086   5.879   1.937 -1.4147  1.2619  0.1397
  677MOL0     H93378  12.180   5.822   1.657 -0.9572 -1.7358  1.3263
  677MOL0     H93379  12.136   5.993   1.721  2.0145 -0.2746  0.7979
  677MOL0     H93380  12.365   5.841   1.839 -1.1334  1.4809  2.8173
  677MOL0     H93381  12.393   5.926   1.683 -0.3052  1.0695  0.1199
  677MOL0     H93382  12.324   6.141   1.794  1.5792 -0.1574  0.5998
  677MOL0     H93383  12.301   6.042   1.936 -1.7776 -5.2420 -1.4071
  677MOL0     H93384  12.719   6.131   2.016  0.1946  1.4622  0.6108
  677MOL0     H93385  12.990   6.203   1.917 -1.1060  0.2623 -0.6140
  677MOL0     H93386  12.909   6.208   2.077 -0.3045 -0.7006 -0.3476
  677MOL0     H93387  12.969   6.352   2.005 -3.6381  1.4418  2.3489
  677MOL0     H93388  12.932   6.689   1.776  1.9220  0.2890  0.1076
  677MOL0     H93389  13.015   6.912   1.736  0.3882  1.5853 -1.6736
  677MOL0     H93390  13.232   6.902   1.383  0.3583  0.7553 -3.2934
  677MOL0     H93391  13.150   7.058   1.330  0.0313  4.4808  0.9721
  677MOL0     H93392  13.279   7.198   1.455 -0.0779 -0.0890 -2.4206
  677MOL0     H93393  13.316   7.077   1.573 -5.2672  0.0144  1.2581
  677MOL0     H93394  13.400   7.072   1.295 -2.5898  3.6205  1.1763
  677MOL0     H93395  13.450   6.958   1.424  1.7218  2.0441  1.1179
  677MOL0     H93396  13.551   7.147   1.559 -3.3343 -0.8650  0.3842
  677MOL0     H93397  13.507   7.259   1.431  1.8178  0.9797 -2.1457
  677MOL0     H93398  13.745   7.199   1.401  3.2700 -3.6137  0.9828
  677MOL0     H93399  13.704   7.029   1.408 -4.0608  0.1160  2.4559
  677MOL0     H93400  13.595   7.221   1.191 -0.4039  0.4829  0.5016
  677MOL0     H93401  13.587   7.049   1.189 -2.0888  1.2317  1.2577
  677MOL0     H93402  13.849   7.036   1.190  0.7071  0.8887  1.4901
  677MOL0     H93403  13.851   7.201   1.161  0.8197 -0.1043 -1.9265
  677MOL0     H93404  13.680   7.040   0.970  1.9293 -1.6486 -1.0772
  677MOL0     H93405  13.851   7.052   0.952 -0.1229 -1.2202  1.7861
  677MOL0     H93406  13.034   6.813   1.309  0.2090  0.1405 -0.5581
  677MOL0     H93407  12.949   6.604   1.361 -0.0438 -1.6834  1.4873
  677MOL0     H93408  12.667   6.354   1.588  1.3065 -3.8352 -1.4835
  677MOL0     H93409  12.485   6.220   1.666 -2.3877  2.4839  0.5764
  677MOL0     H93410  11.310   5.506   0.948 -0.4594  2.0329  0.1955
  677MOL0     H93411  11.112   5.382   0.857  1.2517  0.0462  0.8521
  677MOL0     H93412  10.584   5.489   0.987  2.9809  0.3290 -0.5896
  677MOL0     H93413  10.365   5.443   0.888  0.9595  1.7459  2.4249
  677MOL0     H93414  10.145   5.309   0.806 -0.3122  0.7970 -0.3606
  677MOL0     H93415  10.232   5.367   0.658  1.1249 -1.1741 -1.6624
  677MOL0     H93416  10.043   5.144   0.680  2.6851 -1.7731  0.1964
  677MOL0     H93417  10.159   5.147   0.549 -0.2503 -0.7217  0.6311
  677MOL0     H93418  10.072   5.331   0.449 -0.6483 -1.3609 -0.9888
  677MOL0     H93419   9.923   5.260   0.506 -2.7795  3.8160  1.0950
  677MOL0     H93420  10.048   5.515   0.623 -0.0044 -0.3785  3.5834
  677MOL0     H93421   9.958   5.412   0.724  0.2315 -0.6074  0.0183
  677MOL0     H93422   9.664   5.587   0.504 -1.3883 -1.0095 -0.0685
  677MOL0     H93423  10.483   5.040   0.818 -1.1551  1.2605 -1.8184
  677MOL0     H93424  10.789   5.040   0.997  1.0909  2.3968 -0.8591
  677MOL0     H93425  10.699   4.960   0.858  2.4991 -1.7574 -0.4915
  677MOL0     H93426  10.842   5.069   0.833 -0.0281  0.8926 -0.2360
  678MOL0     O93427   7.286   6.957   2.268  0.5819 -0.1744  0.5076
  678MOL0     C93428   7.383   7.003   2.205 -0.8783  0.2764  0.3150
  678MOL0     O93429   7.502   7.042   2.269  0.0862  0.2583  0.2374
  678MOL0     C93430   7.534   6.990   2.388  0.2214 -0.6020  0.0169
  678MOL0     C93431   7.597   6.870   2.395  0.0226 -1.3496  0.7015
  678MOL0     C93432   7.634   6.812   2.511  0.5985  0.4912 -0.9500
  678MOL0     C93433   7.598   6.872   2.632 -0.0341  0.0280 -0.3198
  678MOL0     O93434   7.622   6.800   2.755 -0.1788 -0.1183  0.5382
  678MOL0     C93435   7.682   6.672   2.766  0.0035  0.1785  0.9391
  678MOL0     C93436   7.714   6.622   2.909  0.0098 -0.6459  0.8369
  678MOL0     C93437   7.582   6.596   2.981 -0.1765 -0.1075 -0.2667
  678MOL0     C93438   7.590   6.585   3.130  0.4222  0.1873 -0.6095
  678MOL0     C93439   7.555   6.720   3.196 -0.3202  1.7703 -0.1641
  678MOL0     C93440   7.410   6.780   3.186  0.1728  0.2922  0.6464
  678MOL0     C93441   7.425   6.934   3.218 -0.1486 -0.1523 -0.2866
  678MOL0     C93442   7.296   7.001   3.172  0.2072  0.3517  0.0072
  678MOL0     N93443   7.293   7.141   3.201 -0.2657 -0.1057 -0.2743
  678MOL0     C93444   7.329   7.250   3.134 -1.0023  0.6081  0.3035
  678MOL0     C93445   7.279   7.359   3.196  0.6517  0.6854 -0.0670
  678MOL0     C93446   7.305   7.509   3.165  0.2211  0.0892 -0.5726
  678MOL0     C93447   7.274   7.555   3.029 -1.0916  0.3081  0.3308
  678MOL0     C93448   7.337   7.695   3.008 -0.6898  0.2271  0.0075
  678MOL0     C93449   7.382   7.722   2.863  0.7059 -0.9393 -0.6612
  678MOL0     O93450   7.438   7.851   2.873  0.1886 -0.0295  0.2387
  678MOL0     C93451   7.509   7.896   2.755  0.1696  1.5040 -0.3264
  678MOL0     C93452   7.559   8.019   2.758  0.1308  0.2704 -0.6206
  678MOL0     C93453   7.624   8.081   2.644 -1.3670 -0.1538  0.5425
  678MOL0     C93454   7.691   8.212   2.661 -0.0577  0.9088  0.1423
  678MOL0     C93455   7.625   8.011   2.515 -0.0226  0.4762 -0.0318
  678MOL0     C93456   7.704   8.051   2.402 -0.3921  0.5084  0.2269
  678MOL0     O93457   7.665   8.163   2.330  0.5619 -0.4909  0.7886
  678MOL0     C93458   7.719   8.208   2.212  0.0659 -0.2362 -0.0833
  678MOL0     C93459   7.627   8.291   2.145 -0.5686  0.6918  0.5498
  678MOL0     C93460   7.681   8.366   2.036  0.5342 -0.4987  0.5513
  678MOL0     C93461   7.817   8.344   1.989  0.6168  0.2452 -0.3531
  678MOL0     O93462   7.847   8.419   1.883  0.4126  0.0354 -0.2472
  678MOL0     C93463   7.982   8.432   1.840 -0.8614  0.7033  0.6207
  678MOL0     C93464   8.006   8.501   1.698 -0.3064 -0.5855 -0.5497
  678MOL0     C93465   7.940   8.652   1.697 -0.2651  0.3275  0.1118
  678MOL0     C93466   8.024   8.751   1.780  0.0042  0.5102  0.9852
  678MOL0     C93467   7.964   8.891   1.766  0.1379  0.6010 -0.3108
  678MOL0     C93468   8.047   8.991   1.851  0.4067 -0.1044 -0.2107
  678MOL0     C93469   8.038   9.139   1.826  0.0822 -0.2257 -0.0935
  678MOL0     C93470   7.898   9.185   1.875 -0.0396 -0.0389  0.6564
  678MOL0    Cl93471   7.882   9.353   1.827  0.1685  0.1930 -0.2220
  678MOL0     C93472   7.895   8.249   2.054 -0.6691  0.3339  0.3064
  678MOL0     C93473   7.847   8.185   2.167  0.2265 -0.4274 -0.0060
  678MOL0     O93474   7.781   7.966   2.359 -0.8241 -0.2941 -0.5071
  678MOL0     C93475   7.575   7.882   2.519  0.3402 -0.6273  0.3222
  678MOL0     C93476   7.521   7.824   2.634  0.0351 -0.2653 -0.1495
  678MOL0     N93477   7.223   7.316   3.309  0.4279  0.0448 -0.1609
  678MOL0     N93478   7.227   7.185   3.313 -0.0463 -0.8909 -0.4045
  678MOL0     C93479   7.518   6.988   2.628 -0.8673  0.5256  1.0771
  678MOL0     C93480   7.496   7.054   2.510 -0.5382  0.2308  0.3909
  678MOL0     C93481   7.384   7.012   2.060 -0.4503  0.1180  0.3392
  678MOL0     C93482   7.507   7.010   1.991 -0.1197  0.6704 -0.0353
  678MOL0     C93483   7.517   7.008   1.848  0.0939  0.8447 -0.8345
  678MOL0     C93484   7.398   6.986   1.770  1.0176 -0.4186  0.2216
  678MOL0     O93485   7.395   6.967   1.630  0.1213 -0.0335  0.0324
  678MOL0     C93486   7.512   6.926   1.562  0.0108 -0.0956  0.0418
  678MOL0     C93487   7.586   7.052   1.513 -0.1079 -0.3548  0.6059
  678MOL0     C93488   7.710   7.022   1.436  1.3078 -0.2021 -0.2142
  678MOL0     C93489   7.689   6.925   1.316  0.0317 -0.2979 -0.2024
  678MOL0     C93490   7.805   6.924   1.227 -0.1318  0.1379  0.0346
  678MOL0     C93491   7.889   6.941   1.139  0.0398 -0.3975  0.5714
  678MOL0     C93492   7.276   6.987   1.837 -0.1006 -0.1154  0.3537
  678MOL0     C93493   7.264   7.002   1.969 -0.2211 -0.3318 -1.0900
  678MOL0     C93494   7.119   7.014   2.024  0.0351  0.7940 -0.1523
  678MOL0     H93495   7.641   6.812   2.315 -1.5431 -2.0685  0.3330
  678MOL0     H93496   7.695   6.723   2.511  2.0320  1.2739  3.0153
  678MOL0     H93497   7.778   6.672   2.712 -0.1953  2.5196  0.4674
  678MOL0     H93498   7.616   6.606   2.710  1.4546 -1.9067  1.5631
  678MOL0     H93499   7.776   6.532   2.900 -0.1506 -0.7060  0.3046
  678MOL0     H93500   7.760   6.704   2.965 -2.0851  0.6983  0.6659
  678MOL0     H93501   7.512   6.674   2.949 -0.0490 -0.1060 -0.5469
  678MOL0     H93502   7.548   6.500   2.942  3.5155 -0.7736 -2.2405
  678MOL0     H93503   7.513   6.512   3.159  1.3142 -0.1940  0.9069
  678MOL0     H93504   7.679   6.548   3.180 -0.8234  1.2453  2.6079
  678MOL0     H93505   7.627   6.792   3.155  3.2392 -1.7908 -0.7667
  678MOL0     H93506   7.582   6.720   3.302 -0.4718  0.5467 -0.1197
  678MOL0     H93507   7.363   6.768   3.088 -0.1177  1.2819  0.6564
  678MOL0     H93508   7.355   6.743   3.272  1.3772 -0.3157  1.1792
  678MOL0     H93509   7.514   6.959   3.160  1.6913 -0.5509  2.1541
  678MOL0     H93510   7.439   6.948   3.326  0.8337 -0.8420 -0.3101
  678MOL0     H93511   7.289   7.002   3.063 -0.0565 -1.1362 -0.0034
  678MOL0     H93512   7.207   6.965   3.223  0.7318  0.9618  1.4232
  678MOL0     H93513   7.400   7.235   3.053 -2.4523 -2.6417 -0.5177
  678MOL0     H93514   7.403   7.542   3.201 -0.5363  2.3214 -0.3947
  678MOL0     H93515   7.239   7.564   3.234  0.8122  0.5364 -0.3538
  678MOL0     H93516   7.323   7.477   2.970 -0.8920 -0.4843  1.5194
  678MOL0     H93517   7.168   7.561   3.006 -0.7275 -0.2681 -1.7507
  678MOL0     H93518   7.278   7.778   3.047 -1.8762 -0.2593 -0.7139
  678MOL0     H93519   7.428   7.691   3.070 -0.8283 -0.5346  0.1717
  678MOL0     H93520   7.444   7.639   2.827 -0.2388 -0.8257 -2.6854
  678MOL0     H93521   7.286   7.722   2.810 -0.1932  3.1774  0.5787
  678MOL0     H93522   7.569   8.070   2.853 -0.7938 -1.0681  0.2288
  678MOL0     H93523   7.737   8.239   2.565  2.9739 -0.3021  1.1564
  678MOL0     H93524   7.772   8.205   2.735  0.4686 -1.9135 -0.6035
  678MOL0     H93525   7.623   8.293   2.691 -1.1323  0.6908 -1.5862
  678MOL0     H93526   7.530   8.317   2.185 -0.9714  1.7281 -0.9887
  678MOL0     H93527   7.618   8.441   1.990  3.1400  2.6288  1.6893
  678MOL0     H93528   8.035   8.482   1.922  0.8885 -1.7977  1.1115
  678MOL0     H93529   8.022   8.331   1.831 -3.7309 -0.3637 -1.4948
  678MOL0     H93530   8.112   8.526   1.696 -0.4467 -0.0485 -2.0977
  678MOL0     H93531   7.969   8.438   1.616 -1.6329  0.8901 -1.1431
  678MOL0     H93532   7.839   8.648   1.740 -0.8889 -1.0643 -1.3633
  678MOL0     H93533   7.934   8.679   1.591 -1.0244  0.9096  0.2894
  678MOL0     H93534   8.122   8.743   1.732  0.1413 -0.2867  1.3787
  678MOL0     H93535   8.038   8.714   1.882 -2.3560 -0.3776  1.0622
  678MOL0     H93536   7.974   8.922   1.662  0.1766  0.2614 -0.4107
  678MOL0     H93537   7.857   8.893   1.793  0.0394  0.5564 -0.6964
  678MOL0     H93538   8.154   8.968   1.854  0.7020  0.8025  4.3892
  678MOL0     H93539   8.011   8.965   1.951  2.0353 -2.3980 -0.1575
  678MOL0     H93540   8.051   9.158   1.720 -0.0990  0.1140 -0.0565
  678MOL0     H93541   8.123   9.193   1.868  0.8443 -1.0206 -0.5888
  678MOL0     H93542   7.876   9.161   1.980 -1.6137 -1.7562 -0.0031
  678MOL0     H93543   7.816   9.134   1.824  0.6277 -1.7050  1.1595
  678MOL0     H93544   8.000   8.234   2.031 -1.0056 -0.1987 -0.9768
  678MOL0     H93545   7.911   8.120   2.226  1.2153 -0.8705 -1.5287
  678MOL0     H93546   7.591   7.822   2.429 -0.2813 -2.2336  1.2370
  678MOL0     H93547   7.465   7.731   2.630 -4.5444  1.9969  2.8236
  678MOL0     H93548   7.488   7.027   2.725 -0.5215 -0.2005  1.4846
  678MOL0     H93549   7.437   7.145   2.504  2.5925  2.3971 -0.2492
  678MOL0     H93550   7.601   7.031   2.042  0.9793  1.4209 -2.1918
  678MOL0     H93551   7.615   7.012   1.802  1.4561 -0.4480  1.7508
  678MOL0     H93552   7.590   6.877   1.622  0.2331  1.1806  0.8260
  678MOL0     H93553   7.487   6.857   1.481 -1.4197  0.9044 -0.4120
  678MOL0     H93554   7.628   7.102   1.601  2.4636 -2.3846  0.6474
  678MOL0     H93555   7.520   7.110   1.448 -0.4625 -0.7241  0.6247
  678MOL0     H93556   7.755   7.119   1.415  2.2008 -0.2042  1.5176
  678MOL0     H93557   7.789   6.972   1.493  3.1216  2.8156  0.1318
  678MOL0     H93558   7.610   6.967   1.253  0.5760  2.3927  0.7989
  678MOL0     H93559   7.648   6.832   1.357 -1.0912 -0.8833 -2.4780
  678MOL0     H93560   7.965   6.955   1.064  0.6952 -1.5566  0.9937
  678MOL0     H93561   7.194   6.958   1.772  1.9200 -0.7672 -2.0667
  678MOL0     H93562   7.041   6.970   1.961  0.2000 -5.0073  2.9156
  678MOL0     H93563   7.107   6.947   2.110 -4.3873 -1.3313 -2.0709
  678MOL0     H93564   7.085   7.109   2.066 -0.3468 -0.5788  2.9629
  679MOL0     O93565   2.412   7.904   3.672  0.2561 -0.3554  0.8522
  679MOL0     C93566   2.399   8.017   3.632  0.5376 -0.1730 -0.7100
  679MOL0     O93567   2.447   8.068   3.517 -0.4908  0.4544  0.6788
  679MOL0     C93568   2.545   7.988   3.457  0.1146  0.1380  0.1114
  679MOL0     C93569   2.514   7.881   3.371  0.7628 -0.2878 -0.3221
  679MOL0     C93570   2.610   7.794   3.325  0.7411 -0.7087 -0.5179
  679MOL0     C93571   2.735   7.817   3.366 -0.1155  0.3102  0.4652
  679MOL0     O93572   2.850   7.743   3.323 -0.1268 -0.8785  0.5162
  679MOL0     C93573   2.843   7.603   3.355 -0.0484  1.4030  0.0467
  679MOL0     C93574   2.957   7.522   3.288  0.3368  0.2006  0.1880
  679MOL0     C93575   2.947   7.508   3.138  0.2805 -0.1145  0.3502
  679MOL0     C93576   3.027   7.384   3.085 -0.1084  0.5773 -0.0435
  679MOL0     C93577   3.041   7.405   2.935  0.3872 -0.6054  0.2136
  679MOL0     C93578   3.151   7.300   2.893  0.0542  1.0769 -0.1463
  679MOL0     C93579   3.181   7.270   2.745 -0.1475  0.0847 -0.3974
  679MOL0     C93580   3.073   7.213   2.652 -0.6347  0.3299 -1.1793
  679MOL0     N93581   3.027   7.075   2.690  0.0262 -0.5495 -0.1054
  679MOL0     C93582   3.090   6.958   2.665 -0.8605  0.2843  0.1501
  679MOL0     C93583   3.011   6.856   2.718  0.5027 -0.0644 -0.4622
  679MOL0     C93584   3.025   6.710   2.720 -0.3601 -0.1704 -0.0952
  679MOL0     C93585   3.148   6.661   2.647 -0.9531  0.4645 -0.2644
  679MOL0     C93586   3.129   6.524   2.604  0.3401  0.8716 -0.6441
  679MOL0     C93587   3.253   6.468   2.530 -0.2478 -0.3177 -0.6308
  679MOL0     O93588   3.246   6.511   2.396 -0.3578 -0.3878 -0.3958
  679MOL0     C93589   3.352   6.479   2.324 -1.0123 -0.9364  0.6833
  679MOL0     C93590   3.446   6.372   2.349  0.4314 -0.2949 -0.7865
  679MOL0     C93591   3.551   6.334   2.258  0.4377 -0.2544 -0.6920
  679MOL0     C93592   3.650   6.226   2.303  0.3399  0.0247  0.0550
  679MOL0     C93593   3.551   6.397   2.126 -0.3153  0.4961  0.4358
  679MOL0     C93594   3.640   6.359   2.006 -0.0488  0.0368 -0.1251
  679MOL0     O93595   3.733   6.258   2.028 -1.3351  0.4962 -0.3619
  679MOL0     C93596   3.856   6.259   1.964  0.5523 -0.0013 -0.6975
  679MOL0     C93597   3.895   6.374   1.892 -0.5629  0.2227 -0.5776
  679MOL0     C93598   4.018   6.369   1.824 -0.0493 -0.2264  0.2836
  679MOL0     C93599   4.094   6.253   1.809 -0.2410 -0.9950  0.2140
  679MOL0     O93600   4.215   6.278   1.749  0.4915  0.3026  0.9175
  679MOL0     C93601   4.317   6.178   1.766 -0.0211  0.5972 -0.0626
  679MOL0     C93602   4.436   6.228   1.681 -0.8092  0.3257 -0.6409
  679MOL0     C93603   4.566   6.143   1.712  0.1276 -0.9120 -0.6680
  679MOL0     C93604   4.623   6.179   1.858 -0.0746  0.2190  0.7135
  679MOL0     C93605   4.734   6.076   1.911  0.3008  1.3233  0.2527
  679MOL0     C93606   4.871   6.093   1.858 -0.5861  0.4403  0.1348
  679MOL0     C93607   4.957   5.979   1.931  0.6997  0.1818 -0.4854
  679MOL0     C93608   5.097   5.978   1.883  0.2685 -0.3369 -0.4968
  679MOL0    Cl93609   5.178   6.137   1.903  0.0069 -0.2290  0.3229
  679MOL0     C93610   4.054   6.134   1.872  0.2113  0.0602 -0.9802
  679MOL0     C93611   3.941   6.142   1.958  0.8195 -0.5395 -0.3333
  679MOL0     O93612   3.602   6.403   1.894 -0.3508 -0.1927 -0.2695
  679MOL0     C93613   3.448   6.488   2.089 -0.6658  0.9575 -0.5683
  679MOL0     C93614   3.364   6.524   2.192  0.7382 -0.0134  0.0455
  679MOL0     N93615   2.911   6.925   2.787 -1.5077 -0.6659  0.0112
  679MOL0     N93616   2.919   7.051   2.765 -0.3743  0.7098 -0.0023
  679MOL0     C93617   2.763   7.917   3.444 -1.1665 -0.5337  0.5224
  679MOL0     C93618   2.674   8.012   3.487 -0.0639 -0.1198  0.6475
  679MOL0     C93619   2.317   8.108   3.716  0.1850  0.0543 -0.0993
  679MOL0     C93620   2.279   8.231   3.659  0.4129 -0.2934  0.1145
  679MOL0     C93621   2.184   8.314   3.720 -0.1264 -0.5623  0.5300
  679MOL0     C93622   2.139   8.288   3.849  0.8756  0.4663  0.1119
  679MOL0     O93623   2.048   8.362   3.923  0.4446  0.4438 -0.4936
  679MOL0     C93624   2.011   8.492   3.880  0.1769  0.0481 -0.4768
  679MOL0     C93625   1.995   8.574   4.011 -0.3731 -0.1394 -0.6351
  679MOL0     C93626   2.116   8.640   4.079 -0.0676 -0.7341  1.0457
  679MOL0     C93627   2.237   8.554   4.102  0.2321  0.1218 -1.0355
  679MOL0     C93628   2.325   8.629   4.193  0.2437 -0.1556 -0.2074
  679MOL0     C93629   2.387   8.713   4.260  0.0417 -0.3500 -0.1930
  679MOL0     C93630   2.187   8.166   3.910  0.0519 -0.9008  1.2294
  679MOL0     C93631   2.278   8.081   3.846  0.3099 -0.0411 -0.4768
  679MOL0     C93632   2.317   7.968   3.934 -0.5771 -0.4831 -0.6438
  679MOL0     H93633   2.409   7.867   3.348  0.2606  0.8448  1.1553
  679MOL0     H93634   2.573   7.713   3.263 -1.1997 -1.2771  1.2492
  679MOL0     H93635   2.749   7.550   3.337  0.3644 -0.0910  1.9925
  679MOL0     H93636   2.858   7.598   3.463  0.6217  6.0730  0.3750
  679MOL0     H93637   3.056   7.564   3.308 -0.8731  2.8654  0.9623
  679MOL0     H93638   2.965   7.423   3.334  7.4120  0.4113  0.4392
  679MOL0     H93639   2.842   7.494   3.112 -0.0403  0.8937  1.0606
  679MOL0     H93640   2.975   7.598   3.081 -0.3052 -0.6391 -0.8037
  679MOL0     H93641   3.127   7.371   3.127 -0.0771  0.3580 -0.1893
  679MOL0     H93642   2.960   7.299   3.102 -0.1147  0.7737  0.9564
  679MOL0     H93643   3.088   7.500   2.909 -0.4161 -0.7458 -1.9660
  679MOL0     H93644   2.949   7.389   2.877  0.9925 -0.5149 -0.8082
  679MOL0     H93645   3.245   7.336   2.935 -0.0927 -0.0150  1.1629
  679MOL0     H93646   3.126   7.204   2.937  1.2120 -1.2283 -4.0285
  679MOL0     H93647   3.268   7.203   2.739  2.2518  2.9317 -0.1379
  679MOL0     H93648   3.221   7.364   2.703 -1.5325  0.1702 -1.6076
  679MOL0     H93649   2.990   7.283   2.657 -1.8245 -1.0765 -0.4677
  679MOL0     H93650   3.121   7.217   2.554  0.4542 -0.2856 -0.6883
  679MOL0     H93651   3.179   6.952   2.604 -0.6817 -2.2890  0.5367
  679MOL0     H93652   2.933   6.676   2.671  0.3071  0.7772 -2.1280
  679MOL0     H93653   3.019   6.675   2.823 -3.6108 -1.6520 -0.6700
  679MOL0     H93654   3.182   6.725   2.566  3.6471  0.8270  1.6646
  679MOL0     H93655   3.235   6.656   2.713 -3.2791 -0.1277  3.0591
  679MOL0     H93656   3.121   6.466   2.697 -2.0830  1.7462 -0.2399
  679MOL0     H93657   3.035   6.506   2.552  1.2572 -1.1278 -1.7119
  679MOL0     H93658   3.346   6.498   2.578 -0.4362 -0.3554 -0.2406
  679MOL0     H93659   3.233   6.361   2.544  1.0299 -0.5995 -0.8432
  679MOL0     H93660   3.468   6.337   2.449  1.3770 -0.8447 -1.1738
  679MOL0     H93661   3.632   6.142   2.236  1.7358 -0.5071  0.3283
  679MOL0     H93662   3.631   6.200   2.408 -1.3311 -2.5828 -0.8067
  679MOL0     H93663   3.747   6.273   2.282  0.1547 -0.0790 -1.1015
  679MOL0     H93664   3.850   6.473   1.883 -0.5255  0.4781  1.5587
  679MOL0     H93665   4.052   6.461   1.776 -2.6417 -0.0684 -1.4866
  679MOL0     H93666   4.352   6.180   1.870 -3.0165  4.1271  1.1077
  679MOL0     H93667   4.278   6.079   1.744  0.8503  0.6549 -2.0431
  679MOL0     H93668   4.413   6.209   1.576  0.0990  2.7882 -1.3594
  679MOL0     H93669   4.447   6.336   1.698 -2.1339  0.3141  0.4471
  679MOL0     H93670   4.641   6.157   1.634 -1.3376  2.8145 -1.6296
  679MOL0     H93671   4.541   6.037   1.718  1.6876 -1.2278  1.2567
  679MOL0     H93672   4.538   6.171   1.926 -1.6888  0.8671 -1.1515
  679MOL0     H93673   4.667   6.278   1.867 -0.1613  0.1430  2.1024
  679MOL0     H93674   4.736   6.090   2.019 -0.0025 -0.3430  0.5137
  679MOL0     H93675   4.695   5.974   1.897  2.4486  0.6760 -1.6280
  679MOL0     H93676   4.917   6.191   1.874  0.3392  0.1906 -0.8596
  679MOL0     H93677   4.864   6.076   1.750  0.5801 -1.9465  0.3886
  679MOL0     H93678   4.918   5.881   1.900  3.0736 -1.8210  2.3040
  679MOL0     H93679   4.943   5.988   2.039 -0.9961 -1.6833 -0.4751
  679MOL0     H93680   5.094   5.961   1.775  0.4126 -0.1208 -0.5364
  679MOL0     H93681   5.157   5.903   1.936  1.7096 -0.7843 -2.6186
  679MOL0     H93682   4.110   6.043   1.859  0.9815  0.2042  0.9674
  679MOL0     H93683   3.910   6.052   2.009 -1.6882  0.3558 -0.1352
  679MOL0     H93684   3.442   6.524   1.987  1.0165 -1.3014 -1.5579
  679MOL0     H93685   3.294   6.603   2.166 -0.5747 -0.3743  2.1923
  679MOL0     H93686   2.868   7.916   3.470 -0.9860  0.3856 -0.1057
  679MOL0     H93687   2.709   8.091   3.552 -2.7270 -1.4379  3.9854
  679MOL0     H93688   2.298   8.252   3.554 -1.7452 -1.2838 -0.5198
  679MOL0     H93689   2.156   8.398   3.656  5.2063 -0.0206 -1.5719
  679MOL0     H93690   2.090   8.538   3.821 -1.6399 -2.2024 -5.1020
  679MOL0     H93691   1.917   8.501   3.824 -0.4386  2.0466  0.7761
  679MOL0     H93692   1.952   8.508   4.087  2.1391 -0.8730  0.2376
  679MOL0     H93693   1.922   8.654   3.997  1.1242  1.2510 -0.8458
  679MOL0     H93694   2.142   8.720   4.010 -4.9541 -0.3998 -0.7734
  679MOL0     H93695   2.071   8.681   4.170 -3.0968 -0.7544 -0.3465
  679MOL0     H93696   2.281   8.517   4.009  0.3276  0.1979 -1.0204
  679MOL0     H93697   2.208   8.466   4.160  0.7925  1.9255  2.2488
  679MOL0     H93698   2.440   8.791   4.311  2.2138 -2.5200  1.1228
  679MOL0     H93699   2.149   8.142   4.009  0.9921  0.4615  1.9484
  679MOL0     H93700   2.301   7.980   4.041 -0.9544  2.7265 -0.9451
  679MOL0     H93701   2.262   7.875   3.920  0.2505 -1.3703  1.6388
  679MOL0     H93702   2.420   7.933   3.921 -0.1975 -0.0080  0.8913
  680MOL0     O93703   9.367   7.130   8.198  0.3572  0.6846  0.5737
  680MOL0     C93704   9.281   7.160   8.118 -0.7303  0.1299 -0.3285
  680MOL0     O93705   9.284   7.273   8.042 -0.1090  0.2920  0.3818
  680MOL0     C93706   9.352   7.381   8.073  0.7266  0.7791 -0.3965
  680MOL0     C93707   9.295   7.462   8.175  0.1285 -0.2592 -0.1697
  680MOL0     C93708   9.371   7.576   8.213 -0.7195 -0.0030 -0.1633
  680MOL0     C93709   9.491   7.614   8.143  0.0343 -0.7184 -0.4650
  680MOL0     O93710   9.539   7.730   8.174 -0.3552  0.5570 -0.1709
  680MOL0     C93711   9.647   7.793   8.113  1.0018 -0.1034 -0.0008
  680MOL0     C93712   9.626   7.935   8.164 -0.3881  0.3350 -0.2878
  680MOL0     C93713   9.689   8.042   8.069  0.8553 -0.1843 -0.6798
  680MOL0     C93714   9.837   8.050   8.081 -0.1500 -0.2325 -0.1966
  680MOL0     C93715   9.893   8.130   7.969 -0.2206  0.1802 -0.5691
  680MOL0     C93716  10.034   8.174   8.003 -0.6065  0.5380 -0.0912
  680MOL0     C93717  10.106   8.248   7.896 -0.4364 -0.6606  0.0778
  680MOL0     C93718  10.251   8.312   7.946 -0.3656  0.5539 -0.7372
  680MOL0     N93719  10.321   8.405   7.847 -0.2283  0.4543 -0.1339
  680MOL0     C93720  10.346   8.385   7.720 -1.0626 -0.3321 -0.8287
  680MOL0     C93721  10.447   8.461   7.688  0.4154  0.1277 -0.2335
  680MOL0     C93722  10.502   8.460   7.555 -0.3308  0.6805  0.6940
  680MOL0     C93723  10.655   8.473   7.556 -0.2566  0.1096 -0.2952
  680MOL0     C93724  10.700   8.330   7.592 -0.0072  0.0553 -0.3015
  680MOL0     C93725  10.853   8.320   7.588 -0.4151  0.0494  0.1517
  680MOL0     O93726  10.890   8.188   7.645 -0.3287 -0.1237 -1.2466
  680MOL0     C93727  11.024   8.154   7.670  0.0106 -0.2261 -0.5189
  680MOL0     C93728  11.049   8.057   7.764  0.0496  0.8934 -0.0974
  680MOL0     C93729  11.183   8.016   7.800 -0.0726  1.0938  0.6365
  680MOL0     C93730  11.188   7.907   7.899  0.7182 -0.3769 -0.5485
  680MOL0     C93731  11.297   8.058   7.724  0.2333 -0.2756 -0.7583
  680MOL0     C93732  11.443   8.019   7.742  0.1017 -1.0936 -0.2158
  680MOL0     O93733  11.530   8.092   7.668  0.0569 -0.1523  0.2864
  680MOL0     C93734  11.648   8.127   7.737 -0.2587 -0.2077  0.4152
  680MOL0     C93735  11.656   8.200   7.858 -0.1250 -0.2181 -0.7848
  680MOL0     C93736  11.778   8.215   7.922  0.1857 -0.8731  0.2474
  680MOL0     C93737  11.897   8.173   7.866 -0.3074 -0.1914  0.1577
  680MOL0     O93738  12.022   8.194   7.926  0.1245 -0.3145 -0.1810
  680MOL0     C93739  12.023   8.165   8.060 -1.1066 -0.3507 -0.0447
  680MOL0     C93740  12.175   8.193   8.101 -0.4620 -0.1732  0.1349
  680MOL0     C93741  12.181   8.249   8.247  0.3913  0.5558  0.9037
  680MOL0     C93742  12.320   8.318   8.271  0.0223  0.9135 -0.1667
  680MOL0     C93743  12.432   8.213   8.291 -0.8088 -0.9236  0.3897
  680MOL0     C93744  12.570   8.279   8.257  0.2091 -0.0382  0.3723
  680MOL0     C93745  12.663   8.299   8.377 -0.7391 -0.1695  0.0918
  680MOL0     C93746  12.771   8.411   8.332  0.3545  0.0222 -0.4291
  680MOL0    Cl93747  12.711   8.578   8.323  0.1556 -0.0891 -0.1444
  680MOL0     C93748  11.894   8.101   7.741  0.0970 -0.6607  0.0543
  680MOL0     C93749  11.770   8.074   7.686  1.5913 -0.1958  1.2887
  680MOL0     O93750  11.472   7.934   7.825 -1.0106 -0.4475  0.3619
  680MOL0     C93751  11.269   8.164   7.633  0.7668  0.1712  0.9447
  680MOL0     C93752  11.136   8.210   7.600  0.9056 -0.5570  0.7481
  680MOL0     N93753  10.481   8.532   7.797 -0.7457 -0.2234 -0.0102
  680MOL0     N93754  10.410   8.491   7.897 -0.4334  0.4675 -0.5906
  680MOL0     C93755   9.548   7.530   8.051  0.9633  0.4883  0.3118
  680MOL0     C93756   9.483   7.412   8.024  0.2247 -0.1259  0.3120
  680MOL0     C93757   9.163   7.076   8.087 -0.1850 -0.7082 -0.1471
  680MOL0     C93758   9.051   7.134   8.028  0.1741  0.1293 -0.4083
  680MOL0     C93759   8.932   7.065   7.989 -0.1070  0.1406 -0.6062
  680MOL0     C93760   8.933   6.927   8.000 -1.0348  0.4135 -0.8164
  680MOL0     O93761   8.816   6.845   7.971 -0.0526 -0.0548  0.6268
  680MOL0     C93762   8.836   6.768   7.848  0.5151  0.2702 -1.2767
  680MOL0     C93763   8.813   6.622   7.860 -0.0901 -0.5089  0.0990
  680MOL0     C93764   8.678   6.579   7.913 -0.2737  0.6570 -0.5813
  680MOL0     C93765   8.647   6.432   7.900  0.1842 -0.1604  0.7068
  680MOL0     C93766   8.547   6.384   7.993 -0.0119 -0.3956  0.3176
  680MOL0     C93767   8.466   6.351   8.077 -0.3458 -0.0998 -0.2454
  680MOL0     C93768   9.052   6.864   8.056 -0.1625  0.0802  0.5235
  680MOL0     C93769   9.166   6.938   8.096  1.3910  1.2508 -0.3963
  680MOL0     C93770   9.274   6.861   8.162 -1.6312 -0.6422 -0.0160
  680MOL0     H93771   9.200   7.453   8.227 -0.2353  0.6319 -0.6558
  680MOL0     H93772   9.345   7.642   8.295  0.9052 -0.8035  1.0530
  680MOL0     H93773   9.622   7.789   8.006 -1.0078 -4.9077  0.4310
  680MOL0     H93774   9.741   7.745   8.141  0.2623 -0.3841  2.1580
  680MOL0     H93775   9.520   7.958   8.174 -0.4962 -0.5800  0.8698
  680MOL0     H93776   9.667   7.951   8.264  2.0418  1.3655 -1.3489
  680MOL0     H93777   9.670   8.010   7.967  4.0183  1.5187 -1.9459
  680MOL0     H93778   9.642   8.138   8.092  2.4962  0.9035 -1.6313
  680MOL0     H93779   9.863   8.093   8.178  2.1951 -2.2879  0.2126
  680MOL0     H93780   9.870   7.945   8.078  0.9230  0.1095 -2.0757
  680MOL0     H93781   9.834   8.222   7.963 -0.2475  0.2403  0.5146
  680MOL0     H93782   9.884   8.076   7.874 -2.8814  1.2782 -1.0286
  680MOL0     H93783  10.025   8.227   8.098 -2.2041 -0.7363  0.5121
  680MOL0     H93784  10.096   8.089   8.035  2.1882  2.5408  0.2287
  680MOL0     H93785  10.045   8.330   7.859 -2.2786 -1.3606  1.4331
  680MOL0     H93786  10.138   8.182   7.814  2.4398  1.2270 -0.4890
  680MOL0     H93787  10.237   8.369   8.038 -0.2417 -2.9721  1.6454
  680MOL0     H93788  10.320   8.233   7.978 -1.0323 -0.0417 -0.7512
  680MOL0     H93789  10.309   8.311   7.650 -1.5841 -0.0966 -0.8046
  680MOL0     H93790  10.479   8.548   7.494  1.3081 -0.7751 -2.2482
  680MOL0     H93791  10.470   8.371   7.500  0.8053 -0.8016  2.3140
  680MOL0     H93792  10.690   8.493   7.455 -4.1089 -3.4469 -2.6421
  680MOL0     H93793  10.672   8.542   7.639 -2.9674 -1.5546  1.8445
  680MOL0     H93794  10.672   8.295   7.692  0.9034 -0.9237 -0.3602
  680MOL0     H93795  10.660   8.249   7.529 -0.5949  0.1143 -0.0057
  680MOL0     H93796  10.895   8.326   7.487  1.2250 -0.6091  0.7601
  680MOL0     H93797  10.897   8.405   7.640  1.7160 -0.6031 -0.4969
  680MOL0     H93798  10.958   8.009   7.796  2.3582 -2.3503  2.3365
  680MOL0     H93799  11.223   7.947   7.995  0.6216 -0.6990 -0.3774
  680MOL0     H93800  11.252   7.826   7.861  0.4221  0.0206 -1.9553
  680MOL0     H93801  11.089   7.862   7.911  1.5080 -1.9044  0.7035
  680MOL0     H93802  11.568   8.250   7.897  2.3166  2.4262  1.7965
  680MOL0     H93803  11.778   8.278   8.010  2.4506  0.0971 -0.3763
  680MOL0     H93804  11.955   8.223   8.123 -0.7993 -0.2701  0.2159
  680MOL0     H93805  12.005   8.059   8.080 -0.2591 -0.4285  0.3823
  680MOL0     H93806  12.237   8.104   8.084  0.8343  0.5211  1.0393
  680MOL0     H93807  12.222   8.270   8.038 -2.6148  0.8257 -0.3284
  680MOL0     H93808  12.168   8.173   8.325  2.6762  1.4298  2.2504
  680MOL0     H93809  12.105   8.325   8.265 -2.6606 -2.2354  0.8075
  680MOL0     H93810  12.313   8.368   8.369  1.7608 -1.8243  1.4721
  680MOL0     H93811  12.340   8.395   8.195  2.3306  1.2220  0.6867
  680MOL0     H93812  12.439   8.181   8.396 -2.2126  0.2596  0.8755
  680MOL0     H93813  12.413   8.123   8.231 -1.8254 -0.7019  0.3638
  680MOL0     H93814  12.557   8.372   8.202  3.1815  0.6763  0.7186
  680MOL0     H93815  12.631   8.219   8.189 -0.5739 -0.6421  0.1924
  680MOL0     H93816  12.708   8.203   8.403 -0.9652 -0.5695 -0.9501
  680MOL0     H93817  12.591   8.350   8.443  0.4298  3.1644 -1.0228
  680MOL0     H93818  12.805   8.373   8.235 -1.8059 -0.1822 -1.1485
  680MOL0     H93819  12.860   8.409   8.395  1.8176 -0.6702 -2.4079
  680MOL0     H93820  11.986   8.066   7.696  1.2624  0.4641  1.4568
  680MOL0     H93821  11.781   8.007   7.601  5.5281  0.5692  0.9721
  680MOL0     H93822  11.348   8.224   7.590  0.3369  0.5359  0.6451
  680MOL0     H93823  11.115   8.292   7.533 -0.3254  1.1983  3.1598
  680MOL0     H93824   9.643   7.557   8.007 -0.1461 -0.4605 -2.9679
  680MOL0     H93825   9.533   7.356   7.945  2.2211  1.0826  0.6657
  680MOL0     H93826   9.051   7.242   8.017  2.1615  0.0547 -1.5685
  680MOL0     H93827   8.851   7.115   7.936  0.8123  0.3002 -1.9172
  680MOL0     H93828   8.762   6.801   7.774 -0.5220  1.3276  0.1502
  680MOL0     H93829   8.936   6.796   7.814 -0.5513  4.2672 -1.6672
  680MOL0     H93830   8.896   6.585   7.922  3.2235  1.0060 -3.0611
  680MOL0     H93831   8.829   6.573   7.764  1.8720 -1.9593  1.0730
  680MOL0     H93832   8.684   6.597   8.021  0.2145  2.8311 -0.9145
  680MOL0     H93833   8.595   6.639   7.874  0.3142  0.6709 -1.8451
  680MOL0     H93834   8.734   6.366   7.906  0.1354 -0.3373 -0.3599
  680MOL0     H93835   8.605   6.415   7.801 -1.8287 -1.0949  1.6612
  680MOL0     H93836   8.401   6.327   8.158 -0.2701 -0.3404 -0.2567
  680MOL0     H93837   9.054   6.756   8.067 -1.3840  0.0898  0.9436
  680MOL0     H93838   9.250   6.759   8.194  3.3681 -1.8111  0.8780
  680MOL0     H93839   9.365   6.865   8.101 -1.9359  1.5630 -0.4051
  680MOL0     H93840   9.306   6.910   8.254  1.2040 -1.7328 -0.3214
  681MOL0     O93841   2.216  10.575   3.015 -0.0153 -0.3618  0.5729
  681MOL0     C93842   2.155  10.613   2.911  0.7806  0.1369 -1.6522
  681MOL0     O93843   2.108  10.737   2.890 -0.4818 -0.2608 -0.4372
  681MOL0     C93844   2.120  10.834   2.981  0.4446 -0.7294  1.0449
  681MOL0     C93845   2.097  10.815   3.113  0.0109 -0.2564  0.3117
  681MOL0     C93846   2.091  10.926   3.192  0.2250 -0.0452 -0.0362
  681MOL0     C93847   2.119  11.056   3.143  0.3639  0.5053 -0.0139
  681MOL0     O93848   2.108  11.160   3.227  0.4417  0.4231 -0.1976
  681MOL0     C93849   2.163  11.286   3.184 -0.1668  0.1797 -0.8010
  681MOL0     C93850   2.192  11.371   3.304  1.4272 -0.1885  0.3239
  681MOL0     C93851   2.061  11.409   3.386  1.4775 -0.1862 -0.1059
  681MOL0     C93852   2.042  11.347   3.525  0.8319 -0.1856  0.2959
  681MOL0     C93853   2.135  11.411   3.637  0.7432 -0.0758 -0.0346
  681MOL0     C93854   2.067  11.370   3.768  0.0628 -0.7350  0.1868
  681MOL0     C93855   2.161  11.404   3.891 -0.2020  0.3069 -0.3730
  681MOL0     C93856   2.104  11.395   4.033 -0.3419 -0.0802  0.0424
  681MOL0     N93857   2.069  11.252   4.085 -0.4862 -0.3508 -0.6876
  681MOL0     C93858   2.077  11.216   4.217  0.0317 -0.4124  0.8782
  681MOL0     C93859   2.016  11.096   4.225  0.2184  0.1665  0.1529
  681MOL0     C93860   2.000  11.016   4.355  1.3071  0.2938  0.0158
  681MOL0     C93861   2.135  11.003   4.424  0.7628  0.6361  0.2642
  681MOL0     C93862   2.130  10.901   4.535 -0.6505 -0.8274  0.6959
  681MOL0     C93863   2.022  10.938   4.642  0.2447 -0.1634  0.2308
  681MOL0     O93864   2.043  11.068   4.695  0.5576 -0.5359  0.6870
  681MOL0     C93865   2.100  11.062   4.821  0.6223  0.8304 -1.0564
  681MOL0     C93866   2.060  11.166   4.902  1.1195  0.5169 -1.2129
  681MOL0     C93867   2.127  11.193   5.024 -0.4173 -1.2839  0.3312
  681MOL0     C93868   2.072  11.315   5.089  0.0420  0.1640  0.1414
  681MOL0     C93869   2.230  11.108   5.073 -0.1198 -0.4854  0.2951
  681MOL0     C93870   2.293  11.121   5.206  0.1460  0.0999 -0.4338
  681MOL0     O93871   2.400  11.042   5.229 -0.1120 -0.3428  0.2824
  681MOL0     C93872   2.464  11.050   5.351  0.6719  0.5951  0.3178
  681MOL0     C93873   2.451  10.945   5.440  0.9089 -0.8138  0.6234
  681MOL0     C93874   2.507  10.950   5.563  0.2040 -0.3008 -0.4321
  681MOL0     C93875   2.577  11.060   5.609 -0.6546 -0.5487 -0.1364
  681MOL0     O93876   2.629  11.076   5.737  0.1638 -0.0505  0.0310
  681MOL0     C93877   2.720  10.975   5.775 -1.2670 -0.4074  0.3575
  681MOL0     C93878   2.772  11.014   5.909 -0.5725  0.6383 -0.9788
  681MOL0     C93879   2.850  10.901   5.974 -0.2864 -0.0440  0.0098
  681MOL0     C93880   2.958  10.943   6.078  0.5397  0.5694  0.2335
  681MOL0     C93881   3.069  10.842   6.106  0.4178 -1.0040  0.1659
  681MOL0     C93882   3.036  10.740   6.218  0.1326  0.6288  0.1146
  681MOL0     C93883   3.162  10.645   6.243 -0.3587  0.0891  0.2824
  681MOL0     C93884   3.149  10.566   6.373  0.6500  0.5190 -0.5614
  681MOL0    Cl93885   3.309  10.505   6.431  0.2091 -0.1554  0.8976
  681MOL0     C93886   2.584  11.166   5.519 -0.5915  0.8101 -0.9490
  681MOL0     C93887   2.534  11.160   5.387 -0.4784  0.3487 -0.4400
  681MOL0     O93888   2.267  11.225   5.266  0.2816  0.0418  0.3923
  681MOL0     C93889   2.269  11.003   4.987  0.3802 -0.2420 -0.4257
  681MOL0     C93890   2.204  10.983   4.866  0.7429  0.1661 -0.4333
  681MOL0     N93891   1.965  11.061   4.101 -1.1622  0.5763  0.1682
  681MOL0     N93892   1.993  11.157   4.021 -0.3082 -0.2302 -0.6426
  681MOL0     C93893   2.129  11.076   3.006  0.0198  0.5318  0.2592
  681MOL0     C93894   2.147  10.963   2.923 -0.2226  0.1970 -0.8322
  681MOL0     C93895   2.149  10.525   2.788  0.2551  1.2909 -0.2793
  681MOL0     C93896   2.160  10.568   2.658  0.4772  0.9649  0.5509
  681MOL0     C93897   2.145  10.485   2.549  0.1850  0.0564 -0.4267
  681MOL0     C93898   2.123  10.345   2.562 -0.1701 -0.4086 -0.1719
  681MOL0     O93899   2.117  10.264   2.456 -1.0354 -0.2901  0.4654
  681MOL0     C93900   2.162  10.308   2.337  1.0363 -1.2332  0.5885
  681MOL0     C93901   2.165  10.198   2.231 -0.8586  0.3615 -0.2138
  681MOL0     C93902   2.147  10.055   2.300 -0.2536 -0.1594 -0.4003
  681MOL0     C93903   2.156   9.936   2.200 -0.1120 -0.3426 -0.3959
  681MOL0     C93904   2.017   9.912   2.168  0.0381  0.4693 -0.0392
  681MOL0     C93905   1.903   9.902   2.134 -0.5637  0.1412  0.2498
  681MOL0     C93906   2.105  10.298   2.691 -0.3624  0.3333 -0.3161
  681MOL0     C93907   2.115  10.384   2.805 -0.4951 -0.5053  0.9407
  681MOL0     C93908   2.107  10.324   2.937  0.6250  0.8707 -1.0558
  681MOL0     H93909   2.083  10.722   3.167  0.8167  2.0518  5.0413
  681MOL0     H93910   2.069  10.894   3.293  0.0563  2.3265  0.7425
  681MOL0     H93911   2.100  11.345   3.117 -1.0668 -1.4101 -1.4194
  681MOL0     H93912   2.251  11.259   3.126 -0.9057 -0.5102 -1.6345
  681MOL0     H93913   2.272  11.324   3.361  1.8510  0.0258 -0.0784
  681MOL0     H93914   2.216  11.467   3.257 -0.1117  0.8902  1.6339
  681MOL0     H93915   2.047  11.517   3.381  0.6312  0.0373  3.5344
  681MOL0     H93916   1.976  11.371   3.329  1.4915  1.2626 -1.1402
  681MOL0     H93917   1.938  11.377   3.540  0.7370  2.8317 -4.3325
  681MOL0     H93918   2.044  11.238   3.522  1.0888 -0.1755 -0.0020
  681MOL0     H93919   2.152  11.519   3.634  2.9858 -0.0922  4.1933
  681MOL0     H93920   2.235  11.367   3.631  0.3831 -1.2218  1.5661
  681MOL0     H93921   1.979  11.435   3.778  0.8599  0.1638  1.9199
  681MOL0     H93922   2.028  11.269   3.782 -1.6421  0.0536  1.5748
  681MOL0     H93923   2.187  11.510   3.884 -0.9307  0.8766  3.3311
  681MOL0     H93924   2.253  11.345   3.883 -0.2604 -0.1781  1.7573
  681MOL0     H93925   2.184  11.435   4.097  1.5391  1.3690 -2.9884
  681MOL0     H93926   2.016  11.461   4.035 -1.0672 -0.9423  3.4547
  681MOL0     H93927   2.127  11.276   4.293  3.0921 -0.6041 -0.8096
  681MOL0     H93928   1.974  10.913   4.327  5.9857 -1.8395  2.4729
  681MOL0     H93929   1.920  11.067   4.410 -0.7891 -1.7248 -0.9887
  681MOL0     H93930   2.208  10.972   4.348  0.6207  0.4201  0.2159
  681MOL0     H93931   2.177  11.092   4.472 -2.0035  3.2688 -1.7870
  681MOL0     H93932   2.118  10.797   4.504  2.3087 -0.7936 -0.9116
  681MOL0     H93933   2.226  10.914   4.585 -0.1938 -1.5538  0.0288
  681MOL0     H93934   1.920  10.935   4.603  0.2628  2.3715 -0.1918
  681MOL0     H93935   2.021  10.861   4.719 -0.2420  0.5488  0.9579
  681MOL0     H93936   1.980  11.231   4.867  0.2784  1.0070  1.3631
  681MOL0     H93937   2.019  11.295   5.183  0.4594 -0.3548  0.2724
  681MOL0     H93938   1.990  11.361   5.032  0.7935 -0.2825 -1.3526
  681MOL0     H93939   2.150  11.388   5.111  1.3842 -1.1801 -0.0603
  681MOL0     H93940   2.400  10.853   5.416  2.0311 -0.8701 -1.9756
  681MOL0     H93941   2.508  10.863   5.629 -0.2089  0.4517  0.5848
  681MOL0     H93942   2.669  10.881   5.798  1.0297 -2.3857 -1.9417
  681MOL0     H93943   2.803  10.951   5.708 -1.1254  0.0773  0.3548
  681MOL0     H93944   2.838  11.101   5.901 -1.4908  1.4065 -0.4533
  681MOL0     H93945   2.699  11.054   5.980 -1.4658 -0.0080 -1.5232
  681MOL0     H93946   2.919  10.849   5.906  0.9711  1.9478 -0.3247
  681MOL0     H93947   2.789  10.825   6.023  0.8069 -0.6181  0.5252
  681MOL0     H93948   2.903  10.970   6.169  3.8495  0.3912  2.4488
  681MOL0     H93949   3.007  11.027   6.027 -1.9327  2.8846  1.4022
  681MOL0     H93950   3.091  10.802   6.007  1.0063  1.3794 -0.7160
  681MOL0     H93951   3.162  10.888   6.141 -0.5089 -0.5569  2.1891
  681MOL0     H93952   2.953  10.672   6.196 -0.9046  1.8562  0.1270
  681MOL0     H93953   3.020  10.779   6.319 -3.1932 -3.4213  1.4480
  681MOL0     H93954   3.250  10.710   6.250  1.3891 -1.8539 -2.1036
  681MOL0     H93955   3.175  10.569   6.165  0.0216  1.1841 -0.7522
  681MOL0     H93956   3.083  10.480   6.360  1.0383 -0.4039  2.5700
  681MOL0     H93957   3.116  10.631   6.454  1.3090 -0.5738  0.6325
  681MOL0     H93958   2.631  11.257   5.556  0.5789 -0.4361  0.7797
  681MOL0     H93959   2.552  11.249   5.328  1.8646  1.0902  1.2781
  681MOL0     H93960   2.353  10.937   5.009  0.7744  0.2638 -0.3948
  681MOL0     H93961   2.230  10.901   4.800  0.0507 -0.4579  0.0580
  681MOL0     H93962   2.131  11.174   2.960  0.7884 -0.6275 -2.4364
  681MOL0     H93963   2.150  10.955   2.815  1.2488 -1.8826 -0.7004
  681MOL0     H93964   2.171  10.672   2.628  0.7415  0.9189  0.4834
  681MOL0     H93965   2.153  10.536   2.453  4.2394  1.0860  0.2617
  681MOL0     H93966   2.099  10.392   2.309 -0.3132 -2.2136  0.6079
  681MOL0     H93967   2.264  10.348   2.347 -0.3456  2.6254  0.8612
  681MOL0     H93968   2.264  10.204   2.187 -1.2457 -0.5861 -1.2729
  681MOL0     H93969   2.086  10.210   2.156  1.7823  1.0208 -3.0973
  681MOL0     H93970   2.237  10.051   2.362 -0.5606  0.5571  0.1104
  681MOL0     H93971   2.054  10.063   2.358  1.1747  1.7584  1.8173
  681MOL0     H93972   2.194   9.842   2.239 -2.2489 -0.4806  1.6109
  681MOL0     H93973   2.218   9.958   2.113 -0.3247 -1.2384 -0.7796
  681MOL0     H93974   1.804   9.904   2.091 -1.2424 -1.1322  1.6722
  681MOL0     H93975   2.078  10.193   2.685 -0.7685  0.3208  1.1420
  681MOL0     H93976   2.202  10.340   2.990 -0.2469  1.1443  0.4914
  681MOL0     H93977   2.040  10.371   3.009  3.3108  0.9246  1.6191
  681MOL0     H93978   2.079  10.219   2.924 -4.3641  1.7046  0.8653
  682MOL0     O93979   8.695   8.786   3.660 -0.6578 -0.6153  0.0278
  682MOL0     C93980   8.739   8.736   3.764  0.2460 -1.0286  1.0978
  682MOL0     O93981   8.815   8.628   3.768 -1.0796  0.1468 -0.5332
  682MOL0     C93982   8.843   8.565   3.655  0.0464  0.2601  0.0454
  682MOL0     C93983   8.960   8.582   3.576 -0.1990  0.0095 -1.0112
  682MOL0     C93984   8.983   8.503   3.453 -0.1960  0.5843  0.4249
  682MOL0     C93985   8.896   8.401   3.411 -0.2680 -0.2017 -0.9977
  682MOL0     O93986   8.917   8.321   3.301  0.1960 -0.2618 -0.9726
  682MOL0     C93987   8.839   8.363   3.187 -0.0434 -0.6732 -0.1569
  682MOL0     C93988   8.861   8.259   3.071  0.5502  1.0706  0.3376
  682MOL0     C93989   8.834   8.111   3.104 -0.4642 -0.4603  0.2856
  682MOL0     C93990   8.846   8.020   2.979  0.0319 -0.0496  0.1957
  682MOL0     C93991   8.890   7.876   3.013 -0.7935 -0.8551 -1.2879
  682MOL0     C93992   8.779   7.787   3.077 -0.8927  0.1913  0.2997
  682MOL0     C93993   8.815   7.637   3.059 -0.5425  0.2986 -0.3776
  682MOL0     C93994   8.897   7.571   3.170  0.7049  0.0676 -0.4897
  682MOL0     N93995   8.920   7.431   3.131 -0.2301  0.1346  0.1660
  682MOL0     C93996   9.040   7.359   3.156  0.7560 -0.0298 -0.2371
  682MOL0     C93997   9.020   7.239   3.117 -0.5168 -0.4193 -0.5661
  682MOL0     C93998   9.127   7.134   3.129  0.1325  0.3394 -0.4620
  682MOL0     C93999   9.216   7.149   3.250 -1.2062  0.3281 -0.2587
  682MOL0     C94000   9.125   7.122   3.377  0.8478 -0.1725 -0.2738
  682MOL0     C94001   9.188   7.176   3.504  0.4131  0.4568 -0.1344
  682MOL0     O94002   9.189   7.323   3.508 -0.1981 -0.5194 -0.5240
  682MOL0     C94003   9.080   7.404   3.512  0.6160 -0.2494 -0.1351
  682MOL0     C94004   8.959   7.371   3.571 -0.5635 -0.9141  0.2885
  682MOL0     C94005   8.866   7.478   3.601  0.5295  0.4035 -0.9831
  682MOL0     C94006   8.747   7.435   3.684 -0.2959 -0.3860  0.7939
  682MOL0     C94007   8.885   7.612   3.554 -1.1066 -1.4417 -0.2197
  682MOL0     C94008   8.791   7.737   3.575 -0.3560 -0.1386  0.1921
  682MOL0     O94009   8.697   7.723   3.674 -0.4284 -0.2519 -0.0746
  682MOL0     C94010   8.624   7.832   3.726 -0.7406  0.2200 -0.2822
  682MOL0     C94011   8.490   7.817   3.764 -0.1116 -0.2831  0.0320
  682MOL0     C94012   8.421   7.929   3.821 -0.5201 -0.0133 -0.1548
  682MOL0     C94013   8.487   8.053   3.843 -0.4342 -0.0592  0.3507
  682MOL0     O94014   8.419   8.155   3.913  0.8643  0.3380 -0.8925
  682MOL0     C94015   8.490   8.277   3.950  1.0316  0.3989 -0.0037
  682MOL0     C94016   8.401   8.363   4.044 -0.7545  0.0017  0.8066
  682MOL0     C94017   8.447   8.508   4.041 -0.4204  0.4174 -0.5047
  682MOL0     C94018   8.412   8.582   4.169 -0.2239 -0.0066 -0.5901
  682MOL0     C94019   8.255   8.591   4.190 -0.3516  0.4052  0.1234
  682MOL0     C94020   8.204   8.673   4.311  0.2391 -0.0174 -0.1922
  682MOL0     C94021   8.222   8.818   4.276 -0.5628 -0.3486  0.0243
  682MOL0     C94022   8.179   8.912   4.394  0.0540  0.9695 -1.1155
  682MOL0    Cl94023   8.037   8.842   4.480  0.3132 -0.0168 -0.4440
  682MOL0     C94024   8.623   8.062   3.803  0.7401  0.4847  0.3110
  682MOL0     C94025   8.687   7.956   3.743  0.8871  0.3769  0.6368
  682MOL0     O94026   8.807   7.843   3.509 -0.2036 -0.3054 -0.5963
  682MOL0     C94027   8.996   7.634   3.472 -0.3608 -0.5652  0.2298
  682MOL0     C94028   9.095   7.534   3.457  0.5395  0.5149 -0.0211
  682MOL0     N94029   8.887   7.225   3.065  0.4038 -1.3354 -0.1225
  682MOL0     N94030   8.834   7.345   3.078  0.2824  0.0242  0.3916
  682MOL0     C94031   8.784   8.387   3.492 -0.4615  0.2284  0.9189
  682MOL0     C94032   8.759   8.458   3.608 -0.0814  0.1202  0.2447
  682MOL0     C94033   8.699   8.816   3.882  0.3266  0.0335  1.0884
  682MOL0     C94034   8.610   8.924   3.866 -0.3258  0.2452  0.0394
  682MOL0     C94035   8.561   8.997   3.973  0.9488 -0.1240 -0.3608
  682MOL0     C94036   8.582   8.951   4.107  0.2157  0.1903  0.4960
  682MOL0     O94037   8.527   9.034   4.209  1.2981 -0.0758 -0.0959
  682MOL0     C94038   8.564   9.016   4.341 -0.1272  0.6281  0.2103
  682MOL0     C94039   8.536   9.150   4.406  0.5953 -0.6568 -0.0994
  682MOL0     C94040   8.553   9.140   4.555  0.0773  0.4654 -0.3281
  682MOL0     C94041   8.596   9.273   4.613 -0.1143 -0.5898 -1.0891
  682MOL0     C94042   8.497   9.378   4.599 -0.1553  0.0426 -0.2940
  682MOL0     C94043   8.421   9.474   4.584  0.4179  0.4834  0.4676
  682MOL0     C94044   8.661   8.840   4.122 -0.4754  0.3342 -0.9336
  682MOL0     C94045   8.727   8.781   4.015 -0.3500 -0.4425 -0.2097
  682MOL0     C94046   8.829   8.676   4.056  0.3020  0.7588  0.6637
  682MOL0     H94047   9.037   8.653   3.605  0.9659 -1.3702 -0.6063
  682MOL0     H94048   9.065   8.545   3.396 -0.6997  2.4707  1.0295
  682MOL0     H94049   8.875   8.457   3.145  3.0049 -1.1655  1.0981
  682MOL0     H94050   8.736   8.373   3.222  0.9274  2.2501  2.2555
  682MOL0     H94051   8.815   8.298   2.980  0.6309  2.3998  0.8557
  682MOL0     H94052   8.967   8.247   3.047 -0.3327 -2.7597 -2.5681
  682MOL0     H94053   8.902   8.079   3.184 -0.8426 -0.0236  0.7814
  682MOL0     H94054   8.738   8.115   3.156  1.5813  1.4435  4.3729
  682MOL0     H94055   8.752   8.024   2.923 -0.5801  0.2003  1.2008
  682MOL0     H94056   8.935   8.054   2.926 -0.7447  0.7393 -0.6406
  682MOL0     H94057   8.973   7.877   3.084 -0.8520 -1.5396 -1.2054
  682MOL0     H94058   8.946   7.832   2.930  1.7250 -2.6458  1.1517
  682MOL0     H94059   8.767   7.814   3.182  1.8507  2.1932  0.2162
  682MOL0     H94060   8.682   7.800   3.029  0.6781  1.7697 -2.7868
  682MOL0     H94061   8.858   7.624   2.960 -2.0000 -2.9692 -0.7193
  682MOL0     H94062   8.722   7.580   3.063 -0.0960 -0.3903  0.9671
  682MOL0     H94063   8.996   7.615   3.178  0.6159 -0.0327  2.0861
  682MOL0     H94064   8.847   7.578   3.267 -3.0373 -1.0915 -2.1371
  682MOL0     H94065   9.128   7.390   3.211  0.7845 -1.4492  0.5629
  682MOL0     H94066   9.183   7.137   3.035 -2.1040 -0.5033 -1.8880
  682MOL0     H94067   9.071   7.040   3.131  0.0247  0.4044 -0.4491
  682MOL0     H94068   9.296   7.075   3.245 -1.6669 -0.6034  3.4199
  682MOL0     H94069   9.263   7.248   3.254  1.6456 -0.9312 -0.4580
  682MOL0     H94070   9.030   7.176   3.383  1.2473  0.3817  2.1241
  682MOL0     H94071   9.101   7.016   3.391 -0.9425 -0.0289 -1.9508
  682MOL0     H94072   9.134   7.138   3.591  0.9905  2.0334  0.9650
  682MOL0     H94073   9.285   7.129   3.521  1.3781  1.0831 -3.3787
  682MOL0     H94074   8.927   7.272   3.604 -3.8909 -0.7250 -1.8949
  682MOL0     H94075   8.760   7.338   3.734  1.4432 -0.2188  0.7515
  682MOL0     H94076   8.665   7.439   3.612 -0.7933  1.8675  1.4143
  682MOL0     H94077   8.722   7.507   3.762 -4.2036  2.5491 -2.7761
  682MOL0     H94078   8.440   7.722   3.747 -2.5185  0.7308  0.9754
  682MOL0     H94079   8.317   7.926   3.852 -0.1382 -0.2981  1.1758
  682MOL0     H94080   8.574   8.243   4.012 -1.1377 -0.7418  2.5062
  682MOL0     H94081   8.519   8.341   3.866  0.0846  2.0355  0.8842
  682MOL0     H94082   8.298   8.359   4.006 -1.1792  0.6756  1.8390
  682MOL0     H94083   8.401   8.320   4.145 -1.7225 -2.0162 -0.0010
  682MOL0     H94084   8.412   8.566   3.955  1.1753  4.2046  1.1594
  682MOL0     H94085   8.553   8.512   4.017  0.9287 -1.5555  3.9508
  682MOL0     H94086   8.455   8.683   4.164 -1.5128  0.5506 -0.9523
  682MOL0     H94087   8.450   8.510   4.241 -2.0269  0.4954  0.9492
  682MOL0     H94088   8.202   8.617   4.098 -1.7939 -3.3564 -0.2961
  682MOL0     H94089   8.218   8.489   4.205  1.2814 -0.1006  0.9127
  682MOL0     H94090   8.266   8.638   4.395 -0.7498  1.3820  1.1707
  682MOL0     H94091   8.100   8.642   4.324 -0.1140  0.8410 -0.9502
  682MOL0     H94092   8.149   8.845   4.200  2.8121  1.2086 -2.9219
  682MOL0     H94093   8.323   8.841   4.240 -0.4578 -1.2246 -0.2702
  682MOL0     H94094   8.168   9.015   4.362  1.2368  1.4910  0.0798
  682MOL0     H94095   8.261   8.908   4.466 -1.8041  2.5090  1.2587
  682MOL0     H94096   8.675   8.157   3.813  0.2661  0.6581  1.2680
  682MOL0     H94097   8.789   7.979   3.712  1.0038  2.9721  2.6583
  682MOL0     H94098   9.014   7.728   3.420 -1.3729  0.0270  0.9208
  682MOL0     H94099   9.193   7.546   3.413  0.8685 -0.5700  0.3812
  682MOL0     H94100   8.709   8.316   3.459 -0.2066  1.3344 -2.4425
  682MOL0     H94101   8.663   8.436   3.654  0.1568 -0.2177  0.5808
  682MOL0     H94102   8.578   8.950   3.766  0.8182 -4.7753 -1.9012
  682MOL0     H94103   8.491   9.079   3.960 -0.7434 -0.9963  2.3677
  682MOL0     H94104   8.513   8.939   4.399  2.0246 -1.3316 -0.3511
  682MOL0     H94105   8.672   9.005   4.352  0.0065  0.1951 -1.2399
  682MOL0     H94106   8.443   9.194   4.368  1.5741  1.4641 -0.2069
  682MOL0     H94107   8.614   9.212   4.360  2.3329 -0.5207  2.7210
  682MOL0     H94108   8.456   9.113   4.598  0.4333  1.6872  1.3297
  682MOL0     H94109   8.616   9.055   4.580 -1.9201 -1.8361 -2.5490
  682MOL0     H94110   8.692   9.308   4.574 -0.5348  3.5258  1.0845
  682MOL0     H94111   8.608   9.263   4.721 -1.7408  2.0145 -0.5959
  682MOL0     H94112   8.365   9.565   4.575 -0.3438 -0.1595 -2.2487
  682MOL0     H94113   8.679   8.805   4.224 -2.2283  0.9594 -0.3683
  682MOL0     H94114   8.923   8.677   3.999 -1.8723  1.7290 -3.2401
  682MOL0     H94115   8.854   8.697   4.161  2.7445 -0.8318  0.4827
  682MOL0     H94116   8.786   8.577   4.041  0.9873  0.6457 -0.7342
  683MOL0     O94117   6.852   2.509   3.088  0.0887 -0.2254  0.6285
  683MOL0     C94118   6.771   2.593   3.095  0.6003 -0.0893 -0.1000
  683MOL0     O94119   6.799   2.730   3.105  0.3286  0.6669  0.0584
  683MOL0     C94120   6.915   2.772   3.049 -0.0304 -0.3373  0.1557
  683MOL0     C94121   7.018   2.844   3.114  0.1758  0.3838 -0.6675
  683MOL0     C94122   7.140   2.877   3.059 -0.9179  1.1815 -0.3428
  683MOL0     C94123   7.175   2.839   2.929  0.5175  0.9669  0.2100
  683MOL0     O94124   7.303   2.857   2.882 -0.0636 -0.6816 -0.2097
  683MOL0     C94125   7.331   2.855   2.737  0.1795  0.2630  0.2111
  683MOL0     C94126   7.476   2.875   2.723 -0.5494 -0.7906  0.4321
  683MOL0     C94127   7.532   3.009   2.780 -0.4657 -0.9619  0.9302
  683MOL0     C94128   7.674   2.986   2.834 -0.3956  0.6934  0.3050
  683MOL0     C94129   7.734   3.098   2.916 -0.7008 -0.0438  0.4995
  683MOL0     C94130   7.874   3.061   2.985  0.7652 -0.4906 -0.5721
  683MOL0     C94131   7.952   3.169   3.057 -0.5519  0.6614  0.0470
  683MOL0     C94132   8.097   3.114   3.062 -0.0082 -0.9827  0.9078
  683MOL0     N94133   8.180   3.198   3.149  1.0291  0.6665  0.5685
  683MOL0     C94134   8.262   3.149   3.244  0.4889 -0.3312 -0.6084
  683MOL0     C94135   8.303   3.255   3.307 -0.3611 -0.4352 -0.1921
  683MOL0     C94136   8.416   3.249   3.411  1.0644  0.8854  0.4691
  683MOL0     C94137   8.455   3.398   3.453 -0.2648  1.1601  0.6353
  683MOL0     C94138   8.564   3.385   3.554 -0.0046 -0.3641  0.0646
  683MOL0     C94139   8.559   3.515   3.637  0.5333  0.5721  0.5047
  683MOL0     O94140   8.651   3.506   3.750  0.4691  0.4546  0.4258
  683MOL0     C94141   8.783   3.514   3.718  0.4960  1.2552  0.5266
  683MOL0     C94142   8.886   3.411   3.745 -0.2596 -0.7374  0.6312
  683MOL0     C94143   9.028   3.434   3.717 -0.1508 -1.1517  0.4431
  683MOL0     C94144   9.120   3.317   3.726  0.4194 -0.2553  0.0180
  683MOL0     C94145   9.071   3.573   3.694 -0.3254  0.3318 -0.4458
  683MOL0     C94146   9.219   3.612   3.681  0.1478 -0.1932  0.6532
  683MOL0     O94147   9.241   3.753   3.680 -0.3932  0.4466  0.4649
  683MOL0     C94148   9.358   3.802   3.630 -0.4752  0.3667  0.0658
  683MOL0     C94149   9.453   3.730   3.556 -0.4502  0.1004 -0.4358
  683MOL0     C94150   9.573   3.789   3.526 -0.0565 -0.2912 -0.0526
  683MOL0     C94151   9.602   3.921   3.544  0.3060  0.2072 -1.1227
  683MOL0     O94152   9.730   3.974   3.513  0.1453 -0.0197  0.2281
  683MOL0     C94153   9.758   4.111   3.518  0.0700 -0.1622 -0.1249
  683MOL0     C94154   9.691   4.191   3.410 -0.2449 -0.3003 -0.2623
  683MOL0     C94155   9.702   4.131   3.270  0.1672  0.6386 -0.0395
  683MOL0     C94156   9.648   4.219   3.153 -0.3652  0.2873  0.1225
  683MOL0     C94157   9.704   4.178   3.011  0.9383  0.5296  0.3652
  683MOL0     C94158   9.648   4.273   2.907  0.3743  0.0044 -0.7649
  683MOL0     C94159   9.736   4.280   2.780 -0.0598  0.1919  0.4155
  683MOL0     C94160   9.872   4.359   2.803 -0.0872 -0.1434 -0.8730
  683MOL0    Cl94161   9.859   4.523   2.872  0.0065 -0.0974 -0.4522
  683MOL0     C94162   9.509   3.995   3.617 -0.0111  0.1066 -0.2545
  683MOL0     C94163   9.388   3.934   3.662 -0.4452  0.3870 -0.2375
  683MOL0     O94164   9.304   3.523   3.694  0.0034 -1.0913 -0.0306
  683MOL0     C94165   8.969   3.675   3.694  0.3403  0.4387  0.3153
  683MOL0     C94166   8.831   3.642   3.696 -0.4310 -0.4063  0.7506
  683MOL0     N94167   8.248   3.370   3.248  0.7092  0.0745 -1.0366
  683MOL0     N94168   8.173   3.332   3.153  0.4311  0.0210  0.6840
  683MOL0     C94169   7.062   2.788   2.851  0.5665 -0.0203 -0.9223
  683MOL0     C94170   6.931   2.761   2.912  0.4455 -0.1467  0.0333
  683MOL0     C94171   6.627   2.561   3.095 -0.2394  0.5558  0.4232
  683MOL0     C94172   6.542   2.617   3.182  0.0977 -0.0325 -0.3310
  683MOL0     C94173   6.403   2.570   3.186  0.2347 -0.4749 -0.7249
  683MOL0     C94174   6.350   2.486   3.086 -0.1608 -0.3594 -0.0792
  683MOL0     O94175   6.221   2.448   3.061 -0.6673  0.0026  0.4530
  683MOL0     C94176   6.127   2.480   3.166 -0.4193 -0.2591  0.6326
  683MOL0     C94177   5.987   2.427   3.154  0.4598  0.6061 -0.5371
  683MOL0     C94178   5.908   2.493   3.043 -0.3089 -0.1698  0.1063
  683MOL0     C94179   5.753   2.463   3.074  0.0092 -0.0991 -0.8689
  683MOL0     C94180   5.677   2.480   2.947  1.1730 -0.5633 -0.2793
  683MOL0     C94181   5.605   2.523   2.851  0.5474  0.5134  0.3351
  683MOL0     C94182   6.446   2.432   3.008  0.2255  0.1882  0.3587
  683MOL0     C94183   6.582   2.465   3.007 -0.1218  0.5560 -0.4954
  683MOL0     C94184   6.667   2.414   2.891 -0.6158 -0.2778  0.7750
  683MOL0     H94185   6.997   2.862   3.219 -1.9195  2.0079 -1.2837
  683MOL0     H94186   7.217   2.922   3.121 -0.7873 -0.2470  0.5719
  683MOL0     H94187   7.276   2.930   2.680  0.2290  1.3939  1.5805
  683MOL0     H94188   7.288   2.763   2.698  0.5418  0.3728 -0.4528
  683MOL0     H94189   7.522   2.790   2.774 -1.8382 -2.2112 -0.6637
  683MOL0     H94190   7.503   2.868   2.617  1.0303 -1.6165  0.8634
  683MOL0     H94191   7.541   3.078   2.695  3.2839 -2.2452  0.1038
  683MOL0     H94192   7.470   3.041   2.864 -1.5348 -0.1935 -0.1216
  683MOL0     H94193   7.673   2.896   2.896 -3.8733  0.5452  0.1918
  683MOL0     H94194   7.745   2.977   2.750  0.3998  1.5865  0.8513
  683MOL0     H94195   7.668   3.132   2.996  0.7380  1.4053  1.1244
  683MOL0     H94196   7.742   3.172   2.836 -0.6214  1.9296  2.2338
  683MOL0     H94197   7.853   2.982   3.058  1.2798 -1.0651 -1.0374
  683MOL0     H94198   7.942   3.017   2.911  0.3571 -0.6637 -0.8464
  683MOL0     H94199   7.915   3.189   3.158 -0.4304  0.5243  0.1191
  683MOL0     H94200   7.953   3.261   2.998 -3.9802  0.5614 -0.3845
  683MOL0     H94201   8.094   3.009   3.093 -0.7478 -1.3598 -0.3887
  683MOL0     H94202   8.140   3.129   2.963 -2.3255  0.4680  0.0241
  683MOL0     H94203   8.297   3.048   3.268  0.0878 -0.8284 -2.0347
  683MOL0     H94204   8.497   3.189   3.370  0.7949  1.0280 -0.2965
  683MOL0     H94205   8.371   3.193   3.495  1.4179 -1.1444 -0.6229
  683MOL0     H94206   8.503   3.453   3.371  1.3061 -2.4869 -1.1603
  683MOL0     H94207   8.363   3.442   3.492 -1.7691 -0.7520 -0.5504
  683MOL0     H94208   8.545   3.295   3.614  2.2187 -0.4089  0.7894
  683MOL0     H94209   8.664   3.376   3.511  0.3865 -0.5747  0.9886
  683MOL0     H94210   8.580   3.598   3.569  1.1964 -3.6548 -5.2252
  683MOL0     H94211   8.460   3.549   3.668 -0.1755 -0.5756 -0.3880
  683MOL0     H94212   8.853   3.318   3.790  1.1865 -0.8439  1.5230
  683MOL0     H94213   9.218   3.330   3.773 -0.0137 -2.8972  1.8445
  683MOL0     H94214   9.124   3.264   3.630  1.5218 -0.7043  0.2977
  683MOL0     H94215   9.073   3.243   3.792 -1.0646  3.1950  3.1540
  683MOL0     H94216   9.441   3.624   3.534  3.5286 -1.5122  3.7112
  683MOL0     H94217   9.640   3.722   3.472  0.8901 -0.3953  1.2147
  683MOL0     H94218   9.740   4.153   3.617 -2.8014  1.4556 -1.2173
  683MOL0     H94219   9.865   4.125   3.500  0.5994  0.0378  2.7889
  683MOL0     H94220   9.589   4.225   3.432  0.2485  2.0710 -1.3495
  683MOL0     H94221   9.746   4.286   3.410  0.1864 -0.5266  1.5345
  683MOL0     H94222   9.638   4.043   3.262  0.1997  0.6809 -0.8737
  683MOL0     H94223   9.806   4.100   3.254  0.7392  0.8262  2.8844
  683MOL0     H94224   9.664   4.327   3.167 -4.0728  0.8693  0.9801
  683MOL0     H94225   9.541   4.200   3.165 -0.4553  1.7432  2.0775
  683MOL0     H94226   9.813   4.190   3.005  0.8454  1.7884  0.8848
  683MOL0     H94227   9.675   4.079   2.975 -1.6038  1.0384  0.8059
  683MOL0     H94228   9.639   4.373   2.950 -1.3360  0.8765 -2.9721
  683MOL0     H94229   9.548   4.237   2.879  0.2545  0.1659 -0.5467
  683MOL0     H94230   9.691   4.332   2.695  1.2867  1.7660  0.6300
  683MOL0     H94231   9.765   4.177   2.753 -1.3467  0.0711 -0.5807
  683MOL0     H94232   9.925   4.359   2.707  2.7056 -0.1233  0.5560
  683MOL0     H94233   9.933   4.310   2.879 -1.7489  0.6702  1.0624
  683MOL0     H94234   9.526   4.102   3.619  1.9548 -0.1318 -1.8161
  683MOL0     H94235   9.309   3.997   3.701 -1.3310  0.7328 -2.4622
  683MOL0     H94236   8.975   3.781   3.668  0.9090 -0.3661 -3.5174
  683MOL0     H94237   8.758   3.721   3.687  1.1970  1.0715 -0.0862
  683MOL0     H94238   7.074   2.740   2.755  2.0285 -0.3012 -0.6269
  683MOL0     H94239   6.858   2.717   2.846  0.9476 -0.3724 -0.3820
  683MOL0     H94240   6.589   2.691   3.247 -1.4095 -0.3901  1.2625
  683MOL0     H94241   6.355   2.616   3.273  4.1008  1.8361  0.4425
  683MOL0     H94242   6.170   2.452   3.263 -0.3748 -0.5515  0.5301
  683MOL0     H94243   6.114   2.588   3.168 -1.3014 -0.3180  3.9076
  683MOL0     H94244   5.936   2.455   3.246  2.7727  2.0676  0.3857
  683MOL0     H94245   5.977   2.319   3.143 -1.3125  0.7142 -0.4087
  683MOL0     H94246   5.922   2.600   3.028 -2.0220  0.0622 -0.0464
  683MOL0     H94247   5.940   2.438   2.954  2.9176 -2.8233  2.6168
  683MOL0     H94248   5.722   2.532   3.153  2.4345 -0.8131  0.8318
  683MOL0     H94249   5.737   2.358   3.102 -1.3086  0.3086 -0.0188
  683MOL0     H94250   5.540   2.561   2.775 -0.4695 -3.3158 -0.9706
  683MOL0     H94251   6.421   2.371   2.922  3.5755  0.1211 -0.7043
  683MOL0     H94252   6.747   2.344   2.919 -0.1483 -1.1069 -2.2696
  683MOL0     H94253   6.594   2.368   2.823 -3.0216  3.2899  0.6530
  683MOL0     H94254   6.725   2.490   2.840  3.5091 -2.9225  1.0800
  684MOL0     O94255   7.207   2.775   2.412  0.2770  0.1441 -0.5071
  684MOL0     C94256   7.162   2.661   2.400 -0.1719  0.3643 -0.2456
  684MOL0     O94257   7.239   2.558   2.359  0.7275 -0.2359  0.5636
  684MOL0     C94258   7.367   2.577   2.313  0.4194 -0.4754  0.7675
  684MOL0     C94259   7.386   2.623   2.180 -0.5269 -0.9101  0.1448
  684MOL0     C94260   7.521   2.626   2.139 -0.2637  0.2591  0.1305
  684MOL0     C94261   7.628   2.592   2.237  0.8581 -0.6448 -0.3761
  684MOL0     O94262   7.751   2.611   2.182  0.0252  0.3888 -0.1582
  684MOL0     C94263   7.862   2.595   2.266 -0.0232 -0.1619 -0.0451
  684MOL0     C94264   7.982   2.634   2.183  0.4369 -0.0867 -0.4519
  684MOL0     C94265   8.119   2.574   2.215  0.3374 -0.2802 -1.2039
  684MOL0     C94266   8.161   2.619   2.357 -0.2390 -0.0755  0.5558
  684MOL0     C94267   8.278   2.545   2.413  0.4856  0.0761  0.8941
  684MOL0     C94268   8.318   2.607   2.545 -0.0911  0.1883 -0.3657
  684MOL0     C94269   8.434   2.531   2.603 -0.0648 -0.7141  0.3668
  684MOL0     C94270   8.509   2.609   2.714 -0.0514 -0.0199 -0.2137
  684MOL0     N94271   8.609   2.526   2.791  0.4218 -0.4064 -0.0816
  684MOL0     C94272   8.724   2.588   2.846  0.1802  0.5732  0.2844
  684MOL0     C94273   8.788   2.480   2.896 -0.4174  0.5464 -0.7830
  684MOL0     C94274   8.932   2.495   2.945 -0.5271  0.0113 -0.2131
  684MOL0     C94275   8.929   2.523   3.097  0.0817 -0.2691 -0.1719
  684MOL0     C94276   9.057   2.598   3.139 -0.7357 -0.3638 -0.0356
  684MOL0     C94277   9.176   2.512   3.133 -0.1265 -0.1684  0.3181
  684MOL0     O94278   9.297   2.589   3.172  0.4300 -0.8793 -0.9149
  684MOL0     C94279   9.350   2.559   3.291 -0.1600  0.9877  0.2805
  684MOL0     C94280   9.294   2.497   3.402  0.8539 -0.8608 -0.9237
  684MOL0     C94281   9.365   2.450   3.513 -0.9883  0.6538 -0.0652
  684MOL0     C94282   9.277   2.408   3.632  0.0401  0.2745 -0.0111
  684MOL0     C94283   9.504   2.465   3.515 -0.6621 -0.1246 -0.8762
  684MOL0     C94284   9.589   2.417   3.624  0.1422 -0.4455 -0.7207
  684MOL0     O94285   9.707   2.478   3.640 -0.0894 -0.8003 -0.0914
  684MOL0     C94286   9.808   2.437   3.720 -0.5149 -0.4047 -0.1092
  684MOL0     C94287   9.920   2.520   3.711  0.3462  0.0232  0.1388
  684MOL0     C94288  10.041   2.492   3.777 -0.9682 -0.2634  0.2891
  684MOL0     C94289  10.043   2.388   3.868 -0.3004  0.5644  1.3904
  684MOL0     O94290  10.158   2.356   3.935  0.1153 -0.4916  0.3497
  684MOL0     C94291  10.196   2.464   4.031 -0.2075  0.2467  0.7678
  684MOL0     C94292  10.331   2.425   4.105 -0.5916  0.2600  0.1731
  684MOL0     C94293  10.443   2.408   4.005 -0.0055  0.6823  0.9623
  684MOL0     C94294  10.576   2.427   4.084  0.1860  0.4675  0.0532
  684MOL0     C94295  10.684   2.415   3.980 -0.0505  0.2437  0.0798
  684MOL0     C94296  10.821   2.467   4.022 -0.4637 -0.2467 -0.3492
  684MOL0     C94297  10.899   2.386   4.130  0.7730  0.1685 -0.2993
  684MOL0     C94298  11.050   2.427   4.136 -0.0572 -0.6465 -0.1438
  684MOL0    Cl94299  11.125   2.364   4.281 -0.1892  0.2635 -0.0303
  684MOL0     C94300   9.941   2.297   3.867 -0.4096 -0.2875 -0.1143
  684MOL0     C94301   9.819   2.320   3.803  0.5199  0.1897 -0.2761
  684MOL0     O94302   9.554   2.308   3.670 -0.2217  0.2208  0.7578
  684MOL0     C94303   9.561   2.521   3.401 -0.0652 -0.0652 -0.8474
  684MOL0     C94304   9.484   2.563   3.297 -0.9116  0.2789 -0.5881
  684MOL0     N94305   8.716   2.364   2.868  0.1659  0.4434 -0.9573
  684MOL0     N94306   8.607   2.395   2.809 -0.0989 -0.0000  0.3775
  684MOL0     C94307   7.597   2.552   2.373  0.3694 -1.0788  0.1151
  684MOL0     C94308   7.466   2.551   2.408  0.2376  0.4368  0.6426
  684MOL0     C94309   7.018   2.619   2.423 -0.0370  0.0310 -0.1902
  684MOL0     C94310   6.985   2.482   2.399  0.2017 -0.1379 -0.3938
  684MOL0     C94311   6.864   2.432   2.421  0.3099 -0.5248  0.7270
  684MOL0     C94312   6.761   2.509   2.460  0.4638  0.7257 -0.7299
  684MOL0     O94313   6.642   2.444   2.496  0.7191 -0.6957 -0.1485
  684MOL0     C94314   6.518   2.508   2.470  0.5328 -0.2653 -0.0588
  684MOL0     C94315   6.469   2.562   2.604 -0.2860 -0.4913  0.1174
  684MOL0     C94316   6.333   2.625   2.594 -0.0214  0.0522 -0.7721
  684MOL0     C94317   6.225   2.521   2.601  0.2867 -1.4729 -0.8039
  684MOL0     C94318   6.098   2.586   2.630 -0.2278  0.2375  0.7563
  684MOL0     C94319   5.980   2.615   2.630  0.2333  0.0635 -0.6406
  684MOL0     C94320   6.788   2.642   2.489 -0.3746 -0.2147  0.5531
  684MOL0     C94321   6.913   2.697   2.467  0.9759  0.2910 -0.5455
  684MOL0     C94322   6.925   2.836   2.513  0.1169 -0.4320 -0.1565
  684MOL0     H94323   7.308   2.663   2.116 -0.0714 -0.4526 -0.1321
  684MOL0     H94324   7.564   2.649   2.042  0.5633  0.2275  0.4822
  684MOL0     H94325   7.870   2.495   2.310  0.8170  0.3910  1.1051
  684MOL0     H94326   7.865   2.667   2.348  1.1938 -0.0033 -0.2150
  684MOL0     H94327   7.972   2.602   2.079 -1.7569  1.6499 -0.8484
  684MOL0     H94328   7.992   2.743   2.195 -0.2499 -0.2190  1.8714
  684MOL0     H94329   8.118   2.465   2.228 -3.6645 -0.7909 -3.9730
  684MOL0     H94330   8.181   2.610   2.132 -0.6052  4.2163 -0.2320
  684MOL0     H94331   8.183   2.726   2.355 -1.6367  0.2360  0.3568
  684MOL0     H94332   8.078   2.608   2.428 -1.3488 -2.9542 -1.0660
  684MOL0     H94333   8.353   2.560   2.335 -0.6523  2.0795  0.1096
  684MOL0     H94334   8.261   2.437   2.420 -2.2369  0.0937 -2.7597
  684MOL0     H94335   8.347   2.712   2.535 -0.5354  0.2217 -1.5615
  684MOL0     H94336   8.229   2.591   2.606 -0.7058 -4.4332 -2.0721
  684MOL0     H94337   8.507   2.521   2.522 -0.6822 -3.4406  0.0309
  684MOL0     H94338   8.417   2.425   2.627  2.7759 -1.1073  1.0358
  684MOL0     H94339   8.564   2.698   2.685  0.6898 -0.6160 -0.6875
  684MOL0     H94340   8.435   2.646   2.785  1.4948  0.7823  1.0406
  684MOL0     H94341   8.746   2.694   2.840  2.3061  0.0804 -2.5212
  684MOL0     H94342   8.984   2.577   2.896 -1.6396 -0.2317 -1.8971
  684MOL0     H94343   8.991   2.405   2.926  2.0179  1.1455  1.6770
  684MOL0     H94344   8.842   2.584   3.121 -0.7684 -1.4034 -0.2842
  684MOL0     H94345   8.914   2.435   3.160 -0.4245  1.1541  1.7588
  684MOL0     H94346   9.087   2.683   3.077 -1.5550  0.8303  1.1429
  684MOL0     H94347   9.060   2.640   3.240 -4.0243  1.7844 -0.6618
  684MOL0     H94348   9.162   2.421   3.192 -2.7035  0.9011  1.4825
  684MOL0     H94349   9.189   2.497   3.025 -0.9428 -1.0676  0.3307
  684MOL0     H94350   9.186   2.489   3.397  0.8291  0.0533 -1.9811
  684MOL0     H94351   9.327   2.418   3.729  1.5541  2.3689 -0.9314
  684MOL0     H94352   9.242   2.305   3.619 -2.1419  0.9702  0.0585
  684MOL0     H94353   9.184   2.466   3.629  0.8866  1.9107  2.1702
  684MOL0     H94354   9.920   2.618   3.664  1.9283  0.6796  1.3896
  684MOL0     H94355  10.135   2.547   3.781 -0.4496 -1.1027 -0.0514
  684MOL0     H94356  10.200   2.561   3.981  2.1207 -0.0391  0.2610
  684MOL0     H94357  10.110   2.470   4.099 -1.8947  0.3517 -1.2880
  684MOL0     H94358  10.350   2.510   4.171  1.3921  0.1324 -0.1835
  684MOL0     H94359  10.313   2.340   4.172  0.9341  0.8650  1.3992
  684MOL0     H94360  10.433   2.477   3.921 -0.1866 -1.9082 -1.2549
  684MOL0     H94361  10.440   2.308   3.961 -1.5179  1.3065 -0.4741
  684MOL0     H94362  10.605   2.359   4.165 -0.3045  0.6629  0.3976
  684MOL0     H94363  10.593   2.524   4.131  0.6402 -0.6688  2.3617
  684MOL0     H94364  10.699   2.312   3.947 -0.4169  1.1042 -3.1306
  684MOL0     H94365  10.655   2.471   3.890  2.6003 -1.2226 -1.8309
  684MOL0     H94366  10.802   2.570   4.054  2.3527  0.3858 -0.4072
  684MOL0     H94367  10.885   2.471   3.933 -0.1186  1.5121 -0.0634
  684MOL0     H94368  10.899   2.279   4.109 -0.6108  0.0092  0.3953
  684MOL0     H94369  10.858   2.394   4.231 -1.6370 -1.8644 -1.0301
  684MOL0     H94370  11.069   2.534   4.120  0.2426 -0.6426  0.2223
  684MOL0     H94371  11.101   2.372   4.056  4.4230 -0.2669  2.1351
  684MOL0     H94372   9.969   2.207   3.920  1.4588 -1.0463 -2.2474
  684MOL0     H94373   9.734   2.254   3.801  1.1858 -0.6841 -2.8847
  684MOL0     H94374   9.669   2.526   3.399  0.1265 -2.7278 -0.6301
  684MOL0     H94375   9.538   2.592   3.207 -3.6714  4.1987 -1.2571
  684MOL0     H94376   7.670   2.538   2.452 -1.0820  0.6115  1.8579
  684MOL0     H94377   7.429   2.522   2.505 -0.7226 -1.3790 -0.2090
  684MOL0     H94378   7.059   2.413   2.359  2.5266  0.5344  2.3518
  684MOL0     H94379   6.853   2.328   2.393 -1.9023 -0.3353  0.7425
  684MOL0     H94380   6.528   2.581   2.389  0.6567 -1.9542 -1.6277
  684MOL0     H94381   6.440   2.444   2.428 -0.6857  0.9525  0.2586
  684MOL0     H94382   6.546   2.633   2.637 -1.9861  1.2081  0.6693
  684MOL0     H94383   6.464   2.478   2.673 -1.9980  0.0425  0.6993
  684MOL0     H94384   6.326   2.690   2.681 -0.2038 -2.8836  1.5438
  684MOL0     H94385   6.311   2.675   2.499  0.4293  0.7263 -0.5314
  684MOL0     H94386   6.243   2.454   2.687  0.4344  3.0689  3.1448
  684MOL0     H94387   6.206   2.461   2.512  1.1296 -0.8620 -1.4052
  684MOL0     H94388   5.884   2.656   2.606 -0.1251  1.4854  2.7075
  684MOL0     H94389   6.705   2.706   2.516 -0.3052 -0.5053  1.4728
  684MOL0     H94390   6.828   2.886   2.501  0.4165  0.4697  1.0371
  684MOL0     H94391   6.946   2.841   2.620  0.3525  0.2662 -0.2290
  684MOL0     H94392   7.000   2.893   2.457  2.8349 -2.1280  1.5656
  685MOL0     O94393   2.029   8.186   6.794  0.3274  0.5292 -0.4324
  685MOL0     C94394   1.921   8.225   6.766  1.0466 -0.3595  0.6139
  685MOL0     O94395   1.847   8.211   6.646 -0.8960  0.4915  0.8547
  685MOL0     C94396   1.899   8.164   6.535 -0.4405  0.1471  1.0121
  685MOL0     C94397   1.814   8.155   6.425  0.6179 -1.2834  0.2472
  685MOL0     C94398   1.840   8.103   6.303  0.9829 -0.2104  0.2983
  685MOL0     C94399   1.974   8.071   6.280 -0.7752 -0.4382 -0.6735
  685MOL0     O94400   2.025   8.044   6.158 -0.3216  0.6180 -0.1466
  685MOL0     C94401   1.946   7.945   6.084  0.3459  0.0711 -0.1531
  685MOL0     C94402   2.036   7.893   5.972  0.4314 -0.3492  0.2285
  685MOL0     C94403   1.969   7.786   5.896  0.6141  0.1965  0.2750
  685MOL0     C94404   1.938   7.843   5.755 -0.1007 -0.0086 -0.2332
  685MOL0     C94405   1.841   7.741   5.681  0.2255  0.1908 -0.3542
  685MOL0     C94406   1.908   7.685   5.553  0.8452 -0.9527  1.0383
  685MOL0     C94407   1.896   7.776   5.434 -0.5927  0.0297  0.8108
  685MOL0     C94408   1.760   7.776   5.353 -0.2906  0.1097  1.1337
  685MOL0     N94409   1.703   7.913   5.358  0.3541  0.5701  0.3396
  685MOL0     C94410   1.742   8.023   5.290  0.1462  0.6450 -0.1576
  685MOL0     C94411   1.641   8.117   5.304 -0.4752  0.2384 -0.9287
  685MOL0     C94412   1.638   8.250   5.249  0.4881 -0.5411  0.6137
  685MOL0     C94413   1.531   8.269   5.138 -0.4645 -0.2390  0.1411
  685MOL0     C94414   1.493   8.422   5.128 -1.1991 -0.5807  0.4747
  685MOL0     C94415   1.386   8.482   5.228  0.0730 -0.8510 -0.2911
  685MOL0     O94416   1.249   8.450   5.192  0.6447  0.2138 -0.8087
  685MOL0     C94417   1.176   8.478   5.307  0.4305  0.0013 -0.2343
  685MOL0     C94418   1.097   8.591   5.323 -0.5693 -0.7658 -0.3583
  685MOL0     C94419   1.011   8.610   5.429  0.7539 -0.4766 -0.4354
  685MOL0     C94420   0.907   8.728   5.411  0.4520  0.2743 -0.1293
  685MOL0     C94421   1.004   8.519   5.538  0.2141  0.3909  0.9380
  685MOL0     C94422   0.914   8.514   5.656 -0.0467  0.0263  0.1937
  685MOL0     O94423   0.943   8.418   5.757  0.2034  0.1969  0.2908
  685MOL0     C94424   0.898   8.450   5.883 -1.2446  0.4751 -0.7514
  685MOL0     C94425   0.960   8.536   5.984  0.3651  0.4027  1.1898
  685MOL0     C94426   0.913   8.540   6.114  0.1691 -0.7582  0.1330
  685MOL0     C94427   0.813   8.453   6.156  0.0265  0.6535 -0.1316
  685MOL0     O94428   0.780   8.455   6.292  0.1521 -0.0619  0.3191
  685MOL0     C94429   0.699   8.345   6.342 -0.6934  0.2256 -0.1446
  685MOL0     C94430   0.692   8.355   6.488  0.7232  0.7968 -0.4028
  685MOL0     C94431   0.592   8.259   6.550  0.5694  0.6793  1.0363
  685MOL0     C94432   0.556   8.284   6.694 -0.2186 -0.1494  0.9319
  685MOL0     C94433   0.436   8.206   6.741 -0.5256  0.7478  0.2173
  685MOL0     C94434   0.454   8.054   6.723 -0.6127  0.3360 -0.6290
  685MOL0     C94435   0.319   7.988   6.763  0.2658  0.3709  0.3190
  685MOL0     C94436   0.319   7.839   6.727  0.0074  0.1882 -0.3555
  685MOL0    Cl94437   0.161   7.757   6.756  0.0465  0.3051 -0.0237
  685MOL0     C94438   0.755   8.363   6.061  0.0457 -0.6249  1.0787
  685MOL0     C94439   0.795   8.367   5.925  0.2483  0.1130 -0.9184
  685MOL0     O94440   0.839   8.610   5.671  0.0224  0.0532 -0.1650
  685MOL0     C94441   1.080   8.402   5.513 -0.2385 -0.4479 -0.2244
  685MOL0     C94442   1.168   8.385   5.408 -0.7565  0.0255  0.2019
  685MOL0     N94443   1.540   8.052   5.372 -0.5099  0.0291  0.2443
  685MOL0     N94444   1.576   7.932   5.408  0.5161  0.2097 -0.2386
  685MOL0     C94445   2.068   8.073   6.384 -0.0867 -0.0007 -0.0196
  685MOL0     C94446   2.034   8.110   6.511  0.6413  0.7345 -0.1172
  685MOL0     C94447   1.839   8.281   6.876 -1.2673  0.0239 -0.0971
  685MOL0     C94448   1.709   8.239   6.885  0.3817 -0.1308  0.2141
  685MOL0     C94449   1.632   8.287   6.985  0.0397  0.0738 -1.3026
  685MOL0     C94450   1.677   8.365   7.087 -0.5852  1.1884 -0.6065
  685MOL0     O94451   1.590   8.383   7.192  0.8301 -0.8101  0.1079
  685MOL0     C94452   1.557   8.268   7.262 -0.1874 -0.1605 -0.3853
  685MOL0     C94453   1.409   8.231   7.243 -0.4948  0.2537  0.2495
  685MOL0     C94454   1.311   8.351   7.276 -1.1945 -0.3165 -0.4724
  685MOL0     C94455   1.169   8.323   7.273  0.4041  0.1441 -0.7184
  685MOL0     C94456   1.106   8.449   7.307  0.2890 -0.0243 -0.8729
  685MOL0     C94457   1.062   8.554   7.342 -0.2917  0.5716 -0.2769
  685MOL0     C94458   1.811   8.390   7.089 -0.2403  0.0548 -0.0067
  685MOL0     C94459   1.889   8.364   6.979 -0.4428 -0.6100 -0.0039
  685MOL0     C94460   2.026   8.427   6.985 -0.8786 -0.5804 -0.5555
  685MOL0     H94461   1.719   8.205   6.436  1.5922  0.6672  0.3495
  685MOL0     H94462   1.768   8.105   6.222  1.4429 -2.1497 -0.2162
  685MOL0     H94463   1.860   7.999   6.042 -1.8820 -1.3147  2.2893
  685MOL0     H94464   1.899   7.868   6.145 -2.3458  2.6154  1.2827
  685MOL0     H94465   2.052   7.982   5.910  2.8436 -1.3251 -0.6488
  685MOL0     H94466   2.139   7.870   5.999  0.7996 -0.1625 -0.9564
  685MOL0     H94467   2.031   7.696   5.887 -1.2092 -1.4858  2.8244
  685MOL0     H94468   1.883   7.749   5.953 -1.3852  2.1310 -1.3218
  685MOL0     H94469   1.902   7.946   5.753  1.2216  0.5211  1.0868
  685MOL0     H94470   2.032   7.847   5.700 -0.5412 -2.4106 -1.2759
  685MOL0     H94471   1.747   7.794   5.666  1.1166  3.1671  3.1644
  685MOL0     H94472   1.806   7.655   5.739  0.1520  0.7072  0.3772
  685MOL0     H94473   2.012   7.667   5.580  0.8373 -0.3691  1.4784
  685MOL0     H94474   1.858   7.592   5.525  2.1226 -1.8174  1.5803
  685MOL0     H94475   1.971   7.743   5.361 -0.3119 -0.0613  1.1402
  685MOL0     H94476   1.923   7.880   5.453 -1.2295  1.1438 -3.4041
  685MOL0     H94477   1.778   7.768   5.246 -4.3533  1.0953  0.1857
  685MOL0     H94478   1.683   7.701   5.374 -2.1023  1.3630 -0.6818
  685MOL0     H94479   1.830   8.020   5.227  1.6096  1.2888  1.7599
  685MOL0     H94480   1.737   8.281   5.212  0.9684 -2.4869  0.1336
  685MOL0     H94481   1.622   8.320   5.332 -0.8656  0.2367 -0.2680
  685MOL0     H94482   1.565   8.235   5.040  1.7346 -1.8452  1.3415
  685MOL0     H94483   1.444   8.206   5.162 -1.7513  1.4263 -0.0027
  685MOL0     H94484   1.586   8.471   5.161 -2.4473 -0.1670  3.6877
  685MOL0     H94485   1.460   8.458   5.030  1.0054 -1.7450 -0.7768
  685MOL0     H94486   1.397   8.443   5.329  0.1124  1.8495  0.8249
  685MOL0     H94487   1.397   8.590   5.223  3.4557 -1.1241 -0.6469
  685MOL0     H94488   1.088   8.664   5.243 -1.0536 -2.5534 -2.0144
  685MOL0     H94489   0.937   8.806   5.483 -1.2161 -1.2942  2.4400
  685MOL0     H94490   0.816   8.686   5.454  1.5182 -2.1031 -0.0281
  685MOL0     H94491   0.885   8.770   5.313 -3.6481  0.7815  0.8504
  685MOL0     H94492   1.027   8.616   5.955 -1.2670  0.9470 -1.4956
  685MOL0     H94493   0.967   8.604   6.184  0.1054 -1.7076  1.0660
  685MOL0     H94494   0.602   8.350   6.293 -0.3107  0.9438 -0.8440
  685MOL0     H94495   0.747   8.250   6.315 -0.3419  0.4679 -0.3714
  685MOL0     H94496   0.791   8.321   6.520 -0.1659 -1.9303 -0.1959
  685MOL0     H94497   0.667   8.455   6.523  1.0333  0.4675  0.7971
  685MOL0     H94498   0.633   8.158   6.542 -0.4502  0.3687 -0.5471
  685MOL0     H94499   0.502   8.271   6.490 -0.4127  2.6978  2.7859
  685MOL0     H94500   0.538   8.390   6.714 -1.0291 -0.5324  2.3672
  685MOL0     H94501   0.649   8.253   6.742 -0.4696 -0.0951  1.4505
  685MOL0     H94502   0.410   8.233   6.844  1.4078 -0.1519  0.9925
  685MOL0     H94503   0.359   8.249   6.677 -0.0713 -1.3354 -1.8548
  685MOL0     H94504   0.538   8.018   6.782 -3.4512 -1.5679  2.6371
  685MOL0     H94505   0.477   8.024   6.620 -2.0165 -3.9688  0.1046
  685MOL0     H94506   0.238   8.038   6.711 -1.6232 -1.0568  1.7419
  685MOL0     H94507   0.292   8.013   6.866  0.0600  0.9657  0.1232
  685MOL0     H94508   0.388   7.785   6.794  1.6840  2.1570 -0.4069
  685MOL0     H94509   0.345   7.825   6.622  4.4545 -0.2125  0.6079
  685MOL0     H94510   0.659   8.317   6.079 -1.1564  0.3577 -2.0839
  685MOL0     H94511   0.737   8.316   5.849 -1.1767  1.1554 -0.5650
  685MOL0     H94512   1.071   8.324   5.588 -1.9558 -1.7658 -1.7241
  685MOL0     H94513   1.220   8.290   5.407 -0.0311  0.3714  1.7091
  685MOL0     H94514   2.168   8.039   6.361  0.5696  1.7817  0.1406
  685MOL0     H94515   2.115   8.110   6.583  0.2292  0.1445  0.3546
  685MOL0     H94516   1.648   8.185   6.813  0.7437 -0.3781  0.0924
  685MOL0     H94517   1.531   8.250   6.993  1.3140 -3.4854  0.7298
  685MOL0     H94518   1.624   8.185   7.238 -0.0185 -0.0638 -0.2482
  685MOL0     H94519   1.570   8.292   7.368 -3.1167 -0.6694  0.1637
  685MOL0     H94520   1.387   8.145   7.308 -1.7389 -1.2805 -2.0338
  685MOL0     H94521   1.394   8.196   7.141  0.7936  0.6884 -0.1040
  685MOL0     H94522   1.338   8.382   7.377 -2.5489 -0.2028 -0.1306
  685MOL0     H94523   1.337   8.434   7.210  1.1286 -0.2444  0.4372
  685MOL0     H94524   1.139   8.248   7.346  2.6455 -1.0643 -0.9364
  685MOL0     H94525   1.120   8.292   7.180 -1.5722  0.0208  0.3079
  685MOL0     H94526   1.033   8.644   7.392 -1.3398  0.4382 -0.6170
  685MOL0     H94527   1.857   8.447   7.169 -2.0009 -2.5011  3.0454
  685MOL0     H94528   2.073   8.412   6.887 -1.2094 -0.7921 -0.6846
  685MOL0     H94529   2.015   8.529   7.021 -2.8603 -0.7165 -0.6249
  685MOL0     H94530   2.075   8.367   7.062 -3.2495  0.4277  1.8565
  686MOL0     O94531   7.631   6.997   7.769  0.2765 -0.3613  0.3061
  686MOL0     C94532   7.651   6.971   7.650  0.3312 -0.3030  0.6367
  686MOL0     O94533   7.771   6.974   7.587  0.5802 -0.4462  0.2163
  686MOL0     C94534   7.876   7.061   7.623 -0.7640 -0.2735 -0.7970
  686MOL0     C94535   8.019   7.027   7.589  0.6895 -0.1588 -0.8090
  686MOL0     C94536   8.122   7.119   7.620 -0.0907 -0.4496  0.9313
  686MOL0     C94537   8.098   7.247   7.684  0.3319  0.5787 -0.0094
  686MOL0     O94538   8.197   7.343   7.727  0.7896 -0.2180  0.5945
  686MOL0     C94539   8.328   7.301   7.696 -0.4855 -0.6727 -0.7458
  686MOL0     C94540   8.439   7.398   7.759  0.6067 -0.0091  0.8552
  686MOL0     C94541   8.397   7.551   7.759 -0.5803 -0.5900  0.8508
  686MOL0     C94542   8.385   7.593   7.611  0.1657  0.4872  0.3212
  686MOL0     C94543   8.333   7.739   7.603  0.1371  0.3990 -0.0913
  686MOL0     C94544   8.328   7.778   7.457  0.9522  0.2294 -0.8458
  686MOL0     C94545   8.318   7.926   7.439 -0.4429 -0.3000 -0.2893
  686MOL0     C94546   8.296   7.956   7.291 -0.2442 -0.0861 -0.4714
  686MOL0     N94547   8.425   7.943   7.224  0.8030  0.0992  0.5542
  686MOL0     C94548   8.530   8.026   7.241  0.6769 -0.4132 -0.2091
  686MOL0     C94549   8.619   7.984   7.143  0.0247  0.1719 -0.1582
  686MOL0     C94550   8.768   8.005   7.107 -1.4684 -0.7165  0.4294
  686MOL0     C94551   8.842   8.126   7.168  0.0995  0.3186 -0.8025
  686MOL0     C94552   8.963   8.172   7.092  0.6219 -1.3122  0.0952
  686MOL0     C94553   9.072   8.063   7.072  0.3067  0.5826 -0.0863
  686MOL0     O94554   9.189   8.103   7.002  0.3766  0.2825  0.1013
  686MOL0     C94555   9.278   8.002   6.959 -0.1410 -0.0175 -0.5954
  686MOL0     C94556   9.240   7.867   6.948 -0.7750 -0.4548 -0.1947
  686MOL0     C94557   9.326   7.769   6.909  0.2590  0.7476  0.4313
  686MOL0     C94558   9.270   7.633   6.888  0.5474  0.0999 -0.1863
  686MOL0     C94559   9.463   7.802   6.876 -0.2287 -0.1913 -0.1573
  686MOL0     C94560   9.556   7.707   6.826 -1.4700 -0.4809 -1.3384
  686MOL0     O94561   9.678   7.758   6.797 -0.2165  0.2964 -0.0396
  686MOL0     C94562   9.764   7.703   6.704 -0.2566 -0.3358  0.6614
  686MOL0     C94563   9.895   7.744   6.698  0.4739  0.4822 -0.1129
  686MOL0     C94564   9.982   7.702   6.595 -0.0457 -1.1460 -0.3531
  686MOL0     C94565   9.942   7.612   6.495 -0.7060  0.1703 -0.3705
  686MOL0     O94566  10.028   7.563   6.396 -0.3449 -0.0179  0.2634
  686MOL0     C94567  10.166   7.563   6.432 -0.5241 -0.3018  0.0918
  686MOL0     C94568  10.259   7.657   6.352  0.6181 -0.1321 -0.2267
  686MOL0     C94569  10.389   7.585   6.306 -0.1605 -0.2252 -0.2437
  686MOL0     C94570  10.478   7.690   6.239  0.4757 -0.4451 -0.4292
  686MOL0     C94571  10.623   7.633   6.211  0.7376  0.0826  0.1472
  686MOL0     C94572  10.681   7.550   6.338 -0.3000 -0.6144  0.5144
  686MOL0     C94573  10.836   7.522   6.327 -0.4761 -0.2448  0.8265
  686MOL0     C94574  10.916   7.647   6.304  0.8493  0.8517  0.5751
  686MOL0    Cl94575  10.901   7.753   6.444 -0.0155  0.3667  1.0521
  686MOL0     C94576   9.805   7.577   6.498 -0.1679 -0.9316 -0.1912
  686MOL0     C94577   9.725   7.617   6.604 -0.0676 -0.3047 -0.2792
  686MOL0     O94578   9.520   7.600   6.797 -0.3809 -0.2534  0.4311
  686MOL0     C94579   9.497   7.942   6.873 -0.9566  0.6715  0.0111
  686MOL0     C94580   9.409   8.034   6.923  0.4868 -0.5662 -0.0969
  686MOL0     N94581   8.557   7.888   7.067 -0.2514 -0.7074 -0.6070
  686MOL0     N94582   8.441   7.871   7.111  0.3041  0.4223 -0.0413
  686MOL0     C94583   7.970   7.266   7.734  0.5363  0.9745 -0.5729
  686MOL0     C94584   7.858   7.182   7.697 -0.9292 -0.6313 -0.5961
  686MOL0     C94585   7.538   6.916   7.567 -0.8182  0.5287 -0.3337
  686MOL0     C94586   7.550   6.923   7.426 -0.1326 -0.8140 -0.3210
  686MOL0     C94587   7.443   6.902   7.344  0.5781  0.4583 -0.4466
  686MOL0     C94588   7.332   6.844   7.396  0.8799  0.1442  0.4702
  686MOL0     O94589   7.229   6.811   7.314  0.1517  0.5161 -0.3119
  686MOL0     C94590   7.128   6.909   7.315 -0.9209  0.2163  0.4956
  686MOL0     C94591   7.047   6.893   7.186  0.3454 -0.5215 -0.4213
  686MOL0     C94592   7.133   6.894   7.054 -0.2241 -0.1216 -0.1559
  686MOL0     C94593   7.150   6.745   7.005 -0.1235  0.0272 -0.4238
  686MOL0     C94594   7.246   6.722   6.900 -0.8077 -0.8461 -0.7851
  686MOL0     C94595   7.324   6.686   6.814 -0.0858  0.8189  0.3103
  686MOL0     C94596   7.321   6.813   7.531  0.2329  0.5717 -0.4520
  686MOL0     C94597   7.422   6.845   7.620  0.4507 -0.5378 -0.4239
  686MOL0     C94598   7.410   6.809   7.770  0.4897 -0.8329 -0.4229
  686MOL0     H94599   8.035   6.938   7.530  0.1496 -0.8775  0.0949
  686MOL0     H94600   8.224   7.093   7.592 -0.5407 -0.6019 -0.6263
  686MOL0     H94601   8.347   7.310   7.589 -0.1540 -0.0279 -0.6434
  686MOL0     H94602   8.348   7.199   7.730 -0.7068 -0.6674 -0.5962
  686MOL0     H94603   8.452   7.368   7.864 -4.6491 -0.5812  1.5796
  686MOL0     H94604   8.532   7.383   7.704  0.1494  1.5349 -0.3931
  686MOL0     H94605   8.300   7.572   7.806 -0.0986 -0.3201  1.7563
  686MOL0     H94606   8.476   7.605   7.812 -1.2876  1.0506  0.2882
  686MOL0     H94607   8.486   7.581   7.569 -0.0913 -0.4157 -0.0421
  686MOL0     H94608   8.320   7.530   7.550  1.0177 -0.3829  0.2895
  686MOL0     H94609   8.410   7.796   7.656  1.3690 -1.8930  0.7105
  686MOL0     H94610   8.237   7.747   7.655 -0.5685  1.0151 -1.4362
  686MOL0     H94611   8.421   7.742   7.411  0.4423 -0.6616 -1.1857
  686MOL0     H94612   8.238   7.736   7.414  1.1232  1.2571 -2.2724
  686MOL0     H94613   8.407   7.976   7.479  0.4588 -1.0586 -1.2962
  686MOL0     H94614   8.237   7.969   7.500 -0.6772 -0.7187 -0.2982
  686MOL0     H94615   8.228   7.884   7.246  0.2940 -1.2948  0.5625
  686MOL0     H94616   8.266   8.060   7.275 -1.6650 -0.6015 -1.2396
  686MOL0     H94617   8.544   8.098   7.321  0.1158 -1.2792  0.7037
  686MOL0     H94618   8.768   8.017   6.998 -0.0563  0.6217  0.5411
  686MOL0     H94619   8.834   7.921   7.131  1.0596  0.9329 -0.3266
  686MOL0     H94620   8.765   8.203   7.176 -0.3813 -0.3407  3.0867
  686MOL0     H94621   8.872   8.099   7.270 -1.4773  0.4971 -0.2542
  686MOL0     H94622   8.935   8.214   6.994 -1.6510 -1.5759  0.5808
  686MOL0     H94623   9.014   8.254   7.143  0.0402 -1.1906  0.4867
  686MOL0     H94624   9.114   8.027   7.167  0.9628  1.4261 -0.0507
  686MOL0     H94625   9.027   7.974   7.026 -0.2693 -0.4892  2.3702
  686MOL0     H94626   9.141   7.828   6.968 -2.0559  2.4883 -0.2355
  686MOL0     H94627   9.323   7.566   6.956  3.3430  0.5303 -1.7778
  686MOL0     H94628   9.282   7.588   6.789  2.7285 -0.6628  0.3673
  686MOL0     H94629   9.164   7.642   6.912  1.0388  0.7789  2.0632
  686MOL0     H94630   9.930   7.817   6.770 -2.1335  3.2828 -1.4379
  686MOL0     H94631  10.082   7.743   6.610 -1.6661  2.7182  1.4043
  686MOL0     H94632  10.181   7.570   6.540 -0.4102  2.3269 -0.0301
  686MOL0     H94633  10.198   7.461   6.408  2.4727  0.6419 -0.3411
  686MOL0     H94634  10.208   7.704   6.267  0.2964 -1.4033 -0.7650
  686MOL0     H94635  10.273   7.742   6.419  1.8332  0.4431 -1.1527
  686MOL0     H94636  10.367   7.502   6.238  0.9475 -1.3784  0.7568
  686MOL0     H94637  10.448   7.540   6.386 -4.9465 -2.5171  2.4040
  686MOL0     H94638  10.493   7.778   6.302 -1.7713  1.0934 -1.8937
  686MOL0     H94639  10.425   7.724   6.149  1.4066  1.3436 -0.3373
  686MOL0     H94640  10.632   7.578   6.117  0.6020  0.7544 -0.2671
  686MOL0     H94641  10.677   7.729   6.204 -2.6335  2.2790  1.7501
  686MOL0     H94642  10.630   7.454   6.353 -2.4896  0.4218 -0.0454
  686MOL0     H94643  10.660   7.618   6.421 -1.8695  0.1394 -0.4511
  686MOL0     H94644  10.866   7.456   6.246  1.3406  0.6385  0.7182
  686MOL0     H94645  10.867   7.464   6.414 -0.9783 -0.0668  1.1301
  686MOL0     H94646  10.879   7.697   6.214  1.4037 -0.1269 -0.2166
  686MOL0     H94647  11.022   7.627   6.287  0.3204 -1.1279 -0.7965
  686MOL0     H94648   9.757   7.531   6.412 -2.5067 -0.4926  0.7954
  686MOL0     H94649   9.619   7.613   6.583 -0.1098 -0.4243 -0.0348
  686MOL0     H94650   9.601   7.964   6.852 -0.7645  1.4925  1.6989
  686MOL0     H94651   9.443   8.137   6.939 -1.9969  0.3876 -0.5622
  686MOL0     H94652   7.971   7.352   7.800 -0.5909  1.1361 -0.7369
  686MOL0     H94653   7.762   7.217   7.731 -1.0574  0.7287 -2.2523
  686MOL0     H94654   7.636   6.971   7.381 -1.0637  0.6150 -0.6593
  686MOL0     H94655   7.444   6.910   7.236 -1.8653 -1.8405 -0.7218
  686MOL0     H94656   7.072   6.883   7.406 -1.2014  1.9504  0.8470
  686MOL0     H94657   7.173   7.008   7.309 -0.9545  0.2971  1.4532
  686MOL0     H94658   6.965   6.965   7.190  0.0420 -0.9322  1.9090
  686MOL0     H94659   6.989   6.801   7.188 -0.2128 -0.3611 -3.6031
  686MOL0     H94660   7.102   6.973   6.985  2.8499  0.1233 -1.3932
  686MOL0     H94661   7.236   6.929   7.065 -0.4919  0.7495 -0.3185
  686MOL0     H94662   7.048   6.713   6.981  0.0180  0.5211 -1.7453
  686MOL0     H94663   7.183   6.698   7.099 -4.4104  3.0380  2.9894
  686MOL0     H94664   7.388   6.648   6.736 -2.7472  1.8944 -2.5970
  686MOL0     H94665   7.236   6.752   7.560  1.4364 -0.7708  0.3718
  686MOL0     H94666   7.346   6.720   7.779 -3.5448  1.9932  3.2058
  686MOL0     H94667   7.507   6.793   7.817  0.0072  0.7940  1.2530
  686MOL0     H94668   7.354   6.884   7.826  1.6170 -1.4360  1.5795
  687MOL0     O94669   7.313   0.474  10.887 -0.2798 -0.2781  0.7647
  687MOL0     C94670   7.223   0.527  10.955  0.2364  0.6667 -0.4136
  687MOL0     O94671   7.234   0.595  11.075 -0.2195 -0.1764 -0.1527
  687MOL0     C94672   7.365   0.590  11.124 -0.3032  0.6745 -0.0243
  687MOL0     C94673   7.461   0.691  11.097  0.6969  0.4857 -0.2526
  687MOL0     C94674   7.592   0.687  11.158 -1.8750 -1.2765  0.9487
  687MOL0     C94675   7.617   0.592  11.255  0.0757  0.5575  0.7023
  687MOL0     O94676   7.728   0.585  11.329  0.4777 -0.5684 -0.3224
  687MOL0     C94677   7.837   0.528  11.262 -0.0751  0.4984 -0.5533
  687MOL0     C94678   7.936   0.485  11.377  0.6968  0.1696 -0.2094
  687MOL0     C94679   7.898   0.356  11.459  0.3235 -0.0511  0.4210
  687MOL0     C94680   7.980   0.351  11.593  0.8107 -1.0686  0.8906
  687MOL0     C94681   8.125   0.351  11.580 -0.3692  0.0660  0.8363
  687MOL0     C94682   8.165   0.238  11.486 -1.1924  0.1760 -0.1344
  687MOL0     C94683   8.161   0.102  11.556 -0.2252 -0.1644  1.0483
  687MOL0     C94684   8.208  -0.014  11.462  0.0999  0.1900 -1.0981
  687MOL0     N94685   8.342   0.014  11.414  0.5833 -0.7111 -0.1493
  687MOL0     C94686   8.402  -0.054  11.306 -0.1326 -0.1112  0.0366
  687MOL0     C94687   8.533  -0.063  11.336  0.4096  0.8257 -0.4429
  687MOL0     C94688   8.640  -0.113  11.241  0.7786 -0.1973  0.1760
  687MOL0     C94689   8.774  -0.036  11.262  0.0247  0.1475 -0.2032
  687MOL0     C94690   8.876  -0.062  11.155 -0.5764 -0.1681 -0.9229
  687MOL0     C94691   9.009  -0.011  11.195  0.0164 -1.6620 -1.0985
  687MOL0     O94692   9.070  -0.092  11.296 -0.2871  0.2424  0.4194
  687MOL0     C94693   9.209  -0.077  11.302  0.8103  0.5261 -0.0485
  687MOL0     C94694   9.258   0.042  11.357  0.3321 -0.1313 -0.3605
  687MOL0     C94695   9.396   0.073  11.371 -0.2840  0.0334 -1.0868
  687MOL0     C94696   9.429   0.206  11.444  0.2011 -0.8804 -0.3676
  687MOL0     C94697   9.491  -0.022  11.321 -0.2855  0.1329 -0.0402
  687MOL0     C94698   9.634  -0.011  11.336  0.4097  0.7362  0.1116
  687MOL0     O94699   9.715  -0.068  11.246 -0.7838  0.0651 -0.2466
  687MOL0     C94700   9.836  -0.094  11.293 -0.3084  0.6100  0.3669
  687MOL0     C94701   9.862  -0.217  11.344  0.1422  0.0930  0.4206
  687MOL0     C94702   9.985  -0.245  11.409 -0.8629 -0.7255 -0.8489
  687MOL0     C94703  10.097  -0.160  11.399 -0.5968  0.3029  0.2386
  687MOL0     O94704  10.214  -0.206  11.452  0.7122 -0.4467 -0.4627
  687MOL0     C94705  10.327  -0.134  11.404  0.2651 -0.3321 -0.1983
  687MOL0     C94706  10.453  -0.178  11.469 -0.3993  0.0339  0.1828
  687MOL0     C94707  10.460  -0.158  11.622 -0.0917  0.8392 -0.6648
  687MOL0     C94708  10.549  -0.271  11.691  1.3021  0.1735  0.5460
  687MOL0     C94709  10.699  -0.239  11.665  0.5020  0.0187  0.2366
  687MOL0     C94710  10.786  -0.346  11.730 -0.4903  0.5290 -0.3272
  687MOL0     C94711  10.793  -0.478  11.658 -0.6159  0.5201 -0.0987
  687MOL0     C94712  10.785  -0.610  11.738  0.0680 -0.2231  0.0567
  687MOL0    Cl94713  10.644  -0.592  11.843  0.1242 -0.5895 -0.5002
  687MOL0     C94714  10.073  -0.041  11.331 -0.2083  0.1935 -0.6030
  687MOL0     C94715   9.941  -0.011  11.283  0.6492 -0.2618  0.9185
  687MOL0     O94716   9.671   0.052  11.430 -0.3443  0.2134 -0.4424
  687MOL0     C94717   9.439  -0.136  11.268 -0.4248  0.5195  0.1199
  687MOL0     C94718   9.300  -0.166  11.256 -0.0711  0.3188  0.2331
  687MOL0     N94719   8.550   0.000  11.459  0.6950 -1.0418 -0.1638
  687MOL0     N94720   8.438   0.043  11.503  0.5609  0.0875  0.0663
  687MOL0     C94721   7.516   0.490  11.277 -1.2835  0.0729  0.7776
  687MOL0     C94722   7.392   0.488  11.210 -0.2312  0.1695 -0.1439
  687MOL0     C94723   7.079   0.527  10.910 -0.1494  0.1742  0.2535
  687MOL0     C94724   6.983   0.495  11.013 -0.7220  0.1210  0.1406
  687MOL0     C94725   6.849   0.508  10.989  0.1137 -0.2636  0.4350
  687MOL0     C94726   6.794   0.538  10.861 -0.4058  0.3641 -0.2295
  687MOL0     O94727   6.665   0.542  10.815 -0.1666 -0.6723  0.1549
  687MOL0     C94728   6.559   0.511  10.904 -0.4999  0.0426  0.1553
  687MOL0     C94729   6.499   0.630  10.985  0.5658  1.0988  0.1823
  687MOL0     C94730   6.395   0.565  11.083 -0.7044 -0.4635 -0.1305
  687MOL0     C94731   6.284   0.657  11.119  0.4155  0.5232  0.1609
  687MOL0     C94732   6.203   0.589  11.226  0.6928 -0.8607 -0.1447
  687MOL0     C94733   6.127   0.533  11.303  0.4132  0.3362  0.3185
  687MOL0     C94734   6.891   0.560  10.766 -0.9024  0.6811  1.4711
  687MOL0     C94735   7.031   0.566  10.782 -0.3573 -0.9072 -0.0626
  687MOL0     C94736   7.112   0.616  10.665 -0.4531 -0.0444 -0.0602
  687MOL0     H94737   7.434   0.772  11.030  0.0315  0.6830  0.2492
  687MOL0     H94738   7.670   0.762  11.151 -1.7112 -1.3729  1.6531
  687MOL0     H94739   7.889   0.604  11.202 -0.5546  1.3518  0.0863
  687MOL0     H94740   7.805   0.442  11.203 -4.2170  1.2453  0.3163
  687MOL0     H94741   8.035   0.462  11.336  1.6541 -0.4596  2.2650
  687MOL0     H94742   7.949   0.574  11.439  1.7046 -0.5192  0.6062
  687MOL0     H94743   7.790   0.350  11.477  0.3267  0.5546  0.6681
  687MOL0     H94744   7.905   0.273  11.388 -1.7509  1.5104 -1.7903
  687MOL0     H94745   7.947   0.431  11.660 -1.9366 -0.0911 -1.4177
  687MOL0     H94746   7.949   0.264  11.652  0.0314 -0.4637  1.3984
  687MOL0     H94747   8.166   0.346  11.682  1.1650 -1.6383  0.2015
  687MOL0     H94748   8.165   0.440  11.532  0.7083  0.3632  2.2039
  687MOL0     H94749   8.122   0.234  11.386  0.8507 -2.5559 -1.0313
  687MOL0     H94750   8.270   0.259  11.462 -0.5395 -0.2845  2.0916
  687MOL0     H94751   8.063   0.081  11.600  0.0547 -0.0730  1.7201
  687MOL0     H94752   8.227   0.100  11.643  0.0139  2.8606  1.0277
  687MOL0     H94753   8.210  -0.110  11.514  4.4111  1.4166  1.5329
  687MOL0     H94754   8.150  -0.030  11.371  1.0046 -1.2490 -1.4516
  687MOL0     H94755   8.352  -0.090  11.217  0.4088  2.5265 -1.4181
  687MOL0     H94756   8.607  -0.104  11.137 -0.4867  2.7447  0.7295
  687MOL0     H94757   8.672  -0.215  11.266  0.1670 -0.3391  0.4030
  687MOL0     H94758   8.758   0.072  11.261 -0.5634  0.0569 -0.5617
  687MOL0     H94759   8.824  -0.060  11.357 -0.4656 -1.9767 -0.4245
  687MOL0     H94760   8.887  -0.169  11.136  0.3407 -0.3682  0.5748
  687MOL0     H94761   8.842  -0.007  11.067  1.1001  1.2533 -0.7466
  687MOL0     H94762   9.078  -0.009  11.110  0.3732  1.0108 -0.8160
  687MOL0     H94763   9.000   0.094  11.224  0.4978 -1.1088 -2.8042
  687MOL0     H94764   9.183   0.113  11.390  0.2600  0.4466 -1.6887
  687MOL0     H94765   9.529   0.235  11.413 -0.2037  0.2027 -0.7077
  687MOL0     H94766   9.421   0.188  11.552  1.2240 -2.4459 -0.5130
  687MOL0     H94767   9.352   0.282  11.432 -1.6558 -2.4813  0.6847
  687MOL0     H94768   9.784  -0.292  11.335  0.7587 -0.7257  1.5444
  687MOL0     H94769   9.996  -0.338  11.463  1.1344 -0.6260 -1.0003
  687MOL0     H94770  10.340  -0.159  11.299  1.3302 -0.2003 -0.1075
  687MOL0     H94771  10.315  -0.029  11.432  1.1631 -0.1366 -0.5199
  687MOL0     H94772  10.479  -0.281  11.445 -0.2788  0.2542 -0.6843
  687MOL0     H94773  10.533  -0.115  11.428 -0.1966  0.2511  0.9100
  687MOL0     H94774  10.356  -0.155  11.656 -1.7637 -1.5053 -4.7981
  687MOL0     H94775  10.514  -0.065  11.642  1.6257 -0.4747  1.2778
  687MOL0     H94776  10.524  -0.370  11.649  2.8845 -0.2027  0.4124
  687MOL0     H94777  10.522  -0.277  11.796 -2.2000  2.7552 -0.0223
  687MOL0     H94778  10.709  -0.238  11.556 -0.2589  0.1304  0.1623
  687MOL0     H94779  10.721  -0.137  11.697  2.5445 -0.0127 -0.9599
  687MOL0     H94780  10.763  -0.361  11.836  3.3449 -0.2738  0.5209
  687MOL0     H94781  10.885  -0.301  11.730 -0.1434 -0.2174 -0.8325
  687MOL0     H94782  10.879  -0.485  11.592 -0.6914 -1.0718 -0.0520
  687MOL0     H94783  10.703  -0.486  11.595 -0.8174  0.5772  0.1801
  687MOL0     H94784  10.874  -0.627  11.799  0.3802  0.0768 -0.3104
  687MOL0     H94785  10.780  -0.686  11.660  4.3217 -0.5658 -0.0771
  687MOL0     H94786  10.144   0.041  11.328 -0.6348  0.5821 -0.1751
  687MOL0     H94787   9.933   0.086  11.235  1.9118 -0.8121 -0.5125
  687MOL0     H94788   9.496  -0.223  11.238 -1.0299 -0.5729  2.0307
  687MOL0     H94789   9.265  -0.260  11.214 -2.0279  0.2073  1.9512
  687MOL0     H94790   7.540   0.432  11.365  0.0215 -0.2698  0.2276
  687MOL0     H94791   7.323   0.404  11.209  0.1896 -0.2029 -2.0162
  687MOL0     H94792   7.006   0.463  11.114  0.3719 -4.3147 -1.3018
  687MOL0     H94793   6.783   0.502  11.074  1.8367  3.5922  2.2722
  687MOL0     H94794   6.484   0.466  10.839 -1.6540  1.9411  0.0815
  687MOL0     H94795   6.582   0.424  10.966  0.7391 -1.9728 -2.8992
  687MOL0     H94796   6.457   0.699  10.912  4.2234  2.1415 -1.1658
  687MOL0     H94797   6.580   0.684  11.035  0.9186  0.1901  0.6122
  687MOL0     H94798   6.342   0.484  11.033 -0.0646 -1.1835  0.3423
  687MOL0     H94799   6.440   0.517  11.170 -1.6647  0.9136  1.1868
  687MOL0     H94800   6.217   0.686  11.037 -1.3773 -1.0884  0.9751
  687MOL0     H94801   6.314   0.752  11.162  1.0717  0.2278  0.3743
  687MOL0     H94802   6.061   0.486  11.373 -1.3041 -0.7711 -1.9083
  687MOL0     H94803   6.851   0.588  10.669  3.6522 -0.5683 -1.0922
  687MOL0     H94804   7.216   0.614  10.699 -1.4382 -1.7863  3.3721
  687MOL0     H94805   7.101   0.542  10.586 -1.1293 -0.7421  0.6651
  687MOL0     H94806   7.080   0.714  10.629 -0.1483 -0.1313 -0.5740
  688MOL0     O94807   5.105   3.490   4.407 -0.2398  0.8194  0.4561
  688MOL0     C94808   5.223   3.499   4.385 -0.4248  0.4848  0.6725
  688MOL0     O94809   5.282   3.576   4.286 -0.1170 -0.0176 -0.5406
  688MOL0     C94810   5.199   3.661   4.215 -0.1648  0.6871 -0.2127
  688MOL0     C94811   5.219   3.660   4.076  0.3620  0.7858  0.2723
  688MOL0     C94812   5.137   3.750   3.989  0.5466 -0.3677  0.2219
  688MOL0     C94813   5.039   3.829   4.051  0.4164  0.4220 -0.2916
  688MOL0     O94814   4.977   3.931   3.981 -0.1501  0.6334  0.4200
  688MOL0     C94815   4.970   3.943   3.837 -0.9963  0.5592  0.2224
  688MOL0     C94816   4.861   4.036   3.777  0.3899  0.6949 -0.1015
  688MOL0     C94817   4.717   3.995   3.812  0.5554 -0.2012 -0.2441
  688MOL0     C94818   4.622   4.104   3.837 -1.0774 -0.9156 -1.2329
  688MOL0     C94819   4.577   4.182   3.705 -0.0420 -0.1636  0.3892
  688MOL0     C94820   4.493   4.308   3.725 -0.6917  0.2277 -0.5410
  688MOL0     C94821   4.380   4.298   3.830  0.3131  0.7336  0.8834
  688MOL0     C94822   4.288   4.421   3.842 -0.0088  0.4011  0.6653
  688MOL0     N94823   4.255   4.484   3.711 -0.1185  0.0408  0.3208
  688MOL0     C94824   4.164   4.432   3.627  0.7084  0.0598  0.3471
  688MOL0     C94825   4.137   4.531   3.530  0.6270  0.2588 -0.5147
  688MOL0     C94826   4.032   4.548   3.419 -0.2560  0.0051  0.3163
  688MOL0     C94827   4.007   4.698   3.386 -1.0811  0.5114 -0.0794
  688MOL0     C94828   3.923   4.773   3.491  0.4302  0.1760  0.1659
  688MOL0     C94829   3.984   4.817   3.629  0.0366  0.5417  0.0797
  688MOL0     O94830   3.893   4.873   3.720  0.1620  0.5710 -0.2247
  688MOL0     C94831   3.939   4.934   3.835 -0.4569  0.1790 -0.3423
  688MOL0     C94832   3.843   4.985   3.922  0.7247  0.2353 -0.4978
  688MOL0     C94833   3.872   5.056   4.035 -0.6096  1.1009  0.2267
  688MOL0     C94834   3.762   5.125   4.101 -0.6201 -0.0314 -0.0573
  688MOL0     C94835   4.000   5.093   4.058 -0.9480 -0.0422  0.7392
  688MOL0     C94836   4.048   5.192   4.154  0.7857 -0.4048 -0.3258
  688MOL0     O94837   3.960   5.271   4.222 -0.9036  0.1287 -0.4665
  688MOL0     C94838   4.000   5.369   4.306  0.3056  0.5101  0.3679
  688MOL0     C94839   4.106   5.458   4.278 -0.0398  0.0124 -0.3816
  688MOL0     C94840   4.137   5.565   4.364 -0.2592 -0.5896  0.1983
  688MOL0     C94841   4.046   5.587   4.474  0.5962 -1.0604  0.3829
  688MOL0     O94842   4.068   5.693   4.557 -0.1693  0.6773  0.1450
  688MOL0     C94843   4.201   5.728   4.605 -1.1683 -0.1901 -0.3276
  688MOL0     C94844   4.264   5.632   4.709 -0.1868  0.4738 -0.0946
  688MOL0     C94845   4.170   5.625   4.835 -0.2276 -1.0866  0.5319
  688MOL0     C94846   4.249   5.601   4.962  0.3936 -0.3982 -0.2081
  688MOL0     C94847   4.140   5.585   5.072  0.1734 -0.5599 -0.2372
  688MOL0     C94848   4.207   5.585   5.208  0.7340  0.1824 -0.3388
  688MOL0     C94849   4.105   5.612   5.320 -0.7287  0.2356  0.0952
  688MOL0     C94850   4.160   5.592   5.465 -0.6319 -0.7619 -0.7688
  688MOL0    Cl94851   4.288   5.703   5.501  0.3124 -0.7147  0.0128
  688MOL0     C94852   3.938   5.498   4.493 -0.1138  0.7583  0.2707
  688MOL0     C94853   3.910   5.392   4.415 -0.8084 -0.2842  1.3003
  688MOL0     O94854   4.164   5.189   4.188 -0.0360 -0.5162 -0.3381
  688MOL0     C94855   4.102   5.041   3.979 -0.2706  0.0175  0.2822
  688MOL0     C94856   4.071   4.959   3.869  0.2964  0.3150  0.4385
  688MOL0     N94857   4.237   4.628   3.560 -0.3285  0.1278 -0.2542
  688MOL0     N94858   4.308   4.599   3.663 -0.3123  0.2875  0.1943
  688MOL0     C94859   5.015   3.821   4.189  0.3178  0.3517  0.0804
  688MOL0     C94860   5.091   3.740   4.265 -0.9610 -0.1362 -0.6402
  688MOL0     C94861   5.313   3.387   4.424  0.2665  0.8773  0.2442
  688MOL0     C94862   5.442   3.389   4.378  0.0491  1.2899  0.6849
  688MOL0     C94863   5.533   3.288   4.408  0.4656  0.6546 -0.7933
  688MOL0     C94864   5.495   3.173   4.482 -0.1651  0.0771  0.0118
  688MOL0     O94865   5.599   3.084   4.491  0.2614 -0.0932  0.6082
  688MOL0     C94866   5.586   2.981   4.583 -0.1853  0.0694 -0.8562
  688MOL0     C94867   5.566   2.848   4.520  0.3074 -0.2015 -0.5067
  688MOL0     C94868   5.535   2.749   4.635  0.1922  0.4731 -0.1838
  688MOL0     C94869   5.501   2.611   4.565 -0.1235  0.1063  0.7946
  688MOL0     C94870   5.427   2.514   4.652 -0.4753 -0.2965  0.3265
  688MOL0     C94871   5.371   2.425   4.715 -0.4041 -0.4204  0.3452
  688MOL0     C94872   5.370   3.171   4.532  0.1138 -0.2371  0.5370
  688MOL0     C94873   5.283   3.276   4.506 -0.1153 -0.9225 -0.1048
  688MOL0     C94874   5.149   3.270   4.571 -0.3506  0.3205  0.0887
  688MOL0     H94875   5.291   3.598   4.023  0.4618  0.9131  0.2574
  688MOL0     H94876   5.157   3.753   3.883  0.9382 -1.8546  0.2209
  688MOL0     H94877   4.957   3.843   3.795 -1.2165  0.7014 -0.0577
  688MOL0     H94878   5.071   3.973   3.807  0.3277 -1.7907  2.0893
  688MOL0     H94879   4.871   4.142   3.803 -0.3212  0.9818 -0.9305
  688MOL0     H94880   4.878   4.028   3.669  1.6611 -0.7957  0.1913
  688MOL0     H94881   4.687   3.931   3.729  1.7750  1.0359 -1.6773
  688MOL0     H94882   4.730   3.928   3.898 -0.3722 -0.3424 -0.2015
  688MOL0     H94883   4.544   4.054   3.894  0.7759 -3.9057 -1.0752
  688MOL0     H94884   4.663   4.176   3.908 -4.4306 -3.6468  4.0889
  688MOL0     H94885   4.523   4.112   3.640  1.2049 -0.9158  0.1396
  688MOL0     H94886   4.671   4.205   3.655 -0.9325 -0.8814 -1.7380
  688MOL0     H94887   4.569   4.380   3.758  0.2175 -1.2405  0.7047
  688MOL0     H94888   4.457   4.326   3.624 -2.7759 -1.3035 -0.1446
  688MOL0     H94889   4.429   4.279   3.926  1.2245  2.3806  0.7940
  688MOL0     H94890   4.309   4.226   3.789  0.4089  2.0873 -1.9120
  688MOL0     H94891   4.198   4.400   3.900 -1.1279  1.8471 -0.4609
  688MOL0     H94892   4.333   4.495   3.909 -0.9074  0.9399  0.6881
  688MOL0     H94893   4.122   4.333   3.638  2.6533 -1.1764 -2.3859
  688MOL0     H94894   3.935   4.502   3.437  0.1397 -2.3474 -2.6863
  688MOL0     H94895   4.078   4.505   3.330  2.1522  1.9004  0.5070
  688MOL0     H94896   4.105   4.744   3.371 -0.4038 -0.8860 -0.0860
  688MOL0     H94897   3.948   4.707   3.294 -1.4789  2.1621  0.3050
  688MOL0     H94898   3.886   4.866   3.447  1.1146  0.0946 -0.5976
  688MOL0     H94899   3.841   4.708   3.523  1.4723 -0.0682  2.5998
  688MOL0     H94900   4.032   4.733   3.680 -1.0559 -2.3871 -3.3059
  688MOL0     H94901   4.063   4.889   3.607  0.0496  2.0231  4.0921
  688MOL0     H94902   3.740   4.970   3.889  0.2598 -1.8414  1.6336
  688MOL0     H94903   3.773   5.124   4.209 -4.3341 -1.1005  0.4624
  688MOL0     H94904   3.663   5.080   4.085 -0.8244 -0.0498  1.1767
  688MOL0     H94905   3.760   5.231   4.076 -0.7445  0.3689  1.5698
  688MOL0     H94906   4.165   5.441   4.188 -0.5422  0.7008 -0.8470
  688MOL0     H94907   4.214   5.633   4.327  0.1400 -1.1412  0.0072
  688MOL0     H94908   4.272   5.744   4.523  0.9807  1.6081  1.7131
  688MOL0     H94909   4.197   5.829   4.647 -1.2296 -0.8336  1.2867
  688MOL0     H94910   4.272   5.526   4.683 -0.2986  0.3245  0.4669
  688MOL0     H94911   4.369   5.660   4.725  0.0904 -0.8033  0.4425
  688MOL0     H94912   4.102   5.539   4.826  1.5802 -2.4263 -1.2816
  688MOL0     H94913   4.117   5.720   4.846  2.6960  0.3462  4.4745
  688MOL0     H94914   4.312   5.688   4.981  0.9297 -0.5878 -1.0580
  688MOL0     H94915   4.312   5.514   4.940  0.9352  0.4368 -2.2357
  688MOL0     H94916   4.070   5.669   5.072 -1.5846 -1.9563  0.1695
  688MOL0     H94917   4.089   5.490   5.054 -1.8451  0.4766 -0.2446
  688MOL0     H94918   4.294   5.651   5.219 -0.3291  1.6041 -0.1806
  688MOL0     H94919   4.235   5.480   5.222 -4.2315 -0.9289  4.9440
  688MOL0     H94920   4.015   5.552   5.306 -0.7052  0.6644 -2.3032
  688MOL0     H94921   4.078   5.718   5.313  0.3411  0.4902 -0.4002
  688MOL0     H94922   4.193   5.489   5.484 -0.7228 -0.2051  3.3622
  688MOL0     H94923   4.083   5.616   5.539  1.3360 -0.2226  1.2083
  688MOL0     H94924   3.890   5.510   4.590 -0.4221  1.4286  0.0403
  688MOL0     H94925   3.831   5.325   4.448 -1.0165  0.2838  1.9942
  688MOL0     H94926   4.202   5.081   3.989 -0.3989  0.3223  0.3560
  688MOL0     H94927   4.153   4.940   3.801  0.5583  0.5129  0.6976
  688MOL0     H94928   4.942   3.888   4.232 -0.4457  1.0076 -2.0929
  688MOL0     H94929   5.077   3.746   4.373 -0.1229 -0.1133 -0.5279
  688MOL0     H94930   5.497   3.465   4.323 -3.0444  1.9746 -1.7108
  688MOL0     H94931   5.635   3.291   4.369  1.1725 -1.5924  0.6486
  688MOL0     H94932   5.687   2.977   4.626  0.5648 -0.6422 -2.5913
  688MOL0     H94933   5.524   3.010   4.669  1.0722  0.9821 -0.2149
  688MOL0     H94934   5.654   2.811   4.467  0.7601 -1.8120  1.3037
  688MOL0     H94935   5.475   2.853   4.460 -1.5356 -0.0442  2.1306
  688MOL0     H94936   5.614   2.744   4.711  0.0569  2.5605  0.1504
  688MOL0     H94937   5.444   2.780   4.688 -2.0931 -2.3130 -2.1634
  688MOL0     H94938   5.585   2.548   4.534 -0.4198 -0.0978  0.3827
  688MOL0     H94939   5.445   2.629   4.472  2.4889  4.6114 -0.2109
  688MOL0     H94940   5.316   2.344   4.760 -1.2081 -0.9011 -1.4081
  688MOL0     H94941   5.344   3.085   4.593  2.9115 -2.4185 -1.1145
  688MOL0     H94942   5.067   3.261   4.499  0.3958 -1.2719 -0.6264
  688MOL0     H94943   5.137   3.178   4.630 -0.3538  1.0743  1.2794
  688MOL0     H94944   5.139   3.351   4.644 -3.3215 -0.3576  0.5645
  689MOL0     O94945  10.117   8.370   8.332 -0.3025 -0.1421  0.2373
  689MOL0     C94946  10.218   8.300   8.340  0.3869 -0.1100 -1.0740
  689MOL0     O94947  10.220   8.166   8.357  0.0259 -0.2886  0.1270
  689MOL0     C94948  10.122   8.075   8.383 -0.0945 -0.3661  0.0093
  689MOL0     C94949  10.144   7.940   8.367  0.2019 -0.1603  0.3144
  689MOL0     C94950  10.046   7.839   8.375  0.1599  0.6025  0.8087
  689MOL0     C94951   9.920   7.876   8.410 -0.2663 -0.0545 -0.6186
  689MOL0     O94952   9.814   7.782   8.422  0.1813 -0.4025  0.5900
  689MOL0     C94953   9.845   7.648   8.462  0.4740 -0.5625 -0.7723
  689MOL0     C94954   9.711   7.589   8.496  0.2488  0.4847 -0.2922
  689MOL0     C94955   9.719   7.435   8.500 -0.0421  0.0973  0.1340
  689MOL0     C94956   9.737   7.360   8.369  0.0781 -0.1649 -0.5744
  689MOL0     C94957   9.751   7.220   8.369  0.7094  0.6319  0.3492
  689MOL0     C94958   9.625   7.143   8.426  0.1018  0.3149  0.2312
  689MOL0     C94959   9.627   6.988   8.391 -0.7018 -0.3276 -0.5309
  689MOL0     C94960   9.736   6.909   8.467  0.2233 -0.6985  0.6008
  689MOL0     N94961   9.754   6.782   8.394 -0.0351  0.6131 -0.2144
  689MOL0     C94962   9.714   6.655   8.436 -0.0149  0.3847 -0.0504
  689MOL0     C94963   9.754   6.571   8.343 -0.2812 -0.1204  0.6701
  689MOL0     C94964   9.741   6.417   8.343  0.3852 -0.0355  0.7758
  689MOL0     C94965   9.883   6.367   8.375  0.1977  0.5299 -0.0632
  689MOL0     C94966   9.881   6.220   8.409 -0.9358  0.5154 -0.0341
  689MOL0     C94967  10.017   6.158   8.422 -0.3591 -0.0415  0.6423
  689MOL0     O94968  10.083   6.236   8.521  0.0846 -0.1239 -0.4664
  689MOL0     C94969  10.200   6.185   8.565  0.8457  0.2706  1.0479
  689MOL0     C94970  10.250   6.220   8.694 -0.4524 -0.3554 -0.1955
  689MOL0     C94971  10.377   6.181   8.744  0.5942  0.1621 -0.1656
  689MOL0     C94972  10.398   6.239   8.882 -0.4269  0.3966  0.2504
  689MOL0     C94973  10.458   6.101   8.660 -0.1663  0.4227 -0.5998
  689MOL0     C94974  10.598   6.057   8.692  0.2231 -0.0305  0.0027
  689MOL0     O94975  10.652   5.969   8.608 -0.2175  0.4043 -0.2077
  689MOL0     C94976  10.765   5.901   8.644 -0.1652  0.5091  0.2094
  689MOL0     C94977  10.879   5.976   8.671  1.2284  0.1474  0.3800
  689MOL0     C94978  11.001   5.909   8.693  0.0669  0.8713  0.3684
  689MOL0     C94979  11.010   5.766   8.670  0.4768 -0.7890  0.5240
  689MOL0     O94980  11.124   5.687   8.673 -0.5060 -0.4261 -0.8021
  689MOL0     C94981  11.238   5.756   8.617 -0.3287 -0.3559  0.3862
  689MOL0     C94982  11.337   5.649   8.563 -0.1266  0.5330  0.2090
  689MOL0     C94983  11.274   5.526   8.486 -0.1106  0.0483 -0.5383
  689MOL0     C94984  11.376   5.415   8.457 -0.1068  0.3509  0.2979
  689MOL0     C94985  11.305   5.290   8.403  0.4010 -0.9544 -0.0691
  689MOL0     C94986  11.416   5.205   8.330  1.0790 -0.1042 -0.3775
  689MOL0     C94987  11.360   5.068   8.282  0.0009  0.0610 -1.0772
  689MOL0     C94988  11.464   4.982   8.210  0.4531 -0.5333  0.0387
  689MOL0    Cl94989  11.500   5.030   8.036 -0.0085 -0.2411 -0.1467
  689MOL0     C94990  10.890   5.697   8.640  0.4257  0.3334 -0.6236
  689MOL0     C94991  10.767   5.761   8.634 -0.5494  0.4733  0.0021
  689MOL0     O94992  10.643   6.081   8.804 -0.2722 -0.4804 -0.1570
  689MOL0     C94993  10.400   6.046   8.536  0.4333 -0.0760 -0.4950
  689MOL0     C94994  10.272   6.091   8.493 -0.0872  0.4917  0.8975
  689MOL0     N94995   9.819   6.646   8.246 -0.9513 -0.5312  0.1703
  689MOL0     N94996   9.827   6.771   8.277  0.1440 -0.1340  0.8674
  689MOL0     C94997   9.890   8.009   8.422  0.0190 -0.8653  0.1768
  689MOL0     C94998   9.984   8.108   8.402  0.1657 -0.7732  0.3016
  689MOL0     C94999  10.350   8.368   8.321 -0.0218 -0.4915  0.2084
  689MOL0     C95000  10.463   8.283   8.331  0.1914 -0.4453 -1.2251
  689MOL0     C95001  10.592   8.348   8.323  0.4866  0.8106 -0.2666
  689MOL0     C95002  10.608   8.479   8.287 -0.7218 -1.4566  0.5395
  689MOL0     O95003  10.738   8.524   8.273  0.3796 -0.3445  0.5361
  689MOL0     C95004  10.772   8.624   8.175  0.0246 -0.1565 -0.2109
  689MOL0     C95005  10.773   8.771   8.225  0.3413  0.4039  0.4299
  689MOL0     C95006  10.830   8.761   8.368  0.2135  0.2273  0.7242
  689MOL0     C95007  10.987   8.728   8.366  1.2772 -0.1755 -0.6964
  689MOL0     C95008  11.036   8.799   8.480 -0.4407 -0.3923  0.0727
  689MOL0     C95009  11.079   8.830   8.593 -1.0940  0.6870  1.2549
  689MOL0     C95010  10.498   8.557   8.277  0.2349 -0.3091 -0.4128
  689MOL0     C95011  10.367   8.506   8.297 -1.2568 -0.4224  0.9653
  689MOL0     C95012  10.250   8.602   8.275 -0.0934  0.8148 -0.4269
  689MOL0     H95013  10.238   7.901   8.331  1.2207  1.0053  1.5814
  689MOL0     H95014  10.084   7.739   8.356  0.9377  1.2482 -1.4465
  689MOL0     H95015   9.909   7.645   8.551  2.0044 -1.8878 -1.8616
  689MOL0     H95016   9.913   7.599   8.391  1.5874  1.3171 -1.0779
  689MOL0     H95017   9.680   7.628   8.593  1.1189 -2.2938  1.2170
  689MOL0     H95018   9.632   7.614   8.424 -2.0216 -0.1632  1.8177
  689MOL0     H95019   9.797   7.403   8.570  0.7782 -0.0562 -0.8246
  689MOL0     H95020   9.617   7.402   8.524  0.2109 -3.3188 -2.7246
  689MOL0     H95021   9.656   7.394   8.304 -0.6168  0.2662  0.4912
  689MOL0     H95022   9.832   7.394   8.327 -0.6777  1.7269 -0.8188
  689MOL0     H95023   9.838   7.199   8.432  0.5283 -1.1930  0.0709
  689MOL0     H95024   9.769   7.178   8.269 -1.0503 -0.6010  0.5000
  689MOL0     H95025   9.629   7.160   8.534 -0.6918  1.2857  0.1247
  689MOL0     H95026   9.527   7.185   8.402  0.5726  1.2812 -0.0683
  689MOL0     H95027   9.649   6.960   8.288 -0.1541  1.5384 -0.9619
  689MOL0     H95028   9.529   6.948   8.418  0.2909 -1.4437  1.6321
  689MOL0     H95029   9.827   6.969   8.459 -1.4835  1.9154 -5.7078
  689MOL0     H95030   9.703   6.897   8.570  1.0228  0.8918  1.0632
  689MOL0     H95031   9.665   6.616   8.524 -0.6844 -1.4916 -1.2007
  689MOL0     H95032   9.705   6.376   8.248  1.4862  0.4101  0.1366
  689MOL0     H95033   9.670   6.392   8.422  0.5624 -2.1346  0.3339
  689MOL0     H95034   9.951   6.379   8.290 -3.6428  1.5598 -3.2527
  689MOL0     H95035   9.911   6.419   8.467  1.5623  1.2047 -0.8267
  689MOL0     H95036   9.828   6.220   8.504  2.2747  0.0519  1.8906
  689MOL0     H95037   9.832   6.163   8.329  2.2334  2.1641 -3.4804
  689MOL0     H95038  10.002   6.050   8.432  1.1774 -0.2029  1.6231
  689MOL0     H95039  10.069   6.171   8.326 -4.2110  1.2264 -1.5019
  689MOL0     H95040  10.193   6.277   8.766 -0.6450 -1.4597  0.5537
  689MOL0     H95041  10.498   6.279   8.900 -1.5640  4.6333 -1.5543
  689MOL0     H95042  10.373   6.164   8.958  0.2595 -0.6857 -0.5577
  689MOL0     H95043  10.335   6.326   8.900 -0.6833 -0.0963  1.8880
  689MOL0     H95044  10.870   6.084   8.665  1.6975  0.1628 -4.3798
  689MOL0     H95045  11.096   5.959   8.709  0.4743 -0.2323  1.6002
  689MOL0     H95046  11.211   5.819   8.531  2.0920 -0.6858 -0.7130
  689MOL0     H95047  11.294   5.807   8.695  1.4612 -2.6877  0.7352
  689MOL0     H95048  11.413   5.709   8.512 -0.1337  0.7394  0.4378
  689MOL0     H95049  11.387   5.601   8.648 -0.0639  0.7735  0.3098
  689MOL0     H95050  11.225   5.560   8.395 -1.2592  0.9149  0.3810
  689MOL0     H95051  11.205   5.472   8.552  2.4723 -0.6834  1.7475
  689MOL0     H95052  11.439   5.400   8.545  2.8829  3.0748 -1.1827
  689MOL0     H95053  11.443   5.459   8.382  0.2115  2.6381  1.8314
  689MOL0     H95054  11.260   5.242   8.490  0.1887  1.6993  1.3888
  689MOL0     H95055  11.230   5.321   8.330 -0.1723  1.3235  1.3761
  689MOL0     H95056  11.492   5.188   8.407  0.9038  2.3499  0.4304
  689MOL0     H95057  11.474   5.255   8.252 -0.2348 -0.2437 -1.4834
  689MOL0     H95058  11.269   5.087   8.224 -0.0745  1.0377 -0.6535
  689MOL0     H95059  11.317   5.000   8.357 -1.2032 -0.7907 -2.4897
  689MOL0     H95060  11.436   4.877   8.214  0.8269 -0.6116  0.8394
  689MOL0     H95061  11.564   4.989   8.254  0.2659 -2.6371  0.9208
  689MOL0     H95062  10.890   5.589   8.633 -4.0633  0.2531 -3.7647
  689MOL0     H95063  10.682   5.697   8.615  2.7566 -4.0300 -1.5969
  689MOL0     H95064  10.459   5.975   8.479  1.9294  0.8442 -0.1290
  689MOL0     H95065  10.242   6.043   8.400 -0.9078  0.2023  1.2922
  689MOL0     H95066   9.792   8.049   8.446  0.6190 -0.8084  2.8369
  689MOL0     H95067   9.955   8.212   8.411 -4.5199 -1.3916 -3.7844
  689MOL0     H95068  10.449   8.183   8.371  3.6468 -0.9378 -0.8994
  689MOL0     H95069  10.678   8.283   8.334 -0.0114 -0.4136 -2.8422
  689MOL0     H95070  10.871   8.590   8.144 -0.0019 -2.9911  2.4000
  689MOL0     H95071  10.708   8.621   8.086  2.1958  0.3069 -1.8841
  689MOL0     H95072  10.671   8.812   8.227  1.3261  3.0250  2.8546
  689MOL0     H95073  10.835   8.835   8.162  0.7191  0.6422  1.0303
  689MOL0     H95074  10.807   8.853   8.423 -0.2599  1.0320 -0.7298
  689MOL0     H95075  10.768   8.692   8.425 -1.0368  0.2777 -0.5066
  689MOL0     H95076  11.041   8.775   8.283 -1.2354  1.7960 -1.3708
  689MOL0     H95077  11.004   8.620   8.368 -0.4513 -0.5267 -1.9584
  689MOL0     H95078  11.129   8.858   8.683  0.7902  0.8693  0.2162
  689MOL0     H95079  10.506   8.663   8.254 -2.0394  0.4886  1.9792
  689MOL0     H95080  10.199   8.582   8.180 -0.4881  2.5353 -0.6020
  689MOL0     H95081  10.178   8.614   8.356  2.6451 -1.3458  2.5999
  689MOL0     H95082  10.287   8.704   8.260 -2.7271  1.6091 -2.1935
  690MOL0     O95083   0.489  10.382   0.689 -0.4591  0.4632  0.0882
  690MOL0     C95084   0.369  10.404   0.700  0.0601  0.6003 -0.3714
  690MOL0     O95085   0.280  10.442   0.600  0.1157  0.2590  0.1955
  690MOL0     C95086   0.319  10.452   0.469 -1.0146  0.0403  0.8403
  690MOL0     C95087   0.242  10.387   0.376  0.6790 -0.9091  0.8103
  690MOL0     C95088   0.273  10.405   0.237  0.0985 -0.0861 -0.0105
  690MOL0     C95089   0.385  10.475   0.192 -0.5906 -0.5854 -0.2108
  690MOL0     O95090   0.400  10.505   0.054  0.2272  1.0920  0.0249
  690MOL0     C95091   0.478  10.604   0.002 -0.1517  0.7304 -0.1158
  690MOL0     C95092   0.635  10.593  -0.003  0.7516  0.0727 -0.5613
  690MOL0     C95093   0.684  10.466  -0.066 -0.6365  0.8047  0.9497
  690MOL0     C95094   0.841  10.481  -0.063  0.1982  0.6253 -0.0881
  690MOL0     C95095   0.905  10.363  -0.138  0.0789  0.6896  0.4370
  690MOL0     C95096   1.050  10.342  -0.096  0.5069 -0.1700  0.1176
  690MOL0     C95097   1.141  10.460  -0.115  0.8250 -0.1611  0.6811
  690MOL0     C95098   1.194  10.487  -0.257 -0.3226 -0.8716  0.0907
  690MOL0     N95099   1.266  10.366  -0.300 -1.0683  0.4247 -0.5931
  690MOL0     C95100   1.392  10.328  -0.276  0.2834  0.4390 -0.4487
  690MOL0     C95101   1.408  10.206  -0.334 -0.4172 -0.2342  0.1640
  690MOL0     C95102   1.538  10.122  -0.323  0.3535 -0.4276  0.0879
  690MOL0     C95103   1.640  10.138  -0.440  0.3388 -0.0409  0.2476
  690MOL0     C95104   1.757  10.049  -0.419  0.1114  0.7311  0.1978
  690MOL0     C95105   1.868  10.090  -0.507 -0.0697  0.4007  0.6388
  690MOL0     O95106   1.854  10.059  -0.652  0.4107 -0.5709  0.2258
  690MOL0     C95107   1.952  10.096  -0.740 -0.8799 -0.7815 -0.8121
  690MOL0     C95108   2.074  10.164  -0.698  0.0041 -0.4541  0.2076
  690MOL0     C95109   2.174  10.202  -0.789 -0.2374 -0.4390  0.5094
  690MOL0     C95110   2.298  10.268  -0.737 -0.1931 -0.1647  0.1745
  690MOL0     C95111   2.160  10.173  -0.922 -0.4153 -0.1479 -0.6194
  690MOL0     C95112   2.251  10.216  -1.029  0.4699  0.2723  0.8295
  690MOL0     O95113   2.193  10.228  -1.158  0.1074  0.9408  0.2843
  690MOL0     C95114   2.266  10.196  -1.271  0.4483  0.2548  0.4787
  690MOL0     C95115   2.402  10.222  -1.295  0.7003 -0.3825  0.1035
  690MOL0     C95116   2.458  10.215  -1.424  0.6720 -0.0771 -0.6678
  690MOL0     C95117   2.375  10.173  -1.532 -0.3118  0.2685 -0.3727
  690MOL0     O95118   2.421  10.154  -1.661  0.3807  0.0822 -0.3018
  690MOL0     C95119   2.543  10.080  -1.656  0.1278  0.1834  0.5044
  690MOL0     C95120   2.554  10.019  -1.798 -0.1383  0.2814  0.3147
  690MOL0     C95121   2.578  10.136  -1.891  0.2148  1.2926  0.2163
  690MOL0     C95122   2.573  10.107  -2.052  0.6061  0.8541  0.1727
  690MOL0     C95123   2.622  10.231  -2.134 -0.1765 -0.1839 -0.5932
  690MOL0     C95124   2.582  10.215  -2.278 -0.2283  0.4007  1.4015
  690MOL0     C95125   2.627  10.326  -2.372 -0.7145 -0.3285 -0.1708
  690MOL0     C95126   2.609  10.294  -2.523 -0.4670 -0.3488  0.5896
  690MOL0    Cl95127   2.636  10.435  -2.628  0.0516 -0.3056 -0.3129
  690MOL0     C95128   2.239  10.128  -1.509 -0.3004 -0.0988 -0.4944
  690MOL0     C95129   2.189  10.143  -1.379  0.4842  0.8723 -0.5284
  690MOL0     O95130   2.363  10.245  -1.003 -0.5030  0.0867  0.2223
  690MOL0     C95131   2.039  10.104  -0.960  0.1440  1.6095 -0.0316
  690MOL0     C95132   1.936  10.063  -0.874  0.4508 -0.4229  0.9799
  690MOL0     N95133   1.290  10.173  -0.400  0.3054  0.2729 -0.7318
  690MOL0     N95134   1.209  10.279  -0.388  0.0811  0.2742  0.6100
  690MOL0     C95135   0.467  10.545   0.290 -0.4617 -0.0905  0.7045
  690MOL0     C95136   0.427  10.529   0.424  0.1997 -0.4147 -1.1199
  690MOL0     C95137   0.303  10.374   0.825 -0.5175  0.6906 -0.1124
  690MOL0     C95138   0.222  10.265   0.825  0.3676 -0.0102 -1.1699
  690MOL0     C95139   0.150  10.232   0.940  0.4919  0.3626  0.1803
  690MOL0     C95140   0.154  10.310   1.059 -0.2091  0.0055 -0.3450
  690MOL0     O95141   0.088  10.269   1.170 -0.3294 -0.7083 -0.1338
  690MOL0     C95142   0.071  10.363   1.275 -0.1216  0.8020 -0.4045
  690MOL0     C95143  -0.033  10.473   1.256  0.4769  0.5991 -0.2918
  690MOL0     C95144  -0.166  10.412   1.242 -0.2452  0.0758  1.1772
  690MOL0     C95145  -0.292  10.512   1.266  0.0710  0.2291  0.1239
  690MOL0     C95146  -0.316  10.613   1.156 -0.2112 -0.2286 -0.2013
  690MOL0     C95147  -0.330  10.696   1.074 -0.6548  0.4424 -0.2282
  690MOL0     C95148   0.232  10.428   1.042 -0.0439  0.9000 -0.1504
  690MOL0     C95149   0.312  10.462   0.935  0.1135 -0.2164 -0.1271
  690MOL0     C95150   0.400  10.582   0.940 -0.2672  0.8289  0.1644
  690MOL0     H95151   0.157  10.329   0.409 -0.0697  0.8322  2.0791
  690MOL0     H95152   0.203  10.357   0.169 -1.5727 -1.2430  2.3446
  690MOL0     H95153   0.459  10.686   0.072  0.7120 -0.3668  1.4921
  690MOL0     H95154   0.439  10.631  -0.097 -1.2012  0.9138  0.3291
  690MOL0     H95155   0.663  10.689  -0.048 -1.6482  1.3649  0.5042
  690MOL0     H95156   0.680  10.587   0.096 -2.4428 -0.1952  1.0245
  690MOL0     H95157   0.659  10.378  -0.007 -1.2983  0.7235  0.5621
  690MOL0     H95158   0.641  10.453  -0.166 -0.4563 -3.2583  1.2225
  690MOL0     H95159   0.868  10.581  -0.100 -0.4079  0.6572 -0.4548
  690MOL0     H95160   0.863  10.478   0.044 -2.9570 -1.0109  0.6203
  690MOL0     H95161   0.892  10.360  -0.246 -0.4645 -1.6335  0.4998
  690MOL0     H95162   0.851  10.276  -0.097 -0.7781  0.4865 -1.0638
  690MOL0     H95163   1.066  10.337   0.012  2.2857 -0.3715 -0.1281
  690MOL0     H95164   1.091  10.255  -0.147 -0.5328  0.2762 -1.5454
  690MOL0     H95165   1.229  10.434  -0.054  1.7949 -2.9161 -1.6349
  690MOL0     H95166   1.091  10.544  -0.067 -0.5958  0.4379 -1.6991
  690MOL0     H95167   1.111  10.490  -0.328  0.9502  0.6662 -1.4288
  690MOL0     H95168   1.252  10.579  -0.260 -0.4656 -0.7896 -0.1788
  690MOL0     H95169   1.456  10.379  -0.203 -2.8695 -0.6419  3.4253
  690MOL0     H95170   1.510  10.016  -0.324 -0.3627 -0.2474 -1.4117
  690MOL0     H95171   1.590  10.156  -0.233  1.9527 -1.5736 -0.3580
  690MOL0     H95172   1.593  10.103  -0.532 -0.4895  1.8773 -0.1162
  690MOL0     H95173   1.681  10.239  -0.450 -0.1254  0.1182 -0.1292
  690MOL0     H95174   1.787  10.062  -0.315 -1.5422  0.7939  0.6910
  690MOL0     H95175   1.725   9.946  -0.433  1.9727 -0.0009  1.0568
  690MOL0     H95176   1.889  10.197  -0.496  1.3276  0.1934  0.2348
  690MOL0     H95177   1.957  10.039  -0.471 -1.5491 -0.7081  2.9462
  690MOL0     H95178   2.075  10.196  -0.595 -3.9651 -0.6870  0.4475
  690MOL0     H95179   2.294  10.285  -0.629  0.3345  0.8452  0.0480
  690MOL0     H95180   2.318  10.363  -0.789 -2.7914  1.0493  1.2334
  690MOL0     H95181   2.383  10.203  -0.758 -0.3216 -0.0958 -0.5733
  690MOL0     H95182   2.468  10.264  -1.220  1.1301 -0.9652  0.0592
  690MOL0     H95183   2.561  10.237  -1.447  0.3869 -0.0184 -2.0019
  690MOL0     H95184   2.635  10.138  -1.643  0.6532 -0.5980  0.3509
  690MOL0     H95185   2.532   9.994  -1.589 -0.1888 -0.1424  0.0387
  690MOL0     H95186   2.638   9.953  -1.819 -1.2162 -0.2643 -2.9988
  690MOL0     H95187   2.457   9.975  -1.822 -0.0717  0.2105  0.1783
  690MOL0     H95188   2.682  10.161  -1.866  0.7134  0.3177 -0.7497
  690MOL0     H95189   2.521  10.226  -1.869  0.0663  1.5800 -1.2238
  690MOL0     H95190   2.476  10.070  -2.088  1.8778  0.2689 -2.9573
  690MOL0     H95191   2.642  10.026  -2.078 -1.6808 -0.2576 -2.9800
  690MOL0     H95192   2.587  10.322  -2.085  1.2447  0.5992 -0.9795
  690MOL0     H95193   2.730  10.239  -2.113  0.3426  1.5675 -3.4993
  690MOL0     H95194   2.474  10.201  -2.283 -0.3273  1.3652  0.5769
  690MOL0     H95195   2.627  10.122  -2.315 -0.4125 -0.1346  2.4599
  690MOL0     H95196   2.730  10.353  -2.347 -0.5493 -1.1645  0.0611
  690MOL0     H95197   2.568  10.417  -2.357 -0.2099 -0.0762  0.3684
  690MOL0     H95198   2.502  10.273  -2.526 -0.8337  1.3252  0.8868
  690MOL0     H95199   2.669  10.208  -2.554 -1.0493 -0.4668 -0.2469
  690MOL0     H95200   2.192  10.082  -1.596  2.4337 -0.4966 -1.8859
  690MOL0     H95201   2.087  10.116  -1.351  1.7610 -0.7820  3.1411
  690MOL0     H95202   2.014  10.069  -1.060 -1.3906 -1.3876  1.3062
  690MOL0     H95203   1.844  10.013  -0.905  1.0055 -0.6417 -0.3708
  690MOL0     H95204   0.544  10.612   0.254  0.7799 -2.0177 -0.4634
  690MOL0     H95205   0.476  10.597   0.493  1.3551 -0.9412 -1.4019
  690MOL0     H95206   0.213  10.203   0.736  0.5173 -2.0290  0.1538
  690MOL0     H95207   0.085  10.145   0.944 -0.5636  1.1344  0.4369
  690MOL0     H95208   0.038  10.311   1.365 -1.4581  0.3276 -1.1487
  690MOL0     H95209   0.166  10.403   1.313  0.1460 -0.2353  0.0421
  690MOL0     H95210  -0.017  10.535   1.168  2.1843  2.6017  1.3166
  690MOL0     H95211  -0.034  10.536   1.345 -0.9443 -0.7507  0.7148
  690MOL0     H95212  -0.161  10.377   1.138  3.3652  4.5037 -0.4752
  690MOL0     H95213  -0.182  10.325   1.307 -2.8536  0.6917  1.4830
  690MOL0     H95214  -0.289  10.552   1.368  0.1979 -0.1991  0.2875
  690MOL0     H95215  -0.384  10.453   1.257  0.5952 -0.5530 -0.2134
  690MOL0     H95216  -0.307  10.761   0.992 -0.6919  0.3288 -0.3303
  690MOL0     H95217   0.241  10.484   1.134 -0.4318  0.9589 -0.1456
  690MOL0     H95218   0.506  10.558   0.948 -0.4344  0.3637  1.1280
  690MOL0     H95219   0.397  10.628   0.841 -0.1669  1.6991  0.5622
  690MOL0     H95220   0.366  10.664   1.004 -0.1462  0.3959  0.7912
  691MOL0     O95221   1.419   3.871   2.346 -0.4430  0.7759 -0.6135
  691MOL0     C95222   1.397   3.883   2.223  0.1049 -0.2161 -0.8623
  691MOL0     O95223   1.426   3.787   2.139  0.5478  0.7102 -0.1361
  691MOL0     C95224   1.538   3.703   2.150 -0.5784 -0.6139  0.6370
  691MOL0     C95225   1.668   3.729   2.211 -0.3970  0.6237  0.4092
  691MOL0     C95226   1.776   3.640   2.193 -0.0118  0.4241 -0.3309
  691MOL0     C95227   1.739   3.521   2.120 -1.0141 -0.0671 -1.1180
  691MOL0     O95228   1.831   3.424   2.093  0.6384 -0.4754  0.5816
  691MOL0     C95229   1.921   3.382   2.199  0.1191  0.1577  0.9640
  691MOL0     C95230   2.001   3.243   2.149 -0.2570 -0.8090  0.2165
  691MOL0     C95231   2.084   3.213   2.272 -0.1955  0.1810 -0.5597
  691MOL0     C95232   2.165   3.084   2.247  0.0753  0.0989  0.1749
  691MOL0     C95233   2.271   3.047   2.363 -0.3585 -0.8458  0.5856
  691MOL0     C95234   2.347   2.925   2.327  0.3020  0.3599 -0.0943
  691MOL0     C95235   2.404   2.916   2.184 -0.6289  0.2931  0.1585
  691MOL0     C95236   2.495   2.790   2.177 -0.8242 -0.5426  0.6748
  691MOL0     N95237   2.639   2.822   2.143  0.4150 -0.5983  0.5456
  691MOL0     C95238   2.684   2.845   2.018  0.2039  0.1510 -0.0665
  691MOL0     C95239   2.821   2.837   2.038  0.4359  0.6143  0.8347
  691MOL0     C95240   2.932   2.859   1.934  0.1522  0.1301  0.3147
  691MOL0     C95241   2.964   2.725   1.879  0.3588  0.2118 -0.5391
  691MOL0     C95242   3.047   2.639   1.974 -0.1975  0.7544 -0.9334
  691MOL0     C95243   3.068   2.492   1.931 -0.3506 -0.0575 -0.4112
  691MOL0     O95244   3.116   2.473   1.797 -0.3991 -0.2957  0.0155
  691MOL0     C95245   3.200   2.372   1.763 -0.8657  0.1645 -1.0657
  691MOL0     C95246   3.174   2.297   1.654 -0.6138 -0.5548  1.2910
  691MOL0     C95247   3.265   2.191   1.607 -0.3764 -0.8506 -0.0373
  691MOL0     C95248   3.219   2.117   1.480 -0.7075 -0.8367  0.5118
  691MOL0     C95249   3.382   2.181   1.678 -0.2554 -0.5323  0.8560
  691MOL0     C95250   3.481   2.081   1.634  0.2204  1.4063 -0.2313
  691MOL0     O95251   3.610   2.107   1.663  0.2419 -0.0509  0.1969
  691MOL0     C95252   3.711   2.020   1.626  0.5148 -0.5900  0.3333
  691MOL0     C95253   3.808   2.075   1.549  0.5733  0.1646 -0.3529
  691MOL0     C95254   3.928   1.995   1.522  0.1306  0.3347  0.2696
  691MOL0     C95255   3.943   1.866   1.558 -0.3653 -0.4770 -0.7032
  691MOL0     O95256   4.055   1.799   1.527  0.9610 -0.2400 -0.4729
  691MOL0     C95257   4.071   1.661   1.566  0.6548  0.3455  0.0591
  691MOL0     C95258   4.176   1.598   1.477 -0.8908 -0.6306 -1.3038
  691MOL0     C95259   4.318   1.660   1.478  0.2094 -0.4932  0.2123
  691MOL0     C95260   4.429   1.593   1.560  0.4879  0.2306  0.5070
  691MOL0     C95261   4.560   1.667   1.534 -0.1349 -0.0143 -0.2466
  691MOL0     C95262   4.570   1.816   1.584 -0.2491 -0.9777 -0.8444
  691MOL0     C95263   4.717   1.856   1.620  0.0937 -0.0881 -0.2692
  691MOL0     C95264   4.727   1.983   1.697  0.0418  0.0730 -0.0270
  691MOL0    Cl95265   4.659   2.110   1.589 -0.2456 -0.0365  0.3429
  691MOL0     C95266   3.831   1.810   1.633  0.1879 -0.9483 -0.4781
  691MOL0     C95267   3.724   1.893   1.679 -0.5367  0.1262 -0.3189
  691MOL0     O95268   3.444   1.981   1.576 -0.0543  0.4135  0.5246
  691MOL0     C95269   3.408   2.252   1.794 -0.0188 -0.4567  1.0562
  691MOL0     C95270   3.315   2.341   1.843 -0.1452 -0.2595  1.1128
  691MOL0     N95271   2.850   2.815   2.173 -0.2817  0.0975  0.5396
  691MOL0     N95272   2.734   2.800   2.231 -1.6250 -0.8828  0.8396
  691MOL0     C95273   1.616   3.499   2.066 -0.2096 -0.3121 -0.3750
  691MOL0     C95274   1.525   3.593   2.070  0.7938  0.1454 -0.6649
  691MOL0     C95275   1.318   3.995   2.174 -0.7018  0.6660  1.2775
  691MOL0     C95276   1.255   3.978   2.048 -0.6927  0.0142 -0.3691
  691MOL0     C95277   1.163   4.073   1.993 -0.5700  0.0207 -0.2486
  691MOL0     C95278   1.131   4.185   2.070  0.6572  0.4335  0.0441
  691MOL0     O95279   1.048   4.282   2.026 -0.2587  0.3268 -0.5303
  691MOL0     C95280   0.943   4.324   2.124  0.5654  0.2281  0.4315
  691MOL0     C95281   0.835   4.413   2.057 -0.6094  0.0695  0.6039
  691MOL0     C95282   0.745   4.340   1.948 -0.1612  0.3411 -0.3641
  691MOL0     C95283   0.624   4.422   1.895 -0.0624 -0.4879 -0.0949
  691MOL0     C95284   0.507   4.347   1.838  0.2723 -0.1380  0.4775
  691MOL0     C95285   0.407   4.287   1.800 -0.0349 -0.7962 -0.4884
  691MOL0     C95286   1.203   4.203   2.186 -0.2904 -0.1066  1.1144
  691MOL0     C95287   1.306   4.124   2.230  0.1907  0.1842  0.0886
  691MOL0     C95288   1.403   4.173   2.343  0.4555 -0.6168  0.7840
  691MOL0     H95289   1.680   3.821   2.268 -1.7705  0.3536  1.1961
  691MOL0     H95290   1.869   3.665   2.242 -0.3288 -0.2896  0.6621
  691MOL0     H95291   1.863   3.356   2.288  1.1839 -0.3234  1.5258
  691MOL0     H95292   1.992   3.461   2.224  0.8124 -0.5115  1.1192
  691MOL0     H95293   1.938   3.156   2.126  0.7881 -1.4339 -0.3986
  691MOL0     H95294   2.053   3.253   2.053 -0.6281  0.8415  0.1697
  691MOL0     H95295   2.150   3.297   2.297 -1.2197  0.6090  0.8127
  691MOL0     H95296   2.034   3.183   2.364  2.2659 -0.1848  0.7672
  691MOL0     H95297   2.096   3.000   2.230  1.0295 -0.7414  0.3820
  691MOL0     H95298   2.214   3.110   2.153  1.3169 -0.6677  0.5921
  691MOL0     H95299   2.214   3.043   2.456  0.4883  2.8238  1.4530
  691MOL0     H95300   2.336   3.133   2.385 -2.6334  0.4206  2.9918
  691MOL0     H95301   2.425   2.923   2.404 -0.9390  3.1349  1.3948
  691MOL0     H95302   2.285   2.835   2.331 -0.0389  0.6304  1.4065
  691MOL0     H95303   2.457   3.000   2.138 -2.9665 -0.6753 -4.9740
  691MOL0     H95304   2.325   2.894   2.112  0.3123  1.3901 -1.2602
  691MOL0     H95305   2.489   2.714   2.255  1.7899 -1.5891 -0.0192
  691MOL0     H95306   2.457   2.732   2.092  1.1920  2.4821 -2.5648
  691MOL0     H95307   2.625   2.869   1.930  1.6427 -2.0835 -1.7801
  691MOL0     H95308   3.021   2.899   1.985 -0.1363  1.5138 -0.2124
  691MOL0     H95309   2.906   2.926   1.851  0.9115 -0.2779 -0.2673
  691MOL0     H95310   2.866   2.685   1.853 -1.8066  4.7677 -0.5053
  691MOL0     H95311   3.022   2.735   1.786  2.3139  0.0847  0.6037
  691MOL0     H95312   3.148   2.680   1.986 -0.1811  1.1288 -2.2318
  691MOL0     H95313   3.010   2.637   2.077 -0.2534  2.3307 -0.8932
  691MOL0     H95314   3.134   2.438   2.000  0.3524 -0.3554 -1.2946
  691MOL0     H95315   2.971   2.444   1.945 -0.3374 -0.6567 -2.1146
  691MOL0     H95316   3.080   2.311   1.602  0.2223  0.2384 -0.0843
  691MOL0     H95317   3.271   2.156   1.392 -0.4198  1.2484  1.5352
  691MOL0     H95318   3.116   2.151   1.465 -0.2403 -0.0254 -1.0815
  691MOL0     H95319   3.214   2.008   1.483  1.0702 -1.1406 -2.6995
  691MOL0     H95320   3.796   2.178   1.518 -0.3038  0.7553  1.7598
  691MOL0     H95321   4.006   2.050   1.470 -0.0917 -0.5410 -1.0503
  691MOL0     H95322   4.112   1.645   1.667 -1.3376 -0.0630  0.8426
  691MOL0     H95323   3.984   1.600   1.542  1.4567  0.2444 -2.9662
  691MOL0     H95324   4.182   1.493   1.507  0.3431 -0.2936 -0.2459
  691MOL0     H95325   4.146   1.603   1.372 -3.3076 -0.7047 -0.6554
  691MOL0     H95326   4.300   1.761   1.515 -1.1119 -0.0410 -1.5496
  691MOL0     H95327   4.348   1.657   1.373  1.7800 -0.4298  0.6367
  691MOL0     H95328   4.439   1.489   1.527  2.3485  0.2061  1.0389
  691MOL0     H95329   4.405   1.601   1.666 -1.4294  0.2892  0.1011
  691MOL0     H95330   4.646   1.614   1.576 -1.1632  0.1010  2.1330
  691MOL0     H95331   4.573   1.655   1.426 -2.4096 -0.3620 -0.5329
  691MOL0     H95332   4.517   1.828   1.679  1.9684  0.7844  0.2964
  691MOL0     H95333   4.536   1.884   1.506  2.3345 -1.5123 -2.5845
  691MOL0     H95334   4.784   1.858   1.534  1.1794  0.1080  0.5592
  691MOL0     H95335   4.764   1.774   1.676 -2.8792 -0.6286  1.6981
  691MOL0     H95336   4.835   1.999   1.710  0.2431 -1.6865  0.6216
  691MOL0     H95337   4.691   1.981   1.800  1.1062 -0.7215  0.3427
  691MOL0     H95338   3.830   1.714   1.683 -4.9476  0.9498  4.1748
  691MOL0     H95339   3.659   1.854   1.757  0.9255 -3.2985 -0.6184
  691MOL0     H95340   3.500   2.236   1.850  0.5937  0.3566  0.3102
  691MOL0     H95341   3.337   2.389   1.938 -1.3558 -2.3477  2.5548
  691MOL0     H95342   1.618   3.414   1.999  1.7898  1.8039 -3.2538
  691MOL0     H95343   1.434   3.577   2.013  1.5162 -1.2383 -1.4819
  691MOL0     H95344   1.254   3.885   1.993 -2.4467 -1.3135  1.7533
  691MOL0     H95345   1.109   4.045   1.903  0.5958 -3.2971 -0.0480
  691MOL0     H95346   0.895   4.237   2.170 -2.1444 -0.0974 -2.6081
  691MOL0     H95347   0.985   4.393   2.198  0.5365 -1.8969  2.5371
  691MOL0     H95348   0.896   4.489   2.008 -2.0567  0.7200 -0.2642
  691MOL0     H95349   0.781   4.463   2.139 -1.5274  1.7768 -0.9763
  691MOL0     H95350   0.822   4.309   1.877  2.4201 -0.8695  2.7479
  691MOL0     H95351   0.710   4.242   1.983 -0.9526  0.0570 -1.8682
  691MOL0     H95352   0.664   4.478   1.810 -4.1193  0.1261 -1.7953
  691MOL0     H95353   0.578   4.482   1.974  0.3206 -0.3692  0.0425
  691MOL0     H95354   0.318   4.235   1.769  0.5595 -2.2863  0.2094
  691MOL0     H95355   1.200   4.302   2.232  1.1991  1.8321 -2.4999
  691MOL0     H95356   1.444   4.272   2.323  0.7527 -1.5340 -4.9349
  691MOL0     H95357   1.350   4.177   2.439 -3.0753  1.5056 -1.0659
  691MOL0     H95358   1.488   4.106   2.361  1.6425  0.6884  0.2567
  692MOL0     O95359   7.807   2.844   5.753  0.0340 -0.6316 -0.6809
  692MOL0     C95360   7.715   2.892   5.680 -0.3734  0.0932 -0.1241
  692MOL0     O95361   7.594   2.839   5.654 -0.3835  0.3345  0.6823
  692MOL0     C95362   7.519   2.757   5.741 -0.8485  0.0795 -0.0967
  692MOL0     C95363   7.392   2.722   5.698  0.9193 -1.0177  0.2732
  692MOL0     C95364   7.294   2.673   5.792  0.5203 -0.6824  0.3787
  692MOL0     C95365   7.329   2.637   5.921  0.4953 -0.0320 -0.4437
  692MOL0     O95366   7.231   2.561   5.988  0.0575 -0.3288 -0.1269
  692MOL0     C95367   7.262   2.501   6.116 -0.4699 -0.0190 -0.4754
  692MOL0     C95368   7.142   2.404   6.157  0.9401 -0.1447 -0.0642
  692MOL0     C95369   7.039   2.476   6.232  0.3686 -0.1874 -0.2262
  692MOL0     C95370   6.900   2.467   6.163 -0.6267  0.2563 -0.0512
  692MOL0     C95371   6.791   2.540   6.249 -0.5196  0.7403 -0.5644
  692MOL0     C95372   6.655   2.549   6.171 -0.6816 -0.5450  1.5419
  692MOL0     C95373   6.548   2.610   6.258  0.3832  0.8961 -0.2515
  692MOL0     C95374   6.420   2.617   6.186 -0.7771 -0.9962 -0.8150
  692MOL0     N95375   6.319   2.698   6.245 -0.3246 -0.2827 -0.0198
  692MOL0     C95376   6.320   2.838   6.240 -0.5799 -0.7043  0.3761
  692MOL0     C95377   6.210   2.885   6.302  0.9532 -0.2957  0.1798
  692MOL0     C95378   6.154   3.021   6.313 -0.0912  0.4948  0.1989
  692MOL0     C95379   6.142   3.082   6.175 -0.7192 -0.2156  0.3812
  692MOL0     C95380   6.058   2.995   6.077  0.1048  0.0871 -0.1497
  692MOL0     C95381   6.075   3.039   5.940  0.1707 -0.7104  0.0991
  692MOL0     O95382   6.213   3.017   5.900  0.5201 -0.2067 -0.2844
  692MOL0     C95383   6.258   2.895   5.863  0.3319  0.2328 -0.4878
  692MOL0     C95384   6.196   2.792   5.794  1.4375 -0.5746 -0.0354
  692MOL0     C95385   6.265   2.677   5.747  0.6471  0.5345  0.7259
  692MOL0     C95386   6.188   2.569   5.665  0.2592 -0.6973  0.2925
  692MOL0     C95387   6.394   2.653   5.782  0.0258  0.5166 -0.1740
  692MOL0     C95388   6.472   2.537   5.738 -0.3581 -0.4920  0.6444
  692MOL0     O95389   6.462   2.509   5.609 -0.0095  0.6072  0.1181
  692MOL0     C95390   6.546   2.424   5.554 -0.7657  1.0148 -0.2186
  692MOL0     C95391   6.563   2.286   5.588  0.0180 -0.9400  0.4980
  692MOL0     C95392   6.649   2.208   5.502  0.1205 -0.6904 -0.6431
  692MOL0     C95393   6.706   2.248   5.393 -0.0088 -0.4147 -0.0806
  692MOL0     O95394   6.769   2.159   5.314  0.4738  0.1662 -0.8130
  692MOL0     C95395   6.749   2.168   5.167 -0.3837 -0.9915  0.7867
  692MOL0     C95396   6.770   2.038   5.099 -0.0010 -0.2760 -0.7585
  692MOL0     C95397   6.882   1.946   5.137 -0.2733 -0.0753  0.3357
  692MOL0     C95398   7.026   2.002   5.107  0.1466 -0.2641 -0.4165
  692MOL0     C95399   7.137   1.899   5.073  0.3531 -0.1967  0.6847
  692MOL0     C95400   7.119   1.853   4.930 -1.2617  1.0155  0.5217
  692MOL0     C95401   7.241   1.772   4.887 -0.0526 -0.2288  0.8660
  692MOL0     C95402   7.281   1.655   4.975  0.5164 -0.3572  0.2108
  692MOL0    Cl95403   7.154   1.519   4.983 -0.0020  0.3157  0.3029
  692MOL0     C95404   6.683   2.385   5.365 -0.7125 -0.2097 -0.1012
  692MOL0     C95405   6.610   2.475   5.447 -0.8482 -0.2019  0.6012
  692MOL0     O95406   6.562   2.495   5.817  0.5509  0.1635  0.6343
  692MOL0     C95407   6.461   2.752   5.858  0.2175  0.0231 -0.3951
  692MOL0     C95408   6.396   2.871   5.888  0.6327 -0.4760  0.2753
  692MOL0     N95409   6.147   2.764   6.347  0.2394  0.3197 -0.2927
  692MOL0     N95410   6.215   2.657   6.319 -0.5543 -0.5991 -0.2130
  692MOL0     C95411   7.461   2.666   5.957  0.6017 -0.3354 -1.1519
  692MOL0     C95412   7.556   2.729   5.872 -0.3759 -0.1181  0.3592
  692MOL0     C95413   7.749   3.015   5.599  0.7207 -0.1899  0.5131
  692MOL0     C95414   7.642   3.078   5.529  0.1554  0.1835 -0.0939
  692MOL0     C95415   7.671   3.185   5.446 -0.1099  0.0485  0.1977
  692MOL0     C95416   7.797   3.233   5.418 -0.4240 -0.2970 -0.2526
  692MOL0     O95417   7.831   3.339   5.339 -0.0054 -0.1976  0.4275
  692MOL0     C95418   7.739   3.375   5.234 -0.3189 -0.5886 -0.2673
  692MOL0     C95419   7.661   3.491   5.293  0.1792 -0.1200 -0.6897
  692MOL0     C95420   7.694   3.629   5.220 -0.5594  0.3763  0.7936
  692MOL0     C95421   7.636   3.747   5.302  0.0331 -0.3815 -0.1864
  692MOL0     C95422   7.740   3.806   5.396  0.7052  0.0512  0.0698
  692MOL0     C95423   7.811   3.860   5.477  0.1035 -0.2962  1.0667
  692MOL0     C95424   7.901   3.169   5.486  0.0588 -0.5847  0.4250
  692MOL0     C95425   7.882   3.071   5.576  0.2358 -0.3331 -0.4369
  692MOL0     C95426   8.006   3.047   5.670  0.5654 -0.7659 -0.0494
  692MOL0     H95427   7.368   2.733   5.593  3.1444 -2.2074 -0.4394
  692MOL0     H95428   7.189   2.675   5.765  0.2094  2.7112  1.3576
  692MOL0     H95429   7.292   2.575   6.190 -0.6821  0.1172 -0.5238
  692MOL0     H95430   7.351   2.438   6.108 -0.5985 -0.3821  0.7486
  692MOL0     H95431   7.091   2.355   6.073  0.1944 -0.6033  0.6403
  692MOL0     H95432   7.187   2.325   6.217  1.5051  1.0503  1.1435
  692MOL0     H95433   7.024   2.429   6.329 -2.5186 -1.2774 -1.0966
  692MOL0     H95434   7.062   2.582   6.248 -0.9542  0.1181 -0.2722
  692MOL0     H95435   6.904   2.526   6.071  2.2195  3.0879  1.6928
  692MOL0     H95436   6.874   2.361   6.150 -3.3132  1.2281 -4.9281
  692MOL0     H95437   6.822   2.642   6.271 -0.9965  1.1591 -1.7090
  692MOL0     H95438   6.770   2.490   6.344  1.3465 -1.0983 -1.0471
  692MOL0     H95439   6.679   2.602   6.079 -0.5252  1.4754  2.6803
  692MOL0     H95440   6.608   2.453   6.144 -2.0747  0.3742  0.5642
  692MOL0     H95441   6.576   2.713   6.285 -1.8241  1.5618 -0.3525
  692MOL0     H95442   6.533   2.551   6.348  1.9237  3.1707  1.6311
  692MOL0     H95443   6.446   2.669   6.094 -0.4111 -0.5280 -0.4482
  692MOL0     H95444   6.384   2.515   6.168 -2.9501 -0.1493 -1.6030
  692MOL0     H95445   6.390   2.908   6.198 -0.3259 -1.0002  0.3044
  692MOL0     H95446   6.231   3.076   6.368  2.3911 -2.4987  0.0673
  692MOL0     H95447   6.059   3.030   6.366 -1.7883  2.6384 -2.9162
  692MOL0     H95448   6.095   3.179   6.193 -1.1682 -0.5924  1.2826
  692MOL0     H95449   6.241   3.107   6.136 -1.8073 -1.7982 -3.9211
  692MOL0     H95450   6.083   2.890   6.096  0.2103  0.5355  2.6546
  692MOL0     H95451   5.953   3.005   6.106  0.5510  0.2593  1.5250
  692MOL0     H95452   6.003   2.992   5.872 -1.5989  2.5375 -0.4713
  692MOL0     H95453   6.053   3.146   5.934  2.1184 -0.3052 -0.4778
  692MOL0     H95454   6.090   2.805   5.775  1.6610  1.8799  0.1022
  692MOL0     H95455   6.207   2.573   5.557 -0.1037 -2.6401  0.1168
  692MOL0     H95456   6.080   2.573   5.682  0.4604 -1.7663  2.1821
  692MOL0     H95457   6.203   2.466   5.700  1.5663 -0.6654 -0.1267
  692MOL0     H95458   6.510   2.235   5.668 -1.1503 -2.4301 -1.1487
  692MOL0     H95459   6.664   2.111   5.549 -1.3431  0.5103  2.6361
  692MOL0     H95460   6.649   2.211   5.155  1.7395  4.1988 -0.8776
  692MOL0     H95461   6.815   2.240   5.118 -0.6708 -1.1247  0.1907
  692MOL0     H95462   6.674   1.987   5.097  0.7220 -1.6710 -1.0207
  692MOL0     H95463   6.779   2.064   4.993  0.3408  0.3067 -0.5958
  692MOL0     H95464   6.867   1.847   5.092 -0.6003 -0.2957  0.9104
  692MOL0     H95465   6.885   1.930   5.246  1.9061  0.2960  0.3746
  692MOL0     H95466   7.064   2.064   5.189  4.0217 -0.3498 -1.9467
  692MOL0     H95467   7.021   2.066   5.019 -4.8753  2.0902  1.2194
  692MOL0     H95468   7.230   1.955   5.088 -1.9212  3.9942  0.5057
  692MOL0     H95469   7.135   1.810   5.136  2.2062  0.0864  1.1954
  692MOL0     H95470   7.109   1.943   4.869  0.3050  3.0052  2.9629
  692MOL0     H95471   7.039   1.779   4.925 -0.1211 -0.2738  0.8151
  692MOL0     H95472   7.326   1.837   4.867 -0.7108 -0.3695 -3.2739
  692MOL0     H95473   7.211   1.740   4.786 -1.3593  0.3553  1.0543
  692MOL0     H95474   7.312   1.704   5.068 -2.2542  2.3355 -0.1393
  692MOL0     H95475   7.363   1.607   4.921  0.5386 -2.7010  2.1561
  692MOL0     H95476   6.716   2.434   5.274 -1.9394  0.3390 -0.2583
  692MOL0     H95477   6.608   2.579   5.417  1.6741 -0.2184  0.1897
  692MOL0     H95478   6.562   2.729   5.892 -0.1438  0.4424  1.0406
  692MOL0     H95479   6.439   2.963   5.927 -2.0275  1.8607 -1.8194
  692MOL0     H95480   7.489   2.638   6.058  1.2568 -0.9210 -1.4908
  692MOL0     H95481   7.656   2.761   5.901 -0.7555  0.7685  0.7177
  692MOL0     H95482   7.539   3.045   5.533 -0.9784  3.3558  0.2186
  692MOL0     H95483   7.592   3.238   5.395  0.7826  0.0337 -1.2534
  692MOL0     H95484   7.799   3.407   5.148  1.0783 -3.9120 -0.6651
  692MOL0     H95485   7.671   3.294   5.207 -2.1360  0.8557 -0.2053
  692MOL0     H95486   7.692   3.507   5.397  0.5947 -0.1038 -0.8173
  692MOL0     H95487   7.555   3.468   5.279  0.1238 -0.2001 -0.1474
  692MOL0     H95488   7.802   3.641   5.216 -0.4148  0.2947  3.2326
  692MOL0     H95489   7.648   3.629   5.120 -1.0823  0.6391  1.0278
  692MOL0     H95490   7.546   3.712   5.352 -0.1266 -1.4272 -1.1472
  692MOL0     H95491   7.604   3.823   5.230  1.1136 -0.1082 -0.4010
  692MOL0     H95492   7.885   3.907   5.540  3.0188 -3.2716  0.1571
  692MOL0     H95493   8.004   3.199   5.468 -0.7739  1.1938 -1.7899
  692MOL0     H95494   7.975   3.012   5.769  2.0147  2.1120  1.5410
  692MOL0     H95495   8.076   2.983   5.616  0.2009 -1.5293  0.3649
  692MOL0     H95496   8.066   3.134   5.698  0.9922 -0.6345 -1.3150
  693MOL0     O95497   8.316   3.565   7.863 -0.7492  0.0951 -0.0545
  693MOL0     C95498   8.412   3.486   7.857  0.7165 -0.8621  0.5256
  693MOL0     O95499   8.497   3.470   7.755  0.0432 -0.5714 -0.4653
  693MOL0     C95500   8.495   3.535   7.631  0.4271 -0.3333  0.2331
  693MOL0     C95501   8.565   3.458   7.532 -0.2224 -1.2573  0.4701
  693MOL0     C95502   8.580   3.515   7.400 -0.6935 -0.4872 -0.1204
  693MOL0     C95503   8.517   3.632   7.367 -0.2166 -0.6970 -0.0608
  693MOL0     O95504   8.556   3.693   7.247  0.2210  0.5142  0.2623
  693MOL0     C95505   8.592   3.833   7.258 -0.3807 -0.2630 -0.2891
  693MOL0     C95506   8.635   3.884   7.122 -0.5064  0.2775  0.2287
  693MOL0     C95507   8.751   3.798   7.073  0.1720  0.5609 -0.6381
  693MOL0     C95508   8.786   3.830   6.926 -0.6048 -0.4540 -0.3294
  693MOL0     C95509   8.884   3.727   6.872 -0.3639  0.2307  0.1442
  693MOL0     C95510   8.925   3.766   6.725 -0.0489 -0.0848 -0.0842
  693MOL0     C95511   9.001   3.654   6.653  0.8331  0.5957  0.5923
  693MOL0     C95512   9.151   3.673   6.686  0.7396  0.1388 -0.1742
  693MOL0     N95513   9.222   3.564   6.613 -0.5544 -0.2918  0.7283
  693MOL0     C95514   9.253   3.563   6.477  0.5363 -0.1832  0.0794
  693MOL0     C95515   9.350   3.470   6.464 -0.1205 -0.4114 -0.1146
  693MOL0     C95516   9.414   3.426   6.337 -0.1603 -0.2580 -0.2591
  693MOL0     C95517   9.567   3.463   6.353 -0.5466  0.1933 -0.1847
  693MOL0     C95518   9.586   3.618   6.322 -1.5830 -0.0064 -0.1141
  693MOL0     C95519   9.718   3.645   6.236 -0.3008 -0.5157  0.6427
  693MOL0     O95520   9.700   3.584   6.103 -0.5823 -0.1782 -0.2306
  693MOL0     C95521   9.785   3.622   6.003  0.4016  0.4745  0.3399
  693MOL0     C95522   9.753   3.601   5.875  0.3490  0.3792 -0.6150
  693MOL0     C95523   9.835   3.642   5.765  0.5660  0.3629  0.2317
  693MOL0     C95524   9.791   3.592   5.630 -0.8882  0.7428 -0.3837
  693MOL0     C95525   9.966   3.688   5.783 -0.4108 -0.3334  0.1675
  693MOL0     C95526  10.073   3.723   5.680  0.7425 -0.8744 -0.3007
  693MOL0     O95527  10.014   3.757   5.558 -0.3243  0.5311 -0.1620
  693MOL0     C95528  10.097   3.810   5.464 -0.3657 -0.4492  1.0872
  693MOL0     C95529  10.061   3.923   5.398  0.0326 -0.0708  0.8617
  693MOL0     C95530  10.144   3.986   5.300  0.6322  1.0157 -0.1901
  693MOL0     C95531  10.253   3.914   5.248 -0.4208  1.8739  0.7056
  693MOL0     O95532  10.331   3.947   5.138 -0.4839  0.6162  0.3038
  693MOL0     C95533  10.321   4.088   5.101  0.6426 -0.5003 -0.9258
  693MOL0     C95534  10.430   4.137   5.000 -0.0792  0.1351  0.1442
  693MOL0     C95535  10.414   4.278   4.949 -1.0136  0.0899  0.3871
  693MOL0     C95536  10.532   4.316   4.858  0.4450 -0.1500 -0.2006
  693MOL0     C95537  10.480   4.319   4.714 -0.2371 -0.0778 -1.3768
  693MOL0     C95538  10.570   4.405   4.631  0.1799  0.1949  0.3300
  693MOL0     C95539  10.518   4.405   4.495  0.7009  0.3179  0.7400
  693MOL0     C95540  10.617   4.478   4.403  0.0256 -0.0455 -0.3752
  693MOL0    Cl95541  10.633   4.653   4.454 -0.2489 -0.5879  0.0877
  693MOL0     C95542  10.287   3.795   5.316 -0.1154 -0.2113 -0.5410
  693MOL0     C95543  10.217   3.744   5.423 -0.2745 -0.0329 -0.4268
  693MOL0     O95544  10.192   3.726   5.707  0.0470 -0.4758 -0.1876
  693MOL0     C95545  10.003   3.690   5.920  0.4692 -0.1798  0.0376
  693MOL0     C95546   9.916   3.650   6.028 -1.0039  0.4684 -0.3921
  693MOL0     N95547   9.382   3.408   6.588  0.1583  0.6958  0.7973
  693MOL0     N95548   9.311   3.480   6.671  0.2376 -0.7790 -0.4662
  693MOL0     C95549   8.438   3.702   7.463 -0.1883  0.2429 -0.5303
  693MOL0     C95550   8.427   3.656   7.595  0.0819 -0.4413 -0.3775
  693MOL0     C95551   8.426   3.394   7.969  0.0722 -0.3922 -0.1432
  693MOL0     C95552   8.422   3.262   7.942 -0.5981  1.3551  0.2510
  693MOL0     C95553   8.462   3.173   8.040  0.1791 -0.5181 -0.3821
  693MOL0     C95554   8.498   3.220   8.171 -0.1932  0.6187 -0.4116
  693MOL0     O95555   8.537   3.119   8.258 -1.1369  0.0533 -0.0440
  693MOL0     C95556   8.592   3.153   8.389  0.1562  0.2803 -0.5894
  693MOL0     C95557   8.728   3.223   8.400 -0.0989 -0.4633  0.7577
  693MOL0     C95558   8.829   3.186   8.295 -0.4683 -0.0678 -0.2030
  693MOL0     C95559   8.966   3.145   8.352  0.4171  0.0286 -0.2384
  693MOL0     C95560   9.068   3.140   8.251 -0.2306 -0.1658 -0.1709
  693MOL0     C95561   9.155   3.135   8.166  0.5801 -0.5119  1.2676
  693MOL0     C95562   8.497   3.356   8.198  0.7393 -0.4690  0.4200
  693MOL0     C95563   8.453   3.448   8.100  1.1337  0.4694  0.7289
  693MOL0     C95564   8.444   3.601   8.121  0.2926  0.4104 -0.3428
  693MOL0     H95565   8.600   3.359   7.556  2.8594 -0.1766  0.9171
  693MOL0     H95566   8.624   3.447   7.327  1.1297  0.2278  0.2465
  693MOL0     H95567   8.686   3.848   7.312 -0.8808  0.6195  0.3573
  693MOL0     H95568   8.512   3.896   7.298 -0.8878 -0.7722 -0.4959
  693MOL0     H95569   8.547   3.882   7.056 -1.1943  2.2701  1.0124
  693MOL0     H95570   8.678   3.984   7.128 -0.0345  0.0438  0.9116
  693MOL0     H95571   8.838   3.790   7.140  1.1970  1.0516 -1.8633
  693MOL0     H95572   8.711   3.697   7.063  0.1329  0.5299 -0.1761
  693MOL0     H95573   8.692   3.836   6.871 -1.1491  1.6393  0.7180
  693MOL0     H95574   8.835   3.928   6.930 -3.9580  1.3144  0.7009
  693MOL0     H95575   8.842   3.626   6.881 -1.6040  0.9137  3.4072
  693MOL0     H95576   8.978   3.723   6.928  0.5524 -0.0380 -1.3744
  693MOL0     H95577   8.827   3.785   6.681  0.2471  0.1401 -0.6646
  693MOL0     H95578   8.979   3.861   6.719 -2.4927  1.5051  1.4170
  693MOL0     H95579   8.988   3.653   6.544 -0.7485 -0.2976  0.7525
  693MOL0     H95580   8.961   3.556   6.681 -0.5004  0.8058 -0.4477
  693MOL0     H95581   9.186   3.772   6.658  0.2610  0.4496  0.3066
  693MOL0     H95582   9.162   3.659   6.794 -1.1838 -0.4203 -0.0185
  693MOL0     H95583   9.196   3.623   6.406 -3.0462 -2.8121  0.4280
  693MOL0     H95584   9.369   3.483   6.255  2.0277  2.1847  0.1181
  693MOL0     H95585   9.393   3.319   6.323 -2.4349  0.2955 -1.5528
  693MOL0     H95586   9.606   3.436   6.451 -0.6439  3.2931  0.8337
  693MOL0     H95587   9.626   3.410   6.278 -1.0357 -0.2419 -0.2639
  693MOL0     H95588   9.500   3.660   6.269 -2.4803  0.1545  1.3945
  693MOL0     H95589   9.596   3.671   6.418  1.2040 -1.5350  0.5416
  693MOL0     H95590   9.748   3.750   6.226 -0.7708 -0.3892  0.5286
  693MOL0     H95591   9.805   3.593   6.277  0.9648 -1.2839 -2.6599
  693MOL0     H95592   9.653   3.561   5.864  1.3166 -2.0613 -1.1673
  693MOL0     H95593   9.733   3.662   5.569 -0.8642  1.6488  0.5944
  693MOL0     H95594   9.721   3.509   5.640 -1.4697  1.0966 -1.3795
  693MOL0     H95595   9.868   3.546   5.567 -3.0825 -2.9951 -0.6265
  693MOL0     H95596   9.970   3.971   5.431 -0.8941  0.6986 -2.4620
  693MOL0     H95597  10.123   4.080   5.252  0.5778  0.1571 -1.9125
  693MOL0     H95598  10.224   4.086   5.051  0.8074  1.8354 -1.4748
  693MOL0     H95599  10.307   4.159   5.184  1.9546 -2.6055  1.2209
  693MOL0     H95600  10.525   4.121   5.052 -0.6576 -0.1336  1.1370
  693MOL0     H95601  10.424   4.069   4.914 -0.4424 -1.3290  1.2839
  693MOL0     H95602  10.398   4.337   5.039 -2.0441 -1.4638  1.2807
  693MOL0     H95603  10.319   4.284   4.894 -0.8346  0.4971  0.1155
  693MOL0     H95604  10.620   4.254   4.875  3.6702  3.8060 -1.0321
  693MOL0     H95605  10.557   4.419   4.883 -0.7720  0.0765  0.1452
  693MOL0     H95606  10.483   4.219   4.671  0.0946 -0.5143 -0.3699
  693MOL0     H95607  10.374   4.344   4.713 -0.6532 -1.5764  0.1835
  693MOL0     H95608  10.672   4.364   4.632 -0.1974 -0.8693  3.0070
  693MOL0     H95609  10.578   4.506   4.670  0.5653  0.2738  0.0577
  693MOL0     H95610  10.419   4.451   4.482  0.1153 -1.3183 -0.8883
  693MOL0     H95611  10.517   4.304   4.454  2.7474 -0.4196  2.3370
  693MOL0     H95612  10.584   4.475   4.299 -0.4169 -1.8850 -0.2096
  693MOL0     H95613  10.708   4.421   4.423  0.4769  1.3312  1.8406
  693MOL0     H95614  10.384   3.755   5.286  0.2431 -0.2216  0.6004
  693MOL0     H95615  10.238   3.645   5.463  1.8896 -0.0480 -1.4494
  693MOL0     H95616  10.107   3.712   5.945  0.4438 -0.8877  0.7888
  693MOL0     H95617   9.953   3.654   6.130 -2.9871  1.2462  0.3522
  693MOL0     H95618   8.390   3.797   7.441 -0.4968  0.5538  1.2936
  693MOL0     H95619   8.372   3.717   7.666  2.2731  0.3061  0.7706
  693MOL0     H95620   8.400   3.217   7.846  0.8099  1.4404 -0.1303
  693MOL0     H95621   8.463   3.065   8.030 -2.2049 -0.6428  0.2224
  693MOL0     H95622   8.522   3.215   8.445 -1.2794 -1.9952  0.2788
  693MOL0     H95623   8.598   3.055   8.437  1.8447 -0.4534 -2.1792
  693MOL0     H95624   8.769   3.195   8.497 -2.7360 -1.3720  1.6710
  693MOL0     H95625   8.714   3.332   8.405 -1.0250 -0.6405  2.5135
  693MOL0     H95626   8.805   3.106   8.224 -1.8602 -0.3872  0.6066
  693MOL0     H95627   8.838   3.281   8.241  0.2743  1.2074  2.0228
  693MOL0     H95628   8.953   3.046   8.396  0.3903  0.0803 -0.1304
  693MOL0     H95629   9.009   3.209   8.429 -0.4799 -2.6062  2.6853
  693MOL0     H95630   9.232   3.108   8.096 -0.3137 -0.9470  0.4201
  693MOL0     H95631   8.519   3.393   8.298 -1.1620 -0.5500  0.9121
  693MOL0     H95632   8.492   3.627   8.216  1.5548 -0.0534 -0.8336
  693MOL0     H95633   8.493   3.654   8.039  0.5510  1.4733  0.4735
  693MOL0     H95634   8.347   3.652   8.113  1.7192  3.0190 -2.6352
  694MOL0     O95635   5.487  10.187   6.868 -0.4151 -0.6015 -0.2551
  694MOL0     C95636   5.421  10.088   6.900 -0.4224  0.9341  0.5994
  694MOL0     O95637   5.463   9.955   6.886  0.8602 -0.7306  0.2188
  694MOL0     C95638   5.597   9.929   6.882  0.8159  0.0721 -0.8075
  694MOL0     C95639   5.696   9.989   6.965  0.2198 -0.7146 -0.0894
  694MOL0     C95640   5.829   9.957   6.959 -0.3281 -0.1922  0.0338
  694MOL0     C95641   5.869   9.862   6.864  1.2929 -0.1629 -0.1184
  694MOL0     O95642   5.995   9.818   6.841 -0.0209 -0.5547  0.5081
  694MOL0     C95643   6.105   9.894   6.894 -0.0064  0.6716  0.3157
  694MOL0     C95644   6.240   9.856   6.830 -0.0664  0.2705 -0.1258
  694MOL0     C95645   6.271   9.704   6.876 -0.3811  0.0100 -0.8395
  694MOL0     C95646   6.328   9.684   7.014 -0.2658 -0.6442  0.8091
  694MOL0     C95647   6.357   9.533   7.046 -1.0411  0.4038  0.9586
  694MOL0     C95648   6.489   9.481   7.000  0.3890  0.0541  0.6932
  694MOL0     C95649   6.492   9.324   7.012  0.8927 -0.1218 -0.4938
  694MOL0     C95650   6.609   9.248   6.942 -0.9228 -0.8718 -0.2803
  694MOL0     N95651   6.577   9.240   6.801  0.1789  0.9482  0.2704
  694MOL0     C95652   6.485   9.152   6.757  0.2079 -0.2142  0.1074
  694MOL0     C95653   6.454   9.194   6.630  0.8708  0.5607 -0.6414
  694MOL0     C95654   6.360   9.125   6.542 -0.4051 -0.2317  0.1204
  694MOL0     C95655   6.439   9.025   6.457 -0.1673  0.6668  0.2644
  694MOL0     C95656   6.363   8.953   6.342  0.2279  0.0886 -0.1179
  694MOL0     C95657   6.240   8.865   6.387 -0.0108  0.1873 -0.2411
  694MOL0     O95658   6.287   8.777   6.484  0.6717  1.3624 -0.4709
  694MOL0     C95659   6.238   8.646   6.498  0.1411 -0.6453  0.0697
  694MOL0     C95660   6.108   8.615   6.466  0.2388  0.5375  0.2942
  694MOL0     C95661   6.047   8.493   6.503 -0.3346  0.3785 -0.2270
  694MOL0     C95662   5.907   8.471   6.472 -0.4201  0.2695  0.1637
  694MOL0     C95663   6.126   8.385   6.539 -0.1412 -0.4572 -1.1250
  694MOL0     C95664   6.084   8.243   6.569  0.9481  0.7187 -0.5847
  694MOL0     O95665   6.185   8.151   6.592  0.3310  0.8842  0.4652
  694MOL0     C95666   6.163   8.009   6.587  0.4355 -0.4704  0.4635
  694MOL0     C95667   6.057   7.940   6.526 -0.6873 -0.1972 -0.6417
  694MOL0     C95668   6.051   7.801   6.513  0.0067  0.1638 -0.1490
  694MOL0     C95669   6.163   7.727   6.566  0.8272 -0.6204 -0.4208
  694MOL0     O95670   6.170   7.594   6.535 -0.2693 -0.3989 -0.1777
  694MOL0     C95671   6.249   7.559   6.420 -0.4701  0.4026 -0.1022
  694MOL0     C95672   6.258   7.406   6.419  1.2025  0.2293  0.1711
  694MOL0     C95673   6.353   7.355   6.523 -0.0917  0.7475 -0.2383
  694MOL0     C95674   6.312   7.204   6.551  0.8926 -0.2201  0.4168
  694MOL0     C95675   6.372   7.145   6.679 -0.6216 -0.2106 -0.0840
  694MOL0     C95676   6.516   7.097   6.651 -0.6380 -0.6281 -0.3997
  694MOL0     C95677   6.594   7.032   6.769 -0.6065 -0.3022 -0.6245
  694MOL0     C95678   6.732   6.984   6.731  0.1054 -0.9818 -0.2523
  694MOL0    Cl95679   6.838   7.125   6.695  0.6135  0.2110 -0.3465
  694MOL0     C95680   6.269   7.795   6.631 -0.1333 -0.9256 -0.3336
  694MOL0     C95681   6.268   7.935   6.626 -0.7744  0.5849  0.1134
  694MOL0     O95682   5.956   8.218   6.569  0.0136 -0.0618 -0.1813
  694MOL0     C95683   6.260   8.414   6.555  0.9598 -0.1254 -0.3049
  694MOL0     C95684   6.314   8.542   6.542  0.1612 -0.2999 -0.9581
  694MOL0     N95685   6.529   9.310   6.605  0.6446 -0.2099 -0.2535
  694MOL0     N95686   6.606   9.340   6.712 -0.5196  0.1651  0.5653
  694MOL0     C95687   5.775   9.802   6.786 -0.7414  0.6351  1.2331
  694MOL0     C95688   5.641   9.829   6.795 -0.3434  0.1791 -0.0226
  694MOL0     C95689   5.271  10.103   6.932  0.5507  0.3201  0.4217
  694MOL0     C95690   5.189   9.984   6.945  0.0414 -0.8100  0.3364
  694MOL0     C95691   5.055  10.002   6.961  0.2062 -0.0413  0.4208
  694MOL0     C95692   5.003  10.130   6.982  0.6054  1.2104 -0.6614
  694MOL0     O95693   4.867  10.147   7.000  0.0975 -0.5607  0.1566
  694MOL0     C95694   4.793  10.171   6.872  0.4251  0.5878 -0.4870
  694MOL0     C95695   4.665  10.254   6.883  0.6560 -0.0888 -0.1332
  694MOL0     C95696   4.669  10.382   6.974 -0.2601 -1.0993 -0.4116
  694MOL0     C95697   4.614  10.374   7.116  0.3539  0.3808 -0.8466
  694MOL0     C95698   4.610  10.509   7.185 -0.4213 -0.0630  1.3390
  694MOL0     C95699   4.587  10.623   7.218 -0.4292  0.0483 -0.2088
  694MOL0     C95700   5.077  10.253   6.981 -0.5632  0.5067 -0.8983
  694MOL0     C95701   5.210  10.235   6.935  0.0841  0.0895 -1.1696
  694MOL0     C95702   5.283  10.368   6.930  0.5132  0.2522 -0.1507
  694MOL0     H95703   5.658  10.066   7.031  0.1128 -1.2639  0.5087
  694MOL0     H95704   5.910   9.999   7.019 -0.8826  3.0402 -1.2728
  694MOL0     H95705   6.106   9.863   6.999 -0.2514  0.7954  0.3558
  694MOL0     H95706   6.087  10.001   6.881  0.6844  0.9230  1.3061
  694MOL0     H95707   6.237   9.867   6.721 -1.0673 -0.4095 -0.1832
  694MOL0     H95708   6.317   9.918   6.875 -0.2888  3.3547 -3.4802
  694MOL0     H95709   6.184   9.638   6.867 -0.9104  0.9214 -2.9332
  694MOL0     H95710   6.344   9.681   6.799  1.0909 -0.3678  0.6057
  694MOL0     H95711   6.420   9.739   7.033 -1.0837  0.6849  1.0890
  694MOL0     H95712   6.255   9.725   7.085 -0.3541 -1.6717  1.3353
  694MOL0     H95713   6.278   9.469   7.005 -1.2385 -0.2880  2.3594
  694MOL0     H95714   6.352   9.510   7.153  1.8284 -0.0007  1.0765
  694MOL0     H95715   6.491   9.514   6.895 -0.1424 -0.4733  0.5084
  694MOL0     H95716   6.569   9.518   7.063  2.4203 -2.0004 -0.5098
  694MOL0     H95717   6.395   9.293   6.973  0.7752  0.1975 -0.4579
  694MOL0     H95718   6.487   9.298   7.118  0.3277  1.5630 -0.0884
  694MOL0     H95719   6.702   9.306   6.954 -1.3083  1.1465 -4.8460
  694MOL0     H95720   6.627   9.149   6.984 -0.7946  0.1739  2.2971
  694MOL0     H95721   6.448   9.068   6.815  0.7071  0.0799  0.8797
  694MOL0     H95722   6.313   9.204   6.484  1.2801 -0.3195 -1.4626
  694MOL0     H95723   6.288   9.071   6.604 -0.0477 -0.4888  0.3228
  694MOL0     H95724   6.526   9.072   6.410  0.1505 -0.6268 -0.4890
  694MOL0     H95725   6.483   8.946   6.520 -0.8347  1.3199  1.5943
  694MOL0     H95726   6.335   9.017   6.259  0.4031 -1.0737 -1.0978
  694MOL0     H95727   6.424   8.873   6.301 -3.7101 -0.5805 -5.7018
  694MOL0     H95728   6.148   8.915   6.420 -0.0513 -0.1816  0.2104
  694MOL0     H95729   6.213   8.801   6.303  1.3838  0.3356 -0.8404
  694MOL0     H95730   6.049   8.692   6.416 -1.7178 -1.1180 -0.0500
  694MOL0     H95731   5.894   8.403   6.387 -0.9893  0.1585  0.3320
  694MOL0     H95732   5.852   8.560   6.441 -2.4449 -1.5774 -2.0378
  694MOL0     H95733   5.856   8.442   6.564 -0.6160 -0.8443 -0.2784
  694MOL0     H95734   5.973   7.991   6.479 -0.7647  1.1111  0.8507
  694MOL0     H95735   5.975   7.744   6.460  2.7578 -3.4378 -0.6514
  694MOL0     H95736   6.195   7.589   6.330 -1.0068 -0.3790 -0.0544
  694MOL0     H95737   6.355   7.586   6.422  0.1269 -1.7196 -0.0856
  694MOL0     H95738   6.153   7.378   6.430  1.0913  1.2964  2.2233
  694MOL0     H95739   6.287   7.366   6.321  1.4833 -0.2530  0.4417
  694MOL0     H95740   6.345   7.412   6.616  1.3173  0.2241  0.2330
  694MOL0     H95741   6.456   7.366   6.487 -0.1127 -0.7140 -0.7892
  694MOL0     H95742   6.336   7.137   6.468 -1.2837 -1.6704  0.8481
  694MOL0     H95743   6.203   7.191   6.546  1.1162 -2.0525 -0.4951
  694MOL0     H95744   6.360   7.217   6.761 -1.7509  2.5030 -2.4622
  694MOL0     H95745   6.321   7.057   6.719 -0.1623 -0.3034  0.3074
  694MOL0     H95746   6.583   7.173   6.612  0.6574 -1.2489  0.5334
  694MOL0     H95747   6.514   7.020   6.573 -0.0392 -1.8657  0.7613
  694MOL0     H95748   6.544   6.944   6.810  0.8832 -1.1796 -0.6100
  694MOL0     H95749   6.600   7.105   6.851  0.6095  0.7115 -1.5634
  694MOL0     H95750   6.711   6.918   6.646  0.0169  0.0023 -1.0275
  694MOL0     H95751   6.768   6.925   6.815 -3.4825  0.4556  2.5561
  694MOL0     H95752   6.359   7.745   6.665 -0.5419  0.0816  2.4706
  694MOL0     H95753   6.359   7.987   6.654  0.2067 -0.2128 -1.4950
  694MOL0     H95754   6.322   8.329   6.583 -0.0257 -0.3981  1.1811
  694MOL0     H95755   6.408   8.570   6.588  1.2708 -3.0134 -1.3709
  694MOL0     H95756   5.806   9.730   6.710 -0.5418  2.4852 -0.5120
  694MOL0     H95757   5.579   9.765   6.733 -0.3939 -1.3082  1.4802
  694MOL0     H95758   5.225   9.882   6.937  0.4910 -0.7605  1.5165
  694MOL0     H95759   4.986   9.918   6.964 -1.4796  1.2953  0.9130
  694MOL0     H95760   4.855  10.236   6.810  1.0261  2.3663  1.8196
  694MOL0     H95761   4.785  10.078   6.815  3.3160 -0.3525  0.4511
  694MOL0     H95762   4.592  10.183   6.924  2.3570  0.3267  4.0302
  694MOL0     H95763   4.641  10.285   6.781  2.2408 -1.2827 -0.9261
  694MOL0     H95764   4.771  10.419   6.982 -0.7534  0.2335 -0.0351
  694MOL0     H95765   4.615  10.464   6.926 -1.0643 -0.3006  1.7076
  694MOL0     H95766   4.689  10.321   7.176 -0.7510 -1.2846 -0.8674
  694MOL0     H95767   4.513  10.333   7.121  1.1883 -1.6781  0.7054
  694MOL0     H95768   4.587  10.726   7.246  0.2722  0.6752 -2.2778
  694MOL0     H95769   5.027  10.343   7.015  0.3519  0.5025  0.5748
  694MOL0     H95770   5.354  10.376   7.013 -0.6354  1.6886  0.7569
  694MOL0     H95771   5.338  10.381   6.837  2.5932  0.3195  1.0280
  694MOL0     H95772   5.212  10.450   6.945 -0.0265 -0.2458  0.0475
  695MOL0     O95773   8.217   7.015   1.573  0.4904  0.5480 -0.4098
  695MOL0     C95774   8.215   7.010   1.451  0.0961  0.0421 -0.1794
  695MOL0     O95775   8.193   6.890   1.373 -0.5134  0.4294 -0.4076
  695MOL0     C95776   8.185   6.769   1.435  0.8278  0.3624  0.3349
  695MOL0     C95777   8.105   6.668   1.377  0.2360  0.2278 -0.7917
  695MOL0     C95778   8.113   6.530   1.430 -0.7494  0.0169  1.0673
  695MOL0     C95779   8.194   6.497   1.537  0.6241  0.1588 -0.1885
  695MOL0     O95780   8.191   6.377   1.596  0.4270 -0.1107  0.0628
  695MOL0     C95781   8.065   6.356   1.659  0.1437 -0.1680  0.1612
  695MOL0     C95782   8.061   6.444   1.790  0.4241 -0.5802  0.2866
  695MOL0     C95783   8.165   6.384   1.892 -0.2259  0.2067  0.0935
  695MOL0     C95784   8.152   6.468   2.022 -0.1824  0.3060 -0.3985
  695MOL0     C95785   8.260   6.433   2.125 -0.4965  1.0196 -0.2423
  695MOL0     C95786   8.225   6.294   2.187 -0.0452 -0.0354  0.5236
  695MOL0     C95787   8.321   6.238   2.285 -0.5370  0.5995  0.1636
  695MOL0     C95788   8.328   6.313   2.416 -0.7645  0.4097 -0.8236
  695MOL0     N95789   8.458   6.294   2.484 -0.0071  0.2623  0.8061
  695MOL0     C95790   8.535   6.378   2.552 -0.8339 -0.2388  0.3486
  695MOL0     C95791   8.633   6.303   2.600 -1.6191  0.4437  0.2168
  695MOL0     C95792   8.756   6.347   2.687 -0.0974 -0.0783 -1.1947
  695MOL0     C95793   8.789   6.494   2.675 -0.4951  0.6463 -0.4159
  695MOL0     C95794   8.927   6.518   2.747 -0.2209  0.3426  1.0414
  695MOL0     C95795   8.942   6.668   2.786  0.5020  0.6256  0.3660
  695MOL0     O95796   8.927   6.745   2.670 -0.0817 -0.4542 -0.0054
  695MOL0     C95797   9.005   6.856   2.666  0.0459 -0.8520  0.4146
  695MOL0     C95798   9.139   6.852   2.628 -0.3455 -0.5503 -0.8007
  695MOL0     C95799   9.218   6.969   2.628 -0.1639 -0.5615 -0.2262
  695MOL0     C95800   9.357   6.953   2.572  0.5590  0.2397 -0.1788
  695MOL0     C95801   9.164   7.092   2.683  1.2543  1.0434 -0.9321
  695MOL0     C95802   9.234   7.225   2.692  0.2748 -0.6259 -0.0235
  695MOL0     O95803   9.176   7.337   2.743 -0.5200  0.4721  0.2945
  695MOL0     C95804   9.241   7.392   2.849  0.1453  0.3286 -0.1406
  695MOL0     C95805   9.203   7.510   2.899 -0.9615  0.1208  0.1138
  695MOL0     C95806   9.251   7.561   3.022 -1.2001 -0.7342 -0.4015
  695MOL0     C95807   9.346   7.496   3.095 -1.5676  0.1876  0.2062
  695MOL0     O95808   9.375   7.553   3.215 -0.7208 -0.0221  0.1971
  695MOL0     C95809   9.474   7.491   3.300 -0.8544  1.0312 -0.7514
  695MOL0     C95810   9.625   7.504   3.255  0.3711 -0.2387 -1.6022
  695MOL0     C95811   9.668   7.656   3.252  0.1627  0.5069 -0.4409
  695MOL0     C95812   9.618   7.733   3.122 -0.8080  0.0885 -0.1162
  695MOL0     C95813   9.724   7.836   3.090 -0.8218  0.5974 -0.0872
  695MOL0     C95814   9.701   7.967   3.158  0.2424 -0.6288 -0.2731
  695MOL0     C95815   9.811   8.068   3.108  0.7304 -0.4113 -0.4934
  695MOL0     C95816   9.945   8.080   3.190  0.6059 -0.3213  0.7654
  695MOL0    Cl95817  10.010   8.243   3.178  0.2070 -0.2886  0.5101
  695MOL0     C95818   9.406   7.380   3.034  0.1877  1.4621 -0.6012
  695MOL0     C95819   9.354   7.326   2.916 -0.2941  0.8302 -0.3360
  695MOL0     O95820   9.344   7.221   2.643 -0.1138  0.2829  0.6988
  695MOL0     C95821   9.032   7.085   2.729  0.2011 -0.0524 -0.0648
  695MOL0     C95822   8.959   6.961   2.728  0.2742 -0.9275 -0.1118
  695MOL0     N95823   8.610   6.176   2.559  0.5720  0.7410  1.2228
  695MOL0     N95824   8.509   6.171   2.483 -0.2267  0.4027 -0.6916
  695MOL0     C95825   8.263   6.603   1.604 -0.1604  0.0960 -0.1313
  695MOL0     C95826   8.253   6.734   1.544  0.1226 -1.0793  0.7003
  695MOL0     C95827   8.212   7.147   1.397 -0.3645  0.1683  0.8618
  695MOL0     C95828   8.122   7.182   1.293 -0.0696  0.9411 -1.2186
  695MOL0     C95829   8.122   7.309   1.238  0.1316 -0.6144 -0.5459
  695MOL0     C95830   8.214   7.396   1.278 -0.5523  0.1971 -0.2716
  695MOL0     O95831   8.242   7.514   1.212 -0.4604  0.2960  0.2614
  695MOL0     C95832   8.244   7.524   1.074  0.2784  0.1249 -0.0530
  695MOL0     C95833   8.361   7.623   1.019  0.0170  0.2186 -0.0443
  695MOL0     C95834   8.409   7.572   0.878 -0.1457  0.3256  0.5218
  695MOL0     C95835   8.542   7.646   0.832  0.6543  0.2437  0.2983
  695MOL0     C95836   8.543   7.657   0.684  0.7952  0.4018  0.4135
  695MOL0     C95837   8.540   7.692   0.571 -0.1733  0.5896  0.4830
  695MOL0     C95838   8.303   7.372   1.376 -0.0694 -0.4988 -0.9691
  695MOL0     C95839   8.297   7.252   1.447 -0.5291  0.3173 -0.2922
  695MOL0     C95840   8.403   7.237   1.556  0.8013 -0.2139  0.2379
  695MOL0     H95841   8.033   6.671   1.295 -3.2352 -3.5171  1.7103
  695MOL0     H95842   8.050   6.460   1.377  0.3634  0.8491 -1.5703
  695MOL0     H95843   8.040   6.253   1.687 -4.9027  1.1070  1.4033
  695MOL0     H95844   7.979   6.378   1.594 -1.4624  0.4726  2.3607
  695MOL0     H95845   8.072   6.551   1.770  0.5895 -0.5975  0.2828
  695MOL0     H95846   7.961   6.426   1.830 -0.8762 -0.9302 -2.8568
  695MOL0     H95847   8.141   6.278   1.905  1.9080 -0.0899  2.6546
  695MOL0     H95848   8.268   6.384   1.855 -0.4042  1.3353 -0.4356
  695MOL0     H95849   8.191   6.566   1.991  2.9373 -0.5792  0.3773
  695MOL0     H95850   8.052   6.470   2.067  0.3567 -1.4502  0.9898
  695MOL0     H95851   8.263   6.512   2.200  0.9103  1.2903 -0.5587
  695MOL0     H95852   8.357   6.439   2.074  0.3769 -1.2882  0.9758
  695MOL0     H95853   8.129   6.308   2.237 -0.4078  0.1489 -0.2065
  695MOL0     H95854   8.207   6.220   2.108 -1.8387  1.7810 -0.8784
  695MOL0     H95855   8.422   6.234   2.242 -0.2151  0.6784  0.8963
  695MOL0     H95856   8.303   6.130   2.295  3.4932 -0.4057 -1.4119
  695MOL0     H95857   8.326   6.422   2.408  0.2049  0.4771 -0.3999
  695MOL0     H95858   8.244   6.294   2.483  0.9651  3.5745  2.6830
  695MOL0     H95859   8.512   6.484   2.559 -3.1637 -0.6436 -0.2597
  695MOL0     H95860   8.844   6.289   2.658 -0.2122 -0.5947 -0.5349
  695MOL0     H95861   8.743   6.321   2.792 -1.6418 -0.5302 -1.4748
  695MOL0     H95862   8.804   6.536   2.575  2.5936  1.1844  0.1689
  695MOL0     H95863   8.710   6.549   2.727 -0.2410  3.2048 -2.4875
  695MOL0     H95864   8.925   6.477   2.848  0.8283 -1.4110  0.3958
  695MOL0     H95865   9.007   6.468   2.693 -1.1887 -1.1071  0.8936
  695MOL0     H95866   8.864   6.695   2.858  0.9548 -0.3778  1.2457
  695MOL0     H95867   9.030   6.698   2.843  0.6070  0.7808  0.1278
  695MOL0     H95868   9.172   6.754   2.594  1.5901 -0.4104  0.5140
  695MOL0     H95869   9.425   6.969   2.655  0.4660 -1.8472  0.3530
  695MOL0     H95870   9.381   6.997   2.474  1.9185 -2.2390 -1.0355
  695MOL0     H95871   9.382   6.850   2.546 -0.4844 -0.0840  0.0661
  695MOL0     H95872   9.134   7.567   2.837 -0.5610  0.1224 -0.3307
  695MOL0     H95873   9.219   7.657   3.061  4.1018  1.6741 -1.0992
  695MOL0     H95874   9.471   7.530   3.403 -1.9196  0.9883 -0.7573
  695MOL0     H95875   9.450   7.387   3.325  0.2338  0.2570 -2.7290
  695MOL0     H95876   9.672   7.439   3.330 -4.8311 -2.1902  0.4872
  695MOL0     H95877   9.644   7.461   3.157 -2.7245 -1.7205 -1.6680
  695MOL0     H95878   9.777   7.658   3.262  0.0593 -2.0237  3.4246
  695MOL0     H95879   9.636   7.704   3.345 -1.5114  2.7262 -2.0729
  695MOL0     H95880   9.518   7.777   3.132 -0.4939  1.8147 -3.4601
  695MOL0     H95881   9.608   7.663   3.039 -0.1185 -1.8884  1.3861
  695MOL0     H95882   9.828   7.806   3.104 -1.1144 -0.7568 -0.6882
  695MOL0     H95883   9.702   7.845   2.983 -0.4067 -1.4240 -0.3767
  695MOL0     H95884   9.711   7.951   3.266  1.8740  2.5118  0.1592
  695MOL0     H95885   9.599   8.003   3.143 -0.5871 -2.2300  1.2193
  695MOL0     H95886   9.758   8.163   3.098 -2.2190 -1.7733  0.9921
  695MOL0     H95887   9.842   8.036   3.008  0.1464  3.5624 -2.1316
  695MOL0     H95888  10.020   8.015   3.144 -0.1491  1.7391 -3.9680
  695MOL0     H95889   9.925   8.059   3.295  0.0027 -2.4668  0.2642
  695MOL0     H95890   9.475   7.317   3.090 -0.4714 -0.1453 -1.5287
  695MOL0     H95891   9.409   7.238   2.885  1.7403  1.0640  2.2441
  695MOL0     H95892   8.989   7.174   2.774 -3.5506  0.6261 -4.2198
  695MOL0     H95893   8.855   6.973   2.756  1.1103  2.3731  2.2949
  695MOL0     H95894   8.323   6.600   1.694 -1.3907  4.9857  1.1258
  695MOL0     H95895   8.324   6.793   1.601  0.7568 -0.8538 -0.3015
  695MOL0     H95896   8.056   7.103   1.258  0.5242 -0.6714  1.0377
  695MOL0     H95897   8.048   7.336   1.162  0.0496 -0.0616 -0.2771
  695MOL0     H95898   8.270   7.431   1.022  3.2389  0.6109  0.3550
  695MOL0     H95899   8.143   7.551   1.042 -0.5147 -2.5620 -0.1166
  695MOL0     H95900   8.452   7.607   1.078 -0.6313 -2.3215  0.3676
  695MOL0     H95901   8.333   7.729   1.027 -0.7253 -0.0527  1.1227
  695MOL0     H95902   8.435   7.466   0.883  1.0215  0.6133  0.8893
  695MOL0     H95903   8.329   7.594   0.807  1.2856  1.3149 -0.8250
  695MOL0     H95904   8.625   7.582   0.863 -2.1246 -3.4066  0.9634
  695MOL0     H95905   8.541   7.747   0.872  1.2247  1.4186 -2.3999
  695MOL0     H95906   8.528   7.718   0.468 -0.9932  0.0751  0.4384
  695MOL0     H95907   8.364   7.460   1.396 -2.1468  0.3654  2.3801
  695MOL0     H95908   8.491   7.206   1.500 -0.2879  1.6793 -2.7460
  695MOL0     H95909   8.436   7.329   1.604  1.0211 -0.8381  1.3134
  695MOL0     H95910   8.372   7.176   1.642 -3.0828  2.8435  1.3380
  696MOL0     O95911   7.161   7.511   0.984  0.0310 -0.1513  0.2064
  696MOL0     C95912   7.108   7.622   0.999 -0.5486  0.0614  1.0193
  696MOL0     O95913   7.006   7.678   0.929 -0.6164 -0.1721 -0.3341
  696MOL0     C95914   6.934   7.594   0.844  0.1971 -0.0927 -0.2198
  696MOL0     C95915   6.992   7.526   0.739 -1.3782  0.1425  0.1895
  696MOL0     C95916   6.931   7.415   0.670 -0.5965 -0.7373 -0.8075
  696MOL0     C95917   6.802   7.373   0.715  0.2042 -0.5781 -0.2741
  696MOL0     O95918   6.718   7.287   0.649  0.4714  0.2373  1.0210
  696MOL0     C95919   6.748   7.249   0.511 -0.6424  0.2703 -0.1678
  696MOL0     C95920   6.698   7.348   0.412 -1.0166  0.5361  0.6208
  696MOL0     C95921   6.753   7.323   0.269 -0.3053 -0.2074 -0.5543
  696MOL0     C95922   6.738   7.453   0.185 -0.9264  0.6662  0.3627
  696MOL0     C95923   6.757   7.426   0.030 -0.2613  0.0364  0.2617
  696MOL0     C95924   6.653   7.330  -0.037 -0.3297  0.2637  0.0533
  696MOL0     C95925   6.506   7.334   0.010  1.1696 -0.6030 -0.1220
  696MOL0     C95926   6.431   7.460   0.031 -0.3760  0.5848  0.4181
  696MOL0     N95927   6.430   7.553  -0.085  0.2207  0.1553  0.2239
  696MOL0     C95928   6.493   7.678  -0.092  0.0445 -0.0118  0.2284
  696MOL0     C95929   6.442   7.737  -0.202  1.1295 -0.6861  0.1250
  696MOL0     C95930   6.475   7.870  -0.263 -0.1468  0.2171 -0.5331
  696MOL0     C95931   6.464   7.864  -0.416 -1.0484  0.6102 -0.1028
  696MOL0     C95932   6.515   7.996  -0.467  0.2346  0.3602 -0.9111
  696MOL0     C95933   6.606   7.964  -0.588 -0.3702 -0.7520 -0.0144
  696MOL0     O95934   6.528   7.927  -0.705 -0.2435  0.3597  0.0703
  696MOL0     C95935   6.461   8.016  -0.789 -0.8032  0.2891 -0.7415
  696MOL0     C95936   6.385   7.950  -0.882  0.5741 -0.4827 -0.1138
  696MOL0     C95937   6.313   8.022  -0.978 -0.6922 -0.1237 -0.0936
  696MOL0     C95938   6.211   7.944  -1.065 -0.0140  0.7154 -0.4701
  696MOL0     C95939   6.337   8.165  -0.992 -0.6073  0.6000  0.2363
  696MOL0     C95940   6.270   8.247  -1.093 -0.3412  0.4229 -0.1873
  696MOL0     O95941   6.345   8.349  -1.138  0.6882  0.1029 -0.6171
  696MOL0     C95942   6.278   8.443  -1.207  0.4980  0.5323  0.5965
  696MOL0     C95943   6.269   8.432  -1.344 -0.2870  0.2583  0.5186
  696MOL0     C95944   6.211   8.533  -1.427  0.4372  0.2542  0.4094
  696MOL0     C95945   6.174   8.653  -1.366  0.1501  0.2222  0.1451
  696MOL0     O95946   6.121   8.752  -1.448  0.1189  0.4155 -0.9470
  696MOL0     C95947   6.137   8.743  -1.592  1.0659  0.4348  0.4354
  696MOL0     C95948   6.099   8.871  -1.660  1.1422  0.4771 -0.8184
  696MOL0     C95949   6.107   8.850  -1.812  0.4529  0.4697 -0.9404
  696MOL0     C95950   6.010   8.921  -1.904  0.4203 -0.9589  0.0384
  696MOL0     C95951   6.051   8.916  -2.041 -0.1770 -0.6431  0.5870
  696MOL0     C95952   5.973   9.014  -2.131 -0.4173 -0.0506  0.7718
  696MOL0     C95953   6.005   8.995  -2.281  0.2067  0.8122 -0.0375
  696MOL0     C95954   5.938   9.105  -2.361  0.3004 -0.5401  0.0453
  696MOL0    Cl95955   5.759   9.098  -2.368 -0.3754  0.3673 -0.0484
  696MOL0     C95956   6.176   8.664  -1.228  0.5213 -0.5044 -0.7718
  696MOL0     C95957   6.226   8.558  -1.147  0.1615 -0.4932  0.0084
  696MOL0     O95958   6.163   8.218  -1.138  0.6430 -0.0707  0.0259
  696MOL0     C95959   6.427   8.228  -0.911  0.8723  0.4605  0.3432
  696MOL0     C95960   6.484   8.150  -0.802 -0.4295 -0.4563  0.4257
  696MOL0     N95961   6.337   7.658  -0.247  0.4044  0.4723  0.0189
  696MOL0     N95962   6.337   7.550  -0.181  0.1931  0.0889 -0.1312
  696MOL0     C95963   6.749   7.436   0.833 -0.0443  0.2893  0.6114
  696MOL0     C95964   6.812   7.547   0.890  0.0070 -0.0864  0.2209
  696MOL0     C95965   7.170   7.707   1.108 -0.4923  0.3739 -1.1871
  696MOL0     C95966   7.285   7.658   1.179 -0.3586  0.3568 -0.1534
  696MOL0     C95967   7.345   7.739   1.282  0.4796 -0.8925  0.5922
  696MOL0     C95968   7.301   7.865   1.324  0.7635  0.8841 -0.3378
  696MOL0     O95969   7.348   7.951   1.423 -0.3882  0.4834 -0.0323
  696MOL0     C95970   7.460   7.904   1.507 -0.3061  0.5361  0.2909
  696MOL0     C95971   7.401   7.825   1.629 -0.5357  0.0863  0.4711
  696MOL0     C95972   7.350   7.922   1.740 -0.2603 -0.4102  0.1666
  696MOL0     C95973   7.242   8.017   1.694  0.1455  0.0611 -0.3784
  696MOL0     C95974   7.198   8.107   1.810  0.0174 -0.6921 -0.3212
  696MOL0     C95975   7.152   8.173   1.903 -0.8548  0.6189  0.3715
  696MOL0     C95976   7.182   7.909   1.261  0.5435  0.6727  0.4552
  696MOL0     C95977   7.115   7.836   1.162  0.0866  0.0527  0.0613
  696MOL0     C95978   6.997   7.905   1.111 -0.5428 -0.1344  0.0267
  696MOL0     H95979   7.098   7.541   0.721 -1.3260  0.3295  0.6450
  696MOL0     H95980   6.987   7.372   0.587  2.8604 -0.5593  1.2081
  696MOL0     H95981   6.708   7.152   0.481  2.2376 -0.5464 -1.7613
  696MOL0     H95982   6.856   7.242   0.495 -0.1591  2.5857  1.5875
  696MOL0     H95983   6.589   7.333   0.408 -0.6473 -2.5407 -2.0479
  696MOL0     H95984   6.730   7.444   0.453 -0.8289 -0.0477  1.8844
  696MOL0     H95985   6.858   7.296   0.278 -0.0658  1.1564  1.7078
  696MOL0     H95986   6.698   7.243   0.219  1.0538 -0.7015 -1.2955
  696MOL0     H95987   6.637   7.490   0.202 -0.3180  2.8534 -0.4663
  696MOL0     H95988   6.814   7.521   0.225 -0.7904  1.5302 -1.2928
  696MOL0     H95989   6.853   7.377   0.010 -0.1130  1.3205 -2.7186
  696MOL0     H95990   6.759   7.519  -0.027 -1.1086  0.0834  0.3032
  696MOL0     H95991   6.653   7.352  -0.144 -3.0188  1.1597  0.1725
  696MOL0     H95992   6.686   7.226  -0.033  0.7037  0.4655 -1.9904
  696MOL0     H95993   6.498   7.272   0.100 -3.9760  0.4142  0.4409
  696MOL0     H95994   6.434   7.285  -0.056 -0.5406 -2.4129  2.8992
  696MOL0     H95995   6.327   7.448   0.063 -1.5350 -0.7491 -3.3693
  696MOL0     H95996   6.472   7.522   0.112 -1.5646 -1.1353  2.4575
  696MOL0     H95997   6.573   7.709  -0.024 -1.2161  0.3951  1.5872
  696MOL0     H95998   6.573   7.896  -0.220 -1.1330 -1.1490  2.9139
  696MOL0     H95999   6.401   7.945  -0.237 -0.8331  0.1906 -2.3155
  696MOL0     H96000   6.525   7.781  -0.455 -2.7597 -0.1746 -1.2066
  696MOL0     H96001   6.368   7.844  -0.464 -1.6839  1.7174  0.6532
  696MOL0     H96002   6.420   8.049  -0.479 -0.3808 -0.8018 -1.3824
  696MOL0     H96003   6.575   8.050  -0.393 -0.8857  2.3876 -1.4220
  696MOL0     H96004   6.659   8.057  -0.610  1.1767 -1.6374 -0.1547
  696MOL0     H96005   6.675   7.883  -0.564  0.0517 -0.2922  0.3614
  696MOL0     H96006   6.381   7.843  -0.898 -2.5849  0.0310 -5.5208
  696MOL0     H96007   6.206   7.842  -1.026 -1.7818  1.2029  0.7109
  696MOL0     H96008   6.247   7.938  -1.168 -2.4735 -0.7601 -1.3202
  696MOL0     H96009   6.106   7.974  -1.062 -0.4456 -0.6972 -0.6134
  696MOL0     H96010   6.318   8.353  -1.400 -2.2570  0.8098 -2.1633
  696MOL0     H96011   6.196   8.517  -1.533  0.4381  1.2353  0.2591
  696MOL0     H96012   6.244   8.735  -1.611  0.9649  0.9207 -0.3727
  696MOL0     H96013   6.082   8.660  -1.637  0.2628  1.7898 -1.1743
  696MOL0     H96014   5.997   8.897  -1.629  0.6357 -3.3020  1.3364
  696MOL0     H96015   6.167   8.947  -1.619 -0.1031 -0.1365  2.7996
  696MOL0     H96016   6.100   8.743  -1.833  1.9770  0.4355 -1.4144
  696MOL0     H96017   6.212   8.876  -1.832  0.6611  0.4735  0.1205
  696MOL0     H96018   6.002   9.027  -1.878 -1.7136 -1.8610  3.8813
  696MOL0     H96019   5.908   8.883  -1.893  1.3727 -3.4228  1.2399
  696MOL0     H96020   6.155   8.948  -2.051 -0.2212 -0.7117 -0.1336
  696MOL0     H96021   6.046   8.815  -2.082 -0.6753 -0.6453  0.6464
  696MOL0     H96022   6.000   9.113  -2.093  0.2322  1.1067 -2.4019
  696MOL0     H96023   5.866   9.004  -2.111 -0.4396  0.3813  0.8687
  696MOL0     H96024   5.962   8.897  -2.305 -3.0521  1.3081  2.9522
  696MOL0     H96025   6.114   9.001  -2.281  0.2915 -0.3069 -0.8746
  696MOL0     H96026   5.984   9.105  -2.461 -1.7351 -1.2866 -0.9419
  696MOL0     H96027   5.967   9.192  -2.301  0.8646 -0.7528  0.0872
  696MOL0     H96028   6.139   8.755  -1.182 -0.5833 -1.0584 -0.5269
  696MOL0     H96029   6.228   8.571  -1.039 -2.0979  0.1893  0.0271
  696MOL0     H96030   6.446   8.333  -0.930  0.0723  0.5923  0.2426
  696MOL0     H96031   6.540   8.197  -0.722  0.9835  1.9768 -1.8263
  696MOL0     H96032   6.652   7.410   0.876  0.3715 -2.1732  0.1876
  696MOL0     H96033   6.772   7.578   0.986 -0.8145  0.4042 -0.2641
  696MOL0     H96034   7.327   7.567   1.139 -3.7824 -1.2726 -0.3563
  696MOL0     H96035   7.438   7.704   1.325  3.0113  1.0728 -2.8382
  696MOL0     H96036   7.529   7.841   1.450  1.0501  1.5046  0.8005
  696MOL0     H96037   7.511   7.994   1.543 -1.5967  0.8716  1.3582
  696MOL0     H96038   7.481   7.763   1.671 -1.4028 -0.1107  1.9325
  696MOL0     H96039   7.325   7.756   1.591  0.1053 -0.1785 -0.3561
  696MOL0     H96040   7.318   7.860   1.824 -1.9513  0.4003  0.1617
  696MOL0     H96041   7.436   7.977   1.779 -1.4351 -0.5419  3.1635
  696MOL0     H96042   7.161   7.964   1.643  0.6085  0.1524 -1.2246
  696MOL0     H96043   7.287   8.089   1.625  2.5880 -1.0427 -0.0559
  696MOL0     H96044   7.101   8.233   1.976 -1.0732  1.3689 -0.3783
  696MOL0     H96045   7.130   7.993   1.305 -0.7991  1.1976 -1.9622
  696MOL0     H96046   6.913   7.835   1.106  1.1944 -2.2345 -3.1837
  696MOL0     H96047   6.968   7.994   1.168 -0.5178  1.6918 -2.6325
  696MOL0     H96048   7.020   7.940   1.010  3.3135 -0.1859  0.7017
  697MOL0     O96049  10.412   4.109   8.326 -0.9940  0.0097  0.5366
  697MOL0     C96050  10.367   4.061   8.430  0.2575  0.5017 -0.7622
  697MOL0     O96051  10.332   4.138   8.537  0.2326 -0.0837 -0.1439
  697MOL0     C96052  10.370   4.265   8.533 -0.5544 -0.4471 -0.2674
  697MOL0     C96053  10.278   4.364   8.558  0.1650 -0.4093 -0.7091
  697MOL0     C96054  10.311   4.502   8.564 -0.0031  0.1180 -0.6338
  697MOL0     C96055  10.443   4.548   8.548 -0.5489  0.3419 -0.6679
  697MOL0     O96056  10.491   4.673   8.567  0.1974 -0.6666  1.0781
  697MOL0     C96057  10.425   4.742   8.671  0.3175 -0.4604  0.0440
  697MOL0     C96058  10.476   4.887   8.675 -0.9136  0.0466 -0.3189
  697MOL0     C96059  10.617   4.895   8.742  0.6322  0.0219  0.0101
  697MOL0     C96060  10.723   4.883   8.632  0.3179  0.3420 -1.2129
  697MOL0     C96061  10.866   4.887   8.703 -0.0496 -0.1030  0.7970
  697MOL0     C96062  10.971   4.890   8.601 -0.0010 -0.0063  0.7784
  697MOL0     C96063  11.106   4.952   8.628  0.4006 -0.3557  0.0434
  697MOL0     C96064  11.169   4.905   8.756 -0.5143 -0.0841 -0.7803
  697MOL0     N96065  11.257   5.007   8.817  0.1138  0.3172 -0.4036
  697MOL0     C96066  11.383   5.033   8.776 -0.3407  0.9484 -0.1662
  697MOL0     C96067  11.427   5.121   8.865  0.1090  0.5852 -0.4089
  697MOL0     C96068  11.559   5.193   8.866 -0.6879  0.2227  0.6717
  697MOL0     C96069  11.578   5.297   8.760  0.0208  0.2693 -0.0776
  697MOL0     C96070  11.710   5.377   8.773  0.1054 -0.9856 -0.2709
  697MOL0     C96071  11.722   5.493   8.670  0.5549 -0.3268 -0.9519
  697MOL0     O96072  11.720   5.449   8.533 -0.6216 -0.1257 -0.2477
  697MOL0     C96073  11.822   5.370   8.471  0.3989 -0.4392 -0.3139
  697MOL0     C96074  11.775   5.318   8.355 -0.1275  0.9345 -0.5450
  697MOL0     C96075  11.857   5.236   8.271 -0.6070  0.1093 -0.5807
  697MOL0     C96076  11.794   5.206   8.141 -0.1293 -0.1955  1.0064
  697MOL0     C96077  11.980   5.189   8.316 -1.0607 -0.5280 -0.0610
  697MOL0     C96078  12.084   5.112   8.237 -0.8425  0.6180 -0.0030
  697MOL0     O96079  12.052   5.072   8.108  0.2558  0.0816 -0.1622
  697MOL0     C96080  12.140   5.099   8.010 -0.4031  0.4884  0.7080
  697MOL0     C96081  12.219   5.215   8.008 -0.0832  0.5301 -0.7308
  697MOL0     C96082  12.290   5.247   7.896  0.3545 -0.0157 -0.6057
  697MOL0     C96083  12.289   5.160   7.786  0.7085  0.3271  0.2851
  697MOL0     O96084  12.356   5.197   7.676  0.3580 -0.8253  0.4586
  697MOL0     C96085  12.391   5.113   7.563  0.1882 -0.5757 -0.3376
  697MOL0     C96086  12.532   5.148   7.508 -1.2584 -0.6842 -1.1554
  697MOL0     C96087  12.638   5.158   7.617  1.3517  0.5148 -0.0398
  697MOL0     C96088  12.696   5.023   7.659 -0.3760 -0.7405  0.2132
  697MOL0     C96089  12.776   5.040   7.789 -0.5112 -0.5529 -0.0763
  697MOL0     C96090  12.887   4.936   7.796  0.9312  0.2109 -0.9253
  697MOL0     C96091  12.825   4.795   7.794 -0.2204  0.2866 -0.6329
  697MOL0     C96092  12.932   4.693   7.754 -0.5102 -0.5552 -1.0205
  697MOL0    Cl96093  12.881   4.521   7.781 -0.0340  0.0149 -0.2672
  697MOL0     C96094  12.206   5.045   7.788 -0.0056 -0.0757  0.3682
  697MOL0     C96095  12.134   5.014   7.902 -0.0466  0.3814  0.1440
  697MOL0     O96096  12.189   5.085   8.293 -0.1377 -0.2728 -0.3140
  697MOL0     C96097  12.021   5.237   8.445  0.1216 -0.7246 -0.1687
  697MOL0     C96098  11.945   5.332   8.518 -0.0634  0.9754  0.1853
  697MOL0     N96099  11.329   5.143   8.962  0.1835 -0.4891  0.0376
  697MOL0     N96100  11.225   5.076   8.928 -0.1562  0.2149 -0.4380
  697MOL0     C96101  10.544   4.443   8.519 -0.4226 -0.1809 -0.5947
  697MOL0     C96102  10.501   4.309   8.519  0.2617  1.2674 -0.1941
  697MOL0     C96103  10.361   3.909   8.445 -0.8464 -0.0044  0.3673
  697MOL0     C96104  10.281   3.863   8.543  0.8416 -0.3379 -0.4445
  697MOL0     C96105  10.260   3.725   8.571  0.1088 -0.7423  0.7552
  697MOL0     C96106  10.322   3.630   8.501  0.7430  0.2843  1.1437
  697MOL0     O96107  10.293   3.499   8.513  0.1508 -0.3963  0.5806
  697MOL0     C96108  10.391   3.394   8.502 -1.2143  0.1784  0.1175
  697MOL0     C96109  10.388   3.315   8.371 -0.7571  0.7072  0.1248
  697MOL0     C96110  10.244   3.295   8.309 -0.0740 -0.1820  0.3945
  697MOL0     C96111  10.141   3.227   8.396 -0.0909 -0.1166  0.1896
  697MOL0     C96112  10.010   3.247   8.325 -0.2939  0.5108  0.2907
  697MOL0     C96113   9.903   3.240   8.266 -0.0006 -0.1842  0.0345
  697MOL0     C96114  10.408   3.677   8.401  1.1029  0.1990  0.3682
  697MOL0     C96115  10.424   3.810   8.369 -0.5650 -0.8520  0.0645
  697MOL0     C96116  10.533   3.848   8.269  0.8125  0.3228 -0.7387
  697MOL0     H96117  10.175   4.333   8.571 -0.9168  3.1427  0.3943
  697MOL0     H96118  10.224   4.561   8.589  0.3300  0.9778 -1.4618
  697MOL0     H96119  10.436   4.688   8.766 -1.8995 -0.0469  0.6089
  697MOL0     H96120  10.318   4.758   8.652  0.0422 -1.6949  0.4763
  697MOL0     H96121  10.473   4.921   8.571 -3.8505 -1.9728 -1.0473
  697MOL0     H96122  10.418   4.955   8.738 -2.2368 -1.0648 -0.2643
  697MOL0     H96123  10.619   4.994   8.788 -0.9225  1.5151 -2.8495
  697MOL0     H96124  10.637   4.814   8.812  2.7509  0.6176  0.1785
  697MOL0     H96125  10.720   4.794   8.569 -0.4836 -0.7750  0.3412
  697MOL0     H96126  10.696   4.972   8.574  0.3725  0.6766 -0.7296
  697MOL0     H96127  10.893   4.807   8.772  0.1680 -0.1869  0.6153
  697MOL0     H96128  10.876   4.986   8.748  1.3269  2.3996 -4.2421
  697MOL0     H96129  10.997   4.788   8.571 -0.4853 -0.0732  0.5820
  697MOL0     H96130  10.941   4.934   8.506  3.3315  2.1553  0.5442
  697MOL0     H96131  11.085   5.058   8.640  0.8533 -0.2848  0.2506
  697MOL0     H96132  11.169   4.942   8.540  0.3333 -1.5703  0.1104
  697MOL0     H96133  11.101   4.858   8.828  0.3650 -0.9850 -0.5087
  697MOL0     H96134  11.237   4.821   8.734 -0.4022 -0.2605  0.2106
  697MOL0     H96135  11.432   4.998   8.686 -0.8993  0.9182 -0.4571
  697MOL0     H96136  11.626   5.113   8.834  1.2191  1.2405  1.9260
  697MOL0     H96137  11.598   5.227   8.962 -0.6368  0.6422  0.5041
  697MOL0     H96138  11.572   5.254   8.660 -3.1665  0.1242  0.0679
  697MOL0     H96139  11.491   5.363   8.771 -2.1903 -2.4161 -0.4245
  697MOL0     H96140  11.702   5.429   8.869  2.6403 -0.5237 -0.2245
  697MOL0     H96141  11.796   5.309   8.775  1.0198  0.1368 -0.1467
  697MOL0     H96142  11.643   5.567   8.687  2.6113  1.7203  0.3192
  697MOL0     H96143  11.817   5.540   8.697 -0.6962  0.7439  2.0935
  697MOL0     H96144  11.681   5.361   8.322  0.6613  2.7629 -0.5514
  697MOL0     H96145  11.699   5.259   8.135  0.5051  1.0742  1.7787
  697MOL0     H96146  11.778   5.098   8.130  0.3575 -0.0443 -1.9581
  697MOL0     H96147  11.858   5.249   8.063 -2.2501  1.0011 -0.1703
  697MOL0     H96148  12.235   5.272   8.099  4.7544 -0.0406 -1.0136
  697MOL0     H96149  12.363   5.327   7.896  0.0886  0.2852 -2.6952
  697MOL0     H96150  12.379   5.008   7.591 -1.8495 -0.4916 -0.7351
  697MOL0     H96151  12.315   5.126   7.486 -0.0339 -2.1286 -0.4067
  697MOL0     H96152  12.572   5.073   7.440  3.0464  2.1519 -2.1308
  697MOL0     H96153  12.526   5.247   7.462 -1.8182  1.0499  2.2838
  697MOL0     H96154  12.603   5.223   7.698 -1.0857  0.6890 -1.1500
  697MOL0     H96155  12.724   5.204   7.568  2.9213 -1.3902  0.7810
  697MOL0     H96156  12.763   4.989   7.579  0.2067 -0.3748  0.5363
  697MOL0     H96157  12.623   4.944   7.678  1.2349 -2.3585 -0.0420
  697MOL0     H96158  12.828   5.136   7.794 -1.3171 -0.1418  0.6294
  697MOL0     H96159  12.722   5.048   7.884  2.2179 -0.5015  1.5909
  697MOL0     H96160  12.947   4.948   7.886 -1.4858  0.1011  0.8107
  697MOL0     H96161  12.956   4.944   7.712  1.8960  0.2157 -0.1454
  697MOL0     H96162  12.741   4.782   7.725 -0.9726  0.4521  0.2295
  697MOL0     H96163  12.786   4.767   7.892 -0.1031  0.6787 -0.4748
  697MOL0     H96164  13.026   4.714   7.806 -0.3387 -0.3030 -1.4211
  697MOL0     H96165  12.946   4.700   7.645 -0.1975 -0.6124 -0.9838
  697MOL0     H96166  12.207   4.979   7.702 -0.6033  0.6265 -0.1831
  697MOL0     H96167  12.065   4.930   7.903  0.5292 -0.0985  0.3262
  697MOL0     H96168  12.122   5.218   8.479  0.3715 -0.1445 -0.5877
  697MOL0     H96169  11.980   5.353   8.618  0.4373 -2.1972  0.7706
  697MOL0     H96170  10.648   4.469   8.502 -1.1098  3.4175 -0.2049
  697MOL0     H96171  10.575   4.233   8.496  0.0601  0.5248  1.4957
  697MOL0     H96172  10.231   3.933   8.609  0.4942  0.4702 -1.5502
  697MOL0     H96173  10.189   3.695   8.647 -0.5554  0.9511  0.8454
  697MOL0     H96174  10.490   3.438   8.514 -1.1255  0.1626 -0.5389
  697MOL0     H96175  10.378   3.326   8.587 -0.1435 -0.0457  0.1184
  697MOL0     H96176  10.438   3.217   8.372  0.6878  1.3844 -1.4512
  697MOL0     H96177  10.456   3.368   8.304 -0.4934 -0.8186 -0.8777
  697MOL0     H96178  10.215   3.398   8.283  0.3438 -0.0192  0.5686
  697MOL0     H96179  10.250   3.240   8.214 -0.8829  2.2022 -1.1356
  697MOL0     H96180  10.131   3.275   8.494 -0.0632 -1.1659  0.7222
  697MOL0     H96181  10.166   3.121   8.392 -0.0549 -0.0865 -0.4775
  697MOL0     H96182   9.816   3.230   8.203  0.7302  4.2462 -2.0917
  697MOL0     H96183  10.467   3.606   8.343 -0.7763 -2.5440  1.5946
  697MOL0     H96184  10.605   3.917   8.316 -1.0751  1.6454  0.3528
  697MOL0     H96185  10.577   3.751   8.246 -0.9535 -0.8496  0.6132
  697MOL0     H96186  10.500   3.894   8.176 -0.3698  0.0392 -0.4717
  698MOL0     O96187   9.977   3.010   1.183  0.3396  0.0290 -0.2607
  698MOL0     C96188  10.043   2.953   1.271  0.2380  0.2098 -1.1548
  698MOL0     O96189  10.087   3.008   1.387  0.6108 -0.5744 -0.3432
  698MOL0     C96190  10.040   3.131   1.413  0.4659 -1.4733 -0.4357
  698MOL0     C96191   9.905   3.160   1.430  0.3488 -0.5200 -0.1116
  698MOL0     C96192   9.870   3.291   1.457 -0.2454  0.0436  0.2711
  698MOL0     C96193   9.965   3.390   1.477  0.3280 -0.4706 -0.2709
  698MOL0     O96194   9.923   3.519   1.504 -0.0765 -0.2154  0.1049
  698MOL0     C96195  10.021   3.612   1.552  0.0933  0.0116 -0.0557
  698MOL0     C96196   9.948   3.726   1.602 -0.5204  0.2217 -0.3264
  698MOL0     C96197   9.917   3.843   1.503  1.7131  0.7002  0.3501
  698MOL0     C96198   9.878   3.960   1.587 -0.0856  0.2503  0.0506
  698MOL0     C96199   9.762   3.932   1.694 -0.6273  0.0327 -0.3726
  698MOL0     C96200   9.640   3.871   1.637  0.0776 -0.3372  0.1099
  698MOL0     C96201   9.529   3.869   1.754  0.2442 -0.8942  0.5155
  698MOL0     C96202   9.407   3.789   1.699 -0.1600  0.0061 -0.9056
  698MOL0     N96203   9.305   3.766   1.809  0.6470 -0.2514 -0.3573
  698MOL0     C96204   9.276   3.632   1.861  0.4211 -0.5877 -0.8306
  698MOL0     C96205   9.184   3.648   1.962  0.2682  0.3181  0.3601
  698MOL0     C96206   9.123   3.531   2.037 -0.5921 -0.0325 -0.0477
  698MOL0     C96207   8.971   3.540   2.010 -0.7009  0.2423 -0.6345
  698MOL0     C96208   8.907   3.477   2.133  0.1955  0.3655  0.0597
  698MOL0     C96209   8.749   3.477   2.115 -0.1378  0.4023  0.6437
  698MOL0     O96210   8.706   3.383   2.211  0.0123  1.1639 -0.3947
  698MOL0     C96211   8.570   3.368   2.207 -0.0630 -0.6254  0.2812
  698MOL0     C96212   8.488   3.400   2.093  0.6327 -0.4769  0.6788
  698MOL0     C96213   8.350   3.400   2.108 -0.6908  0.4221  0.5407
  698MOL0     C96214   8.273   3.484   2.005  0.6507 -0.8844 -0.3407
  698MOL0     C96215   8.288   3.364   2.226 -0.7567  0.4091  0.0137
  698MOL0     C96216   8.146   3.357   2.242  0.6712 -0.2905 -0.1949
  698MOL0     O96217   8.099   3.399   2.362  0.3276 -0.1097  0.3437
  698MOL0     C96218   7.971   3.373   2.399  0.1757  0.2961 -0.0812
  698MOL0     C96219   7.863   3.426   2.326 -0.0553  0.1322 -0.8365
  698MOL0     C96220   7.735   3.377   2.347  0.3997  0.5125 -0.2361
  698MOL0     C96221   7.708   3.287   2.449 -0.4030  1.1319  0.2949
  698MOL0     O96222   7.584   3.250   2.495 -0.7991  0.4527  0.4861
  698MOL0     C96223   7.488   3.208   2.393  0.9526 -0.2882 -0.0330
  698MOL0     C96224   7.368   3.148   2.457  0.1840  0.6092  0.0505
  698MOL0     C96225   7.280   3.255   2.519 -0.4457 -0.4898 -0.8638
  698MOL0     C96226   7.169   3.183   2.599 -0.2898  0.1154  0.1622
  698MOL0     C96227   7.056   3.285   2.637  0.7403  0.4414  0.5814
  698MOL0     C96228   6.924   3.218   2.646  0.1889 -0.1341  0.5849
  698MOL0     C96229   6.906   3.159   2.778  0.4844 -0.9255 -0.3337
  698MOL0     C96230   6.767   3.093   2.782  0.2148 -0.5026 -0.0806
  698MOL0    Cl96231   6.629   3.210   2.780  0.0932 -0.0987 -0.0426
  698MOL0     C96232   7.817   3.243   2.525 -0.0891  0.7467  0.2866
  698MOL0     C96233   7.949   3.294   2.511  0.5063 -0.0595 -0.8223
  698MOL0     O96234   8.073   3.339   2.144 -0.0823 -0.2823  0.0342
  698MOL0     C96235   8.364   3.323   2.335  0.0220  0.1074  0.9144
  698MOL0     C96236   8.503   3.332   2.324 -0.2816 -0.3659  0.4179
  698MOL0     N96237   9.145   3.788   1.954 -0.0150  0.2949  0.3931
  698MOL0     N96238   9.220   3.857   1.860  0.4671  0.0983 -0.2505
  698MOL0     C96239  10.101   3.360   1.471  0.0780 -0.0614 -0.6617
  698MOL0     C96240  10.139   3.229   1.446  0.0497 -0.4588 -0.3815
  698MOL0     C96241  10.080   2.818   1.240 -0.3041 -0.4306  0.2537
  698MOL0     C96242  10.201   2.770   1.289 -0.4162  0.2567  0.7012
  698MOL0     C96243  10.239   2.638   1.271 -0.3729  1.4610 -0.1003
  698MOL0     C96244  10.148   2.539   1.208 -0.6461 -0.5084 -0.2981
  698MOL0     O96245  10.187   2.406   1.196  1.3134  0.0004  0.2274
  698MOL0     C96246  10.306   2.359   1.235  0.2643  0.4776  0.0003
  698MOL0     C96247  10.324   2.222   1.179 -0.0813 -0.1447  0.1787
  698MOL0     C96248  10.445   2.154   1.239  0.5822 -0.5514 -0.2993
  698MOL0     C96249  10.461   2.010   1.177 -0.3288 -0.2715 -0.4799
  698MOL0     C96250  10.349   1.926   1.229  0.4744 -0.6136  0.1361
  698MOL0     C96251  10.267   1.856   1.279 -0.7654 -0.3607 -0.0182
  698MOL0     C96252  10.021   2.589   1.163 -0.8170  1.0097  0.8533
  698MOL0     C96253   9.996   2.721   1.173 -0.3037  0.6071  0.5849
  698MOL0     C96254   9.861   2.761   1.120 -0.0357  0.6240 -0.2386
  698MOL0     H96255   9.841   3.073   1.418 -1.9201  1.0153  0.2283
  698MOL0     H96256   9.763   3.310   1.453 -1.0974 -3.9749 -1.5252
  698MOL0     H96257  10.082   3.639   1.466  1.7208 -0.9213  0.7475
  698MOL0     H96258  10.086   3.581   1.635  0.6129 -1.0907 -0.8519
  698MOL0     H96259   9.854   3.691   1.647 -0.1103  0.1157  0.4599
  698MOL0     H96260  10.014   3.767   1.678  0.3848 -2.4273  0.4445
  698MOL0     H96261  10.004   3.876   1.446  1.8831  0.1604  0.2922
  698MOL0     H96262   9.848   3.802   1.429  2.6977 -1.6125  0.6137
  698MOL0     H96263   9.971   3.987   1.637 -0.7391  1.4544  0.6625
  698MOL0     H96264   9.851   4.041   1.518  0.1564 -1.1168 -1.7179
  698MOL0     H96265   9.738   4.026   1.744  2.2346  0.5698  0.2044
  698MOL0     H96266   9.809   3.867   1.769 -1.3682 -1.6744 -1.3563
  698MOL0     H96267   9.608   3.921   1.546 -5.3359  0.0269  1.8472
  698MOL0     H96268   9.668   3.769   1.610  0.9398 -0.0064 -0.2589
  698MOL0     H96269   9.509   3.973   1.781  0.2596 -1.2152  1.8588
  698MOL0     H96270   9.556   3.827   1.852  0.0234  1.8186  1.8274
  698MOL0     H96271   9.357   3.848   1.622  1.0764  0.2670 -1.5364
  698MOL0     H96272   9.440   3.692   1.660  1.8713 -0.7445  2.2556
  698MOL0     H96273   9.322   3.537   1.839 -2.4166 -1.7786 -2.1634
  698MOL0     H96274   9.148   3.530   2.144 -2.3301 -1.9927  0.3842
  698MOL0     H96275   9.164   3.435   2.005  2.7222 -0.7293  5.1824
  698MOL0     H96276   8.939   3.644   2.005  0.5225  0.6502 -0.4085
  698MOL0     H96277   8.949   3.484   1.918  0.7256  0.4626 -1.1334
  698MOL0     H96278   8.927   3.370   2.143  0.4098  0.3516 -0.4843
  698MOL0     H96279   8.938   3.531   2.224  3.1327 -0.5795 -0.2579
  698MOL0     H96280   8.707   3.577   2.125 -0.7935  0.3921 -1.5688
  698MOL0     H96281   8.726   3.450   2.011 -2.9785  1.1707  0.9669
  698MOL0     H96282   8.522   3.436   1.996  0.0269  0.8364  0.9336
  698MOL0     H96283   8.208   3.551   2.061 -0.0287 -0.2891 -1.8049
  698MOL0     H96284   8.205   3.427   1.941 -0.3253  0.7263 -0.7889
  698MOL0     H96285   8.323   3.543   1.928  0.7942 -3.3089 -2.2516
  698MOL0     H96286   7.885   3.498   2.248  4.2664 -0.1818 -0.1627
  698MOL0     H96287   7.650   3.431   2.304  1.9447  3.5110  0.1861
  698MOL0     H96288   7.457   3.295   2.334  1.6652  1.7828  2.4751
  698MOL0     H96289   7.536   3.130   2.334 -0.3632 -0.6668 -0.6378
  698MOL0     H96290   7.318   3.086   2.382  4.6719 -0.5422 -2.3445
  698MOL0     H96291   7.403   3.076   2.531  0.9775  1.1637  0.2353
  698MOL0     H96292   7.229   3.307   2.438  1.4963  0.6778 -1.3996
  698MOL0     H96293   7.336   3.333   2.572  0.7773 -2.6728  1.3044
  698MOL0     H96294   7.218   3.139   2.686 -1.9033 -2.8656 -0.3050
  698MOL0     H96295   7.136   3.093   2.545 -0.6392  0.1489  0.3182
  698MOL0     H96296   7.079   3.335   2.732  1.7499 -2.2656  1.8629
  698MOL0     H96297   7.048   3.363   2.560 -0.8145 -0.7883 -0.5553
  698MOL0     H96298   6.911   3.134   2.577  0.1794  1.2613 -1.1739
  698MOL0     H96299   6.850   3.297   2.625 -1.9651 -1.9239  1.0418
  698MOL0     H96300   6.895   3.250   2.838 -2.5725 -0.8298 -0.8696
  698MOL0     H96301   6.982   3.095   2.824 -0.5021  0.2405  3.2115
  698MOL0     H96302   6.753   3.030   2.870 -0.8738  0.1575  0.2377
  698MOL0     H96303   6.750   3.025   2.698  0.0495 -1.3215  0.6034
  698MOL0     H96304   7.794   3.175   2.607 -2.0697 -2.9714 -2.9672
  698MOL0     H96305   8.029   3.257   2.574  0.8893  5.4435  2.5760
  698MOL0     H96306   8.331   3.277   2.427  1.2564  0.4759  1.5768
  698MOL0     H96307   8.564   3.311   2.411  2.6133 -1.3439 -1.6878
  698MOL0     H96308  10.179   3.434   1.486  1.1257 -1.6689  2.8738
  698MOL0     H96309  10.244   3.210   1.427  0.6803  2.5141 -0.4385
  698MOL0     H96310  10.267   2.840   1.338 -3.0456  1.1610  3.2255
  698MOL0     H96311  10.344   2.614   1.284 -0.6507  0.5249  0.5519
  698MOL0     H96312  10.387   2.421   1.196 -0.6254  0.4611 -1.9907
  698MOL0     H96313  10.314   2.358   1.345  0.9745  2.6019  0.0008
  698MOL0     H96314  10.348   2.235   1.073 -3.0060 -0.6241 -0.6173
  698MOL0     H96315  10.236   2.159   1.197 -2.0156  1.6209 -2.5141
  698MOL0     H96316  10.528   2.221   1.215  0.5068 -0.9710 -1.8624
  698MOL0     H96317  10.432   2.145   1.347  0.5618 -3.7913 -0.4779
  698MOL0     H96318  10.560   1.972   1.204  0.1308  0.8224 -0.5649
  698MOL0     H96319  10.467   2.012   1.068 -0.7789  2.0348 -0.5066
  698MOL0     H96320  10.216   1.775   1.327 -0.4124 -0.0331  0.9240
  698MOL0     H96321   9.962   2.518   1.107 -1.1136  3.6909 -2.5890
  698MOL0     H96322   9.787   2.761   1.200 -4.2494 -1.6626 -3.6998
  698MOL0     H96323   9.866   2.855   1.064  0.7232  1.0789  0.5751
  698MOL0     H96324   9.818   2.680   1.060 -1.5484  0.4121  1.0730
  699MOL0     O96325   1.020   8.233   0.773  0.0453  0.3924  0.7756
  699MOL0     C96326   1.052   8.276   0.659 -0.3497 -0.4622 -0.0719
  699MOL0     O96327   1.165   8.258   0.587 -0.7763 -0.1597 -0.0634
  699MOL0     C96328   1.256   8.165   0.622  0.5564 -0.5661 -0.3788
  699MOL0     C96329   1.391   8.212   0.658  0.2618  0.5454 -0.6801
  699MOL0     C96330   1.492   8.120   0.688  0.2857  0.4422  1.1399
  699MOL0     C96331   1.465   7.982   0.683 -0.7658  0.7832  0.8812
  699MOL0     O96332   1.550   7.885   0.731 -0.0293 -0.0709  0.5898
  699MOL0     C96333   1.687   7.913   0.720  0.5977 -0.1693 -0.1872
  699MOL0     C96334   1.776   7.782   0.734  0.0725  0.4387 -0.8502
  699MOL0     C96335   1.930   7.798   0.727 -0.0985 -0.4531  0.4209
  699MOL0     C96336   1.998   7.660   0.756  0.4478  0.1660  0.5867
  699MOL0     C96337   1.985   7.551   0.654 -0.7196  0.0392  0.1593
  699MOL0     C96338   2.061   7.425   0.691  0.0855  0.0563 -0.5514
  699MOL0     C96339   2.038   7.325   0.569 -0.5000 -0.2714 -0.5528
  699MOL0     C96340   2.124   7.199   0.595  0.7285  0.3076  0.7247
  699MOL0     N96341   2.069   7.088   0.504 -0.2001 -0.3755  0.6801
  699MOL0     C96342   2.059   6.952   0.541 -0.3503 -0.3166  0.6761
  699MOL0     C96343   2.051   6.879   0.424  0.6282 -0.4924 -0.0994
  699MOL0     C96344   2.026   6.734   0.401 -0.5812  0.0170 -0.2364
  699MOL0     C96345   2.167   6.664   0.372 -0.3027 -0.0841  0.0179
  699MOL0     C96346   2.214   6.702   0.233 -0.2204  0.4249  0.2391
  699MOL0     C96347   2.363   6.670   0.210  0.0765  1.0399 -0.0664
  699MOL0     O96348   2.439   6.753   0.303 -0.3236  0.9044 -0.3300
  699MOL0     C96349   2.478   6.713   0.427  1.2234 -0.0288  0.8873
  699MOL0     C96350   2.503   6.812   0.513 -0.3880 -0.6879 -0.5620
  699MOL0     C96351   2.552   6.784   0.644  1.6014  0.5067 -0.1710
  699MOL0     C96352   2.610   6.907   0.715 -0.3646 -0.8807 -0.6708
  699MOL0     C96353   2.556   6.652   0.688 -0.6589 -0.7559  0.5067
  699MOL0     C96354   2.589   6.609   0.820 -0.1481  0.0252 -0.4837
  699MOL0     O96355   2.622   6.473   0.836  0.1016  0.1160 -0.0424
  699MOL0     C96356   2.629   6.411   0.959 -0.4504  0.7076 -0.0610
  699MOL0     C96357   2.545   6.295   0.983  1.0434 -0.3229 -0.4483
  699MOL0     C96358   2.540   6.242   1.115  0.6147  0.7830  0.4044
  699MOL0     C96359   2.623   6.296   1.216  0.0781  0.0469  0.0569
  699MOL0     O96360   2.610   6.264   1.351 -0.7405 -0.8202 -0.8481
  699MOL0     C96361   2.591   6.126   1.373 -0.4329  0.8425 -0.7604
  699MOL0     C96362   2.668   6.068   1.494 -0.0909  0.2836 -0.5856
  699MOL0     C96363   2.821   6.060   1.482 -0.8756 -0.1071  0.6665
  699MOL0     C96364   2.887   6.002   1.608 -0.4542  0.1007 -0.9306
  699MOL0     C96365   3.027   5.953   1.577 -0.1460  0.7073  1.0084
  699MOL0     C96366   3.036   5.831   1.479 -0.8204 -0.2691  0.0743
  699MOL0     C96367   3.177   5.784   1.451 -0.4041 -0.5121 -0.3951
  699MOL0     C96368   3.177   5.697   1.320 -0.2395 -0.2918  0.8049
  699MOL0    Cl96369   3.085   5.547   1.350 -0.4725  0.0848 -0.2886
  699MOL0     C96370   2.720   6.389   1.188  0.2317 -0.4445  0.0996
  699MOL0     C96371   2.723   6.454   1.060 -0.5645 -0.0284  0.3355
  699MOL0     O96372   2.588   6.692   0.914 -0.8006 -0.9126 -0.5854
  699MOL0     C96373   2.524   6.551   0.601 -0.0094 -0.1236 -0.5840
  699MOL0     C96374   2.491   6.579   0.466  0.0881 -0.0430  0.5263
  699MOL0     N96375   2.048   6.981   0.323 -0.2724  0.8411 -0.1757
  699MOL0     N96376   2.065   7.094   0.368  0.9466 -0.2615 -0.6753
  699MOL0     C96377   1.341   7.937   0.655  0.6015 -0.7333  0.1273
  699MOL0     C96378   1.235   8.031   0.615 -0.2394 -0.6765 -0.5522
  699MOL0     C96379   0.951   8.369   0.596  0.4710  0.2008  0.1005
  699MOL0     C96380   0.983   8.430   0.397 -0.6168 -0.9743 -0.4234
  699MOL0     C96381   0.842   8.560   0.301  0.0363 -0.1431 -0.3789
  699MOL0     C96382   0.679   8.632   0.409  0.0733 -0.6442 -0.0196
  699MOL0     O96383   0.592   8.714   0.348 -0.7271 -0.4739 -0.3157
  699MOL0     C96384   0.455   8.712   0.401  0.4806  0.4882 -0.4189
  699MOL0     C96385   0.385   8.579   0.397 -0.0738 -0.2654  0.3166
  699MOL0     C96386   0.376   8.522   0.255 -1.5355  0.2252  0.4482
  699MOL0     C96387   0.231   8.520   0.204  0.0532 -0.4161  0.5590
  699MOL0     C96388   0.242   8.451   0.075  0.6841 -0.4701 -0.3638
  699MOL0     C96389   0.231   8.409  -0.037 -0.3180 -0.5051  0.3757
  699MOL0     C96390   0.646   8.569   0.614  0.1914  0.1623 -0.7488
  699MOL0     C96391   0.783   8.442   0.702 -0.2520  1.3658 -0.2893
  699MOL0     C96392   0.762   8.428   0.844  0.3687 -0.2184 -0.9429
  699MOL0     H96393   1.411   8.317   0.672  0.5534  0.2694  1.2394
  699MOL0     H96394   1.594   8.156   0.692  0.3626  0.7224 -1.4593
  699MOL0     H96395   1.712   7.989   0.795 -1.2380  0.7425 -0.4698
  699MOL0     H96396   1.708   7.953   0.620 -1.3045 -2.6006 -1.6793
  699MOL0     H96397   1.740   7.742   0.829 -0.6763  0.6947 -1.0236
  699MOL0     H96398   1.760   7.705   0.657 -0.5339 -1.4196  1.0542
  699MOL0     H96399   1.960   7.844   0.633 -1.6311 -0.9628 -0.3525
  699MOL0     H96400   1.962   7.879   0.793 -2.8160  2.6445 -1.7446
  699MOL0     H96401   2.105   7.664   0.775  0.3158  2.1415  1.1186
  699MOL0     H96402   1.951   7.624   0.849 -0.8629 -1.9254 -0.7962
  699MOL0     H96403   2.019   7.601   0.563  1.4080  1.5379  1.6790
  699MOL0     H96404   1.880   7.520   0.645 -1.2373  1.5849  0.6788
  699MOL0     H96405   2.163   7.456   0.717 -0.5142  0.7315  1.1096
  699MOL0     H96406   2.011   7.372   0.772  1.8574 -0.2757  0.3566
  699MOL0     H96407   2.055   7.373   0.472  1.0178  2.1286  0.8074
  699MOL0     H96408   1.934   7.292   0.575  0.0459 -2.0958 -0.2042
  699MOL0     H96409   2.228   7.220   0.568  1.5370 -3.1967  0.6114
  699MOL0     H96410   2.133   7.176   0.701 -3.1231  0.4730  1.2304
  699MOL0     H96411   2.060   6.907   0.640 -1.3176 -0.4427  0.6349
  699MOL0     H96412   1.958   6.719   0.316  2.5975 -0.5664 -2.9093
  699MOL0     H96413   1.982   6.685   0.488 -0.5007 -1.3747 -0.9368
  699MOL0     H96414   2.236   6.699   0.450  1.8107  2.6034 -2.8444
  699MOL0     H96415   2.157   6.557   0.393  1.6818 -0.2760  0.1393
  699MOL0     H96416   2.156   6.647   0.158  0.9319  0.2351 -0.5315
  699MOL0     H96417   2.191   6.806   0.208 -2.6843 -0.7855 -3.3040
  699MOL0     H96418   2.380   6.563   0.223  0.3187  1.1043  0.1488
  699MOL0     H96419   2.398   6.700   0.110 -3.3459 -0.1463 -1.8011
  699MOL0     H96420   2.502   6.914   0.476 -1.5988 -0.8179 -0.9408
  699MOL0     H96421   2.695   6.887   0.782  2.4403 -1.9922 -4.2459
  699MOL0     H96422   2.539   6.959   0.780  1.4528  2.9427 -1.4287
  699MOL0     H96423   2.645   6.983   0.644 -0.2773  0.4495  0.7225
  699MOL0     H96424   2.489   6.263   0.896 -0.6549  1.6564 -0.1795
  699MOL0     H96425   2.470   6.164   1.143  0.4865 -0.1201 -2.1470
  699MOL0     H96426   2.482   6.114   1.378 -0.1646 -1.8285  1.7008
  699MOL0     H96427   2.634   6.062   1.295 -0.0595 -2.8240  2.1288
  699MOL0     H96428   2.648   6.133   1.580 -1.6685  0.8334 -1.3408
  699MOL0     H96429   2.637   5.963   1.507  0.9632  0.3100  3.7379
  699MOL0     H96430   2.849   6.163   1.459  0.4478 -0.4319  0.7778
  699MOL0     H96431   2.850   5.997   1.398  1.6285 -0.7921  1.9368
  699MOL0     H96432   2.835   5.930   1.673 -0.1636 -0.6218 -1.4841
  699MOL0     H96433   2.895   6.087   1.676 -1.1450 -1.2495  0.9416
  699MOL0     H96434   3.100   6.031   1.555 -1.8553  1.5960 -2.1533
  699MOL0     H96435   3.073   5.923   1.671 -1.4411 -0.6210  1.2650
  699MOL0     H96436   2.987   5.856   1.385 -1.6408 -0.6420  0.3888
  699MOL0     H96437   2.976   5.751   1.525 -0.6886 -0.0999  0.5441
  699MOL0     H96438   3.225   5.731   1.534  0.4377 -1.0755 -1.2206
  699MOL0     H96439   3.240   5.872   1.433  0.0235 -0.6226  0.4704
  699MOL0     H96440   3.275   5.651   1.305 -1.0737 -2.3508  1.2295
  699MOL0     H96441   3.145   5.742   1.225 -1.9237 -2.8272  0.0623
  699MOL0     H96442   2.777   6.427   1.272 -0.1609  1.1548 -0.3198
  699MOL0     H96443   2.791   6.533   1.029 -0.0279 -1.5827 -2.7337
  699MOL0     H96444   2.531   6.447   0.630  4.4676  0.1230 -0.0997
  699MOL0     H96445   2.475   6.498   0.396  0.6658  1.1290 -1.0168
  699MOL0     H96446   1.339   7.828   0.661  1.3710 -0.7094  1.0500
  699MOL0     H96447   1.136   7.991   0.595 -1.1034  0.8734  0.4337
  699MOL0     H96448   1.077   8.400   0.352  0.0187  0.2390  0.0599
  699MOL0     H96449   0.856   8.604   0.203 -3.6328  1.9940 -0.1087
  699MOL0     H96450   0.445   8.747   0.504  2.6269  0.6191 -0.2105
  699MOL0     H96451   0.397   8.778   0.335 -2.1429 -2.5108 -1.3511
  699MOL0     H96452   0.287   8.580   0.446 -0.6300  0.6099 -0.7648
  699MOL0     H96453   0.446   8.516   0.463  0.4606  1.2739  1.3581
  699MOL0     H96454   0.441   8.585   0.195 -1.5646  2.1296  2.2805
  699MOL0     H96455   0.417   8.421   0.246  1.8596  1.6397 -1.4085
  699MOL0     H96456   0.186   8.620   0.213  0.6893 -0.2623  2.5972
  699MOL0     H96457   0.161   8.460   0.263 -1.1484  0.2346 -0.1647
  699MOL0     H96458   0.228   8.382  -0.141  1.1039  2.5374 -0.5805
  699MOL0     H96459   0.560   8.594   0.675  0.4655 -4.4954  2.0076
  699MOL0     H96460   0.858   8.436   0.896 -0.6592  0.4716  0.9322
  699MOL0     H96461   0.708   8.518   0.874  1.6030  0.0762  0.5147
  699MOL0     H96462   0.708   8.336   0.869 -0.6236  0.3816 -0.8190
  700MOL0     O96463   1.667  11.150   7.493 -0.9631 -0.3221  0.3081
  700MOL0     C96464   1.561  11.092   7.513  0.1443  0.4215  0.8625
  700MOL0     O96465   1.538  10.968   7.457  0.7602  0.6666 -0.9955
  700MOL0     C96466   1.636  10.908   7.389  0.5739 -1.2695 -1.1576
  700MOL0     C96467   1.657  10.959   7.263 -0.0439 -0.5901  0.1012
  700MOL0     C96468   1.758  10.909   7.182  0.2282 -0.9284  0.2848
  700MOL0     C96469   1.842  10.809   7.232 -0.6588 -0.2338  0.9516
  700MOL0     O96470   1.959  10.781   7.165 -0.3610 -0.8769  0.0627
  700MOL0     C96471   2.068  10.872   7.205  1.0360  0.0986 -0.6891
  700MOL0     C96472   2.204  10.801   7.192 -0.2634  0.6100  0.6533
  700MOL0     C96473   2.211  10.665   7.270 -0.2973  0.4685  0.4391
  700MOL0     C96474   2.181  10.666   7.421  0.4387  0.0393 -0.1753
  700MOL0     C96475   2.156  10.528   7.478  0.4167  0.9329 -0.4054
  700MOL0     C96476   2.282  10.442   7.484 -0.7051 -0.0597  0.8316
  700MOL0     C96477   2.245  10.304   7.523  0.6702  0.4690 -0.1217
  700MOL0     C96478   2.335  10.214   7.444  0.5584 -0.1131  0.5463
  700MOL0     N96479   2.479  10.231   7.485  0.1369  0.5140 -0.9757
  700MOL0     C96480   2.541  10.137   7.553  0.1274  0.6902  0.6025
  700MOL0     C96481   2.671  10.182   7.560  0.0555  0.2234  0.2144
  700MOL0     C96482   2.788  10.117   7.641 -0.3800 -0.6289  0.8476
  700MOL0     C96483   2.890  10.227   7.684 -0.3052  0.1329 -0.2592
  700MOL0     C96484   2.987  10.165   7.783  0.2924 -0.0768 -0.1718
  700MOL0     C96485   3.104  10.252   7.802 -0.4420 -0.6088 -0.1863
  700MOL0     O96486   3.186  10.187   7.890  0.1462 -0.5264  0.6491
  700MOL0     C96487   3.186  10.214   8.022  0.7495 -0.2058  1.1801
  700MOL0     C96488   3.107  10.302   8.099  0.3512 -0.1041  0.4054
  700MOL0     C96489   3.115  10.302   8.246  0.3245  0.4327  0.2923
  700MOL0     C96490   3.020  10.390   8.315 -0.3818 -0.7459 -0.5121
  700MOL0     C96491   3.197  10.201   8.304  0.4264 -0.1646 -0.4489
  700MOL0     C96492   3.196  10.172   8.453 -0.7259  0.3788 -0.3702
  700MOL0     O96493   3.304  10.112   8.491 -0.3069 -0.0777 -0.1939
  700MOL0     C96494   3.323  10.069   8.626  0.9054  1.0211 -0.5769
  700MOL0     C96495   3.306  10.151   8.736  0.6532  0.0711  0.2817
  700MOL0     C96496   3.288  10.093   8.861 -0.7641 -1.1428 -0.7031
  700MOL0     C96497   3.319   9.955   8.874  0.5698 -0.1987  0.0208
  700MOL0     O96498   3.319   9.904   9.008  0.9164 -0.1627  0.4530
  700MOL0     C96499   3.367   9.769   9.023 -0.0323 -0.7509 -0.1010
  700MOL0     C96500   3.361   9.737   9.175 -0.0103 -0.9328  0.7388
  700MOL0     C96501   3.410   9.592   9.204  0.0769  0.6544  0.0088
  700MOL0     C96502   3.302   9.487   9.177 -0.2775 -0.5395 -0.4528
  700MOL0     C96503   3.344   9.340   9.213 -0.9787 -0.3165  0.3072
  700MOL0     C96504   3.452   9.307   9.104  0.3540 -1.8675 -0.1791
  700MOL0     C96505   3.501   9.164   9.090 -0.1707 -0.1869 -0.0192
  700MOL0     C96506   3.552   9.142   8.946 -0.1312 -0.1644  0.7950
  700MOL0    Cl96507   3.696   9.254   8.928 -0.5201  0.3535  0.0968
  700MOL0     C96508   3.354   9.872   8.758  0.3793  0.4602  0.0445
  700MOL0     C96509   3.354   9.940   8.641  0.1001  1.5986  0.2753
  700MOL0     O96510   3.096  10.189   8.521 -0.3044  0.3164  0.3242
  700MOL0     C96511   3.268  10.111   8.225 -0.0056  0.0560  1.2869
  700MOL0     C96512   3.263  10.115   8.084 -0.3054  0.0245  0.6859
  700MOL0     N96513   2.693  10.286   7.473  0.8682  0.0442 -0.1206
  700MOL0     N96514   2.573  10.314   7.429  0.5417  0.0337 -0.8077
  700MOL0     C96515   1.812  10.749   7.362  0.0456 -0.1911  0.6328
  700MOL0     C96516   1.707  10.794   7.436 -0.7024 -0.4623  0.2376
  700MOL0     C96517   1.443  11.158   7.581 -0.7135 -0.0740  0.1586
  700MOL0     C96518   1.319  11.094   7.564 -0.1484 -0.6093 -0.6365
  700MOL0     C96519   1.205  11.140   7.632  0.0970 -0.0538  0.4063
  700MOL0     C96520   1.213  11.255   7.711 -0.3083  0.0185  0.8970
  700MOL0     O96521   1.107  11.318   7.773 -0.4420  0.8834  0.7195
  700MOL0     C96522   0.974  11.302   7.722 -0.4858  0.3338 -0.0237
  700MOL0     C96523   0.864  11.381   7.802 -0.0961 -0.8217  1.0470
  700MOL0     C96524   0.722  11.359   7.779  0.3079  0.5679 -0.4655
  700MOL0     C96525   0.661  11.343   7.640 -0.5092  0.2801  0.6227
  700MOL0     C96526   0.676  11.198   7.617 -0.3219  0.3311  0.7324
  700MOL0     C96527   0.699  11.081   7.594 -0.0162  0.9955 -0.6257
  700MOL0     C96528   1.337  11.316   7.740 -0.8690 -0.5995  0.4757
  700MOL0     C96529   1.453  11.272   7.676  0.2155  0.7061 -0.3654
  700MOL0     C96530   1.591  11.326   7.724  0.4745 -0.5310  0.2214
  700MOL0     H96531   1.586  11.028   7.218  1.7806  2.0582  1.0558
  700MOL0     H96532   1.753  10.947   7.080 -1.8458  0.3159  0.7870
  700MOL0     H96533   2.054  10.898   7.310 -1.0711  0.6370 -1.0521
  700MOL0     H96534   2.071  10.969   7.153  3.2780  1.8587  2.4042
  700MOL0     H96535   2.215  10.788   7.084 -0.6905  0.3186  0.6431
  700MOL0     H96536   2.281  10.867   7.234 -1.2199  1.3434  1.2996
  700MOL0     H96537   2.141  10.595   7.224 -1.1141  1.0892  0.7161
  700MOL0     H96538   2.309  10.620   7.252 -0.3301 -0.1752  1.7486
  700MOL0     H96539   2.265  10.715   7.471  2.6321 -2.1834 -1.4283
  700MOL0     H96540   2.085  10.714   7.439 -1.1852 -2.2215 -2.2018
  700MOL0     H96541   2.079  10.482   7.414 -1.4395 -0.5288  2.6253
  700MOL0     H96542   2.118  10.539   7.580 -2.3456  1.6979 -1.4163
  700MOL0     H96543   2.337  10.454   7.390  0.7989 -1.1336  1.5322
  700MOL0     H96544   2.358  10.485   7.551  1.9662  3.8134 -4.0211
  700MOL0     H96545   2.143  10.276   7.497  0.5605 -1.0616  1.7293
  700MOL0     H96546   2.258  10.293   7.631  2.8821  1.4259 -0.2378
  700MOL0     H96547   2.301  10.114   7.473  1.0458 -0.5847 -0.4522
  700MOL0     H96548   2.304  10.243   7.343  0.5266  1.6071  1.0205
  700MOL0     H96549   2.488  10.055   7.600 -4.6448  3.6840  1.0881
  700MOL0     H96550   2.831  10.041   7.575 -1.2587 -0.2517 -0.2045
  700MOL0     H96551   2.742  10.078   7.732  1.5951  1.2715  2.7445
  700MOL0     H96552   2.946  10.260   7.596 -0.5029 -2.7847 -1.6080
  700MOL0     H96553   2.845  10.309   7.740  2.5507  1.5831  0.1053
  700MOL0     H96554   2.932  10.153   7.877  2.5057 -0.8417  1.1177
  700MOL0     H96555   3.027  10.067   7.755 -0.7391 -0.4184 -0.4701
  700MOL0     H96556   3.165  10.276   7.715  1.4826  2.2763  1.7781
  700MOL0     H96557   3.064  10.346   7.842 -1.0844 -0.4787 -1.1032
  700MOL0     H96558   3.036  10.366   8.049 -1.3933 -0.3605  2.4209
  700MOL0     H96559   2.924  10.363   8.270 -0.1516 -2.4206 -0.0655
  700MOL0     H96560   3.050  10.495   8.322  1.7478 -1.4246  2.5038
  700MOL0     H96561   3.002  10.360   8.418 -0.4629  0.3046 -0.2102
  700MOL0     H96562   3.285  10.257   8.724 -0.0804 -0.0294  0.6652
  700MOL0     H96563   3.253  10.142   8.951 -1.2077 -1.6697 -0.5809
  700MOL0     H96564   3.307   9.691   8.974  0.0160 -0.3002 -0.8838
  700MOL0     H96565   3.470   9.768   8.986  0.3561 -2.5427  0.8849
  700MOL0     H96566   3.428   9.803   9.232  0.8967 -1.4165  0.2550
  700MOL0     H96567   3.259   9.751   9.213 -0.1409 -1.0852  0.4492
  700MOL0     H96568   3.429   9.585   9.312 -5.1410 -0.3859  1.1373
  700MOL0     H96569   3.505   9.583   9.151  0.3764 -1.9264  0.8155
  700MOL0     H96570   3.270   9.500   9.073 -0.4517  3.0206 -0.0699
  700MOL0     H96571   3.209   9.507   9.232 -0.5223  0.5027 -1.2103
  700MOL0     H96572   3.390   9.336   9.312  0.1066  0.6893 -0.1311
  700MOL0     H96573   3.261   9.268   9.209 -0.0650 -1.3544 -0.4089
  700MOL0     H96574   3.542   9.368   9.115 -1.4995  1.3549 -1.3710
  700MOL0     H96575   3.396   9.335   9.014  0.1593 -1.9840 -0.0947
  700MOL0     H96576   3.418   9.094   9.103 -0.3567 -0.6425 -3.0610
  700MOL0     H96577   3.583   9.147   9.161  0.9615 -0.6283 -1.3894
  700MOL0     H96578   3.481   9.158   8.864 -0.0925  2.1117  1.1402
  700MOL0     H96579   3.585   9.038   8.942 -0.8423 -0.4604  2.1004
  700MOL0     H96580   3.376   9.765   8.764  0.4756  0.4571 -0.3608
  700MOL0     H96581   3.367   9.895   8.543 -1.5293  0.1175  0.6851
  700MOL0     H96582   3.309  10.022   8.273 -1.6315 -1.6787 -0.3654
  700MOL0     H96583   3.307  10.038   8.022 -0.6983  0.2574  0.1147
  700MOL0     H96584   1.873  10.664   7.392  0.1830 -0.1299  0.5242
  700MOL0     H96585   1.667  10.741   7.522  0.7795 -0.9296  0.6656
  700MOL0     H96586   1.320  10.996   7.517  1.5624 -0.9294 -0.0132
  700MOL0     H96587   1.120  11.076   7.613 -0.1367  0.0227  1.1644
  700MOL0     H96588   0.961  11.331   7.617 -4.9265  1.8439  0.7018
  700MOL0     H96589   0.945  11.197   7.731 -1.4069  0.6835  1.5840
  700MOL0     H96590   0.892  11.484   7.781  2.0475 -0.9992  2.7099
  700MOL0     H96591   0.884  11.369   7.909  1.1437  0.2172  0.9500
  700MOL0     H96592   0.686  11.272   7.834  1.7541  1.0536  1.3343
  700MOL0     H96593   0.664  11.442   7.820 -1.7253 -0.4112 -1.2069
  700MOL0     H96594   0.715  11.398   7.563 -1.0303 -1.6814 -1.2453
  700MOL0     H96595   0.556  11.372   7.629 -0.9123 -1.5603 -0.8138
  700MOL0     H96596   0.730  10.979   7.588  1.2502  1.1736  1.8224
  700MOL0     H96597   1.345  11.401   7.807 -2.5785  0.2726 -0.3800
  700MOL0     H96598   1.670  11.250   7.726  2.8380  1.6596 -2.1766
  700MOL0     H96599   1.625  11.405   7.656 -1.9151  2.4962  2.2667
  700MOL0     H96600   1.597  11.368   7.825  0.4886 -4.7084  2.1735
  701MOL0     O96601   3.406   1.007   6.586  0.1365  0.4049  0.4863
  701MOL0     C96602   3.318   1.076   6.536  0.4931  0.7358 -0.1826
  701MOL0     O96603   3.202   1.113   6.607  0.2810 -1.2628 -0.0376
  701MOL0     C96604   3.196   1.065   6.734 -0.1961  0.2899  0.0872
  701MOL0     C96605   3.139   0.941   6.749 -0.9774  0.6380 -1.1510
  701MOL0     C96606   3.117   0.897   6.883 -0.0642  0.0580  1.0198
  701MOL0     C96607   3.163   0.966   6.994  0.2132 -0.1053  0.0850
  701MOL0     O96608   3.145   0.913   7.119  0.5431  0.2265  0.1531
  701MOL0     C96609   3.132   1.008   7.231  0.0435 -0.0937 -0.4768
  701MOL0     C96610   3.062   0.940   7.349  0.0357  0.4012 -0.0741
  701MOL0     C96611   3.155   0.855   7.428 -0.6848  0.1487 -1.4678
  701MOL0     C96612   3.074   0.772   7.533 -0.9898  0.3834 -0.8087
  701MOL0     C96613   3.168   0.661   7.580 -0.2492  0.5834 -0.2662
  701MOL0     C96614   3.192   0.549   7.481  0.1436  0.9728  0.0581
  701MOL0     C96615   3.239   0.412   7.528  0.1030  0.2425 -0.1207
  701MOL0     C96616   3.371   0.422   7.622 -0.1727  0.2072 -0.2436
  701MOL0     N96617   3.407   0.281   7.630 -0.2995 -0.3288  0.5699
  701MOL0     C96618   3.473   0.199   7.544 -0.1108  0.4414 -0.1225
  701MOL0     C96619   3.485   0.073   7.615 -0.7502 -0.0248  0.0909
  701MOL0     C96620   3.571  -0.050   7.575  0.1963 -1.1887 -0.0698
  701MOL0     C96621   3.509  -0.143   7.476  0.3388 -0.3100 -0.3042
  701MOL0     C96622   3.563  -0.115   7.333 -0.7577 -0.3564  1.9030
  701MOL0     C96623   3.476  -0.152   7.207 -0.6115  0.7961 -0.2425
  701MOL0     O96624   3.357  -0.080   7.212  0.4702 -0.6228  0.0897
  701MOL0     C96625   3.309  -0.028   7.086  0.3443  0.0832 -0.7674
  701MOL0     C96626   3.388   0.040   6.992 -0.2731 -0.4288  0.1718
  701MOL0     C96627   3.337   0.108   6.888 -0.0087  0.3386 -0.4037
  701MOL0     C96628   3.427   0.190   6.791  0.7025 -0.4119  0.2625
  701MOL0     C96629   3.190   0.121   6.875 -0.0289 -0.1666 -1.2129
  701MOL0     C96630   3.134   0.212   6.770  0.1095  0.0649  0.9123
  701MOL0     O96631   3.179   0.342   6.778 -0.6882  0.4013  0.6802
  701MOL0     C96632   3.146   0.434   6.686 -0.0869  0.0104 -0.9274
  701MOL0     C96633   3.259   0.476   6.614  0.0332  0.3746  0.1277
  701MOL0     C96634   3.236   0.582   6.524 -0.8038  0.3382 -0.6114
  701MOL0     C96635   3.106   0.636   6.496  0.2268 -0.0024 -0.0716
  701MOL0     O96636   3.091   0.746   6.412 -0.4108  0.1926  0.3374
  701MOL0     C96637   3.183   0.748   6.294  0.4517  0.8315 -0.4533
  701MOL0     C96638   3.125   0.847   6.199  0.2321 -0.5283  0.4084
  701MOL0     C96639   3.015   0.784   6.101 -0.6361 -0.5783  0.7561
  701MOL0     C96640   2.953   0.915   6.024  0.1567  0.5528 -0.3839
  701MOL0     C96641   2.834   0.869   5.942 -0.4293  0.1186  0.3150
  701MOL0     C96642   2.831   0.741   5.864 -0.4111 -0.7385  0.2588
  701MOL0     C96643   2.922   0.754   5.747  0.4024  1.3049 -0.2978
  701MOL0     C96644   2.963   0.623   5.684 -0.5503  0.3271  0.0695
  701MOL0    Cl96645   3.066   0.645   5.540  0.2428 -0.1715 -0.2043
  701MOL0     C96646   2.996   0.588   6.573 -0.3656 -0.4044  1.1863
  701MOL0     C96647   3.016   0.494   6.674 -0.4755  0.5460  0.1774
  701MOL0     O96648   3.054   0.169   6.684 -0.6882  0.3363  0.4755
  701MOL0     C96649   3.108   0.045   6.957 -0.6130 -0.6223  0.4491
  701MOL0     C96650   3.167  -0.033   7.065 -0.3180 -1.2112 -0.7150
  701MOL0     N96651   3.434   0.086   7.742  0.4947 -0.2791  0.2893
  701MOL0     N96652   3.386   0.204   7.740 -0.6550 -0.4347  0.0468
  701MOL0     C96653   3.232   1.090   6.967  0.3522 -0.2293  0.5996
  701MOL0     C96654   3.242   1.143   6.839  0.2026  1.2035 -0.1028
  701MOL0     C96655   3.341   1.147   6.405  1.0523  0.5254  0.8535
  701MOL0     C96656   3.241   1.235   6.356 -0.5199 -0.5293  0.7878
  701MOL0     C96657   3.261   1.312   6.245 -0.1883  0.5407  0.8227
  701MOL0     C96658   3.368   1.289   6.160  0.1393  0.4922  0.6909
  701MOL0     O96659   3.377   1.333   6.030  0.3395 -0.2284  0.8849
  701MOL0     C96660   3.365   1.471   6.012 -0.0216 -0.5622 -0.8719
  701MOL0     C96661   3.479   1.523   5.933 -0.1251 -0.2935 -0.7804
  701MOL0     C96662   3.613   1.522   6.007 -0.0743 -0.5555  0.1730
  701MOL0     C96663   3.718   1.611   5.936  1.2563 -0.6203 -0.2381
  701MOL0     C96664   3.846   1.603   6.004  0.2329  0.4027  1.1658
  701MOL0     C96665   3.946   1.594   6.070 -0.4861  0.5979 -0.2114
  701MOL0     C96666   3.452   1.185   6.193  0.0355 -0.3910 -0.2152
  701MOL0     C96667   3.448   1.113   6.315  1.1782 -0.2795  1.0659
  701MOL0     C96668   3.567   1.023   6.337 -0.8720  0.1866  0.6177
  701MOL0     H96669   3.091   0.881   6.672  0.5214 -0.9476 -0.9174
  701MOL0     H96670   3.059   0.805   6.882  1.8747 -1.2909 -2.0075
  701MOL0     H96671   3.072   1.089   7.188 -0.8360 -1.6530 -2.3592
  701MOL0     H96672   3.226   1.049   7.267  0.6981 -2.8340  1.1917
  701MOL0     H96673   3.035   1.019   7.420  1.8652 -0.5151  1.7237
  701MOL0     H96674   2.988   0.863   7.325  1.4316 -1.1794  0.5115
  701MOL0     H96675   3.216   0.793   7.362  1.7151  2.1856 -1.3307
  701MOL0     H96676   3.224   0.919   7.484 -2.8258  0.3289  1.1777
  701MOL0     H96677   3.034   0.838   7.611 -3.0964 -1.2961 -0.3359
  701MOL0     H96678   2.986   0.722   7.491 -0.7459 -2.6783  1.8773
  701MOL0     H96679   3.111   0.606   7.655  0.9708 -1.0867 -0.5034
  701MOL0     H96680   3.253   0.709   7.630 -1.0098  0.0359  1.6387
  701MOL0     H96681   3.107   0.528   7.415 -2.4689 -1.2414  3.7247
  701MOL0     H96682   3.278   0.580   7.422 -1.2917  0.3989 -2.4562
  701MOL0     H96683   3.266   0.352   7.440 -1.3895 -0.4428 -0.1399
  701MOL0     H96684   3.153   0.356   7.564  2.5032 -4.8154 -1.3231
  701MOL0     H96685   3.454   0.464   7.564  4.3502 -3.5424  2.7319
  701MOL0     H96686   3.356   0.469   7.719 -0.2928  0.9452 -0.6094
  701MOL0     H96687   3.527   0.221   7.452  1.2741 -1.1021  0.2649
  701MOL0     H96688   3.608  -0.100   7.666  2.6732 -1.3867 -1.1029
  701MOL0     H96689   3.664  -0.005   7.538  1.0885 -1.8384  1.2669
  701MOL0     H96690   3.525  -0.247   7.506 -0.1455  0.1666  1.7116
  701MOL0     H96691   3.403  -0.119   7.474  0.6062  0.9925  0.1349
  701MOL0     H96692   3.572  -0.006   7.331  2.9883 -0.4592 -1.4566
  701MOL0     H96693   3.668  -0.145   7.317 -0.5421  1.1180  0.2173
  701MOL0     H96694   3.536  -0.127   7.118  0.0878  2.1835  0.5726
  701MOL0     H96695   3.460  -0.260   7.215 -0.1807  0.6338 -1.3779
  701MOL0     H96696   3.496   0.043   6.995 -0.3153  1.6832  2.4304
  701MOL0     H96697   3.522   0.140   6.772  0.4432 -0.3479 -1.3617
  701MOL0     H96698   3.446   0.282   6.846 -2.8089 -0.7349  2.3596
  701MOL0     H96699   3.391   0.211   6.690 -1.9020  0.8052  1.3419
  701MOL0     H96700   3.358   0.438   6.638  0.1686  0.3870 -0.4054
  701MOL0     H96701   3.316   0.628   6.467 -0.3670  0.6032  0.2079
  701MOL0     H96702   3.285   0.767   6.329  0.5586 -1.9078  0.9826
  701MOL0     H96703   3.171   0.649   6.249  0.7985  0.4574  0.2661
  701MOL0     H96704   3.103   0.931   6.265  2.5496  0.7629 -0.3206
  701MOL0     H96705   3.211   0.883   6.141 -0.3713  1.2376  0.5379
  701MOL0     H96706   2.941   0.738   6.167 -3.1976 -0.4012 -1.8394
  701MOL0     H96707   3.065   0.711   6.036 -0.7700 -0.7852  0.8842
  701MOL0     H96708   3.035   0.971   5.977  0.9620  2.2313  2.7598
  701MOL0     H96709   2.915   0.991   6.093  2.1003  2.0259 -0.8219
  701MOL0     H96710   2.750   0.881   6.011 -1.4492 -0.2560 -0.8129
  701MOL0     H96711   2.825   0.951   5.869  5.5883  2.0998  1.2226
  701MOL0     H96712   2.726   0.751   5.835 -1.6976 -1.5391  4.0186
  701MOL0     H96713   2.840   0.650   5.924  1.4184 -0.5671  0.3011
  701MOL0     H96714   3.013   0.810   5.770  0.9061  0.3121  0.1628
  701MOL0     H96715   2.864   0.808   5.671 -3.0587  0.1424  1.2876
  701MOL0     H96716   2.874   0.561   5.673 -0.3912 -0.1199  1.1983
  701MOL0     H96717   3.024   0.568   5.756  2.0960  0.3400 -1.9659
  701MOL0     H96718   2.898   0.626   6.550 -0.3006 -1.0519 -0.2484
  701MOL0     H96719   2.928   0.454   6.723 -0.1744 -1.3704 -0.7596
  701MOL0     H96720   3.001   0.042   6.938 -0.9054  1.7675  1.2626
  701MOL0     H96721   3.100  -0.089   7.129  1.2145 -1.8322  0.3978
  701MOL0     H96722   3.288   1.139   7.046  2.2224  0.4364 -1.0516
  701MOL0     H96723   3.291   1.239   6.829 -0.6164  2.2827  4.1097
  701MOL0     H96724   3.153   1.266   6.411 -0.9282 -1.1435  0.4877
  701MOL0     H96725   3.181   1.369   6.199  1.3103  0.5799 -1.9489
  701MOL0     H96726   3.269   1.496   5.965 -0.4176  0.3038  0.3557
  701MOL0     H96727   3.355   1.518   6.110  1.2512 -0.6014 -0.7029
  701MOL0     H96728   3.453   1.627   5.911  1.2777 -0.0966 -1.6086
  701MOL0     H96729   3.483   1.462   5.842  2.6091  0.0412 -0.9765
  701MOL0     H96730   3.604   1.563   6.109 -1.5458  2.0777 -0.9075
  701MOL0     H96731   3.653   1.421   6.012 -0.2062 -0.6451 -0.5298
  701MOL0     H96732   3.686   1.716   5.942  1.5475 -0.6159  2.2348
  701MOL0     H96733   3.732   1.573   5.835 -0.2128 -3.5602  0.5435
  701MOL0     H96734   4.035   1.583   6.128  1.2505 -1.0124 -2.9259
  701MOL0     H96735   3.522   1.158   6.114  0.0769 -2.4534  0.4657
  701MOL0     H96736   3.555   0.959   6.425 -1.8714  0.8118  0.9487
  701MOL0     H96737   3.565   0.955   6.251 -0.8628  1.3883 -0.3523
  701MOL0     H96738   3.658   1.082   6.347 -0.2999 -0.4416 -0.6771
  702MOL0     O96739   0.272   7.181   6.418  0.2447  0.7971  0.6300
  702MOL0     C96740   0.163   7.131   6.394 -0.2013 -0.3638 -0.4538
  702MOL0     O96741   0.119   7.099   6.262 -0.0621 -0.4209  0.0835
  702MOL0     C96742   0.213   7.062   6.166 -0.1079 -0.5852 -0.0034
  702MOL0     C96743   0.231   6.926   6.143 -0.2909  0.1269 -1.0693
  702MOL0     C96744   0.327   6.894   6.049  0.1103 -0.5126  0.6126
  702MOL0     C96745   0.391   6.990   5.967 -0.4071 -0.7846  0.3589
  702MOL0     O96746   0.469   6.926   5.867  0.0636 -0.2150  0.5699
  702MOL0     C96747   0.543   7.014   5.789 -0.4789 -0.2817 -0.1876
  702MOL0     C96748   0.646   6.926   5.727 -0.5388 -0.5937  1.4645
  702MOL0     C96749   0.661   6.975   5.577 -0.0424 -0.1069  0.0026
  702MOL0     C96750   0.727   6.869   5.478 -0.2540 -1.2967 -0.2476
  702MOL0     C96751   0.799   6.937   5.356  0.1485  0.5459 -0.7538
  702MOL0     C96752   0.823   6.837   5.243  0.3361  0.4781 -0.2086
  702MOL0     C96753   0.899   6.902   5.134 -0.1300  0.0007 -0.0121
  702MOL0     C96754   0.898   6.810   5.013 -0.1869  1.2494 -0.3609
  702MOL0     N96755   0.983   6.873   4.905 -0.2523  0.1323  0.3723
  702MOL0     C96756   1.120   6.889   4.913 -0.1665 -0.0700 -0.4204
  702MOL0     C96757   1.139   6.971   4.809  0.5516  0.0632  0.6266
  702MOL0     C96758   1.266   7.044   4.766 -0.1818  0.7849  0.5593
  702MOL0     C96759   1.388   6.947   4.768  0.1395 -0.2528 -1.1476
  702MOL0     C96760   1.516   7.010   4.720 -0.7698  0.2753  0.2224
  702MOL0     C96761   1.621   6.906   4.699 -0.3916 -1.1693 -0.0148
  702MOL0     O96762   1.743   6.977   4.662  0.0780 -0.4860 -0.5886
  702MOL0     C96763   1.855   6.899   4.642  0.8171 -0.3612  0.0668
  702MOL0     C96764   1.869   6.762   4.640 -0.4711  0.0814  0.0185
  702MOL0     C96765   1.989   6.696   4.586  0.4188  0.3489 -0.1065
  702MOL0     C96766   1.991   6.547   4.564  0.0441 -0.5612 -0.1955
  702MOL0     C96767   2.102   6.775   4.576 -0.2558  0.1899  0.2710
  702MOL0     C96768   2.221   6.715   4.526  0.0438 -0.4664  0.3331
  702MOL0     O96769   2.294   6.625   4.601 -0.6765 -0.3647 -0.6317
  702MOL0     C96770   2.419   6.585   4.557 -0.1236  0.1313 -0.0560
  702MOL0     C96771   2.437   6.522   4.440 -0.1883  0.0280 -0.7984
  702MOL0     C96772   2.566   6.487   4.410  0.5915  0.6290 -0.0836
  702MOL0     C96773   2.681   6.521   4.488  0.0849  0.7218 -0.4716
  702MOL0     O96774   2.812   6.485   4.455 -0.5594 -0.5014  0.2319
  702MOL0     C96775   2.838   6.346   4.449  0.6726 -0.1426  0.5752
  702MOL0     C96776   2.942   6.316   4.344 -0.6739  0.9438  0.5667
  702MOL0     C96777   2.990   6.171   4.343  0.8189  0.5882  0.3949
  702MOL0     C96778   3.025   6.116   4.198 -1.3767 -0.5466  0.2560
  702MOL0     C96779   2.902   6.048   4.129 -0.2351  0.2472 -0.3505
  702MOL0     C96780   2.789   6.123   4.072 -0.2261  0.3385 -0.2530
  702MOL0     C96781   2.846   6.219   3.961  0.3766 -0.2219  0.3705
  702MOL0     C96782   2.920   6.149   3.845 -0.2496  0.4855  0.1969
  702MOL0    Cl96783   2.958   6.271   3.730 -0.2401 -0.3540  0.5840
  702MOL0     C96784   2.658   6.594   4.602 -0.1219  0.1193  0.2439
  702MOL0     C96785   2.530   6.627   4.633  0.2337 -0.8095  0.4408
  702MOL0     O96786   2.255   6.755   4.417  0.2009  0.1455  0.1804
  702MOL0     C96787   2.090   6.914   4.587 -0.2043  0.3732 -0.0656
  702MOL0     C96788   1.969   6.975   4.615  0.1928  0.3571 -0.2500
  702MOL0     N96789   1.017   6.998   4.742 -0.3562 -1.1070  0.7251
  702MOL0     N96790   0.923   6.947   4.808  0.1432 -0.3302 -0.0105
  702MOL0     C96791   0.373   7.130   5.992  0.2319  0.8921 -0.5927
  702MOL0     C96792   0.282   7.157   6.094 -0.4539 -0.4430 -0.6877
  702MOL0     C96793   0.081   7.096   6.515  0.3997 -0.0597  0.2862
  702MOL0     C96794  -0.055   7.070   6.497  0.2551  0.1721 -0.5579
  702MOL0     C96795  -0.147   7.054   6.599  0.3192  1.1508 -0.3803
  702MOL0     C96796  -0.096   7.045   6.729  0.2887 -0.9895 -0.7829
  702MOL0     O96797  -0.168   7.034   6.840  0.5430 -0.4499  0.5872
  702MOL0     C96798  -0.306   7.031   6.835 -0.3531 -0.6945  0.4251
  702MOL0     C96799  -0.348   7.028   6.984  0.3285 -0.4628 -0.8084
  702MOL0     C96800  -0.302   7.158   7.059  0.5988 -0.4073  0.6429
  702MOL0     C96801  -0.313   7.138   7.210  0.3566  0.4000 -0.0853
  702MOL0     C96802  -0.294   7.265   7.272 -0.5338 -0.5195 -0.5159
  702MOL0     C96803  -0.283   7.385   7.317  0.8702 -0.4724 -0.3098
  702MOL0     C96804   0.038   7.066   6.760 -0.2255 -0.0459  0.2923
  702MOL0     C96805   0.132   7.091   6.651  0.5736 -0.1812  0.0743
  702MOL0     C96806   0.278   7.095   6.692 -0.3304 -0.4365 -0.0800
  702MOL0     H96807   0.172   6.854   6.198 -0.2894  0.1096 -1.0899
  702MOL0     H96808   0.348   6.789   6.032 -1.0858 -0.9851  1.8960
  702MOL0     H96809   0.592   7.090   5.850 -3.9244  2.8101 -0.9153
  702MOL0     H96810   0.474   7.063   5.720 -1.3850 -1.5231 -0.1946
  702MOL0     H96811   0.734   6.923   5.793 -0.8053 -2.0308  1.7894
  702MOL0     H96812   0.613   6.824   5.707  0.0894 -0.3004 -1.4609
  702MOL0     H96813   0.566   6.990   5.525  0.9713  2.8506 -1.2408
  702MOL0     H96814   0.715   7.071   5.586  0.3159 -0.4428  1.7754
  702MOL0     H96815   0.800   6.815   5.540  2.3676  0.6947 -1.3679
  702MOL0     H96816   0.645   6.805   5.446 -2.3602  1.8365 -1.6471
  702MOL0     H96817   0.893   6.986   5.384  1.7850 -2.4219 -0.6763
  702MOL0     H96818   0.727   7.016   5.331 -3.8604 -1.8196  2.1611
  702MOL0     H96819   0.877   6.746   5.268  0.4207 -0.2300 -2.7581
  702MOL0     H96820   0.726   6.797   5.212  0.6802 -1.2039  0.7522
  702MOL0     H96821   0.997   6.930   5.176 -0.1507  0.5718 -0.3433
  702MOL0     H96822   0.836   6.984   5.100 -3.2744 -2.5219 -0.8023
  702MOL0     H96823   0.940   6.711   5.034 -0.9358  0.8957 -0.5127
  702MOL0     H96824   0.800   6.799   4.965 -1.5548 -0.1165  2.5345
  702MOL0     H96825   1.190   6.862   4.991 -1.7304 -2.3676  0.2875
  702MOL0     H96826   1.296   7.126   4.832  3.0779  1.2119 -1.1940
  702MOL0     H96827   1.258   7.086   4.665  3.6468 -1.1690 -0.7714
  702MOL0     H96828   1.404   6.918   4.872 -1.9415 -0.4194 -0.8285
  702MOL0     H96829   1.374   6.864   4.699 -0.0143 -1.6046  0.4519
  702MOL0     H96830   1.497   7.059   4.624  2.1442 -0.9332 -1.0603
  702MOL0     H96831   1.541   7.085   4.796 -0.5279 -0.1058  0.5244
  702MOL0     H96832   1.643   6.850   4.791  1.1330 -0.3994  0.1258
  702MOL0     H96833   1.603   6.831   4.621 -0.0584 -1.4346  0.1614
  702MOL0     H96834   1.780   6.704   4.661 -1.0952  1.7380  2.4619
  702MOL0     H96835   2.028   6.522   4.464  0.4997  1.6820 -0.6431
  702MOL0     H96836   1.888   6.511   4.574 -1.6623  2.0254 -5.0326
  702MOL0     H96837   2.051   6.520   4.651  2.1081  2.2624 -0.5789
  702MOL0     H96838   2.359   6.502   4.367 -1.3879 -3.8855  1.3097
  702MOL0     H96839   2.574   6.448   4.309  0.1039 -1.3151  0.5858
  702MOL0     H96840   2.876   6.300   4.540  0.3687 -0.2773  0.6366
  702MOL0     H96841   2.748   6.289   4.423  0.3222  0.8605 -0.5010
  702MOL0     H96842   2.907   6.348   4.246 -1.6435 -3.1137 -0.5823
  702MOL0     H96843   3.032   6.375   4.366 -0.2342 -0.1160  1.7285
  702MOL0     H96844   2.904   6.117   4.383  0.4841  2.3661  2.2413
  702MOL0     H96845   3.065   6.163   4.423 -0.9113  0.5553  2.0879
  702MOL0     H96846   3.100   6.037   4.207  0.7874  1.2120 -1.1774
  702MOL0     H96847   3.075   6.186   4.129  2.1010 -2.6495  0.4571
  702MOL0     H96848   2.939   5.997   4.040 -0.6619 -0.9483  0.1335
  702MOL0     H96849   2.870   5.964   4.192  3.1823 -0.1270  1.0466
  702MOL0     H96850   2.737   6.173   4.155  0.0888  1.3110 -0.6280
  702MOL0     H96851   2.715   6.049   4.040 -3.8476  3.5899 -0.0182
  702MOL0     H96852   2.908   6.298   4.004  0.0639  0.5146 -0.4995
  702MOL0     H96853   2.752   6.258   3.922  1.1462  1.3040 -0.0310
  702MOL0     H96854   2.851   6.071   3.813 -3.9749  2.3063  3.0744
  702MOL0     H96855   3.015   6.115   3.888 -0.0208  3.3468  2.1897
  702MOL0     H96856   2.741   6.629   4.662  0.9093 -2.2729  0.2986
  702MOL0     H96857   2.514   6.699   4.713 -1.2685  0.5445 -1.0174
  702MOL0     H96858   2.173   6.978   4.558  1.3608 -2.3371 -2.0997
  702MOL0     H96859   1.952   7.082   4.603  1.1577  0.4375 -1.0531
  702MOL0     H96860   0.423   7.205   5.931  5.1414 -2.4994 -1.2935
  702MOL0     H96861   0.264   7.260   6.122  1.9060  0.1291 -1.0369
  702MOL0     H96862  -0.100   7.091   6.401 -1.6335  0.5989  0.3883
  702MOL0     H96863  -0.253   7.054   6.576  0.8136  4.1923 -3.4743
  702MOL0     H96864  -0.336   7.126   6.791  2.4408 -1.1556 -2.8637
  702MOL0     H96865  -0.334   6.939   6.784 -1.2362  0.2237 -0.7789
  702MOL0     H96866  -0.314   6.933   7.026 -1.0865  0.3320  2.5368
  702MOL0     H96867  -0.457   7.030   6.990  0.2712  2.9270  5.1191
  702MOL0     H96868  -0.202   7.188   7.024  0.1272 -0.7808 -1.1149
  702MOL0     H96869  -0.359   7.250   7.043  1.0922  0.0819  1.5859
  702MOL0     H96870  -0.225   7.083   7.245  1.1594  2.4775  1.3348
  702MOL0     H96871  -0.401   7.093   7.256 -0.0464 -0.2442 -1.4327
  702MOL0     H96872  -0.261   7.482   7.356  2.0905 -0.7853 -0.1848
  702MOL0     H96873   0.076   7.081   6.860 -0.6397  2.2967  0.1732
  702MOL0     H96874   0.326   7.193   6.698 -1.5747  0.0975  2.1835
  702MOL0     H96875   0.284   7.044   6.789  0.3384  2.1321  1.2980
  702MOL0     H96876   0.326   7.033   6.615 -0.8214  0.5347 -1.1993
  703MOL0     O96877   8.015   4.492   1.415 -0.1023  0.3650  0.2828
  703MOL0     C96878   8.024   4.374   1.384 -0.9549  0.0582 -0.4874
  703MOL0     O96879   7.928   4.303   1.319  0.3831 -0.6913 -0.3643
  703MOL0     C96880   7.820   4.382   1.281  0.1977 -0.3313 -0.2478
  703MOL0     C96881   7.696   4.398   1.353 -0.2832  0.0947  0.3996
  703MOL0     C96882   7.593   4.465   1.297  0.9909  0.1932 -0.0453
  703MOL0     C96883   7.608   4.532   1.168 -0.2360  0.4949 -1.2008
  703MOL0     O96884   7.514   4.609   1.112  0.6860  0.2966 -0.5006
  703MOL0     C96885   7.419   4.669   1.203  0.7116  0.9895  0.3686
  703MOL0     C96886   7.365   4.798   1.147 -0.5699  0.6222 -0.7201
  703MOL0     C96887   7.328   4.878   1.285  0.3525 -0.5272  0.1330
  703MOL0     C96888   7.298   5.026   1.259 -0.0611  0.3317 -0.6703
  703MOL0     C96889   7.244   5.104   1.377 -0.1066  0.3395 -0.2378
  703MOL0     C96890   7.359   5.160   1.465  0.3261  0.6244 -0.1773
  703MOL0     C96891   7.305   5.216   1.601  1.0785  0.2245 -0.1803
  703MOL0     C96892   7.351   5.364   1.631 -0.5210  0.0418 -0.3054
  703MOL0     N96893   7.292   5.474   1.538 -0.2601 -0.1417 -0.3680
  703MOL0     C96894   7.165   5.532   1.557 -0.2907 -0.7037 -0.1837
  703MOL0     C96895   7.159   5.634   1.462 -0.4109  0.5399  0.1666
  703MOL0     C96896   7.051   5.731   1.451 -0.2113  0.3814  0.5541
  703MOL0     C96897   7.107   5.872   1.409 -0.8178  0.3913  0.8297
  703MOL0     C96898   7.008   5.970   1.356  0.8236 -0.3620 -0.0350
  703MOL0     C96899   6.956   5.932   1.213  0.6967 -0.0915 -0.8303
  703MOL0     O96900   6.848   5.843   1.233  0.0183  0.2278  0.0053
  703MOL0     C96901   6.716   5.873   1.217 -0.3892  0.1364 -0.3369
  703MOL0     C96902   6.633   5.766   1.183  1.0773 -0.7253  0.2581
  703MOL0     C96903   6.501   5.785   1.140 -0.0170  0.1067 -0.2288
  703MOL0     C96904   6.429   5.682   1.057 -0.6045  0.2158 -0.1793
  703MOL0     C96905   6.451   5.925   1.147  0.0346 -0.2778  0.1705
  703MOL0     C96906   6.320   5.970   1.082 -0.4893  0.5747 -0.2906
  703MOL0     O96907   6.236   5.872   1.047 -0.5783  0.2999  0.0317
  703MOL0     C96908   6.124   5.895   0.961 -0.7813 -0.0298 -0.6172
  703MOL0     C96909   6.028   5.793   0.966 -0.6863  0.0378  2.2435
  703MOL0     C96910   5.932   5.780   0.862 -0.5395 -0.5555  0.6977
  703MOL0     C96911   5.919   5.884   0.762 -0.3621  0.6700  0.7581
  703MOL0     O96912   5.830   5.880   0.656  0.7383  0.7499 -0.1355
  703MOL0     C96913   5.757   5.755   0.628  0.5833  1.1591 -0.3337
  703MOL0     C96914   5.679   5.785   0.492 -0.4982 -0.0477  0.3997
  703MOL0     C96915   5.549   5.871   0.502  0.0919  0.0787 -0.1325
  703MOL0     C96916   5.436   5.778   0.556  0.1431  0.0627  0.5367
  703MOL0     C96917   5.305   5.846   0.588  0.0740 -0.4877 -0.5543
  703MOL0     C96918   5.192   5.749   0.616 -0.9367  0.9501 -0.1871
  703MOL0     C96919   5.071   5.824   0.665 -0.0339 -0.2553  0.0011
  703MOL0     C96920   4.960   5.731   0.706  0.2431  0.2377  0.5274
  703MOL0    Cl96921   4.798   5.812   0.701  0.0995  0.5349 -0.9884
  703MOL0     C96922   6.012   5.988   0.757 -0.9371  0.6588 -0.2631
  703MOL0     C96923   6.110   5.985   0.856 -0.6366 -0.1962 -0.1950
  703MOL0     O96924   6.307   6.089   1.052 -0.1448  0.6862 -0.5482
  703MOL0     C96925   6.535   6.026   1.198 -0.9790 -0.0332 -0.5730
  703MOL0     C96926   6.666   5.995   1.239  0.6395  0.2005 -0.8287
  703MOL0     N96927   7.271   5.609   1.380 -0.5403 -0.4411  1.2307
  703MOL0     N96928   7.342   5.508   1.421  0.5367 -0.1043  0.5867
  703MOL0     C96929   7.735   4.525   1.108 -0.2879  0.3383 -0.1321
  703MOL0     C96930   7.838   4.437   1.161 -0.3045 -0.0787 -0.2655
  703MOL0     C96931   8.147   4.294   1.419  0.1230 -0.2788 -0.8009
  703MOL0     C96932   8.169   4.173   1.351 -0.0664  0.7942 -0.2793
  703MOL0     C96933   8.281   4.099   1.386  0.1918 -1.1406  0.3756
  703MOL0     C96934   8.394   4.147   1.460  0.4745 -0.6194  0.0722
  703MOL0     O96935   8.504   4.065   1.458  0.3949  0.1280  0.0867
  703MOL0     C96936   8.619   4.108   1.539  0.7395  0.0311  0.1822
  703MOL0     C96937   8.700   4.236   1.503  0.7927  0.6630  0.1329
  703MOL0     C96938   8.829   4.211   1.426 -0.4289  0.6318  0.0507
  703MOL0     C96939   8.824   4.242   1.278  0.1402 -0.0279 -0.7600
  703MOL0     C96940   8.959   4.252   1.209  0.3540 -1.1166 -0.0982
  703MOL0     C96941   9.071   4.256   1.160  0.1870 -0.8127 -0.0428
  703MOL0     C96942   8.362   4.261   1.541  0.6487 -1.0015 -0.5129
  703MOL0     C96943   8.241   4.344   1.522 -0.7063 -0.2736  0.1989
  703MOL0     C96944   8.216   4.440   1.632  0.0266  0.0680  0.1115
  703MOL0     H96945   7.706   4.360   1.455  2.2707 -3.0013 -0.8251
  703MOL0     H96946   7.506   4.477   1.361  0.7403  1.3188 -0.5801
  703MOL0     H96947   7.466   4.679   1.301  0.0105 -4.0744  1.5233
  703MOL0     H96948   7.340   4.594   1.218  3.0660 -1.4296  1.4437
  703MOL0     H96949   7.440   4.860   1.098  0.5441 -2.2634 -2.9545
  703MOL0     H96950   7.283   4.775   1.078 -2.2557  1.1024  1.0470
  703MOL0     H96951   7.236   4.831   1.322  0.3368  0.5983  1.6303
  703MOL0     H96952   7.408   4.871   1.359  0.9997 -1.7867 -0.6488
  703MOL0     H96953   7.389   5.077   1.225  0.1157 -0.5256 -1.5060
  703MOL0     H96954   7.226   5.030   1.177  0.9985  0.1331 -1.6334
  703MOL0     H96955   7.185   5.030   1.433 -0.5906 -0.7107 -2.0339
  703MOL0     H96956   7.182   5.185   1.338 -1.9981 -0.6890  0.4557
  703MOL0     H96957   7.424   5.077   1.492 -1.1837  0.3765  3.1852
  703MOL0     H96958   7.404   5.234   1.398 -1.4340 -1.2926 -3.7939
  703MOL0     H96959   7.323   5.140   1.678  0.6341 -0.5676 -0.8323
  703MOL0     H96960   7.198   5.236   1.600  1.3080  2.5730  3.5368
  703MOL0     H96961   7.349   5.390   1.737  3.9690  0.9307 -0.2441
  703MOL0     H96962   7.458   5.359   1.606 -0.8197 -2.3464 -1.4460
  703MOL0     H96963   7.106   5.532   1.648 -2.4143 -1.6911 -1.5041
  703MOL0     H96964   6.997   5.742   1.545  0.1581  1.4642  0.6599
  703MOL0     H96965   6.986   5.698   1.370  1.9892  2.8696 -2.4698
  703MOL0     H96966   7.160   5.921   1.492  3.1746 -1.5384 -0.3137
  703MOL0     H96967   7.190   5.865   1.338 -0.4993 -0.0028  1.2322
  703MOL0     H96968   6.935   5.976   1.437  1.7644 -0.1605  0.8145
  703MOL0     H96969   7.044   6.071   1.338  1.5650 -1.0937 -3.1754
  703MOL0     H96970   6.917   6.015   1.154  0.0333  0.9897  1.0261
  703MOL0     H96971   7.034   5.880   1.158  0.6266 -0.0109 -1.0061
  703MOL0     H96972   6.674   5.673   1.147  1.3249 -0.0659 -1.2506
  703MOL0     H96973   6.335   5.653   1.104 -0.7688  1.4850  0.3149
  703MOL0     H96974   6.500   5.600   1.042  0.6820  1.1961  0.3502
  703MOL0     H96975   6.403   5.713   0.955  0.3267 -3.7071 -1.7982
  703MOL0     H96976   6.047   5.706   1.029 -0.6129 -2.4554 -0.9347
  703MOL0     H96977   5.869   5.692   0.864 -0.9954 -0.2209  1.2849
  703MOL0     H96978   5.829   5.676   0.604  0.0745  0.5357  0.1414
  703MOL0     H96979   5.688   5.726   0.707  1.6185  2.1626  0.9950
  703MOL0     H96980   5.757   5.827   0.429 -1.0989 -0.4534 -0.6378
  703MOL0     H96981   5.650   5.691   0.442 -0.7440 -0.1123  0.6581
  703MOL0     H96982   5.513   5.914   0.409 -0.0197  2.4515  0.9365
  703MOL0     H96983   5.575   5.958   0.563  3.9932 -1.3061  0.4599
  703MOL0     H96984   5.472   5.722   0.643 -3.5452 -2.2575  0.7753
  703MOL0     H96985   5.416   5.699   0.484 -1.2874  0.3133  0.6259
  703MOL0     H96986   5.326   5.913   0.671 -0.2876 -1.1543  0.0862
  703MOL0     H96987   5.283   5.914   0.506 -2.1607  0.1230  0.4809
  703MOL0     H96988   5.225   5.680   0.694  0.4213  2.4855  0.6746
  703MOL0     H96989   5.162   5.696   0.526 -0.9448  1.3290 -0.4111
  703MOL0     H96990   5.036   5.878   0.576  3.2066 -0.9861 -1.8793
  703MOL0     H96991   5.094   5.902   0.738 -1.0078 -0.7682  0.8906
  703MOL0     H96992   4.991   5.677   0.796  1.4683  0.9909  0.5722
  703MOL0     H96993   4.957   5.649   0.634 -3.6029 -0.7451  1.6039
  703MOL0     H96994   5.998   6.073   0.690 -1.5851  1.1114  0.4282
  703MOL0     H96995   6.203   6.038   0.838  0.3073 -1.2607  1.3441
  703MOL0     H96996   6.498   6.125   1.221 -2.2655 -0.8903  1.3121
  703MOL0     H96997   6.734   6.072   1.275  0.5497  0.4449 -1.1687
  703MOL0     H96998   7.746   4.584   1.018 -0.6789  0.4660 -0.0971
  703MOL0     H96999   7.922   4.415   1.096  2.5560  0.9860  2.7807
  703MOL0     H97000   8.099   4.130   1.281  2.4254 -1.3347 -1.6239
  703MOL0     H97001   8.285   3.995   1.356 -2.6055 -0.4453 -3.1050
  703MOL0     H97002   8.573   4.132   1.635 -2.8252  2.4759 -1.9174
  703MOL0     H97003   8.680   4.019   1.559  1.1443  0.1965 -0.2909
  703MOL0     H97004   8.726   4.282   1.598 -0.0364  1.9411 -0.2407
  703MOL0     H97005   8.638   4.297   1.436  1.9612  0.3895 -1.2689
  703MOL0     H97006   8.902   4.279   1.470 -0.0965 -0.0707  0.6185
  703MOL0     H97007   8.878   4.115   1.445  0.6323  1.3927  1.3417
  703MOL0     H97008   8.784   4.344   1.271  2.0869  0.8724  0.5258
  703MOL0     H97009   8.764   4.161   1.236 -2.1953  0.4985  1.2969
  703MOL0     H97010   9.163   4.253   1.104  0.3430 -3.2512  0.2339
  703MOL0     H97011   8.430   4.291   1.620 -0.8565 -0.6316  0.7105
  703MOL0     H97012   8.314   4.483   1.657 -1.5587  2.5081  2.7226
  703MOL0     H97013   8.160   4.523   1.590  0.4013 -1.2637 -3.3763
  703MOL0     H97014   8.167   4.383   1.712 -2.8979  0.5749 -1.2166
  704MOL0     O97015   9.962   2.509   8.261  0.3285  0.2914 -0.2698
  704MOL0     C97016  10.020   2.617   8.262  0.8589 -0.1225  0.3756
  704MOL0     O97017   9.972   2.733   8.323 -0.8357  0.0776 -0.7252
  704MOL0     C97018   9.875   2.735   8.422  0.6473 -0.4638  0.3514
  704MOL0     C97019   9.905   2.818   8.524 -0.4372  0.0010  0.0371
  704MOL0     C97020   9.820   2.841   8.626  1.0581 -0.4018  0.2634
  704MOL0     C97021   9.704   2.767   8.642  0.6563 -1.1931 -0.1176
  704MOL0     O97022   9.618   2.813   8.731  0.0267  0.2964  0.0429
  704MOL0     C97023   9.651   2.782   8.869  0.0294  0.2925  0.6391
  704MOL0     C97024   9.648   2.635   8.888  0.0335  0.5383 -0.6803
  704MOL0     C97025   9.612   2.617   9.034 -0.2437  0.1909 -0.3019
  704MOL0     C97026   9.457   2.626   9.069  0.6216 -0.4176  0.0136
  704MOL0     C97027   9.434   2.593   9.221 -0.5424 -0.3250 -0.0841
  704MOL0     C97028   9.461   2.710   9.313  0.4938 -0.0851 -0.1509
  704MOL0     C97029   9.366   2.709   9.440 -0.2286  0.5280  0.6125
  704MOL0     C97030   9.387   2.599   9.546 -0.1743  0.4425  0.3151
  704MOL0     N97031   9.523   2.587   9.601 -0.2548 -0.2035  0.2240
  704MOL0     C97032   9.622   2.506   9.548  0.7473 -0.3780  0.0505
  704MOL0     C97033   9.732   2.546   9.607 -0.8874  0.5591  0.2103
  704MOL0     C97034   9.869   2.489   9.585  0.3054  0.1331 -0.4063
  704MOL0     C97035   9.913   2.493   9.438  0.6945  0.4553  0.0010
  704MOL0     C97036   9.888   2.628   9.372  0.5691  0.4274  0.4575
  704MOL0     C97037   9.947   2.636   9.236  0.2065  0.5489  1.1231
  704MOL0     O97038   9.917   2.765   9.186  0.2509  0.0436  0.9735
  704MOL0     C97039   9.986   2.811   9.069  0.1772  1.3625 -1.0227
  704MOL0     C97040  10.056   2.734   8.978  0.2674  1.1569  0.3227
  704MOL0     C97041  10.126   2.788   8.867  0.1344  0.0983 -0.2119
  704MOL0     C97042  10.226   2.703   8.789 -0.4107 -1.1500 -0.8829
  704MOL0     C97043  10.116   2.927   8.841 -0.4048 -0.1916  0.3861
  704MOL0     C97044  10.202   2.993   8.735  0.7953  0.5587 -1.0351
  704MOL0     O97045  10.329   3.025   8.756  0.5407  0.4130 -0.4050
  704MOL0     C97046  10.414   3.022   8.652 -0.0212  0.1949  0.0312
  704MOL0     C97047  10.523   3.111   8.654 -0.4509 -0.7003  0.2448
  704MOL0     C97048  10.624   3.098   8.561  0.0103 -0.5596  0.0597
  704MOL0     C97049  10.623   3.007   8.464  1.0466  0.0747 -0.0741
  704MOL0     O97050  10.722   2.988   8.372 -0.1676 -0.5727  0.2930
  704MOL0     C97051  10.852   2.982   8.417 -0.0825  0.4187 -0.8710
  704MOL0     C97052  10.925   2.915   8.304 -0.4634  0.0609 -0.2579
  704MOL0     C97053  11.065   2.874   8.342 -0.6015 -0.5415 -1.2008
  704MOL0     C97054  11.142   2.776   8.248 -0.0407  0.0560  0.8330
  704MOL0     C97055  11.262   2.710   8.321 -1.2962 -0.3695 -0.1841
  704MOL0     C97056  11.368   2.666   8.222 -0.3874 -0.3336 -0.3115
  704MOL0     C97057  11.498   2.628   8.280  0.5404 -0.5475 -0.6523
  704MOL0     C97058  11.620   2.682   8.215 -1.0102  0.0867  0.3698
  704MOL0    Cl97059  11.627   2.867   8.228  0.4432  0.2970  0.2382
  704MOL0     C97060  10.513   2.913   8.454  0.9741  0.0250 -0.1699
  704MOL0     C97061  10.410   2.923   8.551 -0.0332  0.3663  0.7175
  704MOL0     O97062  10.141   3.017   8.635 -0.1566 -0.0654  0.4579
  704MOL0     C97063  10.033   2.999   8.925  0.2056  0.8763  0.4254
  704MOL0     C97064   9.969   2.943   9.041 -0.1881  0.0098  0.2686
  704MOL0     N97065   9.703   2.637   9.710 -0.3565 -0.4449  0.2680
  704MOL0     N97066   9.569   2.657   9.708 -0.1775 -0.2842 -1.0296
  704MOL0     C97067   9.667   2.676   8.534 -0.6224  0.4671  0.2409
  704MOL0     C97068   9.754   2.667   8.425 -0.0429  0.1471  0.5483
  704MOL0     C97069  10.144   2.633   8.188 -0.3981  0.7110 -0.0499
  704MOL0     C97070  10.224   2.754   8.233  0.1637 -0.5746 -0.5051
  704MOL0     C97071  10.328   2.793   8.151 -1.1774 -0.2376  0.0872
  704MOL0     C97072  10.372   2.713   8.048  1.2472 -0.0214  0.3176
  704MOL0     O97073  10.466   2.750   7.963  0.4900 -0.0421 -0.2425
  704MOL0     C97074  10.588   2.685   7.983 -0.1180  0.0074  0.4255
  704MOL0     C97075  10.697   2.773   7.921 -0.0607 -0.5366 -0.4266
  704MOL0     C97076  10.811   2.705   7.841 -0.3121  0.3433 -0.3154
  704MOL0     C97077  10.957   2.747   7.893 -0.1815 -0.4815 -0.2303
  704MOL0     C97078  11.046   2.641   7.853  0.8490  0.2907  0.3173
  704MOL0     C97079  11.111   2.538   7.846  0.3421  0.9901  0.0170
  704MOL0     C97080  10.301   2.598   8.013  0.4606  0.0990  0.3906
  704MOL0     C97081  10.191   2.545   8.083  0.4246 -0.1418 -0.8592
  704MOL0     C97082  10.125   2.422   8.041 -0.7361  0.5234  0.0546
  704MOL0     H97083   9.989   2.885   8.512 -0.7184  0.4435  0.5330
  704MOL0     H97084   9.860   2.909   8.701  2.7308 -2.9016  1.7773
  704MOL0     H97085   9.583   2.843   8.929  1.5970  1.8847  0.8991
  704MOL0     H97086   9.750   2.823   8.894  0.2980  0.1353 -0.1136
  704MOL0     H97087   9.570   2.600   8.820 -0.3609 -1.8930  0.8741
  704MOL0     H97088   9.743   2.582   8.879  0.8442  0.8597  3.5679
  704MOL0     H97089   9.656   2.520   9.059  1.8307  0.8568 -1.1918
  704MOL0     H97090   9.672   2.677   9.103  0.1561 -1.1105  0.5114
  704MOL0     H97091   9.429   2.730   9.049 -0.4700 -0.8868 -1.0267
  704MOL0     H97092   9.394   2.554   9.017 -0.4641  1.0079 -0.7232
  704MOL0     H97093   9.495   2.507   9.249  1.4022  0.9943 -0.0702
  704MOL0     H97094   9.327   2.573   9.232 -0.9231  1.1499 -0.8176
  704MOL0     H97095   9.565   2.715   9.347  0.7435 -3.0271 -0.2388
  704MOL0     H97096   9.437   2.804   9.262  0.6595 -0.8490 -1.6800
  704MOL0     H97097   9.263   2.702   9.405 -0.5667 -2.8714  1.9076
  704MOL0     H97098   9.382   2.806   9.490  1.5498  0.6856 -0.1784
  704MOL0     H97099   9.316   2.608   9.628  0.2008  1.5522  0.5466
  704MOL0     H97100   9.376   2.504   9.493  1.8035  1.4218 -2.0942
  704MOL0     H97101   9.611   2.433   9.468 -0.5054 -0.2201  0.0565
  704MOL0     H97102   9.858   2.382   9.606 -4.6901  0.2984 -0.9447
  704MOL0     H97103   9.934   2.544   9.655  0.0251 -0.5597  0.4104
  704MOL0     H97104  10.017   2.457   9.434 -0.3567 -2.9014 -0.5036
  704MOL0     H97105   9.858   2.415   9.386  0.5761 -0.4419  1.4155
  704MOL0     H97106   9.782   2.656   9.366  0.7803  1.1061 -0.1911
  704MOL0     H97107   9.937   2.703   9.436 -2.0839  0.0829  3.1375
  704MOL0     H97108  10.053   2.610   9.230  0.1687  0.6332 -0.3586
  704MOL0     H97109   9.887   2.568   9.174  1.0762  1.6942 -1.1122
  704MOL0     H97110  10.077   2.628   8.989 -0.3153  0.7174 -2.0773
  704MOL0     H97111  10.215   2.594   8.791 -1.1884 -1.0641  0.1544
  704MOL0     H97112  10.324   2.738   8.820 -1.1395  0.7844 -0.6403
  704MOL0     H97113  10.220   2.739   8.686  0.5547 -1.6889 -1.1351
  704MOL0     H97114  10.526   3.185   8.733  2.3881  1.7130 -1.8838
  704MOL0     H97115  10.714   3.159   8.570  0.5687 -1.4120  0.4252
  704MOL0     H97116  10.888   3.083   8.439  2.9147 -0.2519 -2.1205
  704MOL0     H97117  10.855   2.909   8.499  0.9035 -0.2158 -1.4473
  704MOL0     H97118  10.876   2.824   8.269 -0.3175 -0.3651  0.6212
  704MOL0     H97119  10.919   2.993   8.227 -0.0684 -1.8082 -2.2800
  704MOL0     H97120  11.057   2.826   8.440 -1.7012  0.1137 -0.9494
  704MOL0     H97121  11.123   2.965   8.358  0.5605 -1.4734  0.0634
  704MOL0     H97122  11.166   2.830   8.156 -0.3308  0.9646  1.2701
  704MOL0     H97123  11.075   2.695   8.220  1.9237 -1.4307  0.2488
  704MOL0     H97124  11.299   2.779   8.397  0.6512 -1.8188  0.2661
  704MOL0     H97125  11.221   2.621   8.370 -4.9126  0.2566 -1.7022
  704MOL0     H97126  11.384   2.757   8.163 -0.4672 -1.0636 -1.5122
  704MOL0     H97127  11.333   2.597   8.144  0.1388  2.9576 -3.7259
  704MOL0     H97128  11.496   2.519   8.275  0.1188 -0.5138 -1.3848
  704MOL0     H97129  11.501   2.677   8.378  0.4493  0.8201 -1.2995
  704MOL0     H97130  11.615   2.648   8.111 -4.5547  0.0390  0.4598
  704MOL0     H97131  11.714   2.636   8.250 -0.5933 -1.2163 -2.1867
  704MOL0     H97132  10.527   2.834   8.381  2.5243  1.8577 -1.9867
  704MOL0     H97133  10.326   2.855   8.537  1.1997 -0.6742 -2.4874
  704MOL0     H97134  10.025   3.103   8.895 -0.9424  0.0180 -2.5300
  704MOL0     H97135   9.902   2.999   9.106 -2.3432  0.9692 -2.5607
  704MOL0     H97136   9.567   2.635   8.521  0.4343 -1.5496 -2.6715
  704MOL0     H97137   9.718   2.613   8.338  1.5655  0.6916 -0.5003
  704MOL0     H97138  10.199   2.822   8.313  0.7501  1.9973 -2.3917
  704MOL0     H97139  10.391   2.880   8.162  0.3647 -0.8425 -2.9001
  704MOL0     H97140  10.612   2.672   8.089  0.5118 -0.3373  0.2437
  704MOL0     H97141  10.594   2.582   7.946 -0.3691 -1.0277  3.0265
  704MOL0     H97142  10.745   2.825   8.004 -1.1471 -2.1815  1.3178
  704MOL0     H97143  10.654   2.851   7.857  0.0497 -2.2825 -2.7872
  704MOL0     H97144  10.810   2.595   7.843  1.2003  0.3284  0.9774
  704MOL0     H97145  10.796   2.722   7.734 -1.9402 -0.8640 -0.3178
  704MOL0     H97146  10.956   2.758   8.002 -1.5614  2.6056 -0.4575
  704MOL0     H97147  10.991   2.838   7.843 -0.0083 -0.2907  0.2267
  704MOL0     H97148  11.192   2.469   7.834  1.1686  2.2483 -2.2328
  704MOL0     H97149  10.321   2.543   7.921  0.1836  0.9434 -0.1846
  704MOL0     H97150  10.172   2.385   7.949 -0.2315 -2.1497  1.3092
  704MOL0     H97151  10.140   2.338   8.109  0.1636 -0.0020 -0.7594
  704MOL0     H97152  10.020   2.432   8.011 -0.4245 -0.8521 -1.7457
  705MOL0     O97153  11.248   2.016   7.833 -0.5201  0.3050  0.2489
  705MOL0     C97154  11.191   1.918   7.780  0.1236  0.3834  0.5045
  705MOL0     O97155  11.051   1.899   7.772 -0.3004 -0.2080 -0.2468
  705MOL0     C97156  10.957   1.999   7.803  0.9228 -0.0299 -0.1770
  705MOL0     C97157  10.838   1.945   7.855  0.4911 -0.5388 -0.0859
  705MOL0     C97158  10.728   2.019   7.902 -0.1793  0.8227 -0.9232
  705MOL0     C97159  10.736   2.155   7.888  0.0230 -0.3378  0.0343
  705MOL0     O97160  10.626   2.225   7.930  0.5680  0.6466 -0.9978
  705MOL0     C97161  10.543   2.186   8.041  0.2271 -0.1754 -0.2723
  705MOL0     C97162  10.555   2.307   8.145 -1.2698 -0.1044  0.4774
  705MOL0     C97163  10.437   2.324   8.240 -0.7272  0.4528  0.8231
  705MOL0     C97164  10.466   2.437   8.341 -0.2381 -1.1796  0.3136
  705MOL0     C97165  10.363   2.464   8.448  0.2905  0.2246  0.1032
  705MOL0     C97166  10.371   2.368   8.566 -0.1813 -0.3900  0.8202
  705MOL0     C97167  10.504   2.375   8.644  0.6375  0.2300  0.1533
  705MOL0     C97168  10.512   2.261   8.751  0.0571 -0.3236  0.0294
  705MOL0     N97169  10.583   2.302   8.868  0.6273  0.4964 -1.1075
  705MOL0     C97170  10.720   2.305   8.891 -0.3010  0.6664  1.0911
  705MOL0     C97171  10.740   2.339   9.021  0.0465  1.4766  0.2796
  705MOL0     C97172  10.860   2.349   9.099  0.3016  0.5601  0.2444
  705MOL0     C97173  10.871   2.489   9.163 -0.1919  0.6784 -0.0973
  705MOL0     C97174  11.018   2.507   9.217 -0.4904  0.1393 -0.8282
  705MOL0     C97175  11.070   2.411   9.327 -0.0585  0.0353  0.4119
  705MOL0     O97176  11.123   2.279   9.281 -0.2830 -0.3292  0.7478
  705MOL0     C97177  11.172   2.191   9.373 -0.2697  0.4845 -0.9284
  705MOL0     C97178  11.197   2.225   9.505 -0.7408 -0.0003  0.0807
  705MOL0     C97179  11.261   2.131   9.590 -0.5052  0.0167  0.7890
  705MOL0     C97180  11.307   2.185   9.720  0.1015  0.0579 -0.4824
  705MOL0     C97181  11.284   1.993   9.543  0.0319 -0.0128 -0.4246
  705MOL0     C97182  11.324   1.884   9.641  0.4650 -0.0755  0.2245
  705MOL0     O97183  11.324   1.757   9.594  0.2929 -0.1567 -0.0812
  705MOL0     C97184  11.415   1.679   9.644  0.5041 -0.1343  0.0791
  705MOL0     C97185  11.545   1.688   9.603  0.2263 -0.3102 -0.8077
  705MOL0     C97186  11.640   1.598   9.657  0.7586 -0.3466  0.5920
  705MOL0     C97187  11.605   1.489   9.741  0.3709  0.2126  0.5629
  705MOL0     O97188  11.692   1.390   9.780 -0.7577 -0.4322  0.8849
  705MOL0     C97189  11.806   1.420   9.865  0.0458  0.2482 -0.4062
  705MOL0     C97190  11.898   1.292   9.873  0.0031 -0.5656 -0.3970
  705MOL0     C97191  12.045   1.340   9.877  0.3571 -0.1424  0.1358
  705MOL0     C97192  12.145   1.232   9.862  0.0321 -0.4987 -0.6137
  705MOL0     C97193  12.286   1.282   9.915  0.2780  0.6506 -0.2397
  705MOL0     C97194  12.333   1.386   9.819 -0.0606  0.3237 -0.5037
  705MOL0     C97195  12.474   1.453   9.844  0.3893 -0.4085  0.3769
  705MOL0     C97196  12.474   1.597   9.890  0.0606 -0.3454 -0.0071
  705MOL0    Cl97197  12.394   1.603  10.044 -0.2090 -0.0310 -0.3573
  705MOL0     C97198  11.472   1.482   9.789 -0.3287 -1.1691 -0.3059
  705MOL0     C97199  11.384   1.576   9.742 -0.2181 -0.3092  0.9372
  705MOL0     O97200  11.358   1.914   9.756  0.9446 -0.3872 -0.2905
  705MOL0     C97201  11.254   1.961   9.409 -0.5092 -0.2967  0.1662
  705MOL0     C97202  11.201   2.061   9.331  0.5200 -0.0208  0.8408
  705MOL0     N97203  10.612   2.353   9.076 -0.6289  1.0700  0.2231
  705MOL0     N97204  10.525   2.350   8.985 -0.0611  0.3077  0.1015
  705MOL0     C97205  10.851   2.221   7.836 -0.8735  0.6604 -0.2308
  705MOL0     C97206  10.966   2.143   7.802  0.0600 -0.4034 -0.1735
  705MOL0     C97207  11.275   1.802   7.744  0.4003  0.8197  0.2034
  705MOL0     C97208  11.217   1.669   7.759 -0.5437 -0.0790  0.7448
  705MOL0     C97209  11.305   1.561   7.737  0.5156 -0.8248 -0.4247
  705MOL0     C97210  11.446   1.569   7.723 -0.7401  0.2277  0.2616
  705MOL0     O97211  11.520   1.458   7.712 -0.1336  0.4891 -0.0636
  705MOL0     C97212  11.545   1.386   7.840 -0.7605  0.2343  0.6247
  705MOL0     C97213  11.570   1.241   7.801 -0.0277  0.2811 -0.6998
  705MOL0     C97214  11.551   1.148   7.927 -0.0009  0.0014  0.7450
  705MOL0     C97215  11.620   1.020   7.909  0.7780 -0.2769  1.3503
  705MOL0     C97216  11.534   0.916   7.848  0.1120 -0.4425  0.1648
  705MOL0     C97217  11.452   0.837   7.811  0.7920  0.2452 -1.1082
  705MOL0     C97218  11.498   1.701   7.708  0.1617  0.1560  0.3172
  705MOL0     C97219  11.417   1.815   7.721 -0.3197  0.7956  0.9247
  705MOL0     C97220  11.480   1.947   7.691  0.0709 -0.9258  0.2965
  705MOL0     H97221  10.831   1.838   7.870  1.5121 -0.4802  0.9012
  705MOL0     H97222  10.643   1.968   7.946  2.3734 -0.1344  3.3832
  705MOL0     H97223  10.566   2.090   8.089 -2.6752 -0.1425  1.4227
  705MOL0     H97224  10.440   2.183   8.003 -0.4114 -0.6692  1.4095
  705MOL0     H97225  10.647   2.301   8.204  0.7533  2.0476 -2.1844
  705MOL0     H97226  10.571   2.399   8.087  4.0778 -0.1014  1.4380
  705MOL0     H97227  10.353   2.358   8.178  3.5540  3.0303 -4.3223
  705MOL0     H97228  10.406   2.224   8.271 -0.9701  0.0969 -0.5113
  705MOL0     H97229  10.566   2.417   8.380 -0.0867 -3.9283 -1.1985
  705MOL0     H97230  10.470   2.527   8.281 -0.0820  0.8584  3.1716
  705MOL0     H97231  10.263   2.456   8.403 -0.6608 -1.0558  2.2789
  705MOL0     H97232  10.387   2.566   8.480 -1.0076 -0.2950  3.0497
  705MOL0     H97233  10.287   2.384   8.634 -0.7222 -0.8138  0.2585
  705MOL0     H97234  10.349   2.267   8.531 -0.0232 -0.5787  1.2510
  705MOL0     H97235  10.515   2.471   8.694  1.3705  0.3616 -0.2486
  705MOL0     H97236  10.584   2.365   8.569 -1.3224 -1.3096 -1.8984
  705MOL0     H97237  10.413   2.229   8.784  0.1944 -2.9319 -1.8268
  705MOL0     H97238  10.565   2.179   8.703  1.2515  0.8835 -0.7665
  705MOL0     H97239  10.794   2.292   8.813  0.2349  1.1993  1.4966
  705MOL0     H97240  10.938   2.322   9.027 -2.1821 -1.3866 -1.9391
  705MOL0     H97241  10.864   2.269   9.173  1.0331  0.3350 -0.0279
  705MOL0     H97242  10.860   2.567   9.088  3.0762 -0.5463 -2.0938
  705MOL0     H97243  10.787   2.501   9.232  0.1163  2.1343  0.0408
  705MOL0     H97244  11.102   2.509   9.146  1.5612  1.1156  1.4443
  705MOL0     H97245  11.017   2.611   9.253 -0.7920 -0.3240  0.5570
  705MOL0     H97246  11.146   2.458   9.391  2.1718 -1.7352 -0.8002
  705MOL0     H97247  10.982   2.394   9.389 -1.4908 -0.5936 -1.7111
  705MOL0     H97248  11.193   2.329   9.534  2.1277 -0.3424  2.1150
  705MOL0     H97249  11.415   2.170   9.726  0.0884 -1.6065 -2.8521
  705MOL0     H97250  11.257   2.132   9.801 -1.2207  0.9283 -0.7024
  705MOL0     H97251  11.295   2.293   9.733  1.6518 -0.0049  2.0846
  705MOL0     H97252  11.588   1.765   9.540  0.7924  0.1618  0.1321
  705MOL0     H97253  11.746   1.603   9.633  0.5700 -1.8377 -0.7017
  705MOL0     H97254  11.856   1.504   9.815  4.8629 -3.3637 -2.4611
  705MOL0     H97255  11.778   1.448   9.966  0.7992  0.7986 -0.3423
  705MOL0     H97256  11.875   1.240   9.966  0.1214 -0.0593 -0.0809
  705MOL0     H97257  11.886   1.230   9.783  0.9052 -0.5375 -0.5443
  705MOL0     H97258  12.060   1.395   9.970 -2.1497  1.9719 -0.6020
  705MOL0     H97259  12.056   1.413   9.797 -0.9970 -0.9403 -0.8203
  705MOL0     H97260  12.163   1.200   9.759  2.5740  0.1418 -0.4355
  705MOL0     H97261  12.103   1.143   9.910 -2.1388 -0.8788 -3.0172
  705MOL0     H97262  12.289   1.316  10.018  4.3529 -0.5562  0.2231
  705MOL0     H97263  12.364   1.206   9.910  2.2686  2.6640 -1.2573
  705MOL0     H97264  12.258   1.463   9.798  1.7160  3.4509  3.3452
  705MOL0     H97265  12.357   1.335   9.726  0.4905 -1.0324  0.3619
  705MOL0     H97266  12.526   1.453   9.747  0.2038  1.7709  0.2328
  705MOL0     H97267  12.529   1.393   9.917 -1.4069 -1.3560  0.9924
  705MOL0     H97268  12.420   1.665   9.824  3.4939  1.3284 -1.3236
  705MOL0     H97269  12.576   1.635   9.886 -0.2727  0.4699 -2.4735
  705MOL0     H97270  11.444   1.408   9.863  3.0657  0.3230  2.8263
  705MOL0     H97271  11.285   1.566   9.786 -0.2227 -1.9677  0.6147
  705MOL0     H97272  11.266   1.859   9.375  0.3970 -0.8660  2.0555
  705MOL0     H97273  11.173   2.048   9.227  0.6257  4.8222 -0.0298
  705MOL0     H97274  10.850   2.329   7.826 -0.6518  0.7112  0.2699
  705MOL0     H97275  11.062   2.187   7.776 -0.9353  1.3160 -1.0947
  705MOL0     H97276  11.115   1.660   7.794 -0.8401  0.7074  0.1003
  705MOL0     H97277  11.268   1.459   7.741 -1.4040 -0.2081 -1.1917
  705MOL0     H97278  11.627   1.423   7.902 -3.0545  0.1410  3.9385
  705MOL0     H97279  11.456   1.385   7.903 -1.7604 -0.8198 -0.7438
  705MOL0     H97280  11.667   1.224   7.754 -0.0872  0.5540 -0.9207
  705MOL0     H97281  11.503   1.206   7.723  0.5342  1.2031 -1.6121
  705MOL0     H97282  11.605   1.202   8.005 -0.0143  0.7155  0.2708
  705MOL0     H97283  11.448   1.150   7.965 -0.0882  0.2369  0.5013
  705MOL0     H97284  11.652   0.978   8.005 -0.8383 -1.3838  1.4595
  705MOL0     H97285  11.701   1.034   7.837 -1.2648  1.3594 -0.7836
  705MOL0     H97286  11.387   0.761   7.772  0.7399  1.1459 -2.8665
  705MOL0     H97287  11.606   1.708   7.704  0.0914  1.1055 -0.2691
  705MOL0     H97288  11.417   2.001   7.620 -0.0075  0.7309  1.5682
  705MOL0     H97289  11.507   1.996   7.785  4.2742  2.0025 -2.1532
  705MOL0     H97290  11.579   1.940   7.646 -0.7563  3.5019 -2.8838
  706MOL0     O97291   8.123   1.482  10.970 -0.2979  0.0312 -1.0116
  706MOL0     C97292   8.118   1.440  11.087 -0.7507 -0.0342 -1.0249
  706MOL0     O97293   8.012   1.376  11.149 -0.3167 -0.1051 -0.4685
  706MOL0     C97294   7.901   1.331  11.069 -0.3321  0.1284  0.9433
  706MOL0     C97295   7.927   1.234  10.972 -0.4227  0.2668 -0.7941
  706MOL0     C97296   7.821   1.180  10.906  0.6957  0.1808  0.7887
  706MOL0     C97297   7.687   1.224  10.928 -0.3299 -0.2095 -0.4369
  706MOL0     O97298   7.572   1.181  10.867  0.1068 -0.0648  0.2536
  706MOL0     C97299   7.533   1.037  10.885 -1.5726 -0.1117  0.3515
  706MOL0     C97300   7.387   1.004  10.848  0.0113  0.3479  0.0392
  706MOL0     C97301   7.365   1.047  10.702 -0.1788 -1.2907 -0.0933
  706MOL0     C97302   7.236   0.975  10.663 -0.0951 -1.4582  0.0605
  706MOL0     C97303   7.212   0.974  10.515  1.0556 -0.1025  0.2845
  706MOL0     C97304   7.074   1.020  10.481  0.6627  0.5027 -0.7954
  706MOL0     C97305   7.038   0.987  10.331  0.5184  0.4824 -0.7454
  706MOL0     C97306   6.892   0.963  10.292  0.1684 -0.2197  0.3872
  706MOL0     N97307   6.820   0.831  10.325 -0.3266 -0.1803  0.7006
  706MOL0     C97308   6.751   0.802  10.436  0.3667 -0.4702  0.0798
  706MOL0     C97309   6.701   0.678  10.412  0.0520 -0.4594 -0.2247
  706MOL0     C97310   6.607   0.594  10.503  0.7556 -0.4806  0.2394
  706MOL0     C97311   6.486   0.650  10.549  0.6786  0.7255 -0.5360
  706MOL0     C97312   6.359   0.647  10.451 -0.2565 -0.0187  0.2987
  706MOL0     C97313   6.354   0.792  10.389 -0.0540  0.7064 -0.1240
  706MOL0     O97314   6.217   0.823  10.354 -0.4245  0.4321  0.6616
  706MOL0     C97315   6.136   0.878  10.451  0.2503 -0.2105 -0.4512
  706MOL0     C97316   6.161   0.895  10.587 -0.2402  0.2110  0.0081
  706MOL0     C97317   6.063   0.950  10.674 -0.6602 -0.5307  0.3803
  706MOL0     C97318   6.096   0.948  10.826  0.1351  0.2722 -0.1305
  706MOL0     C97319   5.934   0.996  10.627 -0.5804 -0.9030  0.2195
  706MOL0     C97320   5.826   1.050  10.708  1.2007  0.0089 -0.6953
  706MOL0     O97321   5.836   1.040  10.832 -0.2075  1.3718  0.0798
  706MOL0     C97322   5.764   1.107  10.927  0.6982  0.3867 -0.4585
  706MOL0     C97323   5.689   1.223  10.914 -0.6358 -0.2296 -1.4337
  706MOL0     C97324   5.625   1.282  11.017 -1.1420 -0.2384 -0.2799
  706MOL0     C97325   5.628   1.217  11.141 -0.4748  0.8576  0.3630
  706MOL0     O97326   5.562   1.288  11.237  0.4363  0.3795  0.0599
  706MOL0     C97327   5.585   1.239  11.368  0.2265 -0.2683  0.2318
  706MOL0     C97328   5.517   1.343  11.461  0.3095 -0.2967 -0.2948
  706MOL0     C97329   5.461   1.270  11.590 -0.5738 -1.0068 -0.1505
  706MOL0     C97330   5.458   1.360  11.717 -0.0308  0.8164  0.1409
  706MOL0     C97331   5.366   1.482  11.711 -0.6211  0.0716 -0.8447
  706MOL0     C97332   5.222   1.446  11.668 -0.1365 -0.2176  0.4667
  706MOL0     C97333   5.114   1.555  11.668 -0.4945  0.2191 -0.6836
  706MOL0     C97334   4.991   1.511  11.596 -0.1932  0.0634 -0.1771
  706MOL0    Cl97335   4.884   1.663  11.570  0.4235 -0.2404  0.0834
  706MOL0     C97336   5.688   1.100  11.152  0.0795 -0.4674  0.4794
  706MOL0     C97337   5.760   1.045  11.052 -1.3432  0.4194  0.5764
  706MOL0     O97338   5.731   1.104  10.651  1.4288 -0.0234  0.5015
  706MOL0     C97339   5.921   0.981  10.491  0.4874  0.6251 -0.0846
  706MOL0     C97340   6.007   0.921  10.406 -0.4087 -0.3943 -0.7606
  706MOL0     N97341   6.723   0.642  10.278  0.4166 -0.2490 -0.1050
  706MOL0     N97342   6.801   0.737  10.234 -0.1205  0.0370  0.5999
  706MOL0     C97343   7.664   1.325  11.021  0.1622 -0.5041  0.4390
  706MOL0     C97344   7.775   1.379  11.093 -0.0823  0.3364  0.0716
  706MOL0     C97345   8.245   1.459  11.159  1.3248 -0.1793 -0.5639
  706MOL0     C97346   8.256   1.403  11.285 -0.7202 -0.5628 -0.4238
  706MOL0     C97347   8.378   1.417  11.354 -0.3133 -1.4887  1.0926
  706MOL0     C97348   8.488   1.499  11.309  1.0194  0.0597 -0.6889
  706MOL0     O97349   8.608   1.519  11.381  0.1556 -0.2321 -0.4997
  706MOL0     C97350   8.616   1.487  11.515  0.0471  1.3892  0.3594
  706MOL0     C97351   8.692   1.579  11.599 -0.7636  0.4802 -0.3931
  706MOL0     C97352   8.652   1.726  11.593  0.2801  0.0044 -0.1559
  706MOL0     C97353   8.738   1.808  11.692 -0.0158 -0.4787  0.0533
  706MOL0     C97354   8.878   1.806  11.673 -0.3822  0.1650  0.4941
  706MOL0     C97355   8.996   1.817  11.655  0.0694  0.4226  0.5157
  706MOL0     C97356   8.477   1.545  11.185 -0.5093 -0.4814 -0.3450
  706MOL0     C97357   8.361   1.531  11.106 -0.9429 -0.3801  0.0597
  706MOL0     C97358   8.372   1.613  10.972  0.1220 -0.0016 -0.7436
  706MOL0     H97359   8.029   1.204  10.956  0.5436  2.7798  0.1499
  706MOL0     H97360   7.838   1.093  10.842 -0.4234  0.8164 -0.4448
  706MOL0     H97361   7.558   1.003  10.986  0.2987 -1.1026 -0.3823
  706MOL0     H97362   7.612   0.983  10.831 -2.0011  0.4752 -0.9188
  706MOL0     H97363   7.363   0.898  10.845 -0.9391  0.5694 -0.9690
  706MOL0     H97364   7.312   1.048  10.914  0.1389 -2.0686  1.9491
  706MOL0     H97365   7.339   1.153  10.705  2.1184 -0.6634 -0.2842
  706MOL0     H97366   7.459   1.019  10.653 -1.5569 -1.4618 -2.8180
  706MOL0     H97367   7.240   0.868  10.686 -1.5816 -1.2842  1.2960
  706MOL0     H97368   7.156   1.022  10.721  0.5579 -0.0699 -0.1375
  706MOL0     H97369   7.231   0.872  10.479 -2.5102 -1.3696  1.5003
  706MOL0     H97370   7.288   1.038  10.470  2.5300 -0.0797  2.6601
  706MOL0     H97371   7.013   0.952  10.541  1.3982 -0.3892 -1.0414
  706MOL0     H97372   7.052   1.123  10.510  1.6729  1.2461 -2.4946
  706MOL0     H97373   7.073   0.885  10.314 -0.4816 -0.0493  0.2569
  706MOL0     H97374   7.082   1.057  10.259  2.0262  1.1844  0.7931
  706MOL0     H97375   6.832   1.036  10.346  2.2072  1.4638  0.5057
  706MOL0     H97376   6.879   0.982  10.185  1.4221  0.9127  0.4042
  706MOL0     H97377   6.722   0.869  10.516  0.8982 -0.1952  0.0452
  706MOL0     H97378   6.667   0.570  10.591 -0.1524 -6.1691 -0.3154
  706MOL0     H97379   6.578   0.500  10.455 -0.3281  1.3657 -3.0175
  706MOL0     H97380   6.467   0.596  10.643 -2.5689 -0.4113 -1.6915
  706MOL0     H97381   6.509   0.747  10.592  3.2429 -0.2654  0.5497
  706MOL0     H97382   6.368   0.560  10.386  0.9310 -0.4761  1.0388
  706MOL0     H97383   6.265   0.640  10.505 -0.2997 -2.8522 -0.0071
  706MOL0     H97384   6.385   0.857  10.471  0.8826 -0.4079  0.4270
  706MOL0     H97385   6.426   0.796  10.306  0.7522 -1.7831  0.3986
  706MOL0     H97386   6.252   0.850  10.626 -0.7807 -0.0382  1.0264
  706MOL0     H97387   6.184   0.884  10.840 -0.5175 -0.5374  0.3348
  706MOL0     H97388   6.018   0.901  10.886  0.7214 -0.7563 -0.1456
  706MOL0     H97389   6.136   1.044  10.861  2.6794 -0.0637 -1.8324
  706MOL0     H97390   5.685   1.278  10.820 -2.6817 -2.1077 -2.5442
  706MOL0     H97391   5.577   1.380  11.013 -1.6226 -0.4405  0.3596
  706MOL0     H97392   5.528   1.148  11.389  0.4498 -0.1659  1.3395
  706MOL0     H97393   5.691   1.215  11.374 -0.3316 -2.7871  1.1557
  706MOL0     H97394   5.598   1.410  11.490  0.4528 -0.5716 -0.0622
  706MOL0     H97395   5.437   1.389  11.402 -0.4329 -4.8069 -3.2924
  706MOL0     H97396   5.549   1.209  11.615  1.4135  0.2698 -3.3923
  706MOL0     H97397   5.366   1.217  11.579 -3.7781  3.0034  4.1660
  706MOL0     H97398   5.559   1.394  11.741 -0.4504  3.3053 -1.2746
  706MOL0     H97399   5.441   1.294  11.802 -0.7414 -0.6616 -1.0775
  706MOL0     H97400   5.358   1.526  11.811 -0.7828 -0.9144 -0.4185
  706MOL0     H97401   5.415   1.557  11.647 -0.2979  0.7278  0.1423
  706MOL0     H97402   5.183   1.361  11.725 -0.0729 -1.7044 -1.5628
  706MOL0     H97403   5.240   1.408  11.567  1.9261 -0.0097  0.7280
  706MOL0     H97404   5.153   1.650  11.630  0.2855  0.8671  1.5637
  706MOL0     H97405   5.084   1.570  11.772 -2.9562 -0.0273 -1.3028
  706MOL0     H97406   4.939   1.434  11.653 -0.5475 -0.3517 -1.0459
  706MOL0     H97407   5.028   1.485  11.496  1.2845 -1.2977  0.6755
  706MOL0     H97408   5.667   1.043  11.243 -1.5378  0.0219  0.4381
  706MOL0     H97409   5.813   0.952  11.070  1.6633  1.8565 -0.2020
  706MOL0     H97410   5.835   1.019  10.436 -0.0206  1.4090  1.2117
  706MOL0     H97411   5.976   0.918  10.302 -1.3037 -0.5453 -0.4971
  706MOL0     H97412   7.562   1.363  11.018  0.3087 -0.1370 -2.0500
  706MOL0     H97413   7.745   1.454  11.165 -4.0746  0.6375 -1.6456
  706MOL0     H97414   8.168   1.358  11.331 -1.0940 -1.4579 -1.9241
  706MOL0     H97415   8.374   1.371  11.452 -0.5546 -6.5603 -0.9510
  706MOL0     H97416   8.521   1.458  11.561  0.4575 -1.7345 -0.5508
  706MOL0     H97417   8.674   1.394  11.522 -1.6494  0.4173  2.6212
  706MOL0     H97418   8.797   1.564  11.572 -0.8068 -0.5446 -0.0546
  706MOL0     H97419   8.680   1.548  11.703  2.0378  0.3969 -0.0062
  706MOL0     H97420   8.666   1.765  11.492  1.8002 -2.2665 -0.9021
  706MOL0     H97421   8.548   1.748  11.619  0.6356  1.0966  0.4418
  706MOL0     H97422   8.732   1.757  11.788  0.8793 -2.0501 -0.6803
  706MOL0     H97423   8.709   1.913  11.702  0.9919 -0.4128  2.9065
  706MOL0     H97424   9.102   1.829  11.654  0.1891 -0.4737 -1.1555
  706MOL0     H97425   8.548   1.618  11.148 -1.4168 -0.1111 -1.4003
  706MOL0     H97426   8.452   1.687  10.970 -1.6626  2.1260  0.9462
  706MOL0     H97427   8.377   1.536  10.895 -0.3314 -2.0378  1.1617
  706MOL0     H97428   8.282   1.672  10.950 -0.9866 -1.3467 -0.0424
  707MOL0     O97429   0.845   9.491   3.313  0.6260 -0.1638 -0.1924
  707MOL0     C97430   0.964   9.458   3.331  0.1144  0.4401  0.1167
  707MOL0     O97431   1.004   9.338   3.374 -0.8657  0.6175  0.6923
  707MOL0     C97432   0.917   9.243   3.410 -0.2190  0.2334  0.6449
  707MOL0     C97433   0.840   9.256   3.517 -0.1150  0.1969  0.6695
  707MOL0     C97434   0.756   9.158   3.553  0.6476  0.2931 -1.0572
  707MOL0     C97435   0.764   9.026   3.490 -0.5436 -0.8362  0.0090
  707MOL0     O97436   0.679   8.927   3.525 -0.4987 -0.0391  0.4573
  707MOL0     C97437   0.597   8.944   3.639  0.8041  0.1848 -0.1543
  707MOL0     C97438   0.504   8.821   3.651 -0.0038  0.4451  1.0078
  707MOL0     C97439   0.373   8.856   3.732  0.1320 -0.2465 -0.3025
  707MOL0     C97440   0.249   8.906   3.647 -0.6685  0.2988 -0.0115
  707MOL0     C97441   0.169   9.001   3.740  0.5474 -0.0848  1.1919
  707MOL0     C97442   0.115   8.934   3.859 -0.5521  0.3230  0.5385
  707MOL0     C97443   0.030   9.028   3.944  0.1207 -0.8074 -0.2730
  707MOL0     C97444  -0.017   8.965   4.071  0.1452  0.3621 -0.7911
  707MOL0     N97445  -0.076   9.072   4.159 -0.9643  0.2769  0.4520
  707MOL0     C97446  -0.199   9.063   4.220 -1.4332 -0.7440  0.3249
  707MOL0     C97447  -0.191   9.179   4.300 -0.4386 -0.7096 -0.0228
  707MOL0     C97448  -0.305   9.236   4.384 -0.7439 -0.4052  0.0548
  707MOL0     C97449  -0.270   9.353   4.479  0.3279 -0.1840 -0.3127
  707MOL0     C97450  -0.402   9.417   4.537 -0.5213  0.6461  0.1510
  707MOL0     C97451  -0.402   9.567   4.572 -0.2272  0.7441  0.0783
  707MOL0     O97452  -0.541   9.613   4.592 -0.6532  0.3920 -0.9210
  707MOL0     C97453  -0.552   9.742   4.620 -0.1956  0.2132  0.3468
  707MOL0     C97454  -0.689   9.776   4.637 -0.1048  0.2717  1.1463
  707MOL0     C97455  -0.723   9.907   4.669  0.4888 -0.7382  0.1353
  707MOL0     C97456  -0.857   9.958   4.639  0.4310  0.0106 -0.2191
  707MOL0     C97457  -0.622   9.998   4.726  0.1194 -0.6238 -0.2127
  707MOL0     C97458  -0.637  10.140   4.778  1.1681 -0.2623 -0.8244
  707MOL0     O97459  -0.536  10.192   4.856  0.3280  0.9154  0.0699
  707MOL0     C97460  -0.537  10.310   4.908  0.3117 -0.1824 -0.5807
  707MOL0     C97461  -0.652  10.361   4.980 -0.2130  0.2619  0.5183
  707MOL0     C97462  -0.641  10.481   5.039  0.8297 -0.5475  0.5385
  707MOL0     C97463  -0.535  10.575   5.006  0.7413  0.0148 -0.2022
  707MOL0     O97464  -0.546  10.704   5.050 -0.3874 -0.0827  0.5077
  707MOL0     C97465  -0.551  10.796   4.942 -0.4406  0.0298 -0.4447
  707MOL0     C97466  -0.688  10.837   4.901  0.3943  0.3507  0.0981
  707MOL0     C97467  -0.662  10.904   4.759 -0.0902  0.0988 -0.6012
  707MOL0     C97468  -0.607  11.050   4.761  0.0210  1.1195 -0.8853
  707MOL0     C97469  -0.720  11.151   4.764  0.1150 -0.4470  0.2090
  707MOL0     C97470  -0.662  11.283   4.767  0.0819  0.6909 -0.3132
  707MOL0     C97471  -0.744  11.399   4.729  0.3441 -0.1630  1.5244
  707MOL0     C97472  -0.733  11.517   4.828 -0.6842 -0.0802  0.0511
  707MOL0    Cl97473  -0.570  11.577   4.806 -0.1509 -0.4450 -0.6415
  707MOL0     C97474  -0.425  10.529   4.940 -0.6622  0.0925 -0.1528
  707MOL0     C97475  -0.419  10.392   4.901  0.2747 -0.8821  0.4834
  707MOL0     O97476  -0.735  10.201   4.732  0.2692 -0.6592 -0.0383
  707MOL0     C97477  -0.487   9.954   4.713 -0.8042  0.1661 -0.7296
  707MOL0     C97478  -0.450   9.833   4.654  0.3474  0.4634  0.0187
  707MOL0     N97479  -0.068   9.247   4.290 -0.0322 -0.0753 -0.5583
  707MOL0     N97480  -0.001   9.173   4.206 -0.0574  0.0864 -0.2332
  707MOL0     C97481   0.837   9.014   3.373  0.2640 -0.0252  0.1996
  707MOL0     C97482   0.914   9.122   3.337  0.6395  0.7068 -0.6263
  707MOL0     C97483   1.065   9.564   3.307 -0.5383  0.7818 -0.0749
  707MOL0     C97484   1.027   9.689   3.344 -1.2864  0.7280  0.3801
  707MOL0     C97485   1.117   9.798   3.330  0.7671 -0.3689 -0.2707
  707MOL0     C97486   1.242   9.785   3.277  0.1488  0.6669 -0.1124
  707MOL0     O97487   1.342   9.878   3.246 -0.1706  0.3522 -0.0362
  707MOL0     C97488   1.326  10.006   3.307  1.3201 -0.8274 -0.3497
  707MOL0     C97489   1.442  10.092   3.257 -0.7307  0.8920  0.0689
  707MOL0     C97490   1.401  10.245   3.231 -0.0924 -0.7390  0.0388
  707MOL0     C97491   1.474  10.310   3.115 -0.2421 -0.5273 -0.8925
  707MOL0     C97492   1.616  10.308   3.146  0.1246 -0.8094 -0.3275
  707MOL0     C97493   1.736  10.295   3.186 -0.5536  0.4201  0.2691
  707MOL0     C97494   1.276   9.652   3.235 -1.2151  0.2399  0.2072
  707MOL0     C97495   1.193   9.542   3.257  0.4451 -0.2960  0.2926
  707MOL0     C97496   1.244   9.396   3.219 -0.2631  0.7813  0.2867
  707MOL0     H97497   0.820   9.349   3.570 -0.4337  0.6324 -0.1909
  707MOL0     H97498   0.687   9.182   3.634  1.3671  0.6220 -0.5251
  707MOL0     H97499   0.543   9.038   3.628 -0.2039 -0.4426 -0.7103
  707MOL0     H97500   0.659   8.944   3.729  1.1957  1.1546 -0.4153
  707MOL0     H97501   0.481   8.780   3.552  1.5579 -3.1145  1.9871
  707MOL0     H97502   0.562   8.744   3.702  0.8604 -0.0368 -0.6469
  707MOL0     H97503   0.335   8.768   3.786  1.4904  0.1971  1.4802
  707MOL0     H97504   0.404   8.925   3.811  0.6111 -1.2385  0.3923
  707MOL0     H97505   0.294   8.964   3.566  1.0982  0.8348  1.2788
  707MOL0     H97506   0.186   8.825   3.608  2.4618 -2.0007 -0.7169
  707MOL0     H97507   0.086   9.039   3.680 -0.8112 -1.8491  1.8805
  707MOL0     H97508   0.213   9.099   3.763  1.6603 -1.3044  4.9274
  707MOL0     H97509   0.053   8.855   3.816 -0.0569 -0.1874  0.7612
  707MOL0     H97510   0.193   8.891   3.921 -0.3218 -0.7977 -0.4828
  707MOL0     H97511  -0.061   9.056   3.891  0.1816 -2.7382 -1.4911
  707MOL0     H97512   0.081   9.123   3.960 -0.4295 -0.1623 -2.0645
  707MOL0     H97513  -0.085   8.883   4.042  0.8874 -0.2007 -0.9585
  707MOL0     H97514   0.060   8.906   4.121 -0.9076  1.7013  2.6547
  707MOL0     H97515  -0.280   8.993   4.205 -1.1594 -1.2860  1.2846
  707MOL0     H97516  -0.338   9.151   4.445 -0.8118  0.2002  0.8802
  707MOL0     H97517  -0.391   9.275   4.329  0.3990  2.9720  0.4639
  707MOL0     H97518  -0.209   9.310   4.559  0.1608  3.1628  1.8036
  707MOL0     H97519  -0.213   9.432   4.429 -0.5444 -0.0168 -1.0676
  707MOL0     H97520  -0.485   9.402   4.468  1.3164  1.9223 -2.5032
  707MOL0     H97521  -0.428   9.375   4.635  2.7932  1.3017  1.4542
  707MOL0     H97522  -0.344   9.573   4.664 -0.1544  0.3024  0.0620
  707MOL0     H97523  -0.366   9.623   4.485 -0.4094 -1.0134 -1.1832
  707MOL0     H97524  -0.768   9.705   4.613  0.3075  1.0013 -3.1025
  707MOL0     H97525  -0.911   9.972   4.732 -1.6409 -0.3612 -1.3018
  707MOL0     H97526  -0.917   9.884   4.584 -1.9845  1.1280  0.8056
  707MOL0     H97527  -0.849  10.045   4.573  1.5903  1.8632  2.2313
  707MOL0     H97528  -0.751  10.320   4.996 -0.6301  1.2263  0.4582
  707MOL0     H97529  -0.731  10.509   5.092  0.2640 -1.1103 -0.1013
  707MOL0     H97530  -0.497  10.885   4.975  2.5280 -2.3743  1.7605
  707MOL0     H97531  -0.487  10.760   4.861  1.7410  1.8989  0.3355
  707MOL0     H97532  -0.764  10.759   4.887 -1.7569  2.4141 -0.4691
  707MOL0     H97533  -0.728  10.911   4.971 -1.2190 -0.4257  0.0600
  707MOL0     H97534  -0.759  10.906   4.708 -2.5082  0.4225  3.5646
  707MOL0     H97535  -0.594  10.839   4.703 -1.1808 -0.2147 -1.6012
  707MOL0     H97536  -0.556  11.066   4.666 -2.3330 -2.4422 -3.0013
  707MOL0     H97537  -0.544  11.061   4.850 -2.2094  2.4848  0.6727
  707MOL0     H97538  -0.787  11.144   4.678 -3.0008 -1.8829  2.5067
  707MOL0     H97539  -0.793  11.122   4.841  1.5657  1.4294  2.3833
  707MOL0     H97540  -0.573  11.285   4.703  1.3808  0.4202  1.4172
  707MOL0     H97541  -0.614  11.295   4.864 -1.7475  0.1624  0.7140
  707MOL0     H97542  -0.844  11.363   4.702  0.5659  0.9822 -1.0850
  707MOL0     H97543  -0.722  11.439   4.630  0.1218  0.1700  1.6067
  707MOL0     H97544  -0.751  11.478   4.929 -2.5049 -1.1579 -0.6365
  707MOL0     H97545  -0.802  11.601   4.815 -2.2527 -1.7159 -3.7174
  707MOL0     H97546  -0.341  10.596   4.923 -1.0396  0.0679 -2.4443
  707MOL0     H97547  -0.331  10.349   4.854  0.9058 -0.9598  1.6977
  707MOL0     H97548  -0.407  10.016   4.752 -2.2023 -0.0413  2.8576
  707MOL0     H97549  -0.349   9.796   4.636  0.5009  0.7399  0.3007
  707MOL0     H97550   0.832   8.921   3.318  2.3620 -1.4743  2.2534
  707MOL0     H97551   0.971   9.121   3.244  0.8839 -2.8680 -0.5833
  707MOL0     H97552   0.925   9.716   3.368 -0.8891  0.8301  2.1008
  707MOL0     H97553   1.087   9.894   3.370  2.6120 -0.6961  2.1367
  707MOL0     H97554   1.232  10.051   3.273  1.5305 -0.8287 -0.9502
  707MOL0     H97555   1.324  10.010   3.416  0.8064 -1.1070 -0.3436
  707MOL0     H97556   1.487  10.051   3.166  1.1411 -1.4661  1.9079
  707MOL0     H97557   1.520  10.090   3.335  0.3863  2.5023 -0.9516
  707MOL0     H97558   1.296  10.254   3.203 -0.3208  1.1252  1.3614
  707MOL0     H97559   1.417  10.312   3.315  0.0593 -0.6354 -0.0717
  707MOL0     H97560   1.435  10.411   3.100  0.0118 -0.6539 -2.6226
  707MOL0     H97561   1.466  10.259   3.018 -3.5918 -1.7815 -0.0717
  707MOL0     H97562   1.837  10.292   3.221 -0.7406 -0.2055  0.7790
  707MOL0     H97563   1.377   9.627   3.203 -1.0781 -3.4011  2.8171
  707MOL0     H97564   1.337   9.397   3.162 -1.0927 -0.3309 -1.1592
  707MOL0     H97565   1.262   9.336   3.309 -0.8740 -0.5658 -0.4615
  707MOL0     H97566   1.169   9.337   3.166  1.2414  0.6071 -1.7820
  708MOL0     O97567   2.569   2.308  11.295 -0.8996 -0.1010 -0.0453
  708MOL0     C97568   2.466   2.251  11.333  0.3692  0.1346  0.1036
  708MOL0     O97569   2.465   2.127  11.383  0.3023 -0.1383  0.3511
  708MOL0     C97570   2.556   2.028  11.374  0.3135  0.7512  0.9876
  708MOL0     C97571   2.682   2.033  11.319 -0.0982  0.6185  0.2550
  708MOL0     C97572   2.765   1.911  11.304 -0.4899  0.0553  0.1661
  708MOL0     C97573   2.728   1.783  11.341  0.0658 -0.7750  0.0801
  708MOL0     O97574   2.810   1.669  11.327  0.3247 -0.0881  0.3719
  708MOL0     C97575   2.911   1.660  11.236  0.2688 -0.6562 -0.2304
  708MOL0     C97576   2.923   1.527  11.164  0.4407  0.2310  1.0579
  708MOL0     C97577   3.044   1.526  11.066  0.3030  0.1627 -1.0092
  708MOL0     C97578   3.061   1.386  11.008 -1.1792 -0.8632  0.6460
  708MOL0     C97579   3.129   1.296  11.116  0.1475  0.5136 -1.1164
  708MOL0     C97580   3.147   1.155  11.064  0.0669 -0.2663  0.2535
  708MOL0     C97581   3.219   1.073  11.162 -0.1251  0.3510  0.9374
  708MOL0     C97582   3.240   0.922  11.121  0.6127 -1.4587 -0.1972
  708MOL0     N97583   3.309   0.856  11.234 -0.4707  0.8441 -0.4287
  708MOL0     C97584   3.444   0.824  11.249 -0.2768 -0.5944 -0.1420
  708MOL0     C97585   3.445   0.710  11.323 -0.0603 -0.5600  0.2194
  708MOL0     C97586   3.572   0.649  11.377 -0.0765 -0.6809 -0.1535
  708MOL0     C97587   3.578   0.675  11.527 -0.1677 -0.1863  0.4040
  708MOL0     C97588   3.668   0.805  11.555  0.8533  0.2705 -0.2017
  708MOL0     C97589   3.721   0.807  11.688  0.3821  0.6321 -0.5106
  708MOL0     O97590   3.798   0.687  11.730 -0.2909  0.3844 -0.4220
  708MOL0     C97591   3.884   0.690  11.836  0.0406 -0.6541  0.1164
  708MOL0     C97592   3.940   0.572  11.878  1.0498  0.5152  1.0002
  708MOL0     C97593   4.029   0.559  11.983 -0.4743 -0.1745  0.5202
  708MOL0     C97594   4.077   0.425  12.016  0.6565 -1.0802 -0.9105
  708MOL0     C97595   4.060   0.669  12.053 -0.0670 -0.3522  0.7393
  708MOL0     C97596   4.147   0.671  12.167  0.1116 -0.5570  0.2869
  708MOL0     O97597   4.124   0.573  12.255 -0.4905 -0.7224  0.2774
  708MOL0     C97598   4.207   0.542  12.361  0.7521 -0.0767 -0.5665
  708MOL0     C97599   4.211   0.412  12.402  1.3862 -0.5554 -0.6540
  708MOL0     C97600   4.282   0.370  12.510 -0.4572  0.0631 -0.1703
  708MOL0     C97601   4.370   0.460  12.578 -0.1116  0.7214  0.4101
  708MOL0     O97602   4.458   0.428  12.683  0.4811 -0.4723 -0.1019
  708MOL0     C97603   4.492   0.293  12.700  0.3989  0.0672  0.3056
  708MOL0     C97604   4.612   0.277  12.799  0.8213 -0.6218 -0.1256
  708MOL0     C97605   4.585   0.323  12.940  0.2089 -0.4780 -0.2930
  708MOL0     C97606   4.450   0.285  12.990  0.1355  1.0856 -0.8191
  708MOL0     C97607   4.447   0.319  13.135  0.2498  0.9400 -0.1486
  708MOL0     C97608   4.312   0.276  13.191  1.5419  0.2975  1.1866
  708MOL0     C97609   4.279   0.330  13.328  1.3334 -0.4709 -0.2882
  708MOL0     C97610   4.162   0.269  13.388  0.0673 -1.1048  1.0082
  708MOL0    Cl97611   4.011   0.320  13.311  0.4017  0.2428 -0.5348
  708MOL0     C97612   4.364   0.591  12.535  0.4614 -0.1928 -0.0402
  708MOL0     C97613   4.280   0.642  12.435  0.9334 -0.1735  0.1129
  708MOL0     O97614   4.249   0.742  12.158 -0.3774 -0.2281 -0.1063
  708MOL0     C97615   4.008   0.797  12.014 -0.0911  0.0000  0.0442
  708MOL0     C97616   3.918   0.813  11.909 -0.4650  0.8179 -0.1038
  708MOL0     N97617   3.322   0.676  11.354 -0.1205  1.1899 -0.2363
  708MOL0     N97618   3.239   0.766  11.313  0.4993 -0.9966  0.7689
  708MOL0     C97619   2.603   1.786  11.405  0.0092 -0.3862 -0.0614
  708MOL0     C97620   2.514   1.899  11.425  1.8004 -1.4164 -0.3303
  708MOL0     C97621   2.332   2.319  11.330  0.7703 -0.0815 -0.1188
  708MOL0     C97622   2.217   2.240  11.363  0.0925 -1.1088  0.6468
  708MOL0     C97623   2.090   2.294  11.379 -0.2543 -0.0442 -0.8631
  708MOL0     C97624   2.070   2.428  11.337  0.4920  0.2435  0.2409
  708MOL0     O97625   1.950   2.481  11.323  0.3896 -0.2510 -1.2738
  708MOL0     C97626   1.831   2.419  11.362  0.1584  0.2588 -0.4213
  708MOL0     C97627   1.814   2.421  11.518 -0.0461 -0.3397  0.5282
  708MOL0     C97628   1.701   2.327  11.581 -0.9054 -0.4031 -0.1531
  708MOL0     C97629   1.654   2.372  11.721  0.2417 -0.4575 -0.5848
  708MOL0     C97630   1.583   2.498  11.724 -0.7907 -0.9863  0.1299
  708MOL0     C97631   1.532   2.611  11.711  0.0548  0.0269 -0.6587
  708MOL0     C97632   2.178   2.502  11.295 -0.9236  0.1105 -0.2838
  708MOL0     C97633   2.310   2.453  11.286  0.1700 -0.6148 -0.7900
  708MOL0     C97634   2.412   2.547  11.218  0.7742 -0.5530 -0.3038
  708MOL0     H97635   2.730   2.125  11.286 -0.6262  0.8670  0.1768
  708MOL0     H97636   2.868   1.922  11.273  0.2552 -1.0785  2.0293
  708MOL0     H97637   3.009   1.692  11.273  0.6874 -2.0734 -0.0410
  708MOL0     H97638   2.884   1.733  11.159  0.0827 -1.9578 -1.4638
  708MOL0     H97639   2.922   1.449  11.241 -2.1158 -0.9784 -0.0878
  708MOL0     H97640   2.836   1.519  11.098  0.2585  0.2671  1.2910
  708MOL0     H97641   3.046   1.608  10.994  1.2797  0.1473 -1.0081
  708MOL0     H97642   3.133   1.548  11.125 -1.3888  2.1662  0.9719
  708MOL0     H97643   2.966   1.339  10.982 -0.8758 -0.4335 -1.4517
  708MOL0     H97644   3.119   1.389  10.915  0.1323  1.8685  1.4484
  708MOL0     H97645   3.063   1.291  11.203  0.3188 -0.2970 -1.0192
  708MOL0     H97646   3.225   1.339  11.148 -0.4902  1.2914 -0.2130
  708MOL0     H97647   3.048   1.124  11.029 -1.5888  3.6795  0.9019
  708MOL0     H97648   3.206   1.164  10.973 -0.7482  0.0786 -0.2595
  708MOL0     H97649   3.166   1.082  11.256 -2.1089  0.1513 -0.1074
  708MOL0     H97650   3.315   1.120  11.182  0.5498 -0.3396 -0.4601
  708MOL0     H97651   3.150   0.865  11.095  0.2876 -1.3535  0.6866
  708MOL0     H97652   3.314   0.921  11.040  1.5175  0.2094  0.5690
  708MOL0     H97653   3.534   0.870  11.210  0.6299 -0.2747  2.1480
  708MOL0     H97654   3.664   0.673  11.325 -1.7713 -1.6752 -3.9403
  708MOL0     H97655   3.564   0.541  11.359  2.0071 -0.8663 -0.2110
  708MOL0     H97656   3.477   0.680  11.570 -0.5241 -2.9144  0.0641
  708MOL0     H97657   3.620   0.584  11.570 -0.1775  0.2606  1.3921
  708MOL0     H97658   3.748   0.831  11.485 -0.4855  3.1238 -0.8471
  708MOL0     H97659   3.590   0.881  11.542  1.8251  1.1248 -1.3827
  708MOL0     H97660   3.786   0.894  11.698  2.8856 -1.3540  2.1652
  708MOL0     H97661   3.641   0.826  11.760 -1.0296  0.7819 -2.0565
  708MOL0     H97662   3.900   0.489  11.821 -0.6012  1.9437 -0.0192
  708MOL0     H97663   3.995   0.374  12.068  1.4165 -0.1351  1.3104
  708MOL0     H97664   4.166   0.423  12.079  1.2723  2.2367 -1.5174
  708MOL0     H97665   4.094   0.370  11.922  1.0063  0.3295 -1.6965
  708MOL0     H97666   4.149   0.344  12.344 -1.2422 -0.0459  1.3438
  708MOL0     H97667   4.285   0.269  12.550  1.8036  0.7322  1.5852
  708MOL0     H97668   4.407   0.241  12.744  1.7499 -1.7801  0.8413
  708MOL0     H97669   4.523   0.246  12.606 -0.4083 -0.4535  0.2952
  708MOL0     H97670   4.659   0.179  12.802  3.3910  0.5107 -0.1790
  708MOL0     H97671   4.692   0.345  12.768  2.4950 -1.7712  1.4660
  708MOL0     H97672   4.593   0.431  12.950 -0.2809 -0.6124  1.9717
  708MOL0     H97673   4.672   0.290  12.998  0.0389 -0.1288  0.1579
  708MOL0     H97674   4.429   0.180  12.970 -2.2461  1.8029 -2.5700
  708MOL0     H97675   4.373   0.340  12.935 -1.6893 -1.3662 -0.8520
  708MOL0     H97676   4.522   0.252  13.178 -0.9780 -1.2225 -1.1994
  708MOL0     H97677   4.469   0.422  13.166  1.7877  0.9343 -1.1296
  708MOL0     H97678   4.306   0.166  13.188  1.7016  0.2368  2.5380
  708MOL0     H97679   4.239   0.327  13.127  2.9898 -1.8856 -2.5322
  708MOL0     H97680   4.278   0.440  13.333 -1.1532 -0.4871  0.7402
  708MOL0     H97681   4.361   0.289  13.388  0.8851  0.5244  1.0663
  708MOL0     H97682   4.140   0.296  13.492 -4.9683  2.0085 -0.5027
  708MOL0     H97683   4.174   0.160  13.395  3.9010 -0.7096  4.4667
  708MOL0     H97684   4.425   0.660  12.592 -1.2367  1.9171 -0.6669
  708MOL0     H97685   4.270   0.748  12.411  1.8340 -0.5496 -2.2308
  708MOL0     H97686   4.042   0.879  12.078  0.9409 -1.4777  1.4821
  708MOL0     H97687   3.892   0.913  11.875  2.2978  1.5798 -0.1945
  708MOL0     H97688   2.562   1.691  11.438 -0.9645  0.6982  2.0876
  708MOL0     H97689   2.409   1.883  11.450  1.4899 -0.6912 -1.1332
  708MOL0     H97690   2.234   2.137  11.392 -2.0087 -1.9915 -1.0803
  708MOL0     H97691   2.009   2.224  11.397  0.2905 -0.6736 -0.8559
  708MOL0     H97692   1.752   2.478  11.313  1.3565  0.7628 -1.8162
  708MOL0     H97693   1.831   2.316  11.326  0.5621 -0.1901  0.8099
  708MOL0     H97694   1.799   2.527  11.541  0.9093 -0.4055  1.5247
  708MOL0     H97695   1.908   2.384  11.559 -1.1524 -2.8277  1.0278
  708MOL0     H97696   1.611   2.318  11.519 -0.3821 -1.8963 -0.7284
  708MOL0     H97697   1.746   2.228  11.585 -0.2591 -0.1634 -1.0530
  708MOL0     H97698   1.745   2.368  11.782  2.0188 -0.3392 -3.0699
  708MOL0     H97699   1.581   2.302  11.762  1.0118 -1.8358 -1.4837
  708MOL0     H97700   1.483   2.706  11.702  0.3320 -0.0170 -3.4587
  708MOL0     H97701   2.155   2.605  11.271 -2.3115 -0.3799 -1.1574
  708MOL0     H97702   2.369   2.643  11.186  0.5012 -0.4523  0.3335
  708MOL0     H97703   2.488   2.574  11.292 -0.7136  3.8778 -0.0688
  708MOL0     H97704   2.465   2.501  11.135  0.6561 -2.8824  0.8343
  709MOL0     O97705   7.762  10.140  10.138  0.2779 -0.2031 -0.5231
  709MOL0     C97706   7.754  10.235  10.061  0.1539  0.0389 -0.1686
  709MOL0     O97707   7.805  10.360  10.086  0.4238  0.5120 -0.4934
  709MOL0     C97708   7.855  10.377  10.214 -0.0766 -1.2946 -0.8285
  709MOL0     C97709   7.982  10.337  10.242  0.1891  0.3532  1.1921
  709MOL0     C97710   8.041  10.355  10.363 -0.7151  0.0842 -0.3635
  709MOL0     C97711   7.967  10.412  10.470  0.5054  0.0049 -0.0120
  709MOL0     O97712   7.994  10.422  10.601  0.4849 -0.3552 -0.5184
  709MOL0     C97713   8.105  10.358  10.665  0.7002  0.8956 -0.0903
  709MOL0     C97714   8.231  10.425  10.658 -0.8365 -0.7411  0.1107
  709MOL0     C97715   8.342  10.363  10.738 -0.2772 -0.2890  0.5143
  709MOL0     C97716   8.361  10.215  10.700  0.3855 -1.1147  0.3062
  709MOL0     C97717   8.491  10.152  10.745 -0.3366  0.6135  0.2671
  709MOL0     C97718   8.483  10.006  10.773 -0.0867 -0.0547  0.0349
  709MOL0     C97719   8.577   9.953  10.887 -0.6308  0.0448  0.5576
  709MOL0     C97720   8.536   9.809  10.919  0.9362 -0.2711  0.1539
  709MOL0     N97721   8.606   9.766  11.044 -0.3734  0.8955  0.0461
  709MOL0     C97722   8.561   9.780  11.171 -0.4482  0.2550 -0.7038
  709MOL0     C97723   8.649   9.710  11.250 -0.5193 -0.1773  0.2051
  709MOL0     C97724   8.634   9.697  11.404 -0.7415 -0.9051 -0.7242
  709MOL0     C97725   8.744   9.771  11.478 -0.0465 -0.2352 -0.5193
  709MOL0     C97726   8.712   9.921  11.476 -0.2251 -0.4580 -0.7928
  709MOL0     C97727   8.817  10.005  11.539  0.1112 -0.0326 -0.9271
  709MOL0     O97728   8.930  10.000  11.449  0.5313 -0.3184  0.2500
  709MOL0     C97729   8.988  10.113  11.396 -0.6157 -0.4106  0.2624
  709MOL0     C97730   8.956  10.246  11.428 -0.1240  0.0418 -0.1967
  709MOL0     C97731   9.046  10.346  11.382 -0.9341  0.3486 -0.1933
  709MOL0     C97732   8.988  10.480  11.403  0.0195 -0.1239  0.3097
  709MOL0     C97733   9.157  10.317  11.296 -0.1912 -0.7604  0.2863
  709MOL0     C97734   9.256  10.419  11.248  0.3126  0.1535 -0.8907
  709MOL0     O97735   9.296  10.395  11.117  0.1993 -0.0641 -0.0598
  709MOL0     C97736   9.388  10.472  11.045  0.5136 -0.1684 -0.9253
  709MOL0     C97737   9.358  10.503  10.914 -0.4407 -0.5447 -0.4478
  709MOL0     C97738   9.447  10.584  10.838  0.1592  0.3258 -0.3539
  709MOL0     C97739   9.580  10.593  10.877  0.0659  0.8069 -0.1932
  709MOL0     O97740   9.667  10.643  10.784 -0.4199 -0.1175 -0.4135
  709MOL0     C97741   9.774  10.728  10.837 -0.0009 -0.3983  0.1780
  709MOL0     C97742   9.886  10.750  10.735  0.0301 -0.6502 -0.0155
  709MOL0     C97743   9.989  10.852  10.770 -0.0359 -0.0213  0.3364
  709MOL0     C97744  10.092  10.860  10.648 -0.1211 -1.0006 -0.5440
  709MOL0     C97745  10.191  10.976  10.666  0.3730 -0.6664  0.7433
  709MOL0     C97746  10.286  10.993  10.546  0.9195 -0.2038 -0.8406
  709MOL0     C97747  10.379  11.105  10.560  0.4539 -0.5966 -0.0971
  709MOL0     C97748  10.462  11.129  10.439  0.4276  0.7355  0.3545
  709MOL0    Cl97749  10.579  10.997  10.412 -0.1015  0.1379 -0.0929
  709MOL0     C97750   9.611  10.553  11.012  0.4378  0.2458  0.2577
  709MOL0     C97751   9.513  10.510  11.097  0.7810  0.1581  0.0110
  709MOL0     O97752   9.297  10.505  11.318  0.2693 -0.0915 -0.2250
  709MOL0     C97753   9.169  10.184  11.252 -0.5097  0.0219 -0.3448
  709MOL0     C97754   9.086  10.089  11.311  0.5718 -0.1034 -1.4536
  709MOL0     N97755   8.741   9.651  11.164 -0.3631 -0.7919  0.9480
  709MOL0     N97756   8.720   9.689  11.050  0.1919 -0.0221  0.2242
  709MOL0     C97757   7.842  10.462  10.446 -0.6081  0.8804 -0.3475
  709MOL0     C97758   7.788  10.444  10.315 -0.0378 -0.3079 -0.3231
  709MOL0     C97759   7.719  10.207   9.924  0.1917 -0.1092 -0.1736
  709MOL0     C97760   7.719  10.075   9.881 -0.4892 -0.4418  0.7398
  709MOL0     C97761   7.685  10.045   9.745  0.1822  0.7230 -0.6357
  709MOL0     C97762   7.633  10.140   9.660 -0.2982 -0.3437 -0.2660
  709MOL0     O97763   7.576  10.095   9.536  0.0087 -0.3339 -0.3071
  709MOL0     C97764   7.532  10.188   9.444 -0.1462 -0.2820 -0.2865
  709MOL0     C97765   7.490  10.133   9.310  0.3575 -0.4954  0.2584
  709MOL0     C97766   7.608  10.065   9.227  0.5548 -0.1414 -0.7302
  709MOL0     C97767   7.560  10.015   9.088  0.0276  0.1600  0.6525
  709MOL0     C97768   7.541   9.870   9.106 -0.0298  0.2050 -0.2572
  709MOL0     C97769   7.529   9.754   9.134  0.3564  0.3846  0.8144
  709MOL0     C97770   7.613  10.270   9.709 -0.6321  0.0833  0.0779
  709MOL0     C97771   7.662  10.308   9.836 -0.3981  0.3152 -0.2338
  709MOL0     C97772   7.626  10.451   9.879  0.2110 -1.0545  0.6462
  709MOL0     H97773   8.047  10.294  10.166  0.5360  3.0225 -0.1227
  709MOL0     H97774   8.145  10.325  10.374 -0.4473  1.1235  0.1036
  709MOL0     H97775   8.111  10.261  10.616 -0.0625  0.3943  0.7844
  709MOL0     H97776   8.068  10.349  10.768 -0.2456 -3.1508 -0.6076
  709MOL0     H97777   8.266  10.442  10.556  0.0248 -2.5378  0.0798
  709MOL0     H97778   8.226  10.524  10.706  2.1424 -0.2900 -0.2814
  709MOL0     H97779   8.436  10.412  10.712  1.1891 -3.9282 -1.9113
  709MOL0     H97780   8.326  10.380  10.845  1.0697  2.6484  0.3540
  709MOL0     H97781   8.276  10.173  10.753 -2.1254  2.6283 -0.3272
  709MOL0     H97782   8.356  10.201  10.591 -1.0562 -1.7134  0.4338
  709MOL0     H97783   8.524  10.194  10.841 -0.9265  4.2816 -0.9958
  709MOL0     H97784   8.567  10.185  10.674  1.9662  0.7336  2.6459
  709MOL0     H97785   8.380   9.974  10.792 -1.4482  1.5351 -3.7399
  709MOL0     H97786   8.496   9.951  10.680  1.4503 -2.2314  1.4267
  709MOL0     H97787   8.566  10.023  10.970  1.0213  3.2265 -1.6936
  709MOL0     H97788   8.683   9.962  10.861  0.1861  2.7765  4.0760
  709MOL0     H97789   8.430   9.784  10.927  0.6404  1.3971  2.2635
  709MOL0     H97790   8.573   9.751  10.834  3.0162 -0.4984  1.1551
  709MOL0     H97791   8.476   9.833  11.212 -0.5455 -0.9613  0.7289
  709MOL0     H97792   8.637   9.592  11.435 -1.0383 -0.4787  0.8402
  709MOL0     H97793   8.541   9.744  11.436  0.3657  1.1870 -0.3870
  709MOL0     H97794   8.762   9.739  11.581 -1.3946  0.2916 -0.0947
  709MOL0     H97795   8.843   9.758  11.433  0.5238 -0.6028  0.7800
  709MOL0     H97796   8.696   9.962  11.376  0.6948 -0.0152 -0.7610
  709MOL0     H97797   8.626   9.926  11.544 -0.3203  3.2219 -1.0015
  709MOL0     H97798   8.776  10.107  11.547  2.2394  0.8613 -0.8366
  709MOL0     H97799   8.838   9.967  11.639  0.4288 -0.8935 -1.3187
  709MOL0     H97800   8.869  10.278  11.485 -0.4305 -0.3161 -0.4567
  709MOL0     H97801   9.062  10.558  11.383  1.0604 -1.5085 -1.5388
  709MOL0     H97802   8.952  10.490  11.506  0.2796  1.3050  0.2947
  709MOL0     H97803   8.902  10.507  11.340  1.1537  0.8191 -0.8958
  709MOL0     H97804   9.257  10.477  10.884 -1.6086 -1.3158  3.4745
  709MOL0     H97805   9.411  10.611  10.739 -1.3226  0.0896  0.0931
  709MOL0     H97806   9.736  10.829  10.853  4.6049  2.3046 -3.4280
  709MOL0     H97807   9.821  10.686  10.926 -0.1953 -1.3776 -0.1722
  709MOL0     H97808   9.930  10.654  10.706 -2.0392 -1.3528 -1.0023
  709MOL0     H97809   9.833  10.789  10.647 -1.7689 -1.3109  0.7356
  709MOL0     H97810  10.031  10.821  10.866 -0.7842 -0.1000  0.6468
  709MOL0     H97811   9.936  10.946  10.790  0.3426 -0.1354  2.0386
  709MOL0     H97812  10.041  10.870  10.552  2.6536 -2.6372 -2.3217
  709MOL0     H97813  10.154  10.771  10.635  1.8597  0.3131 -0.4519
  709MOL0     H97814  10.132  11.066  10.684  1.2403 -0.4305  2.6115
  709MOL0     H97815  10.251  10.950  10.754 -1.7694 -4.3082  1.3110
  709MOL0     H97816  10.224  11.002  10.456  0.2578  0.3948 -0.3383
  709MOL0     H97817  10.343  10.902  10.527 -1.7799 -2.0877 -0.4668
  709MOL0     H97818  10.438  11.086  10.650 -0.7996 -2.2424  0.4267
  709MOL0     H97819  10.320  11.195  10.583 -0.8485 -1.5428  0.4244
  709MOL0     H97820  10.514  11.224  10.451 -2.2272  2.1805  1.3049
  709MOL0     H97821  10.408  11.136  10.344 -0.3158 -2.3485  0.4296
  709MOL0     H97822   9.705  10.576  11.062  1.0464 -0.8977 -0.3276
  709MOL0     H97823   9.520  10.493  11.204 -3.9002  0.9547  0.6654
  709MOL0     H97824   9.236  10.167  11.168  0.5830  2.3014 -0.0123
  709MOL0     H97825   9.092   9.983  11.291  0.7426  0.0210 -2.0831
  709MOL0     H97826   7.793  10.508  10.532  1.2899  0.9534  0.7442
  709MOL0     H97827   7.686  10.475  10.292 -0.1199  0.0050  0.4447
  709MOL0     H97828   7.761   9.996   9.942  1.6264 -0.7182 -0.9517
  709MOL0     H97829   7.686   9.942   9.710 -0.0619  0.8123 -0.9097
  709MOL0     H97830   7.453  10.249   9.489  1.0586 -0.7873  2.7473
  709MOL0     H97831   7.615  10.254   9.418 -1.5759  1.3682 -0.9153
  709MOL0     H97832   7.453  10.216   9.250  3.7367  2.1138  1.4277
  709MOL0     H97833   7.409  10.062   9.328  0.0919  0.1043  1.4913
  709MOL0     H97834   7.679  10.144   9.201  1.3222  0.1134  1.8660
  709MOL0     H97835   7.655   9.985   9.286  0.6673  0.4820  0.0357
  709MOL0     H97836   7.647  10.029   9.023 -1.1359  1.0661 -0.7775
  709MOL0     H97837   7.472  10.062   9.043 -0.2439 -0.5927  0.3785
  709MOL0     H97838   7.514   9.651   9.158 -0.1582  0.7805  2.3129
  709MOL0     H97839   7.552  10.336   9.649 -0.5514  0.2992  0.2270
  709MOL0     H97840   7.577  10.504   9.796  4.1836  3.2294  0.6338
  709MOL0     H97841   7.546  10.448   9.953 -1.7820 -1.4297 -1.3877
  709MOL0     H97842   7.717  10.504   9.907  0.5343 -1.5772  0.5891
  710MOL0     O97843   6.648   2.212   0.433 -0.1698  0.0574  0.1530
  710MOL0     C97844   6.603   2.228   0.542  0.1781  0.5253  0.2800
  710MOL0     O97845   6.673   2.289   0.650  0.3236 -0.2027  0.4134
  710MOL0     C97846   6.788   2.371   0.652  0.1061  0.1384 -0.5126
  710MOL0     C97847   6.858   2.417   0.542  0.5845  0.5761  1.0519
  710MOL0     C97848   6.976   2.480   0.552  0.2818  0.1158 -0.2476
  710MOL0     C97849   7.029   2.518   0.671 -0.3444  0.8806 -0.1810
  710MOL0     O97850   7.149   2.577   0.696  0.1646  0.2888  0.8144
  710MOL0     C97851   7.247   2.579   0.589  0.7721 -0.8179 -0.1111
  710MOL0     C97852   7.300   2.451   0.573  0.4513  0.3960 -0.7783
  710MOL0     C97853   7.426   2.458   0.484 -0.4797 -0.6704  0.5245
  710MOL0     C97854   7.473   2.312   0.446 -0.0970 -0.3817 -0.4642
  710MOL0     C97855   7.574   2.303   0.344 -0.1117  1.4405  0.3929
  710MOL0     C97856   7.716   2.335   0.396 -0.2650 -1.0614 -0.0220
  710MOL0     C97857   7.822   2.350   0.292  0.5970 -0.2595  0.4975
  710MOL0     C97858   7.929   2.430   0.359 -0.6191 -0.1318 -0.3648
  710MOL0     N97859   8.057   2.425   0.274  0.6789 -0.3116 -0.5020
  710MOL0     C97860   8.170   2.348   0.276 -0.5158  0.3339 -0.2101
  710MOL0     C97861   8.260   2.401   0.185 -0.2184  0.3858 -0.4358
  710MOL0     C97862   8.402   2.358   0.173 -0.2469  0.0296  0.6788
  710MOL0     C97863   8.413   2.263   0.052  0.3630 -0.0934 -0.0061
  710MOL0     C97864   8.550   2.192   0.037  0.6818 -0.0762  0.2276
  710MOL0     C97865   8.657   2.296  -0.010 -0.0031 -0.5957  0.4938
  710MOL0     O97866   8.775   2.218   0.010  0.4003  0.1157 -0.1654
  710MOL0     C97867   8.898   2.279   0.027 -0.7826  0.1794 -0.1939
  710MOL0     C97868   9.007   2.202   0.076  0.0670  0.7912  0.7435
  710MOL0     C97869   9.133   2.251   0.102 -0.0017  0.6022 -0.1449
  710MOL0     C97870   9.234   2.165   0.167  0.4709 -0.9308 -0.1318
  710MOL0     C97871   9.158   2.394   0.079 -1.0790 -0.0744 -0.7163
  710MOL0     C97872   9.289   2.452   0.099 -0.2895 -0.4111 -0.1718
  710MOL0     O97873   9.351   2.422   0.215 -0.4162  0.4759 -0.6115
  710MOL0     C97874   9.470   2.483   0.236 -0.3883 -0.1822  0.6712
  710MOL0     C97875   9.578   2.428   0.159  0.1162 -0.1541  0.9943
  710MOL0     C97876   9.704   2.490   0.179 -0.9689 -0.2753 -0.1526
  710MOL0     C97877   9.742   2.587   0.276 -0.4920 -0.2758 -0.0972
  710MOL0     O97878   9.874   2.619   0.276  0.0711  0.2958  0.4049
  710MOL0     C97879   9.916   2.715   0.368 -0.5035 -0.5887 -0.0779
  710MOL0     C97880  10.070   2.743   0.357  0.3097 -0.0857  0.4300
  710MOL0     C97881  10.158   2.657   0.455  0.5056 -0.5064  0.5390
  710MOL0     C97882  10.174   2.517   0.400 -0.0369  0.3874 -0.2364
  710MOL0     C97883  10.260   2.440   0.507 -0.2237 -0.2049 -0.0103
  710MOL0     C97884  10.240   2.291   0.507  0.2998  0.2881  0.4952
  710MOL0     C97885  10.326   2.230   0.619  0.7893 -0.0578  0.2827
  710MOL0     C97886  10.288   2.085   0.628  0.0989  0.5999  0.0542
  710MOL0    Cl97887  10.334   1.984   0.480  0.2702  0.2244  0.1572
  710MOL0     C97888   9.636   2.632   0.352 -0.4280  0.7014  0.1719
  710MOL0     C97889   9.510   2.579   0.336  0.2331  0.3889  0.4196
  710MOL0     O97890   9.336   2.528   0.013  0.0229  0.4963  0.1314
  710MOL0     C97891   9.053   2.473   0.023 -0.2352 -0.4289 -0.3680
  710MOL0     C97892   8.932   2.419   0.000 -0.1233 -0.0044 -0.0113
  710MOL0     N97893   8.205   2.516   0.127 -0.6657  0.6148 -0.2209
  710MOL0     N97894   8.085   2.522   0.174  0.3434  0.1211 -0.4096
  710MOL0     C97895   6.959   2.481   0.786 -0.0765 -0.0754 -0.3757
  710MOL0     C97896   6.834   2.413   0.778 -1.0089 -0.3844  0.1086
  710MOL0     C97897   6.465   2.177   0.556  0.1386  0.6824 -0.1585
  710MOL0     C97898   6.394   2.090   0.460 -0.1398  0.4516 -0.2230
  710MOL0     C97899   6.274   2.027   0.485  0.5557 -0.1536  0.7605
  710MOL0     C97900   6.194   2.050   0.598 -0.3873 -0.4689  0.8440
  710MOL0     O97901   6.067   2.002   0.610  0.4302  0.9238  0.0780
  710MOL0     C97902   5.990   2.008   0.722  0.3995  0.8521  0.2426
  710MOL0     C97903   5.905   2.131   0.728 -0.1002 -0.1730  0.1421
  710MOL0     C97904   5.755   2.088   0.739  0.3439  0.5322 -0.3872
  710MOL0     C97905   5.675   2.210   0.766 -0.9271  0.3941 -0.1947
  710MOL0     C97906   5.529   2.193   0.752  0.7194  0.1146  0.0792
  710MOL0     C97907   5.402   2.182   0.741  0.5998  0.3098 -0.0531
  710MOL0     C97908   6.252   2.140   0.689 -0.2060  0.9242 -0.1850
  710MOL0     C97909   6.386   2.199   0.670  0.2318  0.6061 -1.2266
  710MOL0     C97910   6.421   2.291   0.787  0.8159  0.2802 -0.5943
  710MOL0     H97911   6.818   2.408   0.441 -0.3197  1.0085  1.3572
  710MOL0     H97912   7.023   2.523   0.464 -0.6328  3.5688  0.7947
  710MOL0     H97913   7.323   2.652   0.618 -1.2191  0.8475  1.2211
  710MOL0     H97914   7.194   2.603   0.496  1.5189  0.4113 -0.2431
  710MOL0     H97915   7.333   2.412   0.670 -1.6048 -1.6223 -0.8210
  710MOL0     H97916   7.228   2.380   0.531  2.1027 -2.0948  0.3293
  710MOL0     H97917   7.411   2.498   0.383  1.4246 -3.7336 -1.1234
  710MOL0     H97918   7.499   2.519   0.538 -3.1766 -0.2485  4.0732
  710MOL0     H97919   7.495   2.253   0.536 -1.0405 -0.0680 -0.0211
  710MOL0     H97920   7.381   2.274   0.401 -0.0578 -0.0817 -0.8000
  710MOL0     H97921   7.561   2.355   0.249 -0.0458  2.5066  0.9510
  710MOL0     H97922   7.576   2.196   0.324 -0.7962  1.3636  0.7092
  710MOL0     H97923   7.709   2.436   0.438 -1.8180 -0.4849 -1.5461
  710MOL0     H97924   7.755   2.267   0.473  0.3668 -0.5688  0.1014
  710MOL0     H97925   7.787   2.402   0.202  0.0722 -0.2362  0.7115
  710MOL0     H97926   7.861   2.254   0.257  0.0052 -1.0781  1.9977
  710MOL0     H97927   7.885   2.530   0.363 -2.4288 -0.8225 -1.7627
  710MOL0     H97928   7.954   2.395   0.460 -0.9673  2.2926  0.6175
  710MOL0     H97929   8.206   2.271   0.344  0.0966  0.2813 -0.5922
  710MOL0     H97930   8.441   2.313   0.264  0.1637 -0.2068  0.3849
  710MOL0     H97931   8.450   2.454   0.153 -0.2341 -0.3558 -1.3909
  710MOL0     H97932   8.343   2.179   0.057  3.1579 -2.5644  0.7069
  710MOL0     H97933   8.389   2.314  -0.042 -1.7666  0.3027  0.7005
  710MOL0     H97934   8.585   2.140   0.127 -0.9627 -0.9428  0.4125
  710MOL0     H97935   8.552   2.123  -0.048 -1.6509  2.3728 -1.9895
  710MOL0     H97936   8.641   2.315  -0.117 -0.7116 -0.8513  0.5436
  710MOL0     H97937   8.662   2.386   0.051  1.9139 -0.4363  0.1365
  710MOL0     H97938   8.984   2.100   0.108  1.4249 -0.2610 -1.4240
  710MOL0     H97939   9.278   2.209   0.256 -0.6047  1.2293 -0.6162
  710MOL0     H97940   9.312   2.150   0.091 -1.1194 -1.6625 -1.7091
  710MOL0     H97941   9.200   2.065   0.195  1.7178 -0.7510  2.2556
  710MOL0     H97942   9.569   2.346   0.088 -1.5932  1.1980 -0.4654
  710MOL0     H97943   9.774   2.451   0.106 -1.7400  1.9074 -2.1745
  710MOL0     H97944   9.870   2.812   0.346  0.0395 -0.2042  0.4609
  710MOL0     H97945   9.889   2.689   0.471  1.9121 -0.8669  0.5469
  710MOL0     H97946  10.092   2.737   0.250 -1.8839 -3.6652  0.0211
  710MOL0     H97947  10.085   2.847   0.390 -0.4636  1.0998 -2.6207
  710MOL0     H97948  10.105   2.657   0.551 -3.7417 -0.9376 -1.5781
  710MOL0     H97949  10.253   2.710   0.465  0.3557 -0.1334  0.0633
  710MOL0     H97950  10.218   2.506   0.300  1.0904 -2.6301  0.4645
  710MOL0     H97951  10.070   2.483   0.395  0.1190 -0.3230  0.8735
  710MOL0     H97952  10.365   2.456   0.480 -0.1677 -0.8091 -0.1534
  710MOL0     H97953  10.227   2.494   0.596 -2.3871  0.4774 -1.1531
  710MOL0     H97954  10.272   2.257   0.408 -2.1035  2.0612 -0.9731
  710MOL0     H97955  10.137   2.267   0.534  1.6778 -1.6999  4.9006
  710MOL0     H97956  10.296   2.277   0.713  1.9307 -1.5397  1.4459
  710MOL0     H97957  10.434   2.247   0.609  0.5972  1.3469  0.3662
  710MOL0     H97958  10.179   2.084   0.643  0.2787  1.5580  1.6638
  710MOL0     H97959  10.338   2.039   0.714  2.2973  2.8726  0.1158
  710MOL0     H97960   9.666   2.701   0.430  4.7845  0.1294 -0.9527
  710MOL0     H97961   9.433   2.621   0.401  0.0293 -0.9986  1.1292
  710MOL0     H97962   9.063   2.580   0.006 -0.8602 -0.6986 -2.7060
  710MOL0     H97963   8.860   2.476  -0.057 -0.3509 -3.7729 -3.9497
  710MOL0     H97964   6.990   2.503   0.888 -2.6253 -1.7924  0.8615
  710MOL0     H97965   6.780   2.391   0.869 -1.0368 -1.5681 -0.1847
  710MOL0     H97966   6.452   2.046   0.379  1.3504 -3.0815  2.5018
  710MOL0     H97967   6.241   1.951   0.416  1.1406  0.0530  0.2373
  710MOL0     H97968   5.925   1.921   0.711  0.5710  0.9624 -2.1825
  710MOL0     H97969   6.049   1.997   0.813 -1.5500  0.9178  1.5831
  710MOL0     H97970   5.918   2.184   0.633 -0.8593 -0.5455 -0.1757
  710MOL0     H97971   5.947   2.198   0.804  2.3491 -0.4870 -0.8509
  710MOL0     H97972   5.730   2.030   0.650  2.5374 -3.4223  1.3382
  710MOL0     H97973   5.753   2.025   0.828  1.6314  1.2554  0.1848
  710MOL0     H97974   5.712   2.275   0.686  2.7094 -3.2168 -1.8218
  710MOL0     H97975   5.707   2.260   0.858  2.6311 -0.0894 -1.0024
  710MOL0     H97976   5.299   2.176   0.713  0.3665  2.2697  0.2312
  710MOL0     H97977   6.191   2.164   0.775  0.2823  1.4149  0.0326
  710MOL0     H97978   6.508   2.261   0.847 -0.9022  2.3613  3.2344
  710MOL0     H97979   6.436   2.396   0.760  3.5504 -0.0998 -0.9009
  710MOL0     H97980   6.333   2.290   0.852  0.6659 -0.6678 -0.7981
  711MOL0     O97981   8.031  11.303   4.631  0.3111  0.8219 -0.4326
  711MOL0     C97982   8.119  11.260   4.556 -0.6305 -0.1501  0.4994
  711MOL0     O97983   8.162  11.130   4.561 -0.5534 -0.6884  0.0759
  711MOL0     C97984   8.121  11.050   4.668 -0.7630 -1.2329  0.6535
  711MOL0     C97985   8.011  10.965   4.657 -1.3726 -0.5262 -0.1930
  711MOL0     C97986   7.970  10.892   4.763 -0.1051  0.4821  0.2877
  711MOL0     C97987   8.032  10.900   4.886  0.3442  0.2218 -0.1944
  711MOL0     O97988   7.990  10.811   4.982  0.0949  0.0536  0.1975
  711MOL0     C97989   8.051  10.787   5.114 -0.0293  0.3843  0.7606
  711MOL0     C97990   8.075  10.639   5.111 -0.1418  0.4545 -0.1770
  711MOL0     C97991   8.165  10.594   5.230  0.7523  0.3056 -0.5793
  711MOL0     C97992   8.100  10.611   5.366 -0.1699 -0.6099  0.2888
  711MOL0     C97993   8.185  10.521   5.457 -1.3660 -0.7340 -0.1549
  711MOL0     C97994   8.174  10.566   5.606 -0.0105 -0.2817 -0.2950
  711MOL0     C97995   8.246  10.472   5.687  0.1328  0.6322  0.2096
  711MOL0     C97996   8.243  10.512   5.831 -0.4442  0.4967  0.4471
  711MOL0     N97997   8.321  10.418   5.917 -0.2459 -0.0960  0.1150
  711MOL0     C97998   8.456  10.415   5.942  0.1768  0.2452 -0.3711
  711MOL0     C97999   8.473  10.298   6.004  0.1453 -0.0426  0.4631
  711MOL0     C98000   8.599  10.230   6.033 -0.3586  0.1700 -0.5312
  711MOL0     C98001   8.615  10.197   6.187  0.5512  0.1373 -0.1712
  711MOL0     C98002   8.657  10.317   6.275  1.1103 -0.1952  0.4501
  711MOL0     C98003   8.539  10.407   6.307  0.1028  0.3398 -0.3453
  711MOL0     O98004   8.440  10.350   6.396 -0.2666  0.0401 -0.0418
  711MOL0     C98005   8.313  10.350   6.356  0.2424 -0.2669 -0.3961
  711MOL0     C98006   8.248  10.472   6.337  0.1174 -0.1625 -0.4382
  711MOL0     C98007   8.116  10.479   6.289  0.1285  0.2898  0.1244
  711MOL0     C98008   8.058  10.625   6.258 -0.1913  0.3770  0.0882
  711MOL0     C98009   8.045  10.358   6.268 -0.1842 -0.0605 -0.0237
  711MOL0     C98010   7.908  10.340   6.226 -0.6136 -0.5089  0.5582
  711MOL0     O98011   7.864  10.210   6.199 -0.0831  0.5878  0.0831
  711MOL0     C98012   7.733  10.162   6.201 -1.0743  0.0618 -0.0071
  711MOL0     C98013   7.701  10.044   6.126 -0.6815  0.2372  0.0229
  711MOL0     C98014   7.571   9.997   6.121  0.8912  0.6640 -0.0371
  711MOL0     C98015   7.467  10.055   6.193 -0.8129  0.1041 -0.3411
  711MOL0     O98016   7.343   9.998   6.175 -0.3812 -0.1003  0.8570
  711MOL0     C98017   7.232  10.019   6.260 -0.1130 -0.2766 -0.6229
  711MOL0     C98018   7.124   9.916   6.237 -0.4433 -0.9698  0.6653
  711MOL0     C98019   7.029   9.920   6.352 -0.1831  0.2050  0.3159
  711MOL0     C98020   6.912   9.829   6.342  0.1877 -0.2818  0.0323
  711MOL0     C98021   6.945   9.680   6.318 -0.7434 -0.6292 -0.2062
  711MOL0     C98022   6.820   9.584   6.327 -0.1130 -0.6910  0.1857
  711MOL0     C98023   6.866   9.439   6.314  0.7002 -0.5209 -0.8588
  711MOL0     C98024   6.776   9.339   6.381  0.6742 -0.7608  0.4753
  711MOL0    Cl98025   6.642   9.305   6.271  0.0015 -0.2013  0.5456
  711MOL0     C98026   7.497  10.174   6.267 -0.4146 -0.2751  0.6978
  711MOL0     C98027   7.619  10.228   6.263  0.3026  0.6424 -0.0636
  711MOL0     O98028   7.826  10.434   6.236 -0.4626  0.8890 -0.7704
  711MOL0     C98029   8.115  10.232   6.295  0.3918 -0.2651 -0.0085
  711MOL0     C98030   8.247  10.228   6.335 -0.5600 -0.5718  1.2492
  711MOL0     N98031   8.349  10.239   6.030  0.6189 -1.3047 -0.4022
  711MOL0     N98032   8.267  10.305   5.970  0.1647  0.8354  0.5891
  711MOL0     C98033   8.142  10.979   4.904  0.4967  0.3671  1.0006
  711MOL0     C98034   8.183  11.052   4.794  0.1245 -0.4554  0.0298
  711MOL0     C98035   8.190  11.358   4.465 -0.0898 -0.9758  0.3533
  711MOL0     C98036   8.269  11.301   4.358  0.0022 -0.1158 -0.2352
  711MOL0     C98037   8.328  11.374   4.256  0.7881  0.6478  0.5215
  711MOL0     C98038   8.318  11.516   4.250  0.4949  0.8791  0.5052
  711MOL0     O98039   8.366  11.568   4.136  0.4901  0.8044  0.2004
  711MOL0     C98040   8.383  11.709   4.128 -0.1159  0.1281 -0.3400
  711MOL0     C98041   8.319  11.762   3.998 -0.0494  0.0020 -0.3767
  711MOL0     C98042   8.333  11.918   3.980 -0.0457  0.1095 -0.6756
  711MOL0     C98043   8.283  11.971   3.843  0.0448 -0.1783 -0.3791
  711MOL0     C98044   8.356  11.902   3.731 -0.5120  0.3113 -0.5059
  711MOL0     C98045   8.404  11.840   3.641  0.0380  0.3898 -0.0464
  711MOL0     C98046   8.242  11.573   4.362  1.2518  0.7267  0.3674
  711MOL0     C98047   8.168  11.501   4.460  1.0188  0.4888 -0.2466
  711MOL0     C98048   8.077  11.587   4.547 -1.0997  0.0313  0.6844
  711MOL0     H98049   7.965  10.953   4.560  0.6041 -0.0209 -1.2428
  711MOL0     H98050   7.898  10.812   4.743 -1.3018  2.0690 -2.2142
  711MOL0     H98051   7.992  10.825   5.197 -0.9165  0.8665 -0.0650
  711MOL0     H98052   8.152  10.827   5.133  1.6056 -1.9486 -2.1563
  711MOL0     H98053   7.978  10.592   5.128 -0.3473  1.7241  2.5352
  711MOL0     H98054   8.114  10.608   5.013  0.9913  1.3428 -0.0302
  711MOL0     H98055   8.213  10.496   5.218 -0.8329 -0.6525  0.6661
  711MOL0     H98056   8.252  10.660   5.228  1.1676 -0.2428 -1.5791
  711MOL0     H98057   8.109  10.716   5.394 -1.8383  0.0989 -1.6288
  711MOL0     H98058   7.995  10.585   5.351  0.1590 -0.5779 -2.6061
  711MOL0     H98059   8.290  10.512   5.426 -0.3304  1.1046  2.4314
  711MOL0     H98060   8.151  10.417   5.453 -2.4585 -0.3749 -0.7291
  711MOL0     H98061   8.223  10.664   5.614  3.7311 -2.0829  1.6040
  711MOL0     H98062   8.069  10.585   5.630  0.5745  2.1721  0.6479
  711MOL0     H98063   8.349  10.457   5.654  0.0241 -0.0588  0.1766
  711MOL0     H98064   8.190  10.378   5.682 -0.8107  1.0663  1.9026
  711MOL0     H98065   8.295  10.608   5.840 -1.2801  0.8222  2.2406
  711MOL0     H98066   8.147  10.530   5.881  0.0024 -0.1350  1.5616
  711MOL0     H98067   8.531  10.484   5.906 -2.4318  2.3510 -2.1564
  711MOL0     H98068   8.681  10.291   5.996 -1.4201  1.0849 -1.4498
  711MOL0     H98069   8.599  10.131   5.986 -0.1452  0.4087 -1.0376
  711MOL0     H98070   8.520  10.155   6.223  0.0163  2.7905  1.7658
  711MOL0     H98071   8.693  10.121   6.194  0.3135 -0.3847 -2.3971
  711MOL0     H98072   8.687  10.276   6.372 -0.4933  0.5456  1.3046
  711MOL0     H98073   8.738  10.363   6.219  0.6914 -0.7267 -0.6176
  711MOL0     H98074   8.585  10.489   6.361 -0.5666  0.5017 -0.0094
  711MOL0     H98075   8.498  10.450   6.215 -1.5002 -0.6946 -0.1603
  711MOL0     H98076   8.302  10.565   6.353  1.9434 -0.9217 -1.7789
  711MOL0     H98077   8.133  10.692   6.216 -2.0997  1.0039 -2.6018
  711MOL0     H98078   8.036  10.666   6.357 -0.7352 -0.6239  0.3983
  711MOL0     H98079   7.969  10.617   6.195  1.5188 -1.0920 -2.3188
  711MOL0     H98080   7.782   9.997   6.071 -0.8743 -1.5874  1.1953
  711MOL0     H98081   7.559   9.904   6.066  2.9222  0.7673 -0.7372
  711MOL0     H98082   7.274  10.012   6.360  2.5357  0.3342 -1.6098
  711MOL0     H98083   7.199  10.122   6.246  1.0473  0.4212  1.4328
  711MOL0     H98084   7.075   9.942   6.143  0.5465 -0.4553  0.2756
  711MOL0     H98085   7.172   9.817   6.231  0.0544 -0.8049  1.6906
  711MOL0     H98086   6.987  10.018   6.377  2.2330  1.3191  0.2360
  711MOL0     H98087   7.095   9.893   6.435 -0.3100 -0.1106  0.3185
  711MOL0     H98088   6.852   9.868   6.259  1.6499 -0.6833 -1.2577
  711MOL0     H98089   6.852   9.834   6.433 -0.0428  0.5223 -0.1584
  711MOL0     H98090   6.978   9.666   6.214 -0.5893 -0.1470 -0.2270
  711MOL0     H98091   7.022   9.637   6.382 -0.0321 -0.3545 -0.8521
  711MOL0     H98092   6.752   9.620   6.249  1.4323  4.0543  0.7157
  711MOL0     H98093   6.771   9.598   6.424  2.1982 -2.5552  1.7507
  711MOL0     H98094   6.964   9.431   6.362  0.7765 -1.1068 -1.1017
  711MOL0     H98095   6.892   9.408   6.213  0.5303  1.9552 -1.7271
  711MOL0     H98096   6.730   9.378   6.472 -0.5268 -0.0490 -0.4192
  711MOL0     H98097   6.824   9.245   6.411 -0.2313 -1.4082 -0.0180
  711MOL0     H98098   7.419  10.230   6.318 -2.8770 -0.7143 -2.2828
  711MOL0     H98099   7.644  10.318   6.318  1.6406 -0.0848  0.5670
  711MOL0     H98100   8.074  10.133   6.275  1.7303 -0.3741 -2.6529
  711MOL0     H98101   8.301  10.135   6.350  1.4109  0.6207  2.0141
  711MOL0     H98102   8.209  10.978   4.989 -0.7087 -2.1886  2.0162
  711MOL0     H98103   8.267  11.120   4.805  0.0013  0.2470 -2.5635
  711MOL0     H98104   8.274  11.193   4.351  2.9221 -0.2960  2.4072
  711MOL0     H98105   8.389  11.313   4.190  0.5344 -0.2148  1.0638
  711MOL0     H98106   8.341  11.771   4.208 -2.4624 -1.4839 -0.2205
  711MOL0     H98107   8.490  11.722   4.111 -0.5786  2.7849 -1.7459
  711MOL0     H98108   8.214  11.739   3.977 -0.3639  0.3646  0.7513
  711MOL0     H98109   8.376  11.721   3.914 -1.1226 -2.7065  0.1212
  711MOL0     H98110   8.282  11.965   4.065  3.6797 -0.0309  1.8772
  711MOL0     H98111   8.440  11.937   3.988  0.8887 -3.4104 -2.9096
  711MOL0     H98112   8.298  12.079   3.841  0.1587 -0.1729  0.6224
  711MOL0     H98113   8.174  11.958   3.837 -0.4561  2.5837  1.3672
  711MOL0     H98114   8.438  11.783   3.556 -0.7923  0.4630 -0.4420
  711MOL0     H98115   8.232  11.680   4.355  1.4622  0.7912  1.0716
  711MOL0     H98116   8.063  11.541   4.645  3.3174 -3.6210 -0.0847
  711MOL0     H98117   8.135  11.678   4.567  1.3910 -1.3170 -0.0166
  711MOL0     H98118   7.979  11.605   4.501 -0.6508 -1.7512 -1.0994
  712MOL0     O98119   3.838   4.239   3.258  0.2020  0.7850  0.7011
  712MOL0     C98120   3.853   4.277   3.139 -0.1752 -0.0218  0.8840
  712MOL0     O98121   3.906   4.204   3.041  1.0165 -0.4308  0.7595
  712MOL0     C98122   3.949   4.084   3.064  0.7861  0.1015 -0.6952
  712MOL0     C98123   3.862   3.975   3.100 -0.3887 -0.5100  0.0274
  712MOL0     C98124   3.916   3.846   3.095  0.1116  0.4292 -0.3587
  712MOL0     C98125   4.054   3.821   3.065 -0.6078  0.3620  0.5004
  712MOL0     O98126   4.122   3.695   3.068  0.3501  0.2672 -0.4442
  712MOL0     C98127   4.077   3.600   3.165  0.4684  0.1132  0.6894
  712MOL0     C98128   4.198   3.520   3.228  0.1493 -0.7114 -0.4410
  712MOL0     C98129   4.229   3.398   3.145  0.4716 -0.2221  0.4291
  712MOL0     C98130   4.335   3.422   3.034  0.3605 -0.1165  0.3460
  712MOL0     C98131   4.354   3.304   2.936 -0.0607 -0.2105 -0.1905
  712MOL0     C98132   4.488   3.321   2.866 -1.6140 -0.3891 -0.4374
  712MOL0     C98133   4.621   3.275   2.932 -0.4315 -1.2136  0.2233
  712MOL0     C98134   4.698   3.153   2.860  1.0568  0.4717  0.2839
  712MOL0     N98135   4.743   3.192   2.722  1.0582 -0.3893  0.7004
  712MOL0     C98136   4.700   3.137   2.607  1.1927  0.5024 -0.0567
  712MOL0     C98137   4.778   3.177   2.510 -0.8036  0.7240  0.1696
  712MOL0     C98138   4.746   3.148   2.362 -0.4785 -0.7065 -0.6621
  712MOL0     C98139   4.863   3.166   2.262 -0.2646 -0.2212 -0.2035
  712MOL0     C98140   4.914   3.038   2.201  0.0405 -0.0375 -0.1720
  712MOL0     C98141   5.018   3.054   2.095  0.4045  0.0950  0.0174
  712MOL0     O98142   5.134   3.129   2.149  0.0474 -0.0077 -0.4372
  712MOL0     C98143   5.236   3.161   2.069 -0.5099 -1.0159  0.2201
  712MOL0     C98144   5.206   3.247   1.963  0.6671  0.3458 -0.0924
  712MOL0     C98145   5.292   3.268   1.857  0.3439 -0.1811 -0.9114
  712MOL0     C98146   5.240   3.371   1.760  0.1120 -0.1116  0.7566
  712MOL0     C98147   5.431   3.229   1.870 -0.4023 -1.1505  0.4086
  712MOL0     C98148   5.537   3.264   1.774 -0.5775  0.4297  0.1239
  712MOL0     O98149   5.504   3.341   1.675 -0.1829 -0.2004 -0.0514
  712MOL0     C98150   5.608   3.420   1.638  0.2018  0.6538  0.6501
  712MOL0     C98151   5.621   3.551   1.690 -0.0360 -0.1600  0.3626
  712MOL0     C98152   5.720   3.637   1.656 -0.6486 -0.0205  0.1869
  712MOL0     C98153   5.790   3.602   1.537 -0.0843 -0.2543 -0.1680
  712MOL0     O98154   5.886   3.675   1.470 -0.3588  0.1820 -0.3175
  712MOL0     C98155   5.952   3.765   1.551  1.2848 -1.0507 -0.4685
  712MOL0     C98156   6.092   3.778   1.498 -0.7855  1.2850 -0.5694
  712MOL0     C98157   6.180   3.649   1.510  0.9489  0.1146 -0.3717
  712MOL0     C98158   6.290   3.647   1.405 -1.0319  0.5137 -0.0922
  712MOL0     C98159   6.386   3.760   1.408 -0.2453 -0.6703  0.7613
  712MOL0     C98160   6.461   3.771   1.542  0.1208 -0.2814  0.5698
  712MOL0     C98161   6.596   3.850   1.525 -0.0345  0.6762  0.2566
  712MOL0     C98162   6.658   3.878   1.659  0.5021 -0.1240 -0.8510
  712MOL0    Cl98163   6.836   3.898   1.634 -0.0985  0.3000  0.2197
  712MOL0     C98164   5.786   3.476   1.482  0.0791  0.0266 -0.1620
  712MOL0     C98165   5.696   3.377   1.537 -0.5726 -0.1701  0.5497
  712MOL0     O98166   5.645   3.220   1.794  0.0546  0.1374 -0.5728
  712MOL0     C98167   5.463   3.145   1.976  0.4579 -0.7858  0.1633
  712MOL0     C98168   5.362   3.102   2.077 -0.9178  0.1373  0.1681
  712MOL0     N98169   4.881   3.251   2.574  0.4797 -1.0714  0.1404
  712MOL0     N98170   4.845   3.262   2.694 -0.6468 -0.2413  0.4329
  712MOL0     C98171   4.131   3.932   3.046 -0.2740  0.3989  0.9956
  712MOL0     C98172   4.081   4.065   3.037 -1.0785  0.6916 -0.8206
  712MOL0     C98173   3.794   4.415   3.104 -0.3247 -0.3529  1.0731
  712MOL0     C98174   3.754   4.493   3.211 -0.1724 -0.2844 -0.2788
  712MOL0     C98175   3.719   4.628   3.197  0.1221  0.3217  0.5211
  712MOL0     C98176   3.696   4.678   3.074 -0.2498  0.4710 -0.6298
  712MOL0     O98177   3.640   4.797   3.070 -0.0482 -0.2845 -0.5125
  712MOL0     C98178   3.550   4.826   2.959  0.5371  1.0010 -1.1913
  712MOL0     C98179   3.497   4.971   2.982 -0.0418  1.3590 -0.9296
  712MOL0     C98180   3.450   5.001   3.126  0.6345  0.2157  0.5596
  712MOL0     C98181   3.327   4.905   3.171 -0.4253 -0.7183 -0.2575
  712MOL0     C98182   3.202   4.926   3.100  0.8569 -0.8720 -0.2054
  712MOL0     C98183   3.091   4.921   3.043 -0.3807  0.2495  0.0781
  712MOL0     C98184   3.730   4.603   2.961 -0.1341 -0.0891  0.4620
  712MOL0     C98185   3.790   4.473   2.975  0.3330  0.5091  0.1846
  712MOL0     C98186   3.838   4.407   2.848 -0.1941  0.0215 -0.5675
  712MOL0     H98187   3.760   4.009   3.114 -0.3710 -0.7935  0.9389
  712MOL0     H98188   3.855   3.757   3.103 -0.3114  0.7629  0.1661
  712MOL0     H98189   4.006   3.538   3.110  0.5419 -0.0286  0.7525
  712MOL0     H98190   4.028   3.656   3.245 -0.4724  0.8551 -0.3828
  712MOL0     H98191   4.286   3.585   3.233 -1.8901  2.3749 -1.4205
  712MOL0     H98192   4.171   3.482   3.327  0.2389  0.5843  0.1042
  712MOL0     H98193   4.265   3.321   3.214  0.7362 -0.0144  0.5286
  712MOL0     H98194   4.138   3.360   3.099 -0.4751  0.9580  1.2693
  712MOL0     H98195   4.310   3.516   2.985 -3.1367 -2.0374 -1.9937
  712MOL0     H98196   4.423   3.438   3.096  1.1778 -0.4647 -0.6881
  712MOL0     H98197   4.268   3.307   2.869 -0.8596 -0.3848  0.7955
  712MOL0     H98198   4.372   3.210   2.989  1.8472 -1.7201 -3.2133
  712MOL0     H98199   4.470   3.256   2.780 -0.5575 -2.5280  0.8878
  712MOL0     H98200   4.502   3.425   2.832 -0.9682 -0.5988 -0.8529
  712MOL0     H98201   4.597   3.245   3.034  1.0564 -1.8594  0.4119
  712MOL0     H98202   4.688   3.362   2.935  1.6208 -2.7512  2.1710
  712MOL0     H98203   4.782   3.122   2.922  1.2901  0.0109 -0.2521
  712MOL0     H98204   4.631   3.068   2.845 -0.3437  1.8338 -1.6985
  712MOL0     H98205   4.610   3.080   2.586 -0.2312  2.2954  0.8563
  712MOL0     H98206   4.670   3.226   2.351 -2.2647 -1.2907  4.6532
  712MOL0     H98207   4.684   3.059   2.349 -2.6388  0.7768 -1.0459
  712MOL0     H98208   4.818   3.234   2.187  1.1495  1.4415  0.3892
  712MOL0     H98209   4.929   3.230   2.320  0.6751  0.7641 -2.2292
  712MOL0     H98210   4.953   2.978   2.284  0.2257 -1.2441 -1.1099
  712MOL0     H98211   4.836   2.985   2.145 -0.0499  1.2209 -1.2973
  712MOL0     H98212   5.053   2.952   2.077  0.1408 -0.0538  0.3304
  712MOL0     H98213   4.977   3.101   2.005 -2.7489 -0.2293  1.1518
  712MOL0     H98214   5.103   3.282   1.964  0.6110  0.4045 -2.1265
  712MOL0     H98215   5.144   3.417   1.783  0.5468  1.0708  0.2880
  712MOL0     H98216   5.222   3.330   1.660 -1.0325  2.7523 -0.3325
  712MOL0     H98217   5.309   3.454   1.741  0.3694  0.2774  3.1083
  712MOL0     H98218   5.540   3.578   1.757 -0.1466 -0.3778  0.3159
  712MOL0     H98219   5.720   3.738   1.694  0.0376  0.4873 -1.1157
  712MOL0     H98220   5.888   3.853   1.556  1.1505 -1.1464 -0.4890
  712MOL0     H98221   5.974   3.728   1.651  0.8462 -3.1155 -1.0772
  712MOL0     H98222   6.090   3.813   1.395 -1.1247  1.0066 -0.6573
  712MOL0     H98223   6.144   3.854   1.556 -4.6220  4.1926 -0.5787
  712MOL0     H98224   6.116   3.564   1.485  1.8610 -0.9957  0.9047
  712MOL0     H98225   6.205   3.640   1.616 -2.1306  0.4406  0.4900
  712MOL0     H98226   6.242   3.650   1.307 -1.4983  2.4731  0.1363
  712MOL0     H98227   6.339   3.552   1.423  0.3295  1.0519 -0.8191
  712MOL0     H98228   6.460   3.738   1.331 -2.0793 -1.3997 -0.9025
  712MOL0     H98229   6.342   3.856   1.381 -0.8058 -1.2958 -0.6256
  712MOL0     H98230   6.483   3.668   1.569 -0.8408 -0.9724 -1.1090
  712MOL0     H98231   6.409   3.823   1.623  0.6394  0.8708  0.1897
  712MOL0     H98232   6.585   3.942   1.467  1.6678 -0.7707 -2.5915
  712MOL0     H98233   6.675   3.794   1.473  0.2102  1.7779 -0.5849
  712MOL0     H98234   6.630   3.793   1.722  1.6636 -1.1229 -1.6316
  712MOL0     H98235   6.618   3.975   1.691 -0.1776  0.3183 -2.9084
  712MOL0     H98236   5.848   3.462   1.394  0.0376 -3.1741  0.1987
  712MOL0     H98237   5.706   3.277   1.497  0.4984  0.0243  0.2985
  712MOL0     H98238   5.568   3.118   1.987  0.5218 -0.5140  0.2371
  712MOL0     H98239   5.389   3.035   2.158  0.1772  0.4954  0.1164
  712MOL0     H98240   4.239   3.922   3.042 -0.2985  0.5183 -0.2175
  712MOL0     H98241   4.158   4.134   3.004 -0.6038  1.6784  2.0077
  712MOL0     H98242   3.772   4.454   3.310  2.4667  1.3789  0.0219
  712MOL0     H98243   3.707   4.684   3.290  3.9247  0.9026  0.8372
  712MOL0     H98244   3.596   4.832   2.860 -0.4376 -2.2557 -1.9767
  712MOL0     H98245   3.456   4.769   2.957 -0.1744  2.1494 -1.2953
  712MOL0     H98246   3.412   4.983   2.914 -1.7381 -2.0357  0.3663
  712MOL0     H98247   3.578   5.042   2.964 -1.5128  3.1348 -0.8656
  712MOL0     H98248   3.540   4.993   3.187  2.1192 -0.7647 -1.6036
  712MOL0     H98249   3.412   5.103   3.138 -0.0080 -0.1103  1.3259
  712MOL0     H98250   3.314   4.895   3.279 -1.2177 -0.0764 -0.2899
  712MOL0     H98251   3.352   4.800   3.150 -0.5798 -0.4099 -2.1591
  712MOL0     H98252   2.994   4.923   2.998  0.3003  2.4931 -1.4731
  712MOL0     H98253   3.703   4.638   2.862 -0.8828 -2.1936 -0.1128
  712MOL0     H98254   3.794   4.462   2.764 -2.2199  2.0585  1.6586
  712MOL0     H98255   3.947   4.415   2.840  0.0034  0.2350  1.6577
  712MOL0     H98256   3.802   4.304   2.839 -0.2617 -0.2294  1.9187
  713MOL0     O98257   7.134   6.564   9.856 -0.1999 -0.3269 -0.6723
  713MOL0     C98258   7.099   6.451   9.814  0.9932 -0.4608 -0.0697
  713MOL0     O98259   7.179   6.350   9.765 -0.3823  0.0331  0.2677
  713MOL0     C98260   7.316   6.375   9.782  0.4461 -0.9779 -0.1901
  713MOL0     C98261   7.375   6.489   9.736 -0.5845  0.2534  0.2543
  713MOL0     C98262   7.515   6.500   9.748 -0.2683  1.0536 -0.2714
  713MOL0     C98263   7.600   6.404   9.814 -0.7953 -0.9207  0.1662
  713MOL0     O98264   7.736   6.420   9.826  0.4614  0.0342 -0.4271
  713MOL0     C98265   7.794   6.411   9.700  1.2878 -0.4549  0.1539
  713MOL0     C98266   7.914   6.519   9.711 -0.3143  0.5127  0.3178
  713MOL0     C98267   8.034   6.465   9.796  0.0914 -0.0977  0.4235
  713MOL0     C98268   8.112   6.596   9.839 -0.0706 -0.7539  0.2805
  713MOL0     C98269   8.245   6.554   9.886 -0.4828  1.2911 -0.4594
  713MOL0     C98270   8.249   6.449  10.009 -0.1132 -1.3658 -0.0634
  713MOL0     C98271   8.393   6.405  10.049  0.6285  0.0885 -0.5624
  713MOL0     C98272   8.475   6.513  10.122 -0.2881 -1.1769  0.1480
  713MOL0     N98273   8.619   6.503  10.112 -0.0385  1.5280 -0.1522
  713MOL0     C98274   8.711   6.588  10.050  0.8790 -0.2584  0.2461
  713MOL0     C98275   8.831   6.566  10.112 -0.4054  0.0258 -0.6044
  713MOL0     C98276   8.961   6.627  10.075 -0.7512 -0.2910  0.1539
  713MOL0     C98277   9.003   6.593   9.927  1.1993 -0.0911 -0.1978
  713MOL0     C98278   9.041   6.443   9.916  0.1250  0.0204 -0.6441
  713MOL0     C98279   8.928   6.343   9.923  0.2314  1.0089 -0.1639
  713MOL0     O98280   8.941   6.211   9.855 -0.0433 -0.5503 -0.5064
  713MOL0     C98281   8.868   6.107   9.894  0.3485  0.4452 -1.3274
  713MOL0     C98282   8.732   6.122   9.924  0.1925  0.4790  0.2578
  713MOL0     C98283   8.649   6.004   9.940  0.4235 -0.7003 -0.5911
  713MOL0     C98284   8.499   6.031   9.955  0.0569  0.1411 -0.1050
  713MOL0     C98285   8.706   5.878   9.948 -0.1619 -0.5196 -0.3716
  713MOL0     C98286   8.624   5.756   9.974  0.1216  0.7682 -0.3200
  713MOL0     O98287   8.685   5.638  10.004 -0.4844 -0.3829 -0.7539
  713MOL0     C98288   8.623   5.507  10.018 -0.0276 -0.8158  0.4521
  713MOL0     C98289   8.531   5.474  10.116 -0.6924 -0.7415  0.3207
  713MOL0     C98290   8.478   5.346  10.112 -0.4505  0.3392  0.1371
  713MOL0     C98291   8.499   5.264  10.003 -0.6091  0.6169  0.1281
  713MOL0     O98292   8.437   5.149  10.001 -0.4027 -0.7036  1.7571
  713MOL0     C98293   8.444   5.072   9.881 -0.2922  0.5522  0.1224
  713MOL0     C98294   8.371   4.939   9.900 -0.4304 -0.1178 -0.5591
  713MOL0     C98295   8.223   4.945   9.911  0.1837 -0.1719  0.2238
  713MOL0     C98296   8.170   5.036  10.019 -0.5007 -0.2098  0.4531
  713MOL0     C98297   8.028   5.007  10.085 -0.0418  0.1013 -0.3154
  713MOL0     C98298   7.929   5.001   9.969  0.6441 -0.2273 -0.0146
  713MOL0     C98299   7.795   5.004  10.032 -0.5056 -0.3761  0.7550
  713MOL0     C98300   7.687   4.951   9.933 -0.6647  0.0248 -0.0499
  713MOL0    Cl98301   7.697   5.032   9.774  0.2819  0.1833 -0.1182
  713MOL0     C98302   8.592   5.303   9.906 -0.3117  0.4981 -0.4010
  713MOL0     C98303   8.658   5.422   9.919  0.2824 -0.5489 -0.0463
  713MOL0     O98304   8.500   5.761   9.968  0.1271 -0.8404 -0.0129
  713MOL0     C98305   8.844   5.866   9.951 -0.4011 -0.0749 -0.3010
  713MOL0     C98306   8.923   5.978   9.913 -0.4389 -0.4948 -0.0259
  713MOL0     N98307   8.819   6.474  10.214 -1.2289 -0.8882  0.0984
  713MOL0     N98308   8.697   6.430  10.204  0.3962  0.3503 -0.3171
  713MOL0     C98309   7.533   6.291   9.859  0.7423  0.8064  0.0982
  713MOL0     C98310   7.394   6.275   9.845  0.2918  0.2687  0.6592
  713MOL0     C98311   6.952   6.422   9.835  0.4560 -0.6786  0.1909
  713MOL0     C98312   6.912   6.290   9.866 -0.1751  0.2993  0.5026
  713MOL0     C98313   6.772   6.259   9.865 -0.6101  1.0829  0.0316
  713MOL0     C98314   6.677   6.356   9.869  0.9622  0.2954 -0.2706
  713MOL0     O98315   6.540   6.315   9.878 -0.5058  0.2563  0.0732
  713MOL0     C98316   6.427   6.412   9.887 -0.3008  0.4542  0.7217
  713MOL0     C98317   6.417   6.485  10.022  0.3371  0.2386 -1.1277
  713MOL0     C98318   6.390   6.392  10.150 -0.2956 -0.1940  0.8217
  713MOL0     C98319   6.262   6.311  10.143 -0.9343 -0.3223  0.3708
  713MOL0     C98320   6.139   6.394  10.157 -0.2591  0.1629  0.6145
  713MOL0     C98321   6.043   6.469  10.157  0.6779 -0.2236 -0.3839
  713MOL0     C98322   6.717   6.483   9.846  0.3574  0.7241 -0.4755
  713MOL0     C98323   6.851   6.522   9.827 -0.0537  0.3350 -0.0566
  713MOL0     C98324   6.868   6.671   9.817  0.8393 -0.2911  0.2342
  713MOL0     H98325   7.315   6.566   9.689  2.5255  1.3785 -2.2641
  713MOL0     H98326   7.580   6.572   9.700 -0.0250  2.6074  2.2105
  713MOL0     H98327   7.730   6.452   9.620 -0.6807 -3.0115  0.2970
  713MOL0     H98328   7.830   6.311   9.674 -0.0095 -0.6618 -0.9628
  713MOL0     H98329   7.950   6.538   9.610  2.9051 -0.5014  1.1243
  713MOL0     H98330   7.880   6.616   9.749 -0.8191  0.6344 -0.4318
  713MOL0     H98331   7.995   6.404   9.877 -2.1671 -0.0386 -0.5467
  713MOL0     H98332   8.090   6.396   9.732  4.7230  1.1126  2.7252
  713MOL0     H98333   8.126   6.668   9.759  2.9400  1.2650  2.3698
  713MOL0     H98334   8.060   6.648   9.920  1.6586 -1.8245  2.2031
  713MOL0     H98335   8.308   6.641   9.909  1.7822 -0.1782 -0.7304
  713MOL0     H98336   8.277   6.506   9.793 -0.9969  0.1632 -0.0610
  713MOL0     H98337   8.203   6.494  10.098 -2.5382 -1.9966 -0.8952
  713MOL0     H98338   8.200   6.360   9.968 -0.7185 -1.0155 -0.1143
  713MOL0     H98339   8.435   6.389   9.950  0.9927  0.0259 -0.3996
  713MOL0     H98340   8.390   6.312  10.106  0.7039  0.9463  0.8969
  713MOL0     H98341   8.448   6.610  10.081  0.7180 -0.3994  1.2619
  713MOL0     H98342   8.453   6.518  10.229 -1.4327  1.4202 -0.1519
  713MOL0     H98343   8.701   6.664   9.972 -3.5277 -1.2918 -0.4590
  713MOL0     H98344   9.036   6.588  10.144  1.6448 -0.2443 -2.2605
  713MOL0     H98345   8.941   6.733  10.096 -2.9127 -0.9504  1.8261
  713MOL0     H98346   8.921   6.606   9.856 -0.1776 -2.8030  0.7717
  713MOL0     H98347   9.088   6.660   9.911  1.1836  0.2482  1.0731
  713MOL0     H98348   9.094   6.447   9.821  0.5279 -0.8725 -0.4697
  713MOL0     H98349   9.114   6.422   9.995 -2.1810 -2.3179  1.0529
  713MOL0     H98350   8.919   6.332  10.031  1.2489 -0.1378 -0.1714
  713MOL0     H98351   8.838   6.398   9.893  0.0715  0.6094 -0.4387
  713MOL0     H98352   8.698   6.225   9.917  0.0675  0.3413 -1.6812
  713MOL0     H98353   8.466   6.004  10.056  3.0972 -0.3977  0.8439
  713MOL0     H98354   8.446   5.972   9.880  1.1023  1.7811 -2.2501
  713MOL0     H98355   8.470   6.136   9.943  2.0868  0.7217 -0.2588
  713MOL0     H98356   8.487   5.548  10.182  0.4283  2.9743 -2.7795
  713MOL0     H98357   8.410   5.326  10.194  0.7969  3.3697  2.1018
  713MOL0     H98358   8.402   5.126   9.796  2.6345  0.4033 -1.5658
  713MOL0     H98359   8.546   5.049   9.848  0.3830  1.6913  1.2973
  713MOL0     H98360   8.396   4.876   9.814  0.7365  0.4236 -0.6505
  713MOL0     H98361   8.402   4.886   9.990  1.2296  1.4656 -0.1395
  713MOL0     H98362   8.190   4.841   9.919 -2.4823  0.4715 -1.1620
  713MOL0     H98363   8.182   4.963   9.811 -1.0881 -5.7803 -0.5778
  713MOL0     H98364   8.171   5.143   9.997 -1.6297  0.2207  2.3163
  713MOL0     H98365   8.244   5.038  10.099 -0.3005  5.1941  0.5044
  713MOL0     H98366   8.039   4.910  10.136  1.3156  0.9884  1.1801
  713MOL0     H98367   8.004   5.077  10.166  0.6259 -0.2277  0.1838
  713MOL0     H98368   7.952   4.924   9.895 -2.5230  1.7733 -3.4701
  713MOL0     H98369   7.939   5.098   9.919  0.2573 -0.2353 -0.1164
  713MOL0     H98370   7.775   5.110  10.049  1.2531 -0.0043  0.7051
  713MOL0     H98371   7.806   4.952  10.127  2.7662 -0.4230  0.4632
  713MOL0     H98372   7.590   4.959   9.982 -0.9287  0.9953 -0.7130
  713MOL0     H98373   7.703   4.843   9.918  1.3505  0.7825 -5.8597
  713MOL0     H98374   8.612   5.240   9.820 -2.0326  1.0116 -1.2315
  713MOL0     H98375   8.735   5.465   9.856  0.9931 -2.4398 -0.5105
  713MOL0     H98376   8.899   5.776   9.978  3.9225  1.7082 -2.1553
  713MOL0     H98377   9.031   5.987   9.904 -0.7060  1.8001 -1.6588
  713MOL0     H98378   7.595   6.216   9.907 -0.3003 -3.3554 -4.2515
  713MOL0     H98379   7.361   6.183   9.893 -0.1513  0.6111  1.0233
  713MOL0     H98380   6.984   6.209   9.870  0.0525  0.4516 -0.2332
  713MOL0     H98381   6.750   6.154   9.878  1.0595  0.3839 -2.1394
  713MOL0     H98382   6.435   6.483   9.804  0.6867 -0.4059  0.0504
  713MOL0     H98383   6.332   6.359   9.874 -1.2675  1.9543  1.4199
  713MOL0     H98384   6.332   6.554  10.016 -0.4194 -0.4448  1.0675
  713MOL0     H98385   6.499   6.554  10.044  1.5454 -1.9587  1.9463
  713MOL0     H98386   6.462   6.310  10.163  0.0993  0.0665  0.3230
  713MOL0     H98387   6.396   6.459  10.236  0.4523  0.7417  0.0658
  713MOL0     H98388   6.254   6.236  10.223  0.7945  0.7164  1.5919
  713MOL0     H98389   6.267   6.252  10.051 -2.2210 -1.8338  1.2253
  713MOL0     H98390   5.964   6.539  10.139 -1.1782 -2.4055 -1.2288
  713MOL0     H98391   6.643   6.559   9.825  1.7538  1.6080 -2.6217
  713MOL0     H98392   6.784   6.708   9.758  0.5671 -2.4130 -0.8087
  713MOL0     H98393   6.855   6.728   9.909 -1.6252  0.5346 -0.5530
  713MOL0     H98394   6.962   6.696   9.765 -0.3708  2.6933 -0.7103
  714MOL0     O98395   3.065   9.841  10.961 -0.5904 -0.2718  0.7587
  714MOL0     C98396   3.010   9.939  10.907  0.2702  0.1493 -0.0471
  714MOL0     O98397   2.875   9.960  10.888 -0.4788 -1.2951  0.8308
  714MOL0     C98398   2.776   9.872  10.930  0.2002  0.8989  0.2908
  714MOL0     C98399   2.785   9.733  10.914  0.1289 -0.9138  0.8029
  714MOL0     C98400   2.682   9.652  10.937  0.7834 -0.0327  0.0538
  714MOL0     C98401   2.555   9.696  10.980 -0.7146 -1.2167  0.1618
  714MOL0     O98402   2.445   9.611  11.000 -0.5223 -1.1890 -1.1527
  714MOL0     C98403   2.370   9.631  11.127 -0.5320 -0.1435  0.0569
  714MOL0     C98404   2.389   9.514  11.228  1.4304  0.1175 -0.6672
  714MOL0     C98405   2.535   9.498  11.271 -0.6530 -0.7204  0.1553
  714MOL0     C98406   2.551   9.393  11.391 -0.2242  0.0492 -0.8523
  714MOL0     C98407   2.699   9.362  11.414 -0.7552  0.2955 -0.3638
  714MOL0     C98408   2.768   9.488  11.463 -0.0978 -0.6117  0.2501
  714MOL0     C98409   2.907   9.445  11.505 -0.6526  0.4107  0.3082
  714MOL0     C98410   3.018   9.550  11.526 -0.4622 -0.1118 -0.1531
  714MOL0     N98411   3.148   9.485  11.543 -0.1664  0.4314 -0.5557
  714MOL0     C98412   3.250   9.541  11.622  0.4173  0.5788  0.1242
  714MOL0     C98413   3.348   9.452  11.612  0.0591  0.2712  0.4669
  714MOL0     C98414   3.485   9.461  11.674 -0.9162 -1.0388  0.3841
  714MOL0     C98415   3.582   9.480  11.560  0.0740 -0.5795  0.0460
  714MOL0     C98416   3.724   9.498  11.615 -0.6194 -0.2550  0.8905
  714MOL0     C98417   3.834   9.495  11.499  0.1179  0.3944 -0.2276
  714MOL0     O98418   3.858   9.362  11.471 -0.4541  0.4079 -0.3629
  714MOL0     C98419   3.950   9.312  11.378 -0.2691  0.3204 -0.0893
  714MOL0     C98420   4.013   9.394  11.283  0.8331  0.3445 -0.4436
  714MOL0     C98421   4.112   9.352  11.191  1.0689  0.1446 -1.1080
  714MOL0     C98422   4.162   9.465  11.099 -0.0255  0.1675  0.5725
  714MOL0     C98423   4.146   9.215  11.187 -0.9536  0.0328  0.1997
  714MOL0     C98424   4.239   9.156  11.084  1.1928 -0.0088  1.0189
  714MOL0     O98425   4.267   9.021  11.089 -0.4373  0.3642 -0.6187
  714MOL0     C98426   4.349   8.960  10.992 -0.2399 -0.2088 -0.6522
  714MOL0     C98427   4.301   8.952  10.861  0.0614 -0.0686 -0.3388
  714MOL0     C98428   4.372   8.879  10.767 -0.1758  0.1147 -0.5365
  714MOL0     C98429   4.489   8.818  10.801 -0.6347  0.8101 -0.1682
  714MOL0     O98430   4.550   8.738  10.701 -0.3310 -0.7188  0.6079
  714MOL0     C98431   4.671   8.672  10.718  0.1328 -0.5612 -0.7121
  714MOL0     C98432   4.694   8.585  10.595  0.3157 -0.5139 -0.2060
  714MOL0     C98433   4.821   8.516  10.568  0.0622  0.7676  0.6676
  714MOL0     C98434   4.821   8.373  10.622  0.2238  0.3256 -0.1780
  714MOL0     C98435   4.947   8.293  10.584 -0.1036 -0.1118  0.4883
  714MOL0     C98436   4.996   8.308  10.437 -0.9829  0.0120  0.4542
  714MOL0     C98437   5.099   8.195  10.400  0.3370 -0.5351 -0.5211
  714MOL0     C98438   5.172   8.236  10.274  0.1555 -0.1888 -0.6161
  714MOL0    Cl98439   5.320   8.148  10.261  0.4083  0.0290  0.1164
  714MOL0     C98440   4.537   8.811  10.931  0.0909  0.1222  0.3381
  714MOL0     C98441   4.459   8.882  11.025  0.6004 -0.4256  0.2268
  714MOL0     O98442   4.297   9.229  11.006 -0.3259  0.5311  0.9550
  714MOL0     C98443   4.086   9.139  11.291  0.2528  0.1055 -0.7482
  714MOL0     C98444   3.991   9.187  11.383 -0.2830  0.3153 -0.2483
  714MOL0     N98445   3.308   9.345  11.533  0.1084  0.1203  0.2996
  714MOL0     N98446   3.186   9.361  11.492 -0.7077 -0.1800 -0.9114
  714MOL0     C98447   2.537   9.837  10.983 -0.5134 -0.0576  0.7113
  714MOL0     C98448   2.648   9.922  10.961  0.0004 -0.5006  0.1439
  714MOL0     C98449   3.104  10.049  10.849 -0.1791 -0.3716  0.4944
  714MOL0     C98450   3.202  10.023  10.752  0.8038  0.1354 -0.0626
  714MOL0     C98451   3.278  10.119  10.691  0.2648  0.6895  0.7428
  714MOL0     C98452   3.265  10.255  10.736 -0.3662 -0.3741 -0.9423
  714MOL0     O98453   3.339  10.363  10.709 -0.6024  0.0305 -0.8672
  714MOL0     C98454   3.447  10.347  10.613 -0.5070  0.0958  0.0257
  714MOL0     C98455   3.555  10.455  10.631 -0.4416  0.5301  0.4210
  714MOL0     C98456   3.681  10.420  10.551 -0.1950  0.9038 -0.2963
  714MOL0     C98457   3.790  10.518  10.584  0.1424 -0.4158  0.3026
  714MOL0     C98458   3.838  10.494  10.714 -0.8052 -0.0699 -0.5076
  714MOL0     C98459   3.854  10.485  10.834  0.3981  0.8971 -0.1233
  714MOL0     C98460   3.171  10.281  10.837 -0.0014 -0.0311 -0.8072
  714MOL0     C98461   3.099  10.180  10.901 -0.1325 -0.4107 -0.7130
  714MOL0     C98462   3.011  10.216  11.015 -0.4297 -0.3753 -0.1964
  714MOL0     H98463   2.880   9.688  10.885 -1.4407 -4.0916  0.0814
  714MOL0     H98464   2.678   9.545  10.920 -0.9816 -0.3535  2.1120
  714MOL0     H98465   2.265   9.631  11.096 -0.7508 -2.1962  0.6602
  714MOL0     H98466   2.400   9.729  11.166 -0.4019  0.8164 -2.2999
  714MOL0     H98467   2.321   9.518  11.313 -0.4080  0.9803 -2.1089
  714MOL0     H98468   2.360   9.419  11.181  0.4984 -0.2446  0.5887
  714MOL0     H98469   2.581   9.464  11.178  1.5568  1.8678  0.1833
  714MOL0     H98470   2.583   9.595  11.286  0.4441 -1.1344 -0.5568
  714MOL0     H98471   2.504   9.434  11.481  2.2849  0.7234  0.2469
  714MOL0     H98472   2.504   9.298  11.367 -3.7019  0.7075  2.4070
  714MOL0     H98473   2.747   9.318  11.326 -0.5468  0.9212 -0.5706
  714MOL0     H98474   2.719   9.284  11.489 -1.0297  1.0373  0.5066
  714MOL0     H98475   2.774   9.571  11.391  1.9756  0.2111  1.2934
  714MOL0     H98476   2.709   9.536  11.542 -2.1493  4.0396 -3.5519
  714MOL0     H98477   2.942   9.386  11.420 -1.8807  2.5197 -1.7989
  714MOL0     H98478   2.899   9.378  11.591  2.6565 -0.7399 -0.1464
  714MOL0     H98479   3.021   9.608  11.434  0.5588 -0.3505 -0.2886
  714MOL0     H98480   2.990   9.615  11.610 -1.0732  0.9731 -1.1756
  714MOL0     H98481   3.254   9.632  11.682 -2.6336  0.5352  0.5357
  714MOL0     H98482   3.507   9.367  11.726 -0.2555 -1.5499 -0.7835
  714MOL0     H98483   3.487   9.539  11.750  2.1440 -2.2096  1.6449
  714MOL0     H98484   3.583   9.398  11.488  1.6319 -2.2235  1.8233
  714MOL0     H98485   3.554   9.571  11.505 -1.5761  1.2999  3.6407
  714MOL0     H98486   3.743   9.589  11.672 -1.4908  0.4746  0.0651
  714MOL0     H98487   3.740   9.408  11.676 -2.8298 -1.8140 -0.6330
  714MOL0     H98488   3.800   9.545  11.408  1.5718  0.3587 -0.8049
  714MOL0     H98489   3.921   9.551  11.534 -0.0041  0.3859  0.0922
  714MOL0     H98490   3.975   9.496  11.285  2.2520  0.9739 -2.3680
  714MOL0     H98491   4.270   9.459  11.085  0.5432  1.6329  3.4726
  714MOL0     H98492   4.123   9.562  11.130 -1.1709 -0.3294  0.7501
  714MOL0     H98493   4.121   9.464  10.998  1.6090  3.8628 -0.2625
  714MOL0     H98494   4.205   8.999  10.840  0.0822 -0.5254 -1.5405
  714MOL0     H98495   4.330   8.884  10.667 -0.6920  3.3467 -0.2407
  714MOL0     H98496   4.752   8.743  10.736  0.9892 -1.3929 -1.2144
  714MOL0     H98497   4.658   8.610  10.807 -0.1752  2.0815  1.2118
  714MOL0     H98498   4.612   8.513  10.592 -1.8855  1.6885  1.7979
  714MOL0     H98499   4.675   8.654  10.513 -0.0250  0.4122  0.6280
  714MOL0     H98500   4.895   8.571  10.628 -0.8760  1.7943  0.9107
  714MOL0     H98501   4.844   8.524  10.461  0.4860  1.6330  0.8135
  714MOL0     H98502   4.730   8.321  10.590 -1.8576  0.0011  5.2109
  714MOL0     H98503   4.815   8.371  10.732  2.2810  1.4296  0.0084
  714MOL0     H98504   5.036   8.313  10.645  1.3269  0.6534 -1.7595
  714MOL0     H98505   4.922   8.186  10.591 -1.9652  0.0938 -1.8227
  714MOL0     H98506   5.038   8.406  10.412 -2.1393  0.2726 -0.5851
  714MOL0     H98507   4.917   8.299  10.362 -0.6136  4.2685 -0.7211
  714MOL0     H98508   5.055   8.095  10.403 -0.3828 -0.2128  0.2711
  714MOL0     H98509   5.180   8.201  10.474  1.6486  0.1014 -1.9619
  714MOL0     H98510   5.187   8.341  10.247  3.6344  0.2368  2.1264
  714MOL0     H98511   5.109   8.201  10.192 -1.0529 -1.9584  0.9677
  714MOL0     H98512   4.627   8.757  10.959  0.5656  1.0107  0.5605
  714MOL0     H98513   4.478   8.881  11.132 -0.4274  0.2275  0.4278
  714MOL0     H98514   4.089   9.032  11.306 -6.0786 -0.4130 -0.6191
  714MOL0     H98515   3.968   9.127  11.471  0.4225  1.0438  0.4566
  714MOL0     H98516   2.438   9.880  10.986 -0.0558  1.3556 -1.3993
  714MOL0     H98517   2.639  10.028  10.986  2.9512 -0.8741  3.6377
  714MOL0     H98518   3.197   9.920  10.719  0.7512 -0.5520  1.9352
  714MOL0     H98519   3.333  10.091  10.602 -1.0234  0.9949 -0.1836
  714MOL0     H98520   3.498  10.252  10.632 -0.1902  0.1049 -0.7334
  714MOL0     H98521   3.414  10.356  10.509 -0.4756  1.8612  0.1401
  714MOL0     H98522   3.588  10.460  10.736  3.5623 -1.4660 -0.5388
  714MOL0     H98523   3.520  10.558  10.618  0.8311  1.0519  0.9232
  714MOL0     H98524   3.711  10.319  10.582 -1.1025  0.1203 -1.8105
  714MOL0     H98525   3.660  10.413  10.444 -0.3754 -3.0844 -0.1475
  714MOL0     H98526   3.752  10.620  10.577  2.7777  0.4994 -2.3364
  714MOL0     H98527   3.869  10.496  10.512  1.2279 -0.1698  1.3851
  714MOL0     H98528   3.865  10.461  10.938  0.8337 -2.1278 -0.7588
  714MOL0     H98529   3.174  10.381  10.878 -1.7293 -0.8174  1.4269
  714MOL0     H98530   3.055  10.186  11.111 -3.2650  0.4869  1.4795
  714MOL0     H98531   3.009  10.324  11.035 -0.0884 -0.6865  1.7741
  714MOL0     H98532   2.909  10.177  11.009 -1.2203  1.1833  1.7174
  715MOL0     O98533   7.045   4.842   1.632  0.1924 -0.3660 -0.2434
  715MOL0     C98534   7.000   4.852   1.517  0.6757  0.0203  0.4281
  715MOL0     O98535   7.014   4.752   1.422  0.4118 -0.1976 -0.0379
  715MOL0     C98536   7.063   4.626   1.474  1.1830 -0.1975  0.1787
  715MOL0     C98537   7.198   4.608   1.520  0.1710 -0.5662  0.5507
  715MOL0     C98538   7.241   4.478   1.566  0.4845 -0.3720 -0.3674
  715MOL0     C98539   7.150   4.371   1.567  0.1945 -0.0275  0.1562
  715MOL0     O98540   7.196   4.252   1.615  0.1877 -0.3607  0.3048
  715MOL0     C98541   7.113   4.144   1.620  0.3500 -0.0819 -0.5322
  715MOL0     C98542   7.165   4.025   1.702 -0.3780 -0.9498  0.6018
  715MOL0     C98543   7.203   4.066   1.841 -0.1568 -0.6652 -0.1473
  715MOL0     C98544   7.345   4.002   1.889  0.3828  0.0842 -0.2838
  715MOL0     C98545   7.329   3.850   1.881 -0.2836  0.7941  0.0423
  715MOL0     C98546   7.423   3.797   1.994  0.1173 -0.7459  0.3996
  715MOL0     C98547   7.424   3.641   2.000  0.2293 -0.0832 -0.7162
  715MOL0     C98548   7.506   3.568   2.109  0.0674  0.7904  0.5871
  715MOL0     N98549   7.478   3.428   2.077 -0.8442  0.4953 -0.9561
  715MOL0     C98550   7.561   3.335   2.010  0.6433  0.2809 -0.1623
  715MOL0     C98551   7.503   3.217   2.028 -0.5402  0.1206  0.1698
  715MOL0     C98552   7.548   3.087   1.976 -0.2095  0.4296  1.1491
  715MOL0     C98553   7.597   2.992   2.092  0.8100  0.8712  0.0135
  715MOL0     C98554   7.730   3.040   2.157 -0.4608  0.5537  0.5045
  715MOL0     C98555   7.773   2.962   2.277  0.5281 -1.3078 -0.4269
  715MOL0     O98556   7.913   3.002   2.301  0.7324  0.0301 -0.2424
  715MOL0     C98557   7.982   2.958   2.411  0.3042 -0.0347  0.4002
  715MOL0     C98558   7.930   2.876   2.513 -0.4386  0.5882  0.0525
  715MOL0     C98559   8.004   2.844   2.628  0.3810  0.1739 -0.0696
  715MOL0     C98560   7.928   2.761   2.732 -0.2355  0.3875  0.5259
  715MOL0     C98561   8.141   2.887   2.636 -0.0046  0.2734  0.7921
  715MOL0     C98562   8.238   2.877   2.753  0.6118 -0.3498  0.8046
  715MOL0     O98563   8.367   2.909   2.734 -0.5341  0.4381 -0.7539
  715MOL0     C98564   8.438   2.966   2.838  0.3019 -0.1704  0.5432
  715MOL0     C98565   8.461   3.102   2.840 -0.3643 -0.0015 -0.0110
  715MOL0     C98566   8.532   3.168   2.944  0.2339 -0.0508  0.6035
  715MOL0     C98567   8.591   3.090   3.052 -1.8941  0.6292 -0.0422
  715MOL0     O98568   8.666   3.144   3.156  0.5645 -0.4956  0.1386
  715MOL0     C98569   8.752   3.251   3.130 -0.0287 -0.1177 -0.1930
  715MOL0     C98570   8.811   3.314   3.258 -0.0216  1.0590 -0.2795
  715MOL0     C98571   8.917   3.417   3.229  0.0966 -0.6178 -0.3065
  715MOL0     C98572   8.992   3.475   3.348  0.6288 -0.3468  1.1995
  715MOL0     C98573   9.071   3.599   3.308  0.9786  0.6685 -0.2672
  715MOL0     C98574   9.212   3.584   3.258  0.9813 -0.3372  0.1032
  715MOL0     C98575   9.295   3.717   3.244 -0.4376 -0.5890 -0.8885
  715MOL0     C98576   9.406   3.672   3.154 -0.6505  0.0432 -0.3646
  715MOL0    Cl98577   9.524   3.808   3.124  0.3820 -0.1012  0.0859
  715MOL0     C98578   8.572   2.955   3.036 -0.7361  0.3386  0.1349
  715MOL0     C98579   8.507   2.891   2.932 -0.2913  0.5666  0.8900
  715MOL0     O98580   8.180   2.847   2.860 -0.2078 -0.7461 -0.1540
  715MOL0     C98581   8.188   2.971   2.531 -0.1667  1.3630 -0.4518
  715MOL0     C98582   8.108   3.006   2.426  0.1979  0.1419 -0.4268
  715MOL0     N98583   7.383   3.247   2.092 -0.1634  0.6738  0.4753
  715MOL0     N98584   7.368   3.365   2.118  0.6146  0.6164 -0.1191
  715MOL0     C98585   7.022   4.389   1.516 -0.5174 -0.3644  0.3068
  715MOL0     C98586   6.977   4.512   1.462 -0.5278 -0.0969  0.5510
  715MOL0     C98587   6.941   4.980   1.462 -0.2693  0.4038  0.8020
  715MOL0     C98588   6.951   4.995   1.326  0.2903 -0.2768  0.0532
  715MOL0     C98589   6.919   5.115   1.264 -0.0680 -1.0844  0.5980
  715MOL0     C98590   6.867   5.223   1.343 -0.1121 -0.8361 -0.2485
  715MOL0     O98591   6.858   5.353   1.306  0.6201  0.4994  0.6479
  715MOL0     C98592   6.960   5.409   1.211 -0.9105  0.1174 -0.2071
  715MOL0     C98593   6.901   5.442   1.077 -0.4862  0.2263 -0.5564
  715MOL0     C98594   6.976   5.554   0.997  0.0008  0.6597  0.3811
  715MOL0     C98595   7.109   5.527   0.924  1.3762 -0.0824  0.0110
  715MOL0     C98596   7.154   5.639   0.842 -0.2297 -0.2011  0.9936
  715MOL0     C98597   7.188   5.721   0.756 -0.2369 -0.5550  0.3875
  715MOL0     C98598   6.844   5.198   1.478  0.8478 -0.3473 -0.1512
  715MOL0     C98599   6.875   5.082   1.538  0.1002  0.3749 -0.3591
  715MOL0     C98600   6.841   5.059   1.684  0.3876 -0.7167  0.5667
  715MOL0     H98601   7.262   4.696   1.525 -0.4069 -0.2000  2.3348
  715MOL0     H98602   7.340   4.456   1.605  0.3770 -0.0413  0.0912
  715MOL0     H98603   7.116   4.113   1.515  2.5546  0.5048 -0.6838
  715MOL0     H98604   7.009   4.163   1.650  1.1036  0.5177  1.9355
  715MOL0     H98605   7.084   3.952   1.702 -1.4623  0.1926  2.5320
  715MOL0     H98606   7.248   3.966   1.660 -0.4907 -0.6022 -0.1280
  715MOL0     H98607   7.217   4.174   1.835  2.9893 -0.7915  2.0274
  715MOL0     H98608   7.126   4.059   1.918  2.3930  0.5870  2.7377
  715MOL0     H98609   7.424   4.038   1.822  1.0193 -3.1003 -1.4355
  715MOL0     H98610   7.355   4.028   1.995 -2.6475 -1.1379  0.4131
  715MOL0     H98611   7.360   3.812   1.783  0.5623 -1.4089  1.0917
  715MOL0     H98612   7.226   3.817   1.900 -0.2590 -0.1307 -1.2905
  715MOL0     H98613   7.525   3.835   1.981  0.5407 -0.5149  3.4978
  715MOL0     H98614   7.385   3.830   2.091  0.8976  0.3969  0.3288
  715MOL0     H98615   7.444   3.613   1.896 -2.0807 -1.2988 -0.8792
  715MOL0     H98616   7.322   3.604   2.013 -0.3888  1.7042 -0.0729
  715MOL0     H98617   7.610   3.592   2.085 -0.2808 -0.0350 -2.1412
  715MOL0     H98618   7.461   3.588   2.206 -3.5098 -2.7574 -0.0694
  715MOL0     H98619   7.657   3.349   1.961  0.9606  0.5826  0.5314
  715MOL0     H98620   7.632   3.105   1.909 -2.5503 -1.1899 -2.5075
  715MOL0     H98621   7.463   3.052   1.917  1.8542  1.5641 -2.8284
  715MOL0     H98622   7.508   2.967   2.150 -1.3132 -3.3671 -4.3376
  715MOL0     H98623   7.605   2.894   2.044 -0.8097  1.3074 -1.2827
  715MOL0     H98624   7.807   3.040   2.079 -1.7577  0.6359 -0.8212
  715MOL0     H98625   7.720   3.147   2.179 -0.5871  0.1508  2.5595
  715MOL0     H98626   7.703   2.988   2.358 -0.7419 -0.9314 -1.6128
  715MOL0     H98627   7.770   2.853   2.261  1.3776 -1.5093  0.6383
  715MOL0     H98628   7.831   2.831   2.523  0.3873 -1.3772 -0.1697
  715MOL0     H98629   7.992   2.687   2.780 -1.3574 -1.7957 -1.1785
  715MOL0     H98630   7.836   2.713   2.699  0.2489  0.0571 -0.3785
  715MOL0     H98631   7.897   2.831   2.810 -2.8678  1.5832 -1.4110
  715MOL0     H98632   8.420   3.164   2.761 -0.0748  0.0384 -0.1308
  715MOL0     H98633   8.536   3.275   2.957  0.8851 -0.2041  1.8287
  715MOL0     H98634   8.835   3.211   3.071  1.7512 -0.7443  2.5728
  715MOL0     H98635   8.700   3.332   3.078  0.2773  2.2083  2.8880
  715MOL0     H98636   8.727   3.360   3.310 -1.7893 -0.9192 -1.2284
  715MOL0     H98637   8.851   3.232   3.317  1.7367  2.2250  0.2203
  715MOL0     H98638   8.865   3.493   3.170  1.7244 -1.7846 -3.5118
  715MOL0     H98639   8.995   3.363   3.173  0.6022  0.0849 -0.2985
  715MOL0     H98640   9.056   3.393   3.383  1.4407 -2.3046 -4.0048
  715MOL0     H98641   8.918   3.510   3.420  0.0918 -0.1246  0.5440
  715MOL0     H98642   9.013   3.647   3.228 -2.2158 -0.1164  1.4124
  715MOL0     H98643   9.074   3.676   3.385  0.5413  0.2816  0.1484
  715MOL0     H98644   9.205   3.537   3.159  1.7357 -0.3726  0.0647
  715MOL0     H98645   9.270   3.521   3.325  2.2364  0.2920 -0.3715
  715MOL0     H98646   9.333   3.730   3.345 -3.1639  1.0659  0.0117
  715MOL0     H98647   9.246   3.811   3.217  2.7233  1.5528  0.3150
  715MOL0     H98648   9.374   3.647   3.052 -0.5372  0.9388 -0.6279
  715MOL0     H98649   9.453   3.584   3.199  1.3195  1.1586 -0.0941
  715MOL0     H98650   8.629   2.890   3.102  1.6324  1.9090 -0.2117
  715MOL0     H98651   8.505   2.783   2.932 -2.7433  0.4547 -2.9313
  715MOL0     H98652   8.285   3.020   2.536 -0.1489  1.2419  3.0091
  715MOL0     H98653   8.160   3.068   2.353  1.6239 -1.8458 -1.1753
  715MOL0     H98654   6.945   4.312   1.524 -2.0942  0.9597 -1.3437
  715MOL0     H98655   6.875   4.521   1.426  0.4873 -1.2413 -3.0657
  715MOL0     H98656   6.983   4.916   1.258 -3.3555 -1.0356 -0.9718
  715MOL0     H98657   6.914   5.133   1.157 -3.0029  0.2204  0.8575
  715MOL0     H98658   7.025   5.492   1.242 -0.2765 -0.8201  1.0738
  715MOL0     H98659   7.037   5.335   1.189  0.9303  1.6900  0.6277
  715MOL0     H98660   6.796   5.469   1.090 -0.9315 -1.7026  0.2384
  715MOL0     H98661   6.891   5.352   1.015 -1.7320  0.5565 -0.8491
  715MOL0     H98662   6.905   5.599   0.927  1.2570  2.7621  0.3699
  715MOL0     H98663   6.998   5.641   1.060  1.1318  0.2247  0.6141
  715MOL0     H98664   7.087   5.451   0.848 -1.0390  0.7685 -0.2197
  715MOL0     H98665   7.178   5.498   1.003 -1.3045  0.4780  2.7350
  715MOL0     H98666   7.230   5.809   0.712  1.7308 -1.9255 -0.5953
  715MOL0     H98667   6.782   5.265   1.537  1.9673 -0.4582  1.2014
  715MOL0     H98668   6.762   5.131   1.709 -3.8405 -3.1301 -3.9599
  715MOL0     H98669   6.793   4.961   1.693  0.5522 -0.9503 -0.7684
  715MOL0     H98670   6.934   5.058   1.741  1.0787  0.5281 -0.4811
  716MOL0     O98671   7.157   1.167   7.476  0.0800 -0.4229 -0.9262
  716MOL0     C98672   7.174   1.092   7.569  0.4706  0.3607  0.4422
  716MOL0     O98673   7.065   1.020   7.612 -0.0669  0.8050 -0.2695
  716MOL0     C98674   7.101   0.890   7.646  0.1770 -0.0940 -1.7298
  716MOL0     C98675   7.170   0.802   7.567 -0.0445 -0.4692  0.3806
  716MOL0     C98676   7.182   0.671   7.597  0.1425  0.7681  0.3815
  716MOL0     C98677   7.140   0.619   7.719 -0.0288 -0.1687  0.1438
  716MOL0     O98678   7.160   0.486   7.749  0.4417  1.0782 -1.3762
  716MOL0     C98679   7.106   0.389   7.654 -0.2999  0.8380  0.2428
  716MOL0     C98680   7.178   0.261   7.637 -0.5606  1.5499 -0.2314
  716MOL0     C98681   7.192   0.180   7.770 -0.0538 -1.2096 -0.2636
  716MOL0     C98682   7.241   0.037   7.744  0.7780 -0.1566 -0.1788
  716MOL0     C98683   7.277  -0.028   7.879 -0.0341  0.9206 -0.8517
  716MOL0     C98684   7.158  -0.068   7.964  0.5614  1.1463 -0.1116
  716MOL0     C98685   7.197  -0.052   8.110 -0.9615  0.0265  0.5411
  716MOL0     C98686   7.080  -0.069   8.209  0.1729 -0.4019 -0.1679
  716MOL0     N98687   7.032  -0.206   8.227  0.5655 -0.0867 -0.2842
  716MOL0     C98688   7.054  -0.317   8.156  0.5183 -0.3322  0.3770
  716MOL0     C98689   6.954  -0.402   8.187  0.0773  0.4581 -0.1273
  716MOL0     C98690   6.943  -0.539   8.119  0.2887  0.5716 -0.5213
  716MOL0     C98691   6.931  -0.532   7.963 -0.1077  0.0703 -0.5756
  716MOL0     C98692   6.818  -0.434   7.913  0.7966  0.8716 -0.0182
  716MOL0     C98693   6.679  -0.498   7.930  0.1236  0.7087  1.2688
  716MOL0     O98694   6.672  -0.611   7.843 -0.6238  1.2067 -0.0694
  716MOL0     C98695   6.586  -0.712   7.868 -0.7606 -0.0269 -0.1816
  716MOL0     C98696   6.584  -0.808   7.766 -0.0771  0.2789  0.2142
  716MOL0     C98697   6.503  -0.924   7.777  1.1490  0.5345 -0.3447
  716MOL0     C98698   6.514  -1.048   7.690 -0.5225  0.6375  1.2854
  716MOL0     C98699   6.410  -0.931   7.889 -0.0563 -0.1944  0.8673
  716MOL0     C98700   6.327  -1.049   7.926 -0.4619  0.1176 -0.4093
  716MOL0     O98701   6.195  -1.026   7.964 -0.5283 -0.0440  0.2569
  716MOL0     C98702   6.113  -1.123   8.020  0.4096 -1.0058 -0.0004
  716MOL0     C98703   5.976  -1.104   8.026  1.0101  0.2392 -0.4781
  716MOL0     C98704   5.891  -1.193   8.099 -0.8530 -0.7732 -0.9073
  716MOL0     C98705   5.941  -1.298   8.184 -0.2140 -0.4469  0.0684
  716MOL0     O98706   5.854  -1.367   8.264 -0.6624 -0.7231  0.1453
  716MOL0     C98707   5.886  -1.503   8.297 -0.0731  0.2381 -0.4208
  716MOL0     C98708   5.780  -1.564   8.398  0.0820 -0.0497 -0.3540
  716MOL0     C98709   5.636  -1.543   8.368 -0.4014  0.5644  0.4463
  716MOL0     C98710   5.577  -1.628   8.246  0.8830 -0.5113  0.7767
  716MOL0     C98711   5.441  -1.575   8.199 -0.0222 -0.0684  0.2040
  716MOL0     C98712   5.324  -1.603   8.290 -0.0024  0.4577  0.2094
  716MOL0     C98713   5.193  -1.571   8.214  0.2117 -0.0249  0.4292
  716MOL0     C98714   5.084  -1.561   8.319 -0.0216  0.0937  0.0220
  716MOL0    Cl98715   4.926  -1.532   8.228  0.1978  0.0542 -0.2934
  716MOL0     C98716   6.077  -1.321   8.172  0.1008 -0.2890  0.2067
  716MOL0     C98717   6.159  -1.236   8.095 -0.4589  1.0388 -0.0028
  716MOL0     O98718   6.387  -1.157   7.920 -0.0999  0.6920 -0.4495
  716MOL0     C98719   6.412  -0.819   7.971 -0.8285  0.0904  0.5036
  716MOL0     C98720   6.493  -0.711   7.964  0.6109 -0.1524 -0.4994
  716MOL0     N98721   6.867  -0.335   8.273 -0.0038 -0.6169  0.3218
  716MOL0     N98722   6.921  -0.218   8.297 -0.1257  0.2827 -0.0809
  716MOL0     C98723   7.076   0.708   7.808  0.1723  0.8500  0.2305
  716MOL0     C98724   7.059   0.842   7.774 -0.3021  1.2201 -0.9199
  716MOL0     C98725   7.302   1.090   7.651  0.2375  0.5252  0.5044
  716MOL0     C98726   7.290   1.119   7.785 -0.2882  0.9986 -1.1873
  716MOL0     C98727   7.406   1.120   7.867 -0.8710  0.1691  0.0725
  716MOL0     C98728   7.534   1.119   7.810  0.2346 -0.4857 -0.1877
  716MOL0     O98729   7.649   1.121   7.880  0.4192 -0.7239 -0.0408
  716MOL0     C98730   7.653   1.164   8.018  0.6259  0.1685 -0.5282
  716MOL0     C98731   7.613   1.311   8.044  0.4902  0.6659  0.5530
  716MOL0     C98732   7.634   1.351   8.188  0.9678 -0.0774  0.8573
  716MOL0     C98733   7.513   1.307   8.277  0.1249  0.2213 -0.7703
  716MOL0     C98734   7.523   1.341   8.417 -1.0563  0.9542 -0.0839
  716MOL0     C98735   7.534   1.365   8.534  0.0164 -0.8022 -0.3500
  716MOL0     C98736   7.545   1.105   7.672  0.6805  1.1281 -0.1172
  716MOL0     C98737   7.430   1.076   7.588 -0.6378 -0.9965 -0.1326
  716MOL0     C98738   7.448   1.036   7.451 -0.4166  0.0469 -0.8521
  716MOL0     H98739   7.188   0.832   7.464  2.2211  1.4618  1.2183
  716MOL0     H98740   7.217   0.610   7.514 -1.8173  1.4042 -0.9696
  716MOL0     H98741   7.087   0.426   7.553  1.2420 -1.5739 -1.0043
  716MOL0     H98742   7.010   0.360   7.699  0.8160  0.5974  2.6271
  716MOL0     H98743   7.116   0.202   7.567 -2.1620 -1.0604  3.1095
  716MOL0     H98744   7.279   0.272   7.597  0.3548 -2.2245  0.6413
  716MOL0     H98745   7.258   0.224   7.846 -0.6258 -0.6203 -0.0935
  716MOL0     H98746   7.094   0.180   7.819  0.2310  2.0085  0.5722
  716MOL0     H98747   7.168  -0.029   7.696  1.2519  1.7673 -3.9077
  716MOL0     H98748   7.335   0.039   7.687  1.2082 -1.3354  0.4534
  716MOL0     H98749   7.339   0.038   7.940 -0.7638  0.0615  0.9139
  716MOL0     H98750   7.338  -0.116   7.854 -0.7336  0.5626 -1.3439
  716MOL0     H98751   7.070  -0.008   7.937 -1.2442 -0.7671  1.1323
  716MOL0     H98752   7.110  -0.165   7.947 -1.4732  1.4101  3.2338
  716MOL0     H98753   7.240   0.046   8.131  2.9939 -1.6057  0.7578
  716MOL0     H98754   7.279  -0.121   8.129  0.9517  1.1189 -2.8711
  716MOL0     H98755   7.122  -0.042   8.306 -1.3166  2.3281 -0.2191
  716MOL0     H98756   7.001   0.002   8.184 -1.2445 -2.3191 -1.4207
  716MOL0     H98757   7.136  -0.329   8.086 -1.3345  3.4450 -2.8451
  716MOL0     H98758   6.853  -0.593   8.151 -1.0146  1.7111 -2.1176
  716MOL0     H98759   7.034  -0.598   8.133  1.1729  1.0472 -3.6621
  716MOL0     H98760   7.025  -0.487   7.933  0.7582 -1.8188 -0.8545
  716MOL0     H98761   6.932  -0.633   7.920 -1.5839 -0.3527  0.2914
  716MOL0     H98762   6.812  -0.337   7.964 -3.7177  1.9207 -2.0753
  716MOL0     H98763   6.839  -0.420   7.807  2.1888  5.0006  0.5973
  716MOL0     H98764   6.667  -0.513   8.037 -0.8912  5.0494  1.9506
  716MOL0     H98765   6.612  -0.420   7.892 -2.6771 -3.0159 -2.4870
  716MOL0     H98766   6.657  -0.804   7.686  1.1958 -2.0114  1.1513
  716MOL0     H98767   6.575  -1.025   7.602  0.5658 -0.4090  1.7562
  716MOL0     H98768   6.411  -1.071   7.661  0.1767  2.8059 -4.1488
  716MOL0     H98769   6.560  -1.131   7.744  2.0068  0.9546 -0.2153
  716MOL0     H98770   5.932  -1.013   7.987 -0.9409  1.4406  3.8611
  716MOL0     H98771   5.790  -1.154   8.115 -0.4776 -0.5099  1.0560
  716MOL0     H98772   5.896  -1.568   8.210  3.9697 -0.9244  0.6566
  716MOL0     H98773   5.975  -1.503   8.362  0.4068  2.2742 -1.0106
  716MOL0     H98774   5.804  -1.670   8.411  0.2787  0.1052  0.6304
  716MOL0     H98775   5.796  -1.511   8.493  0.2004 -0.8462  0.0776
  716MOL0     H98776   5.621  -1.442   8.330 -0.0525  0.0655 -1.1221
  716MOL0     H98777   5.587  -1.557   8.465 -0.2242 -0.6941  0.3776
  716MOL0     H98778   5.566  -1.733   8.275 -0.9901 -1.0710 -1.6543
  716MOL0     H98779   5.647  -1.617   8.162 -1.4192  1.1527 -1.0474
  716MOL0     H98780   5.453  -1.470   8.169  0.0159 -0.3015 -0.6188
  716MOL0     H98781   5.431  -1.625   8.102  0.9146 -1.1688  0.6630
  716MOL0     H98782   5.332  -1.537   8.377  0.7668 -0.0660  0.5471
  716MOL0     H98783   5.319  -1.707   8.323  0.3570  0.6442  0.8669
  716MOL0     H98784   5.171  -1.656   8.150 -0.4117 -1.1911  2.1146
  716MOL0     H98785   5.188  -1.479   8.154  2.9160 -1.6282 -2.5458
  716MOL0     H98786   5.109  -1.473   8.379  0.9406  0.9208 -1.5067
  716MOL0     H98787   5.080  -1.659   8.366 -1.4263 -0.2400 -0.7345
  716MOL0     H98788   6.111  -1.409   8.225 -0.1604 -0.0380  0.7950
  716MOL0     H98789   6.263  -1.265   8.100 -0.6544  0.3184  4.8997
  716MOL0     H98790   6.337  -0.806   8.049 -1.7507 -2.9772  0.2306
  716MOL0     H98791   6.484  -0.638   8.044 -2.8928 -1.8843  0.9149
  716MOL0     H98792   7.042   0.655   7.897 -0.8400 -1.5906 -1.4944
  716MOL0     H98793   7.004   0.901   7.847  0.5167  0.8134  0.0435
  716MOL0     H98794   7.191   1.122   7.829 -1.6205  3.7922 -3.8980
  716MOL0     H98795   7.391   1.131   7.974  0.5779  0.8701  0.2173
  716MOL0     H98796   7.584   1.096   8.069 -3.4033  1.7892 -3.3243
  716MOL0     H98797   7.752   1.161   8.064 -0.7912  1.7109  3.0661
  716MOL0     H98798   7.505   1.323   8.032  0.4082 -0.1802  0.3814
  716MOL0     H98799   7.658   1.371   7.964  1.1517 -1.1562 -0.5261
  716MOL0     H98800   7.728   1.318   8.233 -0.1904 -0.2882  3.2510
  716MOL0     H98801   7.626   1.460   8.197  0.2972 -0.1606  1.3325
  716MOL0     H98802   7.511   1.198   8.269 -1.6898  0.3070 -1.9994
  716MOL0     H98803   7.415   1.342   8.242 -0.4698 -1.2417 -0.6396
  716MOL0     H98804   7.564   1.389   8.634  2.3997 -4.4070 -0.0164
  716MOL0     H98805   7.641   1.085   7.626 -0.3852 -2.7776 -1.0523
  716MOL0     H98806   7.444   1.123   7.384  2.5639  0.1248 -1.0822
  716MOL0     H98807   7.549   0.995   7.437  0.7666  2.2619  0.4913
  716MOL0     H98808   7.376   0.957   7.429 -2.2312  0.9056  1.6199
  717MOL0     O98809   7.420   5.762  10.501 -0.5675 -0.2160  1.1153
  717MOL0     C98810   7.428   5.875  10.535 -0.9082  0.1607 -0.3935
  717MOL0     O98811   7.541   5.941  10.562 -0.4976 -0.1654  1.0971
  717MOL0     C98812   7.671   5.899  10.529  0.4069  0.4111  1.2361
  717MOL0     C98813   7.778   5.974  10.586 -0.3588  0.5877  0.8424
  717MOL0     C98814   7.912   5.955  10.534 -0.0770 -0.7930  0.2799
  717MOL0     C98815   7.934   5.862  10.440  0.8700  0.9486 -0.2120
  717MOL0     O98816   8.053   5.850  10.379  0.4362 -1.1502  0.5886
  717MOL0     C98817   8.116   5.725  10.399 -0.2185 -0.1519  0.6414
  717MOL0     C98818   8.265   5.749  10.405  0.1471  0.5405 -0.4247
  717MOL0     C98819   8.294   5.820  10.542  0.1654  0.7394 -0.1982
  717MOL0     C98820   8.441   5.824  10.573 -0.6856 -0.4551 -0.1764
  717MOL0     C98821   8.516   5.923  10.488  0.0228 -0.0241 -0.0816
  717MOL0     C98822   8.662   5.947  10.529  0.3969 -0.3307 -0.1717
  717MOL0     C98823   8.750   5.821  10.510  0.7304  0.5079  0.0226
  717MOL0     C98824   8.759   5.795  10.357  0.5160  0.0779  0.4656
  717MOL0     N98825   8.818   5.666  10.314 -0.0605 -0.4959  0.0186
  717MOL0     C98826   8.809   5.545  10.374 -0.5944 -0.6644 -0.0776
  717MOL0     C98827   8.891   5.463  10.308 -0.1037 -0.1892  0.7367
  717MOL0     C98828   8.898   5.314  10.337  0.2389 -0.2152  0.0402
  717MOL0     C98829   8.803   5.235  10.243  0.0309 -0.3453 -0.2623
  717MOL0     C98830   8.800   5.081  10.273 -0.8860 -0.0095 -0.2588
  717MOL0     C98831   8.740   5.012  10.152 -0.3198  0.5726 -0.3812
  717MOL0     O98832   8.746   4.874  10.196 -0.2928  0.2485 -0.2854
  717MOL0     C98833   8.727   4.784  10.097  0.1530 -0.0388 -0.1387
  717MOL0     C98834   8.691   4.803   9.969  0.6195  0.5329 -0.3718
  717MOL0     C98835   8.658   4.699   9.885 -0.7772 -0.2012  0.4134
  717MOL0     C98836   8.612   4.732   9.746  0.0881 -0.9534  0.1185
  717MOL0     C98837   8.661   4.562   9.927 -0.1524  0.7920 -0.6135
  717MOL0     C98838   8.619   4.442   9.846 -0.9373 -0.4486  0.1462
  717MOL0     O98839   8.583   4.326   9.912  0.7667 -0.8057  0.5176
  717MOL0     C98840   8.535   4.215   9.840 -0.0238  0.5107  0.1627
  717MOL0     C98841   8.528   4.091   9.905 -0.8322  0.0420  0.4175
  717MOL0     C98842   8.472   3.979   9.854 -0.0006  0.1220 -1.0513
  717MOL0     C98843   8.407   3.978   9.732 -0.2770 -0.0152 -1.2744
  717MOL0     O98844   8.341   3.857   9.722  0.1998 -0.2101 -0.8544
  717MOL0     C98845   8.272   3.849   9.604 -0.2817 -0.4770  0.4057
  717MOL0     C98846   8.176   3.734   9.623  0.5221 -0.6326 -0.0087
  717MOL0     C98847   8.078   3.747   9.744  0.9174 -1.3657 -0.7314
  717MOL0     C98848   8.011   3.893   9.763 -0.1960 -0.1689 -0.2307
  717MOL0     C98849   7.902   3.883   9.878  0.1821 -1.2088  0.1401
  717MOL0     C98850   7.868   4.029   9.923  1.0812 -0.2442  0.0710
  717MOL0     C98851   7.968   4.121   9.988 -0.4294  0.0138  0.4957
  717MOL0     C98852   7.981   4.111  10.140 -0.4087  0.1110  0.1968
  717MOL0    Cl98853   7.810   4.106  10.204  0.4263 -0.4626 -0.2221
  717MOL0     C98854   8.411   4.099   9.660  0.6165  0.3518  0.1762
  717MOL0     C98855   8.457   4.220   9.722  0.4616  0.7524  0.5056
  717MOL0     O98856   8.638   4.450   9.723  0.4468 -0.1723  0.3406
  717MOL0     C98857   8.716   4.542  10.055  0.3895 -0.4694 -0.7405
  717MOL0     C98858   8.740   4.647  10.136  0.3140  0.7369  0.6295
  717MOL0     N98859   8.947   5.534  10.199 -0.6641 -0.3826  0.1319
  717MOL0     N98860   8.893   5.651  10.193  0.0260  0.0217  0.0830
  717MOL0     C98861   7.831   5.789  10.390  0.3920 -0.3546  1.1438
  717MOL0     C98862   7.696   5.812  10.423 -0.3994  0.0746  0.4523
  717MOL0     C98863   7.304   5.959  10.547 -0.1341  0.7554 -0.6650
  717MOL0     C98864   7.315   6.096  10.579 -0.0605 -0.3876  0.0729
  717MOL0     C98865   7.197   6.179  10.585 -0.1132 -0.2585 -0.2532
  717MOL0     C98866   7.073   6.129  10.576 -0.7440  0.8657  0.1379
  717MOL0     O98867   6.957   6.194  10.581  0.5804  0.5065  0.3601
  717MOL0     C98868   6.956   6.330  10.565 -0.0823 -0.3358 -0.4033
  717MOL0     C98869   6.896   6.392  10.692 -0.9655  0.6058 -0.5226
  717MOL0     C98870   6.988   6.361  10.818  1.0050 -0.1573  0.1557
  717MOL0     C98871   6.951   6.423  10.950  0.0997  0.7139 -0.6249
  717MOL0     C98872   6.976   6.564  10.953 -0.5351 -0.0310 -0.1252
  717MOL0     C98873   7.005   6.679  10.971  0.2513  0.3457 -0.6285
  717MOL0     C98874   7.064   5.992  10.572 -0.6843  0.1878  0.3788
  717MOL0     C98875   7.175   5.907  10.545 -0.5262 -0.2666 -0.3095
  717MOL0     C98876   7.135   5.763  10.541 -0.6735  0.7355 -0.4231
  717MOL0     H98877   7.773   6.045  10.668  1.5832  1.8596 -0.0726
  717MOL0     H98878   7.999   6.009  10.569 -1.1540  2.1817 -1.2582
  717MOL0     H98879   8.097   5.657  10.316 -0.1787 -1.0810  1.3780
  717MOL0     H98880   8.090   5.672  10.491  1.4720 -1.5663  0.3572
  717MOL0     H98881   8.311   5.650  10.407 -1.5986 -0.3037  0.0664
  717MOL0     H98882   8.306   5.817  10.331  2.3213 -0.3017 -0.0618
  717MOL0     H98883   8.249   5.920  10.535 -3.5091 -0.5998  1.4797
  717MOL0     H98884   8.233   5.776  10.622 -1.2801 -1.4004 -2.3498
  717MOL0     H98885   8.458   5.865  10.673 -1.6639  0.3645 -0.3327
  717MOL0     H98886   8.489   5.728  10.554 -1.2272 -0.1829 -3.7292
  717MOL0     H98887   8.466   6.020  10.495  1.2504  0.6897 -0.8070
  717MOL0     H98888   8.510   5.910  10.380  0.1944  3.5564 -0.6433
  717MOL0     H98889   8.693   6.031  10.467 -0.9040  2.1986  2.3914
  717MOL0     H98890   8.662   5.981  10.633  2.6816 -0.0146 -0.2384
  717MOL0     H98891   8.701   5.737  10.560 -0.1477  0.6998 -0.4917
  717MOL0     H98892   8.854   5.821  10.546  0.9259 -1.1668 -0.4549
  717MOL0     H98893   8.663   5.792  10.305  0.2609  0.3758  0.9170
  717MOL0     H98894   8.803   5.885  10.313  1.2342  0.0745  1.1553
  717MOL0     H98895   8.750   5.528  10.464  3.4699  1.1942  3.2473
  717MOL0     H98896   8.869   5.291  10.440  1.1030  0.7089  0.5040
  717MOL0     H98897   9.000   5.278  10.320  1.8741  3.6217  0.7209
  717MOL0     H98898   8.703   5.271  10.269  0.4063 -0.7922  1.9714
  717MOL0     H98899   8.829   5.247  10.137  1.5632 -0.9951  0.0179
  717MOL0     H98900   8.901   5.043  10.292 -1.3990 -1.7062 -0.7770
  717MOL0     H98901   8.742   5.065  10.364 -0.9781  3.3320  0.3941
  717MOL0     H98902   8.635   5.040  10.137 -0.6297  0.0422  0.6927
  717MOL0     H98903   8.781   5.035  10.054 -1.8851 -1.3762 -1.5559
  717MOL0     H98904   8.682   4.906   9.936 -2.2406  1.3356  2.4209
  717MOL0     H98905   8.592   4.838   9.725 -0.0086 -0.9650  0.1506
  717MOL0     H98906   8.520   4.681   9.716 -0.0878  1.2872 -3.8327
  717MOL0     H98907   8.695   4.703   9.681  0.5122  1.1263 -0.3282
  717MOL0     H98908   8.582   4.092   9.999 -0.4584 -0.4643  0.2184
  717MOL0     H98909   8.482   3.891   9.917 -0.2845  3.0284  3.4702
  717MOL0     H98910   8.215   3.937   9.576 -1.0126 -1.7263 -2.3664
  717MOL0     H98911   8.349   3.836   9.527  0.7035 -1.1810  1.4650
  717MOL0     H98912   8.113   3.739   9.533 -1.8508  2.9016  1.6139
  717MOL0     H98913   8.225   3.637   9.635 -1.8260 -1.6478  2.5709
  717MOL0     H98914   8.131   3.712   9.834  1.9250  1.9002  0.0795
  717MOL0     H98915   8.002   3.678   9.709 -0.2953  0.4118 -1.7489
  717MOL0     H98916   7.966   3.926   9.669 -0.5921  1.2871  0.4387
  717MOL0     H98917   8.095   3.961   9.779  2.2267 -3.3674  2.0410
  717MOL0     H98918   7.808   3.846   9.836  0.1368  0.2381 -1.1041
  717MOL0     H98919   7.947   3.818   9.953  3.1243  0.7857  0.2779
  717MOL0     H98920   7.775   4.027   9.981  1.8399  1.2294  1.3995
  717MOL0     H98921   7.836   4.070   9.827 -2.1345  0.2509  1.2297
  717MOL0     H98922   7.938   4.224   9.962  1.3458  0.1759 -1.1532
  717MOL0     H98923   8.061   4.100   9.933  0.1579  1.3740  0.9245
  717MOL0     H98924   8.041   4.192  10.181 -1.5014  0.0426  2.0349
  717MOL0     H98925   8.030   4.015  10.163 -1.5185 -0.0110  2.3056
  717MOL0     H98926   8.355   4.098   9.567 -0.9745  0.0997  1.1016
  717MOL0     H98927   8.407   4.308   9.683 -2.0888 -1.7823 -2.4638
  717MOL0     H98928   8.711   4.437  10.082 -3.4713 -0.0284  0.8410
  717MOL0     H98929   8.768   4.631  10.240  1.9133 -1.3950 -0.0591
  717MOL0     H98930   7.855   5.702  10.330 -0.4741  0.2995 -0.2291
  717MOL0     H98931   7.623   5.753  10.369  0.1205 -2.4615  2.3584
  717MOL0     H98932   7.403   6.147  10.617  2.0491 -2.2396 -1.9984
  717MOL0     H98933   7.217   6.284  10.599  0.4225  0.0815 -2.9323
  717MOL0     H98934   7.046   6.386  10.535 -1.4959  1.7235 -1.0606
  717MOL0     H98935   6.876   6.363  10.497 -1.2237  0.6669  1.3362
  717MOL0     H98936   6.798   6.343  10.699 -0.2377 -0.8293 -0.0715
  717MOL0     H98937   6.902   6.499  10.672  0.9923  0.9908  1.6780
  717MOL0     H98938   6.963   6.256  10.832 -0.9986  0.1007 -1.0227
  717MOL0     H98939   7.093   6.377  10.794  0.3177  2.0809 -1.7482
  717MOL0     H98940   7.014   6.364  11.017  0.6613  1.0549 -0.8396
  717MOL0     H98941   6.849   6.404  10.984 -1.3370  3.1156 -3.2040
  717MOL0     H98942   7.033   6.782  10.978 -2.2590  1.1256 -0.9628
  717MOL0     H98943   6.965   5.948  10.579 -0.9671  0.2817 -2.1565
  717MOL0     H98944   7.159   5.727  10.441 -1.6987  0.0663 -0.4450
  717MOL0     H98945   7.190   5.708  10.619  1.7979 -0.0910 -2.6206
  717MOL0     H98946   7.025   5.763  10.540 -0.7066  0.7749  1.0949
  718MOL0     O98947   4.543   1.778   4.127 -0.4178 -0.7134  0.0581
  718MOL0     C98948   4.575   1.687   4.203 -0.1295 -0.1526  0.1552
  718MOL0     O98949   4.570   1.689   4.334 -0.1615 -0.4603  0.6323
  718MOL0     C98950   4.563   1.810   4.398 -0.1937  0.6819 -0.0963
  718MOL0     C98951   4.681   1.872   4.455  0.7551  0.4236 -0.0271
  718MOL0     C98952   4.664   1.998   4.526  0.2315 -0.3196  0.2077
  718MOL0     C98953   4.543   2.062   4.544  0.9299  0.3249 -0.6119
  718MOL0     O98954   4.526   2.190   4.595 -0.1057  0.3744 -0.7916
  718MOL0     C98955   4.637   2.280   4.599  0.4274  0.5502 -0.5829
  718MOL0     C98956   4.608   2.395   4.672 -0.0866  0.0445  0.2400
  718MOL0     C98957   4.728   2.487   4.667 -0.2807  0.0015 -0.3376
  718MOL0     C98958   4.686   2.623   4.729  0.5833 -0.2087  0.2341
  718MOL0     C98959   4.796   2.734   4.737 -0.4086 -0.3228  0.0603
  718MOL0     C98960   4.776   2.825   4.860 -0.4458 -0.2918  0.0626
  718MOL0     C98961   4.816   2.968   4.814 -0.0059  0.7749 -0.5488
  718MOL0     C98962   4.844   3.057   4.938 -0.6097 -0.2292  0.0477
  718MOL0     N98963   4.868   3.201   4.912 -0.4724 -0.4337  0.5904
  718MOL0     C98964   4.770   3.283   4.848  0.2674  0.6661 -0.1144
  718MOL0     C98965   4.836   3.394   4.828  0.0303 -0.3605  0.6907
  718MOL0     C98966   4.778   3.510   4.745 -0.4883  0.2915  0.6315
  718MOL0     C98967   4.808   3.642   4.801  0.6461 -0.0537 -0.6244
  718MOL0     C98968   4.751   3.748   4.703  0.6796  0.3173 -0.8874
  718MOL0     C98969   4.851   3.764   4.592 -0.6976 -0.7289  0.8906
  718MOL0     O98970   4.979   3.794   4.647  0.0267 -0.1602  0.1112
  718MOL0     C98971   5.011   3.925   4.690  0.0647 -0.1254  0.0114
  718MOL0     C98972   5.117   3.938   4.776  0.2316  0.4718 -0.0327
  718MOL0     C98973   5.157   4.060   4.836  0.5492 -0.0784  0.3450
  718MOL0     C98974   5.272   4.058   4.930  0.4520 -0.7453  0.0689
  718MOL0     C98975   5.066   4.170   4.823  0.1804 -0.6028 -0.5045
  718MOL0     C98976   5.091   4.307   4.884  0.4266  0.3266  0.2714
  718MOL0     O98977   4.978   4.390   4.883  0.7147 -1.7417  0.4443
  718MOL0     C98978   4.964   4.491   4.969  0.1450 -0.4320 -0.1265
  718MOL0     C98979   5.043   4.524   5.081 -0.6895 -0.3663  0.4782
  718MOL0     C98980   5.014   4.634   5.164 -0.3768 -0.1774 -0.1290
  718MOL0     C98981   4.900   4.712   5.136 -0.0644 -0.8682 -0.0687
  718MOL0     O98982   4.881   4.813   5.230 -0.0268  0.4847 -0.3575
  718MOL0     C98983   4.742   4.834   5.268 -0.0492 -0.2106 -0.2761
  718MOL0     C98984   4.732   4.890   5.417  0.2634  0.0944  0.1657
  718MOL0     C98985   4.697   5.040   5.432 -0.1642  0.3632 -0.2193
  718MOL0     C98986   4.581   5.073   5.536 -0.0414  0.3166 -0.4416
  718MOL0     C98987   4.451   5.011   5.494  0.0998 -0.2809  0.8716
  718MOL0     C98988   4.364   5.116   5.408  0.6834  0.2273 -1.1369
  718MOL0     C98989   4.215   5.078   5.374  0.5432 -0.7433 -0.2711
  718MOL0     C98990   4.143   5.179   5.286  0.1763  0.5102 -0.3297
  718MOL0    Cl98991   4.255   5.229   5.148  0.1630 -0.3254 -0.3378
  718MOL0     C98992   4.816   4.681   5.028 -0.0913  0.4669 -0.1721
  718MOL0     C98993   4.849   4.571   4.945  0.3650 -0.1114  0.5400
  718MOL0     O98994   5.207   4.342   4.915  0.8883 -0.1805 -0.4762
  718MOL0     C98995   4.960   4.160   4.743  0.4495 -0.4842 -0.1983
  718MOL0     C98996   4.935   4.036   4.675  0.3422 -0.2165  0.0904
  718MOL0     N98997   4.960   3.390   4.879 -0.4349  0.3411 -0.1865
  718MOL0     N98998   4.971   3.279   4.948 -0.2953 -0.4233  1.0902
  718MOL0     C98999   4.428   1.984   4.511 -0.3967 -0.3101 -0.1548
  718MOL0     C99000   4.436   1.867   4.428  0.0740 -0.6055 -1.0049
  718MOL0     C99001   4.616   1.558   4.143  0.2387 -1.1647 -0.8563
  718MOL0     C99002   4.613   1.447   4.221  0.5757  0.1601 -0.3192
  718MOL0     C99003   4.672   1.321   4.176 -0.3829 -0.9076 -0.0407
  718MOL0     C99004   4.719   1.312   4.050  0.6324  0.0743 -0.1179
  718MOL0     O99005   4.768   1.201   3.993  1.0734  0.5152 -0.0486
  718MOL0     C99006   4.805   1.098   4.085 -0.5695  0.3861 -0.1229
  718MOL0     C99007   4.869   0.978   4.009  0.0925 -0.2691 -0.4128
  718MOL0     C99008   4.760   0.900   3.925 -0.1160 -0.4895 -0.2977
  718MOL0     C99009   4.813   0.794   3.834  0.5762  0.1176 -0.0164
  718MOL0     C99010   4.879   0.839   3.708  0.8159  0.1359 -1.0488
  718MOL0     C99011   4.919   0.888   3.598  0.1773 -0.3193 -0.3817
  718MOL0     C99012   4.706   1.418   3.965  0.4543 -0.6149 -0.5496
  718MOL0     C99013   4.656   1.544   4.010 -0.1526 -0.5422 -0.1401
  718MOL0     C99014   4.631   1.650   3.903 -1.0917  0.2509 -0.6747
  718MOL0     H99015   4.782   1.836   4.438  1.1020  1.3121  0.0771
  718MOL0     H99016   4.760   2.044   4.549 -0.0858  1.4688 -1.7365
  718MOL0     H99017   4.655   2.307   4.494 -2.5038 -0.7412 -1.5152
  718MOL0     H99018   4.719   2.234   4.654 -0.3732  2.1968  2.1719
  718MOL0     H99019   4.521   2.441   4.624 -0.0620  2.2499  2.1082
  718MOL0     H99020   4.583   2.379   4.777 -2.1175 -0.5994 -0.3030
  718MOL0     H99021   4.818   2.450   4.717  0.2698  1.2239 -0.3682
  718MOL0     H99022   4.752   2.494   4.561  0.1670  2.5496 -0.1444
  718MOL0     H99023   4.601   2.669   4.677  2.6932  2.4318 -1.1552
  718MOL0     H99024   4.658   2.601   4.832  0.3211  0.3390  0.2831
  718MOL0     H99025   4.789   2.793   4.645  1.6851 -0.8804 -0.5070
  718MOL0     H99026   4.897   2.691   4.746  0.4507  1.9152  2.2018
  718MOL0     H99027   4.674   2.829   4.899 -1.8905 -3.8041 -2.7046
  718MOL0     H99028   4.848   2.782   4.929  0.6881  0.2933 -0.7244
  718MOL0     H99029   4.742   3.023   4.754 -0.1989  0.3873 -0.6687
  718MOL0     H99030   4.905   2.958   4.752  0.3943 -1.9759  0.3564
  718MOL0     H99031   4.753   3.055   4.999 -1.0140  1.9240 -0.3703
  718MOL0     H99032   4.921   3.024   5.008 -0.0962  2.2039  0.7371
  718MOL0     H99033   4.666   3.261   4.828  0.2062 -0.1765  1.0197
  718MOL0     H99034   4.675   3.495   4.713  0.9968 -1.9645 -4.0571
  718MOL0     H99035   4.850   3.500   4.663  0.9641  2.0703  1.6022
  718MOL0     H99036   4.751   3.642   4.894  0.9309  1.4850 -0.4283
  718MOL0     H99037   4.912   3.658   4.831  0.2542  0.9752  0.2588
  718MOL0     H99038   4.654   3.725   4.658 -0.1455 -1.0171  1.3957
  718MOL0     H99039   4.739   3.842   4.757 -1.3524  1.4360 -3.1126
  718MOL0     H99040   4.869   3.673   4.534  2.7930 -0.2290  0.9935
  718MOL0     H99041   4.825   3.840   4.517 -0.4529 -0.7078  0.8262
  718MOL0     H99042   5.187   3.858   4.796  0.3802  1.3192  3.4363
  718MOL0     H99043   5.315   3.958   4.940 -1.7253 -1.7669 -0.2499
  718MOL0     H99044   5.243   4.095   5.028 -0.7501 -0.7337 -0.2644
  718MOL0     H99045   5.356   4.122   4.902  1.6481 -2.4805 -0.4663
  718MOL0     H99046   5.130   4.462   5.102  1.4351  2.7649  1.5531
  718MOL0     H99047   5.082   4.660   5.245 -0.1097 -0.2095 -0.3392
  718MOL0     H99048   4.704   4.906   5.195  0.1179 -0.1381 -0.2918
  718MOL0     H99049   4.689   4.738   5.256  0.3798 -1.0555  3.4157
  718MOL0     H99050   4.663   4.817   5.460  0.2896  0.5305  0.9664
  718MOL0     H99051   4.828   4.875   5.467  0.3589  0.9181  0.2480
  718MOL0     H99052   4.662   5.089   5.340  0.0691  1.8885  0.4691
  718MOL0     H99053   4.778   5.108   5.460  0.6233 -0.5336 -0.2991
  718MOL0     H99054   4.586   5.181   5.553  3.2635  0.4090 -1.2487
  718MOL0     H99055   4.618   5.020   5.624  0.2488  2.3727  0.7401
  718MOL0     H99056   4.468   4.912   5.449 -0.7916 -1.5879  3.2307
  718MOL0     H99057   4.391   4.989   5.583 -0.1668 -1.5079  0.4171
  718MOL0     H99058   4.420   5.127   5.315  0.0754 -2.4765 -1.9131
  718MOL0     H99059   4.354   5.211   5.461  2.0696  1.2727 -2.6628
  718MOL0     H99060   4.161   5.075   5.469  0.8689  0.6505 -0.0158
  718MOL0     H99061   4.217   4.983   5.320  0.8926  0.7257 -3.0445
  718MOL0     H99062   4.110   5.265   5.345  0.6074  1.3029 -1.2220
  718MOL0     H99063   4.053   5.128   5.250  2.2972 -1.3884 -3.3854
  718MOL0     H99064   4.723   4.733   5.010  0.4406  0.7865 -2.1903
  718MOL0     H99065   4.794   4.530   4.861  3.2294 -2.2149 -0.4674
  718MOL0     H99066   4.900   4.246   4.715 -1.1082 -0.6384  2.3332
  718MOL0     H99067   4.851   4.029   4.607  0.1272  3.3904 -0.1952
  718MOL0     H99068   4.341   2.048   4.520  1.2238  1.8273  1.3923
  718MOL0     H99069   4.348   1.817   4.388 -1.8782  1.9147 -0.1449
  718MOL0     H99070   4.557   1.446   4.313  0.7145 -3.1446 -0.1481
  718MOL0     H99071   4.664   1.232   4.238 -3.8337 -0.6826  0.0500
  718MOL0     H99072   4.867   1.141   4.165 -0.0538  1.7840 -1.2269
  718MOL0     H99073   4.719   1.048   4.130  2.7421 -2.1840  4.1627
  718MOL0     H99074   4.910   0.908   4.082  0.2019  0.6189  0.3976
  718MOL0     H99075   4.947   1.010   3.940  0.5914  2.1123  1.1129
  718MOL0     H99076   4.683   0.861   3.992 -0.6676 -1.0422 -1.2298
  718MOL0     H99077   4.723   0.982   3.863  2.2458  1.1831  0.3441
  718MOL0     H99078   4.729   0.731   3.805 -0.0682  1.7977 -2.0780
  718MOL0     H99079   4.889   0.739   3.891  0.6552  0.1371 -0.1029
  718MOL0     H99080   4.970   0.933   3.515 -0.1302 -0.7960 -0.8378
  718MOL0     H99081   4.723   1.409   3.858  2.1805 -1.5807 -0.2286
  718MOL0     H99082   4.677   1.628   3.806  1.9712  3.5401 -0.1490
  718MOL0     H99083   4.526   1.681   3.894 -1.2425  0.7203  2.0144
  718MOL0     H99084   4.672   1.746   3.934  0.1787 -0.5563  0.2335
  719MOL0     O99085   5.900   5.163   1.923 -0.0398 -0.4622  0.2570
  719MOL0     C99086   6.010   5.196   1.877 -0.1282  0.2230 -0.2484
  719MOL0     O99087   6.075   5.136   1.770  0.6945 -0.5016 -0.2322
  719MOL0     C99088   6.006   5.021   1.720 -0.2715 -0.3176  0.2225
  719MOL0     C99089   5.955   5.024   1.588 -0.2597  0.1670  0.2322
  719MOL0     C99090   5.897   4.904   1.537  0.5951  0.0224  0.4408
  719MOL0     C99091   5.885   4.782   1.608 -0.1598  0.3474  0.4315
  719MOL0     O99092   5.818   4.666   1.553 -0.4626 -0.5924 -0.1070
  719MOL0     C99093   5.820   4.545   1.616 -0.0692 -0.4785  0.4977
  719MOL0     C99094   5.786   4.443   1.512 -0.5862  0.6312  0.4534
  719MOL0     C99095   5.902   4.415   1.422  0.0280 -0.8800  0.6034
  719MOL0     C99096   5.908   4.262   1.393  0.2166 -0.2918  0.9165
  719MOL0     C99097   6.031   4.211   1.318 -0.9339  0.4752 -0.1019
  719MOL0     C99098   6.062   4.290   1.195 -0.8421 -0.8653 -0.9943
  719MOL0     C99099   6.171   4.226   1.106 -0.8069 -0.5640 -0.1558
  719MOL0     C99100   6.315   4.260   1.143  0.2792 -0.6115  0.0901
  719MOL0     N99101   6.358   4.391   1.082 -0.4313 -0.0455  0.0660
  719MOL0     C99102   6.351   4.519   1.131 -0.0578  0.1992 -0.3057
  719MOL0     C99103   6.418   4.591   1.041  0.3721  0.2122  0.5316
  719MOL0     C99104   6.451   4.738   1.046  0.8383  0.4349  0.4319
  719MOL0     C99105   6.426   4.824   0.911  0.0165 -0.5112 -0.1971
  719MOL0     C99106   6.284   4.821   0.857  0.3241  0.2965 -0.7415
  719MOL0     C99107   6.291   4.889   0.725  0.5140 -0.4847  0.2228
  719MOL0     O99108   6.156   4.921   0.678  0.3983 -0.3717  0.4463
  719MOL0     C99109   6.078   4.823   0.616 -0.0766 -0.1616  1.0160
  719MOL0     C99110   6.120   4.693   0.578 -0.3195  0.2874  0.4625
  719MOL0     C99111   6.042   4.601   0.500 -0.5703 -0.6523 -0.0404
  719MOL0     C99112   6.093   4.461   0.481  0.2394  0.3285 -0.3486
  719MOL0     C99113   5.917   4.651   0.447 -0.8349  0.1802  0.8207
  719MOL0     C99114   5.823   4.568   0.360  0.1299  0.2874  0.5969
  719MOL0     O99115   5.876   4.463   0.279 -0.1248 -0.5362 -0.1898
  719MOL0     C99116   5.792   4.380   0.216 -0.4154 -0.5857 -0.1221
  719MOL0     C99117   5.723   4.279   0.277 -0.1735  1.4753 -0.9554
  719MOL0     C99118   5.638   4.184   0.219 -0.2413 -0.9226 -0.6686
  719MOL0     C99119   5.625   4.193   0.083  0.4078 -0.2158  0.1973
  719MOL0     O99120   5.549   4.096   0.023 -0.4520  0.0071  0.1901
  719MOL0     C99121   5.520   4.107  -0.117  0.1416 -0.7127  0.1562
  719MOL0     C99122   5.424   4.005  -0.171  0.5325  0.1953  0.3063
  719MOL0     C99123   5.300   3.980  -0.075  0.2231 -0.3404 -0.5635
  719MOL0     C99124   5.202   4.092  -0.074 -0.4225 -0.0370  0.1527
  719MOL0     C99125   5.103   4.065   0.041  0.7132  1.0278  0.1035
  719MOL0     C99126   5.039   3.922   0.059  0.0674  0.2867 -0.2755
  719MOL0     C99127   4.919   3.901   0.156  0.1722  0.2509 -0.3781
  719MOL0     C99128   4.843   3.771   0.145 -0.2349  0.0680 -0.8580
  719MOL0    Cl99129   4.955   3.631   0.152 -0.0178  0.2148  0.1050
  719MOL0     C99130   5.695   4.291   0.013 -0.7266 -0.3862  0.3506
  719MOL0     C99131   5.782   4.382   0.072 -0.1805 -0.5223 -1.9246
  719MOL0     O99132   5.705   4.607   0.353 -0.5218 -0.5773 -0.2070
  719MOL0     C99133   5.875   4.778   0.487  0.3433 -0.1597  0.1426
  719MOL0     C99134   5.949   4.865   0.572 -0.2522 -0.1788 -0.7025
  719MOL0     N99135   6.468   4.512   0.936  0.3363 -1.2536 -0.1845
  719MOL0     N99136   6.442   4.392   0.972 -0.6389  0.8399  0.7234
  719MOL0     C99137   5.939   4.783   1.743  0.8043  0.1735  0.2831
  719MOL0     C99138   5.998   4.903   1.796 -0.8623  0.0760 -0.0196
  719MOL0     C99139   6.072   5.324   1.930 -0.1260  0.2424 -0.2180
  719MOL0     C99140   6.205   5.337   1.895 -0.8668  0.1977 -0.3394
  719MOL0     C99141   6.277   5.458   1.930 -0.4975  0.1383  0.1253
  719MOL0     C99142   6.210   5.559   2.003  0.6162 -0.6045 -0.1549
  719MOL0     O99143   6.291   5.663   2.035  0.3789 -0.1584 -0.4034
  719MOL0     C99144   6.237   5.772   2.125 -0.2284  0.1231  0.2380
  719MOL0     C99145   6.358   5.847   2.193 -0.4593 -0.9662  0.1172
  719MOL0     C99146   6.438   5.921   2.083  0.5593 -0.3561  0.1665
  719MOL0     C99147   6.367   6.043   2.018  0.0253  0.0597  0.7041
  719MOL0     C99148   6.457   6.154   1.983 -0.5590 -0.0941  0.2718
  719MOL0     C99149   6.522   6.252   1.958  0.0990  0.4143  1.0478
  719MOL0     C99150   6.070   5.551   2.022  1.2116 -0.6092 -0.5888
  719MOL0     C99151   6.004   5.431   1.994  0.7336  0.3412  0.9977
  719MOL0     C99152   5.851   5.424   2.022  0.1354  0.8363 -0.4640
  719MOL0     H99153   5.952   5.118   1.534 -0.9614  0.4057  0.6713
  719MOL0     H99154   5.841   4.887   1.446  1.3369 -0.6864  0.1081
  719MOL0     H99155   5.741   4.550   1.691  0.3491  1.3817  0.8717
  719MOL0     H99156   5.917   4.524   1.664 -0.3576 -2.3557  0.3427
  719MOL0     H99157   5.752   4.357   1.570  1.2965 -1.4418 -1.3389
  719MOL0     H99158   5.704   4.479   1.449  1.3642 -1.5081 -3.6617
  719MOL0     H99159   5.886   4.486   1.341  1.9948  0.3537  1.2223
  719MOL0     H99160   5.999   4.446   1.461 -0.0524  1.1903 -0.6954
  719MOL0     H99161   5.881   4.189   1.470  1.1042  0.0211  1.5348
  719MOL0     H99162   5.826   4.257   1.320 -0.9332 -1.3285  2.2259
  719MOL0     H99163   6.025   4.104   1.296 -0.5839  0.7996 -1.9450
  719MOL0     H99164   6.115   4.218   1.389 -2.0667  1.0283  1.2275
  719MOL0     H99165   5.969   4.295   1.138 -2.1443 -3.2893  0.7246
  719MOL0     H99166   6.092   4.390   1.229 -0.8933 -0.9224 -0.7774
  719MOL0     H99167   6.162   4.270   1.006 -2.6377  2.5802  1.2196
  719MOL0     H99168   6.167   4.117   1.097  1.4399 -0.5656 -1.9704
  719MOL0     H99169   6.344   4.253   1.248  2.0506  1.9925 -0.1332
  719MOL0     H99170   6.371   4.180   1.093  0.9804 -0.1448  0.1127
  719MOL0     H99171   6.290   4.550   1.215  0.5949 -1.6916  0.9206
  719MOL0     H99172   6.556   4.748   1.074  0.2141  4.9364  2.0502
  719MOL0     H99173   6.398   4.776   1.134  0.6759  0.4173  0.3427
  719MOL0     H99174   6.460   4.928   0.923 -1.3127 -0.1157  0.3532
  719MOL0     H99175   6.484   4.779   0.830  1.0259 -0.3164  0.4053
  719MOL0     H99176   6.262   4.715   0.841  0.5290  0.4241 -1.9641
  719MOL0     H99177   6.211   4.860   0.928  0.8651 -1.3684  0.8211
  719MOL0     H99178   6.334   4.989   0.731 -0.9715  0.2403 -0.4554
  719MOL0     H99179   6.350   4.833   0.652  0.0358 -0.2306 -0.3754
  719MOL0     H99180   6.221   4.662   0.602 -0.7365 -1.2281  0.3462
  719MOL0     H99181   6.196   4.453   0.517 -0.2870 -0.4099  1.0647
  719MOL0     H99182   6.086   4.420   0.380  2.6724 -2.7752  0.5877
  719MOL0     H99183   6.038   4.390   0.544 -0.3880  1.8227  0.8460
  719MOL0     H99184   5.723   4.285   0.386 -0.5001 -0.4630 -0.8050
  719MOL0     H99185   5.578   4.108   0.268 -3.1465 -1.0465 -3.9849
  719MOL0     H99186   5.464   4.201  -0.119 -0.5337 -1.0883  0.9284
  719MOL0     H99187   5.616   4.102  -0.170 -0.0874 -0.8429 -0.2508
  719MOL0     H99188   5.385   4.049  -0.263  0.2654  1.0994  0.8391
  719MOL0     H99189   5.478   3.912  -0.193  1.2642  0.7751 -0.3966
  719MOL0     H99190   5.331   3.970   0.029  1.9694  0.5660 -0.9703
  719MOL0     H99191   5.254   3.886  -0.109  2.4899 -1.3209 -1.0832
  719MOL0     H99192   5.147   4.086  -0.168  2.0099 -1.3190 -1.2868
  719MOL0     H99193   5.242   4.194  -0.070 -0.0119 -0.2352  1.5500
  719MOL0     H99194   5.151   4.086   0.136 -1.7901  0.1156  1.6632
  719MOL0     H99195   5.011   4.125   0.033 -2.1749 -2.8520  1.1628
  719MOL0     H99196   5.117   3.848   0.080  0.1886  0.5800  0.3197
  719MOL0     H99197   5.005   3.909  -0.044  1.0130 -0.5357 -0.4941
  719MOL0     H99198   4.851   3.985   0.148 -1.3447 -0.8996  0.0146
  719MOL0     H99199   4.950   3.900   0.261 -1.7464 -1.6931  0.2496
  719MOL0     H99200   4.795   3.774   0.047  0.3488  2.1549 -1.1343
  719MOL0     H99201   4.766   3.779   0.222 -0.7396 -1.1760 -1.2162
  719MOL0     H99202   5.694   4.290  -0.096  0.0865  1.5743  0.2840
  719MOL0     H99203   5.838   4.459   0.019 -0.8206  2.3207  1.1446
  719MOL0     H99204   5.777   4.821   0.468  2.0990  3.7015 -1.0485
  719MOL0     H99205   5.913   4.964   0.597  0.8804  0.2443 -0.6681
  719MOL0     H99206   5.929   4.699   1.811 -1.9341 -1.9085 -2.4356
  719MOL0     H99207   6.041   4.905   1.896  1.1410  1.2942 -0.8370
  719MOL0     H99208   6.243   5.259   1.830  0.8546  1.0752 -0.4331
  719MOL0     H99209   6.382   5.470   1.907 -0.6702  1.8628  0.0930
  719MOL0     H99210   6.163   5.834   2.074  0.3757 -0.8895 -2.0399
  719MOL0     H99211   6.189   5.727   2.211 -2.8053  0.4324 -0.9553
  719MOL0     H99212   6.422   5.778   2.247  0.0739  0.1957  0.9927
  719MOL0     H99213   6.317   5.915   2.268 -0.7424 -0.5386 -0.4121
  719MOL0     H99214   6.538   5.950   2.116  1.6471 -2.9165 -0.6450
  719MOL0     H99215   6.451   5.841   2.009  0.8874 -1.6705  1.5915
  719MOL0     H99216   6.280   6.079   2.074 -1.9913 -2.0943 -0.8852
  719MOL0     H99217   6.327   6.017   1.920 -0.3419  1.6112  0.4070
  719MOL0     H99218   6.576   6.342   1.933  0.5312 -0.0696  0.1873
  719MOL0     H99219   6.016   5.634   2.067  4.1035  1.4578 -0.6289
  719MOL0     H99220   5.803   5.516   2.058 -0.6086  0.3584 -0.2202
  719MOL0     H99221   5.793   5.404   1.932 -1.7403 -0.2012  0.9013
  719MOL0     H99222   5.834   5.349   2.100  2.9910  3.0400  2.5828
  720MOL0     O99223   8.196   6.829   4.930 -0.2058 -1.2520 -0.3969
  720MOL0     C99224   8.123   6.847   4.835  0.4870 -0.7036 -0.3459
  720MOL0     O99225   8.147   6.947   4.746  0.1607 -0.1839  0.2672
  720MOL0     C99226   8.215   7.061   4.769 -0.3864  0.7630 -0.0981
  720MOL0     C99227   8.300   7.124   4.670 -0.1201  0.3106 -0.2860
  720MOL0     C99228   8.371   7.240   4.708 -0.3398  0.7061  0.3121
  720MOL0     C99229   8.344   7.311   4.828 -1.1836  0.9748 -0.3748
  720MOL0     O99230   8.417   7.422   4.872 -0.0563  0.4394  0.0098
  720MOL0     C99231   8.471   7.496   4.765  0.4177 -0.0876  0.6771
  720MOL0     C99232   8.536   7.611   4.816  0.3270  0.0075 -0.3025
  720MOL0     C99233   8.647   7.660   4.717  0.0775 -0.5952  1.4232
  720MOL0     C99234   8.692   7.796   4.771 -0.2503 -0.1544  0.2904
  720MOL0     C99235   8.751   7.879   4.660  0.3844 -0.0232  1.2704
  720MOL0     C99236   8.852   7.988   4.703 -0.1335 -0.6688 -0.2348
  720MOL0     C99237   8.906   8.063   4.585  0.6489 -0.7436 -0.1725
  720MOL0     C99238   9.005   8.168   4.636 -0.2924 -0.8634 -0.6289
  720MOL0     N99239   8.957   8.273   4.732 -0.3343 -0.2003  0.9507
  720MOL0     C99240   8.970   8.270   4.869  0.1339  0.1090 -0.2923
  720MOL0     C99241   8.877   8.362   4.918 -0.1330  0.2562 -0.7093
  720MOL0     C99242   8.860   8.396   5.061  0.1090 -0.0622 -0.5429
  720MOL0     C99243   8.730   8.472   5.095  0.0378 -0.2157  0.0975
  720MOL0     C99244   8.605   8.385   5.118  0.1090  0.5202  0.0996
  720MOL0     C99245   8.471   8.456   5.132 -0.1657 -1.4819  0.2341
  720MOL0     O99246   8.482   8.565   5.232 -0.0155 -0.3737 -0.4952
  720MOL0     C99247   8.497   8.529   5.364 -0.4345  0.1138  0.2552
  720MOL0     C99248   8.485   8.404   5.425 -0.1967  0.3102 -0.4740
  720MOL0     C99249   8.482   8.388   5.564 -0.2019 -0.1728 -0.1185
  720MOL0     C99250   8.480   8.248   5.609 -0.3835 -0.4872 -0.1357
  720MOL0     C99251   8.490   8.504   5.654 -0.0826  0.5140 -0.2965
  720MOL0     C99252   8.489   8.488   5.807 -0.3507 -0.6035  0.6543
  720MOL0     O99253   8.493   8.616   5.864 -0.0308 -0.0123 -0.6826
  720MOL0     C99254   8.466   8.602   6.000 -1.0694 -0.1206  1.3817
  720MOL0     C99255   8.569   8.613   6.100  0.2381 -0.3249  0.4149
  720MOL0     C99256   8.544   8.588   6.234 -0.7930  0.3468  0.7722
  720MOL0     C99257   8.422   8.575   6.281  0.6018  0.3032  0.4035
  720MOL0     O99258   8.403   8.586   6.411 -0.3379  0.3355 -0.5064
  720MOL0     C99259   8.350   8.711   6.475 -0.0934  1.1654 -0.3420
  720MOL0     C99260   8.423   8.743   6.607 -0.3547 -0.9199  0.0766
  720MOL0     C99261   8.572   8.762   6.567 -0.2892  0.1584 -0.4334
  720MOL0     C99262   8.612   8.909   6.527  0.6149 -0.3400  0.5704
  720MOL0     C99263   8.725   8.909   6.423  0.7859 -0.6454  0.2260
  720MOL0     C99264   8.766   9.043   6.395 -0.2850 -0.3836  0.6935
  720MOL0     C99265   8.647   9.120   6.328 -0.1753  0.3060  0.2767
  720MOL0     C99266   8.699   9.259   6.275  0.4846 -0.3604 -0.7813
  720MOL0    Cl99267   8.843   9.248   6.178  0.3339  0.9181  0.2375
  720MOL0     C99268   8.314   8.579   6.193 -0.7914  0.8139 -0.2034
  720MOL0     C99269   8.336   8.573   6.051  0.1085 -0.6077 -0.5108
  720MOL0     O99270   8.488   8.381   5.863 -0.0214  0.5078  0.8628
  720MOL0     C99271   8.496   8.625   5.596 -0.4330 -0.7083  0.5174
  720MOL0     C99272   8.504   8.638   5.456 -0.7073  0.1846 -0.4055
  720MOL0     N99273   8.816   8.408   4.803  0.1391  0.1893 -0.0842
  720MOL0     N99274   8.853   8.353   4.691  0.1134  0.2210 -0.2125
  720MOL0     C99275   8.262   7.250   4.915  0.3649  0.0755  0.2489
  720MOL0     C99276   8.203   7.121   4.894  0.6260 -0.1350 -0.3916
  720MOL0     C99277   8.014   6.749   4.799 -0.2110 -0.2163 -0.0890
  720MOL0     C99278   7.947   6.769   4.682 -0.1639  0.6401  0.7002
  720MOL0     C99279   7.843   6.689   4.631  0.4940  0.5792 -0.5399
  720MOL0     C99280   7.808   6.584   4.718 -0.4778 -0.5674 -0.1288
  720MOL0     O99281   7.699   6.510   4.685  0.4562  0.0732  0.1190
  720MOL0     C99282   7.568   6.570   4.703  0.5702 -0.1151  0.3993
  720MOL0     C99283   7.551   6.659   4.825 -0.1652 -0.0460  1.3601
  720MOL0     C99284   7.536   6.578   4.956 -0.9192 -0.0859 -0.1740
  720MOL0     C99285   7.500   6.658   5.082 -0.6565  0.5884  0.9666
  720MOL0     C99286   7.605   6.743   5.139  0.3532  0.3249 -0.4553
  720MOL0     C99287   7.713   6.787   5.175  0.1361 -0.8324  0.0670
  720MOL0     C99288   7.874   6.562   4.830 -0.5964  0.9893 -0.3157
  720MOL0     C99289   7.971   6.643   4.879  0.0041 -0.1226 -0.6051
  720MOL0     C99290   8.043   6.606   5.003 -0.3557 -0.1620  0.6370
  720MOL0     H99291   8.313   7.074   4.575 -0.9903 -1.4377  0.4721
  720MOL0     H99292   8.442   7.267   4.631  0.0070 -2.3055 -0.5440
  720MOL0     H99293   8.396   7.512   4.687 -0.5822  0.2239  1.6815
  720MOL0     H99294   8.546   7.430   4.722 -0.8477 -2.0270  1.3250
  720MOL0     H99295   8.452   7.681   4.824 -2.2951 -2.9106 -0.5327
  720MOL0     H99296   8.576   7.591   4.916 -0.7830  0.5897  0.2740
  720MOL0     H99297   8.739   7.602   4.713 -1.4418 -3.1072  0.4012
  720MOL0     H99298   8.602   7.658   4.617 -0.0201  0.2794  1.4387
  720MOL0     H99299   8.610   7.853   4.814 -0.0587  0.4695 -0.1554
  720MOL0     H99300   8.760   7.783   4.855 -1.0669  0.4256  1.0545
  720MOL0     H99301   8.671   7.938   4.616  0.9993 -1.7209 -2.5164
  720MOL0     H99302   8.788   7.812   4.581 -0.5374 -1.6582  2.1758
  720MOL0     H99303   8.802   8.055   4.773  0.0063 -1.1034  0.2932
  720MOL0     H99304   8.936   7.947   4.760 -0.4879  1.9369  2.3726
  720MOL0     H99305   8.828   8.102   4.518 -0.4290 -1.2994  0.7310
  720MOL0     H99306   8.960   7.990   4.524 -0.2556 -0.4534 -1.3766
  720MOL0     H99307   9.094   8.125   4.683  2.2339  3.2161 -1.2175
  720MOL0     H99308   9.037   8.230   4.552  0.5506  1.6463  1.4210
  720MOL0     H99309   9.050   8.219   4.921  0.6499 -2.0108 -2.9755
  720MOL0     H99310   8.950   8.447   5.094 -0.5425  2.1448 -1.9298
  720MOL0     H99311   8.853   8.300   5.113  1.6961  0.2206  0.2418
  720MOL0     H99312   8.753   8.536   5.181  4.8140 -0.8843 -0.4066
  720MOL0     H99313   8.708   8.536   5.010  1.6051 -1.2191 -1.1125
  720MOL0     H99314   8.591   8.314   5.035 -0.9570 -3.3926  3.3268
  720MOL0     H99315   8.628   8.329   5.209 -0.6498 -0.8021 -0.4927
  720MOL0     H99316   8.428   8.513   5.049 -0.5894  0.4642  1.7242
  720MOL0     H99317   8.395   8.382   5.157 -2.1860  0.0584 -1.0393
  720MOL0     H99318   8.465   8.319   5.360 -1.1332  0.2482 -0.1133
  720MOL0     H99319   8.560   8.229   5.681  0.6612  0.7873 -0.9073
  720MOL0     H99320   8.503   8.185   5.523 -1.6309  1.2814 -1.8439
  720MOL0     H99321   8.381   8.229   5.651 -0.5500  0.1176 -0.2567
  720MOL0     H99322   8.670   8.626   6.061 -0.0021  1.9844  0.4786
  720MOL0     H99323   8.627   8.597   6.303 -0.0881 -0.5293  0.0584
  720MOL0     H99324   8.350   8.794   6.404  0.2165  0.0363 -1.7100
  720MOL0     H99325   8.243   8.696   6.491 -0.5808 -2.1696 -4.8227
  720MOL0     H99326   8.373   8.821   6.666  0.5299  1.4084 -2.0449
  720MOL0     H99327   8.416   8.647   6.658  2.8064 -1.1416  0.2400
  720MOL0     H99328   8.612   8.683   6.503 -1.9677  0.0205 -1.3658
  720MOL0     H99329   8.635   8.741   6.653 -1.6286  2.1375  1.1094
  720MOL0     H99330   8.624   8.973   6.615 -0.3509 -2.5260  2.3883
  720MOL0     H99331   8.519   8.947   6.485 -0.8413 -0.9488  3.0407
  720MOL0     H99332   8.811   8.853   6.460  1.4119 -1.2678 -1.9931
  720MOL0     H99333   8.695   8.862   6.329  0.9603 -0.2275 -0.0439
  720MOL0     H99334   8.858   9.042   6.336 -0.1696 -0.6936  0.8819
  720MOL0     H99335   8.774   9.104   6.485  2.8434  2.6810 -1.3680
  720MOL0     H99336   8.578   9.135   6.412 -0.6839 -5.4643  1.2889
  720MOL0     H99337   8.613   9.059   6.244  2.1325 -1.7453  0.7010
  720MOL0     H99338   8.723   9.323   6.359  1.4718 -0.7156 -0.7832
  720MOL0     H99339   8.627   9.318   6.218 -0.6926 -0.4973  0.5155
  720MOL0     H99340   8.216   8.565   6.239  0.5511 -5.2940  1.8214
  720MOL0     H99341   8.263   8.567   5.971 -0.2541 -1.2629 -0.1359
  720MOL0     H99342   8.506   8.713   5.658 -3.9745  0.6368 -0.5567
  720MOL0     H99343   8.497   8.734   5.406  0.3619  0.7917  0.5569
  720MOL0     H99344   8.238   7.297   5.010  0.6455 -0.7444  0.7371
  720MOL0     H99345   8.132   7.079   4.965 -1.3750  2.3585 -0.7526
  720MOL0     H99346   7.952   6.865   4.630 -1.0892  0.0822 -0.4666
  720MOL0     H99347   7.784   6.704   4.541 -1.0980 -2.0144 -0.0325
  720MOL0     H99348   7.534   6.615   4.610  2.3586 -1.4379 -0.9668
  720MOL0     H99349   7.507   6.480   4.717  1.7464 -0.7566  1.6856
  720MOL0     H99350   7.463   6.721   4.803 -0.1784  2.9395  7.6560
  720MOL0     H99351   7.630   6.733   4.830 -0.6814  0.6137  0.1358
  720MOL0     H99352   7.459   6.501   4.953  0.3718 -1.6206  2.4594
  720MOL0     H99353   7.634   6.532   4.966 -1.8918 -1.9196  1.6139
  720MOL0     H99354   7.477   6.590   5.165 -0.6484  0.3553  0.7803
  720MOL0     H99355   7.414   6.720   5.058 -0.4054  0.8110  0.6335
  720MOL0     H99356   7.803   6.825   5.218 -0.0006  0.5607 -0.8368
  720MOL0     H99357   7.839   6.487   4.900 -1.2676 -0.2287 -1.8780
  720MOL0     H99358   8.145   6.575   4.980 -0.0595  1.0404  0.2595
  720MOL0     H99359   8.061   6.693   5.066 -0.1002 -0.1060  0.4876
  720MOL0     H99360   7.989   6.531   5.061 -0.2593  2.3122  4.2214
  721MOL0     O99361  11.319   3.155   9.721  0.7422  0.3992 -0.0202
  721MOL0     C99362  11.249   3.173   9.815 -0.6853 -0.4059 -0.4107
  721MOL0     O99363  11.280   3.127   9.951 -0.3426 -0.1905 -0.6959
  721MOL0     C99364  11.398   3.067   9.978 -0.2985  0.4222  0.0048
  721MOL0     C99365  11.434   2.945   9.913  1.0703 -0.0320  0.0680
  721MOL0     C99366  11.554   2.877   9.943  0.2853 -0.3163 -0.2472
  721MOL0     C99367  11.640   2.933  10.035 -0.7785 -0.3591 -0.4270
  721MOL0     O99368  11.763   2.869  10.060 -0.5416  0.2471  0.2171
  721MOL0     C99369  11.848   2.851   9.942  0.3034  0.5256 -0.2298
  721MOL0     C99370  11.986   2.862   9.997 -0.7995  0.2272  0.0962
  721MOL0     C99371  12.108   2.810   9.913  0.5906 -0.7006 -0.3411
  721MOL0     C99372  12.124   2.664   9.948 -0.7243 -0.5959  0.6955
  721MOL0     C99373  12.249   2.601   9.900  0.7011  0.7019 -0.2718
  721MOL0     C99374  12.365   2.604  10.002 -0.2489 -0.1825  0.4095
  721MOL0     C99375  12.497   2.621   9.920 -0.0186  0.5415 -0.3234
  721MOL0     C99376  12.498   2.759   9.844  0.4219 -0.0996 -0.3257
  721MOL0     N99377  12.637   2.788   9.806  0.8042 -0.3765  0.7609
  721MOL0     C99378  12.741   2.847   9.875 -1.0179  0.5147 -0.3750
  721MOL0     C99379  12.846   2.867   9.782  0.5144 -0.3323  0.5352
  721MOL0     C99380  12.974   2.938   9.815  0.2572  0.9594 -0.5435
  721MOL0     C99381  12.960   3.084   9.750  0.0841 -0.8193 -0.8437
  721MOL0     C99382  13.074   3.179   9.789  0.2038 -1.2113 -0.2876
  721MOL0     C99383  13.211   3.109   9.758 -0.4087 -0.5948  0.3564
  721MOL0     O99384  13.316   3.208   9.755  0.4913 -0.6920 -0.6634
  721MOL0     C99385  13.354   3.268   9.878 -0.9067  1.1564  0.7933
  721MOL0     C99386  13.453   3.366   9.880 -0.5741  0.4556  0.2947
  721MOL0     C99387  13.522   3.406   9.996 -0.4427 -0.2726 -0.1249
  721MOL0     C99388  13.628   3.518   9.985  0.2539 -0.6522 -0.1964
  721MOL0     C99389  13.490   3.342  10.116 -1.0291 -1.0542 -0.0920
  721MOL0     C99390  13.561   3.355  10.235  0.3425  0.1116  1.0128
  721MOL0     O99391  13.573   3.251  10.316 -0.8600 -0.2700 -0.6224
  721MOL0     C99392  13.628   3.263  10.439 -0.0284  0.0808  0.0197
  721MOL0     C99393  13.728   3.169  10.459  1.1035  0.7775 -0.0543
  721MOL0     C99394  13.796   3.162  10.586  1.6117  0.0177  0.3635
  721MOL0     C99395  13.751   3.245  10.696  0.5419  0.0773 -0.1712
  721MOL0     O99396  13.809   3.241  10.820 -0.3395 -0.2862  0.1475
  721MOL0     C99397  13.937   3.189  10.829 -0.0684  0.5868 -0.2233
  721MOL0     C99398  14.019   3.261  10.941 -0.1759 -0.7215  0.6447
  721MOL0     C99399  14.162   3.200  10.948  1.0140 -0.3813  0.3893
  721MOL0     C99400  14.252   3.275  11.043  0.1510 -0.2110 -0.1912
  721MOL0     C99401  14.395   3.240  11.013 -0.0537  0.8310  0.0648
  721MOL0     C99402  14.445   3.105  11.060 -0.8555  0.0988 -0.3969
  721MOL0     C99403  14.579   3.067  10.991  0.9617  1.0692  0.0173
  721MOL0     C99404  14.691   3.156  11.034  0.3648  0.0856  0.6483
  721MOL0    Cl99405  14.848   3.117  10.944 -0.5228 -0.0243  0.0305
  721MOL0     C99406  13.650   3.341  10.669 -0.4828  0.2968  0.2401
  721MOL0     C99407  13.579   3.347  10.543 -0.7890  0.3304 -0.3651
  721MOL0     O99408  13.574   3.475  10.276  0.1157 -0.2452  0.0361
  721MOL0     C99409  13.385   3.250  10.121 -0.1274 -0.3248  0.7229
  721MOL0     C99410  13.323   3.208  10.002  0.0420 -0.5390 -1.7377
  721MOL0     N99411  12.801   2.820   9.661 -0.7227 -0.4738  0.0071
  721MOL0     N99412  12.675   2.772   9.671  0.0375  0.2995  0.8800
  721MOL0     C99413  11.607   3.041  10.107  0.1385 -0.4731  0.1534
  721MOL0     C99414  11.485   3.108  10.085 -0.0858  0.7517  0.8400
  721MOL0     C99415  11.123   3.242   9.797  1.1668  0.0099 -0.6986
  721MOL0     C99416  11.029   3.244   9.903 -1.0927  0.7667 -0.0973
  721MOL0     C99417  10.909   3.315   9.897  0.0993  0.1745 -0.4318
  721MOL0     C99418  10.881   3.390   9.786  0.8237 -0.9107 -0.3896
  721MOL0     O99419  10.768   3.472   9.792  0.3534  0.5673 -0.7455
  721MOL0     C99420  10.741   3.570   9.690 -0.7216  0.0274  0.2336
  721MOL0     C99421  10.593   3.587   9.683  1.2350  0.2460  0.9832
  721MOL0     C99422  10.528   3.723   9.742  0.1386 -0.3215  0.0390
  721MOL0     C99423  10.376   3.742   9.688 -1.0217 -0.2553  0.1993
  721MOL0     C99424  10.326   3.856   9.765 -0.2656 -0.3992 -0.0277
  721MOL0     C99425  10.298   3.948   9.839  0.0054  0.5253  0.2719
  721MOL0     C99426  10.958   3.369   9.668  0.4737 -0.3410  0.3198
  721MOL0     C99427  11.082   3.299   9.668  0.2607  0.2573  0.8001
  721MOL0     C99428  11.142   3.288   9.525  0.0939  0.9242 -0.2695
  721MOL0     H99429  11.384   2.906   9.826  1.9805 -2.6969  0.6396
  721MOL0     H99430  11.580   2.795   9.877  3.6497 -0.6806  1.3276
  721MOL0     H99431  11.818   2.923   9.865  0.3249 -0.0726 -0.8110
  721MOL0     H99432  11.822   2.751   9.907 -0.7295  0.1728  1.4210
  721MOL0     H99433  12.008   2.968  10.012 -2.4725  0.5693  0.3952
  721MOL0     H99434  11.984   2.821  10.099 -3.4470  0.6672  0.2950
  721MOL0     H99435  12.106   2.834   9.806  2.6268 -2.1740 -0.7712
  721MOL0     H99436  12.190   2.862   9.965  0.1183  0.3506 -0.6216
  721MOL0     H99437  12.118   2.650  10.057 -1.3407  0.0312  0.7414
  721MOL0     H99438  12.036   2.620   9.901 -2.1313  2.0333  0.7208
  721MOL0     H99439  12.268   2.643   9.801  1.8677  1.3756  0.2138
  721MOL0     H99440  12.227   2.494   9.896  0.2920  0.7879 -0.3224
  721MOL0     H99441  12.353   2.682  10.077  0.1289 -1.2795  1.6422
  721MOL0     H99442  12.357   2.510  10.057 -3.6793  0.0641  0.5213
  721MOL0     H99443  12.514   2.550   9.838  1.0641  0.6826 -0.2415
  721MOL0     H99444  12.583   2.605   9.986  0.5173 -3.1474 -1.6443
  721MOL0     H99445  12.424   2.755   9.764 -1.3313  0.5421  1.1786
  721MOL0     H99446  12.462   2.836   9.914 -2.8474  0.2772 -2.2380
  721MOL0     H99447  12.748   2.868   9.981  2.8633 -1.8156  0.0057
  721MOL0     H99448  13.063   2.883   9.783 -0.6664 -1.8770  1.4051
  721MOL0     H99449  12.976   2.936   9.924  0.2924 -1.2519 -0.5467
  721MOL0     H99450  12.956   3.078   9.641  0.0750  1.6403 -1.0344
  721MOL0     H99451  12.870   3.130   9.790 -0.9034 -1.6943 -1.9973
  721MOL0     H99452  13.065   3.266   9.724  1.6416 -1.4355 -0.8333
  721MOL0     H99453  13.070   3.202   9.896 -1.8258 -2.6683  0.0054
  721MOL0     H99454  13.250   3.026   9.818 -0.3780 -0.0897  1.0471
  721MOL0     H99455  13.202   3.065   9.658  1.8046  2.2325 -1.2769
  721MOL0     H99456  13.485   3.399   9.782  3.5409 -2.5386  0.3731
  721MOL0     H99457  13.584   3.611  10.022 -0.4148 -2.5892  4.6771
  721MOL0     H99458  13.665   3.533   9.883  0.5150 -0.3246 -0.0563
  721MOL0     H99459  13.719   3.505  10.044  1.2821  0.6161 -1.4252
  721MOL0     H99460  13.775   3.107  10.383  0.0104  0.8220 -0.7773
  721MOL0     H99461  13.885   3.100  10.585  1.9442  0.4626 -1.5828
  721MOL0     H99462  13.928   3.083  10.857 -1.8359  0.3444 -1.4824
  721MOL0     H99463  13.995   3.194  10.737 -2.0640 -0.7626 -1.6374
  721MOL0     H99464  14.030   3.364  10.905  1.0082 -0.6558  1.1291
  721MOL0     H99465  13.970   3.250  11.039 -0.7307 -2.7663  0.1780
  721MOL0     H99466  14.192   3.196  10.843 -0.0929  0.7346 -0.0024
  721MOL0     H99467  14.152   3.096  10.981 -1.2285 -1.0190 -1.9396
  721MOL0     H99468  14.231   3.245  11.146  1.5950  1.2341  0.5639
  721MOL0     H99469  14.240   3.383  11.031  1.1577 -0.3208 -2.8648
  721MOL0     H99470  14.403   3.255  10.905 -0.6209  1.8185  0.1518
  721MOL0     H99471  14.448   3.325  11.056 -3.0097  2.1631  1.3694
  721MOL0     H99472  14.373   3.026  11.036 -3.8384  2.3375  0.5885
  721MOL0     H99473  14.461   3.095  11.168  0.3361 -1.7362 -0.6919
  721MOL0     H99474  14.572   3.071  10.882 -0.0271 -0.1835  0.0091
  721MOL0     H99475  14.603   2.962  11.010 -1.3956  0.6005  0.7786
  721MOL0     H99476  14.706   3.159  11.142  0.6993  1.6388  0.5857
  721MOL0     H99477  14.675   3.259  11.000 -0.6245  0.2962  1.7269
  721MOL0     H99478  13.605   3.407  10.742 -2.8711 -1.1816  0.2007
  721MOL0     H99479  13.488   3.405  10.533 -1.6962 -0.2203  3.2049
  721MOL0     H99480  13.356   3.191  10.207 -5.9400 -2.7698 -2.4166
  721MOL0     H99481  13.273   3.112  10.013  0.4805 -0.6849 -0.9397
  721MOL0     H99482  11.660   3.085  10.191 -1.2536  1.2096  0.1894
  721MOL0     H99483  11.438   3.191  10.136 -0.9104  1.5484 -1.1569
  721MOL0     H99484  11.035   3.187   9.995 -3.1224  2.2499  1.0414
  721MOL0     H99485  10.840   3.312   9.980 -0.3434  0.4065 -0.7906
  721MOL0     H99486  10.795   3.661   9.718 -0.9006  0.9487 -2.2004
  721MOL0     H99487  10.756   3.541   9.586 -1.4269 -0.7923  0.3444
  721MOL0     H99488  10.540   3.504   9.730 -1.2018  1.5917  0.7869
  721MOL0     H99489  10.565   3.583   9.578  1.0165 -3.1320  1.0799
  721MOL0     H99490  10.520   3.701   9.849  0.0625 -0.1220  0.0735
  721MOL0     H99491  10.588   3.814   9.728  0.3717 -0.4643  0.0972
  721MOL0     H99492  10.314   3.658   9.720 -0.6083 -0.7163 -0.1856
  721MOL0     H99493  10.371   3.765   9.581 -0.9947  4.2146  0.9592
  721MOL0     H99494  10.288   4.036   9.899 -1.2706  0.6001 -0.0218
  721MOL0     H99495  10.922   3.397   9.570  0.3615 -4.1158 -0.8641
  721MOL0     H99496  11.097   3.203   9.473  1.5570 -0.7836  1.1299
  721MOL0     H99497  11.127   3.383   9.473 -3.2195 -0.9082 -3.0846
  721MOL0     H99498  11.250   3.267   9.527 -0.2203 -0.9489 -1.1482
  722MOL0     O99499   7.456   9.815   1.632 -0.0909 -0.3630  0.2711
  722MOL0     C99500   7.537   9.850   1.545  0.3293 -0.2177  0.6044
  722MOL0     O99501   7.545   9.797   1.420 -0.3284  0.1815 -0.0049
  722MOL0     C99502   7.435   9.716   1.370 -0.6549 -0.6360 -0.3042
  722MOL0     C99503   7.302   9.711   1.406  0.6469  0.0994  0.2170
  722MOL0     C99504   7.204   9.635   1.334  0.3620  0.3972  0.5422
  722MOL0     C99505   7.241   9.579   1.208 -0.5206  0.2899 -0.1308
  722MOL0     O99506   7.148   9.513   1.131  0.4743 -0.2677 -0.1732
  722MOL0     C99507   7.206   9.430   1.016  0.7562  0.7196 -0.3723
  722MOL0     C99508   7.088   9.332   0.977  0.0931 -0.1968 -0.0252
  722MOL0     C99509   6.995   9.388   0.872 -0.5018 -0.7637  0.4435
  722MOL0     C99510   6.925   9.516   0.904  0.5809 -0.5710  0.2805
  722MOL0     C99511   6.845   9.571   0.774  0.1996  0.0823  0.2725
  722MOL0     C99512   6.715   9.496   0.784  0.3171 -0.5004 -0.3709
  722MOL0     C99513   6.619   9.516   0.668 -0.5593 -0.7816 -0.4455
  722MOL0     C99514   6.493   9.447   0.706  0.8688 -0.0922  0.2190
  722MOL0     N99515   6.395   9.475   0.597 -0.8624 -0.1338 -0.4687
  722MOL0     C99516   6.402   9.419   0.484 -0.8809  0.3406  0.5100
  722MOL0     C99517   6.309   9.473   0.403  0.8181  0.7339  0.1056
  722MOL0     C99518   6.284   9.433   0.258  0.0675 -0.4454  0.5696
  722MOL0     C99519   6.338   9.542   0.165  0.8356 -0.3716  0.1931
  722MOL0     C99520   6.308   9.540   0.018  0.1703  0.4210  0.4553
  722MOL0     C99521   6.382   9.430  -0.054 -0.0401 -0.5035  0.5946
  722MOL0     O99522   6.523   9.447  -0.038 -0.3163 -0.2256  0.4402
  722MOL0     C99523   6.606   9.354  -0.093  0.1645 -0.3067  0.6400
  722MOL0     C99524   6.565   9.232  -0.154 -0.0711 -0.0052 -0.0047
  722MOL0     C99525   6.659   9.151  -0.222 -1.2248  0.1663 -0.3698
  722MOL0     C99526   6.606   9.020  -0.282 -1.0449  0.3900 -0.6013
  722MOL0     C99527   6.799   9.186  -0.230 -1.0963 -0.0952 -0.6447
  722MOL0     C99528   6.908   9.106  -0.294 -0.5855  0.2452 -0.1381
  722MOL0     O99529   7.027   9.167  -0.305  0.2502  0.2896  0.3303
  722MOL0     C99530   7.126   9.095  -0.369 -0.3129 -0.2073 -0.7813
  722MOL0     C99531   7.157   9.106  -0.507 -0.6835 -1.0451 -0.7837
  722MOL0     C99532   7.255   9.028  -0.572 -0.1260  0.1449  0.0793
  722MOL0     C99533   7.312   8.925  -0.496  0.5803  0.0935 -0.0024
  722MOL0     O99534   7.404   8.854  -0.567  0.4934  0.1973  0.8014
  722MOL0     C99535   7.448   8.727  -0.511 -0.1003 -0.0981 -0.3146
  722MOL0     C99536   7.575   8.759  -0.427  0.9268  0.0502 -0.3286
  722MOL0     C99537   7.692   8.792  -0.520  0.0362  0.3353 -1.4070
  722MOL0     C99538   7.773   8.669  -0.569 -0.2173  0.3278 -0.8195
  722MOL0     C99539   7.907   8.718  -0.621 -0.0248 -0.3272  0.3894
  722MOL0     C99540   8.003   8.604  -0.639 -0.0675 -0.6857 -0.3112
  722MOL0     C99541   8.137   8.655  -0.673 -0.2956 -0.2975  0.3508
  722MOL0     C99542   8.228   8.544  -0.734  0.4378 -0.5996 -0.6919
  722MOL0    Cl99543   8.366   8.623  -0.813 -0.0054  0.2947 -0.0529
  722MOL0     C99544   7.287   8.910  -0.362  0.4538  0.3115  0.2896
  722MOL0     C99545   7.187   8.994  -0.307 -0.4191 -0.3635 -0.4629
  722MOL0     O99546   6.875   8.997  -0.336 -0.5997 -0.2563  0.4101
  722MOL0     C99547   6.838   9.299  -0.153  0.4782  0.3812  0.0983
  722MOL0     C99548   6.739   9.377  -0.099 -0.6668 -1.0633  0.1073
  722MOL0     N99549   6.230   9.552   0.479  1.3565  0.0456 -0.4472
  722MOL0     N99550   6.289   9.560   0.597  0.6223  0.6120 -0.1392
  722MOL0     C99551   7.379   9.584   1.177  0.1096  0.3865 -0.9263
  722MOL0     C99552   7.474   9.647   1.253  0.1153 -0.4079  0.6407
  722MOL0     C99553   7.643   9.933   1.593 -0.3762  0.1688 -0.5181
  722MOL0     C99554   7.618  10.065   1.611 -0.1931  0.0090 -1.2027
  722MOL0     C99555   7.719  10.154   1.661 -0.8515  0.0783  1.0533
  722MOL0     C99556   7.839  10.106   1.705  1.1444 -0.8350 -0.1215
  722MOL0     O99557   7.953  10.185   1.728 -0.1595  0.3646  0.1778
  722MOL0     C99558   8.056  10.139   1.817  0.1376  0.2438 -0.1000
  722MOL0     C99559   8.107  10.265   1.910 -0.5372 -0.0139  0.2489
  722MOL0     C99560   7.992  10.350   1.972  0.6419 -0.6083  0.0415
  722MOL0     C99561   7.982  10.483   1.908  0.4218  0.1566 -0.3470
  722MOL0     C99562   7.852  10.543   1.924 -0.1156 -0.5347 -0.9325
  722MOL0     C99563   7.752  10.597   1.959  0.0011 -0.0100 -0.0960
  722MOL0     C99564   7.858   9.967   1.701  0.3019 -0.5931  0.4592
  722MOL0     C99565   7.765   9.879   1.645 -0.2929 -0.2050  1.0536
  722MOL0     C99566   7.784   9.731   1.644  0.5786 -0.6105  0.3048
  722MOL0     H99567   7.270   9.763   1.496  2.1748  0.6576  0.4608
  722MOL0     H99568   7.100   9.618   1.357  0.1299 -0.1185 -0.8146
  722MOL0     H99569   7.287   9.363   1.048 -1.7300 -2.5854 -0.5051
  722MOL0     H99570   7.226   9.491   0.927  0.2457 -0.0663 -1.0356
  722MOL0     H99571   7.128   9.235   0.947  0.3133 -0.8600  2.2716
  722MOL0     H99572   7.029   9.306   1.066  0.8755 -1.8897  0.0343
  722MOL0     H99573   7.053   9.403   0.780  1.0793  0.0709  1.5389
  722MOL0     H99574   6.921   9.308   0.860 -0.8890 -0.2427 -0.9041
  722MOL0     H99575   6.865   9.491   0.993 -0.4583 -0.9182 -0.4931
  722MOL0     H99576   6.995   9.591   0.940 -2.4021  1.2210  2.9297
  722MOL0     H99577   6.899   9.532   0.688 -2.8445 -2.4573 -0.6453
  722MOL0     H99578   6.830   9.679   0.764 -2.4611 -0.3228 -0.8692
  722MOL0     H99579   6.738   9.390   0.801  0.2081 -0.2101  1.9551
  722MOL0     H99580   6.667   9.528   0.877  1.6989  2.7194 -0.6438
  722MOL0     H99581   6.661   9.473   0.577  2.5623 -0.1655  0.5712
  722MOL0     H99582   6.588   9.617   0.638  0.9213 -0.6103 -1.5064
  722MOL0     H99583   6.501   9.339   0.721  2.9012  0.0484  0.4447
  722MOL0     H99584   6.449   9.483   0.800 -0.6371 -0.9733 -0.1221
  722MOL0     H99585   6.465   9.335   0.456 -2.1897 -0.9725  1.3137
  722MOL0     H99586   6.175   9.422   0.251  0.0323  0.7996 -1.9444
  722MOL0     H99587   6.317   9.332   0.232  0.9034  0.5582 -2.7828
  722MOL0     H99588   6.298   9.639   0.197  3.7235  1.7569 -2.0445
  722MOL0     H99589   6.445   9.562   0.182  0.8712 -0.6281  0.2786
  722MOL0     H99590   6.205   9.504   0.011 -0.4876  1.1738  4.1377
  722MOL0     H99591   6.328   9.629  -0.042 -0.6720 -1.5716 -3.0837
  722MOL0     H99592   6.359   9.329  -0.020  0.8655 -0.3215  1.8427
  722MOL0     H99593   6.366   9.433  -0.162  2.2562 -3.3882  0.0456
  722MOL0     H99594   6.460   9.206  -0.158  0.0280 -0.8579  1.9785
  722MOL0     H99595   6.629   9.012  -0.389  2.7161  0.5308  0.0650
  722MOL0     H99596   6.500   8.998  -0.263  0.0174 -2.7384  2.6326
  722MOL0     H99597   6.657   8.934  -0.238 -1.4286  0.6710  0.4209
  722MOL0     H99598   7.103   9.184  -0.560  3.5620  2.4758 -0.5560
  722MOL0     H99599   7.272   9.032  -0.679 -1.7968  0.6412 -0.1983
  722MOL0     H99600   7.358   8.690  -0.459 -0.4482 -1.7836 -2.0054
  722MOL0     H99601   7.469   8.650  -0.585  2.7432  0.4553 -0.1800
  722MOL0     H99602   7.560   8.834  -0.349 -1.2473  0.5928 -1.1924
  722MOL0     H99603   7.594   8.663  -0.378  1.9494 -1.1466 -2.8633
  722MOL0     H99604   7.749   8.863  -0.459  0.6591 -1.6486  0.4421
  722MOL0     H99605   7.652   8.846  -0.607 -1.2327  1.0181 -0.4465
  722MOL0     H99606   7.723   8.606  -0.643  1.3816  0.2129 -1.8575
  722MOL0     H99607   7.800   8.604  -0.486  0.5832  3.9335  1.9876
  722MOL0     H99608   7.891   8.765  -0.719  4.0350 -1.1812 -0.8730
  722MOL0     H99609   7.950   8.785  -0.546 -0.8598 -0.7658  1.2773
  722MOL0     H99610   7.975   8.543  -0.725  0.5147 -4.3550  1.9132
  722MOL0     H99611   8.011   8.537  -0.553  2.2369 -0.4668 -0.2953
  722MOL0     H99612   8.184   8.694  -0.582 -0.6994  0.6663  0.1595
  722MOL0     H99613   8.122   8.745  -0.734  0.6096 -0.0507  0.4738
  722MOL0     H99614   8.172   8.492  -0.812 -3.5027  0.7211  0.9614
  722MOL0     H99615   8.259   8.472  -0.658 -1.6237 -0.5021  0.3373
  722MOL0     H99616   7.326   8.834  -0.295  1.1559  1.5898  1.3865
  722MOL0     H99617   7.164   8.997  -0.201 -1.9322  0.7056 -0.7856
  722MOL0     H99618   6.944   9.321  -0.145  0.8379 -1.5140  1.4926
  722MOL0     H99619   6.784   9.459  -0.045  1.4538 -2.5994  0.8045
  722MOL0     H99620   7.414   9.533   1.088  0.1709  0.5853 -1.0171
  722MOL0     H99621   7.579   9.653   1.225 -0.6048  0.9512 -2.0772
  722MOL0     H99622   7.524  10.108   1.579 -0.8159 -1.2207 -1.1075
  722MOL0     H99623   7.701  10.261   1.655  2.6883  0.7941  1.0810
  722MOL0     H99624   8.026  10.054   1.879  0.7085 -0.9744 -1.4310
  722MOL0     H99625   8.134  10.101   1.750  0.0807 -3.4332  1.6803
  722MOL0     H99626   8.166  10.322   1.838  0.4786  0.3102  1.3118
  722MOL0     H99627   8.177  10.229   1.985  0.8456 -1.1182 -1.5028
  722MOL0     H99628   7.895  10.301   1.957  0.6285  0.1703 -3.0839
  722MOL0     H99629   8.010  10.365   2.079  0.5440 -0.9581  0.1092
  722MOL0     H99630   7.993  10.474   1.799  0.3565  1.9181 -0.5172
  722MOL0     H99631   8.061  10.552   1.938 -0.2165  1.3936 -1.4268
  722MOL0     H99632   7.652  10.630   1.977 -0.4142  0.6262 -3.0690
  722MOL0     H99633   7.956   9.927   1.722  1.1700  0.9691 -0.4606
  722MOL0     H99634   7.749   9.680   1.554 -2.3134 -1.2700  1.6689
  722MOL0     H99635   7.884   9.695   1.671  0.3843 -0.4615  1.2640
  722MOL0     H99636   7.724   9.684   1.723  1.8538 -2.4054  0.2602
  723MOL0     O99637   1.154   1.287   9.479 -0.5296 -0.0095  0.3509
  723MOL0     C99638   1.055   1.243   9.419  0.0131  0.7320 -0.3735
  723MOL0     O99639   0.989   1.126   9.445 -0.1624  0.4332  0.0992
  723MOL0     C99640   1.017   1.049   9.556  0.3806  0.4902 -0.0570
  723MOL0     C99641   1.043   1.107   9.678  0.0501 -0.7800  0.6081
  723MOL0     C99642   1.084   1.031   9.781  0.5260  0.5818 -0.2213
  723MOL0     C99643   1.082   0.893   9.792  0.5596  1.0850  0.0103
  723MOL0     O99644   1.100   0.825   9.911 -0.7062 -0.2855  0.0164
  723MOL0     C99645   0.998   0.867  10.013  0.7667 -0.3429  0.0560
  723MOL0     C99646   1.078   0.864  10.146  0.2933 -0.2939 -0.8758
  723MOL0     C99647   1.203   0.946  10.137  0.5675 -0.8902 -0.0169
  723MOL0     C99648   1.264   0.970  10.274 -0.0257 -0.1386  0.1050
  723MOL0     C99649   1.386   0.884  10.298  0.1365 -0.5485 -0.6746
  723MOL0     C99650   1.422   0.921  10.452  0.4237 -1.1162 -0.2442
  723MOL0     C99651   1.533   0.831  10.509  0.9434 -0.2672  0.6163
  723MOL0     C99652   1.666   0.854  10.437  0.4422  0.2852 -0.2807
  723MOL0     N99653   1.777   0.766  10.473  0.2645 -0.0738  0.2922
  723MOL0     C99654   1.847   0.771  10.592 -0.3427  0.5577 -0.5915
  723MOL0     C99655   1.944   0.678  10.583 -0.5445  0.3406 -0.2846
  723MOL0     C99656   2.057   0.659  10.683  0.4647  0.0013  0.1820
  723MOL0     C99657   2.170   0.761  10.651  0.3493 -1.2388 -0.3129
  723MOL0     C99658   2.291   0.742  10.744 -0.2635  1.1078  0.0726
  723MOL0     C99659   2.255   0.769  10.886  0.2108 -0.1814  0.3938
  723MOL0     O99660   2.220   0.640  10.945  0.4733  0.0167  0.6011
  723MOL0     C99661   2.141   0.644  11.052  0.4009 -0.1637  0.2659
  723MOL0     C99662   2.131   0.523  11.113 -0.2808  0.3209 -0.8171
  723MOL0     C99663   2.050   0.506  11.228  0.0321  0.6879  0.5890
  723MOL0     C99664   2.053   0.366  11.278  0.6025  0.1465 -0.4922
  723MOL0     C99665   1.980   0.620  11.274  0.1429  0.4103  0.0373
  723MOL0     C99666   1.874   0.616  11.379  0.4972  0.5383 -0.1636
  723MOL0     O99667   1.823   0.738  11.421  0.2502 -0.3859 -0.7706
  723MOL0     C99668   1.726   0.748  11.514  0.3724  0.5624  0.2859
  723MOL0     C99669   1.614   0.670  11.509 -0.3776  0.1251 -0.2349
  723MOL0     C99670   1.499   0.715  11.574  0.5348  0.1565  0.3698
  723MOL0     C99671   1.508   0.809  11.685 -0.2609  0.3707  0.6655
  723MOL0     O99672   1.401   0.842  11.764 -0.4149 -0.3215  0.7073
  723MOL0     C99673   1.415   0.968  11.841  0.8635 -0.5567 -0.0141
  723MOL0     C99674   1.286   1.001  11.902  0.6287  0.5259 -0.0385
  723MOL0     C99675   1.303   1.137  11.978  0.3847 -0.6799  0.1507
  723MOL0     C99676   1.178   1.218  11.994 -0.3618 -1.1042  0.2442
  723MOL0     C99677   1.197   1.344  12.079  0.0444  0.4024  0.1685
  723MOL0     C99678   1.309   1.445  12.041  0.1469  0.1668 -0.6167
  723MOL0     C99679   1.301   1.500  11.902 -0.1744 -0.0414 -1.5423
  723MOL0     C99680   1.415   1.600  11.887 -0.6270 -0.1813  0.0377
  723MOL0    Cl99681   1.437   1.646  11.716 -0.1728  0.1891 -0.0523
  723MOL0     C99682   1.639   0.879  11.703 -0.8068  0.9851 -0.6709
  723MOL0     C99683   1.743   0.853  11.609  0.4020 -0.6554  0.5553
  723MOL0     O99684   1.832   0.508  11.422 -0.3326 -0.3538  0.5637
  723MOL0     C99685   1.988   0.749  11.208  0.0378  1.4161 -0.1594
  723MOL0     C99686   2.074   0.760  11.103 -0.1730 -0.5435 -0.4247
  723MOL0     N99687   1.936   0.624  10.455 -0.0399 -0.3451 -0.1266
  723MOL0     N99688   1.837   0.678  10.392  0.0969  0.7840 -0.3499
  723MOL0     C99689   1.036   0.825   9.674 -0.6713  0.7159 -0.2563
  723MOL0     C99690   1.016   0.901   9.559  0.0592 -0.6623  0.9451
  723MOL0     C99691   1.013   1.322   9.304 -0.3224 -0.3800 -0.3363
  723MOL0     C99692   0.876   1.356   9.305 -0.3614  0.0305 -0.3300
  723MOL0     C99693   0.832   1.431   9.198  0.0535  0.7652 -0.3956
  723MOL0     C99694   0.909   1.473   9.094  0.1716  0.1922  0.3298
  723MOL0     O99695   0.868   1.556   9.001  0.6446  0.5033  0.1262
  723MOL0     C99696   0.725   1.548   8.959  0.1306  0.0051 -0.1091
  723MOL0     C99697   0.635   1.661   9.009  0.7031  0.0199  0.7305
  723MOL0     C99698   0.501   1.664   8.936  0.5542  0.2807  0.4783
  723MOL0     C99699   0.400   1.559   8.988  0.0431  0.3266  0.4510
  723MOL0     C99700   0.255   1.576   8.939  0.9617  0.5394 -1.5692
  723MOL0     C99701   0.143   1.604   8.894 -1.3499  0.1573 -0.5609
  723MOL0     C99702   1.039   1.430   9.090 -0.3451 -0.1543 -0.4981
  723MOL0     C99703   1.091   1.359   9.194  0.8536  0.3649 -0.8820
  723MOL0     C99704   1.240   1.348   9.196  0.4914 -0.2356 -0.0734
  723MOL0     H99705   1.065   1.212   9.695  0.9601 -1.1197  1.6308
  723MOL0     H99706   1.118   1.093   9.864  0.6621 -1.1901  1.0986
  723MOL0     H99707   0.915   0.797  10.011 -0.5065  1.0858 -2.4087
  723MOL0     H99708   0.958   0.966   9.991  0.4534 -0.5390 -0.2766
  723MOL0     H99709   1.012   0.897  10.226 -0.1585 -3.2134  0.0582
  723MOL0     H99710   1.092   0.759  10.172 -2.6012 -0.9692 -1.6999
  723MOL0     H99711   1.277   0.908  10.065 -0.7276 -0.0681 -1.8532
  723MOL0     H99712   1.171   1.044  10.102 -1.7118 -1.1331  1.1818
  723MOL0     H99713   1.289   1.075  10.290  0.8930 -0.5009  1.1697
  723MOL0     H99714   1.184   0.957  10.347 -0.5354  4.3219  0.6256
  723MOL0     H99715   1.477   0.906  10.240  1.4455  1.5570  1.9410
  723MOL0     H99716   1.356   0.779  10.289 -0.4810 -0.7570  2.6202
  723MOL0     H99717   1.444   1.027  10.467 -1.5712 -0.0139 -3.7744
  723MOL0     H99718   1.335   0.892  10.511 -0.3954  0.3707 -0.6786
  723MOL0     H99719   1.509   0.724  10.505 -0.4710  0.0323 -3.0232
  723MOL0     H99720   1.540   0.852  10.616  3.2290 -0.8827  0.6274
  723MOL0     H99721   1.642   0.841  10.331 -0.1860 -0.9137 -0.0071
  723MOL0     H99722   1.684   0.960  10.458 -2.7685  0.8302  0.1806
  723MOL0     H99723   1.843   0.846  10.670 -0.0560 -0.0363  0.0114
  723MOL0     H99724   2.102   0.560  10.675 -1.0758 -0.8483  1.4883
  723MOL0     H99725   2.022   0.670  10.786 -0.2445 -0.7912  0.0336
  723MOL0     H99726   2.200   0.746  10.546 -2.8132  4.3098 -2.4370
  723MOL0     H99727   2.130   0.861  10.664  1.4408 -0.9119  0.6550
  723MOL0     H99728   2.325   0.639  10.730 -0.6982  0.6358  2.1544
  723MOL0     H99729   2.363   0.819  10.713  1.9232 -0.2665  1.4725
  723MOL0     H99730   2.348   0.802  10.933 -0.4631 -0.1678  1.7433
  723MOL0     H99731   2.177   0.844  10.893  0.2297 -0.1719  0.4956
  723MOL0     H99732   2.178   0.437  11.067 -0.0753  0.4134 -0.7811
  723MOL0     H99733   2.158   0.333  11.280  1.4426  2.3257  4.4333
  723MOL0     H99734   1.985   0.297  11.226 -1.6352 -0.4513  2.9121
  723MOL0     H99735   2.027   0.364  11.384  0.4204  0.9175 -0.5205
  723MOL0     H99736   1.601   0.589  11.439  2.1171  1.4095 -2.3564
  723MOL0     H99737   1.410   0.656  11.555 -0.1451  0.4585  2.3093
  723MOL0     H99738   1.489   0.941  11.917  2.7865 -0.4158 -1.7583
  723MOL0     H99739   1.468   1.038  11.776 -0.8054  0.3881 -0.4330
  723MOL0     H99740   1.212   1.002  11.821 -1.3920 -1.6463  1.6337
  723MOL0     H99741   1.255   0.928  11.977 -4.5341  3.7155  1.4397
  723MOL0     H99742   1.376   1.209  11.940  0.6524 -0.6600  0.6903
  723MOL0     H99743   1.345   1.109  12.075  2.0634 -3.7231 -1.3077
  723MOL0     H99744   1.101   1.158  12.045 -2.0772  0.9502  0.2029
  723MOL0     H99745   1.140   1.256  11.899  2.2084  2.7383  0.5443
  723MOL0     H99746   1.100   1.395  12.075  0.9856  2.4923  1.6714
  723MOL0     H99747   1.218   1.316  12.183  1.4755 -0.4052 -0.3025
  723MOL0     H99748   1.410   1.405  12.056 -0.0029 -1.6954 -3.7580
  723MOL0     H99749   1.288   1.525  12.113  1.6722 -1.7735  2.2149
  723MOL0     H99750   1.211   1.561  11.891 -0.4192 -0.2436 -0.6868
  723MOL0     H99751   1.303   1.422  11.825  0.5040 -1.3189 -0.2703
  723MOL0     H99752   1.511   1.558  11.918 -0.6842 -1.0150 -0.8833
  723MOL0     H99753   1.398   1.692  11.943  0.3162 -1.3318  2.3533
  723MOL0     H99754   1.666   0.955  11.776  0.4835  1.3834 -1.5162
  723MOL0     H99755   1.837   0.908  11.604  0.3946 -0.7218 -3.7544
  723MOL0     H99756   1.941   0.836  11.252 -0.8911 -0.3187  2.5558
  723MOL0     H99757   2.086   0.860  11.064 -1.5398  1.0603  2.8736
  723MOL0     H99758   1.024   0.719   9.656 -1.2280  0.9600 -1.4449
  723MOL0     H99759   0.980   0.856   9.467  1.0301 -0.4054  0.4276
  723MOL0     H99760   0.818   1.311   9.385 -0.8202 -1.1435 -1.2993
  723MOL0     H99761   0.724   1.446   9.198 -0.1483 -0.5090 -0.2880
  723MOL0     H99762   0.728   1.568   8.851 -0.4741 -1.6475 -0.4734
  723MOL0     H99763   0.676   1.451   8.975  0.0134  0.0221 -0.3628
  723MOL0     H99764   0.689   1.753   8.986  1.7263 -0.1738  2.2312
  723MOL0     H99765   0.600   1.651   9.112 -1.9437 -3.0012 -0.2726
  723MOL0     H99766   0.456   1.763   8.943  0.2872  0.0454  2.8562
  723MOL0     H99767   0.514   1.641   8.830 -1.5042  1.1993 -0.0198
  723MOL0     H99768   0.410   1.555   9.097  5.2596 -1.9694  0.1825
  723MOL0     H99769   0.417   1.456   8.956  0.0986  0.3102  0.5316
  723MOL0     H99770   0.050   1.620   8.845 -0.5136  1.3601 -1.8508
  723MOL0     H99771   1.113   1.468   9.021  0.7237  2.3096  1.8492
  723MOL0     H99772   1.282   1.247   9.201  0.8906 -0.3882 -3.9356
  723MOL0     H99773   1.296   1.401   9.119  2.7838 -0.5615  1.2640
  723MOL0     H99774   1.278   1.408   9.280  4.5651 -1.0794 -1.0644
  724MOL0     O99775   6.603   7.702   9.530  0.0730 -0.1724 -0.2240
  724MOL0     C99776   6.541   7.629   9.609 -0.2410 -0.9044 -0.1158
  724MOL0     O99777   6.576   7.496   9.638 -0.2715  0.1016 -0.1371
  724MOL0     C99778   6.708   7.459   9.600  0.6351 -0.9934  0.4259
  724MOL0     C99779   6.817   7.486   9.681  0.2390 -0.0117  0.1145
  724MOL0     C99780   6.949   7.455   9.629  0.4312  0.6199  0.3562
  724MOL0     C99781   6.965   7.395   9.502  0.4447  0.3814  0.1253
  724MOL0     O99782   7.095   7.355   9.470 -0.3799 -0.3868 -0.0035
  724MOL0     C99783   7.133   7.360   9.332  0.1561 -0.2674  0.7173
  724MOL0     C99784   7.291   7.368   9.313 -0.2639 -0.2921 -0.7281
  724MOL0     C99785   7.368   7.459   9.409 -0.0262  0.0017 -0.4785
  724MOL0     C99786   7.514   7.481   9.362 -0.1760 -0.8689  0.0270
  724MOL0     C99787   7.588   7.591   9.444 -0.4355  0.2538  0.1814
  724MOL0     C99788   7.548   7.736   9.391 -0.0658  0.5333  0.2118
  724MOL0     C99789   7.609   7.851   9.481  0.1806  0.4451 -0.8184
  724MOL0     C99790   7.764   7.850   9.487  0.2228  0.4948  0.1683
  724MOL0     N99791   7.814   7.893   9.358 -0.1325 -0.7602 -1.4141
  724MOL0     C99792   7.815   8.023   9.305 -0.2025  0.5131 -0.4166
  724MOL0     C99793   7.902   8.024   9.196  0.9342 -0.1888  0.6941
  724MOL0     C99794   7.961   8.151   9.122  0.2872  0.4930 -0.5764
  724MOL0     C99795   7.926   8.141   8.975  0.5024 -0.8625  0.4597
  724MOL0     C99796   7.945   8.276   8.908 -0.7473  0.4406 -0.4449
  724MOL0     C99797   7.826   8.373   8.937 -0.5401  0.2151  0.0622
  724MOL0     O99798   7.698   8.320   8.913 -0.2365 -0.2661 -0.1950
  724MOL0     C99799   7.638   8.336   8.790  0.0641 -0.0891  0.3085
  724MOL0     C99800   7.710   8.366   8.678  0.7661 -0.0076  0.7985
  724MOL0     C99801   7.659   8.352   8.549 -0.1713 -0.4847  0.1688
  724MOL0     C99802   7.746   8.358   8.426  0.0177 -0.1104  0.1003
  724MOL0     C99803   7.521   8.334   8.535  0.3592  0.8259 -0.0174
  724MOL0     C99804   7.449   8.329   8.406 -0.4425 -0.4307 -1.1719
  724MOL0     O99805   7.399   8.208   8.383 -0.1024 -0.8264  0.1092
  724MOL0     C99806   7.299   8.192   8.289 -0.2647  0.9524  0.2209
  724MOL0     C99807   7.318   8.211   8.154  0.4037  0.0651 -0.7335
  724MOL0     C99808   7.213   8.180   8.066  1.0925 -0.5573  0.3834
  724MOL0     C99809   7.096   8.136   8.113  0.1857  0.4400  0.2100
  724MOL0     O99810   6.995   8.129   8.033 -0.4063  0.2592 -0.6301
  724MOL0     C99811   7.016   8.037   7.929 -0.9705 -0.3592  0.1378
  724MOL0     C99812   6.895   7.967   7.867 -0.6283 -0.5181  0.5562
  724MOL0     C99813   6.822   7.892   7.979  0.7860 -0.4619 -0.0313
  724MOL0     C99814   6.700   7.814   7.940  0.5240 -0.2005 -0.5191
  724MOL0     C99815   6.629   7.754   8.058  0.0660 -0.6786 -0.3691
  724MOL0     C99816   6.497   7.686   8.013 -0.6971  0.3765  0.0098
  724MOL0     C99817   6.423   7.618   8.126  0.7697 -0.0883 -0.7058
  724MOL0     C99818   6.290   7.690   8.164  0.4665 -0.3170 -0.1631
  724MOL0    Cl99819   6.312   7.829   8.277 -0.0492  0.3178 -0.2442
  724MOL0     C99820   7.082   8.102   8.248  0.2091 -0.1900 -0.8458
  724MOL0     C99821   7.183   8.131   8.338 -0.1995 -0.4022  0.3332
  724MOL0     O99822   7.443   8.417   8.322 -0.5272  0.1788 -0.1959
  724MOL0     C99823   7.446   8.287   8.647 -0.3834 -0.8539  0.1066
  724MOL0     C99824   7.498   8.302   8.773 -1.3923  0.5243  0.1387
  724MOL0     N99825   7.936   7.888   9.184 -0.7789 -0.8677  0.7182
  724MOL0     N99826   7.899   7.818   9.288  0.2755  0.1750 -0.2668
  724MOL0     C99827   6.853   7.365   9.427 -0.2236  0.0836 -1.0596
  724MOL0     C99828   6.722   7.392   9.479  0.9664 -0.0676  0.8405
  724MOL0     C99829   6.405   7.678   9.654  0.0171 -0.0531 -0.1946
  724MOL0     C99830   6.297   7.582   9.661 -0.1578 -0.3492  0.5301
  724MOL0     C99831   6.176   7.616   9.720 -0.5231 -0.6256  0.1415
  724MOL0     C99832   6.153   7.755   9.757  0.3520  1.2335  1.0176
  724MOL0     O99833   6.040   7.789   9.820 -0.2443 -0.3737  0.3198
  724MOL0     C99834   5.922   7.745   9.758  1.2417  0.0995  0.5754
  724MOL0     C99835   5.814   7.821   9.831  0.4574  0.6838 -0.1304
  724MOL0     C99836   5.781   7.777   9.972 -0.6605 -0.4190  0.1966
  724MOL0     C99837   5.677   7.877  10.043  0.7227 -0.0134  0.0857
  724MOL0     C99838   5.532   7.864   9.994  0.6085  0.1660  0.3528
  724MOL0     C99839   5.416   7.841   9.963 -0.6359 -0.0787  0.0687
  724MOL0     C99840   6.258   7.849   9.765 -1.1193  0.5562 -0.2792
  724MOL0     C99841   6.383   7.805   9.712  0.3564 -0.5603 -0.7103
  724MOL0     C99842   6.498   7.900   9.747 -0.6981  0.5566  0.1861
  724MOL0     H99843   6.813   7.524   9.783 -1.5504  0.3190 -0.0520
  724MOL0     H99844   7.040   7.482   9.683  1.1162  2.7907 -1.6817
  724MOL0     H99845   7.088   7.441   9.273 -1.3683 -0.9615  0.9023
  724MOL0     H99846   7.106   7.267   9.282  2.5725 -0.6399 -0.0271
  724MOL0     H99847   7.327   7.267   9.332 -1.2730 -0.7263 -1.1027
  724MOL0     H99848   7.315   7.400   9.211  1.9882 -1.6299 -0.6965
  724MOL0     H99849   7.317   7.555   9.427  0.1845  0.5575 -2.6322
  724MOL0     H99850   7.388   7.413   9.507 -1.9908  1.7656  0.8475
  724MOL0     H99851   7.567   7.385   9.373  1.2435 -0.1419 -0.1895
  724MOL0     H99852   7.515   7.511   9.257  4.2539 -0.8645 -0.1407
  724MOL0     H99853   7.697   7.578   9.447 -0.0903  2.6028 -0.3248
  724MOL0     H99854   7.549   7.583   9.545  3.6005  0.5143  1.9778
  724MOL0     H99855   7.594   7.749   9.292  0.5976  2.8670  0.7556
  724MOL0     H99856   7.441   7.757   9.387  0.1219  1.6737 -4.2004
  724MOL0     H99857   7.576   7.832   9.584 -1.4064  0.5586 -1.2720
  724MOL0     H99858   7.573   7.950   9.451 -2.2503 -0.3902 -0.8929
  724MOL0     H99859   7.802   7.909   9.570 -2.1145  0.9022  1.0241
  724MOL0     H99860   7.780   7.747   9.520  0.7453  0.8688  1.1119
  724MOL0     H99861   7.767   8.102   9.363 -0.9126 -1.0539  1.2338
  724MOL0     H99862   8.069   8.137   9.131  0.1821 -1.7976 -1.9845
  724MOL0     H99863   7.920   8.239   9.171 -1.4652 -0.4038 -0.3439
  724MOL0     H99864   7.992   8.068   8.928  2.0982  1.7670 -1.7335
  724MOL0     H99865   7.827   8.102   8.948  0.8730  0.1769 -2.9258
  724MOL0     H99866   8.042   8.324   8.917 -0.1952 -0.6219 -0.5774
  724MOL0     H99867   7.947   8.252   8.801 -1.8181 -3.0246  0.2024
  724MOL0     H99868   7.822   8.387   9.045 -3.3781  1.1786 -0.0690
  724MOL0     H99869   7.843   8.467   8.883  2.1113  0.7847  1.7063
  724MOL0     H99870   7.808   8.408   8.699  0.9132 -0.4277  0.9459
  724MOL0     H99871   7.719   8.439   8.358 -0.7365 -0.9032 -0.5806
  724MOL0     H99872   7.730   8.269   8.363 -1.0522  0.6538 -0.7378
  724MOL0     H99873   7.852   8.363   8.451 -0.6730  1.8575  3.1060
  724MOL0     H99874   7.419   8.233   8.123  1.5118 -1.3948  1.5401
  724MOL0     H99875   7.240   8.193   7.962  2.6581  1.4837  0.9723
  724MOL0     H99876   7.062   8.092   7.847  1.4717  0.1691  1.7832
  724MOL0     H99877   7.086   7.962   7.965  0.5080  1.3515  0.9498
  724MOL0     H99878   6.822   8.041   7.832  1.0028  0.4510 -1.0356
  724MOL0     H99879   6.925   7.905   7.782 -3.6826 -2.1140  0.5091
  724MOL0     H99880   6.783   7.962   8.053 -1.4989 -1.4653 -0.1833
  724MOL0     H99881   6.891   7.814   8.012  2.6413  0.7064 -0.9965
  724MOL0     H99882   6.736   7.735   7.874  0.6861 -1.8069  1.3783
  724MOL0     H99883   6.635   7.875   7.877  1.7404  0.0274 -1.5894
  724MOL0     H99884   6.693   7.685   8.113 -3.4673 -2.1644  2.2531
  724MOL0     H99885   6.609   7.840   8.123 -0.6633 -1.4459  0.4599
  724MOL0     H99886   6.513   7.603   7.943 -4.4293  0.5341 -1.2566
  724MOL0     H99887   6.447   7.768   7.961  2.4032  2.7836  0.5414
  724MOL0     H99888   6.488   7.610   8.214 -1.5878  2.0918  1.4225
  724MOL0     H99889   6.404   7.512   8.104  5.3089 -1.0241 -0.9381
  724MOL0     H99890   6.225   7.627   8.225 -1.4026  3.0564  1.6615
  724MOL0     H99891   6.226   7.721   8.080 -0.8056 -3.4350 -0.4609
  724MOL0     H99892   6.995   8.057   8.295  2.3616 -0.8322  2.8789
  724MOL0     H99893   7.166   8.103   8.442 -2.4022  2.2032  0.7899
  724MOL0     H99894   7.343   8.255   8.636 -0.8746 -0.0071  1.9895
  724MOL0     H99895   7.446   8.281   8.866  1.5309 -1.1199  1.5135
  724MOL0     H99896   6.870   7.339   9.323  0.9547  2.2830 -1.4895
  724MOL0     H99897   6.635   7.354   9.427  2.8614 -6.1445  1.2853
  724MOL0     H99898   6.300   7.477   9.633  0.9797  0.3134 -2.2606
  724MOL0     H99899   6.099   7.543   9.741  1.3310 -2.2408  1.8368
  724MOL0     H99900   5.925   7.774   9.652 -1.1009  4.1839  1.4210
  724MOL0     H99901   5.912   7.637   9.765  0.5549  0.0192 -1.1331
  724MOL0     H99902   5.722   7.804   9.775  0.5766 -0.3441 -0.0341
  724MOL0     H99903   5.827   7.929   9.831 -3.4929  1.3385  1.7100
  724MOL0     H99904   5.743   7.674   9.977 -0.2432 -0.5433  0.8610
  724MOL0     H99905   5.867   7.775  10.040 -0.6985 -0.5384  0.2419
  724MOL0     H99906   5.707   7.982  10.038 -0.4753  0.3019 -1.1830
  724MOL0     H99907   5.663   7.841  10.145  1.7119  1.5235  0.7915
  724MOL0     H99908   5.314   7.844   9.930 -0.2009  0.9382 -1.2766
  724MOL0     H99909   6.250   7.941   9.822 -1.6162  0.4621 -0.1925
  724MOL0     H99910   6.502   7.962   9.657 -1.9608  3.2779  1.8959
  724MOL0     H99911   6.485   7.971   9.829 -2.4631 -0.8855  1.2114
  724MOL0     H99912   6.593   7.848   9.767 -0.8245  0.0780 -0.4045
  725MOL0     O99913   2.736   5.560   9.024  0.1571 -0.1121  0.1277
  725MOL0     C99914   2.707   5.671   9.055 -0.0213 -0.0911  0.2659
  725MOL0     O99915   2.792   5.773   9.066 -0.3355 -0.2359  0.0736
  725MOL0     C99916   2.923   5.742   9.077 -0.3630 -0.0927 -0.6177
  725MOL0     C99917   2.962   5.728   9.207 -0.2161 -1.4620  0.6145
  725MOL0     C99918   3.089   5.684   9.240  0.0176  0.2156 -0.1391
  725MOL0     C99919   3.187   5.663   9.141  0.5764 -0.2280  0.0065
  725MOL0     O99920   3.315   5.646   9.177 -0.0343  0.1708  0.4577
  725MOL0     C99921   3.417   5.642   9.074  0.2352  0.7446 -0.2200
  725MOL0     C99922   3.551   5.677   9.136  0.0617 -0.5731 -1.0599
  725MOL0     C99923   3.632   5.547   9.149 -0.3389 -1.1349 -0.6864
  725MOL0     C99924   3.561   5.434   9.237 -0.2840  0.1489 -0.5825
  725MOL0     C99925   3.657   5.338   9.298 -0.9440 -0.5462  0.4524
  725MOL0     C99926   3.730   5.255   9.191  0.2077  0.4731  0.0280
  725MOL0     C99927   3.841   5.172   9.256  0.2143 -0.4294 -0.3433
  725MOL0     C99928   3.919   5.071   9.160  0.2602  0.5436 -1.0390
  725MOL0     N99929   3.844   5.030   9.038  0.1942  0.2991 -0.1679
  725MOL0     C99930   3.721   4.976   9.035 -0.2464 -1.3979 -0.3001
  725MOL0     C99931   3.686   4.972   8.911 -0.1628  0.0926  0.0801
  725MOL0     C99932   3.549   4.937   8.872  0.0973 -0.2452  0.3424
  725MOL0     C99933   3.533   4.930   8.718 -0.2478 -0.2153  0.9743
  725MOL0     C99934   3.380   4.925   8.684 -0.1762 -0.4320  0.3465
  725MOL0     C99935   3.285   4.824   8.743  1.0370  0.7636 -0.7019
  725MOL0     O99936   3.152   4.857   8.707  0.2692  0.6502 -0.6185
  725MOL0     C99937   3.111   4.823   8.580  0.7074 -0.4914 -0.7885
  725MOL0     C99938   3.154   4.716   8.499 -0.4949 -0.0678  1.1367
  725MOL0     C99939   3.110   4.692   8.362  0.3713  0.2712 -0.0812
  725MOL0     C99940   3.165   4.558   8.296  0.4551 -0.4962 -0.2227
  725MOL0     C99941   3.006   4.775   8.307  0.0803 -0.2336  0.5282
  725MOL0     C99942   2.963   4.771   8.164  0.1109 -0.2214  0.5949
  725MOL0     O99943   2.864   4.859   8.133  0.1619 -0.7784 -0.4056
  725MOL0     C99944   2.829   4.886   8.005  0.0323 -1.1018  0.2973
  725MOL0     C99945   2.694   4.937   7.977 -1.2680  0.6049  0.3759
  725MOL0     C99946   2.671   4.962   7.842 -0.5142 -0.2814 -0.4988
  725MOL0     C99947   2.760   4.958   7.734  0.2763  0.2376 -0.6858
  725MOL0     O99948   2.708   4.991   7.608 -0.4593  0.4651  1.0227
  725MOL0     C99949   2.750   4.905   7.495 -0.3567 -0.8485 -0.4034
  725MOL0     C99950   2.665   4.944   7.368  0.6353 -0.3328 -1.2083
  725MOL0     C99951   2.521   4.896   7.397 -0.2331 -0.1118 -0.3154
  725MOL0     C99952   2.412   4.902   7.288 -0.1697 -0.2514 -0.2485
  725MOL0     C99953   2.401   4.785   7.193  0.0720 -0.1666 -0.0964
  725MOL0     C99954   2.348   4.648   7.254 -0.0818  0.0988  0.8268
  725MOL0     C99955   2.225   4.598   7.177  0.6591  0.0224  0.4024
  725MOL0     C99956   2.192   4.455   7.204 -0.0855 -0.2339  0.0615
  725MOL0    Cl99957   2.317   4.340   7.140 -0.1159 -0.2225 -0.1316
  725MOL0     C99958   2.887   4.909   7.761 -0.7139 -0.0545 -0.5916
  725MOL0     C99959   2.923   4.881   7.897  0.6206 -0.2012  0.2896
  725MOL0     O99960   2.984   4.672   8.104  0.6728  0.4106 -0.1078
  725MOL0     C99961   2.965   4.879   8.388  0.6037  1.0321  0.2965
  725MOL0     C99962   3.009   4.901   8.518  0.2613  0.2355 -0.5459
  725MOL0     N99963   3.793   5.020   8.834  0.4587  0.7476  0.0842
  725MOL0     N99964   3.887   5.050   8.915 -0.6149  0.1753 -0.5058
  725MOL0     C99965   3.140   5.653   9.011 -0.1641  0.9309  0.2510
  725MOL0     C99966   3.011   5.695   8.977  0.9607  0.4066  0.2375
  725MOL0     C99967   2.564   5.694   9.074 -0.4925  0.1879 -0.0484
  725MOL0     C99968   2.526   5.823   9.099 -0.2484 -0.8943 -0.2603
  725MOL0     C99969   2.398   5.867   9.096 -0.4404  0.7936  0.3490
  725MOL0     C99970   2.290   5.778   9.107  0.3043 -0.1487 -0.3061
  725MOL0     O99971   2.159   5.818   9.109 -0.9923  0.0849 -0.0647
  725MOL0     C99972   2.104   5.816   9.245  0.5102 -1.2770 -0.7648
  725MOL0     C99973   2.097   5.676   9.310  0.3667 -0.1982  0.5153
  725MOL0     C99974   2.207   5.642   9.398 -0.6737  0.5529 -0.6826
  725MOL0     C99975   2.215   5.736   9.520  0.0945 -0.1560 -0.5680
  725MOL0     C99976   2.094   5.725   9.596  0.3570  0.2313  0.3092
  725MOL0     C99977   1.989   5.732   9.653 -0.2891  0.1947 -0.7021
  725MOL0     C99978   2.322   5.647   9.070  0.7809  0.4736  0.5765
  725MOL0     C99979   2.454   5.600   9.060  0.0504  0.3228  0.8339
  725MOL0     C99980   2.454   5.445   9.035  0.0327 -1.1621 -0.4349
  725MOL0     H99981   2.889   5.752   9.283 -0.6391  2.6680 -0.8752
  725MOL0     H99982   3.120   5.663   9.341  0.0598  0.9742  0.0054
  725MOL0     H99983   3.408   5.713   8.991  0.1708  0.5362 -0.3922
  725MOL0     H99984   3.417   5.543   9.028 -1.0718  1.0171 -0.8645
  725MOL0     H99985   3.611   5.744   9.073  0.2684 -0.2189 -0.4943
  725MOL0     H99986   3.535   5.726   9.233 -0.6109 -0.3219 -1.2909
  725MOL0     H99987   3.645   5.508   9.048  0.0688 -0.4332 -0.9132
  725MOL0     H99988   3.733   5.568   9.187 -0.1134  0.6567 -2.1544
  725MOL0     H99989   3.493   5.483   9.309  0.5994  2.6523 -1.3610
  725MOL0     H99990   3.499   5.382   9.164  2.1814 -2.8734 -0.6972
  725MOL0     H99991   3.612   5.272   9.373  1.6933 -1.7326  1.1256
  725MOL0     H99992   3.743   5.389   9.343 -0.1238  0.5741 -2.2043
  725MOL0     H99993   3.652   5.190   9.151  0.0495 -1.1151  2.6564
  725MOL0     H99994   3.770   5.314   9.108  1.8120  0.3294  0.6568
  725MOL0     H99995   3.803   5.131   9.351 -0.9426  0.7478 -0.2666
  725MOL0     H99996   3.917   5.241   9.293  3.2618 -4.5153  1.8876
  725MOL0     H99997   4.011   5.122   9.131  1.9014 -1.3387  0.5966
  725MOL0     H99998   3.958   4.986   9.216 -1.1087  1.3778  1.3396
  725MOL0     H99999   3.647   4.956   9.113 -2.0866 -2.1139 -2.1292
  725MOL0     H    0   3.472   5.008   8.904 -1.6789 -1.4720 -1.0177
  725MOL0     H    1   3.527   4.838   8.912  0.1323 -0.3826  0.0193
  725MOL0     H    2   3.581   5.019   8.676  0.6808 -0.2899  1.8534
  725MOL0     H    3   3.585   4.839   8.686  1.7150  0.5136  1.9849
  725MOL0     H    4   3.337   5.022   8.710 -0.7456 -1.3725  3.3158
  725MOL0     H    5   3.378   4.927   8.575  0.1353  0.6329  0.3530
  725MOL0     H    6   3.315   4.732   8.691 -1.2037  0.5487 -1.7135
  725MOL0     H    7   3.288   4.806   8.850 -0.2465 -0.9390 -0.9125
  725MOL0     H    8   3.227   4.651   8.547 -0.3757 -1.3132 -0.6550
  725MOL0     H    9   3.155   4.474   8.365  0.7527 -1.4051 -1.2549
  725MOL0     H   10   3.272   4.571   8.275  0.0662  3.3102 -0.7324
  725MOL0     H   11   3.110   4.523   8.208 -0.0497  0.3691 -0.2711
  725MOL0     H   12   2.611   4.940   8.047 -0.7233  1.2278  1.0021
  725MOL0     H   13   2.567   4.991   7.827 -0.2249  1.1637  0.1019
  725MOL0     H   14   2.855   4.925   7.474 -0.5688  5.8432  2.3952
  725MOL0     H   15   2.741   4.798   7.518  1.3048 -0.6163  1.6233
  725MOL0     H   16   2.663   5.052   7.353  3.0612  0.4782  2.8509
  725MOL0     H   17   2.697   4.897   7.275 -3.7399  0.6910 -3.5254
  725MOL0     H   18   2.484   4.960   7.478 -2.8149 -2.5714  0.6153
  725MOL0     H   19   2.515   4.791   7.426 -3.4065 -0.1850 -0.8453
  725MOL0     H   20   2.432   4.985   7.220 -1.1392 -0.5797 -0.9541
  725MOL0     H   21   2.311   4.924   7.324 -0.4984  2.8721 -2.6336
  725MOL0     H   22   2.329   4.804   7.112 -1.4176  0.3953  1.2954
  725MOL0     H   23   2.500   4.768   7.152  0.5620  0.9830  0.5449
  725MOL0     H   24   2.329   4.642   7.362  2.3335 -2.9175  1.2358
  725MOL0     H   25   2.429   4.575   7.244 -1.6586 -1.4115 -2.1147
  725MOL0     H   26   2.246   4.611   7.071  4.8019 -0.0321  1.0305
  725MOL0     H   27   2.139   4.658   7.208  0.3799 -0.1105 -0.1225
  725MOL0     H   28   2.100   4.435   7.148  0.3597  0.0621 -0.8039
  725MOL0     H   29   2.184   4.435   7.311  1.6494 -1.6339 -0.0085
  725MOL0     H   30   2.960   4.905   7.680 -2.0231 -1.4144 -1.7678
  725MOL0     H   31   3.027   4.869   7.925  0.4633  0.7984  1.3694
  725MOL0     H   32   2.893   4.951   8.350  0.9679  0.4729 -1.5753
  725MOL0     H   33   2.961   4.977   8.578 -0.0165 -0.4976  0.1844
  725MOL0     H   34   3.203   5.623   8.928 -0.8767  1.0517 -0.3441
  725MOL0     H   35   2.979   5.689   8.873 -0.0765 -1.2075  0.6029
  725MOL0     H   36   2.603   5.895   9.125 -1.6863  1.0722 -1.1665
  725MOL0     H   37   2.386   5.971   9.123  1.1870  0.4338  2.6800
  725MOL0     H   38   2.166   5.885   9.303 -0.3524  0.4024 -1.7652
  725MOL0     H   39   2.015   5.879   9.239  1.2706 -0.1518 -0.4659
  725MOL0     H   40   2.101   5.614   9.220  1.0117  1.6472 -0.7950
  725MOL0     H   41   2.006   5.649   9.365  2.3615 -2.9377  2.7392
  725MOL0     H   42   2.187   5.546   9.447 -1.5824  2.1585  2.3485
  725MOL0     H   43   2.302   5.633   9.344  0.7782 -0.2723  1.8189
  725MOL0     H   44   2.252   5.838   9.507  2.5934 -0.6243  1.9749
  725MOL0     H   45   2.299   5.700   9.580 -2.4260  3.1798  5.9940
  725MOL0     H   46   1.897   5.746   9.705  1.1617  1.6414  1.6205
  725MOL0     H   47   2.243   5.576   9.051  0.5478  0.6115  1.0180
  725MOL0     H   48   2.547   5.410   8.987 -0.1295  0.8349 -2.3489
  725MOL0     H   49   2.423   5.405   9.132  0.5717 -0.6254 -0.0336
  725MOL0     H   50   2.378   5.416   8.963  2.6660 -2.8241 -2.7579
  726MOL0     O   51   8.241   1.574   7.567 -0.2873 -0.4154  0.0629
  726MOL0     C   52   8.179   1.556   7.462 -0.8522  0.0319  0.4467
  726MOL0     O   53   8.210   1.459   7.364  0.4537  0.2662 -0.5289
  726MOL0     C   54   8.304   1.373   7.399  0.3227 -0.8863  0.4289
  726MOL0     C   55   8.267   1.240   7.406  1.0155 -0.1197 -0.9714
  726MOL0     C   56   8.355   1.142   7.445  1.1067  0.2234 -0.0844
  726MOL0     C   57   8.487   1.173   7.481 -0.1605 -0.6889 -0.0115
  726MOL0     O   58   8.574   1.076   7.533  0.0533  0.5820 -0.3585
  726MOL0     C   59   8.711   1.110   7.561  0.3652  0.0408  0.2696
  726MOL0     C   60   8.761   1.016   7.673  0.0106  0.2281  1.3106
  726MOL0     C   61   8.745   0.868   7.641  0.5971  0.0327 -0.0802
  726MOL0     C   62   8.762   0.778   7.758 -0.5216  0.2385  0.5855
  726MOL0     C   63   8.689   0.637   7.741  0.5521  0.0183 -0.4739
  726MOL0     C   64   8.716   0.529   7.855  0.1594  0.1038  0.6115
  726MOL0     C   65   8.835   0.434   7.808  0.6577 -0.0916  0.6382
  726MOL0     C   66   8.889   0.352   7.919  0.5116 -0.4643 -0.3707
  726MOL0     N   67   9.009   0.280   7.883 -0.0631  0.2927  0.4512
  726MOL0     C   68   9.129   0.345   7.883  0.0391 -0.2106 -0.6561
  726MOL0     C   69   9.221   0.249   7.868  0.3347  1.1401 -0.3202
  726MOL0     C   70   9.372   0.262   7.847  0.1000 -0.0998 -0.1947
  726MOL0     C   71   9.437   0.378   7.932 -0.3450 -0.3020 -0.3530
  726MOL0     C   72   9.571   0.438   7.881 -0.1307  0.6886 -0.5041
  726MOL0     C   73   9.698   0.360   7.922 -0.6672  0.8506 -0.5275
  726MOL0     O   74   9.759   0.400   8.047 -0.6012  0.5860 -0.8084
  726MOL0     C   75   9.860   0.498   8.046  0.6282  0.7300  0.1125
  726MOL0     C   76   9.906   0.562   7.933 -0.4973 -0.3403 -0.2812
  726MOL0     C   77  10.011   0.655   7.946 -0.6162 -0.5704  0.2701
  726MOL0     C   78  10.057   0.728   7.819  0.9014  0.1505 -0.2195
  726MOL0     C   79  10.068   0.677   8.077 -0.1621  0.4147 -0.2198
  726MOL0     C   80  10.177   0.770   8.100 -0.6615 -0.7352 -0.1578
  726MOL0     O   81  10.268   0.809   8.005 -0.3861 -0.1868 -0.2117
  726MOL0     C   82  10.361   0.906   8.051  0.7816  0.6622 -0.4266
  726MOL0     C   83  10.449   0.899   8.159  0.3036  0.6509  0.7905
  726MOL0     C   84  10.540   1.000   8.176  0.4434  0.7208 -0.6977
  726MOL0     C   85  10.552   1.107   8.096  0.3378  0.0547  0.7733
  726MOL0     O   86  10.639   1.203   8.135 -0.2557  0.1573 -0.3409
  726MOL0     C   87  10.658   1.309   8.047  0.6330  0.3003  0.7899
  726MOL0     C   88  10.780   1.385   8.092 -0.1142  0.0773  0.0102
  726MOL0     C   89  10.766   1.436   8.243 -0.0505 -0.0483  0.5304
  726MOL0     C   90  10.701   1.581   8.252 -0.4682 -0.2606  0.7947
  726MOL0     C   91  10.685   1.652   8.393  0.1116  1.1227  0.9073
  726MOL0     C   92  10.607   1.781   8.378 -0.6522 -0.0869 -0.4444
  726MOL0     C   93  10.560   1.831   8.521 -0.3956 -1.0141 -0.1055
  726MOL0     C   94  10.490   1.965   8.513  0.8396 -0.6391 -0.3508
  726MOL0    Cl   95  10.353   1.952   8.396 -0.5627 -0.2686  0.1697
  726MOL0     C   96  10.467   1.112   7.979 -1.1758 -0.1354 -0.0967
  726MOL0     C   97  10.365   1.014   7.964 -0.6298  0.8301  0.1887
  726MOL0     O   98  10.162   0.827   8.205  0.1383  0.0512 -0.0096
  726MOL0     C   99  10.030   0.599   8.190  0.0031 -0.3839  0.4178
  726MOL0     C  100   9.918   0.513   8.175 -0.2281  0.4103  0.0661
  726MOL0     N  101   9.150   0.125   7.856 -0.4525 -0.5817 -0.1877
  726MOL0     N  102   9.020   0.149   7.868 -0.0328 -0.3320  1.1546
  726MOL0     C  103   8.536   1.307   7.456 -0.0021  0.1115 -0.5917
  726MOL0     C  104   8.441   1.407   7.428 -0.0434  0.0814  0.8150
  726MOL0     C  105   8.082   1.661   7.434 -0.7835  0.1831 -0.0653
  726MOL0     C  106   8.024   1.674   7.302 -0.4661  0.6026 -0.2987
  726MOL0     C  107   7.938   1.779   7.272  0.1691 -0.0125  0.9848
  726MOL0     C  108   7.903   1.874   7.359 -0.8158  0.7732 -0.3887
  726MOL0     O  109   7.819   1.971   7.329  0.0724 -0.9212 -0.8246
  726MOL0     C  110   7.859   2.061   7.217 -0.2933  0.4415 -0.5219
  726MOL0     C  111   7.736   2.125   7.153  1.0184 -0.4142  0.4122
  726MOL0     C  112   7.769   2.211   7.027 -0.3743 -0.9116  0.9541
  726MOL0     C  113   7.641   2.238   6.930 -0.5353  0.9295 -0.4182
  726MOL0     C  114   7.563   2.352   6.976  1.0082 -1.1936  0.0218
  726MOL0     C  115   7.488   2.452   7.003 -0.4902 -0.2670  0.8818
  726MOL0     C  116   7.955   1.860   7.484 -0.1533  0.2239  0.4828
  726MOL0     C  117   8.050   1.767   7.520 -0.6511  0.9540 -0.6866
  726MOL0     C  118   8.116   1.793   7.652  0.1362  0.1482 -0.0323
  726MOL0     H  119   8.167   1.208   7.381  0.3293  0.0559  1.3564
  726MOL0     H  120   8.299   1.050   7.461 -0.8228  1.4270  0.3393
  726MOL0     H  121   8.718   1.208   7.610  2.2854 -0.0566  0.2499
  726MOL0     H  122   8.773   1.100   7.472  0.9843 -0.5950  0.7615
  726MOL0     H  123   8.862   1.044   7.704 -0.1786 -0.8754  3.0747
  726MOL0     H  124   8.698   1.041   7.759 -1.9840 -2.7852  0.8726
  726MOL0     H  125   8.641   0.862   7.609  0.7615 -0.8511 -0.4639
  726MOL0     H  126   8.803   0.839   7.553 -1.5500  2.0359 -2.3177
  726MOL0     H  127   8.867   0.750   7.745 -0.1798  1.3290  0.8788
  726MOL0     H  128   8.761   0.828   7.855  0.1975 -0.8779  1.1855
  726MOL0     H  129   8.705   0.589   7.644 -1.4172 -1.0076 -0.3305
  726MOL0     H  130   8.592   0.687   7.750  2.4594  3.8155  1.5955
  726MOL0     H  131   8.750   0.581   7.945 -0.3065  0.7899  0.4029
  726MOL0     H  132   8.623   0.480   7.883  0.5826 -0.9526  0.1882
  726MOL0     H  133   8.926   0.491   7.787  2.0831 -1.9226  1.5759
  726MOL0     H  134   8.812   0.373   7.720 -1.3473  2.6647 -0.8842
  726MOL0     H  135   8.912   0.418   8.004  0.5458 -1.4314  0.3912
  726MOL0     H  136   8.816   0.282   7.961 -0.7461  0.1753 -1.4220
  726MOL0     H  137   9.133   0.453   7.878 -0.0397 -0.0161  2.0292
  726MOL0     H  138   9.392   0.279   7.741 -2.2140 -2.0647 -1.0325
  726MOL0     H  139   9.412   0.163   7.868 -1.2438 -0.1195  2.6739
  726MOL0     H  140   9.370   0.462   7.953  1.0530  0.0520  3.3621
  726MOL0     H  141   9.457   0.344   8.034  1.0948 -0.5764 -0.7090
  726MOL0     H  142   9.567   0.443   7.772 -2.0540  1.3546 -0.4476
  726MOL0     H  143   9.570   0.541   7.918 -2.0600  1.1068 -1.5992
  726MOL0     H  144   9.669   0.255   7.926  0.5073  0.5475  0.6581
  726MOL0     H  145   9.774   0.357   7.843  0.1582  2.7698  0.1286
  726MOL0     H  146   9.870   0.564   7.831  3.9788  3.8931 -2.1734
  726MOL0     H  147  10.071   0.835   7.835  2.1041 -0.3123  2.3744
  726MOL0     H  148   9.970   0.719   7.754  0.0730 -3.2162  1.1248
  726MOL0     H  149  10.143   0.679   7.772  1.3807 -0.1791  0.9541
  726MOL0     H  150  10.469   0.815   8.225 -0.1918 -0.3272 -0.2784
  726MOL0     H  151  10.611   0.990   8.258  1.0614 -2.5692 -1.5207
  726MOL0     H  152  10.671   1.281   7.942 -0.8492 -1.9282  1.1457
  726MOL0     H  153  10.570   1.368   8.075 -0.7646 -2.6290  3.0465
  726MOL0     H  154  10.869   1.323   8.078  0.6628  1.5264 -2.0178
  726MOL0     H  155  10.807   1.471   8.030  2.7105 -0.1700  0.7729
  726MOL0     H  156  10.864   1.448   8.290  1.2521 -1.0731 -1.7610
  726MOL0     H  157  10.710   1.372   8.311  1.2767 -2.9269 -0.9117
  726MOL0     H  158  10.606   1.575   8.199  0.1391 -0.8127 -0.2820
  726MOL0     H  159  10.764   1.642   8.186  1.7531 -2.0735  1.0848
  726MOL0     H  160  10.638   1.583   8.464 -1.8960 -0.8189 -2.0585
  726MOL0     H  161  10.783   1.688   8.423 -0.3400  1.9417  1.4457
  726MOL0     H  162  10.520   1.778   8.312 -0.4363 -4.0738 -0.7609
  726MOL0     H  163  10.668   1.859   8.331  2.3416 -1.3200  1.0768
  726MOL0     H  164  10.658   1.835   8.569  0.6236  2.3202 -2.1503
  726MOL0     H  165  10.497   1.753   8.565  0.8051 -2.5956 -1.0939
  726MOL0     H  166  10.558   2.047   8.491  1.2684 -0.3920  1.7485
  726MOL0     H  167  10.443   1.982   8.610  1.2333 -0.6527 -0.1558
  726MOL0     H  168  10.477   1.198   7.914  0.2850  0.7132  1.1857
  726MOL0     H  169  10.292   1.023   7.884 -0.6674  3.4516  0.4239
  726MOL0     H  170  10.080   0.610   8.286 -0.2357  2.0222  0.3264
  726MOL0     H  171   9.888   0.459   8.265 -1.7462  0.2878 -0.4766
  726MOL0     H  172   8.637   1.337   7.483 -0.2851  0.6484 -0.1116
  726MOL0     H  173   8.474   1.510   7.429  1.9641 -0.5059  1.9553
  726MOL0     H  174   8.053   1.598   7.230  2.5915 -1.7749  3.0709
  726MOL0     H  175   7.883   1.778   7.178 -1.9831 -0.0289  2.1870
  726MOL0     H  176   7.905   2.152   7.255 -1.0399  0.7365 -0.3235
  726MOL0     H  177   7.914   1.999   7.145  0.5738 -0.9195  1.2312
  726MOL0     H  178   7.691   2.186   7.232 -1.1093 -1.3729  0.0095
  726MOL0     H  179   7.656   2.053   7.133  2.6644 -1.6330 -2.3190
  726MOL0     H  180   7.810   2.305   7.066 -1.6501 -0.5092  1.3735
  726MOL0     H  181   7.841   2.154   6.968  1.6432  2.2277  0.1635
  726MOL0     H  182   7.583   2.146   6.915  0.5350  0.5414 -2.4322
  726MOL0     H  183   7.680   2.260   6.830 -1.2920  0.0220 -0.9249
  726MOL0     H  184   7.427   2.536   7.028 -1.0330 -0.6650  0.9238
  726MOL0     H  185   7.923   1.928   7.563 -3.6953 -2.5883  1.7433
  726MOL0     H  186   8.068   1.872   7.711 -1.3312 -2.9932  3.4099
  726MOL0     H  187   8.108   1.706   7.718 -1.1053  0.4901  0.3085
  726MOL0     H  188   8.223   1.815   7.654  0.1855 -0.0685 -0.1569
  727MOL0     O  189   6.693   2.146  10.342  0.1023 -0.4210  0.8664
  727MOL0     C  190   6.681   2.137  10.466 -1.6937 -0.5964  0.0969
  727MOL0     O  191   6.761   2.062  10.548  0.3190 -0.0205  0.4398
  727MOL0     C  192   6.894   2.032  10.518  0.1940  0.3764  0.0404
  727MOL0     C  193   6.989   2.114  10.462  1.1818  0.3145  0.9487
  727MOL0     C  194   7.122   2.077  10.450  0.1863 -0.3519 -0.8396
  727MOL0     C  195   7.160   1.952  10.501  0.0099  0.0813 -0.5133
  727MOL0     O  196   7.298   1.923  10.481  0.5513 -0.5807 -0.2048
  727MOL0     C  197   7.326   1.787  10.480 -0.2195 -0.6670 -0.1342
  727MOL0     C  198   7.477   1.780  10.451  0.5640 -0.3402  0.1083
  727MOL0     C  199   7.508   1.822  10.300 -0.1381  0.3839 -0.6706
  727MOL0     C  200   7.648   1.785  10.276 -0.5197  0.3993  0.8177
  727MOL0     C  201   7.692   1.807  10.127  0.6449  0.3583  0.4285
  727MOL0     C  202   7.836   1.816  10.081  0.1131  0.9826  1.0068
  727MOL0     C  203   7.895   1.679  10.037 -0.1481 -0.0702 -0.1788
  727MOL0     C  204   7.922   1.584  10.154 -0.3798 -0.1255 -1.5535
  727MOL0     N  205   7.982   1.455  10.111  0.3748  0.2637 -0.1188
  727MOL0     C  206   8.110   1.443  10.075  0.4663  0.6732 -0.6951
  727MOL0     C  207   8.122   1.306  10.058 -0.1286 -0.3884  0.5945
  727MOL0     C  208   8.242   1.220  10.038 -0.8419  0.0442  0.2499
  727MOL0     C  209   8.325   1.234  10.166 -0.2296 -0.4950  0.1488
  727MOL0     C  210   8.477   1.270  10.138  0.2544 -0.5212 -0.1077
  727MOL0     C  211   8.561   1.256  10.268  0.0546 -0.5939 -0.1924
  727MOL0     O  212   8.527   1.367  10.357 -0.7175 -0.5610 -0.1516
  727MOL0     C  213   8.588   1.376  10.480  0.7864  0.2146  0.9083
  727MOL0     C  214   8.645   1.270  10.542 -0.1114  0.0157 -1.4806
  727MOL0     C  215   8.694   1.286  10.674 -0.0850  0.7866 -1.0460
  727MOL0     C  216   8.770   1.171  10.736 -0.3022 -0.1086 -0.0784
  727MOL0     C  217   8.693   1.426  10.740  0.0236  0.5369  0.2332
  727MOL0     C  218   8.758   1.461  10.862  0.2601  0.5556  0.7381
  727MOL0     O  219   8.778   1.365  10.953  0.2776 -0.3806  0.5163
  727MOL0     C  220   8.877   1.386  11.043 -0.5463 -0.3616 -0.3780
  727MOL0     C  221   8.840   1.420  11.176 -0.6168  0.3610 -0.0873
  727MOL0     C  222   8.936   1.471  11.276  0.8506 -0.2979 -0.6004
  727MOL0     C  223   9.065   1.474  11.237 -0.7324  0.3849 -0.3879
  727MOL0     O  224   9.177   1.523  11.313  0.5158 -0.0432  0.8767
  727MOL0     C  225   9.157   1.564  11.456  0.0219 -0.3382  0.5086
  727MOL0     C  226   9.291   1.613  11.523  0.5447  0.5824  0.2993
  727MOL0     C  227   9.403   1.507  11.501  0.1769 -0.5329 -0.0006
  727MOL0     C  228   9.512   1.533  11.607  0.8712 -0.0520  0.1440
  727MOL0     C  229   9.636   1.449  11.592  0.1892 -0.6903  0.2660
  727MOL0     C  230   9.726   1.527  11.488  0.3666 -0.1917  0.3129
  727MOL0     C  231   9.854   1.444  11.458  0.7883 -0.9218  0.4195
  727MOL0     C  232   9.895   1.484  11.306  0.1259  0.1188 -0.8881
  727MOL0    Cl  233   9.907   1.663  11.279  0.2034 -0.5184  0.4826
  727MOL0     C  234   9.102   1.427  11.116  0.7638 -1.6725 -0.1995
  727MOL0     C  235   9.012   1.397  11.018 -0.1241  1.6548 -0.6537
  727MOL0     O  236   8.777   1.583  10.879 -0.5734 -0.7375 -0.0014
  727MOL0     C  237   8.614   1.524  10.673  0.4733  0.9430  0.0404
  727MOL0     C  238   8.556   1.495  10.544  0.0903 -0.1440 -0.0848
  727MOL0     N  239   7.996   1.251  10.085  1.2008 -0.1637  0.0909
  727MOL0     N  240   7.911   1.341  10.109 -0.4401 -0.6135 -0.0357
  727MOL0     C  241   7.069   1.877  10.570  0.3554  0.0947 -0.2488
  727MOL0     C  242   6.935   1.914  10.575  0.4723  0.4949 -0.1184
  727MOL0     C  243   6.560   2.191  10.527  0.0475 -0.0207  0.9718
  727MOL0     C  244   6.503   2.110  10.631 -0.1147 -0.2027 -0.1652
  727MOL0     C  245   6.398   2.155  10.706  0.1832  0.3675  0.1381
  727MOL0     C  246   6.342   2.288  10.674  0.1325  0.4545  0.8733
  727MOL0     O  247   6.243   2.364  10.725  0.5339  0.3683 -1.0621
  727MOL0     C  248   6.187   2.309  10.848 -0.3477  0.8328  0.8713
  727MOL0     C  249   6.266   2.330  10.973  0.0628 -0.5114 -0.5448
  727MOL0     C  250   6.191   2.269  11.089 -0.0333 -0.0649 -0.0615
  727MOL0     C  251   6.248   2.302  11.235 -0.4806 -0.6783  0.4623
  727MOL0     C  252   6.168   2.238  11.343  0.1463 -0.2569 -0.1541
  727MOL0     C  253   6.083   2.215  11.429  0.1539  1.1985  0.8119
  727MOL0     C  254   6.394   2.360  10.563  1.1931 -0.0871 -1.5924
  727MOL0     C  255   6.499   2.314  10.494 -0.0595 -0.8379 -0.4248
  727MOL0     C  256   6.549   2.402  10.378 -0.0569  0.2581  0.4824
  727MOL0     H  257   6.942   2.207  10.434 -0.6002 -1.2259 -1.6347
  727MOL0     H  258   7.209   2.131  10.415  0.5045 -0.8508 -0.8235
  727MOL0     H  259   7.264   1.735  10.408 -0.0097 -1.0577 -0.0380
  727MOL0     H  260   7.310   1.745  10.580 -1.4986  2.8722  1.3324
  727MOL0     H  261   7.530   1.846  10.519  2.5501 -0.4771 -1.2249
  727MOL0     H  262   7.510   1.679  10.475 -0.0525 -0.5314  0.1805
  727MOL0     H  263   7.451   1.765  10.226  0.2670 -0.3781 -0.4037
  727MOL0     H  264   7.488   1.928  10.280 -2.2363  0.1646  0.0201
  727MOL0     H  265   7.712   1.828  10.353 -0.8450 -1.7992  2.4138
  727MOL0     H  266   7.652   1.676  10.285 -0.5498  0.2675 -0.6025
  727MOL0     H  267   7.663   1.911  10.107  2.3124  0.7084 -0.3241
  727MOL0     H  268   7.626   1.741  10.069 -2.2296  1.4185  2.2725
  727MOL0     H  269   7.842   1.870   9.986 -0.0044 -2.4035 -1.1046
  727MOL0     H  270   7.900   1.871  10.150  0.0162  2.7652 -0.2551
  727MOL0     H  271   7.996   1.697   9.999  0.8125 -0.4518  2.0513
  727MOL0     H  272   7.826   1.637   9.962 -0.3798 -2.0738  1.0864
  727MOL0     H  273   7.988   1.638  10.222 -0.7420  0.1704 -1.4352
  727MOL0     H  274   7.824   1.566  10.201  1.6784 -0.5645  3.1174
  727MOL0     H  275   8.185   1.521  10.074  1.6985 -0.4924 -1.0247
  727MOL0     H  276   8.296   1.243   9.946 -2.3290 -2.8626 -1.4994
  727MOL0     H  277   8.222   1.113  10.026  1.7336 -0.6510  1.4106
  727MOL0     H  278   8.277   1.309  10.229 -5.2317 -2.2863 -1.0755
  727MOL0     H  279   8.333   1.132  10.204  0.1901 -1.3210 -2.0132
  727MOL0     H  280   8.514   1.194  10.069 -2.1888 -1.8014 -0.1401
  727MOL0     H  281   8.486   1.372  10.099  2.9334 -1.0544 -1.0987
  727MOL0     H  282   8.532   1.160  10.312 -2.7930 -0.7459 -2.1395
  727MOL0     H  283   8.670   1.266  10.259  0.4087 -2.2404  1.4983
  727MOL0     H  284   8.651   1.168  10.503 -0.6671 -0.8573  0.5728
  727MOL0     H  285   8.726   1.085  10.685 -0.6791  0.3246 -0.4907
  727MOL0     H  286   8.749   1.156  10.842  1.5985  3.2418  0.9578
  727MOL0     H  287   8.878   1.175  10.720 -0.2129  1.2351  0.6101
  727MOL0     H  288   8.732   1.424  11.191 -1.0363  2.4864 -2.8118
  727MOL0     H  289   8.910   1.505  11.375  1.0063 -1.4139 -0.1695
  727MOL0     H  290   9.079   1.640  11.460  0.5071  0.1243  3.6809
  727MOL0     H  291   9.128   1.473  11.509  0.6392 -0.1154  1.2443
  727MOL0     H  292   9.316   1.709  11.478 -0.4712  1.5212  1.6889
  727MOL0     H  293   9.272   1.637  11.628 -0.8858 -0.8387  0.4169
  727MOL0     H  294   9.434   1.511  11.396  0.1564  3.2827 -0.0098
  727MOL0     H  295   9.363   1.409  11.525  0.8865 -1.1526 -1.2499
  727MOL0     H  296   9.472   1.508  11.705  2.1873  0.3924  0.8102
  727MOL0     H  297   9.529   1.641  11.612  0.5445  0.0654 -1.0008
  727MOL0     H  298   9.690   1.447  11.687 -0.3355 -2.0349  0.5572
  727MOL0     H  299   9.608   1.345  11.576  0.5479 -0.5314 -1.6939
  727MOL0     H  300   9.754   1.624  11.528 -0.1700 -0.0698  0.4069
  727MOL0     H  301   9.663   1.551  11.401  2.5485  3.8909 -0.3625
  727MOL0     H  302   9.837   1.336  11.466 -0.1112 -0.9188 -1.0239
  727MOL0     H  303   9.933   1.478  11.525 -0.9612  2.4303  0.9867
  727MOL0     H  304   9.828   1.433  11.236  0.9346  0.9952 -2.3488
  727MOL0     H  305   9.991   1.436  11.286  0.4117  0.0694  0.5085
  727MOL0     H  306   9.210   1.432  11.107  1.0931 -1.6855  2.7457
  727MOL0     H  307   9.038   1.368  10.917 -0.8498 -0.4027 -0.2982
  727MOL0     H  308   8.604   1.623  10.715 -3.2335  0.5918  0.3206
  727MOL0     H  309   8.509   1.576  10.489  1.8420 -0.2769 -1.9085
  727MOL0     H  310   7.092   1.781  10.616  1.8149  1.1348  1.3378
  727MOL0     H  311   6.864   1.851  10.630  0.9430 -3.4954 -3.5774
  727MOL0     H  312   6.540   2.012  10.660 -0.3045 -0.0131  0.7525
  727MOL0     H  313   6.344   2.095  10.779 -0.5629  1.6144  0.6354
  727MOL0     H  314   6.094   2.364  10.868 -2.2294 -1.4188 -1.1416
  727MOL0     H  315   6.169   2.201  10.848  0.4202  0.7037  0.9788
  727MOL0     H  316   6.280   2.438  10.982 -0.1631 -0.1065 -3.6799
  727MOL0     H  317   6.362   2.279  10.963 -0.3415 -2.0447  2.4403
  727MOL0     H  318   6.084   2.294  11.093  0.3602  1.8459 -0.7922
  727MOL0     H  319   6.200   2.161  11.070 -1.8151 -0.0515 -1.2318
  727MOL0     H  320   6.237   2.409  11.252  0.6192 -0.4833 -0.0189
  727MOL0     H  321   6.354   2.276  11.233  0.5755  2.9593 -2.9357
  727MOL0     H  322   6.014   2.203  11.511  0.8495  0.4033  1.2989
  727MOL0     H  323   6.346   2.455  10.543  1.4757  1.5074  3.7708
  727MOL0     H  324   6.598   2.491  10.419  0.7581  1.0536 -2.0426
  727MOL0     H  325   6.614   2.350  10.307  0.9232  3.7846 -1.4614
  727MOL0     H  326   6.470   2.446  10.317 -0.0856  0.7084  0.8363
  728MOL0     O  327   2.689   3.563   8.012 -0.5560  0.3724 -0.9810
  728MOL0     C  328   2.633   3.456   7.983 -0.1748  0.4121 -0.0717
  728MOL0     O  329   2.697   3.350   7.926  0.0735  0.3075  0.4920
  728MOL0     C  330   2.822   3.327   7.978  0.1004 -0.1517 -0.3792
  728MOL0     C  331   2.834   3.227   8.069 -0.2368  0.8400 -0.4833
  728MOL0     C  332   2.967   3.190   8.102  0.1816  0.2472 -0.4241
  728MOL0     C  333   3.079   3.263   8.065 -0.0927  1.1139  0.8706
  728MOL0     O  334   3.201   3.244   8.122  0.7488  0.9172  0.4316
  728MOL0     C  335   3.234   3.113   8.158 -0.3249 -0.0325 -0.2964
  728MOL0     C  336   3.393   3.097   8.177 -0.3214  0.5789 -0.2157
  728MOL0     C  337   3.471   3.210   8.246  0.1358  0.1619 -0.3062
  728MOL0     C  338   3.433   3.226   8.386  0.2393 -1.0809 -0.0579
  728MOL0     C  339   3.508   3.332   8.476 -0.0434 -0.6581  0.0000
  728MOL0     C  340   3.584   3.258   8.587 -0.0243  0.1471 -1.2391
  728MOL0     C  341   3.669   3.350   8.669 -0.0117  0.2683 -0.5757
  728MOL0     C  342   3.750   3.275   8.777 -0.1112  1.5082  0.2864
  728MOL0     N  343   3.830   3.337   8.880  0.3417 -0.2139  0.0767
  728MOL0     C  344   3.778   3.395   8.987 -0.3729 -0.0286 -0.1523
  728MOL0     C  345   3.882   3.445   9.063 -0.1003  0.6975  0.4888
  728MOL0     C  346   3.863   3.530   9.195 -0.0475 -0.3890 -0.0644
  728MOL0     C  347   3.997   3.566   9.270 -0.2439  0.4319 -0.6098
  728MOL0     C  348   4.052   3.698   9.219  0.5314 -0.4094  0.2301
  728MOL0     C  349   4.030   3.818   9.316 -0.5885 -0.2965  0.1867
  728MOL0     O  350   3.896   3.869   9.310  0.3766 -0.0629 -0.3582
  728MOL0     C  351   3.869   3.991   9.378 -0.4029 -0.1887 -0.4826
  728MOL0     C  352   3.958   4.074   9.437 -0.2694  0.2947 -0.1970
  728MOL0     C  353   3.920   4.205   9.490  0.5338  0.9366  0.5817
  728MOL0     C  354   4.034   4.289   9.541 -0.0722  0.3176  0.7806
  728MOL0     C  355   3.778   4.236   9.507  0.2895 -0.4630 -0.4498
  728MOL0     C  356   3.729   4.354   9.578 -1.0546  1.1980  1.1801
  728MOL0     O  357   3.605   4.375   9.556  0.9044 -0.6512  0.2065
  728MOL0     C  358   3.525   4.476   9.598 -0.8128 -0.7623 -0.3903
  728MOL0     C  359   3.549   4.577   9.694 -0.6859 -0.7253 -1.2754
  728MOL0     C  360   3.454   4.677   9.722 -0.1012  1.0182 -0.0947
  728MOL0     C  361   3.333   4.674   9.658 -0.3875  0.1248  1.1131
  728MOL0     O  362   3.233   4.759   9.685 -0.6894  0.6535 -0.0864
  728MOL0     C  363   3.126   4.761   9.595 -0.1904  0.2367 -0.3794
  728MOL0     C  364   3.162   4.827   9.463 -0.2918  0.0418  0.4820
  728MOL0     C  365   3.053   4.812   9.360  0.1963 -0.8840 -0.6606
  728MOL0     C  366   3.084   4.875   9.224  0.6188 -0.1549  0.2621
  728MOL0     C  367   2.963   4.838   9.133  0.0319  0.2788  1.1567
  728MOL0     C  368   2.984   4.851   8.986  1.0716 -1.3286  0.0993
  728MOL0     C  369   2.862   4.811   8.902  0.4058  0.5314 -0.3377
  728MOL0     C  370   2.735   4.906   8.901  0.1039  0.0019 -0.0202
  728MOL0    Cl  371   2.775   5.075   8.877  0.0368 -0.0347 -0.0690
  728MOL0     C  372   3.313   4.581   9.557 -1.3536  0.4785 -0.3380
  728MOL0     C  373   3.406   4.482   9.529  0.1896  0.5245 -0.2780
  728MOL0     O  374   3.808   4.439   9.627  0.0272  0.0070  0.1089
  728MOL0     C  375   3.690   4.143   9.451  0.3714  0.2265 -0.2431
  728MOL0     C  376   3.735   4.027   9.380  0.1858  0.3610 -0.6816
  728MOL0     N  377   4.000   3.386   9.009 -0.0765 -1.6290  0.2608
  728MOL0     N  378   3.968   3.324   8.902  0.0582  0.1515  0.2349
  728MOL0     C  379   3.059   3.362   7.975  0.2892 -0.9192 -0.0898
  728MOL0     C  380   2.929   3.393   7.924 -0.9952 -0.2800 -0.1593
  728MOL0     C  381   2.490   3.445   8.020 -0.6862 -1.4611 -0.5331
  728MOL0     C  382   2.427   3.319   7.992 -0.5905  0.5072 -0.9183
  728MOL0     C  383   2.297   3.298   8.017  1.5362 -0.1402 -0.2066
  728MOL0     C  384   2.216   3.391   8.079 -0.0955 -0.6099 -0.3243
  728MOL0     O  385   2.086   3.354   8.112 -0.0078 -0.0622 -0.0852
  728MOL0     C  386   2.028   3.401   8.233 -0.2185 -0.0200  0.7988
  728MOL0     C  387   1.924   3.302   8.291  0.1403 -0.5398  0.8352
  728MOL0     C  388   1.983   3.152   8.265  0.6214 -0.1841  0.2885
  728MOL0     C  389   1.915   3.055   8.351 -0.4708 -0.0803  0.7607
  728MOL0     C  390   1.882   3.089   8.490  0.0222  0.2019  1.2585
  728MOL0     C  391   1.869   3.118   8.609  0.1967 -0.6145 -0.1677
  728MOL0     C  392   2.270   3.520   8.107 -0.9637  0.6402 -0.1137
  728MOL0     C  393   2.405   3.544   8.075  0.1590 -0.4082 -0.3214
  728MOL0     C  394   2.454   3.675   8.126  0.3303  0.5527 -0.0363
  728MOL0     H  395   2.747   3.174   8.105  0.1130  1.4625  1.3814
  728MOL0     H  396   2.975   3.108   8.173 -1.3289  2.1029  2.0254
  728MOL0     H  397   3.196   3.037   8.088 -6.3724  3.1433 -1.1861
  728MOL0     H  398   3.195   3.101   8.260 -0.2072 -1.4573 -0.3957
  728MOL0     H  399   3.417   3.002   8.226  0.6655 -0.3256 -2.3241
  728MOL0     H  400   3.435   3.090   8.076 -0.6892 -5.7111 -0.2996
  728MOL0     H  401   3.579   3.193   8.235 -0.1211 -0.3703 -2.4828
  728MOL0     H  402   3.451   3.300   8.187  2.0618 -1.2117 -3.2998
  728MOL0     H  403   3.328   3.255   8.388  0.5474  0.0171  1.2077
  728MOL0     H  404   3.442   3.130   8.438  0.5199 -2.4330 -2.4596
  728MOL0     H  405   3.435   3.398   8.523 -1.4252 -1.4450 -0.9561
  728MOL0     H  406   3.572   3.404   8.425 -0.6535 -0.7885 -0.9926
  728MOL0     H  407   3.519   3.202   8.654  1.6350  1.4531  1.6537
  728MOL0     H  408   3.642   3.176   8.545  1.4663 -1.3955  3.2877
  728MOL0     H  409   3.614   3.426   8.726  3.6266  2.7794 -0.0232
  728MOL0     H  410   3.732   3.413   8.605  0.1818 -0.0981 -0.7475
  728MOL0     H  411   3.671   3.217   8.825 -3.0752  2.0580 -3.4578
  728MOL0     H  412   3.818   3.206   8.726 -0.6848 -1.8777  3.6997
  728MOL0     H  413   3.672   3.409   9.005  0.1762  0.9035  2.9134
  728MOL0     H  414   3.794   3.468   9.253 -4.2700  0.3317 -3.7910
  728MOL0     H  415   3.811   3.618   9.156  3.6681  1.1269 -2.1569
  728MOL0     H  416   3.981   3.559   9.378 -3.1686 -3.6918 -1.1082
  728MOL0     H  417   4.074   3.490   9.253  0.1719  0.1205  2.1878
  728MOL0     H  418   4.160   3.685   9.217  0.3576 -2.3304  0.8080
  728MOL0     H  419   4.014   3.716   9.118 -0.8909 -0.3190  0.7495
  728MOL0     H  420   4.051   3.789   9.420 -1.2979  0.4570  0.5571
  728MOL0     H  421   4.096   3.898   9.282 -0.3023 -0.8460 -0.5614
  728MOL0     H  422   4.062   4.050   9.455 -1.0925 -2.9756  0.8261
  728MOL0     H  423   4.024   4.397   9.527  2.7387  0.5308 -0.2267
  728MOL0     H  424   4.124   4.271   9.482 -0.8216 -1.0847  0.0020
  728MOL0     H  425   4.054   4.270   9.647  4.1432 -2.8956 -0.3137
  728MOL0     H  426   3.634   4.562   9.760 -1.4597  1.1007  0.2299
  728MOL0     H  427   3.467   4.750   9.801 -0.0115 -0.1146  0.9613
  728MOL0     H  428   3.070   4.668   9.580 -1.0512  0.6484  0.2212
  728MOL0     H  429   3.055   4.831   9.639 -0.4337 -0.5756  0.5771
  728MOL0     H  430   3.181   4.932   9.484 -0.5755 -0.1788  1.9941
  728MOL0     H  431   3.253   4.782   9.422 -0.1276 -0.2558  1.1500
  728MOL0     H  432   2.981   4.878   9.408  1.7839  1.7977 -1.7409
  728MOL0     H  433   3.023   4.707   9.348 -1.1673 -0.6605  0.5492
  728MOL0     H  434   3.169   4.818   9.184 -0.2655 -1.3533  0.0300
  728MOL0     H  435   3.110   4.981   9.231  0.5647 -0.1924  1.1714
  728MOL0     H  436   2.940   4.731   9.144  2.8604 -0.5346  0.0093
  728MOL0     H  437   2.866   4.876   9.168 -0.0921 -2.0078  3.7118
  728MOL0     H  438   3.069   4.783   8.968  2.1543  0.2997 -1.2063
  728MOL0     H  439   3.007   4.955   8.963 -0.1975 -1.3597 -1.4723
  728MOL0     H  440   2.827   4.714   8.935 -0.8983  0.4564 -1.7926
  728MOL0     H  441   2.893   4.798   8.797  1.1574 -0.9130  0.0409
  728MOL0     H  442   2.709   4.911   9.007  4.0989  0.4003  1.1225
  728MOL0     H  443   2.650   4.869   8.843 -0.6917  2.0591 -0.2501
  728MOL0     H  444   3.234   4.562   9.485 -0.9572 -2.0376 -0.2096
  728MOL0     H  445   3.374   4.416   9.449 -3.1459  0.0543  1.2969
  728MOL0     H  446   3.583   4.142   9.466  0.4096 -1.6712  0.1061
  728MOL0     H  447   3.663   3.967   9.326 -0.4925  1.0536 -0.5659
  728MOL0     H  448   3.151   3.415   7.952 -1.4088  3.3409  1.8495
  728MOL0     H  449   2.903   3.469   7.852 -0.1801  0.8454  0.6843
  728MOL0     H  450   2.479   3.235   7.947  1.1202  0.3577  1.1755
  728MOL0     H  451   2.242   3.208   7.992 -0.9494  1.2026  0.1808
  728MOL0     H  452   2.106   3.408   8.309 -0.8224 -0.1104  1.4305
  728MOL0     H  453   1.986   3.502   8.227  1.2391  0.6623  1.7078
  728MOL0     H  454   1.827   3.315   8.242 -0.1906 -0.5013  1.4884
  728MOL0     H  455   1.916   3.324   8.398 -0.2098 -0.5198  0.8091
  728MOL0     H  456   1.960   3.122   8.162 -1.4817  1.6210  0.1700
  728MOL0     H  457   2.091   3.146   8.279  0.7852  1.2913 -0.1022
  728MOL0     H  458   1.986   2.972   8.343  1.5939  1.7469 -1.2258
  728MOL0     H  459   1.819   3.030   8.305  0.1024 -0.2752 -0.3603
  728MOL0     H  460   1.854   3.133   8.715  1.4277  2.0133 -0.2742
  728MOL0     H  461   2.204   3.599   8.144 -0.9994  2.2314 -3.2056
  728MOL0     H  462   2.484   3.724   8.032 -3.0351 -0.6056 -1.8774
  728MOL0     H  463   2.378   3.745   8.161  0.3587  0.4264  0.2825
  728MOL0     H  464   2.548   3.662   8.181  0.9801 -1.3271 -1.4579
  729MOL0     O  465   7.734   1.830   4.980 -1.3018  0.6403 -1.0431
  729MOL0     C  466   7.704   1.938   5.040 -0.8104 -0.2044  0.8926
  729MOL0     O  467   7.701   2.059   4.972 -0.4728  0.2127 -0.2689
  729MOL0     C  468   7.704   2.054   4.839  0.1538  0.6499  0.0398
  729MOL0     C  469   7.818   2.084   4.778  0.0904 -0.5795  0.0861
  729MOL0     C  470   7.832   2.094   4.642  0.1084  0.2755  0.5887
  729MOL0     C  471   7.719   2.070   4.564 -0.1447  0.1897 -0.4908
  729MOL0     O  472   7.733   2.104   4.432 -0.0928 -0.3027  0.0427
  729MOL0     C  473   7.640   2.051   4.344  0.7748  0.7873 -0.2610
  729MOL0     C  474   7.682   2.093   4.201  0.3844 -0.0053 -0.1109
  729MOL0     C  475   7.554   2.059   4.109 -0.1742  0.0594 -0.4642
  729MOL0     C  476   7.588   2.132   3.981 -0.4523  0.1666 -0.3894
  729MOL0     C  477   7.478   2.094   3.881  0.4302  0.2873 -0.1520
  729MOL0     C  478   7.513   1.946   3.837  0.3746 -0.0435  1.3234
  729MOL0     C  479   7.423   1.900   3.722  0.6028  0.5320 -0.2541
  729MOL0     C  480   7.449   1.754   3.680 -0.0702 -0.2447 -0.1195
  729MOL0     N  481   7.331   1.704   3.602  0.2286  0.3587 -0.2800
  729MOL0     C  482   7.281   1.767   3.493  0.0044 -0.4844  0.1682
  729MOL0     C  483   7.168   1.697   3.472 -0.6958  0.9266  0.2573
  729MOL0     C  484   7.058   1.718   3.373 -0.4837 -0.0820 -0.3223
  729MOL0     C  485   7.110   1.677   3.234  0.6058  0.0297  0.4179
  729MOL0     C  486   6.988   1.696   3.132 -0.2039  0.1612 -0.9223
  729MOL0     C  487   7.013   1.667   2.989  0.4265  0.4194  0.5321
  729MOL0     O  488   7.012   1.528   2.958  0.2328 -0.0094  0.6991
  729MOL0     C  489   7.124   1.472   2.901  0.1358 -0.0365 -0.1560
  729MOL0     C  490   7.103   1.359   2.817  0.0601 -0.9534  0.1729
  729MOL0     C  491   7.206   1.287   2.754  0.3681 -0.3612 -0.1282
  729MOL0     C  492   7.183   1.171   2.670  0.2561  0.3903 -0.3616
  729MOL0     C  493   7.343   1.324   2.779  0.2969 -0.0229 -0.8626
  729MOL0     C  494   7.460   1.250   2.729 -1.0005  0.5499  0.5353
  729MOL0     O  495   7.455   1.212   2.604 -0.1553  0.7129 -0.9122
  729MOL0     C  496   7.542   1.122   2.542  1.0405 -0.1341 -0.3271
  729MOL0     C  497   7.683   1.132   2.553 -0.2501  0.1227  0.3665
  729MOL0     C  498   7.771   1.044   2.488  0.2607  1.0314  0.5266
  729MOL0     C  499   7.720   0.924   2.438 -0.6360 -0.0863 -1.1737
  729MOL0     O  500   7.809   0.830   2.386  0.1923  0.8248  0.6316
  729MOL0     C  501   7.765   0.693   2.394 -0.3888  0.0075  0.0818
  729MOL0     C  502   7.888   0.614   2.436 -0.7565  1.2009  0.2818
  729MOL0     C  503   7.933   0.635   2.580  0.1591  0.0085  0.1053
  729MOL0     C  504   8.030   0.528   2.617  0.0085  0.1696 -0.6743
  729MOL0     C  505   8.060   0.549   2.765  0.3143 -0.4386  0.4473
  729MOL0     C  506   8.192   0.487   2.803  0.0824 -0.1193 -0.6177
  729MOL0     C  507   8.197   0.480   2.961  0.4500 -0.4447  0.1120
  729MOL0     C  508   8.342   0.486   3.005  0.0581 -1.0376 -0.4398
  729MOL0    Cl  509   8.455   0.372   2.928 -0.0070 -0.8333  0.2840
  729MOL0     C  510   7.576   0.914   2.427  0.3303 -0.1123 -0.7980
  729MOL0     C  511   7.493   1.014   2.475 -1.5242 -0.1643 -0.3609
  729MOL0     O  512   7.548   1.225   2.805 -0.4618  0.1769  0.5184
  729MOL0     C  513   7.358   1.440   2.858  0.7922 -0.3928  0.1515
  729MOL0     C  514   7.251   1.523   2.909 -0.5424  0.4199 -0.2771
  729MOL0     N  515   7.171   1.581   3.552  0.5106  0.6456  0.7271
  729MOL0     N  516   7.273   1.584   3.634 -0.8232  0.7214 -0.1245
  729MOL0     C  517   7.597   2.033   4.623  0.1041 -0.3691  0.3877
  729MOL0     C  518   7.579   2.037   4.763 -0.5357  0.8559 -0.6162
  729MOL0     C  519   7.674   1.935   5.189  0.1629  0.0586 -0.2902
  729MOL0     C  520   7.714   1.817   5.264  0.6878  0.3169  1.4596
  729MOL0     C  521   7.698   1.797   5.397  0.6495 -0.7499 -0.0282
  729MOL0     C  522   7.632   1.897   5.467 -0.8323 -0.1317  0.3198
  729MOL0     O  523   7.624   1.901   5.608 -0.5996 -0.6610 -0.2066
  729MOL0     C  524   7.699   1.804   5.678  0.5983 -0.4132 -0.2796
  729MOL0     C  525   7.843   1.835   5.674  0.3737 -0.1355  0.7587
  729MOL0     C  526   7.931   1.770   5.787  0.2297 -0.0116  0.4296
  729MOL0     C  527   7.934   1.623   5.771  0.4925 -0.2995 -0.3228
  729MOL0     C  528   8.029   1.563   5.869 -1.0207  1.1140  0.1962
  729MOL0     C  529   8.104   1.508   5.948 -1.3668  0.9044 -0.3574
  729MOL0     C  530   7.590   2.011   5.400 -0.1678 -0.0560 -0.2345
  729MOL0     C  531   7.596   2.026   5.259  0.0399  0.0847 -0.0644
  729MOL0     C  532   7.528   2.139   5.187  0.5359 -0.1219  0.5824
  729MOL0     H  533   7.895   2.107   4.851 -3.6620  1.0669  3.9454
  729MOL0     H  534   7.926   2.124   4.596 -0.6509  2.0020  0.0622
  729MOL0     H  535   7.546   2.105   4.364  1.4144  2.4261 -1.4020
  729MOL0     H  536   7.628   1.943   4.349  2.1181  0.5934 -0.8859
  729MOL0     H  537   7.714   2.198   4.201 -0.3264  0.2657 -1.9481
  729MOL0     H  538   7.768   2.032   4.170  0.7585  0.3011  0.3195
  729MOL0     H  539   7.543   1.950   4.110  1.3207 -0.1113 -0.5769
  729MOL0     H  540   7.459   2.102   4.144 -0.5166  0.9963 -2.4074
  729MOL0     H  541   7.601   2.239   4.002 -4.4167  0.8518 -0.7137
  729MOL0     H  542   7.685   2.092   3.951 -0.0337 -0.0565  1.1872
  729MOL0     H  543   7.476   2.154   3.790  1.6846 -0.4713 -0.7036
  729MOL0     H  544   7.382   2.086   3.933  0.5883 -2.4579 -0.0985
  729MOL0     H  545   7.618   1.939   3.809 -0.9665 -2.0351 -4.6401
  729MOL0     H  546   7.497   1.880   3.923 -0.4149 -1.5290  0.0781
  729MOL0     H  547   7.432   1.961   3.632  0.8381 -1.5805 -1.7243
  729MOL0     H  548   7.318   1.908   3.752 -0.2570 -4.9132 -0.8286
  729MOL0     H  549   7.538   1.757   3.617 -0.1982  3.3729 -0.3497
  729MOL0     H  550   7.467   1.694   3.770  0.1725  1.9382  1.3655
  729MOL0     H  551   7.317   1.855   3.441 -0.1245 -0.7066 -0.3049
  729MOL0     H  552   7.026   1.822   3.379  1.7445  0.6084  1.1484
  729MOL0     H  553   6.969   1.664   3.406  0.3635  0.7428  3.9553
  729MOL0     H  554   7.189   1.745   3.202 -0.5616  0.7887 -1.0172
  729MOL0     H  555   7.133   1.570   3.231 -2.0825 -0.6333  0.1444
  729MOL0     H  556   6.906   1.631   3.164  1.1154  0.1620  2.9831
  729MOL0     H  557   6.944   1.796   3.132 -2.9020 -0.9246 -0.7590
  729MOL0     H  558   6.919   1.700   2.944  0.4846  0.1757  0.2245
  729MOL0     H  559   7.098   1.724   2.949 -0.3858  0.9256 -0.5119
  729MOL0     H  560   7.001   1.329   2.799 -0.4623  0.9730 -0.2720
  729MOL0     H  561   7.235   1.084   2.712 -0.0423  0.5570  0.3608
  729MOL0     H  562   7.212   1.185   2.566  0.6003 -0.8352 -0.4523
  729MOL0     H  563   7.075   1.152   2.666  0.6825 -2.1714 -1.9611
  729MOL0     H  564   7.730   1.208   2.613 -0.1904  0.8033 -0.5372
  729MOL0     H  565   7.876   1.066   2.503  0.8446  1.4112 -3.2542
  729MOL0     H  566   7.678   0.674   2.458 -0.5161  0.2811 -0.0108
  729MOL0     H  567   7.755   0.658   2.291  3.2522  0.2907 -0.5160
  729MOL0     H  568   7.875   0.506   2.422 -2.6503  1.5307 -0.8074
  729MOL0     H  569   7.974   0.645   2.376  0.7820 -1.9728  0.5984
  729MOL0     H  570   7.852   0.636   2.653  0.0344 -2.9565  0.1539
  729MOL0     H  571   7.988   0.729   2.588  1.7429 -0.9366  0.7129
  729MOL0     H  572   8.115   0.507   2.551  2.3352 -1.7850  2.6777
  729MOL0     H  573   7.981   0.431   2.609  0.2865 -0.0922  0.6578
  729MOL0     H  574   8.077   0.657   2.774  1.3021 -0.2760 -2.3830
  729MOL0     H  575   7.979   0.511   2.828 -0.0443  1.6064  1.3336
  729MOL0     H  576   8.279   0.538   2.760  0.6857 -0.4430  0.1974
  729MOL0     H  577   8.203   0.384   2.768  0.6394 -0.0926 -0.5284
  729MOL0     H  578   8.145   0.389   2.991  1.6329 -0.5254  2.1182
  729MOL0     H  579   8.134   0.557   3.007 -1.7105 -1.1788 -1.4651
  729MOL0     H  580   8.337   0.483   3.114 -1.3355 -1.0799 -0.4788
  729MOL0     H  581   8.370   0.587   2.976 -2.4613 -1.0217 -3.3174
  729MOL0     H  582   7.527   0.824   2.392 -1.6016  0.6134 -0.0917
  729MOL0     H  583   7.387   1.010   2.454 -1.3371 -0.9190 -1.2478
  729MOL0     H  584   7.457   1.473   2.885  1.0113 -0.8485 -0.0753
  729MOL0     H  585   7.276   1.603   2.978  0.5658 -2.5210  3.0742
  729MOL0     H  586   7.508   2.027   4.561  0.4794  0.4542 -0.2469
  729MOL0     H  587   7.487   2.017   4.817 -0.4714 -2.4327 -1.4669
  729MOL0     H  588   7.770   1.738   5.216 -0.8847 -0.0413  0.1241
  729MOL0     H  589   7.735   1.707   5.445 -2.8148 -0.2183  4.2678
  729MOL0     H  590   7.673   1.818   5.783  2.7798 -0.7605  0.3649
  729MOL0     H  591   7.675   1.702   5.647  2.9852 -0.1685 -3.4217
  729MOL0     H  592   7.849   1.944   5.683 -0.2261 -0.0358  0.0184
  729MOL0     H  593   7.889   1.812   5.578 -1.8953 -1.4937 -0.0726
  729MOL0     H  594   8.029   1.818   5.779  0.9943 -1.7314 -1.5894
  729MOL0     H  595   7.894   1.792   5.887 -1.5555  0.0368 -0.2080
  729MOL0     H  596   7.972   1.586   5.675  1.4713 -4.5927  1.5242
  729MOL0     H  597   7.830   1.593   5.785  0.8669 -0.6058  2.1675
  729MOL0     H  598   8.159   1.455   6.023  1.4923 -2.4155 -4.3835
  729MOL0     H  599   7.533   2.080   5.462 -1.0587  0.6419 -1.7838
  729MOL0     H  600   7.468   2.102   5.103  2.0203 -0.0693 -0.5508
  729MOL0     H  601   7.458   2.194   5.251  1.1610 -1.0996  2.1594
  729MOL0     H  602   7.607   2.208   5.154  1.2593 -0.7138  1.0550
  730MOL0     O  603   3.304   3.697   8.533  0.2046 -0.1471 -1.0783
  730MOL0     C  604   3.286   3.609   8.608  0.6555  0.1553 -0.5908
  730MOL0     O  605   3.363   3.589   8.725 -0.9177  0.0390 -0.5558
  730MOL0     C  606   3.430   3.704   8.773 -0.1731  0.6001  0.0862
  730MOL0     C  607   3.526   3.782   8.710  0.2013  0.1646  0.1640
  730MOL0     C  608   3.593   3.886   8.774  0.2672  0.3370  0.1166
  730MOL0     C  609   3.549   3.927   8.904 -0.1312  1.0821  0.4108
  730MOL0     O  610   3.572   4.047   8.959 -0.8922 -0.3177 -0.4896
  730MOL0     C  611   3.701   4.095   8.968 -0.4945 -0.1502  0.1575
  730MOL0     C  612   3.686   4.241   9.006  0.5944  0.0665 -0.0737
  730MOL0     C  613   3.814   4.281   9.076  0.1951 -0.2153 -0.3909
  730MOL0     C  614   3.915   4.369   8.995 -0.0737 -0.0566 -0.2276
  730MOL0     C  615   4.002   4.472   9.086 -0.4196  0.1373  0.6487
  730MOL0     C  616   4.128   4.518   9.021  0.0882 -0.7162  0.4556
  730MOL0     C  617   4.097   4.627   8.910  0.5011 -0.4402  0.1987
  730MOL0     C  618   4.047   4.760   8.965  0.6265 -0.3168  0.1020
  730MOL0     N  619   4.142   4.819   9.051 -0.0409  0.5765 -0.1110
  730MOL0     C  620   4.223   4.923   9.035 -0.1655  0.1083 -0.0376
  730MOL0     C  621   4.273   4.956   9.153 -0.7465 -0.8049 -0.7875
  730MOL0     C  622   4.361   5.071   9.202  1.3184  0.6577 -0.3219
  730MOL0     C  623   4.274   5.179   9.273 -0.3254  0.3029  0.0699
  730MOL0     C  624   4.357   5.278   9.360 -0.1736 -0.6137  0.2763
  730MOL0     C  625   4.279   5.380   9.443 -0.2528 -0.0883  0.0161
  730MOL0     O  626   4.161   5.320   9.492 -0.6331  0.1553  0.8436
  730MOL0     C  627   4.063   5.399   9.547 -0.0838 -0.5186 -0.6460
  730MOL0     C  628   4.064   5.539   9.582  0.5421  1.2307 -0.3029
  730MOL0     C  629   3.950   5.608   9.624 -1.2172 -0.0690 -0.3931
  730MOL0     C  630   3.966   5.761   9.652  0.1127  0.0992 -0.7786
  730MOL0     C  631   3.830   5.543   9.648  0.1193 -0.5243  0.2950
  730MOL0     C  632   3.711   5.610   9.709  0.7642 -0.3898  0.3738
  730MOL0     O  633   3.598   5.582   9.631  0.7271  0.2669 -0.0953
  730MOL0     C  634   3.478   5.625   9.675 -0.4239  0.2542  0.3600
  730MOL0     C  635   3.427   5.593   9.804 -0.4205  0.3920  0.6331
  730MOL0     C  636   3.297   5.626   9.838  0.6413 -0.2402  0.2273
  730MOL0     C  637   3.209   5.677   9.746 -0.6196  1.0869  0.1530
  730MOL0     O  638   3.077   5.695   9.790  0.9534  0.0674  0.0781
  730MOL0     C  639   2.975   5.714   9.682  0.8193  0.3891 -0.5049
  730MOL0     C  640   2.958   5.580   9.609 -0.8555  0.2291  1.0031
  730MOL0     C  641   2.856   5.582   9.490 -0.3222  0.5001  0.0075
  730MOL0     C  642   2.724   5.505   9.516 -0.8021  0.5121  0.2530
  730MOL0     C  643   2.620   5.522   9.407  0.2064  0.5280  0.1010
  730MOL0     C  644   2.508   5.429   9.429  0.4319  0.0234 -0.5247
  730MOL0     C  645   2.539   5.279   9.388 -0.8055 -0.2514 -0.1683
  730MOL0     C  646   2.443   5.177   9.457 -0.4574 -0.0381  0.2206
  730MOL0    Cl  647   2.282   5.171   9.366 -0.4751 -0.0188 -0.1310
  730MOL0     C  648   3.261   5.708   9.617 -0.7918  0.6944 -0.3219
  730MOL0     C  649   3.402   5.686   9.588  0.2898 -0.6292  0.4782
  730MOL0     O  650   3.714   5.685   9.812 -0.7259  0.8094  0.3327
  730MOL0     C  651   3.820   5.410   9.614 -0.7534  0.5237  0.1093
  730MOL0     C  652   3.936   5.335   9.573 -0.5622 -0.3026 -0.6058
  730MOL0     N  653   4.233   4.868   9.243  0.3528 -0.5018  0.4530
  730MOL0     N  654   4.145   4.784   9.183  0.9331  0.6913  0.4589
  730MOL0     C  655   3.460   3.844   8.975 -0.9107 -0.0810 -0.1751
  730MOL0     C  656   3.404   3.732   8.907 -0.5574 -0.4384 -0.6018
  730MOL0     C  657   3.173   3.510   8.589  0.3454  0.4230 -0.2151
  730MOL0     C  658   3.114   3.441   8.697 -0.1000 -0.9300 -0.1669
  730MOL0     C  659   2.991   3.374   8.678  0.2837  0.0992  1.3000
  730MOL0     C  660   2.937   3.352   8.547 -0.5484 -0.1939 -0.2153
  730MOL0     O  661   2.820   3.281   8.557  0.2812  0.6765  0.6829
  730MOL0     C  662   2.756   3.261   8.430 -0.2032 -0.4536 -0.6191
  730MOL0     C  663   2.658   3.378   8.393 -0.8476 -0.4119  0.8716
  730MOL0     C  664   2.525   3.371   8.474  0.6145 -0.6015 -0.4058
  730MOL0     C  665   2.416   3.287   8.405  0.4387 -0.0929  0.4581
  730MOL0     C  666   2.294   3.280   8.489 -0.1836 -0.5702 -0.3779
  730MOL0     C  667   2.200   3.286   8.567 -0.1725  0.3032  0.5361
  730MOL0     C  668   3.007   3.401   8.435  0.7978 -0.6614  0.5685
  730MOL0     C  669   3.115   3.491   8.456  0.1807 -0.5884 -0.4114
  730MOL0     C  670   3.160   3.552   8.327 -0.0807  1.3806 -0.2771
  730MOL0     H  671   3.559   3.762   8.609  0.5105 -1.2546  0.5291
  730MOL0     H  672   3.656   3.937   8.702 -0.7736 -0.5987 -1.5198
  730MOL0     H  673   3.748   4.090   8.869  2.2185  0.2489  1.3210
  730MOL0     H  674   3.762   4.040   9.040 -1.1979  1.3421  1.9785
  730MOL0     H  675   3.660   4.296   8.915 -0.0648  1.6598  1.0235
  730MOL0     H  676   3.596   4.248   9.067 -0.1238 -0.5927 -1.0317
  730MOL0     H  677   3.772   4.341   9.157  3.3929  0.8529  0.6257
  730MOL0     H  678   3.865   4.194   9.118 -3.3224 -1.7992  1.0250
  730MOL0     H  679   3.968   4.300   8.929 -0.9580  0.5490 -1.6225
  730MOL0     H  680   3.865   4.437   8.925  1.1065  2.4649  1.2080
  730MOL0     H  681   4.021   4.406   9.170 -0.5902 -0.3980  0.2691
  730MOL0     H  682   3.936   4.554   9.119 -2.5548 -1.6030  0.9295
  730MOL0     H  683   4.212   4.551   9.083 -0.0177 -0.4011  0.4324
  730MOL0     H  684   4.182   4.439   8.968  0.2728 -1.4006  1.6374
  730MOL0     H  685   4.017   4.577   8.854 -0.8658 -1.3383  2.7750
  730MOL0     H  686   4.187   4.652   8.853  0.5958 -1.1419  0.0302
  730MOL0     H  687   4.016   4.832   8.888 -1.9759 -2.1096 -0.6566
  730MOL0     H  688   3.960   4.736   9.026  0.6799  0.6520  0.5667
  730MOL0     H  689   4.240   4.974   8.940 -1.4747  0.4571 -0.1082
  730MOL0     H  690   4.410   5.112   9.114  0.9778 -2.1799 -1.9359
  730MOL0     H  691   4.431   5.035   9.278  0.8413  1.9058  0.7469
  730MOL0     H  692   4.222   5.236   9.196  1.8152  1.1465 -0.8465
  730MOL0     H  693   4.219   5.116   9.343  2.9695 -3.3662 -0.3001
  730MOL0     H  694   4.413   5.217   9.432  1.8367 -0.3314 -0.9906
  730MOL0     H  695   4.436   5.325   9.300  0.2673 -1.8957 -0.1738
  730MOL0     H  696   4.346   5.402   9.526 -0.1481 -0.8408  0.1414
  730MOL0     H  697   4.265   5.468   9.379  1.5103  1.0457  1.1011
  730MOL0     H  698   4.159   5.592   9.576  3.6678 -3.5950  0.4558
  730MOL0     H  699   3.875   5.811   9.619  0.0135 -0.9234 -2.1149
  730MOL0     H  700   4.053   5.808   9.604  0.7885 -0.2115  0.1228
  730MOL0     H  701   3.966   5.783   9.759  0.6301  1.0690 -0.9649
  730MOL0     H  702   3.487   5.547   9.882 -0.8266  1.6041  1.6772
  730MOL0     H  703   3.276   5.599   9.941  1.4039  0.1526  0.4912
  730MOL0     H  704   2.872   5.730   9.716 -0.1810 -1.4996 -2.3937
  730MOL0     H  705   3.003   5.793   9.611  1.1917 -0.3575 -1.2057
  730MOL0     H  706   3.051   5.538   9.568 -1.4808  0.1988 -0.4432
  730MOL0     H  707   2.933   5.499   9.678  1.5224 -0.4542  1.1581
  730MOL0     H  708   2.900   5.556   9.393 -3.3779 -1.3862 -1.0412
  730MOL0     H  709   2.831   5.688   9.489  0.4565  0.8728  4.2162
  730MOL0     H  710   2.683   5.548   9.608  2.9864  4.8147  0.2709
  730MOL0     H  711   2.747   5.400   9.537 -0.7545  0.9806  2.9027
  730MOL0     H  712   2.580   5.622   9.422 -1.9769 -0.7131  3.5991
  730MOL0     H  713   2.670   5.507   9.311  0.4580  2.7393 -0.1504
  730MOL0     H  714   2.428   5.465   9.364  0.1510 -0.8595 -0.6751
  730MOL0     H  715   2.466   5.421   9.530 -0.7499  0.0667 -1.0030
  730MOL0     H  716   2.639   5.241   9.412 -0.5596 -1.4604 -2.8030
  730MOL0     H  717   2.540   5.264   9.280 -0.4294  0.6200 -0.2950
  730MOL0     H  718   2.433   5.211   9.561  1.9005 -2.2022  1.2781
  730MOL0     H  719   2.494   5.080   9.464  1.9650  1.1760  0.6007
  730MOL0     H  720   3.207   5.750   9.532  0.2024 -2.0728 -2.4960
  730MOL0     H  721   3.444   5.719   9.494  1.4785 -0.3212  1.1000
  730MOL0     H  722   3.735   5.344   9.606  0.3609 -0.7358 -2.6990
  730MOL0     H  723   3.930   5.228   9.556  3.7550 -0.3908 -3.2662
  730MOL0     H  724   3.450   3.875   9.079  1.5950 -1.1252  0.4640
  730MOL0     H  725   3.337   3.665   8.960 -0.3962 -1.0281 -1.1242
  730MOL0     H  726   3.161   3.454   8.794  0.7046  2.0099 -0.8287
  730MOL0     H  727   2.947   3.305   8.749 -1.6006  1.3559  1.4152
  730MOL0     H  728   2.835   3.239   8.356 -0.3022  0.3056 -0.9594
  730MOL0     H  729   2.690   3.174   8.434 -2.4282  1.1881  2.1686
  730MOL0     H  730   2.632   3.384   8.287  0.7004  3.2627  0.5349
  730MOL0     H  731   2.708   3.473   8.415  0.2055 -1.1947  1.9134
  730MOL0     H  732   2.551   3.332   8.572 -0.4586  0.3932  0.3108
  730MOL0     H  733   2.480   3.468   8.500  0.2395 -1.0777  0.7590
  730MOL0     H  734   2.442   3.184   8.378 -0.8037 -0.8169  1.9083
  730MOL0     H  735   2.394   3.340   8.312 -2.5617  0.3337  1.3116
  730MOL0     H  736   2.115   3.280   8.631 -2.7318  1.9020 -2.4313
  730MOL0     H  737   2.971   3.377   8.335 -2.2665  1.6002  0.9728
  730MOL0     H  738   3.106   3.505   8.244 -1.4699 -0.6130  1.6447
  730MOL0     H  739   3.146   3.660   8.338  3.4608  1.8165  1.6672
  730MOL0     H  740   3.267   3.540   8.304 -0.3553 -0.9665 -0.6465
  731MOL0     O  741   1.172   8.002   7.484  0.5848  0.4638  0.2863
  731MOL0     C  742   1.218   7.889   7.511  0.7686  0.1255  0.1170
  731MOL0     O  743   1.273   7.799   7.421  0.1573 -0.2468  0.4591
  731MOL0     C  744   1.304   7.842   7.296  0.2381  0.2824  0.8606
  731MOL0     C  745   1.205   7.877   7.200 -0.1920  0.0980 -0.0027
  731MOL0     C  746   1.249   7.912   7.069  0.1196  0.7824  0.4705
  731MOL0     C  747   1.389   7.929   7.038 -1.5998 -0.1626 -0.3462
  731MOL0     O  748   1.443   7.976   6.918 -0.4215 -0.0078  0.0927
  731MOL0     C  749   1.353   7.983   6.800 -0.3076 -0.4421 -0.0458
  731MOL0     C  750   1.448   7.981   6.679  0.1130  0.3812 -0.1131
  731MOL0     C  751   1.522   7.851   6.671  0.7522  0.5409  0.2171
  731MOL0     C  752   1.654   7.854   6.590 -0.4475 -0.8906  0.0338
  731MOL0     C  753   1.763   7.759   6.637  0.8414  1.4263 -1.3328
  731MOL0     C  754   1.850   7.834   6.741 -1.0217  0.3220 -0.1084
  731MOL0     C  755   1.970   7.740   6.776  0.3022  0.0038  0.0557
  731MOL0     C  756   2.080   7.799   6.866 -0.5335  1.0611  0.7813
  731MOL0     N  757   2.032   7.837   6.998  0.7366 -1.1971 -0.3424
  731MOL0     C  758   2.010   7.967   7.040 -0.1088  0.2002 -1.4641
  731MOL0     C  759   1.956   7.948   7.168 -0.0394 -0.0197 -0.2145
  731MOL0     C  760   1.913   8.060   7.251  0.0415 -0.3371  0.7358
  731MOL0     C  761   2.017   8.103   7.357  0.7977 -0.2087 -0.2155
  731MOL0     C  762   1.953   8.150   7.491 -0.0524 -0.1913  0.1452
  731MOL0     C  763   1.883   8.049   7.580  0.2809  0.0022 -1.0873
  731MOL0     O  764   1.839   8.103   7.705 -0.1149  0.2795  0.5591
  731MOL0     C  765   1.717   8.165   7.715  0.3008 -0.5333 -0.0658
  731MOL0     C  766   1.708   8.287   7.783 -0.2484  0.0342  0.5038
  731MOL0     C  767   1.600   8.373   7.785 -0.3315 -0.5355  0.0977
  731MOL0     C  768   1.598   8.486   7.878  0.5205  1.0869  0.2598
  731MOL0     C  769   1.486   8.325   7.720 -0.8414  0.5715 -0.0628
  731MOL0     C  770   1.359   8.410   7.709 -0.8126 -0.5742  0.4146
  731MOL0     O  771   1.257   8.363   7.782 -0.2975  0.4628 -0.2875
  731MOL0     C  772   1.144   8.435   7.799  0.7457  0.3827  0.6201
  731MOL0     C  773   1.110   8.470   7.931 -0.2796  0.1169  0.1879
  731MOL0     C  774   0.981   8.514   7.966 -0.0941 -0.0539  0.5818
  731MOL0     C  775   0.891   8.531   7.862  0.1185 -0.4186 -1.0908
  731MOL0     O  776   0.765   8.569   7.900 -0.2831 -0.5752  0.1078
  731MOL0     C  777   0.653   8.530   7.828  0.1840  0.0414 -0.8931
  731MOL0     C  778   0.529   8.558   7.913 -0.1200  0.3370  0.1703
  731MOL0     C  779   0.408   8.558   7.817 -0.2289 -0.7044  0.8930
  731MOL0     C  780   0.275   8.622   7.879 -0.1140 -0.4072 -0.0499
  731MOL0     C  781   0.157   8.612   7.774  0.9681 -0.2294  0.1616
  731MOL0     C  782   0.017   8.663   7.832  0.1884  0.3566  0.2929
  731MOL0     C  783  -0.090   8.648   7.723  0.0108  0.4196  1.1358
  731MOL0     C  784  -0.223   8.700   7.763  0.2051 -0.2808 -0.2842
  731MOL0    Cl  785  -0.338   8.556   7.772 -0.4128 -0.0819 -0.2406
  731MOL0     C  786   0.918   8.494   7.734  0.3765  0.2033 -0.1204
  731MOL0     C  787   1.050   8.451   7.697  0.5559  0.1422 -0.1786
  731MOL0     O  788   1.359   8.515   7.647  0.3079 -0.1051  0.2234
  731MOL0     C  789   1.488   8.204   7.649  0.0600 -1.3966 -0.1406
  731MOL0     C  790   1.605   8.126   7.642  0.6198  1.0254  0.0911
  731MOL0     N  791   1.948   7.805   7.195  0.0137 -0.8313  0.4732
  731MOL0     N  792   1.995   7.745   7.086 -0.5796 -1.0519 -0.5363
  731MOL0     C  793   1.490   7.885   7.128 -0.0601 -0.2772  0.4371
  731MOL0     C  794   1.439   7.847   7.257 -0.2144  0.6942  0.3264
  731MOL0     C  795   1.212   7.840   7.649  0.4377  0.0869  0.0234
  731MOL0     C  796   1.281   7.644   7.682  0.2179  0.4413  1.1572
  731MOL0     C  797   1.270   7.554   7.869 -0.7483  0.3335 -0.3079
  731MOL0     C  798   1.205   7.669   8.036  0.7100  0.1711 -0.1334
  731MOL0     O  799   1.196   7.618   8.164  0.5753 -0.2870  0.0899
  731MOL0     C  800   1.219   7.481   8.177  0.3424  0.0718  0.1293
  731MOL0     C  801   1.101   7.406   8.135  0.5992  0.4647 -0.0800
  731MOL0     C  802   0.979   7.412   8.220 -0.0687 -0.1987 -0.9162
  731MOL0     C  803   0.878   7.304   8.182  0.2198 -0.5204  0.3267
  731MOL0     C  804   0.760   7.322   8.267 -1.6234  0.3770  0.1793
  731MOL0     C  805   0.655   7.318   8.315 -0.0232  0.9853 -0.4483
  731MOL0     C  806   1.141   7.870   8.007  0.7526 -0.2608 -0.2038
  731MOL0     C  807   1.143   7.953   7.815 -0.0148 -0.6940  0.0972
  731MOL0     C  808   1.085   8.087   7.797  0.3087  0.2764  0.1924
  731MOL0     H  809   1.099   7.884   7.222 -0.1880 -0.2377  0.1348
  731MOL0     H  810   1.176   7.916   6.989  1.4827  1.5271 -0.7832
  731MOL0     H  811   1.295   8.076   6.796  2.1170  1.1165 -0.9022
  731MOL0     H  812   1.292   7.892   6.798 -0.9525 -0.0366  0.6913
  731MOL0     H  813   1.398   8.011   6.586 -0.6221  0.7819  0.4003
  731MOL0     H  814   1.517   8.065   6.696  0.4759 -0.2348  1.7112
  731MOL0     H  815   1.538   7.795   6.763 -0.1166 -3.5890 -1.8940
  731MOL0     H  816   1.462   7.776   6.618 -0.1106  0.1394  1.6971
  731MOL0     H  817   1.641   7.845   6.482  2.0798  3.8779 -0.9581
  731MOL0     H  818   1.700   7.952   6.603  0.0401 -1.1812  0.5575
  731MOL0     H  819   1.824   7.726   6.553 -1.4179  0.9869 -2.8889
  731MOL0     H  820   1.719   7.662   6.663  0.8790  1.4071 -1.3391
  731MOL0     H  821   1.890   7.918   6.683 -4.3092  2.3476  0.2767
  731MOL0     H  822   1.804   7.874   6.832 -0.3108  0.9960 -0.0333
  731MOL0     H  823   2.004   7.714   6.675 -2.2274 -1.0027 -0.5980
  731MOL0     H  824   1.929   7.651   6.825  2.3626 -1.5629 -0.9030
  731MOL0     H  825   2.152   7.721   6.893 -0.1702 -0.1240 -3.1020
  731MOL0     H  826   2.137   7.879   6.819  1.8735 -0.1827  1.4059
  731MOL0     H  827   2.038   8.057   6.987  1.5853  0.4444 -0.2505
  731MOL0     H  828   1.813   8.039   7.291 -0.8711  2.1766 -0.0248
  731MOL0     H  829   1.897   8.150   7.191 -1.1373 -0.0385  1.4639
  731MOL0     H  830   2.089   8.020   7.364 -1.4468 -2.1882  1.4185
  731MOL0     H  831   2.053   8.195   7.311 -2.9254  1.4587 -0.1546
  731MOL0     H  832   2.028   8.192   7.559 -2.0809 -0.2693  2.6092
  731MOL0     H  833   1.888   8.233   7.464  0.0405 -0.5461 -1.2234
  731MOL0     H  834   1.790   8.004   7.543 -0.3154  0.7308 -0.4947
  731MOL0     H  835   1.950   7.964   7.594  0.6144  0.6388  1.6335
  731MOL0     H  836   1.807   8.297   7.828 -0.0635  0.6614 -0.0130
  731MOL0     H  837   1.522   8.475   7.956 -0.8075 -1.4560 -1.2657
  731MOL0     H  838   1.592   8.581   7.823 -0.0603  0.6232 -0.5095
  731MOL0     H  839   1.691   8.488   7.935  1.4072  1.4094 -1.1521
  731MOL0     H  840   1.183   8.457   8.010  0.3274 -4.3236 -0.8073
  731MOL0     H  841   0.954   8.542   8.068 -1.4114 -0.0109  0.2377
  731MOL0     H  842   0.631   8.565   7.727 -3.6068 -0.8201 -0.5233
  731MOL0     H  843   0.652   8.422   7.813  2.9774 -0.4032  1.3477
  731MOL0     H  844   0.511   8.487   7.994 -3.5755  0.8560  0.0355
  731MOL0     H  845   0.523   8.655   7.963 -2.5457  0.0109  0.6269
  731MOL0     H  846   0.375   8.461   7.778 -2.2419 -0.0588  0.8465
  731MOL0     H  847   0.428   8.611   7.724  0.3869  0.4679  1.6726
  731MOL0     H  848   0.293   8.729   7.894 -0.4103 -0.2017 -1.0320
  731MOL0     H  849   0.249   8.572   7.973  1.0081  0.8369  0.9727
  731MOL0     H  850   0.189   8.671   7.687 -1.0595  1.6868  0.6178
  731MOL0     H  851   0.143   8.506   7.753  0.6494 -0.5744  2.0271
  731MOL0     H  852   0.033   8.764   7.871 -2.3504  1.5935 -1.6079
  731MOL0     H  853  -0.016   8.600   7.914 -0.4929 -0.1082 -0.3302
  731MOL0     H  854  -0.090   8.549   7.675  1.4926  0.1708  1.5866
  731MOL0     H  855  -0.054   8.709   7.640 -3.5790  1.0907 -0.0846
  731MOL0     H  856  -0.264   8.780   7.700 -1.3961 -2.0937 -1.6708
  731MOL0     H  857  -0.224   8.732   7.867  1.2746 -2.0639  0.3032
  731MOL0     H  858   0.840   8.511   7.661  0.3745  3.5628  0.4769
  731MOL0     H  859   1.070   8.434   7.591 -0.1073 -2.1638  0.0153
  731MOL0     H  860   1.403   8.169   7.591  0.0639 -0.3894 -0.7791
  731MOL0     H  861   1.592   8.038   7.580 -2.9769  3.1757 -2.6150
  731MOL0     H  862   1.594   7.873   7.099 -0.5023 -2.5670 -0.4385
  731MOL0     H  863   1.507   7.794   7.324  0.9247  0.7058 -0.7762
  731MOL0     H  864   1.322   7.589   7.597 -2.6316 -1.2749  0.7601
  731MOL0     H  865   1.285   7.447   7.872 -1.7326  0.2054  0.4295
  731MOL0     H  866   1.307   7.459   8.115 -1.7014 -0.9497 -2.5691
  731MOL0     H  867   1.243   7.458   8.281 -0.7371  0.4474  0.4702
  731MOL0     H  868   1.138   7.304   8.132  0.8147  0.4475  1.9130
  731MOL0     H  869   1.072   7.429   8.032  0.7253 -0.3935 -0.3139
  731MOL0     H  870   1.006   7.426   8.325 -0.3696  1.8483 -1.0866
  731MOL0     H  871   0.925   7.505   8.199 -0.4240  0.0550  0.9701
  731MOL0     H  872   0.924   7.205   8.183  1.1813 -0.1943 -2.4065
  731MOL0     H  873   0.844   7.324   8.080  0.4973 -1.9539 -0.0702
  731MOL0     H  874   0.551   7.318   8.338 -0.0492 -0.0941 -0.5287
  731MOL0     H  875   1.109   7.926   8.094 -1.5195  2.7351 -2.7535
  731MOL0     H  876   1.148   8.153   7.736 -2.2992 -0.2342 -3.3431
  731MOL0     H  877   0.990   8.074   7.745  1.2595  0.4979 -1.6691
  731MOL0     H  878   1.056   8.139   7.889 -3.1889 -0.4253 -0.3996
  732MOL0     O  879   1.386   1.995   7.157  0.5689 -0.6592 -0.2922
  732MOL0     C  880   1.450   1.905   7.101  0.2936  1.1526 -0.1625
  732MOL0     O  881   1.422   1.767   7.110  0.3879  0.6262  0.0346
  732MOL0     C  882   1.323   1.733   7.200  0.0601  0.2163  0.8351
  732MOL0     C  883   1.362   1.736   7.335 -0.2980 -0.2393 -0.7492
  732MOL0     C  884   1.274   1.679   7.427  0.1199 -0.0844  0.1796
  732MOL0     C  885   1.144   1.635   7.383 -0.0352  0.9157 -0.9293
  732MOL0     O  886   1.053   1.597   7.477 -0.7346  1.0028 -0.5462
  732MOL0     C  887   1.042   1.666   7.600  0.4049  0.4581  0.1075
  732MOL0     C  888   0.924   1.765   7.598 -0.3279  0.5012 -0.2086
  732MOL0     C  889   0.928   1.862   7.716 -0.5852 -0.0789  0.5789
  732MOL0     C  890   0.899   1.785   7.846  0.5153 -1.1449 -0.8687
  732MOL0     C  891   0.912   1.892   7.955  0.3093  0.6251 -0.9291
  732MOL0     C  892   0.887   1.839   8.103 -1.0450 -0.2738  1.2827
  732MOL0     C  893   0.748   1.806   8.130 -0.0089 -0.0064 -0.4109
  732MOL0     C  894   0.739   1.750   8.271  0.0933  0.2165 -0.3628
  732MOL0     N  895   0.805   1.617   8.310  0.3793  0.4843 -0.2420
  732MOL0     C  896   0.907   1.578   8.391  0.2088 -0.1073  0.0599
  732MOL0     C  897   0.922   1.448   8.378  1.0891  0.0067 -1.0494
  732MOL0     C  898   1.014   1.363   8.456  0.0869  0.0572 -0.2626
  732MOL0     C  899   0.964   1.330   8.595  0.6324 -0.1766 -0.7531
  732MOL0     C  900   1.012   1.438   8.698 -0.8088 -0.6613 -0.2502
  732MOL0     C  901   1.162   1.432   8.744  0.9528 -1.0900 -0.8107
  732MOL0     O  902   1.269   1.451   8.647  0.2183  0.2360  0.0419
  732MOL0     C  903   1.396   1.422   8.690 -0.8024 -0.9517 -0.6612
  732MOL0     C  904   1.497   1.402   8.595 -0.3607  0.0539 -0.8277
  732MOL0     C  905   1.630   1.362   8.628 -0.5150 -0.1078 -0.1780
  732MOL0     C  906   1.706   1.307   8.514 -0.2808  0.0809  0.1273
  732MOL0     C  907   1.670   1.367   8.767  0.0623 -0.0874  0.4418
  732MOL0     C  908   1.812   1.326   8.798  0.0575  0.0075 -0.6356
  732MOL0     O  909   1.826   1.297   8.931  0.1065 -0.1115 -0.1827
  732MOL0     C  910   1.931   1.221   8.973 -0.0183  0.9775 -0.2778
  732MOL0     C  911   1.954   1.229   9.115  0.3697  0.7724  0.6066
  732MOL0     C  912   2.042   1.143   9.175 -0.7031 -0.0164  1.1382
  732MOL0     C  913   2.107   1.040   9.107 -0.1037 -0.9622  0.4903
  732MOL0     O  914   2.187   0.943   9.168  0.6391  0.5636 -0.1741
  732MOL0     C  915   2.233   0.953   9.304 -0.3911 -0.8990 -1.1193
  732MOL0     C  916   2.334   0.842   9.332 -0.3756 -0.2695 -0.3496
  732MOL0     C  917   2.447   0.819   9.232 -0.3303 -0.0517  1.1494
  732MOL0     C  918   2.551   0.712   9.271 -0.1093 -0.3846 -0.0977
  732MOL0     C  919   2.656   0.678   9.168 -0.3342  0.6022 -0.0854
  732MOL0     C  920   2.737   0.797   9.144  0.6126 -0.4781 -0.1569
  732MOL0     C  921   2.845   0.773   9.033 -0.3521 -0.3761 -0.7022
  732MOL0     C  922   2.944   0.884   9.026  0.6897 -0.3064 -0.2389
  732MOL0    Cl  923   2.864   1.020   8.939  0.4077  0.0882  0.0532
  732MOL0     C  924   2.089   1.032   8.969  0.7000  0.1084  0.8901
  732MOL0     C  925   1.994   1.116   8.907  0.0163  0.0441  1.1099
  732MOL0     O  926   1.897   1.312   8.714  0.2769 -0.7003  0.2496
  732MOL0     C  927   1.559   1.382   8.861 -0.2745  0.4828  0.2465
  732MOL0     C  928   1.430   1.391   8.819 -0.4182  0.4061 -0.0810
  732MOL0     N  929   0.817   1.405   8.303  0.4759  0.0538  1.2217
  732MOL0     N  930   0.756   1.505   8.256  0.3621 -0.3398 -0.5789
  732MOL0     C  931   1.101   1.635   7.253 -0.6739 -1.2751  0.8979
  732MOL0     C  932   1.198   1.680   7.159  0.1991 -1.0579 -0.0983
  732MOL0     C  933   1.569   1.941   7.012 -0.3681 -0.0242 -1.1437
  732MOL0     C  934   1.674   1.851   6.988  0.6506  0.5331  0.1027
  732MOL0     C  935   1.776   1.865   6.899 -0.7991 -0.0038 -0.7659
  732MOL0     C  936   1.787   1.994   6.841 -0.1071 -0.1001 -0.7365
  732MOL0     O  937   1.892   2.034   6.763 -0.5061 -0.0998  0.1487
  732MOL0     C  938   2.017   1.964   6.756 -0.8566  0.2506  0.2222
  732MOL0     C  939   2.101   1.947   6.887  0.7623  0.6663 -0.1687
  732MOL0     C  940   2.147   1.798   6.905 -0.6672 -0.0019 -0.0402
  732MOL0     C  941   2.218   1.773   7.039  0.4424 -0.4290  0.4458
  732MOL0     C  942   2.348   1.825   7.047 -0.3576 -0.1054  0.9580
  732MOL0     C  943   2.465   1.858   7.072  0.2923  0.2355  0.7889
  732MOL0     C  944   1.679   2.078   6.851  0.3064 -0.3204  0.9805
  732MOL0     C  945   1.576   2.060   6.941 -0.0179  0.0378 -0.2948
  732MOL0     C  946   1.463   2.162   6.940  0.4888 -0.2316 -1.1594
  732MOL0     H  947   1.463   1.765   7.361 -0.3662 -1.0699  0.5171
  732MOL0     H  948   1.309   1.651   7.526 -1.0254 -2.3857 -0.0092
  732MOL0     H  949   1.132   1.710   7.644  1.8256 -1.6627 -0.5348
  732MOL0     H  950   1.017   1.589   7.673  1.7622 -1.5216 -1.3929
  732MOL0     H  951   0.939   1.822   7.506 -1.3213 -0.8008 -1.2212
  732MOL0     H  952   0.831   1.708   7.608 -0.5709  1.1393  1.3724
  732MOL0     H  953   1.022   1.917   7.728 -1.5146  1.2199  2.5095
  732MOL0     H  954   0.855   1.943   7.707  1.8483  2.2078  0.2511
  732MOL0     H  955   0.794   1.754   7.853  1.1698 -3.3761  0.0041
  732MOL0     H  956   0.967   1.701   7.859  0.3721 -0.8872  2.9170
  732MOL0     H  957   0.847   1.979   7.940 -0.7585  0.1940  0.8405
  732MOL0     H  958   1.019   1.915   7.954  1.0345 -1.9899  1.6860
  732MOL0     H  959   0.955   1.754   8.100 -0.7645 -0.0843 -1.9718
  732MOL0     H  960   0.943   1.919   8.154 -0.7334  0.8477 -0.6876
  732MOL0     H  961   0.713   1.731   8.058 -1.9643  2.0496 -1.7267
  732MOL0     H  962   0.685   1.896   8.126 -0.6457 -0.4390 -0.2957
  732MOL0     H  963   0.761   1.829   8.342  2.5115 -1.9713  1.5132
  732MOL0     H  964   0.631   1.731   8.277 -0.2885  1.2673 -2.6636
  732MOL0     H  965   0.960   1.634   8.467 -1.5594  2.0207 -0.1599
  732MOL0     H  966   1.120   1.390   8.460  0.9439 -3.1208  1.1902
  732MOL0     H  967   1.007   1.274   8.394 -2.3005  0.3368 -0.4784
  732MOL0     H  968   0.855   1.320   8.591  0.7478 -2.1372 -0.2131
  732MOL0     H  969   1.011   1.232   8.612  4.2784  1.4021 -0.8223
  732MOL0     H  970   0.985   1.540   8.672 -0.8804 -0.4313  0.6705
  732MOL0     H  971   0.948   1.427   8.786 -4.5295  2.6433 -2.2720
  732MOL0     H  972   1.164   1.509   8.821  1.5603 -1.0260 -0.8856
  732MOL0     H  973   1.157   1.337   8.798  0.3086 -0.5314  0.1392
  732MOL0     H  974   1.470   1.409   8.490  0.0416 -2.0675 -1.1186
  732MOL0     H  975   1.775   1.385   8.479 -2.3021  1.7440 -0.3215
  732MOL0     H  976   1.636   1.277   8.436 -1.3758  1.2342  0.6418
  732MOL0     H  977   1.756   1.214   8.543 -1.1967  0.4044  3.0367
  732MOL0     H  978   1.887   1.295   9.168 -4.9672 -2.4426 -1.3531
  732MOL0     H  979   2.060   1.144   9.282 -1.4162  2.7877  1.3262
  732MOL0     H  980   2.286   1.044   9.331  1.0532 -2.1214  0.3794
  732MOL0     H  981   2.149   0.938   9.372  0.5419  0.4838  0.3984
  732MOL0     H  982   2.398   0.873   9.415  2.8490 -2.6084 -1.7549
  732MOL0     H  983   2.278   0.749   9.346 -0.1244 -0.1817  1.4402
  732MOL0     H  984   2.488   0.918   9.209 -0.9856  0.2978  1.4498
  732MOL0     H  985   2.416   0.781   9.135 -0.2135  3.0496 -0.2050
  732MOL0     H  986   2.504   0.616   9.293 -1.6883 -0.0899 -1.9487
  732MOL0     H  987   2.598   0.745   9.364 -1.3733 -0.5488  0.6236
  732MOL0     H  988   2.719   0.600   9.212 -1.4000  0.8216  1.9487
  732MOL0     H  989   2.593   0.649   9.083 -1.1611  1.2367  0.2928
  732MOL0     H  990   2.785   0.815   9.241  2.0604 -0.2209 -0.8862
  732MOL0     H  991   2.676   0.880   9.108  0.4813 -1.2985 -1.9225
  732MOL0     H  992   2.798   0.767   8.935  0.4610 -0.7020 -1.0847
  732MOL0     H  993   2.891   0.674   9.046 -0.9141 -0.6547 -0.8257
  732MOL0     H  994   3.031   0.846   8.972  1.0367  0.9700 -0.6159
  732MOL0     H  995   2.976   0.906   9.128  1.3641  0.7812 -0.6672
  732MOL0     H  996   2.136   0.948   8.919 -0.6635 -0.5595  0.6894
  732MOL0     H  997   1.980   1.095   8.801 -0.7381  0.3417  1.1471
  732MOL0     H  998   1.576   1.388   8.968 -0.3851  4.4738  0.1631
  732MOL0     H  999   1.353   1.391   8.896 -1.9823 -0.4115 -1.5953
  732MOL0     H 1000   1.001   1.614   7.217  0.3968 -0.3916 -3.0696
  732MOL0     H 1001   1.173   1.687   7.054  1.8020 -3.1559 -0.6887
  732MOL0     H 1002   1.668   1.756   7.040  1.3520 -0.0035 -0.7454
  732MOL0     H 1003   1.844   1.781   6.886 -0.8708 -0.4586  1.3704
  732MOL0     H 1004   1.997   1.864   6.716  1.8447  0.4729 -1.9732
  732MOL0     H 1005   2.072   1.997   6.668 -1.0212 -1.1083 -0.4201
  732MOL0     H 1006   2.035   1.976   6.970 -0.1402  2.2951 -1.3928
  732MOL0     H 1007   2.186   2.015   6.887  1.2820  0.1340 -2.6749
  732MOL0     H 1008   2.057   1.735   6.903  1.7940 -3.8091 -0.3575
  732MOL0     H 1009   2.212   1.773   6.821 -0.9935 -2.2528  0.2994
  732MOL0     H 1010   2.215   1.668   7.071  0.2993 -0.0633  1.6899
  732MOL0     H 1011   2.169   1.820   7.124 -3.3971  0.3025 -1.9324
  732MOL0     H 1012   2.566   1.894   7.076 -0.1078  1.6784 -0.9538
  732MOL0     H 1013   1.686   2.167   6.789 -2.9420 -1.4595 -1.3071
  732MOL0     H 1014   1.466   2.221   6.849 -0.6913  0.2199 -0.9269
  732MOL0     H 1015   1.363   2.119   6.945 -0.9047  2.8619  1.1115
  732MOL0     H 1016   1.470   2.227   7.028  0.4629 -1.0530 -0.5308
  733MOL0     O 1017   9.263   4.237   3.724  0.0426  0.0924 -0.2080
  733MOL0     C 1018   9.251   4.324   3.816 -0.2327  0.1593 -0.9278
  733MOL0     O 1019   9.225   4.295   3.954  0.2196  0.5881  0.1744
  733MOL0     C 1020   9.217   4.161   3.991  0.8482 -0.1588  1.1892
  733MOL0     C 1021   9.142   4.069   3.912 -0.0238  0.3087  0.3073
  733MOL0     C 1022   9.122   3.937   3.960 -0.0309  0.2796 -0.4361
  733MOL0     C 1023   9.183   3.898   4.077 -0.3089  0.2363  0.2376
  733MOL0     O 1024   9.201   3.762   4.120  0.3994 -1.0034 -0.5595
  733MOL0     C 1025   9.182   3.661   4.019 -0.0560  0.0805 -0.5823
  733MOL0     C 1026   9.198   3.524   4.085  0.7896 -0.0125  0.4066
  733MOL0     C 1027   9.094   3.485   4.185  0.2113  0.5194 -0.8647
  733MOL0     C 1028   8.961   3.461   4.122  0.4349 -0.5217  0.6103
  733MOL0     C 1029   8.849   3.395   4.216 -0.3588  0.0036  0.2865
  733MOL0     C 1030   8.816   3.464   4.345 -0.3787  0.9478  0.0426
  733MOL0     C 1031   8.792   3.614   4.346  0.2064 -0.5830  1.1451
  733MOL0     C 1032   8.802   3.683   4.479 -0.7015  0.3924  0.4738
  733MOL0     N 1033   8.822   3.828   4.482 -0.3007  0.0281 -0.0210
  733MOL0     C 1034   8.907   3.906   4.410  0.1774  0.1394  0.4356
  733MOL0     C 1035   8.879   4.035   4.438 -0.8561  0.6136 -0.4517
  733MOL0     C 1036   8.965   4.147   4.390  0.0653 -0.0354 -0.8797
  733MOL0     C 1037   8.989   4.237   4.527  0.1363  0.1562  1.2952
  733MOL0     C 1038   8.991   4.384   4.480 -0.1820 -0.1600 -0.0374
  733MOL0     C 1039   9.027   4.470   4.614  0.1637 -0.5130  0.4577
  733MOL0     O 1040   9.114   4.577   4.576 -0.3298  0.7914 -0.0260
  733MOL0     C 1041   9.054   4.690   4.544 -0.4918 -0.2612  0.3187
  733MOL0     C 1042   9.003   4.718   4.412 -0.0287  0.1764 -0.4160
  733MOL0     C 1043   8.947   4.840   4.379  0.1824  0.9086  0.1627
  733MOL0     C 1044   8.905   4.863   4.238 -0.6785 -0.3237  0.7859
  733MOL0     C 1045   8.944   4.942   4.471  0.3148  0.7382 -1.0286
  733MOL0     C 1046   8.892   5.081   4.453 -0.2515  0.7347 -0.6160
  733MOL0     O 1047   8.892   5.169   4.558  0.1069  0.4261 -0.0980
  733MOL0     C 1048   8.812   5.283   4.554  0.0337  0.3762 -0.2832
  733MOL0     C 1049   8.681   5.278   4.618 -0.2636 -0.3329 -0.4335
  733MOL0     C 1050   8.594   5.388   4.600 -0.5700 -0.0604 -0.6996
  733MOL0     C 1051   8.630   5.509   4.530 -0.1818  0.0542  0.3556
  733MOL0     O 1052   8.539   5.610   4.492  0.2887 -0.5244 -0.2862
  733MOL0     C 1053   8.408   5.617   4.551 -0.3020  0.2036 -0.0778
  733MOL0     C 1054   8.349   5.754   4.536  0.5630  0.8748 -0.3054
  733MOL0     C 1055   8.202   5.767   4.589 -0.4660 -0.1220  0.3054
  733MOL0     C 1056   8.109   5.858   4.506  0.2941  0.8421  0.8566
  733MOL0     C 1057   7.960   5.837   4.557  0.0448 -0.0666 -0.0661
  733MOL0     C 1058   7.860   5.897   4.461 -0.1023  0.6550  0.0458
  733MOL0     C 1059   7.722   5.882   4.529  0.1162  0.2803 -0.2709
  733MOL0     C 1060   7.672   5.746   4.557  0.0415  0.1862 -0.5369
  733MOL0    Cl 1061   7.501   5.751   4.620 -0.1275  0.2383 -0.4649
  733MOL0     C 1062   8.769   5.515   4.488  0.3715  0.6720  0.9911
  733MOL0     C 1063   8.856   5.408   4.502  0.3610  0.2411 -0.9482
  733MOL0     O 1064   8.864   5.114   4.341 -0.2711  0.1571 -0.6134
  733MOL0     C 1065   8.987   4.907   4.603 -0.0668 -1.2105 -0.0953
  733MOL0     C 1066   9.050   4.792   4.639  0.7265  0.8068 -0.1835
  733MOL0     N 1067   8.771   4.030   4.524  0.0549  0.3506 -0.1783
  733MOL0     N 1068   8.742   3.912   4.553 -0.3822  0.9343  0.2101
  733MOL0     C 1069   9.263   3.987   4.150 -0.2442 -0.5487 -0.4991
  733MOL0     C 1070   9.277   4.118   4.107  0.1315 -0.0528 -0.9387
  733MOL0     C 1071   9.222   4.453   3.767 -0.0093 -0.5003 -0.3141
  733MOL0     C 1072   9.314   4.496   3.670 -0.9730  0.6650 -0.8133
  733MOL0     C 1073   9.309   4.615   3.609  1.1035 -0.1436 -0.5810
  733MOL0     C 1074   9.203   4.699   3.642  0.3405 -0.3286  0.1518
  733MOL0     O 1075   9.183   4.825   3.571  0.2558 -0.0497 -0.9534
  733MOL0     C 1076   9.287   4.917   3.598  0.3142 -0.8402 -0.8079
  733MOL0     C 1077   9.284   4.973   3.741 -0.1291 -0.9208 -0.1349
  733MOL0     C 1078   9.421   4.923   3.808 -0.2303  0.5423 -0.2309
  733MOL0     C 1079   9.446   4.994   3.937 -0.4950 -0.1089  0.5466
  733MOL0     C 1080   9.357   4.933   4.033  0.1504 -0.3572  0.2981
  733MOL0     C 1081   9.280   4.885   4.117  0.6437 -0.1186 -0.0515
  733MOL0     C 1082   9.110   4.662   3.741  0.5204 -0.2133 -0.1789
  733MOL0     C 1083   9.114   4.539   3.809  0.1200  0.3039 -0.4274
  733MOL0     C 1084   9.007   4.496   3.894 -0.5207  0.3203  0.0541
  733MOL0     H 1085   9.087   4.100   3.825 -0.5738 -0.5476  0.3463
  733MOL0     H 1086   9.060   3.869   3.903  0.0045  0.7746 -1.0818
  733MOL0     H 1087   9.261   3.682   3.946 -1.6223  1.6229 -1.9150
  733MOL0     H 1088   9.088   3.671   3.964 -0.6350  2.3134  0.6710
  733MOL0     H 1089   9.205   3.441   4.014 -0.5435 -0.6925  1.0418
  733MOL0     H 1090   9.289   3.530   4.146  0.8490  0.6654  0.2653
  733MOL0     H 1091   9.128   3.394   4.235 -1.0083  2.0584  3.1334
  733MOL0     H 1092   9.079   3.565   4.257  1.2538  0.3261 -0.4088
  733MOL0     H 1093   8.917   3.555   4.088  1.3242 -0.2456  0.2139
  733MOL0     H 1094   8.966   3.397   4.033 -2.7690  0.1049 -0.1698
  733MOL0     H 1095   8.871   3.289   4.229 -0.2025 -0.0410 -0.3159
  733MOL0     H 1096   8.757   3.401   4.156  1.6089  1.0809 -2.8582
  733MOL0     H 1097   8.726   3.426   4.395  1.2881  2.6826  4.8849
  733MOL0     H 1098   8.903   3.446   4.408  0.4346  3.3129 -0.2998
  733MOL0     H 1099   8.701   3.638   4.291 -0.3573 -0.8479  1.9472
  733MOL0     H 1100   8.878   3.663   4.298 -0.7357 -0.7109 -0.7604
  733MOL0     H 1101   8.726   3.652   4.551  0.6568 -2.3325  0.8602
  733MOL0     H 1102   8.891   3.643   4.527 -0.3942  0.4390 -0.0597
  733MOL0     H 1103   8.994   3.874   4.353 -1.7206 -0.4147 -2.3343
  733MOL0     H 1104   8.908   4.214   4.325 -1.1882 -2.2133 -2.1489
  733MOL0     H 1105   9.061   4.108   4.355 -1.2866 -3.9114 -0.8109
  733MOL0     H 1106   8.900   4.219   4.588  0.2221 -3.1407  0.6844
  733MOL0     H 1107   9.080   4.208   4.581  0.5798  1.6234  1.3795
  733MOL0     H 1108   9.075   4.389   4.410 -0.2560 -2.5280 -0.3752
  733MOL0     H 1109   8.901   4.424   4.434  0.3873  0.2095 -0.8450
  733MOL0     H 1110   8.935   4.505   4.662 -0.4821  0.2518 -1.2729
  733MOL0     H 1111   9.075   4.404   4.687  0.7758 -0.4472  0.1210
  733MOL0     H 1112   9.011   4.636   4.342  1.3351  0.9273 -1.1892
  733MOL0     H 1113   8.975   4.932   4.190 -0.0437 -3.1241 -2.7025
  733MOL0     H 1114   8.801   4.894   4.231 -0.9883 -1.4997 -0.1450
  733MOL0     H 1115   8.909   4.778   4.170 -2.2072  0.7266 -0.6951
  733MOL0     H 1116   8.641   5.190   4.667 -0.1048 -1.6935 -2.6178
  733MOL0     H 1117   8.490   5.374   4.629 -0.1679  0.4888  1.1120
  733MOL0     H 1118   8.344   5.542   4.503  2.0048 -2.2755  0.4697
  733MOL0     H 1119   8.425   5.598   4.657  4.4988 -0.4492 -0.7156
  733MOL0     H 1120   8.409   5.833   4.583  0.4505 -0.6609  2.6532
  733MOL0     H 1121   8.336   5.771   4.429 -2.7098  0.9186  0.0003
  733MOL0     H 1122   8.212   5.820   4.684 -2.3031  0.2343  0.3331
  733MOL0     H 1123   8.162   5.666   4.598 -0.9321  0.1827  2.0454
  733MOL0     H 1124   8.120   5.832   4.400  3.7009  1.9685  0.8075
  733MOL0     H 1125   8.133   5.964   4.514  0.0018  0.8453  1.7795
  733MOL0     H 1126   7.947   5.729   4.571  0.5539 -0.4904 -2.3646
  733MOL0     H 1127   7.961   5.885   4.655 -1.1272 -0.2092  0.0241
  733MOL0     H 1128   7.850   5.851   4.362  1.9124  0.2421  0.0030
  733MOL0     H 1129   7.885   6.002   4.439  1.1861  0.6259  1.2576
  733MOL0     H 1130   7.649   5.928   4.462  0.6778 -2.1969 -2.7647
  733MOL0     H 1131   7.730   5.943   4.619  1.7487  1.8053 -1.3916
  733MOL0     H 1132   7.729   5.693   4.634  0.7674 -0.0006 -1.1857
  733MOL0     H 1133   7.676   5.687   4.465  0.7352 -0.6643  0.0249
  733MOL0     H 1134   8.804   5.608   4.444 -0.4411  0.5458  0.0399
  733MOL0     H 1135   8.957   5.399   4.462  1.6307 -0.1082  2.0921
  733MOL0     H 1136   8.999   4.979   4.684 -1.5460 -2.2771  1.1321
  733MOL0     H 1137   9.098   4.783   4.736 -0.8644  1.4633  0.7086
  733MOL0     H 1138   9.336   3.971   4.228  1.6186 -0.6231 -2.1684
  733MOL0     H 1139   9.328   4.193   4.167 -0.2294  2.8552 -3.9694
  733MOL0     H 1140   9.396   4.426   3.656 -2.1836 -0.6788 -1.3626
  733MOL0     H 1141   9.370   4.655   3.528  3.0212 -0.2040  0.7763
  733MOL0     H 1142   9.385   4.873   3.577  0.8573 -1.4458  2.3940
  733MOL0     H 1143   9.289   5.000   3.527  1.7250 -0.3172 -0.1914
  733MOL0     H 1144   9.197   4.947   3.802 -0.9072  3.3089  0.8465
  733MOL0     H 1145   9.292   5.082   3.740  2.2787 -0.9302  2.9269
  733MOL0     H 1146   9.430   4.814   3.812  0.7539  0.5718 -1.1257
  733MOL0     H 1147   9.503   4.957   3.745 -1.4392 -0.3168 -2.3654
  733MOL0     H 1148   9.437   5.103   3.933  0.7523  0.1617  3.1810
  733MOL0     H 1149   9.548   4.964   3.963  0.5818  1.1776 -1.9199
  733MOL0     H 1150   9.212   4.866   4.197  1.4464 -0.3318  0.5979
  733MOL0     H 1151   9.027   4.729   3.758 -0.1856 -0.4776 -2.2464
  733MOL0     H 1152   8.991   4.388   3.885  0.4148 -0.0192  1.8877
  733MOL0     H 1153   9.040   4.515   3.997 -0.5045  2.2609 -0.2761
  733MOL0     H 1154   8.913   4.545   3.868 -1.1679  0.7563  2.8955
  734MOL0     O 1155   0.486   5.761   7.084 -0.3406 -0.8946  0.9831
  734MOL0     C 1156   0.494   5.639   7.074  0.2773 -0.4450 -0.0845
  734MOL0     O 1157   0.573   5.569   6.990  0.2514 -0.2766 -0.0770
  734MOL0     C 1158   0.656   5.633   6.908 -0.0412 -0.2292  0.0410
  734MOL0     C 1159   0.597   5.701   6.803 -0.3911 -0.6114 -0.2519
  734MOL0     C 1160   0.680   5.753   6.696  0.9752 -0.0519  0.2811
  734MOL0     C 1161   0.823   5.724   6.698  0.0126 -0.0199  0.0929
  734MOL0     O 1162   0.910   5.760   6.603 -0.1794  0.1961  0.1493
  734MOL0     C 1163   0.859   5.824   6.486  0.1139  0.3430  1.0690
  734MOL0     C 1164   0.963   5.860   6.374  1.2608  0.6818  0.4877
  734MOL0     C 1165   1.031   5.995   6.400  0.3858 -0.6015  0.2500
  734MOL0     C 1166   1.088   6.010   6.540  1.4985 -0.3907 -0.1875
  734MOL0     C 1167   1.175   6.137   6.555 -0.0725 -0.4278 -0.3097
  734MOL0     C 1168   1.244   6.151   6.694  0.8770 -0.2474 -0.0176
  734MOL0     C 1169   1.359   6.044   6.699 -0.7381  0.2082  0.3135
  734MOL0     C 1170   1.456   6.093   6.800 -0.7951  0.0453  0.0086
  734MOL0     N 1171   1.550   5.983   6.824  0.3190 -0.5576 -0.0572
  734MOL0     C 1172   1.675   5.964   6.762  0.5774  0.4945  0.2221
  734MOL0     C 1173   1.720   5.851   6.804 -0.4737 -0.2835  0.3162
  734MOL0     C 1174   1.853   5.790   6.758  0.4466  0.5470 -0.3691
  734MOL0     C 1175   1.972   5.848   6.836 -0.2213  0.3566 -0.4530
  734MOL0     C 1176   2.096   5.809   6.756 -0.3560 -0.1429 -0.5849
  734MOL0     C 1177   2.221   5.866   6.824 -0.6340 -0.6420 -0.0948
  734MOL0     O 1178   2.258   5.771   6.923 -0.2919  0.4308  0.2150
  734MOL0     C 1179   2.394   5.774   6.957 -1.0298 -0.1038  0.0844
  734MOL0     C 1180   2.456   5.900   6.979  1.1652 -1.4309 -0.2049
  734MOL0     C 1181   2.592   5.911   7.016 -1.0093 -0.3678 -0.7465
  734MOL0     C 1182   2.633   6.050   7.062  0.1674  0.4668 -0.5230
  734MOL0     C 1183   2.674   5.793   7.028  0.7824  0.6853 -0.0338
  734MOL0     C 1184   2.811   5.798   7.071  0.5101 -0.3213  0.4811
  734MOL0     O 1185   2.877   5.681   7.110  0.3617  0.4467  0.7310
  734MOL0     C 1186   2.991   5.678   7.188 -0.3141 -0.4036  0.4259
  734MOL0     C 1187   2.998   5.573   7.274  0.2566  0.4520  0.4435
  734MOL0     C 1188   3.113   5.552   7.355 -0.8145 -0.9240  0.6540
  734MOL0     C 1189   3.228   5.644   7.346 -0.0022 -0.8615 -0.5285
  734MOL0     O 1190   3.329   5.640   7.445  0.0408  0.9994  0.7755
  734MOL0     C 1191   3.384   5.765   7.484  0.3613  0.8212  0.3611
  734MOL0     C 1192   3.396   5.758   7.644 -0.3720 -0.8955  0.6895
  734MOL0     C 1193   3.503   5.658   7.689  0.7964 -0.3388  0.7790
  734MOL0     C 1194   3.568   5.708   7.820 -0.2519 -0.1466  0.6927
  734MOL0     C 1195   3.667   5.616   7.886  0.9176  0.0771  1.0955
  734MOL0     C 1196   3.788   5.563   7.806  0.0741  0.4143  0.1009
  734MOL0     C 1197   3.870   5.478   7.893 -0.4505  0.3206  0.1845
  734MOL0     C 1198   4.009   5.458   7.833  0.5692 -0.4467 -0.6338
  734MOL0    Cl 1199   4.098   5.339   7.929  0.7010 -0.1724  0.2185
  734MOL0     C 1200   3.220   5.742   7.251 -0.0593 -0.6494 -0.0804
  734MOL0     C 1201   3.109   5.761   7.174  0.6878  0.2038 -0.4357
  734MOL0     O 1202   2.856   5.906   7.096  0.7714  0.2391 -0.3278
  734MOL0     C 1203   2.603   5.668   7.008  0.4746  0.1523 -0.2034
  734MOL0     C 1204   2.467   5.663   6.979  0.4679 -0.7977 -0.4895
  734MOL0     N 1205   1.632   5.791   6.888 -0.6733 -0.2546  0.4985
  734MOL0     N 1206   1.528   5.861   6.889 -0.7452 -0.5142  0.8496
  734MOL0     C 1207   0.874   5.664   6.805 -0.2029  0.2735 -0.0643
  734MOL0     C 1208   0.791   5.626   6.915  0.2728  0.2566  1.1418
  734MOL0     C 1209   0.371   5.574   7.136 -0.8416  0.0682 -0.3134
  734MOL0     C 1210   0.297   5.483   7.058  0.4131  0.0272  0.5033
  734MOL0     C 1211   0.181   5.423   7.103 -0.0554 -0.5681  0.6240
  734MOL0     C 1212   0.137   5.454   7.234 -0.8177  0.3838 -0.9612
  734MOL0     O 1213   0.016   5.412   7.275 -0.0134  0.9611 -0.0650
  734MOL0     C 1214  -0.043   5.294   7.217  0.5309  0.5700 -0.5140
  734MOL0     C 1215  -0.163   5.237   7.299 -0.1708  0.0845  0.1563
  734MOL0     C 1216  -0.207   5.114   7.232  0.3481  0.5269  0.3644
  734MOL0     C 1217  -0.324   5.055   7.308  0.3441  0.3595 -0.6710
  734MOL0     C 1218  -0.339   4.920   7.254 -0.4895  0.4551  0.0418
  734MOL0     C 1219  -0.348   4.803   7.203  0.5223 -0.0857  0.4682
  734MOL0     C 1220   0.208   5.544   7.313  0.4419 -0.0033  0.2569
  734MOL0     C 1221   0.323   5.608   7.264 -0.6277  0.7435  0.3162
  734MOL0     C 1222   0.396   5.699   7.362 -0.2292 -0.4720 -0.3133
  734MOL0     H 1223   0.489   5.694   6.794 -0.2197 -0.9729 -2.5992
  734MOL0     H 1224   0.639   5.798   6.607  2.6333  0.6802 -0.1566
  734MOL0     H 1225   0.791   5.908   6.500  0.7886  1.0410  0.2910
  734MOL0     H 1226   0.800   5.746   6.437 -0.4028  1.1809  0.3288
  734MOL0     H 1227   1.038   5.783   6.353  0.9858  0.9153 -1.6282
  734MOL0     H 1228   0.906   5.869   6.281 -1.0920 -1.4979  1.5755
  734MOL0     H 1229   1.121   5.997   6.338  1.8358 -1.1489  2.2309
  734MOL0     H 1230   0.956   6.069   6.373 -1.3399 -2.5156 -0.3897
  734MOL0     H 1231   1.002   6.017   6.607  1.7736 -0.7854  0.2138
  734MOL0     H 1232   1.152   5.922   6.556 -0.3588 -2.1236 -1.7767
  734MOL0     H 1233   1.115   6.228   6.544  1.1726  0.5628  0.7619
  734MOL0     H 1234   1.250   6.148   6.475 -0.0172  2.0160  0.0028
  734MOL0     H 1235   1.281   6.254   6.703  1.4597 -0.5433  1.0274
  734MOL0     H 1236   1.160   6.128   6.759 -1.0009 -0.0472 -2.2201
  734MOL0     H 1237   1.424   6.055   6.612  1.9609  0.3511  2.2522
  734MOL0     H 1238   1.329   5.940   6.717 -0.8101  0.3686  1.1607
  734MOL0     H 1239   1.504   6.180   6.753  1.3851 -1.3817 -0.5565
  734MOL0     H 1240   1.413   6.126   6.894 -0.0177  0.4930  0.2194
  734MOL0     H 1241   1.723   6.029   6.690 -0.2267 -1.6308 -2.4201
  734MOL0     H 1242   1.850   5.813   6.651  2.1786  0.1318 -0.5433
  734MOL0     H 1243   1.849   5.683   6.776 -1.8039  0.3443 -1.7291
  734MOL0     H 1244   1.965   5.957   6.841  0.1858  0.4209 -1.0326
  734MOL0     H 1245   1.966   5.793   6.930  0.1264  0.2474 -0.4900
  734MOL0     H 1246   2.106   5.700   6.750  1.1083 -0.6714  5.2240
  734MOL0     H 1247   2.069   5.854   6.660  0.5360  0.7228 -0.4524
  734MOL0     H 1248   2.307   5.880   6.758  1.2295  0.5472  2.4165
  734MOL0     H 1249   2.199   5.966   6.863 -3.1532 -0.8922 -0.7077
  734MOL0     H 1250   2.400   5.989   6.955  1.3406 -0.6630  2.0372
  734MOL0     H 1251   2.654   6.041   7.169  0.0463 -1.6544 -0.6318
  734MOL0     H 1252   2.549   6.117   7.040 -0.0658 -0.2506 -1.9918
  734MOL0     H 1253   2.714   6.083   6.996 -0.5848  0.7773 -1.3231
  734MOL0     H 1254   2.924   5.494   7.279  1.7194 -0.9075  2.5781
  734MOL0     H 1255   3.103   5.478   7.433 -0.2052 -1.5632  0.1383
  734MOL0     H 1256   3.483   5.784   7.444  0.5661  0.9454  0.9147
  734MOL0     H 1257   3.320   5.847   7.451  2.8195  3.0620  0.8982
  734MOL0     H 1258   3.428   5.855   7.680  2.4169  0.0853 -3.6447
  734MOL0     H 1259   3.298   5.730   7.683 -0.7918 -3.9224 -2.0220
  734MOL0     H 1260   3.581   5.632   7.617 -0.0579 -3.9911  0.9889
  734MOL0     H 1261   3.442   5.569   7.706 -1.5346  1.2070  1.1496
  734MOL0     H 1262   3.489   5.746   7.885 -1.9616  1.3619 -2.0618
  734MOL0     H 1263   3.627   5.796   7.792 -3.6249  2.7656  1.9305
  734MOL0     H 1264   3.692   5.669   7.978 -2.6027  0.9169  1.6850
  734MOL0     H 1265   3.606   5.529   7.911  0.7509  0.1570  0.9659
  734MOL0     H 1266   3.843   5.645   7.760 -0.7361  0.0519 -1.5840
  734MOL0     H 1267   3.744   5.505   7.725 -1.0658  0.0263  0.9621
  734MOL0     H 1268   3.821   5.385   7.922  1.3069 -0.5122  0.6154
  734MOL0     H 1269   3.876   5.533   7.987  0.6470  1.3341 -0.4513
  734MOL0     H 1270   4.065   5.552   7.833  1.3134 -0.8373 -2.4843
  734MOL0     H 1271   4.002   5.423   7.730  2.5541  2.6704 -1.9817
  734MOL0     H 1272   3.295   5.817   7.230 -0.7194 -0.0026 -0.1626
  734MOL0     H 1273   3.101   5.845   7.106 -0.3442  0.1737 -0.3734
  734MOL0     H 1274   2.661   5.577   7.020  2.9546  1.5649 -0.8213
  734MOL0     H 1275   2.420   5.566   6.965 -3.4016  0.3024  2.9605
  734MOL0     H 1276   0.980   5.642   6.813 -0.5037 -0.6561  2.3371
  734MOL0     H 1277   0.825   5.572   7.003  0.5711 -0.3417  0.6632
  734MOL0     H 1278   0.329   5.460   6.957  2.4650 -1.0899  1.3536
  734MOL0     H 1279   0.130   5.359   7.032 -1.2437 -0.3272  1.2290
  734MOL0     H 1280  -0.094   5.330   7.127 -1.0625  3.5448  1.4243
  734MOL0     H 1281   0.027   5.210   7.204 -0.1564 -0.3447  1.3127
  734MOL0     H 1282  -0.230   5.323   7.287 -1.2358 -0.9387 -1.6378
  734MOL0     H 1283  -0.143   5.222   7.405 -2.3053 -1.8660  0.3494
  734MOL0     H 1284  -0.242   5.147   7.134 -0.5163 -1.3771 -0.0251
  734MOL0     H 1285  -0.121   5.046   7.223 -1.2164 -1.5696  0.4001
  734MOL0     H 1286  -0.422   5.104   7.300 -1.4917 -2.7104  0.8799
  734MOL0     H 1287  -0.304   5.048   7.415  1.3508 -1.5697 -0.9490
  734MOL0     H 1288  -0.347   4.710   7.150 -3.9054  0.2137 -0.5847
  734MOL0     H 1289   0.163   5.581   7.405 -1.0080  2.6772 -1.4027
  734MOL0     H 1290   0.462   5.780   7.328  0.2754 -0.0147  1.6230
  734MOL0     H 1291   0.319   5.728   7.434  0.7915  1.4113  0.1001
  734MOL0     H 1292   0.470   5.651   7.426  0.1008  2.0131  1.3101
  735MOL0     O 1293   1.589   7.603   7.455 -0.0887  0.3518 -0.1658
  735MOL0     C 1294   1.575   7.492   7.400 -0.0336 -0.9026  0.2173
  735MOL0     O 1295   1.545   7.380   7.460  0.1502 -0.7149  0.0118
  735MOL0     C 1296   1.553   7.355   7.599 -0.2292 -0.5676  0.1518
  735MOL0     C 1297   1.487   7.237   7.648 -0.0606 -0.3970 -0.4246
  735MOL0     C 1298   1.481   7.210   7.782  0.1204  0.5263 -1.0622
  735MOL0     C 1299   1.535   7.289   7.876  0.4366 -0.5071 -0.5911
  735MOL0     O 1300   1.509   7.271   8.007  0.2570 -0.4989 -0.2188
  735MOL0     C 1301   1.574   7.157   8.060  0.7418  0.4500  0.2223
  735MOL0     C 1302   1.527   7.129   8.200 -0.5879  1.1207  0.4476
  735MOL0     C 1303   1.586   7.221   8.298 -0.0009 -0.6485  0.6374
  735MOL0     C 1304   1.485   7.268   8.412  0.3513  0.4493  1.0892
  735MOL0     C 1305   1.524   7.417   8.450 -0.4449  0.5895 -0.0018
  735MOL0     C 1306   1.420   7.473   8.556  0.4764 -1.4137 -0.9340
  735MOL0     C 1307   1.390   7.371   8.670  0.6536 -0.1643  0.3799
  735MOL0     C 1308   1.342   7.443   8.789 -0.3245  1.0572 -1.0975
  735MOL0     N 1309   1.288   7.349   8.892 -0.0194  0.1360  0.5698
  735MOL0     C 1310   1.174   7.273   8.891  0.6998 -0.2673  0.1458
  735MOL0     C 1311   1.167   7.208   9.015  0.9613  0.2557 -0.1095
  735MOL0     C 1312   1.059   7.116   9.083 -0.7060 -0.2024  1.1586
  735MOL0     C 1313   1.009   7.203   9.201 -0.5938 -1.9683 -0.0590
  735MOL0     C 1314   0.869   7.156   9.245  0.2221 -0.9873  0.8004
  735MOL0     C 1315   0.837   7.221   9.380  1.0026 -0.8844 -0.2011
  735MOL0     O 1316   0.831   7.365   9.378  0.4174  0.1861  0.7655
  735MOL0     C 1317   0.814   7.439   9.490  0.0558  0.3522  0.3441
  735MOL0     C 1318   0.763   7.381   9.609 -0.2456  0.5589 -0.0096
  735MOL0     C 1319   0.725   7.457   9.722 -0.4475 -0.4252  0.0280
  735MOL0     C 1320   0.663   7.387   9.841 -0.9977  0.5599 -0.9132
  735MOL0     C 1321   0.747   7.598   9.718 -0.3557 -0.9496 -0.3198
  735MOL0     C 1322   0.719   7.692   9.826 -0.6277  0.2973 -0.9303
  735MOL0     O 1323   0.675   7.821   9.796 -0.2357  0.0321 -0.0237
  735MOL0     C 1324   0.634   7.887   9.908 -0.2433 -0.4959 -0.1192
  735MOL0     C 1325   0.516   7.852   9.964 -0.0078  0.3695 -0.4791
  735MOL0     C 1326   0.474   7.903  10.088  0.5028  0.4474  0.0000
  735MOL0     C 1327   0.552   7.989  10.150 -0.7785  0.1660  0.7256
  735MOL0     O 1328   0.515   8.033  10.270  0.6033 -0.1566 -1.2030
  735MOL0     C 1329   0.621   8.017  10.373  0.5332  0.2530 -0.2651
  735MOL0     C 1330   0.584   8.076  10.511 -0.6168 -0.0865  0.0529
  735MOL0     C 1331   0.592   8.220  10.512  0.4883 -1.0811 -0.7397
  735MOL0     C 1332   0.730   8.273  10.555  0.3911  0.1624  0.1025
  735MOL0     C 1333   0.735   8.423  10.581 -0.0610  0.6264 -0.3086
  735MOL0     C 1334   0.722   8.505  10.445  0.4922 -0.4977  0.1313
  735MOL0     C 1335   0.690   8.649  10.482 -0.2509 -0.2339  0.0660
  735MOL0     C 1336   0.822   8.723  10.512 -1.1996  0.2916 -0.3927
  735MOL0    Cl 1337   0.811   8.898  10.467 -0.4272  0.0452 -0.1580
  735MOL0     C 1338   0.668   8.033  10.087 -0.0896  0.4289 -0.3517
  735MOL0     C 1339   0.715   7.981   9.960  0.0889 -0.4251  0.4027
  735MOL0     O 1340   0.760   7.662   9.935 -0.1925 -0.4282  0.3063
  735MOL0     C 1341   0.814   7.655   9.609  0.0827  0.5923  0.2949
  735MOL0     C 1342   0.838   7.573   9.497 -1.8205 -0.5305  0.4448
  735MOL0     N 1343   1.275   7.250   9.087 -0.6519  0.5446 -0.1567
  735MOL0     N 1344   1.348   7.331   9.015 -0.1563 -0.2754  0.5581
  735MOL0     C 1345   1.607   7.398   7.830  0.7613 -0.8287 -0.1632
  735MOL0     C 1346   1.627   7.431   7.694  0.9758 -0.1936 -0.3124
  735MOL0     C 1347   1.588   7.493   7.250 -1.1916  0.2055 -0.1104
  735MOL0     C 1348   1.689   7.565   7.178  0.0299 -0.9675 -0.4277
  735MOL0     C 1349   1.713   7.540   7.036 -1.1444 -0.2055  0.3596
  735MOL0     C 1350   1.651   7.435   6.974 -0.1087  0.4726  0.4224
  735MOL0     O 1351   1.684   7.406   6.843 -0.2849  0.3065  0.0233
  735MOL0     C 1352   1.582   7.332   6.772 -0.3179 -0.1376 -0.8055
  735MOL0     C 1353   1.622   7.296   6.629 -0.2356  0.0855  0.8100
  735MOL0     C 1354   1.652   7.431   6.557 -0.6509  0.0247  0.2676
  735MOL0     C 1355   1.645   7.420   6.406  0.5781  0.6314 -0.3455
  735MOL0     C 1356   1.680   7.545   6.340 -0.1767 -1.3769 -0.1956
  735MOL0     C 1357   1.700   7.648   6.275  0.0192  0.7725  0.9925
  735MOL0     C 1358   1.532   7.381   7.039  0.3667 -0.4035 -1.0943
  735MOL0     C 1359   1.506   7.404   7.175 -0.2173  0.3546  0.1141
  735MOL0     C 1360   1.379   7.354   7.233  0.9589  1.3305 -0.0784
  735MOL0     H 1361   1.439   7.175   7.573 -0.9488 -1.0948  0.6798
  735MOL0     H 1362   1.429   7.124   7.823  1.6518 -0.5702 -1.3428
  735MOL0     H 1363   1.678   7.187   8.076  0.3653  0.8392  2.2221
  735MOL0     H 1364   1.574   7.070   7.993 -0.1992  0.8486 -0.3192
  735MOL0     H 1365   1.419   7.144   8.197 -1.3784 -3.0780 -2.2808
  735MOL0     H 1366   1.543   7.027   8.239  0.7392  1.6993  1.5052
  735MOL0     H 1367   1.678   7.176   8.337 -0.7386 -1.4654  1.4915
  735MOL0     H 1368   1.620   7.310   8.244  0.7028 -0.0027  2.1149
  735MOL0     H 1369   1.384   7.268   8.370  0.7231  1.0657  0.1497
  735MOL0     H 1370   1.481   7.192   8.491  0.9176 -0.9780 -0.2089
  735MOL0     H 1371   1.519   7.475   8.358  2.7466  1.2908  0.1488
  735MOL0     H 1372   1.622   7.435   8.495 -1.8321  1.6886  2.8735
  735MOL0     H 1373   1.470   7.556   8.607  1.8827 -3.7600  1.8008
  735MOL0     H 1374   1.330   7.508   8.505  0.6726  0.3895 -0.0913
  735MOL0     H 1375   1.488   7.326   8.690 -0.8547 -3.5648  0.9019
  735MOL0     H 1376   1.311   7.301   8.641  1.8422 -0.9751 -1.0266
  735MOL0     H 1377   1.423   7.495   8.840 -0.1055 -0.4825  0.2177
  735MOL0     H 1378   1.257   7.500   8.751  0.3205  1.0608 -2.6154
  735MOL0     H 1379   1.097   7.289   8.817  1.3233  1.9485 -0.0806
  735MOL0     H 1380   1.100   7.023   9.122  0.0100 -0.0421  0.8045
  735MOL0     H 1381   0.973   7.094   9.019 -0.4178 -1.3063  1.1353
  735MOL0     H 1382   1.080   7.213   9.283 -0.2865 -2.0635 -0.3138
  735MOL0     H 1383   1.005   7.306   9.163 -1.0087 -2.0936 -0.3572
  735MOL0     H 1384   0.790   7.195   9.181  0.0888 -0.8984  1.0181
  735MOL0     H 1385   0.872   7.047   9.257  1.4369 -0.9968  0.5846
  735MOL0     H 1386   0.736   7.191   9.409  0.7787  1.0479  1.1751
  735MOL0     H 1387   0.909   7.181   9.453  1.9819 -0.6153 -0.9994
  735MOL0     H 1388   0.740   7.275   9.615 -1.3893  0.7894 -0.1813
  735MOL0     H 1389   0.645   7.280   9.830 -0.6267  0.2370  1.1253
  735MOL0     H 1390   0.570   7.442   9.861  0.9325  3.0297  2.2114
  735MOL0     H 1391   0.729   7.402   9.927 -1.5407 -0.8996 -0.2129
  735MOL0     H 1392   0.466   7.770   9.914 -0.9511  0.0981  0.8351
  735MOL0     H 1393   0.392   7.851  10.138  1.9120 -1.9767 -0.0381
  735MOL0     H 1394   0.631   7.909  10.392 -1.1709  0.0334 -0.4037
  735MOL0     H 1395   0.717   8.062  10.349  1.3680 -0.6914  1.1264
  735MOL0     H 1396   0.478   8.053  10.529 -0.7500  2.4113  3.4506
  735MOL0     H 1397   0.649   8.042  10.592  2.2664  1.8413 -1.3101
  735MOL0     H 1398   0.524   8.263  10.586  0.0480  0.0414 -1.7500
  735MOL0     H 1399   0.565   8.266  10.416 -1.1550  1.7569  0.9317
  735MOL0     H 1400   0.795   8.250  10.470  0.7471  2.0260 -0.1583
  735MOL0     H 1401   0.780   8.220  10.637  2.7173 -0.7768 -1.8100
  735MOL0     H 1402   0.660   8.454  10.655  2.8878  0.6884  2.9430
  735MOL0     H 1403   0.825   8.456  10.633  1.7464  1.2893 -3.6079
  735MOL0     H 1404   0.633   8.474  10.390  0.5343  1.5193 -1.1661
  735MOL0     H 1405   0.813   8.490  10.386  0.9905  1.8134  0.2162
  735MOL0     H 1406   0.636   8.656  10.577  0.3557  0.0967  0.3942
  735MOL0     H 1407   0.631   8.698  10.405  2.0503  1.4182 -0.7491
  735MOL0     H 1408   0.901   8.674  10.455 -1.1434  1.8172 -1.6980
  735MOL0     H 1409   0.847   8.721  10.619  0.3426  2.3929 -0.6619
  735MOL0     H 1410   0.720   8.117  10.132 -0.7822  0.6177  0.1201
  735MOL0     H 1411   0.808   8.018   9.917  0.3270 -2.1082 -0.6296
  735MOL0     H 1412   0.828   7.763   9.609 -2.0595  0.9280  1.8166
  735MOL0     H 1413   0.883   7.632   9.417  0.2403  2.0935  3.2692
  735MOL0     H 1414   1.641   7.465   7.908  1.3237 -2.5490  1.1269
  735MOL0     H 1415   1.685   7.521   7.675  2.2650 -0.9795 -0.1965
  735MOL0     H 1416   1.744   7.642   7.232 -1.1128  1.1983 -2.2177
  735MOL0     H 1417   1.781   7.600   6.976 -0.4607 -1.3536 -0.0538
  735MOL0     H 1418   1.561   7.238   6.824  1.0780  0.7738  1.5285
  735MOL0     H 1419   1.495   7.397   6.785 -2.8723 -3.5610  1.0967
  735MOL0     H 1420   1.533   7.253   6.582  0.7504 -0.1773 -0.9109
  735MOL0     H 1421   1.702   7.223   6.619 -1.7316 -1.8007  1.9867
  735MOL0     H 1422   1.573   7.497   6.595  0.2498  2.8786 -2.4199
  735MOL0     H 1423   1.753   7.465   6.583  0.9111 -3.2030 -1.0201
  735MOL0     H 1424   1.543   7.398   6.372  0.4111  1.4835 -0.4413
  735MOL0     H 1425   1.716   7.339   6.386  0.2643  0.0904  0.6554
  735MOL0     H 1426   1.716   7.725   6.202 -0.2289 -1.6286 -1.7798
  735MOL0     H 1427   1.465   7.307   6.996  0.3770 -1.5032  0.6905
  735MOL0     H 1428   1.321   7.424   7.294 -1.0128  0.0849 -0.4407
  735MOL0     H 1429   1.309   7.322   7.156  1.3085  0.6931 -0.1421
  735MOL0     H 1430   1.396   7.263   7.291  0.2187  1.3913  0.2515
  736MOL0     O 1431   6.995  10.022   5.855 -0.0363  0.8458 -0.6589
  736MOL0     C 1432   6.936  10.093   5.773 -0.3444 -0.2389  0.2154
  736MOL0     O 1433   6.990  10.202   5.714  0.0728  0.0375  0.1226
  736MOL0     C 1434   7.110  10.250   5.745 -0.1827 -0.3934 -0.0789
  736MOL0     C 1435   7.196  10.310   5.650  0.2749  0.6079 -0.3575
  736MOL0     C 1436   7.311  10.377   5.686  0.6340  0.6474  0.0747
  736MOL0     C 1437   7.343  10.389   5.830 -0.3235 -0.9127  0.6514
  736MOL0     O 1438   7.455  10.462   5.870  0.3357 -0.3208  0.3730
  736MOL0     C 1439   7.545  10.393   5.965  0.0476  0.3666  0.3492
  736MOL0     C 1440   7.692  10.420   5.928  0.1288 -0.1018  0.0609
  736MOL0     C 1441   7.704  10.394   5.779 -0.3483  0.0894 -0.2233
  736MOL0     C 1442   7.851  10.383   5.746  0.2715 -0.2863  0.1812
  736MOL0     C 1443   7.918  10.253   5.794  0.4261 -0.7510  0.0103
  736MOL0     C 1444   7.948  10.153   5.698 -0.4038  0.2448  0.1480
  736MOL0     C 1445   8.020  10.029   5.757  0.6907  0.3558  0.9292
  736MOL0     C 1446   8.154  10.063   5.832 -0.8387 -0.1679  0.8389
  736MOL0     N 1447   8.239   9.949   5.862  0.7896 -0.3311  0.3093
  736MOL0     C 1448   8.247   9.890   5.986  1.0341  0.3831 -0.0431
  736MOL0     C 1449   8.339   9.796   5.987  0.3607  0.0693 -0.7032
  736MOL0     C 1450   8.383   9.693   6.089  0.4408  0.2231  0.4155
  736MOL0     C 1451   8.453   9.746   6.209 -0.7257  0.3107  0.8660
  736MOL0     C 1452   8.376   9.849   6.293 -0.7146 -0.9798 -0.0761
  736MOL0     C 1453   8.449   9.857   6.431  0.2719 -0.7253 -0.0713
  736MOL0     O 1454   8.378   9.930   6.530  0.1263 -0.1061 -0.6657
  736MOL0     C 1455   8.447   9.978   6.637 -0.2405  0.4327 -0.4346
  736MOL0     C 1456   8.455  10.115   6.659  0.4324 -0.5595 -0.0719
  736MOL0     C 1457   8.520  10.165   6.765 -0.8667  0.6035  0.6464
  736MOL0     C 1458   8.529  10.315   6.769  0.4109  0.8584  0.3680
  736MOL0     C 1459   8.581  10.081   6.864 -0.2361  0.3823 -0.1822
  736MOL0     C 1460   8.657  10.129   6.980  0.8315  0.0349 -0.4117
  736MOL0     O 1461   8.587  10.197   7.079 -0.1290  0.0518  1.3808
  736MOL0     C 1462   8.645  10.190   7.200 -0.3069 -0.2429 -0.6171
  736MOL0     C 1463   8.645  10.078   7.278  0.4244  1.0980 -0.3755
  736MOL0     C 1464   8.730  10.065   7.385  0.4845  0.7911  0.1271
  736MOL0     C 1465   8.799  10.180   7.438 -0.1758 -0.4276  0.0588
  736MOL0     O 1466   8.893  10.162   7.530  0.6949 -0.3693 -0.4645
  736MOL0     C 1467   8.906  10.264   7.635  0.4929  0.0596 -0.8401
  736MOL0     C 1468   9.005  10.213   7.736 -0.2333 -0.7322  0.8969
  736MOL0     C 1469   8.926  10.176   7.865  0.0775  0.2900 -0.4566
  736MOL0     C 1470   8.805  10.077   7.842 -0.2532  0.3808  0.3937
  736MOL0     C 1471   8.861   9.930   7.851 -0.6151 -0.1731 -0.4152
  736MOL0     C 1472   8.766   9.822   7.836  0.7012  0.0466 -0.8462
  736MOL0     C 1473   8.683   9.800   7.706 -0.2948  0.0844 -0.1278
  736MOL0     C 1474   8.597   9.670   7.701  0.4771 -0.1253 -0.2746
  736MOL0    Cl 1475   8.434   9.723   7.706  0.9048  0.3662  0.4567
  736MOL0     C 1476   8.786  10.299   7.371 -0.8245 -0.3813 -0.6169
  736MOL0     C 1477   8.719  10.301   7.250  0.1129 -0.1239  0.2907
  736MOL0     O 1478   8.781  10.107   6.984  1.0515 -0.4864 -0.2830
  736MOL0     C 1479   8.587   9.942   6.836  0.0623  0.3765 -0.4539
  736MOL0     C 1480   8.528   9.892   6.718 -0.5344  0.1593 -1.0606
  736MOL0     N 1481   8.398   9.795   5.860 -0.7793  0.7487  0.1306
  736MOL0     N 1482   8.337   9.885   5.781 -0.4414  0.1050  0.0895
  736MOL0     C 1483   7.249  10.340   5.921 -0.2776 -0.6897 -1.3692
  736MOL0     C 1484   7.135  10.268   5.883 -0.9388  0.4982 -0.0115
  736MOL0     C 1485   6.795  10.075   5.749 -0.4210 -0.4832 -0.4755
  736MOL0     C 1486   6.743  10.109   5.624 -0.6800 -0.1270  0.6635
  736MOL0     C 1487   6.615  10.088   5.591  1.2507 -0.2705  0.5646
  736MOL0     C 1488   6.531  10.043   5.693 -0.2991 -0.5415  0.0336
  736MOL0     O 1489   6.404  10.018   5.663 -0.1527  0.2433 -1.0340
  736MOL0     C 1490   6.377   9.875   5.625  0.5630 -0.2148 -0.1119
  736MOL0     C 1491   6.246   9.852   5.553 -0.2920 -0.3360  0.5980
  736MOL0     C 1492   6.127   9.864   5.646 -0.1012  0.3774  0.8019
  736MOL0     C 1493   6.038   9.978   5.608  0.7238  0.2713  0.1719
  736MOL0     C 1494   5.925   9.968   5.703 -0.2315 -0.3029 -0.7434
  736MOL0     C 1495   5.835   9.967   5.788  0.2127  0.8657  0.3239
  736MOL0     C 1496   6.572  10.017   5.824  1.5293 -0.7305 -0.6717
  736MOL0     C 1497   6.713  10.024   5.856  0.3692 -0.5085 -0.1764
  736MOL0     C 1498   6.759   9.985   5.996  0.6844  0.2529  0.0840
  736MOL0     H 1499   7.168  10.300   5.546  1.8592 -1.8695 -0.6262
  736MOL0     H 1500   7.367  10.434   5.612 -0.7199  1.0638 -0.6696
  736MOL0     H 1501   7.526  10.285   5.961 -3.4224  0.8212  1.3590
  736MOL0     H 1502   7.528  10.422   6.069 -3.9827  1.9613 -0.5527
  736MOL0     H 1503   7.714  10.526   5.940  2.9973 -0.4375 -1.4641
  736MOL0     H 1504   7.754  10.360   5.995 -3.8279 -1.9571  2.4855
  736MOL0     H 1505   7.641  10.310   5.746 -1.4392  1.9031 -3.2538
  736MOL0     H 1506   7.667  10.485   5.729  1.0615 -0.1852 -1.8572
  736MOL0     H 1507   7.856  10.390   5.637  0.0469 -2.0266  0.0295
  736MOL0     H 1508   7.907  10.475   5.768  2.4563 -0.9521 -2.1894
  736MOL0     H 1509   7.858  10.202   5.870 -0.0551 -3.0386 -1.7845
  736MOL0     H 1510   8.006  10.301   5.837  0.9156  1.6580 -3.2763
  736MOL0     H 1511   7.855  10.109   5.661  0.1037  0.8225 -1.9815
  736MOL0     H 1512   8.015  10.193   5.621  0.4233 -0.5306  0.4443
  736MOL0     H 1513   8.035   9.969   5.667 -1.0071  0.3129  0.6387
  736MOL0     H 1514   7.954   9.972   5.823  0.8878 -0.0014  0.8182
  736MOL0     H 1515   8.206  10.133   5.766 -1.6132  1.8583  2.2896
  736MOL0     H 1516   8.144  10.115   5.928  2.2968  0.3811  0.9823
  736MOL0     H 1517   8.186   9.918   6.072  0.8101 -2.1051  0.6802
  736MOL0     H 1518   8.457   9.623   6.048 -0.9811 -1.2045  0.1595
  736MOL0     H 1519   8.300   9.630   6.124 -0.1136 -0.3869 -1.8418
  736MOL0     H 1520   8.470   9.660   6.275  0.0156  0.3023  0.6714
  736MOL0     H 1521   8.550   9.788   6.181 -0.8003 -0.5125 -0.7185
  736MOL0     H 1522   8.384   9.944   6.240  3.2085 -1.2804 -0.3631
  736MOL0     H 1523   8.275   9.810   6.302 -0.8998 -0.1581  1.8436
  736MOL0     H 1524   8.472   9.758   6.473  3.1031  1.1014  3.1907
  736MOL0     H 1525   8.548   9.902   6.417 -0.6252  2.0422  1.7503
  736MOL0     H 1526   8.408  10.188   6.594  1.9228  1.8743  1.4237
  736MOL0     H 1527   8.467  10.358   6.690 -1.3062 -0.6131  0.8373
  736MOL0     H 1528   8.635  10.340   6.763  0.7657 -0.8797 -1.9581
  736MOL0     H 1529   8.491  10.349   6.866 -0.8128 -2.0752  1.0574
  736MOL0     H 1530   8.584  10.002   7.230 -0.1922  1.6432 -0.4639
  736MOL0     H 1531   8.746   9.971   7.437  1.6356 -0.0080 -1.6053
  736MOL0     H 1532   8.940  10.359   7.593  2.0589 -0.4089 -0.6871
  736MOL0     H 1533   8.814  10.289   7.690  0.8983  1.8173 -0.9137
  736MOL0     H 1534   9.053  10.124   7.695  0.8398 -0.0961  0.7315
  736MOL0     H 1535   9.079  10.291   7.755 -1.0868  0.0186  1.2583
  736MOL0     H 1536   8.872  10.264   7.903 -1.6185  0.1703 -2.4072
  736MOL0     H 1537   8.991  10.133   7.942  2.7738  3.0562 -0.9923
  736MOL0     H 1538   8.743  10.090   7.753  0.0424 -1.7343 -0.1961
  736MOL0     H 1539   8.735  10.084   7.925 -4.8940  1.4179 -3.1860
  736MOL0     H 1540   8.944   9.921   7.781 -0.2732 -1.1851  0.0994
  736MOL0     H 1541   8.896   9.915   7.954  1.2813 -0.4874 -1.0580
  736MOL0     H 1542   8.695   9.827   7.918  1.4172 -1.6374 -0.0936
  736MOL0     H 1543   8.818   9.727   7.851 -0.0154 -0.3882 -1.0565
  736MOL0     H 1544   8.748   9.800   7.618 -1.2572  0.5337 -0.8545
  736MOL0     H 1545   8.630   9.892   7.681  1.9012  1.5205  0.2288
  736MOL0     H 1546   8.619   9.600   7.782  0.9639  1.5289  1.0770
  736MOL0     H 1547   8.616   9.621   7.605 -0.4589 -1.9943  0.4532
  736MOL0     H 1548   8.827  10.383   7.425 -0.1621 -3.1910  3.7920
  736MOL0     H 1549   8.712  10.400   7.208 -0.0144 -1.1675 -2.3245
  736MOL0     H 1550   8.639   9.873   6.902 -3.7988 -0.7969  1.6438
  736MOL0     H 1551   8.537   9.786   6.698 -2.9796 -0.0096 -1.5182
  736MOL0     H 1552   7.256  10.351   6.028 -1.2461 -2.1434 -1.1277
  736MOL0     H 1553   7.081  10.226   5.967  2.2621 -3.2108  0.4695
  736MOL0     H 1554   6.812  10.146   5.549  0.0259  0.8244  1.7410
  736MOL0     H 1555   6.568  10.124   5.500 -0.8722  0.5620  1.9207
  736MOL0     H 1556   6.448   9.837   5.552 -0.4175 -0.2501 -1.0659
  736MOL0     H 1557   6.371   9.812   5.714  0.3316 -0.1062 -0.0477
  736MOL0     H 1558   6.253   9.747   5.523 -0.1873 -0.5446  1.3512
  736MOL0     H 1559   6.239   9.915   5.463  0.8066 -1.1838 -0.1144
  736MOL0     H 1560   6.069   9.771   5.649  1.5254 -0.6382  2.7013
  736MOL0     H 1561   6.167   9.882   5.746  1.7762 -1.6763  0.4793
  736MOL0     H 1562   5.987   9.979   5.511 -3.7188  1.4647  2.2574
  736MOL0     H 1563   6.093  10.071   5.628 -0.1370  0.9875 -0.7094
  736MOL0     H 1564   5.751   9.971   5.854  0.4905 -1.3439  0.8900
  736MOL0     H 1565   6.490   9.991   5.890  0.2820 -0.8600 -2.2068
  736MOL0     H 1566   6.824   9.897   5.997  0.5685  0.1573  1.8355
  736MOL0     H 1567   6.810  10.069   6.044  3.6405 -1.9815  1.1506
  736MOL0     H 1568   6.670   9.967   6.057  0.9849  1.9951  1.0858
  737MOL0     O 1569   6.735   7.348  10.319 -0.0642  1.2544 -0.7251
  737MOL0     C 1570   6.659   7.442  10.308 -0.6338  0.3908  1.1688
  737MOL0     O 1571   6.661   7.551  10.385  0.6691 -0.4619 -0.3516
  737MOL0     C 1572   6.686   7.536  10.522 -1.1317  0.2653  0.3777
  737MOL0     C 1573   6.583   7.566  10.614  0.1418 -0.1432 -0.0969
  737MOL0     C 1574   6.603   7.574  10.749  0.1917  0.6730 -1.4602
  737MOL0     C 1575   6.729   7.540  10.801  1.2718 -0.0580 -0.1317
  737MOL0     O 1576   6.746   7.547  10.936  0.3175 -0.2604  0.3164
  737MOL0     C 1577   6.879   7.518  10.988 -0.7384  0.6124  0.4686
  737MOL0     C 1578   6.882   7.530  11.147 -0.2398 -0.8033  0.1387
  737MOL0     C 1579   6.804   7.658  11.193 -0.4499  0.0893  0.2801
  737MOL0     C 1580   6.874   7.792  11.151  0.2015 -0.3230 -0.1240
  737MOL0     C 1581   7.024   7.806  11.192 -0.2771 -0.5978 -0.0578
  737MOL0     C 1582   7.048   7.799  11.349 -0.4418 -0.0531  0.8323
  737MOL0     C 1583   7.193   7.807  11.408  0.5128  1.0669 -0.2959
  737MOL0     C 1584   7.186   7.880  11.554  0.1583  0.9680  0.6525
  737MOL0     N 1585   7.320   7.909  11.612  0.9056 -0.8223 -0.2469
  737MOL0     C 1586   7.357   8.021  11.687 -0.0844  0.7398  1.3234
  737MOL0     C 1587   7.496   8.037  11.670  0.8578 -1.0366 -0.6720
  737MOL0     C 1588   7.585   8.136  11.738 -0.5615 -0.1304 -1.1394
  737MOL0     C 1589   7.678   8.063  11.849 -0.0624 -0.6974 -0.1576
  737MOL0     C 1590   7.750   8.172  11.929  0.3065 -0.1394 -0.2584
  737MOL0     C 1591   7.881   8.121  11.976 -1.8609 -0.6932 -0.1038
  737MOL0     O 1592   7.931   8.233  12.066 -0.1748 -0.2420  1.0623
  737MOL0     C 1593   8.030   8.201  12.153 -0.1607  0.2134 -0.4289
  737MOL0     C 1594   8.054   8.281  12.267 -1.1545  0.2635 -0.8140
  737MOL0     C 1595   8.171   8.272  12.340  0.3268 -0.1038  0.1882
  737MOL0     C 1596   8.203   8.377  12.447  0.2228  0.1071  0.6574
  737MOL0     C 1597   8.263   8.171  12.300 -0.3733  0.0769 -0.5701
  737MOL0     C 1598   8.394   8.155  12.367 -0.2643  0.9536  0.7082
  737MOL0     O 1599   8.455   8.032  12.353  0.5280  0.5529 -0.3608
  737MOL0     C 1600   8.590   8.018  12.372 -0.4175  0.1553 -0.0215
  737MOL0     C 1601   8.654   7.992  12.489  0.3276 -0.5040 -1.0555
  737MOL0     C 1602   8.793   7.957  12.481  0.6981  0.2226 -0.8170
  737MOL0     C 1603   8.862   7.963  12.362 -0.2363  1.0888  1.1809
  737MOL0     O 1604   8.991   7.919  12.355  0.2851 -0.7531 -0.2835
  737MOL0     C 1605   9.061   7.929  12.232 -0.1772  0.3578  0.1263
  737MOL0     C 1606   9.204   7.873  12.265 -0.2371  0.5547 -0.5866
  737MOL0     C 1607   9.273   7.950  12.382 -0.1518 -0.3172  0.1130
  737MOL0     C 1608   9.366   7.856  12.465 -0.4249 -0.3698 -0.3398
  737MOL0     C 1609   9.495   7.792  12.401 -0.1251 -0.5089 -1.5040
  737MOL0     C 1610   9.567   7.686  12.495  0.0120 -0.9615 -0.4835
  737MOL0     C 1611   9.648   7.759  12.604  0.3087  0.9045 -0.3315
  737MOL0     C 1612   9.676   7.664  12.719  0.3379  0.1923  0.2138
  737MOL0    Cl 1613   9.733   7.506  12.642  0.2282 -0.2955  0.1924
  737MOL0     C 1614   8.789   7.988  12.243  0.4121 -0.0649  0.1629
  737MOL0     C 1615   8.655   8.024  12.251  0.1361 -0.1649 -0.2701
  737MOL0     O 1616   8.448   8.252  12.426 -0.2110  0.2952  0.4290
  737MOL0     C 1617   8.229   8.076  12.202  0.2435  1.0091  0.9326
  737MOL0     C 1618   8.110   8.083  12.132  0.7783  0.3527  0.0736
  737MOL0     N 1619   7.537   7.921  11.613 -0.3715  0.0497  0.7390
  737MOL0     N 1620   7.432   7.845  11.574 -0.4428  0.0487 -0.2796
  737MOL0     C 1621   6.834   7.511  10.712  0.1372  0.4396  1.0331
  737MOL0     C 1622   6.812   7.512  10.576 -0.5725  0.1059 -0.0361
  737MOL0     C 1623   6.556   7.431  10.200  0.4912  0.4266  0.3736
  737MOL0     C 1624   6.503   7.302  10.166  0.2000 -0.2488  0.1836
  737MOL0     C 1625   6.396   7.275  10.071 -0.3395  0.1710  0.3907
  737MOL0     C 1626   6.349   7.382  10.000 -0.9207 -0.2905  0.0631
  737MOL0     O 1627   6.249   7.375   9.910 -0.8732  0.2991 -0.4602
  737MOL0     C 1628   6.142   7.278   9.934 -0.2846  0.9265  0.5087
  737MOL0     C 1629   6.006   7.346   9.952 -0.4216  0.3066  0.2458
  737MOL0     C 1630   5.896   7.250   9.906 -0.5713  0.1990  0.5296
  737MOL0     C 1631   5.866   7.135   9.999  0.1424  0.2391  0.6863
  737MOL0     C 1632   5.801   7.187  10.120 -0.4776  0.4454 -1.0706
  737MOL0     C 1633   5.736   7.233  10.209  0.8366  0.1929  0.2422
  737MOL0     C 1634   6.405   7.505  10.024  0.7816 -0.0882  0.5441
  737MOL0     C 1635   6.497   7.535  10.125 -0.0713  0.1465 -0.0440
  737MOL0     C 1636   6.530   7.673  10.152  0.4189  0.5076  0.8207
  737MOL0     H 1637   6.483   7.590  10.580  0.2893  0.7347  0.0584
  737MOL0     H 1638   6.522   7.604  10.815  1.3768 -0.3964  0.6044
  737MOL0     H 1639   6.962   7.575  10.944 -0.6584 -0.8409 -1.3607
  737MOL0     H 1640   6.894   7.411  10.972 -0.8102  0.6676  0.0190
  737MOL0     H 1641   6.835   7.440  11.189  3.1282 -1.6382  2.5225
  737MOL0     H 1642   6.986   7.538  11.180 -0.0396  0.7858 -0.7914
  737MOL0     H 1643   6.701   7.645  11.158 -0.8508  0.6348  1.2070
  737MOL0     H 1644   6.797   7.650  11.302  2.0105  1.1146  0.5805
  737MOL0     H 1645   6.865   7.809  11.043 -0.6029  0.6977  0.0794
  737MOL0     H 1646   6.813   7.872  11.195 -2.0604 -1.1111 -1.6396
  737MOL0     H 1647   7.048   7.902  11.144 -3.6898  0.4354  0.0221
  737MOL0     H 1648   7.084   7.722  11.155 -2.9169 -3.3347  1.4698
  737MOL0     H 1649   6.990   7.883  11.387 -0.3539 -0.5095  2.0097
  737MOL0     H 1650   7.008   7.706  11.391 -1.6149 -0.3090 -0.7520
  737MOL0     H 1651   7.265   7.863  11.347  0.7111  2.2506  0.9704
  737MOL0     H 1652   7.235   7.707  11.422 -4.3515 -1.2528 -0.1358
  737MOL0     H 1653   7.130   7.974  11.561  1.6577  1.8623  1.1647
  737MOL0     H 1654   7.150   7.808  11.627 -4.6975  1.3891 -0.9310
  737MOL0     H 1655   7.298   8.096  11.738 -1.1786 -0.0328  1.2414
  737MOL0     H 1656   7.523   8.211  11.788 -1.0816 -0.6186 -1.0386
  737MOL0     H 1657   7.645   8.195  11.668 -0.4463  1.2385  0.0547
  737MOL0     H 1658   7.612   8.001  11.911  0.8838 -2.8416 -1.1836
  737MOL0     H 1659   7.745   8.002  11.788 -2.3725 -0.8182 -2.7570
  737MOL0     H 1660   7.768   8.255  11.860 -0.4488 -2.7802 -3.9424
  737MOL0     H 1661   7.680   8.210  12.004  1.7549  3.6097 -0.5748
  737MOL0     H 1662   7.877   8.022  12.021  1.7094 -0.7560  0.4096
  737MOL0     H 1663   7.948   8.117  11.889 -1.3659 -0.5104  0.2604
  737MOL0     H 1664   7.986   8.361  12.293 -0.3497  0.4199  0.9414
  737MOL0     H 1665   8.275   8.448  12.404 -2.6367  1.7409 -1.7824
  737MOL0     H 1666   8.246   8.338  12.540  2.7729 -1.0115 -0.8611
  737MOL0     H 1667   8.111   8.431  12.468  0.7590  1.1217  0.4750
  737MOL0     H 1668   8.595   7.993  12.580  1.8643  0.0594 -0.0214
  737MOL0     H 1669   8.833   7.914  12.572 -2.9682 -0.4196  0.6852
  737MOL0     H 1670   9.007   7.884  12.148  0.7597 -0.0945 -0.2487
  737MOL0     H 1671   9.069   8.037  12.217 -2.2986  0.2735 -2.5093
  737MOL0     H 1672   9.182   7.770  12.294 -1.0907  0.7565 -0.4942
  737MOL0     H 1673   9.262   7.868  12.172 -1.6074 -1.0315 -1.4109
  737MOL0     H 1674   9.201   7.987  12.455 -0.9731 -2.9552  0.7390
  737MOL0     H 1675   9.339   8.029  12.346  1.8423  0.7616  5.2330
  737MOL0     H 1676   9.306   7.774  12.505 -1.0477 -0.3212 -1.1499
  737MOL0     H 1677   9.400   7.913  12.552 -0.8504 -3.1366  1.7731
  737MOL0     H 1678   9.467   7.748  12.305  0.2817 -1.4774 -1.1836
  737MOL0     H 1679   9.563   7.875  12.384  0.3753 -0.0121  2.1266
  737MOL0     H 1680   9.637   7.633  12.429  1.8104 -1.1680  1.4776
  737MOL0     H 1681   9.498   7.616  12.543  0.9774 -1.2732  0.4979
  737MOL0     H 1682   9.601   7.844  12.654 -4.2905 -2.5701  2.1185
  737MOL0     H 1683   9.739   7.798  12.559  0.9487  2.3316  2.0436
  737MOL0     H 1684   9.586   7.641  12.777 -0.2180 -1.0475 -1.0691
  737MOL0     H 1685   9.753   7.701  12.787 -0.5087  0.9895  0.7619
  737MOL0     H 1686   8.834   7.971  12.146  0.3518 -1.3704  0.3484
  737MOL0     H 1687   8.592   8.038  12.164  1.0781 -0.1933 -0.9716
  737MOL0     H 1688   8.293   7.993  12.176 -1.3577  0.3086 -1.0187
  737MOL0     H 1689   8.091   8.013  12.051 -0.6547  3.1633 -2.1977
  737MOL0     H 1690   6.940   7.495  10.730  0.7931  0.9884 -1.8390
  737MOL0     H 1691   6.896   7.496  10.509  0.3318  0.6345  0.9365
  737MOL0     H 1692   6.557   7.218  10.208  0.8897 -0.4402 -1.0242
  737MOL0     H 1693   6.366   7.171  10.067  1.7291 -0.4676  0.0723
  737MOL0     H 1694   6.143   7.206   9.851  0.9649  1.3812  0.1095
  737MOL0     H 1695   6.154   7.222  10.028  0.6190  1.5660  0.7808
  737MOL0     H 1696   6.000   7.427   9.878  0.9525 -1.7423 -2.2691
  737MOL0     H 1697   5.978   7.393  10.047 -3.0025  0.6811 -0.6159
  737MOL0     H 1698   5.807   7.314   9.905 -0.5391  0.2892  2.1897
  737MOL0     H 1699   5.931   7.221   9.806  1.3001 -0.5890  1.3807
  737MOL0     H 1700   5.956   7.078  10.024 -0.2395 -0.8792 -0.4005
  737MOL0     H 1701   5.795   7.079   9.937  1.0075 -2.3647  1.9269
  737MOL0     H 1702   5.674   7.281  10.283 -2.8280 -1.1909 -1.6808
  737MOL0     H 1703   6.369   7.592   9.972 -0.8840 -0.5568  0.8353
  737MOL0     H 1704   6.471   7.746  10.096 -1.6728 -1.8076 -0.1718
  737MOL0     H 1705   6.510   7.696  10.257  0.9971  1.5446  0.7176
  737MOL0     H 1706   6.638   7.675  10.136  0.3884  1.8170  0.6586
  738MOL0     O 1707   3.667   0.494  10.769 -0.8291 -0.2673  0.2561
  738MOL0     C 1708   3.599   0.508  10.668  0.4781 -0.1324 -0.6142
  738MOL0     O 1709   3.619   0.610  10.579  0.1532 -0.2089  0.0142
  738MOL0     C 1710   3.745   0.664  10.579 -0.7338  0.0235 -0.4754
  738MOL0     C 1711   3.871   0.598  10.594  0.1880 -1.2238 -0.5807
  738MOL0     C 1712   3.991   0.671  10.584  0.2391  0.5627 -0.7426
  738MOL0     C 1713   3.997   0.803  10.557 -0.0578  0.1908  0.5092
  738MOL0     O 1714   4.113   0.878  10.560 -0.2095 -0.2277  0.0138
  738MOL0     C 1715   4.233   0.810  10.606  0.0066 -0.4302  0.4357
  738MOL0     C 1716   4.338   0.923  10.626 -0.2278  1.0941 -0.6617
  738MOL0     C 1717   4.397   0.974  10.490  0.3405 -0.1605  0.2259
  738MOL0     C 1718   4.511   1.072  10.516  0.6551 -0.0073 -0.6826
  738MOL0     C 1719   4.579   1.137  10.388  0.5618  0.2825  0.2462
  738MOL0     C 1720   4.689   1.044  10.326  0.2970  0.8203  0.1209
  738MOL0     C 1721   4.775   1.119  10.227  0.5699  0.9192 -0.2526
  738MOL0     C 1722   4.898   1.170  10.297 -1.0339  0.4281 -0.1153
  738MOL0     N 1723   4.928   1.294  10.235 -0.1455  0.5462  0.3655
  738MOL0     C 1724   4.977   1.299  10.110  0.3820  0.2825  0.3565
  738MOL0     C 1725   5.018   1.419  10.074  0.9112 -0.2061 -0.2664
  738MOL0     C 1726   5.099   1.452   9.947  0.1711  0.0514 -0.7199
  738MOL0     C 1727   5.154   1.592   9.934 -0.6726 -0.1235 -0.0073
  738MOL0     C 1728   5.242   1.610   9.815  0.5309 -0.2707 -0.3047
  738MOL0     C 1729   5.296   1.756   9.803  0.5192 -0.4157 -0.6532
  738MOL0     O 1730   5.397   1.779   9.704  0.1037  1.0405 -0.1584
  738MOL0     C 1731   5.440   1.913   9.675  1.2759  0.9289 -1.1079
  738MOL0     C 1732   5.541   1.936   9.583 -0.3189 -0.2681  0.8732
  738MOL0     C 1733   5.591   2.068   9.548 -0.5567  0.9275 -0.5878
  738MOL0     C 1734   5.714   2.082   9.456  0.5976  0.7960  0.7662
  738MOL0     C 1735   5.550   2.167   9.634 -0.3557 -0.6308  1.0809
  738MOL0     C 1736   5.601   2.309   9.623 -0.2219  0.3458  0.5258
  738MOL0     O 1737   5.640   2.368   9.504 -0.5520  0.5445  0.1297
  738MOL0     C 1738   5.717   2.474   9.508 -0.5002  0.2390 -0.3086
  738MOL0     C 1739   5.672   2.579   9.430 -0.5832 -0.0592  0.4379
  738MOL0     C 1740   5.745   2.703   9.439  0.4520  1.1956 -0.1745
  738MOL0     C 1741   5.858   2.723   9.515 -0.6073  0.8555  0.2005
  738MOL0     O 1742   5.924   2.837   9.514 -0.4708 -0.2693 -0.0929
  738MOL0     C 1743   5.862   2.956   9.559 -0.0872  0.5968  0.0158
  738MOL0     C 1744   5.954   3.082   9.552 -0.3333  0.0335 -0.6032
  738MOL0     C 1745   5.908   3.185   9.654  0.5738 -0.2303  0.5927
  738MOL0     C 1746   6.022   3.282   9.694 -0.2864  0.9465 -0.9860
  738MOL0     C 1747   5.969   3.395   9.773  0.1719 -0.0521 -0.6422
  738MOL0     C 1748   5.889   3.498   9.684  0.1067 -0.4054 -0.7730
  738MOL0     C 1749   5.841   3.627   9.755 -0.7762  1.0676 -0.4583
  738MOL0     C 1750   5.848   3.755   9.657 -0.5912  0.3816 -1.0956
  738MOL0    Cl 1751   6.025   3.778   9.633 -0.5214  0.1790  0.0249
  738MOL0     C 1752   5.916   2.600   9.571  0.1211 -1.1718  0.5084
  738MOL0     C 1753   5.846   2.478   9.565  0.2634  0.5052 -0.5772
  738MOL0     O 1754   5.620   2.355   9.735  0.9225  0.0865  0.7263
  738MOL0     C 1755   5.450   2.148   9.738 -0.0478  0.0160  0.0955
  738MOL0     C 1756   5.394   2.023   9.754  0.8877  0.6243  0.1474
  738MOL0     N 1757   4.967   1.506  10.173  0.0888 -0.6976 -0.9584
  738MOL0     N 1758   4.919   1.423  10.271  0.0733 -0.3335  0.1079
  738MOL0     C 1759   3.876   0.865  10.530 -0.4488 -0.3360  0.3266
  738MOL0     C 1760   3.757   0.797  10.539 -0.0734 -0.5206  0.5763
  738MOL0     C 1761   3.470   0.451  10.652  0.2706  1.4704 -0.0063
  738MOL0     C 1762   3.420   0.381  10.767 -0.4489  0.5247  0.4933
  738MOL0     C 1763   3.313   0.293  10.760  0.3927  0.1027 -0.5377
  738MOL0     C 1764   3.231   0.287  10.642 -0.0083 -0.1454 -0.2980
  738MOL0     O 1765   3.108   0.220  10.631 -0.2202  0.3585  0.6734
  738MOL0     C 1766   3.109   0.082  10.689  0.7230 -0.7929 -0.5985
  738MOL0     C 1767   2.966   0.017  10.650 -0.8967  0.0401 -0.1729
  738MOL0     C 1768   2.974  -0.132  10.674 -0.2391  0.5510 -0.0247
  738MOL0     C 1769   2.969  -0.193  10.818 -0.0165 -0.2439 -1.1238
  738MOL0     C 1770   2.869  -0.122  10.901 -0.7962 -0.2438  0.6632
  738MOL0     C 1771   2.786  -0.072  10.971  1.2507 -0.6993  0.7483
  738MOL0     C 1772   3.264   0.371  10.537  0.5428 -0.0665  0.4264
  738MOL0     C 1773   3.387   0.447  10.535 -0.7930  0.1709  0.6751
  738MOL0     C 1774   3.426   0.514  10.404  0.2193  1.1039 -0.8899
  738MOL0     H 1775   3.877   0.495  10.629  1.0701 -0.4440  1.6972
  738MOL0     H 1776   4.077   0.606  10.598  1.0288  2.0520  2.0171
  738MOL0     H 1777   4.275   0.738  10.536  1.7463  2.2863 -1.5263
  738MOL0     H 1778   4.224   0.766  10.706 -1.0492  1.8838  1.4484
  738MOL0     H 1779   4.281   1.003  10.673  1.6481  2.6200 -0.8443
  738MOL0     H 1780   4.418   0.876  10.684  0.3382  0.2973 -2.0399
  738MOL0     H 1781   4.426   0.886  10.433  0.7978 -1.4225  2.3159
  738MOL0     H 1782   4.326   1.022  10.422 -1.3938 -2.9222 -0.0722
  738MOL0     H 1783   4.465   1.150  10.577 -1.6006 -1.7261 -0.0480
  738MOL0     H 1784   4.585   1.020  10.578 -1.7465 -1.4378  1.1737
  738MOL0     H 1785   4.613   1.235  10.423  1.0821  0.6448 -1.2115
  738MOL0     H 1786   4.519   1.154  10.299  4.0404  4.3645 -1.6624
  738MOL0     H 1787   4.744   0.999  10.410 -0.9751  2.0628  1.6701
  738MOL0     H 1788   4.641   0.963  10.270  0.2796  1.4573 -0.8012
  738MOL0     H 1789   4.711   1.200  10.192 -1.3152 -0.9010 -1.2419
  738MOL0     H 1790   4.796   1.058  10.138  0.5388 -0.5206  0.6831
  738MOL0     H 1791   4.886   1.189  10.404  0.3307  0.5043  0.0331
  738MOL0     H 1792   4.986   1.109  10.276  0.8820  3.1183 -0.4365
  738MOL0     H 1793   4.982   1.213  10.045  1.4774  0.3478  0.3264
  738MOL0     H 1794   5.040   1.439   9.857  0.4885 -1.2309 -0.7568
  738MOL0     H 1795   5.178   1.377   9.942 -0.3357 -0.4731 -1.0079
  738MOL0     H 1796   5.076   1.667   9.933 -1.1607 -0.5508  2.0873
  738MOL0     H 1797   5.223   1.613  10.017 -0.3899 -2.5521  0.4601
  738MOL0     H 1798   5.322   1.536   9.814 -0.0911 -0.9852  0.9506
  738MOL0     H 1799   5.186   1.593   9.722 -0.8188  1.8277  0.0502
  738MOL0     H 1800   5.215   1.828   9.788 -0.1976 -1.3937 -1.6094
  738MOL0     H 1801   5.345   1.778   9.898 -0.2041 -1.1386 -0.1071
  738MOL0     H 1802   5.587   1.849   9.535  1.8112  2.0256 -1.5754
  738MOL0     H 1803   5.743   1.983   9.422  0.4474  0.3922  1.7748
  738MOL0     H 1804   5.799   2.129   9.506 -0.2219  1.0603  1.9782
  738MOL0     H 1805   5.686   2.137   9.365 -2.3651 -1.4416  0.1672
  738MOL0     H 1806   5.584   2.564   9.368 -0.1664  1.5750 -0.6027
  738MOL0     H 1807   5.712   2.790   9.383 -3.0531  0.1461  0.0300
  738MOL0     H 1808   5.783   2.987   9.489  0.7800  1.5883 -0.5515
  738MOL0     H 1809   5.821   2.932   9.658  1.0355 -2.7172 -0.2226
  738MOL0     H 1810   6.049   3.044   9.589 -1.4059 -1.5877  0.6136
  738MOL0     H 1811   5.947   3.120   9.450 -2.7983  2.6943  0.4048
  738MOL0     H 1812   5.862   3.147   9.746 -1.1893  2.2750  0.8617
  738MOL0     H 1813   5.821   3.238   9.615 -0.3030 -1.9537  0.1089
  738MOL0     H 1814   6.077   3.319   9.607  0.1247 -0.3451 -1.2995
  738MOL0     H 1815   6.109   3.238   9.745  1.0202  2.3129 -1.9494
  738MOL0     H 1816   5.915   3.350   9.857  2.3096 -1.6072 -0.0376
  738MOL0     H 1817   6.060   3.438   9.815  0.5902 -2.2564  0.8826
  738MOL0     H 1818   5.803   3.442   9.646 -0.3226 -0.6882  0.5563
  738MOL0     H 1819   5.950   3.525   9.598  2.8988 -2.3350  0.4501
  738MOL0     H 1820   5.894   3.642   9.849  0.6372 -0.3957 -0.9707
  738MOL0     H 1821   5.737   3.612   9.784  0.0164 -3.4792  0.8640
  738MOL0     H 1822   5.805   3.845   9.703  1.3214  0.7047  0.1515
  738MOL0     H 1823   5.801   3.740   9.560 -0.6915 -0.6299 -0.8936
  738MOL0     H 1824   6.012   2.597   9.623  0.8977 -1.4583 -0.8981
  738MOL0     H 1825   5.884   2.387   9.611  1.1641  0.5366 -1.2308
  738MOL0     H 1826   5.416   2.229   9.802  0.3764  0.1632  0.1384
  738MOL0     H 1827   5.321   2.016   9.834  1.6778  3.8992  1.3267
  738MOL0     H 1828   3.888   0.971  10.506  2.0266 -0.3898  1.0686
  738MOL0     H 1829   3.666   0.848  10.507 -0.6073 -0.6100  1.8765
  738MOL0     H 1830   3.465   0.405  10.863  1.9223  2.7092 -1.0109
  738MOL0     H 1831   3.286   0.232  10.846 -1.2979 -1.9074 -2.3611
  738MOL0     H 1832   3.194   0.028  10.648  1.6865  0.8812 -0.9280
  738MOL0     H 1833   3.120   0.090  10.798  2.3010  0.7559 -0.8217
  738MOL0     H 1834   2.955   0.040  10.543  0.7217 -4.3265 -1.4802
  738MOL0     H 1835   2.879   0.065  10.696 -0.0161  1.9800 -0.4122
  738MOL0     H 1836   2.891  -0.185  10.626  0.7363 -1.9806  0.8747
  738MOL0     H 1837   3.072  -0.160  10.634 -0.1777  1.8060 -0.7977
  738MOL0     H 1838   3.070  -0.187  10.861 -0.3709 -1.0411 -0.1451
  738MOL0     H 1839   2.945  -0.299  10.810  0.8852 -0.5950  0.2569
  738MOL0     H 1840   2.722  -0.024  11.042  2.2587  1.4209  0.3157
  738MOL0     H 1841   3.191   0.363  10.457 -0.7304 -2.0742  1.6987
  738MOL0     H 1842   3.359   0.493  10.319 -2.2281  0.7723  1.0121
  738MOL0     H 1843   3.409   0.621  10.421  2.0944  1.1280  1.3571
  738MOL0     H 1844   3.530   0.500  10.374  0.5295 -0.8618  0.8583
  739MOL0     O 1845   5.363  10.601   2.751 -0.5258 -0.5902 -0.3097
  739MOL0     C 1846   5.291  10.515   2.804  0.0156 -0.8132 -0.1846
  739MOL0     O 1847   5.153  10.534   2.834 -0.5029  0.1513  0.0165
  739MOL0     C 1848   5.104  10.662   2.820  0.3207  1.3414 -0.3315
  739MOL0     C 1849   5.052  10.719   2.932  1.1697 -1.1622 -0.5016
  739MOL0     C 1850   4.997  10.844   2.923  0.4562  0.1855 -0.3526
  739MOL0     C 1851   4.978  10.907   2.803  0.5866  0.6416  1.0955
  739MOL0     O 1852   4.918  11.030   2.804  0.7407 -0.3518  0.4636
  739MOL0     C 1853   4.904  11.098   2.678 -0.1099  0.8919  0.3015
  739MOL0     C 1854   4.824  11.228   2.691 -0.2268  1.3019  0.4829
  739MOL0     C 1855   4.918  11.350   2.740  0.5607  0.4662  0.8520
  739MOL0     C 1856   4.995  11.398   2.613 -1.1740  0.0376  0.1736
  739MOL0     C 1857   5.048  11.542   2.634  0.6038  0.3901  0.5749
  739MOL0     C 1858   5.072  11.606   2.496  0.7440 -0.0799  0.6817
  739MOL0     C 1859   5.107  11.762   2.502 -0.5540  0.5506  0.0760
  739MOL0     C 1860   5.066  11.830   2.369 -0.3694 -0.6099  0.0418
  739MOL0     N 1861   5.133  11.753   2.259 -0.3196 -0.4756 -0.8161
  739MOL0     C 1862   5.272  11.767   2.228 -0.2817  0.6706  0.7345
  739MOL0     C 1863   5.280  11.678   2.124  0.0674 -0.6722  0.8034
  739MOL0     C 1864   5.385  11.666   2.017 -0.1329  0.2200  0.3095
  739MOL0     C 1865   5.349  11.681   1.871  0.8310  0.6095  0.3341
  739MOL0     C 1866   5.457  11.651   1.773 -0.5394  0.6604  0.4014
  739MOL0     C 1867   5.566  11.760   1.768  0.1265  0.0476 -0.8864
  739MOL0     O 1868   5.681  11.735   1.679  0.0227 -0.0416  0.4919
  739MOL0     C 1869   5.796  11.679   1.732 -0.1552 -0.4436  0.1610
  739MOL0     C 1870   5.910  11.682   1.660  0.0704  0.0228  0.6768
  739MOL0     C 1871   6.037  11.635   1.697  0.4815 -0.2524  0.1091
  739MOL0     C 1872   6.149  11.629   1.592  0.1345 -0.3823 -0.0951
  739MOL0     C 1873   6.045  11.585   1.827  0.7904 -0.8846 -0.3402
  739MOL0     C 1874   6.173  11.541   1.886 -0.3574  0.5662  0.2898
  739MOL0     O 1875   6.293  11.589   1.827  0.7239  0.2866 -0.6307
  739MOL0     C 1876   6.408  11.555   1.899 -0.6389  0.1917  0.2180
  739MOL0     C 1877   6.514  11.504   1.818 -0.2128 -0.1399 -0.2302
  739MOL0     C 1878   6.633  11.473   1.877 -0.1353 -0.5416  0.3205
  739MOL0     C 1879   6.657  11.492   2.019  0.1390 -0.7703  0.7193
  739MOL0     O 1880   6.778  11.469   2.077 -0.2849 -0.3242  0.0053
  739MOL0     C 1881   6.840  11.565   2.169  0.1337 -0.1147 -0.6050
  739MOL0     C 1882   6.986  11.566   2.121 -0.7403  0.1239  0.0113
  739MOL0     C 1883   7.093  11.585   2.237 -0.9292  0.7260  0.4198
  739MOL0     C 1884   7.240  11.580   2.181  0.3219  0.3523 -0.6362
  739MOL0     C 1885   7.356  11.595   2.280  0.9881 -0.8254 -0.6411
  739MOL0     C 1886   7.359  11.482   2.384  0.3147  1.2093 -0.5673
  739MOL0     C 1887   7.495  11.488   2.450  0.5818 -0.7173  0.1420
  739MOL0     C 1888   7.542  11.351   2.512 -0.0616 -0.6638  0.6352
  739MOL0    Cl 1889   7.420  11.303   2.637 -0.0268 -0.2637  0.0302
  739MOL0     C 1890   6.556  11.548   2.094  0.4307  0.7030  0.2198
  739MOL0     C 1891   6.433  11.578   2.035 -0.4906  0.0727  0.1397
  739MOL0     O 1892   6.171  11.466   1.985 -0.2666 -0.2732 -0.1348
  739MOL0     C 1893   5.931  11.585   1.908  0.7054 -0.4361  0.5969
  739MOL0     C 1894   5.808  11.635   1.861  0.3663 -0.4055 -0.5945
  739MOL0     N 1895   5.156  11.611   2.110 -0.0251 -0.0284 -0.9344
  739MOL0     N 1896   5.076  11.654   2.198 -0.9037 -0.2610  1.4107
  739MOL0     C 1897   5.036  10.838   2.687  0.1134 -0.3567 -0.2478
  739MOL0     C 1898   5.089  10.717   2.698 -0.3679  0.3683 -0.0808
  739MOL0     C 1899   5.344  10.399   2.870  0.4339 -0.2777 -0.1471
  739MOL0     C 1900   5.273  10.354   2.985 -0.4470  0.3528  0.4896
  739MOL0     C 1901   5.303  10.238   3.050 -0.0890  0.2597  0.1457
  739MOL0     C 1902   5.429  10.178   3.026 -0.2976 -0.1061 -0.4365
  739MOL0     O 1903   5.479  10.064   3.085  0.0352  0.0614 -0.3667
  739MOL0     C 1904   5.414  10.001   3.198 -0.3792 -0.2044  0.2639
  739MOL0     C 1905   5.506   9.988   3.324 -0.2263 -0.3662 -0.0333
  739MOL0     C 1906   5.645   9.925   3.301 -0.6013 -0.6403  0.2787
  739MOL0     C 1907   5.757  10.017   3.258  0.0329  0.3346  0.8122
  739MOL0     C 1908   5.879   9.938   3.265 -0.5953 -0.4078  0.1571
  739MOL0     C 1909   5.997   9.898   3.274 -0.6196  0.3681 -0.8197
  739MOL0     C 1910   5.508  10.233   2.922  0.1718 -0.3799  0.5412
  739MOL0     C 1911   5.469  10.343   2.846  0.4760  0.4379 -0.6196
  739MOL0     C 1912   5.555  10.368   2.716 -0.3840  0.3130  0.9735
  739MOL0     H 1913   5.053  10.666   3.027  0.2673  0.0376  0.1946
  739MOL0     H 1914   4.968  10.893   3.016  3.2596 -3.0875  2.5175
  739MOL0     H 1915   4.851  11.029   2.612 -2.5163  2.5362  0.4041
  739MOL0     H 1916   5.006  11.114   2.640  0.4696 -0.1124  1.3758
  739MOL0     H 1917   4.777  11.254   2.595 -0.4818 -2.6777 -0.6515
  739MOL0     H 1918   4.737  11.206   2.753  0.7884  1.4132  2.0057
  739MOL0     H 1919   4.856  11.427   2.786 -1.8892 -0.8180 -0.0899
  739MOL0     H 1920   4.987  11.319   2.819 -0.7721 -1.1488  1.4438
  739MOL0     H 1921   5.072  11.327   2.581 -0.4130  1.9518 -2.5506
  739MOL0     H 1922   4.921  11.409   2.533  2.1379  2.7231 -2.8424
  739MOL0     H 1923   5.141  11.542   2.692  1.3398  0.1846 -0.5672
  739MOL0     H 1924   4.970  11.602   2.681  0.3953  0.2060  0.4672
  739MOL0     H 1925   5.148  11.567   2.429  0.4664  3.4154 -1.9606
  739MOL0     H 1926   4.987  11.599   2.428  2.8306  1.4216 -2.3470
  739MOL0     H 1927   5.212  11.785   2.523  0.4130 -2.5542 -0.8152
  739MOL0     H 1928   5.049  11.798   2.588 -1.0864  0.2994 -0.1705
  739MOL0     H 1929   4.960  11.830   2.340  0.9004  1.6085 -6.4496
  739MOL0     H 1930   5.093  11.936   2.366  0.6674 -0.7451  2.5457
  739MOL0     H 1931   5.350  11.820   2.282  0.2520 -1.0941  1.7784
  739MOL0     H 1932   5.426  11.567   2.041 -2.9078 -1.7269 -2.2937
  739MOL0     H 1933   5.457  11.741   2.052 -0.7714  0.9777  0.0137
  739MOL0     H 1934   5.264  11.621   1.837  1.6385 -0.3095 -0.0996
  739MOL0     H 1935   5.314  11.785   1.867 -0.6831  0.1425  0.7449
  739MOL0     H 1936   5.498  11.553   1.799 -3.0852 -0.9860 -1.3205
  739MOL0     H 1937   5.425  11.636   1.670  2.6680 -0.7262 -0.5045
  739MOL0     H 1938   5.514  11.848   1.730  0.3675  0.3108 -0.6160
  739MOL0     H 1939   5.603  11.787   1.868 -0.8906 -2.1261  0.1301
  739MOL0     H 1940   5.885  11.702   1.556  0.1809  0.9070  0.8129
  739MOL0     H 1941   6.126  11.667   1.492  0.7093  2.3598  0.7170
  739MOL0     H 1942   6.199  11.533   1.582  1.9188  0.2506  1.9001
  739MOL0     H 1943   6.218  11.709   1.623 -0.2567  0.5694 -1.5363
  739MOL0     H 1944   6.494  11.502   1.711  1.2845 -0.2286 -0.5212
  739MOL0     H 1945   6.713  11.437   1.813 -1.3621 -1.4264 -0.7727
  739MOL0     H 1946   6.798  11.666   2.160  1.0213  0.7001  3.0236
  739MOL0     H 1947   6.831  11.523   2.269 -1.5280  0.5285 -0.4482
  739MOL0     H 1948   7.010  11.475   2.066  1.0433  0.8615 -0.4984
  739MOL0     H 1949   7.011  11.655   2.062  0.4333 -0.7578 -0.8746
  739MOL0     H 1950   7.082  11.501   2.307 -2.1984 -1.7211 -2.4765
  739MOL0     H 1951   7.073  11.682   2.283  1.1164  1.2258  0.3621
  739MOL0     H 1952   7.238  11.659   2.105 -2.6812  1.2511  0.2425
  739MOL0     H 1953   7.253  11.481   2.137  1.7746  0.5504 -0.6889
  739MOL0     H 1954   7.451  11.594   2.225  0.5925  0.4549 -1.3992
  739MOL0     H 1955   7.349  11.689   2.336 -1.0346 -1.5962  0.5130
  739MOL0     H 1956   7.342  11.384   2.340  0.0501  0.8864  0.2366
  739MOL0     H 1957   7.275  11.493   2.453  0.5812 -0.0886  0.0001
  739MOL0     H 1958   7.473  11.563   2.526 -4.1205  0.3169 -1.8976
  739MOL0     H 1959   7.577  11.521   2.385  0.9864 -1.7521  0.1038
  739MOL0     H 1960   7.646  11.353   2.547  0.1292 -4.3210  0.7144
  739MOL0     H 1961   7.550  11.275   2.433  1.5580  0.9599 -0.8618
  739MOL0     H 1962   6.581  11.563   2.198  2.3305  1.7890 -0.3416
  739MOL0     H 1963   6.357  11.627   2.094  1.0487  0.6513  1.7310
  739MOL0     H 1964   5.927  11.539   2.006 -0.2711 -1.3923  0.1262
  739MOL0     H 1965   5.725  11.637   1.930  0.7611 -1.8885 -0.0308
  739MOL0     H 1966   5.026  10.877   2.586  1.2158  0.4809 -0.0651
  739MOL0     H 1967   5.122  10.671   2.606 -0.4264 -3.9350  1.8023
  739MOL0     H 1968   5.194  10.403   3.040  0.0064  1.7246 -0.0351
  739MOL0     H 1969   5.229  10.212   3.126  0.0519  0.0810  0.2242
  739MOL0     H 1970   5.330  10.059   3.236 -0.3367  0.1747 -0.2009
  739MOL0     H 1971   5.376   9.904   3.166  0.8386  0.3302 -3.3355
  739MOL0     H 1972   5.459   9.934   3.406  0.6805  0.8122  1.3159
  739MOL0     H 1973   5.528  10.084   3.371  4.7699 -1.4263  0.4395
  739MOL0     H 1974   5.678   9.886   3.399  1.5946 -3.1250 -1.2970
  739MOL0     H 1975   5.640   9.842   3.229 -1.1840 -1.3050  1.0575
  739MOL0     H 1976   5.770  10.095   3.334 -2.0353 -1.0211  2.6669
  739MOL0     H 1977   5.746  10.069   3.163  3.5457 -0.5273 -0.2014
  739MOL0     H 1978   6.100   9.867   3.274 -0.1836  1.6763  0.5344
  739MOL0     H 1979   5.594  10.180   2.882 -0.0518  0.0304 -0.5306
  739MOL0     H 1980   5.587  10.473   2.723 -3.6358  1.6451 -1.3764
  739MOL0     H 1981   5.642  10.303   2.714 -3.5724 -4.3995  0.8473
  739MOL0     H 1982   5.497  10.346   2.626 -1.8258 -2.5682  2.4629
  740MOL0     O 1983   2.804   9.731   7.156 -0.1769  0.0215 -0.3903
  740MOL0     C 1984   2.793   9.775   7.273  0.2002  0.4637 -0.2379
  740MOL0     O 1985   2.754   9.895   7.302  0.4120 -0.1783 -0.5301
  740MOL0     C 1986   2.690   9.966   7.206 -0.2678  0.0636  0.4073
  740MOL0     C 1987   2.558   9.996   7.229 -0.4780  0.0159 -0.2693
  740MOL0     C 1988   2.483  10.048   7.124 -0.0107 -0.7642  0.6799
  740MOL0     C 1989   2.542  10.090   7.003 -0.2219 -0.2625 -0.3681
  740MOL0     O 1990   2.480  10.155   6.898 -0.0700 -0.1154 -0.0071
  740MOL0     C 1991   2.344  10.210   6.909 -0.3323  0.0238 -0.5028
  740MOL0     C 1992   2.362  10.354   6.965 -0.8499 -0.0234  0.3077
  740MOL0     C 1993   2.225  10.413   7.005 -0.2596  0.1099 -0.5480
  740MOL0     C 1994   2.124  10.420   6.896 -0.7517 -0.0664  0.1717
  740MOL0     C 1995   2.025  10.533   6.901 -0.1343 -0.3185 -0.1830
  740MOL0     C 1996   2.015  10.595   6.756  0.2085 -0.2653 -0.0715
  740MOL0     C 1997   2.133  10.684   6.722 -0.8706 -0.0886 -0.2643
  740MOL0     C 1998   2.098  10.827   6.708  0.0503 -0.7909  0.1436
  740MOL0     N 1999   2.212  10.914   6.670 -0.5684 -0.8952  0.5149
  740MOL0     C 2000   2.270  10.911   6.552 -0.2060 -0.5754  0.4111
  740MOL0     C 2001   2.395  10.962   6.581 -0.4008 -0.2122 -0.1740
  740MOL0     C 2002   2.508  11.011   6.494  0.0986 -0.3711  0.1050
  740MOL0     C 2003   2.591  11.130   6.544 -0.3265 -0.4105 -0.2350
  740MOL0     C 2004   2.730  11.134   6.480  0.1602  0.2242 -0.4352
  740MOL0     C 2005   2.728  11.153   6.335  0.0205 -0.3159  0.8814
  740MOL0     O 2006   2.629  11.253   6.309 -0.4660  0.3504  0.8957
  740MOL0     C 2007   2.576  11.272   6.187  1.1396  0.1172 -0.7076
  740MOL0     C 2008   2.440  11.296   6.172  0.2182 -0.0037  0.3610
  740MOL0     C 2009   2.386  11.338   6.049 -0.3159 -0.3440 -0.1067
  740MOL0     C 2010   2.240  11.374   6.050 -0.7200  0.5315 -0.4175
  740MOL0     C 2011   2.475  11.358   5.928 -0.9051  0.0566  0.3869
  740MOL0     C 2012   2.434  11.407   5.796 -0.1222  0.3249 -0.2235
  740MOL0     O 2013   2.532  11.460   5.720 -0.5933  0.0619  0.3733
  740MOL0     C 2014   2.501  11.509   5.589  0.4389 -0.1143 -0.1063
  740MOL0     C 2015   2.396  11.455   5.512  0.7651  0.3358  0.2214
  740MOL0     C 2016   2.353  11.518   5.398  0.0908 -0.0463 -0.0837
  740MOL0     C 2017   2.416  11.630   5.348  0.2544 -0.1805  0.1704
  740MOL0     O 2018   2.365  11.694   5.235  0.2797 -0.6871  0.3132
  740MOL0     C 2019   2.325  11.834   5.262 -0.0973  0.0546 -0.9919
  740MOL0     C 2020   2.214  11.877   5.165 -0.4008  0.1576  0.5086
  740MOL0     C 2021   2.174  12.023   5.189  0.1319 -0.0111 -0.5179
  740MOL0     C 2022   2.067  12.061   5.089  0.4363 -0.1265  0.5340
  740MOL0     C 2023   1.984  12.182   5.136  0.7631 -0.8436 -0.0186
  740MOL0     C 2024   1.850  12.179   5.075 -0.4486 -0.3398  0.9555
  740MOL0     C 2025   1.864  12.196   4.923 -0.1913  0.6299 -0.0741
  740MOL0     C 2026   1.739  12.205   4.835 -1.2409 -0.1692  0.4078
  740MOL0    Cl 2027   1.656  12.364   4.878  0.1251  0.3919 -0.0746
  740MOL0     C 2028   2.534  11.677   5.417 -0.1017 -0.3863 -0.2552
  740MOL0     C 2029   2.576  11.608   5.529 -0.2379 -0.2619 -0.1550
  740MOL0     O 2030   2.314  11.416   5.773  0.7031  0.4163  0.0384
  740MOL0     C 2031   2.606  11.325   5.953 -0.4407  0.5508  0.1168
  740MOL0     C 2032   2.661  11.278   6.076  0.5192 -0.5196 -0.3335
  740MOL0     N 2033   2.410  10.983   6.720  0.8654  0.1031 -0.7137
  740MOL0     N 2034   2.296  10.958   6.771  0.1339 -0.5377 -0.2780
  740MOL0     C 2035   2.674  10.077   6.982  0.8694  0.0554  0.8905
  740MOL0     C 2036   2.749  10.006   7.082 -0.5042 -1.0017 -0.6858
  740MOL0     C 2037   2.832   9.680   7.377  0.3468  0.6851  0.4501
  740MOL0     C 2038   2.788   9.696   7.508  0.3866 -0.9913  0.5591
  740MOL0     C 2039   2.814   9.609   7.608 -0.6136  1.3077 -0.2561
  740MOL0     C 2040   2.894   9.497   7.600  0.4911 -0.5984  1.3245
  740MOL0     O 2041   2.919   9.421   7.714 -0.0903 -0.2921 -0.4582
  740MOL0     C 2042   3.049   9.355   7.721  0.0179 -0.3476 -0.5720
  740MOL0     C 2043   3.070   9.263   7.849 -0.9394 -0.1796 -0.0138
  740MOL0     C 2044   2.963   9.151   7.849 -0.3262  0.3203 -0.6532
  740MOL0     C 2045   2.973   9.078   7.986 -0.1596 -0.2426  0.9526
  740MOL0     C 2046   2.915   9.173   8.084 -0.1284  1.0571 -0.6570
  740MOL0     C 2047   2.876   9.255   8.163 -0.2532 -0.4801  0.2797
  740MOL0     C 2048   2.956   9.479   7.467 -0.5780  0.8982 -0.4716
  740MOL0     C 2049   2.924   9.565   7.361 -0.4420  0.5588 -1.1448
  740MOL0     C 2050   3.002   9.543   7.230 -0.2495  0.2386 -0.4585
  740MOL0     H 2051   2.519   9.964   7.325  0.4896  2.9546  1.2516
  740MOL0     H 2052   2.376  10.061   7.135  0.0536 -0.8060  1.4072
  740MOL0     H 2053   2.271  10.147   6.959  0.2973  1.0684  1.8842
  740MOL0     H 2054   2.303  10.215   6.808  3.3547 -1.7756 -2.2897
  740MOL0     H 2055   2.440  10.352   7.042  1.3654 -2.2840 -1.7997
  740MOL0     H 2056   2.410  10.422   6.894 -0.0065  1.1686  1.9513
  740MOL0     H 2057   2.180  10.370   7.095  3.7378 -5.3528 -0.6396
  740MOL0     H 2058   2.251  10.517   7.026 -0.2815  0.1200 -0.5691
  740MOL0     H 2059   2.181  10.433   6.804 -2.7806  0.9872 -1.0088
  740MOL0     H 2060   2.079  10.321   6.884 -1.0868  0.0177  0.6950
  740MOL0     H 2061   2.056  10.609   6.974  2.1614  0.1707 -1.5543
  740MOL0     H 2062   1.931  10.490   6.937 -0.5237  1.3467  0.9319
  740MOL0     H 2063   2.010  10.519   6.677  2.1016  0.1716 -0.6554
  740MOL0     H 2064   1.923  10.653   6.754 -1.1486 -2.3009 -0.1975
  740MOL0     H 2065   2.178  10.645   6.630 -0.9312  2.7498 -1.5997
  740MOL0     H 2066   2.213  10.663   6.793  0.0988 -2.4331 -1.9130
  740MOL0     H 2067   2.022  10.848   6.632 -0.4582  1.8621  1.2805
  740MOL0     H 2068   2.053  10.865   6.801 -1.8132  1.9429 -1.7078
  740MOL0     H 2069   2.237  10.878   6.454  0.0013 -2.2760  0.8926
  740MOL0     H 2070   2.463  11.049   6.402 -3.5210  0.7155  2.0978
  740MOL0     H 2071   2.556  10.916   6.469 -1.8142 -1.4364  0.2046
  740MOL0     H 2072   2.550  11.232   6.545 -0.7111 -0.4951  2.8575
  740MOL0     H 2073   2.607  11.110   6.650 -2.0031  2.6224  0.7274
  740MOL0     H 2074   2.795  11.211   6.523  0.3489 -0.5391  0.6937
  740MOL0     H 2075   2.773  11.034   6.493  1.0482 -0.4341 -6.1025
  740MOL0     H 2076   2.826  11.183   6.296 -0.1538 -1.1726 -0.2755
  740MOL0     H 2077   2.701  11.062   6.281  3.5214 -1.8691  1.4961
  740MOL0     H 2078   2.374  11.279   6.256 -1.8571 -1.3142 -1.4261
  740MOL0     H 2079   2.196  11.366   6.149  0.3176  2.7021  0.2772
  740MOL0     H 2080   2.184  11.316   5.976 -0.8422  0.6248 -0.4002
  740MOL0     H 2081   2.234  11.477   6.013  0.7352  1.7550  2.4363
  740MOL0     H 2082   2.342  11.364   5.535 -0.1443  0.1635 -2.2897
  740MOL0     H 2083   2.280  11.461   5.341 -0.8190 -0.9379  1.9049
  740MOL0     H 2084   2.277  11.843   5.360 -0.2563  0.6843 -1.1195
  740MOL0     H 2085   2.414  11.897   5.262  0.4707 -0.6227  1.4716
  740MOL0     H 2086   2.250  11.864   5.062 -1.4696  3.0016 -0.3249
  740MOL0     H 2087   2.133  11.805   5.179 -1.0267  0.3722 -1.7096
  740MOL0     H 2088   2.255  12.096   5.181 -1.9167  2.4346 -0.4949
  740MOL0     H 2089   2.138  12.031   5.292  0.7998 -3.7624  0.1552
  740MOL0     H 2090   2.005  11.971   5.094 -0.1585  0.3170  1.4973
  740MOL0     H 2091   2.115  12.080   4.992  0.7872  0.5814  0.8358
  740MOL0     H 2092   1.978  12.191   5.245 -0.4589  2.5061 -0.2540
  740MOL0     H 2093   2.036  12.277   5.120 -3.3253  1.4499 -1.0107
  740MOL0     H 2094   1.794  12.265   5.112 -0.5039 -0.7221  1.7760
  740MOL0     H 2095   1.784  12.093   5.094  0.9896 -1.6599  0.2399
  740MOL0     H 2096   1.916  12.108   4.884 -1.2306  0.9244 -2.2818
  740MOL0     H 2097   1.938  12.276   4.921  2.1043 -1.3269  1.3639
  740MOL0     H 2098   1.675  12.116   4.841  1.7208 -2.6140 -1.1928
  740MOL0     H 2099   1.781  12.202   4.734 -3.7664  0.4932 -0.7209
  740MOL0     H 2100   2.603  11.756   5.391  0.5678 -0.2505  1.7948
  740MOL0     H 2101   2.667  11.636   5.581 -0.8269  1.3004  0.0763
  740MOL0     H 2102   2.677  11.337   5.871 -0.4765 -1.4734 -0.2592
  740MOL0     H 2103   2.765  11.251   6.091 -0.2387 -2.3498  2.7902
  740MOL0     H 2104   2.716  10.107   6.887  0.1031  0.1150  0.5643
  740MOL0     H 2105   2.851   9.977   7.056 -0.2766  0.8795 -2.1486
  740MOL0     H 2106   2.727   9.779   7.539 -0.9360 -1.9268  0.5410
  740MOL0     H 2107   2.767   9.632   7.703 -0.7489 -1.4156  0.4136
  740MOL0     H 2108   3.058   9.275   7.647  0.4245 -2.5454  1.6803
  740MOL0     H 2109   3.127   9.432   7.724 -0.2263 -0.1239  1.5835
  740MOL0     H 2110   3.077   9.321   7.941  1.0107 -0.3712  0.0051
  740MOL0     H 2111   3.163   9.205   7.847 -1.5191 -1.1193 -0.8548
  740MOL0     H 2112   2.864   9.199   7.846 -0.3902  0.1716 -0.9028
  740MOL0     H 2113   2.972   9.075   7.772  2.3417 -1.0151  0.8405
  740MOL0     H 2114   3.075   9.041   8.001 -0.1454 -0.5020  0.2403
  740MOL0     H 2115   2.900   8.996   7.992  0.3013 -0.5926  2.0321
  740MOL0     H 2116   2.829   9.331   8.223 -0.7176  0.6237 -1.4038
  740MOL0     H 2117   3.014   9.388   7.457 -1.6481 -0.0020  0.9968
  740MOL0     H 2118   3.078   9.465   7.240 -0.8794 -0.4253 -0.8129
  740MOL0     H 2119   2.931   9.515   7.152 -1.4531  0.6459  0.4485
  740MOL0     H 2120   3.061   9.629   7.197  0.6198 -1.0758 -2.5638
  741MOL0     O 2121   8.973   8.126   5.528 -0.1921 -0.0749 -0.7100
  741MOL0     C 2122   8.907   8.165   5.618 -0.0531 -1.2283  0.1077
  741MOL0     O 2123   8.835   8.091   5.705  0.3331 -0.4409 -0.5984
  741MOL0     C 2124   8.820   7.960   5.677  0.7356 -0.1742 -0.7433
  741MOL0     C 2125   8.742   7.921   5.572 -0.7818 -0.1168 -0.3993
  741MOL0     C 2126   8.714   7.787   5.536 -0.3800 -0.1429  0.0163
  741MOL0     C 2127   8.785   7.689   5.601 -0.5171 -0.0785 -0.2889
  741MOL0     O 2128   8.759   7.556   5.565 -0.2770 -0.2455  0.1853
  741MOL0     C 2129   8.766   7.450   5.658  0.0311  0.4092  0.1048
  741MOL0     C 2130   8.888   7.367   5.619 -0.5972 -0.3560 -0.5816
  741MOL0     C 2131   8.840   7.274   5.501  0.8407  0.2453 -0.5595
  741MOL0     C 2132   8.936   7.167   5.462 -0.1014 -0.1035  0.4023
  741MOL0     C 2133   8.956   7.051   5.554  0.0349 -0.2246 -0.1221
  741MOL0     C 2134   9.050   6.948   5.478  0.3279 -0.4703  0.1762
  741MOL0     C 2135   9.198   6.994   5.464 -0.0079  0.2136 -0.1429
  741MOL0     C 2136   9.289   6.923   5.363 -0.0993 -0.1121 -0.4360
  741MOL0     N 2137   9.289   6.775   5.371 -0.7591  0.4778  0.1369
  741MOL0     C 2138   9.359   6.702   5.463  0.1748 -0.1016 -1.0047
  741MOL0     C 2139   9.331   6.576   5.433  0.9125  0.2139 -0.2518
  741MOL0     C 2140   9.399   6.448   5.492  0.3350 -0.7458  0.8356
  741MOL0     C 2141   9.352   6.406   5.628 -0.6528 -0.0896 -0.3623
  741MOL0     C 2142   9.411   6.494   5.740 -0.3130 -0.6700 -0.4287
  741MOL0     C 2143   9.366   6.457   5.878 -0.3081  0.1772 -1.4416
  741MOL0     O 2144   9.332   6.314   5.885 -0.5072 -0.0974 -0.0071
  741MOL0     C 2145   9.240   6.280   5.978  0.9509 -0.2679 -0.0912
  741MOL0     C 2146   9.217   6.352   6.095 -0.2442 -0.8884  0.6389
  741MOL0     C 2147   9.132   6.317   6.199  0.2532 -0.6375  1.9617
  741MOL0     C 2148   9.115   6.421   6.307  0.2058  0.6390 -0.8984
  741MOL0     C 2149   9.059   6.197   6.180 -0.4540  0.4766  0.6924
  741MOL0     C 2150   8.974   6.145   6.287 -0.1991  0.1280 -0.0301
  741MOL0     O 2151   8.930   6.017   6.278  0.1586 -0.1457 -0.9309
  741MOL0     C 2152   8.825   5.978   6.355 -0.0332  0.1140  0.3900
  741MOL0     C 2153   8.793   5.843   6.351  0.6376 -0.0016  0.5683
  741MOL0     C 2154   8.673   5.785   6.394  0.0481  0.2480 -0.0378
  741MOL0     C 2155   8.580   5.856   6.468  0.7066 -0.1336  0.5561
  741MOL0     O 2156   8.465   5.817   6.542 -0.0665  0.1815 -0.6113
  741MOL0     C 2157   8.417   5.688   6.502  0.0719  0.0244 -0.2483
  741MOL0     C 2158   8.474   5.579   6.586 -0.9057 -0.3700 -0.4046
  741MOL0     C 2159   8.392   5.452   6.575 -0.4039 -0.2523  0.3587
  741MOL0     C 2160   8.455   5.343   6.664 -0.1912 -0.4331 -0.0440
  741MOL0     C 2161   8.357   5.222   6.664 -0.1342  0.2023  0.1218
  741MOL0     C 2162   8.417   5.114   6.749 -0.0668 -0.4532 -0.2241
  741MOL0     C 2163   8.330   4.984   6.760  0.0858  0.2355  0.1526
  741MOL0     C 2164   8.295   4.912   6.625 -0.0937  0.4996 -0.1204
  741MOL0    Cl 2165   8.453   4.875   6.540 -0.6470  0.3252  0.0419
  741MOL0     C 2166   8.611   5.998   6.473  0.5070 -0.0456  0.0170
  741MOL0     C 2167   8.723   6.060   6.411 -0.4569  0.2486  0.0359
  741MOL0     O 2168   8.940   6.226   6.368  0.0511 -1.0595  0.1492
  741MOL0     C 2169   9.082   6.121   6.066 -0.6697  0.5869 -0.5704
  741MOL0     C 2170   9.175   6.159   5.966  0.4079 -0.0826 -0.3981
  741MOL0     N 2171   9.237   6.577   5.331  0.4110  0.7183 -0.8925
  741MOL0     N 2172   9.214   6.700   5.296 -0.4943  0.3896 -0.1416
  741MOL0     C 2173   8.878   7.726   5.703 -0.0678 -0.7339 -0.1962
  741MOL0     C 2174   8.891   7.860   5.753  0.3775 -0.1081  0.8971
  741MOL0     C 2175   8.902   8.321   5.638 -0.3287 -0.1284  0.2357
  741MOL0     C 2176   8.882   8.367   5.766 -0.3667 -0.0433 -0.3111
  741MOL0     C 2177   8.899   8.496   5.798 -1.5100  0.1469  0.6934
  741MOL0     C 2178   8.913   8.589   5.703 -0.6197  0.2301  0.6028
  741MOL0     O 2179   8.921   8.717   5.749 -0.5237 -0.6212  0.8844
  741MOL0     C 2180   9.046   8.785   5.730  0.3798  0.6326 -0.5859
  741MOL0     C 2181   9.067   8.899   5.827 -0.9500  0.1374  0.6480
  741MOL0     C 2182   9.038   8.859   5.984  0.0159  0.4723 -0.3925
  741MOL0     C 2183   9.113   8.726   6.029 -0.3376  1.3293 -0.4287
  741MOL0     C 2184   9.066   8.685   6.161 -0.1333 -0.1605 -0.0474
  741MOL0     C 2185   9.015   8.647   6.263 -0.2583  0.0352 -0.1415
  741MOL0     C 2186   8.918   8.555   5.567 -0.1968 -0.0356 -0.4123
  741MOL0     C 2187   8.925   8.420   5.530  0.1801 -0.1156 -1.2093
  741MOL0     C 2188   8.926   8.381   5.392 -0.3609 -0.0474 -0.3350
  741MOL0     H 2189   8.685   8.003   5.530  0.8868  0.9271 -0.7353
  741MOL0     H 2190   8.643   7.759   5.459 -1.2843 -1.4242  1.2695
  741MOL0     H 2191   8.672   7.394   5.661  0.0459  0.4154  3.2301
  741MOL0     H 2192   8.777   7.494   5.757  0.5333 -2.4578  1.4112
  741MOL0     H 2193   8.969   7.429   5.580 -2.0736  0.9160 -1.7871
  741MOL0     H 2194   8.923   7.319   5.711  2.1481 -1.3500 -2.0204
  741MOL0     H 2195   8.753   7.213   5.528  0.8554 -1.2844 -3.5599
  741MOL0     H 2196   8.826   7.341   5.416  2.0620  0.1144 -0.8808
  741MOL0     H 2197   8.882   7.138   5.372 -0.3226  1.2809  0.0688
  741MOL0     H 2198   9.025   7.224   5.432  1.0159 -3.2845 -2.9974
  741MOL0     H 2199   8.860   7.014   5.590  0.3192 -1.0045 -0.1352
  741MOL0     H 2200   9.000   7.082   5.649  0.0334  2.6060 -0.9369
  741MOL0     H 2201   9.039   6.865   5.549 -3.0326 -0.8079 -0.5828
  741MOL0     H 2202   9.008   6.922   5.381  1.8044  0.4375 -0.7341
  741MOL0     H 2203   9.242   6.980   5.563  1.0508  5.6504  0.4847
  741MOL0     H 2204   9.199   7.104   5.459 -2.6695  0.5498  3.3515
  741MOL0     H 2205   9.264   6.955   5.262 -2.6551 -3.1674 -0.9042
  741MOL0     H 2206   9.391   6.960   5.379  0.3548 -2.0011  1.3931
  741MOL0     H 2207   9.425   6.745   5.538 -0.9924  2.6919 -1.4742
  741MOL0     H 2208   9.502   6.485   5.488  0.1512 -0.3126 -1.4768
  741MOL0     H 2209   9.388   6.367   5.419  2.2997 -1.0994  0.8802
  741MOL0     H 2210   9.244   6.421   5.635 -0.4418  1.2264  0.5181
  741MOL0     H 2211   9.378   6.301   5.649 -0.2404  0.3509  1.5636
  741MOL0     H 2212   9.520   6.492   5.734 -0.3415 -0.3827 -1.1111
  741MOL0     H 2213   9.386   6.600   5.728  0.4364 -0.3527  0.6406
  741MOL0     H 2214   9.434   6.489   5.958 -1.9861 -0.9323  0.5498
  741MOL0     H 2215   9.277   6.515   5.905  0.5105  1.2019 -0.8688
  741MOL0     H 2216   9.278   6.440   6.114  0.5189 -0.1342 -4.0997
  741MOL0     H 2217   9.195   6.495   6.296  2.0311 -1.3702 -1.9415
  741MOL0     H 2218   9.121   6.372   6.405 -2.6766 -0.2058 -1.0491
  741MOL0     H 2219   9.016   6.467   6.304 -0.4826 -0.7163 -0.0863
  741MOL0     H 2220   8.857   5.775   6.296  1.1897  0.5906  0.4652
  741MOL0     H 2221   8.663   5.682   6.363  1.5775  0.8238 -2.8561
  741MOL0     H 2222   8.310   5.692   6.525 -0.2078  1.2191 -1.5976
  741MOL0     H 2223   8.423   5.672   6.394 -0.5951 -0.2679 -0.2477
  741MOL0     H 2224   8.576   5.559   6.552 -0.6367 -0.5555  0.4808
  741MOL0     H 2225   8.476   5.600   6.693 -0.3408  2.3071 -0.8767
  741MOL0     H 2226   8.389   5.417   6.471  0.4420  0.5000  0.0664
  741MOL0     H 2227   8.286   5.471   6.594 -0.7175 -1.0890 -0.4651
  741MOL0     H 2228   8.461   5.378   6.768 -0.1407  1.5320 -0.6664
  741MOL0     H 2229   8.552   5.306   6.629 -0.0814  0.1057 -0.3289
  741MOL0     H 2230   8.259   5.249   6.706 -1.3025  0.4698 -2.5447
  741MOL0     H 2231   8.343   5.181   6.563 -2.5414  1.4384 -0.1415
  741MOL0     H 2232   8.415   5.147   6.853  0.2722 -0.0578 -0.3430
  741MOL0     H 2233   8.519   5.091   6.717  1.1479  2.5409  1.1756
  741MOL0     H 2234   8.247   5.018   6.821  1.4333  4.7250 -0.1551
  741MOL0     H 2235   8.386   4.911   6.820  0.0292  0.9530  1.0827
  741MOL0     H 2236   8.234   4.977   6.563 -1.0016 -0.6835 -0.5040
  741MOL0     H 2237   8.237   4.821   6.643 -0.1881  0.5793 -0.0216
  741MOL0     H 2238   8.542   6.056   6.534  1.3755 -0.7935  1.7708
  741MOL0     H 2239   8.721   6.169   6.412  0.1863  0.2586  0.9818
  741MOL0     H 2240   9.055   6.017   6.055 -0.3454 -0.0096  3.1948
  741MOL0     H 2241   9.176   6.088   5.884 -1.2872  0.5819 -1.0202
  741MOL0     H 2242   8.942   7.662   5.764 -1.3047 -3.1727 -1.3266
  741MOL0     H 2243   8.963   7.877   5.832  3.1282  2.0041 -1.8201
  741MOL0     H 2244   8.871   8.300   5.851  1.1676 -0.1316 -0.1367
  741MOL0     H 2245   8.889   8.519   5.903 -2.8440  1.2251  0.3562
  741MOL0     H 2246   9.127   8.712   5.729 -0.7795 -0.7078 -1.9749
  741MOL0     H 2247   9.070   8.835   5.635  1.0252  1.6727  0.0990
  741MOL0     H 2248   8.996   8.975   5.794 -1.5186  0.1939  1.9459
  741MOL0     H 2249   9.166   8.946   5.833 -1.3863  0.9103  4.7661
  741MOL0     H 2250   9.086   8.935   6.047 -0.9052  0.7061  0.0557
  741MOL0     H 2251   8.933   8.846   6.013  0.8944 -1.5699  2.3604
  741MOL0     H 2252   9.222   8.738   6.033 -0.1749 -0.2430  0.2130
  741MOL0     H 2253   9.082   8.655   5.952 -0.8781  0.5242  0.5198
  741MOL0     H 2254   8.965   8.624   6.355 -0.4698 -0.2558 -0.3290
  741MOL0     H 2255   8.921   8.645   5.506 -0.5443  0.4897  0.3355
  741MOL0     H 2256   9.013   8.316   5.380  1.8120  1.1733  5.4569
  741MOL0     H 2257   8.842   8.318   5.364 -0.2987  1.0490 -3.4431
  741MOL0     H 2258   8.939   8.473   5.333 -0.1234  2.2052  2.9662
  742MOL0     O 2259   4.159   0.965   7.023  0.1032 -0.2239 -0.5741
  742MOL0     C 2260   4.170   0.923   6.907 -0.7496 -0.5759 -1.6076
  742MOL0     O 2261   4.249   0.983   6.812  0.2636  0.4958 -0.4921
  742MOL0     C 2262   4.306   1.103   6.850 -0.1688  0.1407 -0.3288
  742MOL0     C 2263   4.449   1.120   6.867  0.3569 -0.6465  0.1680
  742MOL0     C 2264   4.502   1.238   6.903  0.6540 -0.0417 -0.6449
  742MOL0     C 2265   4.418   1.344   6.930  0.1054 -0.5727 -0.7415
  742MOL0     O 2266   4.451   1.462   6.992 -0.9981  0.0910  0.9017
  742MOL0     C 2267   4.589   1.480   7.000  0.5573  0.0576 -0.3405
  742MOL0     C 2268   4.615   1.621   7.060  0.8886  0.6158 -0.6673
  742MOL0     C 2269   4.559   1.735   6.963  0.1190 -0.1917 -0.7694
  742MOL0     C 2270   4.602   1.879   7.017  0.1220 -0.6368 -0.6910
  742MOL0     C 2271   4.528   1.986   6.931 -0.0299 -0.9650  0.8617
  742MOL0     C 2272   4.578   1.983   6.787  0.4948  0.0779 -0.1155
  742MOL0     C 2273   4.530   2.110   6.723 -0.9516 -0.5163 -0.3839
  742MOL0     C 2274   4.578   2.123   6.576 -0.5557 -0.5873  0.1381
  742MOL0     N 2275   4.489   2.057   6.481 -0.3116 -0.2324 -0.3790
  742MOL0     C 2276   4.504   1.930   6.433  0.6962  0.4699  0.6432
  742MOL0     C 2277   4.390   1.902   6.367 -0.2963 -0.8535  0.0140
  742MOL0     C 2278   4.357   1.784   6.279 -0.5612 -0.4901 -1.3113
  742MOL0     C 2279   4.447   1.798   6.160 -0.0194  1.1549  0.4533
  742MOL0     C 2280   4.386   1.713   6.044 -0.9908 -0.2950  1.0547
  742MOL0     C 2281   4.480   1.726   5.921 -0.6645 -0.4508  0.2950
  742MOL0     O 2282   4.461   1.842   5.830  0.5584 -0.3701 -0.7498
  742MOL0     C 2283   4.547   1.861   5.725  0.0433 -0.1180  1.3087
  742MOL0     C 2284   4.638   1.772   5.671 -0.2264  0.5591 -0.6043
  742MOL0     C 2285   4.728   1.807   5.573 -0.1530 -0.0172 -0.1435
  742MOL0     C 2286   4.803   1.701   5.489 -0.5538  0.2754 -0.0591
  742MOL0     C 2287   4.744   1.946   5.528  0.2772 -0.4435 -0.1895
  742MOL0     C 2288   4.840   1.993   5.427 -0.2119 -0.9435  0.1435
  742MOL0     O 2289   4.791   2.097   5.345  0.6011 -0.1942  0.3308
  742MOL0     C 2290   4.876   2.156   5.252 -0.4400 -0.0510 -0.3574
  742MOL0     C 2291   4.800   2.235   5.163  0.2336  0.6555 -0.2596
  742MOL0     C 2292   4.855   2.326   5.083  0.4974 -0.0670 -0.1397
  742MOL0     C 2293   4.992   2.343   5.069 -0.0165 -0.4872 -0.2087
  742MOL0     O 2294   5.043   2.444   4.990 -0.1002  0.4754 -0.0523
  742MOL0     C 2295   5.105   2.556   5.056  0.3754 -0.9456  1.2967
  742MOL0     C 2296   5.174   2.652   4.954 -0.5714 -0.1292  1.1013
  742MOL0     C 2297   5.227   2.776   5.024 -0.1042  0.5888  0.8956
  742MOL0     C 2298   5.230   2.896   4.920 -0.1679  0.0666  0.9304
  742MOL0     C 2299   5.294   3.011   4.989  0.8738 -0.5940  0.2584
  742MOL0     C 2300   5.325   3.124   4.892 -1.2643 -0.3241  0.2080
  742MOL0     C 2301   5.357   3.254   4.969  0.1741 -0.2408 -0.3688
  742MOL0     C 2302   5.437   3.358   4.891 -0.5659  0.8030  0.1190
  742MOL0    Cl 2303   5.595   3.279   4.860 -0.4182  0.3334 -0.0623
  742MOL0     C 2304   5.074   2.256   5.155 -0.0480 -0.0356  0.2798
  742MOL0     C 2305   5.019   2.173   5.249  0.6021 -0.0149 -0.5690
  742MOL0     O 2306   4.954   1.949   5.430  1.2447 -0.3864  1.1618
  742MOL0     C 2307   4.648   2.034   5.578 -0.3178 -0.5100 -0.0637
  742MOL0     C 2308   4.553   1.992   5.673 -0.5507 -0.9359  0.2765
  742MOL0     N 2309   4.314   2.015   6.363  0.5098 -0.2862 -0.7103
  742MOL0     N 2310   4.367   2.115   6.429  0.3695  0.3279  0.6458
  742MOL0     C 2311   4.287   1.329   6.914 -0.4166 -0.4945  1.3500
  742MOL0     C 2312   4.226   1.212   6.879  0.3502  0.8260 -0.2483
  742MOL0     C 2313   4.106   0.789   6.875  0.4430  0.1688 -0.7275
  742MOL0     C 2314   4.154   0.708   6.775 -0.0581  0.1907 -0.0677
  742MOL0     C 2315   4.094   0.585   6.737 -0.3013 -0.6567  0.0992
  742MOL0     C 2316   3.979   0.537   6.797  0.2675  0.2957 -0.6014
  742MOL0     O 2317   3.922   0.415   6.782 -0.5701  0.2983 -0.4815
  742MOL0     C 2318   3.994   0.320   6.711 -0.5671  0.0162  0.2783
  742MOL0     C 2319   3.942   0.317   6.569 -0.2054 -0.3020  0.1716
  742MOL0     C 2320   3.806   0.264   6.551  0.1729 -0.5689 -0.6723
  742MOL0     C 2321   3.756   0.250   6.403  0.8231 -0.5889  0.5327
  742MOL0     C 2322   3.608   0.235   6.409 -0.1575  0.0571  0.4020
  742MOL0     C 2323   3.483   0.236   6.408 -0.5073  0.5444  0.8565
  742MOL0     C 2324   3.924   0.610   6.909  0.1187  0.6133  0.3072
  742MOL0     C 2325   3.990   0.735   6.945  0.5158 -0.4038 -0.4924
  742MOL0     C 2326   3.928   0.815   7.057  0.0898  0.1865  0.1914
  742MOL0     H 2327   4.517   1.040   6.841  0.6459 -1.3346  2.8356
  742MOL0     H 2328   4.609   1.244   6.924  0.4345  0.7478  0.3201
  742MOL0     H 2329   4.636   1.480   6.901  0.2783 -0.3147 -0.4744
  742MOL0     H 2330   4.634   1.409   7.070 -0.4052 -0.0631  0.1735
  742MOL0     H 2331   4.574   1.631   7.160 -2.1397  1.6455 -1.9105
  742MOL0     H 2332   4.723   1.639   7.067  0.4532  3.0532  1.0703
  742MOL0     H 2333   4.608   1.723   6.866  0.0786  1.7372 -1.0532
  742MOL0     H 2334   4.453   1.724   6.942 -0.2031 -1.1248  1.0979
  742MOL0     H 2335   4.577   1.892   7.123  0.7966  3.0493 -0.8514
  742MOL0     H 2336   4.711   1.889   7.011  0.5315 -0.7106  3.5191
  742MOL0     H 2337   4.558   2.078   6.982 -0.0819 -0.1123 -0.6023
  742MOL0     H 2338   4.419   1.988   6.945 -0.0260 -0.8054  0.8708
  742MOL0     H 2339   4.687   1.972   6.787  0.2417 -3.8866 -0.5319
  742MOL0     H 2340   4.540   1.897   6.731  1.3358 -0.9557  0.8545
  742MOL0     H 2341   4.561   2.193   6.787  0.9329 -1.4541 -0.0336
  742MOL0     H 2342   4.421   2.107   6.712 -1.6792 -3.9499  4.3673
  742MOL0     H 2343   4.585   2.230   6.553  1.7315 -0.8120 -0.4217
  742MOL0     H 2344   4.678   2.081   6.564 -0.0360 -0.0900  2.2929
  742MOL0     H 2345   4.583   1.856   6.447 -0.3998 -1.1035 -1.1369
  742MOL0     H 2346   4.251   1.787   6.252 -0.8435  2.0792 -0.1802
  742MOL0     H 2347   4.390   1.698   6.339  2.5861 -0.3733 -2.6518
  742MOL0     H 2348   4.470   1.898   6.121  2.8225  1.7816  3.3279
  742MOL0     H 2349   4.549   1.764   6.180 -1.3331 -3.3345  0.4394
  742MOL0     H 2350   4.396   1.611   6.084  0.0092 -1.0163 -0.8883
  742MOL0     H 2351   4.283   1.739   6.017  0.2486  2.5259 -1.5434
  742MOL0     H 2352   4.587   1.714   5.942  0.0515 -0.0591 -2.7208
  742MOL0     H 2353   4.473   1.638   5.857 -0.5776  1.0487 -1.8889
  742MOL0     H 2354   4.639   1.669   5.706  1.0272  0.6010 -0.5028
  742MOL0     H 2355   4.775   1.707   5.383 -1.5494  1.3763  0.2386
  742MOL0     H 2356   4.790   1.603   5.534 -1.6848  1.5912  2.6718
  742MOL0     H 2357   4.909   1.724   5.501 -0.9941  1.3413  2.1891
  742MOL0     H 2358   4.694   2.216   5.161 -0.3299  3.4141 -0.5913
  742MOL0     H 2359   4.786   2.387   5.026  0.0861 -1.7837 -1.5496
  742MOL0     H 2360   5.037   2.619   5.113  1.4524  2.4092 -0.8068
  742MOL0     H 2361   5.184   2.521   5.124  1.3449  1.5252  1.5242
  742MOL0     H 2362   5.250   2.610   4.889 -2.9558 -2.2235 -0.5481
  742MOL0     H 2363   5.086   2.681   4.894 -1.4264 -4.7989 -0.2855
  742MOL0     H 2364   5.326   2.747   5.061  0.4299  1.0031 -0.1578
  742MOL0     H 2365   5.165   2.799   5.110  0.2998 -3.2816  2.4201
  742MOL0     H 2366   5.126   2.919   4.897  0.1452  1.9886  1.2793
  742MOL0     H 2367   5.275   2.865   4.825  1.9585  0.1601  1.8522
  742MOL0     H 2368   5.224   3.051   5.063  0.3274 -1.0955  0.0214
  742MOL0     H 2369   5.389   2.986   5.037 -1.2173 -2.5313  3.7253
  742MOL0     H 2370   5.250   3.158   4.820 -1.9794  3.9642  2.6427
  742MOL0     H 2371   5.409   3.087   4.832 -2.0035 -0.4243 -0.7842
  742MOL0     H 2372   5.418   3.221   5.054 -0.9865 -2.1768 -0.2266
  742MOL0     H 2373   5.262   3.297   5.001 -0.1318  2.4484 -4.1505
  742MOL0     H 2374   5.468   3.446   4.948  1.5402  0.2176 -0.0254
  742MOL0     H 2375   5.381   3.388   4.802 -1.4216 -0.2909  0.2605
  742MOL0     H 2376   5.181   2.263   5.138  0.2197  1.0222  2.0423
  742MOL0     H 2377   5.088   2.110   5.305  1.1701 -1.1163 -2.4178
  742MOL0     H 2378   4.663   2.137   5.548  0.2353 -0.2735  1.0108
  742MOL0     H 2379   4.486   2.066   5.714  1.2344 -0.8123  3.2226
  742MOL0     H 2380   4.210   1.401   6.941  0.5756  0.1841  2.4632
  742MOL0     H 2381   4.118   1.208   6.876  0.3552  0.9848 -0.6445
  742MOL0     H 2382   4.229   0.744   6.704 -1.4016 -0.4161 -1.8739
  742MOL0     H 2383   4.139   0.542   6.648  0.9827  2.4204 -0.8615
  742MOL0     H 2384   4.101   0.340   6.722 -0.7292  0.2226  1.6204
  742MOL0     H 2385   3.992   0.221   6.756  0.5608  0.4132  1.2430
  742MOL0     H 2386   4.003   0.240   6.521  1.8097 -1.4499  4.1410
  742MOL0     H 2387   3.971   0.417   6.535  3.3740 -0.5602  2.0209
  742MOL0     H 2388   3.790   0.170   6.605 -0.4383  0.8598  1.7871
  742MOL0     H 2389   3.743   0.340   6.599  2.0925  0.8307 -0.2807
  742MOL0     H 2390   3.797   0.160   6.357  1.0288  0.4566 -1.4421
  742MOL0     H 2391   3.774   0.336   6.338  3.5294 -1.4959 -0.0395
  742MOL0     H 2392   3.377   0.221   6.401 -0.4164  0.5856 -1.9198
  742MOL0     H 2393   3.835   0.575   6.960 -1.1883  1.5391 -1.2233
  742MOL0     H 2394   3.885   0.904   7.010 -1.4181 -1.0728 -0.9067
  742MOL0     H 2395   3.844   0.760   7.100 -0.8218  1.2712 -0.1468
  742MOL0     H 2396   3.992   0.831   7.145 -1.2331  1.6773  0.9484
  743MOL0     O 2397   0.540   4.971   4.178 -0.2708 -0.2051 -0.1150
  743MOL0     C 2398   0.615   5.064   4.136  0.8837  0.8574 -0.1356
  743MOL0     O 2399   0.743   5.096   4.195  0.2897 -0.0980 -0.0317
  743MOL0     C 2400   0.786   5.020   4.301  0.0364  0.2370 -0.7702
  743MOL0     C 2401   0.826   4.889   4.285 -0.3334 -0.7529  0.0533
  743MOL0     C 2402   0.867   4.807   4.392  0.1881 -0.0807  0.0729
  743MOL0     C 2403   0.898   4.878   4.513 -0.2276  0.4324  0.5733
  743MOL0     O 2404   0.948   4.829   4.626 -0.2383  0.3177  0.1385
  743MOL0     C 2405   0.949   4.688   4.641 -0.3572 -0.0816 -0.2781
  743MOL0     C 2406   0.982   4.660   4.791  0.5010 -0.1987 -0.4939
  743MOL0     C 2407   1.122   4.708   4.838  0.1503 -0.4359 -0.2319
  743MOL0     C 2408   1.133   4.714   4.996 -1.2953  0.4979 -0.2912
  743MOL0     C 2409   1.076   4.845   5.047  0.2398  0.4834 -0.5961
  743MOL0     C 2410   1.050   4.853   5.196  0.4274 -0.4859 -0.1012
  743MOL0     C 2411   1.173   4.891   5.271  0.3194  0.3335 -0.0803
  743MOL0     C 2412   1.151   4.912   5.423 -0.0801 -0.2257  0.0976
  743MOL0     N 2413   1.285   4.915   5.486 -0.0717 -0.2806 -0.1960
  743MOL0     C 2414   1.379   5.007   5.457 -0.2012  0.0981  0.2931
  743MOL0     C 2415   1.472   4.992   5.554 -0.3699 -0.1893 -0.4234
  743MOL0     C 2416   1.601   5.064   5.553 -0.0208 -0.8162 -0.0603
  743MOL0     C 2417   1.579   5.212   5.618  0.2749  0.3260  0.5090
  743MOL0     C 2418   1.724   5.274   5.628  1.0228 -0.5781  0.7351
  743MOL0     C 2419   1.786   5.302   5.488  0.1607 -0.2423  0.1220
  743MOL0     O 2420   1.712   5.399   5.419  0.1673  0.1506 -0.7017
  743MOL0     C 2421   1.736   5.531   5.435  0.2947  0.8978  0.1011
  743MOL0     C 2422   1.637   5.606   5.374  0.4977 -0.9389 -0.8261
  743MOL0     C 2423   1.630   5.751   5.387  0.6586 -0.2769 -1.0446
  743MOL0     C 2424   1.530   5.821   5.301 -0.1988  0.0672  0.1579
  743MOL0     C 2425   1.724   5.814   5.470 -1.0551 -0.3072 -0.3028
  743MOL0     C 2426   1.739   5.960   5.483  1.9754 -0.0612 -0.7624
  743MOL0     O 2427   1.852   5.996   5.544  0.0738 -0.3375 -0.5209
  743MOL0     C 2428   1.903   6.120   5.529 -0.0234 -0.3441  0.6210
  743MOL0     C 2429   1.862   6.223   5.437  0.2178 -0.2727  0.8282
  743MOL0     C 2430   1.933   6.341   5.425 -1.1953 -0.5897  0.4802
  743MOL0     C 2431   2.046   6.356   5.501 -0.3605  0.2096 -0.5856
  743MOL0     O 2432   2.121   6.470   5.485 -0.5145 -0.4116  0.6568
  743MOL0     C 2433   2.122   6.546   5.610 -0.0589 -0.1961 -0.0145
  743MOL0     C 2434   2.258   6.624   5.620  1.1860  0.3537  0.2341
  743MOL0     C 2435   2.289   6.652   5.772  0.0161 -0.1236 -0.3225
  743MOL0     C 2436   2.397   6.763   5.770 -0.3909 -0.2785 -0.1069
  743MOL0     C 2437   2.434   6.797   5.915 -0.0764 -0.4397  0.1709
  743MOL0     C 2438   2.484   6.941   5.923 -0.2252  0.5337 -0.4805
  743MOL0     C 2439   2.491   6.999   6.069  0.5967 -0.5364 -0.3920
  743MOL0     C 2440   2.489   7.158   6.076  0.8338  0.7939 -0.0862
  743MOL0    Cl 2441   2.381   7.240   5.972  0.1388 -0.2964 -0.4331
  743MOL0     C 2442   2.095   6.255   5.587 -0.0790 -0.2934 -0.3995
  743MOL0     C 2443   2.017   6.139   5.600  0.3166  0.6355 -0.6878
  743MOL0     O 2444   1.644   6.030   5.455 -0.1810 -0.7964  0.0314
  743MOL0     C 2445   1.821   5.732   5.532 -0.9205 -1.2855  0.7581
  743MOL0     C 2446   1.829   5.595   5.518  0.1931  0.8761  0.2669
  743MOL0     N 2447   1.429   4.899   5.645 -0.6007  0.6584  0.2260
  743MOL0     N 2448   1.325   4.837   5.596  0.2445 -0.0396  0.2113
  743MOL0     C 2449   0.867   5.020   4.526  0.5100 -0.1457 -0.0525
  743MOL0     C 2450   0.811   5.089   4.420  0.0354  0.1189  0.1469
  743MOL0     C 2451   0.586   5.146   4.026  0.1596 -0.1566 -0.5067
  743MOL0     C 2452   0.678   5.154   3.919 -0.4823  0.4280 -0.9644
  743MOL0     C 2453   0.654   5.226   3.804 -0.3201  0.4719  0.0188
  743MOL0     C 2454   0.536   5.286   3.787  0.7479 -1.1750 -0.2990
  743MOL0     O 2455   0.518   5.362   3.671 -0.7513  0.3276 -0.5799
  743MOL0     C 2456   0.395   5.427   3.643 -0.4978 -0.4946 -0.2697
  743MOL0     C 2457   0.375   5.576   3.707 -0.0517 -0.1651 -0.3721
  743MOL0     C 2458   0.484   5.678   3.670 -0.1064 -0.1695 -0.4284
  743MOL0     C 2459   0.492   5.703   3.512 -0.0726  0.8481 -0.1840
  743MOL0     C 2460   0.582   5.819   3.487 -0.9302  0.7041 -0.0959
  743MOL0     C 2461   0.652   5.925   3.483 -0.4952 -0.5315  0.2315
  743MOL0     C 2462   0.436   5.277   3.884 -0.8489 -0.4152  0.4968
  743MOL0     C 2463   0.462   5.212   4.009 -0.3079  0.4460 -0.4425
  743MOL0     C 2464   0.353   5.224   4.117 -0.6937  0.8852  0.2627
  743MOL0     H 2465   0.820   4.840   4.188  0.2114  0.4011 -0.5923
  743MOL0     H 2466   0.887   4.701   4.378  4.3855 -0.0298  3.6202
  743MOL0     H 2467   1.034   4.641   4.590 -0.0680  0.2943 -0.1545
  743MOL0     H 2468   0.857   4.636   4.617  0.1458 -1.7667  1.2412
  743MOL0     H 2469   0.907   4.714   4.850 -0.0776  1.5638 -2.7098
  743MOL0     H 2470   0.976   4.553   4.813 -2.2849  0.2329  1.3696
  743MOL0     H 2471   1.195   4.634   4.803  0.0225 -0.4232 -0.5291
  743MOL0     H 2472   1.155   4.805   4.799 -1.0234  0.5329  1.0883
  743MOL0     H 2473   1.081   4.627   5.036 -0.0031 -0.9565 -1.6376
  743MOL0     H 2474   1.236   4.706   5.030 -1.5756  0.6649  0.6121
  743MOL0     H 2475   0.978   4.855   5.000 -1.7351 -0.6014  2.8728
  743MOL0     H 2476   1.142   4.927   5.016  1.4152  1.2029  3.2477
  743MOL0     H 2477   0.976   4.933   5.208  2.1032  1.1639 -0.1249
  743MOL0     H 2478   1.013   4.757   5.230 -1.6988 -0.5168 -2.2266
  743MOL0     H 2479   1.216   4.979   5.222  0.9794 -0.3184 -0.6971
  743MOL0     H 2480   1.250   4.817   5.248 -1.0396 -0.6538 -1.6649
  743MOL0     H 2481   1.094   5.002   5.446 -0.3939  0.8628 -4.0850
  743MOL0     H 2482   1.091   4.832   5.467  0.9776 -0.5748  0.9505
  743MOL0     H 2483   1.379   5.070   5.368 -1.3907 -1.3802 -0.8230
  743MOL0     H 2484   1.647   5.065   5.454  0.0522  3.2741 -0.1477
  743MOL0     H 2485   1.670   5.027   5.629  0.0267  0.1219  0.3708
  743MOL0     H 2486   1.511   5.271   5.555  0.7419  3.0185  2.3388
  743MOL0     H 2487   1.520   5.207   5.710 -1.8188  2.5440 -0.5996
  743MOL0     H 2488   1.729   5.371   5.677  0.1055 -1.1836  2.0845
  743MOL0     H 2489   1.801   5.212   5.675  1.4521 -2.0704 -1.7331
  743MOL0     H 2490   1.890   5.335   5.500  1.7530 -3.5537 -2.6268
  743MOL0     H 2491   1.793   5.214   5.424  1.2254  0.7730 -1.2227
  743MOL0     H 2492   1.557   5.551   5.327 -0.0863  0.7196 -1.8557
  743MOL0     H 2493   1.576   5.894   5.234  0.0856  0.8427  1.1646
  743MOL0     H 2494   1.468   5.887   5.364  0.3563  1.0476 -0.3073
  743MOL0     H 2495   1.470   5.745   5.251 -2.4966  2.1892 -0.5090
  743MOL0     H 2496   1.778   6.215   5.370 -0.2892 -2.1033  1.6439
  743MOL0     H 2497   1.911   6.424   5.359  0.1785 -0.9724 -0.5129
  743MOL0     H 2498   2.029   6.602   5.613 -0.4827 -0.9103  0.4597
  743MOL0     H 2499   2.119   6.478   5.695 -1.2828 -0.0691  0.0539
  743MOL0     H 2500   2.339   6.565   5.577  2.9581  2.3821  0.6522
  743MOL0     H 2501   2.258   6.714   5.558 -0.9671  2.1880  2.6441
  743MOL0     H 2502   2.324   6.570   5.835  0.0806  0.7731  0.8641
  743MOL0     H 2503   2.198   6.685   5.822 -1.7927 -0.5983 -3.1360
  743MOL0     H 2504   2.360   6.853   5.721 -0.2271 -1.0633 -1.7472
  743MOL0     H 2505   2.488   6.722   5.724 -0.6262 -0.0927 -0.7426
  743MOL0     H 2506   2.341   6.804   5.972  0.4684  2.4629  0.8765
  743MOL0     H 2507   2.501   6.722   5.958  1.3786 -0.2072 -1.5346
  743MOL0     H 2508   2.416   7.000   5.861 -0.2216  3.0462  1.7393
  743MOL0     H 2509   2.583   6.934   5.877 -0.0428 -0.0311 -0.0118
  743MOL0     H 2510   2.586   6.968   6.113  1.2438  4.3115  2.3436
  743MOL0     H 2511   2.418   6.947   6.132  1.3991  1.1322  2.0502
  743MOL0     H 2512   2.588   7.176   6.034  1.0406 -2.3500 -1.1545
  743MOL0     H 2513   2.475   7.199   6.177  0.5065 -0.1607  0.2628
  743MOL0     H 2514   2.189   6.265   5.639 -0.8025  2.8021  0.5196
  743MOL0     H 2515   2.049   6.057   5.664  0.3167  1.9663  1.1155
  743MOL0     H 2516   1.893   5.775   5.600  0.8801 -2.6681 -0.1727
  743MOL0     H 2517   1.903   5.533   5.566 -0.4184 -0.7633 -0.8243
  743MOL0     H 2518   0.882   5.075   4.618 -2.0141  0.4342  0.0866
  743MOL0     H 2519   0.783   5.193   4.435  1.4083  0.4106  0.8590
  743MOL0     H 2520   0.773   5.101   3.923 -2.1510 -2.7929  0.0123
  743MOL0     H 2521   0.732   5.239   3.729  0.7882 -0.8076  0.9095
  743MOL0     H 2522   0.389   5.433   3.533 -0.3832  1.2911 -0.2046
  743MOL0     H 2523   0.320   5.353   3.672  0.4655 -2.0118 -1.4803
  743MOL0     H 2524   0.366   5.570   3.816  0.9361  0.2394 -0.2597
  743MOL0     H 2525   0.278   5.610   3.669  0.0241 -1.6485 -2.0201
  743MOL0     H 2526   0.452   5.770   3.720 -1.9063 -2.5247  3.2726
  743MOL0     H 2527   0.578   5.644   3.714 -1.0516 -1.9170  0.3937
  743MOL0     H 2528   0.396   5.700   3.459  1.0003 -2.9859 -2.3196
  743MOL0     H 2529   0.548   5.615   3.478  2.6886  1.5649  2.1133
  743MOL0     H 2530   0.712   6.013   3.494 -1.1052  0.2583 -2.1124
  743MOL0     H 2531   0.334   5.309   3.865 -1.7419 -4.2300 -2.3308
  743MOL0     H 2532   0.360   5.319   4.170  2.4957  1.1321 -0.3886
  743MOL0     H 2533   0.262   5.197   4.062 -2.8666 -0.8908  4.3101
  743MOL0     H 2534   0.347   5.150   4.197 -0.2315  0.8991  0.3156
  744MOL0     O 2535   5.129   6.746   8.215 -0.6427 -0.7657  0.4121
  744MOL0     C 2536   5.216   6.664   8.223 -0.7502  0.4569  0.1021
  744MOL0     O 2537   5.229   6.563   8.315 -0.5173 -0.8120  0.4846
  744MOL0     C 2538   5.147   6.543   8.418  0.8251 -0.0983  0.6192
  744MOL0     C 2539   5.111   6.648   8.505  0.1969 -0.5136  0.3905
  744MOL0     C 2540   5.018   6.623   8.604  0.7449  0.8228 -0.6164
  744MOL0     C 2541   4.972   6.494   8.621 -0.4477  0.0316 -0.0812
  744MOL0     O 2542   4.873   6.491   8.715  0.2406 -0.2511  0.1764
  744MOL0     C 2543   4.774   6.386   8.723 -0.5380  0.2368 -0.6614
  744MOL0     C 2544   4.675   6.415   8.844  0.3103  0.6727 -0.8077
  744MOL0     C 2545   4.548   6.333   8.846  0.0472  0.3937  0.9462
  744MOL0     C 2546   4.477   6.358   8.984 -0.2868  0.2921  0.2667
  744MOL0     C 2547   4.371   6.241   8.993 -0.4095  0.8991 -0.6040
  744MOL0     C 2548   4.284   6.266   9.117  0.6603 -0.1447 -1.2093
  744MOL0     C 2549   4.204   6.405   9.129  0.8586  0.1420  0.3086
  744MOL0     C 2550   4.083   6.379   9.227  0.7428 -0.0369 -0.7479
  744MOL0     N 2551   4.115   6.326   9.366  0.1396  0.3098  0.5713
  744MOL0     C 2552   4.121   6.405   9.482 -0.0864  0.3179  0.3798
  744MOL0     C 2553   4.144   6.315   9.582 -0.0780  0.7825 -0.2145
  744MOL0     C 2554   4.144   6.335   9.737  0.8639 -0.6277  0.1469
  744MOL0     C 2555   4.244   6.233   9.803  0.8152  0.0030 -1.1610
  744MOL0     C 2556   4.238   6.240   9.954  0.6204 -0.0761 -0.8027
  744MOL0     C 2557   4.313   6.132  10.023  0.1222 -0.7430  0.1672
  744MOL0     O 2558   4.442   6.177  10.065 -0.2508 -0.0906  0.1061
  744MOL0     C 2559   4.555   6.144   9.990  1.0791 -0.2650  0.2470
  744MOL0     C 2560   4.661   6.233   9.999 -0.8956 -0.9048 -0.0104
  744MOL0     C 2561   4.777   6.211   9.918 -1.0749 -0.1854 -0.3875
  744MOL0     C 2562   4.884   6.320   9.917 -0.0124  0.2686  0.2559
  744MOL0     C 2563   4.778   6.109   9.820  0.4820 -0.4032 -0.4033
  744MOL0     C 2564   4.895   6.079   9.742  0.1796  1.4507 -0.2765
  744MOL0     O 2565   4.890   6.130   9.615  0.2637 -0.3017  1.1002
  744MOL0     C 2566   5.008   6.138   9.549  0.3280  0.4762  0.8845
  744MOL0     C 2567   5.101   6.234   9.570  0.8409  0.8074 -0.2237
  744MOL0     C 2568   5.221   6.236   9.506  0.0453  0.9209  0.5575
  744MOL0     C 2569   5.254   6.131   9.413  0.7183 -0.2524 -0.1460
  744MOL0     O 2570   5.383   6.120   9.365 -0.2605  0.1892 -0.1417
  744MOL0     C 2571   5.422   6.234   9.284  1.0500  1.3644 -0.3337
  744MOL0     C 2572   5.536   6.214   9.195 -0.3630  0.0381  0.2242
  744MOL0     C 2573   5.656   6.160   9.262  0.2974 -0.4264 -0.0158
  744MOL0     C 2574   5.704   6.262   9.360 -0.0710 -0.7927 -1.1028
  744MOL0     C 2575   5.828   6.203   9.431  0.1702 -0.8292  0.0287
  744MOL0     C 2576   5.869   6.296   9.544 -1.1342 -0.0473 -0.8205
  744MOL0     C 2577   5.896   6.223   9.682 -0.2649  0.0487  0.0558
  744MOL0     C 2578   5.941   6.318   9.797 -0.6438  0.3044 -0.5687
  744MOL0    Cl 2579   5.800   6.420   9.833 -0.6048  0.0505  0.1604
  744MOL0     C 2580   5.151   6.041   9.372 -1.1479 -1.0005 -0.4719
  744MOL0     C 2581   5.034   6.044   9.452 -0.7740  0.2005 -0.0312
  744MOL0     O 2582   4.988   6.018   9.797 -0.7240 -0.4259  0.4520
  744MOL0     C 2583   4.666   6.028   9.806 -0.7084 -0.7323  0.2684
  744MOL0     C 2584   4.564   6.044   9.892  0.6081  0.2786 -0.2021
  744MOL0     N 2585   4.163   6.186   9.514 -0.4038  0.4532  0.5466
  744MOL0     N 2586   4.153   6.190   9.388  0.4972 -0.2588  0.0946
  744MOL0     C 2587   5.008   6.389   8.541 -0.6288  0.4334 -0.2653
  744MOL0     C 2588   5.097   6.416   8.441 -0.0234 -0.3203  0.4386
  744MOL0     C 2589   5.329   6.667   8.128 -0.0968  0.4106  0.3391
  744MOL0     C 2590   5.457   6.644   8.173 -1.4058 -0.4518  1.3354
  744MOL0     C 2591   5.571   6.674   8.090  0.4291  0.2480 -0.2809
  744MOL0     C 2592   5.555   6.701   7.953 -0.1255  0.0610  0.2106
  744MOL0     O 2593   5.667   6.722   7.874  0.9657  0.3788 -0.7040
  744MOL0     C 2594   5.654   6.792   7.748  0.1553 -0.0719 -0.1945
  744MOL0     C 2595   5.788   6.846   7.700 -0.2940  0.1876  0.5096
  744MOL0     C 2596   5.894   6.735   7.668  0.5508 -1.1454 -0.2470
  744MOL0     C 2597   5.888   6.703   7.517  0.3498  0.9595  0.2009
  744MOL0     C 2598   5.950   6.802   7.419  0.3196 -0.1839  0.3198
  744MOL0     C 2599   6.003   6.885   7.343  0.2259 -0.3637  0.0726
  744MOL0     C 2600   5.412   6.723   7.908  0.3089  0.1363 -0.2675
  744MOL0     C 2601   5.301   6.697   7.987 -0.0431 -0.2383 -0.6076
  744MOL0     C 2602   5.163   6.708   7.927 -0.0079  0.1152  0.3776
  744MOL0     H 2603   5.162   6.742   8.490 -3.0726  1.3674  0.2792
  744MOL0     H 2604   4.975   6.704   8.662 -1.2259 -0.7156  0.2100
  744MOL0     H 2605   4.817   6.288   8.743 -2.5222 -0.4719  0.4248
  744MOL0     H 2606   4.703   6.382   8.640 -4.1746  1.0400  2.1417
  744MOL0     H 2607   4.729   6.390   8.936 -1.6400  0.5679  0.3570
  744MOL0     H 2608   4.652   6.522   8.836 -0.2170  0.4312 -3.0417
  744MOL0     H 2609   4.486   6.353   8.758  0.4173 -2.1587  0.0023
  744MOL0     H 2610   4.564   6.225   8.837 -0.4430  0.3313  0.8286
  744MOL0     H 2611   4.550   6.346   9.065  0.5535  3.0521  0.0052
  744MOL0     H 2612   4.429   6.456   8.990 -0.3300  0.3306 -0.6086
  744MOL0     H 2613   4.430   6.149   8.988 -1.7687 -0.1662  1.6507
  744MOL0     H 2614   4.301   6.245   8.909 -1.4466 -1.0741  0.1151
  744MOL0     H 2615   4.210   6.186   9.117 -1.1496  1.3284  2.3323
  744MOL0     H 2616   4.346   6.250   9.206  1.0144 -1.7541 -1.7047
  744MOL0     H 2617   4.173   6.443   9.031  1.8337  0.6034  0.1768
  744MOL0     H 2618   4.275   6.480   9.165  0.6765  0.4687 -0.0034
  744MOL0     H 2619   4.037   6.478   9.231 -0.2270 -0.4702 -0.6179
  744MOL0     H 2620   4.002   6.327   9.174 -2.4986  2.8993  0.8872
  744MOL0     H 2621   4.114   6.513   9.491  1.4155  0.5529 -0.8692
  744MOL0     H 2622   4.048   6.329   9.788  1.1336  0.4324  0.8225
  744MOL0     H 2623   4.181   6.438   9.749  0.5603 -0.3568 -1.1699
  744MOL0     H 2624   4.207   6.134   9.775 -0.5238 -0.3586  1.6163
  744MOL0     H 2625   4.347   6.248   9.768  1.2101  0.3143  0.0774
  744MOL0     H 2626   4.262   6.345   9.973 -0.3849 -0.0812  0.7012
  744MOL0     H 2627   4.135   6.235   9.992  1.1281  2.9510  1.2873
  744MOL0     H 2628   4.259   6.106  10.114 -0.8394 -0.9995 -0.4544
  744MOL0     H 2629   4.316   6.039   9.966 -0.5136 -1.0434  0.6044
  744MOL0     H 2630   4.653   6.324  10.060 -2.9239  0.0824 -1.6409
  744MOL0     H 2631   4.930   6.325   9.818 -0.9122 -0.1550 -0.1922
  744MOL0     H 2632   4.956   6.292   9.995 -1.0897  1.1442  1.6187
  744MOL0     H 2633   4.842   6.415   9.952  0.6283  2.2672 -3.8688
  744MOL0     H 2634   5.086   6.310   9.646  3.2393  1.6996 -0.5377
  744MOL0     H 2635   5.300   6.301   9.543 -1.0230  2.9786 -0.6208
  744MOL0     H 2636   5.333   6.254   9.224  0.2257 -3.1929 -0.9222
  744MOL0     H 2637   5.434   6.322   9.349 -0.2995  2.2790 -1.2519
  744MOL0     H 2638   5.500   6.134   9.130 -1.2384  1.6704 -1.3782
  744MOL0     H 2639   5.572   6.304   9.144  2.7078 -1.6109 -0.8409
  744MOL0     H 2640   5.733   6.128   9.191  0.2856  1.4052 -0.8979
  744MOL0     H 2641   5.620   6.070   9.314  1.5877  0.2804  2.2523
  744MOL0     H 2642   5.627   6.287   9.434  0.7353  0.4268 -0.6216
  744MOL0     H 2643   5.736   6.357   9.315 -0.7643  0.5584  1.0626
  744MOL0     H 2644   5.789   6.108   9.468 -1.0748 -0.6866 -0.8255
  744MOL0     H 2645   5.904   6.194   9.353 -1.0083  0.0207 -1.2790
  744MOL0     H 2646   5.779   6.358   9.555 -0.2790  1.2110 -0.7650
  744MOL0     H 2647   5.954   6.358   9.514 -0.3278 -0.1726  1.0783
  744MOL0     H 2648   5.972   6.147   9.659 -0.2231 -0.0794  0.5999
  744MOL0     H 2649   5.806   6.168   9.713  0.9671 -0.9215  2.1977
  744MOL0     H 2650   6.025   6.378   9.762  2.0933 -2.6472  0.4082
  744MOL0     H 2651   5.968   6.266   9.890 -1.2295 -0.1009 -0.6189
  744MOL0     H 2652   5.152   5.967   9.291 -0.2614  0.0790 -1.4854
  744MOL0     H 2653   4.962   5.965   9.435 -0.1283 -0.8598  1.7977
  744MOL0     H 2654   4.661   5.946   9.735 -3.0436 -2.0908  1.8728
  744MOL0     H 2655   4.480   5.978   9.874  0.7388 -0.3253  1.2678
  744MOL0     H 2656   4.950   6.299   8.556 -2.2493  1.2880 -1.0494
  744MOL0     H 2657   5.129   6.335   8.377  2.9454  2.0702 -1.3522
  744MOL0     H 2658   5.472   6.609   8.275 -0.8266 -0.1043  1.3741
  744MOL0     H 2659   5.672   6.656   8.124  0.7581  1.6933 -0.4297
  744MOL0     H 2660   5.608   6.731   7.670  0.3152 -0.6129  0.1266
  744MOL0     H 2661   5.599   6.883   7.770  1.8833  1.1407 -0.6679
  744MOL0     H 2662   5.820   6.903   7.788 -4.6949 -0.8754  3.1081
  744MOL0     H 2663   5.781   6.906   7.608  0.7528 -3.2464 -2.0022
  744MOL0     H 2664   5.993   6.764   7.704  0.5247  0.9050 -1.6548
  744MOL0     H 2665   5.859   6.650   7.728  1.6469 -1.4515 -0.0351
  744MOL0     H 2666   5.782   6.691   7.497  0.2299  1.4862  0.5044
  744MOL0     H 2667   5.933   6.604   7.502 -2.6904 -0.5554  0.4213
  744MOL0     H 2668   6.043   6.956   7.273  0.0053  1.2620  1.5139
  744MOL0     H 2669   5.386   6.764   7.811  2.8250 -1.2491 -1.6133
  744MOL0     H 2670   5.116   6.806   7.943  0.6906  0.6603 -0.8202
  744MOL0     H 2671   5.171   6.682   7.821  0.2913 -2.5648  0.9709
  744MOL0     H 2672   5.089   6.639   7.969 -3.5811  0.9633 -3.8038
  745MOL0     O 2673   7.655   4.243   3.981 -0.2400 -0.3492 -0.5178
  745MOL0     C 2674   7.645   4.127   3.941 -0.0840  0.2176  0.6788
  745MOL0     O 2675   7.687   4.021   4.006  0.7287  0.0541  0.2145
  745MOL0     C 2676   7.690   4.033   4.143 -1.0219  0.0250  0.9995
  745MOL0     C 2677   7.577   4.064   4.221  0.3012  0.5625 -0.1292
  745MOL0     C 2678   7.583   4.088   4.361 -0.1191  0.5567  0.4505
  745MOL0     C 2679   7.712   4.074   4.426 -0.3012 -1.0035  0.0878
  745MOL0     O 2680   7.731   4.113   4.558 -0.8757 -0.2997 -0.1726
  745MOL0     C 2681   7.645   4.204   4.634 -0.0260 -1.0116 -0.2305
  745MOL0     C 2682   7.635   4.344   4.568  1.1647 -0.8478  0.9555
  745MOL0     C 2683   7.753   4.428   4.597 -0.1589 -0.2996 -0.0101
  745MOL0     C 2684   7.726   4.548   4.688 -0.4917  0.2212  0.2854
  745MOL0     C 2685   7.857   4.613   4.723  0.4633  0.5131 -0.7445
  745MOL0     C 2686   7.837   4.762   4.744  0.3837 -0.4149 -0.0537
  745MOL0     C 2687   7.773   4.844   4.623 -0.0107 -0.0607 -0.0896
  745MOL0     C 2688   7.856   4.832   4.498  0.3430 -0.2711 -0.3698
  745MOL0     N 2689   7.986   4.895   4.519  0.1421 -0.4136  0.6575
  745MOL0     C 2690   8.107   4.836   4.523  0.7844 -0.0746 -0.2736
  745MOL0     C 2691   8.185   4.939   4.550 -0.1610 -0.1844  0.5124
  745MOL0     C 2692   8.339   4.942   4.576  0.2781  0.8602  0.4508
  745MOL0     C 2693   8.412   5.066   4.516  0.4395  0.7694  0.3344
  745MOL0     C 2694   8.409   5.063   4.358 -1.3072  0.1754  0.0170
  745MOL0     C 2695   8.489   5.188   4.292  0.3571  0.3023  0.1944
  745MOL0     O 2696   8.461   5.201   4.152 -0.9120  0.1118  0.5057
  745MOL0     C 2697   8.505   5.316   4.099 -0.6334  0.0497  0.4758
  745MOL0     C 2698   8.593   5.418   4.160  0.0511  0.3045 -0.1030
  745MOL0     C 2699   8.625   5.534   4.090 -0.4122  0.0854  0.7941
  745MOL0     C 2700   8.706   5.629   4.163 -0.5058 -0.2734  1.2402
  745MOL0     C 2701   8.581   5.557   3.954  0.3020 -0.2364  0.3194
  745MOL0     C 2702   8.617   5.675   3.875 -0.0696 -0.9074  0.3919
  745MOL0     O 2703   8.511   5.724   3.803 -0.7335 -0.4193  0.3384
  745MOL0     C 2704   8.538   5.781   3.687  0.6094  0.0056  0.7942
  745MOL0     C 2705   8.581   5.700   3.577  0.2874  0.1870  0.0973
  745MOL0     C 2706   8.605   5.765   3.454  0.8723  0.5645  0.0486
  745MOL0     C 2707   8.590   5.899   3.434  0.8297 -0.3819 -0.7540
  745MOL0     O 2708   8.605   5.970   3.314 -0.3238  0.5496 -0.4316
  745MOL0     C 2709   8.661   5.908   3.197 -0.9752 -0.1847  0.3686
  745MOL0     C 2710   8.732   6.021   3.125 -0.1875 -0.7803 -0.4442
  745MOL0     C 2711   8.641   6.133   3.073  0.1278  1.2316  0.9480
  745MOL0     C 2712   8.557   6.087   2.951  0.4070  0.1332  0.1056
  745MOL0     C 2713   8.439   6.179   2.944  0.3089  0.2029  0.4103
  745MOL0     C 2714   8.350   6.141   2.826 -0.7054 -0.1097 -0.3975
  745MOL0     C 2715   8.227   6.234   2.810 -0.1760  0.2296  0.5701
  745MOL0     C 2716   8.108   6.163   2.877 -0.1264 -0.3606 -0.3014
  745MOL0    Cl 2717   7.962   6.283   2.905 -0.4790  0.5056 -0.1627
  745MOL0     C 2718   8.548   5.974   3.547 -0.4286 -0.3947  1.6422
  745MOL0     C 2719   8.528   5.914   3.668  0.2112 -0.2733 -0.4538
  745MOL0     O 2720   8.740   5.708   3.867  0.6004 -0.3183  0.4403
  745MOL0     C 2721   8.483   5.465   3.898  0.2894 -0.2232 -0.9288
  745MOL0     C 2722   8.453   5.350   3.972  0.4348 -0.1213  1.0471
  745MOL0     N 2723   8.119   5.062   4.546 -0.5676 -0.6505  0.1880
  745MOL0     N 2724   7.992   5.031   4.525 -0.5786  0.6279 -0.4688
  745MOL0     C 2725   7.821   4.034   4.347  1.2566 -0.6524 -0.1742
  745MOL0     C 2726   7.813   4.019   4.207 -0.5294  0.1324 -0.6205
  745MOL0     C 2727   7.611   4.094   3.803  0.1532  0.2687 -0.9869
  745MOL0     C 2728   7.616   3.960   3.756  0.1001  0.3382 -0.5211
  745MOL0     C 2729   7.605   3.929   3.622  0.3555 -0.2740 -0.0314
  745MOL0     C 2730   7.588   4.030   3.526 -0.3004  0.5032  0.8638
  745MOL0     O 2731   7.593   4.006   3.392  0.5220  0.5266  0.7556
  745MOL0     C 2732   7.713   4.057   3.328 -0.3483 -0.8547  0.6808
  745MOL0     C 2733   7.846   4.001   3.382  0.0079  0.5477  0.2047
  745MOL0     C 2734   7.962   4.039   3.286  0.8977  0.3206  0.3474
  745MOL0     C 2735   8.027   3.937   3.182  0.6144 -0.6004  0.3849
  745MOL0     C 2736   8.067   3.804   3.220 -0.9328 -0.7524 -0.1276
  745MOL0     C 2737   8.108   3.693   3.243  1.1344  0.7629  0.3702
  745MOL0     C 2738   7.552   4.159   3.574  0.3507 -0.5509  0.6430
  745MOL0     C 2739   7.565   4.194   3.708 -0.4348 -0.4375  0.3172
  745MOL0     C 2740   7.531   4.337   3.741 -0.1003  0.6037 -0.0070
  745MOL0     H 2741   7.479   4.069   4.174  0.3674  2.2762 -0.1365
  745MOL0     H 2742   7.497   4.124   4.417  0.8496  0.6810  1.9159
  745MOL0     H 2743   7.691   4.226   4.731 -0.3874  1.2941 -0.5105
  745MOL0     H 2744   7.543   4.165   4.644 -0.3679 -0.8865 -2.5852
  745MOL0     H 2745   7.626   4.325   4.460  0.7989 -1.1652  1.0425
  745MOL0     H 2746   7.543   4.398   4.591 -0.1187 -1.8850 -1.3524
  745MOL0     H 2747   7.833   4.366   4.639 -0.0835 -1.0635 -1.2285
  745MOL0     H 2748   7.788   4.469   4.502 -3.5400 -0.7611 -1.6003
  745MOL0     H 2749   7.657   4.606   4.627  0.9079  1.3059 -0.3203
  745MOL0     H 2750   7.678   4.510   4.779  0.8680 -1.4926  0.3396
  745MOL0     H 2751   7.934   4.595   4.648 -2.3024 -0.0868 -3.6487
  745MOL0     H 2752   7.889   4.593   4.826 -0.1184 -1.4832 -0.9245
  745MOL0     H 2753   7.767   4.774   4.828 -0.0827  0.6623 -0.5718
  745MOL0     H 2754   7.929   4.810   4.778 -1.8562  4.3471  0.0621
  745MOL0     H 2755   7.750   4.948   4.646 -2.2825 -0.7317  0.9723
  745MOL0     H 2756   7.672   4.806   4.607  0.4636 -0.8806 -1.2921
  745MOL0     H 2757   7.868   4.727   4.468 -3.0062 -0.3193 -1.9681
  745MOL0     H 2758   7.794   4.875   4.419  1.2876 -2.3446 -2.3530
  745MOL0     H 2759   8.150   4.737   4.506  1.6724  0.2420  0.0479
  745MOL0     H 2760   8.375   4.848   4.531  0.0350  0.6025  0.7920
  745MOL0     H 2761   8.350   4.938   4.685  0.2932  0.1685  0.4291
  745MOL0     H 2762   8.364   5.157   4.554  0.2046  0.7579  0.0622
  745MOL0     H 2763   8.519   5.059   4.535  0.6085  0.5959 -0.6463
  745MOL0     H 2764   8.455   4.970   4.323 -1.1984 -1.3220  3.6722
  745MOL0     H 2765   8.305   5.060   4.325 -0.6316  0.4802 -2.2817
  745MOL0     H 2766   8.450   5.283   4.330 -0.3735 -0.8055  2.3886
  745MOL0     H 2767   8.596   5.172   4.308  0.2618 -0.4761  0.0903
  745MOL0     H 2768   8.649   5.389   4.248  2.6334  0.2209 -1.6622
  745MOL0     H 2769   8.671   5.633   4.266 -2.1047  1.2387  0.6822
  745MOL0     H 2770   8.703   5.729   4.118 -0.2259 -0.3142  1.1301
  745MOL0     H 2771   8.812   5.604   4.167 -0.5505 -0.3958  1.6911
  745MOL0     H 2772   8.559   5.594   3.580 -0.3831  0.2215 -2.0688
  745MOL0     H 2773   8.630   5.703   3.368  1.7243  1.1102 -0.1093
  745MOL0     H 2774   8.732   5.827   3.216 -0.2346  0.1160 -0.9943
  745MOL0     H 2775   8.586   5.869   3.126 -0.9075  4.0259 -2.3652
  745MOL0     H 2776   8.801   6.068   3.195 -0.1847  0.8760 -1.5079
  745MOL0     H 2777   8.791   5.988   3.039 -0.1855  2.5466 -1.8576
  745MOL0     H 2778   8.697   6.224   3.052  2.1686  0.5405  3.0130
  745MOL0     H 2779   8.567   6.162   3.148 -0.9685 -1.9436  1.2293
  745MOL0     H 2780   8.529   5.981   2.955  1.9158 -0.2597  2.4653
  745MOL0     H 2781   8.612   6.098   2.857 -2.3951  3.4828 -1.3523
  745MOL0     H 2782   8.383   6.172   3.038  2.0938 -3.2846  1.3728
  745MOL0     H 2783   8.471   6.283   2.938 -2.7460  1.4512  2.8236
  745MOL0     H 2784   8.318   6.037   2.837  0.1992 -0.4063 -0.4634
  745MOL0     H 2785   8.413   6.160   2.739  0.6839  2.2145  1.0257
  745MOL0     H 2786   8.199   6.246   2.704  1.7440  0.4688  0.0605
  745MOL0     H 2787   8.249   6.334   2.849  0.0807  0.7116 -0.7496
  745MOL0     H 2788   8.135   6.136   2.980 -3.5225  3.3113  1.8568
  745MOL0     H 2789   8.077   6.077   2.818  2.5048 -0.4575 -1.6699
  745MOL0     H 2790   8.536   6.077   3.515  0.2001 -0.9543 -0.5770
  745MOL0     H 2791   8.513   5.970   3.760  0.8756  0.3335 -0.7108
  745MOL0     H 2792   8.432   5.478   3.804 -0.4556 -0.3009 -0.5457
  745MOL0     H 2793   8.383   5.284   3.921  2.0233  0.2627 -1.8513
  745MOL0     H 2794   7.919   4.022   4.392  1.7400 -2.7463 -1.6531
  745MOL0     H 2795   7.908   4.019   4.156 -0.3170 -2.4563 -0.3754
  745MOL0     H 2796   7.627   3.871   3.817  1.2292  1.8801  1.6864
  745MOL0     H 2797   7.617   3.829   3.582 -3.4146  0.0551 -2.5336
  745MOL0     H 2798   7.704   4.025   3.224  1.7701  0.3857  0.0549
  745MOL0     H 2799   7.711   4.167   3.331  0.1768 -0.7857 -0.9406
  745MOL0     H 2800   7.820   3.895   3.392  0.8131  0.5204  2.7940
  745MOL0     H 2801   7.859   4.046   3.481 -1.4292  1.2819  0.0807
  745MOL0     H 2802   7.935   4.126   3.226  2.8376  0.8349  0.1552
  745MOL0     H 2803   8.043   4.059   3.356  0.1501  0.8336  1.0865
  745MOL0     H 2804   8.116   3.985   3.141 -0.0021 -0.0863 -0.3766
  745MOL0     H 2805   7.966   3.935   3.092  1.8162  0.8340 -0.5215
  745MOL0     H 2806   8.148   3.596   3.266 -0.3111 -0.7664 -2.8970
  745MOL0     H 2807   7.510   4.233   3.507 -1.8009 -0.8917  1.5245
  745MOL0     H 2808   7.510   4.386   3.645 -0.0407 -0.9600 -0.8567
  745MOL0     H 2809   7.462   4.362   3.822  2.6023 -0.4447  2.7636
  745MOL0     H 2810   7.624   4.373   3.785 -1.5414  4.5642  0.2156
  746MOL0     O 2811  10.849  10.122  10.237 -0.3904 -0.2741 -0.0629
  746MOL0     C 2812  10.857  10.060  10.135  0.5835  0.1440 -0.1829
  746MOL0     O 2813  10.950   9.965  10.116 -0.3279 -0.0666 -0.3861
  746MOL0     C 2814  11.041   9.949  10.215  0.2471  0.6478  0.7417
  746MOL0     C 2815  11.059   9.820  10.269  0.5643 -0.0691 -0.3254
  746MOL0     C 2816  11.161   9.787  10.355 -0.1469 -0.4271 -0.1153
  746MOL0     C 2817  11.265   9.881  10.394  0.1886 -0.4177  0.0787
  746MOL0     O 2818  11.362   9.835  10.472  0.1231 -0.4294 -0.5042
  746MOL0     C 2819  11.476   9.911  10.500 -0.2526 -0.2109 -0.1919
  746MOL0     C 2820  11.548   9.819  10.599  0.3156  0.1468 -0.1516
  746MOL0     C 2821  11.598   9.695  10.533  0.2052 -0.4780 -0.0060
  746MOL0     C 2822  11.599   9.573  10.620 -0.4503  0.0292 -0.4843
  746MOL0     C 2823  11.638   9.453  10.529 -0.0603  0.0928 -0.9736
  746MOL0     C 2824  11.650   9.322  10.616 -0.1083 -0.8522  0.4878
  746MOL0     C 2825  11.652   9.198  10.528 -0.7328  0.3033  0.2494
  746MOL0     C 2826  11.537   9.175  10.427  0.5652 -0.1105  1.0510
  746MOL0     N 2827  11.404   9.163  10.487  0.5722  1.1606 -0.4978
  746MOL0     C 2828  11.314   9.269  10.507 -0.1623  0.5347  0.2654
  746MOL0     C 2829  11.212   9.208  10.582  0.2667  0.0555  0.7345
  746MOL0     C 2830  11.091   9.259  10.654 -0.9885  0.1411  0.2699
  746MOL0     C 2831  10.972   9.202  10.608  0.0103 -0.2964 -0.1184
  746MOL0     C 2832  10.869   9.156  10.714 -0.3253  0.0780 -0.2592
  746MOL0     C 2833  10.725   9.132  10.661 -0.8987 -0.7762 -0.2510
  746MOL0     O 2834  10.652   9.257  10.641  0.1337  0.1885  0.6297
  746MOL0     C 2835  10.550   9.269  10.550 -0.1620  0.1541  0.3854
  746MOL0     C 2836  10.432   9.197  10.568  0.0835  0.2086  0.1099
  746MOL0     C 2837  10.312   9.222  10.502 -0.0572  0.1543 -0.0999
  746MOL0     C 2838  10.186   9.155  10.544  0.5530  0.7856  0.0608
  746MOL0     C 2839  10.325   9.318  10.404  0.3668  0.2499  1.1218
  746MOL0     C 2840  10.212   9.352  10.317  0.2640  0.6138  0.1606
  746MOL0     O 2841  10.181   9.478  10.299  0.4217  0.3245 -0.0448
  746MOL0     C 2842  10.065   9.519  10.218 -0.0950  0.1069 -0.0768
  746MOL0     C 2843   9.981   9.442  10.130  0.8198  0.3469  0.7456
  746MOL0     C 2844   9.879   9.507  10.059 -0.7228  0.0521 -0.4428
  746MOL0     C 2845   9.858   9.643  10.070  0.1164  0.9884 -0.9663
  746MOL0     O 2846   9.762   9.708   9.997  0.0675  0.0207  0.1512
  746MOL0     C 2847   9.649   9.636   9.937 -0.0278  1.0361  0.2363
  746MOL0     C 2848   9.530   9.725   9.909 -0.1034  0.0837 -0.1041
  746MOL0     C 2849   9.469   9.777  10.034 -0.2600 -0.1151 -0.7958
  746MOL0     C 2850   9.365   9.874   9.989  0.2770  0.1646  0.0083
  746MOL0     C 2851   9.284   9.930  10.111 -0.4345  0.3041 -0.6882
  746MOL0     C 2852   9.154   9.846  10.139  0.8750  0.4778 -0.3569
  746MOL0     C 2853   9.052   9.869  10.023  0.3574 -0.6500 -0.2335
  746MOL0     C 2854   8.936   9.772  10.019 -0.5529 -0.5285 -0.2026
  746MOL0    Cl 2855   8.816   9.816   9.883  0.2754 -0.5767  0.1295
  746MOL0     C 2856   9.940   9.719  10.151 -0.8223 -0.2014 -0.1569
  746MOL0     C 2857  10.040   9.659  10.227 -0.1810  0.5626 -0.0141
  746MOL0     O 2858  10.156   9.257  10.265 -0.1732 -0.1659 -0.4190
  746MOL0     C 2859  10.449   9.380  10.372  0.0049  0.2174  0.0692
  746MOL0     C 2860  10.559   9.355  10.445  0.3025 -0.1711 -0.5035
  746MOL0     N 2861  11.246   9.078  10.611  0.0868  0.4383 -0.1470
  746MOL0     N 2862  11.353   9.046  10.546 -0.0563  0.0446  0.3404
  746MOL0     C 2863  11.246  10.014  10.352 -0.3696  0.3832  1.8021
  746MOL0     C 2864  11.141  10.042  10.258  0.2726 -0.2856  0.8724
  746MOL0     C 2865  10.751  10.081  10.035  0.3132 -0.7352  0.0855
  746MOL0     C 2866  10.754   9.998   9.921  0.2151 -0.5542  0.1756
  746MOL0     C 2867  10.664  10.008   9.822 -0.0555  0.1483 -0.2880
  746MOL0     C 2868  10.564  10.103   9.826 -0.8001 -0.0851 -0.2133
  746MOL0     O 2869  10.461  10.128   9.738 -0.5353  0.3788  0.0506
  746MOL0     C 2870  10.448  10.028   9.632 -0.9677  0.0789 -0.4487
  746MOL0     C 2871  10.331  10.063   9.540 -0.7110  1.2029 -0.0057
  746MOL0     C 2872  10.342  10.201   9.478 -0.2562  0.5092 -0.5225
  746MOL0     C 2873  10.230  10.229   9.382 -0.3591 -0.1058  0.3977
  746MOL0     C 2874  10.249  10.145   9.262  0.9729 -0.0674 -0.3945
  746MOL0     C 2875  10.264  10.073   9.168 -0.4560  0.7210 -0.2780
  746MOL0     C 2876  10.563  10.187   9.935 -0.3808  0.9541 -0.5183
  746MOL0     C 2877  10.645  10.175  10.043 -0.5957 -0.0840 -0.1833
  746MOL0     C 2878  10.632  10.280  10.157 -0.6577  0.3828 -0.2907
  746MOL0     H 2879  10.994   9.736  10.243  0.8639 -0.1007 -0.9834
  746MOL0     H 2880  11.168   9.692  10.407  2.7472  1.0341  2.5062
  746MOL0     H 2881  11.449  10.009  10.540  2.9928  0.1138  1.6259
  746MOL0     H 2882  11.544   9.922  10.415  1.9230 -1.7972  1.2287
  746MOL0     H 2883  11.638   9.869  10.637 -0.3972  0.4347  1.2204
  746MOL0     H 2884  11.487   9.801  10.688  0.2247  1.2193  0.0206
  746MOL0     H 2885  11.538   9.670  10.445  0.1052  0.9839 -0.3824
  746MOL0     H 2886  11.703   9.709  10.507  0.5161 -4.4033 -1.4749
  746MOL0     H 2887  11.663   9.590  10.707  0.9910  0.3399 -1.5641
  746MOL0     H 2888  11.497   9.560  10.657 -1.3064  2.5530 -1.6724
  746MOL0     H 2889  11.736   9.479  10.487  1.8566  3.4125  4.3989
  746MOL0     H 2890  11.561   9.443  10.452  0.9577 -3.1903 -1.7328
  746MOL0     H 2891  11.730   9.327  10.690 -0.2401  0.5962  0.5510
  746MOL0     H 2892  11.564   9.316  10.684  1.4629  0.0420  2.7040
  746MOL0     H 2893  11.646   9.113  10.596  0.2630  0.9485  1.1679
  746MOL0     H 2894  11.750   9.200  10.480 -0.1672  0.9003  1.3877
  746MOL0     H 2895  11.527   9.261  10.360 -1.3113 -0.1880  1.1723
  746MOL0     H 2896  11.563   9.094  10.358  0.9363  1.6849 -1.0466
  746MOL0     H 2897  11.311   9.372  10.474 -1.7324  1.9778  4.2709
  746MOL0     H 2898  11.079   9.367  10.648 -2.9140  0.1455  2.5967
  746MOL0     H 2899  11.122   9.242  10.758  2.7484  0.6148 -0.6430
  746MOL0     H 2900  10.920   9.268  10.538 -3.0829 -1.8519  0.5564
  746MOL0     H 2901  10.992   9.109  10.554  1.2857  0.4386 -0.9553
  746MOL0     H 2902  10.886   9.059  10.762  0.9185  0.6560  0.5229
  746MOL0     H 2903  10.861   9.237  10.788  4.9012  0.4170  0.3002
  746MOL0     H 2904  10.730   9.070  10.571 -0.0017 -0.9595 -0.0820
  746MOL0     H 2905  10.675   9.072  10.737  0.2805  0.3694  1.5134
  746MOL0     H 2906  10.423   9.106  10.625 -0.4004  1.2743  1.8219
  746MOL0     H 2907  10.192   9.049  10.517 -0.4641 -0.0292  2.7319
  746MOL0     H 2908  10.087   9.187  10.509 -0.8621 -0.8533  2.2744
  746MOL0     H 2909  10.173   9.155  10.652 -2.4852 -2.6130 -0.0721
  746MOL0     H 2910   9.993   9.335  10.119 -1.0302  0.2913 -1.7312
  746MOL0     H 2911   9.819   9.455   9.985  0.7337 -0.9722 -0.9714
  746MOL0     H 2912   9.691   9.591   9.846  1.6177  0.1040  1.3971
  746MOL0     H 2913   9.606   9.564  10.006 -1.0645  1.3441 -0.0680
  746MOL0     H 2914   9.587   9.802   9.856  1.1548 -0.9776 -0.3601
  746MOL0     H 2915   9.453   9.673   9.853 -0.8990 -2.9331  3.3930
  746MOL0     H 2916   9.535   9.822  10.108 -4.3416 -0.7022  3.7026
  746MOL0     H 2917   9.427   9.683  10.072  0.6815  0.2236  1.1916
  746MOL0     H 2918   9.299   9.825   9.917 -1.0024  1.8267 -0.0257
  746MOL0     H 2919   9.410   9.961   9.940  0.1767 -0.2611 -0.8464
  746MOL0     H 2920   9.340   9.936  10.205 -0.7399  0.3662 -0.5048
  746MOL0     H 2921   9.267  10.033  10.078  1.6955  1.0059  0.2249
  746MOL0     H 2922   9.112   9.868  10.238  1.4969 -1.2508  0.3210
  746MOL0     H 2923   9.172   9.738  10.140  1.5620  0.4984 -3.2948
  746MOL0     H 2924   9.101   9.871   9.925  0.9520  0.7981  0.0634
  746MOL0     H 2925   9.008   9.969  10.026  2.1600  0.5550 -4.9198
  746MOL0     H 2926   8.883   9.764  10.114  0.6298 -0.5266  0.4818
  746MOL0     H 2927   8.978   9.672  10.004 -1.7942 -1.3369  1.3599
  746MOL0     H 2928   9.906   9.820  10.173 -1.3536  0.2200 -2.5656
  746MOL0     H 2929  10.088   9.712  10.309 -0.4415 -1.0786  1.2632
  746MOL0     H 2930  10.443   9.453  10.292  3.7178 -1.3801 -1.8970
  746MOL0     H 2931  10.650   9.411  10.425 -0.4272  0.9963 -0.6290
  746MOL0     H 2932  11.311  10.094  10.387  0.5853  1.2679 -1.6290
  746MOL0     H 2933  11.129  10.141  10.217  1.0830 -1.5041 -2.6909
  746MOL0     H 2934  10.828   9.920   9.908  0.5590 -0.2277  0.1496
  746MOL0     H 2935  10.654   9.943   9.736  0.0973 -0.0059 -0.1896
  746MOL0     H 2936  10.540  10.023   9.572  0.8591 -1.8556  2.3068
  746MOL0     H 2937  10.432   9.931   9.679 -0.1696  1.3153  2.5782
  746MOL0     H 2938  10.243  10.057   9.603  0.7947  0.4576  2.1481
  746MOL0     H 2939  10.335   9.990   9.458 -0.7191 -0.9134  1.7915
  746MOL0     H 2940  10.335  10.275   9.559  1.6039  0.5026 -0.2900
  746MOL0     H 2941  10.441  10.208   9.432  0.3727 -0.5129  0.5965
  746MOL0     H 2942  10.240  10.333   9.349  0.1065  1.0080  3.7073
  746MOL0     H 2943  10.134  10.207   9.430 -0.5172  0.8809  0.5683
  746MOL0     H 2944  10.284   9.996   9.096  2.6354  1.1683 -0.0357
  746MOL0     H 2945  10.491  10.268   9.927 -2.3990 -0.4000  2.2790
  746MOL0     H 2946  10.531  10.321  10.151 -2.0901 -3.0230 -1.7774
  746MOL0     H 2947  10.643  10.245  10.260  2.5365 -0.6950 -0.8662
  746MOL0     H 2948  10.706  10.360  10.142 -1.9505  1.7334  0.3176
  747MOL0     O 2949   1.406  10.785   1.505  0.3936 -0.0466 -0.2281
  747MOL0     C 2950   1.309  10.739   1.447 -0.4675  0.3177 -0.2027
  747MOL0     O 2951   1.306  10.717   1.311  0.1036  0.3302  0.5993
  747MOL0     C 2952   1.402  10.777   1.239  0.0159 -0.3947 -0.5964
  747MOL0     C 2953   1.492  10.700   1.162 -0.2222 -0.2546  0.5684
  747MOL0     C 2954   1.574  10.758   1.067 -0.3024  0.3181 -0.4384
  747MOL0     C 2955   1.576  10.898   1.055  0.3593 -0.3655 -0.4152
  747MOL0     O 2956   1.664  10.951   0.974  0.6000 -0.4625  0.4373
  747MOL0     C 2957   1.763  11.040   1.040 -0.5111 -0.2754  0.4106
  747MOL0     C 2958   1.844  11.104   0.926 -0.3924  0.1142 -0.1788
  747MOL0     C 2959   1.954  11.200   0.981 -0.8166 -0.7731  1.0236
  747MOL0     C 2960   2.096  11.185   0.914 -0.2033  0.2114 -0.3472
  747MOL0     C 2961   2.208  11.253   0.988 -0.4359  0.4895 -0.6111
  747MOL0     C 2962   2.346  11.244   0.919  0.0188 -0.8765 -0.4458
  747MOL0     C 2963   2.394  11.104   0.882  0.3876  0.2191  0.1271
  747MOL0     C 2964   2.533  11.124   0.815  0.0522 -0.0633  0.5375
  747MOL0     N 2965   2.598  11.004   0.764 -0.0982 -0.0274 -0.8691
  747MOL0     C 2966   2.724  11.007   0.709  0.3032 -0.3233 -0.2780
  747MOL0     C 2967   2.762  10.881   0.707  1.1075 -0.0298  0.1021
  747MOL0     C 2968   2.900  10.840   0.662  0.1350 -0.0248 -0.7265
  747MOL0     C 2969   2.925  10.866   0.507  0.0792 -0.0162 -0.1698
  747MOL0     C 2970   3.067  10.837   0.459 -0.2425  1.0389 -0.1604
  747MOL0     C 2971   3.167  10.942   0.505 -0.9633 -0.5108  0.0917
  747MOL0     O 2972   3.214  10.933   0.640  0.7679 -0.2968 -0.5873
  747MOL0     C 2973   3.287  10.832   0.685 -1.1991  0.1424  0.1323
  747MOL0     C 2974   3.272  10.807   0.826  0.6486  0.6276  0.1980
  747MOL0     C 2975   3.338  10.701   0.894  0.7830  0.2093  0.3009
  747MOL0     C 2976   3.288  10.692   1.044  0.5820 -0.2677  0.1628
  747MOL0     C 2977   3.436  10.632   0.827  0.5287 -0.4456  0.7416
  747MOL0     C 2978   3.515  10.533   0.890  0.1309  0.4830  0.1115
  747MOL0     O 2979   3.594  10.457   0.809  0.4985 -0.2323 -0.0882
  747MOL0     C 2980   3.615  10.327   0.830  0.9722  0.5132 -0.5482
  747MOL0     C 2981   3.522  10.245   0.909  0.3469  1.1519  0.5904
  747MOL0     C 2982   3.531  10.108   0.914 -0.5521 -0.3652 -0.1775
  747MOL0     C 2983   3.642  10.044   0.857  0.0634 -0.8865  0.4960
  747MOL0     O 2984   3.662   9.909   0.867 -0.3358 -0.1404  0.0143
  747MOL0     C 2985   3.590   9.821   0.956  0.4528  0.5731  0.5027
  747MOL0     C 2986   3.635   9.681   0.901 -0.1385  0.5016 -0.4856
  747MOL0     C 2987   3.778   9.624   0.956 -0.8138 -0.3457 -0.4007
  747MOL0     C 2988   3.895   9.698   0.892 -0.7216 -0.3342 -0.0995
  747MOL0     C 2989   4.034   9.618   0.926  0.1310 -0.7026 -0.0886
  747MOL0     C 2990   4.146   9.678   0.837  0.1954 -0.5679 -0.5168
  747MOL0     C 2991   4.180   9.825   0.860 -0.2440 -0.3460 -0.3735
  747MOL0     C 2992   4.293   9.861   0.773  0.3591  0.0359 -0.9369
  747MOL0    Cl 2993   4.298  10.038   0.756  0.1457 -0.4753  0.7325
  747MOL0     C 2994   3.729  10.125   0.772  0.2057  0.3665 -0.5343
  747MOL0     C 2995   3.716  10.267   0.761  0.0898 -0.3131 -1.0451
  747MOL0     O 2996   3.519  10.537   1.016 -0.7119 -1.2765  0.8882
  747MOL0     C 2997   3.460  10.665   0.691  0.4960  0.4477  0.2959
  747MOL0     C 2998   3.386  10.763   0.620 -0.6264 -0.8938  0.4982
  747MOL0     N 2999   2.650  10.799   0.737  0.7901 -0.7910 -0.4335
  747MOL0     N 3000   2.552  10.882   0.770 -0.6719 -0.0999 -0.3093
  747MOL0     C 3001   1.494  10.975   1.136 -0.4352 -0.1128  0.0485
  747MOL0     C 3002   1.405  10.917   1.222 -0.4409  0.3898 -0.5331
  747MOL0     C 3003   1.187  10.686   1.531 -0.3367  0.1754  1.7425
  747MOL0     C 3004   1.075  10.634   1.457  0.0157  0.1496 -0.7521
  747MOL0     C 3005   0.973  10.581   1.530 -0.6420  0.0584 -0.4455
  747MOL0     C 3006   0.980  10.557   1.669 -0.9255 -0.4176  0.1057
  747MOL0     O 3007   0.884  10.489   1.737 -1.0179 -1.0002 -0.1734
  747MOL0     C 3008   0.792  10.570   1.805  0.7815 -0.0053  0.5485
  747MOL0     C 3009   0.710  10.477   1.907 -0.3362 -0.1804  0.3570
  747MOL0     C 3010   0.647  10.569   2.020 -0.5205  0.7161 -0.5852
  747MOL0     C 3011   0.540  10.483   2.080  1.0971  0.2196  0.6177
  747MOL0     C 3012   0.472  10.555   2.194 -0.0004  0.2530  0.1481
  747MOL0     C 3013   0.393  10.603   2.276 -0.2634 -0.6177  0.0565
  747MOL0     C 3014   1.086  10.603   1.736  0.1545 -0.8112  0.3909
  747MOL0     C 3015   1.190  10.677   1.674 -0.0154  0.6843 -0.8271
  747MOL0     C 3016   1.296  10.723   1.767  0.2224 -0.1207 -0.0444
  747MOL0     H 3017   1.478  10.592   1.163  0.7999 -0.3950  1.0536
  747MOL0     H 3018   1.643  10.700   1.007  0.0772 -0.6472  0.8887
  747MOL0     H 3019   1.830  10.975   1.097  0.0424 -1.4328 -1.4538
  747MOL0     H 3020   1.725  11.115   1.109  0.2038 -0.6991  1.2893
  747MOL0     H 3021   1.893  11.024   0.871  0.7880 -0.1333  1.1796
  747MOL0     H 3022   1.778  11.152   0.853 -2.7218 -0.2275  1.5807
  747MOL0     H 3023   1.922  11.305   0.982  0.5221 -0.2868  4.0016
  747MOL0     H 3024   1.963  11.178   1.087 -0.1260  1.1210  1.3883
  747MOL0     H 3025   2.122  11.082   0.939  0.0135  0.2885 -0.2591
  747MOL0     H 3026   2.091  11.207   0.807 -4.4876  0.1537 -0.3247
  747MOL0     H 3027   2.206  11.202   1.085  0.2670  1.5192 -0.0305
  747MOL0     H 3028   2.181  11.359   0.995  1.3715  0.9012  1.2546
  747MOL0     H 3029   2.329  11.295   0.824 -0.8402 -1.7891 -0.8021
  747MOL0     H 3030   2.417  11.304   0.977  0.6499 -0.4217 -1.6634
  747MOL0     H 3031   2.331  11.047   0.813  2.4041 -1.7458 -0.1930
  747MOL0     H 3032   2.389  11.055   0.979 -4.2434 -0.9815 -0.4733
  747MOL0     H 3033   2.516  11.197   0.735 -2.4579 -1.9747 -0.8517
  747MOL0     H 3034   2.603  11.156   0.892  3.1270 -0.0917 -2.0333
  747MOL0     H 3035   2.788  11.088   0.677  0.6960 -0.9013 -0.9869
  747MOL0     H 3036   2.901  10.732   0.679 -1.5961  0.0212 -0.1066
  747MOL0     H 3037   2.976  10.888   0.723  1.1197 -0.2090 -1.7752
  747MOL0     H 3038   2.856  10.797   0.457  2.0435 -1.7178 -0.7066
  747MOL0     H 3039   2.886  10.963   0.476 -0.0919 -0.3064 -0.8726
  747MOL0     H 3040   3.086  10.739   0.504  0.2316  1.4611  0.5667
  747MOL0     H 3041   3.081  10.822   0.351 -1.4617 -1.6865 -0.0223
  747MOL0     H 3042   3.258  10.944   0.443 -0.4712  0.0024  0.8147
  747MOL0     H 3043   3.110  11.032   0.486 -0.1983  0.5182  2.3438
  747MOL0     H 3044   3.198  10.864   0.881 -0.4282 -1.7799  1.3982
  747MOL0     H 3045   3.254  10.591   1.069  0.9614 -0.8258 -1.4578
  747MOL0     H 3046   3.200  10.756   1.053  0.5946  0.1434 -1.9918
  747MOL0     H 3047   3.363  10.733   1.112 -0.3601  0.1240  0.9957
  747MOL0     H 3048   3.442  10.288   0.968  1.4707  1.7678  1.6927
  747MOL0     H 3049   3.454  10.063   0.977  0.2690  1.1316  2.0418
  747MOL0     H 3050   3.613   9.826   1.062  0.7124  0.2433  0.4663
  747MOL0     H 3051   3.482   9.819   0.941  0.3158  0.4651  1.4867
  747MOL0     H 3052   3.564   9.602   0.925  1.1545 -0.5761 -0.0309
  747MOL0     H 3053   3.645   9.688   0.792 -1.6337  2.1958 -0.5625
  747MOL0     H 3054   3.788   9.517   0.931  2.7759 -0.0755 -0.6755
  747MOL0     H 3055   3.777   9.631   1.065 -0.5052  0.8674 -0.4663
  747MOL0     H 3056   3.901   9.803   0.919  1.7900 -0.6122  0.6507
  747MOL0     H 3057   3.891   9.694   0.783  2.7662 -0.6381 -0.3236
  747MOL0     H 3058   4.049   9.638   1.032 -1.3752 -1.3283  0.2595
  747MOL0     H 3059   4.018   9.511   0.913 -2.1476 -0.5283  0.8164
  747MOL0     H 3060   4.124   9.664   0.731  4.6080  0.4666 -1.7631
  747MOL0     H 3061   4.237   9.616   0.841 -0.5254 -1.6333 -0.2079
  747MOL0     H 3062   4.185   9.836   0.969 -0.0687 -2.6753 -0.0934
  747MOL0     H 3063   4.096   9.889   0.829  0.0501 -0.5172 -1.5855
  747MOL0     H 3064   4.303   9.819   0.672  1.3871 -0.3012 -0.7012
  747MOL0     H 3065   4.385   9.830   0.824  0.5545  0.7849 -0.8221
  747MOL0     H 3066   3.814  10.075   0.727  1.5675 -1.4808  3.6538
  747MOL0     H 3067   3.786  10.329   0.705  0.6697 -0.8183 -0.8980
  747MOL0     H 3068   3.548  10.624   0.642  1.3353  2.5860 -0.1153
  747MOL0     H 3069   3.407  10.780   0.515 -0.2156 -1.5843  0.4564
  747MOL0     H 3070   1.504  11.081   1.112  0.9861  0.0734  1.3029
  747MOL0     H 3071   1.327  10.978   1.268 -2.5916 -0.8134 -2.3603
  747MOL0     H 3072   1.072  10.626   1.349  0.0961  0.2783 -0.7645
  747MOL0     H 3073   0.910  10.513   1.474  0.9648  0.0661 -2.3528
  747MOL0     H 3074   0.846  10.646   1.862  0.6657  1.9196 -1.7393
  747MOL0     H 3075   0.725  10.612   1.729  1.3201  0.6737  0.4373
  747MOL0     H 3076   0.773  10.399   1.949 -0.0062 -0.6764 -0.9892
  747MOL0     H 3077   0.633  10.418   1.857  0.3055 -0.0242 -0.8751
  747MOL0     H 3078   0.731  10.586   2.087 -1.3003  0.6579  0.4330
  747MOL0     H 3079   0.612  10.667   1.987 -0.1217  1.6448  1.6042
  747MOL0     H 3080   0.590  10.391   2.113 -1.3979 -1.3480  0.2704
  747MOL0     H 3081   0.471  10.463   1.998 -1.0366  2.8716  1.6316
  747MOL0     H 3082   0.314  10.650   2.331 -0.3088  1.1118 -1.3639
  747MOL0     H 3083   1.094  10.600   1.844  0.6176  2.8743  0.5859
  747MOL0     H 3084   1.376  10.648   1.773 -1.4311 -1.9013  0.7892
  747MOL0     H 3085   1.337  10.820   1.738 -2.9410  1.6752  1.1138
  747MOL0     H 3086   1.261  10.740   1.869 -2.8843  0.3084 -1.0885
  748MOL0     O 3087   8.388   2.666   9.957  0.6791 -0.6070  0.5924
  748MOL0     C 3088   8.440   2.686  10.069 -0.1649  0.2412 -0.1685
  748MOL0     O 3089   8.570   2.663  10.102 -1.3788 -0.6859  0.4901
  748MOL0     C 3090   8.667   2.620  10.013  1.1674 -0.4122  0.3405
  748MOL0     C 3091   8.782   2.566  10.062 -0.2769 -0.5780  0.2641
  748MOL0     C 3092   8.886   2.512   9.979  0.4724  0.1286 -0.5655
  748MOL0     C 3093   8.862   2.502   9.839 -0.1556  0.6096  0.3506
  748MOL0     O 3094   8.945   2.441   9.745  0.1640  0.1867 -0.5637
  748MOL0     C 3095   9.031   2.336   9.774 -0.0571 -0.2050 -0.1941
  748MOL0     C 3096   9.166   2.382   9.827 -0.1516 -0.7012  0.6661
  748MOL0     C 3097   9.269   2.265   9.813 -0.5219 -0.4315  0.2354
  748MOL0     C 3098   9.411   2.326   9.846 -0.1545 -0.0925  0.7461
  748MOL0     C 3099   9.509   2.209   9.829 -0.3011  0.1619  0.3113
  748MOL0     C 3100   9.656   2.257   9.847  0.1874 -0.0645  0.4879
  748MOL0     C 3101   9.696   2.295   9.987  0.0780  0.6563 -0.4870
  748MOL0     C 3102   9.826   2.385   9.981  0.3627 -0.5877 -0.4083
  748MOL0     N 3103   9.945   2.308   9.957 -0.0040  0.0995  0.1650
  748MOL0     C 3104  10.030   2.264  10.058 -0.5217 -0.1122 -0.0242
  748MOL0     C 3105  10.137   2.209   9.998  0.0933  0.2667 -0.7349
  748MOL0     C 3106  10.267   2.166  10.067 -0.5679 -0.3602  0.9110
  748MOL0     C 3107  10.348   2.058   9.987 -0.2980 -0.0415  0.3770
  748MOL0     C 3108  10.263   1.934   9.959 -0.4205 -0.3071 -0.2988
  748MOL0     C 3109  10.349   1.812   9.942  0.3614  0.8080 -1.4633
  748MOL0     O 3110  10.370   1.758  10.082  0.2796 -0.1451  0.0021
  748MOL0     C 3111  10.486   1.695  10.120 -0.0450  0.5413  0.5355
  748MOL0     C 3112  10.515   1.709  10.256 -0.7872 -0.4943 -0.9035
  748MOL0     C 3113  10.625   1.654  10.319  0.0663  0.3579  0.7424
  748MOL0     C 3114  10.643   1.683  10.464 -0.0866 -0.3283 -0.4293
  748MOL0     C 3115  10.722   1.565  10.246 -0.4055 -0.3054 -0.6373
  748MOL0     C 3116  10.839   1.497  10.299  0.0090 -0.5142 -0.1692
  748MOL0     O 3117  10.894   1.542  10.412 -0.5161 -0.5507 -0.1985
  748MOL0     C 3118  10.982   1.467  10.489  0.5520 -0.1772  0.5573
  748MOL0     C 3119  11.086   1.533  10.559  0.3017 -0.0144 -0.1826
  748MOL0     C 3120  11.172   1.465  10.648 -0.2424  0.2295  0.6064
  748MOL0     C 3121  11.149   1.333  10.683 -0.0602 -0.4811 -0.0188
  748MOL0     O 3122  11.247   1.243  10.736  0.1188 -0.1612 -0.1218
  748MOL0     C 3123  11.366   1.291  10.795  0.3025 -0.8258 -0.1918
  748MOL0     C 3124  11.449   1.174  10.852  0.6073 -0.2904  0.3711
  748MOL0     C 3125  11.558   1.227  10.948  0.2072  0.1615 -0.1504
  748MOL0     C 3126  11.496   1.241  11.091 -0.3947  0.1938  0.4147
  748MOL0     C 3127  11.549   1.363  11.164 -0.1369 -0.2032 -0.9084
  748MOL0     C 3128  11.698   1.395  11.162 -0.0502  0.0364 -0.6459
  748MOL0     C 3129  11.740   1.509  11.263  0.0688  0.5595  0.6413
  748MOL0     C 3130  11.819   1.629  11.214 -0.0215 -0.7563 -0.0519
  748MOL0    Cl 3131  11.982   1.569  11.167 -0.2862 -0.3544 -0.1801
  748MOL0     C 3132  11.046   1.270  10.625  0.8858  0.1069  1.2100
  748MOL0     C 3133  10.962   1.331  10.523  0.2020 -1.3351 -0.7394
  748MOL0     O 3134  10.886   1.406  10.232 -0.2268  0.1106 -0.4525
  748MOL0     C 3135  10.691   1.552  10.107 -1.0808  0.3196  0.3514
  748MOL0     C 3136  10.578   1.618  10.041 -1.6000  0.2543  0.3875
  748MOL0     N 3137  10.119   2.219   9.866 -0.1139  0.0708 -0.2274
  748MOL0     N 3138  10.007   2.282   9.837  0.9032 -0.5515  0.0879
  748MOL0     C 3139   8.745   2.561   9.790  1.1340  0.3085 -0.0827
  748MOL0     C 3140   8.657   2.628   9.875 -0.2121  0.8271  1.1498
  748MOL0     C 3141   8.346   2.757  10.158 -0.3731 -0.1571 -0.5654
  748MOL0     C 3142   8.213   2.712  10.180  0.0718  0.1621  0.1227
  748MOL0     C 3143   8.124   2.787  10.263 -0.6327 -0.1722 -0.3196
  748MOL0     C 3144   8.172   2.899  10.334 -0.5390 -0.1517 -0.2956
  748MOL0     O 3145   8.094   2.983  10.413  0.2669  0.0442 -0.1770
  748MOL0     C 3146   7.957   2.944  10.454 -0.1974  0.1423 -0.0567
  748MOL0     C 3147   7.934   3.028  10.573  0.6842 -1.0508  0.1567
  748MOL0     C 3148   7.893   3.176  10.566  1.0471 -0.8759 -0.6060
  748MOL0     C 3149   7.880   3.244  10.703  0.6601 -0.0393  0.1415
  748MOL0     C 3150   7.768   3.177  10.772  0.9492 -0.3473 -0.1198
  748MOL0     C 3151   7.683   3.116  10.841 -0.3185  0.5589 -0.4035
  748MOL0     C 3152   8.304   2.945  10.308  0.5469 -0.8496 -0.3560
  748MOL0     C 3153   8.390   2.879  10.221  0.9581 -0.0661 -0.0076
  748MOL0     C 3154   8.526   2.946  10.190 -0.7946  0.4474 -0.0684
  748MOL0     H 3155   8.804   2.564  10.169  3.0042 -4.3029 -0.2539
  748MOL0     H 3156   8.973   2.478  10.033 -0.1536  0.6993  0.8634
  748MOL0     H 3157   9.047   2.277   9.683  1.4250  0.4078 -0.3555
  748MOL0     H 3158   8.985   2.257   9.835  1.6271 -0.5641  0.6573
  748MOL0     H 3159   9.199   2.468   9.767  2.2312 -2.4084 -0.6732
  748MOL0     H 3160   9.165   2.420   9.929 -1.0311  1.5076 -0.1139
  748MOL0     H 3161   9.242   2.185   9.884  0.6834  1.0142  2.4448
  748MOL0     H 3162   9.268   2.229   9.710  2.0377  0.5865 -0.2285
  748MOL0     H 3163   9.432   2.412   9.781 -0.3175  0.8553  1.9144
  748MOL0     H 3164   9.411   2.373   9.945  0.0068  3.2852 -0.7057
  748MOL0     H 3165   9.493   2.160   9.733  3.6311  1.0412 -0.9829
  748MOL0     H 3166   9.488   2.135   9.907 -2.2068 -0.5590 -0.8194
  748MOL0     H 3167   9.712   2.168   9.819 -3.9711 -2.7373 -0.1803
  748MOL0     H 3168   9.682   2.337   9.777  3.6588 -0.5844  1.0354
  748MOL0     H 3169   9.691   2.202  10.043 -2.1940  1.6181  1.0936
  748MOL0     H 3170   9.636   2.365  10.047  3.8263  1.9016  2.1591
  748MOL0     H 3171   9.814   2.450   9.894 -0.6656 -1.6945 -1.1324
  748MOL0     H 3172   9.839   2.441  10.073 -0.6332 -2.1018  0.7017
  748MOL0     H 3173  10.015   2.269  10.165  4.1715 -0.7973  0.8769
  748MOL0     H 3174  10.241   2.140  10.170 -2.6089  2.9201  1.3560
  748MOL0     H 3175  10.324   2.259  10.080 -1.5752  0.2726  0.8649
  748MOL0     H 3176  10.390   2.092   9.892  1.6522 -2.9239  0.0568
  748MOL0     H 3177  10.436   2.034  10.048 -0.5180  0.9461  1.1023
  748MOL0     H 3178  10.187   1.907  10.033 -0.4013 -0.5553 -0.3670
  748MOL0     H 3179  10.214   1.935   9.861 -2.2011 -2.5025  0.4751
  748MOL0     H 3180  10.298   1.737   9.881 -0.6942  0.5340 -0.3058
  748MOL0     H 3181  10.444   1.840   9.897  0.7572 -0.4114 -1.4181
  748MOL0     H 3182  10.452   1.776  10.313  0.3106  0.4178 -0.7265
  748MOL0     H 3183  10.547   1.690  10.515  0.6316  0.0294  0.9240
  748MOL0     H 3184  10.698   1.776  10.484 -1.9760  1.0213 -1.2603
  748MOL0     H 3185  10.693   1.604  10.521 -0.6696 -1.5827 -1.5942
  748MOL0     H 3186  11.106   1.637  10.536  2.3015 -0.4491 -0.5619
  748MOL0     H 3187  11.254   1.523  10.690 -1.6614  1.2348  2.1548
  748MOL0     H 3188  11.423   1.361  10.733  3.7193 -2.2038  1.1615
  748MOL0     H 3189  11.344   1.357  10.880 -2.1267  1.0459 -2.1099
  748MOL0     H 3190  11.379   1.104  10.898  0.7401  0.7029  2.1514
  748MOL0     H 3191  11.499   1.125  10.767  1.9945  0.2018  0.8827
  748MOL0     H 3192  11.602   1.322  10.914  2.4220 -0.6506  0.2727
  748MOL0     H 3193  11.640   1.155  10.944  3.5672  3.6713 -1.1873
  748MOL0     H 3194  11.519   1.150  11.149  3.1282  1.0939  0.6858
  748MOL0     H 3195  11.388   1.254  11.082 -0.2256  2.0276  0.7059
  748MOL0     H 3196  11.494   1.448  11.124  0.7533  1.2998  0.9000
  748MOL0     H 3197  11.515   1.368  11.268 -2.6946  2.3688 -1.7505
  748MOL0     H 3198  11.712   1.434  11.061  3.0263 -1.3088 -0.8358
  748MOL0     H 3199  11.756   1.303  11.172  0.7504  0.6800  0.8771
  748MOL0     H 3200  11.777   1.448  11.345 -0.8515 -0.0289  0.6372
  748MOL0     H 3201  11.650   1.556  11.304  0.0639 -0.8268  2.2963
  748MOL0     H 3202  11.815   1.699  11.298 -1.4358 -1.4898  0.5275
  748MOL0     H 3203  11.772   1.679  11.128  0.6028  0.9425  0.5586
  748MOL0     H 3204  11.029   1.166  10.651 -1.2734 -0.2729 -1.2158
  748MOL0     H 3205  10.882   1.276  10.475  1.5985 -1.1765 -3.4321
  748MOL0     H 3206  10.752   1.484  10.048 -1.1725 -0.3382  0.9975
  748MOL0     H 3207  10.555   1.587   9.940 -1.9856 -1.1656  0.8907
  748MOL0     H 3208   8.716   2.566   9.686 -3.5880  1.9194  1.0694
  748MOL0     H 3209   8.571   2.672   9.825  2.2972  1.2670 -3.2460
  748MOL0     H 3210   8.184   2.614  10.144 -0.0993  0.1025  0.4269
  748MOL0     H 3211   8.027   2.743  10.283 -0.0164 -0.4133  2.6064
  748MOL0     H 3212   7.881   2.969  10.379  1.9309  0.3168 -2.2954
  748MOL0     H 3213   7.949   2.836  10.468  0.9642 -0.0082 -0.4434
  748MOL0     H 3214   8.027   3.027  10.632 -0.0093 -2.0640  1.2640
  748MOL0     H 3215   7.861   2.973  10.633  1.2701 -2.2018 -0.1587
  748MOL0     H 3216   7.960   3.227  10.497  2.5373 -3.3567 -1.1039
  748MOL0     H 3217   7.798   3.196  10.516  0.9992 -3.4199 -1.6803
  748MOL0     H 3218   7.867   3.353  10.696  1.7828  0.2648  1.9612
  748MOL0     H 3219   7.969   3.224  10.763  1.1573 -0.9263 -0.8668
  748MOL0     H 3220   7.617   3.048  10.890  0.3688  1.2258  1.5576
  748MOL0     H 3221   8.330   3.037  10.358 -1.5782  1.0875 -2.5535
  748MOL0     H 3222   8.527   3.048  10.229  2.4030  0.8798 -0.9683
  748MOL0     H 3223   8.608   2.895  10.242 -0.4264  0.9164 -0.1794
  748MOL0     H 3224   8.548   2.945  10.083  1.1350 -1.7372  0.2755
  749MOL0     O 3225   2.966   0.926   3.250  0.5848  0.5700 -0.8680
  749MOL0     C 3226   2.843   0.912   3.239  0.1741  0.3492  1.4026
  749MOL0     O 3227   2.775   0.851   3.338 -0.1219 -1.1321 -0.2875
  749MOL0     C 3228   2.836   0.761   3.417 -0.9704  0.0337 -0.5940
  749MOL0     C 3229   2.811   0.767   3.550  0.8572 -0.3352  0.0008
  749MOL0     C 3230   2.875   0.683   3.638  0.4417  1.2760 -0.3719
  749MOL0     C 3231   2.962   0.586   3.590  0.2702 -0.2604  0.6608
  749MOL0     O 3232   3.012   0.495   3.677 -0.4719  0.3416  0.8613
  749MOL0     C 3233   2.960   0.366   3.666 -0.5477  0.2562 -0.2533
  749MOL0     C 3234   3.045   0.268   3.761 -0.1468 -0.7073  0.3819
  749MOL0     C 3235   3.029   0.112   3.745 -0.7700 -0.0352 -0.3279
  749MOL0     C 3236   3.136   0.048   3.838 -0.6034 -0.1850  0.3199
  749MOL0     C 3237   3.096  -0.087   3.911 -0.2629  0.0747  0.3748
  749MOL0     C 3238   3.159  -0.204   3.840  0.5153 -0.1387  0.1249
  749MOL0     C 3239   3.117  -0.332   3.928 -0.2787 -0.2101  1.0158
  749MOL0     C 3240   3.180  -0.463   3.881 -0.3000 -0.1855 -0.5405
  749MOL0     N 3241   3.165  -0.496   3.738 -0.1788  0.0930  0.6048
  749MOL0     C 3242   3.053  -0.524   3.663 -0.2804  0.7006 -0.5060
  749MOL0     C 3243   3.082  -0.536   3.534 -0.4283  0.4130  0.0328
  749MOL0     C 3244   2.983  -0.572   3.415 -0.8260 -0.8200 -0.0276
  749MOL0     C 3245   3.016  -0.504   3.282 -0.1683  0.1276 -0.0590
  749MOL0     C 3246   2.931  -0.578   3.175 -0.4518 -0.2120  0.2244
  749MOL0     C 3247   2.967  -0.525   3.040 -0.8949  0.4241  0.0252
  749MOL0     O 3248   3.104  -0.520   3.018  0.2495 -0.6941 -0.4506
  749MOL0     C 3249   3.156  -0.517   2.892  0.6796 -0.4121 -0.2910
  749MOL0     C 3250   3.293  -0.527   2.883  0.2812  0.5273  0.8730
  749MOL0     C 3251   3.372  -0.504   2.765 -0.9047 -0.1922 -1.0778
  749MOL0     C 3252   3.519  -0.501   2.768 -0.4178  0.4636 -0.0741
  749MOL0     C 3253   3.300  -0.500   2.640 -0.0744  0.0169  0.7134
  749MOL0     C 3254   3.359  -0.480   2.510 -0.6477 -0.0279  0.0187
  749MOL0     O 3255   3.432  -0.586   2.479  0.6545 -0.1521  0.1859
  749MOL0     C 3256   3.458  -0.593   2.349 -0.4607  0.1083 -0.0185
  749MOL0     C 3257   3.355  -0.630   2.261 -0.5010  0.8027  0.1147
  749MOL0     C 3258   3.379  -0.654   2.125  0.1041  0.0912 -0.1731
  749MOL0     C 3259   3.503  -0.640   2.082 -1.1016 -0.4944  0.2176
  749MOL0     O 3260   3.523  -0.673   1.951  0.9872 -0.1036  0.5854
  749MOL0     C 3261   3.655  -0.673   1.885  0.2285  0.2407  0.1420
  749MOL0     C 3262   3.626  -0.675   1.733  0.1788  0.3690  0.0655
  749MOL0     C 3263   3.563  -0.799   1.674  0.6515  0.6451 -0.9337
  749MOL0     C 3264   3.505  -0.769   1.534  0.9496 -0.6961 -0.5236
  749MOL0     C 3265   3.454  -0.901   1.456 -0.9445 -1.0597 -0.9032
  749MOL0     C 3266   3.572  -0.962   1.388 -0.2009 -0.0148 -0.0015
  749MOL0     C 3267   3.543  -1.105   1.323  0.5652 -0.4434  1.2007
  749MOL0     C 3268   3.508  -1.207   1.422 -0.0454  0.1932 -0.7616
  749MOL0    Cl 3269   3.439  -1.350   1.335 -0.2294 -0.0286 -0.3924
  749MOL0     C 3270   3.611  -0.595   2.158 -0.9234  0.3422 -0.0735
  749MOL0     C 3271   3.586  -0.574   2.295 -0.1629 -0.3625 -0.2451
  749MOL0     O 3272   3.334  -0.384   2.441  0.0607  0.1542  0.9402
  749MOL0     C 3273   3.161  -0.502   2.645  1.1616 -0.8070 -0.1535
  749MOL0     C 3274   3.084  -0.506   2.770 -0.9347  1.1855 -0.1760
  749MOL0     N 3275   3.225  -0.534   3.528 -0.3349  0.3640 -0.4862
  749MOL0     N 3276   3.271  -0.513   3.649  1.0106 -0.1001 -0.2415
  749MOL0     C 3277   2.979   0.576   3.455 -0.5011  0.1987 -0.1633
  749MOL0     C 3278   2.932   0.675   3.370 -0.0443 -0.3284  0.1416
  749MOL0     C 3279   2.763   0.957   3.121 -0.2053 -0.0501  0.2607
  749MOL0     C 3280   2.626   0.932   3.124  0.3749 -0.6155 -0.2354
  749MOL0     C 3281   2.544   0.981   3.023  0.1867 -0.1502  0.2197
  749MOL0     C 3282   2.591   1.053   2.916 -0.4402 -0.6401 -0.4247
  749MOL0     O 3283   2.502   1.119   2.846  0.1512 -0.1589  0.4161
  749MOL0     C 3284   2.541   1.200   2.732 -0.1621 -0.2051  0.0665
  749MOL0     C 3285   2.418   1.272   2.662 -0.0957  0.9076 -0.0019
  749MOL0     C 3286   2.456   1.327   2.528  0.3236 -0.0133 -0.8729
  749MOL0     C 3287   2.589   1.421   2.525  0.8239 -0.4519 -0.6112
  749MOL0     C 3288   2.599   1.531   2.613  0.0068 -0.5754 -0.1633
  749MOL0     C 3289   2.596   1.630   2.683 -0.2341 -0.0722  0.5000
  749MOL0     C 3290   2.733   1.079   2.919 -0.0328 -0.2821 -0.4734
  749MOL0     C 3291   2.819   1.031   3.016  0.2934 -1.0568 -0.6154
  749MOL0     C 3292   2.969   1.056   3.003 -0.4196 -0.8141  1.0574
  749MOL0     H 3293   2.747   0.842   3.596  0.5530 -0.8212  0.3767
  749MOL0     H 3294   2.880   0.677   3.747  0.6519  0.0940 -0.4316
  749MOL0     H 3295   2.957   0.320   3.567  0.5063  1.1420 -0.7148
  749MOL0     H 3296   2.854   0.368   3.696  0.1271  2.3345  2.3409
  749MOL0     H 3297   3.151   0.280   3.737 -0.0689 -2.4787 -0.3657
  749MOL0     H 3298   3.022   0.303   3.862 -1.7486 -0.9573  0.1402
  749MOL0     H 3299   2.932   0.079   3.782 -0.4569 -0.7484 -0.1121
  749MOL0     H 3300   3.036   0.069   3.645 -0.0778 -1.1180  0.1663
  749MOL0     H 3301   3.232   0.041   3.787  1.7523 -0.0153  4.3248
  749MOL0     H 3302   3.165   0.111   3.923 -0.7545 -2.1736  1.9262
  749MOL0     H 3303   2.989  -0.087   3.934 -0.0686 -0.0543  1.2821
  749MOL0     H 3304   3.146  -0.087   4.008 -2.2386  3.1480  1.5481
  749MOL0     H 3305   3.126  -0.206   3.736  0.3928  4.4393 -0.0861
  749MOL0     H 3306   3.269  -0.205   3.834  0.6424 -2.4825  1.4676
  749MOL0     H 3307   3.009  -0.333   3.944 -0.6676  2.5593 -0.7831
  749MOL0     H 3308   3.155  -0.304   4.027  2.2876  1.1733 -0.2594
  749MOL0     H 3309   3.289  -0.464   3.891  0.0552  2.6855 -2.7160
  749MOL0     H 3310   3.134  -0.535   3.949 -1.1364 -0.8146 -1.7447
  749MOL0     H 3311   2.955  -0.536   3.709 -0.5485 -0.9404 -1.4027
  749MOL0     H 3312   2.886  -0.529   3.441 -1.0912 -0.4469 -1.5660
  749MOL0     H 3313   2.975  -0.680   3.397 -1.9138 -0.0842 -5.9867
  749MOL0     H 3314   2.991  -0.398   3.297 -2.4355 -0.3912  0.1446
  749MOL0     H 3315   3.124  -0.522   3.271 -0.3562 -0.8639 -0.3819
  749MOL0     H 3316   2.937  -0.687   3.179  1.3090 -0.2068 -0.9782
  749MOL0     H 3317   2.826  -0.554   3.196  0.0086  1.3867  0.8162
  749MOL0     H 3318   2.915  -0.583   2.964  0.0583  1.1957 -1.2571
  749MOL0     H 3319   2.936  -0.420   3.031  1.3520  1.2093  0.7175
  749MOL0     H 3320   3.332  -0.550   2.982 -0.0723 -1.5419  0.5726
  749MOL0     H 3321   3.549  -0.603   2.741 -0.8904 -0.1593  1.5574
  749MOL0     H 3322   3.564  -0.479   2.866  1.2452  1.9194 -1.1124
  749MOL0     H 3323   3.552  -0.429   2.694 -4.3284  1.3658 -1.1755
  749MOL0     H 3324   3.254  -0.631   2.301 -0.2018 -3.6957  1.3178
  749MOL0     H 3325   3.295  -0.695   2.070  0.5979 -2.6140  0.9775
  749MOL0     H 3326   3.700  -0.576   1.907  2.5751  0.0854 -3.1435
  749MOL0     H 3327   3.721  -0.757   1.909  1.7464  0.6013 -2.3638
  749MOL0     H 3328   3.553  -0.596   1.711 -0.5715 -0.4481 -0.4697
  749MOL0     H 3329   3.720  -0.648   1.685 -0.8988  2.9252 -0.7558
  749MOL0     H 3330   3.480  -0.833   1.736  0.4826 -0.3266 -1.6724
  749MOL0     H 3331   3.643  -0.873   1.668 -0.3997 -0.6689  0.5107
  749MOL0     H 3332   3.587  -0.726   1.476  0.2416  1.9164  0.2875
  749MOL0     H 3333   3.428  -0.692   1.528  3.5796  2.2197  0.5324
  749MOL0     H 3334   3.416  -0.963   1.538 -0.0118  0.6028  0.8724
  749MOL0     H 3335   3.376  -0.887   1.381  1.7814 -0.9926 -3.9663
  749MOL0     H 3336   3.649  -0.979   1.463 -1.1093 -1.2207  0.7017
  749MOL0     H 3337   3.624  -0.894   1.320  3.8055 -1.3767  1.4399
  749MOL0     H 3338   3.629  -1.134   1.262 -0.2336 -0.0184 -0.1697
  749MOL0     H 3339   3.450  -1.093   1.265  1.8514  1.9968 -0.5540
  749MOL0     H 3340   3.422  -1.183   1.486 -0.1597 -1.1227 -0.3949
  749MOL0     H 3341   3.590  -1.226   1.492  0.6231 -0.7458 -1.7846
  749MOL0     H 3342   3.710  -0.582   2.116 -1.2846 -0.2919 -1.1826
  749MOL0     H 3343   3.668  -0.562   2.365 -2.3464 -2.8341  3.0690
  749MOL0     H 3344   3.113  -0.505   2.548  4.5544  2.2001 -2.2039
  749MOL0     H 3345   2.976  -0.502   2.774 -1.0025 -0.2532  0.1248
  749MOL0     H 3346   3.042   0.502   3.409  0.0143  1.6969 -2.0097
  749MOL0     H 3347   2.942   0.673   3.262 -1.5379 -0.8031 -0.0176
  749MOL0     H 3348   2.580   0.881   3.207  0.7899 -1.8348 -0.7335
  749MOL0     H 3349   2.438   0.961   3.038 -0.3763  2.3923  0.0253
  749MOL0     H 3350   2.607   1.278   2.772  0.8465 -1.2960  0.5899
  749MOL0     H 3351   2.599   1.141   2.662 -0.6498 -0.5343 -0.0640
  749MOL0     H 3352   2.375   1.356   2.718 -1.9858  1.1280 -1.6853
  749MOL0     H 3353   2.338   1.200   2.645  0.7688  0.0493 -0.5648
  749MOL0     H 3354   2.465   1.249   2.452 -1.2294 -3.7217  2.4010
  749MOL0     H 3355   2.368   1.381   2.491 -0.2160 -0.9447 -0.9762
  749MOL0     H 3356   2.595   1.468   2.426  2.3624 -3.1664 -1.9428
  749MOL0     H 3357   2.670   1.351   2.550  0.5910 -0.4524  0.1686
  749MOL0     H 3358   2.600   1.712   2.751  0.9102  1.5148 -1.3526
  749MOL0     H 3359   2.768   1.156   2.850 -1.2429 -1.4960 -2.5490
  749MOL0     H 3360   3.022   1.109   3.082  0.2513 -0.9701  0.7220
  749MOL0     H 3361   3.018   0.958   2.997  1.0623 -0.0587  0.2285
  749MOL0     H 3362   2.985   1.097   2.903 -1.5115 -3.2207 -0.1845
  750MOL0     O 3363   9.326   5.955   6.427  0.4301  0.1348 -0.2688
  750MOL0     C 3364   9.317   5.966   6.554 -0.4413 -0.1063 -1.3867
  750MOL0     O 3365   9.274   5.870   6.641 -0.6528  0.1227  0.0275
  750MOL0     C 3366   9.196   5.771   6.582 -0.1946  0.3765 -0.2967
  750MOL0     C 3367   9.050   5.783   6.582 -0.3973  0.0650 -0.4180
  750MOL0     C 3368   8.979   5.673   6.529  0.5778 -0.5846 -0.3831
  750MOL0     C 3369   9.037   5.568   6.454 -0.0195  0.5491  0.2012
  750MOL0     O 3370   8.969   5.451   6.403  0.8955 -0.1211  0.3169
  750MOL0     C 3371   8.877   5.393   6.493  0.8706  1.0863  0.7502
  750MOL0     C 3372   8.837   5.250   6.448  0.8273 -0.0439 -0.1858
  750MOL0     C 3373   8.832   5.143   6.555 -0.4537  0.2934  0.2373
  750MOL0     C 3374   8.949   5.145   6.652 -0.3284  0.1326  0.8538
  750MOL0     C 3375   8.934   5.029   6.751 -0.2849 -0.2698 -0.6137
  750MOL0     C 3376   8.855   5.066   6.870 -0.3412 -0.1860 -0.4547
  750MOL0     C 3377   8.772   4.952   6.934 -0.0887 -0.6300 -0.1641
  750MOL0     C 3378   8.849   4.836   6.976  0.2405  0.5290  0.4233
  750MOL0     N 3379   8.957   4.872   7.063 -0.0144  0.8821  0.8841
  750MOL0     C 3380   9.088   4.880   7.035 -0.5453 -0.2445 -0.0375
  750MOL0     C 3381   9.146   4.915   7.156  0.2822  0.4323 -0.1179
  750MOL0     C 3382   9.284   4.936   7.184 -1.1423  0.1803 -0.5807
  750MOL0     C 3383   9.386   4.933   7.064  0.5289  0.6812 -0.3206
  750MOL0     C 3384   9.538   4.944   7.097  0.4169  0.0189  0.1064
  750MOL0     C 3385   9.632   4.895   6.979  0.4334  0.7922  1.0640
  750MOL0     O 3386   9.643   4.978   6.864 -0.2862 -0.4208  0.2340
  750MOL0     C 3387   9.747   5.072   6.869  0.7142 -0.2853 -0.1729
  750MOL0     C 3388   9.844   5.109   6.966 -0.3638  0.0087 -0.3860
  750MOL0     C 3389   9.950   5.205   6.936  0.2326  0.6597  1.1446
  750MOL0     C 3390  10.063   5.221   7.034  0.3638 -0.4784 -0.0833
  750MOL0     C 3391   9.944   5.281   6.810 -0.1434 -0.0695 -0.5191
  750MOL0     C 3392  10.030   5.398   6.782 -0.0854 -0.6034  0.3008
  750MOL0     O 3393   9.972   5.474   6.680  0.7396  0.1236 -0.4421
  750MOL0     C 3394  10.022   5.603   6.676  0.0616  0.6127  0.2886
  750MOL0     C 3395  10.151   5.631   6.625  0.0164 -0.9543 -0.0388
  750MOL0     C 3396  10.200   5.764   6.624 -0.7863 -0.0940 -1.3523
  750MOL0     C 3397  10.122   5.871   6.673 -0.1743  0.6321 -0.1522
  750MOL0     O 3398  10.181   5.996   6.668  0.0020  0.6235 -0.5854
  750MOL0     C 3399  10.096   6.109   6.707  0.1089  0.1520 -0.4154
  750MOL0     C 3400  10.094   6.129   6.866  0.3024  0.0280  1.2600
  750MOL0     C 3401  10.079   6.274   6.913 -0.2242  0.6647  0.7744
  750MOL0     C 3402  10.009   6.270   7.053  0.5452  0.4418  0.4743
  750MOL0     C 3403   9.966   6.408   7.094 -0.5665  0.2047  0.2470
  750MOL0     C 3404   9.865   6.426   7.202  0.0664  0.2177  0.2751
  750MOL0     C 3405   9.886   6.342   7.331  0.4581 -0.5473 -0.5192
  750MOL0     C 3406   9.789   6.398   7.449  0.1565  0.4673  0.1588
  750MOL0    Cl 3407   9.688   6.268   7.528  0.1621  0.5021  0.0872
  750MOL0     C 3408   9.988   5.841   6.721  0.2251 -0.3952 -1.2705
  750MOL0     C 3409   9.944   5.707   6.714 -0.5102  0.1948  1.0203
  750MOL0     O 3410  10.127   5.431   6.848  0.4217 -0.1304  0.5874
  750MOL0     C 3411   9.839   5.249   6.721 -1.1858 -0.0783  0.2231
  750MOL0     C 3412   9.759   5.148   6.751  0.5016 -0.1406  0.3203
  750MOL0     N 3413   9.048   4.939   7.257  0.8522  0.5130 -0.1698
  750MOL0     N 3414   8.941   4.906   7.193 -0.2082  0.2057  0.0142
  750MOL0     C 3415   9.179   5.571   6.451 -0.1517  0.4950  0.2600
  750MOL0     C 3416   9.251   5.663   6.530 -1.0080 -0.1525  1.0463
  750MOL0     C 3417   9.337   6.107   6.608  0.1601  0.1932 -1.0474
  750MOL0     C 3418   9.282   6.139   6.731 -0.1925  0.0101 -0.5181
  750MOL0     C 3419   9.284   6.273   6.776  0.1018  0.2117 -0.7579
  750MOL0     C 3420   9.340   6.377   6.712  0.4164  0.5284  0.1827
  750MOL0     O 3421   9.374   6.500   6.770  0.4840 -0.1265  0.6969
  750MOL0     C 3422   9.385   6.519   6.912 -0.4860 -0.5814  0.9548
  750MOL0     C 3423   9.415   6.674   6.942 -0.6906 -0.8212  0.9891
  750MOL0     C 3424   9.563   6.722   6.905  0.7122 -0.1695  0.7348
  750MOL0     C 3425   9.667   6.629   6.963 -0.8449 -1.1342  0.3585
  750MOL0     C 3426   9.793   6.694   6.938 -1.5772  0.2396  0.2254
  750MOL0     C 3427   9.899   6.749   6.920  0.2027 -0.0666  0.4065
  750MOL0     C 3428   9.385   6.353   6.588  0.0900 -0.0456 -1.1062
  750MOL0     C 3429   9.376   6.229   6.529  0.0441  0.7124 -0.5017
  750MOL0     C 3430   9.417   6.221   6.387 -1.1495 -0.2833  0.1582
  750MOL0     H 3431   9.002   5.868   6.629 -0.5438  0.1432 -0.7050
  750MOL0     H 3432   8.874   5.653   6.551  1.3827 -2.8208  1.8389
  750MOL0     H 3433   8.781   5.445   6.505  0.7169  1.6176 -2.1446
  750MOL0     H 3434   8.930   5.388   6.588  0.7291 -1.7641  0.7700
  750MOL0     H 3435   8.741   5.257   6.394  0.4747  0.6898  0.5076
  750MOL0     H 3436   8.914   5.217   6.378  0.4180 -0.4970 -0.4289
  750MOL0     H 3437   8.741   5.164   6.612  1.0638  4.7167  1.4231
  750MOL0     H 3438   8.806   5.045   6.516 -1.0636 -0.4074  2.2723
  750MOL0     H 3439   9.038   5.107   6.600 -0.8086 -0.9171  0.7770
  750MOL0     H 3440   8.957   5.242   6.703 -0.1489  0.6741 -0.1820
  750MOL0     H 3441   9.032   4.998   6.788 -1.5390  0.2080  3.6739
  750MOL0     H 3442   8.890   4.947   6.693 -1.8104  1.9277 -2.7880
  750MOL0     H 3443   8.927   5.095   6.948  0.4199 -2.1312 -0.3784
  750MOL0     H 3444   8.788   5.149   6.845  0.8009  1.2118  0.9171
  750MOL0     H 3445   8.708   4.913   6.854  0.3022  1.5753 -1.6736
  750MOL0     H 3446   8.711   4.992   7.015  0.6602 -0.2143  0.2085
  750MOL0     H 3447   8.772   4.778   7.028 -1.2188  2.7472  0.8820
  750MOL0     H 3448   8.880   4.772   6.893 -2.8159  0.3316 -0.7022
  750MOL0     H 3449   9.149   4.843   6.953  0.3827 -0.3472  0.6762
  750MOL0     H 3450   9.327   4.875   7.264 -0.2578  0.6027 -0.7269
  750MOL0     H 3451   9.292   5.038   7.223 -1.4786  0.7911 -2.0348
  750MOL0     H 3452   9.365   4.843   7.005  0.6459  0.9657 -0.7931
  750MOL0     H 3453   9.357   5.016   6.999 -0.6705 -1.0834 -2.1892
  750MOL0     H 3454   9.568   5.044   7.129  0.5948 -0.5846  1.9291
  750MOL0     H 3455   9.565   4.871   7.174 -0.1901 -1.7222 -1.2498
  750MOL0     H 3456   9.732   4.871   7.016  1.0148  1.5523  0.0268
  750MOL0     H 3457   9.589   4.795   6.962 -2.1700  2.1017 -0.7008
  750MOL0     H 3458   9.850   5.058   7.062 -0.7548 -1.2525 -1.0050
  750MOL0     H 3459  10.072   5.134   7.100  0.3898  0.7906  1.6527
  750MOL0     H 3460  10.041   5.305   7.100 -0.2713 -0.7557  0.0639
  750MOL0     H 3461  10.160   5.221   6.983  1.3245 -1.7023  1.6156
  750MOL0     H 3462  10.204   5.544   6.589  1.0209  0.5159 -2.3633
  750MOL0     H 3463  10.293   5.792   6.577 -0.1479 -1.2586 -0.8426
  750MOL0     H 3464  10.135   6.197   6.656 -1.4466 -0.1032 -2.1808
  750MOL0     H 3465   9.996   6.095   6.663 -0.2243  0.5111  0.2167
  750MOL0     H 3466  10.023   6.058   6.909 -2.1713 -0.4779 -3.1009
  750MOL0     H 3467  10.192   6.091   6.896  0.8591  0.9867  0.7104
  750MOL0     H 3468  10.007   6.322   6.846 -2.4700 -0.1886  2.4550
  750MOL0     H 3469  10.174   6.327   6.919 -1.2242  2.7312 -0.6523
  750MOL0     H 3470  10.084   6.247   7.129  0.1916  1.5714  1.1960
  750MOL0     H 3471   9.921   6.204   7.050  3.4645 -3.9424  1.7400
  750MOL0     H 3472  10.059   6.463   7.114 -1.8493  3.8011 -2.4555
  750MOL0     H 3473   9.922   6.454   7.004  1.1540  1.2040 -0.1338
  750MOL0     H 3474   9.757   6.419   7.184 -0.1305  0.7996  1.1505
  750MOL0     H 3475   9.880   6.534   7.217  0.1315  0.1715  0.5370
  750MOL0     H 3476   9.992   6.353   7.356 -0.0020  0.9779  0.8863
  750MOL0     H 3477   9.853   6.240   7.310 -1.6701  0.3806 -2.0964
  750MOL0     H 3478   9.715   6.473   7.420 -1.0882  0.0392  2.1056
  750MOL0     H 3479   9.839   6.447   7.534 -0.5306 -0.4229  1.0926
  750MOL0     H 3480   9.925   5.919   6.763  2.0008  0.4812 -0.1359
  750MOL0     H 3481   9.840   5.694   6.740 -1.0439  1.6151 -0.2680
  750MOL0     H 3482   9.818   5.300   6.628 -2.6192 -0.9951  0.0171
  750MOL0     H 3483   9.674   5.130   6.685  0.4188  2.2551 -0.3047
  750MOL0     H 3484   9.228   5.484   6.409 -0.3000  0.1446  0.8100
  750MOL0     H 3485   9.358   5.648   6.537 -1.0158  0.4478  3.1461
  750MOL0     H 3486   9.236   6.063   6.792  0.4727  0.7806  0.9986
  750MOL0     H 3487   9.232   6.290   6.869  0.3633 -2.0569 -0.1507
  750MOL0     H 3488   9.297   6.481   6.965 -0.5937 -0.4502  0.8718
  750MOL0     H 3489   9.472   6.460   6.942 -1.0096 -1.6580  0.4255
  750MOL0     H 3490   9.405   6.695   7.049  1.4464 -2.9006  1.6754
  750MOL0     H 3491   9.344   6.734   6.884  0.3344  1.9379  2.3582
  750MOL0     H 3492   9.572   6.732   6.797 -0.3621 -1.1880  0.5355
  750MOL0     H 3493   9.572   6.821   6.952 -0.0511 -0.6585  1.9457
  750MOL0     H 3494   9.668   6.545   6.893 -1.8475 -0.2610 -0.7555
  750MOL0     H 3495   9.640   6.605   7.066 -3.3372  2.5100  0.7359
  750MOL0     H 3496   9.981   6.814   6.898  1.1250 -1.4943 -0.5587
  750MOL0     H 3497   9.428   6.443   6.545  2.6375 -0.7192 -0.1523
  750MOL0     H 3498   9.344   6.175   6.321  1.2304  0.7706 -3.4845
  750MOL0     H 3499   9.425   6.324   6.352  2.9223  0.3306  2.2225
  750MOL0     H 3500   9.508   6.160   6.380 -0.0410  1.2500  0.6784
  751MOL0     O 3501   1.681   8.298   0.938  0.7322 -0.0583  0.3977
  751MOL0     C 3502   1.716   8.411   0.969  0.7714 -0.0828 -0.3140
  751MOL0     O 3503   1.642   8.485   1.067  0.1913  0.0956 -0.9821
  751MOL0     C 3504   1.499   8.486   1.061  0.5653  0.8590 -0.5419
  751MOL0     C 3505   1.420   8.418   0.964  0.6219  0.1970 -0.0022
  751MOL0     C 3506   1.280   8.414   0.979  0.4718  0.0121 -0.3402
  751MOL0     C 3507   1.214   8.491   1.076  0.3732 -0.6453 -0.5764
  751MOL0     O 3508   1.077   8.489   1.083 -0.3476  0.5970  0.4807
  751MOL0     C 3509   1.005   8.608   1.091  0.4016 -0.9493  0.4014
  751MOL0     C 3510   0.869   8.596   1.151  0.0161 -0.3555  0.0513
  751MOL0     C 3511   0.875   8.588   1.301  0.0523 -0.7086  0.4780
  751MOL0     C 3512   0.727   8.568   1.352 -0.0099  0.0397  0.4284
  751MOL0     C 3513   0.713   8.592   1.499 -0.4608  0.6640  0.3698
  751MOL0     C 3514   0.789   8.487   1.593 -0.1793 -0.9494 -0.1032
  751MOL0     C 3515   0.799   8.532   1.739  0.2233  1.1901  0.1729
  751MOL0     C 3516   0.881   8.659   1.765 -0.0789  0.7556 -0.3917
  751MOL0     N 3517   1.010   8.646   1.700 -0.1023 -0.2029  0.9174
  751MOL0     C 3518   1.118   8.575   1.738 -1.0152 -0.1569 -0.2311
  751MOL0     C 3519   1.226   8.628   1.668 -0.7512  0.3401  0.6854
  751MOL0     C 3520   1.376   8.591   1.677  0.8780 -0.0269  0.2046
  751MOL0     C 3521   1.453   8.722   1.693 -0.2161  0.6668  0.6094
  751MOL0     C 3522   1.419   8.815   1.815 -0.5686  0.1038  0.4192
  751MOL0     C 3523   1.475   8.956   1.796 -0.4662 -0.9544 -0.0407
  751MOL0     O 3524   1.611   8.951   1.759  0.0080 -0.0713  0.1679
  751MOL0     C 3525   1.678   9.064   1.725 -0.6050 -1.0829  0.3546
  751MOL0     C 3526   1.816   9.051   1.724  0.0477 -0.4548  0.0045
  751MOL0     C 3527   1.899   9.148   1.663  1.2539  0.2716 -0.2922
  751MOL0     C 3528   2.044   9.110   1.643 -0.2013 -0.4013 -0.5332
  751MOL0     C 3529   1.838   9.271   1.615 -0.6978  0.4730 -0.2215
  751MOL0     C 3530   1.914   9.384   1.554 -0.1154  0.0521  0.2762
  751MOL0     O 3531   1.836   9.461   1.468  0.2295  1.3175 -0.9177
  751MOL0     C 3532   1.895   9.551   1.392  0.4228  0.7497  0.3814
  751MOL0     C 3533   1.824   9.657   1.360 -0.0287  0.4998  0.3412
  751MOL0     C 3534   1.880   9.757   1.271 -0.8346  0.2168  0.7168
  751MOL0     C 3535   2.005   9.735   1.222  0.1212 -0.4785 -0.3657
  751MOL0     O 3536   2.086   9.830   1.159  0.5928 -0.2494 -0.1601
  751MOL0     C 3537   2.029   9.953   1.098  0.2374 -0.5361  0.6892
  751MOL0     C 3538   2.123  10.075   1.092 -0.0167  0.7231  0.0684
  751MOL0     C 3539   2.152  10.138   1.232 -0.1367 -0.3015 -0.2752
  751MOL0     C 3540   2.038  10.226   1.292  0.2978 -0.2216  0.9037
  751MOL0     C 3541   2.052  10.255   1.440 -0.4300  0.0209  0.0264
  751MOL0     C 3542   2.037  10.134   1.538  0.0627 -0.6488  0.3844
  751MOL0     C 3543   2.060  10.191   1.686  0.1854  0.9616 -0.8463
  751MOL0     C 3544   2.210  10.226   1.712 -0.1997  0.2708  0.5131
  751MOL0    Cl 3545   2.238  10.276   1.887  0.3411 -0.0853  0.3189
  751MOL0     C 3546   2.065   9.612   1.229 -0.1866  0.0804 -0.2393
  751MOL0     C 3547   2.020   9.524   1.326  0.3695 -1.2022 -0.6678
  751MOL0     O 3548   2.023   9.412   1.600  0.1532  0.0494  0.4166
  751MOL0     C 3549   1.700   9.286   1.632  0.2500 -1.0020  0.2716
  751MOL0     C 3550   1.623   9.184   1.673 -0.3452 -0.2022 -0.8252
  751MOL0     N 3551   1.175   8.737   1.595 -0.7212  1.2377 -1.1505
  751MOL0     N 3552   1.049   8.738   1.606  1.0536 -0.1360 -0.3820
  751MOL0     C 3553   1.297   8.570   1.160  0.0933 -0.0377 -1.1529
  751MOL0     C 3554   1.435   8.564   1.165 -0.1171  0.2109 -0.3821
  751MOL0     C 3555   1.826   8.479   0.902  0.2119  0.5642  0.4493
  751MOL0     C 3556   1.840   8.617   0.941  0.0315 -0.1971 -0.7240
  751MOL0     C 3557   1.931   8.704   0.879  0.0996  0.2170 -0.5777
  751MOL0     C 3558   2.025   8.648   0.789  0.7186  0.0233  0.5288
  751MOL0     O 3559   2.134   8.711   0.736 -0.0825  0.0526  0.2912
  751MOL0     C 3560   2.097   8.794   0.625  0.3172  0.2538  0.7173
  751MOL0     C 3561   2.169   8.928   0.623 -0.8909  0.5652 -0.0179
  751MOL0     C 3562   2.318   8.929   0.595  0.2158 -0.0364 -0.3502
  751MOL0     C 3563   2.364   9.067   0.550 -0.7031  0.2259  0.1604
  751MOL0     C 3564   2.507   9.053   0.548  0.3902  0.0820 -0.0918
  751MOL0     C 3565   2.624   9.040   0.560  0.1218  0.0775 -0.2606
  751MOL0     C 3566   2.011   8.515   0.755 -0.7380  0.7437 -0.3706
  751MOL0     C 3567   1.911   8.433   0.798 -0.5922 -0.2983  0.5283
  751MOL0     C 3568   1.909   8.299   0.743  0.2683  0.9382 -0.1090
  751MOL0     H 3569   1.455   8.370   0.874  0.0263 -0.1086 -0.0785
  751MOL0     H 3570   1.212   8.365   0.910 -2.7532  0.3797  2.3551
  751MOL0     H 3571   1.007   8.656   0.993 -0.2833  0.7769  1.1814
  751MOL0     H 3572   1.059   8.686   1.147 -0.8455  0.2351 -0.0009
  751MOL0     H 3573   0.816   8.686   1.119  0.2222 -0.8567 -1.8198
  751MOL0     H 3574   0.831   8.507   1.101  1.5838  0.0976 -2.0852
  751MOL0     H 3575   0.940   8.509   1.340  1.3487 -0.3644 -0.8550
  751MOL0     H 3576   0.920   8.682   1.334  0.2702  0.2940 -2.3678
  751MOL0     H 3577   0.664   8.638   1.297  1.9822 -0.6550 -3.0257
  751MOL0     H 3578   0.702   8.462   1.340 -1.5336  0.6041 -2.2070
  751MOL0     H 3579   0.605   8.600   1.515 -1.3177  1.6364 -4.4713
  751MOL0     H 3580   0.748   8.692   1.526 -2.3973  0.6788  3.3245
  751MOL0     H 3581   0.751   8.385   1.589  1.4520 -1.5190 -2.7882
  751MOL0     H 3582   0.893   8.471   1.563  0.0492 -1.3678  0.8703
  751MOL0     H 3583   0.858   8.450   1.781 -0.0022  0.5453 -0.7380
  751MOL0     H 3584   0.701   8.553   1.784  0.2587 -1.0375  1.4602
  751MOL0     H 3585   0.836   8.754   1.736  2.8118  2.7467  1.1171
  751MOL0     H 3586   0.900   8.661   1.872 -1.5153  3.1426 -0.1168
  751MOL0     H 3587   1.128   8.492   1.807 -0.1772 -0.1458 -0.3287
  751MOL0     H 3588   1.396   8.550   1.577 -3.2900  0.4692 -1.0043
  751MOL0     H 3589   1.385   8.514   1.754 -2.6980 -0.2764  0.5175
  751MOL0     H 3590   1.559   8.694   1.698 -0.8471 -2.1670  0.1436
  751MOL0     H 3591   1.437   8.780   1.602 -0.6338 -0.2235  0.0935
  751MOL0     H 3592   1.311   8.827   1.812 -0.6850 -1.0007 -0.8236
  751MOL0     H 3593   1.461   8.765   1.902  0.3942  0.4276  0.1537
  751MOL0     H 3594   1.411   9.001   1.719  1.4089 -1.9494 -2.2807
  751MOL0     H 3595   1.457   9.016   1.886 -1.0496  1.6182 -1.7869
  751MOL0     H 3596   1.863   8.967   1.775 -0.5273 -0.6893  0.1533
  751MOL0     H 3597   2.075   9.132   1.540  0.8904  1.7915  0.1992
  751MOL0     H 3598   2.057   9.002   1.655 -1.1317 -0.3849  0.8744
  751MOL0     H 3599   2.116   9.175   1.693 -0.4994  0.4897 -1.2327
  751MOL0     H 3600   1.738   9.688   1.419 -1.0274 -2.2450  0.5070
  751MOL0     H 3601   1.830   9.853   1.276 -0.9803  0.2015 -0.2323
  751MOL0     H 3602   2.002   9.922   0.996  0.2460 -2.2358  1.1712
  751MOL0     H 3603   1.934   9.984   1.144 -1.2040 -0.4602 -2.0864
  751MOL0     H 3604   2.210  10.027   1.048 -1.8524 -1.5114 -1.3635
  751MOL0     H 3605   2.081  10.157   1.032 -1.2489 -0.4350 -0.6966
  751MOL0     H 3606   2.242  10.199   1.221 -2.2062  3.3921  1.4077
  751MOL0     H 3607   2.175  10.061   1.306 -0.4725 -1.1998 -1.0790
  751MOL0     H 3608   1.939  10.192   1.262  0.5803  1.6440 -2.7988
  751MOL0     H 3609   2.047  10.320   1.235 -1.6151 -2.0417 -2.7817
  751MOL0     H 3610   2.152  10.300   1.443  1.7399 -3.8841 -3.1839
  751MOL0     H 3611   1.977  10.331   1.466  0.6431  1.9639 -2.1435
  751MOL0     H 3612   2.120  10.066   1.516  0.7051  0.1998  0.1066
  751MOL0     H 3613   1.937  10.094   1.521 -1.0616  2.2536 -0.4647
  751MOL0     H 3614   2.033  10.109   1.753  0.9472  0.2188 -1.4377
  751MOL0     H 3615   2.005  10.281   1.713 -4.5583 -2.5682  3.1202
  751MOL0     H 3616   2.236  10.312   1.649  1.6048 -0.1495  0.6350
  751MOL0     H 3617   2.267  10.138   1.683 -1.2906  0.1545 -1.4722
  751MOL0     H 3618   2.169   9.609   1.197  0.6831 -0.0432  2.3376
  751MOL0     H 3619   2.074   9.439   1.365 -0.9859 -0.6363  2.8494
  751MOL0     H 3620   1.649   9.372   1.590 -0.0176 -2.0709 -1.7100
  751MOL0     H 3621   1.515   9.190   1.676 -0.4102 -1.4836  1.0611
  751MOL0     H 3622   1.252   8.639   1.230  1.6076  0.3625 -0.5339
  751MOL0     H 3623   1.494   8.614   1.242  1.3399 -1.2783 -0.4719
  751MOL0     H 3624   1.778   8.659   1.020 -0.7913 -0.1440 -1.3834
  751MOL0     H 3625   1.934   8.807   0.910  0.8810  0.0642 -0.0948
  751MOL0     H 3626   2.123   8.741   0.533 -1.5426 -0.6203  0.6595
  751MOL0     H 3627   1.990   8.817   0.629 -0.1362 -1.7896  1.1120
  751MOL0     H 3628   2.152   8.981   0.717 -0.7477  1.1651 -0.3270
  751MOL0     H 3629   2.120   8.989   0.547 -2.7554 -0.1088  0.5965
  751MOL0     H 3630   2.361   8.910   0.694 -0.8867  0.2596  0.2046
  751MOL0     H 3631   2.352   8.843   0.537  1.8454 -1.0303  1.9180
  751MOL0     H 3632   2.329   9.145   0.617  0.9133  0.6078  0.6106
  751MOL0     H 3633   2.317   9.079   0.452 -0.6702 -1.1041 -0.0448
  751MOL0     H 3634   2.729   9.038   0.583  0.3196  1.5623 -0.9370
  751MOL0     H 3635   2.089   8.463   0.698 -0.4912 -1.3557  1.7384
  751MOL0     H 3636   1.807   8.264   0.723  1.0073 -2.9070  1.8362
  751MOL0     H 3637   1.960   8.288   0.647  2.3803 -0.5822  1.0935
  751MOL0     H 3638   1.960   8.234   0.815 -1.2212  0.5725  0.6726
  752MOL0     O 3639   1.774  10.879   6.777 -0.0353  0.2784  0.1076
  752MOL0     C 3640   1.669  10.944   6.805  0.3934 -0.2736  0.0678
  752MOL0     O 3641   1.665  11.083   6.837  0.4368 -0.4707  0.1844
  752MOL0     C 3642   1.777  11.158   6.857  0.7356  0.5628 -0.4993
  752MOL0     C 3643   1.786  11.247   6.963 -0.2388  0.4572  0.0962
  752MOL0     C 3644   1.903  11.323   6.993 -0.2552  0.8186 -0.3226
  752MOL0     C 3645   2.012  11.313   6.912  0.1041  0.7801  0.5420
  752MOL0     O 3646   2.131  11.382   6.954 -0.2768  0.6007  0.0006
  752MOL0     C 3647   2.256  11.299   6.935  0.4199 -0.0987 -0.0214
  752MOL0     C 3648   2.386  11.361   6.991  1.0248 -0.0731 -0.4125
  752MOL0     C 3649   2.505  11.262   6.983  0.1986 -0.3561 -0.4259
  752MOL0     C 3650   2.630  11.332   6.927 -0.1529 -0.0912 -0.1745
  752MOL0     C 3651   2.756  11.241   6.921  0.4228  0.2609  0.4853
  752MOL0     C 3652   2.846  11.282   6.806 -1.1476 -0.4637 -0.3864
  752MOL0     C 3653   2.947  11.174   6.778 -0.6402 -1.0794  0.5046
  752MOL0     C 3654   3.059  11.229   6.689 -0.0755 -0.7120 -0.3409
  752MOL0     N 3655   3.138  11.117   6.642  0.1114 -0.0991  0.2203
  752MOL0     C 3656   3.241  11.058   6.711  0.4302 -0.0225 -0.6490
  752MOL0     C 3657   3.271  10.951   6.628 -0.4491 -0.6876 -0.0048
  752MOL0     C 3658   3.363  10.846   6.665 -0.4049  1.2120  0.1558
  752MOL0     C 3659   3.507  10.888   6.663  0.3288  0.8328 -0.2442
  752MOL0     C 3660   3.589  10.772   6.731 -0.8817  0.9446 -0.9014
  752MOL0     C 3661   3.735  10.808   6.709 -0.6325 -0.1967  0.1474
  752MOL0     O 3662   3.771  10.917   6.794 -0.6923 -0.5379  0.2352
  752MOL0     C 3663   3.914  10.928   6.807  0.8455 -0.4309  0.7894
  752MOL0     C 3664   3.970  10.912   6.936 -0.0097  0.1964 -0.9122
  752MOL0     C 3665   4.102  10.923   6.954 -0.3257 -0.1137 -0.6451
  752MOL0     C 3666   4.146  10.937   7.097  1.3659 -0.1752  0.5652
  752MOL0     C 3667   4.190  10.928   6.842 -0.5083 -0.3222  0.0187
  752MOL0     C 3668   4.333  10.915   6.858 -0.2940 -0.1312 -0.2539
  752MOL0     O 3669   4.387  10.864   6.749  0.4327 -0.2905 -0.4104
  752MOL0     C 3670   4.520  10.851   6.745 -0.2290 -0.4238  0.2658
  752MOL0     C 3671   4.592  10.743   6.811 -0.2319 -0.4088 -0.5866
  752MOL0     C 3672   4.725  10.718   6.804  0.0899  0.1162  0.6440
  752MOL0     C 3673   4.799  10.784   6.712 -1.2697 -0.6246 -0.3695
  752MOL0     O 3674   4.923  10.740   6.696  0.1720 -0.5109 -0.3853
  752MOL0     C 3675   5.003  10.784   6.584  0.1432 -0.2687  0.8335
  752MOL0     C 3676   5.145  10.713   6.612 -0.3769 -0.3881  0.9151
  752MOL0     C 3677   5.243  10.705   6.494  0.0426 -0.5833 -0.8184
  752MOL0     C 3678   5.363  10.639   6.547 -0.0458  0.6475 -0.4244
  752MOL0     C 3679   5.478  10.648   6.451 -0.6988 -0.7653 -0.0611
  752MOL0     C 3680   5.607  10.586   6.500 -0.1215  0.5029  0.3575
  752MOL0     C 3681   5.716  10.570   6.395 -0.8904  0.9408  0.1963
  752MOL0     C 3682   5.863  10.579   6.454  0.3713 -0.2583  0.0018
  752MOL0    Cl 3683   5.940  10.419   6.465  0.1221  0.8420 -0.2792
  752MOL0     C 3684   4.739  10.896   6.642 -0.5308  0.6841  0.6602
  752MOL0     C 3685   4.602  10.931   6.661  0.6168 -0.3507 -0.3929
  752MOL0     O 3686   4.402  10.951   6.960 -0.4563 -0.1212  1.0417
  752MOL0     C 3687   4.127  10.939   6.712 -0.1005  0.2445  0.6353
  752MOL0     C 3688   3.991  10.943   6.696 -0.4765  0.5030 -0.1512
  752MOL0     N 3689   3.179  10.957   6.521 -0.0528 -0.1468 -0.0423
  752MOL0     N 3690   3.104  11.061   6.531  0.6411  0.8871  1.1088
  752MOL0     C 3691   1.998  11.240   6.794  0.7591 -0.3069  0.0115
  752MOL0     C 3692   1.882  11.167   6.765 -0.3745 -0.3892  0.1505
  752MOL0     C 3693   1.543  10.876   6.815  1.1338  0.0807 -0.6601
  752MOL0     C 3694   1.429  10.940   6.763 -0.2210  0.6997  0.0511
  752MOL0     C 3695   1.310  10.873   6.763 -0.1712 -0.2873 -0.8346
  752MOL0     C 3696   1.296  10.747   6.815  0.2450  0.3861 -0.0382
  752MOL0     O 3697   1.178  10.675   6.808  0.0961 -0.0586  0.5045
  752MOL0     C 3698   1.176  10.542   6.761 -0.6571 -0.6333 -0.5302
  752MOL0     C 3699   1.154  10.447   6.877 -0.2560  0.3170 -0.2399
  752MOL0     C 3700   1.065  10.519   6.980  0.3723  0.3967 -0.6227
  752MOL0     C 3701   0.974  10.409   7.053  0.3331 -0.0848  0.1209
  752MOL0     C 3702   1.046  10.295   7.106  0.7300  0.2381 -0.2087
  752MOL0     C 3703   1.093  10.188   7.144  0.7964  0.1109 -0.2376
  752MOL0     C 3704   1.401  10.676   6.872 -0.5171  0.9257  0.1181
  752MOL0     C 3705   1.527  10.748   6.876 -0.3229  0.9677  0.3419
  752MOL0     C 3706   1.648  10.668   6.922  0.0870  0.5199 -0.1712
  752MOL0     H 3707   1.702  11.238   7.032  0.2525 -2.0973  0.4684
  752MOL0     H 3708   1.910  11.376   7.088  0.1831 -1.2721  0.8638
  752MOL0     H 3709   2.272  11.294   6.827 -1.5236  0.6510 -0.3819
  752MOL0     H 3710   2.246  11.197   6.972  0.1881 -0.2049 -0.3708
  752MOL0     H 3711   2.413  11.447   6.929 -0.8032  0.1235 -0.9762
  752MOL0     H 3712   2.365  11.390   7.094  0.6507  0.2349 -0.5729
  752MOL0     H 3713   2.525  11.221   7.082 -0.6742 -1.1173 -0.5504
  752MOL0     H 3714   2.480  11.174   6.923  3.3632 -2.4651  1.1145
  752MOL0     H 3715   2.616  11.382   6.831  2.6208  1.7482  0.2523
  752MOL0     H 3716   2.648  11.416   6.996 -0.6623  0.2792 -0.4823
  752MOL0     H 3717   2.723  11.137   6.926  0.7926  0.1428  0.4362
  752MOL0     H 3718   2.802  11.252   7.020 -1.2810  0.3423  1.3140
  752MOL0     H 3719   2.785  11.316   6.722  0.7811 -1.6767 -2.3837
  752MOL0     H 3720   2.902  11.368   6.845 -0.6948 -0.4770 -1.0011
  752MOL0     H 3721   2.892  11.096   6.725 -1.1148 -1.2108  1.1820
  752MOL0     H 3722   2.984  11.144   6.877  0.6928 -2.3137 -0.3212
  752MOL0     H 3723   3.008  11.289   6.612 -2.5100  0.1900  1.8212
  752MOL0     H 3724   3.130  11.291   6.744  2.1513 -0.9994 -2.6704
  752MOL0     H 3725   3.279  11.087   6.809  0.5733  0.2038 -0.7702
  752MOL0     H 3726   3.342  10.758   6.603 -1.1625  1.0262  0.6609
  752MOL0     H 3727   3.338  10.819   6.768  3.5549 -0.9035  0.7975
  752MOL0     H 3728   3.542  10.896   6.559  1.1551  3.8553  0.1963
  752MOL0     H 3729   3.532  10.983   6.709 -0.3844  1.3721 -0.9449
  752MOL0     H 3730   3.554  10.770   6.835 -1.9625  3.9840 -1.0945
  752MOL0     H 3731   3.573  10.679   6.676 -1.2570  1.7169 -2.1258
  752MOL0     H 3732   3.790  10.714   6.724 -2.3990 -1.1894  0.7844
  752MOL0     H 3733   3.754  10.849   6.609 -0.2659  2.0521  1.0837
  752MOL0     H 3734   3.907  10.892   7.022 -0.4314  0.3502 -1.1817
  752MOL0     H 3735   4.197  11.034   7.106 -0.0148  0.7623 -0.9537
  752MOL0     H 3736   4.210  10.852   7.122  1.0006 -0.9117 -0.8946
  752MOL0     H 3737   4.061  10.928   7.164  0.0181 -2.1379 -1.2664
  752MOL0     H 3738   4.527  10.684   6.874  0.1242 -1.8616 -1.5312
  752MOL0     H 3739   4.766  10.625   6.843  2.2336  1.1648  1.0232
  752MOL0     H 3740   4.959  10.751   6.489 -3.3219 -1.4766  2.6638
  752MOL0     H 3741   5.013  10.893   6.589 -1.5739  0.1462 -2.2011
  752MOL0     H 3742   5.190  10.765   6.698  1.5050 -0.8938  0.2850
  752MOL0     H 3743   5.139  10.610   6.647 -0.7366  0.9046  5.3725
  752MOL0     H 3744   5.265  10.805   6.457  0.4581 -0.2202  0.3806
  752MOL0     H 3745   5.191  10.652   6.413 -2.5886  1.3886 -0.5476
  752MOL0     H 3746   5.346  10.531   6.559  0.0058  0.4760 -1.7212
  752MOL0     H 3747   5.376  10.692   6.641 -0.8060  0.2320 -0.0824
  752MOL0     H 3748   5.449  10.585   6.367  1.5734  0.2717 -1.7420
  752MOL0     H 3749   5.497  10.749   6.413 -1.9247 -0.7490 -0.6989
  752MOL0     H 3750   5.584  10.486   6.539 -0.0743  0.8524  1.3267
  752MOL0     H 3751   5.648  10.645   6.583  0.7810 -1.1099  1.1026
  752MOL0     H 3752   5.692  10.648   6.322 -0.3993  0.3682 -0.5989
  752MOL0     H 3753   5.703  10.475   6.343 -0.2751  0.4334  0.9391
  752MOL0     H 3754   5.873  10.619   6.555  0.6791 -1.9990  0.6920
  752MOL0     H 3755   5.922  10.649   6.393  0.8330  1.5098  2.3249
  752MOL0     H 3756   4.799  10.947   6.568  1.9558 -0.5716  1.6978
  752MOL0     H 3757   4.561  11.011   6.599 -1.6935 -1.0374  0.1550
  752MOL0     H 3758   4.181  10.943   6.618 -0.4287  0.7525  0.4671
  752MOL0     H 3759   3.945  10.959   6.599  2.2561  0.2589 -1.5642
  752MOL0     H 3760   2.069  11.257   6.714 -0.6263  2.7188 -0.7172
  752MOL0     H 3761   1.878  11.107   6.675 -0.4061 -0.4422  0.1873
  752MOL0     H 3762   1.433  11.039   6.719  1.1999  0.5336 -0.2523
  752MOL0     H 3763   1.226  10.928   6.723  0.9433  0.5073 -2.1684
  752MOL0     H 3764   1.091  10.526   6.695 -1.6406 -2.4968  1.0926
  752MOL0     H 3765   1.269  10.513   6.711 -0.9826 -0.5067 -1.2195
  752MOL0     H 3766   1.253  10.428   6.919 -2.0560 -1.2796  3.7533
  752MOL0     H 3767   1.099  10.359   6.842  0.6532 -0.7609  0.9723
  752MOL0     H 3768   1.131  10.568   7.053  0.0414  0.7570 -0.5619
  752MOL0     H 3769   0.994  10.593   6.941  1.1243  1.1421 -0.5941
  752MOL0     H 3770   0.904  10.391   6.972  2.6274 -1.0957 -1.7738
  752MOL0     H 3771   0.905  10.470   7.112 -0.5437  2.3411 -3.1283
  752MOL0     H 3772   1.143  10.108   7.194  0.9480 -1.2779 -2.4818
  752MOL0     H 3773   1.404  10.572   6.904 -2.5563  1.1785  1.3183
  752MOL0     H 3774   1.714  10.719   6.993 -1.3781  0.5803  1.2189
  752MOL0     H 3775   1.619  10.574   6.971  1.7649 -0.9176 -1.7993
  752MOL0     H 3776   1.703  10.638   6.833 -1.1418 -1.5076 -0.3191
  753MOL0     O 3777   4.604   2.216   7.891  0.5691 -0.8882  0.2189
  753MOL0     C 3778   4.669   2.301   7.955 -0.2675  0.2006  0.1803
  753MOL0     O 3779   4.621   2.413   8.017  0.8575 -0.2374 -0.0435
  753MOL0     C 3780   4.504   2.464   7.967 -1.2020  0.3328  0.4628
  753MOL0     C 3781   4.381   2.404   7.991  0.4125  0.5236 -0.0118
  753MOL0     C 3782   4.257   2.450   7.946  0.3877  0.3119  0.2065
  753MOL0     C 3783   4.258   2.574   7.877 -1.3478 -0.1128 -0.0375
  753MOL0     O 3784   4.142   2.630   7.843 -0.3806  0.4444  0.0618
  753MOL0     C 3785   4.108   2.669   7.712 -0.2118  0.3045 -1.0326
  753MOL0     C 3786   3.958   2.682   7.699 -0.2682  0.1766 -0.3769
  753MOL0     C 3787   3.900   2.543   7.729  1.1557 -0.4203 -0.8198
  753MOL0     C 3788   3.748   2.539   7.735  0.5261 -0.4251  0.4485
  753MOL0     C 3789   3.685   2.396   7.713  0.1236 -0.1706 -0.3056
  753MOL0     C 3790   3.536   2.398   7.656 -0.2088 -0.7106  0.0352
  753MOL0     C 3791   3.419   2.450   7.750 -0.1250  0.3004 -1.0634
  753MOL0     C 3792   3.431   2.389   7.888 -1.0934 -0.3293 -0.1557
  753MOL0     N 3793   3.321   2.410   7.967  0.3214  0.2165 -0.2932
  753MOL0     C 3794   3.196   2.462   7.943  0.1558 -0.0773  0.5632
  753MOL0     C 3795   3.130   2.456   8.057  0.1040 -0.2152 -0.9202
  753MOL0     C 3796   2.989   2.513   8.073 -0.0522  0.8220  0.5125
  753MOL0     C 3797   2.981   2.663   8.021 -0.6600  0.0357 -0.0003
  753MOL0     C 3798   2.840   2.719   8.063 -0.3894 -0.9458  0.7698
  753MOL0     C 3799   2.815   2.863   8.009  0.5447  0.2228 -0.0793
  753MOL0     O 3800   2.695   2.915   8.063  0.2103 -0.1333  0.3078
  753MOL0     C 3801   2.572   2.904   8.009  0.2458  0.1246  0.0159
  753MOL0     C 3802   2.556   2.828   7.895 -0.1942  0.2657  0.1302
  753MOL0     C 3803   2.424   2.812   7.846  0.0873  0.9816  0.5568
  753MOL0     C 3804   2.400   2.720   7.732 -1.3505 -0.8731  0.0370
  753MOL0     C 3805   2.310   2.865   7.914 -0.4034  0.5417  0.0260
  753MOL0     C 3806   2.171   2.858   7.862 -0.0716  0.9449 -1.0301
  753MOL0     O 3807   2.154   2.850   7.733 -0.2083 -0.3160 -0.3859
  753MOL0     C 3808   2.026   2.864   7.679 -0.3395  0.1348  0.3318
  753MOL0     C 3809   1.946   2.746   7.685 -0.1596 -1.3231 -0.9947
  753MOL0     C 3810   1.819   2.767   7.631 -0.3090  0.8938 -0.1465
  753MOL0     C 3811   1.773   2.897   7.581  0.9099 -0.8006  0.2052
  753MOL0     O 3812   1.636   2.899   7.547 -0.8766 -1.2202 -0.2383
  753MOL0     C 3813   1.590   3.032   7.494 -0.6552  0.4384 -0.5902
  753MOL0     C 3814   1.435   3.030   7.500 -0.6725 -0.2730  0.6430
  753MOL0     C 3815   1.379   3.135   7.404  0.7490  0.2149 -0.4639
  753MOL0     C 3816   1.426   3.276   7.433  0.1884 -0.6047 -0.0717
  753MOL0     C 3817   1.482   3.344   7.310 -0.6782 -0.1044  0.3032
  753MOL0     C 3818   1.625   3.301   7.299 -0.1790  0.8148  0.6992
  753MOL0     C 3819   1.711   3.378   7.208 -0.1978 -0.2964 -0.3332
  753MOL0     C 3820   1.853   3.316   7.177  0.3163  0.0720  0.5377
  753MOL0    Cl 3821   1.930   3.405   7.053 -0.2589  0.1880 -0.0050
  753MOL0     C 3822   1.856   3.006   7.582 -0.3299  0.0197  0.6040
  753MOL0     C 3823   1.985   2.995   7.628  0.0680  0.3908  0.9663
  753MOL0     O 3824   2.077   2.847   7.946  0.0868  0.6329 -0.8441
  753MOL0     C 3825   2.341   2.934   8.039  0.4774  0.5888  0.0074
  753MOL0     C 3826   2.467   2.953   8.086 -0.6736  0.6932  0.0702
  753MOL0     N 3827   3.219   2.410   8.155 -0.5669  0.0728 -0.5439
  753MOL0     N 3828   3.328   2.376   8.101  0.6998 -0.5671  0.7162
  753MOL0     C 3829   4.388   2.628   7.829  0.2737  0.0910 -0.4582
  753MOL0     C 3830   4.506   2.575   7.886  0.3239  0.6449 -0.0504
  753MOL0     C 3831   4.811   2.272   7.959 -0.7897 -0.8582 -0.4316
  753MOL0     C 3832   4.887   2.387   7.952  0.0626  0.2538 -0.0292
  753MOL0     C 3833   5.027   2.379   7.966  0.1974  0.9274  0.8955
  753MOL0     C 3834   5.089   2.253   8.000  0.2604 -0.4822 -0.1165
  753MOL0     O 3835   5.227   2.259   8.025  0.0435 -0.2632  0.9415
  753MOL0     C 3836   5.296   2.136   8.034  0.2970  1.4028  0.7482
  753MOL0     C 3837   5.446   2.163   8.034  0.8996  0.2842  0.5575
  753MOL0     C 3838   5.503   2.217   7.900 -1.4518 -0.0894 -0.3573
  753MOL0     C 3839   5.518   2.108   7.795  0.2604 -0.5542  0.7146
  753MOL0     C 3840   5.611   2.157   7.684 -1.3193 -0.7127 -0.4116
  753MOL0     C 3841   5.660   2.219   7.594 -0.2555  0.1119 -0.5520
  753MOL0     C 3842   5.012   2.138   8.003  0.2855 -0.2103  0.0124
  753MOL0     C 3843   4.871   2.147   7.988  0.3771  0.1609 -0.0409
  753MOL0     C 3844   4.782   2.027   8.022  0.9068 -0.0920  0.8954
  753MOL0     H 3845   4.373   2.315   8.052  1.7866  0.4245  0.0526
  753MOL0     H 3846   4.159   2.421   7.981 -0.4097  0.8044 -1.5452
  753MOL0     H 3847   4.146   2.599   7.637 -0.6041 -0.2892 -0.6877
  753MOL0     H 3848   4.163   2.759   7.684  1.4989 -0.7605 -1.1892
  753MOL0     H 3849   3.928   2.756   7.773 -2.4334 -1.8752  0.9370
  753MOL0     H 3850   3.924   2.709   7.598  1.6933 -3.8009 -2.3563
  753MOL0     H 3851   3.930   2.462   7.662  0.8598 -2.8099  1.7553
  753MOL0     H 3852   3.925   2.513   7.831 -0.0318  2.1268  0.3001
  753MOL0     H 3853   3.692   2.580   7.819 -1.2840 -1.8838  0.0380
  753MOL0     H 3854   3.704   2.591   7.648 -1.8336 -1.2368  1.0866
  753MOL0     H 3855   3.690   2.323   7.795 -1.0848  2.7692  2.5830
  753MOL0     H 3856   3.740   2.345   7.633  0.1944 -2.9571  1.3859
  753MOL0     H 3857   3.524   2.452   7.561  0.4109 -3.6351 -1.8529
  753MOL0     H 3858   3.515   2.294   7.630 -0.7765 -0.8951  1.1932
  753MOL0     H 3859   3.330   2.417   7.695 -1.0309  2.2317 -0.8210
  753MOL0     H 3860   3.409   2.558   7.763 -2.8539  0.0496 -0.5951
  753MOL0     H 3861   3.456   2.283   7.872  1.1917  0.1798 -0.4016
  753MOL0     H 3862   3.521   2.431   7.933  1.2505 -0.9180 -3.8372
  753MOL0     H 3863   3.161   2.514   7.855  0.3981  0.0595  0.5484
  753MOL0     H 3864   2.956   2.505   8.177  0.9979  0.7405  0.8608
  753MOL0     H 3865   2.920   2.449   8.019  0.6211  1.1533 -0.7668
  753MOL0     H 3866   3.060   2.724   8.066  0.1284 -1.9160  1.4140
  753MOL0     H 3867   2.992   2.666   7.912 -0.8100 -1.7226 -0.0978
  753MOL0     H 3868   2.760   2.650   8.033 -4.0848  3.0927  0.2777
  753MOL0     H 3869   2.851   2.740   8.169  1.4340  0.2219  0.3937
  753MOL0     H 3870   2.896   2.936   8.021  0.3880 -0.0042  3.3766
  753MOL0     H 3871   2.818   2.856   7.900  0.8661 -1.0883 -0.0011
  753MOL0     H 3872   2.639   2.776   7.848 -1.8965 -2.8159  0.3235
  753MOL0     H 3873   2.321   2.649   7.759  0.3520 -2.9051 -0.1062
  753MOL0     H 3874   2.491   2.667   7.703  1.4731  3.8890 -0.9040
  753MOL0     H 3875   2.361   2.765   7.640 -1.4523 -1.9093 -0.4428
  753MOL0     H 3876   1.977   2.651   7.729 -0.0655 -3.1581 -4.6292
  753MOL0     H 3877   1.740   2.693   7.635  1.7733 -1.4796  0.1283
  753MOL0     H 3878   1.624   3.120   7.548  1.2345 -0.6409  0.0659
  753MOL0     H 3879   1.624   3.033   7.390  0.6643 -0.8268 -0.1972
  753MOL0     H 3880   1.399   2.930   7.474 -0.4112 -0.8214  2.2732
  753MOL0     H 3881   1.419   3.051   7.607 -1.2807 -1.6387  0.8449
  753MOL0     H 3882   1.269   3.131   7.403  0.5488  3.2762 -1.9830
  753MOL0     H 3883   1.408   3.110   7.302 -0.4416  0.1418 -0.8011
  753MOL0     H 3884   1.491   3.285   7.520 -1.5765  0.8556  1.1832
  753MOL0     H 3885   1.336   3.329   7.466 -0.9044 -1.9461 -0.8086
  753MOL0     H 3886   1.418   3.322   7.224 -1.5455 -1.5756  1.2917
  753MOL0     H 3887   1.490   3.451   7.335  1.0858 -0.0513 -0.3566
  753MOL0     H 3888   1.623   3.210   7.238  2.1874  2.9205 -2.9138
  753MOL0     H 3889   1.670   3.292   7.398 -3.1871 -0.7356  2.0420
  753MOL0     H 3890   1.732   3.479   7.245 -1.2373 -0.6307  1.2734
  753MOL0     H 3891   1.646   3.386   7.121 -3.1682  0.2708  1.8083
  753MOL0     H 3892   1.842   3.210   7.151 -1.4204 -0.3613  2.7489
  753MOL0     H 3893   1.915   3.314   7.267  1.4375 -1.3201 -0.2176
  753MOL0     H 3894   1.817   3.100   7.543 -2.9035 -2.2134 -2.8566
  753MOL0     H 3895   2.053   3.079   7.628 -0.0344  0.4953  2.3467
  753MOL0     H 3896   2.257   2.971   8.097 -0.3380 -1.1296 -0.0128
  753MOL0     H 3897   2.492   2.981   8.187 -2.3291 -1.7896  1.2772
  753MOL0     H 3898   4.386   2.710   7.759  0.6329 -0.8582 -1.6130
  753MOL0     H 3899   4.597   2.632   7.867  0.1607  1.2397  0.8794
  753MOL0     H 3900   4.852   2.489   7.940  0.3167  0.3241 -0.1678
  753MOL0     H 3901   5.078   2.475   7.970  1.1369  0.5421 -1.0275
  753MOL0     H 3902   5.275   2.082   8.128 -1.1566  3.0556  1.4232
  753MOL0     H 3903   5.286   2.069   7.948  1.3210 -3.4604  3.9510
  753MOL0     H 3904   5.484   2.064   8.061  2.1278  0.5065 -0.2705
  753MOL0     H 3905   5.460   2.234   8.117 -1.7843  0.0946  1.2455
  753MOL0     H 3906   5.453   2.308   7.866  1.5906  1.4079 -1.1980
  753MOL0     H 3907   5.599   2.262   7.928 -2.0679  0.1021  1.5905
  753MOL0     H 3908   5.433   2.087   7.729 -1.2095  3.0571  1.2388
  753MOL0     H 3909   5.558   2.013   7.832 -0.5425 -0.2541  2.4715
  753MOL0     H 3910   5.698   2.269   7.507  1.7895  0.1903  0.3501
  753MOL0     H 3911   5.056   2.039   8.006  1.9974  0.1019 -5.0349
  753MOL0     H 3912   4.836   1.972   8.099 -1.3891 -0.0386  2.6494
  753MOL0     H 3913   4.690   2.052   8.075  1.3320  0.2556  1.4781
  753MOL0     H 3914   4.765   1.975   7.927  0.0136  2.7923 -0.6423
  754MOL0     O 3915   7.551   8.528   7.726  0.2687 -0.0870  0.9173
  754MOL0     C 3916   7.452   8.509   7.798 -0.2010 -0.9148  0.5215
  754MOL0     O 3917   7.452   8.449   7.919 -0.7906 -0.0918  0.4099
  754MOL0     C 3918   7.574   8.450   7.981  0.6223  0.5437 -0.4439
  754MOL0     C 3919   7.654   8.330   7.980 -0.2366  1.0791  0.2228
  754MOL0     C 3920   7.780   8.319   8.035  0.2603  0.5670  0.2942
  754MOL0     C 3921   7.835   8.437   8.093 -0.2939  0.5725 -0.7181
  754MOL0     O 3922   7.965   8.427   8.148  0.1434 -0.5652 -0.3372
  754MOL0     C 3923   8.032   8.545   8.202  0.9199 -0.6909 -0.0916
  754MOL0     C 3924   8.181   8.502   8.217  0.3226 -0.6587  0.1234
  754MOL0     C 3925   8.278   8.619   8.230 -0.0261 -0.0167  0.9988
  754MOL0     C 3926   8.272   8.675   8.369  0.0609  0.1113  0.3753
  754MOL0     C 3927   8.340   8.802   8.371 -0.1520 -0.3580  0.5487
  754MOL0     C 3928   8.490   8.782   8.383 -0.5799  1.2201 -0.3088
  754MOL0     C 3929   8.558   8.908   8.338  0.6299  0.1012 -0.0927
  754MOL0     C 3930   8.707   8.905   8.383 -0.0821  1.4708  0.0567
  754MOL0     N 3931   8.753   9.041   8.400  0.0074  0.4911 -0.5843
  754MOL0     C 3932   8.785   9.099   8.519 -0.6649  0.5334 -0.5633
  754MOL0     C 3933   8.828   9.224   8.495  0.4826 -0.3179  0.1588
  754MOL0     C 3934   8.857   9.324   8.600  0.4422  0.2058 -1.2847
  754MOL0     C 3935   9.006   9.337   8.634 -0.0128  0.4401  0.5087
  754MOL0     C 3936   9.014   9.425   8.757  0.1267 -0.4707  0.1539
  754MOL0     C 3937   8.948   9.567   8.746 -0.5545  0.7811 -0.4849
  754MOL0     O 3938   8.997   9.647   8.637 -0.5376 -0.1643 -0.3147
  754MOL0     C 3939   8.974   9.782   8.624 -0.2313 -0.9409  0.5134
  754MOL0     C 3940   9.029   9.836   8.508  0.3094 -0.3026  0.7348
  754MOL0     C 3941   9.009   9.972   8.470 -0.0232 -0.3084 -0.4263
  754MOL0     C 3942   9.083  10.028   8.347  0.5113  0.4271 -0.3160
  754MOL0     C 3943   8.925  10.058   8.553 -1.0950 -0.7148 -0.2420
  754MOL0     C 3944   8.886  10.201   8.526  0.1046 -0.4173 -0.0483
  754MOL0     O 3945   8.915  10.266   8.406 -0.5195 -0.0222 -0.0842
  754MOL0     C 3946   8.856  10.387   8.374 -0.4014 -0.4244 -0.2108
  754MOL0     C 3947   8.782  10.396   8.257  0.5231  1.2979  0.3454
  754MOL0     C 3948   8.731  10.525   8.221  0.3539  1.0257 -0.5207
  754MOL0     C 3949   8.737  10.636   8.305 -0.0129  0.1373 -0.0633
  754MOL0     O 3950   8.692  10.758   8.261 -0.1094  0.0577  0.0897
  754MOL0     C 3951   8.804  10.854   8.220  0.4907 -0.1684  0.1945
  754MOL0     C 3952   8.761  10.943   8.111  0.1319  0.2534  0.0286
  754MOL0     C 3953   8.661  11.064   8.158 -0.6009  0.4851  0.6499
  754MOL0     C 3954   8.722  11.183   8.236 -0.9027 -0.0234 -0.7813
  754MOL0     C 3955   8.813  11.268   8.153  0.0731 -0.0932  0.6782
  754MOL0     C 3956   8.917  11.364   8.227 -0.1070  0.7199 -0.0100
  754MOL0     C 3957   8.997  11.441   8.126 -0.6939 -0.5738  0.2203
  754MOL0     C 3958   9.109  11.522   8.186  0.5922 -0.0925 -1.2955
  754MOL0    Cl 3959   9.218  11.413   8.260  0.1272 -0.1384 -0.6148
  754MOL0     C 3960   8.819  10.632   8.419  0.7038 -0.2095 -0.1046
  754MOL0     C 3961   8.868  10.507   8.457  0.0962  0.0015 -0.0489
  754MOL0     O 3962   8.810  10.256   8.607 -0.6825 -0.2319 -0.5231
  754MOL0     C 3963   8.889  10.010   8.678  0.4319 -0.0400 -0.1386
  754MOL0     C 3964   8.898   9.876   8.706 -0.3255  0.2838  0.2065
  754MOL0     N 3965   8.826   9.236   8.359 -0.1656  0.1157 -0.0131
  754MOL0     N 3966   8.781   9.126   8.298 -0.5096 -0.4341 -0.3009
  754MOL0     C 3967   7.753   8.545   8.104 -0.2760  0.2190  0.6632
  754MOL0     C 3968   7.626   8.556   8.043 -0.0342 -0.3641 -0.5856
  754MOL0     C 3969   7.316   8.535   7.746 -0.3096 -0.3980  0.5527
  754MOL0     C 3970   7.204   8.476   7.802 -0.4195 -0.2387 -0.5098
  754MOL0     C 3971   7.074   8.491   7.747 -0.3425  0.4373  0.4567
  754MOL0     C 3972   7.053   8.578   7.638  1.0202  0.4452  0.1975
  754MOL0     O 3973   6.925   8.611   7.591 -0.4273 -0.1737  0.0337
  754MOL0     C 3974   6.810   8.590   7.679  0.8761 -0.8657 -0.2761
  754MOL0     C 3975   6.696   8.678   7.630 -0.4089 -0.0413 -0.0289
  754MOL0     C 3976   6.583   8.684   7.732 -0.1747 -0.2476  0.4501
  754MOL0     C 3977   6.465   8.770   7.682  0.0876  0.0515 -0.2988
  754MOL0     C 3978   6.341   8.740   7.764  0.1796 -0.0354 -0.2181
  754MOL0     C 3979   6.246   8.727   7.838  0.5555  0.4207  0.5748
  754MOL0     C 3980   7.164   8.635   7.577 -0.7679 -0.3949  0.0382
  754MOL0     C 3981   7.294   8.621   7.626 -0.7593  0.2538 -1.4652
  754MOL0     C 3982   7.404   8.696   7.555 -0.4373 -0.3614  0.1343
  754MOL0     H 3983   7.602   8.251   7.926  1.0000 -0.6923  1.5273
  754MOL0     H 3984   7.833   8.225   8.027 -0.2769  0.4380 -4.2122
  754MOL0     H 3985   7.984   8.586   8.292 -2.6870  0.7146 -2.4238
  754MOL0     H 3986   8.023   8.627   8.130 -0.7918  0.8550  1.7460
  754MOL0     H 3987   8.183   8.432   8.301 -1.7065  0.9014  1.5696
  754MOL0     H 3988   8.198   8.461   8.117 -2.0588 -0.9550 -0.2191
  754MOL0     H 3989   8.386   8.605   8.219  0.2398  0.5759  2.5262
  754MOL0     H 3990   8.258   8.698   8.158  4.3483  0.9116  0.4985
  754MOL0     H 3991   8.168   8.691   8.399  0.3519 -2.7615  3.5622
  754MOL0     H 3992   8.306   8.591   8.430  0.4262  0.9845  1.4046
  754MOL0     H 3993   8.317   8.845   8.469 -0.7782 -1.4554  0.8915
  754MOL0     H 3994   8.306   8.865   8.288  3.8223  1.4224  0.0684
  754MOL0     H 3995   8.521   8.770   8.487  2.4246 -0.9091 -1.3202
  754MOL0     H 3996   8.523   8.697   8.323 -0.8170  1.2204 -0.4403
  754MOL0     H 3997   8.505   8.986   8.392  0.1885 -0.2538 -0.0055
  754MOL0     H 3998   8.550   8.925   8.230 -1.2506  1.1908  0.1789
  754MOL0     H 3999   8.713   8.856   8.481 -3.2657  2.2774  0.7976
  754MOL0     H 4000   8.762   8.854   8.304  0.1989  1.5075  0.2274
  754MOL0     H 4001   8.759   9.073   8.622  2.7741  2.9375  1.1258
  754MOL0     H 4002   8.815   9.285   8.694 -1.3306  2.6058 -0.9865
  754MOL0     H 4003   8.811   9.421   8.583 -0.6530 -0.3418 -1.5232
  754MOL0     H 4004   9.055   9.245   8.666 -1.1067  0.3599  2.0417
  754MOL0     H 4005   9.058   9.370   8.543  2.4400 -2.0414  0.8567
  754MOL0     H 4006   8.974   9.383   8.849  0.2710  3.4729  2.2113
  754MOL0     H 4007   9.120   9.444   8.777  0.4285 -1.0370 -0.8123
  754MOL0     H 4008   8.840   9.555   8.754 -0.3851 -0.1798  0.6634
  754MOL0     H 4009   8.969   9.614   8.843 -0.5484 -2.1643  1.0733
  754MOL0     H 4010   9.093   9.777   8.443  0.4961 -0.5432  1.1301
  754MOL0     H 4011   9.171   9.967   8.323  1.1567  1.3018 -0.2574
  754MOL0     H 4012   9.129  10.127   8.359  1.8968 -0.0821 -1.1011
  754MOL0     H 4013   9.015  10.051   8.265  1.0928  2.1569 -0.3664
  754MOL0     H 4014   8.757  10.314   8.192 -0.8447  2.8966 -1.2547
  754MOL0     H 4015   8.655  10.535   8.144  0.0676  0.6053 -0.2987
  754MOL0     H 4016   8.826  10.928   8.297 -2.3336  1.7250 -0.6841
  754MOL0     H 4017   8.892  10.795   8.192 -1.6709 -2.8428 -1.5497
  754MOL0     H 4018   8.847  10.981   8.056  1.5550  0.7323  2.4371
  754MOL0     H 4019   8.709  10.873   8.045  0.7689 -0.5877  0.4006
  754MOL0     H 4020   8.582  11.027   8.224 -0.3865 -0.8915  0.1788
  754MOL0     H 4021   8.621  11.108   8.066 -2.7403 -1.2853  0.6626
  754MOL0     H 4022   8.767  11.127   8.319 -1.4333  0.8833  0.1365
  754MOL0     H 4023   8.645  11.247   8.279 -0.9525  0.7282 -1.9510
  754MOL0     H 4024   8.876  11.198   8.098  0.1772 -0.2448  0.9917
  754MOL0     H 4025   8.765  11.319   8.069  1.3189 -1.7928 -1.1779
  754MOL0     H 4026   8.986  11.297   8.280  1.1254  2.6955  0.9941
  754MOL0     H 4027   8.857  11.420   8.299 -0.2543 -0.1356  0.5395
  754MOL0     H 4028   8.935  11.514   8.074 -0.5789 -0.7124 -0.1103
  754MOL0     H 4029   9.033  11.378   8.044  0.6147 -4.2622  3.2974
  754MOL0     H 4030   9.069  11.582   8.269  4.0028 -1.1881  1.3895
  754MOL0     H 4031   9.169  11.578   8.113  0.6139 -2.3653 -3.1199
  754MOL0     H 4032   8.830  10.717   8.485  0.5821 -1.7250  1.9928
  754MOL0     H 4033   8.915  10.498   8.554 -2.6644 -0.0040  1.3940
  754MOL0     H 4034   8.837  10.076   8.747 -1.8588 -0.3161 -1.4786
  754MOL0     H 4035   8.861   9.839   8.801 -3.2418  0.3546 -0.8109
  754MOL0     H 4036   7.781   8.627   8.169 -0.3017  1.1277 -0.4506
  754MOL0     H 4037   7.576   8.652   8.044  2.8850  1.3276  2.2448
  754MOL0     H 4038   7.220   8.410   7.886 -0.3969 -2.2407 -2.0163
  754MOL0     H 4039   6.989   8.441   7.792 -0.6181  0.8323  0.3816
  754MOL0     H 4040   6.775   8.487   7.675 -0.3272 -0.4437 -0.8671
  754MOL0     H 4041   6.834   8.615   7.783  3.2312  0.6249 -1.0848
  754MOL0     H 4042   6.678   8.628   7.535 -0.2886 -1.2395  0.5542
  754MOL0     H 4043   6.741   8.773   7.602  1.2830 -0.9811 -0.6600
  754MOL0     H 4044   6.539   8.586   7.753 -0.6353  0.0070  0.7033
  754MOL0     H 4045   6.630   8.731   7.818  0.8364 -4.0810  2.2019
  754MOL0     H 4046   6.451   8.756   7.575  4.2802 -0.1031 -0.9783
  754MOL0     H 4047   6.491   8.874   7.701  2.6287 -0.8477  1.7241
  754MOL0     H 4048   6.158   8.724   7.899 -0.5487 -3.3984 -0.9003
  754MOL0     H 4049   7.157   8.701   7.491 -0.6026 -0.7399 -0.2407
  754MOL0     H 4050   7.473   8.620   7.515 -0.2517 -0.4326  0.5806
  754MOL0     H 4051   7.379   8.756   7.468 -2.9672  1.3817  1.9445
  754MOL0     H 4052   7.453   8.759   7.630 -0.6724 -0.6487  0.5301
  755MOL0     O 4053  10.722  10.724   9.475 -0.1915  0.8853 -0.3602
  755MOL0     C 4054  10.663  10.706   9.372 -0.3662  0.5539  0.2685
  755MOL0     O 4055  10.696  10.612   9.269 -0.0216  0.0360 -0.1730
  755MOL0     C 4056  10.747  10.486   9.297 -0.3216 -0.5053  0.1968
  755MOL0     C 4057  10.702  10.408   9.404 -0.1675  0.6797  0.0952
  755MOL0     C 4058  10.747  10.281   9.417  1.3766 -0.0562  0.0485
  755MOL0     C 4059  10.839  10.227   9.321  0.6428  0.7256 -0.0431
  755MOL0     O 4060  10.903  10.112   9.333  0.0218  0.0173  0.2173
  755MOL0     C 4061  10.840  10.000   9.397 -1.1202 -0.3380  0.6414
  755MOL0     C 4062  10.895   9.958   9.541 -0.7720  0.8153  0.7776
  755MOL0     C 4063  11.050   9.942   9.565 -0.2008  0.7400  1.7128
  755MOL0     C 4064  11.116   9.829   9.482 -0.5630 -0.0093 -0.0196
  755MOL0     C 4065  11.267   9.841   9.469 -0.2635 -0.2566  0.3053
  755MOL0     C 4066  11.309   9.940   9.367  0.2854 -0.0829  0.5565
  755MOL0     C 4067  11.445   9.925   9.305 -0.8382 -0.1281  0.0527
  755MOL0     C 4068  11.505  10.057   9.250  0.2572  0.3624  0.0315
  755MOL0     N 4069  11.420  10.124   9.156 -0.0224  0.3378  0.1591
  755MOL0     C 4070  11.376  10.052   9.043 -0.0110 -0.3498 -0.2689
  755MOL0     C 4071  11.292  10.142   8.983 -0.4578  1.0586  0.1179
  755MOL0     C 4072  11.222  10.134   8.847  0.2523 -0.6680  0.4356
  755MOL0     C 4073  11.092  10.221   8.858 -0.6203 -0.1759 -0.2795
  755MOL0     C 4074  11.002  10.211   8.736  0.8944  0.6684 -1.1622
  755MOL0     C 4075  10.865  10.269   8.769  0.1416 -0.0746 -0.1825
  755MOL0     O 4076  10.899  10.410   8.806 -0.0361 -0.0227 -0.8130
  755MOL0     C 4077  10.799  10.502   8.809  0.4977  0.3410 -0.3967
  755MOL0     C 4078  10.851  10.633   8.803 -0.4230  0.6186 -0.2768
  755MOL0     C 4079  10.768  10.741   8.803 -0.4027 -0.2788 -0.5224
  755MOL0     C 4080  10.829  10.881   8.807  0.4301  0.4690 -1.0019
  755MOL0     C 4081  10.630  10.718   8.787 -0.5074 -1.2537 -0.1447
  755MOL0     C 4082  10.525  10.822   8.792  1.0279  0.5586 -0.6449
  755MOL0     O 4083  10.419  10.797   8.714  0.3179  0.2554 -0.2062
  755MOL0     C 4084  10.304  10.877   8.725 -0.6075 -0.1927 -0.0076
  755MOL0     C 4085  10.197  10.816   8.786 -0.4295  0.4601 -0.1361
  755MOL0     C 4086  10.078  10.879   8.789  0.0557 -0.7111  0.2210
  755MOL0     C 4087  10.055  11.003   8.732 -0.4289  0.0288  0.6773
  755MOL0     O 4088   9.931  11.061   8.758 -0.2883  0.8952  0.4772
  755MOL0     C 4089   9.903  11.197   8.737  0.3124 -0.6322  1.2571
  755MOL0     C 4090   9.758  11.242   8.779  0.1246  0.6238  0.1260
  755MOL0     C 4091   9.754  11.400   8.783  0.7538 -0.7716  0.2903
  755MOL0     C 4092   9.630  11.468   8.826  0.0479 -0.4884  0.1290
  755MOL0     C 4093   9.582  11.439   8.963  0.0271  0.4760 -0.5752
  755MOL0     C 4094   9.692  11.460   9.070  0.5468 -0.0133 -0.3393
  755MOL0     C 4095   9.632  11.443   9.207  0.4776  0.2890 -0.5959
  755MOL0     C 4096   9.616  11.298   9.241 -0.2593  0.5520  0.2289
  755MOL0    Cl 4097   9.553  11.255   9.406  0.3886 -0.0176  0.0326
  755MOL0     C 4098  10.166  11.069   8.676 -0.1170 -0.1185 -0.7839
  755MOL0     C 4099  10.292  11.004   8.677 -0.0594  0.1972 -0.2422
  755MOL0     O 4100  10.535  10.920   8.870 -0.0863 -0.3916  0.9537
  755MOL0     C 4101  10.576  10.595   8.785 -0.3388 -1.2275 -0.0584
  755MOL0     C 4102  10.656  10.485   8.798  0.0661  0.3247 -0.2786
  755MOL0     N 4103  11.287  10.254   9.068  0.4237  0.0066  0.3598
  755MOL0     N 4104  11.351  10.238   9.172 -0.5461  0.3670  0.5143
  755MOL0     C 4105  10.867  10.292   9.201  0.3106  0.1333  0.0959
  755MOL0     C 4106  10.818  10.423   9.189  0.7478 -0.6170 -0.1062
  755MOL0     C 4107  10.553  10.797   9.341  0.1320 -0.3082  0.0831
  755MOL0     C 4108  10.542  10.857   9.213 -0.0558  0.4510 -0.0057
  755MOL0     C 4109  10.439  10.948   9.177 -0.5382  0.9163  0.4223
  755MOL0     C 4110  10.337  10.973   9.262  0.4219  0.2681 -0.2930
  755MOL0     O 4111  10.229  11.063   9.240 -0.4125 -0.9886  0.0281
  755MOL0     C 4112  10.221  11.111   9.102 -0.0840  0.4187  0.2403
  755MOL0     C 4113  10.083  11.180   9.087  0.6974  0.5611 -0.2510
  755MOL0     C 4114   9.967  11.068   9.094 -0.9171  1.0526 -0.2237
  755MOL0     C 4115   9.927  11.021   9.237 -0.2153 -0.0670  0.2550
  755MOL0     C 4116   9.791  10.983   9.230 -0.2173 -0.0164 -0.3437
  755MOL0     C 4117   9.670  10.964   9.216 -0.0081  0.5593  0.1275
  755MOL0     C 4118  10.339  10.905   9.387  0.3206  0.1955 -1.0514
  755MOL0     C 4119  10.442  10.824   9.429  0.2118  0.1934  0.3993
  755MOL0     C 4120  10.448  10.755   9.565 -0.5017 -0.3097 -0.4565
  755MOL0     H 4121  10.637  10.444   9.483  0.3067 -2.1843  1.9261
  755MOL0     H 4122  10.712  10.226   9.503  2.2999 -2.5141 -1.0725
  755MOL0     H 4123  10.869   9.928   9.321 -0.1368  1.6712 -0.9997
  755MOL0     H 4124  10.732  10.015   9.412 -1.2305 -0.8880  0.3937
  755MOL0     H 4125  10.847  10.033   9.606  1.2704  2.8595  0.0873
  755MOL0     H 4126  10.848   9.862   9.561 -1.8129  0.1536 -3.8838
  755MOL0     H 4127  11.100  10.038   9.549  0.1935  0.0925 -1.7253
  755MOL0     H 4128  11.063   9.915   9.670  0.8465 -0.4183  1.3040
  755MOL0     H 4129  11.100   9.724   9.508 -0.9070 -0.8095 -3.1262
  755MOL0     H 4130  11.087   9.834   9.377 -0.5429 -0.7764 -0.0643
  755MOL0     H 4131  11.304   9.744   9.435 -0.7812  0.4658 -2.5651
  755MOL0     H 4132  11.306   9.858   9.570 -3.3825  0.1118  1.5907
  755MOL0     H 4133  11.231   9.960   9.292  1.3353  0.7044 -0.3546
  755MOL0     H 4134  11.314  10.028   9.432  0.4090  1.5454 -1.5233
  755MOL0     H 4135  11.426   9.855   9.223 -0.0657 -0.3665  0.0663
  755MOL0     H 4136  11.512   9.874   9.376  0.2912  2.1671  0.7417
  755MOL0     H 4137  11.528  10.128   9.331 -1.0091 -1.4609  2.1322
  755MOL0     H 4138  11.600  10.030   9.204 -0.2983 -2.0819  0.1871
  755MOL0     H 4139  11.402   9.952   9.012  1.2805 -0.3137  0.6076
  755MOL0     H 4140  11.202  10.033   8.809 -1.9462 -0.1878  0.1847
  755MOL0     H 4141  11.288  10.183   8.775 -1.8203  2.7835  0.6605
  755MOL0     H 4142  11.044  10.174   8.944 -2.1706  0.1736 -0.9284
  755MOL0     H 4143  11.125  10.324   8.879  2.3414 -0.8972 -0.8614
  755MOL0     H 4144  11.042  10.254   8.643  3.4432  0.2699 -0.3225
  755MOL0     H 4145  10.978  10.111   8.701  1.8245  0.9416 -2.7081
  755MOL0     H 4146  10.804  10.273   8.678 -0.9005  0.6082  0.5234
  755MOL0     H 4147  10.811  10.215   8.847 -0.6048 -1.4193 -1.5754
  755MOL0     H 4148  10.958  10.649   8.805 -0.3282  0.2199 -1.3910
  755MOL0     H 4149  10.797  10.932   8.715  0.1407  1.3800 -0.4103
  755MOL0     H 4150  10.937  10.887   8.817  0.4987 -2.7224  1.8319
  755MOL0     H 4151  10.797  10.944   8.890 -2.4254 -1.4598 -0.4915
  755MOL0     H 4152  10.211  10.719   8.832 -2.0413 -0.1455 -0.8408
  755MOL0     H 4153   9.995  10.827   8.837 -0.2250 -1.1295 -0.7043
  755MOL0     H 4154   9.968  11.258   8.801  2.6803 -1.6790 -0.0283
  755MOL0     H 4155   9.908  11.224   8.631 -0.3441 -0.7622  1.1840
  755MOL0     H 4156   9.683  11.200   8.710  2.0333 -1.1660 -0.9920
  755MOL0     H 4157   9.734  11.206   8.879  2.2577 -2.8526 -0.4552
  755MOL0     H 4158   9.788  11.430   8.684  1.3572  0.3105  0.8098
  755MOL0     H 4159   9.833  11.427   8.854  1.9367  2.1396 -1.9842
  755MOL0     H 4160   9.562  11.445   8.744  1.2121  3.1167 -2.0871
  755MOL0     H 4161   9.645  11.577   8.821  0.6862 -0.4594  1.8230
  755MOL0     H 4162   9.498  11.508   8.973 -0.3509  0.1030 -1.0829
  755MOL0     H 4163   9.549  11.334   8.966  5.3610 -1.5513 -1.2282
  755MOL0     H 4164   9.739  11.557   9.053 -1.0533  0.2769 -3.7874
  755MOL0     H 4165   9.769  11.383   9.055  1.4861  1.0422 -1.0595
  755MOL0     H 4166   9.538  11.499   9.208  1.3105  1.8046 -2.0686
  755MOL0     H 4167   9.703  11.482   9.280 -0.7079  1.2567  0.0717
  755MOL0     H 4168   9.715  11.252   9.230 -1.3558 -2.2286  1.0488
  755MOL0     H 4169   9.548  11.258   9.165 -0.5898  2.2271 -0.3791
  755MOL0     H 4170  10.150  11.163   8.624 -1.9980 -0.7753 -1.4645
  755MOL0     H 4171  10.381  11.054   8.640  0.0833  0.5071  0.4993
  755MOL0     H 4172  10.470  10.575   8.771 -0.3610 -0.3573 -1.3565
  755MOL0     H 4173  10.627  10.380   8.792 -1.1467  0.5943  0.4032
  755MOL0     H 4174  10.931  10.255   9.122 -0.1048  2.0135 -1.1888
  755MOL0     H 4175  10.856  10.479   9.104  0.1966 -3.5451 -2.4238
  755MOL0     H 4176  10.628  10.852   9.146  1.4010  1.7206  1.6614
  755MOL0     H 4177  10.442  11.008   9.087 -0.7795 -0.5824 -0.6248
  755MOL0     H 4178  10.309  11.175   9.089 -0.4554  0.9769  0.4295
  755MOL0     H 4179  10.229  11.036   9.022  0.7310  2.2216 -1.4402
  755MOL0     H 4180  10.069  11.235   8.994 -3.2991  0.0858 -0.0877
  755MOL0     H 4181  10.069  11.253   9.167 -0.8517  3.7237 -3.1600
  755MOL0     H 4182   9.889  11.133   9.053  1.5178  4.5190  0.1059
  755MOL0     H 4183   9.995  10.976   9.043 -0.5496  1.7490 -1.3220
  755MOL0     H 4184   9.940  11.110   9.299 -2.4182  0.7534 -0.3657
  755MOL0     H 4185   9.987  10.936   9.271  3.0971  1.0948 -2.1552
  755MOL0     H 4186   9.566  10.939   9.204  0.5630 -1.0671 -2.0625
  755MOL0     H 4187  10.253  10.918   9.453  0.7447 -2.8724  0.2716
  755MOL0     H 4188  10.469  10.647   9.558  1.5814 -0.1332  1.6132
  755MOL0     H 4189  10.523  10.811   9.621  1.1839 -3.2474  0.4841
  755MOL0     H 4190  10.352  10.768   9.616 -1.3024 -1.5280 -1.6019
  756MOL0     O 4191   6.236   3.330   3.759  0.3271 -0.2152  0.9399
  756MOL0     C 4192   6.299   3.230   3.721  0.4959 -0.8589 -0.0509
  756MOL0     O 4193   6.409   3.238   3.645 -0.1329  0.4920  0.4270
  756MOL0     C 4194   6.466   3.360   3.627 -0.5606  1.2044 -0.0132
  756MOL0     C 4195   6.520   3.428   3.726  0.4237 -0.1071 -0.1488
  756MOL0     C 4196   6.557   3.565   3.718 -0.9193  1.2526  0.7283
  756MOL0     C 4197   6.556   3.630   3.594 -1.1565  0.7618 -0.4716
  756MOL0     O 4198   6.597   3.751   3.559  0.1394 -0.7400 -0.0357
  756MOL0     C 4199   6.673   3.840   3.644 -0.2978  0.3737  0.1380
  756MOL0     C 4200   6.815   3.789   3.671  0.7560  0.0864 -0.3667
  756MOL0     C 4201   6.896   3.760   3.540  0.9895  1.0463 -0.2313
  756MOL0     C 4202   6.961   3.877   3.471  0.2365  0.4870 -0.4774
  756MOL0     C 4203   7.032   3.838   3.339 -0.0259 -0.5068  0.1869
  756MOL0     C 4204   7.155   3.743   3.362  0.3037 -0.1600 -0.2484
  756MOL0     C 4205   7.253   3.752   3.248 -0.6314  0.1268  0.7431
  756MOL0     C 4206   7.359   3.866   3.270 -0.0802 -0.1163 -0.8646
  756MOL0     N 4207   7.468   3.859   3.170 -0.7110 -0.0575 -0.1882
  756MOL0     C 4208   7.568   3.768   3.191 -0.2029  0.3279 -0.2623
  756MOL0     C 4209   7.644   3.785   3.081  0.1961 -0.6042 -0.8437
  756MOL0     C 4210   7.762   3.704   3.053  0.4981  0.3475  0.3035
  756MOL0     C 4211   7.741   3.564   2.991  1.2024  0.2448  0.0983
  756MOL0     C 4212   7.839   3.539   2.878 -0.0884 -0.8099 -0.1068
  756MOL0     C 4213   7.987   3.555   2.909  0.1803 -0.1524  0.3857
  756MOL0     O 4214   8.055   3.497   2.795  1.0133 -0.0528 -0.3487
  756MOL0     C 4215   8.190   3.505   2.792  0.8264 -0.4977  0.8429
  756MOL0     C 4216   8.274   3.553   2.898  0.4395  0.4147 -0.2398
  756MOL0     C 4217   8.414   3.564   2.900 -0.8376  0.3058 -0.6918
  756MOL0     C 4218   8.487   3.602   3.032  0.4853  0.6206 -0.1054
  756MOL0     C 4219   8.484   3.526   2.778  0.6702  0.7853  0.7121
  756MOL0     C 4220   8.634   3.524   2.761 -0.2203 -0.0089 -0.6020
  756MOL0     O 4221   8.714   3.552   2.875  0.2217  0.4342 -0.4875
  756MOL0     C 4222   8.849   3.525   2.877  0.0505 -0.7876 -0.3389
  756MOL0     C 4223   8.900   3.391   2.866 -0.4720  1.4736  0.1917
  756MOL0     C 4224   9.035   3.363   2.882 -0.7382 -0.1489 -0.5235
  756MOL0     C 4225   9.135   3.460   2.887 -0.6465 -0.2176 -0.3334
  756MOL0     O 4226   9.271   3.435   2.897 -0.4407 -0.3991  0.1694
  756MOL0     C 4227   9.318   3.312   2.848  1.6193 -0.1351  0.6002
  756MOL0     C 4228   9.475   3.305   2.861  0.0461  0.3039  0.9476
  756MOL0     C 4229   9.549   3.195   2.779  0.6091  0.1550 -0.2508
  756MOL0     C 4230   9.701   3.183   2.811 -0.1943  0.2401 -0.6392
  756MOL0     C 4231   9.798   3.281   2.760 -0.5253  0.1219  0.0798
  756MOL0     C 4232   9.941   3.220   2.731  0.8625 -0.4014  0.8577
  756MOL0     C 4233  10.046   3.329   2.725 -0.2322  0.7465 -0.2044
  756MOL0     C 4234  10.180   3.263   2.738 -1.6790 -0.1860  0.2213
  756MOL0    Cl 4235  10.214   3.169   2.588  0.0031 -0.1531 -0.6236
  756MOL0     C 4236   9.084   3.588   2.886 -0.4471  0.1840 -0.7754
  756MOL0     C 4237   8.947   3.623   2.883 -0.6164 -0.5713  0.3237
  756MOL0     O 4238   8.678   3.487   2.652  0.8244 -0.2390 -0.4349
  756MOL0     C 4239   8.407   3.480   2.670 -0.0714  0.9741  0.7094
  756MOL0     C 4240   8.265   3.470   2.675  0.3832 -0.1852  0.6841
  756MOL0     N 4241   7.605   3.903   3.011 -0.8530 -0.1716 -0.8763
  756MOL0     N 4242   7.499   3.949   3.072  0.0480 -0.0006  0.6792
  756MOL0     C 4243   6.510   3.554   3.486 -0.3339  0.2612  0.4410
  756MOL0     C 4244   6.464   3.425   3.499  0.2942  0.4369 -0.0742
  756MOL0     C 4245   6.250   3.092   3.758 -0.3315  0.1465  0.6951
  756MOL0     C 4246   6.338   2.984   3.771  0.1313  0.1197 -0.1195
  756MOL0     C 4247   6.297   2.864   3.816  0.1218  0.9464  0.5596
  756MOL0     C 4248   6.167   2.834   3.854  0.7021 -0.5192  0.1751
  756MOL0     O 4249   6.110   2.714   3.889 -0.4340 -0.3550 -0.2179
  756MOL0     C 4250   6.191   2.603   3.879  0.0457 -0.0578  0.3652
  756MOL0     C 4251   6.109   2.483   3.920 -0.0396  0.2391 -0.9118
  756MOL0     C 4252   6.012   2.429   3.805 -0.6939  0.0844  0.4930
  756MOL0     C 4253   5.957   2.291   3.820  1.1854  0.5328  0.0307
  756MOL0     C 4254   5.885   2.246   3.688  0.1657 -0.2357 -0.8475
  756MOL0     C 4255   5.834   2.215   3.583  0.0862 -0.6513 -0.2940
  756MOL0     C 4256   6.077   2.941   3.846  0.2179 -0.5963 -2.0864
  756MOL0     C 4257   6.117   3.070   3.803 -0.3879  0.2909 -0.0527
  756MOL0     C 4258   6.010   3.173   3.777 -0.7005 -0.8900  0.3753
  756MOL0     H 4259   6.540   3.379   3.821 -0.3676 -2.0615 -0.9332
  756MOL0     H 4260   6.594   3.617   3.806  2.1276  0.6386 -0.0777
  756MOL0     H 4261   6.610   3.869   3.729 -1.4711 -1.5108 -0.0159
  756MOL0     H 4262   6.697   3.930   3.586 -1.0323  1.8373  1.9888
  756MOL0     H 4263   6.867   3.859   3.737 -0.6581 -0.4676  1.4314
  756MOL0     H 4264   6.798   3.696   3.726 -2.3270 -0.1239 -1.4654
  756MOL0     H 4265   6.972   3.687   3.568 -2.2822 -1.9349  1.6846
  756MOL0     H 4266   6.822   3.717   3.472 -0.3914 -1.8679  2.8638
  756MOL0     H 4267   6.892   3.955   3.440 -1.3641 -1.0844 -1.0592
  756MOL0     H 4268   7.039   3.910   3.540  1.0380 -3.0703  0.5667
  756MOL0     H 4269   7.064   3.935   3.299 -3.9220  1.6660  1.8349
  756MOL0     H 4270   6.945   3.795   3.289 -1.6343  1.0455  1.5058
  756MOL0     H 4271   7.205   3.767   3.456 -0.8521 -1.4344  0.7349
  756MOL0     H 4272   7.106   3.646   3.376 -3.4021  1.6497  0.4369
  756MOL0     H 4273   7.215   3.756   3.146 -1.3034 -2.0047  0.8706
  756MOL0     H 4274   7.314   3.662   3.257  1.3059  1.4586  1.5794
  756MOL0     H 4275   7.315   3.966   3.270 -0.0815 -0.1168 -1.1216
  756MOL0     H 4276   7.399   3.862   3.372 -1.8163  2.1691  0.0028
  756MOL0     H 4277   7.579   3.700   3.275 -0.2377  0.7930  0.1275
  756MOL0     H 4278   7.812   3.702   3.150  0.8891  1.9164  0.1581
  756MOL0     H 4279   7.821   3.767   2.987  0.7643  1.0284  1.1726
  756MOL0     H 4280   7.748   3.480   3.061  3.3082 -1.4308 -1.9739
  756MOL0     H 4281   7.635   3.554   2.964  0.9623  1.6303  0.4309
  756MOL0     H 4282   7.812   3.441   2.839 -1.7177 -0.8546  1.0232
  756MOL0     H 4283   7.818   3.606   2.795 -2.6778 -1.1124  0.2200
  756MOL0     H 4284   8.018   3.659   2.919  1.2151 -0.4406  0.3374
  756MOL0     H 4285   8.009   3.503   3.003 -0.7138  0.9792  1.2467
  756MOL0     H 4286   8.223   3.572   2.992 -0.7736 -0.3824 -0.7086
  756MOL0     H 4287   8.537   3.515   3.076 -0.7003  1.0809  2.2866
  756MOL0     H 4288   8.408   3.640   3.097 -1.3148  2.8165 -3.2836
  756MOL0     H 4289   8.571   3.669   3.010  1.7657 -0.2295  1.8945
  756MOL0     H 4290   8.821   3.317   2.859  0.2382  0.1867  3.6892
  756MOL0     H 4291   9.061   3.258   2.885 -1.6123 -0.5419 -3.7853
  756MOL0     H 4292   9.273   3.232   2.908  2.8244 -0.9208  0.4987
  756MOL0     H 4293   9.288   3.298   2.744 -1.8143  0.3880  1.4152
  756MOL0     H 4294   9.522   3.395   2.819  1.9391 -0.2827  1.7103
  756MOL0     H 4295   9.499   3.306   2.968  2.4553 -1.7343  0.5199
  756MOL0     H 4296   9.524   3.215   2.674 -2.6447  2.3397  0.8018
  756MOL0     H 4297   9.499   3.101   2.807 -1.0077  1.5482  1.7907
  756MOL0     H 4298   9.734   3.083   2.782  0.4252 -0.3343  1.8545
  756MOL0     H 4299   9.713   3.167   2.919  0.9953 -1.1330 -0.9449
  756MOL0     H 4300   9.759   3.327   2.669  0.6067  4.3460  1.4752
  756MOL0     H 4301   9.813   3.352   2.843  0.7062  1.1598 -0.9814
  756MOL0     H 4302   9.932   3.165   2.637 -0.9146 -0.1966  0.8689
  756MOL0     H 4303   9.955   3.149   2.813 -1.6458 -2.3748 -0.2819
  756MOL0     H 4304  10.028   3.394   2.811  2.4331  0.8911  0.3098
  756MOL0     H 4305  10.046   3.387   2.632  3.1258 -2.3837 -2.4212
  756MOL0     H 4306  10.180   3.198   2.826  0.3441  0.9568  1.1149
  756MOL0     H 4307  10.250   3.346   2.750 -0.4399 -1.5319  3.2631
  756MOL0     H 4308   9.155   3.670   2.882  2.0315 -1.7824  0.3153
  756MOL0     H 4309   8.926   3.730   2.885  3.4144  0.3840  0.2274
  756MOL0     H 4310   8.457   3.439   2.583 -0.6921 -1.6137  1.4825
  756MOL0     H 4311   8.213   3.428   2.590  2.0655 -0.7112 -0.1319
  756MOL0     H 4312   6.505   3.602   3.388 -1.1720 -1.5423 -0.4625
  756MOL0     H 4313   6.418   3.368   3.419  1.5578 -3.2455  1.5727
  756MOL0     H 4314   6.438   3.006   3.735 -0.7456  2.3348 -1.4650
  756MOL0     H 4315   6.377   2.790   3.816 -0.7805 -0.1046 -1.6690
  756MOL0     H 4316   6.214   2.593   3.772  0.2734  0.9807  0.3114
  756MOL0     H 4317   6.278   2.600   3.944  1.1872  1.4244 -0.9962
  756MOL0     H 4318   6.056   2.525   4.006  0.3649 -0.5484 -0.2556
  756MOL0     H 4319   6.177   2.401   3.945 -2.1845 -1.2167  0.4496
  756MOL0     H 4320   5.940   2.509   3.786  1.5030  1.9087 -0.6934
  756MOL0     H 4321   6.079   2.420   3.719  0.4613 -2.6933  1.5709
  756MOL0     H 4322   5.897   2.275   3.910  1.3489 -1.3747 -0.1475
  756MOL0     H 4323   6.033   2.212   3.827 -0.3016 -0.9047  0.7464
  756MOL0     H 4324   5.794   2.192   3.486  1.7080 -1.3771 -0.8299
  756MOL0     H 4325   5.974   2.924   3.875  0.7200 -1.0033 -0.4200
  756MOL0     H 4326   5.914   3.136   3.813 -1.5712  0.2506 -0.7146
  756MOL0     H 4327   6.024   3.268   3.831 -1.0088 -0.3656 -0.4596
  756MOL0     H 4328   6.010   3.191   3.669  0.4058 -0.9986  0.3418
  757MOL0     O 4329   0.309   0.457   6.129  0.0012  0.1154  0.1297
  757MOL0     C 4330   0.382   0.557   6.135  0.5018  0.6694 -0.6888
  757MOL0     O 4331   0.338   0.682   6.157 -0.0283 -0.2115 -0.1626
  757MOL0     C 4332   0.203   0.703   6.126  0.0943  0.5379 -0.4693
  757MOL0     C 4333   0.127   0.770   6.211  1.5301 -0.7011  0.2087
  757MOL0     C 4334  -0.014   0.798   6.192 -0.4627  0.3369 -0.9916
  757MOL0     C 4335  -0.076   0.758   6.064 -0.7978  0.1450 -0.5215
  757MOL0     O 4336  -0.199   0.791   6.026  0.2047 -0.2652  0.9661
  757MOL0     C 4337  -0.297   0.735   6.115  0.7483  0.1280 -0.2222
  757MOL0     C 4338  -0.436   0.746   6.059 -0.5794  0.2013  0.1650
  757MOL0     C 4339  -0.544   0.681   6.148  0.0367  0.4696  0.5149
  757MOL0     C 4340  -0.685   0.704   6.087  0.6031  0.3380 -0.1466
  757MOL0     C 4341  -0.793   0.646   6.177 -0.5584 -0.2486  0.1799
  757MOL0     C 4342  -0.929   0.652   6.107 -0.1112 -0.1565  0.9821
  757MOL0     C 4343  -1.048   0.583   6.195 -0.6751  0.5695 -0.1960
  757MOL0     C 4344  -1.072   0.679   6.314  1.0442  0.7312 -0.2765
  757MOL0     N 4345  -1.028   0.615   6.442  0.6020  0.2344  0.8793
  757MOL0     C 4346  -1.098   0.515   6.502  0.1430  0.1013  0.2834
  757MOL0     C 4347  -1.033   0.502   6.618  0.5423  0.4614  1.1922
  757MOL0     C 4348  -1.051   0.395   6.721 -0.0236  0.5114  0.7789
  757MOL0     C 4349  -1.146   0.438   6.839 -0.4858 -0.0010 -0.0650
  757MOL0     C 4350  -1.173   0.328   6.933  1.3105 -0.2702 -0.4766
  757MOL0     C 4351  -1.276   0.226   6.896  0.6376  0.2472 -0.0899
  757MOL0     O 4352  -1.409   0.279   6.877  0.1851  0.1037 -0.1432
  757MOL0     C 4353  -1.498   0.197   6.813  0.7781  0.1284  0.2187
  757MOL0     C 4354  -1.551   0.232   6.686  0.0408  0.3808 -0.7391
  757MOL0     C 4355  -1.642   0.139   6.618  0.0570 -0.5576 -1.2818
  757MOL0     C 4356  -1.725   0.191   6.501  0.9514  0.5568 -0.5162
  757MOL0     C 4357  -1.668   0.018   6.686  1.1848  0.1000  1.2994
  757MOL0     C 4358  -1.760  -0.087   6.623 -0.9544 -0.5662  0.1347
  757MOL0     O 4359  -1.863  -0.156   6.692  0.0286 -0.1842  0.3226
  757MOL0     C 4360  -1.952  -0.217   6.614 -0.4766  0.1565  0.5006
  757MOL0     C 4361  -1.949  -0.356   6.604  0.4210 -0.2973 -0.1344
  757MOL0     C 4362  -2.036  -0.423   6.512  0.3753  0.7636 -0.1031
  757MOL0     C 4363  -2.126  -0.346   6.435  1.0950 -0.1024  0.3016
  757MOL0     O 4364  -2.225  -0.400   6.358 -0.1432  0.1986 -0.8960
  757MOL0     C 4365  -2.176  -0.504   6.264 -0.4046 -0.8260 -0.5649
  757MOL0     C 4366  -2.201  -0.453   6.116  0.1029  0.3042 -0.3634
  757MOL0     C 4367  -2.326  -0.513   6.072 -0.1114  0.1661  0.4339
  757MOL0     C 4368  -2.346  -0.496   5.918  0.0101 -0.6343 -0.9711
  757MOL0     C 4369  -2.320  -0.359   5.847 -0.0278  0.1146 -0.1578
  757MOL0     C 4370  -2.396  -0.331   5.719 -0.2238  0.2846  0.6244
  757MOL0     C 4371  -2.309  -0.319   5.592  0.8294 -1.1536 -0.1004
  757MOL0     C 4372  -2.387  -0.310   5.456  0.1587  0.4320  0.5040
  757MOL0    Cl 4373  -2.259  -0.274   5.330  0.3100 -0.6910  0.5907
  757MOL0     C 4374  -2.116  -0.206   6.430  0.1291  0.2513 -0.6317
  757MOL0     C 4375  -2.032  -0.140   6.520 -0.7405 -0.0417  0.1173
  757MOL0     O 4376  -1.729  -0.113   6.504 -0.4868 -0.4458  0.4455
  757MOL0     C 4377  -1.628  -0.010   6.821 -0.1639  0.2348  0.4823
  757MOL0     C 4378  -1.552   0.086   6.886 -0.8145 -0.9881 -0.4356
  757MOL0     N 4379  -0.917   0.572   6.623  0.4685 -1.0832 -0.0947
  757MOL0     N 4380  -0.925   0.654   6.524 -0.5050 -1.0930 -0.0349
  757MOL0     C 4381   0.003   0.681   5.979  0.8297 -0.7438 -0.0825
  757MOL0     C 4382   0.136   0.655   6.004 -0.9586 -0.2874 -0.3691
  757MOL0     C 4383   0.534   0.542   6.146  0.4857  0.9084  0.2759
  757MOL0     C 4384   0.595   0.598   6.261  0.2637 -0.3935 -0.3619
  757MOL0     C 4385   0.723   0.591   6.284 -0.7616  0.1521 -0.8452
  757MOL0     C 4386   0.811   0.517   6.201  0.1211  0.8686 -0.3806
  757MOL0     O 4387   0.949   0.509   6.212 -0.0759 -0.1033 -0.6300
  757MOL0     C 4388   0.990   0.645   6.184 -0.1424 -0.5701 -0.2637
  757MOL0     C 4389   1.094   0.665   6.071 -0.1884  0.3135 -0.0663
  757MOL0     C 4390   1.023   0.703   5.939  0.0005  0.0503 -0.3728
  757MOL0     C 4391   1.121   0.736   5.828 -0.4155  0.4202  0.5893
  757MOL0     C 4392   1.229   0.828   5.873 -0.1288  1.1102 -0.0134
  757MOL0     C 4393   1.326   0.899   5.883  0.4086  0.3440 -0.1373
  757MOL0     C 4394   0.754   0.460   6.087  0.0104  0.2051  0.5143
  757MOL0     C 4395   0.618   0.463   6.064  0.2692  1.1232 -0.0860
  757MOL0     C 4396   0.565   0.388   5.941 -0.3475  0.2628 -0.0342
  757MOL0     H 4397   0.164   0.806   6.306  2.2202  0.3002 -0.4280
  757MOL0     H 4398  -0.065   0.865   6.262 -0.5168 -0.4566 -0.2518
  757MOL0     H 4399  -0.294   0.777   6.217  1.8119  2.0452 -0.9935
  757MOL0     H 4400  -0.285   0.626   6.121  0.6987  0.0923 -0.7665
  757MOL0     H 4401  -0.455   0.851   6.034 -0.6738  0.1888  0.1838
  757MOL0     H 4402  -0.426   0.685   5.968  5.5834 -1.0246  1.2321
  757MOL0     H 4403  -0.534   0.572   6.147  0.9534  0.4483  3.0317
  757MOL0     H 4404  -0.541   0.713   6.253 -3.3194 -0.2373  0.9303
  757MOL0     H 4405  -0.713   0.809   6.074 -2.5672 -0.4991 -0.9184
  757MOL0     H 4406  -0.695   0.654   5.991  1.2057 -2.1460  0.9878
  757MOL0     H 4407  -0.786   0.675   6.283  1.7759 -0.6747  0.2010
  757MOL0     H 4408  -0.766   0.540   6.174  2.5585  0.1350  4.5850
  757MOL0     H 4409  -0.961   0.755   6.089 -0.7117 -0.1662  1.9001
  757MOL0     H 4410  -0.914   0.610   6.007 -1.6793  0.1055  0.6173
  757MOL0     H 4411  -1.029   0.477   6.214  1.5048  0.8039 -0.7898
  757MOL0     H 4412  -1.133   0.587   6.125  2.1618 -1.4634 -4.1410
  757MOL0     H 4413  -1.026   0.776   6.296  1.5744  0.2807 -1.5127
  757MOL0     H 4414  -1.179   0.697   6.325  1.2916  2.7392 -0.7951
  757MOL0     H 4415  -1.184   0.458   6.468 -1.3836  0.8964  2.5938
  757MOL0     H 4416  -0.953   0.359   6.753 -0.0393 -2.2806 -1.8561
  757MOL0     H 4417  -1.088   0.305   6.673  0.1462  0.2029  1.2224
  757MOL0     H 4418  -1.104   0.520   6.898 -0.7566 -1.7496  2.7274
  757MOL0     H 4419  -1.241   0.464   6.790  0.7990  1.1257 -2.0935
  757MOL0     H 4420  -1.086   0.266   6.954  0.4645 -1.1848  0.4752
  757MOL0     H 4421  -1.206   0.367   7.030  2.9012 -4.1649  1.8307
  757MOL0     H 4422  -1.241   0.170   6.809 -1.0429 -0.0820 -0.5932
  757MOL0     H 4423  -1.283   0.158   6.982 -1.8145  1.1217  0.4904
  757MOL0     H 4424  -1.524   0.325   6.638  1.8394  0.8828  1.1001
  757MOL0     H 4425  -1.789   0.114   6.458  1.1359  0.2107 -0.1838
  757MOL0     H 4426  -1.662   0.248   6.431 -1.8778  1.8208 -2.1809
  757MOL0     H 4427  -1.795   0.265   6.541  0.3249 -1.0073  1.3851
  757MOL0     H 4428  -1.894  -0.421   6.672 -1.9072 -2.5564 -0.2462
  757MOL0     H 4429  -2.018  -0.527   6.486 -0.3395 -0.0112  2.2812
  757MOL0     H 4430  -2.068  -0.509   6.284 -0.7811  1.6810  3.2258
  757MOL0     H 4431  -2.209  -0.607   6.278 -2.1838 -0.1130  1.0198
  757MOL0     H 4432  -2.213  -0.345   6.130 -1.5231 -0.1547  2.5814
  757MOL0     H 4433  -2.115  -0.474   6.051 -0.4423  1.4687 -1.5073
  757MOL0     H 4434  -2.396  -0.464   6.140  0.9582  2.4042  0.0096
  757MOL0     H 4435  -2.344  -0.620   6.086 -1.4598  0.1972 -0.7507
  757MOL0     H 4436  -2.450  -0.525   5.905 -0.1707 -0.1007 -0.7749
  757MOL0     H 4437  -2.274  -0.560   5.867  0.0601  0.2600 -2.0713
  757MOL0     H 4438  -2.358  -0.283   5.916  2.1969  2.2235 -1.1063
  757MOL0     H 4439  -2.217  -0.341   5.816 -0.3481  0.8078 -0.8689
  757MOL0     H 4440  -2.458  -0.241   5.716  0.0999  0.4863 -0.5040
  757MOL0     H 4441  -2.459  -0.420   5.705  0.3405  0.0704 -0.6833
  757MOL0     H 4442  -2.238  -0.401   5.585  0.8330 -1.0584 -1.3756
  757MOL0     H 4443  -2.256  -0.224   5.609 -0.0722 -0.6966  0.2274
  757MOL0     H 4444  -2.468  -0.238   5.473  0.4335  0.6974  0.6930
  757MOL0     H 4445  -2.447  -0.398   5.429 -0.9643  1.2573  0.2356
  757MOL0     H 4446  -2.167  -0.142   6.359  0.2944  0.0675 -0.9157
  757MOL0     H 4447  -2.021  -0.032   6.511  1.0403 -0.1477  0.8248
  757MOL0     H 4448  -1.661  -0.101   6.871  0.9562 -1.8815 -2.3704
  757MOL0     H 4449  -1.524   0.069   6.989  2.8587  0.4580 -1.0488
  757MOL0     H 4450  -0.043   0.649   5.885 -0.0453  1.6954 -0.5733
  757MOL0     H 4451   0.197   0.607   5.928 -2.0118  0.0235 -1.4261
  757MOL0     H 4452   0.524   0.644   6.329 -2.0503 -2.3907 -1.2674
  757MOL0     H 4453   0.774   0.641   6.367  4.2104 -1.5329 -2.5102
  757MOL0     H 4454   0.907   0.714   6.169  0.6545  0.2210 -1.1570
  757MOL0     H 4455   1.036   0.683   6.276 -0.2311 -1.0910 -0.0000
  757MOL0     H 4456   1.161   0.579   6.063  0.8345  1.2722 -3.8076
  757MOL0     H 4457   1.153   0.751   6.102  0.2670 -0.3830  1.0151
  757MOL0     H 4458   0.948   0.628   5.915 -3.7134  2.3099  2.8902
  757MOL0     H 4459   0.956   0.789   5.950 -0.8204 -0.4301 -1.4460
  757MOL0     H 4460   1.074   0.780   5.740  0.1612  1.3336  0.7243
  757MOL0     H 4461   1.160   0.640   5.793  0.4830  1.0071 -0.0530
  757MOL0     H 4462   1.407   0.970   5.882  0.2705  0.6196 -3.1514
  757MOL0     H 4463   0.823   0.404   6.024  0.6273 -1.0213  2.1831
  757MOL0     H 4464   0.559   0.455   5.855  2.0713 -0.6227 -0.9708
  757MOL0     H 4465   0.629   0.306   5.908 -0.3532 -0.6983  2.1532
  757MOL0     H 4466   0.469   0.338   5.961 -0.9643 -0.1373 -3.4386
  758MOL0     O 4467   1.506  10.896   4.855  1.0073  0.7001 -0.6814
  758MOL0     C 4468   1.519  10.873   4.975 -0.0763  0.7685  0.1841
  758MOL0     O 4469   1.424  10.886   5.070 -0.4677  0.1622  0.6332
  758MOL0     C 4470   1.307  10.951   5.037 -0.5475 -0.1696  0.3142
  758MOL0     C 4471   1.289  11.088   5.083 -0.5136 -0.3863 -0.4127
  758MOL0     C 4472   1.175  11.158   5.048  0.2786  0.4940 -0.2162
  758MOL0     C 4473   1.078  11.107   4.955 -0.7889  0.3332 -1.1851
  758MOL0     O 4474   0.957  11.168   4.930 -0.5191  0.2436 -0.5331
  758MOL0     C 4475   0.896  11.200   5.054 -1.2434  0.4789 -0.1001
  758MOL0     C 4476   0.746  11.219   5.041 -0.9235  0.1434  0.3469
  758MOL0     C 4477   0.714  11.346   4.960 -0.2438  0.8850  0.3878
  758MOL0     C 4478   0.569  11.346   4.921  0.3551  0.7473 -0.4572
  758MOL0     C 4479   0.540  11.255   4.803  0.3054 -0.0047 -1.3192
  758MOL0     C 4480   0.474  11.331   4.687  0.1819  0.6675 -0.8976
  758MOL0     C 4481   0.468  11.240   4.559 -0.1393  0.5032  0.8920
  758MOL0     C 4482   0.590  11.269   4.462  0.4205 -0.1926 -0.1987
  758MOL0     N 4483   0.543  11.395   4.394 -0.2708  0.0534 -0.0991
  758MOL0     C 4484   0.449  11.402   4.296  0.3237 -0.1724 -0.1255
  758MOL0     C 4485   0.443  11.530   4.245  0.2765 -0.3480  0.0541
  758MOL0     C 4486   0.345  11.594   4.163  0.0270  0.4263  0.6204
  758MOL0     C 4487   0.225  11.662   4.240  1.2141  0.0657 -0.3665
  758MOL0     C 4488   0.097  11.577   4.247  0.5793  0.3309  0.0152
  758MOL0     C 4489   0.102  11.479   4.366  0.1280  0.4691  0.6180
  758MOL0     O 4490   0.067  11.351   4.321 -0.0124 -0.0045 -0.2238
  758MOL0     C 4491  -0.070  11.324   4.304 -0.0189  0.0494  0.2667
  758MOL0     C 4492  -0.174  11.410   4.346  0.2713 -0.6735 -0.6061
  758MOL0     C 4493  -0.304  11.360   4.352  0.7433  0.0335 -0.2370
  758MOL0     C 4494  -0.413  11.447   4.419  0.0659  0.0149  0.3463
  758MOL0     C 4495  -0.336  11.233   4.288 -0.2995 -0.4268 -0.6021
  758MOL0     C 4496  -0.475  11.175   4.257  0.4677  0.8089 -0.2923
  758MOL0     O 4497  -0.483  11.037   4.234  0.6453 -0.3106  0.4159
  758MOL0     C 4498  -0.608  10.988   4.212  0.7782  0.8285  0.8655
  758MOL0     C 4499  -0.663  10.993   4.080 -0.5532 -0.2638 -0.2749
  758MOL0     C 4500  -0.792  10.946   4.049 -0.4650  0.4930 -0.1000
  758MOL0     C 4501  -0.857  10.889   4.161  0.0199  0.2850  0.2111
  758MOL0     O 4502  -0.981  10.837   4.128  0.7351 -0.1217  0.9150
  758MOL0     C 4503  -1.060  10.767   4.220  0.3419  0.3263  0.1110
  758MOL0     C 4504  -1.164  10.686   4.137 -0.6485 -0.1354  0.1608
  758MOL0     C 4505  -1.264  10.621   4.228  0.5719 -0.3023 -1.3482
  758MOL0     C 4506  -1.340  10.513   4.156  1.0076 -0.0558 -0.4832
  758MOL0     C 4507  -1.445  10.442   4.244 -0.6756  0.5824  0.2311
  758MOL0     C 4508  -1.573  10.529   4.268 -0.5302 -1.2876 -0.5276
  758MOL0     C 4509  -1.668  10.443   4.353  0.2798  0.6291  0.5376
  758MOL0     C 4510  -1.623  10.357   4.472  0.2752 -1.0603  0.1297
  758MOL0    Cl 4511  -1.790  10.327   4.544 -0.3495  0.7406 -0.4588
  758MOL0     C 4512  -0.802  10.871   4.284 -0.4798 -0.1110 -0.2118
  758MOL0     C 4513  -0.675  10.931   4.312  1.1015 -0.5514  0.4842
  758MOL0     O 4514  -0.571  11.249   4.233 -0.4992 -0.2580  0.4350
  758MOL0     C 4515  -0.223  11.147   4.259  0.0440  1.1844  0.3465
  758MOL0     C 4516  -0.097  11.193   4.265  0.8482  0.1696  1.1479
  758MOL0     N 4517   0.535  11.601   4.324  0.8245  0.1430  0.3898
  758MOL0     N 4518   0.596  11.527   4.403 -0.1916  0.1691 -0.1003
  758MOL0     C 4519   1.107  10.977   4.898 -0.1491  0.0624  0.2044
  758MOL0     C 4520   1.215  10.898   4.949 -0.1601 -0.0416 -0.2793
  758MOL0     C 4521   1.647  10.799   5.016  0.2695 -0.0795  0.6735
  758MOL0     C 4522   1.727  10.749   4.913 -0.1799  0.4694  0.1647
  758MOL0     C 4523   1.841  10.680   4.936 -0.7407  0.0908 -0.0826
  758MOL0     C 4524   1.889  10.662   5.067  1.0938  0.6976  0.1312
  758MOL0     O 4525   2.004  10.586   5.097  0.9150 -0.3719 -0.8155
  758MOL0     C 4526   2.093  10.537   4.990 -0.4386  0.1855 -0.6007
  758MOL0     C 4527   2.242  10.538   5.038 -0.6658  0.1555 -0.5315
  758MOL0     C 4528   2.307  10.665   5.081 -1.0764 -0.1976 -0.9963
  758MOL0     C 4529   2.449  10.663   5.153  0.6065  0.4259  0.4757
  758MOL0     C 4530   2.463  10.559   5.252 -0.0454  0.2263  0.4162
  758MOL0     C 4531   2.458  10.471   5.334  1.1231 -0.0175  0.7491
  758MOL0     C 4532   1.811  10.711   5.170 -0.0125 -0.2525 -0.0883
  758MOL0     C 4533   1.693  10.776   5.152  0.2847  0.4826  0.0742
  758MOL0     C 4534   1.611  10.828   5.268  0.1210  0.4734  0.7632
  758MOL0     H 4535   1.347  11.120   5.169 -1.5551 -2.7558  1.2979
  758MOL0     H 4536   1.159  11.250   5.103  0.3548 -1.0737  2.6242
  758MOL0     H 4537   0.940  11.293   5.093 -0.9512  0.5951 -0.6978
  758MOL0     H 4538   0.916  11.119   5.124  0.4510 -1.0333 -2.2301
  758MOL0     H 4539   0.713  11.140   4.973  1.6618 -2.1806  1.5948
  758MOL0     H 4540   0.703  11.204   5.140  1.7328 -5.0346  1.0446
  758MOL0     H 4541   0.732  11.431   5.026 -2.0872  0.9788  0.8339
  758MOL0     H 4542   0.780  11.365   4.874  0.1843 -1.1791  0.2109
  758MOL0     H 4543   0.504  11.321   5.006  0.1968  0.4962 -0.6516
  758MOL0     H 4544   0.532  11.446   4.895  0.0530  0.9256  0.6065
  758MOL0     H 4545   0.469  11.178   4.833  0.3101 -0.6899 -2.9869
  758MOL0     H 4546   0.630  11.202   4.770  0.9567 -0.0459  0.3838
  758MOL0     H 4547   0.367  11.340   4.709 -0.4352 -1.1070 -2.8530
  758MOL0     H 4548   0.520  11.430   4.680 -0.9939  1.5283  1.9339
  758MOL0     H 4549   0.377  11.262   4.502  0.8044 -0.4859 -1.0617
  758MOL0     H 4550   0.465  11.136   4.592  0.5033 -0.1351 -0.9415
  758MOL0     H 4551   0.683  11.287   4.516  1.6892  0.0147 -2.3417
  758MOL0     H 4552   0.608  11.186   4.393 -1.5868 -2.3201  1.6705
  758MOL0     H 4553   0.367  11.336   4.268  0.8875 -0.8993 -0.1064
  758MOL0     H 4554   0.302  11.530   4.085  0.3535  1.0330 -0.0751
  758MOL0     H 4555   0.397  11.673   4.107  0.7341 -0.0810  0.5489
  758MOL0     H 4556   0.254  11.680   4.343  0.0804  1.1675 -0.2094
  758MOL0     H 4557   0.206  11.760   4.196 -0.1728  0.1232  0.3032
  758MOL0     H 4558   0.014  11.647   4.254  0.1310  0.0455 -1.8163
  758MOL0     H 4559   0.084  11.531   4.149  0.8835 -0.4608  0.3356
  758MOL0     H 4560   0.194  11.478   4.425 -0.0194 -0.8507  0.8658
  758MOL0     H 4561   0.027  11.516   4.436 -2.1522 -2.5595 -0.0296
  758MOL0     H 4562  -0.170  11.510   4.388  0.3457  0.2111 -2.6412
  758MOL0     H 4563  -0.503  11.384   4.428  0.3573 -0.9291 -2.3378
  758MOL0     H 4564  -0.443  11.531   4.357  0.7427 -0.7187 -1.0179
  758MOL0     H 4565  -0.389  11.481   4.520  1.1263 -1.1027  0.4915
  758MOL0     H 4566  -0.593  11.036   4.008  0.3054  1.0470  1.2510
  758MOL0     H 4567  -0.823  10.941   3.945 -0.0585  1.8029 -0.3074
  758MOL0     H 4568  -1.004  10.693   4.278 -0.6658 -0.8087 -0.3212
  758MOL0     H 4569  -1.114  10.829   4.291 -3.4973  0.1241 -2.3598
  758MOL0     H 4570  -1.215  10.743   4.058 -2.1342 -2.3105 -0.5307
  758MOL0     H 4571  -1.107  10.613   4.080  0.4653  2.4379 -2.2890
  758MOL0     H 4572  -1.322  10.706   4.264  1.0131  1.2038 -3.9132
  758MOL0     H 4573  -1.213  10.579   4.315 -0.5589 -1.5727 -1.2532
  758MOL0     H 4574  -1.273  10.440   4.109  0.6777 -0.5288 -0.2331
  758MOL0     H 4575  -1.396  10.571   4.082  0.7256  2.2368  1.4250
  758MOL0     H 4576  -1.483  10.359   4.184  2.4584 -2.0921  1.6495
  758MOL0     H 4577  -1.402  10.398   4.334  0.8103  1.3212 -0.0798
  758MOL0     H 4578  -1.621  10.556   4.174  0.0423  0.3176 -0.3906
  758MOL0     H 4579  -1.561  10.623   4.322 -3.2662 -1.2874  0.2329
  758MOL0     H 4580  -1.714  10.386   4.272  0.5577 -1.3792  1.7249
  758MOL0     H 4581  -1.749  10.504   4.393  1.2384  2.3586 -0.0551
  758MOL0     H 4582  -1.558  10.407   4.544  0.4495 -0.7666 -0.2309
  758MOL0     H 4583  -1.580  10.263   4.436  0.1714 -1.1126  0.1421
  758MOL0     H 4584  -0.846  10.833   4.375 -1.6919  1.2261 -0.1963
  758MOL0     H 4585  -0.640  10.927   4.415  2.7233 -1.2520 -0.0519
  758MOL0     H 4586  -0.232  11.043   4.229 -1.3540  1.1792  0.7254
  758MOL0     H 4587  -0.020  11.117   4.262 -0.5298 -1.2878 -2.7681
  758MOL0     H 4588   1.026  10.935   4.840  1.4439 -1.1832 -1.2493
  758MOL0     H 4589   1.239  10.807   4.894 -2.4032 -0.4336 -0.6780
  758MOL0     H 4590   1.716  10.750   4.805  2.3920 -0.3728 -0.1624
  758MOL0     H 4591   1.902  10.643   4.855 -1.8349  0.7751 -1.2623
  758MOL0     H 4592   2.055  10.443   4.949  0.0952  0.2580 -1.2841
  758MOL0     H 4593   2.099  10.593   4.896  1.6234 -2.6690 -2.3453
  758MOL0     H 4594   2.306  10.488   4.965 -0.6757  1.2747 -1.3324
  758MOL0     H 4595   2.240  10.481   5.132 -1.6260 -1.9956 -1.7840
  758MOL0     H 4596   2.329  10.727   4.994 -1.6621 -0.3349 -1.2539
  758MOL0     H 4597   2.238  10.723   5.143 -0.3346 -2.3998  2.1598
  758MOL0     H 4598   2.457  10.752   5.217  1.7372 -1.2363  2.8121
  758MOL0     H 4599   2.529  10.658   5.079  1.1499  1.5314  0.9541
  758MOL0     H 4600   2.445  10.391   5.403  1.9916 -0.4030  0.4748
  758MOL0     H 4601   1.842  10.696   5.273 -1.3746 -0.5515  0.2946
  758MOL0     H 4602   1.656  10.795   5.362 -1.0960  0.4401  1.3541
  758MOL0     H 4603   1.614  10.937   5.257  1.3662  0.3498 -0.3408
  758MOL0     H 4604   1.506  10.800   5.271 -0.4435  2.2059 -0.7751
  759MOL0     O 4605   6.511   5.410   4.465  0.1815  0.1301 -0.5158
  759MOL0     C 4606   6.431   5.335   4.521 -0.2059 -0.0458  0.5076
  759MOL0     O 4607   6.443   5.197   4.522 -0.4966 -0.8075  0.5336
  759MOL0     C 4608   6.570   5.160   4.543  0.0168  0.2406 -0.4337
  759MOL0     C 4609   6.677   5.160   4.448  0.2051  0.3980  0.3357
  759MOL0     C 4610   6.802   5.106   4.492  0.1692 -0.4930 -0.2039
  759MOL0     C 4611   6.830   5.071   4.624  0.6242 -0.0793  0.0614
  759MOL0     O 4612   6.956   5.024   4.664 -0.0086 -0.6610 -0.5802
  759MOL0     C 4613   7.016   5.120   4.755 -0.3197  0.3880 -0.2239
  759MOL0     C 4614   7.167   5.083   4.756  0.6956 -0.8146  0.2736
  759MOL0     C 4615   7.225   5.127   4.617  0.8054 -0.3642  0.1599
  759MOL0     C 4616   7.367   5.160   4.637 -0.2221 -0.4759  0.1672
  759MOL0     C 4617   7.432   5.237   4.531  0.5719 -0.0935  0.2292
  759MOL0     C 4618   7.572   5.266   4.583  0.4530 -0.2583  0.2138
  759MOL0     C 4619   7.644   5.370   4.503 -0.2139 -0.4929 -0.2349
  759MOL0     C 4620   7.727   5.307   4.390  0.0516 -0.1189 -0.4157
  759MOL0     N 4621   7.827   5.402   4.352 -0.9593 -0.3665  0.4763
  759MOL0     C 4622   7.913   5.377   4.247 -0.4925  0.1032 -0.5807
  759MOL0     C 4623   7.997   5.480   4.246 -0.0797 -0.3056 -0.1981
  759MOL0     C 4624   8.130   5.492   4.178  0.6551  0.8335 -0.4682
  759MOL0     C 4625   8.160   5.642   4.166  0.4438  0.4595 -0.0090
  759MOL0     C 4626   8.284   5.674   4.091 -0.7288  0.1076 -0.6889
  759MOL0     C 4627   8.319   5.824   4.119 -0.4547 -1.4505 -0.8236
  759MOL0     O 4628   8.441   5.875   4.060 -0.1461  0.3081  0.3608
  759MOL0     C 4629   8.501   5.976   4.132  0.4873 -0.2240 -0.2009
  759MOL0     C 4630   8.633   5.992   4.107  0.3271 -0.2352 -0.1373
  759MOL0     C 4631   8.714   6.093   4.161  0.3466  0.3416 -0.2852
  759MOL0     C 4632   8.858   6.099   4.108  0.1134  0.7158 -0.2855
  759MOL0     C 4633   8.659   6.179   4.259  0.6653  0.3915  0.2856
  759MOL0     C 4634   8.747   6.272   4.346  0.8361 -0.3127  0.2856
  759MOL0     O 4635   8.683   6.330   4.450 -0.5846 -0.6298  0.5905
  759MOL0     C 4636   8.762   6.422   4.522  0.6716  0.4611  0.1756
  759MOL0     C 4637   8.818   6.393   4.647 -0.7403 -0.1266 -0.5159
  759MOL0     C 4638   8.888   6.492   4.720  0.7693 -0.3363  0.7523
  759MOL0     C 4639   8.917   6.623   4.653  0.3567 -0.7493  0.1723
  759MOL0     O 4640   8.988   6.734   4.693 -0.9050 -0.1082  0.6598
  759MOL0     C 4641   8.976   6.772   4.829  0.9801  0.2642  0.0391
  759MOL0     C 4642   9.093   6.853   4.875  0.8395 -0.4473  0.6397
  759MOL0     C 4643   9.224   6.776   4.889  0.3710  0.0748 -0.2552
  759MOL0     C 4644   9.342   6.869   4.930 -0.3824 -0.7500  1.0970
  759MOL0     C 4645   9.469   6.789   4.984  1.0114 -0.5575  0.3009
  759MOL0     C 4646   9.587   6.875   5.026 -0.1706  0.9133  0.4487
  759MOL0     C 4647   9.725   6.824   4.972 -0.6049  0.6654  0.9387
  759MOL0     C 4648   9.796   6.720   5.058  0.3241  0.2652 -0.0934
  759MOL0    Cl 4649   9.829   6.803   5.209  0.6661 -0.1168  0.8363
  759MOL0     C 4650   8.863   6.646   4.527 -0.3119 -0.2253  0.0744
  759MOL0     C 4651   8.782   6.551   4.466  0.0536 -0.3247 -0.3318
  759MOL0     O 4652   8.865   6.284   4.311 -0.1116  0.3085 -0.6531
  759MOL0     C 4653   8.522   6.165   4.285  0.3588  0.7628  0.2112
  759MOL0     C 4654   8.440   6.065   4.224  0.1013 -0.5569  0.8290
  759MOL0     N 4655   7.962   5.558   4.357 -0.8846 -0.7952  0.2499
  759MOL0     N 4656   7.861   5.520   4.420 -0.3274 -0.1402  0.4599
  759MOL0     C 4657   6.723   5.075   4.721  0.2112  0.0508  1.4455
  759MOL0     C 4658   6.603   5.110   4.674  0.4005 -0.0693 -0.3366
  759MOL0     C 4659   6.314   5.403   4.592  0.0582  0.1064 -0.3288
  759MOL0     C 4660   6.324   5.541   4.635  0.0231 -0.7203  0.1030
  759MOL0     C 4661   6.226   5.605   4.725 -0.2485  0.9799  0.1636
  759MOL0     C 4662   6.121   5.529   4.776 -0.0921  1.1658 -0.3285
  759MOL0     O 4663   6.034   5.566   4.870 -0.4406 -0.5914  0.0061
  759MOL0     C 4664   6.048   5.688   4.945  0.7236  0.3374 -0.1994
  759MOL0     C 4665   5.942   5.683   5.067  1.0860  0.5397  1.1693
  759MOL0     C 4666   5.933   5.804   5.157 -1.4546 -0.3481  0.2282
  759MOL0     C 4667   5.808   5.823   5.239  0.0445  0.4558  0.1203
  759MOL0     C 4668   5.790   5.709   5.341 -1.0580 -0.0600 -0.5430
  759MOL0     C 4669   5.755   5.627   5.417 -0.5250 -0.0529  0.1418
  759MOL0     C 4670   6.108   5.395   4.724  0.4758  0.0563  0.1390
  759MOL0     C 4671   6.195   5.336   4.634 -0.3822  0.2876 -0.7451
  759MOL0     C 4672   6.169   5.203   4.573 -0.5770  0.3433  0.7106
  759MOL0     H 4673   6.661   5.182   4.343  1.8571 -1.9477 -0.4804
  759MOL0     H 4674   6.877   5.087   4.415  1.0739 -0.7254  0.7189
  759MOL0     H 4675   6.981   5.103   4.857  0.1119  0.5794 -0.0407
  759MOL0     H 4676   6.992   5.223   4.728 -3.0591  0.1777  1.1273
  759MOL0     H 4677   7.215   5.139   4.838  0.1142 -1.0889  0.8073
  759MOL0     H 4678   7.192   4.977   4.766  0.9717 -0.7227  0.5890
  759MOL0     H 4679   7.211   5.046   4.544 -0.3931 -0.5178  0.5391
  759MOL0     H 4680   7.170   5.217   4.589 -0.0656 -0.4723  1.4415
  759MOL0     H 4681   7.374   5.216   4.730  0.9634 -2.0565  1.0845
  759MOL0     H 4682   7.415   5.062   4.648  0.9993  0.1249  0.2674
  759MOL0     H 4683   7.382   5.333   4.517 -0.2076 -0.6449 -0.8351
  759MOL0     H 4684   7.424   5.194   4.431  2.3705  2.5177 -1.1614
  759MOL0     H 4685   7.572   5.290   4.690  0.3183  2.9293 -0.3793
  759MOL0     H 4686   7.630   5.174   4.570 -1.4218 -1.8929  2.4701
  759MOL0     H 4687   7.711   5.426   4.569  0.2045 -2.1546  0.8133
  759MOL0     H 4688   7.571   5.439   4.460  0.0022  0.6478  1.1370
  759MOL0     H 4689   7.772   5.213   4.423  1.6276  0.4049 -0.9820
  759MOL0     H 4690   7.662   5.281   4.306 -1.9488  0.5296  0.8861
  759MOL0     H 4691   7.929   5.288   4.187 -1.1965  0.3287 -1.1120
  759MOL0     H 4692   8.113   5.461   4.074 -1.4438 -1.6584  0.5159
  759MOL0     H 4693   8.208   5.439   4.232  0.8762  0.1741 -1.4096
  759MOL0     H 4694   8.075   5.692   4.119 -1.7111 -3.3548 -0.6504
  759MOL0     H 4695   8.173   5.684   4.266 -0.3494  1.7268 -0.4138
  759MOL0     H 4696   8.360   5.611   4.138 -2.1763 -0.2674  1.2510
  759MOL0     H 4697   8.281   5.648   3.985 -0.4358 -2.4124 -0.1505
  759MOL0     H 4698   8.239   5.885   4.076 -0.0556  1.0529  1.7307
  759MOL0     H 4699   8.322   5.838   4.227  1.8489 -0.6554 -0.9503
  759MOL0     H 4700   8.670   5.928   4.028  1.0710  0.2713 -0.2093
  759MOL0     H 4701   8.937   6.091   4.182 -0.9896  0.8232  0.9473
  759MOL0     H 4702   8.860   6.192   4.051 -0.5271  0.2283 -1.1435
  759MOL0     H 4703   8.868   6.020   4.032 -1.4825  1.2057 -1.0469
  759MOL0     H 4704   8.823   6.292   4.686  1.0064  1.1097  2.8519
  759MOL0     H 4705   8.923   6.458   4.817  0.7851  0.3369  0.9875
  759MOL0     H 4706   8.889   6.838   4.840  1.9292  1.5350  0.1528
  759MOL0     H 4707   8.949   6.695   4.902  1.2299  2.0964  2.1936
  759MOL0     H 4708   9.116   6.929   4.800 -1.4944 -0.1742  0.1298
  759MOL0     H 4709   9.073   6.898   4.973  0.5443 -0.1677  0.4531
  759MOL0     H 4710   9.240   6.709   4.804  0.8194  0.1187 -0.2061
  759MOL0     H 4711   9.208   6.709   4.974 -0.0368  0.1401 -0.2783
  759MOL0     H 4712   9.309   6.946   5.001 -0.7487  0.5153 -0.3838
  759MOL0     H 4713   9.357   6.917   4.833 -0.2566 -0.6646  1.1588
  759MOL0     H 4714   9.446   6.721   5.066 -0.7398 -0.0664  0.2670
  759MOL0     H 4715   9.494   6.720   4.904  2.8732  2.4023 -1.8426
  759MOL0     H 4716   9.587   6.894   5.133 -0.0438 -1.5055  0.9195
  759MOL0     H 4717   9.588   6.971   4.972  1.6040  0.8192  0.2636
  759MOL0     H 4718   9.784   6.915   4.961 -0.4926  0.7645  2.2001
  759MOL0     H 4719   9.719   6.782   4.872  0.4942  0.3928  0.9774
  759MOL0     H 4720   9.898   6.707   5.019  0.4159  1.2311 -0.2054
  759MOL0     H 4721   9.747   6.623   5.067  2.3493 -0.6569  2.0433
  759MOL0     H 4722   8.878   6.740   4.475  0.2472 -0.8318 -0.8771
  759MOL0     H 4723   8.742   6.563   4.365 -0.4273 -0.1932 -0.1268
  759MOL0     H 4724   8.465   6.233   4.347 -0.0216  1.2742 -0.6714
  759MOL0     H 4725   8.333   6.056   4.244  0.2393 -0.7441  1.5070
  759MOL0     H 4726   6.741   5.042   4.822  0.9898 -1.8474  0.7231
  759MOL0     H 4727   6.521   5.113   4.746  1.4940 -1.1820  1.0107
  759MOL0     H 4728   6.408   5.603   4.605  2.1875 -2.4382  2.1790
  759MOL0     H 4729   6.244   5.709   4.752 -0.8821  0.8326  1.1997
  759MOL0     H 4730   6.150   5.700   4.981  0.4003  2.0871  0.2384
  759MOL0     H 4731   6.017   5.772   4.882 -0.5731 -1.9385 -2.8172
  759MOL0     H 4732   5.965   5.598   5.130 -0.4045 -1.2934 -0.6096
  759MOL0     H 4733   5.844   5.657   5.025  2.1003 -1.2057 -0.2064
  759MOL0     H 4734   6.017   5.794   5.226 -0.4015  1.5832 -0.6771
  759MOL0     H 4735   5.966   5.895   5.105  2.0182 -0.4196  2.0008
  759MOL0     H 4736   5.720   5.822   5.174 -1.2296 -2.4176  1.6906
  759MOL0     H 4737   5.818   5.916   5.296 -0.3473  0.8358 -0.4130
  759MOL0     H 4738   5.718   5.565   5.495  3.1509  2.2738  4.1952
  759MOL0     H 4739   6.032   5.325   4.758  1.5743 -2.4857 -2.2730
  759MOL0     H 4740   6.231   5.124   4.616  0.2124 -0.6462 -2.0460
  759MOL0     H 4741   6.065   5.171   4.587  0.3158 -1.9081  2.7855
  759MOL0     H 4742   6.196   5.203   4.467  2.6534  0.2278  1.4551
  760MOL0     O 4743   3.077   2.732  11.338  0.7310 -0.0544 -0.3208
  760MOL0     C 4744   3.134   2.691  11.240 -0.7583  0.3487  0.4017
  760MOL0     O 4745   3.274   2.689  11.223 -0.1155  0.1850 -0.8330
  760MOL0     C 4746   3.347   2.760  11.317 -0.3695  0.0349  0.5501
  760MOL0     C 4747   3.338   2.897  11.331  0.2986 -0.0283  0.2530
  760MOL0     C 4748   3.427   2.971  11.420  0.5923 -0.9108  0.1613
  760MOL0     C 4749   3.524   2.904  11.492 -0.0983  0.0849 -0.7521
  760MOL0     O 4750   3.606   2.964  11.585 -0.1609  0.1077 -0.3271
  760MOL0     C 4751   3.625   3.107  11.592  0.3027  0.0639  0.2538
  760MOL0     C 4752   3.733   3.125  11.705 -0.3890  0.2329  0.1281
  760MOL0     C 4753   3.858   3.038  11.666  0.7380 -0.3737 -0.7538
  760MOL0     C 4754   3.963   3.058  11.772  0.1459  0.3973 -0.3080
  760MOL0     C 4755   4.092   3.002  11.712  0.2919  0.4920 -0.5564
  760MOL0     C 4756   4.205   3.020  11.823  0.3928  0.7387 -0.2313
  760MOL0     C 4757   4.329   2.951  11.773  0.2869 -0.0882 -0.4458
  760MOL0     C 4758   4.436   2.944  11.889 -0.0973 -0.3431 -0.2683
  760MOL0     N 4759   4.456   3.069  11.962  0.2047  0.4078 -1.0655
  760MOL0     C 4760   4.482   3.188  11.908  0.2240  0.4576 -0.8449
  760MOL0     C 4761   4.467   3.279  12.009  0.2923 -0.0329  0.2134
  760MOL0     C 4762   4.505   3.426  11.991  0.0297 -0.1918  1.0039
  760MOL0     C 4763   4.647   3.434  11.916 -0.4894 -0.0007 -0.2870
  760MOL0     C 4764   4.753   3.373  12.016 -0.2659  0.0096 -0.1444
  760MOL0     C 4765   4.889   3.360  11.951  0.7232  0.5655  0.1357
  760MOL0     O 4766   4.981   3.353  12.056 -0.4792  0.1647 -0.7247
  760MOL0     C 4767   5.109   3.319  12.029  0.1875  0.6730 -1.0185
  760MOL0     C 4768   5.162   3.284  11.913 -0.7364 -0.7668 -0.2264
  760MOL0     C 4769   5.298   3.232  11.896  0.0838 -0.4499  0.1303
  760MOL0     C 4770   5.356   3.196  11.754  0.0896  0.3201 -0.2153
  760MOL0     C 4771   5.369   3.224  12.018  0.1602  0.2228 -0.1630
  760MOL0     C 4772   5.503   3.155  12.018  0.7960  1.1431  0.0347
  760MOL0     O 4773   5.602   3.213  12.095 -0.1971  0.3205 -0.4423
  760MOL0     C 4774   5.719   3.153  12.107  1.0155 -0.5486 -0.3920
  760MOL0     C 4775   5.725   3.052  12.208 -1.0404  0.0523 -0.7440
  760MOL0     C 4776   5.849   3.006  12.241  0.4555  0.4109 -0.5998
  760MOL0     C 4777   5.962   3.041  12.170  0.0045 -0.0081  0.2208
  760MOL0     O 4778   6.081   2.979  12.190  0.6537  0.0088  0.5384
  760MOL0     C 4779   6.149   3.053  12.296 -0.0040  0.1047  1.1024
  760MOL0     C 4780   6.149   2.960  12.421  0.0941  0.1734 -0.2900
  760MOL0     C 4781   6.243   3.026  12.536  0.4151  0.0164  0.3451
  760MOL0     C 4782   6.392   3.010  12.493  0.0331  0.4233 -0.0687
  760MOL0     C 4783   6.484   3.072  12.601  0.6598  0.7808  0.5951
  760MOL0     C 4784   6.631   3.056  12.574  0.4136 -0.7547 -0.5996
  760MOL0     C 4785   6.691   3.159  12.477  0.0805 -0.3812 -0.0524
  760MOL0     C 4786   6.843   3.143  12.445  0.6370  0.3488 -0.0116
  760MOL0    Cl 4787   6.941   3.106  12.591  0.4875 -0.1403  0.1027
  760MOL0     C 4788   5.961   3.149  12.079 -0.6619  0.0810  0.3110
  760MOL0     C 4789   5.837   3.192  12.037  0.4686 -0.4747 -0.2293
  760MOL0     O 4790   5.528   3.062  11.942 -0.2004 -0.4828  0.7269
  760MOL0     C 4791   5.317   3.260  12.141 -0.2318 -0.0828  0.1519
  760MOL0     C 4792   5.182   3.305  12.150  0.0242 -0.0746  0.3049
  760MOL0     N 4793   4.415   3.212  12.119 -0.5865  0.3188 -0.4780
  760MOL0     N 4794   4.406   3.086  12.088 -0.2679  0.7763 -0.0217
  760MOL0     C 4795   3.531   2.766  11.476  0.3257 -0.5274  0.4967
  760MOL0     C 4796   3.454   2.693  11.386  0.4474  0.2801  0.2954
  760MOL0     C 4797   3.065   2.618  11.129 -0.3722 -0.3777 -0.1344
  760MOL0     C 4798   3.149   2.559  11.031 -0.4393 -0.1943 -0.0559
  760MOL0     C 4799   3.089   2.472  10.941 -0.1245 -0.2013 -0.4115
  760MOL0     C 4800   2.952   2.472  10.917 -0.1481 -0.0166 -0.4213
  760MOL0     O 4801   2.892   2.397  10.830 -0.2170  0.0423 -0.0939
  760MOL0     C 4802   2.919   2.262  10.861 -0.1243 -0.0020  0.0292
  760MOL0     C 4803   2.789   2.176  10.827 -0.2755  0.6061  1.2319
  760MOL0     C 4804   2.663   2.217  10.912 -1.0504 -0.7441  0.0623
  760MOL0     C 4805   2.536   2.133  10.887 -0.6883  0.2685 -0.4367
  760MOL0     C 4806   2.446   2.167  10.773 -0.7326 -0.0555 -0.0665
  760MOL0     C 4807   2.376   2.188  10.676  0.0181  0.0684 -0.0251
  760MOL0     C 4808   2.871   2.552  10.997 -0.3203  0.4133 -0.5922
  760MOL0     C 4809   2.926   2.614  11.112  0.2511  0.7815  0.3057
  760MOL0     C 4810   2.822   2.669  11.217 -0.2217 -0.1036  0.4809
  760MOL0     H 4811   3.267   2.951  11.269 -2.0444 -0.3101  2.5010
  760MOL0     H 4812   3.404   3.077  11.427  2.8411 -0.4469  1.3608
  760MOL0     H 4813   3.529   3.152  11.620  1.2095  1.7040  0.8663
  760MOL0     H 4814   3.669   3.138  11.497  1.2322 -2.1098 -0.0791
  760MOL0     H 4815   3.765   3.228  11.722 -3.0608  1.3722 -1.1594
  760MOL0     H 4816   3.691   3.092  11.801  2.0072 -2.7440  0.3212
  760MOL0     H 4817   3.826   2.936  11.645  1.5432 -0.8587  0.3028
  760MOL0     H 4818   3.900   3.079  11.574 -0.6188  0.5835 -0.9768
  760MOL0     H 4819   3.963   3.166  11.789 -1.4185  0.4368 -0.4434
  760MOL0     H 4820   3.938   2.995  11.858 -2.8277  1.1752 -0.5012
  760MOL0     H 4821   4.127   3.071  11.635  0.5421  0.4860 -0.4478
  760MOL0     H 4822   4.082   2.900  11.674 -2.2285  1.5455 -3.0507
  760MOL0     H 4823   4.213   3.126  11.847 -1.5539  1.3815 -2.1708
  760MOL0     H 4824   4.163   2.981  11.917  0.9911 -0.8053 -0.5645
  760MOL0     H 4825   4.372   3.007  11.689  1.5938 -0.7615 -0.2463
  760MOL0     H 4826   4.296   2.851  11.742 -1.9416  0.5424 -0.3369
  760MOL0     H 4827   4.386   2.884  11.966  0.1249  3.2431  2.9762
  760MOL0     H 4828   4.528   2.891  11.862 -0.0266 -0.3180 -0.0813
  760MOL0     H 4829   4.545   3.204  11.821  0.3008  4.1186 -0.2563
  760MOL0     H 4830   4.496   3.479  12.086 -1.7846  3.6838 -1.0931
  760MOL0     H 4831   4.425   3.467  11.929  0.0720  0.9634  1.6871
  760MOL0     H 4832   4.648   3.375  11.824  1.8944  3.1607 -2.4772
  760MOL0     H 4833   4.673   3.535  11.886  1.2924 -0.5688 -0.7347
  760MOL0     H 4834   4.762   3.441  12.101 -2.7319  0.8397 -0.4500
  760MOL0     H 4835   4.718   3.276  12.051 -0.1918 -0.7230 -1.9856
  760MOL0     H 4836   4.902   3.265  11.897  2.2538  0.9882 -0.3015
  760MOL0     H 4837   4.914   3.440  11.881 -0.0741 -2.2518 -3.7296
  760MOL0     H 4838   5.099   3.291  11.826 -1.6580  1.6446  0.5481
  760MOL0     H 4839   5.466   3.201  11.758  0.1623 -1.1891  0.1562
  760MOL0     H 4840   5.318   3.252  11.668  1.6125 -1.6789 -2.3153
  760MOL0     H 4841   5.341   3.088  11.746  1.7338 -0.2231  2.6863
  760MOL0     H 4842   5.639   3.034  12.272 -0.7274 -0.4436 -0.4543
  760MOL0     H 4843   5.863   2.940  12.325  0.6549  1.6435  0.3595
  760MOL0     H 4844   6.253   3.071  12.269  0.0337 -2.0184 -0.3829
  760MOL0     H 4845   6.104   3.150  12.318 -1.5998 -0.5905  1.0685
  760MOL0     H 4846   6.049   2.953  12.466 -0.7058 -0.6341 -2.0935
  760MOL0     H 4847   6.193   2.866  12.388  1.1590 -0.7053  3.1971
  760MOL0     H 4848   6.221   2.983  12.634  0.9207 -1.6604 -0.2350
  760MOL0     H 4849   6.218   3.132  12.537  4.0318  1.0037 -0.2262
  760MOL0     H 4850   6.412   3.042  12.390 -2.8111  0.1248 -0.7960
  760MOL0     H 4851   6.418   2.904  12.502  0.8423  0.7503  1.9518
  760MOL0     H 4852   6.442   3.172  12.618  0.0174  0.7451 -0.6301
  760MOL0     H 4853   6.468   3.012  12.690 -4.6663 -1.3852 -1.3947
  760MOL0     H 4854   6.642   2.955  12.534 -2.2853 -1.1774 -0.4472
  760MOL0     H 4855   6.685   3.059  12.670  3.5600 -0.6651 -2.2328
  760MOL0     H 4856   6.682   3.257  12.526  2.1227  0.9449 -2.1204
  760MOL0     H 4857   6.634   3.158  12.383 -1.2862 -2.1809  0.7465
  760MOL0     H 4858   6.865   3.239  12.397 -1.3281 -0.0371 -1.8420
  760MOL0     H 4859   6.858   3.060  12.376  0.9449 -0.3135  0.8431
  760MOL0     H 4860   6.042   3.204  12.033  0.1737  1.0191  2.7524
  760MOL0     H 4861   5.833   3.282  11.977 -1.0556 -0.2803  0.1175
  760MOL0     H 4862   5.364   3.247  12.238  0.6797 -2.9056 -0.5835
  760MOL0     H 4863   5.137   3.316  12.249 -0.3157 -2.7629  0.5241
  760MOL0     H 4864   3.612   2.713  11.524 -0.4181 -1.8827  0.3118
  760MOL0     H 4865   3.465   2.586  11.372  0.2555  0.2202  0.6022
  760MOL0     H 4866   3.257   2.551  11.037 -0.4357  0.2711  0.5753
  760MOL0     H 4867   3.135   2.408  10.866 -1.2781  1.8166 -3.0106
  760MOL0     H 4868   3.010   2.233  10.807  0.9302  0.9069  1.2866
  760MOL0     H 4869   2.949   2.245  10.964 -2.5257  1.5530  1.0774
  760MOL0     H 4870   2.814   2.075  10.859 -0.6113  0.8450  2.2933
  760MOL0     H 4871   2.770   2.197  10.721  1.1426 -0.7597  0.6735
  760MOL0     H 4872   2.681   2.201  11.019  4.0590  0.2543 -0.4125
  760MOL0     H 4873   2.645   2.325  10.903 -2.9786 -1.1394 -1.4994
  760MOL0     H 4874   2.468   2.151  10.971  0.2809 -0.0176  0.4243
  760MOL0     H 4875   2.569   2.029  10.890 -1.4456 -0.0382 -1.8077
  760MOL0     H 4876   2.310   2.212  10.595  1.2628  1.4492 -0.6672
  760MOL0     H 4877   2.764   2.544  10.983 -0.7541  2.3890  1.1221
  760MOL0     H 4878   2.719   2.630  11.221 -0.9811  1.6882 -0.5055
  760MOL0     H 4879   2.855   2.647  11.319 -1.3911  0.3890  0.9926
  760MOL0     H 4880   2.814   2.776  11.195 -0.0928 -0.2803 -0.4776
  761MOL0     O 4881   5.137   8.225   3.504 -0.5225  0.4008  0.6575
  761MOL0     C 4882   5.171   8.210   3.384  0.1983  0.8235 -0.6745
  761MOL0     O 4883   5.073   8.241   3.282 -0.5325 -0.3288 -0.2445
  761MOL0     C 4884   4.947   8.282   3.315  0.5920 -0.4857  0.1122
  761MOL0     C 4885   4.904   8.412   3.303  0.2989  0.4480  0.1234
  761MOL0     C 4886   4.776   8.450   3.342 -0.7978  0.4156  0.1461
  761MOL0     C 4887   4.688   8.360   3.393 -0.1243 -0.1232  0.5765
  761MOL0     O 4888   4.567   8.408   3.434  0.3588  0.6688  0.6957
  761MOL0     C 4889   4.465   8.308   3.464 -0.9967  0.0061 -0.7035
  761MOL0     C 4890   4.341   8.381   3.525 -0.0367  0.3270 -0.5622
  761MOL0     C 4891   4.213   8.310   3.513  0.0095 -0.1951  1.1852
  761MOL0     C 4892   4.098   8.399   3.544  0.5266  0.4475  0.1590
  761MOL0     C 4893   3.969   8.319   3.527  0.2401  0.4216  0.0538
  761MOL0     C 4894   3.850   8.399   3.587  0.0754  0.3502  0.2522
  761MOL0     C 4895   3.737   8.309   3.617  0.1172  0.1773  0.2155
  761MOL0     C 4896   3.606   8.388   3.662 -0.2565  0.1989  0.0030
  761MOL0     N 4897   3.621   8.477   3.779  0.7730 -0.2399 -0.7291
  761MOL0     C 4898   3.684   8.437   3.896 -0.3336 -0.5500  0.8183
  761MOL0     C 4899   3.683   8.553   3.966 -0.0883 -0.0686 -0.1228
  761MOL0     C 4900   3.739   8.559   4.109 -0.3212  0.0038 -0.0142
  761MOL0     C 4901   3.875   8.633   4.119 -0.3979  0.3277 -0.5827
  761MOL0     C 4902   3.992   8.563   4.041 -0.8393 -0.4933 -1.0297
  761MOL0     C 4903   4.008   8.613   3.902  1.1379  0.4832  0.0145
  761MOL0     O 4904   4.134   8.584   3.840  0.3410 -0.0679  1.4054
  761MOL0     C 4905   4.242   8.652   3.888  0.9175  0.0228  0.2542
  761MOL0     C 4906   4.244   8.792   3.889 -0.5660  0.6463  0.3984
  761MOL0     C 4907   4.353   8.872   3.928  0.0770 -0.0046  0.8277
  761MOL0     C 4908   4.334   9.021   3.926 -0.0247  0.2096 -0.0045
  761MOL0     C 4909   4.469   8.799   3.966  0.3992  0.6157 -0.1602
  761MOL0     C 4910   4.597   8.861   4.008 -0.1267 -0.6107 -0.3637
  761MOL0     O 4911   4.604   8.995   4.008 -0.1161  0.6196  0.2495
  761MOL0     C 4912   4.725   9.064   4.001  0.2282  1.1385 -0.8450
  761MOL0     C 4913   4.721   9.196   4.053  0.5374  0.2392 -0.7336
  761MOL0     C 4914   4.830   9.290   4.043  0.6939 -0.0220  0.3841
  761MOL0     C 4915   4.943   9.242   3.981  0.2717  1.8214 -0.3298
  761MOL0     O 4916   5.040   9.342   3.965 -0.6236 -0.0427  0.7165
  761MOL0     C 4917   5.155   9.304   3.895  0.5217  0.6726 -0.2067
  761MOL0     C 4918   5.246   9.430   3.870  1.0678 -0.2335 -0.2260
  761MOL0     C 4919   5.375   9.395   3.795 -0.3542  0.4140 -0.4350
  761MOL0     C 4920   5.434   9.531   3.760  0.7382 -0.1436 -0.1886
  761MOL0     C 4921   5.577   9.512   3.717  0.8779 -0.1756  0.4674
  761MOL0     C 4922   5.633   9.652   3.675  0.0298  0.3467 -0.1228
  761MOL0     C 4923   5.758   9.642   3.596  0.0955  0.2865 -0.3366
  761MOL0     C 4924   5.882   9.664   3.667 -0.5028  0.5448 -0.7359
  761MOL0    Cl 4925   5.917   9.832   3.665  0.6691  0.0467 -0.6122
  761MOL0     C 4926   4.957   9.104   3.938  0.3525 -0.7515  0.5997
  761MOL0     C 4927   4.845   9.017   3.949 -0.4131 -0.5761 -0.2379
  761MOL0     O 4928   4.685   8.784   4.036 -0.0722  0.4130 -0.0112
  761MOL0     C 4929   4.472   8.655   3.973  0.1831  0.0451  1.0877
  761MOL0     C 4930   4.356   8.583   3.923 -0.5980  0.0672 -0.0955
  761MOL0     N 4931   3.627   8.661   3.896  0.1053 -0.2497 -0.1265
  761MOL0     N 4932   3.588   8.611   3.783 -0.7912  0.2831 -0.3966
  761MOL0     C 4933   4.731   8.232   3.409  0.1069  0.3678 -0.0832
  761MOL0     C 4934   4.857   8.195   3.369  0.0035  0.6324  0.3491
  761MOL0     C 4935   5.302   8.162   3.351 -0.7785 -1.1306  0.3299
  761MOL0     C 4936   5.376   8.237   3.260 -0.6022 -0.6134 -0.3321
  761MOL0     C 4937   5.509   8.199   3.226 -0.2039  0.5417 -0.4850
  761MOL0     C 4938   5.568   8.087   3.278 -1.0051  0.6555  0.1796
  761MOL0     O 4939   5.704   8.045   3.244 -0.3649  0.4024  0.3562
  761MOL0     C 4940   5.791   8.117   3.147 -0.3040  0.0424 -0.1989
  761MOL0     C 4941   5.896   8.018   3.095  0.5925 -0.5349  0.7542
  761MOL0     C 4942   6.005   7.998   3.201  0.0962  0.4846  0.1347
  761MOL0     C 4943   6.063   7.850   3.190  0.6316 -0.1920  0.7111
  761MOL0     C 4944   5.977   7.751   3.259 -1.0980 -0.2231  0.5431
  761MOL0     C 4945   5.915   7.670   3.311 -0.0551 -0.5618 -0.3936
  761MOL0     C 4946   5.501   8.018   3.375 -0.1060  0.2975  0.0828
  761MOL0     C 4947   5.372   8.045   3.412 -0.2753 -0.2282  1.0936
  761MOL0     C 4948   5.303   7.959   3.515  0.5687 -0.0981  0.2986
  761MOL0     H 4949   4.977   8.476   3.254  0.7526 -0.1198  0.0489
  761MOL0     H 4950   4.752   8.555   3.333  2.2819  1.1062 -1.3869
  761MOL0     H 4951   4.498   8.232   3.535 -1.4114  0.5538  0.0874
  761MOL0     H 4952   4.417   8.260   3.378  1.3185  0.9924 -2.6519
  761MOL0     H 4953   4.349   8.402   3.632 -1.9041 -1.1940 -0.0653
  761MOL0     H 4954   4.333   8.474   3.466  1.2275  0.1422 -1.0481
  761MOL0     H 4955   4.194   8.278   3.410 -1.9939  0.2816  1.3757
  761MOL0     H 4956   4.207   8.219   3.573 -2.6960 -1.8243 -1.2784
  761MOL0     H 4957   4.103   8.433   3.648 -4.8008  2.6454 -0.0028
  761MOL0     H 4958   4.078   8.484   3.478 -3.5513 -2.8857 -3.5761
  761MOL0     H 4959   3.985   8.224   3.579 -1.6442  1.3778  2.5420
  761MOL0     H 4960   3.950   8.300   3.421  0.8448  0.0880  0.0025
  761MOL0     H 4961   3.875   8.455   3.677 -1.1579 -1.4914  1.8225
  761MOL0     H 4962   3.830   8.475   3.511 -0.5352 -0.1688 -0.1203
  761MOL0     H 4963   3.756   8.243   3.703 -0.2668  0.6843  0.6985
  761MOL0     H 4964   3.714   8.259   3.523  0.1368  0.7744 -0.1063
  761MOL0     H 4965   3.580   8.458   3.582  1.3315  0.6999 -0.1106
  761MOL0     H 4966   3.521   8.322   3.682 -0.8450  0.7853 -0.4990
  761MOL0     H 4967   3.743   8.353   3.933 -2.0135 -2.3830 -0.4233
  761MOL0     H 4968   3.743   8.454   4.140 -2.8117 -0.2773 -0.3784
  761MOL0     H 4969   3.674   8.616   4.177  1.0403  1.8887 -0.2232
  761MOL0     H 4970   3.860   8.740   4.102 -1.9581  0.3453  0.6901
  761MOL0     H 4971   3.917   8.631   4.219  2.8665 -2.2652 -1.8225
  761MOL0     H 4972   4.085   8.590   4.092 -1.4266  1.1360 -0.7651
  761MOL0     H 4973   3.987   8.454   4.033  0.1212 -0.5868 -0.4632
  761MOL0     H 4974   3.930   8.559   3.847  0.9533 -1.9107  2.4029
  761MOL0     H 4975   3.979   8.718   3.893 -4.6404 -0.7515 -0.0788
  761MOL0     H 4976   4.158   8.832   3.836 -1.7831 -1.4273  0.7178
  761MOL0     H 4977   4.250   9.058   3.867  0.6579  1.0004 -0.5056
  761MOL0     H 4978   4.419   9.065   3.872 -0.0118  0.1103 -0.0660
  761MOL0     H 4979   4.337   9.058   4.029  0.5047  2.3975 -0.7364
  761MOL0     H 4980   4.634   9.227   4.111  1.4944  1.2599  0.1970
  761MOL0     H 4981   4.832   9.392   4.079  2.0730 -0.4028  1.4618
  761MOL0     H 4982   5.214   9.227   3.946 -0.5848  0.3164  0.5747
  761MOL0     H 4983   5.141   9.257   3.798 -2.5635 -0.0947  0.5006
  761MOL0     H 4984   5.181   9.494   3.809  1.8332  0.7219 -0.0805
  761MOL0     H 4985   5.258   9.480   3.966 -0.9409 -3.0653  1.6528
  761MOL0     H 4986   5.361   9.346   3.698 -4.3625  0.5957 -0.1178
  761MOL0     H 4987   5.437   9.332   3.858  0.0132 -0.7306 -1.8837
  761MOL0     H 4988   5.442   9.596   3.848  0.6027 -0.6946  0.2367
  761MOL0     H 4989   5.373   9.579   3.683 -2.0555 -4.4655 -1.0323
  761MOL0     H 4990   5.634   9.476   3.803 -0.8671  0.5438  1.9889
  761MOL0     H 4991   5.574   9.434   3.640 -0.1319 -1.0233  1.3289
  761MOL0     H 4992   5.658   9.702   3.769 -0.9723  0.0442  0.3132
  761MOL0     H 4993   5.564   9.711   3.613  0.8959 -1.3755 -2.9270
  761MOL0     H 4994   5.763   9.701   3.504  0.5268  1.7216  0.5783
  761MOL0     H 4995   5.759   9.539   3.557 -1.2389  0.3430 -0.5366
  761MOL0     H 4996   5.967   9.609   3.624  0.9078 -0.4173  2.8635
  761MOL0     H 4997   5.884   9.621   3.768 -0.1906  0.2202 -0.8782
  761MOL0     H 4998   5.040   9.057   3.885  0.0243 -0.8885  0.1979
  761MOL0     H 4999   4.858   8.920   3.902 -2.5106 -1.3052  0.5546
  761MOL0     H 5000   4.553   8.600   4.020  0.7052 -0.9861 -0.9004
  761MOL0     H 5001   4.351   8.475   3.920 -0.4446  0.0422 -3.2424
  761MOL0     H 5002   4.678   8.148   3.453  3.3772 -1.3949  0.8312
  761MOL0     H 5003   4.895   8.095   3.383 -1.0377  0.1860  0.0727
  761MOL0     H 5004   5.320   8.323   3.226 -0.9652  1.0568  3.8547
  761MOL0     H 5005   5.566   8.267   3.163 -0.3422  0.0780 -1.1165
  761MOL0     H 5006   5.733   8.158   3.063 -0.9653  1.5890  0.9729
  761MOL0     H 5007   5.835   8.201   3.201  0.0209 -1.6488  2.3225
  761MOL0     H 5008   5.939   8.065   3.006  1.4109 -1.2552  0.7489
  761MOL0     H 5009   5.853   7.925   3.057 -1.4702  0.5028  0.4616
  761MOL0     H 5010   6.082   8.071   3.174 -0.2747  0.5256 -0.8841
  761MOL0     H 5011   5.963   8.013   3.301  1.5057 -0.3399  0.8788
  761MOL0     H 5012   6.164   7.854   3.232  1.8006 -0.6749 -1.8504
  761MOL0     H 5013   6.066   7.815   3.087 -0.9335  0.4691  0.4121
  761MOL0     H 5014   5.872   7.589   3.366 -0.6310 -0.1118 -0.1735
  761MOL0     H 5015   5.571   7.952   3.426  1.1715  1.9053  0.4776
  761MOL0     H 5016   5.199   7.990   3.523  0.9929  2.4161 -2.3436
  761MOL0     H 5017   5.308   7.857   3.477  1.8988  0.3773 -0.8838
  761MOL0     H 5018   5.342   7.979   3.615  0.8570 -0.0535  0.1783
  762MOL0     O 5019   6.592   5.708   8.414 -0.5252 -0.0628  0.3569
  762MOL0     C 5020   6.470   5.715   8.380 -0.2145  0.3641 -0.2438
  762MOL0     O 5021   6.397   5.824   8.356 -0.8547 -0.4808  0.7728
  762MOL0     C 5022   6.375   5.922   8.455  0.2566  0.0985 -1.2027
  762MOL0     C 5023   6.454   5.932   8.573  0.1806 -0.8326  1.0202
  762MOL0     C 5024   6.429   6.032   8.671 -0.4239  0.2001 -0.6394
  762MOL0     C 5025   6.329   6.128   8.641 -0.2966 -0.5906  0.2345
  762MOL0     O 5026   6.294   6.229   8.726 -0.0972  0.0949  0.0606
  762MOL0     C 5027   6.366   6.245   8.854 -0.1733 -0.6389  0.2890
  762MOL0     C 5028   6.403   6.387   8.880  0.2305 -0.6020  0.2682
  762MOL0     C 5029   6.496   6.404   9.001 -0.6191  0.7255 -0.6142
  762MOL0     C 5030   6.562   6.541   9.004  0.3510  0.2483  0.3942
  762MOL0     C 5031   6.674   6.575   9.115  0.1740  0.9836  0.5178
  762MOL0     C 5032   6.610   6.570   9.253  0.0695 -0.8808 -0.2410
  762MOL0     C 5033   6.710   6.539   9.366 -0.0233 -0.1903 -1.8142
  762MOL0     C 5034   6.639   6.571   9.493 -0.5855 -0.0917  0.1576
  762MOL0     N 5035   6.528   6.475   9.509 -1.3780  0.1075 -0.7552
  762MOL0     C 5036   6.522   6.330   9.507 -0.3704 -0.5596 -0.3110
  762MOL0     C 5037   6.389   6.300   9.505  0.3688  0.4431  0.6442
  762MOL0     C 5038   6.334   6.172   9.485 -0.4959 -0.3919 -0.6473
  762MOL0     C 5039   6.391   6.102   9.365 -0.0520  0.4549  0.3393
  762MOL0     C 5040   6.319   6.143   9.242 -0.5116 -0.1716 -0.3092
  762MOL0     C 5041   6.181   6.068   9.224  0.1395 -0.1305 -0.3426
  762MOL0     O 5042   6.143   6.092   9.092  0.1325 -1.2872  0.4028
  762MOL0     C 5043   6.075   5.989   9.031 -0.4592 -1.7012  0.4973
  762MOL0     C 5044   6.106   5.958   8.900  0.0535 -0.5282  0.1008
  762MOL0     C 5045   6.042   5.857   8.828  0.7854 -0.6106 -0.5718
  762MOL0     C 5046   6.094   5.827   8.694 -0.0469 -0.3731  0.2183
  762MOL0     C 5047   5.937   5.787   8.897  0.1396  0.0432  0.9191
  762MOL0     C 5048   5.852   5.677   8.832  0.2507  0.7320 -0.3353
  762MOL0     O 5049   5.723   5.672   8.892  0.4763  0.5460 -0.2560
  762MOL0     C 5050   5.639   5.557   8.874  0.2135 -0.6275 -0.4875
  762MOL0     C 5051   5.580   5.493   8.987  0.7570  0.5899  0.1327
  762MOL0     C 5052   5.508   5.366   8.969 -0.9171 -0.3693 -0.3712
  762MOL0     C 5053   5.496   5.313   8.841 -0.4036 -0.0765 -0.0539
  762MOL0     O 5054   5.414   5.203   8.833  0.0394  0.4938 -0.3634
  762MOL0     C 5055   5.354   5.164   8.707  0.0297 -0.0485  0.8308
  762MOL0     C 5056   5.258   5.045   8.737  0.9337 -0.3787  0.8460
  762MOL0     C 5057   5.321   4.924   8.804 -1.1434 -0.3170  0.5306
  762MOL0     C 5058   5.244   4.788   8.792 -0.1066  0.6359  0.2606
  762MOL0     C 5059   5.141   4.787   8.899 -0.9100 -0.4074  0.4192
  762MOL0     C 5060   5.076   4.645   8.917  0.6687  0.3085 -0.0680
  762MOL0     C 5061   4.983   4.600   8.805 -0.5670 -0.3777 -0.8962
  762MOL0     C 5062   4.862   4.687   8.776  0.3008 -0.3620  0.1248
  762MOL0    Cl 5063   4.763   4.609   8.657 -0.0859 -0.5453 -0.0012
  762MOL0     C 5064   5.536   5.387   8.730  0.3965  0.4004 -0.3835
  762MOL0     C 5065   5.609   5.508   8.743  0.0342 -0.2779  0.1444
  762MOL0     O 5066   5.894   5.604   8.749  0.3360  0.6059  0.0857
  762MOL0     C 5067   5.910   5.825   9.030 -0.0276  0.5788  0.0197
  762MOL0     C 5068   5.972   5.924   9.099  0.5496 -0.4961  0.1565
  762MOL0     N 5069   6.311   6.417   9.526 -0.7230 -0.1812  0.0223
  762MOL0     N 5070   6.400   6.509   9.523  0.1368 -0.7608  0.4078
  762MOL0     C 5071   6.264   6.130   8.519 -0.4894 -0.0948  0.2811
  762MOL0     C 5072   6.285   6.024   8.434  0.7974  0.4489  0.4398
  762MOL0     C 5073   6.394   5.591   8.352  0.1286 -0.5813 -0.5531
  762MOL0     C 5074   6.253   5.611   8.333  0.8635 -0.7249  0.4177
  762MOL0     C 5075   6.176   5.502   8.308  0.4926  1.2701 -0.2741
  762MOL0     C 5076   6.231   5.375   8.295  0.2356  0.0968  0.0122
  762MOL0     O 5077   6.146   5.277   8.253 -0.2041  0.3424 -0.4109
  762MOL0     C 5078   6.193   5.153   8.198  0.2271 -0.2649 -0.2075
  762MOL0     C 5079   6.081   5.065   8.156 -0.0465 -0.9283  0.3358
  762MOL0     C 5080   6.002   5.133   8.051  0.4909 -0.5511 -0.3816
  762MOL0     C 5081   5.872   5.054   8.032  0.1714 -0.2689 -0.1033
  762MOL0     C 5082   5.802   5.098   7.910 -0.5475  0.4361 -0.0591
  762MOL0     C 5083   5.754   5.126   7.804  0.0066 -0.1512 -0.2571
  762MOL0     C 5084   6.362   5.351   8.334  0.7395 -0.1934  0.4661
  762MOL0     C 5085   6.445   5.455   8.360 -1.1759  0.0803 -0.1896
  762MOL0     C 5086   6.588   5.418   8.386 -1.0302 -0.1391  0.5821
  762MOL0     H 5087   6.510   5.842   8.598  2.5789  0.9499  2.3410
  762MOL0     H 5088   6.489   6.028   8.761 -3.5507  1.3578  1.6448
  762MOL0     H 5089   6.458   6.187   8.866 -0.9538 -2.0849 -0.3982
  762MOL0     H 5090   6.298   6.212   8.933  1.7090 -1.3441  1.7054
  762MOL0     H 5091   6.458   6.430   8.796  2.6853  0.2436  2.1673
  762MOL0     H 5092   6.304   6.433   8.891 -0.9989 -3.3197  1.3956
  762MOL0     H 5093   6.436   6.406   9.092  2.1394  0.1004  1.3156
  762MOL0     H 5094   6.568   6.322   8.999 -0.9291  0.4484 -0.4275
  762MOL0     H 5095   6.595   6.560   8.901  0.5315  0.7312  0.5394
  762MOL0     H 5096   6.467   6.596   9.007 -1.3380 -2.4366 -0.1067
  762MOL0     H 5097   6.699   6.680   9.095  3.9691  0.1786  0.2276
  762MOL0     H 5098   6.757   6.503   9.112 -2.0208 -1.6703 -0.8471
  762MOL0     H 5099   6.560   6.667   9.265  1.7934 -0.0570  0.6835
  762MOL0     H 5100   6.541   6.486   9.258  0.2837 -1.2798 -2.6049
  762MOL0     H 5101   6.799   6.601   9.353  2.3889 -3.2437 -1.0212
  762MOL0     H 5102   6.739   6.434   9.359 -2.0094 -0.7653 -1.8625
  762MOL0     H 5103   6.703   6.575   9.582 -0.0964  2.7104 -0.2560
  762MOL0     H 5104   6.604   6.672   9.473 -2.7646 -0.9867 -0.8246
  762MOL0     H 5105   6.595   6.251   9.497 -2.5759 -2.6742 -0.8317
  762MOL0     H 5106   6.226   6.185   9.474 -0.0597  2.5968 -2.5000
  762MOL0     H 5107   6.350   6.117   9.578 -2.2690  1.0136  0.5659
  762MOL0     H 5108   6.497   6.118   9.345 -0.4220 -0.1378 -2.7464
  762MOL0     H 5109   6.388   5.995   9.386 -0.5239  0.1115 -1.2800
  762MOL0     H 5110   6.318   6.252   9.239  1.3553 -0.1236 -0.6713
  762MOL0     H 5111   6.386   6.126   9.158 -0.9573  0.9073 -0.8969
  762MOL0     H 5112   6.188   5.962   9.252  0.2997 -0.3134 -1.0609
  762MOL0     H 5113   6.112   6.119   9.292  2.0291  2.4519 -0.2229
  762MOL0     H 5114   6.189   6.004   8.849  0.1380  1.3903  1.8217
  762MOL0     H 5115   6.187   5.775   8.719  0.8452  0.7793 -0.5848
  762MOL0     H 5116   6.113   5.920   8.638  3.6767 -0.1005  1.6713
  762MOL0     H 5117   6.024   5.767   8.636 -1.9091  2.4434 -0.6603
  762MOL0     H 5118   5.595   5.542   9.083 -0.1655  0.3455  0.4135
  762MOL0     H 5119   5.471   5.313   9.056  1.8834 -2.5271 -0.3446
  762MOL0     H 5120   5.301   5.254   8.675  1.5520  1.1432  1.5577
  762MOL0     H 5121   5.412   5.131   8.620 -1.0115 -5.3527  1.7862
  762MOL0     H 5122   5.168   5.079   8.790  0.3860  1.8006 -1.2622
  762MOL0     H 5123   5.219   5.017   8.639 -2.3579 -0.5719  2.0771
  762MOL0     H 5124   5.329   4.957   8.907 -0.5647 -1.2073  0.7764
  762MOL0     H 5125   5.416   4.914   8.751 -0.5405  2.9332  0.8297
  762MOL0     H 5126   5.313   4.705   8.812 -2.1630 -0.8951  1.2986
  762MOL0     H 5127   5.214   4.766   8.689  1.1229  2.5519 -0.5733
  762MOL0     H 5128   5.193   4.818   8.990  2.4697  1.3281 -1.9283
  762MOL0     H 5129   5.074   4.872   8.879  1.6042  1.0371 -2.6154
  762MOL0     H 5130   5.021   4.669   9.009  2.1050  2.2489  0.3394
  762MOL0     H 5131   5.158   4.575   8.932  2.3800  2.0401 -0.8236
  762MOL0     H 5132   4.951   4.497   8.823  3.2634 -1.3442  1.5641
  762MOL0     H 5133   5.034   4.584   8.710 -2.0780 -0.8577 -1.6625
  762MOL0     H 5134   4.894   4.786   8.742 -0.0806 -0.7415 -1.4016
  762MOL0     H 5135   4.796   4.695   8.863 -0.7293  0.7000 -0.7198
  762MOL0     H 5136   5.521   5.343   8.632 -4.5402  0.5655  0.0880
  762MOL0     H 5137   5.651   5.538   8.648 -0.4832 -0.5346 -0.1714
  762MOL0     H 5138   5.840   5.768   9.091  1.9864 -2.7886 -0.5102
  762MOL0     H 5139   5.948   5.942   9.204  1.1269 -0.3331  0.2640
  762MOL0     H 5140   6.202   6.210   8.480  0.1383 -0.4720 -1.6044
  762MOL0     H 5141   6.230   6.018   8.341  2.2383 -1.3977 -0.3668
  762MOL0     H 5142   6.195   5.703   8.334  0.4284 -0.9737  2.2766
  762MOL0     H 5143   6.069   5.513   8.296 -0.1782  2.7608  4.8321
  762MOL0     H 5144   6.251   5.181   8.109 -1.0374  0.5129 -0.8170
  762MOL0     H 5145   6.256   5.095   8.265 -0.0181 -3.4634 -2.5068
  762MOL0     H 5146   6.023   5.047   8.247 -0.0816 -0.5423  0.3902
  762MOL0     H 5147   6.137   4.981   8.115  1.2054  0.1435 -0.2229
  762MOL0     H 5148   5.959   5.232   8.071  1.0471  0.1009 -2.2234
  762MOL0     H 5149   6.064   5.135   7.961  0.6421 -4.0291 -0.4824
  762MOL0     H 5150   5.809   5.067   8.120 -0.7318 -3.8097 -0.0800
  762MOL0     H 5151   5.901   4.950   8.018 -0.6537 -0.3082 -1.8542
  762MOL0     H 5152   5.720   5.155   7.707  0.6585  0.1647 -0.3986
  762MOL0     H 5153   6.393   5.247   8.336 -1.2476 -0.8752 -1.2945
  762MOL0     H 5154   6.603   5.310   8.391  1.2832 -0.0421 -1.9012
  762MOL0     H 5155   6.657   5.463   8.314  1.2193 -2.5504  1.0595
  762MOL0     H 5156   6.617   5.454   8.485 -1.2477  2.6805 -0.2956
  763MOL0     O 5157   1.015   6.556   3.773 -0.3015  0.1509 -0.1964
  763MOL0     C 5158   1.103   6.567   3.857  0.4315  0.0369 -0.2155
  763MOL0     O 5159   1.135   6.683   3.918  0.0009 -0.1208  0.5604
  763MOL0     C 5160   1.259   6.729   3.902  0.2556  0.2621 -0.2451
  763MOL0     C 5161   1.298   6.838   3.978  0.1852 -0.3636 -0.8488
  763MOL0     C 5162   1.433   6.901   3.976 -0.0956  1.2781 -0.0644
  763MOL0     C 5163   1.533   6.837   3.896  0.8834 -0.4585 -0.6636
  763MOL0     O 5164   1.661   6.890   3.917 -0.4001 -0.9178  0.6273
  763MOL0     C 5165   1.764   6.791   3.932 -0.2455  0.0845  0.9956
  763MOL0     C 5166   1.783   6.739   4.072 -0.1081 -0.7496 -0.0322
  763MOL0     C 5167   1.692   6.633   4.109 -0.4767  0.8133  0.6849
  763MOL0     C 5168   1.725   6.585   4.256  0.2660  0.1005 -0.3515
  763MOL0     C 5169   1.632   6.466   4.286 -0.0848 -1.1326  1.1345
  763MOL0     C 5170   1.663   6.404   4.422 -0.4287  0.4011 -0.4344
  763MOL0     C 5171   1.599   6.272   4.428 -0.5101 -0.0796 -0.2568
  763MOL0     C 5172   1.608   6.231   4.576  0.3920 -0.3568 -0.4261
  763MOL0     N 5173   1.655   6.089   4.576  1.1007 -0.5305  0.1419
  763MOL0     C 5174   1.783   6.050   4.568 -1.2278 -0.0423  0.4083
  763MOL0     C 5175   1.783   5.920   4.552  0.6298  0.9177  0.2542
  763MOL0     C 5176   1.900   5.823   4.534  0.5758  0.7427  0.5594
  763MOL0     C 5177   2.041   5.880   4.577 -0.1099  0.6561 -0.7174
  763MOL0     C 5178   2.036   5.897   4.727  0.3771  0.3926 -0.9771
  763MOL0     C 5179   2.171   5.934   4.781  0.1003 -0.0608 -0.2604
  763MOL0     O 5180   2.263   5.824   4.761  0.3193 -0.3318 -0.4205
  763MOL0     C 5181   2.395   5.841   4.725  0.2891 -0.2960 -0.3213
  763MOL0     C 5182   2.450   5.746   4.637  0.0471 -0.8354 -0.0589
  763MOL0     C 5183   2.581   5.760   4.575 -0.5289  0.9553 -0.5069
  763MOL0     C 5184   2.614   5.663   4.465 -0.5984  0.5920 -0.2518
  763MOL0     C 5185   2.663   5.878   4.605 -0.2557  0.6524 -0.5092
  763MOL0     C 5186   2.797   5.901   4.543  0.2450 -0.9384 -0.5736
  763MOL0     O 5187   2.860   5.803   4.472 -0.1305 -0.1869 -0.3122
  763MOL0     C 5188   2.995   5.802   4.441  0.4068 -0.3124 -0.3165
  763MOL0     C 5189   3.097   5.848   4.525  0.6857 -0.6323  0.2101
  763MOL0     C 5190   3.229   5.843   4.483  0.0310  0.2061  0.3229
  763MOL0     C 5191   3.267   5.787   4.354 -0.7486  1.2590 -0.6535
  763MOL0     O 5192   3.394   5.774   4.319  0.0026  0.1756  0.1161
  763MOL0     C 5193   3.476   5.704   4.406  0.3084  0.6363 -0.8904
  763MOL0     C 5194   3.453   5.545   4.396  0.4045 -0.8811 -0.2761
  763MOL0     C 5195   3.455   5.487   4.250 -0.2539 -0.9160 -0.2473
  763MOL0     C 5196   3.434   5.337   4.253  0.4561 -0.6572 -0.3812
  763MOL0     C 5197   3.396   5.286   4.117 -0.3872  0.0310 -0.0447
  763MOL0     C 5198   3.369   5.141   4.135  0.3817  0.0382 -0.1991
  763MOL0     C 5199   3.353   5.069   4.003  0.1026 -0.2591  0.4509
  763MOL0     C 5200   3.378   4.923   3.990  0.6409  0.4045 -0.1442
  763MOL0    Cl 5201   3.282   4.818   4.113  0.0251  0.3827 -0.3816
  763MOL0     C 5202   3.160   5.748   4.270  0.1851  0.0267  0.3889
  763MOL0     C 5203   3.028   5.748   4.314  0.8151 -0.7729 -0.5284
  763MOL0     O 5204   2.853   5.997   4.592  0.3640 -0.2214  0.1543
  763MOL0     C 5205   2.614   5.964   4.707  0.5261 -1.0582  0.1671
  763MOL0     C 5206   2.477   5.953   4.753  0.4603  1.1270  0.2330
  763MOL0     N 5207   1.648   5.881   4.567  0.3877 -0.3414  0.3087
  763MOL0     N 5208   1.572   5.985   4.584  0.1001  0.3977  0.5815
  763MOL0     C 5209   1.492   6.724   3.826  0.4288 -0.4583 -0.1604
  763MOL0     C 5210   1.363   6.668   3.825  0.5112  0.4289 -0.5860
  763MOL0     C 5211   1.160   6.439   3.897  0.0558 -0.3001 -0.7761
  763MOL0     C 5212   1.171   6.330   3.802  0.3167 -0.3112 -0.2174
  763MOL0     C 5213   1.211   6.204   3.830  0.0836  0.7751  0.8157
  763MOL0     C 5214   1.250   6.179   3.959  0.0361 -0.0606  0.5737
  763MOL0     O 5215   1.308   6.066   3.998  0.1202  0.4386  0.3767
  763MOL0     C 5216   1.288   5.953   3.903 -1.3396 -0.0624  0.1156
  763MOL0     C 5217   1.399   5.961   3.799 -0.3364 -0.1682  0.8154
  763MOL0     C 5218   1.444   5.818   3.755 -0.5207  1.3138 -0.3587
  763MOL0     C 5219   1.550   5.826   3.650  0.4212 -0.2701 -0.2030
  763MOL0     C 5220   1.682   5.879   3.688  0.2414 -0.6069 -0.0181
  763MOL0     C 5221   1.794   5.918   3.707  0.3859 -0.5554  0.1473
  763MOL0     C 5222   1.244   6.277   4.059 -0.8408 -0.3714  0.2237
  763MOL0     C 5223   1.201   6.406   4.033 -0.5977 -0.7324  0.0705
  763MOL0     C 5224   1.187   6.498   4.149  0.4302  0.5101 -0.3092
  763MOL0     H 5225   1.230   6.886   4.048 -0.3046  1.1789 -2.3231
  763MOL0     H 5226   1.471   6.985   4.034 -1.3029  1.1909  0.8871
  763MOL0     H 5227   1.857   6.840   3.904 -0.0529  1.8171  4.1299
  763MOL0     H 5228   1.752   6.706   3.865  1.3021 -1.2340  2.3162
  763MOL0     H 5229   1.885   6.700   4.078 -0.2851 -0.9656  2.2181
  763MOL0     H 5230   1.765   6.814   4.149 -0.1835 -0.6916 -0.1063
  763MOL0     H 5231   1.589   6.668   4.098 -1.5438 -2.1346  0.3737
  763MOL0     H 5232   1.704   6.542   4.049  0.2431  0.7489  0.9102
  763MOL0     H 5233   1.823   6.536   4.258 -0.6233 -1.8076 -0.9840
  763MOL0     H 5234   1.715   6.666   4.329 -0.1916  1.1505 -1.5448
  763MOL0     H 5235   1.662   6.390   4.214 -0.7931 -0.5362  0.1881
  763MOL0     H 5236   1.526   6.482   4.266  0.1721 -2.3500 -1.6032
  763MOL0     H 5237   1.772   6.407   4.427 -0.4155  1.4843 -0.9966
  763MOL0     H 5238   1.622   6.469   4.499 -0.5833 -0.4449  0.2068
  763MOL0     H 5239   1.666   6.207   4.371 -1.2570 -0.5773 -0.5845
  763MOL0     H 5240   1.495   6.273   4.394 -0.3305 -2.6902 -1.0878
  763MOL0     H 5241   1.681   6.295   4.625 -1.0826  2.3239 -1.5257
  763MOL0     H 5242   1.509   6.233   4.624  0.2797 -1.0210 -0.6222
  763MOL0     H 5243   1.875   6.108   4.562  0.3037 -2.4748 -2.9311
  763MOL0     H 5244   1.905   5.783   4.432 -3.0041 -1.8098  1.1926
  763MOL0     H 5245   1.884   5.724   4.579  1.4678  0.0629 -0.5545
  763MOL0     H 5246   2.108   5.800   4.544 -1.1035 -0.0422 -1.0858
  763MOL0     H 5247   2.067   5.969   4.518 -5.0521  2.6940 -0.2367
  763MOL0     H 5248   1.959   5.966   4.761  0.8674  0.2785  0.4434
  763MOL0     H 5249   2.007   5.801   4.771  2.2820 -0.2699 -1.0636
  763MOL0     H 5250   2.204   6.022   4.725  1.5323  1.0836  2.1961
  763MOL0     H 5251   2.149   5.956   4.886  0.2548 -1.8745  0.1953
  763MOL0     H 5252   2.402   5.650   4.619  0.9767 -1.9310  2.7289
  763MOL0     H 5253   2.521   5.619   4.426 -0.9112  1.0218 -0.0008
  763MOL0     H 5254   2.686   5.584   4.488 -0.0496  0.6264 -1.7566
  763MOL0     H 5255   2.655   5.717   4.379  1.2107  0.0426  0.2152
  763MOL0     H 5256   3.065   5.866   4.627 -0.9472 -1.4023 -0.1367
  763MOL0     H 5257   3.299   5.879   4.558 -2.1975  2.2867  1.5362
  763MOL0     H 5258   3.580   5.710   4.372 -0.5998 -2.6884 -5.1998
  763MOL0     H 5259   3.466   5.742   4.508 -1.3976  2.7741 -1.7942
  763MOL0     H 5260   3.533   5.495   4.451 -0.4237 -0.3393  1.4834
  763MOL0     H 5261   3.360   5.517   4.446  1.2687  0.5108  2.2693
  763MOL0     H 5262   3.551   5.512   4.203 -2.1087  4.3330 -1.9139
  763MOL0     H 5263   3.378   5.535   4.188 -0.6043 -1.1381  0.0159
  763MOL0     H 5264   3.362   5.312   4.331  1.8052 -2.5382  0.3361
  763MOL0     H 5265   3.531   5.297   4.285  0.9264  0.0358 -0.9123
  763MOL0     H 5266   3.303   5.332   4.083 -1.1952 -2.1026 -0.8941
  763MOL0     H 5267   3.480   5.309   4.051  0.3725 -1.0446  0.5155
  763MOL0     H 5268   3.282   5.119   4.197  0.0440 -1.8268 -1.2611
  763MOL0     H 5269   3.455   5.100   4.190  1.0041  0.7705 -0.6110
  763MOL0     H 5270   3.406   5.117   3.920 -1.4125  0.4414 -0.1616
  763MOL0     H 5271   3.251   5.084   3.966  1.2725  0.3257 -2.9248
  763MOL0     H 5272   3.484   4.902   4.011  0.0537 -1.2024  1.5140
  763MOL0     H 5273   3.336   4.890   3.894  0.4111  1.1792 -0.3136
  763MOL0     H 5274   3.195   5.714   4.173 -0.1864 -2.0247  0.9247
  763MOL0     H 5275   2.944   5.704   4.261 -0.8368  0.5342  0.8540
  763MOL0     H 5276   2.669   6.048   4.748  1.1196 -1.8993  1.1330
  763MOL0     H 5277   2.445   6.027   4.826 -0.8869  0.2089  0.6234
  763MOL0     H 5278   1.566   6.667   3.770 -0.0257 -0.7655 -0.4645
  763MOL0     H 5279   1.350   6.576   3.769 -0.7073 -0.4991  1.1167
  763MOL0     H 5280   1.114   6.339   3.710  0.0886 -0.2214 -0.0700
  763MOL0     H 5281   1.201   6.130   3.751 -0.7404  2.4029 -0.7132
  763MOL0     H 5282   1.319   5.863   3.957 -0.4370 -0.1159 -0.4671
  763MOL0     H 5283   1.185   5.948   3.868 -0.0829  1.0260 -4.2849
  763MOL0     H 5284   1.483   6.016   3.841 -0.0377 -0.8321  1.1097
  763MOL0     H 5285   1.363   6.007   3.707  0.6943 -0.6169  0.1779
  763MOL0     H 5286   1.468   5.749   3.837 -0.9046  0.2894 -1.0796
  763MOL0     H 5287   1.353   5.771   3.717 -1.1430  1.3872  0.9545
  763MOL0     H 5288   1.497   5.881   3.572 -1.9366  0.4738  1.8183
  763MOL0     H 5289   1.568   5.726   3.609 -0.5848 -1.3404  1.8333
  763MOL0     H 5290   1.896   5.950   3.715  0.0392  0.1884  2.4221
  763MOL0     H 5291   1.265   6.240   4.159  0.3388 -0.2949  0.0207
  763MOL0     H 5292   1.086   6.481   4.187  0.8101 -1.8419 -0.1575
  763MOL0     H 5293   1.254   6.476   4.232 -1.0049 -0.1471  0.7194
  763MOL0     H 5294   1.208   6.600   4.116  1.6731 -0.6001 -3.2982
  764MOL0     O 5295   2.113   5.051   1.370  0.2460 -0.4965  0.5416
  764MOL0     C 5296   2.108   5.130   1.275 -0.5090  0.0061 -0.1280
  764MOL0     O 5297   2.103   5.094   1.139  0.3470  0.3448 -0.3839
  764MOL0     C 5298   2.132   4.966   1.096 -0.2951 -0.0354  0.0421
  764MOL0     C 5299   2.222   4.872   1.158 -0.1905  0.0413  0.4907
  764MOL0     C 5300   2.273   4.766   1.081  0.5922  0.3787 -0.0788
  764MOL0     C 5301   2.216   4.733   0.957 -0.2425 -0.2799  0.0047
  764MOL0     O 5302   2.251   4.617   0.891  0.6160  1.2994 -0.4617
  764MOL0     C 5303   2.139   4.536   0.839  0.0445  0.4524  0.2271
  764MOL0     C 5304   2.168   4.392   0.806  0.0589 -0.1273  0.1042
  764MOL0     C 5305   2.258   4.328   0.913  1.4159  0.2735 -0.1513
  764MOL0     C 5306   2.290   4.180   0.871 -0.0258 -0.5686  0.0813
  764MOL0     C 5307   2.375   4.101   0.965 -0.3984  0.2462 -0.6356
  764MOL0     C 5308   2.418   3.982   0.885 -0.3653  0.8794  0.9024
  764MOL0     C 5309   2.529   3.900   0.962 -0.3667  0.0389  0.0848
  764MOL0     C 5310   2.574   3.779   0.876  0.0753 -0.0606  0.2806
  764MOL0     N 5311   2.693   3.815   0.800 -0.3242  0.8012 -0.3107
  764MOL0     C 5312   2.812   3.848   0.856 -0.7060 -0.5278  0.3131
  764MOL0     C 5313   2.887   3.868   0.746 -0.6038  0.2492  0.7512
  764MOL0     C 5314   3.028   3.923   0.752 -0.4767 -0.1448  0.3242
  764MOL0     C 5315   3.132   3.812   0.721 -0.3317  0.3034 -0.3633
  764MOL0     C 5316   3.188   3.741   0.845 -0.0663 -0.6092  0.1019
  764MOL0     C 5317   3.236   3.833   0.963  0.3136  1.0213 -0.4938
  764MOL0     O 5318   3.282   3.753   1.070  0.9883  0.0894 -0.0340
  764MOL0     C 5319   3.178   3.673   1.129  0.1096 -0.0018  0.6862
  764MOL0     C 5320   3.044   3.706   1.135  0.5281 -0.4290 -0.2499
  764MOL0     C 5321   2.947   3.621   1.191  0.8020 -0.6330  1.2599
  764MOL0     C 5322   2.812   3.686   1.202  0.4231  0.4535  0.3746
  764MOL0     C 5323   2.986   3.496   1.237 -0.1370  0.8034 -1.0478
  764MOL0     C 5324   2.897   3.394   1.285  0.7796  0.0808 -0.1858
  764MOL0     O 5325   2.944   3.288   1.352 -0.0136 -0.1745 -0.1109
  764MOL0     C 5326   2.837   3.219   1.409  0.7183  0.3322 -1.6635
  764MOL0     C 5327   2.803   3.236   1.548  0.2386  0.4936 -0.5732
  764MOL0     C 5328   2.708   3.156   1.608 -0.9592 -0.0358 -0.3492
  764MOL0     C 5329   2.639   3.054   1.531 -0.0105 -0.3199  0.1644
  764MOL0     O 5330   2.565   2.975   1.615 -0.2030 -0.7900 -0.0555
  764MOL0     C 5331   2.451   2.904   1.555 -0.2736  0.8409  0.0803
  764MOL0     C 5332   2.352   2.880   1.669  0.0638 -0.1862 -0.6394
  764MOL0     C 5333   2.287   3.018   1.712 -0.2420 -0.3371  0.1930
  764MOL0     C 5334   2.218   3.019   1.844  0.6568  0.1431 -0.5283
  764MOL0     C 5335   2.091   2.941   1.857  0.3975  0.2057  0.1690
  764MOL0     C 5336   1.973   3.027   1.817 -0.0469 -1.1561 -0.4157
  764MOL0     C 5337   1.837   2.971   1.876 -0.1870  0.0334  0.1343
  764MOL0     C 5338   1.749   3.087   1.891  0.1104 -1.5998  0.9144
  764MOL0    Cl 5339   1.572   3.034   1.898 -0.1274  0.1698 -0.3708
  764MOL0     C 5340   2.663   3.040   1.392 -0.4468 -0.5811  0.4429
  764MOL0     C 5341   2.770   3.115   1.339  0.2304  0.1500  0.3471
  764MOL0     O 5342   2.780   3.408   1.252 -0.4052 -0.0889  0.4843
  764MOL0     C 5343   3.125   3.470   1.239  0.5763  0.7740 -0.8765
  764MOL0     C 5344   3.220   3.549   1.183 -0.5678 -0.6835  0.4545
  764MOL0     N 5345   2.819   3.861   0.633  0.1944  0.5587  0.9459
  764MOL0     N 5346   2.699   3.822   0.659  0.2991  0.1776  0.3005
  764MOL0     C 5347   2.127   4.828   0.894 -0.3380  0.0081 -0.1623
  764MOL0     C 5348   2.090   4.939   0.968  0.7447 -0.0918  0.0734
  764MOL0     C 5349   2.074   5.280   1.305 -0.0329  1.4214 -0.3523
  764MOL0     C 5350   2.040   5.362   1.193  0.4332 -0.2955 -0.0307
  764MOL0     C 5351   2.031   5.501   1.207  0.4520  0.4099  0.8070
  764MOL0     C 5352   2.061   5.572   1.323  0.5078  0.1983 -0.7971
  764MOL0     O 5353   2.074   5.715   1.318 -0.0442  0.6445 -0.0087
  764MOL0     C 5354   2.146   5.792   1.416 -0.2651  0.3103 -0.0861
  764MOL0     C 5355   2.169   5.934   1.364 -0.6571  0.4916  0.2454
  764MOL0     C 5356   2.286   5.942   1.258  0.2008 -0.9980 -0.2337
  764MOL0     C 5357   2.238   5.905   1.120  0.2727  0.2561 -0.9367
  764MOL0     C 5358   2.329   5.946   1.011  0.7292 -0.1075 -1.5041
  764MOL0     C 5359   2.401   5.996   0.920 -0.5585  0.0027  0.2010
  764MOL0     C 5360   2.096   5.495   1.434  0.7908  1.0265  0.0310
  764MOL0     C 5361   2.102   5.351   1.433  0.4788  0.3145 -0.5507
  764MOL0     C 5362   2.144   5.280   1.562 -0.8922 -0.2352 -0.0842
  764MOL0     H 5363   2.259   4.881   1.260 -1.4095 -2.8107  1.2788
  764MOL0     H 5364   2.336   4.691   1.128  1.9345  1.9652  0.7607
  764MOL0     H 5365   2.091   4.590   0.756 -1.2877 -0.2151  0.5338
  764MOL0     H 5366   2.054   4.519   0.906 -0.9659 -2.8188 -1.6806
  764MOL0     H 5367   2.075   4.336   0.791  0.6879 -1.1783  0.0159
  764MOL0     H 5368   2.230   4.384   0.717 -1.0359 -0.5643 -0.6355
  764MOL0     H 5369   2.352   4.385   0.923  2.0167 -0.8496  0.9054
  764MOL0     H 5370   2.213   4.327   1.012  0.1530 -3.8291 -0.5766
  764MOL0     H 5371   2.202   4.124   0.839 -1.3149  0.6037  1.4351
  764MOL0     H 5372   2.352   4.200   0.783  0.8303  2.8568  1.2982
  764MOL0     H 5373   2.322   4.065   1.054 -0.8402 -0.8280 -1.3106
  764MOL0     H 5374   2.449   4.175   0.995 -0.6584 -0.5917  2.4864
  764MOL0     H 5375   2.333   3.918   0.859  1.2569 -0.0138 -2.9717
  764MOL0     H 5376   2.443   4.002   0.780 -3.5830 -1.6129 -0.5402
  764MOL0     H 5377   2.483   3.861   1.053 -0.2378 -1.5887 -0.5127
  764MOL0     H 5378   2.614   3.967   0.978  0.2813  0.8146 -4.7936
  764MOL0     H 5379   2.591   3.704   0.954 -1.0390  1.3775  1.9868
  764MOL0     H 5380   2.499   3.749   0.802 -0.0619 -0.5636  0.6186
  764MOL0     H 5381   2.848   3.845   0.958  0.7167 -3.2157 -0.1793
  764MOL0     H 5382   3.039   3.962   0.853 -1.0106  1.2723 -0.1479
  764MOL0     H 5383   3.052   4.002   0.680  0.1329 -1.2641 -0.7588
  764MOL0     H 5384   3.087   3.736   0.657 -0.3688 -1.0493  1.2016
  764MOL0     H 5385   3.212   3.860   0.663 -0.6783 -0.0293 -1.1320
  764MOL0     H 5386   3.108   3.676   0.881  1.8972 -2.9950  0.3787
  764MOL0     H 5387   3.263   3.669   0.811 -0.3598 -0.7974 -0.1517
  764MOL0     H 5388   3.320   3.889   0.920  1.8089 -0.5104  0.3459
  764MOL0     H 5389   3.169   3.910   1.003  2.0089  2.8169 -0.9480
  764MOL0     H 5390   3.005   3.800   1.096  1.4694  1.0232  2.1140
  764MOL0     H 5391   2.760   3.665   1.109  0.8152 -1.4709  0.5404
  764MOL0     H 5392   2.815   3.794   1.223  0.3883  0.3052  1.2022
  764MOL0     H 5393   2.760   3.637   1.285  0.2196  2.0029  1.2102
  764MOL0     H 5394   2.861   3.286   1.625 -1.3572  0.3549  0.7543
  764MOL0     H 5395   2.690   3.169   1.714  2.7967  0.9822  0.2885
  764MOL0     H 5396   2.397   2.963   1.480  1.9619 -0.5732 -2.8147
  764MOL0     H 5397   2.499   2.816   1.512  2.8249  1.5711  1.7132
  764MOL0     H 5398   2.268   2.812   1.655 -0.3598 -0.3470  2.1172
  764MOL0     H 5399   2.415   2.837   1.749  2.5849  1.4127 -1.6466
  764MOL0     H 5400   2.222   3.047   1.629 -0.0203  0.9262  0.4430
  764MOL0     H 5401   2.366   3.093   1.713 -0.9295  0.4662 -1.7951
  764MOL0     H 5402   2.198   3.125   1.861  0.8812  0.3048 -1.2422
  764MOL0     H 5403   2.291   2.988   1.920  0.9018 -0.2325 -0.9147
  764MOL0     H 5404   2.103   2.846   1.804 -2.0280  0.7362 -1.5024
  764MOL0     H 5405   2.078   2.917   1.963  1.1500  4.0212  1.2711
  764MOL0     H 5406   1.966   3.047   1.709  1.1398 -1.9234 -0.6497
  764MOL0     H 5407   1.995   3.119   1.873  0.8091 -1.9087  0.5233
  764MOL0     H 5408   1.842   2.917   1.972 -2.7556 -0.0868  0.2647
  764MOL0     H 5409   1.784   2.909   1.803 -2.2957 -0.2643  1.7932
  764MOL0     H 5410   1.760   3.147   1.800  2.3420 -3.5145 -0.2111
  764MOL0     H 5411   1.774   3.145   1.980 -0.4628 -0.6492  0.4770
  764MOL0     H 5412   2.620   2.960   1.332  1.9506 -1.4411 -0.2681
  764MOL0     H 5413   2.789   3.091   1.235 -1.5634 -0.6301  0.1626
  764MOL0     H 5414   3.151   3.375   1.284 -2.6022  0.7057  1.1392
  764MOL0     H 5415   3.327   3.528   1.179  0.1187  2.4690 -1.0548
  764MOL0     H 5416   2.106   4.819   0.788  3.1780  0.1459 -1.0187
  764MOL0     H 5417   2.024   5.015   0.929  0.4332 -0.3048  0.1844
  764MOL0     H 5418   2.035   5.325   1.091 -1.2191  1.1387 -0.5122
  764MOL0     H 5419   2.006   5.560   1.120  0.4369 -0.3834  0.2620
  764MOL0     H 5420   2.082   5.809   1.503 -0.9141  2.9171 -0.9861
  764MOL0     H 5421   2.238   5.740   1.443  2.1994  5.2625  2.4589
  764MOL0     H 5422   2.216   5.995   1.443  1.4656  1.0848 -1.3838
  764MOL0     H 5423   2.073   5.976   1.332 -0.4914  0.5506 -0.1820
  764MOL0     H 5424   2.308   6.049   1.260 -1.3387 -0.6461 -0.1327
  764MOL0     H 5425   2.371   5.878   1.280  2.8356  2.0059 -0.9564
  764MOL0     H 5426   2.141   5.951   1.101 -0.9278 -2.8395 -3.1665
  764MOL0     H 5427   2.215   5.798   1.110  1.8432 -0.1634 -0.4452
  764MOL0     H 5428   2.461   6.031   0.838  0.1725  3.0045  1.8748
  764MOL0     H 5429   2.138   5.548   1.519  0.5588  0.3495  0.5753
  764MOL0     H 5430   2.246   5.242   1.557 -0.6797 -0.6931  4.0005
  764MOL0     H 5431   2.147   5.353   1.643  1.0826  0.9910 -1.1977
  764MOL0     H 5432   2.075   5.197   1.584  2.1069 -3.7624 -2.7249
  765MOL0     O 5433   6.052   6.750   2.488 -0.5288  0.1856  0.2484
  765MOL0     C 5434   5.961   6.697   2.553  0.9766 -0.3955 -0.1150
  765MOL0     O 5435   5.824   6.750   2.553 -0.3225  0.8966  0.3503
  765MOL0     C 5436   5.776   6.835   2.462  0.4256  0.0122 -0.1266
  765MOL0     C 5437   5.663   6.903   2.512 -0.0415  0.6422  0.7787
  765MOL0     C 5438   5.596   6.996   2.429 -0.6380  0.2286 -0.3812
  765MOL0     C 5439   5.632   7.012   2.293  0.4343 -0.5868  0.1072
  765MOL0     O 5440   5.546   7.096   2.224  0.0462 -0.3209  0.4435
  765MOL0     C 5441   5.544   7.078   2.084 -0.2565 -0.6489  0.1366
  765MOL0     C 5442   5.467   7.197   2.020  1.0076  0.1017 -0.3080
  765MOL0     C 5443   5.556   7.328   1.985 -0.7636 -0.3438 -0.1579
  765MOL0     C 5444   5.696   7.313   1.915 -0.2777  0.3549  0.1312
  765MOL0     C 5445   5.725   7.444   1.854  0.4548  0.8118  0.5716
  765MOL0     C 5446   5.849   7.438   1.762 -0.4558  0.3738 -0.1688
  765MOL0     C 5447   5.883   7.568   1.698  0.1671 -0.5949 -0.9633
  765MOL0     C 5448   5.999   7.560   1.602 -0.3657  0.6048  1.1030
  765MOL0     N 5449   6.057   7.688   1.566  0.4084 -0.4300 -0.3292
  765MOL0     C 5450   6.096   7.710   1.441  0.2913  0.1413  0.1275
  765MOL0     C 5451   6.152   7.834   1.446  0.5300  0.3304 -0.0197
  765MOL0     C 5452   6.206   7.926   1.343  0.6515 -0.5024  0.5276
  765MOL0     C 5453   6.119   7.930   1.217  0.1113  0.6253 -1.1985
  765MOL0     C 5454   5.991   8.011   1.219  0.2581  0.4343  0.4486
  765MOL0     C 5455   5.872   7.972   1.318 -0.7213  0.0429  0.2766
  765MOL0     O 5456   5.820   7.842   1.277 -0.1567  0.5699 -0.8540
  765MOL0     C 5457   5.732   7.791   1.364  0.8432 -0.4065 -0.4354
  765MOL0     C 5458   5.718   7.654   1.353 -0.0307 -1.0280 -0.2076
  765MOL0     C 5459   5.624   7.580   1.433  0.2602  1.0510  0.0965
  765MOL0     C 5460   5.642   7.429   1.412  1.6535  1.1780  0.8438
  765MOL0     C 5461   5.544   7.644   1.536  1.1744  0.2281  1.1130
  765MOL0     C 5462   5.442   7.577   1.626  1.1608 -0.3152  0.6179
  765MOL0     O 5463   5.420   7.449   1.601  0.6002 -0.4340  0.1955
  765MOL0     C 5464   5.325   7.370   1.670 -0.5339 -1.1608  0.6877
  765MOL0     C 5465   5.316   7.242   1.609  0.4505  0.1379 -0.0344
  765MOL0     C 5466   5.243   7.141   1.662  0.2518 -0.4427 -0.3811
  765MOL0     C 5467   5.155   7.164   1.766 -0.9666  0.8985 -0.2493
  765MOL0     O 5468   5.078   7.080   1.828  0.3091  0.5191  0.6210
  765MOL0     C 5469   5.121   6.942   1.820  0.0214  0.5614 -0.0106
  765MOL0     C 5470   5.080   6.858   1.930  0.4136  0.6024 -0.1908
  765MOL0     C 5471   5.135   6.906   2.062 -0.5096 -0.7945 -1.0165
  765MOL0     C 5472   5.099   6.801   2.174  0.0356 -0.6318  0.4630
  765MOL0     C 5473   5.124   6.852   2.309 -0.4095 -1.1950  0.0803
  765MOL0     C 5474   5.106   6.754   2.431  0.3708  0.2678  0.6745
  765MOL0     C 5475   4.967   6.678   2.428  0.0455  0.2814  0.5190
  765MOL0     C 5476   4.857   6.786   2.434  0.5698  0.0752  0.5729
  765MOL0    Cl 5477   4.700   6.692   2.433  0.2216 -0.1749  0.2610
  765MOL0     C 5478   5.153   7.293   1.818 -0.5257 -0.3412 -0.2169
  765MOL0     C 5479   5.236   7.393   1.769  0.1309  0.0990  0.3201
  765MOL0     O 5480   5.411   7.640   1.722 -0.7296  0.2250  0.1670
  765MOL0     C 5481   5.561   7.790   1.538 -0.0304 -0.2044 -0.8933
  765MOL0     C 5482   5.655   7.856   1.458  0.5329  0.5626  0.2063
  765MOL0     N 5483   6.146   7.878   1.574 -0.7316  1.1800 -0.4660
  765MOL0     N 5484   6.098   7.782   1.647  1.2869 -0.6893 -0.1155
  765MOL0     C 5485   5.747   6.947   2.244 -0.8343  0.2371 -0.8595
  765MOL0     C 5486   5.814   6.858   2.325 -0.0553 -0.5026  0.0123
  765MOL0     C 5487   5.993   6.611   2.674 -0.0819 -0.5297 -0.8073
  765MOL0     C 5488   5.923   6.641   2.794  0.4964  0.0459  0.6635
  765MOL0     C 5489   5.934   6.556   2.907 -0.0948  0.5877  0.2748
  765MOL0     C 5490   6.014   6.442   2.907 -0.7789 -0.3526 -0.2115
  765MOL0     O 5491   6.032   6.384   3.029  0.2571  0.3497 -0.0621
  765MOL0     C 5492   6.129   6.278   3.040  0.1387  0.4911 -0.0628
  765MOL0     C 5493   6.092   6.203   3.172  0.0963  0.6193 -0.5186
  765MOL0     C 5494   6.163   6.074   3.200  0.1137 -0.4945  0.2420
  765MOL0     C 5495   6.205   5.988   3.082  0.2640  0.2805  0.3623
  765MOL0     C 5496   6.320   6.053   3.009 -0.0096  0.6933  1.2673
  765MOL0     C 5497   6.422   6.103   2.964  0.3734 -0.4701 -0.0984
  765MOL0     C 5498   6.082   6.421   2.791  0.6292  0.1244  1.0778
  765MOL0     C 5499   6.077   6.500   2.674  0.7219 -1.8127  0.1571
  765MOL0     C 5500   6.164   6.472   2.560  0.5209  0.3038 -0.1459
  765MOL0     H 5501   5.636   6.895   2.617  1.1375  1.0864  1.1290
  765MOL0     H 5502   5.507   7.042   2.471  0.1057  1.5304 -0.1324
  765MOL0     H 5503   5.489   6.985   2.073 -1.5608 -0.1413  1.9412
  765MOL0     H 5504   5.643   7.071   2.037  1.2675  1.4033  2.7545
  765MOL0     H 5505   5.422   7.149   1.932 -0.9217 -3.1628  2.2377
  765MOL0     H 5506   5.377   7.232   2.071  0.8695  3.6245 -2.6562
  765MOL0     H 5507   5.489   7.390   1.925  1.1199  2.0980  0.1153
  765MOL0     H 5508   5.584   7.375   2.080  1.1145  0.5449 -1.1018
  765MOL0     H 5509   5.767   7.278   1.990 -0.3341 -1.5368 -0.6316
  765MOL0     H 5510   5.677   7.229   1.847 -2.0392 -0.9897  2.1395
  765MOL0     H 5511   5.739   7.526   1.925  0.8983 -1.1455  2.8742
  765MOL0     H 5512   5.645   7.463   1.782  0.0762  1.2403  1.0924
  765MOL0     H 5513   5.939   7.404   1.814 -0.3144  0.3837 -0.4085
  765MOL0     H 5514   5.828   7.370   1.678  1.6341  0.8978 -1.1714
  765MOL0     H 5515   5.910   7.641   1.775  0.9255  1.0719 -2.7201
  765MOL0     H 5516   5.806   7.615   1.637 -2.1745  0.9742  2.8395
  765MOL0     H 5517   6.080   7.500   1.645  1.6908  2.1324 -0.4442
  765MOL0     H 5518   5.966   7.519   1.506  2.2901  0.4264  0.1814
  765MOL0     H 5519   6.077   7.649   1.354  2.4259  1.2206 -1.1909
  765MOL0     H 5520   6.304   7.894   1.307 -0.0991  0.0053 -2.2119
  765MOL0     H 5521   6.212   8.029   1.379  0.0594 -0.4703  0.5361
  765MOL0     H 5522   6.187   7.973   1.144  3.2375 -1.3335  0.3481
  765MOL0     H 5523   6.094   7.831   1.178 -1.8696  0.6468 -0.1355
  765MOL0     H 5524   6.030   8.111   1.239  0.8066  0.2374  0.3932
  765MOL0     H 5525   5.945   8.009   1.120  0.4802  1.3861  0.3146
  765MOL0     H 5526   5.914   7.974   1.419  1.9435  0.1888 -0.7589
  765MOL0     H 5527   5.796   8.051   1.316 -1.1043 -0.3082  0.7586
  765MOL0     H 5528   5.786   7.608   1.283 -0.0456 -2.6699  0.8138
  765MOL0     H 5529   5.561   7.392   1.349  3.2101  1.7380 -1.6130
  765MOL0     H 5530   5.629   7.375   1.506 -0.7344 -2.1324 -1.1815
  765MOL0     H 5531   5.733   7.405   1.357 -0.4309  1.8594 -3.3103
  765MOL0     H 5532   5.364   7.198   1.522 -2.5453  0.0614 -1.7575
  765MOL0     H 5533   5.244   7.048   1.607  0.7305  0.5819 -2.1751
  765MOL0     H 5534   5.095   6.893   1.726 -1.3545  1.3726 -0.0855
  765MOL0     H 5535   5.229   6.933   1.829  0.0052 -1.5598 -1.2215
  765MOL0     H 5536   4.970   6.863   1.930  0.2116 -2.0359 -1.6075
  765MOL0     H 5537   5.104   6.753   1.912  1.2785  0.9878 -1.3698
  765MOL0     H 5538   5.093   7.003   2.090 -2.0259 -2.2726  2.4388
  765MOL0     H 5539   5.244   6.915   2.059 -0.4296 -1.5539 -0.7602
  765MOL0     H 5540   5.155   6.708   2.163  2.5881  0.1626  4.3981
  765MOL0     H 5541   4.995   6.769   2.165 -0.3281  0.4966  0.5227
  765MOL0     H 5542   5.229   6.884   2.311 -1.0292  0.9270  1.3519
  765MOL0     H 5543   5.063   6.941   2.325 -0.6652 -1.6063  1.5788
  765MOL0     H 5544   5.128   6.812   2.522 -1.2745 -1.5472  2.3209
  765MOL0     H 5545   5.184   6.678   2.420 -1.9267 -2.0955 -0.3907
  765MOL0     H 5546   4.961   6.606   2.510  1.0074 -0.2998  0.0964
  765MOL0     H 5547   4.950   6.627   2.333 -2.2377  2.2842 -0.2478
  765MOL0     H 5548   4.853   6.842   2.340 -0.3532  0.8418  1.0514
  765MOL0     H 5549   4.880   6.848   2.521  3.2296 -0.0526  0.0475
  765MOL0     H 5550   5.094   7.325   1.903  0.0454  2.5840 -0.8394
  765MOL0     H 5551   5.245   7.491   1.815  1.4594 -0.0214  0.3572
  765MOL0     H 5552   5.496   7.847   1.603  0.2250 -2.3069  1.3596
  765MOL0     H 5553   5.656   7.964   1.459  2.0939  0.6482 -2.6493
  765MOL0     H 5554   5.786   6.964   2.144 -0.3672  1.4831 -0.4878
  765MOL0     H 5555   5.895   6.799   2.281 -1.0463 -3.2500  1.6016
  765MOL0     H 5556   5.856   6.726   2.810  0.5887  0.4151 -0.7484
  765MOL0     H 5557   5.876   6.571   2.997 -0.0011  1.6871  0.1684
  765MOL0     H 5558   6.135   6.216   2.950 -0.5363  1.9090 -1.1112
  765MOL0     H 5559   6.231   6.317   3.042  0.5572 -0.0768 -3.6830
  765MOL0     H 5560   5.984   6.184   3.179  0.4396 -1.0904  0.6003
  765MOL0     H 5561   6.107   6.270   3.258 -1.1082  1.9631 -1.2971
  765MOL0     H 5562   6.249   6.091   3.266 -0.4961  2.0168  0.4890
  765MOL0     H 5563   6.097   6.018   3.268  0.6664  1.8963  2.9518
  765MOL0     H 5564   6.125   5.954   3.016 -2.5919  1.2125  3.0798
  765MOL0     H 5565   6.238   5.896   3.132 -1.0547  0.5693  1.8666
  765MOL0     H 5566   6.504   6.152   2.917 -0.4931 -0.3837 -1.5958
  765MOL0     H 5567   6.158   6.343   2.789  2.0218  1.4476 -0.5021
  765MOL0     H 5568   6.244   6.547   2.553  0.9154 -0.1158 -0.1838
  765MOL0     H 5569   6.212   6.374   2.566  1.0822  0.3565 -2.7248
  765MOL0     H 5570   6.104   6.466   2.470 -2.4893 -1.3946  1.8193
  766MOL0     O 5571   0.709   0.001   8.300 -0.4938  0.2086 -0.4058
  766MOL0     C 5572   0.822  -0.013   8.354 -0.3269  0.6408  0.0492
  766MOL0     O 5573   0.840  -0.037   8.488 -0.4987 -0.1202  0.4073
  766MOL0     C 5574   0.735  -0.017   8.578 -0.0252 -0.7832  0.2830
  766MOL0     C 5575   0.700  -0.129   8.659  0.2027 -0.5043 -0.4624
  766MOL0     C 5576   0.602  -0.121   8.752  0.4815 -0.0261  0.8847
  766MOL0     C 5577   0.530  -0.009   8.774 -0.3716  0.2494  0.7481
  766MOL0     O 5578   0.429  -0.013   8.870  0.9256 -0.4647 -0.2827
  766MOL0     C 5579   0.440   0.092   8.974 -0.6820  0.6780  0.0466
  766MOL0     C 5580   0.572   0.083   9.069 -0.0731  1.0501  0.4448
  766MOL0     C 5581   0.545   0.006   9.200 -0.5228 -0.1914  0.4428
  766MOL0     C 5582   0.674  -0.031   9.279  0.1755  0.5567  0.1627
  766MOL0     C 5583   0.716   0.072   9.382 -0.3413  0.7563 -0.1225
  766MOL0     C 5584   0.843   0.034   9.452 -0.2675  0.1551 -0.9264
  766MOL0     C 5585   0.907   0.153   9.531 -0.3423  0.0276 -0.4055
  766MOL0     C 5586   1.033   0.113   9.593  0.2017 -0.1290  0.4407
  766MOL0     N 5587   1.058  -0.015   9.662  0.0436  0.0040  0.9562
  766MOL0     C 5588   1.070  -0.030   9.798  0.9935  0.0127 -0.4190
  766MOL0     C 5589   1.092  -0.153   9.833 -0.1300 -0.3729 -0.1453
  766MOL0     C 5590   1.111  -0.205   9.981  0.5770 -0.2461 -1.1016
  766MOL0     C 5591   0.981  -0.208  10.052  0.6754 -0.1753  0.9682
  766MOL0     C 5592   1.010  -0.206  10.203 -0.5060 -0.4722  0.3175
  766MOL0     C 5593   1.072  -0.332  10.258  0.1809 -0.3449 -0.1198
  766MOL0     O 5594   1.032  -0.359  10.398 -0.1752  0.3861 -0.2181
  766MOL0     C 5595   1.055  -0.260  10.490  0.0300  0.8309 -0.1588
  766MOL0     C 5596   1.187  -0.243  10.536  0.3839 -1.1769 -0.4312
  766MOL0     C 5597   1.227  -0.136  10.627  1.3146 -0.3834  0.2202
  766MOL0     C 5598   1.371  -0.131  10.660 -0.1105 -0.3361  0.3630
  766MOL0     C 5599   1.131  -0.054  10.681 -0.5562 -0.5145 -1.0397
  766MOL0     C 5600   1.163   0.056  10.779  1.1384 -1.4710  0.1939
  766MOL0     O 5601   1.053   0.123  10.828  0.0083 -0.1479  0.5744
  766MOL0     C 5602   1.076   0.236  10.905  0.7805  0.4033 -0.2508
  766MOL0     C 5603   0.976   0.262  11.006 -0.1368  0.0962  0.3684
  766MOL0     C 5604   0.982   0.385  11.074 -0.7454 -0.1581 -0.0442
  766MOL0     C 5605   1.078   0.481  11.038 -0.0299 -0.4843 -0.5781
  766MOL0     O 5606   1.091   0.600  11.098 -0.1503 -0.8198  0.3070
  766MOL0     C 5607   0.997   0.654  11.191 -0.4587  0.2568 -0.3674
  766MOL0     C 5608   0.864   0.686  11.121  0.2781 -0.4583 -0.2266
  766MOL0     C 5609   0.773   0.768  11.212  0.2499  0.0580 -0.8206
  766MOL0     C 5610   0.689   0.880  11.136  1.3860 -0.0248 -1.2279
  766MOL0     C 5611   0.615   0.838  11.010  1.3841  0.4674  0.8285
  766MOL0     C 5612   0.592   0.948  10.913  0.5303  0.6733 -0.2513
  766MOL0     C 5613   0.485   0.914  10.814  0.3387 -0.0049  0.2770
  766MOL0     C 5614   0.440   1.042  10.735  1.3207  0.3980 -0.4233
  766MOL0    Cl 5615   0.577   1.091  10.631 -0.3859 -0.3847  0.1746
  766MOL0     C 5616   1.161   0.460  10.932  0.5157 -1.6825 -0.8248
  766MOL0     C 5617   1.153   0.345  10.862  0.0367  0.4260 -0.6626
  766MOL0     O 5618   1.280   0.086  10.802  0.1592 -0.7495  0.4654
  766MOL0     C 5619   0.994  -0.068  10.638 -0.7732 -0.7970  0.1417
  766MOL0     C 5620   0.964  -0.159  10.539 -0.5550  0.8792 -0.0219
  766MOL0     N 5621   1.105  -0.219   9.708  0.6129 -0.5530  0.3440
  766MOL0     N 5622   1.111  -0.127   9.620  0.8863  0.0475 -0.0015
  766MOL0     C 5623   0.561   0.100   8.701 -0.0777  0.4769  0.5231
  766MOL0     C 5624   0.655   0.101   8.600 -0.3050  1.1550  1.0498
  766MOL0     C 5625   0.945  -0.017   8.256  0.6248  0.5021  0.5970
  766MOL0     C 5626   1.056  -0.096   8.297 -0.0548 -0.5087  0.5474
  766MOL0     C 5627   1.168  -0.109   8.219  0.4840  0.1610 -0.3088
  766MOL0     C 5628   1.169  -0.055   8.092  1.2924 -0.5269 -0.3782
  766MOL0     O 5629   1.285  -0.060   8.025 -0.2215  0.2192 -0.1762
  766MOL0     C 5630   1.396  -0.001   8.092  0.4682  0.0060  0.2405
  766MOL0     C 5631   1.376   0.157   8.095 -0.8201  0.3001 -0.0793
  766MOL0     C 5632   1.517   0.218   8.095 -0.6996 -0.7769  0.0961
  766MOL0     C 5633   1.592   0.208   7.967 -0.0128 -0.8340 -0.1933
  766MOL0     C 5634   1.735   0.201   7.992  0.2533 -0.5563 -0.1820
  766MOL0     C 5635   1.854   0.178   7.999 -0.3232 -0.2318  0.6646
  766MOL0     C 5636   1.063   0.031   8.048  0.7460  1.2508 -0.1261
  766MOL0     C 5637   0.947   0.045   8.130  0.1700 -0.5682 -0.0166
  766MOL0     C 5638   0.835   0.135   8.069 -0.2198 -0.0844  0.1629
  766MOL0     H 5639   0.755  -0.223   8.660 -0.4470 -0.8859  0.9568
  766MOL0     H 5640   0.579  -0.213   8.806  1.0202 -1.8201 -1.7246
  766MOL0     H 5641   0.353   0.084   9.040 -1.9014  0.1121 -1.5784
  766MOL0     H 5642   0.431   0.190   8.925 -1.8513 -0.1495 -1.4428
  766MOL0     H 5643   0.665   0.055   9.018  0.6727  1.5680  1.4881
  766MOL0     H 5644   0.587   0.187   9.099 -1.9144  1.3970  0.2496
  766MOL0     H 5645   0.473   0.057   9.266 -2.2456 -0.6554 -0.9974
  766MOL0     H 5646   0.512  -0.097   9.184 -0.7658 -0.6249  3.1975
  766MOL0     H 5647   0.658  -0.121   9.339 -1.1131  0.6509 -0.0166
  766MOL0     H 5648   0.748  -0.057   9.202  1.7786  4.9159 -0.0428
  766MOL0     H 5649   0.629   0.084   9.448 -0.4020 -1.1236  0.2219
  766MOL0     H 5650   0.728   0.170   9.337 -1.0922  0.5799 -0.7178
  766MOL0     H 5651   0.823  -0.048   9.521 -0.0613  0.8270 -0.0544
  766MOL0     H 5652   0.913  -0.005   9.377  1.2108 -1.1189  1.0183
  766MOL0     H 5653   0.839   0.177   9.613 -0.7330 -3.0422  0.3026
  766MOL0     H 5654   0.893   0.243   9.470 -4.5611  0.8182  1.3809
  766MOL0     H 5655   1.112   0.120   9.517  1.0070 -1.3708  1.1220
  766MOL0     H 5656   1.066   0.195   9.657 -2.5518  1.2532  0.2290
  766MOL0     H 5657   1.072   0.053   9.867  0.2304 -0.9038  0.7516
  766MOL0     H 5658   1.181  -0.132  10.022 -0.7266 -0.9286  2.7636
  766MOL0     H 5659   1.164  -0.301   9.979  1.7227  0.2844  0.7384
  766MOL0     H 5660   0.922  -0.125  10.011  0.3869 -1.6385 -1.7545
  766MOL0     H 5661   0.931  -0.302  10.027  1.3313 -0.1066 -0.7280
  766MOL0     H 5662   1.069  -0.117  10.226  0.7295 -1.0534 -0.4548
  766MOL0     H 5663   0.916  -0.184  10.254  0.3805 -0.4883  2.0331
  766MOL0     H 5664   1.055  -0.420  10.195  3.1701 -1.3377  0.3322
  766MOL0     H 5665   1.177  -0.301  10.254 -0.2108  1.1241  0.1489
  766MOL0     H 5666   1.271  -0.300  10.497  0.5330 -1.2343 -0.0316
  766MOL0     H 5667   1.378  -0.166  10.763 -0.4078 -0.7418  0.2515
  766MOL0     H 5668   1.409  -0.030  10.641  0.9426 -0.0206  3.5324
  766MOL0     H 5669   1.434  -0.201  10.604 -0.1957 -0.7980  0.8407
  766MOL0     H 5670   0.906   0.190  11.047 -0.3672  0.6434  0.9431
  766MOL0     H 5671   0.920   0.415  11.158 -1.9899  0.5073 -1.1377
  766MOL0     H 5672   0.989   0.584  11.276  0.2788  1.2672  0.5661
  766MOL0     H 5673   1.048   0.737  11.241  1.2913 -1.7906  1.4862
  766MOL0     H 5674   0.894   0.756  11.041 -0.4116  1.1182  0.8420
  766MOL0     H 5675   0.809   0.604  11.075 -2.5755 -0.0589  2.1896
  766MOL0     H 5676   0.827   0.809  11.298 -1.8522  0.5368  0.3448
  766MOL0     H 5677   0.707   0.699  11.265  1.5752 -0.7910 -0.2136
  766MOL0     H 5678   0.747   0.971  11.123 -0.0903  0.7885 -2.5108
  766MOL0     H 5679   0.611   0.919  11.202  1.6714 -0.3507 -0.6896
  766MOL0     H 5680   0.664   0.754  10.960 -3.6667 -3.0414  1.0348
  766MOL0     H 5681   0.523   0.792  11.047  1.5740  0.7100  1.6375
  766MOL0     H 5682   0.689   0.985  10.877 -0.3947  1.5093 -2.0172
  766MOL0     H 5683   0.554   1.032  10.973 -0.3662  0.0050  0.1327
  766MOL0     H 5684   0.396   0.888  10.872 -0.0130  2.2990  0.9070
  766MOL0     H 5685   0.515   0.826  10.757  0.7554 -1.6503  2.8717
  766MOL0     H 5686   0.396   1.123  10.794  1.7158  0.6895 -0.5209
  766MOL0     H 5687   0.355   1.015  10.671  0.5605  2.0808 -0.1654
  766MOL0     H 5688   1.233   0.536  10.904  0.4047 -1.3505 -0.2241
  766MOL0     H 5689   1.213   0.339  10.772  1.7995  1.2287  0.3883
  766MOL0     H 5690   0.916  -0.006  10.682 -1.3967 -1.4980  0.0396
  766MOL0     H 5691   0.858  -0.171  10.522 -0.3780 -3.9170  0.9811
  766MOL0     H 5692   0.498   0.184   8.728 -1.0907  0.3712 -1.3765
  766MOL0     H 5693   0.658   0.188   8.535  0.2747  1.2415  1.1900
  766MOL0     H 5694   1.060  -0.140   8.396  0.3510 -0.2344  0.6519
  766MOL0     H 5695   1.256  -0.166   8.246  1.7210  0.2491 -3.7915
  766MOL0     H 5696   1.393  -0.043   8.193 -1.7377  0.1196  0.2855
  766MOL0     H 5697   1.488  -0.030   8.041 -0.3388  0.2127 -1.4040
  766MOL0     H 5698   1.323   0.182   8.187 -0.3803  0.3279  0.1694
  766MOL0     H 5699   1.317   0.191   8.010 -0.4910 -1.1277 -0.9100
  766MOL0     H 5700   1.517   0.325   8.121  0.4666 -0.8581  0.5066
  766MOL0     H 5701   1.575   0.180   8.180  1.8756  1.2993 -0.5767
  766MOL0     H 5702   1.572   0.300   7.911  0.8856  0.0680  0.8999
  766MOL0     H 5703   1.547   0.128   7.908 -1.0313  0.2282 -0.8916
  766MOL0     H 5704   1.957   0.154   8.015 -0.1022  1.6489  2.4870
  766MOL0     H 5705   1.081   0.066   7.947  1.8729  0.5504 -0.1836
  766MOL0     H 5706   0.751   0.068   8.047  1.2613 -1.4245 -1.8627
  766MOL0     H 5707   0.804   0.219   8.131  1.1236 -0.9869  2.1368
  766MOL0     H 5708   0.867   0.184   7.976 -0.1054 -0.7728 -0.1687
  767MOL0     O 5709   2.074   0.492   9.478  0.3974  0.1337  0.1266
  767MOL0     C 5710   2.084   0.518   9.360  0.2942  0.7946 -0.2420
  767MOL0     O 5711   2.197   0.487   9.290 -0.3203 -0.9873  0.2350
  767MOL0     C 5712   2.269   0.373   9.319  0.2184 -0.0897  0.1846
  767MOL0     C 5713   2.394   0.368   9.263  0.2281  0.0707  0.1051
  767MOL0     C 5714   2.472   0.247   9.272  1.0569  0.8800 -0.6152
  767MOL0     C 5715   2.428   0.142   9.341 -0.8920 -0.1386  0.3113
  767MOL0     O 5716   2.522   0.037   9.352  1.0088 -0.4809  0.4656
  767MOL0     C 5717   2.461  -0.089   9.305 -0.3493 -0.5693 -0.8427
  767MOL0     C 5718   2.558  -0.201   9.314 -0.5946  0.8069  0.2232
  767MOL0     C 5719   2.663  -0.195   9.204  0.1012  0.7066  0.1493
  767MOL0     C 5720   2.775  -0.296   9.223 -0.4183  0.0145 -0.0112
  767MOL0     C 5721   2.874  -0.305   9.107 -0.0759 -0.0238 -1.2781
  767MOL0     C 5722   2.980  -0.413   9.151  0.7311 -0.0965 -0.3974
  767MOL0     C 5723   3.085  -0.422   9.042  0.0879 -0.3585 -0.1056
  767MOL0     C 5724   3.204  -0.507   9.090  0.5384 -1.3484 -0.3787
  767MOL0     N 5725   3.306  -0.500   8.985  0.2323  0.1204 -0.2546
  767MOL0     C 5726   3.284  -0.526   8.845 -1.0173 -0.6148  0.3495
  767MOL0     C 5727   3.407  -0.531   8.792  0.2992 -0.0291 -0.3842
  767MOL0     C 5728   3.440  -0.543   8.640  0.1883  0.3845 -0.2325
  767MOL0     C 5729   3.488  -0.690   8.610  0.0039 -0.5913  0.0555
  767MOL0     C 5730   3.517  -0.714   8.458  1.6060  0.1911 -0.1835
  767MOL0     C 5731   3.621  -0.619   8.401  0.7313  0.3497 -0.0940
  767MOL0     O 5732   3.593  -0.600   8.264 -0.7739  0.0349 -0.1476
  767MOL0     C 5733   3.654  -0.487   8.203 -0.2599 -0.6281 -0.0466
  767MOL0     C 5734   3.587  -0.412   8.110  0.3385  0.2224 -0.1705
  767MOL0     C 5735   3.638  -0.294   8.037  0.0240  0.3763 -0.1775
  767MOL0     C 5736   3.553  -0.208   7.945  0.3149 -0.1342 -0.1990
  767MOL0     C 5737   3.772  -0.263   8.063  0.2348 -0.1176  0.0260
  767MOL0     C 5738   3.836  -0.138   8.008  0.4279 -0.3320 -0.7129
  767MOL0     O 5739   3.893  -0.050   8.090  0.2694  0.0958 -0.4003
  767MOL0     C 5740   3.946   0.075   8.046 -0.5769 -0.7958  0.7564
  767MOL0     C 5741   4.086   0.101   8.063  0.1361 -0.7314 -0.3406
  767MOL0     C 5742   4.137   0.224   8.032 -0.3695 -0.0561  0.2222
  767MOL0     C 5743   4.057   0.319   7.964  0.3625 -0.2971  0.3446
  767MOL0     O 5744   4.101   0.443   7.924 -0.0146 -0.0487 -1.1237
  767MOL0     C 5745   4.231   0.477   7.963  1.0404  0.3336 -0.5042
  767MOL0     C 5746   4.287   0.596   7.887 -0.7221 -0.0818  0.6208
  767MOL0     C 5747   4.442   0.614   7.913  0.6940 -1.1927 -0.5865
  767MOL0     C 5748   4.490   0.739   7.830 -0.1407  0.7610  0.4834
  767MOL0     C 5749   4.612   0.804   7.902 -0.5248 -0.0455  0.3419
  767MOL0     C 5750   4.710   0.868   7.802  0.4803 -0.5024  0.3469
  767MOL0     C 5751   4.856   0.873   7.860  0.3299  0.5529 -0.8956
  767MOL0     C 5752   4.861   0.933   7.998 -0.1739  0.2400 -0.7660
  767MOL0    Cl 5753   4.766   1.088   8.019  0.3999  0.0233  0.5175
  767MOL0     C 5754   3.920   0.289   7.941  0.1050 -0.2819 -0.5509
  767MOL0     C 5755   3.872   0.170   7.986  0.2601 -0.1969  0.5206
  767MOL0     O 5756   3.823  -0.118   7.887 -0.3009  0.5405  0.2199
  767MOL0     C 5757   3.847  -0.354   8.144  0.2834 -0.1351 -0.0245
  767MOL0     C 5758   3.792  -0.463   8.212  0.0596 -0.0270 -0.7894
  767MOL0     N 5759   3.500  -0.518   8.903  0.5647 -0.1832  0.0487
  767MOL0     N 5760   3.435  -0.510   9.013  0.3117  0.7753  0.9665
  767MOL0     C 5761   2.306   0.145   9.408 -0.0436  0.2666 -0.2092
  767MOL0     C 5762   2.222   0.257   9.387  1.4169 -0.1146 -0.2935
  767MOL0     C 5763   1.972   0.587   9.299  0.0029 -0.3496 -0.1694
  767MOL0     C 5764   1.997   0.683   9.205  0.2389  0.0247 -0.5756
  767MOL0     C 5765   1.903   0.762   9.147 -0.5591 -0.8658  0.0291
  767MOL0     C 5766   1.765   0.739   9.174  0.0416 -0.5805 -0.0443
  767MOL0     O 5767   1.670   0.825   9.131 -0.7466  0.2592  0.1242
  767MOL0     C 5768   1.648   0.821   8.988 -0.5701 -0.3215 -0.7142
  767MOL0     C 5769   1.645   0.964   8.931 -1.1066 -0.4349 -0.6814
  767MOL0     C 5770   1.504   1.027   8.955 -0.0723 -0.5765 -1.0500
  767MOL0     C 5771   1.404   1.008   8.842  0.3256 -0.1410  0.1529
  767MOL0     C 5772   1.266   1.041   8.874  0.6313  0.0617  0.3804
  767MOL0     C 5773   1.151   1.054   8.917  0.2277  1.2402  1.1510
  767MOL0     C 5774   1.736   0.632   9.250  0.3020  0.0815  0.2520
  767MOL0     C 5775   1.833   0.569   9.332 -0.1774  0.3666  0.3180
  767MOL0     C 5776   1.777   0.476   9.437 -0.2364 -0.6167  0.0305
  767MOL0     H 5777   2.425   0.439   9.187 -2.4007  1.0911 -0.1152
  767MOL0     H 5778   2.564   0.245   9.214  0.3895  3.9437 -1.9614
  767MOL0     H 5779   2.415  -0.082   9.206 -1.2716 -3.0965 -0.6680
  767MOL0     H 5780   2.379  -0.108   9.374  1.6904 -0.6723  1.7217
  767MOL0     H 5781   2.618  -0.215   9.404  1.4046  0.4653 -1.1006
  767MOL0     H 5782   2.494  -0.290   9.310 -0.4731  0.7638 -1.3307
  767MOL0     H 5783   2.622  -0.221   9.106  0.9828 -2.0625  0.4112
  767MOL0     H 5784   2.691  -0.090   9.203  0.5844  0.5831  0.3585
  767MOL0     H 5785   2.833  -0.285   9.315  1.6388 -0.7647 -1.1445
  767MOL0     H 5786   2.735  -0.398   9.227  3.3881 -1.6802 -0.6469
  767MOL0     H 5787   2.921  -0.207   9.092 -0.4136  0.1569 -1.1697
  767MOL0     H 5788   2.816  -0.325   9.017 -0.8374 -0.0582 -0.7879
  767MOL0     H 5789   3.037  -0.379   9.238  2.0688 -0.2510 -1.1747
  767MOL0     H 5790   2.923  -0.505   9.169 -0.1043  0.2561 -1.1483
  767MOL0     H 5791   3.115  -0.318   9.027 -0.3898  0.0445  1.5559
  767MOL0     H 5792   3.034  -0.465   8.955 -0.4543  2.5732 -1.3663
  767MOL0     H 5793   3.241  -0.455   9.179 -1.1491  1.2453 -1.0958
  767MOL0     H 5794   3.181  -0.613   9.103  0.8390 -1.1856  2.1247
  767MOL0     H 5795   3.195  -0.520   8.783  0.1212  1.0793 -1.2423
  767MOL0     H 5796   3.525  -0.476   8.620 -1.7910  2.5859 -1.7665
  767MOL0     H 5797   3.354  -0.518   8.577 -2.4491 -2.5285  1.9073
  767MOL0     H 5798   3.575  -0.721   8.669 -0.1927 -2.0799 -0.3848
  767MOL0     H 5799   3.399  -0.747   8.640 -2.9713  3.1198 -0.9065
  767MOL0     H 5800   3.530  -0.818   8.429  0.6267  0.5484 -2.0337
  767MOL0     H 5801   3.425  -0.687   8.404  0.2652 -0.1880  1.7791
  767MOL0     H 5802   3.631  -0.529   8.461  0.6619 -0.3684  1.0196
  767MOL0     H 5803   3.716  -0.671   8.416  0.4620 -0.2253 -0.3348
  767MOL0     H 5804   3.484  -0.442   8.097  0.6742 -1.0980  0.0182
  767MOL0     H 5805   3.568  -0.228   7.839  1.0234  0.0370 -0.1354
  767MOL0     H 5806   3.587  -0.106   7.967  0.9685 -0.4470  0.2910
  767MOL0     H 5807   3.444  -0.221   7.948  0.6214 -4.5930 -1.2096
  767MOL0     H 5808   4.142   0.029   8.122  0.1889 -0.9451 -0.6484
  767MOL0     H 5809   4.238   0.248   8.061  0.7541 -1.6256 -2.1078
  767MOL0     H 5810   4.236   0.493   8.071 -1.0199 -2.3151  0.0910
  767MOL0     H 5811   4.304   0.400   7.937  0.9970  0.1864 -0.1973
  767MOL0     H 5812   4.271   0.596   7.779  1.7569 -0.3045  0.1975
  767MOL0     H 5813   4.245   0.694   7.915  3.4091  2.4755 -1.1414
  767MOL0     H 5814   4.505   0.526   7.894  2.1943  0.1518 -2.1714
  767MOL0     H 5815   4.451   0.634   8.020 -1.2952 -1.9375 -0.2401
  767MOL0     H 5816   4.412   0.815   7.819  0.0031  0.8969  0.4092
  767MOL0     H 5817   4.532   0.702   7.736  1.0768  1.8858  0.5502
  767MOL0     H 5818   4.574   0.880   7.971 -1.6791  0.1543 -0.4816
  767MOL0     H 5819   4.666   0.729   7.962  2.0354  0.8708 -0.6785
  767MOL0     H 5820   4.667   0.967   7.785 -1.9201 -1.6137 -0.5678
  767MOL0     H 5821   4.702   0.813   7.707  1.0203 -1.8717  1.0717
  767MOL0     H 5822   4.909   0.945   7.798  0.7122  0.5216 -0.6075
  767MOL0     H 5823   4.902   0.775   7.849  1.8255  1.3514 -2.1945
  767MOL0     H 5824   4.964   0.938   8.036 -2.2319  0.0837  5.9682
  767MOL0     H 5825   4.824   0.852   8.061  1.6193  1.0716  1.5044
  767MOL0     H 5826   3.854   0.357   7.889 -1.6883 -2.2661 -0.9999
  767MOL0     H 5827   3.768   0.152   7.960  1.4155 -2.1565 -3.6937
  767MOL0     H 5828   3.955  -0.351   8.153  0.3678 -1.4931 -0.2794
  767MOL0     H 5829   3.860  -0.526   8.268 -2.3315 -1.4597  0.6825
  767MOL0     H 5830   2.286   0.056   9.467 -1.0014 -0.2777 -1.3114
  767MOL0     H 5831   2.128   0.254   9.441  1.3602 -0.5510 -0.4171
  767MOL0     H 5832   2.101   0.696   9.178  0.4943 -0.8011 -0.0169
  767MOL0     H 5833   1.932   0.846   9.085  2.9328 -1.9968 -0.0726
  767MOL0     H 5834   1.719   0.755   8.936 -1.5877 -1.4681 -0.6756
  767MOL0     H 5835   1.553   0.781   8.953 -0.5338 -1.3033  0.2659
  767MOL0     H 5836   1.655   0.949   8.823 -3.0845 -3.2827 -0.5707
  767MOL0     H 5837   1.727   1.026   8.969 -1.3180 -0.5451 -0.0236
  767MOL0     H 5838   1.455   0.986   9.044 -0.5082 -4.2496 -2.7979
  767MOL0     H 5839   1.518   1.136   8.957  0.1769 -0.6227 -0.2197
  767MOL0     H 5840   1.404   0.904   8.809  0.1185 -0.3716  0.8653
  767MOL0     H 5841   1.433   1.069   8.755 -0.7644 -1.9227 -1.5425
  767MOL0     H 5842   1.052   1.075   8.950 -1.2215 -2.4046 -0.3603
  767MOL0     H 5843   1.634   0.598   9.263 -0.1352 -0.4061 -3.4016
  767MOL0     H 5844   1.670   0.454   9.433 -0.4677  0.3436  0.6134
  767MOL0     H 5845   1.835   0.383   9.431  2.3410  0.9947 -2.0872
  767MOL0     H 5846   1.800   0.524   9.532 -2.1753  0.1797  0.1550
  768MOL0     O 5847   7.186   4.106   0.727  0.5533 -0.7612 -0.9099
  768MOL0     C 5848   7.255   4.194   0.674 -0.4241  0.3494 -0.5463
  768MOL0     O 5849   7.376   4.246   0.710 -0.0084  1.0703  0.2123
  768MOL0     C 5850   7.435   4.171   0.812 -0.1066  0.1330 -0.7014
  768MOL0     C 5851   7.487   4.234   0.920 -0.3743 -0.3689 -0.4898
  768MOL0     C 5852   7.564   4.167   1.024  0.1912 -0.7842  1.0089
  768MOL0     C 5853   7.590   4.028   1.009 -0.4415  1.4304  0.1313
  768MOL0     O 5854   7.660   3.952   1.099  0.5074  0.1169  0.4839
  768MOL0     C 5855   7.741   4.012   1.199 -0.0798 -0.0854  1.0366
  768MOL0     C 5856   7.783   3.894   1.289 -0.1786 -0.4721 -0.3227
  768MOL0     C 5857   7.903   3.923   1.383 -0.3402  0.3885 -0.2636
  768MOL0     C 5858   7.921   3.787   1.467 -0.1061  0.2397 -1.2173
  768MOL0     C 5859   8.032   3.792   1.581 -0.5459  0.0057  0.5613
  768MOL0     C 5860   8.091   3.655   1.607 -0.2128 -0.3182  0.7744
  768MOL0     C 5861   8.228   3.651   1.662  0.3249 -0.3289  0.4072
  768MOL0     C 5862   8.339   3.731   1.596 -0.0752  0.8966 -0.0725
  768MOL0     N 5863   8.476   3.694   1.635  0.6483 -0.7689  0.5992
  768MOL0     C 5864   8.572   3.653   1.551 -0.5745 -0.7329 -0.5682
  768MOL0     C 5865   8.673   3.592   1.619  0.5665 -0.2188  0.0418
  768MOL0     C 5866   8.800   3.548   1.560 -0.4164 -0.0170 -0.1311
  768MOL0     C 5867   8.909   3.627   1.623 -0.0342  0.2979 -0.0350
  768MOL0     C 5868   8.923   3.780   1.601 -0.5657 -0.9276  0.2195
  768MOL0     C 5869   9.028   3.829   1.505  0.5266  0.5253  1.2295
  768MOL0     O 5870   9.017   3.762   1.378 -0.6229  0.3117  0.0769
  768MOL0     C 5871   9.106   3.805   1.282  0.1897 -0.5973  1.3780
  768MOL0     C 5872   9.241   3.766   1.287 -0.3770  0.0978  0.3569
  768MOL0     C 5873   9.335   3.820   1.198  0.2305 -0.3226  0.1840
  768MOL0     C 5874   9.478   3.786   1.192  0.8756  0.8064 -0.8810
  768MOL0     C 5875   9.281   3.908   1.091 -0.0490 -0.2486 -0.6523
  768MOL0     C 5876   9.363   3.955   0.977 -0.5968 -0.5543 -0.1719
  768MOL0     O 5877   9.436   3.861   0.923  0.2158  0.1659  0.9887
  768MOL0     C 5878   9.496   3.880   0.801 -0.7435  0.1919  0.3935
  768MOL0     C 5879   9.475   3.786   0.700 -1.1484 -0.0984 -0.7434
  768MOL0     C 5880   9.541   3.795   0.579 -0.6028 -0.5082  0.4101
  768MOL0     C 5881   9.641   3.898   0.562 -0.1137 -0.1247 -0.2585
  768MOL0     O 5882   9.728   3.910   0.451  0.0978 -0.7938 -0.3335
  768MOL0     C 5883   9.654   3.915   0.333  0.4757  0.4177  0.0042
  768MOL0     C 5884   9.615   4.062   0.290  0.6562  0.2920 -0.4455
  768MOL0     C 5885   9.718   4.170   0.310  0.0577  0.5304 -0.6842
  768MOL0     C 5886   9.847   4.142   0.220  0.5218  0.8228  0.7028
  768MOL0     C 5887   9.931   4.265   0.237  0.0116  0.0732 -1.1074
  768MOL0     C 5888  10.034   4.288   0.128  0.1551 -1.0970 -0.1310
  768MOL0     C 5889  10.110   4.165   0.104 -0.1470 -0.0056 -0.2199
  768MOL0     C 5890  10.238   4.207   0.031 -0.2071  0.0894 -0.6230
  768MOL0    Cl 5891  10.208   4.281  -0.140 -0.0159 -0.5947  0.2202
  768MOL0     C 5892   9.669   3.989   0.669  0.3137 -0.1046  0.6694
  768MOL0     C 5893   9.592   3.985   0.783  0.0129  0.1226 -1.3354
  768MOL0     O 5894   9.344   4.068   0.925  0.4153  0.1611 -0.1550
  768MOL0     C 5895   9.149   3.956   1.105 -0.2852 -0.0527  0.5446
  768MOL0     C 5896   9.071   3.920   1.205  0.2792  0.5901  0.1349
  768MOL0     N 5897   8.627   3.584   1.745 -0.3466  0.2527 -0.6374
  768MOL0     N 5898   8.511   3.637   1.752 -0.6197  0.2299  0.4678
  768MOL0     C 5899   7.537   3.964   0.897  0.6268 -0.4642 -0.0558
  768MOL0     C 5900   7.466   4.032   0.794  0.0746 -0.9874 -0.6361
  768MOL0     C 5901   7.208   4.259   0.551  1.0980 -0.5621  0.2363
  768MOL0     C 5902   7.077   4.315   0.554 -0.4308  0.3621  0.1641
  768MOL0     C 5903   7.025   4.376   0.438  0.9646  1.3333 -0.7405
  768MOL0     C 5904   7.110   4.399   0.333 -0.0842 -0.1284  0.5184
  768MOL0     O 5905   7.069   4.455   0.215 -0.4417 -0.3992 -0.5523
  768MOL0     C 5906   6.935   4.503   0.209 -0.2994  0.1153  0.4224
  768MOL0     C 5907   6.899   4.545   0.061 -0.0247  1.0039  0.1229
  768MOL0     C 5908   6.962   4.684   0.016 -0.8109  0.5996 -0.3177
  768MOL0     C 5909   6.953   4.707  -0.138 -0.8021 -0.4054 -0.6588
  768MOL0     C 5910   6.827   4.759  -0.185  0.0033  0.6108  0.6681
  768MOL0     C 5911   6.718   4.802  -0.222  0.1004  0.5587 -0.3162
  768MOL0     C 5912   7.236   4.344   0.332  0.5743  0.3867  0.7126
  768MOL0     C 5913   7.281   4.273   0.434 -0.6470 -0.6934  1.2276
  768MOL0     C 5914   7.417   4.204   0.397 -0.2671  0.0475 -0.4366
  768MOL0     H 5915   7.462   4.339   0.930  1.7237 -0.0508  3.2438
  768MOL0     H 5916   7.605   4.226   1.106 -1.6809  3.5315 -0.8537
  768MOL0     H 5917   7.676   4.084   1.250  1.7392  0.7163  2.3443
  768MOL0     H 5918   7.821   4.063   1.145 -0.3582 -1.6002 -0.9155
  768MOL0     H 5919   7.691   3.877   1.345 -0.1016  1.1480  0.3348
  768MOL0     H 5920   7.811   3.804   1.232 -1.3576 -2.2878  1.7960
  768MOL0     H 5921   7.992   3.935   1.321 -0.6436 -3.9530 -1.8816
  768MOL0     H 5922   7.887   4.016   1.439  2.5887  0.3819  0.7200
  768MOL0     H 5923   7.824   3.759   1.507 -0.4548  1.4804 -1.1312
  768MOL0     H 5924   7.956   3.703   1.407  1.4448 -1.9373  2.3779
  768MOL0     H 5925   7.974   3.829   1.667  1.0625 -0.8740  2.1000
  768MOL0     H 5926   8.101   3.869   1.546 -1.2055 -0.3328 -1.6307
  768MOL0     H 5927   8.021   3.595   1.666 -0.8748 -0.5955 -0.2646
  768MOL0     H 5928   8.095   3.604   1.510 -2.3257 -0.3504  0.6676
  768MOL0     H 5929   8.254   3.546   1.674 -4.6736 -1.6959  1.3798
  768MOL0     H 5930   8.233   3.687   1.765 -3.0797  2.7981 -0.3127
  768MOL0     H 5931   8.324   3.695   1.494 -0.3908 -3.8032  1.4201
  768MOL0     H 5932   8.332   3.838   1.619  0.4102  1.3391 -1.8221
  768MOL0     H 5933   8.575   3.658   1.442  1.2175  0.3800 -0.5189
  768MOL0     H 5934   8.794   3.556   1.451  0.0450  3.4003 -0.0183
  768MOL0     H 5935   8.826   3.445   1.584 -1.5463  0.0806  1.7032
  768MOL0     H 5936   8.919   3.624   1.732  1.3035  0.6719 -0.1372
  768MOL0     H 5937   9.000   3.582   1.582  2.4812  3.9554  1.0503
  768MOL0     H 5938   8.827   3.821   1.566  0.8284  0.5641 -2.1303
  768MOL0     H 5939   8.948   3.836   1.691 -0.7620  2.8236 -1.8435
  768MOL0     H 5940   9.014   3.937   1.490 -0.6979  0.2033 -0.2605
  768MOL0     H 5941   9.124   3.809   1.553  0.5491  1.9909  1.8630
  768MOL0     H 5942   9.254   3.690   1.363  0.0020 -0.4200 -0.2152
  768MOL0     H 5943   9.510   3.743   1.287 -1.2673 -1.4134 -1.0634
  768MOL0     H 5944   9.537   3.872   1.161 -0.1522  1.6639 -0.5084
  768MOL0     H 5945   9.481   3.711   1.112  1.4362  1.2824 -1.3182
  768MOL0     H 5946   9.391   3.720   0.720 -0.8246 -0.2844  0.0616
  768MOL0     H 5947   9.517   3.725   0.499 -1.0580  1.6921 -1.4822
  768MOL0     H 5948   9.715   3.880   0.249 -0.1521 -1.5155  0.3154
  768MOL0     H 5949   9.562   3.856   0.334  0.3098  0.5086 -2.5924
  768MOL0     H 5950   9.559   4.072   0.196 -0.4243  1.7629  0.3208
  768MOL0     H 5951   9.535   4.079   0.362  0.0081  3.1499 -1.7040
  768MOL0     H 5952   9.759   4.180   0.410  0.5959  2.4310 -1.0466
  768MOL0     H 5953   9.669   4.267   0.296  2.0263  2.0278  2.0036
  768MOL0     H 5954   9.809   4.132   0.118 -3.6023  1.6866  1.9680
  768MOL0     H 5955   9.887   4.043   0.244 -3.5052 -0.8225  1.4637
  768MOL0     H 5956   9.866   4.353   0.246  0.0815 -0.0502  1.4234
  768MOL0     H 5957   9.980   4.254   0.334 -1.0795 -1.4099 -0.6765
  768MOL0     H 5958  10.100   4.365   0.170 -1.1831  1.1133 -1.8242
  768MOL0     H 5959   9.993   4.325   0.034  0.0255  2.1929  1.0855
  768MOL0     H 5960  10.054   4.088   0.051  0.7816 -0.2142 -0.9210
  768MOL0     H 5961  10.139   4.120   0.199 -0.4346  1.6929  0.7220
  768MOL0     H 5962  10.291   4.113   0.018 -2.1762 -0.9717 -1.5109
  768MOL0     H 5963  10.284   4.280   0.098 -2.2195  0.8339  0.0399
  768MOL0     H 5964   9.741   4.070   0.666 -1.8481  2.0069  2.0834
  768MOL0     H 5965   9.612   4.054   0.865 -3.0404  1.1511 -1.3429
  768MOL0     H 5966   9.107   4.031   1.039 -1.8292 -2.1902 -1.0882
  768MOL0     H 5967   8.969   3.954   1.217  0.4750  0.7712  1.5069
  768MOL0     H 5968   7.555   3.860   0.873 -1.8644 -0.7811 -0.7663
  768MOL0     H 5969   7.436   3.961   0.717  1.7219 -2.7711  0.2816
  768MOL0     H 5970   7.022   4.311   0.648  1.3820 -1.4882  1.2403
  768MOL0     H 5971   6.925   4.416   0.449 -0.0629  0.0547 -4.1629
  768MOL0     H 5972   6.863   4.424   0.231 -3.2404  1.9540 -1.8759
  768MOL0     H 5973   6.911   4.583   0.279 -0.6547  0.8041 -0.4675
  768MOL0     H 5974   6.790   4.553   0.055 -0.7483 -2.1319  4.4473
  768MOL0     H 5975   6.935   4.466  -0.006  1.8497  2.3938 -0.5980
  768MOL0     H 5976   6.922   4.766   0.077  0.8631 -0.2212  2.0324
  768MOL0     H 5977   7.068   4.667   0.034 -0.4443 -2.7014 -4.2428
  768MOL0     H 5978   6.982   4.609  -0.176 -1.9396 -0.7247 -0.7323
  768MOL0     H 5979   7.027   4.786  -0.153 -1.3899  0.0932 -1.0175
  768MOL0     H 5980   6.619   4.835  -0.247  0.4408  1.4233 -0.5800
  768MOL0     H 5981   7.289   4.358   0.238  4.3625  1.3196  2.7858
  768MOL0     H 5982   7.492   4.259   0.454 -0.6961  1.8146 -1.5228
  768MOL0     H 5983   7.417   4.101   0.435  0.1101  0.8687  2.0081
  768MOL0     H 5984   7.444   4.202   0.291 -1.5272 -0.0152 -0.7750
  769MOL0     O 5985   2.290   0.843   9.682  0.0033 -0.4537  0.1759
  769MOL0     C 5986   2.225   0.757   9.740  0.0735  0.2834 -0.3932
  769MOL0     O 5987   2.278   0.641   9.791 -0.3365  0.4042 -0.1097
  769MOL0     C 5988   2.408   0.620   9.752  0.8825 -0.8384  0.7236
  769MOL0     C 5989   2.448   0.609   9.615 -0.2079 -0.2358 -0.7607
  769MOL0     C 5990   2.569   0.549   9.588 -0.5703 -0.2766 -1.2560
  769MOL0     C 5991   2.656   0.519   9.684 -0.4782 -0.6187 -0.0141
  769MOL0     O 5992   2.779   0.479   9.654 -0.0991  0.9131 -0.0702
  769MOL0     C 5993   2.874   0.572   9.596 -0.4505 -1.0475  0.5848
  769MOL0     C 5994   3.002   0.500   9.578 -0.5123 -0.4549 -0.1677
  769MOL0     C 5995   2.983   0.390   9.471 -0.4624  0.1308  0.1923
  769MOL0     C 5996   3.022   0.439   9.334 -0.4425  0.4829  1.1938
  769MOL0     C 5997   3.022   0.335   9.230  0.1005 -0.3467 -0.1346
  769MOL0     C 5998   3.140   0.240   9.226 -1.1106 -0.1177 -0.4783
  769MOL0     C 5999   3.113   0.155   9.103 -0.8764 -0.4690  0.9026
  769MOL0     C 6000   3.238   0.072   9.065 -0.2323  1.0137 -0.1852
  769MOL0     N 6001   3.215   0.012   8.932 -0.6021 -0.1235 -0.5703
  769MOL0     C 6002   3.172   0.083   8.820 -0.3459  0.0732  0.1911
  769MOL0     C 6003   3.135  -0.014   8.733  0.2009  0.8178  0.4031
  769MOL0     C 6004   3.071   0.003   8.591  0.0677 -0.0862  0.1890
  769MOL0     C 6005   3.015   0.140   8.580  0.3128 -0.1138  0.1613
  769MOL0     C 6006   2.945   0.178   8.452  0.0557 -0.3950  0.2976
  769MOL0     C 6007   3.005   0.287   8.370  0.7421  0.0637 -1.2509
  769MOL0     O 6008   3.137   0.252   8.317  0.2669  0.5148  0.3004
  769MOL0     C 6009   3.206   0.335   8.222  0.6288  0.3421  0.3924
  769MOL0     C 6010   3.154   0.453   8.177  0.5843 -0.0568 -0.3511
  769MOL0     C 6011   3.223   0.534   8.089  0.5565 -0.0765 -1.0088
  769MOL0     C 6012   3.165   0.669   8.064  0.5632  0.8010 -0.3720
  769MOL0     C 6013   3.352   0.502   8.038  0.1122  0.1946 -0.9378
  769MOL0     C 6014   3.446   0.594   7.964  0.0763  0.5027 -0.5300
  769MOL0     O 6015   3.567   0.543   7.905 -0.7819 -0.3593 -0.8267
  769MOL0     C 6016   3.658   0.633   7.862  0.0516 -0.6252 -0.5956
  769MOL0     C 6017   3.634   0.706   7.743  1.3549  0.3412  0.4025
  769MOL0     C 6018   3.732   0.791   7.691 -0.0924  1.1541 -0.3789
  769MOL0     C 6019   3.862   0.788   7.737 -0.3530 -0.5012 -0.0766
  769MOL0     O 6020   3.976   0.853   7.683 -0.5850  0.1773  0.1652
  769MOL0     C 6021   4.048   0.929   7.774  0.2178  0.1181 -0.4484
  769MOL0     C 6022   4.138   1.031   7.709  0.3382 -0.3198 -0.2522
  769MOL0     C 6023   4.085   1.159   7.645  0.7849 -0.2875  0.6254
  769MOL0     C 6024   3.995   1.122   7.523 -0.4942 -0.7516 -0.0699
  769MOL0     C 6025   4.024   1.224   7.408 -0.2854  1.0336  0.6139
  769MOL0     C 6026   3.932   1.204   7.283 -0.5967 -0.1252 -0.3474
  769MOL0     C 6027   3.967   1.294   7.165 -0.0852  0.0479  0.2128
  769MOL0     C 6028   3.880   1.281   7.053  0.9747  0.2787 -0.6020
  769MOL0    Cl 6029   3.928   1.404   6.922 -0.0400 -0.4063 -0.0651
  769MOL0     C 6030   3.890   0.713   7.858 -0.3428 -0.2216 -0.2801
  769MOL0     C 6031   3.786   0.635   7.914  0.0072 -0.4713 -1.3518
  769MOL0     O 6032   3.424   0.713   7.972 -0.3395  0.0836  0.1082
  769MOL0     C 6033   3.400   0.374   8.078  0.8190  0.1256  0.2689
  769MOL0     C 6034   3.326   0.295   8.171 -0.0363 -0.2809 -0.0717
  769MOL0     N 6035   3.155  -0.140   8.795  0.0300  0.4842 -0.2318
  769MOL0     N 6036   3.208  -0.118   8.912 -0.1068 -0.1584  1.0545
  769MOL0     C 6037   2.629   0.540   9.819  0.1878  0.8519 -0.0796
  769MOL0     C 6038   2.504   0.582   9.848 -0.6540 -0.0117 -0.6666
  769MOL0     C 6039   2.086   0.793   9.778  0.2167  0.5028  0.4520
  769MOL0     C 6040   2.011   0.849   9.667  0.2950 -0.4109  0.0077
  769MOL0     C 6041   1.879   0.886   9.691 -0.7824  0.4794  0.3234
  769MOL0     C 6042   1.808   0.864   9.805 -0.3701 -0.6096 -0.4266
  769MOL0     O 6043   1.678   0.907   9.821 -0.4088 -0.7909  0.1401
  769MOL0     C 6044   1.580   0.807   9.851 -0.1825 -0.0968  1.0109
  769MOL0     C 6045   1.451   0.838   9.766 -0.5359 -0.0441 -0.0146
  769MOL0     C 6046   1.379   0.717   9.714 -0.6452 -0.7386 -0.1842
  769MOL0     C 6047   1.469   0.620   9.632  0.1349 -0.7527  0.7256
  769MOL0     C 6048   1.380   0.529   9.568 -0.4775  0.2040 -0.1616
  769MOL0     C 6049   1.311   0.440   9.523 -0.6721 -1.4284  0.0121
  769MOL0     C 6050   1.875   0.804   9.907 -0.0738  0.2492 -0.3499
  769MOL0     C 6051   2.012   0.769   9.896 -0.4795 -0.3592 -0.3656
  769MOL0     C 6052   2.089   0.727  10.024  0.1373 -0.2456 -0.0974
  769MOL0     H 6053   2.376   0.634   9.538 -2.3197  0.8748  1.4535
  769MOL0     H 6054   2.590   0.516   9.486  1.5980 -2.4709 -0.2047
  769MOL0     H 6055   2.886   0.657   9.663  1.2826 -1.2214  0.5275
  769MOL0     H 6056   2.852   0.613   9.497  2.4302  3.3848  1.5129
  769MOL0     H 6057   3.079   0.569   9.543  0.8658 -0.9043  1.8295
  769MOL0     H 6058   3.035   0.477   9.679 -0.2121  1.3463  0.1861
  769MOL0     H 6059   3.041   0.301   9.495 -3.8498 -2.5767 -0.7598
  769MOL0     H 6060   2.879   0.355   9.464  0.4565 -2.6453 -0.8192
  769MOL0     H 6061   2.959   0.525   9.310 -1.6802 -0.3606  1.3328
  769MOL0     H 6062   3.121   0.485   9.338  0.6403 -1.1896 -2.3916
  769MOL0     H 6063   3.039   0.379   9.132  2.9650 -0.4310  0.2327
  769MOL0     H 6064   2.932   0.274   9.238 -1.7262  2.1822 -0.4659
  769MOL0     H 6065   3.237   0.288   9.216 -1.8128  1.5751  0.3594
  769MOL0     H 6066   3.133   0.185   9.321 -0.4557  2.8942  1.4447
  769MOL0     H 6067   3.106   0.225   9.019  1.2680  2.3955  2.9635
  769MOL0     H 6068   3.027   0.088   9.115  1.6252 -3.4484  4.2664
  769MOL0     H 6069   3.327   0.134   9.056 -0.6621  1.9102  1.3450
  769MOL0     H 6070   3.258  -0.010   9.135  0.7737  0.3146 -1.2668
  769MOL0     H 6071   3.162   0.191   8.819 -0.5487  0.1480  3.0228
  769MOL0     H 6072   2.984  -0.063   8.583  0.7673 -1.0670  0.4006
  769MOL0     H 6073   3.141  -0.011   8.509  0.8157  0.8729  0.6465
  769MOL0     H 6074   2.958   0.159   8.671  2.4568  1.7274  1.2449
  769MOL0     H 6075   3.110   0.195   8.583  0.0613  0.9149 -3.9405
  769MOL0     H 6076   2.929   0.090   8.389  0.6455 -0.6184  0.4544
  769MOL0     H 6077   2.852   0.217   8.494 -0.5269  0.1945 -1.4541
  769MOL0     H 6078   2.933   0.317   8.293  0.1160 -0.3153 -0.8185
  769MOL0     H 6079   3.020   0.369   8.441  0.8255  0.2098 -1.4359
  769MOL0     H 6080   3.057   0.486   8.212 -0.4782 -1.8390 -1.4367
  769MOL0     H 6081   3.177   0.711   7.964 -0.3129  1.4907 -0.2082
  769MOL0     H 6082   3.214   0.734   8.137  0.8227  2.0853 -1.6338
  769MOL0     H 6083   3.057   0.668   8.079  0.5628  0.2989 -0.4046
  769MOL0     H 6084   3.536   0.705   7.696  1.0091 -0.0103  1.1092
  769MOL0     H 6085   3.709   0.833   7.593 -1.6447  1.3897  0.0514
  769MOL0     H 6086   3.974   0.982   7.834  0.0972  0.2012 -0.6706
  769MOL0     H 6087   4.110   0.853   7.823  0.7181  0.0130 -1.2295
  769MOL0     H 6088   4.206   1.064   7.787 -0.9244 -1.4953  1.4013
  769MOL0     H 6089   4.198   0.969   7.641  0.6329 -1.6672  1.1903
  769MOL0     H 6090   4.176   1.213   7.618  2.5116 -2.5430  1.5229
  769MOL0     H 6091   4.036   1.213   7.726  0.6468 -2.0199  1.7596
  769MOL0     H 6092   3.890   1.133   7.549 -0.2998 -0.8591  0.7775
  769MOL0     H 6093   4.017   1.026   7.475  0.5251  0.6426 -2.5761
  769MOL0     H 6094   4.005   1.329   7.430 -4.3595  0.2810  1.4240
  769MOL0     H 6095   4.131   1.206   7.390 -0.5584 -2.2829  1.6888
  769MOL0     H 6096   3.831   1.226   7.318  0.0375 -0.9876  2.1834
  769MOL0     H 6097   3.933   1.098   7.255  0.5258 -0.3527  0.5063
  769MOL0     H 6098   4.069   1.271   7.136 -0.8636 -0.8599 -1.9596
  769MOL0     H 6099   3.970   1.395   7.209  0.5454 -0.3406  1.0963
  769MOL0     H 6100   3.776   1.304   7.078 -0.1520  0.2412 -4.5257
  769MOL0     H 6101   3.886   1.177   7.018 -2.0587 -1.6399  3.6647
  769MOL0     H 6102   3.989   0.691   7.897  0.0829  0.4319 -0.9542
  769MOL0     H 6103   3.814   0.568   7.994 -0.0694  1.2922  0.2055
  769MOL0     H 6104   3.501   0.337   8.061  0.5843 -0.9567  1.1033
  769MOL0     H 6105   3.379   0.213   8.217 -2.3856 -2.6041 -1.2284
  769MOL0     H 6106   2.698   0.519   9.900  1.7347 -1.4989 -1.8813
  769MOL0     H 6107   2.492   0.596   9.955  0.1332  2.7776 -0.8685
  769MOL0     H 6108   2.055   0.873   9.571 -1.2227 -3.9359 -1.7763
  769MOL0     H 6109   1.825   0.938   9.613  2.1210  2.1418 -0.7180
  769MOL0     H 6110   1.611   0.703   9.836 -2.0324 -0.3180 -2.3546
  769MOL0     H 6111   1.549   0.815   9.955 -0.0101  1.7058  0.9451
  769MOL0     H 6112   1.475   0.905   9.683  4.1159 -1.7758 -0.3769
  769MOL0     H 6113   1.396   0.891   9.843  0.2972 -1.0786  1.3329
  769MOL0     H 6114   1.335   0.662   9.798 -0.9430  2.2027  1.6982
  769MOL0     H 6115   1.302   0.767   9.655 -0.2878  0.8417  0.6335
  769MOL0     H 6116   1.526   0.561   9.705 -2.5452 -1.1406  2.6603
  769MOL0     H 6117   1.527   0.670   9.554 -0.3623 -0.4305  0.5576
  769MOL0     H 6118   1.255   0.355   9.489  0.7650 -1.8092 -1.5408
  769MOL0     H 6119   1.833   0.790  10.006 -0.3337  1.4621 -0.2674
  769MOL0     H 6120   2.030   0.724  10.116 -2.1888 -1.9463 -1.5317
  769MOL0     H 6121   2.135   0.629  10.014 -1.6006 -1.0739 -0.4640
  769MOL0     H 6122   2.149   0.815  10.048 -3.5040  2.8651 -1.2302
  770MOL0     O 6123  10.553   8.266   3.530  0.3774  0.4623  0.0235
  770MOL0     C 6124  10.472   8.273   3.439  0.4343  0.5238  0.1557
  770MOL0     O 6125  10.345   8.313   3.464  0.5378 -0.1686 -0.1859
  770MOL0     C 6126  10.304   8.339   3.599 -0.1574 -0.0717  1.0656
  770MOL0     C 6127  10.357   8.443   3.685  0.5095  1.2375  0.7312
  770MOL0     C 6128  10.323   8.455   3.818 -0.0045  0.5411  0.4323
  770MOL0     C 6129  10.233   8.362   3.877 -0.4895 -0.4174  0.7910
  770MOL0     O 6130  10.206   8.366   4.007 -0.2901 -0.2596  0.1710
  770MOL0     C 6131  10.312   8.364   4.097 -0.5605 -0.6219  0.0424
  770MOL0     C 6132  10.271   8.369   4.241  0.2881 -0.6303 -0.0710
  770MOL0     C 6133  10.242   8.510   4.294 -0.4372  1.2095  0.3714
  770MOL0     C 6134  10.282   8.525   4.438  0.1791  0.0754  0.0790
  770MOL0     C 6135  10.261   8.670   4.486 -0.3473 -0.2430 -1.1850
  770MOL0     C 6136  10.384   8.762   4.454  0.3135 -0.7727 -0.1498
  770MOL0     C 6137  10.368   8.907   4.504  0.0047 -0.7336  0.4340
  770MOL0     C 6138  10.274   9.001   4.423  0.1569  0.0801  0.6265
  770MOL0     N 6139  10.254   9.128   4.498 -0.5026 -0.7217  1.3661
  770MOL0     C 6140  10.179   9.150   4.614  0.5817 -0.4988 -0.6456
  770MOL0     C 6141  10.175   9.281   4.642  0.5955  0.0216 -0.0594
  770MOL0     C 6142  10.105   9.331   4.764  0.1532 -0.1211  0.8825
  770MOL0     C 6143  10.195   9.337   4.881 -0.1093  0.9615 -0.0232
  770MOL0     C 6144  10.105   9.347   5.003 -0.7431  0.4706  0.1512
  770MOL0     C 6145  10.188   9.342   5.132  0.3411 -0.7625  0.1984
  770MOL0     O 6146  10.300   9.432   5.139  0.0829  0.0485  0.4992
  770MOL0     C 6147  10.335   9.493   5.256  0.1737  0.4514 -0.7593
  770MOL0     C 6148  10.472   9.504   5.274  0.2929 -0.4015  0.1385
  770MOL0     C 6149  10.522   9.567   5.387  0.1898  0.3738  0.2123
  770MOL0     C 6150  10.671   9.563   5.404  0.2205  0.4121  0.4938
  770MOL0     C 6151  10.439   9.614   5.489  0.7036 -0.2053 -0.1080
  770MOL0     C 6152  10.485   9.694   5.604  0.1359 -0.2835  0.8708
  770MOL0     O 6153  10.602   9.759   5.590  0.1914  0.4682  0.7203
  770MOL0     C 6154  10.650   9.851   5.677  0.2638 -0.0129  0.0553
  770MOL0     C 6155  10.757   9.923   5.631 -0.9157 -0.4219  0.1578
  770MOL0     C 6156  10.831  10.007   5.717 -0.2613 -0.4985  0.5191
  770MOL0     C 6157  10.802  10.010   5.855 -0.3907  0.2191  0.6221
  770MOL0     O 6158  10.862  10.084   5.954 -0.3346 -0.3951 -0.1391
  770MOL0     C 6159  10.970  10.172   5.931  0.9001 -0.4022 -0.4809
  770MOL0     C 6160  10.998  10.255   6.057  0.0094 -0.1550  1.0362
  770MOL0     C 6161  11.123  10.340   6.038  0.2389 -0.1441 -0.1741
  770MOL0     C 6162  11.171  10.430   6.152 -0.4340  0.0294  0.2077
  770MOL0     C 6163  11.306  10.511   6.121  0.2562  0.3392  0.2400
  770MOL0     C 6164  11.420  10.420   6.085 -0.4893 -0.8850  0.3986
  770MOL0     C 6165  11.546  10.511   6.068 -1.1636  0.2115 -0.3210
  770MOL0     C 6166  11.662  10.439   6.007 -0.5413  0.3917 -0.2027
  770MOL0    Cl 6167  11.767  10.348   6.125 -0.1833 -0.4144 -0.3677
  770MOL0     C 6168  10.709   9.921   5.902 -0.5573 -0.2683 -0.1048
  770MOL0     C 6169  10.627   9.845   5.823 -0.4081 -0.3441  0.5209
  770MOL0     O 6170  10.403   9.712   5.692 -0.5986  0.3406  0.3448
  770MOL0     C 6171  10.294   9.585   5.473  0.1256 -0.6375 -0.7527
  770MOL0     C 6172  10.246   9.526   5.360  0.5310  0.2473  0.0449
  770MOL0     N 6173  10.244   9.348   4.546 -0.2317  0.2618 -0.0980
  770MOL0     N 6174  10.278   9.251   4.461  0.4933 -0.4607  0.7805
  770MOL0     C 6175  10.171   8.268   3.792 -0.4869  0.4914 -0.5917
  770MOL0     C 6176  10.214   8.252   3.657  0.0871 -0.3784  0.7486
  770MOL0     C 6177  10.487   8.221   3.299  0.1629 -0.6184 -1.3080
  770MOL0     C 6178  10.376   8.181   3.222 -0.5195  0.5730 -0.3007
  770MOL0     C 6179  10.388   8.127   3.091  0.9683 -0.0656  0.3792
  770MOL0     C 6180  10.507   8.116   3.029  0.3685 -1.0042  0.0988
  770MOL0     O 6181  10.522   8.077   2.889  0.1095 -0.7509 -0.0898
  770MOL0     C 6182  10.399   8.060   2.810 -0.3611 -0.6014 -0.1079
  770MOL0     C 6183  10.422   7.993   2.681 -0.7065  0.0460  0.6101
  770MOL0     C 6184  10.290   7.946   2.621 -0.5519 -0.3401  0.4821
  770MOL0     C 6185  10.306   7.829   2.519  0.0239 -0.3120 -0.4630
  770MOL0     C 6186  10.383   7.884   2.403 -0.1733 -0.3374  0.1178
  770MOL0     C 6187  10.456   7.913   2.310  0.3872  0.4700 -0.5644
  770MOL0     C 6188  10.616   8.143   3.102 -1.3017  0.7669  0.1215
  770MOL0     C 6189  10.612   8.195   3.237 -0.1845 -0.1430  0.1186
  770MOL0     C 6190  10.746   8.233   3.294 -0.4552 -0.1155 -0.4417
  770MOL0     H 6191  10.428   8.505   3.630  1.9889 -3.2377 -2.9863
  770MOL0     H 6192  10.365   8.536   3.876  2.5778  0.0159 -0.5886
  770MOL0     H 6193  10.392   8.432   4.066  0.8339 -1.6511  1.2586
  770MOL0     H 6194  10.358   8.265   4.090  1.1644  0.2375 -1.3400
  770MOL0     H 6195  10.194   8.296   4.269  0.4068 -1.0843 -0.8901
  770MOL0     H 6196  10.366   8.343   4.287  1.4664  1.1560 -1.3794
  770MOL0     H 6197  10.284   8.587   4.228 -2.1585 -0.6260 -3.1164
  770MOL0     H 6198  10.133   8.517   4.294 -0.3711  3.9639 -1.4793
  770MOL0     H 6199  10.231   8.448   4.497  0.2019 -3.1900 -3.7458
  770MOL0     H 6200  10.387   8.497   4.449  0.9165  3.2856  3.8102
  770MOL0     H 6201  10.251   8.667   4.595  1.9805 -0.9869 -0.9294
  770MOL0     H 6202  10.178   8.704   4.424  0.3275 -0.0393 -2.0101
  770MOL0     H 6203  10.473   8.716   4.497  1.4290  0.8025 -0.6781
  770MOL0     H 6204  10.404   8.755   4.347 -2.3555  2.6887 -1.0633
  770MOL0     H 6205  10.463   8.957   4.525 -2.1050  3.8988  0.1986
  770MOL0     H 6206  10.326   8.894   4.604  0.2955  2.3758  1.0455
  770MOL0     H 6207  10.325   9.025   4.329 -1.7493  0.8565 -0.2609
  770MOL0     H 6208  10.177   8.954   4.407 -1.3529  2.5730  1.9103
  770MOL0     H 6209  10.130   9.069   4.667 -2.6253 -0.5186 -3.3358
  770MOL0     H 6210  10.034   9.252   4.789  1.4730 -1.1712  1.4789
  770MOL0     H 6211  10.061   9.425   4.731  0.5333 -0.2690 -0.0724
  770MOL0     H 6212  10.247   9.240   4.885 -0.0854  1.0088  2.9752
  770MOL0     H 6213  10.273   9.413   4.867  0.8344 -0.3068 -2.1361
  770MOL0     H 6214  10.051   9.443   5.010  0.7465  1.2359  2.2016
  770MOL0     H 6215  10.023   9.274   5.000  0.0432 -0.7514  3.3831
  770MOL0     H 6216  10.112   9.359   5.209 -1.7313 -0.8767 -1.7300
  770MOL0     H 6217  10.226   9.241   5.151 -1.4835 -1.1111  2.2889
  770MOL0     H 6218  10.539   9.463   5.199  1.8142 -0.5084  1.5228
  770MOL0     H 6219  10.714   9.559   5.504  0.0593  0.2453  0.5568
  770MOL0     H 6220  10.700   9.654   5.350  1.6528 -0.8738 -1.0336
  770MOL0     H 6221  10.711   9.469   5.364  0.9683 -0.7005  3.5912
  770MOL0     H 6222  10.793   9.921   5.528  1.3852 -1.0667  0.9279
  770MOL0     H 6223  10.908  10.074   5.679 -1.9871  0.6655 -1.1055
  770MOL0     H 6224  11.058  10.113   5.905  0.1024 -1.2197 -1.3864
  770MOL0     H 6225  10.944  10.239   5.849 -0.2263  2.4494  1.9998
  770MOL0     H 6226  10.910  10.312   6.087  0.0790 -0.1469  1.2263
  770MOL0     H 6227  11.013  10.186   6.140 -1.0681 -0.0037  1.3700
  770MOL0     H 6228  11.109  10.393   5.943  0.7328  3.9475  1.8223
  770MOL0     H 6229  11.201  10.263   6.036  1.0872  0.6827  0.4877
  770MOL0     H 6230  11.201  10.366   6.236 -0.2525 -1.5320 -0.9973
  770MOL0     H 6231  11.098  10.509   6.172  0.1878  0.4904  0.6841
  770MOL0     H 6232  11.293  10.575   6.034  2.4927  1.2992  0.5361
  770MOL0     H 6233  11.331  10.580   6.202 -2.2956  1.7350 -0.0528
  770MOL0     H 6234  11.404  10.360   5.996 -2.2963 -0.0070  0.1001
  770MOL0     H 6235  11.423  10.348   6.168  0.9272 -0.8919  0.3635
  770MOL0     H 6236  11.567  10.556   6.166 -0.4578 -0.0640 -0.3443
  770MOL0     H 6237  11.533  10.589   5.992 -2.5014 -1.0846 -1.4680
  770MOL0     H 6238  11.726  10.515   5.960 -1.8045  1.6819  0.1082
  770MOL0     H 6239  11.619  10.374   5.931  0.5756  0.7341 -1.1738
  770MOL0     H 6240  10.703   9.924   6.010 -1.5896 -1.8480 -0.0867
  770MOL0     H 6241  10.562   9.766   5.858 -1.7401 -0.0617 -1.1914
  770MOL0     H 6242  10.220   9.618   5.545  0.7877 -0.2208 -0.2550
  770MOL0     H 6243  10.140   9.502   5.350 -0.1984  3.0538  0.2583
  770MOL0     H 6244  10.107   8.191   3.832  0.2643 -1.2835 -2.6297
  770MOL0     H 6245  10.196   8.173   3.584  4.3667 -1.3412  0.4695
  770MOL0     H 6246  10.278   8.205   3.263  0.6545 -0.1657  3.2666
  770MOL0     H 6247  10.298   8.110   3.033  2.6248 -3.8874 -1.4366
  770MOL0     H 6248  10.325   7.997   2.858 -1.4974  0.9078  0.2095
  770MOL0     H 6249  10.366   8.162   2.787  0.3912 -0.3630 -0.1833
  770MOL0     H 6250  10.493   7.912   2.701 -0.0556  0.8130  1.4907
  770MOL0     H 6251  10.476   8.060   2.614  0.8790 -1.2514  0.5291
  770MOL0     H 6252  10.213   7.906   2.688  0.0412  0.4005  1.6397
  770MOL0     H 6253  10.249   8.031   2.566 -1.0154  0.3743  1.8880
  770MOL0     H 6254  10.206   7.796   2.490 -0.8401  1.7684  0.0016
  770MOL0     H 6255  10.373   7.751   2.557 -2.0997 -2.8929 -1.7167
  770MOL0     H 6256  10.520   7.924   2.225 -1.3865  0.0708 -2.0169
  770MOL0     H 6257  10.711   8.130   3.052 -3.2429  0.5242 -3.8656
  770MOL0     H 6258  10.769   8.185   3.389  3.8889  1.9492 -0.1910
  770MOL0     H 6259  10.825   8.188   3.234 -1.1805 -0.8065 -0.8950
  770MOL0     H 6260  10.757   8.342   3.293  1.5122 -0.2354  1.5201
  771MOL0     O 6261   2.860   8.727  11.420 -0.7267  0.1597  0.0406
  771MOL0     C 6262   2.805   8.798  11.333 -0.6143 -0.0440  0.5940
  771MOL0     O 6263   2.871   8.886  11.253 -0.1191  0.4311 -1.1506
  771MOL0     C 6264   3.006   8.874  11.252 -0.7343 -0.3371 -0.3400
  771MOL0     C 6265   3.064   8.805  11.140 -0.6242 -0.3605 -0.9332
  771MOL0     C 6266   3.202   8.794  11.127 -0.0913  0.6741 -0.8555
  771MOL0     C 6267   3.296   8.861  11.210  0.5096 -1.1402 -0.1692
  771MOL0     O 6268   3.425   8.863  11.170 -0.1624  0.8261  0.3291
  771MOL0     C 6269   3.521   8.934  11.250  0.7044  0.7484 -0.1551
  771MOL0     C 6270   3.529   9.082  11.227  0.3457  0.0294  1.1695
  771MOL0     C 6271   3.490   9.128  11.082  0.2352  0.6559 -0.2764
  771MOL0     C 6272   3.530   9.275  11.046  0.0692  0.6416  0.5182
  771MOL0     C 6273   3.676   9.281  11.005 -0.2712  0.0095  0.2805
  771MOL0     C 6274   3.726   9.425  10.981  0.3459 -0.0927 -0.2913
  771MOL0     C 6275   3.654   9.503  10.863 -0.1111 -0.7174 -0.3585
  771MOL0     C 6276   3.704   9.654  10.850 -0.2964 -0.1115 -0.7797
  771MOL0     N 6277   3.621   9.714  10.752  0.5703  0.4441  0.0672
  771MOL0     C 6278   3.668   9.764  10.627 -0.6481  0.1006  0.2987
  771MOL0     C 6279   3.557   9.825  10.579 -1.0107  0.0987  1.5986
  771MOL0     C 6280   3.534   9.880  10.441 -0.0029  0.3820 -0.1606
  771MOL0     C 6281   3.619  10.016  10.420 -0.0809  0.3636 -0.0518
  771MOL0     C 6282   3.614  10.052  10.272 -0.7255  0.1594  0.5621
  771MOL0     C 6283   3.693  10.174  10.239 -0.3211 -0.2832  0.2571
  771MOL0     O 6284   3.836  10.140  10.251  0.3265 -0.5619 -0.7733
  771MOL0     C 6285   3.919  10.244  10.245 -0.1600 -0.6879 -0.7655
  771MOL0     C 6286   4.008  10.263  10.357  0.5671 -0.6076 -0.2268
  771MOL0     C 6287   4.104  10.372  10.353  0.4611  1.2341  0.1069
  771MOL0     C 6288   4.185  10.393  10.483  1.1308  0.2417  0.2631
  771MOL0     C 6289   4.113  10.455  10.235  0.7465  0.2807 -0.0605
  771MOL0     C 6290   4.212  10.575  10.223 -0.1207  0.2228  0.1175
  771MOL0     O 6291   4.232  10.630  10.097  0.0548  0.4757 -0.5574
  771MOL0     C 6292   4.331  10.733  10.092  0.8763  0.1535 -0.1400
  771MOL0     C 6293   4.456  10.734  10.151 -0.5053  0.4544  0.2401
  771MOL0     C 6294   4.547  10.835  10.135 -0.0329 -0.2881 -0.0064
  771MOL0     C 6295   4.516  10.941  10.050 -0.1937  0.5067 -0.0309
  771MOL0     O 6296   4.595  11.044  10.027 -0.8631 -0.1566 -0.0400
  771MOL0     C 6297   4.737  11.031  10.062  0.2660 -0.0469  0.6431
  771MOL0     C 6298   4.803  10.950   9.944 -0.2714 -0.3296 -0.5836
  771MOL0     C 6299   4.939  10.916   9.972 -0.0728 -0.1086  0.0780
  771MOL0     C 6300   4.976  10.766  10.008 -0.7461  0.8460  0.4588
  771MOL0     C 6301   5.127  10.743  10.015 -0.3156 -0.1267  0.4510
  771MOL0     C 6302   5.151  10.600  10.034 -0.3444 -0.6732  0.5872
  771MOL0     C 6303   5.293  10.562  10.074  0.0505  1.5371  0.4933
  771MOL0     C 6304   5.320  10.410  10.075 -0.2374  0.6656  0.5245
  771MOL0    Cl 6305   5.199  10.312  10.163  0.1290 -0.1674 -0.4393
  771MOL0     C 6306   4.391  10.937   9.988  0.2884 -0.4837 -0.4609
  771MOL0     C 6307   4.297  10.840  10.006  0.5058  0.7320 -0.3256
  771MOL0     O 6308   4.264  10.625  10.326 -0.8439 -0.3067  0.1621
  771MOL0     C 6309   4.021  10.430  10.128 -0.7984  0.3021 -0.5847
  771MOL0     C 6310   3.921  10.340  10.137 -1.0953  0.6556 -0.4157
  771MOL0     N 6311   3.444   9.812  10.659 -0.2205  0.2367  0.2521
  771MOL0     N 6312   3.490   9.759  10.766 -0.4799  0.0778  0.5513
  771MOL0     C 6313   3.239   8.937  11.317 -0.5831  0.6609 -1.0556
  771MOL0     C 6314   3.097   8.939  11.341 -0.1381 -0.0790  0.1671
  771MOL0     C 6315   2.662   8.795  11.318  0.1158  0.0483  0.7315
  771MOL0     C 6316   2.604   8.896  11.244  0.5027 -0.0227  0.6164
  771MOL0     C 6317   2.464   8.909  11.248 -1.0014 -0.0871  0.2660
  771MOL0     C 6318   2.376   8.807  11.296  0.3809 -0.0514 -0.1854
  771MOL0     O 6319   2.244   8.833  11.291  1.2534  0.4694  0.7933
  771MOL0     C 6320   2.147   8.778  11.390 -1.6883  0.5024  0.1266
  771MOL0     C 6321   2.001   8.826  11.373  0.0076 -0.5056  0.4093
  771MOL0     C 6322   2.005   8.978  11.362 -0.2614 -0.4429 -0.4177
  771MOL0     C 6323   1.867   9.059  11.377  1.3123  0.2881  0.8182
  771MOL0     C 6324   1.746   8.968  11.361  0.0330 -0.5268  0.4979
  771MOL0     C 6325   1.654   8.889  11.365 -0.0087  0.8966 -0.1119
  771MOL0     C 6326   2.437   8.706  11.362  0.2584  0.1578  0.1899
  771MOL0     C 6327   2.573   8.701  11.385  0.2197 -0.6117 -0.0440
  771MOL0     C 6328   2.620   8.587  11.476  0.2743 -0.3119  0.1827
  771MOL0     H 6329   2.998   8.745  11.078  0.5058 -0.0337 -2.5176
  771MOL0     H 6330   3.238   8.724  11.052  0.3710 -2.7377  2.2878
  771MOL0     H 6331   3.617   8.889  11.222  0.0066 -1.4012  0.7689
  771MOL0     H 6332   3.505   8.922  11.358 -2.5366  0.4399 -0.5722
  771MOL0     H 6333   3.477   9.146  11.297 -0.4391  2.8395 -1.7480
  771MOL0     H 6334   3.636   9.105  11.237  0.8398  0.6726 -3.3786
  771MOL0     H 6335   3.536   9.063  11.008  1.4780  2.9466 -1.6364
  771MOL0     H 6336   3.381   9.132  11.073  0.2828  2.5028 -0.5176
  771MOL0     H 6337   3.474   9.300  10.955  0.1607  2.3773  0.9114
  771MOL0     H 6338   3.502   9.340  11.130 -2.9893  0.8995 -0.5732
  771MOL0     H 6339   3.681   9.216  10.917 -2.8411  0.9104 -0.6143
  771MOL0     H 6340   3.744   9.242  11.081  2.4977  0.7172 -1.6822
  771MOL0     H 6341   3.725   9.485  11.073  3.2362 -0.3418  0.0152
  771MOL0     H 6342   3.834   9.426  10.964  0.0719 -1.7222 -2.5697
  771MOL0     H 6343   3.545   9.499  10.872 -0.1590 -0.4038 -0.7968
  771MOL0     H 6344   3.682   9.456  10.768  0.2701  1.1502 -1.2117
  771MOL0     H 6345   3.677   9.697  10.947 -2.1058 -2.0895 -0.3202
  771MOL0     H 6346   3.813   9.659  10.839 -0.3522 -0.8585 -1.8809
  771MOL0     H 6347   3.761   9.745  10.576 -2.4238  0.1571 -3.2604
  771MOL0     H 6348   3.430   9.893  10.411 -0.9904 -2.0383  1.8896
  771MOL0     H 6349   3.573   9.814  10.363 -0.7290  0.1810 -0.3632
  771MOL0     H 6350   3.576  10.097  10.478 -1.9644 -2.1352  2.2844
  771MOL0     H 6351   3.723  10.020  10.454 -0.8842 -0.4855  2.6997
  771MOL0     H 6352   3.639   9.970  10.203 -0.6358 -0.3774  1.2168
  771MOL0     H 6353   3.509  10.075  10.250 -0.8369 -1.5585 -0.9949
  771MOL0     H 6354   3.691  10.203  10.133  2.4687 -0.3949  0.0915
  771MOL0     H 6355   3.658  10.261  10.297 -0.7419 -0.0181 -0.3855
  771MOL0     H 6356   3.997  10.189  10.435 -1.3383 -0.1260 -0.0010
  771MOL0     H 6357   4.116  10.368  10.564 -2.9539  0.8901 -2.7567
  771MOL0     H 6358   4.205  10.498  10.508 -0.1118  0.0485  2.2773
  771MOL0     H 6359   4.273  10.328  10.488  0.2048 -0.9710  1.0579
  771MOL0     H 6360   4.474  10.644  10.210 -0.0645 -0.4185 -1.1706
  771MOL0     H 6361   4.626  10.818  10.207 -1.9930 -0.1437  2.2776
  771MOL0     H 6362   4.789  11.127  10.054 -0.0193  0.1031  0.5427
  771MOL0     H 6363   4.755  10.980  10.157  1.8434 -0.6132  0.0706
  771MOL0     H 6364   4.750  10.856   9.927 -2.7491  0.8610 -0.0434
  771MOL0     H 6365   4.794  11.005   9.850 -2.5758 -2.5950 -1.8061
  771MOL0     H 6366   4.980  10.998  10.031  1.8159  0.7897 -2.2953
  771MOL0     H 6367   4.989  10.925   9.875  1.1854  0.5394  0.7588
  771MOL0     H 6368   4.928  10.693   9.942 -0.3588 -0.2986  1.4026
  771MOL0     H 6369   4.929  10.753  10.106  0.6338 -0.4755  0.9807
  771MOL0     H 6370   5.174  10.779   9.923 -1.1256 -0.7172 -0.2031
  771MOL0     H 6371   5.160  10.808  10.097 -1.4758  0.9589  0.1030
  771MOL0     H 6372   5.142  10.562   9.931  2.0309  0.6446 -0.1789
  771MOL0     H 6373   5.083  10.565  10.112 -2.8613  2.6360  0.0855
  771MOL0     H 6374   5.313  10.586  10.178  1.3315 -0.0033  0.6396
  771MOL0     H 6375   5.367  10.622  10.019 -0.1161 -0.5179 -2.1954
  771MOL0     H 6376   5.420  10.387  10.111 -0.1091 -0.1703 -0.3151
  771MOL0     H 6377   5.316  10.379   9.970  1.1117 -1.7317  1.1201
  771MOL0     H 6378   4.372  11.018   9.918 -0.8629  1.9400  2.4192
  771MOL0     H 6379   4.199  10.848   9.961  0.1380 -2.2550 -0.2956
  771MOL0     H 6380   4.016  10.492  10.039 -3.1978  2.6329  1.0061
  771MOL0     H 6381   3.857  10.324  10.050  1.4407  3.3965 -3.0326
  771MOL0     H 6382   3.295   8.990  11.393  1.2917 -1.4711 -0.8503
  771MOL0     H 6383   3.043   8.990  11.420 -2.3464 -0.3933 -1.0676
  771MOL0     H 6384   2.657   8.984  11.209  2.2543 -0.6246  1.5975
  771MOL0     H 6385   2.412   9.000  11.219  0.6814  1.4937  1.9893
  771MOL0     H 6386   2.154   8.676  11.351  0.8187  1.4151 -2.0996
  771MOL0     H 6387   2.184   8.796  11.492 -3.9447 -1.1592  1.3406
  771MOL0     H 6388   1.950   8.800  11.466  1.4610 -0.0233  1.3686
  771MOL0     H 6389   1.947   8.779  11.290  1.0579  1.4374 -1.4724
  771MOL0     H 6390   2.068   9.014  11.443 -1.7212  1.9849 -0.2449
  771MOL0     H 6391   2.058   9.016  11.275 -0.2627  2.0449  0.5733
  771MOL0     H 6392   1.850   9.137  11.302 -2.6909 -0.7440  0.4195
  771MOL0     H 6393   1.860   9.110  11.473 -0.7952  0.8634  0.3923
  771MOL0     H 6394   1.573   8.819  11.373  0.5835  0.4351  3.2100
  771MOL0     H 6395   2.378   8.634  11.417 -2.1241  1.6232 -0.2854
  771MOL0     H 6396   2.616   8.626  11.578  1.3111 -2.6491  1.1756
  771MOL0     H 6397   2.550   8.503  11.473 -0.2666  0.1620 -1.8967
  771MOL0     H 6398   2.711   8.541  11.436  0.7757  1.2923 -0.6175
  772MOL0     O 6399   7.681   8.894   3.752 -0.8469  0.2145  0.0802
  772MOL0     C 6400   7.592   8.958   3.696 -0.1400 -0.1330  0.1662
  772MOL0     O 6401   7.555   9.082   3.730 -0.6866 -0.2170 -0.6018
  772MOL0     C 6402   7.597   9.126   3.854 -0.4352 -0.4790  0.3452
  772MOL0     C 6403   7.731   9.148   3.883 -0.3278  0.1884  0.1858
  772MOL0     C 6404   7.779   9.201   4.009 -1.1524 -0.3642  0.3081
  772MOL0     C 6405   7.689   9.243   4.104 -0.3363 -1.3137 -0.3722
  772MOL0     O 6406   7.736   9.300   4.218 -0.4017  0.3784  0.3743
  772MOL0     C 6407   7.666   9.412   4.269  0.2688  0.1069 -0.4662
  772MOL0     C 6408   7.650   9.526   4.169  0.3593  0.6929 -0.4849
  772MOL0     C 6409   7.785   9.603   4.151  0.7991  0.0028 -0.0184
  772MOL0     C 6410   7.898   9.559   4.049 -0.3774  0.5750 -0.8746
  772MOL0     C 6411   8.014   9.655   4.049  0.0205 -0.5798  0.4546
  772MOL0     C 6412   8.121   9.620   3.945  0.4978  0.1415 -0.1720
  772MOL0     C 6413   8.058   9.618   3.798 -0.7194 -0.2304 -0.8641
  772MOL0     C 6414   8.140   9.606   3.678  0.2187 -0.5302  0.5656
  772MOL0     N 6415   8.212   9.477   3.662  0.2077  0.4204 -0.1783
  772MOL0     C 6416   8.346   9.459   3.655 -0.5504 -1.2903  0.0238
  772MOL0     C 6417   8.361   9.332   3.642 -0.9271  1.1765  0.3502
  772MOL0     C 6418   8.490   9.258   3.645  0.0864  0.1023 -0.1466
  772MOL0     C 6419   8.542   9.245   3.491 -0.2513  1.0490 -0.1614
  772MOL0     C 6420   8.628   9.108   3.477  0.3362  0.2995 -0.7408
  772MOL0     C 6421   8.697   9.103   3.345  0.2449 -0.2327  0.0509
  772MOL0     O 6422   8.801   9.201   3.342 -0.0152  0.2447  0.8099
  772MOL0     C 6423   8.848   9.229   3.218 -0.2137 -0.3003 -0.8775
  772MOL0     C 6424   8.832   9.147   3.110  0.2041 -0.6163  0.7872
  772MOL0     C 6425   8.887   9.175   2.988  0.4201  0.0281  0.2915
  772MOL0     C 6426   8.883   9.072   2.874 -0.4771 -0.6442  0.0829
  772MOL0     C 6427   8.959   9.294   2.971  0.2513  0.7085 -0.0789
  772MOL0     C 6428   9.027   9.338   2.842 -0.5110 -0.3354  0.3586
  772MOL0     O 6429   9.071   9.246   2.755  0.5095 -0.4646  0.5164
  772MOL0     C 6430   9.153   9.291   2.649  0.3239 -0.1806 -0.5431
  772MOL0     C 6431   9.286   9.337   2.671  0.0410  0.3570 -0.2059
  772MOL0     C 6432   9.369   9.360   2.565 -0.0951 -0.2290 -0.1696
  772MOL0     C 6433   9.333   9.335   2.441 -0.7069  0.4090 -0.7673
  772MOL0     O 6434   9.429   9.371   2.345 -0.0179  0.4440  0.1230
  772MOL0     C 6435   9.427   9.313   2.214  0.0493 -0.3990 -0.7796
  772MOL0     C 6436   9.559   9.354   2.140 -0.2851  0.1594 -0.3393
  772MOL0     C 6437   9.576   9.304   1.996  0.4087  1.6338 -0.3684
  772MOL0     C 6438   9.651   9.397   1.901 -0.0127  0.7579 -0.0573
  772MOL0     C 6439   9.776   9.329   1.844  0.9866  0.3717  0.9475
  772MOL0     C 6440   9.868   9.424   1.780  0.2628 -0.5406 -0.0037
  772MOL0     C 6441   9.979   9.351   1.698  0.2622  0.4376 -0.0486
  772MOL0     C 6442  10.067   9.457   1.620 -0.1423  0.3993 -0.5917
  772MOL0    Cl 6443  10.010   9.485   1.458  0.1235  0.2467  0.2765
  772MOL0     C 6444   9.209   9.289   2.416 -0.0554  1.0176 -1.3381
  772MOL0     C 6445   9.125   9.255   2.518 -0.0388  0.2615 -0.7242
  772MOL0     O 6446   9.047   9.458   2.831 -0.3413 -0.2433  0.2496
  772MOL0     C 6447   8.966   9.382   3.079  0.3725  1.3028 -0.3035
  772MOL0     C 6448   8.903   9.348   3.196  0.4661  0.0953 -0.3639
  772MOL0     N 6449   8.242   9.268   3.637  0.3760  0.2407 -0.0313
  772MOL0     N 6450   8.153   9.354   3.644  0.0943 -0.3813  0.5556
  772MOL0     C 6451   7.551   9.226   4.074  0.8020  0.2286 -0.0463
  772MOL0     C 6452   7.514   9.176   3.946 -0.5506 -0.0378 -0.9683
  772MOL0     C 6453   7.551   8.917   3.564 -0.4195  1.2078  0.9817
  772MOL0     C 6454   7.479   9.008   3.474 -0.7223  0.0811  0.0917
  772MOL0     C 6455   7.424   8.976   3.348  0.2960  0.5763  0.0112
  772MOL0     C 6456   7.420   8.843   3.304  0.5016 -0.8632 -0.3082
  772MOL0     O 6457   7.353   8.796   3.196 -0.2958  0.0076  0.2062
  772MOL0     C 6458   7.259   8.888   3.141  1.0004 -0.2984  0.4401
  772MOL0     C 6459   7.178   8.812   3.039  0.0621  0.7630 -0.1495
  772MOL0     C 6460   7.081   8.890   2.959  0.3342 -0.2659  0.0002
  772MOL0     C 6461   7.160   8.996   2.880 -0.3148  0.2298 -0.1071
  772MOL0     C 6462   7.154   9.128   2.950  0.4056  0.0539 -0.4375
  772MOL0     C 6463   7.165   9.239   2.988  0.2791  0.1905  0.2410
  772MOL0     C 6464   7.482   8.755   3.390 -0.2426  0.3613  0.6585
  772MOL0     C 6465   7.556   8.782   3.505 -0.0328 -0.0410 -0.7205
  772MOL0     C 6466   7.629   8.671   3.582  0.1160 -0.0099 -0.2747
  772MOL0     H 6467   7.809   9.126   3.811 -0.2377  0.4080  0.2147
  772MOL0     H 6468   7.886   9.206   4.023 -1.1229  2.0992 -0.2609
  772MOL0     H 6469   7.725   9.453   4.351 -2.2314  1.3057  0.8428
  772MOL0     H 6470   7.571   9.376   4.309  1.8793 -1.2325  2.5079
  772MOL0     H 6471   7.606   9.496   4.073  2.7156 -1.5055 -1.0001
  772MOL0     H 6472   7.574   9.594   4.209 -1.5453 -1.3266 -0.4750
  772MOL0     H 6473   7.761   9.704   4.117 -0.6970 -0.4193 -0.3187
  772MOL0     H 6474   7.824   9.622   4.251  0.8179  2.7793 -0.4954
  772MOL0     H 6475   7.931   9.460   4.084  3.0523  0.7039 -3.2371
  772MOL0     H 6476   7.849   9.546   3.952 -0.6985  4.2368 -1.3580
  772MOL0     H 6477   8.064   9.656   4.146 -0.1252  0.3186  0.5330
  772MOL0     H 6478   7.979   9.751   4.010  2.3840  0.6351  1.1275
  772MOL0     H 6479   8.209   9.685   3.955 -0.3540  1.8014 -2.6212
  772MOL0     H 6480   8.148   9.517   3.969 -2.2217 -0.5982 -0.0075
  772MOL0     H 6481   7.990   9.703   3.796  0.1785  0.4979 -1.0319
  772MOL0     H 6482   7.993   9.530   3.794 -0.4850 -0.6730  2.3350
  772MOL0     H 6483   8.063   9.605   3.600 -1.2402 -0.7876  1.9730
  772MOL0     H 6484   8.213   9.686   3.663 -0.0395 -0.4153 -0.1099
  772MOL0     H 6485   8.420   9.538   3.671 -0.0940 -2.3327  4.1311
  772MOL0     H 6486   8.478   9.159   3.691  0.8512 -0.3870 -0.9511
  772MOL0     H 6487   8.558   9.312   3.710 -0.8974  2.6799 -1.1477
  772MOL0     H 6488   8.453   9.230   3.429 -1.4541 -0.0457  1.6987
  772MOL0     H 6489   8.603   9.332   3.468  1.5221  0.0161  0.4571
  772MOL0     H 6490   8.701   9.095   3.557 -1.3459 -1.2477  0.6293
  772MOL0     H 6491   8.558   9.027   3.501  1.6540 -0.0424  2.4152
  772MOL0     H 6492   8.756   9.011   3.337  2.6406  1.2051 -0.0755
  772MOL0     H 6493   8.615   9.124   3.276 -0.1277 -2.0710 -0.1040
  772MOL0     H 6494   8.783   9.053   3.134  0.4299  0.1774  5.0426
  772MOL0     H 6495   8.856   9.111   2.775 -0.5816  1.1912  0.7960
  772MOL0     H 6496   8.811   8.994   2.899  0.6115 -1.6348  0.2091
  772MOL0     H 6497   8.982   9.029   2.858 -0.2873  0.5895 -2.8140
  772MOL0     H 6498   9.308   9.363   2.775 -1.6138  0.1318  0.2247
  772MOL0     H 6499   9.462   9.410   2.589 -1.2859  0.4821  3.8344
  772MOL0     H 6500   9.421   9.205   2.227 -2.6496  0.0248  4.5095
  772MOL0     H 6501   9.325   9.335   2.180 -1.1668 -2.8897  0.9927
  772MOL0     H 6502   9.568   9.463   2.136 -0.0017  0.3050  2.2263
  772MOL0     H 6503   9.640   9.310   2.198 -0.3500 -0.3023 -0.5962
  772MOL0     H 6504   9.478   9.287   1.950  1.2256 -1.0046 -1.2656
  772MOL0     H 6505   9.620   9.205   2.007 -1.8698  0.4742 -1.1766
  772MOL0     H 6506   9.681   9.491   1.949  1.7767  0.4291 -0.4752
  772MOL0     H 6507   9.584   9.418   1.818 -1.6223  1.2987  1.3270
  772MOL0     H 6508   9.824   9.277   1.927  0.5994  0.6764  1.3713
  772MOL0     H 6509   9.744   9.260   1.765  1.2075  0.7486  0.5237
  772MOL0     H 6510   9.920   9.472   1.863  0.1546 -2.0733  0.9926
  772MOL0     H 6511   9.806   9.487   1.715 -0.0584 -0.6483  0.1953
  772MOL0     H 6512   9.931   9.282   1.628  0.3089 -0.9410  1.2330
  772MOL0     H 6513  10.041   9.289   1.764  1.1251 -0.0474 -1.2934
  772MOL0     H 6514  10.171   9.423   1.611 -0.2318 -0.6883  1.6096
  772MOL0     H 6515  10.074   9.549   1.678 -1.7693  0.8189 -1.0055
  772MOL0     H 6516   9.186   9.273   2.311 -1.2606 -0.1829 -0.9132
  772MOL0     H 6517   9.027   9.211   2.504 -1.1683  2.0534  0.9205
  772MOL0     H 6518   9.013   9.479   3.081 -0.5227  1.7445 -0.4225
  772MOL0     H 6519   8.932   9.403   3.286 -0.8317 -1.0673  0.8111
  772MOL0     H 6520   7.469   9.260   4.136  1.9053  0.0265  1.6074
  772MOL0     H 6521   7.408   9.188   3.923 -0.4929  0.0151 -1.1983
  772MOL0     H 6522   7.468   9.111   3.506  1.6688  0.7795 -1.0674
  772MOL0     H 6523   7.392   9.062   3.290  1.4610 -0.4517 -2.2689
  772MOL0     H 6524   7.202   8.948   3.212  0.8982  1.1899 -0.8551
  772MOL0     H 6525   7.315   8.959   3.080 -2.1322  2.3706  0.3929
  772MOL0     H 6526   7.113   8.740   3.091 -2.4841  1.2515 -2.4174
  772MOL0     H 6527   7.249   8.751   2.983  3.4981  1.5615  2.9631
  772MOL0     H 6528   7.049   8.819   2.883  4.2867 -0.4964 -1.6726
  772MOL0     H 6529   7.002   8.933   3.023 -0.2664 -1.8215  0.3594
  772MOL0     H 6530   7.129   9.007   2.776  1.1863 -0.6513 -0.6908
  772MOL0     H 6531   7.266   8.968   2.872 -0.1769  0.7309 -0.0370
  772MOL0     H 6532   7.166   9.341   3.021 -0.2223  0.0783  0.6179
  772MOL0     H 6533   7.463   8.652   3.361 -3.1516  0.9646  0.1020
  772MOL0     H 6534   7.589   8.664   3.683 -2.4496 -2.5981 -1.3316
  772MOL0     H 6535   7.611   8.573   3.537  0.0344  0.3393 -1.0348
  772MOL0     H 6536   7.735   8.696   3.595  0.4847  0.0368 -2.8126
  773MOL0     O 6537   7.737   1.170   1.507 -0.1866  0.3324  0.1225
  773MOL0     C 6538   7.810   1.195   1.414 -0.6265  0.2517 -0.4937
  773MOL0     O 6539   7.789   1.294   1.327  0.7679  0.1468  0.1461
  773MOL0     C 6540   7.678   1.371   1.324 -0.4903 -0.7587  0.0548
  773MOL0     C 6541   7.685   1.509   1.315  0.2117  0.2424  0.4828
  773MOL0     C 6542   7.567   1.581   1.292 -0.1585 -0.1445 -0.5004
  773MOL0     C 6543   7.440   1.515   1.283 -0.0737 -0.3958 -1.3931
  773MOL0     O 6544   7.322   1.574   1.257  0.7465  0.5758 -0.4621
  773MOL0     C 6545   7.317   1.721   1.276 -0.4611  1.0620 -0.2552
  773MOL0     C 6546   7.179   1.770   1.248 -0.3525 -0.4362  0.5845
  773MOL0     C 6547   7.088   1.676   1.318  0.5746  0.1936 -0.2522
  773MOL0     C 6548   6.959   1.753   1.330  0.6414 -0.1453 -0.2488
  773MOL0     C 6549   6.851   1.672   1.401 -0.0870 -0.6571 -0.1760
  773MOL0     C 6550   6.712   1.738   1.371 -0.4618  0.4300 -0.0111
  773MOL0     C 6551   6.602   1.636   1.424 -0.2442  0.0350 -0.4436
  773MOL0     C 6552   6.455   1.682   1.393  0.1412 -0.2643 -0.1542
  773MOL0     N 6553   6.351   1.592   1.449 -0.4527  1.1216  0.4430
  773MOL0     C 6554   6.248   1.619   1.536 -0.2096  0.4397 -0.1374
  773MOL0     C 6555   6.193   1.499   1.554 -0.7747 -0.2713  0.0952
  773MOL0     C 6556   6.070   1.481   1.627  0.2345  0.8106 -0.6274
  773MOL0     C 6557   5.977   1.392   1.545  0.3174  0.5503 -0.1150
  773MOL0     C 6558   5.844   1.393   1.630 -0.2660  0.2672  0.0918
  773MOL0     C 6559   5.740   1.295   1.579 -0.2578  0.5586  0.3100
  773MOL0     O 6560   5.803   1.166   1.611 -0.0365 -0.7503  0.3111
  773MOL0     C 6561   5.740   1.078   1.689  0.4820  1.0407  0.4454
  773MOL0     C 6562   5.713   0.955   1.632  0.2497  0.0300 -0.1606
  773MOL0     C 6563   5.647   0.853   1.708  0.5827  0.1412  0.3122
  773MOL0     C 6564   5.621   0.721   1.646 -0.3134 -0.6381  0.3968
  773MOL0     C 6565   5.585   0.894   1.829 -1.0885  0.3119  0.6777
  773MOL0     C 6566   5.488   0.811   1.911 -0.5088 -0.6599  0.3944
  773MOL0     O 6567   5.405   0.885   1.991 -0.1260  0.1747  0.2939
  773MOL0     C 6568   5.345   0.829   2.099  0.3905  0.0462  0.6916
  773MOL0     C 6569   5.350   0.895   2.222 -0.0797  0.2769 -0.1041
  773MOL0     C 6570   5.283   0.840   2.334 -0.5397  0.1877  0.0199
  773MOL0     C 6571   5.217   0.712   2.324  0.3256  0.1995  0.4668
  773MOL0     O 6572   5.150   0.649   2.432 -0.2050 -0.8104  0.0317
  773MOL0     C 6573   5.154   0.717   2.560 -0.0733 -0.0380 -1.2980
  773MOL0     C 6574   5.109   0.634   2.676  0.8021  0.1514  0.0209
  773MOL0     C 6575   4.955   0.594   2.653  0.3842 -0.0493 -0.2576
  773MOL0     C 6576   4.855   0.659   2.752  1.1654  1.0281  0.1255
  773MOL0     C 6577   4.709   0.630   2.728 -0.6428  0.4169 -0.0982
  773MOL0     C 6578   4.643   0.681   2.597  0.3383  1.2571  0.2431
  773MOL0     C 6579   4.655   0.836   2.598  0.9136  0.4086  0.1297
  773MOL0     C 6580   4.561   0.918   2.500 -0.4187 -0.1221  0.0828
  773MOL0    Cl 6581   4.395   0.934   2.573  0.1085 -0.4523 -0.4928
  773MOL0     C 6582   5.221   0.656   2.201 -0.5328 -0.3555  1.1733
  773MOL0     C 6583   5.271   0.716   2.088  0.0922 -0.6231 -1.2084
  773MOL0     O 6584   5.491   0.687   1.903 -0.1243 -1.4043 -0.3365
  773MOL0     C 6585   5.608   1.019   1.885 -0.8429  0.7250  0.3874
  773MOL0     C 6586   5.688   1.111   1.816 -0.3176 -0.5198  0.9378
  773MOL0     N 6587   6.255   1.401   1.478  0.3235 -0.2362 -0.0099
  773MOL0     N 6588   6.348   1.459   1.413 -0.7477 -0.8637  0.0840
  773MOL0     C 6589   7.440   1.382   1.294  0.2630  0.4519  1.1853
  773MOL0     C 6590   7.560   1.302   1.310  0.8372 -0.7511 -0.1154
  773MOL0     C 6591   7.949   1.134   1.411 -0.8088 -0.2556 -1.0708
  773MOL0     C 6592   8.028   1.167   1.300 -0.3173 -0.2217 -0.0389
  773MOL0     C 6593   8.153   1.101   1.278  0.8563 -0.0335 -0.2950
  773MOL0     C 6594   8.201   0.986   1.352  0.0467  0.4821 -0.2195
  773MOL0     O 6595   8.316   0.917   1.322  0.7413  0.8697  0.1435
  773MOL0     C 6596   8.341   0.892   1.189 -0.4158  0.6581  0.2635
  773MOL0     C 6597   8.406   0.750   1.178  0.9357  0.1967 -0.1614
  773MOL0     C 6598   8.307   0.623   1.199  0.0242 -0.4070  0.1563
  773MOL0     C 6599   8.396   0.499   1.217 -0.2053 -0.1118 -0.3815
  773MOL0     C 6600   8.468   0.470   1.091  0.4504 -0.3745 -0.0240
  773MOL0     C 6601   8.545   0.453   0.998  1.1576  0.5499 -0.4427
  773MOL0     C 6602   8.118   0.955   1.466 -0.1079  0.0955  0.3555
  773MOL0     C 6603   7.997   1.028   1.500 -0.3257  0.3225  0.3967
  773MOL0     C 6604   7.922   0.988   1.625 -0.7435 -0.3192 -1.0069
  773MOL0     H 6605   7.783   1.553   1.329  1.3253 -2.3269  1.3928
  773MOL0     H 6606   7.579   1.689   1.285  1.3975 -0.3615 -1.8311
  773MOL0     H 6607   7.392   1.768   1.212 -0.6740  0.3459 -1.0475
  773MOL0     H 6608   7.345   1.742   1.380  1.7961  1.6661 -0.9206
  773MOL0     H 6609   7.180   1.877   1.270 -3.0235  0.3699 -2.5237
  773MOL0     H 6610   7.170   1.758   1.140  2.7106  1.0170  0.0563
  773MOL0     H 6611   7.072   1.587   1.256  0.1017  1.3221 -1.8106
  773MOL0     H 6612   7.121   1.637   1.415  0.0954  1.3150  0.3741
  773MOL0     H 6613   6.963   1.844   1.392 -0.6949 -1.8238  2.5123
  773MOL0     H 6614   6.934   1.776   1.226  0.3450  4.1294  0.5544
  773MOL0     H 6615   6.869   1.676   1.509  2.6721  1.4185 -0.6121
  773MOL0     H 6616   6.861   1.568   1.369  2.1018 -0.8482  0.9458
  773MOL0     H 6617   6.700   1.844   1.398 -2.3439  0.9041 -2.3787
  773MOL0     H 6618   6.699   1.738   1.263 -0.3690 -3.8491 -0.1628
  773MOL0     H 6619   6.622   1.621   1.531  0.7013 -0.0358 -0.6198
  773MOL0     H 6620   6.609   1.537   1.378  0.9215  1.5752 -3.9157
  773MOL0     H 6621   6.428   1.782   1.428 -0.5898  0.0856 -1.6279
  773MOL0     H 6622   6.451   1.677   1.284 -0.5033  0.3684 -0.1688
  773MOL0     H 6623   6.215   1.719   1.564 -1.6942 -0.6125  2.1413
  773MOL0     H 6624   6.037   1.583   1.646 -0.2724  0.6436 -0.5985
  773MOL0     H 6625   6.099   1.432   1.721  1.7168  1.9469 -0.4531
  773MOL0     H 6626   5.960   1.441   1.448  0.3546  0.1255 -0.3381
  773MOL0     H 6627   6.020   1.293   1.529  0.1905  0.6952 -1.5407
  773MOL0     H 6628   5.857   1.370   1.736  1.4063 -0.7829 -0.2919
  773MOL0     H 6629   5.805   1.494   1.622  1.3339  1.1256  2.1411
  773MOL0     H 6630   5.648   1.306   1.637  0.0716 -4.3084  2.1767
  773MOL0     H 6631   5.717   1.307   1.473 -1.5773  1.4784  0.6706
  773MOL0     H 6632   5.761   0.937   1.537  3.2961 -2.7964  1.7129
  773MOL0     H 6633   5.680   0.713   1.554 -2.8458 -2.3135 -1.1817
  773MOL0     H 6634   5.517   0.700   1.622 -0.2168  1.6045 -2.5277
  773MOL0     H 6635   5.664   0.648   1.716  1.1104  0.1766  0.4254
  773MOL0     H 6636   5.402   0.990   2.232  2.1012 -0.9975  1.5683
  773MOL0     H 6637   5.290   0.890   2.430 -2.8093  0.4531  0.1136
  773MOL0     H 6638   5.256   0.725   2.598 -0.3070  0.0203 -0.6707
  773MOL0     H 6639   5.111   0.817   2.551 -2.1894 -0.8175 -0.4494
  773MOL0     H 6640   5.172   0.545   2.682 -0.6286 -0.8405  1.5572
  773MOL0     H 6641   5.118   0.698   2.764  1.9640  0.8084 -0.5609
  773MOL0     H 6642   4.944   0.485   2.665  1.9950 -0.0845  1.3593
  773MOL0     H 6643   4.931   0.618   2.549 -1.7063  0.1505  0.2110
  773MOL0     H 6644   4.887   0.763   2.757  1.4329  1.0358 -1.3795
  773MOL0     H 6645   4.873   0.624   2.854  1.3017 -0.2173 -0.3010
  773MOL0     H 6646   4.693   0.523   2.740  0.6180  0.4329  2.5969
  773MOL0     H 6647   4.661   0.685   2.809 -0.7364 -1.4735  1.1927
  773MOL0     H 6648   4.539   0.648   2.586  0.3729  1.5484 -1.1278
  773MOL0     H 6649   4.694   0.636   2.511 -0.2796 -1.6203  1.2812
  773MOL0     H 6650   4.762   0.845   2.577  0.5817 -2.6106 -4.2210
  773MOL0     H 6651   4.643   0.871   2.701  1.3225 -1.4148  0.8458
  773MOL0     H 6652   4.557   0.869   2.403  0.7627  0.4852 -0.2883
  773MOL0     H 6653   4.600   1.018   2.481  0.9831 -0.0681  2.7037
  773MOL0     H 6654   5.150   0.575   2.189 -1.1368  0.1277  1.3759
  773MOL0     H 6655   5.248   0.659   1.998 -1.1363 -2.8959  0.4453
  773MOL0     H 6656   5.569   1.042   1.983 -0.6624 -0.3372  0.7180
  773MOL0     H 6657   5.703   1.206   1.866 -0.1389 -0.2574  0.3939
  773MOL0     H 6658   7.344   1.332   1.308  0.4815 -1.5110 -2.8367
  773MOL0     H 6659   7.547   1.194   1.301  0.5184 -0.9533  2.1682
  773MOL0     H 6660   7.999   1.233   1.219  1.9779  4.4354  2.5418
  773MOL0     H 6661   8.204   1.143   1.193 -1.9200 -0.1007 -2.1300
  773MOL0     H 6662   8.247   0.884   1.134 -2.3444 -0.7807  3.4612
  773MOL0     H 6663   8.402   0.965   1.134  1.1399 -0.4705  0.4408
  773MOL0     H 6664   8.496   0.738   1.239  1.1479 -2.1100 -0.8558
  773MOL0     H 6665   8.453   0.740   1.080 -0.4920 -0.8230 -0.7769
  773MOL0     H 6666   8.251   0.645   1.290  0.7599 -0.0828  0.5474
  773MOL0     H 6667   8.227   0.610   1.126 -0.9776 -0.1916  1.2008
  773MOL0     H 6668   8.324   0.423   1.248  0.8175  0.0311  2.6244
  773MOL0     H 6669   8.476   0.508   1.291  0.5100 -2.5425 -0.7855
  773MOL0     H 6670   8.602   0.443   0.907  1.2257  1.2459 -0.4835
  773MOL0     H 6671   8.153   0.869   1.522 -1.2712 -3.2895 -3.5688
  773MOL0     H 6672   7.990   0.932   1.691 -0.0490 -0.8679 -2.1441
  773MOL0     H 6673   7.894   1.074   1.687 -1.2786 -0.7095 -0.6981
  773MOL0     H 6674   7.836   0.926   1.600 -0.1449 -0.7884 -1.9747
  774MOL0     O 6675   1.791   5.271   0.796  0.4395  0.0532 -0.4481
  774MOL0     C 6676   1.811   5.301   0.681 -0.3821  0.3598  0.0924
  774MOL0     O 6677   1.941   5.341   0.629  0.4393 -0.0930  0.2936
  774MOL0     C 6678   2.028   5.364   0.730  0.6244  0.9471 -0.1041
  774MOL0     C 6679   2.105   5.254   0.764  0.4403  0.3467 -0.8483
  774MOL0     C 6680   2.203   5.256   0.865  0.7514 -0.5302 -0.3505
  774MOL0     C 6681   2.237   5.380   0.921 -0.1953 -0.5959 -0.0365
  774MOL0     O 6682   2.349   5.379   1.002  0.3496 -0.7522  0.5620
  774MOL0     C 6683   2.401   5.507   1.037 -0.7448  1.1181  0.1687
  774MOL0     C 6684   2.519   5.472   1.128  0.2151 -0.5311 -0.3700
  774MOL0     C 6685   2.613   5.587   1.184  0.5042  0.2780  1.2247
  774MOL0     C 6686   2.661   5.686   1.078 -0.1242  0.6654  1.2021
  774MOL0     C 6687   2.777   5.769   1.110 -0.1104  0.2657  0.2052
  774MOL0     C 6688   2.792   5.886   1.009 -0.2392  0.2982 -0.3101
  774MOL0     C 6689   2.903   5.979   1.046  0.0306 -0.7350 -0.2245
  774MOL0     C 6690   2.902   6.109   0.961  0.5794  0.4894  0.1740
  774MOL0     N 6691   2.968   6.110   0.832 -0.4492  0.1401 -0.5078
  774MOL0     C 6692   3.108   6.120   0.807 -0.3902 -0.4681  0.4202
  774MOL0     C 6693   3.119   6.142   0.667 -0.3154  0.0463 -0.1331
  774MOL0     C 6694   3.245   6.174   0.591 -0.8553 -0.0512  0.0696
  774MOL0     C 6695   3.345   6.268   0.663 -0.2230  0.2392  0.0423
  774MOL0     C 6696   3.484   6.265   0.615 -0.4523  0.2947  0.0469
  774MOL0     C 6697   3.491   6.311   0.469 -0.8569 -0.0935 -0.1057
  774MOL0     O 6698   3.626   6.339   0.444 -0.2953 -0.5530 -0.2736
  774MOL0     C 6699   3.652   6.388   0.317 -0.4507 -0.2148 -1.3093
  774MOL0     C 6700   3.561   6.394   0.211  0.2287 -0.4278  0.4359
  774MOL0     C 6701   3.591   6.454   0.088  0.1807 -0.5137  0.4059
  774MOL0     C 6702   3.482   6.456  -0.012  0.6090 -0.0839 -0.0145
  774MOL0     C 6703   3.709   6.523   0.071 -0.5650  0.2064 -0.0449
  774MOL0     C 6704   3.750   6.595  -0.048 -0.2410 -0.0196 -0.7349
  774MOL0     O 6705   3.887   6.615  -0.064  0.1487 -0.3877 -0.7693
  774MOL0     C 6706   3.920   6.658  -0.189  0.1531 -0.5072  0.7213
  774MOL0     C 6707   3.913   6.588  -0.311 -0.4339 -0.5005 -0.5677
  774MOL0     C 6708   3.958   6.644  -0.430 -0.8846  0.8258  0.6039
  774MOL0     C 6709   4.016   6.763  -0.434 -0.0316 -0.2043  0.0251
  774MOL0     O 6710   4.067   6.823  -0.549  0.4414 -0.6834 -0.3322
  774MOL0     C 6711   3.971   6.896  -0.626  0.2048  0.1794 -0.1574
  774MOL0     C 6712   4.049   6.981  -0.724  0.4165 -0.4062  0.9009
  774MOL0     C 6713   4.119   7.100  -0.647 -0.9373 -0.4471  0.5120
  774MOL0     C 6714   4.027   7.187  -0.558 -0.1944 -0.3302 -0.3994
  774MOL0     C 6715   3.928   7.268  -0.644 -0.0737 -0.2226 -0.2674
  774MOL0     C 6716   3.872   7.389  -0.570 -0.3088  0.4623  0.8589
  774MOL0     C 6717   3.759   7.465  -0.649 -0.7098 -0.6062  0.1548
  774MOL0     C 6718   3.710   7.573  -0.561 -0.2358 -0.1598 -0.0075
  774MOL0    Cl 6719   3.553   7.637  -0.652 -0.0511  0.3113  0.0260
  774MOL0     C 6720   4.022   6.838  -0.315 -0.0669 -0.9056 -0.1588
  774MOL0     C 6721   3.991   6.783  -0.192 -0.3362  0.0131  0.6522
  774MOL0     O 6722   3.663   6.647  -0.119 -0.2727 -0.6844 -0.9148
  774MOL0     C 6723   3.800   6.515   0.180  0.2085  0.5678 -0.3415
  774MOL0     C 6724   3.778   6.447   0.298  1.1905 -0.7602 -0.9210
  774MOL0     N 6725   2.985   6.154   0.621  0.4713 -0.7636 -0.6243
  774MOL0     N 6726   2.905   6.116   0.712  0.7254  0.0551  0.3549
  774MOL0     C 6727   2.160   5.494   0.887 -0.1217 -0.4666  0.4753
  774MOL0     C 6728   2.058   5.490   0.787 -0.2469 -0.9043  0.2485
  774MOL0     C 6729   1.695   5.269   0.595  0.8128  0.1079 -0.1408
  774MOL0     C 6730   1.588   5.191   0.648  0.1754  0.1268  0.3383
  774MOL0     C 6731   1.460   5.185   0.584  0.0792 -0.1686  0.4824
  774MOL0     C 6732   1.445   5.224   0.448 -0.4721  0.0611  0.8901
  774MOL0     O 6733   1.328   5.195   0.393  0.3851 -0.4728 -0.4207
  774MOL0     C 6734   1.309   5.239   0.264 -0.0937  0.0427 -0.5639
  774MOL0     C 6735   1.165   5.201   0.227 -0.0023 -0.3916 -0.5178
  774MOL0     C 6736   1.116   5.059   0.258 -0.3579 -0.0811  0.2941
  774MOL0     C 6737   1.135   4.977   0.135  0.0788  0.5356  0.3662
  774MOL0     C 6738   1.270   4.948   0.102 -0.0375 -0.4278 -0.1037
  774MOL0     C 6739   1.376   4.920   0.042  0.7742  0.1380 -0.7013
  774MOL0     C 6740   1.557   5.293   0.394 -0.1458 -0.3307 -1.2632
  774MOL0     C 6741   1.676   5.324   0.461  1.0696  0.2752  0.4368
  774MOL0     C 6742   1.781   5.400   0.385  0.0995 -0.1219  0.7323
  774MOL0     H 6743   2.074   5.162   0.715  2.7019 -1.2029  0.4630
  774MOL0     H 6744   2.251   5.161   0.886  0.9428 -0.2149  0.6741
  774MOL0     H 6745   2.327   5.566   1.092  1.0965  2.3807  1.4281
  774MOL0     H 6746   2.438   5.561   0.949  0.5958 -0.2551 -0.1593
  774MOL0     H 6747   2.480   5.417   1.214 -2.4100  0.9770 -0.5128
  774MOL0     H 6748   2.578   5.405   1.065  1.9637 -0.2223  0.8570
  774MOL0     H 6749   2.570   5.644   1.267 -0.0082 -1.5685  2.2701
  774MOL0     H 6750   2.703   5.536   1.220  0.3763 -0.8066  0.0615
  774MOL0     H 6751   2.684   5.635   0.984 -0.3376  0.5326  1.2223
  774MOL0     H 6752   2.582   5.756   1.053 -0.8191 -0.3102  0.6017
  774MOL0     H 6753   2.867   5.706   1.110  1.1249  1.9480 -0.3003
  774MOL0     H 6754   2.761   5.799   1.215 -1.9490 -0.9659  0.3229
  774MOL0     H 6755   2.810   5.849   0.908 -1.7114  2.3057 -1.3722
  774MOL0     H 6756   2.699   5.944   1.006 -0.4835 -0.0475  0.4251
  774MOL0     H 6757   3.002   5.931   1.042  2.4707  3.0875  4.0571
  774MOL0     H 6758   2.893   6.014   1.149 -0.8327 -4.4820  1.1129
  774MOL0     H 6759   2.795   6.131   0.955  0.7229  0.8826 -1.3493
  774MOL0     H 6760   2.943   6.194   1.018  1.5842  1.1926 -1.5295
  774MOL0     H 6761   3.187   6.104   0.880  0.3844 -1.4609 -0.6100
  774MOL0     H 6762   3.219   6.219   0.495  0.4492 -0.5971 -0.5709
  774MOL0     H 6763   3.299   6.086   0.555 -1.7284  0.5589 -3.0719
  774MOL0     H 6764   3.308   6.371   0.665 -1.5655 -0.2388  0.5900
  774MOL0     H 6765   3.338   6.247   0.770 -2.1239 -0.6266 -0.2249
  774MOL0     H 6766   3.541   6.342   0.668  2.1451  0.7662 -3.1093
  774MOL0     H 6767   3.534   6.168   0.621 -1.6189 -0.2774  0.7037
  774MOL0     H 6768   3.442   6.239   0.402 -3.0759  1.5914 -0.4313
  774MOL0     H 6769   3.429   6.397   0.441 -1.0498 -0.0239  0.5151
  774MOL0     H 6770   3.462   6.356   0.235  0.3046  0.4550  2.3415
  774MOL0     H 6771   3.496   6.388  -0.097 -0.4876  1.4861 -1.5468
  774MOL0     H 6772   3.470   6.552  -0.065  2.7940 -0.4057 -1.2161
  774MOL0     H 6773   3.385   6.434   0.033  0.4865 -0.1489 -0.3035
  774MOL0     H 6774   3.876   6.486  -0.314  0.8760 -0.9800 -1.0831
  774MOL0     H 6775   3.955   6.581  -0.519  0.7290  0.2130  0.9440
  774MOL0     H 6776   3.908   6.824  -0.678  0.0345  0.4156 -0.2803
  774MOL0     H 6777   3.900   6.952  -0.564 -1.0019  0.4074 -1.6592
  774MOL0     H 6778   4.129   6.923  -0.770  0.0561 -0.4668  0.3479
  774MOL0     H 6779   3.992   7.027  -0.805  1.5707  1.5527  1.1278
  774MOL0     H 6780   4.159   7.167  -0.724 -1.6353  0.8109  1.2067
  774MOL0     H 6781   4.205   7.071  -0.586 -0.0942  1.2111  0.1592
  774MOL0     H 6782   4.085   7.258  -0.498 -3.1261  3.0100 -1.2084
  774MOL0     H 6783   3.975   7.126  -0.483 -1.8896 -0.5137 -1.6766
  774MOL0     H 6784   3.972   7.291  -0.741  1.6189  0.7873  0.6718
  774MOL0     H 6785   3.854   7.189  -0.658  0.4018 -0.3903 -2.0145
  774MOL0     H 6786   3.952   7.456  -0.539 -0.0176 -1.0328  3.6686
  774MOL0     H 6787   3.823   7.353  -0.479  0.4382  0.7010  1.3675
  774MOL0     H 6788   3.673   7.399  -0.667 -2.5733  1.5441  0.7623
  774MOL0     H 6789   3.809   7.496  -0.741  1.4644 -0.5958  1.2570
  774MOL0     H 6790   3.794   7.642  -0.549  0.2008 -0.7276  0.2719
  774MOL0     H 6791   3.685   7.511  -0.474 -0.0156 -0.6117 -0.2629
  774MOL0     H 6792   4.056   6.941  -0.323  0.9637 -1.0457  1.8157
  774MOL0     H 6793   4.008   6.850  -0.108  1.2326  0.7948 -0.2389
  774MOL0     H 6794   3.898   6.562   0.175  0.5001 -0.1523 -2.6746
  774MOL0     H 6795   3.838   6.464   0.386 -0.1166 -0.1956 -0.1118
  774MOL0     H 6796   2.178   5.589   0.935  1.1425 -1.0887  1.2719
  774MOL0     H 6797   2.008   5.583   0.759 -1.7214 -1.8653 -0.3951
  774MOL0     H 6798   1.602   5.143   0.745 -2.3412  2.5164  2.0137
  774MOL0     H 6799   1.380   5.139   0.642  0.1048  1.2014  1.6869
  774MOL0     H 6800   1.327   5.346   0.252 -0.6769  0.6894  3.2131
  774MOL0     H 6801   1.375   5.176   0.203  0.2624 -0.6638  0.5280
  774MOL0     H 6802   1.146   5.238   0.125 -1.7691  0.0105 -0.0733
  774MOL0     H 6803   1.090   5.268   0.270  3.2724  3.0702  0.3325
  774MOL0     H 6804   1.161   5.010   0.345 -0.4176 -2.1658 -0.7723
  774MOL0     H 6805   1.009   5.070   0.279 -0.0357  2.3259  0.9854
  774MOL0     H 6806   1.084   5.022   0.050  2.3947 -0.3046 -1.5855
  774MOL0     H 6807   1.072   4.889   0.142 -1.4407  1.4607 -1.0869
  774MOL0     H 6808   1.463   4.891  -0.013 -0.5857 -1.0566 -2.3285
  774MOL0     H 6809   1.546   5.323   0.290 -1.7656 -0.0727 -1.0354
  774MOL0     H 6810   1.752   5.406   0.279 -0.0035 -3.1480  0.4980
  774MOL0     H 6811   1.806   5.490   0.441  2.4942 -0.2894  0.0335
  774MOL0     H 6812   1.872   5.340   0.383 -0.2519 -0.6614  0.8462
  775MOL0     O 6813   4.845   8.191   2.993  0.1840 -0.2548  0.2679
  775MOL0     C 6814   4.773   8.092   3.024  0.4107  0.1106  0.0803
  775MOL0     O 6815   4.816   7.960   3.028  0.5686 -0.4649 -0.6073
  775MOL0     C 6816   4.946   7.917   3.012  0.0407  0.0839  0.3278
  775MOL0     C 6817   5.060   7.997   3.044  0.1651 -0.4684 -0.1094
  775MOL0     C 6818   5.186   7.945   3.048  1.4919  0.3685  0.8821
  775MOL0     C 6819   5.205   7.807   3.013  0.0626  0.1409 -0.2083
  775MOL0     O 6820   5.322   7.738   3.014  0.0716  0.2413  0.2726
  775MOL0     C 6821   5.428   7.787   3.106 -0.4405 -0.1038  0.0669
  775MOL0     C 6822   5.546   7.701   3.087  0.8251  0.1024  1.2332
  775MOL0     C 6823   5.591   7.676   2.944 -1.0181  0.0148  0.0498
  775MOL0     C 6824   5.747   7.703   2.923  0.4963  0.4919  0.0421
  775MOL0     C 6825   5.781   7.652   2.782  0.2000  0.2668 -0.4463
  775MOL0     C 6826   5.930   7.679   2.746 -0.3115 -0.4505  0.3255
  775MOL0     C 6827   5.953   7.623   2.603 -0.8442  0.6538 -0.7120
  775MOL0     C 6828   6.093   7.664   2.552 -0.0658 -0.1207 -0.3537
  775MOL0     N 6829   6.084   7.784   2.460 -0.8133 -0.7281  0.7289
  775MOL0     C 6830   6.200   7.845   2.422  0.9095 -1.0094  0.4045
  775MOL0     C 6831   6.158   7.967   2.367 -0.0078  0.9680  0.4091
  775MOL0     C 6832   6.230   8.086   2.323  0.2927 -0.8018  0.8459
  775MOL0     C 6833   6.293   8.087   2.189  0.4052 -0.2594 -0.6594
  775MOL0     C 6834   6.196   8.082   2.067  0.3354  0.3286 -0.2033
  775MOL0     C 6835   6.270   8.047   1.939 -0.0598  0.2475 -0.7053
  775MOL0     O 6836   6.343   8.161   1.904 -0.0127  0.1639  0.0821
  775MOL0     C 6837   6.444   8.151   1.816 -0.6851 -0.8661  0.4165
  775MOL0     C 6838   6.547   8.238   1.828 -0.6202  0.3336 -0.9437
  775MOL0     C 6839   6.669   8.231   1.754  0.0910 -0.1148 -0.1442
  775MOL0     C 6840   6.792   8.316   1.785  0.6597 -0.2318  0.0918
  775MOL0     C 6841   6.677   8.147   1.642  0.6193  1.3114  0.3950
  775MOL0     C 6842   6.777   8.157   1.536 -0.3982  0.0764  0.6726
  775MOL0     O 6843   6.824   8.278   1.509 -0.3169  0.5974  0.4778
  775MOL0     C 6844   6.920   8.286   1.417  0.7453  0.3571  0.3292
  775MOL0     C 6845   7.054   8.271   1.456  0.0974 -0.4590 -0.5090
  775MOL0     C 6846   7.157   8.302   1.375  1.1137  0.8315  0.3530
  775MOL0     C 6847   7.136   8.332   1.242 -0.3728 -0.0536  0.2499
  775MOL0     O 6848   7.236   8.352   1.156  0.3283 -0.4626 -0.2345
  775MOL0     C 6849   7.356   8.267   1.169 -0.3323 -0.2300  0.6027
  775MOL0     C 6850   7.474   8.355   1.134  0.0272  0.4534  0.0265
  775MOL0     C 6851   7.508   8.445   1.255  0.5946 -0.0142  0.1426
  775MOL0     C 6852   7.597   8.563   1.213  0.2073  0.3292  0.3797
  775MOL0     C 6853   7.612   8.658   1.331  0.4905 -0.4505 -0.2641
  775MOL0     C 6854   7.676   8.792   1.303  0.4603 -0.4602 -0.0238
  775MOL0     C 6855   7.806   8.771   1.223  0.4776 -0.2244 -0.2259
  775MOL0     C 6856   7.893   8.896   1.241 -0.6548 -0.0745  1.3423
  775MOL0    Cl 6857   7.955   8.907   1.414  0.4848 -0.0258  0.1967
  775MOL0     C 6858   7.009   8.344   1.194 -0.0882 -0.6322 -0.3942
  775MOL0     C 6859   6.901   8.326   1.283 -0.1280  0.2917 -0.8168
  775MOL0     O 6860   6.797   8.057   1.464  0.3626  0.8252  0.3987
  775MOL0     C 6861   6.572   8.048   1.632 -0.2758  0.3424  0.1421
  775MOL0     C 6862   6.459   8.051   1.714 -0.4105 -0.3046  0.0788
  775MOL0     N 6863   6.017   7.969   2.378 -0.3627  1.1325  0.2540
  775MOL0     N 6864   5.972   7.858   2.437  0.7673  0.5537  0.0058
  775MOL0     C 6865   5.095   7.723   2.981  0.3762  0.1059  0.2419
  775MOL0     C 6866   4.968   7.779   2.978 -0.4729  0.0542  1.3693
  775MOL0     C 6867   4.626   8.130   3.040 -0.1282 -0.2478 -0.9839
  775MOL0     C 6868   4.606   8.264   3.081 -0.1535 -0.3038 -0.2167
  775MOL0     C 6869   4.476   8.312   3.108 -0.1650 -0.3949  0.1311
  775MOL0     C 6870   4.364   8.224   3.103  0.2577  0.3247  0.1133
  775MOL0     O 6871   4.234   8.252   3.133 -0.0377  0.4702  0.2188
  775MOL0     C 6872   4.175   8.373   3.156 -0.2079 -0.0210 -0.2911
  775MOL0     C 6873   4.127   8.421   3.020 -0.2548  0.0753  0.7515
  775MOL0     C 6874   4.034   8.331   2.946 -0.1490  0.1565 -0.3918
  775MOL0     C 6875   3.996   8.400   2.806 -0.6086 -0.3113 -0.0416
  775MOL0     C 6876   4.117   8.412   2.717 -0.8662 -0.2323  0.9151
  775MOL0     C 6877   4.217   8.414   2.643 -0.6436 -0.1118  0.6109
  775MOL0     C 6878   4.386   8.089   3.075  0.5551 -0.6351 -0.7881
  775MOL0     C 6879   4.511   8.043   3.041 -0.0617 -0.6067  0.4686
  775MOL0     C 6880   4.527   7.891   3.013 -0.2631  0.0238 -0.3842
  775MOL0     H 6881   5.043   8.099   3.077  1.9647 -0.1875  0.0328
  775MOL0     H 6882   5.267   8.008   3.084  1.0941 -0.0967  2.6823
  775MOL0     H 6883   5.393   7.785   3.210  0.9849  0.9733  0.5941
  775MOL0     H 6884   5.469   7.886   3.082  0.4201 -0.8260 -1.5719
  775MOL0     H 6885   5.624   7.741   3.153 -0.2898  0.4548  2.3748
  775MOL0     H 6886   5.519   7.609   3.140 -1.9187  0.1535  0.0599
  775MOL0     H 6887   5.578   7.571   2.916  1.6267  0.3837 -3.2946
  775MOL0     H 6888   5.539   7.734   2.867 -0.8147  0.9260  0.5698
  775MOL0     H 6889   5.758   7.811   2.910 -2.7230  0.8328 -0.8782
  775MOL0     H 6890   5.816   7.669   3.001  1.4721 -1.0338 -1.4172
  775MOL0     H 6891   5.713   7.683   2.702 -0.0807  1.2231  0.1465
  775MOL0     H 6892   5.762   7.546   2.799  0.0363  0.3845  0.1432
  775MOL0     H 6893   5.941   7.788   2.739  0.1729 -0.5630 -0.9861
  775MOL0     H 6894   6.006   7.633   2.809  1.2217 -1.2821 -1.9827
  775MOL0     H 6895   5.867   7.655   2.543 -1.7343 -0.6547 -0.1585
  775MOL0     H 6896   5.941   7.515   2.602 -0.7544  0.6383 -0.3509
  775MOL0     H 6897   6.168   7.679   2.631  0.0942  2.2639 -0.8706
  775MOL0     H 6898   6.129   7.583   2.488 -1.6199  0.4939 -2.0855
  775MOL0     H 6899   6.301   7.804   2.427  0.1843 -3.4965 -2.4310
  775MOL0     H 6900   6.300   8.113   2.403  0.7644 -1.2275  0.5831
  775MOL0     H 6901   6.154   8.165   2.323  0.5156 -0.5761  0.1629
  775MOL0     H 6902   6.361   8.172   2.178 -0.5511  0.9515  1.9109
  775MOL0     H 6903   6.353   7.995   2.188  0.8279  0.0100 -1.7224
  775MOL0     H 6904   6.121   8.009   2.097  0.7128  0.6591  1.7079
  775MOL0     H 6905   6.156   8.180   2.040  1.3163  0.1520 -2.5323
  775MOL0     H 6906   6.325   7.953   1.945  0.0474  0.4022  1.6997
  775MOL0     H 6907   6.186   8.042   1.868 -0.4320 -2.6644 -0.1961
  775MOL0     H 6908   6.543   8.304   1.913  1.3418  0.5034 -0.9389
  775MOL0     H 6909   6.790   8.415   1.738 -2.9837  0.6322  1.6863
  775MOL0     H 6910   6.892   8.278   1.759  1.7313  3.2457 -1.5239
  775MOL0     H 6911   6.785   8.347   1.890 -0.0844  0.2284 -0.0882
  775MOL0     H 6912   7.067   8.242   1.560 -1.4956  0.7304  0.0729
  775MOL0     H 6913   7.253   8.302   1.426  0.9134 -2.6018  0.9521
  775MOL0     H 6914   7.380   8.218   1.264 -0.5404 -4.6731 -1.3508
  775MOL0     H 6915   7.352   8.183   1.098  0.1197 -0.2139  0.5574
  775MOL0     H 6916   7.557   8.286   1.122 -0.0157  0.6008 -1.2998
  775MOL0     H 6917   7.457   8.405   1.038 -0.8487  2.2525  1.0639
  775MOL0     H 6918   7.546   8.380   1.333  0.9751  1.1581  0.9628
  775MOL0     H 6919   7.412   8.488   1.288 -0.3939 -3.2693  1.9547
  775MOL0     H 6920   7.555   8.614   1.126 -2.5381  3.1824  3.1224
  775MOL0     H 6921   7.696   8.521   1.190 -0.6728 -0.9870 -1.2301
  775MOL0     H 6922   7.509   8.674   1.364  0.7167 -1.3951  0.9939
  775MOL0     H 6923   7.668   8.605   1.410 -0.3352  2.4126  2.4616
  775MOL0     H 6924   7.698   8.848   1.394 -0.7684  0.4706 -0.2683
  775MOL0     H 6925   7.604   8.852   1.246  1.2749  0.2667 -0.3100
  775MOL0     H 6926   7.778   8.757   1.118 -1.3881 -1.5067  0.3809
  775MOL0     H 6927   7.859   8.681   1.254  0.3459 -0.1570  0.1999
  775MOL0     H 6928   7.836   8.987   1.224 -1.5898 -0.9141 -0.1954
  775MOL0     H 6929   7.983   8.895   1.179 -0.4507 -0.8625  1.6399
  775MOL0     H 6930   6.993   8.370   1.090  1.9095  2.0621 -0.1332
  775MOL0     H 6931   6.796   8.352   1.267 -0.3023  0.9367  1.0740
  775MOL0     H 6932   6.576   7.971   1.556  0.9879 -0.4225  0.9620
  775MOL0     H 6933   6.381   7.980   1.687 -2.2391  0.6458  2.5062
  775MOL0     H 6934   5.104   7.615   2.967  1.5712  0.0354  1.3535
  775MOL0     H 6935   4.881   7.722   2.944 -0.0367  0.0802  0.1749
  775MOL0     H 6936   4.686   8.337   3.097  0.6987 -1.1557 -0.5108
  775MOL0     H 6937   4.451   8.406   3.155 -4.3325 -0.5153 -1.4306
  775MOL0     H 6938   4.089   8.359   3.221 -0.0133 -1.7929 -0.3591
  775MOL0     H 6939   4.244   8.448   3.196  0.2377 -0.2223 -0.6617
  775MOL0     H 6940   4.215   8.446   2.960 -0.5458  1.3890  0.8344
  775MOL0     H 6941   4.059   8.506   3.034 -1.1365 -0.0349 -2.1440
  775MOL0     H 6942   4.079   8.233   2.927  1.5649  0.6762  0.7680
  775MOL0     H 6943   3.942   8.328   3.006  1.2366  0.8719  1.8584
  775MOL0     H 6944   3.945   8.494   2.830 -1.9861 -0.8937 -0.5812
  775MOL0     H 6945   3.921   8.334   2.762 -0.3423 -0.9815  0.4984
  775MOL0     H 6946   4.309   8.420   2.589  0.5765 -0.1181  2.6038
  775MOL0     H 6947   4.307   8.016   3.094  0.3487 -0.1319  0.3886
  775MOL0     H 6948   4.431   7.849   2.982 -1.7193  2.9508 -0.1974
  775MOL0     H 6949   4.601   7.885   2.932 -0.4080 -0.6601 -0.4702
  775MOL0     H 6950   4.564   7.840   3.102  0.7222 -2.0079 -1.8894
  776MOL0     O 6951   7.246   0.138   1.312 -0.5562  0.1447 -0.2049
  776MOL0     C 6952   7.249   0.225   1.227 -0.1920 -0.9725 -0.3965
  776MOL0     O 6953   7.176   0.219   1.107  0.2102  0.3442  0.4055
  776MOL0     C 6954   7.076   0.131   1.076 -0.4472  0.7392  0.9689
  776MOL0     C 6955   7.081  -0.009   1.104 -0.5560  0.0307  0.6593
  776MOL0     C 6956   6.976  -0.092   1.063 -1.3297  0.2816  0.3829
  776MOL0     C 6957   6.870  -0.046   0.995  0.4859 -0.2089  0.2203
  776MOL0     O 6958   6.754  -0.112   0.960 -0.3177  0.4832  0.0430
  776MOL0     C 6959   6.741  -0.233   1.015  0.2005  0.5710 -0.1365
  776MOL0     C 6960   6.590  -0.290   0.996  0.8969 -0.2722  0.7917
  776MOL0     C 6961   6.527  -0.262   0.853 -0.1301 -0.7377  0.2167
  776MOL0     C 6962   6.416  -0.357   0.812  0.5395 -0.1088  0.5818
  776MOL0     C 6963   6.329  -0.316   0.694 -0.3091  0.1816  0.7918
  776MOL0     C 6964   6.407  -0.283   0.560  0.4112 -1.1049 -0.1353
  776MOL0     C 6965   6.308  -0.243   0.450  0.9038 -0.2137 -0.0289
  776MOL0     C 6966   6.391  -0.219   0.327  0.4266  0.3509  0.7712
  776MOL0     N 6967   6.465  -0.091   0.324 -0.3519  0.3001  0.2046
  776MOL0     C 6968   6.581  -0.066   0.268  0.4655 -0.2559 -0.2009
  776MOL0     C 6969   6.612   0.061   0.303 -0.0351  0.9824 -0.1924
  776MOL0     C 6970   6.739   0.123   0.253  0.4510 -0.8098  0.2301
  776MOL0     C 6971   6.731   0.265   0.216  0.0938 -0.4218  0.3658
  776MOL0     C 6972   6.711   0.367   0.333 -0.2947 -0.4719 -0.6013
  776MOL0     C 6973   6.733   0.516   0.291 -0.5427  0.5085 -1.1856
  776MOL0     O 6974   6.710   0.609   0.400  0.4892  0.1712  0.0123
  776MOL0     C 6975   6.576   0.638   0.421 -0.4928 -0.2308 -0.3535
  776MOL0     C 6976   6.496   0.599   0.529 -0.5147  0.3338  0.3120
  776MOL0     C 6977   6.372   0.660   0.555 -0.0495  0.1595  0.6617
  776MOL0     C 6978   6.302   0.591   0.679  0.1586  0.5490  0.5401
  776MOL0     C 6979   6.320   0.754   0.469  0.3323  0.5717 -0.1217
  776MOL0     C 6980   6.185   0.818   0.487 -0.0850  0.4265  0.6558
  776MOL0     O 6981   6.096   0.763   0.584 -0.4695  0.6373  0.2910
  776MOL0     C 6982   5.991   0.832   0.638 -0.2744 -0.0428 -0.9463
  776MOL0     C 6983   6.009   0.966   0.685  0.1641  0.1475  0.2262
  776MOL0     C 6984   5.905   1.031   0.751  0.2781 -1.1475  0.2601
  776MOL0     C 6985   5.786   0.968   0.750 -0.1983  0.1172 -0.8591
  776MOL0     O 6986   5.676   1.015   0.816 -0.5239 -0.6852  0.2654
  776MOL0     C 6987   5.700   1.050   0.958 -0.0838 -0.4541  0.3168
  776MOL0     C 6988   5.594   0.993   1.048  0.0268 -0.0257  0.1767
  776MOL0     C 6989   5.643   1.005   1.194  0.2910  0.3360 -0.8204
  776MOL0     C 6990   5.528   0.974   1.296  0.1972 -0.5631  0.3570
  776MOL0     C 6991   5.479   1.096   1.378  1.0250  0.5635  0.1293
  776MOL0     C 6992   5.363   1.060   1.473  0.0749 -0.2555 -0.4435
  776MOL0     C 6993   5.317   1.175   1.556 -0.1297 -0.0494 -0.0421
  776MOL0     C 6994   5.178   1.131   1.598  0.4517  0.3505 -0.3322
  776MOL0    Cl 6995   5.160   0.956   1.647 -0.1551  0.1970 -0.3919
  776MOL0     C 6996   5.766   0.839   0.704 -0.3029 -1.2761  0.0802
  776MOL0     C 6997   5.871   0.764   0.656  0.6887 -0.7326 -0.3922
  776MOL0     O 6998   6.170   0.924   0.428  0.0618  0.6911  0.2755
  776MOL0     C 6999   6.400   0.800   0.369 -0.2141  1.3113  0.7595
  776MOL0     C 7000   6.529   0.739   0.343 -0.3554 -0.5104 -0.1811
  776MOL0     N 7001   6.517   0.112   0.381  0.6222  0.3492 -0.2358
  776MOL0     N 7002   6.433   0.021   0.398  0.8074 -0.4705  0.0784
  776MOL0     C 7003   6.870   0.091   0.948 -0.1663 -0.0923  0.0383
  776MOL0     C 7004   6.974   0.174   0.994 -0.0939 -0.6654 -0.2393
  776MOL0     C 7005   7.356   0.330   1.252 -0.8345 -1.1419  1.1897
  776MOL0     C 7006   7.416   0.331   1.378  0.5457 -0.6075  0.3832
  776MOL0     C 7007   7.520   0.417   1.410  0.7378 -0.1257  0.7254
  776MOL0     C 7008   7.570   0.517   1.320 -0.2984  0.1719  0.0165
  776MOL0     O 7009   7.675   0.602   1.359  0.4649  0.1749  0.6179
  776MOL0     C 7010   7.666   0.737   1.307 -0.2561  0.0883 -0.5198
  776MOL0     C 7011   7.763   0.760   1.190  0.6910  0.2153 -0.2053
  776MOL0     C 7012   7.757   0.912   1.155 -0.3872  0.6478 -0.1003
  776MOL0     C 7013   7.860   0.950   1.045  0.3424  0.3261  0.4346
  776MOL0     C 7014   7.842   1.091   1.013  0.6980  0.3393  0.2545
  776MOL0     C 7015   7.846   1.211   0.988 -0.5504 -0.5180 -0.4526
  776MOL0     C 7016   7.517   0.502   1.188  0.7475 -0.0191  0.3339
  776MOL0     C 7017   7.413   0.415   1.152 -0.2320 -0.2856 -0.1853
  776MOL0     C 7018   7.356   0.430   1.005  0.3384  0.0084 -0.5325
  776MOL0     H 7019   7.148  -0.038   1.184 -0.3438 -1.0426  0.1191
  776MOL0     H 7020   6.991  -0.192   1.102  0.5063  0.4320  0.1401
  776MOL0     H 7021   6.770  -0.238   1.121 -1.9838  0.1030  0.4990
  776MOL0     H 7022   6.809  -0.297   0.959  2.1044  2.2460  0.1591
  776MOL0     H 7023   6.587  -0.400   0.998 -0.1910 -0.3829 -2.0691
  776MOL0     H 7024   6.527  -0.258   1.080  0.0173 -0.0514  0.0690
  776MOL0     H 7025   6.472  -0.167   0.862  2.5341  0.8912  0.5683
  776MOL0     H 7026   6.613  -0.248   0.786  1.2513 -2.4285  1.5427
  776MOL0     H 7027   6.464  -0.448   0.777  1.9167  1.0282 -0.5909
  776MOL0     H 7028   6.341  -0.374   0.890 -1.4605  1.7671 -0.7927
  776MOL0     H 7029   6.282  -0.220   0.717 -1.4040 -0.6165  2.0629
  776MOL0     H 7030   6.250  -0.389   0.680  1.0623 -1.0353 -0.9844
  776MOL0     H 7031   6.470  -0.195   0.581 -3.8706  1.7778  2.1042
  776MOL0     H 7032   6.471  -0.365   0.527 -0.5944 -1.2114 -1.9268
  776MOL0     H 7033   6.262  -0.154   0.493 -0.1357 -1.2968  1.1834
  776MOL0     H 7034   6.224  -0.313   0.436 -1.6235  2.3401  1.4586
  776MOL0     H 7035   6.455  -0.307   0.318 -1.9534 -1.4580  0.4838
  776MOL0     H 7036   6.331  -0.217   0.236  1.7505  2.3440 -0.1323
  776MOL0     H 7037   6.640  -0.132   0.205  2.1558 -0.9873  2.0211
  776MOL0     H 7038   6.788   0.062   0.176  1.0011  0.1725 -0.2231
  776MOL0     H 7039   6.806   0.136   0.339  2.3237  0.8847 -1.3750
  776MOL0     H 7040   6.825   0.283   0.162 -1.1958 -1.6423 -2.5134
  776MOL0     H 7041   6.654   0.277   0.139 -0.6792  0.8884  1.3209
  776MOL0     H 7042   6.611   0.365   0.376  0.3024  0.3540  0.8986
  776MOL0     H 7043   6.773   0.358   0.422  0.1591 -1.1557 -0.9754
  776MOL0     H 7044   6.837   0.533   0.262  0.4366  4.7253  3.4005
  776MOL0     H 7045   6.657   0.540   0.216  1.5407 -1.2114 -4.0480
  776MOL0     H 7046   6.551   0.537   0.598 -0.4593  2.5364  2.3911
  776MOL0     H 7047   6.274   0.669   0.751  4.1697  0.4807  2.4610
  776MOL0     H 7048   6.371   0.532   0.741 -0.3330  1.2770  1.8089
  776MOL0     H 7049   6.214   0.531   0.655 -0.3737  1.9085 -1.0928
  776MOL0     H 7050   6.096   1.030   0.673 -0.5651  0.7897 -2.3269
  776MOL0     H 7051   5.916   1.133   0.788 -0.7099 -0.6082 -0.8261
  776MOL0     H 7052   5.798   1.017   0.992 -0.4497 -0.4879  1.3765
  776MOL0     H 7053   5.697   1.159   0.973  0.2627 -0.3930 -0.0279
  776MOL0     H 7054   5.505   1.054   1.028  2.5564  4.1338  0.2516
  776MOL0     H 7055   5.580   0.892   1.010  1.3104  0.5671 -2.1331
  776MOL0     H 7056   5.677   1.107   1.210  2.9727 -0.4491 -0.9911
  776MOL0     H 7057   5.730   0.943   1.219 -0.7961 -1.5346 -1.4618
  776MOL0     H 7058   5.567   0.896   1.362  0.0058  0.0863  1.2591
  776MOL0     H 7059   5.453   0.923   1.236  1.6492 -3.1788  0.5903
  776MOL0     H 7060   5.565   1.136   1.432  1.4187 -1.7255  1.3376
  776MOL0     H 7061   5.436   1.173   1.314 -1.0105  1.1532  2.0605
  776MOL0     H 7062   5.406   0.973   1.523  0.6806 -0.9750 -2.1058
  776MOL0     H 7063   5.274   1.031   1.416  0.8880 -1.5973 -1.0801
  776MOL0     H 7064   5.322   1.266   1.496 -0.6351  1.4110  2.0105
  776MOL0     H 7065   5.388   1.193   1.637  0.8971 -1.6571 -0.5370
  776MOL0     H 7066   5.105   1.143   1.517 -1.6798 -0.2336  1.3908
  776MOL0     H 7067   5.139   1.183   1.686 -0.2682  0.3869 -0.6573
  776MOL0     H 7068   5.670   0.789   0.700 -1.3362  0.6950 -1.9777
  776MOL0     H 7069   5.845   0.665   0.623 -1.1188 -0.4924  0.2251
  776MOL0     H 7070   6.372   0.882   0.304  2.7382  2.0529  0.2836
  776MOL0     H 7071   6.585   0.783   0.261  0.4421  2.5098  1.8471
  776MOL0     H 7072   6.790   0.119   0.879 -1.2408 -1.1216  0.8332
  776MOL0     H 7073   6.966   0.280   0.971 -2.3066  0.3108  4.1128
  776MOL0     H 7074   7.383   0.258   1.452 -1.1733  0.4189  0.6682
  776MOL0     H 7075   7.590   0.414   1.493  1.1608  1.5129  0.4657
  776MOL0     H 7076   7.566   0.768   1.277 -0.3730  1.5692  1.2273
  776MOL0     H 7077   7.706   0.801   1.386  0.3717  0.4165 -1.0901
  776MOL0     H 7078   7.737   0.697   1.103  1.6424 -0.4359 -0.0379
  776MOL0     H 7079   7.862   0.734   1.229  1.4877  1.9749 -0.9764
  776MOL0     H 7080   7.654   0.935   1.125 -1.0438 -1.2384  0.5873
  776MOL0     H 7081   7.784   0.972   1.242  2.4461 -2.7847  1.6539
  776MOL0     H 7082   7.845   0.893   0.953  1.1418  0.7594  0.0242
  776MOL0     H 7083   7.963   0.941   1.083  0.5696  1.6969  0.1976
  776MOL0     H 7084   7.869   1.312   0.963  3.2222 -0.0934  3.5146
  776MOL0     H 7085   7.547   0.558   1.099  0.7919 -1.3176 -0.5001
  776MOL0     H 7086   7.361   0.536   0.980  3.3569  0.0770  0.0031
  776MOL0     H 7087   7.406   0.378   0.923  0.4965 -0.6128 -0.0490
  776MOL0     H 7088   7.250   0.406   0.990 -0.4224  0.5879  2.8835
  777MOL0     O 7089   1.425   7.696   2.790  1.5997 -0.4185 -0.5483
  777MOL0     C 7090   1.410   7.621   2.881  0.2687 -0.1905  0.0932
  777MOL0     O 7091   1.472   7.502   2.881 -0.1634 -0.1930 -0.3512
  777MOL0     C 7092   1.572   7.462   2.803 -0.3692 -0.0903  1.0255
  777MOL0     C 7093   1.677   7.538   2.765  0.9270  0.4773  0.0744
  777MOL0     C 7094   1.786   7.506   2.686  0.2787 -0.1822  0.4817
  777MOL0     C 7095   1.782   7.382   2.624 -1.0806  0.6122 -0.2037
  777MOL0     O 7096   1.886   7.343   2.543 -0.0341  0.7216  0.2348
  777MOL0     C 7097   1.985   7.433   2.492 -0.0843 -0.8963  0.6404
  777MOL0     C 7098   2.113   7.431   2.583 -1.1720 -0.0650 -0.5875
  777MOL0     C 7099   2.244   7.431   2.506 -1.1164  0.4895  0.4799
  777MOL0     C 7100   2.361   7.383   2.593 -0.3152 -0.6007  0.7120
  777MOL0     C 7101   2.486   7.363   2.508 -0.0797  1.1036  0.2070
  777MOL0     C 7102   2.598   7.305   2.590  0.8955 -0.0428 -1.0737
  777MOL0     C 7103   2.736   7.314   2.511  0.0197  0.7860 -0.0371
  777MOL0     C 7104   2.786   7.448   2.487 -0.7414  0.9427 -0.2168
  777MOL0     N 7105   2.926   7.445   2.428 -1.3674 -0.6372  0.5662
  777MOL0     C 7106   2.959   7.408   2.298 -0.5080  0.0620  0.1036
  777MOL0     C 7107   3.078   7.465   2.269 -0.7680 -0.4276 -0.4900
  777MOL0     C 7108   3.163   7.471   2.138  0.1428 -0.4345 -0.0486
  777MOL0     C 7109   3.227   7.335   2.110 -0.6326  0.2737 -0.1821
  777MOL0     C 7110   3.307   7.316   1.978  0.2405  0.4062  0.7284
  777MOL0     C 7111   3.445   7.376   1.975 -0.0133 -0.0140  0.6278
  777MOL0     O 7112   3.483   7.481   2.064  0.2606  0.0382  0.1142
  777MOL0     C 7113   3.608   7.541   2.047  0.4414 -1.6026  0.4853
  777MOL0     C 7114   3.692   7.542   1.926  0.4677 -0.1571  0.3276
  777MOL0     C 7115   3.822   7.596   1.930  0.3103 -0.9919  0.0262
  777MOL0     C 7116   3.901   7.573   1.803 -0.0594  0.7537  0.0564
  777MOL0     C 7117   3.862   7.659   2.050 -0.1507 -0.7341 -0.2541
  777MOL0     C 7118   4.003   7.713   2.064  0.3539 -0.6628 -0.6032
  777MOL0     O 7119   4.036   7.799   2.167  0.5169  0.4405 -0.2140
  777MOL0     C 7120   4.162   7.860   2.159 -0.6776  1.3848  0.4350
  777MOL0     C 7121   4.283   7.793   2.129 -0.7548 -0.2316 -0.2835
  777MOL0     C 7122   4.407   7.863   2.118 -0.3678  0.7373  0.2519
  777MOL0     C 7123   4.411   8.004   2.131  0.0882 -1.1309  0.8259
  777MOL0     O 7124   4.530   8.077   2.095 -0.1322  0.1176 -0.1754
  777MOL0     C 7125   4.645   8.004   2.048  0.2950  0.8973  0.3522
  777MOL0     C 7126   4.761   8.097   2.026 -0.3696 -0.1033  0.0442
  777MOL0     C 7127   4.876   8.022   1.959  0.0251  0.4407 -0.3243
  777MOL0     C 7128   4.998   8.107   1.917  0.3229 -0.0390  0.5308
  777MOL0     C 7129   5.109   8.023   1.847  0.5902 -0.2465 -0.5512
  777MOL0     C 7130   5.219   8.130   1.799 -0.5206  0.4776 -0.3783
  777MOL0     C 7131   5.341   8.067   1.721  0.4804 -0.1249 -0.2566
  777MOL0     C 7132   5.481   8.126   1.759  0.4021 -0.4313  0.2275
  777MOL0    Cl 7133   5.458   8.292   1.708  0.2520 -0.4376  0.0488
  777MOL0     C 7134   4.288   8.065   2.166  0.3829 -0.0572 -0.5671
  777MOL0     C 7135   4.163   7.999   2.170  0.1019 -0.2843 -0.0894
  777MOL0     O 7136   4.075   7.700   1.966 -0.0876  0.7636 -0.4793
  777MOL0     C 7137   3.776   7.678   2.154 -0.3820  0.1283  0.2250
  777MOL0     C 7138   3.649   7.627   2.151  0.0906  0.4919  0.1095
  777MOL0     N 7139   3.121   7.529   2.385 -0.3031 -0.1663  0.2958
  777MOL0     N 7140   3.038   7.504   2.477  0.3273  0.5595  0.0280
  777MOL0     C 7141   1.675   7.292   2.660 -0.4878  0.5729  1.0209
  777MOL0     C 7142   1.582   7.328   2.757  0.4861 -0.3806  0.6075
  777MOL0     C 7143   1.334   7.675   3.004 -0.0753 -0.2025 -0.7806
  777MOL0     C 7144   1.382   7.641   3.134  1.5137 -0.0376  0.2437
  777MOL0     C 7145   1.311   7.687   3.250 -0.1066  0.5978  0.6128
  777MOL0     C 7146   1.198   7.766   3.239 -0.3671  0.6496 -0.5400
  777MOL0     O 7147   1.115   7.801   3.341 -0.3405  0.2876  0.3161
  777MOL0     C 7148   1.114   7.733   3.467 -0.3685 -0.1250 -0.1674
  777MOL0     C 7149   0.987   7.770   3.539  0.2589 -0.1069  0.8549
  777MOL0     C 7150   0.973   7.729   3.686 -0.7206  0.3053  0.2879
  777MOL0     C 7151   0.850   7.793   3.754 -0.5386 -0.2174  0.0896
  777MOL0     C 7152   0.855   7.760   3.898 -0.0432  0.1034 -0.4284
  777MOL0     C 7153   0.861   7.752   4.019 -0.4355  0.2302 -0.2797
  777MOL0     C 7154   1.148   7.794   3.121 -0.0352 -0.0906  0.5179
  777MOL0     C 7155   1.215   7.762   3.000 -0.1364 -0.1305  0.0582
  777MOL0     C 7156   1.152   7.816   2.876  0.7607  0.3727  0.4580
  777MOL0     H 7157   1.690   7.643   2.792  3.3044  0.4112 -0.5760
  777MOL0     H 7158   1.868   7.577   2.676  1.9131 -1.8760  1.1617
  777MOL0     H 7159   1.948   7.535   2.486 -1.9356 -1.3277  3.1305
  777MOL0     H 7160   2.024   7.399   2.396 -0.7662  0.0401  0.0132
  777MOL0     H 7161   2.124   7.521   2.644 -0.1198  0.4498 -1.5106
  777MOL0     H 7162   2.109   7.344   2.650  0.9342 -0.2002 -0.5620
  777MOL0     H 7163   2.241   7.367   2.417  4.0216 -0.2837  0.5762
  777MOL0     H 7164   2.255   7.534   2.470  0.7167 -0.2268 -1.1679
  777MOL0     H 7165   2.383   7.459   2.668  1.9580 -0.0439 -0.4345
  777MOL0     H 7166   2.329   7.288   2.636  0.1078 -2.1064 -2.0385
  777MOL0     H 7167   2.509   7.459   2.463 -0.8198  1.1375 -0.1082
  777MOL0     H 7168   2.465   7.289   2.430 -0.9029 -0.3937  1.7763
  777MOL0     H 7169   2.598   7.365   2.682 -4.6538 -1.1024 -0.0291
  777MOL0     H 7170   2.570   7.205   2.624  1.9408 -0.0019 -0.0353
  777MOL0     H 7171   2.719   7.266   2.414 -0.8639 -3.1088  1.8271
  777MOL0     H 7172   2.800   7.251   2.573  0.4614  0.4106 -0.8628
  777MOL0     H 7173   2.721   7.514   2.428 -0.4837  0.6452 -0.8427
  777MOL0     H 7174   2.804   7.485   2.588  1.7641 -2.2222  0.6740
  777MOL0     H 7175   2.892   7.352   2.234  0.2843 -2.8060  1.6085
  777MOL0     H 7176   3.244   7.543   2.152 -0.0218 -0.2064 -0.2654
  777MOL0     H 7177   3.101   7.506   2.055  1.8730 -0.2155 -1.3156
  777MOL0     H 7178   3.295   7.325   2.195 -1.2264  0.8786  0.3789
  777MOL0     H 7179   3.156   7.252   2.115  0.8853 -0.9703  2.3454
  777MOL0     H 7180   3.312   7.213   1.943  2.3910  1.2523 -1.8457
  777MOL0     H 7181   3.252   7.353   1.891 -1.3473 -2.8181  0.2405
  777MOL0     H 7182   3.510   7.291   1.993 -0.1530 -1.1030 -3.1869
  777MOL0     H 7183   3.452   7.415   1.873 -0.7344 -1.4531 -0.0048
  777MOL0     H 7184   3.657   7.481   1.843  0.2349  0.6850 -0.2095
  777MOL0     H 7185   3.997   7.528   1.830  0.5856  1.2201 -1.4050
  777MOL0     H 7186   3.922   7.673   1.765 -1.4491  2.2095  2.8278
  777MOL0     H 7187   3.836   7.515   1.736 -0.9642  1.2956  0.4391
  777MOL0     H 7188   4.291   7.687   2.110  2.4477 -0.0767 -0.4539
  777MOL0     H 7189   4.493   7.802   2.093  0.4637  1.4162  1.3624
  777MOL0     H 7190   4.669   7.947   2.138 -1.2692  1.4865  1.1855
  777MOL0     H 7191   4.627   7.939   1.961  1.5962  0.0170  0.7169
  777MOL0     H 7192   4.728   8.183   1.967 -1.6909 -0.4114  0.3171
  777MOL0     H 7193   4.801   8.125   2.124  0.5799  1.9478 -0.8641
  777MOL0     H 7194   4.844   7.982   1.862 -0.0716  0.2130 -0.1994
  777MOL0     H 7195   4.904   7.929   2.009 -1.6336 -1.0271 -1.9314
  777MOL0     H 7196   5.043   8.164   1.999  2.0584  0.1126 -0.4743
  777MOL0     H 7197   4.960   8.173   1.838  0.9419 -1.3136 -0.8941
  777MOL0     H 7198   5.158   7.945   1.907 -1.2043  0.0473  1.4053
  777MOL0     H 7199   5.071   7.972   1.758  0.1018  0.7127 -0.9009
  777MOL0     H 7200   5.259   8.185   1.885  1.9062 -0.1406 -1.0263
  777MOL0     H 7201   5.169   8.210   1.743  1.4233 -0.0155 -3.0111
  777MOL0     H 7202   5.314   8.091   1.617  0.0689  1.3523  0.1745
  777MOL0     H 7203   5.350   7.959   1.739 -0.7005  0.2561  3.2425
  777MOL0     H 7204   5.569   8.077   1.715  0.2808 -0.9749  0.5786
  777MOL0     H 7205   5.496   8.114   1.867 -2.0562  2.4704  1.0284
  777MOL0     H 7206   4.304   8.172   2.180  0.2477  0.0693 -1.2962
  777MOL0     H 7207   4.075   8.062   2.170  0.1907 -0.1557  0.4380
  777MOL0     H 7208   3.806   7.743   2.235 -1.1177 -0.8870  1.3330
  777MOL0     H 7209   3.586   7.625   2.239 -4.1882 -0.1325 -2.6833
  777MOL0     H 7210   1.652   7.193   2.621 -0.6519  0.8154  0.4819
  777MOL0     H 7211   1.491   7.272   2.774 -1.0393  2.5204  2.7582
  777MOL0     H 7212   1.472   7.580   3.134  1.0525 -0.8762 -2.4705
  777MOL0     H 7213   1.345   7.638   3.341 -1.4758 -2.7042 -0.4963
  777MOL0     H 7214   1.127   7.625   3.461  2.4635  0.1036  0.1374
  777MOL0     H 7215   1.196   7.759   3.535 -1.3791 -2.4830  2.1123
  777MOL0     H 7216   0.903   7.722   3.487 -1.1430 -1.0668  3.8070
  777MOL0     H 7217   0.967   7.877   3.530  1.5214  0.1440  0.8452
  777MOL0     H 7218   0.977   7.620   3.698  1.6787  0.1333 -1.2886
  777MOL0     H 7219   1.063   7.773   3.731  0.2608  0.4011 -1.6731
  777MOL0     H 7220   0.764   7.743   3.707 -0.7281 -1.9792  2.1921
  777MOL0     H 7221   0.860   7.902   3.743 -0.2230 -0.4581 -3.0028
  777MOL0     H 7222   0.865   7.735   4.125  2.5440 -3.1563 -0.7197
  777MOL0     H 7223   1.052   7.843   3.118 -0.6982 -1.3904 -0.5955
  777MOL0     H 7224   1.110   7.739   2.811 -0.6136  2.0600 -0.7408
  777MOL0     H 7225   1.069   7.879   2.907 -0.4889  0.0199 -1.9652
  777MOL0     H 7226   1.224   7.869   2.813  1.5030 -0.4297  0.6064
  778MOL0     O 7227   4.178   4.451   7.758 -0.4359 -1.0197 -0.0021
  778MOL0     C 7228   4.165   4.338   7.711  0.9700 -0.0850  0.7671
  778MOL0     O 7229   4.230   4.223   7.752 -0.7105  0.3817  0.5163
  778MOL0     C 7230   4.351   4.248   7.814  0.0232 -0.4696 -0.5456
  778MOL0     C 7231   4.371   4.217   7.954  0.9226 -0.4007 -0.3408
  778MOL0     C 7232   4.489   4.239   8.018  0.0920  0.1806 -0.1986
  778MOL0     C 7233   4.595   4.296   7.954  0.4718  0.2205  0.4383
  778MOL0     O 7234   4.717   4.298   8.021 -0.3148 -0.5486  0.1426
  778MOL0     C 7235   4.729   4.415   8.104 -0.1685 -0.6052 -0.0002
  778MOL0     C 7236   4.801   4.534   8.049  0.4070  0.3037  0.2404
  778MOL0     C 7237   4.937   4.486   7.992 -0.0081 -0.5368 -0.7459
  778MOL0     C 7238   5.015   4.607   7.941  0.7440 -0.8188 -0.2731
  778MOL0     C 7239   5.146   4.581   7.873 -0.8795  0.4493 -0.1408
  778MOL0     C 7240   5.217   4.715   7.831  0.3569  0.3267 -0.3162
  778MOL0     C 7241   5.314   4.774   7.929 -1.2196  0.1136 -1.1824
  778MOL0     C 7242   5.388   4.899   7.873  0.5091  0.6007  0.0645
  778MOL0     N 7243   5.486   4.866   7.768 -0.2096 -0.1398 -0.4493
  778MOL0     C 7244   5.581   4.772   7.774 -0.0642 -0.0233 -0.2431
  778MOL0     C 7245   5.667   4.798   7.675  0.6591 -0.7048  0.5949
  778MOL0     C 7246   5.797   4.726   7.643  0.3519 -0.0967  0.2243
  778MOL0     C 7247   5.919   4.811   7.682  0.2455  0.7053 -0.0205
  778MOL0     C 7248   5.948   4.935   7.609 -0.0681 -0.2937 -0.3914
  778MOL0     C 7249   6.071   5.011   7.673 -1.4743 -0.1914 -0.2909
  778MOL0     O 7250   6.193   4.926   7.679 -0.8813 -0.0640  0.2457
  778MOL0     C 7251   6.308   4.987   7.717  0.4014  0.2260  1.0142
  778MOL0     C 7252   6.370   5.086   7.643 -0.0987  0.2283  0.1794
  778MOL0     C 7253   6.493   5.151   7.681  0.3224 -0.3343 -0.5685
  778MOL0     C 7254   6.555   5.255   7.593  0.1872  0.3556  0.0189
  778MOL0     C 7255   6.551   5.113   7.801 -0.0815  0.5608  0.3082
  778MOL0     C 7256   6.669   5.175   7.868  0.1508  0.0972 -0.4378
  778MOL0     O 7257   6.666   5.173   8.009 -0.1658  0.0588  0.0446
  778MOL0     C 7258   6.780   5.214   8.068 -0.1795 -0.5673  0.6207
  778MOL0     C 7259   6.876   5.119   8.094 -0.6344 -0.0456 -0.5307
  778MOL0     C 7260   6.990   5.168   8.157 -0.4579  0.9956  0.3346
  778MOL0     C 7261   7.017   5.296   8.196  0.8431 -0.3011  0.8222
  778MOL0     O 7262   7.124   5.349   8.261 -0.4083  0.1363  0.2819
  778MOL0     C 7263   7.244   5.279   8.280  0.2492 -0.0879  0.5976
  778MOL0     C 7264   7.371   5.370   8.287  0.1062 -0.2259 -0.4873
  778MOL0     C 7265   7.475   5.334   8.182  0.2258  0.0424  0.3204
  778MOL0     C 7266   7.621   5.389   8.218 -0.1436  0.6694 -0.0972
  778MOL0     C 7267   7.712   5.360   8.100  0.4993  0.0277  0.1894
  778MOL0     C 7268   7.856   5.396   8.127 -0.1355 -0.0374  1.3925
  778MOL0     C 7269   7.888   5.544   8.097  0.1077  0.0039  0.2464
  778MOL0     C 7270   8.025   5.575   8.133  0.1515 -0.0958  0.1051
  778MOL0    Cl 7271   8.062   5.759   8.109 -0.0493  0.3273  0.2206
  778MOL0     C 7272   6.911   5.387   8.177  0.2117  0.0892  0.3995
  778MOL0     C 7273   6.794   5.347   8.110 -0.8137  0.3961  0.4052
  778MOL0     O 7274   6.763   5.196   7.796 -0.1208 -0.0589 -0.7014
  778MOL0     C 7275   6.497   5.001   7.863  0.0056 -0.6138  0.0510
  778MOL0     C 7276   6.371   4.948   7.834 -0.8668  0.7955 -0.3466
  778MOL0     N 7277   5.612   4.905   7.606  0.0590  0.4815 -0.1604
  778MOL0     N 7278   5.500   4.949   7.660 -0.3759  0.6302  0.4777
  778MOL0     C 7279   4.582   4.323   7.815  0.4933  0.0472 -0.5861
  778MOL0     C 7280   4.464   4.301   7.745 -0.2928 -0.9546  0.2446
  778MOL0     C 7281   4.055   4.311   7.605  0.6635  0.1821  0.9190
  778MOL0     C 7282   3.998   4.181   7.607 -0.4045  0.3831  0.3085
  778MOL0     C 7283   3.883   4.145   7.528 -0.2627 -0.7233 -0.5890
  778MOL0     C 7284   3.820   4.236   7.449  0.9929  0.4103 -0.1457
  778MOL0     O 7285   3.708   4.192   7.385  0.5323  0.0705  0.4057
  778MOL0     C 7286   3.724   4.212   7.248 -0.2176 -1.8124  0.3457
  778MOL0     C 7287   3.635   4.107   7.171 -0.4695  0.3641 -0.3061
  778MOL0     C 7288   3.479   4.143   7.154  0.5597  0.4125 -0.6265
  778MOL0     C 7289   3.440   4.286   7.123  0.5215  0.3303  0.8846
  778MOL0     C 7290   3.293   4.304   7.145  0.5420  0.1760 -0.2740
  778MOL0     C 7291   3.170   4.315   7.177  0.0889 -0.3487  0.1044
  778MOL0     C 7292   3.877   4.364   7.445 -0.6935 -0.6689 -0.7789
  778MOL0     C 7293   3.986   4.405   7.522 -0.7880  0.0558 -0.1492
  778MOL0     C 7294   4.047   4.540   7.495 -0.0091  0.0704 -0.3311
  778MOL0     H 7295   4.295   4.142   7.976  1.2538 -2.1910 -4.3733
  778MOL0     H 7296   4.491   4.207   8.122  1.7479  0.8373  0.0114
  778MOL0     H 7297   4.769   4.390   8.202 -0.9456 -0.0219  0.4744
  778MOL0     H 7298   4.630   4.460   8.116 -0.9631 -1.7234 -1.8329
  778MOL0     H 7299   4.747   4.584   7.969  2.1475  1.5018 -0.2592
  778MOL0     H 7300   4.810   4.600   8.136 -1.6139 -1.7042  2.0920
  778MOL0     H 7301   4.979   4.433   8.077  0.8527 -0.2434 -0.9780
  778MOL0     H 7302   4.921   4.417   7.909  1.1905 -2.9673  0.9330
  778MOL0     H 7303   4.957   4.661   7.865  0.9028  0.2252  0.3229
  778MOL0     H 7304   5.036   4.670   8.028 -0.8126  0.4691 -0.7774
  778MOL0     H 7305   5.121   4.526   7.782 -3.4261  1.9271 -0.4396
  778MOL0     H 7306   5.219   4.527   7.933  0.3604  1.2463 -0.8888
  778MOL0     H 7307   5.265   4.697   7.734 -1.9939 -0.7326 -1.3883
  778MOL0     H 7308   5.135   4.785   7.812 -2.8209 -2.5223  1.7359
  778MOL0     H 7309   5.388   4.697   7.952  0.0754  2.0233  1.7878
  778MOL0     H 7310   5.246   4.794   8.012 -0.1972  1.9032 -0.7217
  778MOL0     H 7311   5.316   4.963   7.822 -0.5676  0.2320  1.0738
  778MOL0     H 7312   5.443   4.966   7.940  0.8742 -0.1509  0.5380
  778MOL0     H 7313   5.600   4.703   7.856  2.4370 -0.7187 -1.3300
  778MOL0     H 7314   5.799   4.712   7.535  1.1377  0.3125  0.1770
  778MOL0     H 7315   5.794   4.628   7.691  0.3572 -0.0790  0.2616
  778MOL0     H 7316   5.915   4.822   7.791  1.0700 -1.9827  0.3456
  778MOL0     H 7317   6.007   4.753   7.653 -1.8037 -2.6233 -0.0922
  778MOL0     H 7318   5.988   4.902   7.512  1.3768  0.3509 -0.0423
  778MOL0     H 7319   5.862   5.001   7.592  1.0378  0.9374 -1.5638
  778MOL0     H 7320   6.107   5.092   7.610 -1.1124  1.7844  2.2913
  778MOL0     H 7321   6.048   5.051   7.772  1.2727 -0.0143  0.3634
  778MOL0     H 7322   6.327   5.108   7.546 -0.7126  0.6978  0.5512
  778MOL0     H 7323   6.610   5.195   7.520  0.2501  0.0646  0.3038
  778MOL0     H 7324   6.620   5.331   7.637  1.4669  0.0640 -1.2700
  778MOL0     H 7325   6.480   5.313   7.540  1.2451 -0.7654 -2.9117
  778MOL0     H 7326   6.847   5.017   8.070 -0.1479 -0.0396 -1.1747
  778MOL0     H 7327   7.074   5.100   8.168 -0.3232  1.2113  0.6653
  778MOL0     H 7328   7.241   5.225   8.376  1.3919 -0.7447  0.2791
  778MOL0     H 7329   7.257   5.211   8.195  4.8574  0.9229  0.2562
  778MOL0     H 7330   7.335   5.472   8.271 -2.4769 -0.9040  0.5623
  778MOL0     H 7331   7.404   5.358   8.391 -0.9953  0.1188 -0.0799
  778MOL0     H 7332   7.454   5.371   8.081  0.0351 -1.2385 -0.1186
  778MOL0     H 7333   7.468   5.225   8.178 -3.0583  0.0132  2.7426
  778MOL0     H 7334   7.663   5.340   8.306  0.6839  1.0666 -0.2560
  778MOL0     H 7335   7.614   5.496   8.239 -2.3012  0.5372  0.0162
  778MOL0     H 7336   7.706   5.252   8.081  2.3073 -0.4986  2.2107
  778MOL0     H 7337   7.674   5.414   8.013 -0.9534 -2.5597 -0.8995
  778MOL0     H 7338   7.924   5.342   8.060 -2.6694  1.7090 -3.0626
  778MOL0     H 7339   7.885   5.384   8.232  2.4565 -0.2308  0.7159
  778MOL0     H 7340   7.817   5.615   8.142 -0.7250  1.4133 -3.0127
  778MOL0     H 7341   7.866   5.556   7.991  3.8392  2.0508 -0.4422
  778MOL0     H 7342   8.091   5.519   8.067  1.7947 -2.5355  3.5193
  778MOL0     H 7343   8.057   5.549   8.234  0.5304 -3.4676 -0.7527
  778MOL0     H 7344   6.939   5.489   8.200  2.6494 -0.5004  0.2565
  778MOL0     H 7345   6.720   5.426   8.100 -1.3945 -0.1405  0.3913
  778MOL0     H 7346   6.539   4.953   7.951  0.1778 -2.4063 -0.9640
  778MOL0     H 7347   6.328   4.875   7.903  1.0286  1.2645  1.4139
  778MOL0     H 7348   4.666   4.347   7.750  1.0305 -2.4724 -0.9409
  778MOL0     H 7349   4.462   4.314   7.637  0.0334 -0.8352  0.2510
  778MOL0     H 7350   4.050   4.112   7.672  0.5686  2.3545  1.7178
  778MOL0     H 7351   3.831   4.050   7.534 -2.5301  0.3501 -1.5450
  778MOL0     H 7352   3.708   4.320   7.241 -2.6497 -1.9803  2.0324
  778MOL0     H 7353   3.829   4.211   7.217 -0.2287  1.0082 -0.0633
  778MOL0     H 7354   3.641   4.007   7.216  1.0921  0.3617 -0.4672
  778MOL0     H 7355   3.687   4.093   7.076  1.4571 -1.0889  0.8823
  778MOL0     H 7356   3.445   4.072   7.077 -1.6241  0.7325 -0.0093
  778MOL0     H 7357   3.438   4.117   7.252  3.5174 -2.4715  0.0329
  778MOL0     H 7358   3.475   4.324   7.026  1.4665 -2.0226  0.2459
  778MOL0     H 7359   3.495   4.340   7.201 -0.1527  1.0480  0.8726
  778MOL0     H 7360   3.067   4.303   7.205  0.1990 -1.8576 -0.0504
  778MOL0     H 7361   3.833   4.440   7.381 -0.7418 -0.3601 -0.3851
  778MOL0     H 7362   4.016   4.596   7.583 -1.2324  0.1359 -0.7889
  778MOL0     H 7363   4.157   4.534   7.498  0.2035  1.8271 -2.0677
  778MOL0     H 7364   4.014   4.591   7.404  1.7001 -0.9774 -1.6239
  779MOL0     O 7365   4.231  10.880   3.248  0.2269  0.0200  0.1902
  779MOL0     C 7366   4.115  10.857   3.218  0.5376 -0.5830 -0.5814
  779MOL0     O 7367   4.008  10.864   3.308 -0.5716 -0.4310  0.8199
  779MOL0     C 7368   4.037  10.949   3.414 -0.0465 -0.5876  0.1113
  779MOL0     C 7369   4.126  10.906   3.518 -0.2076  0.2725  0.8913
  779MOL0     C 7370   4.137  10.980   3.632  0.9499 -0.1588 -0.8066
  779MOL0     C 7371   4.063  11.098   3.652 -0.1507 -0.7790 -0.5732
  779MOL0     O 7372   4.080  11.162   3.780 -0.0413 -0.1434  0.1201
  779MOL0     C 7373   4.031  11.296   3.781 -0.2469  0.2999  1.1368
  779MOL0     C 7374   4.059  11.371   3.911  0.6955  0.3973  1.1514
  779MOL0     C 7375   4.199  11.398   3.938 -0.1253  0.4966  0.2137
  779MOL0     C 7376   4.277  11.480   3.826  0.3656 -0.0146  0.2297
  779MOL0     C 7377   4.421  11.523   3.860 -0.0367 -0.5425  0.7788
  779MOL0     C 7378   4.478  11.612   3.756 -0.2660  0.2999  0.2633
  779MOL0     C 7379   4.604  11.669   3.803 -0.2575  0.2285 -0.1851
  779MOL0     C 7380   4.681  11.766   3.710 -0.4206  0.4117  0.9076
  779MOL0     N 7381   4.790  11.836   3.788  0.7238  0.0762  0.7938
  779MOL0     C 7382   4.908  11.782   3.816  0.3558 -0.1705 -0.1216
  779MOL0     C 7383   4.970  11.874   3.898  0.3966  1.2738 -0.2084
  779MOL0     C 7384   5.110  11.873   3.952 -0.3826 -0.4232 -0.0412
  779MOL0     C 7385   5.205  11.954   3.863 -0.5013 -0.2982  0.5374
  779MOL0     C 7386   5.174  12.107   3.899  0.3632 -0.5142  0.0847
  779MOL0     C 7387   5.295  12.196   3.869 -0.1589 -0.3753 -0.5920
  779MOL0     O 7388   5.410  12.154   3.947  0.5866  0.1636  0.5876
  779MOL0     C 7389   5.521  12.236   3.946 -0.0959  0.1086  0.2747
  779MOL0     C 7390   5.623  12.215   4.033  1.1266  0.3912  0.0722
  779MOL0     C 7391   5.739  12.294   4.025  0.4357 -0.0956 -1.0626
  779MOL0     C 7392   5.846  12.269   4.127  0.3973  0.3929  0.3200
  779MOL0     C 7393   5.766  12.387   3.924 -0.0260 -0.4863  0.2843
  779MOL0     C 7394   5.898  12.455   3.902  0.1529 -0.4790  0.0275
  779MOL0     O 7395   5.932  12.477   3.766  0.0642 -0.2394 -0.0690
  779MOL0     C 7396   6.028  12.573   3.762 -0.4986  1.1280 -0.0002
  779MOL0     C 7397   6.144  12.541   3.691 -0.2774 -0.3636  0.1533
  779MOL0     C 7398   6.240  12.639   3.673 -0.1566 -0.9907  0.1353
  779MOL0     C 7399   6.228  12.766   3.727 -0.0464 -0.2290 -0.0643
  779MOL0     O 7400   6.334  12.850   3.720  0.0902 -0.3689 -0.0857
  779MOL0     C 7401   6.325  12.979   3.788 -0.1091 -0.5623  0.4909
  779MOL0     C 7402   6.463  13.065   3.776 -0.0827 -0.5661  0.2131
  779MOL0     C 7403   6.458  13.198   3.859  0.4239  0.2510 -0.0089
  779MOL0     C 7404   6.439  13.152   4.015  0.0113 -0.2454 -0.5659
  779MOL0     C 7405   6.491  13.258   4.099  0.0328 -0.6620 -0.0234
  779MOL0     C 7406   6.461  13.225   4.251 -0.0950 -0.3798  0.2872
  779MOL0     C 7407   6.538  13.320   4.342 -0.2302  0.5357 -0.7627
  779MOL0     C 7408   6.558  13.278   4.480 -0.8520  0.9431 -0.4498
  779MOL0    Cl 7409   6.657  13.126   4.497  0.1768  0.1213 -0.1308
  779MOL0     C 7410   6.102  12.800   3.787 -0.0272 -1.0858  0.6197
  779MOL0     C 7411   6.002  12.700   3.804 -0.5337 -0.8331 -0.6153
  779MOL0     O 7412   5.953  12.498   4.001  1.4697 -0.4728  0.3831
  779MOL0     C 7413   5.669  12.401   3.822 -0.1350  0.4467  0.0170
  779MOL0     C 7414   5.541  12.331   3.847 -0.5065  0.1182  0.4369
  779MOL0     N 7415   4.872  11.963   3.926  0.3494  0.5818 -0.3949
  779MOL0     N 7416   4.762  11.941   3.863 -0.0356 -0.2832  0.1882
  779MOL0     C 7417   3.982  11.144   3.550 -0.3101 -0.7568  0.8985
  779MOL0     C 7418   3.971  11.076   3.428  0.0402  0.5245 -0.7498
  779MOL0     C 7419   4.075  10.817   3.078 -0.7535 -0.4316 -0.1640
  779MOL0     C 7420   3.940  10.840   3.027 -0.1407  0.0476 -0.8940
  779MOL0     C 7421   3.909  10.810   2.897  0.2631 -0.1922  0.5794
  779MOL0     C 7422   4.003  10.747   2.814 -1.0101 -0.6631  0.6939
  779MOL0     O 7423   3.961  10.727   2.686  0.4014  0.6741  0.3790
  779MOL0     C 7424   4.034  10.671   2.586  0.5999 -0.3599  0.1544
  779MOL0     C 7425   3.951  10.673   2.455 -0.4442  0.4615 -1.0401
  779MOL0     C 7426   4.006  10.604   2.333 -0.1619 -0.1202 -0.7236
  779MOL0     C 7427   3.924  10.644   2.205  0.2040 -1.0338 -0.1156
  779MOL0     C 7428   3.960  10.775   2.145 -0.4837  0.3976  0.7864
  779MOL0     C 7429   3.982  10.882   2.099 -0.5006 -0.3644  0.1292
  779MOL0     C 7430   4.126  10.714   2.863 -0.3013 -0.2403  0.3890
  779MOL0     C 7431   4.165  10.743   2.992  0.5405 -0.8947  0.5408
  779MOL0     C 7432   4.311  10.703   3.024  0.2054 -0.1251  0.0713
  779MOL0     H 7433   4.189  10.819   3.500  0.9079  1.2940 -0.3663
  779MOL0     H 7434   4.195  10.958   3.722  1.0412  1.1792 -0.5249
  779MOL0     H 7435   3.923  11.279   3.784 -0.1351 -1.2057 -0.9567
  779MOL0     H 7436   4.045  11.356   3.690 -4.4075  0.8238  0.6592
  779MOL0     H 7437   4.012  11.470   3.908  0.7375  0.5131  3.1851
  779MOL0     H 7438   4.026  11.301   3.987  4.5266 -1.2489  1.4939
  779MOL0     H 7439   4.199  11.456   4.031  1.8779  0.0504  0.5454
  779MOL0     H 7440   4.260  11.308   3.945  1.9143  1.1936 -4.4597
  779MOL0     H 7441   4.272  11.424   3.733  1.0704 -1.3024  0.9494
  779MOL0     H 7442   4.222  11.573   3.807  1.0448  0.5474  0.9652
  779MOL0     H 7443   4.475  11.430   3.878 -3.0443 -2.3026  1.3164
  779MOL0     H 7444   4.416  11.581   3.953  2.1138 -1.0433  1.2472
  779MOL0     H 7445   4.478  11.563   3.658 -1.1729 -1.0175  0.8991
  779MOL0     H 7446   4.401  11.689   3.744  0.3489  0.8841 -0.0619
  779MOL0     H 7447   4.674  11.596   3.845 -2.0352 -1.3303  0.1498
  779MOL0     H 7448   4.575  11.724   3.893 -0.9219  0.6639 -0.6652
  779MOL0     H 7449   4.710  11.711   3.620  1.2227  1.1411  0.9711
  779MOL0     H 7450   4.631  11.853   3.666  1.2858 -0.5628 -3.4643
  779MOL0     H 7451   4.957  11.694   3.775  0.3306 -0.6645  0.8916
  779MOL0     H 7452   5.144  11.771   3.972 -0.7239  0.0066  3.4526
  779MOL0     H 7453   5.115  11.920   4.051  0.8082 -1.0371  0.2092
  779MOL0     H 7454   5.309  11.923   3.879  0.4571  1.8039 -1.1780
  779MOL0     H 7455   5.173  11.943   3.759 -0.4368  2.4203  0.1736
  779MOL0     H 7456   5.085  12.144   3.848 -1.2256 -0.4739  2.7328
  779MOL0     H 7457   5.150  12.125   4.004 -1.1953  0.8762 -0.4745
  779MOL0     H 7458   5.315  12.191   3.762  0.3663 -1.8272 -0.4541
  779MOL0     H 7459   5.268  12.299   3.896  0.1256  0.1456 -2.2238
  779MOL0     H 7460   5.618  12.129   4.099  4.2314  1.8454  2.4687
  779MOL0     H 7461   5.939  12.238   4.078  0.0898  1.8873 -1.3135
  779MOL0     H 7462   5.821  12.187   4.195  1.6687  1.4580  2.1705
  779MOL0     H 7463   5.863  12.348   4.201  0.5528  1.3541 -0.7063
  779MOL0     H 7464   6.141  12.444   3.642 -1.1517  0.2266 -1.0291
  779MOL0     H 7465   6.332  12.629   3.617  0.4117  1.5953  0.4833
  779MOL0     H 7466   6.239  13.042   3.764  2.3270  1.7468 -3.2690
  779MOL0     H 7467   6.312  12.951   3.893  0.4332 -0.6873  0.5298
  779MOL0     H 7468   6.546  12.996   3.796  0.4518 -0.0579 -0.2434
  779MOL0     H 7469   6.459  13.100   3.673 -1.3440 -0.8279  0.1531
  779MOL0     H 7470   6.387  13.273   3.823  1.6271  0.9965 -0.9482
  779MOL0     H 7471   6.557  13.245   3.859 -0.1298  1.6076  2.4840
  779MOL0     H 7472   6.498  13.065   4.042 -3.4166 -3.0301 -1.2768
  779MOL0     H 7473   6.338  13.133   4.053  0.7117  3.0873  3.7451
  779MOL0     H 7474   6.599  13.257   4.079 -0.0048  0.1858 -0.2920
  779MOL0     H 7475   6.453  13.357   4.073 -2.6379  0.0059  5.0804
  779MOL0     H 7476   6.494  13.122   4.266  2.3607  0.4556  1.1473
  779MOL0     H 7477   6.355  13.244   4.269 -0.1030  0.6704 -0.7378
  779MOL0     H 7478   6.470  13.404   4.362 -0.7432  0.7431 -3.1432
  779MOL0     H 7479   6.628  13.353   4.289  1.8721 -1.4760  1.2844
  779MOL0     H 7480   6.462  13.272   4.531 -0.5346  4.1773  0.7599
  779MOL0     H 7481   6.616  13.358   4.528 -1.1413 -0.2076  1.9540
  779MOL0     H 7482   6.078  12.894   3.834  1.6427  0.3174 -1.1559
  779MOL0     H 7483   5.909  12.736   3.849 -0.1249 -1.4968  0.8352
  779MOL0     H 7484   5.681  12.470   3.740  1.8149 -0.0323 -0.1700
  779MOL0     H 7485   5.464  12.341   3.772  0.5662  0.3322 -0.6594
  779MOL0     H 7486   3.917  11.231   3.558 -1.8321 -1.9919  2.8542
  779MOL0     H 7487   3.903  11.117   3.354 -1.4309 -2.4089 -1.1759
  779MOL0     H 7488   3.868  10.894   3.088 -1.2173 -0.9816 -1.2088
  779MOL0     H 7489   3.821  10.847   2.844  0.4353  1.7768  1.5999
  779MOL0     H 7490   4.123  10.731   2.567 -1.0679  2.3371  0.3223
  779MOL0     H 7491   4.068  10.569   2.608  1.7793  0.1179  0.6331
  779MOL0     H 7492   3.950  10.780   2.433  2.0346  0.5536 -0.9467
  779MOL0     H 7493   3.862  10.614   2.478  1.0698 -2.2163 -1.7106
  779MOL0     H 7494   4.111  10.627   2.311 -0.8658  1.8601 -2.3984
  779MOL0     H 7495   3.988  10.497   2.343 -2.7219  0.1321 -1.9211
  779MOL0     H 7496   3.817  10.633   2.229  0.2465  0.8950  1.2487
  779MOL0     H 7497   3.955  10.577   2.125 -1.2885 -1.2662 -0.5393
  779MOL0     H 7498   4.015  10.977   2.061 -1.4123  0.0018  0.2281
  779MOL0     H 7499   4.196  10.654   2.805  2.8893  0.7972  2.8617
  779MOL0     H 7500   4.375  10.791   3.037 -0.1452  0.0270  0.8387
  779MOL0     H 7501   4.323  10.639   3.112  1.1091 -1.3223 -0.8972
  779MOL0     H 7502   4.356  10.639   2.948 -0.1193 -0.4626  0.1573
  780MOL0     O 7503  10.735   4.701   3.822 -0.0556  0.4956 -0.1460
  780MOL0     C 7504  10.801   4.698   3.927 -0.4990  0.5714 -0.5395
  780MOL0     O 7505  10.777   4.775   4.033  0.2744  0.0889  0.2343
  780MOL0     C 7506  10.661   4.854   4.024  0.6057  0.2368  0.0351
  780MOL0     C 7507  10.535   4.791   4.044 -0.5326  0.4806  0.4579
  780MOL0     C 7508  10.419   4.861   4.034 -0.3257 -0.4607  0.4761
  780MOL0     C 7509  10.429   4.999   4.030 -0.7765 -0.0733 -0.7565
  780MOL0     O 7510  10.328   5.093   4.023 -0.2606 -0.2205  0.0141
  780MOL0     C 7511  10.193   5.067   4.071  0.0314  0.6147  0.4866
  780MOL0     C 7512  10.171   5.075   4.227 -0.1370 -0.0836 -0.0279
  780MOL0     C 7513  10.232   4.958   4.301 -0.8282 -1.0236  0.0872
  780MOL0     C 7514  10.269   5.005   4.446 -0.3872  0.5801  0.5530
  780MOL0     C 7515  10.340   4.896   4.527 -0.6112  0.2302  1.1476
  780MOL0     C 7516  10.368   4.936   4.666  0.4585 -0.0634  1.3805
  780MOL0     C 7517  10.247   4.982   4.747  0.1004 -1.3683 -0.3663
  780MOL0     C 7518  10.262   5.127   4.777  0.5099  0.2805 -0.3796
  780MOL0     N 7519  10.381   5.176   4.844  0.2979 -0.1569  0.2640
  780MOL0     C 7520  10.418   5.139   4.969  0.5184  0.5337 -0.6163
  780MOL0     C 7521  10.550   5.176   4.982 -0.7198 -0.2019  0.5906
  780MOL0     C 7522  10.636   5.149   5.090  0.2335 -0.2861 -1.1231
  780MOL0     C 7523  10.592   5.229   5.215 -0.7884  0.8582  0.3506
  780MOL0     C 7524  10.670   5.189   5.342  0.3087  0.6578 -0.8085
  780MOL0     C 7525  10.826   5.197   5.332 -0.1528  0.0203 -0.8499
  780MOL0     O 7526  10.868   5.314   5.263  0.1133  0.5679 -0.9014
  780MOL0     C 7527  10.850   5.442   5.309 -0.5834 -0.7544 -0.3316
  780MOL0     C 7528  10.799   5.478   5.429  0.5205  0.5182 -0.0855
  780MOL0     C 7529  10.778   5.605   5.473  0.1936  1.2875  0.1890
  780MOL0     C 7530  10.723   5.630   5.616 -0.2727 -0.3030  0.0560
  780MOL0     C 7531  10.817   5.714   5.383  0.4514  0.0561 -0.6575
  780MOL0     C 7532  10.805   5.860   5.428 -1.2873 -0.0970  0.9217
  780MOL0     O 7533  10.714   5.887   5.525  0.4830 -0.3668 -0.8472
  780MOL0     C 7534  10.703   6.022   5.560 -0.3417  0.4890  1.5702
  780MOL0     C 7535  10.791   6.071   5.659  0.3332  0.5555  0.1535
  780MOL0     C 7536  10.793   6.207   5.707  0.2430 -0.3108  0.8602
  780MOL0     C 7537  10.713   6.294   5.631 -0.3822 -0.3562  0.3338
  780MOL0     O 7538  10.709   6.423   5.682  0.8659 -0.5439 -0.1703
  780MOL0     C 7539  10.644   6.529   5.608 -0.5593  1.1455  0.5496
  780MOL0     C 7540  10.664   6.661   5.671  0.0361 -0.4920  0.1782
  780MOL0     C 7541  10.644   6.672   5.819  0.4480 -0.2026 -0.0136
  780MOL0     C 7542  10.694   6.811   5.861  0.1955  0.0072 -0.0445
  780MOL0     C 7543  10.677   6.852   6.005 -0.3529  0.5889 -0.2670
  780MOL0     C 7544  10.694   7.004   6.008 -0.4361  0.5734 -0.4823
  780MOL0     C 7545  10.673   7.046   6.151 -0.2657  0.2313  0.7400
  780MOL0     C 7546  10.676   7.203   6.164 -0.0322  0.7608 -0.2308
  780MOL0    Cl 7547  10.508   7.271   6.135  0.2849 -0.0962  0.0933
  780MOL0     C 7548  10.637   6.251   5.520  0.1149  0.2439 -0.1143
  780MOL0     C 7549  10.638   6.121   5.479 -0.8836  0.0525 -0.7502
  780MOL0     O 7550  10.890   5.942   5.386 -0.2307 -0.3431  1.0588
  780MOL0     C 7551  10.868   5.680   5.257 -0.1498 -1.6957 -0.0344
  780MOL0     C 7552  10.887   5.545   5.225 -0.0089  0.4069 -0.0252
  780MOL0     N 7553  10.587   5.233   4.866  0.2546 -0.9599 -0.4145
  780MOL0     N 7554  10.489   5.236   4.783 -0.0055 -0.7644  0.3995
  780MOL0     C 7555  10.559   5.065   4.034 -0.4850 -0.0047 -0.0261
  780MOL0     C 7556  10.680   4.998   4.023  0.0350  0.6333 -0.8864
  780MOL0     C 7557  10.927   4.620   3.933  1.0563 -0.2245 -0.1275
  780MOL0     C 7558  10.943   4.536   4.045 -0.0646 -0.3197  0.3333
  780MOL0     C 7559  11.060   4.452   4.049 -0.1147  0.7620 -0.4136
  780MOL0     C 7560  11.155   4.450   3.944 -0.4535  0.1962 -0.1518
  780MOL0     O 7561  11.265   4.373   3.936  0.4400 -0.2125 -0.3560
  780MOL0     C 7562  11.292   4.279   4.042  0.1071 -0.6796 -1.2055
  780MOL0     C 7563  11.362   4.151   3.990 -0.3267 -0.2684  0.1951
  780MOL0     C 7564  11.282   4.082   3.882  0.0486  0.0520 -0.7535
  780MOL0     C 7565  11.186   3.974   3.945 -0.2915 -0.4088  0.3252
  780MOL0     C 7566  11.145   3.875   3.842 -0.1362 -0.0211 -0.6375
  780MOL0     C 7567  11.120   3.788   3.757 -0.0262 -0.0073  0.6854
  780MOL0     C 7568  11.138   4.539   3.834 -0.5429  0.0164 -0.6612
  780MOL0     C 7569  11.023   4.623   3.829 -0.2203 -0.8081 -0.0191
  780MOL0     C 7570  11.010   4.707   3.703 -0.6172  0.5648 -0.7896
  780MOL0     H 7571  10.545   4.687   4.074  3.4030  1.2289  2.3171
  780MOL0     H 7572  10.319   4.821   4.027 -0.7948  0.9229 -1.7710
  780MOL0     H 7573  10.171   4.965   4.038  1.0359  0.6555 -0.3474
  780MOL0     H 7574  10.129   5.141   4.023 -1.2475  0.3049  1.6528
  780MOL0     H 7575  10.218   5.169   4.258  1.1386 -1.2270  1.6659
  780MOL0     H 7576  10.065   5.078   4.251 -0.1963 -1.3583 -0.1070
  780MOL0     H 7577  10.163   4.873   4.300 -1.9576 -0.1462  0.6125
  780MOL0     H 7578  10.330   4.928   4.263  1.1339  0.4718  3.4743
  780MOL0     H 7579  10.333   5.093   4.437  0.3741  0.0713  0.8417
  780MOL0     H 7580  10.176   5.039   4.491 -0.3051 -1.1932  2.1705
  780MOL0     H 7581  10.433   4.869   4.475 -1.8242  0.7659 -1.4950
  780MOL0     H 7582  10.273   4.812   4.509  0.2288  0.0652 -1.9119
  780MOL0     H 7583  10.401   4.845   4.717  0.6838  1.1280  3.4879
  780MOL0     H 7584  10.444   5.014   4.659  0.7110 -0.3485  0.9079
  780MOL0     H 7585  10.242   4.926   4.841 -1.7122 -1.1321 -0.2949
  780MOL0     H 7586  10.149   4.959   4.705  0.3499  0.3997 -2.0487
  780MOL0     H 7587  10.255   5.178   4.681  0.9463  2.7518  0.8186
  780MOL0     H 7588  10.175   5.153   4.839  0.8477  0.7373 -0.0948
  780MOL0     H 7589  10.358   5.083   5.040 -0.5657 -0.0836 -1.9809
  780MOL0     H 7590  10.742   5.163   5.065 -0.1883 -0.5471 -3.2851
  780MOL0     H 7591  10.636   5.040   5.103 -1.7060 -0.1574  0.3912
  780MOL0     H 7592  10.609   5.335   5.191 -1.9186  0.7971 -0.7757
  780MOL0     H 7593  10.488   5.220   5.246 -0.5918  1.6943  1.3388
  780MOL0     H 7594  10.632   5.255   5.421  4.0689 -0.1262  1.8971
  780MOL0     H 7595  10.646   5.086   5.370 -0.7019  1.0586 -0.1456
  780MOL0     H 7596  10.870   5.208   5.432 -0.9398  0.6829 -0.5714
  780MOL0     H 7597  10.864   5.108   5.282 -0.3881  0.4343 -1.7759
  780MOL0     H 7598  10.756   5.407   5.498 -1.3671  0.9434 -0.7474
  780MOL0     H 7599  10.700   5.541   5.676 -0.9355 -1.5736 -1.9947
  780MOL0     H 7600  10.626   5.678   5.607 -2.2189 -3.7136  1.1722
  780MOL0     H 7601  10.790   5.688   5.681 -0.4606 -0.7416  0.6517
  780MOL0     H 7602  10.850   5.992   5.704  3.3780  1.6657 -1.5717
  780MOL0     H 7603  10.854   6.225   5.794  0.6434  1.1806  0.3051
  780MOL0     H 7604  10.698   6.529   5.513  1.7481 -0.6528  1.7539
  780MOL0     H 7605  10.537   6.515   5.590  0.0696 -0.8469 -2.4130
  780MOL0     H 7606  10.765   6.700   5.656 -0.4022  0.5221 -0.1727
  780MOL0     H 7607  10.605   6.733   5.614 -3.6430 -2.3444  1.2734
  780MOL0     H 7608  10.689   6.602   5.890  2.4073  1.6088  0.6099
  780MOL0     H 7609  10.535   6.668   5.831  0.2530  1.5820 -0.8585
  780MOL0     H 7610  10.627   6.875   5.804 -0.3633 -0.0364  0.5429
  780MOL0     H 7611  10.795   6.824   5.823  0.0618  2.4132  0.2851
  780MOL0     H 7612  10.580   6.810   6.035  0.2630 -1.2292 -0.6694
  780MOL0     H 7613  10.754   6.798   6.061 -1.2987 -0.1328  0.3677
  780MOL0     H 7614  10.616   7.053   5.949 -0.2705  2.8494  1.0631
  780MOL0     H 7615  10.786   7.048   5.969  2.2804 -1.5526  2.9624
  780MOL0     H 7616  10.753   7.004   6.212  0.8154  0.8675 -0.2026
  780MOL0     H 7617  10.586   6.996   6.194  0.5742 -0.9377  1.1383
  780MOL0     H 7618  10.751   7.250   6.100 -0.0979 -0.1539 -1.0045
  780MOL0     H 7619  10.709   7.226   6.266  1.4676  2.1388 -0.9730
  780MOL0     H 7620  10.599   6.329   5.455  1.2738 -1.2155 -2.7049
  780MOL0     H 7621  10.578   6.093   5.393 -0.8231 -1.1268 -0.4236
  780MOL0     H 7622  10.907   5.752   5.184 -0.9889 -1.1623  0.0323
  780MOL0     H 7623  10.930   5.522   5.128 -1.5023  0.4036 -0.7171
  780MOL0     H 7624  10.553   5.173   4.024  0.8169 -0.1514 -3.7021
  780MOL0     H 7625  10.776   5.046   4.008  0.2938 -0.1029 -1.6770
  780MOL0     H 7626  10.858   4.532   4.113  0.2733 -0.2855  0.7599
  780MOL0     H 7627  11.081   4.403   4.144  1.2621  1.5015 -0.3164
  780MOL0     H 7628  11.352   4.327   4.120  0.3355 -1.2044 -1.0563
  780MOL0     H 7629  11.196   4.248   4.085 -0.7316  0.8454 -1.8949
  780MOL0     H 7630  11.372   4.094   4.083 -0.6105  0.9254  0.9857
  780MOL0     H 7631  11.460   4.175   3.947  0.6153  0.4042  2.5299
  780MOL0     H 7632  11.227   4.148   3.814 -0.1200  0.7904  0.0742
  780MOL0     H 7633  11.360   4.029   3.826 -0.0357  1.5170 -2.3289
  780MOL0     H 7634  11.095   4.021   3.984  0.4195  0.7010  0.7156
  780MOL0     H 7635  11.230   3.918   4.029  0.8373 -1.0206 -0.6498
  780MOL0     H 7636  11.095   3.730   3.670 -1.2131  0.9548  0.3517
  780MOL0     H 7637  11.205   4.534   3.749 -0.6905 -1.8823 -0.7021
  780MOL0     H 7638  11.106   4.713   3.651 -1.7576  3.6283 -2.8727
  780MOL0     H 7639  10.939   4.680   3.625 -1.5376  1.0013 -0.1245
  780MOL0     H 7640  10.988   4.811   3.729 -1.1735  0.0825  0.7728
  781MOL0     O 7641   6.326   1.529   9.737 -0.4969 -0.1322 -0.4850
  781MOL0     C 7642   6.310   1.594   9.843 -0.4875 -0.4587  0.4577
  781MOL0     O 7643   6.383   1.712   9.878  0.6758  0.6291 -0.0716
  781MOL0     C 7644   6.486   1.743   9.799 -0.0111 -0.3648  0.3285
  781MOL0     C 7645   6.613   1.719   9.841 -0.4156 -0.0875  0.2171
  781MOL0     C 7646   6.727   1.756   9.763 -0.1085  0.1971  0.4593
  781MOL0     C 7647   6.719   1.825   9.651  0.1673 -0.0822 -0.0262
  781MOL0     O 7648   6.840   1.844   9.594 -0.5727  0.0645 -0.0676
  781MOL0     C 7649   6.858   1.944   9.486  0.3341  0.3860 -0.5000
  781MOL0     C 7650   6.993   1.923   9.417  0.5305 -0.6470  0.1928
  781MOL0     C 7651   7.029   1.784   9.390 -0.1360  0.1925 -0.2566
  781MOL0     C 7652   6.953   1.716   9.272 -0.6444 -0.5868 -1.1885
  781MOL0     C 7653   7.039   1.602   9.216  0.4578 -0.4891 -0.3189
  781MOL0     C 7654   6.957   1.531   9.112  0.5161 -0.8490  0.2358
  781MOL0     C 7655   7.029   1.404   9.061  0.2654 -0.0815  1.5348
  781MOL0     C 7656   6.958   1.284   9.109 -0.4552 -0.7407  0.9423
  781MOL0     N 7657   7.022   1.159   9.066 -0.1489 -0.0187 -0.6816
  781MOL0     C 7658   7.015   1.051   9.143 -0.0088  0.2786  1.1543
  781MOL0     C 7659   7.084   0.960   9.074  0.0229  0.2135  0.1178
  781MOL0     C 7660   7.081   0.809   9.123 -0.5427 -0.5628 -0.8418
  781MOL0     C 7661   7.194   0.785   9.221  0.8481  0.3530 -0.3732
  781MOL0     C 7662   7.159   0.659   9.307  0.4139  0.6047  0.1612
  781MOL0     C 7663   7.284   0.607   9.382 -0.0686 -0.2662  0.2132
  781MOL0     O 7664   7.367   0.547   9.279  0.1052 -0.1758 -0.2326
  781MOL0     C 7665   7.474   0.487   9.340 -0.0614 -0.5470  0.1157
  781MOL0     C 7666   7.506   0.473   9.473  0.9461  0.1462 -0.2055
  781MOL0     C 7667   7.617   0.404   9.521  0.1350 -0.1062  0.2206
  781MOL0     C 7668   7.639   0.404   9.669 -0.5941 -0.0326  0.4076
  781MOL0     C 7669   7.707   0.333   9.441 -0.2899  0.1513  0.2358
  781MOL0     C 7670   7.835   0.268   9.476 -0.1311 -0.7904 -0.7893
  781MOL0     O 7671   7.897   0.189   9.385 -0.3308  1.2427 -0.5388
  781MOL0     C 7672   8.010   0.121   9.411  0.0785  0.9922  0.1144
  781MOL0     C 7673   8.022   0.037   9.520  0.2583  0.5324  0.3903
  781MOL0     C 7674   8.139  -0.042   9.546  0.4296  0.3406 -0.1711
  781MOL0     C 7675   8.255  -0.034   9.466  0.1978  0.1000  0.0607
  781MOL0     O 7676   8.366  -0.120   9.486  0.0320 -0.5962  0.0967
  781MOL0     C 7677   8.498  -0.072   9.446  0.5075 -0.5141 -0.2165
  781MOL0     C 7678   8.556   0.028   9.548  0.2784  0.1894  0.2430
  781MOL0     C 7679   8.693   0.067   9.506 -0.2146 -0.1752 -0.1868
  781MOL0     C 7680   8.682   0.212   9.450  0.6825 -0.5068  0.7619
  781MOL0     C 7681   8.818   0.279   9.421 -0.7613 -0.4503 -0.0997
  781MOL0     C 7682   8.808   0.432   9.389 -0.6561  0.0299  0.2995
  781MOL0     C 7683   8.941   0.505   9.392  0.2583 -0.5804 -0.3445
  781MOL0     C 7684   8.997   0.550   9.526 -0.1538 -0.2739  0.7569
  781MOL0    Cl 7685   8.886   0.671   9.609  0.0301  0.1225 -0.3002
  781MOL0     C 7686   8.232   0.046   9.352 -0.9539 -0.0865 -0.5530
  781MOL0     C 7687   8.120   0.114   9.322  0.6101  0.2876  0.5749
  781MOL0     O 7688   7.882   0.295   9.589 -0.4212 -0.5179  0.3453
  781MOL0     C 7689   7.677   0.347   9.303 -0.0701  0.4682 -0.7341
  781MOL0     C 7690   7.565   0.422   9.253  0.4241  1.0356 -0.1034
  781MOL0     N 7691   7.129   1.012   8.952  0.2593 -0.8277 -0.4692
  781MOL0     N 7692   7.084   1.130   8.953  0.1288 -0.4457  0.6899
  781MOL0     C 7693   6.594   1.857   9.601  0.2228  0.0244  0.3417
  781MOL0     C 7694   6.480   1.816   9.674 -0.5870  0.6032  0.4200
  781MOL0     C 7695   6.236   1.526   9.948 -0.4351 -0.1554 -0.2148
  781MOL0     C 7696   6.213   1.601  10.068 -0.2481 -0.3722  1.1531
  781MOL0     C 7697   6.129   1.563  10.172  0.2417 -0.1206 -0.7256
  781MOL0     C 7698   6.084   1.431  10.171  1.0556 -0.2045  0.1457
  781MOL0     O 7699   6.010   1.407  10.285 -1.0867  0.9918 -0.3792
  781MOL0     C 7700   6.106   1.348  10.384  1.2218 -1.1933  0.2345
  781MOL0     C 7701   6.030   1.304  10.507  0.8542  0.6934 -0.5019
  781MOL0     C 7702   5.955   1.418  10.586  0.5157  0.8378  0.0725
  781MOL0     C 7703   5.964   1.390  10.730  0.9418  0.6364 -0.0843
  781MOL0     C 7704   5.912   1.510  10.788  0.5215 -0.3381  0.9735
  781MOL0     C 7705   5.858   1.613  10.833 -0.9621  0.3595  0.6344
  781MOL0     C 7706   6.106   1.348  10.057 -0.1599  0.1579 -1.0278
  781MOL0     C 7707   6.179   1.398   9.949 -0.5702 -0.0635  0.3250
  781MOL0     C 7708   6.152   1.331   9.818 -0.4175 -0.5902  0.1293
  781MOL0     H 7709   6.619   1.666   9.936 -0.2185 -2.8094 -1.2017
  781MOL0     H 7710   6.819   1.719   9.808 -0.4120 -0.8309  0.2656
  781MOL0     H 7711   6.872   2.037   9.542  0.3097 -0.8016  1.5784
  781MOL0     H 7712   6.779   1.958   9.412  2.3301  2.0900 -2.4441
  781MOL0     H 7713   7.002   1.981   9.325  2.1396  0.0482  0.7654
  781MOL0     H 7714   7.067   1.961   9.488 -0.6141  0.1216  1.0117
  781MOL0     H 7715   7.137   1.781   9.374 -0.2285  1.3573 -1.2792
  781MOL0     H 7716   7.011   1.740   9.489  0.6014  3.8173  1.6524
  781MOL0     H 7717   6.850   1.688   9.296 -1.2214  1.5872 -0.8635
  781MOL0     H 7718   6.946   1.791   9.192 -0.6365  0.0683 -0.5884
  781MOL0     H 7719   7.054   1.534   9.300 -3.7386  2.2820  3.1103
  781MOL0     H 7720   7.135   1.642   9.180  1.2681 -0.6566  1.5450
  781MOL0     H 7721   6.864   1.506   9.164 -0.3984 -0.2138 -1.0288
  781MOL0     H 7722   6.928   1.597   9.030 -0.3030 -1.8705 -0.3230
  781MOL0     H 7723   7.137   1.405   9.072  1.3749  0.0682 -5.2091
  781MOL0     H 7724   7.022   1.418   8.953 -2.0582  2.5332  1.8935
  781MOL0     H 7725   6.946   1.293   9.217  1.5248  5.8100  1.0500
  781MOL0     H 7726   6.859   1.277   9.063 -0.6297  1.2679  0.9105
  781MOL0     H 7727   6.960   1.037   9.236  2.0884 -1.8489  2.1757
  781MOL0     H 7728   7.077   0.737   9.041 -0.8146  0.8942 -2.1484
  781MOL0     H 7729   6.991   0.787   9.182  1.3369 -0.5216  2.2860
  781MOL0     H 7730   7.284   0.776   9.159  0.8148 -0.6926 -0.2765
  781MOL0     H 7731   7.199   0.868   9.292  1.5034 -1.3382  1.6410
  781MOL0     H 7732   7.087   0.685   9.385 -2.5338  1.1744 -2.5545
  781MOL0     H 7733   7.114   0.579   9.248 -2.7794  2.9301 -0.8472
  781MOL0     H 7734   7.341   0.685   9.432 -0.9989 -0.7926  2.2007
  781MOL0     H 7735   7.250   0.531   9.453 -0.0011 -2.7133 -2.1992
  781MOL0     H 7736   7.446   0.519   9.551 -1.5263 -2.0787 -0.6185
  781MOL0     H 7737   7.717   0.477   9.695  1.9921 -2.6606  0.5137
  781MOL0     H 7738   7.666   0.302   9.695  0.3317 -0.1149 -0.7833
  781MOL0     H 7739   7.544   0.429   9.717 -1.6081  0.0191 -1.5012
  781MOL0     H 7740   7.942   0.040   9.593 -1.2068 -0.8861 -1.0804
  781MOL0     H 7741   8.143  -0.105   9.634  0.8581  2.5269  1.4828
  781MOL0     H 7742   8.557  -0.164   9.452 -0.8641 -1.5393 -1.7550
  781MOL0     H 7743   8.492  -0.019   9.351 -0.5906  0.6653  0.4780
  781MOL0     H 7744   8.490   0.115   9.557  1.0827  0.7376  1.0015
  781MOL0     H 7745   8.553  -0.029   9.642  5.2248  0.2599  0.6714
  781MOL0     H 7746   8.735   0.004   9.428 -2.3767 -0.4224 -1.2027
  781MOL0     H 7747   8.759   0.052   9.592 -1.6624  1.8520  1.3918
  781MOL0     H 7748   8.624   0.272   9.520 -2.1792 -1.6691 -0.4445
  781MOL0     H 7749   8.620   0.220   9.360  2.0378 -1.4116 -0.3146
  781MOL0     H 7750   8.898   0.257   9.492  0.6654  0.7228 -1.2741
  781MOL0     H 7751   8.851   0.238   9.325  0.7424 -2.0476  1.0114
  781MOL0     H 7752   8.744   0.477   9.466  2.0795 -0.2721  2.9273
  781MOL0     H 7753   8.745   0.447   9.301 -0.7784 -3.3773 -0.3032
  781MOL0     H 7754   8.936   0.593   9.327  0.9442  1.0805  1.7320
  781MOL0     H 7755   9.019   0.444   9.346 -0.3463 -0.1687 -1.9913
  781MOL0     H 7756   9.097   0.592   9.517  0.7565 -2.6726 -2.0862
  781MOL0     H 7757   9.012   0.458   9.584  2.0464 -1.5383 -1.6048
  781MOL0     H 7758   8.309   0.057   9.276 -1.0114  1.1326 -0.4615
  781MOL0     H 7759   8.134   0.175   9.234  1.2329  0.8434  1.0499
  781MOL0     H 7760   7.754   0.316   9.232 -0.6092  0.5282 -1.3573
  781MOL0     H 7761   7.565   0.436   9.146  0.2188 -2.0434 -0.6081
  781MOL0     H 7762   6.583   1.934   9.525  0.2798  0.9048  1.2042
  781MOL0     H 7763   6.382   1.850   9.640 -1.7163 -1.9549  0.8720
  781MOL0     H 7764   6.255   1.700  10.082 -0.1430 -0.5703  2.3709
  781MOL0     H 7765   6.102   1.618  10.261 -1.1044 -2.5778  0.4951
  781MOL0     H 7766   6.146   1.261  10.332  0.6055 -0.7687 -0.9977
  781MOL0     H 7767   6.181   1.425  10.408 -1.3308  0.7801  2.5128
  781MOL0     H 7768   6.102   1.249  10.569  1.4179  0.0910 -1.6560
  781MOL0     H 7769   5.951   1.236  10.473  1.7926  0.8089 -3.1739
  781MOL0     H 7770   6.008   1.511  10.565  1.4311  0.5655  1.1031
  781MOL0     H 7771   5.852   1.418  10.549 -0.0365 -0.9408  1.4336
  781MOL0     H 7772   6.069   1.376  10.760  0.9684  0.8918 -0.0545
  781MOL0     H 7773   5.900   1.307  10.760  1.9872  0.4250  1.7198
  781MOL0     H 7774   5.815   1.697  10.883  1.1118  2.9630 -1.6660
  781MOL0     H 7775   6.052   1.254  10.059 -0.7653  0.4657 -1.9792
  781MOL0     H 7776   6.244   1.281   9.786 -1.0677 -2.2449  0.7476
  781MOL0     H 7777   6.073   1.255   9.819  1.3192 -2.5140 -0.8530
  781MOL0     H 7778   6.120   1.403   9.743 -1.0317  0.1396  1.0575
  782MOL0     O 7779   5.416   9.102  11.497  0.2750 -0.0229 -0.3564
  782MOL0     C 7780   5.314   9.157  11.474 -0.5894 -0.5307  0.7476
  782MOL0     O 7781   5.216   9.165  11.553 -0.0104  0.4580 -0.2237
  782MOL0     C 7782   5.237   9.136  11.692  0.0620  0.3979 -0.2962
  782MOL0     C 7783   5.251   9.247  11.789  0.2021  0.2278  0.2765
  782MOL0     C 7784   5.264   9.217  11.923  0.0416 -0.8687  0.1762
  782MOL0     C 7785   5.264   9.089  11.970  0.7803 -0.2495  0.5466
  782MOL0     O 7786   5.281   9.060  12.099 -0.3587  0.3039 -0.0754
  782MOL0     C 7787   5.209   8.949  12.157 -0.4549  0.1981  0.1025
  782MOL0     C 7788   5.194   8.980  12.303  0.2042  0.7872  0.6599
  782MOL0     C 7789   5.090   8.875  12.361 -0.4348 -0.6808  0.7665
  782MOL0     C 7790   5.070   8.916  12.510  0.8488 -0.2723 -0.1244
  782MOL0     C 7791   4.981   8.813  12.578 -0.9005 -0.3830  0.4862
  782MOL0     C 7792   4.967   8.849  12.729  0.7676  1.0579  0.2944
  782MOL0     C 7793   4.856   8.756  12.780 -0.1840 -0.9200 -0.3390
  782MOL0     C 7794   4.867   8.738  12.932  0.4748  1.1191  0.8691
  782MOL0     N 7795   4.757   8.651  12.967  0.4482 -0.5501  0.6411
  782MOL0     C 7796   4.627   8.692  12.998 -0.0243 -0.5050 -0.3771
  782MOL0     C 7797   4.559   8.584  13.037 -1.3636  0.3526 -0.1085
  782MOL0     C 7798   4.438   8.562  13.118  0.1786 -0.2225  0.3635
  782MOL0     C 7799   4.334   8.672  13.095 -0.8532  0.7760  0.3813
  782MOL0     C 7800   4.288   8.702  12.953  0.0542  0.5768 -0.9574
  782MOL0     C 7801   4.160   8.795  12.951  0.5071 -0.6172  0.1686
  782MOL0     O 7802   4.183   8.913  13.036  0.0751  0.2327  1.0194
  782MOL0     C 7803   4.251   9.021  12.979  0.3278  0.6367 -0.1427
  782MOL0     C 7804   4.277   9.128  13.071 -0.5092  0.0742  0.0485
  782MOL0     C 7805   4.348   9.248  13.030 -0.2919  0.0720 -0.3811
  782MOL0     C 7806   4.382   9.343  13.138  0.2824 -0.4939 -0.2859
  782MOL0     C 7807   4.384   9.268  12.896  0.2418  0.0943 -0.1230
  782MOL0     C 7808   4.438   9.389  12.830 -0.2748  0.2705  0.1385
  782MOL0     O 7809   4.443   9.390  12.689 -0.2780 -0.4374 -0.2421
  782MOL0     C 7810   4.491   9.497  12.617 -0.0950 -1.1705 -0.0512
  782MOL0     C 7811   4.420   9.616  12.637 -0.1246  0.7559 -0.2250
  782MOL0     C 7812   4.473   9.735  12.584 -0.4369 -0.1490 -0.4975
  782MOL0     C 7813   4.586   9.740  12.499  0.3623  0.2465 -0.4993
  782MOL0     O 7814   4.631   9.863  12.452 -0.2484  0.0726 -0.1126
  782MOL0     C 7815   4.742   9.857  12.358  0.0492  0.4722 -0.0684
  782MOL0     C 7816   4.783  10.000  12.315  0.5065 -0.2932  0.4942
  782MOL0     C 7817   4.689  10.054  12.200  0.3114  0.4642 -0.8753
  782MOL0     C 7818   4.690  10.209  12.198  0.0062  0.4074 -0.9290
  782MOL0     C 7819   4.595  10.255  12.094 -0.0852  0.0973  0.7951
  782MOL0     C 7820   4.578  10.406  12.101  0.6327  0.1183 -0.0141
  782MOL0     C 7821   4.517  10.458  11.966  0.1775 -0.2124 -0.5048
  782MOL0     C 7822   4.496  10.607  11.970  0.1362  0.4830 -0.3091
  782MOL0    Cl 7823   4.652  10.708  11.954  0.1574 -0.5450  0.4857
  782MOL0     C 7824   4.637   9.615  12.463 -0.0185  0.1711  0.3379
  782MOL0     C 7825   4.596   9.496  12.520 -0.1395  0.2605  0.6569
  782MOL0     O 7826   4.485   9.475  12.900  0.1356 -0.4315  0.1632
  782MOL0     C 7827   4.351   9.152  12.809  0.3203 -2.0633 -0.2941
  782MOL0     C 7828   4.288   9.034  12.848 -1.2703  1.0767  0.4581
  782MOL0     N 7829   4.642   8.481  12.992  0.1674  0.2909  0.0797
  782MOL0     N 7830   4.756   8.516  12.961  0.2048 -0.9218 -0.6109
  782MOL0     C 7831   5.257   8.983  11.880 -0.0171  0.3982 -0.4958
  782MOL0     C 7832   5.240   9.003  11.745 -0.9236 -0.2522  0.3948
  782MOL0     C 7833   5.298   9.216  11.340 -0.3244  0.0587 -0.0048
  782MOL0     C 7834   5.378   9.162  11.226 -0.4983  0.0390  0.4353
  782MOL0     C 7835   5.367   9.223  11.098  0.5453  0.1110 -0.4659
  782MOL0     C 7836   5.275   9.319  11.077 -0.1984 -0.5755 -0.7921
  782MOL0     O 7837   5.268   9.364  10.949  0.4699  0.0252 -0.2182
  782MOL0     C 7838   5.189   9.486  10.913 -0.5141  0.7520  0.2529
  782MOL0     C 7839   5.197   9.511  10.766 -0.0667  0.6358 -0.6843
  782MOL0     C 7840   5.337   9.547  10.719 -0.1679  0.2892 -0.1614
  782MOL0     C 7841   5.327   9.557  10.568 -0.2272 -0.3127 -0.3565
  782MOL0     C 7842   5.461   9.593  10.510  0.1398  0.1469 -0.2040
  782MOL0     C 7843   5.570   9.616  10.456  0.1501  0.5800 -0.7677
  782MOL0     C 7844   5.184   9.371  11.178 -0.5833 -0.1416  1.0624
  782MOL0     C 7845   5.204   9.327  11.311  0.3290  0.0280  0.1324
  782MOL0     C 7846   5.113   9.389  11.414  0.6613  0.0943 -0.2622
  782MOL0     H 7847   5.246   9.349  11.753 -2.6902 -0.1288 -0.5726
  782MOL0     H 7848   5.270   9.293  12.001 -1.4182 -2.2340  1.6887
  782MOL0     H 7849   5.259   8.852  12.153 -2.2803 -0.7481 -2.0637
  782MOL0     H 7850   5.108   8.955  12.115 -0.3682 -0.3852 -0.2025
  782MOL0     H 7851   5.291   8.972  12.352  0.4372  2.6235  0.5489
  782MOL0     H 7852   5.167   9.084  12.320  1.3413  0.9164  1.8543
  782MOL0     H 7853   5.004   8.875  12.292  1.1255 -0.2896 -1.2795
  782MOL0     H 7854   5.135   8.775  12.360 -0.9418 -0.9122 -0.4606
  782MOL0     H 7855   5.171   8.929  12.549  1.0026 -1.0725 -0.2274
  782MOL0     H 7856   5.012   9.007  12.528  1.7361  0.0645  1.1740
  782MOL0     H 7857   5.034   8.718  12.568  1.4309  0.8795  0.0702
  782MOL0     H 7858   4.881   8.794  12.538 -1.4917  1.2713  1.0894
  782MOL0     H 7859   5.052   8.809  12.786 -0.8551 -2.0309  0.8064
  782MOL0     H 7860   4.952   8.956  12.743 -0.2526  0.6550  3.1821
  782MOL0     H 7861   4.874   8.657  12.737  0.0014 -0.4159 -1.4517
  782MOL0     H 7862   4.755   8.792  12.758 -0.1132 -0.6436 -0.2055
  782MOL0     H 7863   4.963   8.690  12.953  0.2756  0.2700 -0.1139
  782MOL0     H 7864   4.864   8.829  12.993 -0.2733  0.8649  1.2285
  782MOL0     H 7865   4.602   8.793  13.029  1.6308  0.5171 -2.1734
  782MOL0     H 7866   4.460   8.565  13.225 -1.3740 -0.0203  0.7081
  782MOL0     H 7867   4.404   8.460  13.095  0.8887  0.0249 -2.0931
  782MOL0     H 7868   4.251   8.640  13.159 -0.3137 -0.5702  0.4244
  782MOL0     H 7869   4.369   8.764  13.143  1.2962  1.9040 -3.0025
  782MOL0     H 7870   4.377   8.746  12.907  0.6263  0.8210  0.3258
  782MOL0     H 7871   4.267   8.606  12.905 -1.0419  0.7250 -0.8205
  782MOL0     H 7872   4.132   8.826  12.850 -1.3984 -1.1936  0.4849
  782MOL0     H 7873   4.075   8.747  12.999 -0.0167  3.0376  3.3052
  782MOL0     H 7874   4.257   9.114  13.176  1.8296 -0.7550  0.4392
  782MOL0     H 7875   4.351   9.302  13.235  1.0645  0.8565  0.5768
  782MOL0     H 7876   4.323   9.435  13.125 -1.2312 -0.8189  3.0442
  782MOL0     H 7877   4.485   9.378  13.142 -0.3450  1.4301  1.0570
  782MOL0     H 7878   4.337   9.622  12.707 -0.8653 -1.3655 -0.8185
  782MOL0     H 7879   4.439   9.834  12.613 -0.8071 -0.7406  1.1502
  782MOL0     H 7880   4.823   9.819  12.421 -2.0163  1.3488  3.3804
  782MOL0     H 7881   4.725   9.795  12.270 -2.3681 -2.2163  2.0977
  782MOL0     H 7882   4.760  10.063  12.402 -4.9354 -0.3785 -0.5351
  782MOL0     H 7883   4.889  10.001  12.290  0.8702 -1.1118  1.8653
  782MOL0     H 7884   4.587  10.026  12.228  0.3922  1.4313  0.5212
  782MOL0     H 7885   4.715  10.013  12.102 -0.2018  1.0340 -1.2612
  782MOL0     H 7886   4.794  10.238  12.179  0.6852 -1.1125  0.2726
  782MOL0     H 7887   4.665  10.248  12.297  1.7231 -0.8019  0.0396
  782MOL0     H 7888   4.647  10.241  11.998  0.7611 -0.3903  1.3070
  782MOL0     H 7889   4.506  10.193  12.102  0.0891 -0.4661 -1.0711
  782MOL0     H 7890   4.674  10.447  12.131 -0.2187  2.1236  0.1242
  782MOL0     H 7891   4.510  10.417  12.186  1.3319 -0.1502  0.5924
  782MOL0     H 7892   4.417  10.416  11.951 -0.3626 -0.6603  3.3386
  782MOL0     H 7893   4.587  10.429  11.886  2.0057 -0.5808  1.1604
  782MOL0     H 7894   4.441  10.636  12.060  2.3525  0.7958  1.0266
  782MOL0     H 7895   4.431  10.629  11.884  0.5977  0.6539 -0.6211
  782MOL0     H 7896   4.733   9.597  12.414  0.6494  1.8133  0.9774
  782MOL0     H 7897   4.660   9.409  12.509  2.4755  1.9902  1.0744
  782MOL0     H 7898   4.391   9.156  12.708  2.2950  0.4267  0.5024
  782MOL0     H 7899   4.289   8.949  12.780 -2.4729 -1.6536  3.5984
  782MOL0     H 7900   5.283   8.885  11.920  1.1067  0.7441 -0.3432
  782MOL0     H 7901   5.237   8.927  11.668  0.0402 -2.3548  2.3131
  782MOL0     H 7902   5.459   9.089  11.229  1.8029  2.0104 -4.1178
  782MOL0     H 7903   5.423   9.205  11.006  0.2172 -0.0510 -0.6362
  782MOL0     H 7904   5.085   9.472  10.945 -0.8684 -0.2675 -1.2260
  782MOL0     H 7905   5.212   9.576  10.970  0.8148  0.2157  0.6052
  782MOL0     H 7906   5.131   9.592  10.733 -1.4197 -0.6338 -1.2002
  782MOL0     H 7907   5.161   9.421  10.715  1.5263 -0.7997  0.5985
  782MOL0     H 7908   5.377   9.635  10.771  0.8365  0.0797 -0.5658
  782MOL0     H 7909   5.396   9.456  10.730  0.1165  0.2801 -1.6165
  782MOL0     H 7910   5.259   9.641  10.548  0.0037 -0.0702 -0.1418
  782MOL0     H 7911   5.293   9.461  10.529  2.8633 -1.9871  0.7012
  782MOL0     H 7912   5.666   9.646  10.418 -0.7744  1.7777 -2.2371
  782MOL0     H 7913   5.107   9.446  11.163 -1.4241 -0.8604  1.6476
  782MOL0     H 7914   5.035   9.317  11.440  1.8194 -1.5229 -1.0582
  782MOL0     H 7915   5.170   9.426  11.499  2.6036 -3.1806  0.0166
  782MOL0     H 7916   5.060   9.473  11.368  2.8470  2.0348  0.5233
  783MOL0     O 7917   8.934   1.299   7.350 -0.0268  0.1725 -0.4332
  783MOL0     C 7918   8.945   1.375   7.256  0.0817  0.1313  0.3020
  783MOL0     O 7919   9.050   1.373   7.163 -0.0995  0.4166  0.8767
  783MOL0     C 7920   9.166   1.299   7.196 -0.0087 -0.6591 -0.3632
  783MOL0     C 7921   9.234   1.338   7.312 -0.1359 -0.8427 -0.8169
  783MOL0     C 7922   9.362   1.287   7.344 -0.5175  0.4337 -0.6466
  783MOL0     C 7923   9.432   1.214   7.246  0.0818  0.0917  0.1809
  783MOL0     O 7924   9.547   1.141   7.270  0.3443  0.4472  0.0020
  783MOL0     C 7925   9.584   1.112   7.400  0.2418 -0.2766 -0.3520
  783MOL0     C 7926   9.699   1.012   7.415 -0.6919  0.2985  0.1910
  783MOL0     C 7927   9.819   1.035   7.337  0.4105  0.1396 -0.0118
  783MOL0     C 7928   9.922   1.115   7.412  0.7239  0.6420 -0.3377
  783MOL0     C 7929  10.059   1.116   7.327  1.3670  0.5242 -0.7365
  783MOL0     C 7930  10.167   1.195   7.401  0.3596  0.0925 -0.1643
  783MOL0     C 7931  10.290   1.215   7.311  0.2769 -0.7041 -0.0233
  783MOL0     C 7932  10.259   1.345   7.233 -0.2128  0.1128  0.7277
  783MOL0     N 7933  10.365   1.369   7.128  1.0673  0.7042 -0.5649
  783MOL0     C 7934  10.393   1.298   7.024 -0.8468  0.5363  0.3155
  783MOL0     C 7935  10.505   1.343   6.966 -0.5371  0.4155  0.4209
  783MOL0     C 7936  10.574   1.292   6.830  0.1139 -0.8151 -0.0505
  783MOL0     C 7937  10.709   1.363   6.807  0.3839  0.1037 -0.0292
  783MOL0     C 7938  10.691   1.487   6.723 -0.3997  0.4069 -0.3852
  783MOL0     C 7939  10.829   1.552   6.700 -0.5449 -1.0571  0.6304
  783MOL0     O 7940  10.890   1.583   6.824 -0.5085 -0.6602  0.1011
  783MOL0     C 7941  11.004   1.664   6.816 -0.2262  0.7683  0.1367
  783MOL0     C 7942  11.013   1.766   6.908  0.0880 -0.2290  1.2524
  783MOL0     C 7943  11.099   1.873   6.897 -0.5460  0.4892 -0.1091
  783MOL0     C 7944  11.101   1.974   7.008  0.2409  0.2427  0.4404
  783MOL0     C 7945  11.188   1.872   6.787  0.5863 -0.0878 -0.5477
  783MOL0     C 7946  11.310   1.972   6.758  0.2272  1.1915 -0.2206
  783MOL0     O 7947  11.404   1.938   6.668 -0.1501 -0.3894 -0.1114
  783MOL0     C 7948  11.534   1.977   6.691 -0.0039 -1.3224  0.5840
  783MOL0     C 7949  11.588   2.072   6.599 -0.4012 -0.1952  0.8655
  783MOL0     C 7950  11.719   2.119   6.617 -0.5726  0.1614  0.1757
  783MOL0     C 7951  11.802   2.068   6.714 -0.1574 -1.1928 -0.0114
  783MOL0     O 7952  11.936   2.101   6.730 -0.9040  0.4288 -0.4137
  783MOL0     C 7953  12.013   2.177   6.640  0.1847 -0.2607  0.4781
  783MOL0     C 7954  11.997   2.310   6.706 -0.2031  1.2398  0.2430
  783MOL0     C 7955  12.066   2.416   6.630 -0.0791 -0.3745  0.9622
  783MOL0     C 7956  12.067   2.551   6.705  0.2281  0.7427 -0.6945
  783MOL0     C 7957  12.103   2.678   6.626 -0.1279 -0.5067 -0.9529
  783MOL0     C 7958  12.056   2.684   6.474 -0.1251  0.4936 -0.2484
  783MOL0     C 7959  12.109   2.811   6.405  0.0366 -0.3171 -0.6257
  783MOL0     C 7960  12.058   2.947   6.453 -0.0869 -0.1754  0.6407
  783MOL0    Cl 7961  12.149   3.082   6.381  0.0695 -0.4213 -0.1377
  783MOL0     C 7962  11.753   1.974   6.804  0.4539  0.5045 -0.2887
  783MOL0     C 7963  11.612   1.928   6.791  0.4556  0.1322 -0.7832
  783MOL0     O 7964  11.323   2.053   6.841 -0.2052 -0.5205 -0.2171
  783MOL0     C 7965  11.173   1.770   6.688 -0.5895 -0.9382 -0.5255
  783MOL0     C 7966  11.079   1.667   6.697  0.1982  0.4500  0.7147
  783MOL0     N 7967  10.538   1.450   7.040 -0.5168  1.0492  0.3452
  783MOL0     N 7968  10.465   1.466   7.145  0.2891 -0.1980  0.4102
  783MOL0     C 7969   9.367   1.179   7.133 -0.3575  0.1634  0.6760
  783MOL0     C 7970   9.229   1.213   7.107 -0.9990  0.3564 -0.1937
  783MOL0     C 7971   8.847   1.488   7.240  0.4214  0.4275 -0.1526
  783MOL0     C 7972   8.712   1.453   7.216  0.6717 -0.1308  0.6322
  783MOL0     C 7973   8.622   1.568   7.202 -0.3371  0.3324 -0.9818
  783MOL0     C 7974   8.662   1.703   7.205  0.4789  0.0775 -0.4599
  783MOL0     O 7975   8.582   1.808   7.170 -0.4768  0.0586 -0.2469
  783MOL0     C 7976   8.442   1.811   7.210 -0.3922 -0.1343 -0.3972
  783MOL0     C 7977   8.397   1.958   7.216  1.1441 -0.1934  0.6341
  783MOL0     C 7978   8.252   1.975   7.271  0.1322  0.3116  0.6376
  783MOL0     C 7979   8.224   2.123   7.291 -0.2381  0.0239 -0.7710
  783MOL0     C 7980   8.197   2.202   7.177 -0.3503  0.5634  0.3637
  783MOL0     C 7981   8.187   2.275   7.085  0.6253  0.1592 -0.3812
  783MOL0     C 7982   8.802   1.726   7.218  0.0010  0.8097 -0.1394
  783MOL0     C 7983   8.890   1.621   7.234  0.1098  0.4787 -0.5231
  783MOL0     C 7984   9.024   1.658   7.275 -0.7242  0.5427  0.4894
  783MOL0     H 7985   9.196   1.398   7.394  2.7967 -2.0796  1.6553
  783MOL0     H 7986   9.400   1.309   7.443 -2.4191  1.5743 -0.1161
  783MOL0     H 7987   9.508   1.048   7.446 -0.1410  0.5577  0.2206
  783MOL0     H 7988   9.610   1.203   7.455  2.0107 -0.7909 -0.2776
  783MOL0     H 7989   9.735   1.023   7.518  1.1492 -1.1966 -0.2169
  783MOL0     H 7990   9.660   0.910   7.411 -1.8554  0.3596  4.3825
  783MOL0     H 7991   9.861   0.935   7.322  0.4885 -0.0372  1.2853
  783MOL0     H 7992   9.797   1.075   7.237  1.3864 -2.9125 -1.5803
  783MOL0     H 7993   9.888   1.219   7.407 -0.8231  0.1921  0.3921
  783MOL0     H 7994   9.940   1.082   7.514  0.2774 -0.8443 -0.7287
  783MOL0     H 7995  10.033   1.161   7.231 -1.1368 -1.0818 -0.9030
  783MOL0     H 7996  10.102   1.021   7.294  1.0088  0.4148 -0.9015
  783MOL0     H 7997  10.123   1.286   7.442  0.3369 -0.0624  0.1589
  783MOL0     H 7998  10.195   1.138   7.490 -1.0880 -1.6925 -0.7864
  783MOL0     H 7999  10.297   1.132   7.240  1.5875  0.0306 -0.7910
  783MOL0     H 8000  10.382   1.212   7.369  1.0159  0.5456 -1.0890
  783MOL0     H 8001  10.166   1.328   7.178  2.3709 -0.8643 -3.7505
  783MOL0     H 8002  10.248   1.431   7.300 -1.8101 -0.6264  1.4846
  783MOL0     H 8003  10.322   1.223   6.990 -1.1539  0.6108  0.7764
  783MOL0     H 8004  10.505   1.302   6.745 -3.4190  2.0651  2.8097
  783MOL0     H 8005  10.593   1.187   6.852  1.5116 -0.7829 -1.0124
  783MOL0     H 8006  10.733   1.406   6.904 -2.3535  0.9579  0.3412
  783MOL0     H 8007  10.786   1.299   6.761  0.8491  2.1595 -2.3429
  783MOL0     H 8008  10.639   1.464   6.630  0.4189  0.8299 -0.9665
  783MOL0     H 8009  10.621   1.547   6.781  0.6232  0.2168  1.1094
  783MOL0     H 8010  10.897   1.484   6.647  0.8177  0.6826  0.0485
  783MOL0     H 8011  10.822   1.640   6.635  4.5151 -0.0532  1.0358
  783MOL0     H 8012  10.941   1.782   6.988 -1.4634  1.7572 -0.4072
  783MOL0     H 8013  11.091   2.071   6.958 -0.7615 -0.5057 -0.8844
  783MOL0     H 8014  11.197   1.986   7.058  0.7809 -0.3201 -0.4265
  783MOL0     H 8015  11.024   1.964   7.085 -1.4442  2.2643 -0.8776
  783MOL0     H 8016  11.532   2.120   6.518 -0.7751  0.3433  1.4350
  783MOL0     H 8017  11.763   2.188   6.546 -0.0412 -1.9081 -1.6151
  783MOL0     H 8018  12.119   2.148   6.632  0.3706  0.6739 -0.7598
  783MOL0     H 8019  11.987   2.170   6.534  2.6876 -0.4824 -0.1981
  783MOL0     H 8020  11.892   2.338   6.703 -1.1842 -1.9651  1.1252
  783MOL0     H 8021  12.041   2.312   6.807 -1.1744  2.7232  0.6607
  783MOL0     H 8022  12.008   2.426   6.537  1.1080 -0.2382  0.2218
  783MOL0     H 8023  12.170   2.393   6.608 -0.3067 -2.7739  2.0721
  783MOL0     H 8024  12.132   2.531   6.790 -1.2159  0.0778  0.2967
  783MOL0     H 8025  11.971   2.556   6.758  1.1281 -0.3794  1.1115
  783MOL0     H 8026  12.064   2.767   6.676  3.5834  0.9617 -0.3587
  783MOL0     H 8027  12.209   2.703   6.623 -0.0538 -0.8118 -0.9089
  783MOL0     H 8028  11.948   2.682   6.455 -0.3188 -3.8954  0.2350
  783MOL0     H 8029  12.095   2.593   6.428 -0.7621  1.0251 -1.9012
  783MOL0     H 8030  12.090   2.795   6.298  3.6034 -1.4684 -1.2239
  783MOL0     H 8031  12.217   2.806   6.416 -0.0326 -1.2506 -0.3117
  783MOL0     H 8032  12.068   2.961   6.561 -0.4758 -2.5453  1.0310
  783MOL0     H 8033  11.951   2.954   6.431 -0.1666  1.8581  1.4283
  783MOL0     H 8034  11.815   1.959   6.891  2.6692  1.0796 -1.6773
  783MOL0     H 8035  11.573   1.862   6.868  2.9512  1.1478  1.5124
  783MOL0     H 8036  11.228   1.779   6.595 -0.0206  1.2992 -0.0231
  783MOL0     H 8037  11.071   1.597   6.614  2.0401 -2.3679  2.7393
  783MOL0     H 8038   9.417   1.102   7.075 -0.1569  0.4760  0.4323
  783MOL0     H 8039   9.191   1.173   7.013 -1.3500  0.4509 -0.0923
  783MOL0     H 8040   8.670   1.353   7.212  0.9180 -0.2483  0.9388
  783MOL0     H 8041   8.515   1.558   7.186 -0.5497 -0.1291  0.5786
  783MOL0     H 8042   8.382   1.750   7.142  1.0964 -0.6999 -1.2577
  783MOL0     H 8043   8.425   1.769   7.309  1.0958 -3.0406 -1.2713
  783MOL0     H 8044   8.408   1.997   7.115  3.7555  0.2893  1.0318
  783MOL0     H 8045   8.473   2.014   7.271 -0.2193  0.4626  1.9466
  783MOL0     H 8046   8.178   1.941   7.198 -0.3619  2.5591  0.0298
  783MOL0     H 8047   8.239   1.911   7.358  2.8289 -1.4044 -0.0630
  783MOL0     H 8048   8.299   2.176   7.351  1.2223 -0.9915 -1.6267
  783MOL0     H 8049   8.128   2.131   7.341 -0.7332  0.5595 -1.7662
  783MOL0     H 8050   8.164   2.343   7.006  0.0693  1.6224  0.9773
  783MOL0     H 8051   8.836   1.829   7.219  0.4260  0.6702  0.9408
  783MOL0     H 8052   9.039   1.610   7.372 -0.0218  0.4753  0.3534
  783MOL0     H 8053   9.098   1.617   7.204 -2.7758 -0.7547 -1.0095
  783MOL0     H 8054   9.039   1.766   7.282  0.0886  0.4876 -0.1568
  784MOL0     O 8055   1.136   4.527   9.993  0.5709 -0.1513  0.5536
  784MOL0     C 8056   1.022   4.525  10.029  0.1543 -0.1561  0.7038
  784MOL0     O 8057   0.967   4.609  10.118  0.4732  1.0265 -0.2700
  784MOL0     C 8058   1.046   4.693  10.181  0.2806 -0.9415 -0.1600
  784MOL0     C 8059   1.080   4.676  10.318  0.0955 -0.3269 -0.1686
  784MOL0     C 8060   1.148   4.772  10.391 -1.0223 -0.7094 -0.4540
  784MOL0     C 8061   1.182   4.893  10.329 -0.1089  0.5739  0.0813
  784MOL0     O 8062   1.242   4.986  10.411  0.2976 -0.5651  0.7335
  784MOL0     C 8063   1.370   5.048  10.383  0.6510  0.3884  0.3286
  784MOL0     C 8064   1.385   5.182  10.445 -0.0653 -0.8023 -0.3370
  784MOL0     C 8065   1.323   5.290  10.361  0.1924 -0.2727 -0.6551
  784MOL0     C 8066   1.320   5.413  10.442 -0.0921 -0.4339  1.0804
  784MOL0     C 8067   1.227   5.526  10.388 -0.2077 -0.0497 -0.1107
  784MOL0     C 8068   1.248   5.573  10.246  0.1883  0.5972 -0.7125
  784MOL0     C 8069   1.394   5.625  10.211  0.4666 -0.7388  0.3106
  784MOL0     C 8070   1.397   5.666  10.061 -0.6488 -0.6397 -0.4932
  784MOL0     N 8071   1.420   5.543   9.987  0.8453  0.7223 -0.2787
  784MOL0     C 8072   1.547   5.523   9.942 -0.7721 -0.4215  0.1028
  784MOL0     C 8073   1.542   5.394   9.897 -1.0098  0.3098  0.1139
  784MOL0     C 8074   1.669   5.324   9.832  0.8272 -0.7489 -0.0140
  784MOL0     C 8075   1.668   5.375   9.682  0.0993  0.3872 -0.1396
  784MOL0     C 8076   1.562   5.320   9.589  0.7671  0.7267  0.3826
  784MOL0     C 8077   1.621   5.246   9.474  0.1026 -0.4231 -0.1357
  784MOL0     O 8078   1.674   5.348   9.392 -0.8918 -0.1657 -0.0071
  784MOL0     C 8079   1.730   5.308   9.271 -0.6482  0.0208  0.9259
  784MOL0     C 8080   1.870   5.317   9.254  0.2120  0.0291  0.0954
  784MOL0     C 8081   1.928   5.284   9.140  0.0217 -0.4187  0.8136
  784MOL0     C 8082   2.075   5.296   9.133 -0.7089  0.4846  0.8348
  784MOL0     C 8083   1.843   5.243   9.030  0.0828  0.1374  0.1238
  784MOL0     C 8084   1.895   5.185   8.907  0.2282  0.9467  0.8444
  784MOL0     O 8085   2.022   5.223   8.868 -0.2842 -0.0051  0.6747
  784MOL0     C 8086   2.097   5.135   8.792  0.7006  0.2054 -0.2722
  784MOL0     C 8087   2.080   4.997   8.781 -0.6648  0.8548  0.4803
  784MOL0     C 8088   2.151   4.920   8.677  0.2255 -0.2080  0.6014
  784MOL0     C 8089   2.251   4.982   8.600 -0.5820  0.3809 -0.5734
  784MOL0     O 8090   2.328   4.905   8.516 -0.6656  0.5217 -0.8045
  784MOL0     C 8091   2.450   4.942   8.455 -0.7116  0.1326  0.0053
  784MOL0     C 8092   2.527   4.825   8.402  0.1785  0.1650 -0.1065
  784MOL0     C 8093   2.551   4.714   8.517 -0.4016  0.4271  0.6536
  784MOL0     C 8094   2.653   4.615   8.469 -0.1070 -1.2619  0.0739
  784MOL0     C 8095   2.643   4.474   8.538  0.8789 -0.3737  0.1181
  784MOL0     C 8096   2.760   4.388   8.499  0.1556 -0.7275 -0.5390
  784MOL0     C 8097   2.883   4.428   8.568 -0.7348  1.0926 -0.1583
  784MOL0     C 8098   2.991   4.324   8.578 -0.3213  0.4365  0.3501
  784MOL0    Cl 8099   3.132   4.393   8.663  0.7333  0.0366 -0.1893
  784MOL0     C 8100   2.271   5.117   8.626 -0.7465  0.5412 -0.3612
  784MOL0     C 8101   2.198   5.190   8.717  0.1145 -0.9046  0.1738
  784MOL0     O 8102   1.825   5.105   8.838  0.4563 -0.1138 -0.2758
  784MOL0     C 8103   1.705   5.239   9.038  0.9118 -0.3563  0.0293
  784MOL0     C 8104   1.645   5.277   9.161 -0.8819  0.6556 -1.1309
  784MOL0     N 8105   1.418   5.353   9.894 -0.4298 -0.4397 -0.2646
  784MOL0     N 8106   1.338   5.439   9.952  0.1587  0.4379  0.3402
  784MOL0     C 8107   1.160   4.912  10.192  0.4986 -0.2947 -0.8085
  784MOL0     C 8108   1.089   4.812  10.121  0.1030 -0.6111  1.1660
  784MOL0     C 8109   0.933   4.430   9.966 -0.0191  0.0355  0.4232
  784MOL0     C 8110   0.835   4.455   9.869  0.4546  0.0807 -0.3082
  784MOL0     C 8111   0.762   4.356   9.808 -0.6381 -0.6069  1.3309
  784MOL0     C 8112   0.771   4.227   9.849  0.5785  0.5895  0.0985
  784MOL0     O 8113   0.666   4.149   9.805  0.3920 -0.1322 -0.2811
  784MOL0     C 8114   0.661   4.007   9.832 -0.4299 -0.0498  0.6782
  784MOL0     C 8115   0.510   3.968   9.795  0.0679  0.3087 -0.6040
  784MOL0     C 8116   0.432   4.015   9.915  0.7319  0.0408 -0.1902
  784MOL0     C 8117   0.290   3.966   9.890  0.5447 -0.7891  0.3814
  784MOL0     C 8118   0.190   4.003   9.990  0.5406 -0.2154 -0.4372
  784MOL0     C 8119   0.093   4.010  10.071  0.2674 -0.1093  0.5866
  784MOL0     C 8120   0.856   4.200   9.949 -0.7367  0.6546 -0.0710
  784MOL0     C 8121   0.938   4.293  10.008  0.8526  0.4597 -1.3399
  784MOL0     C 8122   1.025   4.244  10.118  0.6795  0.2090  0.1143
  784MOL0     H 8123   1.064   4.579  10.363 -0.0394 -0.7206 -1.0518
  784MOL0     H 8124   1.157   4.769  10.499 -2.7111 -1.5377 -0.3107
  784MOL0     H 8125   1.396   5.055  10.277  0.5870 -1.1328  0.1982
  784MOL0     H 8126   1.445   4.975  10.411  1.7390  0.6833 -1.6411
  784MOL0     H 8127   1.332   5.177  10.541 -2.3460 -2.7516 -1.5913
  784MOL0     H 8128   1.491   5.201  10.464 -0.4197  1.9860 -0.6921
  784MOL0     H 8129   1.378   5.311  10.269 -1.9650  2.8394 -1.3877
  784MOL0     H 8130   1.227   5.254  10.322  0.6629 -0.7429 -1.4281
  784MOL0     H 8131   1.280   5.396  10.543  0.7696  1.3574  1.7799
  784MOL0     H 8132   1.419   5.458  10.449 -1.1234  2.5309 -1.1189
  784MOL0     H 8133   1.232   5.613  10.454  0.0434 -0.6287  0.6504
  784MOL0     H 8134   1.126   5.494  10.411 -0.4765  0.0350 -1.1162
  784MOL0     H 8135   1.216   5.486  10.189 -1.3727  0.9704 -0.4652
  784MOL0     H 8136   1.177   5.654  10.225  2.1204  1.7447 -3.4602
  784MOL0     H 8137   1.468   5.546  10.228 -0.2546 -1.3159  0.7936
  784MOL0     H 8138   1.422   5.702  10.283 -1.5021 -2.2191  2.8517
  784MOL0     H 8139   1.308   5.724  10.034  0.6739  2.1608  0.7512
  784MOL0     H 8140   1.473   5.741  10.040 -0.8502  0.2701  1.7517
  784MOL0     H 8141   1.636   5.585   9.958  0.2596 -1.4989 -1.1853
  784MOL0     H 8142   1.657   5.216   9.845 -2.2702 -0.8292 -2.2070
  784MOL0     H 8143   1.756   5.356   9.889 -0.4444 -0.1695  1.6870
  784MOL0     H 8144   1.644   5.482   9.686  3.4919  1.2950  4.2990
  784MOL0     H 8145   1.762   5.346   9.635  0.4149 -2.2302  1.8637
  784MOL0     H 8146   1.517   5.229   9.631 -0.8803  0.4414 -1.7695
  784MOL0     H 8147   1.477   5.385   9.566 -0.4340 -0.7518  0.4854
  784MOL0     H 8148   1.698   5.171   9.498  0.2397  0.1386  1.2985
  784MOL0     H 8149   1.538   5.201   9.419 -0.4158  2.2747 -1.7017
  784MOL0     H 8150   1.926   5.357   9.338 -0.6957  4.0721 -1.0122
  784MOL0     H 8151   2.117   5.203   9.093  1.3335  2.2095 -1.3590
  784MOL0     H 8152   2.118   5.300   9.233  1.0539  0.5467  0.1102
  784MOL0     H 8153   2.111   5.377   9.069  1.5003 -2.1763 -1.6134
  784MOL0     H 8154   2.014   4.940   8.845 -0.6736 -3.5460 -2.9535
  784MOL0     H 8155   2.139   4.813   8.668 -0.8585 -0.0113 -0.5234
  784MOL0     H 8156   2.418   4.997   8.366 -2.9729 -1.4910 -0.2569
  784MOL0     H 8157   2.514   5.002   8.521 -0.1428 -1.0634  0.5681
  784MOL0     H 8158   2.482   4.779   8.313 -0.2950 -1.0953  0.7455
  784MOL0     H 8159   2.619   4.867   8.361  0.4295  0.7722  1.0498
  784MOL0     H 8160   2.453   4.666   8.524 -1.7878  2.5911 -2.1432
  784MOL0     H 8161   2.563   4.754   8.618 -4.9924 -0.3279  1.7116
  784MOL0     H 8162   2.752   4.661   8.476 -1.6870  2.6345 -0.5278
  784MOL0     H 8163   2.638   4.604   8.362 -1.0398 -0.1647  0.0777
  784MOL0     H 8164   2.624   4.476   8.645  3.1006  2.0673  0.5745
  784MOL0     H 8165   2.549   4.433   8.500 -0.5264 -1.1595  4.0486
  784MOL0     H 8166   2.773   4.382   8.391 -4.6561  2.4697 -1.5988
  784MOL0     H 8167   2.738   4.289   8.540 -0.2562 -0.5158 -0.2381
  784MOL0     H 8168   2.875   4.463   8.671  0.0455  1.5813 -0.2543
  784MOL0     H 8169   2.931   4.504   8.505  0.4565 -0.4861 -1.2418
  784MOL0     H 8170   3.021   4.297   8.476 -0.0008  2.9684 -0.2866
  784MOL0     H 8171   2.951   4.235   8.629  1.6201  1.0466  3.1578
  784MOL0     H 8172   2.344   5.174   8.569  0.2343  0.8826  1.1681
  784MOL0     H 8173   2.221   5.295   8.718 -1.5918 -0.4971  0.5228
  784MOL0     H 8174   1.635   5.207   8.962  0.9076 -0.2625 -0.0058
  784MOL0     H 8175   1.540   5.267   9.186  0.0499 -2.9575  2.2457
  784MOL0     H 8176   1.181   5.013  10.157  0.9466 -0.1924 -0.2576
  784MOL0     H 8177   1.074   4.816  10.013  2.0179 -1.0406  0.8481
  784MOL0     H 8178   0.828   4.559   9.839  0.4646  0.6590  1.5919
  784MOL0     H 8179   0.701   4.375   9.720  2.7874 -1.0197 -1.3271
  784MOL0     H 8180   0.733   3.957   9.767  1.2057  0.4200  2.0710
  784MOL0     H 8181   0.682   3.978   9.935  2.5515 -1.4564 -0.2379
  784MOL0     H 8182   0.493   3.860   9.783  1.2000  0.0866 -0.2834
  784MOL0     H 8183   0.477   4.022   9.706  2.4062  1.3861 -0.8684
  784MOL0     H 8184   0.466   3.969  10.008  3.0440  0.6863 -0.6486
  784MOL0     H 8185   0.431   4.123   9.938 -2.2145 -0.3532  2.2023
  784MOL0     H 8186   0.280   3.858   9.877 -0.2792 -0.5523 -1.2327
  784MOL0     H 8187   0.260   4.009   9.794 -0.6815 -1.0906  0.6122
  784MOL0     H 8188   0.013   4.015  10.142  0.4251  0.6678  0.7158
  784MOL0     H 8189   0.868   4.096   9.975  0.4980  0.2510 -2.0043
  784MOL0     H 8190   1.113   4.194  10.079  0.2499 -0.3773 -0.1229
  784MOL0     H 8191   1.053   4.320  10.192 -0.5959  0.4165  0.4138
  784MOL0     H 8192   0.963   4.167  10.165 -1.9691  0.8631 -2.0307
  785MOL0     O 8193   3.592   8.877   6.405 -0.9065 -0.0834  0.3546
  785MOL0     C 8194   3.533   8.837   6.302  0.5415 -0.1603 -0.2550
  785MOL0     O 8195   3.508   8.706   6.275  0.4195 -0.1391  0.5117
  785MOL0     C 8196   3.603   8.628   6.333 -0.4128 -0.8569  0.0030
  785MOL0     C 8197   3.596   8.576   6.459  0.7148 -1.3111 -0.9812
  785MOL0     C 8198   3.707   8.507   6.522  0.0524 -0.8070 -0.0420
  785MOL0     C 8199   3.817   8.474   6.444 -0.2417 -0.2165 -0.0453
  785MOL0     O 8200   3.924   8.417   6.501 -0.0867  0.8449  0.1631
  785MOL0     C 8201   3.934   8.281   6.448 -0.0386 -1.2330  0.7990
  785MOL0     C 8202   3.990   8.188   6.557  0.0414 -0.7546  0.9471
  785MOL0     C 8203   4.098   8.082   6.501 -0.6683 -1.0899 -0.7570
  785MOL0     C 8204   4.239   8.161   6.497  0.1600  0.7598 -0.4581
  785MOL0     C 8205   4.361   8.067   6.447  0.8182 -1.1007  1.0406
  785MOL0     C 8206   4.372   7.940   6.528 -0.8880  0.2102  0.2465
  785MOL0     C 8207   4.518   7.902   6.533  0.4735 -0.1050 -0.0092
  785MOL0     C 8208   4.549   7.777   6.621 -0.9979 -0.0432 -0.2111
  785MOL0     N 8209   4.492   7.808   6.756 -0.1592 -0.2273 -0.0612
  785MOL0     C 8210   4.526   7.912   6.840  0.7362 -0.3420  0.0740
  785MOL0     C 8211   4.431   7.920   6.931  0.0720  0.2421 -0.8114
  785MOL0     C 8212   4.408   8.021   7.043 -0.0438  0.3212  0.6860
  785MOL0     C 8213   4.314   8.140   7.010 -0.1819  0.6120  0.5342
  785MOL0     C 8214   4.175   8.089   6.972  0.0346  0.3197  0.6628
  785MOL0     C 8215   4.078   8.205   6.947  0.2775 -0.3665 -0.6537
  785MOL0     O 8216   3.950   8.182   6.889 -0.1790 -0.7015  0.8068
  785MOL0     C 8217   3.848   8.281   6.889  0.1971  0.3228 -1.7996
  785MOL0     C 8218   3.877   8.418   6.884 -0.0001 -0.5180 -0.0798
  785MOL0     C 8219   3.784   8.521   6.878  0.2662 -0.3887  0.8488
  785MOL0     C 8220   3.827   8.657   6.843 -0.4298 -0.1397  0.1078
  785MOL0     C 8221   3.644   8.484   6.888  0.4042 -0.8032  1.1824
  785MOL0     C 8222   3.538   8.587   6.866 -0.2104  0.0976 -0.3513
  785MOL0     O 8223   3.551   8.705   6.927 -0.2999 -0.3337 -0.3953
  785MOL0     C 8224   3.455   8.802   6.909 -0.4508 -0.5163 -0.5096
  785MOL0     C 8225   3.462   8.889   6.796 -0.6275 -0.8868  0.0630
  785MOL0     C 8226   3.363   8.984   6.772  0.0563 -0.6621  0.5175
  785MOL0     C 8227   3.250   8.993   6.845  0.5799  0.0756  0.7811
  785MOL0     O 8228   3.147   9.085   6.823  0.2586  0.2859 -0.0259
  785MOL0     C 8229   3.181   9.220   6.865  1.0290 -0.8601 -1.3156
  785MOL0     C 8230   3.051   9.304   6.832 -0.6558  0.0769  0.5111
  785MOL0     C 8231   3.073   9.460   6.855  0.7345 -0.9851  0.1765
  785MOL0     C 8232   3.097   9.538   6.725 -0.0732 -0.5025 -0.1982
  785MOL0     C 8233   3.109   9.697   6.747  0.0816  0.1877 -0.8244
  785MOL0     C 8234   2.979   9.756   6.810  0.3874  0.0285  0.9905
  785MOL0     C 8235   2.983   9.907   6.778  0.3477 -0.2045 -0.7472
  785MOL0     C 8236   3.099   9.988   6.829  0.4799  0.3456  0.1632
  785MOL0    Cl 8237   3.134   9.983   7.006  0.1908 -0.1919  0.2219
  785MOL0     C 8238   3.234   8.902   6.957  0.1181 -0.6969  0.5311
  785MOL0     C 8239   3.339   8.811   6.990  0.4694  0.7611  0.9835
  785MOL0     O 8240   3.450   8.564   6.786  0.3053  0.2573  0.1432
  785MOL0     C 8241   3.611   8.347   6.881 -0.2539  0.0490  1.0094
  785MOL0     C 8242   3.712   8.249   6.879 -0.5440  0.0906  0.5278
  785MOL0     N 8243   4.346   7.814   6.907 -0.1923 -0.0016  0.0661
  785MOL0     N 8244   4.386   7.745   6.805  0.2611  0.3599  0.2973
  785MOL0     C 8245   3.823   8.520   6.313 -0.0694 -1.1400  0.8915
  785MOL0     C 8246   3.722   8.598   6.261 -0.6218 -0.9401 -0.3888
  785MOL0     C 8247   3.476   8.953   6.219  0.1075  0.8574 -0.2877
  785MOL0     C 8248   3.363   8.932   6.141 -0.3171 -0.2645  0.5607
  785MOL0     C 8249   3.314   9.031   6.063 -0.5650  0.4316  0.1384
  785MOL0     C 8250   3.362   9.160   6.067  0.1803 -0.2273  1.5724
  785MOL0     O 8251   3.281   9.251   6.005  0.3572 -0.3621 -0.1667
  785MOL0     C 8252   3.325   9.387   5.984  0.8211 -0.4687 -0.1718
  785MOL0     C 8253   3.293   9.477   6.115 -0.2199 -0.1628 -0.6426
  785MOL0     C 8254   3.351   9.613   6.080  0.4905  0.4847 -0.0035
  785MOL0     C 8255   3.507   9.618   6.080 -0.6627 -0.3321  0.4379
  785MOL0     C 8256   3.538   9.755   6.113  0.6036  0.2027  0.3393
  785MOL0     C 8257   3.548   9.874   6.144  0.6442  1.0092 -0.7818
  785MOL0     C 8258   3.473   9.186   6.132  0.3252 -0.6462 -0.5091
  785MOL0     C 8259   3.532   9.086   6.208  0.3080  0.5109 -0.2703
  785MOL0     C 8260   3.667   9.108   6.279  0.1534  1.3577  0.3489
  785MOL0     H 8261   3.502   8.571   6.512  0.5532 -0.1994 -1.1446
  785MOL0     H 8262   3.698   8.456   6.617  3.2284  0.1941  0.9333
  785MOL0     H 8263   3.990   8.283   6.354  2.1071  1.2655  2.0119
  785MOL0     H 8264   3.835   8.241   6.427  0.2799 -1.8446  0.4436
  785MOL0     H 8265   4.048   8.244   6.631  1.6155  0.8222 -1.3297
  785MOL0     H 8266   3.903   8.136   6.597 -2.5026  0.4706 -2.4805
  785MOL0     H 8267   4.109   7.997   6.570  3.1757  0.3553  0.7320
  785MOL0     H 8268   4.051   8.064   6.404 -1.3057 -1.3514 -0.4040
  785MOL0     H 8269   4.238   8.249   6.432 -1.6597  1.1634  0.0534
  785MOL0     H 8270   4.263   8.199   6.597  2.7352  1.6740 -1.3308
  785MOL0     H 8271   4.447   8.134   6.442 -0.0003 -0.0813 -0.0063
  785MOL0     H 8272   4.343   8.040   6.343 -0.4887  2.5471  0.1580
  785MOL0     H 8273   4.346   7.958   6.633  1.5681 -0.9417  1.1319
  785MOL0     H 8274   4.307   7.856   6.505 -0.8692 -0.9231  3.7229
  785MOL0     H 8275   4.575   7.985   6.575  3.6347 -0.4208 -3.2328
  785MOL0     H 8276   4.545   7.873   6.431 -0.0670  2.2847 -0.8963
  785MOL0     H 8277   4.515   7.682   6.578 -0.9855  0.0474 -0.4214
  785MOL0     H 8278   4.657   7.758   6.618 -0.8627  0.6186 -4.2771
  785MOL0     H 8279   4.609   7.981   6.842  0.7935 -0.4205  0.4992
  785MOL0     H 8280   4.500   8.071   7.073 -1.2797  3.9851 -1.0828
  785MOL0     H 8281   4.379   7.968   7.134  0.3025  2.1677  1.9196
  785MOL0     H 8282   4.308   8.205   7.097 -0.8401 -0.1640  1.0790
  785MOL0     H 8283   4.367   8.190   6.928  0.3031 -3.4884 -1.9568
  785MOL0     H 8284   4.179   8.034   6.878 -0.4890 -0.5774  1.1468
  785MOL0     H 8285   4.134   8.018   7.045 -2.0635  0.5625 -0.1833
  785MOL0     H 8286   4.060   8.240   7.049  0.3587  2.4596 -1.5376
  785MOL0     H 8287   4.132   8.286   6.898  1.9682 -1.6624 -1.0540
  785MOL0     H 8288   3.979   8.452   6.876 -0.6402  1.4391 -0.5019
  785MOL0     H 8289   3.769   8.696   6.759  0.1257 -2.1024 -1.2470
  785MOL0     H 8290   3.931   8.669   6.811  0.4066  0.0906  2.6336
  785MOL0     H 8291   3.807   8.731   6.922 -2.0324  0.2545 -0.6219
  785MOL0     H 8292   3.536   8.894   6.717 -2.6164 -0.6616 -1.8827
  785MOL0     H 8293   3.377   9.054   6.690 -1.4825 -0.7423  0.1671
  785MOL0     H 8294   3.205   9.215   6.971  0.8375  3.0369 -0.9562
  785MOL0     H 8295   3.267   9.258   6.808  1.3404  0.8406  0.1988
  785MOL0     H 8296   3.009   9.294   6.731  0.9016  0.3691 -0.1881
  785MOL0     H 8297   2.981   9.271   6.909 -0.8964 -0.2653  0.1479
  785MOL0     H 8298   3.157   9.478   6.921  0.2445 -1.8896  1.0777
  785MOL0     H 8299   2.981   9.504   6.894 -0.4164 -1.0814 -2.2218
  785MOL0     H 8300   3.006   9.508   6.672 -1.7492  0.1331  2.1828
  785MOL0     H 8301   3.187   9.510   6.668  1.6884 -0.2367  2.3055
  785MOL0     H 8302   3.198   9.732   6.800  0.3094  0.7937 -1.5882
  785MOL0     H 8303   3.117   9.731   6.643  2.3976 -1.4880 -1.2914
  785MOL0     H 8304   2.976   9.759   6.920  0.4904  3.5196  0.9938
  785MOL0     H 8305   2.887   9.710   6.771 -1.2778  0.9977  3.4808
  785MOL0     H 8306   2.896   9.949   6.830  0.8367 -2.2179  1.9181
  785MOL0     H 8307   2.979   9.928   6.670 -0.0099  0.1846 -0.6639
  785MOL0     H 8308   3.084  10.089   6.789  0.1297  0.8879  1.6090
  785MOL0     H 8309   3.190   9.944   6.786  1.5090  0.6987  1.8860
  785MOL0     H 8310   3.142   8.907   7.014 -2.2414  0.4126 -3.0099
  785MOL0     H 8311   3.310   8.752   7.076 -0.8079  2.4948  1.8164
  785MOL0     H 8312   3.507   8.326   6.858  0.2104 -0.7728 -0.5401
  785MOL0     H 8313   3.690   8.144   6.864 -2.7109  0.4536  0.8214
  785MOL0     H 8314   3.912   8.498   6.255 -0.5108 -1.3948  0.3056
  785MOL0     H 8315   3.734   8.637   6.160  3.6982  0.5475  0.5087
  785MOL0     H 8316   3.314   8.835   6.140 -0.7202 -0.0846 -1.4811
  785MOL0     H 8317   3.229   9.009   5.999  0.1975 -2.5291  0.0320
  785MOL0     H 8318   3.430   9.397   5.956  0.5542 -0.5019 -1.2323
  785MOL0     H 8319   3.264   9.441   5.911  1.0847 -0.3829 -0.3290
  785MOL0     H 8320   3.343   9.446   6.207 -0.2365  0.8896 -0.2735
  785MOL0     H 8321   3.185   9.485   6.126 -0.2058 -0.1622 -0.5070
  785MOL0     H 8322   3.315   9.635   5.979  1.3088 -0.5644 -0.5309
  785MOL0     H 8323   3.308   9.690   6.146 -0.4104  0.4235 -0.5104
  785MOL0     H 8324   3.535   9.588   5.978 -0.9997 -0.5149  0.3962
  785MOL0     H 8325   3.544   9.546   6.153 -1.2882  1.6290  2.8167
  785MOL0     H 8326   3.546   9.970   6.191 -3.0365 -0.4128  2.5007
  785MOL0     H 8327   3.523   9.282   6.141  1.1676 -0.9561 -1.6656
  785MOL0     H 8328   3.731   9.190   6.244 -0.3253  1.9223  0.7736
  785MOL0     H 8329   3.645   9.122   6.385  1.0665  1.0515  0.5789
  785MOL0     H 8330   3.731   9.020   6.278  0.0946  1.2133  2.9819
  786MOL0     O 8331   9.481  10.544   2.747 -0.5280 -0.3693  0.1087
  786MOL0     C 8332   9.422  10.512   2.644  0.2178  0.1093 -0.7359
  786MOL0     O 8333   9.280  10.490   2.637  0.1136 -0.2459  0.5210
  786MOL0     C 8334   9.215  10.517   2.755  0.5396  0.5023 -0.0637
  786MOL0     C 8335   9.178  10.647   2.791 -0.7856 -0.2578  0.4721
  786MOL0     C 8336   9.104  10.676   2.910  0.8839  0.7254 -0.8731
  786MOL0     C 8337   9.063  10.568   2.990  0.4543 -0.5160  0.6242
  786MOL0     O 8338   8.981  10.571   3.101  0.1987  0.8281 -0.6613
  786MOL0     C 8339   8.922  10.696   3.133  0.8100 -0.3068  0.0237
  786MOL0     C 8340   8.858  10.680   3.274  0.8914  0.1659 -0.0777
  786MOL0     C 8341   8.794  10.809   3.335  0.4162 -0.4644  0.5569
  786MOL0     C 8342   8.713  10.776   3.464  0.0011  0.6323  0.6025
  786MOL0     C 8343   8.702  10.898   3.559  0.1695 -0.1287 -0.1992
  786MOL0     C 8344   8.671  10.855   3.701  0.6418 -0.0388  0.2976
  786MOL0     C 8345   8.565  10.946   3.761  0.3314  1.1479 -0.1684
  786MOL0     C 8346   8.557  10.948   3.918 -0.9559  0.2481 -0.0066
  786MOL0     N 8347   8.517  10.814   3.961 -0.2159 -0.3899 -0.3220
  786MOL0     C 8348   8.611  10.708   3.973 -0.0855  0.2448  0.2311
  786MOL0     C 8349   8.531  10.602   3.996  0.3683  0.6565  0.6065
  786MOL0     C 8350   8.584  10.468   4.006 -0.7334 -0.3036  1.1248
  786MOL0     C 8351   8.640  10.429   3.871 -0.3501  0.5711 -1.3412
  786MOL0     C 8352   8.715  10.296   3.872 -0.4251  1.0200  1.0917
  786MOL0     C 8353   8.859  10.298   3.930  0.1807 -0.2443  0.5899
  786MOL0     O 8354   8.902  10.163   3.947 -0.2332 -0.5346  0.0419
  786MOL0     C 8355   9.034  10.139   3.988  0.3659 -0.0277 -0.0971
  786MOL0     C 8356   9.125  10.238   4.018 -0.4063 -0.0739 -1.1399
  786MOL0     C 8357   9.262  10.207   4.046  0.2909  0.1614  0.5251
  786MOL0     C 8358   9.343  10.327   4.065 -0.6165  0.2730 -0.3789
  786MOL0     C 8359   9.297  10.064   4.050 -0.3180 -0.5504 -0.4229
  786MOL0     C 8360   9.432  10.021   4.088  1.1292 -0.5980 -0.1719
  786MOL0     O 8361   9.440   9.885   4.098 -0.0095 -0.0301  0.4547
  786MOL0     C 8362   9.555   9.813   4.111 -0.7906  0.0938  0.5381
  786MOL0     C 8363   9.674   9.856   4.169  0.0227 -0.0795  1.2231
  786MOL0     C 8364   9.776   9.773   4.187  0.0304  0.5447 -0.1522
  786MOL0     C 8365   9.769   9.640   4.147 -0.1595  0.5046 -0.3757
  786MOL0     O 8366   9.873   9.548   4.171 -0.4686 -0.9924  0.5978
  786MOL0     C 8367   9.956   9.562   4.287  0.4136 -0.0295 -0.4010
  786MOL0     C 8368  10.089   9.485   4.263 -0.5033  0.5697 -0.4502
  786MOL0     C 8369  10.064   9.334   4.218  0.0813 -0.6124  0.1141
  786MOL0     C 8370   9.974   9.254   4.312  0.0174  0.9571  0.6995
  786MOL0     C 8371   9.971   9.106   4.259 -0.2221 -1.4809  0.3608
  786MOL0     C 8372   9.852   9.070   4.163  0.6934 -0.3653 -0.1168
  786MOL0     C 8373   9.833   8.926   4.129  0.1536 -0.1851 -0.2166
  786MOL0     C 8374   9.958   8.860   4.089  0.1993  0.1975  0.5859
  786MOL0    Cl 8375  10.012   8.773   4.223 -0.1414  0.2953 -0.1484
  786MOL0     C 8376   9.658   9.593   4.075 -0.0178  0.2367  0.0435
  786MOL0     C 8377   9.548   9.679   4.059  0.4755 -0.9875  0.4410
  786MOL0     O 8378   9.523  10.099   4.106 -0.6939 -0.2139  0.4579
  786MOL0     C 8379   9.203   9.973   4.017 -0.2895  0.2752 -0.0637
  786MOL0     C 8380   9.072  10.010   3.989 -1.0121  0.3113 -0.7748
  786MOL0     N 8381   8.396  10.636   3.973 -0.5058  0.0854 -0.2725
  786MOL0     N 8382   8.391  10.763   3.957 -0.3679 -0.0443  0.4910
  786MOL0     C 8383   9.110  10.439   2.965  0.0089  0.3720 -0.0358
  786MOL0     C 8384   9.189  10.416   2.845  0.6369 -0.6477 -0.3866
  786MOL0     C 8385   9.494  10.519   2.525 -0.6020  0.5327 -0.3634
  786MOL0     C 8386   9.632  10.471   2.528 -0.9690 -0.6506  0.0839
  786MOL0     C 8387   9.707  10.457   2.414 -0.4912  0.7490 -0.2491
  786MOL0     C 8388   9.656  10.502   2.290 -0.0770 -0.1727  0.0942
  786MOL0     O 8389   9.736  10.488   2.174  0.6404 -0.0761 -0.6410
  786MOL0     C 8390   9.761  10.606   2.106 -0.0019 -0.8083  0.4213
  786MOL0     C 8391   9.892  10.681   2.154 -0.2118  1.6716 -0.1164
  786MOL0     C 8392   9.886  10.729   2.298 -0.1592 -0.2660 -0.5690
  786MOL0     C 8393   9.992  10.833   2.338  0.1632 -0.1481  0.2175
  786MOL0     C 8394   9.988  10.882   2.472  0.0665 -0.1951 -0.3626
  786MOL0     C 8395   9.987  10.936   2.582 -0.0807 -0.7847 -0.4184
  786MOL0     C 8396   9.521  10.549   2.297 -0.3387  0.3105  0.6397
  786MOL0     C 8397   9.443  10.560   2.406 -0.1718  0.1198  0.0200
  786MOL0     C 8398   9.314  10.633   2.388  0.2198  0.2282  0.5464
  786MOL0     H 8399   9.194  10.716   2.709 -3.4619  0.2074  0.2372
  786MOL0     H 8400   9.069  10.778   2.924  0.9930  0.5699  0.7198
  786MOL0     H 8401   8.843  10.712   3.060  0.2176  1.2694  0.9700
  786MOL0     H 8402   8.992  10.780   3.135 -0.3553  0.6712  1.4401
  786MOL0     H 8403   8.784  10.603   3.251  1.7543 -0.4285 -0.9328
  786MOL0     H 8404   8.939  10.645   3.338  2.7141  1.5417 -1.5068
  786MOL0     H 8405   8.881  10.871   3.360  0.6253 -1.4744  2.5232
  786MOL0     H 8406   8.723  10.859   3.269  2.1849  0.1787 -0.9341
  786MOL0     H 8407   8.614  10.733   3.447  1.3947 -2.0606 -1.5582
  786MOL0     H 8408   8.770  10.701   3.521  0.3570  1.0927  0.8553
  786MOL0     H 8409   8.625  10.960   3.511  0.5848  1.1375  0.7067
  786MOL0     H 8410   8.786  10.968   3.571  0.9932 -1.5519  3.9429
  786MOL0     H 8411   8.617  10.761   3.694 -3.3436  2.0975 -0.5024
  786MOL0     H 8412   8.760  10.865   3.765  0.1623  2.0666  0.7034
  786MOL0     H 8413   8.472  10.923   3.710  1.6296  0.9948 -2.6180
  786MOL0     H 8414   8.583  11.049   3.727 -0.2149  0.9753 -0.9717
  786MOL0     H 8415   8.660  10.962   3.952 -0.7506 -0.7953 -0.1721
  786MOL0     H 8416   8.487  11.019   3.963  0.2133 -0.0956  2.4908
  786MOL0     H 8417   8.713  10.728   4.004 -0.1347 -0.1230  0.6306
  786MOL0     H 8418   8.504  10.394   4.017  0.4510 -1.9924 -0.8736
  786MOL0     H 8419   8.661  10.466   4.084  0.6018 -0.0902 -0.1250
  786MOL0     H 8420   8.559  10.422   3.797 -0.4206  1.2177 -1.3262
  786MOL0     H 8421   8.713  10.501   3.836  0.1916 -0.1441 -1.7068
  786MOL0     H 8422   8.652  10.221   3.921 -0.9127  1.3020  0.9121
  786MOL0     H 8423   8.735  10.269   3.768 -0.1558  2.2698  0.7922
  786MOL0     H 8424   8.928  10.329   3.851  1.6338 -0.4524  1.7463
  786MOL0     H 8425   8.861  10.362   4.019  0.3718 -1.3016  1.3575
  786MOL0     H 8426   9.095  10.342   4.008  1.5141  0.8519  1.5766
  786MOL0     H 8427   9.404  10.308   4.154 -1.5271 -0.9521  0.0115
  786MOL0     H 8428   9.286  10.419   4.085 -0.2099  0.4009  0.2299
  786MOL0     H 8429   9.423  10.349   3.994 -1.1860  1.0365 -0.8067
  786MOL0     H 8430   9.696   9.953   4.215 -0.6062 -0.6078  2.7120
  786MOL0     H 8431   9.867   9.807   4.236 -0.3668  2.4859 -0.6946
  786MOL0     H 8432   9.977   9.667   4.309 -0.3804  0.4651 -1.8835
  786MOL0     H 8433   9.908   9.522   4.377 -0.2973  3.4690  0.9086
  786MOL0     H 8434  10.155   9.531   4.190 -2.0375 -0.6104 -2.6995
  786MOL0     H 8435  10.135   9.492   4.362  0.8447  1.7962 -1.1198
  786MOL0     H 8436  10.164   9.289   4.209  0.0588 -0.7232  0.4078
  786MOL0     H 8437  10.023   9.349   4.118  0.1071  0.8412  0.3075
  786MOL0     H 8438   9.867   9.277   4.319 -0.0721  0.6166  0.4816
  786MOL0     H 8439  10.000   9.263   4.417 -0.4189  0.5179  0.8516
  786MOL0     H 8440  10.065   9.086   4.207  0.0869 -2.0203  1.1054
  786MOL0     H 8441   9.967   9.039   4.346  1.4024 -1.4304  0.4996
  786MOL0     H 8442   9.866   9.132   4.074 -2.3683  3.7102  1.9352
  786MOL0     H 8443   9.764   9.109   4.216  0.3901 -0.0958 -0.8025
  786MOL0     H 8444   9.760   8.917   4.048 -2.4041 -0.8569  1.9998
  786MOL0     H 8445   9.774   8.883   4.210  0.2272  1.5861  0.8225
  786MOL0     H 8446  10.038   8.925   4.053 -0.4208  0.5847 -0.1289
  786MOL0     H 8447   9.931   8.794   4.006  3.1980 -0.1400 -0.2255
  786MOL0     H 8448   9.659   9.490   4.039  0.3939 -0.0388  0.8133
  786MOL0     H 8449   9.457   9.642   4.014  1.6795 -3.3418 -0.2545
  786MOL0     H 8450   9.216   9.866   4.006  0.4744  0.6590 -5.4181
  786MOL0     H 8451   9.011   9.930   3.948 -1.0814  0.2847 -0.6207
  786MOL0     H 8452   9.095  10.365   3.043  0.7399  0.4730  0.2088
  786MOL0     H 8453   9.234  10.320   2.825 -0.6717 -0.8746 -2.4369
  786MOL0     H 8454   9.675  10.435   2.621 -1.2899  1.2027  1.0083
  786MOL0     H 8455   9.807  10.418   2.422 -0.2473  0.8811 -2.1796
  786MOL0     H 8456   9.790  10.567   2.008  1.2376  1.6779 -0.2674
  786MOL0     H 8457   9.671  10.668   2.095  0.2292 -0.2849  1.3891
  786MOL0     H 8458   9.916  10.766   2.090  5.9033 -0.3241 -1.1395
  786MOL0     H 8459   9.976  10.611   2.145 -0.2776  1.5954 -0.1489
  786MOL0     H 8460   9.789  10.780   2.306  0.0122 -0.1600  1.2428
  786MOL0     H 8461   9.881  10.647   2.370 -0.8821 -0.4612 -0.8282
  786MOL0     H 8462   9.969  10.913   2.266 -3.0100 -2.4992 -1.6368
  786MOL0     H 8463  10.096  10.798   2.330 -0.4750 -2.5406  1.4932
  786MOL0     H 8464   9.978  10.991   2.674  0.9390  1.9306 -1.8075
  786MOL0     H 8465   9.482  10.564   2.197  0.3234 -1.4090  0.0792
  786MOL0     H 8466   9.290  10.694   2.476 -0.5334 -0.4300  0.8164
  786MOL0     H 8467   9.312  10.709   2.309  0.2425  1.3683  1.6080
  786MOL0     H 8468   9.224  10.572   2.371  0.9014  0.0145 -2.9892
  787MOL0     O 8469   9.616   2.267   3.103  0.1169  0.2470  0.6451
  787MOL0     C 8470   9.670   2.378   3.076  0.0194  0.5110 -1.0004
  787MOL0     O 8471   9.621   2.467   2.989  0.0871 -0.1770  0.0862
  787MOL0     C 8472   9.516   2.455   2.898 -0.0453 -0.3600  0.8491
  787MOL0     C 8473   9.416   2.363   2.907 -0.5939 -0.2775 -0.8710
  787MOL0     C 8474   9.304   2.370   2.831  0.0174 -0.2637  0.6901
  787MOL0     C 8475   9.285   2.472   2.741  0.4376 -0.0981 -0.2212
  787MOL0     O 8476   9.185   2.479   2.647 -0.4911  0.3882  0.2783
  787MOL0     C 8477   9.113   2.361   2.606 -0.5486 -0.9647  0.1178
  787MOL0     C 8478   9.015   2.400   2.503 -0.0856 -0.8397 -0.0104
  787MOL0     C 8479   8.922   2.508   2.551 -0.4079  0.4101  1.1079
  787MOL0     C 8480   8.801   2.541   2.468  0.0240 -0.4173 -0.3706
  787MOL0     C 8481   8.834   2.557   2.320  0.6845 -0.5589  0.3442
  787MOL0     C 8482   8.712   2.582   2.239  1.2469 -0.1575 -0.3899
  787MOL0     C 8483   8.644   2.447   2.212 -0.0072  0.2798 -0.5272
  787MOL0     C 8484   8.536   2.448   2.102  0.2214  0.7815 -0.9020
  787MOL0     N 8485   8.594   2.438   1.968  0.7456 -0.1067 -1.1011
  787MOL0     C 8486   8.648   2.335   1.894  0.7650  0.1490  0.4033
  787MOL0     C 8487   8.703   2.393   1.787  0.2261 -0.9659  0.0483
  787MOL0     C 8488   8.763   2.304   1.672 -0.0092  0.3568 -0.1451
  787MOL0     C 8489   8.701   2.350   1.536 -0.2388  0.3224 -0.1035
  787MOL0     C 8490   8.814   2.396   1.438 -0.2674  0.4369  0.3508
  787MOL0     C 8491   8.883   2.276   1.374 -1.0200 -0.5182 -0.3878
  787MOL0     O 8492   8.968   2.203   1.464  0.3877 -0.3294  0.6349
  787MOL0     C 8493   9.088   2.240   1.503  0.4449 -0.2328  0.5282
  787MOL0     C 8494   9.169   2.342   1.459 -0.5170 -0.6846 -0.3061
  787MOL0     C 8495   9.297   2.361   1.501 -0.4314 -0.0172  0.1326
  787MOL0     C 8496   9.377   2.473   1.419  0.9298  0.4997 -0.0210
  787MOL0     C 8497   9.346   2.282   1.616 -0.3843  1.0500  0.1075
  787MOL0     C 8498   9.491   2.285   1.666  0.0347 -0.4520 -0.3719
  787MOL0     O 8499   9.516   2.242   1.792  0.6883  1.1241  0.1270
  787MOL0     C 8500   9.624   2.290   1.859  0.4095 -0.0547 -0.5746
  787MOL0     C 8501   9.634   2.414   1.917  0.7407  0.2826  1.2461
  787MOL0     C 8502   9.750   2.453   1.987 -0.4571  0.3420  0.3307
  787MOL0     C 8503   9.863   2.371   1.996 -0.5031 -0.4903 -0.6689
  787MOL0     O 8504   9.972   2.401   2.072  0.1583 -0.0046  0.4346
  787MOL0     C 8505   9.990   2.537   2.114  0.3369  0.0070 -0.1891
  787MOL0     C 8506  10.126   2.549   2.186  0.3486 -0.0966  0.0403
  787MOL0     C 8507  10.243   2.565   2.089  0.7387  0.7110  1.3966
  787MOL0     C 8508  10.375   2.625   2.148 -1.3929 -0.1127 -1.8316
  787MOL0     C 8509  10.459   2.531   2.238  0.2774 -0.3420 -0.1496
  787MOL0     C 8510  10.535   2.597   2.363 -0.3160  0.1430 -1.2177
  787MOL0     C 8511  10.642   2.694   2.314  0.2844  0.3783 -0.3278
  787MOL0     C 8512  10.667   2.808   2.420 -0.1351 -0.0120  0.3473
  787MOL0    Cl 8513  10.705   2.736   2.581 -0.0568  0.1396  0.2435
  787MOL0     C 8514   9.851   2.245   1.930 -0.1008  0.1580  0.3157
  787MOL0     C 8515   9.732   2.207   1.863 -1.3786  0.4292 -0.6558
  787MOL0     O 8516   9.578   2.325   1.588  0.2544 -0.2322 -0.5076
  787MOL0     C 8517   9.255   2.197   1.682 -0.4800 -0.0271 -0.3273
  787MOL0     C 8518   9.134   2.165   1.617  0.7305  0.4721 -0.2618
  787MOL0     N 8519   8.665   2.526   1.792 -0.0541  0.6849  0.8647
  787MOL0     N 8520   8.605   2.556   1.898  1.1215  0.4072 -0.3949
  787MOL0     C 8521   9.374   2.570   2.727  0.5928 -0.0290 -0.0714
  787MOL0     C 8522   9.496   2.556   2.798 -0.3416 -0.2111 -0.1082
  787MOL0     C 8523   9.801   2.409   3.149 -0.9597 -0.4621  0.2601
  787MOL0     C 8524   9.877   2.519   3.109 -0.0403 -0.1932 -0.3075
  787MOL0     C 8525   9.979   2.573   3.186  0.2975  0.3780  0.1542
  787MOL0     C 8526  10.019   2.512   3.302  0.1679  0.7349  0.6726
  787MOL0     O 8527  10.138   2.559   3.348  0.4561  0.0212  0.4554
  787MOL0     C 8528  10.239   2.463   3.388  0.7402 -0.1992  0.3122
  787MOL0     C 8529  10.375   2.523   3.359 -0.7676 -0.7281 -0.1505
  787MOL0     C 8530  10.402   2.639   3.456  0.2015  0.3909 -0.2075
  787MOL0     C 8531  10.532   2.699   3.416 -0.5280  0.2815  0.7921
  787MOL0     C 8532  10.589   2.776   3.526 -0.5443 -0.0001  0.0063
  787MOL0     C 8533  10.658   2.837   3.602 -0.7281 -0.1506 -0.2529
  787MOL0     C 8534   9.959   2.394   3.337 -0.0002  0.5427  0.8762
  787MOL0     C 8535   9.846   2.340   3.269 -0.1020  0.2459 -0.1611
  787MOL0     C 8536   9.785   2.214   3.315  0.5979  0.4317 -0.2074
  787MOL0     H 8537   9.433   2.274   2.967  1.8465  0.7525  0.1003
  787MOL0     H 8538   9.226   2.295   2.838 -1.4473  1.2580  1.2670
  787MOL0     H 8539   9.058   2.318   2.690  0.7035 -0.6102  1.1441
  787MOL0     H 8540   9.194   2.297   2.569  2.2724 -2.2707  7.0600
  787MOL0     H 8541   9.069   2.443   2.419  0.4663  0.6257  1.0506
  787MOL0     H 8542   8.954   2.311   2.483 -4.3915  1.2467  2.3890
  787MOL0     H 8543   8.886   2.486   2.652 -3.2155 -1.5868 -0.2144
  787MOL0     H 8544   8.980   2.597   2.578  0.8091  0.3229 -1.0434
  787MOL0     H 8545   8.732   2.458   2.486  1.1983 -1.2646  0.3733
  787MOL0     H 8546   8.751   2.626   2.515  0.7235 -1.8197  3.2799
  787MOL0     H 8547   8.885   2.467   2.284  1.6411 -0.4331  1.3422
  787MOL0     H 8548   8.909   2.636   2.310  3.9130 -3.2650  1.1874
  787MOL0     H 8549   8.641   2.641   2.299  3.0369  0.9130  0.7547
  787MOL0     H 8550   8.742   2.631   2.146  3.3372  0.2245  0.4295
  787MOL0     H 8551   8.614   2.399   2.306  5.0277 -0.0023  1.2591
  787MOL0     H 8552   8.722   2.382   2.171  0.4251 -0.1979  0.9518
  787MOL0     H 8553   8.470   2.364   2.127  0.4241  0.6035 -0.9585
  787MOL0     H 8554   8.476   2.538   2.116 -0.2472  0.1348  1.8861
  787MOL0     H 8555   8.658   2.234   1.932  1.3977 -0.1313 -0.4623
  787MOL0     H 8556   8.726   2.203   1.695 -0.0888  0.6365  1.0057
  787MOL0     H 8557   8.870   2.284   1.678 -0.3458 -1.2623  1.7169
  787MOL0     H 8558   8.635   2.271   1.500  1.0883 -2.0034  2.1972
  787MOL0     H 8559   8.646   2.444   1.544  1.4814  1.3930 -0.3520
  787MOL0     H 8560   8.773   2.455   1.357 -0.3605 -0.9682 -0.6681
  787MOL0     H 8561   8.885   2.463   1.487  0.8221 -0.3708 -0.0688
  787MOL0     H 8562   8.806   2.204   1.346 -2.8396  1.3912 -0.6197
  787MOL0     H 8563   8.951   2.298   1.291  2.6989 -2.9545  1.7524
  787MOL0     H 8564   9.132   2.418   1.390 -1.8506 -0.6857  0.3749
  787MOL0     H 8565   9.400   2.564   1.476  0.7533  0.7952 -0.4177
  787MOL0     H 8566   9.314   2.511   1.338 -1.4831  1.6619  2.2234
  787MOL0     H 8567   9.473   2.440   1.377  0.6021  0.4769 -0.7585
  787MOL0     H 8568   9.549   2.480   1.902  1.1533  0.3909 -1.0153
  787MOL0     H 8569   9.755   2.560   2.009 -0.9290  0.8383 -1.7814
  787MOL0     H 8570   9.977   2.609   2.032  2.9376  3.5854  2.2373
  787MOL0     H 8571   9.910   2.553   2.187  0.6849 -1.8740  0.6823
  787MOL0     H 8572  10.123   2.641   2.245  0.0011 -0.0226 -0.0888
  787MOL0     H 8573  10.135   2.455   2.241 -0.3954 -0.9688 -1.2896
  787MOL0     H 8574  10.223   2.627   2.001  2.1403 -2.7415 -1.6369
  787MOL0     H 8575  10.256   2.462   2.053 -4.2539  0.9192 -1.9427
  787MOL0     H 8576  10.341   2.705   2.214  0.4616 -1.6623  1.2297
  787MOL0     H 8577  10.443   2.672   2.076  0.8043  0.4258  0.4613
  787MOL0     H 8578  10.383   2.462   2.277 -2.4976  0.7659 -3.0248
  787MOL0     H 8579  10.528   2.476   2.173 -0.0028  0.4611 -1.1600
  787MOL0     H 8580  10.584   2.511   2.411 -1.6643  0.8208  1.6370
  787MOL0     H 8581  10.468   2.638   2.440 -1.3357 -0.1978 -1.9049
  787MOL0     H 8582  10.635   2.738   2.214  2.3096  0.9156 -0.2783
  787MOL0     H 8583  10.732   2.634   2.301  1.1120  1.7384 -1.1822
  787MOL0     H 8584  10.579   2.873   2.424  1.5609  2.3793  1.5203
  787MOL0     H 8585  10.754   2.858   2.376  1.2009 -1.6559  0.9920
  787MOL0     H 8586   9.936   2.179   1.943 -0.4189 -0.1232  1.0060
  787MOL0     H 8587   9.748   2.107   1.824  4.1409  1.0715 -0.8453
  787MOL0     H 8588   9.286   2.141   1.769  1.6240 -1.5195 -1.9262
  787MOL0     H 8589   9.064   2.096   1.663  2.6621 -0.5770  1.2378
  787MOL0     H 8590   9.359   2.651   2.656 -2.2845 -0.5813 -0.1920
  787MOL0     H 8591   9.579   2.623   2.777 -1.0399  0.8401  0.4240
  787MOL0     H 8592   9.848   2.565   3.015 -2.0265 -2.1326 -0.7181
  787MOL0     H 8593  10.036   2.663   3.163 -1.1600  1.1406 -0.5869
  787MOL0     H 8594  10.222   2.430   3.491 -1.5436 -1.4107 -0.3760
  787MOL0     H 8595  10.214   2.373   3.330  0.1688 -0.4014  0.8643
  787MOL0     H 8596  10.366   2.572   3.262 -5.2753  1.7775  1.2186
  787MOL0     H 8597  10.454   2.448   3.360  1.8256  1.8502  0.3077
  787MOL0     H 8598  10.326   2.717   3.458 -1.3083 -1.0046  2.8212
  787MOL0     H 8599  10.408   2.593   3.555 -2.0020  1.8528  0.6828
  787MOL0     H 8600  10.538   2.757   3.324  0.5511 -1.5941 -0.3915
  787MOL0     H 8601  10.602   2.617   3.396 -2.9551 -1.3813 -1.4745
  787MOL0     H 8602  10.718   2.907   3.657 -0.7360 -1.4228  1.4255
  787MOL0     H 8603   9.984   2.341   3.429 -2.5585  0.0849  1.3972
  787MOL0     H 8604   9.688   2.237   3.359 -0.2467 -0.9105 -1.2887
  787MOL0     H 8605   9.781   2.148   3.228 -1.5521  1.2413 -0.7768
  787MOL0     H 8606   9.833   2.152   3.391 -1.8439  0.2551  1.2585
  788MOL0     O 8607  11.129   5.577   0.070 -0.2478  0.5153  0.4516
  788MOL0     C 8608  11.191   5.576   0.176  0.1838 -0.1392 -0.2335
  788MOL0     O 8609  11.323   5.586   0.190 -0.6983  0.8942 -0.5089
  788MOL0     C 8610  11.414   5.599   0.092 -1.4664 -0.3409  0.0756
  788MOL0     C 8611  11.412   5.520  -0.020 -0.3373 -0.1428 -0.7559
  788MOL0     C 8612  11.503   5.547  -0.123  0.7163  0.4422 -0.0066
  788MOL0     C 8613  11.595   5.652  -0.117 -0.4765  0.5760  0.3924
  788MOL0     O 8614  11.665   5.682  -0.233 -0.2075 -0.4537  0.0763
  788MOL0     C 8615  11.670   5.826  -0.270  0.1798 -0.2392  0.4033
  788MOL0     C 8616  11.763   5.851  -0.395  0.4290 -0.6519  0.3647
  788MOL0     C 8617  11.705   5.807  -0.528  0.2237 -0.0047 -0.0239
  788MOL0     C 8618  11.712   5.663  -0.569  1.0758 -0.4328 -0.6499
  788MOL0     C 8619  11.644   5.643  -0.710 -0.2146 -0.4684  0.3511
  788MOL0     C 8620  11.633   5.505  -0.768  0.0232  0.5427  0.3503
  788MOL0     C 8621  11.776   5.442  -0.773  0.1723  0.3159  0.0278
  788MOL0     C 8622  11.779   5.319  -0.860  0.0068  0.9352  0.0585
  788MOL0     N 8623  11.769   5.347  -1.009 -0.0233  0.3134 -0.4189
  788MOL0     C 8624  11.657   5.339  -1.077  0.9352  0.5872 -0.3025
  788MOL0     C 8625  11.688   5.336  -1.209 -0.3597  0.4720  0.8712
  788MOL0     C 8626  11.597   5.318  -1.337  0.0059 -0.5656  0.1470
  788MOL0     C 8627  11.654   5.358  -1.473 -0.5607 -0.5752 -0.1134
  788MOL0     C 8628  11.654   5.500  -1.514 -0.3945 -0.4696  0.0347
  788MOL0     C 8629  11.715   5.509  -1.657  0.5678  0.0131 -0.2788
  788MOL0     O 8630  11.634   5.436  -1.743  0.5850  0.5898 -0.1805
  788MOL0     C 8631  11.666   5.438  -1.879 -0.2137  0.2580 -0.2251
  788MOL0     C 8632  11.578   5.390  -1.974 -0.2452 -0.1868 -0.2946
  788MOL0     C 8633  11.610   5.378  -2.110 -0.7648 -0.2703 -0.5311
  788MOL0     C 8634  11.503   5.347  -2.206  0.9409 -0.5614  0.9562
  788MOL0     C 8635  11.740   5.422  -2.153  0.1516  0.4698  0.6955
  788MOL0     C 8636  11.798   5.408  -2.297 -0.1661  0.8525 -0.1055
  788MOL0     O 8637  11.891   5.501  -2.328  0.0156 -0.1518  0.5201
  788MOL0     C 8638  11.961   5.508  -2.450 -0.4047  0.8315  0.4909
  788MOL0     C 8639  12.054   5.413  -2.491  0.0759  0.4467 -0.7262
  788MOL0     C 8640  12.135   5.430  -2.606  0.3892 -0.3050  0.1431
  788MOL0     C 8641  12.111   5.549  -2.685  0.0487  0.2930  0.7827
  788MOL0     O 8642  12.183   5.582  -2.797 -0.0655  0.3338 -0.2297
  788MOL0     C 8643  12.274   5.486  -2.855 -0.1412 -0.2600  0.0389
  788MOL0     C 8644  12.311   5.525  -3.001 -0.4989  0.2230  0.2031
  788MOL0     C 8645  12.409   5.421  -3.068 -0.4465  0.0321 -0.2481
  788MOL0     C 8646  12.494   5.473  -3.187 -0.9828 -0.6821  0.9260
  788MOL0     C 8647  12.582   5.359  -3.239  0.5249  0.1601  0.0170
  788MOL0     C 8648  12.504   5.231  -3.281  0.4017  0.1032 -0.8136
  788MOL0     C 8649  12.577   5.101  -3.337  0.6562  0.5470 -1.1717
  788MOL0     C 8650  12.488   4.993  -3.399 -0.2150  0.2179 -0.4050
  788MOL0    Cl 8651  12.599   4.873  -3.441  0.5499  0.0898 -0.0261
  788MOL0     C 8652  12.023   5.639  -2.643 -0.5906  0.1436 -0.0993
  788MOL0     C 8653  11.943   5.618  -2.530 -1.1027 -0.4586 -0.3472
  788MOL0     O 8654  11.762   5.313  -2.369  0.5929 -0.7193 -0.0076
  788MOL0     C 8655  11.823   5.486  -2.054  0.6831  0.1537  0.6261
  788MOL0     C 8656  11.787   5.485  -1.917 -0.4671 -0.4993  0.0199
  788MOL0     N 8657  11.831   5.351  -1.218  0.2944 -0.0148  0.1114
  788MOL0     N 8658  11.872   5.361  -1.100 -0.6278  0.1508  0.2486
  788MOL0     C 8659  11.605   5.722  -0.001 -0.9559 -0.3765  0.3598
  788MOL0     C 8660  11.517   5.700   0.103 -0.2189  0.2909  0.5617
  788MOL0     C 8661  11.109   5.566   0.305 -0.1883  0.2369 -0.1265
  788MOL0     C 8662  10.992   5.487   0.295  1.0189 -0.2460 -0.2195
  788MOL0     C 8663  10.902   5.477   0.400 -0.3590  1.1016  0.1578
  788MOL0     C 8664  10.929   5.540   0.524 -0.2723 -0.0332 -0.1355
  788MOL0     O 8665  10.852   5.531   0.640  0.8087 -0.3590  0.3465
  788MOL0     C 8666  10.714   5.501   0.618 -0.0382  0.7206  0.0714
  788MOL0     C 8667  10.631   5.575   0.511 -0.4552 -0.0073 -0.0318
  788MOL0     C 8668  10.491   5.505   0.491  0.4199 -0.1697  0.0312
  788MOL0     C 8669  10.397   5.550   0.375 -0.7605 -0.1059 -0.3196
  788MOL0     C 8670  10.385   5.690   0.380 -0.2660  0.7428 -0.4503
  788MOL0     C 8671  10.359   5.807   0.395  0.9256  0.8728  0.4232
  788MOL0     C 8672  11.040   5.611   0.540 -0.2791  0.0358 -0.2603
  788MOL0     C 8673  11.140   5.623   0.434 -0.1545  0.7984  0.1902
  788MOL0     C 8674  11.251   5.710   0.458 -0.3789 -0.0429 -0.1996
  788MOL0     H 8675  11.326   5.453  -0.020  0.4027 -1.3545  3.0701
  788MOL0     H 8676  11.495   5.486  -0.212  1.9189  2.0739 -1.2861
  788MOL0     H 8677  11.713   5.885  -0.189 -0.5548  0.6052  0.1916
  788MOL0     H 8678  11.574   5.875  -0.285  0.0084  0.3020  2.9012
  788MOL0     H 8679  11.789   5.957  -0.404 -2.6708  0.4351  2.5308
  788MOL0     H 8680  11.865   5.813  -0.386  0.6812 -0.8106 -2.4077
  788MOL0     H 8681  11.607   5.852  -0.541  1.3926  2.5887 -0.5851
  788MOL0     H 8682  11.761   5.857  -0.608  2.6556 -0.9369  0.9746
  788MOL0     H 8683  11.817   5.635  -0.576  1.7318  1.5176  0.5048
  788MOL0     H 8684  11.652   5.610  -0.495  1.2670  0.0210 -0.1608
  788MOL0     H 8685  11.704   5.692  -0.787  2.1227 -1.0915  1.6829
  788MOL0     H 8686  11.540   5.678  -0.708  0.4396  1.9246 -2.0471
  788MOL0     H 8687  11.572   5.446  -0.698  1.7009 -0.6215  0.8978
  788MOL0     H 8688  11.600   5.502  -0.872  0.6215  0.0215  0.1717
  788MOL0     H 8689  11.799   5.409  -0.672  0.9495 -1.3231 -0.6587
  788MOL0     H 8690  11.853   5.511  -0.811  1.1915 -0.7680  0.0857
  788MOL0     H 8691  11.869   5.261  -0.837 -1.0626 -0.0495  2.0531
  788MOL0     H 8692  11.690   5.258  -0.840  1.2206 -0.3706  1.8246
  788MOL0     H 8693  11.555   5.333  -1.041  1.1311 -1.5795  0.0015
  788MOL0     H 8694  11.502   5.370  -1.321 -1.5436 -2.1363 -3.0399
  788MOL0     H 8695  11.570   5.212  -1.341  2.1389 -1.1451 -0.3436
  788MOL0     H 8696  11.759   5.327  -1.475 -0.7558 -1.2380 -1.1355
  788MOL0     H 8697  11.602   5.297  -1.548  1.3736  0.9270 -2.8247
  788MOL0     H 8698  11.554   5.544  -1.516  0.3370  1.6778  3.3605
  788MOL0     H 8699  11.712   5.554  -1.439 -1.1480  1.1124 -0.4726
  788MOL0     H 8700  11.721   5.610  -1.700 -0.5742 -0.1840 -0.9221
  788MOL0     H 8701  11.819   5.475  -1.656 -0.0580 -2.2381 -2.3972
  788MOL0     H 8702  11.484   5.354  -1.933 -1.0344 -0.2228 -2.0329
  788MOL0     H 8703  11.524   5.281  -2.290  0.4030 -1.0048  1.1628
  788MOL0     H 8704  11.471   5.443  -2.248 -0.5459 -1.5370 -0.2630
  788MOL0     H 8705  11.423   5.298  -2.150  0.6612 -1.0631  0.1319
  788MOL0     H 8706  12.059   5.323  -2.432 -0.4391  1.1130  0.3611
  788MOL0     H 8707  12.213   5.366  -2.647  1.5178  1.4096 -0.4721
  788MOL0     H 8708  12.369   5.469  -2.803 -0.6779 -1.7325  0.5861
  788MOL0     H 8709  12.229   5.387  -2.850 -2.2564  0.6981  1.2833
  788MOL0     H 8710  12.213   5.540  -3.046 -0.8039  0.6131  0.9769
  788MOL0     H 8711  12.359   5.623  -3.006 -0.5608  0.3472  1.5012
  788MOL0     H 8712  12.349   5.336  -3.104 -0.0146 -0.1868 -0.4547
  788MOL0     H 8713  12.478   5.389  -2.990 -0.9305 -1.2366 -0.3166
  788MOL0     H 8714  12.566   5.554  -3.173  0.4105 -0.7349 -4.0699
  788MOL0     H 8715  12.430   5.522  -3.261  0.1905 -0.9515 -0.2996
  788MOL0     H 8716  12.639   5.394  -3.326  0.0277 -2.3188 -1.3810
  788MOL0     H 8717  12.657   5.342  -3.160  3.8262  3.0592 -2.1699
  788MOL0     H 8718  12.433   5.261  -3.359  0.6036  1.5312 -0.4731
  788MOL0     H 8719  12.440   5.195  -3.200  0.7982 -2.6899 -1.6118
  788MOL0     H 8720  12.640   5.051  -3.264  0.2120 -1.0129 -1.8114
  788MOL0     H 8721  12.636   5.134  -3.423  0.0950 -0.3263 -1.9176
  788MOL0     H 8722  12.440   5.029  -3.491  2.6550 -2.8412 -3.3786
  788MOL0     H 8723  12.413   4.949  -3.333 -0.2335 -1.3977 -1.4257
  788MOL0     H 8724  12.024   5.733  -2.697 -1.4089 -1.0547 -2.3193
  788MOL0     H 8725  11.862   5.687  -2.513 -1.3610 -0.9974  0.7341
  788MOL0     H 8726  11.923   5.520  -2.079  0.0296  2.3083  0.7159
  788MOL0     H 8727  11.860   5.527  -1.849  0.1383 -1.8836  0.2515
  788MOL0     H 8728  11.677   5.804  -0.000 -1.1797 -0.1555  1.9197
  788MOL0     H 8729  11.521   5.771   0.185 -2.1105  1.6623 -0.4525
  788MOL0     H 8730  10.972   5.445   0.197 -0.6718  0.3219 -0.1432
  788MOL0     H 8731  10.810   5.424   0.378  0.4718  0.3938 -1.8655
  788MOL0     H 8732  10.711   5.392   0.605  1.1702  0.6861 -0.0440
  788MOL0     H 8733  10.665   5.523   0.713 -1.0556  1.0982 -0.5329
  788MOL0     H 8734  10.675   5.571   0.412  2.9199 -0.4097  1.3583
  788MOL0     H 8735  10.615   5.680   0.535 -0.1011  0.1002 -0.2653
  788MOL0     H 8736  10.504   5.399   0.466 -0.1313 -0.9801  2.8674
  788MOL0     H 8737  10.448   5.501   0.591  2.8874  2.1692  1.3004
  788MOL0     H 8738  10.301   5.498   0.386 -1.1677  0.4404 -1.1532
  788MOL0     H 8739  10.435   5.528   0.275  3.0024  2.2082  0.4134
  788MOL0     H 8740  10.330   5.909   0.385  2.7234  1.1898 -2.5295
  788MOL0     H 8741  11.052   5.659   0.636 -1.1534 -0.0311 -0.1124
  788MOL0     H 8742  11.332   5.697   0.386 -2.5815  0.5170 -2.9549
  788MOL0     H 8743  11.214   5.811   0.436  0.5737  0.4627  0.4553
  788MOL0     H 8744  11.284   5.720   0.562 -1.6292 -0.4124  0.2495
  789MOL0     O 8745   6.670   0.671  11.282 -0.4312  0.2999 -0.5563
  789MOL0     C 8746   6.619   0.610  11.373 -0.5176  0.1822  1.2124
  789MOL0     O 8747   6.663   0.488  11.421 -0.6849 -0.2708  0.0143
  789MOL0     C 8748   6.781   0.436  11.374  1.0263  0.2289  0.2888
  789MOL0     C 8749   6.894   0.502  11.409  0.3385 -0.0549  1.1338
  789MOL0     C 8750   7.019   0.454  11.387  0.5412  0.7219 -0.2168
  789MOL0     C 8751   7.030   0.327  11.335  1.5546 -0.6026  0.6752
  789MOL0     O 8752   7.150   0.268  11.308  0.0329 -0.0358  0.1026
  789MOL0     C 8753   7.160   0.152  11.382 -0.6447  0.3050 -0.4558
  789MOL0     C 8754   7.319   0.129  11.393  0.9572  0.3185  0.9716
  789MOL0     C 8755   7.346  -0.013  11.460  0.6056  0.5412 -1.1589
  789MOL0     C 8756   7.492  -0.071  11.436  1.4542 -1.2400  0.1487
  789MOL0     C 8757   7.513  -0.203  11.512  0.0540  0.2524 -0.1465
  789MOL0     C 8758   7.657  -0.262  11.493 -0.2692 -0.3270 -1.3684
  789MOL0     C 8759   7.774  -0.165  11.538  0.3583  0.8494 -0.1056
  789MOL0     C 8760   7.900  -0.245  11.575 -0.3443  0.1387 -0.9836
  789MOL0     N 8761   7.975  -0.295  11.456 -0.1286 -0.2732 -0.1495
  789MOL0     C 8762   7.967  -0.252  11.329  0.3968 -0.4947  0.6163
  789MOL0     C 8763   8.056  -0.314  11.252 -0.0869  0.3870  0.7404
  789MOL0     C 8764   8.061  -0.317  11.098 -0.4526 -0.6283  0.0888
  789MOL0     C 8765   8.193  -0.339  11.036 -0.4180 -0.2316 -0.4274
  789MOL0     C 8766   8.176  -0.380  10.891  0.3226 -0.2645 -0.4211
  789MOL0     C 8767   8.314  -0.419  10.815 -0.0561 -0.2699  0.4225
  789MOL0     O 8768   8.398  -0.306  10.835 -0.4627  0.6197  1.1057
  789MOL0     C 8769   8.533  -0.316  10.837  0.0345  0.2177  0.0886
  789MOL0     C 8770   8.608  -0.429  10.846  0.8215 -0.2934  0.5640
  789MOL0     C 8771   8.750  -0.421  10.863  0.4474  0.6030 -0.7334
  789MOL0     C 8772   8.821  -0.554  10.890 -0.8543  0.2030 -0.4712
  789MOL0     C 8773   8.815  -0.297  10.865  0.2626  0.3303  0.4370
  789MOL0     C 8774   8.957  -0.267  10.882 -0.1581  0.1214 -0.6420
  789MOL0     O 8775   8.999  -0.148  10.827  0.0149  0.6407  0.6624
  789MOL0     C 8776   9.126  -0.166  10.779 -0.0130 -0.7538  0.0080
  789MOL0     C 8777   9.232  -0.133  10.866 -0.0367  0.0125 -0.7055
  789MOL0     C 8778   9.364  -0.163  10.833  0.4111 -0.1862 -0.0365
  789MOL0     C 8779   9.394  -0.215  10.708  0.0167  0.2269 -0.7101
  789MOL0     O 8780   9.527  -0.221  10.670 -0.4627  0.1908 -0.3463
  789MOL0     C 8781   9.557  -0.358  10.641 -0.7226  0.3406  0.0500
  789MOL0     C 8782   9.710  -0.373  10.619  0.1002  0.4198 -1.0572
  789MOL0     C 8783   9.784  -0.267  10.539  0.5121 -0.0402  0.5793
  789MOL0     C 8784   9.911  -0.326  10.489 -0.3178 -0.0735 -0.1786
  789MOL0     C 8785   9.963  -0.229  10.384  0.2671  0.1881  0.5273
  789MOL0     C 8786  10.106  -0.260  10.347 -0.0346 -0.1390  1.0132
  789MOL0     C 8787  10.161  -0.174  10.228 -0.3713 -0.1771 -0.6822
  789MOL0     C 8788  10.094  -0.205  10.099 -0.4021  0.0568  0.6156
  789MOL0    Cl 8789  10.136  -0.084   9.976 -0.0149  0.0409 -0.3560
  789MOL0     C 8790   9.292  -0.244  10.617  0.4203  0.0573  0.4895
  789MOL0     C 8791   9.164  -0.214  10.648 -0.4514  0.3950 -0.3856
  789MOL0     O 8792   9.017  -0.340  10.967  0.3448  0.4260  0.4324
  789MOL0     C 8793   8.733  -0.182  10.847 -0.0143  0.3710 -0.3308
  789MOL0     C 8794   8.596  -0.190  10.850  1.1576 -0.5404  0.3842
  789MOL0     N 8795   8.125  -0.394  11.342  0.0167  0.1025  0.3017
  789MOL0     N 8796   8.077  -0.380  11.456 -0.6946  1.3151  0.5773
  789MOL0     C 8797   6.912   0.263  11.291  0.6973  0.1707  0.1560
  789MOL0     C 8798   6.788   0.318  11.305  0.7688 -0.3109 -1.0337
  789MOL0     C 8799   6.497   0.659  11.445  0.3907 -0.5975  0.4012
  789MOL0     C 8800   6.410   0.566  11.506 -0.6515 -0.8826  0.0351
  789MOL0     C 8801   6.284   0.617  11.547  0.7953  0.0493  0.7349
  789MOL0     C 8802   6.243   0.755  11.534  0.7476 -0.2879 -0.0475
  789MOL0     O 8803   6.116   0.796  11.574 -0.0123 -0.3447 -0.1021
  789MOL0     C 8804   6.024   0.693  11.610 -0.5192  0.2238 -0.5405
  789MOL0     C 8805   6.017   0.638  11.751 -0.4938  0.0086  0.1229
  789MOL0     C 8806   5.966   0.492  11.769 -0.3712 -0.2465  0.5794
  789MOL0     C 8807   6.002   0.426  11.903 -0.2616 -0.0058  0.1109
  789MOL0     C 8808   6.142   0.373  11.912 -0.2694 -0.1082  0.0831
  789MOL0     C 8809   6.261   0.343  11.923 -0.6576 -0.2384  0.5349
  789MOL0     C 8810   6.338   0.850  11.474 -0.2071  0.3478  0.2278
  789MOL0     C 8811   6.459   0.804  11.425 -0.7675  0.0850 -0.7171
  789MOL0     C 8812   6.539   0.900  11.338  0.2362  0.1217 -0.2676
  789MOL0     H 8813   6.872   0.600  11.450  0.2138  0.7252 -0.6567
  789MOL0     H 8814   7.106   0.515  11.409 -0.6217  2.0394  0.9476
  789MOL0     H 8815   7.119   0.069  11.324 -2.5706  1.1596 -0.3688
  789MOL0     H 8816   7.114   0.150  11.481 -0.2180  0.7911 -0.2401
  789MOL0     H 8817   7.359   0.128  11.291 -0.2507  0.9886  0.4757
  789MOL0     H 8818   7.356   0.218  11.444 -2.9189  2.0022  1.1693
  789MOL0     H 8819   7.322  -0.014  11.566  2.7610  1.1139 -0.6058
  789MOL0     H 8820   7.285  -0.090  11.413  2.9387 -1.4922 -1.1016
  789MOL0     H 8821   7.497  -0.090  11.328  0.7429 -0.4595 -0.0292
  789MOL0     H 8822   7.570   0.002  11.456 -0.2909  1.4060 -1.9580
  789MOL0     H 8823   7.452  -0.285  11.472  2.9576 -1.4603 -1.3225
  789MOL0     H 8824   7.495  -0.190  11.620 -0.4064  0.6120 -0.2612
  789MOL0     H 8825   7.649  -0.354  11.552 -0.5002 -0.0726 -0.9940
  789MOL0     H 8826   7.671  -0.293  11.390 -1.4031 -0.8483 -1.3699
  789MOL0     H 8827   7.731  -0.122  11.629  1.8468 -0.8535  1.4808
  789MOL0     H 8828   7.802  -0.090  11.463 -1.5661  0.6676 -1.0614
  789MOL0     H 8829   7.975  -0.194  11.636  0.2770  1.3592 -2.6700
  789MOL0     H 8830   7.864  -0.330  11.633 -1.9164  2.3126  1.4584
  789MOL0     H 8831   7.895  -0.182  11.287  2.9442  0.9963 -1.6394
  789MOL0     H 8832   8.030  -0.218  11.063  3.0689  0.7133  0.3458
  789MOL0     H 8833   7.997  -0.399  11.065  1.0769 -0.9727 -2.2940
  789MOL0     H 8834   8.250  -0.246  11.044  0.8450 -0.8658 -1.6495
  789MOL0     H 8835   8.253  -0.415  11.086 -1.5141 -0.1356  1.0884
  789MOL0     H 8836   8.093  -0.451  10.884 -2.2223  2.3891  0.7100
  789MOL0     H 8837   8.130  -0.293  10.842 -1.1184 -1.6340 -1.6119
  789MOL0     H 8838   8.357  -0.508  10.862  2.2677  1.6226  2.1694
  789MOL0     H 8839   8.300  -0.442  10.709  1.1078 -1.0607  0.4225
  789MOL0     H 8840   8.573  -0.531  10.836 -2.2223  0.7211 -0.0959
  789MOL0     H 8841   8.919  -0.558  10.843 -1.1580 -3.4633 -1.0753
  789MOL0     H 8842   8.762  -0.635  10.847 -1.7967  0.9117 -0.5534
  789MOL0     H 8843   8.832  -0.580  10.996  0.7489 -1.0996 -0.9174
  789MOL0     H 8844   9.204  -0.091  10.962  1.4481 -0.1002 -0.2057
  789MOL0     H 8845   9.448  -0.173  10.901  1.8480  1.4414 -1.5004
  789MOL0     H 8846   9.521  -0.429  10.716  0.2590 -1.6427 -1.2721
  789MOL0     H 8847   9.500  -0.387  10.553 -1.1311 -0.3855  0.5445
  789MOL0     H 8848   9.767  -0.373  10.713  0.5322  2.8300 -1.2566
  789MOL0     H 8849   9.732  -0.472  10.578 -1.0838 -0.6177  0.6604
  789MOL0     H 8850   9.811  -0.186  10.606 -1.4759  1.6481 -0.5471
  789MOL0     H 8851   9.715  -0.232  10.461 -1.4946 -1.5012  1.5975
  789MOL0     H 8852   9.884  -0.418  10.436 -3.1901 -1.2220  2.9387
  789MOL0     H 8853   9.985  -0.338  10.569  3.7141  3.1922 -2.9555
  789MOL0     H 8854   9.902  -0.236  10.293 -1.7558  4.6312  1.2985
  789MOL0     H 8855   9.964  -0.127  10.423  1.2963 -0.3909  2.0886
  789MOL0     H 8856  10.111  -0.368  10.327 -2.1950 -0.4016  1.6268
  789MOL0     H 8857  10.157  -0.234  10.440  1.1017  4.0809 -0.5552
  789MOL0     H 8858  10.269  -0.194  10.222  0.6010  3.8420  0.3878
  789MOL0     H 8859  10.144  -0.069  10.253  1.3479 -0.2213  0.9438
  789MOL0     H 8860   9.986  -0.193  10.111 -0.7120  1.3945 -2.5904
  789MOL0     H 8861  10.129  -0.305  10.072  0.6081  0.3811  0.7042
  789MOL0     H 8862   9.322  -0.269  10.516  1.9203  0.6115  0.7714
  789MOL0     H 8863   9.081  -0.253  10.589 -1.0188  4.2437 -2.4245
  789MOL0     H 8864   8.775  -0.086  10.874  0.1283 -0.2827  2.0329
  789MOL0     H 8865   8.542  -0.096  10.860  2.8517  0.3895  1.1983
  789MOL0     H 8866   6.919   0.168  11.239 -1.6689  0.8793 -1.5963
  789MOL0     H 8867   6.697   0.264  11.281 -0.0742  1.8470 -3.0997
  789MOL0     H 8868   6.435   0.460  11.507  2.2450 -0.2813  0.2170
  789MOL0     H 8869   6.225   0.535  11.585 -2.1709  1.8658  0.3541
  789MOL0     H 8870   5.928   0.743  11.593 -0.3412 -0.4061 -4.1268
  789MOL0     H 8871   6.037   0.607  11.543  3.4671 -0.1204  0.4193
  789MOL0     H 8872   5.966   0.710  11.815 -0.3706 -0.0557  0.2942
  789MOL0     H 8873   6.118   0.633  11.793 -1.2138  2.5651  2.4638
  789MOL0     H 8874   5.857   0.488  11.783 -0.3641 -1.3452  0.4012
  789MOL0     H 8875   5.989   0.433  11.680  0.3801 -1.1870  1.3678
  789MOL0     H 8876   5.936   0.339  11.908  0.6102 -0.7386 -0.7426
  789MOL0     H 8877   5.979   0.485  11.992 -6.3383 -2.9479  1.0034
  789MOL0     H 8878   6.362   0.306  11.916 -1.4591 -2.3060 -2.0176
  789MOL0     H 8879   6.300   0.949  11.451 -2.2900 -0.2357  0.9014
  789MOL0     H 8880   6.502   1.003  11.344 -0.8536 -0.2192 -0.8343
  789MOL0     H 8881   6.644   0.898  11.368  0.1835  1.7142  0.1087
  789MOL0     H 8882   6.535   0.859  11.237  0.5257  0.0200 -0.2371
  790MOL0     O 8883   1.105   7.533   0.901 -0.2020 -0.4767 -0.3440
  790MOL0     C 8884   1.140   7.628   0.827  0.3414  0.3489  0.0861
  790MOL0     O 8885   1.266   7.679   0.819  0.3972  0.1929 -0.7591
  790MOL0     C 8886   1.362   7.603   0.873  0.3406 -1.0966 -0.2155
  790MOL0     C 8887   1.396   7.480   0.814 -0.1411  0.3808 -0.4825
  790MOL0     C 8888   1.490   7.397   0.868  0.1386 -0.8877  0.2059
  790MOL0     C 8889   1.556   7.427   0.985  0.0830 -0.1675  0.0377
  790MOL0     O 8890   1.643   7.320   1.030  0.0358 -0.1412  0.3638
  790MOL0     C 8891   1.727   7.344   1.151  0.1179  0.4603  0.6622
  790MOL0     C 8892   1.855   7.393   1.085  0.3983 -0.9688  0.1409
  790MOL0     C 8893   1.924   7.501   1.160 -0.0181 -0.1112  0.1954
  790MOL0     C 8894   2.076   7.509   1.123  0.2950 -0.1679 -0.5584
  790MOL0     C 8895   2.153   7.642   1.142  0.2600 -0.4793 -0.6183
  790MOL0     C 8896   2.294   7.608   1.097  0.1346 -0.1817 -0.1074
  790MOL0     C 8897   2.410   7.707   1.107 -0.4370  0.1796  0.0528
  790MOL0     C 8898   2.412   7.775   1.242  0.1235 -0.5816 -0.2948
  790MOL0     N 8899   2.545   7.830   1.272  0.0036 -0.3146 -0.0269
  790MOL0     C 8900   2.564   7.944   1.340  0.6788  0.8555  0.0492
  790MOL0     C 8901   2.685   7.934   1.393 -1.0091 -0.0478 -0.3701
  790MOL0     C 8902   2.747   8.039   1.485  0.6704  0.7418 -0.5801
  790MOL0     C 8903   2.740   7.970   1.620 -0.2045 -0.2640  0.2858
  790MOL0     C 8904   2.780   8.076   1.728 -0.2072  0.2944 -0.6895
  790MOL0     C 8905   2.930   8.090   1.750 -0.5313 -0.8397 -0.0008
  790MOL0     O 8906   2.976   8.183   1.651 -0.5316 -0.4185 -0.2783
  790MOL0     C 8907   3.107   8.219   1.637  0.3353  0.1276  0.0340
  790MOL0     C 8908   3.131   8.323   1.559 -0.2958  0.3232  0.1820
  790MOL0     C 8909   3.248   8.399   1.550 -0.5376  0.7012  0.3322
  790MOL0     C 8910   3.244   8.527   1.470 -0.9479  1.1022  0.3170
  790MOL0     C 8911   3.360   8.351   1.626  0.0358 -0.4351 -0.2258
  790MOL0     C 8912   3.493   8.407   1.624 -0.3880 -0.1769  0.5972
  790MOL0     O 8913   3.573   8.379   1.731  0.0739  0.5274  0.5980
  790MOL0     C 8914   3.689   8.450   1.732  0.1831 -0.4417  0.3076
  790MOL0     C 8915   3.809   8.415   1.670  0.2257 -0.7178  0.7471
  790MOL0     C 8916   3.919   8.499   1.688 -0.4220  0.1733  0.0485
  790MOL0     C 8917   3.923   8.599   1.780 -0.6117 -0.3450 -0.7423
  790MOL0     O 8918   4.045   8.661   1.792  0.6444 -0.6185 -0.8649
  790MOL0     C 8919   4.069   8.740   1.905 -0.1685 -0.0607 -1.0131
  790MOL0     C 8920   4.219   8.756   1.911 -1.0371 -0.5898 -0.1530
  790MOL0     C 8921   4.267   8.841   2.031 -0.0435 -0.4962 -0.4358
  790MOL0     C 8922   4.279   8.989   1.991  0.2363 -0.7895 -0.2143
  790MOL0     C 8923   4.294   9.086   2.110 -0.0361 -0.3818 -0.9845
  790MOL0     C 8924   4.321   9.230   2.063 -0.3637  0.3783 -0.3986
  790MOL0     C 8925   4.350   9.332   2.162 -0.9675  0.6010 -0.0148
  790MOL0     C 8926   4.375   9.464   2.103 -0.6959 -0.9838 -0.3199
  790MOL0    Cl 8927   4.466   9.570   2.228 -0.1102  0.0707 -0.1235
  790MOL0     C 8928   3.804   8.636   1.850  0.1998  0.1242 -0.1982
  790MOL0     C 8929   3.689   8.553   1.826 -0.0930 -0.8952 -0.4592
  790MOL0     O 8930   3.530   8.457   1.517  0.7155 -0.1405 -0.1461
  790MOL0     C 8931   3.335   8.239   1.706 -0.2251 -1.1034 -0.4023
  790MOL0     C 8932   3.206   8.176   1.719 -0.0690  0.2761 -0.2725
  790MOL0     N 8933   2.754   7.823   1.349  0.2429 -0.2969  0.2748
  790MOL0     N 8934   2.663   7.759   1.282 -0.3211  0.2472 -0.2769
  790MOL0     C 8935   1.527   7.556   1.042 -0.7479  0.0245  0.2099
  790MOL0     C 8936   1.433   7.642   0.988  0.6354 -0.1419  0.4137
  790MOL0     C 8937   1.024   7.700   0.771 -0.0628 -0.0716  0.1110
  790MOL0     C 8938   0.996   7.829   0.821  0.4619  0.0255  1.1768
  790MOL0     C 8939   0.899   7.907   0.752 -0.7058 -0.5020 -0.6067
  790MOL0     C 8940   0.823   7.849   0.651 -0.7818  0.2199  0.8321
  790MOL0     O 8941   0.725   7.930   0.603  0.6134  0.1688  0.1157
  790MOL0     C 8942   0.707   7.943   0.462  0.3835  0.4413  0.1829
  790MOL0     C 8943   0.640   8.068   0.423  0.7264 -1.0341  0.7279
  790MOL0     C 8944   0.704   8.186   0.505  0.2145 -0.5849  0.0056
  790MOL0     C 8945   0.703   8.306   0.413  0.8370  0.3710  0.1619
  790MOL0     C 8946   0.762   8.424   0.471 -0.5894 -0.9400 -0.4419
  790MOL0     C 8947   0.861   8.577   0.532 -0.8374  0.3628 -0.4380
  790MOL0     C 8948   0.849   7.723   0.605 -0.3017  0.0644 -0.7484
  790MOL0     C 8949   0.946   7.647   0.665 -0.1609  0.8867  0.0596
  790MOL0     C 8950   0.960   7.507   0.602  0.5114  0.3336 -0.3840
  790MOL0     H 8951   1.339   7.451   0.727 -0.1360  0.5879 -0.5558
  790MOL0     H 8952   1.507   7.302   0.818  3.2094 -0.3210 -0.0399
  790MOL0     H 8953   1.750   7.264   1.223 -1.7896  0.9586  1.9162
  790MOL0     H 8954   1.689   7.411   1.229 -0.2851 -0.3201  1.1526
  790MOL0     H 8955   1.926   7.314   1.062  1.3971  0.4261 -1.9761
  790MOL0     H 8956   1.838   7.445   0.990  0.4249  0.9591  1.1463
  790MOL0     H 8957   1.869   7.592   1.136  2.8708  1.8112  0.3254
  790MOL0     H 8958   1.925   7.481   1.268  2.4828 -2.3948 -0.1300
  790MOL0     H 8959   2.128   7.430   1.178 -2.0233 -0.1852  1.8467
  790MOL0     H 8960   2.095   7.481   1.020  2.4186 -4.3191  0.7404
  790MOL0     H 8961   2.135   7.681   1.243 -1.9906 -0.1627 -1.0778
  790MOL0     H 8962   2.114   7.717   1.071 -1.7504 -1.0968 -0.2385
  790MOL0     H 8963   2.330   7.512   1.137 -0.2953 -0.2197  0.1979
  790MOL0     H 8964   2.284   7.593   0.989  0.4376  2.2818 -0.5202
  790MOL0     H 8965   2.407   7.783   1.028  2.8154 -0.4934 -0.8829
  790MOL0     H 8966   2.499   7.644   1.094 -0.1735  0.3281  1.0606
  790MOL0     H 8967   2.339   7.855   1.239 -0.2286 -0.8629  0.5919
  790MOL0     H 8968   2.378   7.704   1.318  0.4589  1.2319  1.6413
  790MOL0     H 8969   2.495   8.025   1.362  0.8407  1.4759 -1.6183
  790MOL0     H 8970   2.691   8.133   1.490  0.8493  0.9273 -1.7613
  790MOL0     H 8971   2.848   8.063   1.449  0.7083 -0.5114 -1.3415
  790MOL0     H 8972   2.636   7.943   1.645  0.0390  0.0467  1.7164
  790MOL0     H 8973   2.804   7.881   1.625 -0.5334 -0.4923  0.5198
  790MOL0     H 8974   2.725   8.168   1.709 -0.0717  1.8806  4.8783
  790MOL0     H 8975   2.744   8.036   1.823  2.8765  2.1166  1.4549
  790MOL0     H 8976   2.965   8.131   1.845  1.9132 -0.5107 -0.9814
  790MOL0     H 8977   2.965   7.987   1.762 -0.9841 -0.8610  1.3079
  790MOL0     H 8978   3.046   8.358   1.502  0.2621  4.5965  1.5991
  790MOL0     H 8979   3.147   8.534   1.421 -1.8404 -1.0332  1.6019
  790MOL0     H 8980   3.315   8.536   1.387 -1.2129  0.1397 -0.0226
  790MOL0     H 8981   3.256   8.616   1.532 -2.0785  0.8954  0.8593
  790MOL0     H 8982   3.808   8.330   1.602 -1.9552  0.1331 -0.3658
  790MOL0     H 8983   4.004   8.489   1.622 -0.9835 -0.9340 -0.5389
  790MOL0     H 8984   4.011   8.831   1.918  0.6313  0.2380  0.6158
  790MOL0     H 8985   4.037   8.680   1.990  1.3368 -1.0359 -1.0778
  790MOL0     H 8986   4.268   8.658   1.917  0.3186 -0.2456 -3.3571
  790MOL0     H 8987   4.261   8.798   1.819 -0.9621 -1.5626 -0.5782
  790MOL0     H 8988   4.371   8.819   2.058  0.0096  0.4535  0.1438
  790MOL0     H 8989   4.202   8.826   2.117  2.3402 -1.2878  1.3158
  790MOL0     H 8990   4.187   9.027   1.945 -0.2725 -0.4546  1.0460
  790MOL0     H 8991   4.361   9.005   1.920 -0.1144 -0.6390 -0.5861
  790MOL0     H 8992   4.201   9.097   2.166  1.3324  0.5585  1.2905
  790MOL0     H 8993   4.368   9.047   2.181  1.7543  2.9201 -0.8363
  790MOL0     H 8994   4.241   9.277   2.005 -0.7037  1.1325  0.6675
  790MOL0     H 8995   4.409   9.222   1.999  0.3479  0.2728  0.5771
  790MOL0     H 8996   4.430   9.295   2.226  0.0838 -1.2349 -2.2443
  790MOL0     H 8997   4.257   9.336   2.219 -2.7230  0.0816 -2.6608
  790MOL0     H 8998   4.277   9.507   2.079  0.0840  0.4470 -1.0667
  790MOL0     H 8999   4.439   9.465   2.014  2.6444  1.8108  1.8553
  790MOL0     H 9000   3.808   8.710   1.929 -4.0950  1.2974 -0.8443
  790MOL0     H 9001   3.602   8.584   1.884 -0.3036  0.3042 -1.3786
  790MOL0     H 9002   3.409   8.193   1.771  0.7594  0.3716 -0.4351
  790MOL0     H 9003   3.193   8.098   1.793 -0.3389  1.8813  1.4277
  790MOL0     H 9004   1.574   7.586   1.135  0.1071  0.7566 -0.4409
  790MOL0     H 9005   1.404   7.730   1.045 -0.6732 -2.2368  3.2309
  790MOL0     H 9006   1.050   7.878   0.901 -0.6038  0.5104  1.6178
  790MOL0     H 9007   0.880   8.011   0.774 -3.6532 -1.0251 -0.2429
  790MOL0     H 9008   0.807   7.925   0.423  1.5425  2.2547  2.1410
  790MOL0     H 9009   0.651   7.863   0.412  0.2667  2.0699 -2.4593
  790MOL0     H 9010   0.534   8.066   0.450  1.0864  0.5608  2.4481
  790MOL0     H 9011   0.652   8.080   0.315  1.6239 -2.6702  0.6115
  790MOL0     H 9012   0.655   8.219   0.597  2.5399  1.4824  0.6212
  790MOL0     H 9013   0.806   8.161   0.536 -0.4220 -0.1388  2.6798
  790MOL0     H 9014   0.601   8.340   0.394  0.6237 -0.7275 -0.7233
  790MOL0     H 9015   0.762   8.289   0.323  3.3015  1.4587  1.4510
  790MOL0     H 9016   0.917   8.665   0.557  1.7540 -1.2069 -0.2914
  790MOL0     H 9017   0.773   7.678   0.542 -0.8218 -2.9053  1.7391
  790MOL0     H 9018   0.987   7.518   0.497 -2.7767  2.9244 -1.1164
  790MOL0     H 9019   1.032   7.445   0.656  2.9706  0.7363 -2.9507
  790MOL0     H 9020   0.858   7.466   0.596 -0.5463  2.7531 -0.0185
  791MOL0     O 9021   9.967   3.142   7.922 -0.1889  0.2587  0.8205
  791MOL0     C 9022  10.010   3.100   7.812 -1.0590  0.3554  0.1030
  791MOL0     O 9023  10.080   3.171   7.719 -0.0641  0.0604  0.9294
  791MOL0     C 9024  10.091   3.307   7.700 -0.2654  0.1078 -0.2023
  791MOL0     C 9025  10.190   3.360   7.616 -0.4345  0.4943  0.7826
  791MOL0     C 9026  10.202   3.502   7.614 -0.0308  0.2976 -0.6899
  791MOL0     C 9027  10.097   3.587   7.668 -1.4119  0.2417  0.8804
  791MOL0     O 9028  10.114   3.718   7.636  0.1890 -0.6242  0.5393
  791MOL0     C 9029  10.064   3.826   7.721 -0.4154  0.9876  0.8391
  791MOL0     C 9030  10.071   3.956   7.644  0.8435 -0.3426 -0.2517
  791MOL0     C 9031  10.038   4.079   7.737 -1.1009  0.0856 -0.3077
  791MOL0     C 9032   9.891   4.099   7.770  0.5206 -0.3911 -0.5343
  791MOL0     C 9033   9.847   4.140   7.914  0.0148  0.4201 -0.2584
  791MOL0     C 9034   9.696   4.139   7.923  0.8401 -0.1446 -0.4248
  791MOL0     C 9035   9.657   4.180   8.067 -0.0731  1.6588  0.5487
  791MOL0     C 9036   9.514   4.143   8.098 -1.1160  0.1099 -0.0838
  791MOL0     N 9037   9.516   4.006   8.152  0.2810 -0.1322 -0.1831
  791MOL0     C 9038   9.598   3.957   8.253 -0.0750  0.2532  0.0777
  791MOL0     C 9039   9.588   3.830   8.246  0.3037 -0.5218  0.2087
  791MOL0     C 9040   9.676   3.737   8.326  1.5894 -0.8980 -0.3682
  791MOL0     C 9041   9.803   3.688   8.257 -0.2327 -0.3517 -0.3982
  791MOL0     C 9042   9.869   3.583   8.357 -0.0949  0.2522 -0.2654
  791MOL0     C 9043   9.967   3.636   8.454 -0.9708 -0.5942 -0.4832
  791MOL0     O 9044   9.895   3.698   8.558 -0.8212 -0.4281 -0.2254
  791MOL0     C 9045   9.830   3.620   8.651 -0.1873  0.0980  0.5141
  791MOL0     C 9046   9.857   3.499   8.693 -0.1395  0.6682  0.2692
  791MOL0     C 9047   9.771   3.416   8.778 -0.1331 -0.6812  0.0053
  791MOL0     C 9048   9.816   3.274   8.790 -0.2835 -0.2238 -1.1626
  791MOL0     C 9049   9.654   3.477   8.825  0.5483 -0.0123  0.7319
  791MOL0     C 9050   9.566   3.420   8.925 -0.3306  0.1227 -0.9781
  791MOL0     O 9051   9.614   3.335   9.017  0.4076  0.8226  0.1060
  791MOL0     C 9052   9.519   3.263   9.088 -0.2464  0.1454  0.2194
  791MOL0     C 9053   9.493   3.314   9.216  1.4186 -0.4924  0.9262
  791MOL0     C 9054   9.400   3.247   9.297 -0.2733  0.8637 -0.7808
  791MOL0     C 9055   9.322   3.135   9.243  0.3344 -0.0993  0.3084
  791MOL0     O 9056   9.243   3.060   9.315  0.1210 -0.3564 -0.1356
  791MOL0     C 9057   9.142   3.139   9.398 -1.0731  0.7461 -0.3808
  791MOL0     C 9058   9.096   3.037   9.504  0.3353 -0.4314 -0.9284
  791MOL0     C 9059   9.196   3.024   9.627  0.0214  0.4512  0.6493
  791MOL0     C 9060   9.119   2.946   9.729  0.5224 -0.2403  0.2699
  791MOL0     C 9061   9.207   2.929   9.849 -0.3949 -0.1035 -0.0279
  791MOL0     C 9062   9.142   2.848   9.966 -0.3786 -0.7616  0.6043
  791MOL0     C 9063   9.253   2.804  10.073  0.1919 -0.2056  0.9415
  791MOL0     C 9064   9.201   2.801  10.225 -0.6254  0.8240 -0.0362
  791MOL0    Cl 9065   9.053   2.709  10.249 -0.1454  0.2990  0.1480
  791MOL0     C 9066   9.342   3.091   9.111  0.3494 -0.3923 -0.3762
  791MOL0     C 9067   9.441   3.158   9.027 -0.4995  0.0063  0.0694
  791MOL0     O 9068   9.440   3.447   8.915 -0.0509 -0.3410  0.3699
  791MOL0     C 9069   9.633   3.610   8.782  0.0042  0.9954 -0.3667
  791MOL0     C 9070   9.720   3.677   8.696  0.8803 -0.9045 -0.6826
  791MOL0     N 9071   9.475   3.797   8.164 -0.4145  0.8244  1.0110
  791MOL0     N 9072   9.432   3.907   8.107  0.0667  0.6090 -0.3765
  791MOL0     C 9073  10.010   3.536   7.753  0.0698  1.1363  0.6079
  791MOL0     C 9074  10.011   3.396   7.774 -0.2136  0.3634 -0.5303
  791MOL0     C 9075  10.010   2.946   7.786  0.1450  0.3599  0.1558
  791MOL0     C 9076   9.977   2.852   7.883 -1.1203  0.0888 -0.1404
  791MOL0     C 9077   9.974   2.719   7.855 -0.4632  0.6149 -0.1840
  791MOL0     C 9078   9.993   2.667   7.733  0.2498  0.6841 -0.7117
  791MOL0     O 9079   9.987   2.532   7.732  0.6369 -0.3833 -0.3085
  791MOL0     C 9080   9.967   2.474   7.605  0.1114  0.1746  0.8387
  791MOL0     C 9081   9.965   2.326   7.627  0.7931 -0.0054  0.3190
  791MOL0     C 9082   9.960   2.259   7.487  0.4321  0.2011  0.4025
  791MOL0     C 9083   9.955   2.102   7.488 -0.3568 -0.4984 -0.5208
  791MOL0     C 9084   9.949   2.052   7.357 -0.1467 -0.3603 -0.1402
  791MOL0     C 9085   9.954   1.999   7.251  0.7062  0.1201  0.1315
  791MOL0     C 9086  10.009   2.757   7.628 -0.2169 -1.0277 -0.5740
  791MOL0     C 9087  10.018   2.893   7.652 -0.7034  0.0531 -0.2681
  791MOL0     C 9088  10.037   2.973   7.528  1.3697  0.2150 -0.1480
  791MOL0     H 9089  10.263   3.300   7.563  0.6625  3.4271 -1.2931
  791MOL0     H 9090  10.280   3.550   7.556  0.4275  0.2459 -0.1284
  791MOL0     H 9091  10.124   3.829   7.812  2.3422 -0.3545 -0.7971
  791MOL0     H 9092   9.958   3.815   7.746 -0.9945 -1.0342 -2.0545
  791MOL0     H 9093  10.176   3.973   7.619  0.4988 -0.2388 -1.6943
  791MOL0     H 9094  10.016   3.963   7.550  0.9770  2.0613 -0.2203
  791MOL0     H 9095  10.095   4.056   7.828  0.1060  0.4446 -0.9437
  791MOL0     H 9096  10.068   4.177   7.698  0.7202  0.5350  2.0061
  791MOL0     H 9097   9.868   4.190   7.714  2.3318 -0.1226 -0.9278
  791MOL0     H 9098   9.822   4.028   7.723  1.2808 -0.7931 -1.0855
  791MOL0     H 9099   9.872   4.241   7.945  0.8203  0.2453 -0.3080
  791MOL0     H 9100   9.877   4.069   7.991 -0.7110  2.8047  2.3829
  791MOL0     H 9101   9.650   4.204   7.848 -2.0747 -2.6288 -0.9951
  791MOL0     H 9102   9.650   4.042   7.898 -2.1160  0.7593  1.0604
  791MOL0     H 9103   9.670   4.287   8.085 -1.2361  1.6666  1.4716
  791MOL0     H 9104   9.728   4.132   8.135  0.8395 -0.6171 -1.8407
  791MOL0     H 9105   9.485   4.209   8.180  2.2187  2.5093 -0.6682
  791MOL0     H 9106   9.451   4.148   8.008  2.0312  2.6187 -2.3699
  791MOL0     H 9107   9.655   4.013   8.327 -1.6348  0.9365  0.8215
  791MOL0     H 9108   9.612   3.653   8.356 -1.4503  1.3359 -0.1319
  791MOL0     H 9109   9.703   3.787   8.419  1.0380  1.7800 -1.5483
  791MOL0     H 9110   9.783   3.643   8.160 -2.0492 -1.7720  0.5628
  791MOL0     H 9111   9.868   3.774   8.238  0.6266 -1.1771 -1.3030
  791MOL0     H 9112   9.792   3.526   8.408  0.5784 -0.5988 -0.1857
  791MOL0     H 9113   9.924   3.499   8.314  1.4610 -1.3641  4.3264
  791MOL0     H 9114  10.040   3.562   8.487  2.6997  2.5657 -0.8900
  791MOL0     H 9115  10.025   3.707   8.395 -0.6480  0.7614  1.4041
  791MOL0     H 9116   9.939   3.449   8.644 -1.7595 -1.8796 -0.0080
  791MOL0     H 9117   9.837   3.261   8.896  0.4091 -0.2679 -1.3006
  791MOL0     H 9118   9.906   3.264   8.728 -0.3587  1.8221 -1.6624
  791MOL0     H 9119   9.732   3.207   8.768  0.0056 -0.4584 -1.5742
  791MOL0     H 9120   9.552   3.399   9.249  1.3430  0.1525 -0.5065
  791MOL0     H 9121   9.401   3.268   9.403  2.8278  1.5664 -0.8259
  791MOL0     H 9122   9.191   3.222   9.448  0.0500  0.4628 -0.9895
  791MOL0     H 9123   9.062   3.179   9.335  0.8191  1.4472 -2.4282
  791MOL0     H 9124   8.997   3.069   9.535 -0.2030 -2.8400  0.0369
  791MOL0     H 9125   9.094   2.934   9.466  0.9175 -0.4316 -0.9785
  791MOL0     H 9126   9.237   3.117   9.669 -0.3355  2.2694 -2.6317
  791MOL0     H 9127   9.285   2.969   9.595 -0.8194  0.5732 -2.2323
  791MOL0     H 9128   9.084   2.851   9.687  0.1381 -0.4635  1.0769
  791MOL0     H 9129   9.029   2.998   9.764 -1.2478 -1.4322 -2.1670
  791MOL0     H 9130   9.286   2.861   9.818 -0.8357 -1.9602  2.6491
  791MOL0     H 9131   9.253   3.022   9.884  0.0348 -1.1140  2.2914
  791MOL0     H 9132   9.088   2.762   9.926 -2.6271  0.5534  0.6323
  791MOL0     H 9133   9.065   2.907  10.016  1.7418  0.7376  2.3320
  791MOL0     H 9134   9.344   2.864  10.069  0.4207 -0.4728  1.7791
  791MOL0     H 9135   9.276   2.700  10.045 -1.6996  0.1369 -2.3172
  791MOL0     H 9136   9.187   2.899  10.271 -0.7621  0.4057  0.8376
  791MOL0     H 9137   9.282   2.766  10.290  0.4648  0.5000 -1.5304
  791MOL0     H 9138   9.294   3.008   9.060 -1.2004  0.8352 -1.0098
  791MOL0     H 9139   9.457   3.137   8.922 -0.0118  2.1020 -0.3143
  791MOL0     H 9140   9.549   3.664   8.823 -0.9628 -1.8110  1.7102
  791MOL0     H 9141   9.698   3.772   8.648  2.2118 -1.4196 -2.4253
  791MOL0     H 9142   9.933   3.595   7.802  0.7944  2.3688  0.3166
  791MOL0     H 9143   9.926   3.356   7.830  0.9277 -2.9208 -0.9089
  791MOL0     H 9144   9.952   2.886   7.982  1.8921 -0.1969  0.8350
  791MOL0     H 9145   9.961   2.656   7.942 -1.6870  1.1816  0.0688
  791MOL0     H 9146   9.874   2.513   7.563 -0.6513 -2.2794  0.0847
  791MOL0     H 9147  10.039   2.504   7.528  1.7137  5.8755  3.9670
  791MOL0     H 9148   9.878   2.295   7.686 -0.9578  1.2255 -1.4863
  791MOL0     H 9149  10.051   2.294   7.687  0.8255  0.7441  0.6855
  791MOL0     H 9150   9.863   2.289   7.445  0.2957 -0.4612  0.2437
  791MOL0     H 9151  10.051   2.290   7.435  0.3561  1.6291  1.0503
  791MOL0     H 9152   9.875   2.055   7.546  0.7149 -2.8543 -0.8760
  791MOL0     H 9153  10.055   2.086   7.527 -0.5897  0.1601  0.3746
  791MOL0     H 9154   9.950   1.954   7.154  1.1190 -0.6907  0.4736
  791MOL0     H 9155  10.022   2.723   7.525 -0.0067 -0.0489 -0.8815
  791MOL0     H 9156  10.044   2.920   7.432  1.5393 -0.9739  0.4950
  791MOL0     H 9157   9.945   3.030   7.517 -1.1534 -2.2579  4.7924
  791MOL0     H 9158  10.119   3.045   7.527 -0.7205  2.7336 -1.7524
  792MOL0     O 9159   5.869   6.775  10.118  0.7987  0.5290  0.2306
  792MOL0     C 9160   5.829   6.764  10.230 -0.2401  0.6178  0.4424
  792MOL0     O 9161   5.906   6.799  10.336  0.7075  0.1774  0.3493
  792MOL0     C 9162   6.031   6.834  10.308  0.0444 -0.0889  0.6197
  792MOL0     C 9163   6.132   6.743  10.323  0.0687  0.0849  0.1576
  792MOL0     C 9164   6.268   6.781  10.302  0.0094  0.1067 -1.1249
  792MOL0     C 9165   6.290   6.912  10.261 -0.4689  0.9236 -0.4535
  792MOL0     O 9166   6.415   6.955  10.219 -0.1063 -0.3631  0.6637
  792MOL0     C 9167   6.523   6.861  10.227  0.2521  0.2805 -0.0968
  792MOL0     C 9168   6.654   6.896  10.149 -0.8441 -0.4103  0.5686
  792MOL0     C 9169   6.760   6.984  10.224 -0.3116  0.5004  0.5149
  792MOL0     C 9170   6.895   6.998  10.143 -0.7810 -0.4596 -0.6087
  792MOL0     C 9171   6.988   7.066  10.245  0.0583  0.2645 -0.1017
  792MOL0     C 9172   7.118   7.112  10.188  0.2918 -0.2835 -0.1499
  792MOL0     C 9173   7.195   7.193  10.292 -0.1177  0.0836  0.1912
  792MOL0     C 9174   7.122   7.323  10.323  0.0507 -0.1349  0.1041
  792MOL0     N 9175   7.213   7.414  10.396 -0.7047  1.0410 -0.3327
  792MOL0     C 9176   7.311   7.496  10.352 -0.2950  0.2612 -0.2468
  792MOL0     C 9177   7.371   7.549  10.464 -0.5470  0.1061  0.8442
  792MOL0     C 9178   7.494   7.638  10.485  0.3977  0.1213  0.3927
  792MOL0     C 9179   7.460   7.782  10.527  0.3760 -0.3909  0.4298
  792MOL0     C 9180   7.562   7.887  10.487 -0.1863 -0.0538 -0.3251
  792MOL0     C 9181   7.669   7.900  10.596 -0.1139  1.0914 -0.4965
  792MOL0     O 9182   7.732   7.773  10.610 -0.5405  0.0556  0.8632
  792MOL0     C 9183   7.855   7.771  10.672 -0.9486  1.0418 -1.1869
  792MOL0     C 9184   7.921   7.652  10.653  0.3387  0.2630 -0.4460
  792MOL0     C 9185   8.051   7.616  10.701 -0.2134 -0.2042  0.3482
  792MOL0     C 9186   8.090   7.470  10.687  0.0223 -0.6364  0.5244
  792MOL0     C 9187   8.119   7.719  10.779  0.2154  0.5723 -0.7517
  792MOL0     C 9188   8.239   7.686  10.865 -1.2357  0.3047  0.6058
  792MOL0     O 9189   8.259   7.777  10.957 -0.8618  0.2972  0.4074
  792MOL0     C 9190   8.382   7.780  11.023 -0.0383 -0.0670  0.3451
  792MOL0     C 9191   8.457   7.667  11.069 -0.5017  0.3395  0.0693
  792MOL0     C 9192   8.583   7.679  11.119 -0.0579 -1.0106 -0.4674
  792MOL0     C 9193   8.640   7.815  11.136 -0.1115  0.1950 -0.5719
  792MOL0     O 9194   8.771   7.834  11.181 -0.2351  0.4314 -0.1421
  792MOL0     C 9195   8.847   7.745  11.259  0.4075 -0.1737 -0.1438
  792MOL0     C 9196   8.984   7.811  11.268 -0.5013 -1.0997 -0.4424
  792MOL0     C 9197   9.097   7.713  11.297  0.1897 -0.2154  0.2022
  792MOL0     C 9198   9.108   7.684  11.446 -0.8406  0.3283 -0.0753
  792MOL0     C 9199   9.197   7.554  11.477 -0.0129 -0.7598  0.1698
  792MOL0     C 9200   9.343   7.599  11.457  1.2295  0.5904  0.3749
  792MOL0     C 9201   9.453   7.496  11.468 -1.4141 -0.2235  0.1434
  792MOL0     C 9202   9.582   7.569  11.462 -0.9532 -0.6133 -0.2077
  792MOL0    Cl 9203   9.719   7.451  11.475  0.0830  0.2579 -0.0955
  792MOL0     C 9204   8.561   7.924  11.097  1.0689  0.1506 -0.0429
  792MOL0     C 9205   8.439   7.904  11.041  0.0439  0.3086  0.1611
  792MOL0     O 9206   8.322   7.607  10.818  0.0602  0.2420  0.0276
  792MOL0     C 9207   8.050   7.846  10.791 -0.3674  0.4172 -0.3054
  792MOL0     C 9208   7.922   7.871  10.748 -1.1841 -0.1855  0.0894
  792MOL0     N 9209   7.297   7.505  10.572 -0.7356 -0.2164 -0.3163
  792MOL0     N 9210   7.210   7.421  10.528 -0.3411 -0.1556 -0.7281
  792MOL0     C 9211   6.189   7.006  10.255 -0.2018  0.6049  0.3067
  792MOL0     C 9212   6.058   6.975  10.280 -0.1831 -0.1621  0.3284
  792MOL0     C 9213   5.697   6.709  10.246 -1.2342 -0.1230  0.5745
  792MOL0     C 9214   5.657   6.602  10.173  0.2614 -0.1921 -0.2318
  792MOL0     C 9215   5.531   6.545  10.189  0.3202  0.2318  0.3080
  792MOL0     C 9216   5.431   6.605  10.268 -0.0603 -0.7692  0.2833
  792MOL0     O 9217   5.298   6.568  10.264 -1.0168 -0.7731 -0.0588
  792MOL0     C 9218   5.261   6.438  10.219  0.6193 -0.1835 -0.7859
  792MOL0     C 9219   5.112   6.421  10.215 -0.3816 -0.2505  0.2727
  792MOL0     C 9220   5.050   6.479  10.349  0.6204  0.0572 -0.1658
  792MOL0     C 9221   4.894   6.462  10.349  0.6007  0.7100  0.4115
  792MOL0     C 9222   4.843   6.325  10.324 -0.3762  0.0020  0.8964
  792MOL0     C 9223   4.812   6.212  10.313  0.2584  0.0780 -0.0257
  792MOL0     C 9224   5.478   6.713  10.342  0.2060 -1.0757  0.6088
  792MOL0     C 9225   5.607   6.767  10.334 -1.1912 -0.0436 -0.1149
  792MOL0     C 9226   5.638   6.890  10.402 -0.2609  0.4401  0.4418
  792MOL0     H 9227   6.101   6.646  10.362 -1.5342  0.8882  1.0129
  792MOL0     H 9228   6.343   6.705  10.323 -0.3516  0.4669  1.9380
  792MOL0     H 9229   6.489   6.766  10.187  1.6936  0.1038 -0.9770
  792MOL0     H 9230   6.548   6.848  10.332  2.5122  1.5859 -0.3935
  792MOL0     H 9231   6.704   6.799  10.140  1.8129  0.9254 -0.1029
  792MOL0     H 9232   6.622   6.938  10.054  0.8178 -0.2472  0.0468
  792MOL0     H 9233   6.721   7.085  10.239  1.2965  1.1212  0.7325
  792MOL0     H 9234   6.771   6.941  10.324 -2.7164  0.7616  0.9475
  792MOL0     H 9235   6.931   6.901  10.107  2.3227  0.4793 -0.2680
  792MOL0     H 9236   6.873   7.055  10.052  0.4288  0.0091 -0.6147
  792MOL0     H 9237   7.007   7.001  10.331  2.2645  0.1638 -0.6263
  792MOL0     H 9238   6.930   7.150  10.286  1.6334  3.2558 -3.5155
  792MOL0     H 9239   7.163   7.014  10.172 -1.1659 -1.1389  0.6912
  792MOL0     H 9240   7.107   7.173  10.098 -2.8437 -1.6757 -0.8491
  792MOL0     H 9241   7.294   7.217  10.253  1.9980 -0.8128  4.4603
  792MOL0     H 9242   7.210   7.131  10.381 -3.1785  2.9225  2.9410
  792MOL0     H 9243   7.085   7.385  10.241 -0.3906  0.3602  0.6728
  792MOL0     H 9244   7.035   7.303  10.386 -0.3577  2.8950  0.6502
  792MOL0     H 9245   7.341   7.506  10.248 -0.4505 -1.3219 -0.4697
  792MOL0     H 9246   7.551   7.644  10.391  2.7829  1.0436  1.8041
  792MOL0     H 9247   7.564   7.583  10.550  1.5498 -0.4151 -1.2293
  792MOL0     H 9248   7.365   7.800  10.477  0.7498 -1.7883 -0.8780
  792MOL0     H 9249   7.444   7.778  10.635  0.9185  1.1883  0.5923
  792MOL0     H 9250   7.615   7.861  10.395  1.3922  2.2820 -0.1640
  792MOL0     H 9251   7.505   7.980  10.475 -0.6421 -0.0587  1.6087
  792MOL0     H 9252   7.743   7.973  10.563 -0.6674  1.3307 -1.2537
  792MOL0     H 9253   7.631   7.935  10.692  1.9982  1.2609  0.3116
  792MOL0     H 9254   7.871   7.573  10.598  1.0693 -1.3598  1.1230
  792MOL0     H 9255   8.014   7.414  10.741 -1.0010 -0.9769 -1.1809
  792MOL0     H 9256   8.187   7.458  10.736  0.4609  0.7134  0.0565
  792MOL0     H 9257   8.094   7.425  10.587  2.6641 -2.9882  1.5565
  792MOL0     H 9258   8.404   7.574  11.053  0.2346 -1.0751  4.4357
  792MOL0     H 9259   8.649   7.594  11.129  1.3488  0.0462 -0.5705
  792MOL0     H 9260   8.808   7.739  11.361  0.6619 -0.3434 -0.0537
  792MOL0     H 9261   8.852   7.643  11.218  0.7471 -1.5163  2.9321
  792MOL0     H 9262   8.999   7.856  11.170  2.6241  0.1101  0.4775
  792MOL0     H 9263   8.986   7.885  11.348  0.4058 -1.1747 -0.3891
  792MOL0     H 9264   9.194   7.763  11.290  0.3787 -0.8014 -2.2362
  792MOL0     H 9265   9.083   7.624  11.235  0.1833 -1.5205  1.9918
  792MOL0     H 9266   9.009   7.657  11.486 -0.9925  0.1268 -0.5835
  792MOL0     H 9267   9.150   7.768  11.503 -1.2729  0.1610  0.5090
  792MOL0     H 9268   9.196   7.523  11.582  0.1432 -0.5056  0.2470
  792MOL0     H 9269   9.156   7.476  11.412 -1.0650  1.1393 -1.6045
  792MOL0     H 9270   9.351   7.677  11.534  0.9767 -0.7264  1.7950
  792MOL0     H 9271   9.362   7.644  11.359  1.4188 -3.5841 -1.7013
  792MOL0     H 9272   9.459   7.434  11.379  0.4810 -2.7686  1.8982
  792MOL0     H 9273   9.449   7.440  11.562  1.1681  0.4123  0.6888
  792MOL0     H 9274   9.586   7.642  11.544 -3.7730 -1.4327  0.7635
  792MOL0     H 9275   9.596   7.618  11.365  1.5485 -4.2745 -1.9043
  792MOL0     H 9276   8.606   8.021  11.081  4.0643 -1.0875  0.2731
  792MOL0     H 9277   8.381   7.985  10.999 -0.9278 -0.5866 -0.2735
  792MOL0     H 9278   8.102   7.919  10.853  0.4889 -0.4827  0.0702
  792MOL0     H 9279   7.870   7.962  10.777  0.4053  0.8783 -0.2309
  792MOL0     H 9280   6.226   7.101  10.218  0.4996  0.4231  0.5258
  792MOL0     H 9281   5.979   7.048  10.270 -0.4176 -0.4374  0.1441
  792MOL0     H 9282   5.715   6.564  10.090  0.9540  1.4201 -0.5182
  792MOL0     H 9283   5.499   6.463  10.125  1.0164 -1.5016  2.0600
  792MOL0     H 9284   5.279   6.423  10.112 -1.5401 -1.8677 -0.9997
  792MOL0     H 9285   5.311   6.356  10.273 -0.3316  1.3131  2.6267
  792MOL0     H 9286   5.081   6.322  10.180  1.2741 -0.5300 -0.5073
  792MOL0     H 9287   5.076   6.491  10.139  2.4792  4.0414  2.4747
  792MOL0     H 9288   5.097   6.418  10.428  1.8244  1.0843 -0.0432
  792MOL0     H 9289   5.075   6.584  10.366 -3.5789  1.3276 -0.9347
  792MOL0     H 9290   4.846   6.529  10.277 -0.1455  0.6697  0.8545
  792MOL0     H 9291   4.854   6.485  10.448 -0.0861  0.5836  0.1702
  792MOL0     H 9292   4.799   6.109  10.288 -1.6002  0.5384 -1.1003
  792MOL0     H 9293   5.402   6.770  10.396  0.9661  1.0169 -0.4203
  792MOL0     H 9294   5.692   6.858  10.492  0.8339  1.0103  0.0133
  792MOL0     H 9295   5.708   6.953  10.347  0.1938 -0.4655 -0.0331
  792MOL0     H 9296   5.545   6.945  10.416  1.2072  2.5459  2.7588
  793MOL0     O 9297   6.944   0.304   2.612  0.0284  0.1972  0.2831
  793MOL0     C 9298   7.020   0.398   2.645  0.1890  0.4521 -0.3912
  793MOL0     O 9299   7.112   0.390   2.743 -0.4493 -0.1177  0.4163
  793MOL0     C 9300   7.158   0.270   2.795 -1.1412  0.4538 -0.1508
  793MOL0     C 9301   7.242   0.290   2.909  1.4954  1.2219 -0.6265
  793MOL0     C 9302   7.308   0.177   2.965 -0.7563 -0.1806  0.8909
  793MOL0     C 9303   7.291   0.042   2.923 -0.0347  0.5448 -0.9835
  793MOL0     O 9304   7.343  -0.073   2.982 -0.2837  0.3954 -0.5074
  793MOL0     C 9305   7.307  -0.099   3.115 -0.8794 -0.0012  0.0068
  793MOL0     C 9306   7.434  -0.061   3.203  0.1018 -0.2349 -0.8132
  793MOL0     C 9307   7.405  -0.056   3.354  0.5274 -0.6841 -0.6774
  793MOL0     C 9308   7.546  -0.027   3.418  0.8023 -0.4471  0.1625
  793MOL0     C 9309   7.612   0.119   3.398 -0.0062 -0.3423  0.1658
  793MOL0     C 9310   7.734   0.135   3.489 -0.5480  0.5446  0.2999
  793MOL0     C 9311   7.785   0.276   3.457 -0.2099  0.5278  0.3836
  793MOL0     C 9312   7.933   0.296   3.458 -0.7530 -0.2356 -0.4797
  793MOL0     N 9313   7.997   0.417   3.409 -0.3688  0.4785  0.5869
  793MOL0     C 9314   7.929   0.529   3.375 -0.3814 -0.9476 -0.0385
  793MOL0     C 9315   8.026   0.619   3.335  0.5710  0.3867 -0.0808
  793MOL0     C 9316   7.996   0.767   3.288 -0.5771  0.0493  0.5844
  793MOL0     C 9317   8.109   0.864   3.262 -1.3376 -0.4995 -0.1960
  793MOL0     C 9318   8.175   0.841   3.124 -0.0879 -0.4734  0.5690
  793MOL0     C 9319   8.080   0.859   3.004  0.0998  0.2811  0.9264
  793MOL0     O 9320   7.961   0.938   3.022 -0.2010 -0.6809  0.4690
  793MOL0     C 9321   7.981   1.065   2.977  0.1356  0.2043  0.9352
  793MOL0     C 9322   8.094   1.139   2.990  0.7140 -0.2360 -0.1068
  793MOL0     C 9323   8.103   1.279   2.971  0.3065 -0.7774  0.9767
  793MOL0     C 9324   8.224   1.352   3.018 -0.0245  0.3160 -0.4876
  793MOL0     C 9325   7.984   1.343   2.914 -0.6789  0.4060  0.0355
  793MOL0     C 9326   7.979   1.486   2.882 -0.4338 -0.2343  0.1367
  793MOL0     O 9327   7.855   1.535   2.848 -0.5084 -0.1074 -0.3333
  793MOL0     C 9328   7.850   1.670   2.809  0.2717  0.3964  1.0002
  793MOL0     C 9329   7.797   1.684   2.672 -0.2262 -0.2692 -0.1663
  793MOL0     C 9330   7.770   1.817   2.635 -0.1556 -0.4040 -0.8344
  793MOL0     C 9331   7.793   1.928   2.731  0.2498  0.3126  0.1809
  793MOL0     O 9332   7.766   2.061   2.693  0.1715  0.2841  0.3479
  793MOL0     C 9333   7.821   2.115   2.579 -0.6973 -0.9873  0.1351
  793MOL0     C 9334   7.973   2.130   2.580  0.1404  0.0976 -0.1395
  793MOL0     C 9335   8.025   2.225   2.468 -0.2128  0.7249  0.5556
  793MOL0     C 9336   7.997   2.166   2.321  0.0697  0.9860 -0.5239
  793MOL0     C 9337   7.878   2.225   2.246  0.4708  0.5209  0.3284
  793MOL0     C 9338   7.810   2.129   2.155  1.4207 -0.3935  1.4277
  793MOL0     C 9339   7.707   2.026   2.198  0.6776  0.3055  0.0024
  793MOL0     C 9340   7.627   1.948   2.092 -0.6215 -0.9764  0.5912
  793MOL0    Cl 9341   7.500   1.857   2.181  0.5875 -0.5030 -0.4419
  793MOL0     C 9342   7.827   1.909   2.860 -0.7345  0.4976 -0.7086
  793MOL0     C 9343   7.864   1.778   2.901 -0.2531  0.2963 -0.6416
  793MOL0     O 9344   8.080   1.559   2.883  0.1567 -0.5656 -0.1389
  793MOL0     C 9345   7.873   1.258   2.884 -0.7358 -0.1276  0.2138
  793MOL0     C 9346   7.878   1.125   2.906 -0.0176  0.0932 -0.1687
  793MOL0     N 9347   8.146   0.560   3.342 -0.5675  0.2660  0.0471
  793MOL0     N 9348   8.131   0.436   3.380 -0.1541 -0.6739 -0.0056
  793MOL0     C 9349   7.201   0.027   2.815 -0.9023  0.3738 -0.0959
  793MOL0     C 9350   7.138   0.136   2.759  0.6988  0.3360  1.0442
  793MOL0     C 9351   7.011   0.537   2.593 -0.2336  0.1178  0.5246
  793MOL0     C 9352   7.091   0.637   2.642  0.3533 -0.1502 -0.0893
  793MOL0     C 9353   7.110   0.762   2.585 -0.3031 -0.0973  0.4545
  793MOL0     C 9354   7.036   0.787   2.467  0.9144  0.5177 -0.1649
  793MOL0     O 9355   7.071   0.902   2.405  0.5526  0.4848 -0.2982
  793MOL0     C 9356   7.016   0.948   2.283  0.6159 -0.4800 -0.6052
  793MOL0     C 9357   7.086   1.068   2.233  0.0096  0.0623 -0.6290
  793MOL0     C 9358   7.200   1.028   2.141  1.0430  0.2071  0.1450
  793MOL0     C 9359   7.285   1.141   2.085 -0.5398  0.4528  0.3523
  793MOL0     C 9360   7.421   1.093   2.046  0.0482 -0.5451 -0.0781
  793MOL0     C 9361   7.527   1.036   2.018  1.1849 -0.5805  0.2440
  793MOL0     C 9362   6.944   0.699   2.420  0.3141  0.1980 -0.5779
  793MOL0     C 9363   6.930   0.574   2.487 -0.0261  0.6384  0.5462
  793MOL0     C 9364   6.824   0.482   2.410  0.3767 -0.4959 -0.3432
  793MOL0     H 9365   7.247   0.390   2.952 -0.9526  0.6834  1.1199
  793MOL0     H 9366   7.366   0.200   3.054  1.4406  0.2791 -0.5896
  793MOL0     H 9367   7.282  -0.203   3.135  0.5763 -1.0032 -2.7779
  793MOL0     H 9368   7.226  -0.038   3.156  2.5988  3.2089  2.8722
  793MOL0     H 9369   7.503  -0.144   3.186  0.5548  0.4726 -2.6039
  793MOL0     H 9370   7.471   0.036   3.171 -2.6342  0.4273 -2.2823
  793MOL0     H 9371   7.340   0.030   3.371  0.9225 -0.4140 -0.5036
  793MOL0     H 9372   7.354  -0.142   3.397 -0.3314  0.8804  1.6153
  793MOL0     H 9373   7.531  -0.040   3.525 -0.6453  0.5750  0.1104
  793MOL0     H 9374   7.610  -0.110   3.388 -0.5954 -0.0334 -4.9079
  793MOL0     H 9375   7.545   0.205   3.411  0.5836 -0.1387  2.0848
  793MOL0     H 9376   7.651   0.121   3.296 -1.4044  0.6880 -0.3877
  793MOL0     H 9377   7.703   0.118   3.593 -0.6151 -0.8022  0.0810
  793MOL0     H 9378   7.803   0.053   3.464 -0.9300  0.6280 -1.1236
  793MOL0     H 9379   7.740   0.353   3.519 -0.1143  0.6498  0.3034
  793MOL0     H 9380   7.753   0.291   3.354  2.1742 -5.5760 -1.6898
  793MOL0     H 9381   7.966   0.278   3.561  0.9573 -0.1280 -0.9741
  793MOL0     H 9382   7.982   0.218   3.398  3.6914 -0.8748  3.3605
  793MOL0     H 9383   7.823   0.551   3.383  0.0370  1.1546  0.3858
  793MOL0     H 9384   7.934   0.810   3.367  0.7341  1.5330  0.8402
  793MOL0     H 9385   7.938   0.763   3.195  1.6800 -0.4794 -0.8671
  793MOL0     H 9386   8.069   0.964   3.279 -1.9574 -0.5540 -1.2207
  793MOL0     H 9387   8.183   0.850   3.341 -2.6319 -2.2676  0.7874
  793MOL0     H 9388   8.259   0.909   3.110 -1.2951  0.9254 -0.1396
  793MOL0     H 9389   8.223   0.743   3.121 -0.9043 -0.9683 -3.7915
  793MOL0     H 9390   8.136   0.901   2.919  1.7260 -1.1088  1.2673
  793MOL0     H 9391   8.043   0.759   2.979 -3.0945  1.7671 -0.9798
  793MOL0     H 9392   8.182   1.102   3.041 -0.0510  1.1412  2.3737
  793MOL0     H 9393   8.201   1.433   3.087 -1.6079  1.5150 -2.3274
  793MOL0     H 9394   8.286   1.400   2.941  1.1660 -0.1347  0.1642
  793MOL0     H 9395   8.286   1.279   3.071 -1.7921 -1.7266 -1.0630
  793MOL0     H 9396   7.782   1.593   2.616  1.9643 -0.5014 -0.4708
  793MOL0     H 9397   7.735   1.829   2.533  1.6566  3.4227 -1.1905
  793MOL0     H 9398   7.800   2.050   2.494 -1.6970 -0.2060 -0.2270
  793MOL0     H 9399   7.781   2.217   2.571 -2.4333 -1.6833 -0.6196
  793MOL0     H 9400   7.995   2.171   2.679 -0.2959  0.5576 -0.2278
  793MOL0     H 9401   8.018   2.031   2.571  0.0821 -0.1636  1.9991
  793MOL0     H 9402   8.132   2.249   2.476 -0.3545  1.0450  1.6365
  793MOL0     H 9403   7.965   2.316   2.475 -1.8660 -0.3078  0.3628
  793MOL0     H 9404   7.979   2.059   2.334 -1.3684  1.1554 -1.0460
  793MOL0     H 9405   8.086   2.184   2.260  1.3691 -2.2901  0.1882
  793MOL0     H 9406   7.806   2.266   2.317 -1.4968 -1.9267 -0.1289
  793MOL0     H 9407   7.923   2.311   2.196 -0.7315  1.0098  0.0686
  793MOL0     H 9408   7.887   2.074   2.100  2.8887 -0.0598  3.0621
  793MOL0     H 9409   7.775   2.191   2.072  0.0656 -0.3431  2.0122
  793MOL0     H 9410   7.629   2.069   2.261 -0.5922  0.8029 -1.8121
  793MOL0     H 9411   7.761   1.953   2.259 -2.0266 -2.1468 -0.3417
  793MOL0     H 9412   7.701   1.887   2.040  0.8081  2.3970 -1.6267
  793MOL0     H 9413   7.576   2.013   2.020 -0.6619 -0.6742  0.8916
  793MOL0     H 9414   7.846   1.989   2.931  1.9546  0.5365 -1.3569
  793MOL0     H 9415   7.897   1.754   3.001 -1.3084  2.5932  0.3461
  793MOL0     H 9416   7.783   1.311   2.855 -0.1201  2.2511  2.2854
  793MOL0     H 9417   7.784   1.073   2.889 -0.3119  1.2194 -2.4866
  793MOL0     H 9418   7.184  -0.075   2.783 -1.4648  0.7904 -1.1666
  793MOL0     H 9419   7.078   0.107   2.674  0.5774  0.2969  1.1423
  793MOL0     H 9420   7.154   0.616   2.729  1.2207  1.3344 -0.3054
  793MOL0     H 9421   7.178   0.838   2.622  1.5015 -0.5503 -1.7556
  793MOL0     H 9422   7.001   0.868   2.209 -2.6259 -1.8181  1.2723
  793MOL0     H 9423   6.911   0.973   2.302  0.2545 -0.5767 -2.2945
  793MOL0     H 9424   7.130   1.111   2.324 -0.2132 -4.5430  1.9931
  793MOL0     H 9425   7.008   1.125   2.183 -1.2730  0.4587  1.6978
  793MOL0     H 9426   7.263   0.971   2.211  0.6332  0.9516  1.1399
  793MOL0     H 9427   7.166   0.974   2.052 -0.9286 -0.5922  1.3136
  793MOL0     H 9428   7.302   1.221   2.158 -2.6441 -0.3740  1.8382
  793MOL0     H 9429   7.251   1.173   1.986  2.3381 -2.8479 -1.9449
  793MOL0     H 9430   7.618   0.985   1.992  2.1044  1.5105 -0.9494
  793MOL0     H 9431   6.890   0.710   2.326  0.4672 -0.5615 -0.7616
  793MOL0     H 9432   6.738   0.479   2.477  2.3285 -2.9966  2.3065
  793MOL0     H 9433   6.786   0.518   2.314  0.3398  2.2326  0.6198
  793MOL0     H 9434   6.867   0.383   2.390  0.7037 -0.2812 -0.7059
  794MOL0     O 9435   4.496  11.481   9.364  0.3104 -0.3111  0.4675
  794MOL0     C 9436   4.498  11.450   9.245  1.0138  1.0254 -0.1228
  794MOL0     O 9437   4.502  11.539   9.145  0.3643  0.2607 -0.7856
  794MOL0     C 9438   4.510  11.675   9.183  0.5100  0.2467 -0.7822
  794MOL0     C 9439   4.393  11.751   9.192  0.0543 -0.1593 -0.3672
  794MOL0     C 9440   4.400  11.883   9.229  0.8190 -0.3672  0.4113
  794MOL0     C 9441   4.518  11.942   9.275 -0.4570  0.2447 -0.6342
  794MOL0     O 9442   4.518  12.074   9.333 -0.7616  0.5520  0.0673
  794MOL0     C 9443   4.402  12.160   9.313  0.2236  0.1665 -0.6365
  794MOL0     C 9444   4.378  12.205   9.175  0.3830 -0.1534 -0.2973
  794MOL0     C 9445   4.462  12.328   9.151  0.3462 -0.6566  0.5294
  794MOL0     C 9446   4.501  12.370   9.000 -0.1271 -0.2975  0.1344
  794MOL0     C 9447   4.592  12.505   9.008  0.1160  0.0208 -0.5931
  794MOL0     C 9448   4.639  12.558   8.871 -0.0440  0.2596 -0.2761
  794MOL0     C 9449   4.684  12.703   8.887  0.2997  0.4389 -0.7175
  794MOL0     C 9450   4.742  12.762   8.754  0.0675  0.7262  0.2638
  794MOL0     N 9451   4.765  12.910   8.763 -0.3819  0.2205 -0.5161
  794MOL0     C 9452   4.675  13.003   8.805 -0.1107  0.2431 -0.0549
  794MOL0     C 9453   4.743  13.123   8.786 -0.3275  0.6104  0.1722
  794MOL0     C 9454   4.694  13.262   8.798  0.9503 -0.6216 -0.1312
  794MOL0     C 9455   4.761  13.340   8.916 -0.3051  0.4722 -0.1189
  794MOL0     C 9456   4.918  13.343   8.923 -0.6413  0.0596  0.2573
  794MOL0     C 9457   4.974  13.419   8.805 -0.2061 -0.0291  0.1657
  794MOL0     O 9458   5.120  13.427   8.810 -0.3901  0.2871 -0.8540
  794MOL0     C 9459   5.175  13.409   8.687 -0.3860 -0.4231  0.0018
  794MOL0     C 9460   5.266  13.505   8.634 -0.0192  0.7288  0.8787
  794MOL0     C 9461   5.325  13.503   8.501  0.7082  0.0063 -0.2281
  794MOL0     C 9462   5.415  13.609   8.455 -0.6806 -0.1467  0.1562
  794MOL0     C 9463   5.287  13.386   8.422 -0.4996 -0.1038  0.0991
  794MOL0     C 9464   5.331  13.368   8.282  0.0838 -0.2846  0.2853
  794MOL0     O 9465   5.260  13.278   8.210  0.1330  0.3031  0.1813
  794MOL0     C 9466   5.286  13.268   8.075 -0.0735  0.0798  0.6148
  794MOL0     C 9467   5.407  13.232   8.022  0.5448 -0.1869 -0.1991
  794MOL0     C 9468   5.434  13.252   7.891  0.2712  0.4748  0.0751
  794MOL0     C 9469   5.341  13.287   7.802  0.7271  0.0656  0.3642
  794MOL0     O 9470   5.360  13.297   7.671  0.0756  0.3817 -0.7371
  794MOL0     C 9471   5.320  13.185   7.589 -0.0911  0.6983  0.9340
  794MOL0     C 9472   5.341  13.241   7.452 -0.2515 -0.6969  0.6861
  794MOL0     C 9473   5.266  13.385   7.429 -0.1291 -0.0877 -0.5138
  794MOL0     C 9474   5.260  13.389   7.276  0.3066 -0.8838  0.6524
  794MOL0     C 9475   5.149  13.490   7.232 -0.5141 -0.6335  0.0215
  794MOL0     C 9476   5.016  13.461   7.287 -0.4431 -0.5446  0.2620
  794MOL0     C 9477   4.906  13.538   7.208  0.0461  0.2254 -0.3787
  794MOL0     C 9478   4.878  13.683   7.258 -0.2834  0.7827  0.3569
  794MOL0    Cl 9479   4.746  13.735   7.145 -0.4259  0.6325 -0.0622
  794MOL0     C 9480   5.213  13.306   7.847  0.5103 -0.6665 -0.3231
  794MOL0     C 9481   5.187  13.305   7.992  0.2340 -0.8167  0.4238
  794MOL0     O 9482   5.428  13.432   8.243 -0.1756 -0.0683  0.6350
  794MOL0     C 9483   5.208  13.288   8.479  0.2922  0.7434 -0.1688
  794MOL0     C 9484   5.154  13.294   8.605  1.2415 -0.9182 -0.1875
  794MOL0     N 9485   4.865  13.093   8.727 -0.3059 -0.1523  0.4362
  794MOL0     N 9486   4.873  12.970   8.715 -0.3636  0.2815  1.1376
  794MOL0     C 9487   4.646  11.870   9.270 -0.2403  0.2834 -0.1204
  794MOL0     C 9488   4.629  11.736   9.223 -0.3151 -0.8994 -0.1040
  794MOL0     C 9489   4.497  11.304   9.201  0.4555 -0.0587 -0.1250
  794MOL0     C 9490   4.486  11.277   9.067  0.0874  0.1617  0.7337
  794MOL0     C 9491   4.481  11.140   9.018 -0.2976 -0.0390 -0.8024
  794MOL0     C 9492   4.485  11.037   9.108 -0.0087 -0.4419 -0.4660
  794MOL0     O 9493   4.485  10.904   9.066  0.2099  0.3461  0.8542
  794MOL0     C 9494   4.375  10.844   8.989 -0.8541  0.3336 -0.3950
  794MOL0     C 9495   4.310  10.715   9.042  0.5366 -0.2261  0.3760
  794MOL0     C 9496   4.372  10.591   8.983  0.1310 -0.7660 -0.2415
  794MOL0     C 9497   4.294  10.476   9.036 -0.3743 -0.8083 -0.3666
  794MOL0     C 9498   4.161  10.469   8.981  0.0923 -0.1356 -0.3870
  794MOL0     C 9499   4.055  10.465   8.931 -0.2136  0.2135  0.6355
  794MOL0     C 9500   4.508  11.065   9.247  0.4460  1.1735 -0.5992
  794MOL0     C 9501   4.503  11.193   9.289 -0.2495  0.2991  0.7078
  794MOL0     C 9502   4.544  11.203   9.437  0.1760  0.6560  0.8054
  794MOL0     H 9503   4.292  11.715   9.174 -1.3456  2.6747  1.1053
  794MOL0     H 9504   4.309  11.942   9.228  0.9438 -0.1743  0.2057
  794MOL0     H 9505   4.428  12.252   9.366  1.7091  0.0046 -1.0331
  794MOL0     H 9506   4.312  12.112   9.351  0.9644 -1.3521 -0.7075
  794MOL0     H 9507   4.392  12.121   9.107  0.6143 -1.3527  1.1771
  794MOL0     H 9508   4.273  12.233   9.160  0.3143 -1.2256 -2.1999
  794MOL0     H 9509   4.418  12.418   9.195  0.7458 -0.9624  1.5805
  794MOL0     H 9510   4.556  12.317   9.204  0.5289 -2.1752 -0.0633
  794MOL0     H 9511   4.560  12.284   8.968  0.8981 -0.8951  3.2407
  794MOL0     H 9512   4.410  12.387   8.942 -0.2821 -4.1994 -1.0195
  794MOL0     H 9513   4.679  12.495   9.073 -2.1993  1.9170  3.1399
  794MOL0     H 9514   4.532  12.584   9.055  0.0762 -1.0646  1.2361
  794MOL0     H 9515   4.725  12.503   8.832 -1.7396 -1.2017 -2.1395
  794MOL0     H 9516   4.558  12.558   8.798  0.1511 -1.6808 -0.5498
  794MOL0     H 9517   4.762  12.712   8.963 -2.8260  3.1996  2.5320
  794MOL0     H 9518   4.610  12.767   8.934  2.1376  3.1706 -1.2891
  794MOL0     H 9519   4.834  12.709   8.727 -0.8255 -0.1402 -1.2230
  794MOL0     H 9520   4.670  12.741   8.674 -2.2559  0.9739  2.1629
  794MOL0     H 9521   4.575  12.976   8.838 -0.1642  0.7060  0.1617
  794MOL0     H 9522   4.586  13.261   8.812  0.6855 -2.4517 -1.8247
  794MOL0     H 9523   4.703  13.320   8.705 -2.8124  0.6238  0.1261
  794MOL0     H 9524   4.729  13.445   8.915  1.2009  1.0796  2.7862
  794MOL0     H 9525   4.738  13.295   9.013  0.4733  1.8315  0.7356
  794MOL0     H 9526   4.956  13.390   9.013  0.9094  2.2202 -1.4221
  794MOL0     H 9527   4.945  13.237   8.930 -0.6527  0.1700  2.6252
  794MOL0     H 9528   4.946  13.370   8.711  2.0857  0.7837 -1.0419
  794MOL0     H 9529   4.924  13.515   8.818  1.0032  0.8488 -1.2479
  794MOL0     H 9530   5.273  13.588   8.704 -0.6582  0.2024  1.5926
  794MOL0     H 9531   5.435  13.686   8.530  1.1701  0.1552 -0.5958
  794MOL0     H 9532   5.371  13.659   8.368 -0.6216 -0.3941 -0.0194
  794MOL0     H 9533   5.506  13.568   8.411  0.1170  1.5118  0.1782
  794MOL0     H 9534   5.495  13.209   8.082 -0.2195 -0.0300  1.0165
  794MOL0     H 9535   5.535  13.234   7.854 -0.5782  1.3832 -2.9773
  794MOL0     H 9536   5.396  13.109   7.607 -0.0722 -0.5337 -3.2182
  794MOL0     H 9537   5.218  13.152   7.610 -0.6173 -0.0175 -2.1468
  794MOL0     H 9538   5.447  13.263   7.440 -0.2758  0.0164  1.5942
  794MOL0     H 9539   5.305  13.168   7.379 -1.2170  2.9587 -2.8620
  794MOL0     H 9540   5.317  13.476   7.464 -2.7086  0.8188  1.1892
  794MOL0     H 9541   5.166  13.387   7.474  0.7450  0.8003  1.5354
  794MOL0     H 9542   5.256  13.290   7.231  1.2497 -1.9427  2.7422
  794MOL0     H 9543   5.353  13.434   7.240  1.1297 -2.1955  1.0601
  794MOL0     H 9544   5.183  13.591   7.257 -0.5432  0.1877 -2.9141
  794MOL0     H 9545   5.147  13.492   7.123  1.9030 -0.1913 -0.0677
  794MOL0     H 9546   5.005  13.491   7.392  0.7477 -2.0114  0.8528
  794MOL0     H 9547   4.996  13.355   7.269 -0.7556 -0.1876 -1.6202
  794MOL0     H 9548   4.815  13.478   7.207 -0.1797  0.5697 -0.9562
  794MOL0     H 9549   4.937  13.534   7.104  2.5124  2.9701  0.1139
  794MOL0     H 9550   4.965  13.747   7.267  1.1355 -1.1350  0.9178
  794MOL0     H 9551   4.830  13.684   7.357  0.3138 -0.2157  0.6784
  794MOL0     H 9552   5.131  13.317   7.777  1.6517  0.6905 -1.5098
  794MOL0     H 9553   5.099  13.329   8.050  0.0896 -0.0125 -0.1137
  794MOL0     H 9554   5.174  13.203   8.420 -0.4727  0.4115  0.7267
  794MOL0     H 9555   5.087  13.218   8.644 -0.6918 -0.1655 -1.8352
  794MOL0     H 9556   4.742  11.902   9.309  1.7257 -2.7681 -2.0371
  794MOL0     H 9557   4.714  11.670   9.214 -0.5590 -1.5932  2.0941
  794MOL0     H 9558   4.463  11.360   9.002 -1.1093  0.8689  2.0146
  794MOL0     H 9559   4.470  11.123   8.912  2.6829 -1.2075 -1.0165
  794MOL0     H 9560   4.296  10.917   8.974 -0.4756  0.6305 -1.0024
  794MOL0     H 9561   4.416  10.820   8.890  1.0290 -0.4973  0.5328
  794MOL0     H 9562   4.201  10.707   9.033  0.4552  1.1944 -0.1744
  794MOL0     H 9563   4.332  10.705   9.149  1.6131  0.6387  0.2485
  794MOL0     H 9564   4.369  10.587   8.874 -1.2126  0.5489 -0.2825
  794MOL0     H 9565   4.470  10.570   9.027 -0.2430 -0.3182  0.8496
  794MOL0     H 9566   4.289  10.471   9.145 -0.7885 -2.5551 -0.4403
  794MOL0     H 9567   4.345  10.383   9.011 -0.2840 -0.8988  0.1524
  794MOL0     H 9568   3.958  10.483   8.887  0.5776  3.1394 -0.1585
  794MOL0     H 9569   4.511  10.983   9.318 -2.6635 -0.8191 -2.5601
  794MOL0     H 9570   4.545  11.115   9.501  1.3295 -0.9545 -1.3177
  794MOL0     H 9571   4.644  11.247   9.440  0.1980  1.1538 -2.7943
  794MOL0     H 9572   4.473  11.269   9.490 -1.1396 -0.5244  0.5679
  795MOL0     O 9573  11.351   5.045   1.387 -0.1757  0.8430 -0.2992
  795MOL0     C 9574  11.244   5.087   1.427  0.1705 -0.4711 -0.8397
  795MOL0     O 9575  11.229   5.168   1.542 -0.3810  0.3442  1.2336
  795MOL0     C 9576  11.343   5.203   1.610 -0.3062  0.1194  0.1261
  795MOL0     C 9577  11.360   5.145   1.733  0.0379  0.0786 -0.3048
  795MOL0     C 9578  11.475   5.182   1.812  0.1445  0.1741 -0.1849
  795MOL0     C 9579  11.571   5.267   1.764 -0.2357 -0.0798 -0.2162
  795MOL0     O 9580  11.680   5.299   1.844 -0.5235 -0.4345  0.2488
  795MOL0     C 9581  11.719   5.433   1.849 -0.7162  0.0041  0.5707
  795MOL0     C 9582  11.768   5.451   2.003  0.1119  0.2303  0.9210
  795MOL0     C 9583  11.908   5.392   2.017  0.5216 -0.0593  0.1221
  795MOL0     C 9584  12.021   5.495   1.977  0.4958  0.7011  0.3078
  795MOL0     C 9585  12.165   5.433   1.979  0.1802 -0.6246  0.1101
  795MOL0     C 9586  12.189   5.334   2.087  0.1662 -0.0388 -1.0400
  795MOL0     C 9587  12.342   5.335   2.120 -0.7000  0.0033  1.3697
  795MOL0     C 9588  12.382   5.450   2.208 -0.0539  0.1894 -1.4533
  795MOL0     N 9589  12.513   5.443   2.257  0.0703  0.2939 -0.4669
  795MOL0     C 9590  12.616   5.523   2.219 -0.0691 -0.3190 -1.5984
  795MOL0     C 9591  12.718   5.500   2.309 -0.1298  0.3091  0.4380
  795MOL0     C 9592  12.855   5.551   2.300 -0.0841 -1.0716  0.2672
  795MOL0     C 9593  12.919   5.542   2.435 -0.1124  0.2265  0.3982
  795MOL0     C 9594  13.064   5.591   2.452  0.1807  0.5772 -0.5857
  795MOL0     C 9595  13.070   5.738   2.406  0.2989 -0.0765 -0.6946
  795MOL0     O 9596  13.177   5.800   2.484  0.4265 -0.8764  0.2277
  795MOL0     C 9597  13.146   5.866   2.598 -0.3405 -0.0845 -0.6748
  795MOL0     C 9598  13.253   5.923   2.664 -0.4129 -0.3786 -0.4536
  795MOL0     C 9599  13.251   5.975   2.801  0.1184  0.0744  0.4605
  795MOL0     C 9600  13.389   6.037   2.853 -0.1492  0.6974 -0.7032
  795MOL0     C 9601  13.133   5.968   2.875  0.1764  0.1679 -0.0495
  795MOL0     C 9602  13.120   6.001   3.019 -0.4825  0.5519  0.9249
  795MOL0     O 9603  13.235   6.016   3.091 -0.2918 -0.4442  0.1638
  795MOL0     C 9604  13.238   6.075   3.213 -0.1248  0.4326 -0.4280
  795MOL0     C 9605  13.144   6.039   3.317  0.1413 -0.1107 -0.7855
  795MOL0     C 9606  13.161   6.098   3.446 -0.9101  0.2054  0.6788
  795MOL0     C 9607  13.270   6.181   3.470  0.0144  0.6232  0.5525
  795MOL0     O 9608  13.269   6.233   3.596  0.1899 -0.3806 -0.0358
  795MOL0     C 9609  13.381   6.316   3.639 -0.4026 -0.2683 -0.2295
  795MOL0     C 9610  13.349   6.388   3.775 -0.1426  0.1958  0.1977
  795MOL0     C 9611  13.390   6.296   3.895 -1.6232 -1.1620  0.6175
  795MOL0     C 9612  13.328   6.168   3.912 -0.2262  0.8493 -0.7378
  795MOL0     C 9613  13.315   6.117   4.062  0.2794  0.1393  0.5178
  795MOL0     C 9614  13.206   6.002   4.068  0.0512 -0.3346  0.0350
  795MOL0     C 9615  13.195   5.941   4.210 -0.0721  0.4290 -0.0264
  795MOL0     C 9616  13.043   5.915   4.235  0.1554  0.2063  0.7714
  795MOL0    Cl 9617  13.003   5.756   4.148  0.0766  0.1881 -0.1876
  795MOL0     C 9618  13.360   6.211   3.363 -1.2061  0.5555 -0.8318
  795MOL0     C 9619  13.346   6.157   3.237 -0.4344  0.0021 -1.2407
  795MOL0     O 9620  13.002   6.024   3.058 -0.0934  0.2052  0.2638
  795MOL0     C 9621  13.022   5.912   2.806  0.2757  0.3625 -0.3791
  795MOL0     C 9622  13.025   5.861   2.673  0.4882 -1.3425  0.4563
  795MOL0     N 9623  12.681   5.388   2.377 -0.4122  0.2306 -0.2201
  795MOL0     N 9624  12.551   5.367   2.354 -0.3009 -0.2543 -0.6994
  795MOL0     C 9625  11.540   5.333   1.641  0.1230  0.6119 -0.6559
  795MOL0     C 9626  11.437   5.294   1.560 -0.2472  0.3532 -0.3780
  795MOL0     C 9627  11.128   5.036   1.357  0.0018  1.1482  0.5126
  795MOL0     C 9628  11.018   5.001   1.438  0.2000  0.9774  0.7977
  795MOL0     C 9629  10.905   4.939   1.389  0.6025 -0.1938  0.1466
  795MOL0     C 9630  10.884   4.928   1.249  0.4965  0.2770 -0.5609
  795MOL0     O 9631  10.773   4.863   1.206  0.4604  0.6701  0.1478
  795MOL0     C 9632  10.678   4.827   1.310 -0.0975  0.2278 -0.7411
  795MOL0     C 9633  10.539   4.795   1.245  0.3140 -0.3433 -0.4527
  795MOL0     C 9634  10.547   4.657   1.162  0.3787 -0.4648 -0.6785
  795MOL0     C 9635  10.441   4.641   1.056 -0.7892  0.5566 -1.2694
  795MOL0     C 9636  10.301   4.616   1.107 -0.5392  0.1248 -0.2391
  795MOL0     C 9637  10.191   4.590   1.141  0.0569 -0.3130  0.2605
  795MOL0     C 9638  10.996   4.966   1.171  0.7317  1.5004  0.4252
  795MOL0     C 9639  11.113   5.022   1.216 -0.1455  0.3777 -0.3158
  795MOL0     C 9640  11.221   5.053   1.117  0.6227 -0.3649  0.5953
  795MOL0     H 9641  11.285   5.070   1.757 -1.0171  1.1971  0.0072
  795MOL0     H 9642  11.486   5.145   1.914 -1.6513  0.0899  0.0011
  795MOL0     H 9643  11.631   5.498   1.846 -0.0274  0.9591 -1.7896
  795MOL0     H 9644  11.791   5.465   1.773 -1.6028 -0.5737 -0.5281
  795MOL0     H 9645  11.766   5.553   2.044  0.9179 -1.3839  5.5909
  795MOL0     H 9646  11.700   5.393   2.066 -1.9314  0.2107 -1.2125
  795MOL0     H 9647  11.919   5.369   2.123  3.1845  1.8991  0.3581
  795MOL0     H 9648  11.918   5.298   1.964  2.0550  1.1511 -1.8648
  795MOL0     H 9649  12.005   5.529   1.874 -0.2815 -0.0185  0.1791
  795MOL0     H 9650  12.012   5.569   2.057 -0.8108 -0.9216  1.7481
  795MOL0     H 9651  12.229   5.520   1.999 -1.3811  0.1090  2.2978
  795MOL0     H 9652  12.179   5.392   1.879  0.8811 -1.9308  0.7097
  795MOL0     H 9653  12.131   5.361   2.175  0.4707 -0.8844 -0.5711
  795MOL0     H 9654  12.164   5.232   2.056  0.4060 -0.1191 -0.9660
  795MOL0     H 9655  12.403   5.351   2.032 -0.3168  0.9134  1.7873
  795MOL0     H 9656  12.363   5.241   2.171 -0.6070  0.3567  2.0026
  795MOL0     H 9657  12.370   5.550   2.164 -1.3145 -0.3188 -2.3485
  795MOL0     H 9658  12.322   5.439   2.299 -1.8278  4.8578 -1.7871
  795MOL0     H 9659  12.614   5.593   2.136  2.1022  0.3894 -1.1160
  795MOL0     H 9660  12.859   5.655   2.267  0.0388 -1.8301 -2.2777
  795MOL0     H 9661  12.930   5.503   2.238  0.7924 -1.3492  1.4963
  795MOL0     H 9662  12.854   5.596   2.505  0.9063  0.0708  1.5038
  795MOL0     H 9663  12.914   5.437   2.467  3.5720  0.0699  0.9193
  795MOL0     H 9664  13.095   5.577   2.557 -0.4323  2.6597 -0.0827
  795MOL0     H 9665  13.132   5.530   2.392 -0.8339 -1.3589  0.1282
  795MOL0     H 9666  13.082   5.747   2.297 -1.0285  0.4568 -0.8140
  795MOL0     H 9667  12.980   5.796   2.426  0.7871  0.8967 -1.2414
  795MOL0     H 9668  13.351   5.919   2.618  1.0458  0.4983  2.3176
  795MOL0     H 9669  13.457   6.035   2.768  0.4824  0.7625 -0.2005
  795MOL0     H 9670  13.433   5.983   2.938 -2.8974  1.1115  1.1511
  795MOL0     H 9671  13.370   6.140   2.886 -2.4975 -0.3161  1.5238
  795MOL0     H 9672  13.067   5.964   3.301 -1.8718  1.8798 -0.8686
  795MOL0     H 9673  13.086   6.058   3.513 -2.2296  2.0576  0.3900
  795MOL0     H 9674  13.469   6.254   3.657  0.6565  0.8416 -1.3605
  795MOL0     H 9675  13.400   6.396   3.566 -0.9996 -1.3570 -1.6185
  795MOL0     H 9676  13.400   6.484   3.779 -1.2777  1.1669 -3.9712
  795MOL0     H 9677  13.243   6.414   3.779 -0.5751 -1.4622  0.4701
  795MOL0     H 9678  13.371   6.365   3.977  0.4256 -0.2133  0.3521
  795MOL0     H 9679  13.499   6.283   3.901 -1.1888  1.3195 -0.6337
  795MOL0     H 9680  13.394   6.092   3.869 -2.1365 -0.3282 -1.7816
  795MOL0     H 9681  13.231   6.157   3.861  1.0026 -0.6160 -2.9368
  795MOL0     H 9682  13.412   6.089   4.105  0.4752 -0.9373 -0.5705
  795MOL0     H 9683  13.267   6.189   4.129 -3.4799 -3.0392  1.5745
  795MOL0     H 9684  13.239   5.929   3.993 -1.8321 -0.4271 -0.7636
  795MOL0     H 9685  13.112   6.025   4.018  1.4278 -0.2073 -2.7001
  795MOL0     H 9686  13.231   6.009   4.287  2.2249 -1.7728  1.0030
  795MOL0     H 9687  13.257   5.851   4.221 -2.8111 -1.4727  1.0990
  795MOL0     H 9688  12.991   5.999   4.189  0.9305 -0.4063 -1.3128
  795MOL0     H 9689  13.022   5.893   4.341 -2.4607 -1.2825  0.0414
  795MOL0     H 9690  13.442   6.282   3.365 -0.4907 -0.1971 -1.9204
  795MOL0     H 9691  13.400   6.176   3.145 -1.3220  0.5850 -1.6579
  795MOL0     H 9692  12.924   5.916   2.851 -1.0557  0.2263 -3.0822
  795MOL0     H 9693  12.928   5.827   2.636 -0.8517  1.6501  0.9270
  795MOL0     H 9694  11.625   5.386   1.599  0.1104 -0.9070 -2.7412
  795MOL0     H 9695  11.427   5.320   1.456 -0.6455 -0.3984 -0.5323
  795MOL0     H 9696  11.025   5.011   1.546 -1.5030 -1.3908  1.2073
  795MOL0     H 9697  10.849   4.898   1.473 -2.0102  0.0680 -1.3468
  795MOL0     H 9698  10.716   4.748   1.375  0.5820  0.0429 -1.3560
  795MOL0     H 9699  10.645   4.912   1.372 -2.1226 -1.1085  0.1261
  795MOL0     H 9700  10.518   4.879   1.178 -2.0098 -1.0329 -0.6714
  795MOL0     H 9701  10.459   4.792   1.319  1.5349  2.4455  1.1562
  795MOL0     H 9702  10.647   4.639   1.124 -0.2698 -0.1887 -2.6296
  795MOL0     H 9703  10.518   4.583   1.238  2.2485  0.4739  1.0349
  795MOL0     H 9704  10.469   4.565   0.983  0.8316  0.7904 -0.9355
  795MOL0     H 9705  10.430   4.734   1.000  0.2730  0.2564 -2.0030
  795MOL0     H 9706  10.102   4.540   1.173  0.2498 -0.1336  1.0891
  795MOL0     H 9707  10.973   4.965   1.065  0.2618  3.0701  0.4863
  795MOL0     H 9708  11.179   5.067   1.016 -0.0304 -0.9478  0.7774
  795MOL0     H 9709  11.277   5.142   1.144  0.8531 -0.1188 -0.6204
  795MOL0     H 9710  11.293   4.970   1.113  0.3967 -0.5424  0.1316
  796MOL0     O 9711   2.783   1.671   5.893 -0.4258  0.1152  0.5522
  796MOL0     C 9712   2.822   1.567   5.936 -0.1519 -0.0180  0.0895
  796MOL0     O 9713   2.756   1.505   6.039 -0.4406  0.0732 -0.5090
  796MOL0     C 9714   2.643   1.569   6.102  0.7106  0.4443  0.0276
  796MOL0     C 9715   2.525   1.617   6.035  0.2207 -0.0668 -0.2942
  796MOL0     C 9716   2.418   1.668   6.109  0.5028  0.4856  0.0270
  796MOL0     C 9717   2.420   1.677   6.245 -0.9268 -0.4503 -1.0553
  796MOL0     O 9718   2.323   1.732   6.329  1.1062 -0.5848  0.2675
  796MOL0     C 9719   2.188   1.695   6.297 -0.0084  0.2685 -0.2386
  796MOL0     C 9720   2.097   1.750   6.414  0.4855  0.2485 -0.8595
  796MOL0     C 9721   1.954   1.718   6.389  0.3365 -0.2289 -0.4562
  796MOL0     C 9722   1.873   1.840   6.338 -0.9459 -0.1401  0.6926
  796MOL0     C 9723   1.721   1.820   6.358  0.2585 -0.2909 -0.2991
  796MOL0     C 9724   1.681   1.855   6.506  0.6247 -0.0773  0.4220
  796MOL0     C 9725   1.528   1.845   6.518 -0.0126  0.5466 -0.8431
  796MOL0     C 9726   1.478   1.907   6.654  0.3970 -0.5141  0.3911
  796MOL0     N 9727   1.330   1.886   6.682  0.2770 -0.5722 -0.3530
  796MOL0     C 9728   1.240   1.976   6.732 -0.7319  0.3027 -0.7014
  796MOL0     C 9729   1.136   1.901   6.776  0.3716  0.7639 -0.4590
  796MOL0     C 9730   1.020   1.944   6.851  0.6793  0.2425  0.5315
  796MOL0     C 9731   0.890   1.899   6.776 -1.2449 -0.0453  0.6041
  796MOL0     C 9732   0.763   1.910   6.863 -0.3730  0.0747 -0.3830
  796MOL0     C 9733   0.649   1.860   6.783  0.2203  0.3510 -0.3894
  796MOL0     O 9734   0.646   1.719   6.774  0.0587  0.0467 -0.0660
  796MOL0     C 9735   0.538   1.656   6.718 -0.5085 -0.5386 -0.4850
  796MOL0     C 9736   0.570   1.590   6.601  0.0388 -0.5771  0.6880
  796MOL0     C 9737   0.475   1.508   6.537  0.0167 -0.8119 -0.0134
  796MOL0     C 9738   0.522   1.437   6.418 -0.5534 -0.2918 -0.6147
  796MOL0     C 9739   0.346   1.494   6.591 -0.0212  0.7797 -1.6699
  796MOL0     C 9740   0.237   1.402   6.543 -0.1513  0.9718 -0.2501
  796MOL0     O 9741   0.185   1.303   6.632  0.1523 -0.0621  0.6794
  796MOL0     C 9742   0.072   1.234   6.578 -0.5435 -0.2378  0.7166
  796MOL0     C 9743  -0.048   1.300   6.558  0.1731  0.2435 -0.0510
  796MOL0     C 9744  -0.160   1.228   6.508 -0.3418 -0.4627 -0.8199
  796MOL0     C 9745  -0.165   1.090   6.486  0.8966  0.8292 -0.9277
  796MOL0     O 9746  -0.280   1.013   6.463 -0.7245  0.4729 -0.1533
  796MOL0     C 9747  -0.392   1.045   6.549  0.6082 -0.8730 -0.9617
  796MOL0     C 9748  -0.503   0.968   6.490 -0.5302  0.0673 -0.4685
  796MOL0     C 9749  -0.627   0.953   6.584 -0.1292 -0.2574  0.0342
  796MOL0     C 9750  -0.761   0.947   6.512  0.6905  0.2892 -0.0811
  796MOL0     C 9751  -0.827   1.087   6.480  0.7095  0.3588  0.3161
  796MOL0     C 9752  -0.968   1.065   6.407  0.0140 -0.0732  0.1583
  796MOL0     C 9753  -1.065   1.197   6.416 -0.0554  0.8615  0.6044
  796MOL0     C 9754  -1.009   1.323   6.347 -0.5420 -0.3523  0.2174
  796MOL0    Cl 9755  -0.930   1.275   6.195  0.1819  0.0320 -0.0808
  796MOL0     C 9756  -0.045   1.021   6.516  0.4508 -0.6080  0.5140
  796MOL0     C 9757   0.070   1.091   6.551  0.4668  1.7500 -1.1134
  796MOL0     O 9758   0.213   1.421   6.427 -1.1372  0.3496 -0.1065
  796MOL0     C 9759   0.315   1.577   6.701  0.3590  0.3072  0.2349
  796MOL0     C 9760   0.410   1.654   6.769 -0.0628 -0.2185  0.7978
  796MOL0     N 9761   1.158   1.768   6.746 -1.4433  0.7598 -0.6147
  796MOL0     N 9762   1.269   1.765   6.682  0.0676  0.4173  0.6864
  796MOL0     C 9763   2.530   1.630   6.309 -0.4544 -0.3588 -0.0005
  796MOL0     C 9764   2.642   1.581   6.246  0.6321 -0.2696  0.1906
  796MOL0     C 9765   2.937   1.502   5.877  0.2416  0.2164  0.5765
  796MOL0     C 9766   2.990   1.559   5.754  0.2840  0.0261  0.2444
  796MOL0     C 9767   3.081   1.490   5.674  0.6396 -0.9452 -1.9154
  796MOL0     C 9768   3.136   1.374   5.721 -0.0435  1.3442 -0.1695
  796MOL0     O 9769   3.225   1.321   5.634 -0.3598 -0.5512 -0.3806
  796MOL0     C 9770   3.279   1.187   5.659  0.5024  0.4055  0.2376
  796MOL0     C 9771   3.382   1.158   5.549  0.4193 -0.0743 -0.4315
  796MOL0     C 9772   3.495   1.058   5.594  0.3265 -0.2532  0.4487
  796MOL0     C 9773   3.455   0.908   5.616 -0.3921  0.0853  0.0703
  796MOL0     C 9774   3.382   0.894   5.745  0.4410 -0.1620 -0.4136
  796MOL0     C 9775   3.304   0.858   5.837 -0.1185  0.6471 -0.4576
  796MOL0     C 9776   3.088   1.314   5.842 -0.0686  0.1298  1.1707
  796MOL0     C 9777   2.990   1.378   5.917 -0.6989 -0.1719 -0.6388
  796MOL0     C 9778   2.957   1.308   6.041  0.8760 -0.2223  0.4713
  796MOL0     H 9779   2.511   1.620   5.928 -0.4079 -0.2323 -0.2198
  796MOL0     H 9780   2.330   1.708   6.060  1.2848  2.2187 -0.0335
  796MOL0     H 9781   2.182   1.590   6.267 -2.1394  1.1902 -3.5634
  796MOL0     H 9782   2.158   1.748   6.207  0.7642 -0.7238 -1.0950
  796MOL0     H 9783   2.113   1.694   6.507 -0.2318 -0.9152 -1.4119
  796MOL0     H 9784   2.112   1.858   6.427  1.1659  0.4458 -2.9566
  796MOL0     H 9785   1.938   1.632   6.324 -0.5072 -0.4686  0.0445
  796MOL0     H 9786   1.915   1.702   6.490 -0.4828  0.7494 -0.5939
  796MOL0     H 9787   1.900   1.938   6.377 -1.3404  1.6874 -3.1108
  796MOL0     H 9788   1.905   1.852   6.234  1.2586  1.0368  1.4330
  796MOL0     H 9789   1.699   1.719   6.321  0.0095 -0.5186  0.4705
  796MOL0     H 9790   1.671   1.894   6.295 -0.7884 -0.0204  0.8199
  796MOL0     H 9791   1.719   1.778   6.573 -4.6989 -4.5051 -0.8796
  796MOL0     H 9792   1.711   1.957   6.530  2.9451 -0.5247 -0.3294
  796MOL0     H 9793   1.510   1.738   6.507  0.4356  0.3648  0.0634
  796MOL0     H 9794   1.476   1.902   6.440  0.7486 -0.6393 -2.2595
  796MOL0     H 9795   1.527   1.867   6.742  2.1190 -0.8137 -0.6555
  796MOL0     H 9796   1.497   2.014   6.643  1.7971 -0.8470 -0.7769
  796MOL0     H 9797   1.255   2.084   6.739 -0.5932  0.2749 -0.5810
  796MOL0     H 9798   1.004   2.051   6.869 -0.0218  0.2187  0.1091
  796MOL0     H 9799   1.023   1.904   6.953  3.3106 -2.7017 -0.5660
  796MOL0     H 9800   0.870   1.958   6.687 -2.0685  0.5529  1.1671
  796MOL0     H 9801   0.894   1.795   6.741  0.7425 -0.0585  0.7602
  796MOL0     H 9802   0.761   1.856   6.958  1.6140 -1.0305 -0.9148
  796MOL0     H 9803   0.739   2.013   6.888  0.1485 -0.2191  1.4315
  796MOL0     H 9804   0.563   1.901   6.836 -0.8312 -4.0826  1.8946
  796MOL0     H 9805   0.647   1.896   6.680  1.2083  0.3253 -0.4298
  796MOL0     H 9806   0.669   1.596   6.557 -0.3284 -0.2030 -0.1094
  796MOL0     H 9807   0.521   1.504   6.332  1.0135  1.5384  0.7171
  796MOL0     H 9808   0.467   1.346   6.394  0.7974 -1.0521 -0.9041
  796MOL0     H 9809   0.626   1.416   6.445 -0.0405  1.8832 -0.7385
  796MOL0     H 9810  -0.060   1.406   6.581 -2.2025  0.0104  0.0836
  796MOL0     H 9811  -0.261   1.260   6.484 -1.8513 -3.2033  1.2357
  796MOL0     H 9812  -0.372   1.010   6.651  0.7826 -3.1973 -1.7389
  796MOL0     H 9813  -0.417   1.152   6.550 -1.7844 -1.3826 -0.1272
  796MOL0     H 9814  -0.538   1.001   6.391 -3.1686 -1.3476 -0.0975
  796MOL0     H 9815  -0.461   0.869   6.474 -1.1556  0.0239 -2.0509
  796MOL0     H 9816  -0.637   1.032   6.658 -0.0775  0.6658 -0.9161
  796MOL0     H 9817  -0.614   0.861   6.642  1.5468 -0.3910 -0.4925
  796MOL0     H 9818  -0.830   0.889   6.574 -0.2965 -0.0300 -1.4390
  796MOL0     H 9819  -0.747   0.889   6.420 -1.5543 -0.3584 -0.0766
  796MOL0     H 9820  -0.844   1.129   6.579  0.0617  1.7731 -0.3542
  796MOL0     H 9821  -0.769   1.153   6.416 -1.1032  0.2736 -1.5588
  796MOL0     H 9822  -1.028   0.985   6.451 -0.6856 -0.1265 -0.8568
  796MOL0     H 9823  -0.954   1.043   6.301  2.8900  0.0440  0.4169
  796MOL0     H 9824  -1.083   1.220   6.522 -0.4519  1.8769  0.3184
  796MOL0     H 9825  -1.160   1.183   6.364  0.6069  0.6099 -0.5676
  796MOL0     H 9826  -0.936   1.375   6.409 -0.2535 -1.3287  0.7096
  796MOL0     H 9827  -1.083   1.402   6.328 -1.2169 -1.3725 -1.6795
  796MOL0     H 9828  -0.044   0.913   6.510 -2.7033 -0.6861 -0.5643
  796MOL0     H 9829   0.162   1.034   6.559 -1.9190 -2.3806 -0.6929
  796MOL0     H 9830   0.216   1.557   6.741 -0.3415 -0.2724 -1.7080
  796MOL0     H 9831   0.372   1.696   6.862  1.9178  0.2793  1.4415
  796MOL0     H 9832   2.549   1.627   6.416  0.3683  0.7341 -0.0988
  796MOL0     H 9833   2.728   1.544   6.301 -0.2085 -1.2869  0.8629
  796MOL0     H 9834   2.941   1.649   5.720  0.6445 -0.4753 -1.6957
  796MOL0     H 9835   3.114   1.537   5.582 -2.8024  1.5031 -2.0535
  796MOL0     H 9836   3.320   1.178   5.760 -1.2636 -5.4307  0.8393
  796MOL0     H 9837   3.209   1.102   5.657  0.9779  0.0009  0.5144
  796MOL0     H 9838   3.436   1.248   5.518  0.6616  0.4355  1.3632
  796MOL0     H 9839   3.330   1.116   5.463 -1.8691  4.1690 -1.3899
  796MOL0     H 9840   3.565   1.061   5.510  0.0668 -1.9792  0.1440
  796MOL0     H 9841   3.542   1.101   5.683  2.1409  1.0083 -1.0404
  796MOL0     H 9842   3.550   0.854   5.616  0.1301  0.7296  3.5248
  796MOL0     H 9843   3.388   0.880   5.534 -1.2008  1.8968  0.0678
  796MOL0     H 9844   3.234   0.807   5.900  0.7900 -0.5956 -0.4253
  796MOL0     H 9845   3.119   1.214   5.869 -0.8092 -1.3172 -2.7506
  796MOL0     H 9846   2.944   1.383   6.120 -0.6481 -0.1765  0.2034
  796MOL0     H 9847   2.863   1.255   6.024  1.3609 -0.7258 -0.8055
  796MOL0     H 9848   3.025   1.228   6.072 -2.4586 -3.1903  0.6656
  797MOL0     O 9849   4.029   6.889   0.685 -0.1409 -0.9273  0.3335
  797MOL0     C 9850   3.942   6.947   0.751  0.3005 -0.8586  0.6593
  797MOL0     O 9851   3.946   7.082   0.780  0.3622 -0.3349 -0.0633
  797MOL0     C 9852   4.055   7.150   0.733 -0.8325 -0.4417  1.2753
  797MOL0     C 9853   4.177   7.144   0.794 -1.0122 -0.5584  0.3985
  797MOL0     C 9854   4.291   7.206   0.736  0.1605  0.8109  0.9245
  797MOL0     C 9855   4.279   7.283   0.614 -0.0208 -0.5407  0.3134
  797MOL0     O 9856   4.392   7.329   0.548  0.1880  0.9165 -0.6400
  797MOL0     C 9857   4.391   7.457   0.482  0.1909  0.2072 -0.4457
  797MOL0     C 9858   4.480   7.549   0.558  0.0496 -0.1990 -0.4231
  797MOL0     C 9859   4.459   7.702   0.529  0.0472 -0.2131  0.3401
  797MOL0     C 9860   4.546   7.785   0.629  0.5724  0.4674  0.4265
  797MOL0     C 9861   4.501   7.937   0.639 -0.4551 -0.1659  1.1644
  797MOL0     C 9862   4.592   7.996   0.752 -0.9208 -0.5691  0.2664
  797MOL0     C 9863   4.744   8.015   0.714  0.8855  0.2242 -0.3718
  797MOL0     C 9864   4.782   8.109   0.598 -0.0454  0.3174  0.1482
  797MOL0     N 9865   4.910   8.069   0.533 -0.1808  0.2800 -0.3799
  797MOL0     C 9866   5.024   8.140   0.566  0.1107  0.4947  0.4209
  797MOL0     C 9867   5.121   8.089   0.481  0.0736 -0.2510 -0.0080
  797MOL0     C 9868   5.262   8.136   0.460  0.0583  0.9168 -0.2926
  797MOL0     C 9869   5.338   8.149   0.585 -0.8101  0.5002  0.2452
  797MOL0     C 9870   5.390   8.012   0.628  0.9261 -0.7636 -0.0774
  797MOL0     C 9871   5.400   8.013   0.780 -0.1442 -0.7935 -0.0624
  797MOL0     O 9872   5.276   8.036   0.848  0.1674 -0.1335 -0.2031
  797MOL0     C 9873   5.187   7.933   0.858 -0.1817  0.6481 -0.2960
  797MOL0     C 9874   5.206   7.803   0.810 -0.5119 -0.8570 -0.0906
  797MOL0     C 9875   5.099   7.708   0.834  0.5072 -0.5244 -0.3179
  797MOL0     C 9876   5.114   7.562   0.792 -0.3369 -1.2367  0.2029
  797MOL0     C 9877   4.984   7.742   0.912  0.1132 -0.2406 -0.1757
  797MOL0     C 9878   4.869   7.656   0.918 -0.0204  0.6589 -0.2213
  797MOL0     O 9879   4.823   7.651   1.045 -0.0995 -0.2137 -0.3551
  797MOL0     C 9880   4.725   7.559   1.062 -0.7534  0.3418 -0.1453
  797MOL0     C 9881   4.769   7.436   1.115 -0.1416 -0.0424 -0.6459
  797MOL0     C 9882   4.678   7.329   1.145  0.4071  0.3010  1.0696
  797MOL0     C 9883   4.546   7.351   1.097 -0.0282 -0.4937  0.5749
  797MOL0     O 9884   4.464   7.249   1.136 -0.6402  0.3497 -0.1990
  797MOL0     C 9885   4.323   7.284   1.155  0.6162  0.6187 -0.3500
  797MOL0     C 9886   4.278   7.183   1.264  0.5201  0.1498  0.1667
  797MOL0     C 9887   4.186   7.077   1.206 -0.2463  0.4111 -0.5540
  797MOL0     C 9888   4.163   6.967   1.307  0.8677 -0.2836  1.0470
  797MOL0     C 9889   4.062   6.857   1.258 -0.1736  0.4294 -0.3367
  797MOL0     C 9890   3.917   6.914   1.250  0.3417  0.2034  0.0474
  797MOL0     C 9891   3.863   6.914   1.394 -0.7564 -1.1468 -0.8363
  797MOL0     C 9892   3.713   6.931   1.374  1.6327  0.5094  0.9901
  797MOL0    Cl 9893   3.663   7.095   1.346 -0.0420 -0.3453 -0.1479
  797MOL0     C 9894   4.507   7.476   1.046 -0.5008  0.6897 -0.0137
  797MOL0     C 9895   4.596   7.586   1.027  0.3814  0.6204 -0.0809
  797MOL0     O 9896   4.815   7.599   0.819 -0.3887  0.0433  0.3669
  797MOL0     C 9897   4.973   7.874   0.945  1.0362  0.3803  0.0920
  797MOL0     C 9898   5.066   7.967   0.926  0.2034 -0.2986  0.3432
  797MOL0     N 9899   5.068   7.985   0.408  0.0723  0.2454 -0.0533
  797MOL0     N 9900   4.944   7.978   0.442 -0.9321  1.0128  0.0480
  797MOL0     C 9901   4.145   7.295   0.563 -0.0356  0.0447 -0.6432
  797MOL0     C 9902   4.039   7.223   0.616  0.3387  0.9608 -0.4997
  797MOL0     C 9903   3.835   6.858   0.802 -0.2813  0.2484 -1.2205
  797MOL0     C 9904   3.826   6.715   0.786  0.3541  1.2676  0.3647
  797MOL0     C 9905   3.729   6.633   0.838 -0.0921 -0.2912  0.1371
  797MOL0     C 9906   3.633   6.689   0.926  0.2194 -0.1984  0.1951
  797MOL0     O 9907   3.537   6.625   0.995  1.0839  0.3875  0.4970
  797MOL0     C 9908   3.505   6.486   0.982  0.0899 -1.0011 -0.1662
  797MOL0     C 9909   3.565   6.401   1.088  0.6186  0.0711  0.0866
  797MOL0     C 9910   3.536   6.247   1.072  0.3356  0.4437 -0.4286
  797MOL0     C 9911   3.571   6.164   1.192  0.3790 -0.0977  0.0825
  797MOL0     C 9912   3.549   6.023   1.163  0.4443  0.4109  0.2150
  797MOL0     C 9913   3.547   5.902   1.148 -0.7500  0.3217  0.8498
  797MOL0     C 9914   3.633   6.827   0.945  0.5557 -0.1525 -0.2532
  797MOL0     C 9915   3.732   6.908   0.884 -0.0385 -0.2871 -0.5635
  797MOL0     C 9916   3.729   7.051   0.940 -0.5414  0.1282  0.0297
  797MOL0     H 9917   4.187   7.087   0.886 -0.9976  1.1791  1.5230
  797MOL0     H 9918   4.388   7.177   0.775  0.1831 -0.5045 -0.0607
  797MOL0     H 9919   4.295   7.509   0.475  1.7143  3.2220 -0.3853
  797MOL0     H 9920   4.435   7.445   0.382  0.4327  2.5037 -0.6736
  797MOL0     H 9921   4.454   7.541   0.664  2.3701 -1.5083  0.1352
  797MOL0     H 9922   4.585   7.519   0.548  0.5183  0.8433  1.0341
  797MOL0     H 9923   4.485   7.716   0.423 -0.5401 -0.4893  0.1566
  797MOL0     H 9924   4.355   7.735   0.536  0.0925  0.1731 -0.5626
  797MOL0     H 9925   4.551   7.735   0.726  2.4961  2.5632  1.5038
  797MOL0     H 9926   4.646   7.777   0.584  1.1154 -0.7713  1.7785
  797MOL0     H 9927   4.396   7.942   0.669 -0.6649 -0.3532  0.4861
  797MOL0     H 9928   4.513   7.995   0.547 -0.7194 -1.6222  0.1722
  797MOL0     H 9929   4.561   8.100   0.768  1.1794 -0.1276  2.0577
  797MOL0     H 9930   4.574   7.937   0.843  0.0078 -0.3466  0.6086
  797MOL0     H 9931   4.780   7.915   0.687  0.5744 -1.0326  3.3231
  797MOL0     H 9932   4.808   8.034   0.801  0.2502 -0.8648  0.3455
  797MOL0     H 9933   4.700   8.126   0.527 -1.4859  4.0904  2.3710
  797MOL0     H 9934   4.801   8.208   0.641  0.3553 -1.3267  4.1508
  797MOL0     H 9935   5.039   8.213   0.645  3.7486  1.3879 -0.9248
  797MOL0     H 9936   5.254   8.233   0.410 -1.1051  1.6759  1.2639
  797MOL0     H 9937   5.312   8.068   0.391  0.5077 -1.0903  1.8725
  797MOL0     H 9938   5.425   8.207   0.553 -1.3985  1.1454 -0.2174
  797MOL0     H 9939   5.279   8.208   0.656 -3.8829  0.1948 -1.8300
  797MOL0     H 9940   5.337   7.923   0.594  3.0674 -3.4793  3.0251
  797MOL0     H 9941   5.490   7.991   0.587 -0.1058 -0.2284 -3.0973
  797MOL0     H 9942   5.437   7.915   0.814 -0.7959 -0.2434  2.4985
  797MOL0     H 9943   5.472   8.088   0.811  0.1735 -0.8984 -0.5402
  797MOL0     H 9944   5.301   7.761   0.776  1.8904  0.7867  3.8218
  797MOL0     H 9945   5.062   7.560   0.696  0.7978  0.5398 -0.4948
  797MOL0     H 9946   5.053   7.504   0.863 -1.2819  1.0833  1.3713
  797MOL0     H 9947   5.217   7.526   0.786 -0.8354 -2.4859 -3.5829
  797MOL0     H 9948   4.876   7.432   1.135 -0.3957  1.6209  1.3582
  797MOL0     H 9949   4.698   7.229   1.181  0.4728  0.5607  1.7687
  797MOL0     H 9950   4.315   7.386   1.194 -0.2667  0.3386  0.2163
  797MOL0     H 9951   4.256   7.286   1.069 -3.1359  1.4911  2.3694
  797MOL0     H 9952   4.359   7.129   1.314 -0.6905 -1.6346  0.3141
  797MOL0     H 9953   4.235   7.240   1.346 -1.6242 -0.6756 -0.3037
  797MOL0     H 9954   4.237   7.027   1.123  3.0400 -0.1686  1.6462
  797MOL0     H 9955   4.094   7.117   1.163  0.3268  1.4797 -0.8109
  797MOL0     H 9956   4.128   7.011   1.401 -0.6733  0.7357  0.0316
  797MOL0     H 9957   4.251   6.907   1.333  0.5326 -0.9632  0.6291
  797MOL0     H 9958   4.091   6.824   1.158  1.9522 -1.3587  0.7703
  797MOL0     H 9959   4.056   6.768   1.322 -1.0868  0.9249  0.2857
  797MOL0     H 9960   3.862   6.853   1.178  1.6496  1.6490 -2.2879
  797MOL0     H 9961   3.908   7.017   1.214  0.7054 -0.6469 -2.6611
  797MOL0     H 9962   3.903   6.996   1.453 -3.3022  0.2365 -0.8651
  797MOL0     H 9963   3.882   6.824   1.452 -0.1255  0.9063  2.3867
  797MOL0     H 9964   3.659   6.891   1.460  0.1033  1.4807  0.5286
  797MOL0     H 9965   3.676   6.876   1.287  2.2719 -0.8393  1.5462
  797MOL0     H 9966   4.406   7.486   1.006  0.8920 -1.4539 -4.8748
  797MOL0     H 9967   4.579   7.684   0.984  2.5217 -0.1585 -3.0356
  797MOL0     H 9968   4.879   7.897   0.993 -0.5251 -3.9759 -0.4382
  797MOL0     H 9969   5.053   8.063   0.975  0.6825 -0.3456  0.5633
  797MOL0     H 9970   4.130   7.354   0.474  1.4861  3.0101  0.8979
  797MOL0     H 9971   3.946   7.204   0.563  0.4698  1.8536 -1.0673
  797MOL0     H 9972   3.896   6.675   0.713 -0.4234 -0.0211  0.3076
  797MOL0     H 9973   3.738   6.527   0.819  0.5715 -0.0619 -0.9006
  797MOL0     H 9974   3.398   6.463   0.977  0.1689 -1.4790  0.2221
  797MOL0     H 9975   3.536   6.447   0.885 -2.5423  0.5027 -1.7257
  797MOL0     H 9976   3.538   6.438   1.187  0.9251  2.0900 -0.5368
  797MOL0     H 9977   3.673   6.406   1.071  0.8177  0.7997  1.4577
  797MOL0     H 9978   3.430   6.244   1.043 -0.2443  1.2846  1.4893
  797MOL0     H 9979   3.593   6.213   0.985  1.3191 -0.7232  0.6455
  797MOL0     H 9980   3.502   6.176   1.276  0.5162 -1.2081  0.3656
  797MOL0     H 9981   3.675   6.174   1.224 -0.0124 -2.2030  2.2818
  797MOL0     H 9982   3.549   5.795   1.145 -1.3827  0.2759  1.9093
  797MOL0     H 9983   3.564   6.868   1.019 -3.0297 -2.1821 -2.1815
  797MOL0     H 9984   3.718   7.122   0.858  0.1874  0.6812  0.4024
  797MOL0     H 9985   3.647   7.075   1.008 -2.2907 -0.2897 -1.8395
  797MOL0     H 9986   3.822   7.063   0.997 -1.0854  0.1123  0.9395
  798MOL0     O 9987   0.964   7.127   5.628  0.2587  1.0430  0.2406
  798MOL0     C 9988   1.044   7.096   5.722  0.3944  0.6153 -0.6510
  798MOL0     O 9989   1.157   7.030   5.703  0.1972  0.2265 -0.1572
  798MOL0     C 9990   1.208   7.020   5.579  0.4090  1.0763  0.2480
  798MOL0     C 9991   1.319   7.094   5.542 -0.3604 -0.5968  0.2657
  798MOL0     C 9992   1.385   7.082   5.417 -1.0102 -0.2565 -0.5298
  798MOL0     C 9993   1.337   6.990   5.321 -0.1187  0.4228  0.3329
  798MOL0     O 9994   1.372   6.974   5.190 -0.0360 -0.3113  0.2391
  798MOL0     C 9995   1.473   7.066   5.141  0.1789  0.3526 -0.2850
  798MOL0     C 9996   1.407   7.202   5.122  0.6602  0.0084 -0.1135
  798MOL0     C 9997   1.515   7.305   5.151  0.2367 -0.3786 -0.8786
  798MOL0     C 9998   1.472   7.452   5.120  0.2334  0.8180 -0.6266
  798MOL0     C 9999   1.433   7.479   4.973 -0.4315 -0.3194  0.7405
  798MOL0     C10000   1.447   7.626   4.938 -0.8020  0.0796  0.8919
  798MOL0     C10001   1.406   7.684   4.796  0.3869  0.4165  0.5548
  798MOL0     C10002   1.395   7.840   4.791  0.4918  0.4566  0.2221
  798MOL0     N10003   1.520   7.907   4.813 -0.7565 -0.1613 -0.4236
  798MOL0     C10004   1.611   7.922   4.716  0.0857  0.0472  0.2811
  798MOL0     C10005   1.711   7.992   4.777 -0.1518 -0.6593  1.1164
  798MOL0     C10006   1.827   8.063   4.707 -0.1427 -0.2869 -0.0696
  798MOL0     C10007   1.777   8.203   4.643 -0.1271  0.1081  0.4178
  798MOL0     C10008   1.693   8.297   4.743 -0.3187  0.0167 -0.2805
  798MOL0     C10009   1.696   8.433   4.666  0.0939  0.4789  0.4420
  798MOL0     O10010   1.617   8.538   4.711 -0.1780  0.0815  0.2040
  798MOL0     C10011   1.663   8.605   4.814 -0.4032 -0.4321  0.4137
  798MOL0     C10012   1.784   8.591   4.880  0.5954 -0.7152  0.2115
  798MOL0     C10013   1.816   8.658   4.999  0.5160 -0.4450 -0.1174
  798MOL0     C10014   1.955   8.623   5.064  0.2329  0.0582  0.0047
  798MOL0     C10015   1.715   8.745   5.053  0.6473 -0.9257  0.1325
  798MOL0     C10016   1.736   8.814   5.182  0.7049  0.1835 -0.1704
  798MOL0     O10017   1.643   8.920   5.214  0.2803  1.0621 -0.1739
  798MOL0     C10018   1.657   8.985   5.329  0.1802 -0.9679 -0.4000
  798MOL0     C10019   1.765   9.074   5.363 -0.2630 -0.3371 -0.5188
  798MOL0     C10020   1.779   9.138   5.489  0.1862 -0.1477  0.6379
  798MOL0     C10021   1.683   9.115   5.588  0.3645 -0.1656  0.5094
  798MOL0     O10022   1.690   9.186   5.700  0.9286 -0.0460  0.0103
  798MOL0     C10023   1.698   9.121   5.826 -0.1791  0.6820 -0.6446
  798MOL0     C10024   1.835   9.049   5.838 -0.1243 -0.1930 -0.0184
  798MOL0     C10025   1.948   9.142   5.896  0.5291  0.5017  1.2524
  798MOL0     C10026   1.978   9.273   5.819 -0.3235  0.1425  0.0212
  798MOL0     C10027   2.104   9.349   5.886  0.1266  0.2772 -0.2286
  798MOL0     C10028   2.148   9.476   5.813  0.1538 -0.2475  0.1045
  798MOL0     C10029   2.269   9.528   5.879 -0.3664  0.3110 -0.3944
  798MOL0     C10030   2.255   9.676   5.904  0.4839 -0.3624  0.2035
  798MOL0    Cl10031   2.260   9.748   5.748  0.1554  0.0838  0.2999
  798MOL0     C10032   1.581   9.024   5.569  0.5655  0.8013 -0.0135
  798MOL0     C10033   1.570   8.960   5.441 -0.7500 -0.8057 -0.0347
  798MOL0     O10034   1.827   8.776   5.259 -0.1946 -0.1570  0.3662
  798MOL0     C10035   1.594   8.769   4.979 -0.4352  0.5103  0.4524
  798MOL0     C10036   1.580   8.694   4.865  0.2683 -0.1953 -0.1491
  798MOL0     N10037   1.683   8.007   4.913  0.2914 -1.0220 -0.4872
  798MOL0     N10038   1.568   7.948   4.927 -0.4627 -0.1702 -0.8256
  798MOL0     C10039   1.224   6.911   5.362 -0.5346  1.1434  0.0754
  798MOL0     C10040   1.165   6.926   5.486 -0.5308  0.0337 -1.0986
  798MOL0     C10041   1.001   7.106   5.860  0.8849  0.0545 -0.0183
  798MOL0     C10042   1.056   7.021   5.959 -0.2283 -0.6820 -0.0873
  798MOL0     C10043   1.031   7.034   6.095 -0.7363 -0.1002 -1.3128
  798MOL0     C10044   0.942   7.133   6.140  0.2670 -0.4099 -0.1569
  798MOL0     O10045   0.910   7.141   6.272 -0.2271  0.3343 -0.3653
  798MOL0     C10046   0.835   7.253   6.311  0.6457 -0.1897 -0.3937
  798MOL0     C10047   0.825   7.261   6.465  0.5713  0.5291  0.3370
  798MOL0     C10048   0.772   7.134   6.533  0.6955 -0.0888 -0.5792
  798MOL0     C10049   0.760   7.164   6.684  0.1274  0.3813  0.4683
  798MOL0     C10050   0.684   7.046   6.744  0.1816  0.2379  0.1843
  798MOL0     C10051   0.618   6.957   6.798  0.0641  0.2566  0.1297
  798MOL0     C10052   0.897   7.227   6.037  0.6401 -1.5575  0.5001
  798MOL0     C10053   0.923   7.216   5.899 -0.9776 -0.2101  0.8273
  798MOL0     C10054   0.873   7.326   5.804  0.8106  0.6694  0.0459
  798MOL0     H10055   1.360   7.157   5.620  2.8689  2.4490 -3.4328
  798MOL0     H10056   1.471   7.145   5.397  0.2228 -2.4538 -2.6911
  798MOL0     H10057   1.520   7.030   5.049 -0.5533 -1.2948 -0.0543
  798MOL0     H10058   1.558   7.071   5.209 -0.0654  1.2728 -0.0440
  798MOL0     H10059   1.370   7.203   5.019 -2.8562 -1.7694  0.9429
  798MOL0     H10060   1.309   7.220   5.168  1.4130  1.6461  0.9175
  798MOL0     H10061   1.541   7.297   5.257 -2.6217 -1.4476 -0.1746
  798MOL0     H10062   1.600   7.273   5.089 -0.5166 -2.0875 -1.0893
  798MOL0     H10063   1.390   7.480   5.187 -2.0585 -1.3561 -2.3573
  798MOL0     H10064   1.559   7.513   5.147  1.6159 -0.9925 -0.8252
  798MOL0     H10065   1.329   7.451   4.954  0.4566 -1.8500 -2.4952
  798MOL0     H10066   1.500   7.415   4.915 -0.8068  0.0428 -0.0972
  798MOL0     H10067   1.405   7.696   5.011  3.3652  2.8034  1.0151
  798MOL0     H10068   1.556   7.640   4.940 -0.0540 -3.4253 -2.8120
  798MOL0     H10069   1.309   7.657   4.754  1.0238  0.3956 -0.9345
  798MOL0     H10070   1.475   7.644   4.722 -0.3652  0.5353 -0.2256
  798MOL0     H10071   1.359   7.858   4.689 -0.9262 -1.9890  0.1992
  798MOL0     H10072   1.317   7.872   4.860  1.1750 -0.9651  1.7191
  798MOL0     H10073   1.608   7.897   4.610  2.0384 -2.2103  0.6805
  798MOL0     H10074   1.871   7.999   4.629  1.1296  1.5171 -0.8968
  798MOL0     H10075   1.896   8.088   4.788 -2.5926 -2.2364  2.8370
  798MOL0     H10076   1.868   8.257   4.618  1.5692 -2.1410  1.3232
  798MOL0     H10077   1.733   8.179   4.546  0.5292 -1.5818  0.4954
  798MOL0     H10078   1.591   8.264   4.763 -1.3772 -1.3096 -5.9841
  798MOL0     H10079   1.757   8.300   4.832  1.9544  0.0550 -1.8142
  798MOL0     H10080   1.797   8.471   4.646  0.3402 -0.5768 -0.4051
  798MOL0     H10081   1.648   8.407   4.571  0.1304 -3.2090  1.3116
  798MOL0     H10082   1.860   8.517   4.858 -0.3225 -1.7989  0.5716
  798MOL0     H10083   1.999   8.551   4.995 -2.5031 -2.5924  0.8137
  798MOL0     H10084   1.950   8.565   5.156  0.1046 -3.6780 -2.1579
  798MOL0     H10085   2.018   8.709   5.087  1.2235 -0.9696  1.2489
  798MOL0     H10086   1.841   9.105   5.293  0.1522 -0.3651 -0.0864
  798MOL0     H10087   1.863   9.203   5.513 -0.4575  1.4798 -1.1990
  798MOL0     H10088   1.694   9.190   5.910  2.8824  1.4221 -1.0068
  798MOL0     H10089   1.615   9.054   5.849  1.8819 -1.3533  1.3446
  798MOL0     H10090   1.820   8.956   5.894 -0.8950  1.0991  2.0619
  798MOL0     H10091   1.861   9.021   5.736 -0.7892  0.3531 -0.3417
  798MOL0     H10092   2.042   9.086   5.898 -0.4384 -1.8292 -3.4581
  798MOL0     H10093   1.908   9.176   5.992 -1.2057  0.0691  0.7225
  798MOL0     H10094   1.884   9.329   5.820  1.2942  3.1185 -1.0681
  798MOL0     H10095   2.001   9.252   5.714 -1.9519  1.1772 -0.5880
  798MOL0     H10096   2.090   9.366   5.993  2.7790 -2.7326  0.7863
  798MOL0     H10097   2.185   9.275   5.886 -0.2586 -0.1454 -0.0531
  798MOL0     H10098   2.068   9.550   5.816 -0.7941 -1.0834 -2.0431
  798MOL0     H10099   2.166   9.462   5.706 -0.0718  0.9491 -0.1054
  798MOL0     H10100   2.364   9.493   5.837  1.3012 -1.6052  4.2746
  798MOL0     H10101   2.267   9.489   5.981  3.4357 -2.1069 -1.0708
  798MOL0     H10102   2.336   9.714   5.966 -0.9077  1.5734  0.9092
  798MOL0     H10103   2.164   9.699   5.960  0.6392 -1.0883  0.7673
  798MOL0     H10104   1.510   9.013   5.650 -0.4637  1.3862 -0.8111
  798MOL0     H10105   1.490   8.888   5.430 -1.9879  0.5403 -0.2350
  798MOL0     H10106   1.504   8.827   4.999 -0.8939  0.7764 -2.0399
  798MOL0     H10107   1.484   8.695   4.814 -0.4198 -2.0816  1.0058
  798MOL0     H10108   1.177   6.835   5.300 -0.5889 -0.1352  1.6326
  798MOL0     H10109   1.077   6.870   5.517  1.0752 -1.9732  0.1034
  798MOL0     H10110   1.119   6.940   5.927  0.9704 -1.1432  3.1113
  798MOL0     H10111   1.070   6.963   6.167 -1.1026 -1.1950 -2.1634
  798MOL0     H10112   0.873   7.350   6.275  0.2265  0.8906  1.9031
  798MOL0     H10113   0.735   7.245   6.267  0.9795 -0.0079 -1.2004
  798MOL0     H10114   0.757   7.345   6.482  0.4192  0.7242 -1.1501
  798MOL0     H10115   0.925   7.286   6.501 -0.2119  1.4671  1.9940
  798MOL0     H10116   0.676   7.098   6.495 -0.2856 -0.5917  2.1664
  798MOL0     H10117   0.843   7.051   6.520  1.5142  0.3282  0.9709
  798MOL0     H10118   0.694   7.244   6.718 -0.2628 -0.4973  1.8762
  798MOL0     H10119   0.851   7.184   6.742  0.2215  1.7524 -0.1126
  798MOL0     H10120   0.567   6.878   6.849 -1.4070  0.6010 -0.7430
  798MOL0     H10121   0.826   7.307   6.057  1.7988 -0.7483  1.5491
  798MOL0     H10122   0.949   7.371   5.739 -0.0231  1.6576 -0.2720
  798MOL0     H10123   0.792   7.286   5.742 -1.0243  4.4307 -0.3111
  798MOL0     H10124   0.835   7.416   5.853  1.9931  1.4454 -0.3980
  799MOL0     O10125   5.428  10.337   5.333 -0.2649  0.0749 -0.3683
  799MOL0     C10126   5.403  10.284   5.437  0.4308  0.7499  0.2637
  799MOL0     O10127   5.472  10.291   5.550  0.4988  0.6570  0.4713
  799MOL0     C10128   5.599  10.343   5.552 -0.1122  0.3534  0.7053
  799MOL0     C10129   5.634  10.410   5.663  0.4634  0.4702 -0.5195
  799MOL0     C10130   5.764  10.467   5.675  0.0168 -0.2443 -0.5578
  799MOL0     C10131   5.867  10.428   5.591  0.4833 -0.9506  0.0733
  799MOL0     O10132   5.993  10.476   5.586  0.0765 -0.9158 -0.0908
  799MOL0     C10133   6.034  10.538   5.713  0.0663 -0.0772  0.2456
  799MOL0     C10134   6.188  10.559   5.722  0.5891 -0.1041  0.4887
  799MOL0     C10135   6.236  10.656   5.611  0.2021 -0.5294  0.6442
  799MOL0     C10136   6.169  10.793   5.625 -0.2751 -0.2814 -0.1403
  799MOL0     C10137   6.246  10.913   5.557 -0.2875  0.4668 -0.1184
  799MOL0     C10138   6.246  10.891   5.402 -0.0801  0.7045 -0.4117
  799MOL0     C10139   6.266  11.030   5.337  0.8637  0.4926  0.2770
  799MOL0     C10140   6.302  11.032   5.196 -0.7648 -0.4566 -1.0088
  799MOL0     N10141   6.195  10.976   5.112  0.6458 -0.2849 -0.0450
  799MOL0     C10142   6.074  11.038   5.090 -0.1891 -0.6980  0.5866
  799MOL0     C10143   6.016  10.967   4.989  0.4240  0.7230  0.9839
  799MOL0     C10144   5.898  11.017   4.909 -0.7030 -0.3310 -0.5232
  799MOL0     C10145   5.769  11.028   4.985 -0.3405  0.6205  0.3238
  799MOL0     C10146   5.655  11.071   4.889  0.2988  1.0328  0.1509
  799MOL0     C10147   5.528  11.064   4.973 -0.3859  0.0617 -0.1822
  799MOL0     O10148   5.494  10.923   4.985 -1.0475  0.2661 -0.0031
  799MOL0     C10149   5.387  10.880   4.918 -0.4649  0.1800  1.0174
  799MOL0     C10150   5.384  10.895   4.773  1.3579  0.0760 -0.5835
  799MOL0     C10151   5.287  10.830   4.702 -0.6014  0.7174 -0.5036
  799MOL0     C10152   5.320  10.845   4.557  0.5888  0.0528  0.1343
  799MOL0     C10153   5.184  10.753   4.769 -0.1941 -0.0507  0.0432
  799MOL0     C10154   5.075  10.684   4.695  0.2859  0.8749  0.0105
  799MOL0     O10155   5.003  10.585   4.755 -0.2198  0.2836 -0.4786
  799MOL0     C10156   4.896  10.524   4.695 -0.2385 -0.1929  0.3505
  799MOL0     C10157   4.766  10.570   4.717 -0.5997  0.0064 -1.1017
  799MOL0     C10158   4.658  10.514   4.651  0.0675  0.1476 -0.3568
  799MOL0     C10159   4.688  10.418   4.548 -0.5615 -0.8576 -0.8251
  799MOL0     O10160   4.577  10.363   4.497  0.4428  0.7273  0.8476
  799MOL0     C10161   4.570  10.289   4.369  0.6594 -0.4586 -1.1033
  799MOL0     C10162   4.517  10.394   4.267 -0.1267  0.4413  1.0438
  799MOL0     C10163   4.600  10.500   4.215 -0.1236 -1.1310  0.1707
  799MOL0     C10164   4.703  10.447   4.113  0.8474 -0.3355 -0.1542
  799MOL0     C10165   4.787  10.572   4.072  0.3899  0.0273  0.4344
  799MOL0     C10166   4.801  10.573   3.923 -0.7235  0.6557  1.6314
  799MOL0     C10167   4.684  10.637   3.852  0.7470  0.2331 -0.0378
  799MOL0     C10168   4.710  10.654   3.710  0.2967 -0.0812  0.3839
  799MOL0    Cl10169   4.797  10.804   3.672 -0.6234  0.2644 -0.0317
  799MOL0     C10170   4.815  10.370   4.512  0.4213 -0.6096  0.2928
  799MOL0     C10171   4.927  10.423   4.592  0.2140 -0.7083 -0.6995
  799MOL0     O10172   5.047  10.723   4.581  0.1786 -0.1366 -0.2648
  799MOL0     C10173   5.186  10.751   4.909  0.4702  0.3187 -0.5974
  799MOL0     C10174   5.283  10.817   4.981  0.8518  0.4180 -0.1454
  799MOL0     N10175   6.106  10.861   4.964 -0.6505  0.6484  2.0990
  799MOL0     N10176   6.210  10.871   5.030 -0.6398  0.0368  0.5683
  799MOL0     C10177   5.826  10.353   5.476 -0.6691 -0.7127  0.3167
  799MOL0     C10178   5.695  10.308   5.459  0.3880 -0.2013  0.2519
  799MOL0     C10179   5.271  10.216   5.468 -0.1151 -0.2401  0.4448
  799MOL0     C10180   5.236  10.168   5.602 -0.3881 -0.4644 -0.3380
  799MOL0     C10181   5.115  10.092   5.629 -0.3770  1.2381 -0.3024
  799MOL0     C10182   5.036  10.061   5.516  0.0535 -0.0124  0.9366
  799MOL0     O10183   4.924   9.990   5.533 -0.2026  0.1666  0.0482
  799MOL0     C10184   4.893   9.879   5.447  0.0663 -0.0363 -0.7615
  799MOL0     C10185   4.996   9.759   5.455 -0.3686  0.3452  0.0410
  799MOL0     C10186   5.033   9.726   5.600  0.0312 -0.6309 -0.1376
  799MOL0     C10187   5.100   9.592   5.607  0.8498  0.0390 -0.4823
  799MOL0     C10188   5.228   9.586   5.542 -0.0272  0.9046  0.4407
  799MOL0     C10189   5.333   9.562   5.480 -0.1167 -0.1307 -0.5253
  799MOL0     C10190   5.056  10.125   5.392  0.0075  1.0200 -0.5656
  799MOL0     C10191   5.180  10.175   5.368 -0.3616  0.3172  0.5185
  799MOL0     C10192   5.198  10.207   5.217  1.0012  0.7994  0.0599
  799MOL0     H10193   5.563  10.438   5.740  1.4661  0.4053  0.4436
  799MOL0     H10194   5.791  10.532   5.757  3.9389  0.9077 -2.4722
  799MOL0     H10195   6.013  10.476   5.800  1.1085  2.5488  2.5184
  799MOL0     H10196   5.987  10.636   5.725  1.2902  0.6698 -0.7755
  799MOL0     H10197   6.213  10.604   5.819  1.0419 -1.9674  1.2917
  799MOL0     H10198   6.236  10.465   5.693  1.0536  0.5373 -0.8779
  799MOL0     H10199   6.344  10.670   5.621 -0.1181  2.4079  0.7317
  799MOL0     H10200   6.214  10.626   5.508 -0.4974  0.1570  0.5854
  799MOL0     H10201   6.072  10.776   5.577 -1.9619  0.4021  2.7561
  799MOL0     H10202   6.155  10.804   5.733  2.3427 -1.5835  0.4180
  799MOL0     H10203   6.349  10.917   5.594 -0.7286 -0.4169  1.2581
  799MOL0     H10204   6.205  11.015   5.562  1.3688  1.1347  0.4354
  799MOL0     H10205   6.326  10.821   5.374 -0.4146  0.2473 -0.2360
  799MOL0     H10206   6.157  10.841   5.364  1.5776 -2.0443 -0.9503
  799MOL0     H10207   6.328  11.098   5.398  1.2928  0.8990 -0.6008
  799MOL0     H10208   6.168  11.078   5.346  0.1597 -0.4139 -2.0335
  799MOL0     H10209   6.325  11.133   5.160 -0.2493 -0.8208 -1.7461
  799MOL0     H10210   6.391  10.976   5.168 -0.3172 -0.3654  0.1619
  799MOL0     H10211   6.041  11.139   5.112 -2.7227 -1.5214  0.8524
  799MOL0     H10212   5.883  10.960   4.817 -1.9804 -2.0265  0.6757
  799MOL0     H10213   5.928  11.118   4.878 -1.3397 -0.3808 -1.3252
  799MOL0     H10214   5.759  10.927   5.024  1.0021  1.0608  1.9213
  799MOL0     H10215   5.770  11.093   5.073  2.6193 -0.6852  1.4053
  799MOL0     H10216   5.679  11.170   4.848 -0.9023  0.9273 -0.8561
  799MOL0     H10217   5.646  11.011   4.798 -0.2962 -0.0914  0.9380
  799MOL0     H10218   5.534  11.105   5.074  1.3717 -1.8332  0.5544
  799MOL0     H10219   5.445  11.121   4.929  0.4492  3.3926  2.1600
  799MOL0     H10220   5.455  10.964   4.727  0.7185  0.3324 -1.2078
  799MOL0     H10221   5.258  10.775   4.502 -0.1438 -1.3360  2.5747
  799MOL0     H10222   5.425  10.824   4.532  0.8540  0.1069  1.1674
  799MOL0     H10223   5.284  10.947   4.540 -2.2176 -1.1545 -1.8493
  799MOL0     H10224   4.746  10.647   4.792  0.7106 -1.2631  0.6292
  799MOL0     H10225   4.553  10.529   4.674 -0.3974 -3.7233  0.6809
  799MOL0     H10226   4.661  10.235   4.344  1.8419  0.3534  1.1733
  799MOL0     H10227   4.493  10.212   4.379  0.9163 -0.3907  3.1561
  799MOL0     H10228   4.476  10.347   4.178  1.7613  0.6888 -0.0134
  799MOL0     H10229   4.428  10.441   4.309 -0.5522  0.7837 -0.2136
  799MOL0     H10230   4.656  10.549   4.295  0.0868  0.5947 -0.9837
  799MOL0     H10231   4.537  10.571   4.161  2.5984  0.6937 -0.8097
  799MOL0     H10232   4.650  10.406   4.027 -0.0352 -1.1678  0.7666
  799MOL0     H10233   4.780  10.380   4.153  1.8707  2.5202  3.1167
  799MOL0     H10234   4.741  10.667   4.102  1.3311  0.1930  1.3891
  799MOL0     H10235   4.879  10.556   4.129 -0.1419 -1.5115  0.8932
  799MOL0     H10236   4.825  10.474   3.884 -2.1313  0.7562  0.3839
  799MOL0     H10237   4.883  10.642   3.902  1.6689 -2.6188 -0.7380
  799MOL0     H10238   4.659  10.737   3.889  0.7263  0.2689 -0.1495
  799MOL0     H10239   4.598  10.570   3.854 -0.9216  2.1244 -2.4682
  799MOL0     H10240   4.615  10.654   3.655  1.5001 -0.8801 -1.8448
  799MOL0     H10241   4.772  10.574   3.669  2.8014  2.3403 -0.8594
  799MOL0     H10242   4.838  10.294   4.437 -0.4821  1.5482 -2.3190
  799MOL0     H10243   5.027  10.384   4.576 -0.7729 -3.1792 -1.2142
  799MOL0     H10244   5.111  10.694   4.962  1.0300 -1.5828 -1.7407
  799MOL0     H10245   5.288  10.812   5.089  1.8552 -2.2369 -0.2537
  799MOL0     H10246   5.903  10.339   5.401 -0.7325  0.8310 -0.0609
  799MOL0     H10247   5.682  10.254   5.365  1.3877 -1.4774  0.8066
  799MOL0     H10248   5.295  10.184   5.692  0.2875  0.7116 -0.9684
  799MOL0     H10249   5.082  10.049   5.724  0.9228 -0.9249 -0.7663
  799MOL0     H10250   4.796   9.832   5.466  0.6213 -0.3319  1.5908
  799MOL0     H10251   4.887   9.910   5.342  0.5731  0.6543 -0.5959
  799MOL0     H10252   5.086   9.795   5.405 -0.2277 -0.7144 -0.4979
  799MOL0     H10253   4.952   9.668   5.413 -1.9717  0.0913  2.1225
  799MOL0     H10254   5.106   9.802   5.632  2.1223 -1.8297 -1.8068
  799MOL0     H10255   4.946   9.734   5.665  0.6115 -1.9095  0.8363
  799MOL0     H10256   5.028   9.523   5.561 -2.5847  2.6518  0.4916
  799MOL0     H10257   5.126   9.562   5.709  1.7188 -0.1142 -0.7426
  799MOL0     H10258   5.426   9.542   5.430  0.1731 -0.0632 -0.0270
  799MOL0     H10259   4.980  10.113   5.315 -1.3431  0.6338  0.7670
  799MOL0     H10260   5.143  10.130   5.161  0.3842  0.8376  0.6001
  799MOL0     H10261   5.165  10.306   5.185 -0.2502 -0.0371 -1.4126
  799MOL0     H10262   5.304  10.199   5.192  0.5908 -0.5341 -1.4430
  800MOL0     O10263   0.654   6.439   9.862 -0.3701 -0.6443 -0.3404
  800MOL0     C10264   0.602   6.517   9.779 -1.0861 -0.0437 -0.0483
  800MOL0     O10265   0.668   6.583   9.678 -0.1412  0.0291  0.5433
  800MOL0     C10266   0.804   6.550   9.665  1.3540 -0.3641 -0.2030
  800MOL0     C10267   0.852   6.424   9.641  0.0761 -0.6465 -0.0500
  800MOL0     C10268   0.985   6.406   9.613  0.0083 -0.4888  0.2235
  800MOL0     C10269   1.080   6.506   9.629  0.4350 -0.2519 -0.6607
  800MOL0     O10270   1.208   6.478   9.607 -0.6725 -0.3471  0.3631
  800MOL0     C10271   1.262   6.524   9.480 -0.5430 -0.1875 -0.4250
  800MOL0     C10272   1.417   6.508   9.482  0.7715 -0.2555  0.0680
  800MOL0     C10273   1.482   6.532   9.344 -0.7793 -0.0152 -0.1349
  800MOL0     C10274   1.632   6.493   9.349  0.1963  0.0104  0.4799
  800MOL0     C10275   1.691   6.553   9.219  0.0056 -1.0806 -0.3949
  800MOL0     C10276   1.826   6.485   9.198  0.1334  0.4536  1.2258
  800MOL0     C10277   1.884   6.539   9.063 -0.2065 -0.2827 -0.2086
  800MOL0     C10278   2.037   6.562   9.056 -0.7693  0.5729  0.3153
  800MOL0     N10279   2.104   6.428   9.026 -0.0562 -1.2401  0.2162
  800MOL0     C10280   2.165   6.398   8.909 -0.4471 -0.5266  0.0054
  800MOL0     C10281   2.230   6.285   8.928  1.4301  1.3676 -1.0548
  800MOL0     C10282   2.327   6.227   8.841 -0.2335 -0.0334  1.0007
  800MOL0     C10283   2.269   6.109   8.778 -0.1105 -0.0808  0.7570
  800MOL0     C10284   2.356   6.056   8.657 -0.2333  0.0977 -0.9624
  800MOL0     C10285   2.486   5.993   8.710 -0.1330  0.1380 -0.1135
  800MOL0     O10286   2.577   5.965   8.595 -0.7553  0.0138  0.7447
  800MOL0     C10287   2.711   5.961   8.629  0.8155  0.3258 -0.2239
  800MOL0     C10288   2.774   6.060   8.701 -0.5762  0.8358 -0.2021
  800MOL0     C10289   2.911   6.047   8.739 -0.5732 -0.7886 -0.5141
  800MOL0     C10290   2.970   6.148   8.837  0.3439  0.2567  1.0017
  800MOL0     C10291   2.991   5.947   8.681 -0.0186  0.1257 -0.4391
  800MOL0     C10292   3.139   5.929   8.693 -0.5189 -0.2450  0.4489
  800MOL0     O10293   3.210   6.043   8.723 -0.5364 -0.1764  0.2773
  800MOL0     C10294   3.349   6.042   8.751  0.7979  0.0294  0.1476
  800MOL0     C10295   3.408   5.924   8.803 -0.0119 -0.2034  0.5992
  800MOL0     C10296   3.547   5.925   8.818  0.1463 -0.0569 -0.4425
  800MOL0     C10297   3.621   6.042   8.790 -0.6223  0.2391  0.5958
  800MOL0     O10298   3.760   6.039   8.783 -0.6392  0.1178  0.3919
  800MOL0     C10299   3.816   5.937   8.868  0.7213  0.4776  0.3863
  800MOL0     C10300   3.961   5.982   8.880 -0.1000  0.4374 -0.0135
  800MOL0     C10301   4.054   5.853   8.879 -0.1173 -0.0520 -0.2314
  800MOL0     C10302   4.204   5.883   8.902  0.1399  0.6240  0.1868
  800MOL0     C10303   4.297   5.752   8.907 -0.5281 -0.2260  0.4316
  800MOL0     C10304   4.449   5.778   8.944  0.0634  0.5007 -0.3569
  800MOL0     C10305   4.533   5.653   8.950  0.0018 -0.5146 -0.5974
  800MOL0     C10306   4.530   5.579   9.085  0.5557 -0.2575  0.4978
  800MOL0    Cl10307   4.657   5.455   9.074 -0.1283 -0.2433 -0.0621
  800MOL0     C10308   3.555   6.145   8.732  0.1542 -0.4737 -0.1482
  800MOL0     C10309   3.413   6.157   8.717 -0.2689 -0.2821  0.8119
  800MOL0     O10310   3.180   5.818   8.675  0.4866  0.0567 -0.6018
  800MOL0     C10311   2.923   5.848   8.599 -0.5168 -0.4845 -0.9790
  800MOL0     C10312   2.783   5.857   8.577 -0.1793  0.1642 -0.0849
  800MOL0     N10313   2.200   6.241   9.060 -0.1164  0.0982 -0.4356
  800MOL0     N10314   2.138   6.338   9.117 -0.0762  0.3949 -0.3191
  800MOL0     C10315   1.036   6.638   9.661  0.1881  0.3528 -0.1961
  800MOL0     C10316   0.894   6.657   9.676  0.1093  0.0562  0.5703
  800MOL0     C10317   0.466   6.552   9.803  0.3690 -0.6750  0.8920
  800MOL0     C10318   0.429   6.610   9.924 -0.7265 -0.7198 -0.0972
  800MOL0     C10319   0.291   6.647   9.940 -0.2753 -0.0029 -0.5211
  800MOL0     C10320   0.196   6.637   9.843 -0.7466 -0.5454  0.6466
  800MOL0     O10321   0.068   6.678   9.869  0.3790  0.8545  0.0294
  800MOL0     C10322  -0.035   6.641   9.780  0.3437 -0.3230  0.0420
  800MOL0     C10323  -0.175   6.665   9.847  0.3248  0.1402  0.5838
  800MOL0     C10324  -0.256   6.532   9.857  0.3963 -0.3300 -0.1946
  800MOL0     C10325  -0.388   6.543   9.928  0.7554  1.0626 -0.4500
  800MOL0     C10326  -0.462   6.416   9.942  0.0238 -0.4423  0.3759
  800MOL0     C10327  -0.515   6.309   9.941  0.7559 -0.1996  0.4496
  800MOL0     C10328   0.244   6.584   9.725  0.7232 -0.0472  0.6894
  800MOL0     C10329   0.370   6.545   9.701 -0.5425 -0.0853  0.4702
  800MOL0     C10330   0.383   6.469   9.572 -0.6460 -1.2141 -0.2132
  800MOL0     H10331   0.778   6.347   9.619  1.3474 -1.3515 -2.2176
  800MOL0     H10332   1.024   6.312   9.576  1.4406 -1.0612  2.9036
  800MOL0     H10333   1.242   6.630   9.461  0.7028  0.0208 -0.6466
  800MOL0     H10334   1.216   6.471   9.396 -1.0389 -2.2600  1.0817
  800MOL0     H10335   1.460   6.572   9.560  2.7438 -2.4877  0.9222
  800MOL0     H10336   1.431   6.402   9.505  2.1464 -0.1706 -0.3112
  800MOL0     H10337   1.427   6.481   9.264 -2.2894 -0.1589  0.9620
  800MOL0     H10338   1.469   6.635   9.311  0.9155 -0.1013 -1.1856
  800MOL0     H10339   1.675   6.543   9.436 -1.4396  2.8213 -0.1846
  800MOL0     H10340   1.640   6.385   9.361 -0.0498  0.0386  0.9195
  800MOL0     H10341   1.685   6.661   9.239 -2.5647 -1.6861  3.0158
  800MOL0     H10342   1.631   6.527   9.131 -0.0733  2.6305 -1.6151
  800MOL0     H10343   1.891   6.497   9.285  1.3095  0.9757  0.3258
  800MOL0     H10344   1.799   6.381   9.179  1.2694  0.1452  1.2459
  800MOL0     H10345   1.837   6.636   9.048  1.0704  0.8074  2.2248
  800MOL0     H10346   1.839   6.470   8.990 -3.0321  0.6943  0.4962
  800MOL0     H10347   2.061   6.633   8.977  0.8975 -0.2902  0.0014
  800MOL0     H10348   2.073   6.594   9.155 -0.6027 -1.6704  1.0421
  800MOL0     H10349   2.181   6.458   8.820  1.8588  1.9825  1.9322
  800MOL0     H10350   2.412   6.211   8.907  0.3980  2.3287  0.8441
  800MOL0     H10351   2.364   6.302   8.770 -0.8809 -0.2297  0.4474
  800MOL0     H10352   2.254   6.041   8.863  0.1432 -0.0080  0.8625
  800MOL0     H10353   2.175   6.127   8.725  0.2620  0.0682  0.1394
  800MOL0     H10354   2.292   5.986   8.602 -3.5293  1.3221  1.0347
  800MOL0     H10355   2.374   6.142   8.592  1.3137 -0.1102 -0.8539
  800MOL0     H10356   2.533   6.049   8.792  2.3045 -1.2037 -0.4841
  800MOL0     H10357   2.477   5.898   8.765  1.8388 -0.4864 -0.7805
  800MOL0     H10358   2.721   6.137   8.756 -1.0934 -1.0488  2.0955
  800MOL0     H10359   2.893   6.200   8.894  0.0073  1.1386 -0.2308
  800MOL0     H10360   3.025   6.222   8.778 -1.5954  0.5400 -0.5202
  800MOL0     H10361   3.037   6.109   8.915  1.1179  1.5643  1.0114
  800MOL0     H10362   3.350   5.834   8.821 -1.4639  0.0660 -2.1723
  800MOL0     H10363   3.593   5.833   8.853  1.8336  0.7464 -0.4568
  800MOL0     H10364   3.779   5.946   8.971  1.6979  2.7440  0.5920
  800MOL0     H10365   3.813   5.840   8.817 -3.7218  0.6720 -0.0825
  800MOL0     H10366   3.995   6.047   8.799  0.5261  0.7356  0.4803
  800MOL0     H10367   3.971   6.035   8.975 -2.2145 -0.3026  0.6698
  800MOL0     H10368   4.042   5.815   8.777 -2.8096  1.4554 -0.5783
  800MOL0     H10369   4.025   5.780   8.956  0.5854  2.0096  2.1370
  800MOL0     H10370   4.213   5.956   8.984 -0.3463  2.5946 -1.4290
  800MOL0     H10371   4.237   5.950   8.822  0.3796 -0.5737 -0.7280
  800MOL0     H10372   4.250   5.683   8.977  0.1142 -3.2237 -1.9107
  800MOL0     H10373   4.279   5.710   8.808 -3.5307  4.0986 -1.1871
  800MOL0     H10374   4.449   5.829   9.041  0.1778 -2.1938  1.1568
  800MOL0     H10375   4.488   5.846   8.868  2.9300  1.2404  1.5720
  800MOL0     H10376   4.636   5.687   8.932 -0.4702  0.7007 -1.0589
  800MOL0     H10377   4.510   5.575   8.876 -0.6917 -0.1253 -0.7996
  800MOL0     H10378   4.431   5.533   9.093 -0.6742  1.8243 -1.3956
  800MOL0     H10379   4.544   5.641   9.173  0.6508 -1.5738  1.4412
  800MOL0     H10380   3.609   6.228   8.688  2.4353 -1.4922  0.5749
  800MOL0     H10381   3.371   6.243   8.666  2.5044 -0.9093 -2.9492
  800MOL0     H10382   2.986   5.766   8.567  2.8384  2.1929 -1.9088
  800MOL0     H10383   2.727   5.784   8.519 -0.0421  1.1987 -1.5776
  800MOL0     H10384   1.108   6.719   9.669  1.2198 -0.1477 -3.1751
  800MOL0     H10385   0.856   6.754   9.705 -0.8477  0.1012 -0.7276
  800MOL0     H10386   0.505   6.639   9.995 -1.2847 -0.4696  0.4098
  800MOL0     H10387   0.265   6.684  10.039  0.6503 -0.5450 -0.0617
  800MOL0     H10388  -0.033   6.690   9.682  2.8492 -0.2785  0.0478
  800MOL0     H10389  -0.036   6.534   9.758  0.9111 -0.0601 -1.3895
  800MOL0     H10390  -0.235   6.740   9.794 -1.3174 -1.5707 -0.0592
  800MOL0     H10391  -0.161   6.705   9.948  0.8147  1.3931  0.0343
  800MOL0     H10392  -0.280   6.493   9.758  1.6710 -1.0933 -0.2321
  800MOL0     H10393  -0.188   6.467   9.913  0.7779 -0.4439 -0.7790
  800MOL0     H10394  -0.449   6.615   9.874 -1.0037  1.0537  1.4327
  800MOL0     H10395  -0.377   6.581  10.030  1.5431 -0.3553  0.0214
  800MOL0     H10396  -0.573   6.219   9.950 -1.1076  0.7605 -1.1437
  800MOL0     H10397   0.178   6.573   9.640  0.4267  2.0333  0.6063
  800MOL0     H10398   0.476   6.411   9.571  0.3433  0.2975 -0.0110
  800MOL0     H10399   0.303   6.397   9.553  0.0564 -1.7921 -1.0569
  800MOL0     H10400   0.382   6.545   9.493  3.0730  0.3464  0.9951
  801MOL0     O10401   1.466  11.265   0.033  0.0493 -0.0863  0.3543
  801MOL0     C10402   1.472  11.375   0.090  0.8859 -0.5791  0.3265
  801MOL0     O10403   1.568  11.463   0.061  0.3532  0.0265 -0.5190
  801MOL0     C10404   1.693  11.415   0.035 -1.3181 -0.6854  0.2194
  801MOL0     C10405   1.759  11.297   0.086 -0.3660 -0.2850  0.0681
  801MOL0     C10406   1.895  11.276   0.068 -0.4163 -0.2289  0.6639
  801MOL0     C10407   1.975  11.374  -0.000  0.2946  0.5202  0.6395
  801MOL0     O10408   2.113  11.362  -0.001 -0.4167 -0.0702 -0.6776
  801MOL0     C10409   2.182  11.382  -0.125  0.1386 -0.6023  0.2173
  801MOL0     C10410   2.333  11.353  -0.111  0.0233 -0.4271  0.0588
  801MOL0     C10411   2.393  11.398   0.029 -0.0168 -0.3477 -0.3379
  801MOL0     C10412   2.518  11.470  -0.019  0.1846 -0.4255  0.5732
  801MOL0     C10413   2.616  11.493   0.089  0.3145 -0.0410  0.2389
  801MOL0     C10414   2.573  11.583   0.204 -0.9638 -0.0972  1.2633
  801MOL0     C10415   2.687  11.627   0.291 -1.4799 -0.3280 -0.2493
  801MOL0     C10416   2.665  11.752   0.371 -0.6252  0.1376  0.7690
  801MOL0     N10417   2.777  11.783   0.453 -0.4644  0.2945 -0.0846
  801MOL0     C10418   2.901  11.810   0.402 -0.6860  0.1339 -0.4930
  801MOL0     C10419   2.979  11.822   0.514 -1.3554 -0.1393  0.1026
  801MOL0     C10420   3.130  11.845   0.504 -0.1677  0.0479 -0.2433
  801MOL0     C10421   3.205  11.759   0.608  0.1437 -0.5798  1.1462
  801MOL0     C10422   3.173  11.605   0.588  0.3291 -0.7473  0.6824
  801MOL0     C10423   3.288  11.525   0.638  0.5145 -0.0993  0.4874
  801MOL0     O10424   3.397  11.551   0.554  0.1884 -0.0386 -0.2790
  801MOL0     C10425   3.531  11.563   0.603  0.0371  0.6532 -0.1195
  801MOL0     C10426   3.577  11.505   0.724  0.0594 -0.5077 -0.2542
  801MOL0     C10427   3.714  11.514   0.762 -0.4907  0.8822  0.2542
  801MOL0     C10428   3.753  11.463   0.896  0.1531  1.0126  0.1463
  801MOL0     C10429   3.804  11.588   0.678  0.0891  0.3547 -0.0911
  801MOL0     C10430   3.947  11.603   0.716  0.1017  0.3643 -0.3924
  801MOL0     O10431   4.021  11.602   0.606 -0.1663 -0.7375 -0.7805
  801MOL0     C10432   4.148  11.545   0.618  0.6616  0.2744 -0.2736
  801MOL0     C10433   4.234  11.595   0.524 -0.1006 -0.0049  0.1060
  801MOL0     C10434   4.372  11.559   0.526 -0.0791  0.0371  0.6441
  801MOL0     C10435   4.405  11.453   0.610 -0.4269  0.3429 -0.2778
  801MOL0     O10436   4.526  11.392   0.601  1.1395  0.0817 -0.1041
  801MOL0     C10437   4.574  11.382   0.468 -0.8902  0.0590 -0.1099
  801MOL0     C10438   4.691  11.277   0.470  0.0801 -0.8386 -0.5581
  801MOL0     C10439   4.650  11.130   0.481 -0.7247 -0.3622 -0.3530
  801MOL0     C10440   4.769  11.034   0.486 -0.7995 -0.3335 -0.5595
  801MOL0     C10441   4.839  11.024   0.345  0.0429 -0.0727  0.1508
  801MOL0     C10442   4.949  10.919   0.328 -1.1781  0.0513  0.4417
  801MOL0     C10443   5.027  10.942   0.199 -0.2037  0.1283  0.0813
  801MOL0     C10444   5.104  10.816   0.152 -0.3505 -0.4805  0.7016
  801MOL0    Cl10445   5.238  10.772   0.259 -0.0502 -0.1399  0.0575
  801MOL0     C10446   4.313  11.399   0.699 -0.9233 -1.1939 -0.3606
  801MOL0     C10447   4.183  11.440   0.697  0.0309 -0.5431 -0.1624
  801MOL0     O10448   3.979  11.640   0.828 -0.9316 -0.8471 -0.5803
  801MOL0     C10449   3.761  11.635   0.550  0.0993  0.0750  0.0611
  801MOL0     C10450   3.632  11.620   0.522  0.4864  1.0330  0.3303
  801MOL0     N10451   2.903  11.810   0.625 -0.0098  0.2423  0.0179
  801MOL0     N10452   2.777  11.780   0.587  0.3988  0.3345  0.2952
  801MOL0     C10453   1.898  11.488  -0.058 -0.3000  1.0079  0.0000
  801MOL0     C10454   1.762  11.508  -0.037 -0.0960  0.2673  0.2910
  801MOL0     C10455   1.378  11.403   0.202 -0.0856 -0.1442 -0.1298
  801MOL0     C10456   1.437  11.477   0.307 -0.0667  0.4838 -0.0484
  801MOL0     C10457   1.372  11.498   0.427 -0.0997 -1.3771 -0.0141
  801MOL0     C10458   1.245  11.452   0.450  0.5815 -0.0917 -0.0053
  801MOL0     O10459   1.173  11.475   0.567 -0.8037  0.2081  0.0961
  801MOL0     C10460   1.236  11.533   0.681 -0.1443 -0.6047  0.0276
  801MOL0     C10461   1.140  11.562   0.801 -0.3880 -0.2043 -0.6912
  801MOL0     C10462   1.208  11.642   0.913 -0.0560  0.0438  0.3088
  801MOL0     C10463   1.104  11.709   0.997 -0.2412  0.1132 -0.6855
  801MOL0     C10464   1.153  11.784   1.110 -0.3512  0.8693 -0.0923
  801MOL0     C10465   1.210  11.820   1.203  0.2058 -0.5700  0.5033
  801MOL0     C10466   1.184  11.370   0.343  0.1713 -0.8448 -0.5599
  801MOL0     C10467   1.247  11.351   0.216  0.4009 -0.5214 -0.4739
  801MOL0     C10468   1.188  11.276   0.106  0.3453  0.0326 -0.0238
  801MOL0     H10469   1.696  11.241   0.155 -1.1347  2.6786  1.9658
  801MOL0     H10470   1.940  11.186   0.109  0.6965 -0.4712 -1.0003
  801MOL0     H10471   2.172  11.487  -0.156  2.4065 -0.3278  0.2456
  801MOL0     H10472   2.146  11.320  -0.208 -0.1130 -2.3988  1.6125
  801MOL0     H10473   2.352  11.245  -0.119 -1.6868 -0.8337  1.0426
  801MOL0     H10474   2.388  11.406  -0.189  0.1224  1.1436  1.1531
  801MOL0     H10475   2.337  11.485   0.063 -0.7202  0.0950 -2.4454
  801MOL0     H10476   2.404  11.316   0.101  0.5775 -1.9809 -2.1928
  801MOL0     H10477   2.563  11.397  -0.086 -0.2281 -1.3395  1.2750
  801MOL0     H10478   2.494  11.563  -0.071  0.3161 -0.7124 -0.0045
  801MOL0     H10479   2.712  11.525   0.047  0.7738 -1.6749 -0.0159
  801MOL0     H10480   2.635  11.393   0.129  0.7855 -0.6228 -1.3679
  801MOL0     H10481   2.527  11.666   0.150  0.2348 -0.9834 -1.2959
  801MOL0     H10482   2.498  11.527   0.260 -2.4606  2.3681  1.8739
  801MOL0     H10483   2.787  11.640   0.247 -0.8986 -1.5437  0.6541
  801MOL0     H10484   2.703  11.543   0.360  4.0943  0.2707 -0.2958
  801MOL0     H10485   2.645  11.835   0.302 -4.4096  0.4937  2.0726
  801MOL0     H10486   2.572  11.748   0.429  0.1232 -0.8050  1.9636
  801MOL0     H10487   2.922  11.832   0.298  1.1144  1.6687  0.1359
  801MOL0     H10488   3.138  11.953   0.517 -0.0146  0.1996 -1.5036
  801MOL0     H10489   3.167  11.821   0.404 -0.9431 -0.6610 -0.3735
  801MOL0     H10490   3.312  11.781   0.608  0.3631 -1.5968  0.4504
  801MOL0     H10491   3.175  11.780   0.711 -2.8526  0.6432  0.1408
  801MOL0     H10492   3.082  11.585   0.645  0.1448 -1.3313  0.1895
  801MOL0     H10493   3.153  11.584   0.483  1.2888 -2.6797  0.8300
  801MOL0     H10494   3.317  11.561   0.737 -2.6733 -1.7865  2.1864
  801MOL0     H10495   3.268  11.418   0.638 -1.1507  0.1800  0.5208
  801MOL0     H10496   3.509  11.445   0.783 -0.4631 -1.4153 -1.6988
  801MOL0     H10497   3.669  11.417   0.949 -0.6105  1.4443 -0.6795
  801MOL0     H10498   3.788  11.545   0.959  1.9083 -0.1461  0.7880
  801MOL0     H10499   3.838  11.393   0.893 -1.2256 -0.8468  1.7268
  801MOL0     H10500   4.204  11.673   0.454  0.5120 -2.3672 -3.0213
  801MOL0     H10501   4.449  11.604   0.464  0.0171  1.1682  1.5441
  801MOL0     H10502   4.499  11.345   0.398 -1.3547 -0.0510  0.4321
  801MOL0     H10503   4.615  11.478   0.435 -0.8314 -0.3721 -1.3315
  801MOL0     H10504   4.751  11.302   0.381 -1.7877  0.7283 -1.4600
  801MOL0     H10505   4.769  11.309   0.540 -3.4818  0.6938  3.1625
  801MOL0     H10506   4.588  11.113   0.392 -1.6915  0.4457  0.1405
  801MOL0     H10507   4.585  11.116   0.567 -0.5447  0.4594 -0.0753
  801MOL0     H10508   4.728  10.943   0.531 -1.7881  1.7773  3.1817
  801MOL0     H10509   4.848  11.077   0.548 -0.5721  0.4150 -1.3512
  801MOL0     H10510   4.757  10.993   0.281 -1.7679  1.5340  1.5795
  801MOL0     H10511   4.871  11.123   0.310  0.4023  0.0424  0.7849
  801MOL0     H10512   4.898  10.823   0.323 -0.7167 -0.2015  0.5360
  801MOL0     H10513   5.013  10.930   0.416 -1.3989  1.3636  0.4652
  801MOL0     H10514   5.094  11.027   0.213 -0.3963 -0.2223  4.2728
  801MOL0     H10515   4.957  10.963   0.117 -1.1897  0.8417  1.0851
  801MOL0     H10516   5.149  10.834   0.054 -1.0257 -0.4392  0.3929
  801MOL0     H10517   5.046  10.725   0.132 -0.8081 -0.9781  3.8067
  801MOL0     H10518   4.348  11.317   0.761  0.0978  0.2238  1.0087
  801MOL0     H10519   4.109  11.406   0.768  0.4351  0.7628  0.9256
  801MOL0     H10520   3.828  11.703   0.499 -0.7473  2.2665  1.6511
  801MOL0     H10521   3.599  11.651   0.424  1.3772  0.9381 -0.0095
  801MOL0     H10522   1.949  11.565  -0.115  0.0382 -0.6232 -2.0777
  801MOL0     H10523   1.704  11.590  -0.078 -2.8898 -1.2716  0.9602
  801MOL0     H10524   1.535  11.522   0.297  0.5131 -0.5275  0.8210
  801MOL0     H10525   1.434  11.550   0.499  1.1027 -1.2367 -1.1207
  801MOL0     H10526   1.322  11.468   0.700  0.0559  0.1642  1.9335
  801MOL0     H10527   1.272  11.626   0.636 -0.9335 -0.3742 -0.1473
  801MOL0     H10528   1.110  11.470   0.852  1.2253  0.4180  1.5295
  801MOL0     H10529   1.047  11.596   0.753 -0.3129 -1.8659 -2.1290
  801MOL0     H10530   1.251  11.562   0.973 -2.4313 -1.0205  0.7182
  801MOL0     H10531   1.290  11.701   0.871  0.2715 -0.4813  0.2048
  801MOL0     H10532   1.032  11.639   1.041  1.4035  0.2848  2.5969
  801MOL0     H10533   1.046  11.780   0.937 -3.1387 -1.6824 -0.2176
  801MOL0     H10534   1.259  11.867   1.286  2.3529  1.3234 -1.6740
  801MOL0     H10535   1.090  11.315   0.352 -0.9249  0.7988 -1.3920
  801MOL0     H10536   1.211  11.323   0.010 -0.1909  1.0118  0.3195
  801MOL0     H10537   1.224  11.173   0.106  2.2524  0.5148 -4.0163
  801MOL0     H10538   1.080  11.274   0.122  0.5609 -2.4004  1.7340
  802MOL0     O10539   6.022   2.826   3.370  0.2149 -0.3155  0.6653
  802MOL0     C10540   6.080   2.772   3.467  1.0107 -0.5326  0.6556
  802MOL0     O10541   6.025   2.676   3.539 -0.3697 -0.0037 -0.6600
  802MOL0     C10542   5.894   2.693   3.564 -0.8874  0.0470  0.4144
  802MOL0     C10543   5.842   2.811   3.626  0.9941 -0.0974  0.0421
  802MOL0     C10544   5.694   2.812   3.642  0.0949 -0.2184  0.7182
  802MOL0     C10545   5.620   2.697   3.614 -0.0015  0.7386 -0.0020
  802MOL0     O10546   5.484   2.695   3.628  0.7775 -0.0416  0.1712
  802MOL0     C10547   5.411   2.788   3.709  0.3931  0.2302  0.5218
  802MOL0     C10548   5.272   2.801   3.653  0.2493  0.9433  0.3056
  802MOL0     C10549   5.200   2.906   3.742  0.9172 -0.4481 -0.5560
  802MOL0     C10550   5.066   2.923   3.691  0.3820  0.8560  0.0852
  802MOL0     C10551   4.971   3.023   3.759 -1.0546 -0.6518  0.0001
  802MOL0     C10552   4.994   3.168   3.691  0.1114  0.5271  0.4394
  802MOL0     C10553   4.900   3.275   3.746  0.3850  0.7591 -0.8699
  802MOL0     C10554   4.956   3.416   3.705  0.5321 -1.2889 -0.4706
  802MOL0     N10555   4.850   3.519   3.720  0.6144 -1.2441  0.4003
  802MOL0     C10556   4.794   3.547   3.837  0.1079 -0.4510 -0.3188
  802MOL0     C10557   4.687   3.630   3.806  0.6079 -0.3751 -0.3115
  802MOL0     C10558   4.591   3.682   3.909 -0.6398  0.0502  0.5027
  802MOL0     C10559   4.646   3.676   4.054  0.3416  0.1761  0.4040
  802MOL0     C10560   4.557   3.746   4.164  0.8137  0.5145  0.1123
  802MOL0     C10561   4.612   3.724   4.311  0.0895  0.8220  0.6149
  802MOL0     O10562   4.575   3.602   4.387  0.6123 -0.4195 -0.0752
  802MOL0     C10563   4.644   3.485   4.375  0.4188 -0.1525 -0.1733
  802MOL0     C10564   4.591   3.366   4.433  0.5993  0.7832  0.7441
  802MOL0     C10565   4.653   3.246   4.419  0.2773 -0.1597  0.3612
  802MOL0     C10566   4.572   3.130   4.476 -0.3601 -0.3430 -0.0517
  802MOL0     C10567   4.778   3.239   4.362  0.2483 -0.1271  0.6155
  802MOL0     C10568   4.872   3.126   4.360 -1.1452 -0.3458 -0.3316
  802MOL0     O10569   4.837   3.017   4.436 -0.0135  0.0550 -0.3330
  802MOL0     C10570   4.914   2.907   4.424  0.7724 -0.5496 -0.6942
  802MOL0     C10571   4.874   2.801   4.343  0.3560 -0.7591 -0.2363
  802MOL0     C10572   4.962   2.695   4.319  0.0132  0.1634 -0.0950
  802MOL0     C10573   5.091   2.701   4.379 -0.4857  0.7190  0.4707
  802MOL0     O10574   5.190   2.610   4.354 -0.1958  1.0756 -0.1353
  802MOL0     C10575   5.153   2.470   4.335 -0.5373  0.6446 -0.1946
  802MOL0     C10576   5.049   2.409   4.444  0.7131  0.5613 -0.4155
  802MOL0     C10577   5.106   2.279   4.483  0.5519  0.0704  0.1137
  802MOL0     C10578   4.999   2.192   4.555 -0.5036  0.0241  0.3776
  802MOL0     C10579   5.049   2.050   4.573  0.5086 -0.1297  0.5660
  802MOL0     C10580   5.184   2.044   4.640  0.3057  0.4286 -0.3214
  802MOL0     C10581   5.182   2.073   4.795  0.0024 -0.2499  0.5089
  802MOL0     C10582   5.324   2.026   4.859 -0.1170  0.3743  0.4695
  802MOL0    Cl10583   5.351   2.066   5.034 -0.5391  0.0236  0.1334
  802MOL0     C10584   5.128   2.813   4.463 -1.1013  1.1222  0.2237
  802MOL0     C10585   5.033   2.909   4.494 -0.4686  0.2977 -0.1726
  802MOL0     O10586   4.977   3.127   4.297 -0.0799  0.6047  1.4172
  802MOL0     C10587   4.838   3.357   4.313 -0.4135  0.1038 -0.3411
  802MOL0     C10588   4.769   3.477   4.315 -0.6552  0.4821 -0.6293
  802MOL0     N10589   4.698   3.663   3.671 -1.3406  0.1893  0.3477
  802MOL0     N10590   4.789   3.590   3.618  0.2181  0.6466 -0.0012
  802MOL0     C10591   5.684   2.587   3.561  0.5234  0.1412  0.0044
  802MOL0     C10592   5.823   2.581   3.530 -0.0263  0.6954 -0.1730
  802MOL0     C10593   6.227   2.778   3.470  0.8717  1.6637  0.2814
  802MOL0     C10594   6.292   2.663   3.536 -0.0045 -0.5845  0.2830
  802MOL0     C10595   6.426   2.667   3.549  0.2075 -0.0882 -0.5545
  802MOL0     C10596   6.500   2.774   3.501 -0.6065  1.5543  0.4435
  802MOL0     O10597   6.635   2.752   3.509  0.5079 -0.1174  0.2979
  802MOL0     C10598   6.723   2.860   3.483 -0.2921  0.4721 -0.0670
  802MOL0     C10599   6.717   2.980   3.588  0.1658  0.0265 -0.9215
  802MOL0     C10600   6.705   2.921   3.727 -0.5967 -0.3941 -0.2015
  802MOL0     C10601   6.727   3.040   3.822 -0.0527  0.8471  0.1667
  802MOL0     C10602   6.719   2.988   3.961  0.1367 -1.2457  0.2912
  802MOL0     C10603   6.723   2.965   4.074  0.1258 -0.0260  0.4274
  802MOL0     C10604   6.444   2.876   3.434 -0.2702 -0.1923  0.7587
  802MOL0     C10605   6.303   2.883   3.423  0.3102  0.0827 -0.7466
  802MOL0     C10606   6.251   3.013   3.360  0.4858  0.4345 -0.7349
  802MOL0     H10607   5.892   2.902   3.656  2.2037 -0.7847  0.1837
  802MOL0     H10608   5.650   2.904   3.678  0.9186  1.4923 -2.2945
  802MOL0     H10609   5.453   2.889   3.699 -0.5773  0.6620  0.6641
  802MOL0     H10610   5.403   2.752   3.812 -0.7261 -0.9410  0.0466
  802MOL0     H10611   5.287   2.842   3.553 -0.5403  2.2232  0.6879
  802MOL0     H10612   5.212   2.709   3.650 -0.5806  1.4693  0.2258
  802MOL0     H10613   5.184   2.880   3.848  0.7755 -0.5072 -0.5917
  802MOL0     H10614   5.253   3.002   3.740  2.6274 -1.3185  0.6907
  802MOL0     H10615   5.067   2.940   3.583  0.1372  1.0877  0.1205
  802MOL0     H10616   5.024   2.823   3.705  2.3431  0.1314  1.2671
  802MOL0     H10617   5.011   3.031   3.861 -0.6948 -0.9219 -0.1146
  802MOL0     H10618   4.869   2.985   3.761 -0.7881 -1.4618 -0.7089
  802MOL0     H10619   5.092   3.213   3.710 -0.7174  0.8742  4.7915
  802MOL0     H10620   4.984   3.157   3.583  1.4927 -0.2467  0.3540
  802MOL0     H10621   4.885   3.254   3.852  0.4316 -0.1356 -1.0328
  802MOL0     H10622   4.801   3.259   3.702  0.1386 -1.6514  0.3653
  802MOL0     H10623   5.038   3.440   3.773 -0.6006  0.8166  0.2451
  802MOL0     H10624   4.990   3.409   3.602 -0.7614  2.5798 -1.3020
  802MOL0     H10625   4.807   3.505   3.937  0.5094  1.0914  0.2989
  802MOL0     H10626   4.504   3.618   3.898  1.3896 -2.8002 -0.1862
  802MOL0     H10627   4.574   3.790   3.909 -0.3646  0.0938  0.5999
  802MOL0     H10628   4.643   3.574   4.092  0.2037 -0.7379 -1.9179
  802MOL0     H10629   4.748   3.714   4.068  0.6127 -0.3836 -0.0251
  802MOL0     H10630   4.557   3.853   4.144 -0.1567  0.2518 -1.4295
  802MOL0     H10631   4.453   3.714   4.154  0.6819  0.7556  0.6754
  802MOL0     H10632   4.720   3.741   4.301 -0.2768  1.9424 -3.1994
  802MOL0     H10633   4.575   3.808   4.369  2.4958 -0.1852  3.9214
  802MOL0     H10634   4.502   3.372   4.495  1.2486 -0.5048  1.8488
  802MOL0     H10635   4.580   3.040   4.414  2.5398  0.8970 -1.6295
  802MOL0     H10636   4.463   3.141   4.470 -0.3237  1.0196  1.2516
  802MOL0     H10637   4.608   3.111   4.578  0.3471 -0.6045 -0.3443
  802MOL0     H10638   4.776   2.805   4.297  0.4153  1.3702 -0.2808
  802MOL0     H10639   4.933   2.603   4.268  1.4280  0.0955 -0.8217
  802MOL0     H10640   5.121   2.450   4.232 -3.9791 -0.5496  0.9859
  802MOL0     H10641   5.253   2.426   4.340 -1.6173 -2.2226 -1.6610
  802MOL0     H10642   5.048   2.476   4.531 -0.5862  0.1947 -0.1325
  802MOL0     H10643   4.951   2.403   4.396  2.4181  0.7769 -4.2955
  802MOL0     H10644   5.197   2.288   4.545  0.3031  1.1632  0.3443
  802MOL0     H10645   5.133   2.218   4.396  0.8937 -1.6681  1.3844
  802MOL0     H10646   4.903   2.179   4.505 -1.4715 -0.9983  2.3468
  802MOL0     H10647   4.978   2.224   4.657  1.2908 -0.0254  0.8079
  802MOL0     H10648   4.980   1.987   4.629 -2.4117  0.2216 -2.3659
  802MOL0     H10649   5.038   2.022   4.468 -2.4425  1.0721  0.4614
  802MOL0     H10650   5.261   2.105   4.591  1.6777  0.7367  2.0430
  802MOL0     H10651   5.217   1.940   4.635 -3.8520 -1.0685 -0.2954
  802MOL0     H10652   5.097   2.031   4.848 -1.0126  1.6908  0.5193
  802MOL0     H10653   5.183   2.182   4.810  2.7781  0.0023 -0.7985
  802MOL0     H10654   5.398   2.070   4.792 -0.1153  0.4628  0.5308
  802MOL0     H10655   5.311   1.917   4.852  0.4359  0.4223 -2.8143
  802MOL0     H10656   5.230   2.821   4.501  0.1408 -2.2283 -1.9983
  802MOL0     H10657   5.059   2.992   4.559  0.7440 -0.4662  0.3488
  802MOL0     H10658   4.941   3.366   4.280  0.1909 -0.9167  1.1556
  802MOL0     H10659   4.832   3.553   4.270  1.9932 -1.1036  0.2355
  802MOL0     H10660   5.630   2.493   3.552 -0.2278  0.6822 -1.6746
  802MOL0     H10661   5.875   2.496   3.487  3.3863  2.2178  0.5535
  802MOL0     H10662   6.232   2.583   3.577  2.2673 -2.3218  0.3785
  802MOL0     H10663   6.482   2.583   3.590  0.6523  0.2653 -0.4257
  802MOL0     H10664   6.815   2.801   3.482 -2.4801 -3.2821  0.0464
  802MOL0     H10665   6.709   2.902   3.383 -0.5333 -0.6580 -0.5183
  802MOL0     H10666   6.639   3.053   3.564 -2.3328 -1.7281  1.2644
  802MOL0     H10667   6.814   3.029   3.578 -0.5164  1.6663  0.0607
  802MOL0     H10668   6.621   2.857   3.754  0.0778 -1.3511 -0.3155
  802MOL0     H10669   6.785   2.847   3.727  0.8370  1.0131  2.4841
  802MOL0     H10670   6.651   3.117   3.801 -1.3656 -0.2675  0.6789
  802MOL0     H10671   6.823   3.087   3.796  0.0901  0.3645 -0.1939
  802MOL0     H10672   6.743   2.947   4.178  0.3410 -1.4853  0.1566
  802MOL0     H10673   6.496   2.955   3.380 -1.1927  2.0136  2.9235
  802MOL0     H10674   6.314   3.094   3.398  0.2004  1.8988 -3.1521
  802MOL0     H10675   6.267   2.995   3.253 -0.9272 -1.6413 -0.6674
  802MOL0     H10676   6.144   3.029   3.375 -0.5166 -3.5461 -2.1548
  803MOL0     O10677   9.443   8.818   6.240  0.5737  0.1908 -0.4340
  803MOL0     C10678   9.385   8.833   6.354  1.3001  0.3366  0.6898
  803MOL0     O10679   9.357   8.954   6.405  0.2135 -1.2022  0.3439
  803MOL0     C10680   9.354   9.057   6.315  0.0829 -0.7826  0.1321
  803MOL0     C10681   9.475   9.110   6.287 -0.0669 -0.8994 -0.1391
  803MOL0     C10682   9.470   9.219   6.199 -0.3497  0.3734  0.7891
  803MOL0     C10683   9.360   9.274   6.133  1.2645  0.6778 -0.2894
  803MOL0     O10684   9.352   9.353   6.019 -0.1700  0.6262 -0.4532
  803MOL0     C10685   9.443   9.464   6.002  0.1436  0.6655  0.7339
  803MOL0     C10686   9.401   9.592   6.080 -0.2988  0.5616  0.0783
  803MOL0     C10687   9.500   9.711   6.064  0.1258  0.1289 -1.0893
  803MOL0     C10688   9.494   9.816   6.174  0.9763 -0.0904  0.6166
  803MOL0     C10689   9.553   9.948   6.123  0.4977  0.1952 -0.0295
  803MOL0     C10690   9.537  10.033   6.249 -0.2150 -0.1348  1.5470
  803MOL0     C10691   9.602  10.172   6.207 -0.2316  0.4760  0.1856
  803MOL0     C10692   9.525  10.284   6.282  0.2791 -0.0099 -0.4468
  803MOL0     N10693   9.553  10.293   6.432  0.3044 -0.6583 -0.6202
  803MOL0     C10694   9.486  10.226   6.534 -0.8527  0.0616  0.1945
  803MOL0     C10695   9.559  10.262   6.648 -0.4515  1.5316  0.2034
  803MOL0     C10696   9.537  10.214   6.790 -1.2024  0.8412  0.8436
  803MOL0     C10697   9.408  10.141   6.818 -0.1415  0.3137 -0.0459
  803MOL0     C10698   9.391  10.090   6.958  1.4007  0.0136  0.3921
  803MOL0     C10699   9.258  10.029   6.985  0.2146  0.0102 -0.2722
  803MOL0     O10700   9.266   9.991   7.121 -0.1483  0.4930  0.2800
  803MOL0     C10701   9.146   9.941   7.161  0.1629  0.1608  1.6723
  803MOL0     C10702   9.130   9.900   7.291  0.2474 -0.6166  0.3866
  803MOL0     C10703   9.024   9.824   7.337  0.6105  0.9019 -0.3306
  803MOL0     C10704   9.019   9.783   7.478  0.4052  0.6431 -0.5847
  803MOL0     C10705   8.919   9.788   7.246 -0.3131  0.6848 -0.8940
  803MOL0     C10706   8.792   9.712   7.279 -0.3127 -0.4713 -0.1878
  803MOL0     O10707   8.685   9.717   7.188 -0.3118  0.2286 -0.3581
  803MOL0     C10708   8.563   9.657   7.222 -0.2618 -0.5721 -0.0078
  803MOL0     C10709   8.517   9.556   7.130  0.5873  0.0933  0.6372
  803MOL0     C10710   8.390   9.498   7.157  0.8338  0.3423  0.5347
  803MOL0     C10711   8.314   9.522   7.269 -0.4868 -0.2901  0.4663
  803MOL0     O10712   8.207   9.454   7.308 -0.3227 -0.3167  0.1610
  803MOL0     C10713   8.105   9.433   7.208  0.1058 -0.1395  0.2080
  803MOL0     C10714   7.966   9.423   7.276  0.2706 -0.0674  0.0751
  803MOL0     C10715   7.868   9.329   7.193 -0.6342 -0.3840  0.1170
  803MOL0     C10716   7.898   9.168   7.210  0.7245 -0.5673 -0.9197
  803MOL0     C10717   7.816   9.079   7.111 -0.4721  0.0712  0.2894
  803MOL0     C10718   7.681   9.034   7.171  0.1718 -0.3244  0.8788
  803MOL0     C10719   7.590   8.971   7.069  0.8571  0.6911  0.6603
  803MOL0     C10720   7.636   8.832   7.041  0.4716  0.6736  0.6739
  803MOL0    Cl10721   7.534   8.733   6.928 -0.3516 -0.0454 -0.3624
  803MOL0     C10722   8.370   9.608   7.360  0.1938  0.0765 -0.2132
  803MOL0     C10723   8.486   9.680   7.337 -0.2727  0.3249  0.2069
  803MOL0     O10724   8.796   9.647   7.387  0.3604 -0.0524  1.0777
  803MOL0     C10725   8.933   9.837   7.117  0.5708  0.5231 -0.1528
  803MOL0     C10726   9.040   9.910   7.083 -0.3971  0.6615  0.7601
  803MOL0     N10727   9.657  10.357   6.609  0.1854 -0.5726 -0.0357
  803MOL0     N10728   9.653  10.364   6.479 -0.2169 -0.0165  0.0473
  803MOL0     C10729   9.233   9.210   6.164 -0.8282  0.2852 -0.7099
  803MOL0     C10730   9.227   9.109   6.265  0.6677 -0.1126  0.3692
  803MOL0     C10731   9.344   8.711   6.423  0.6362  0.0264  0.1257
  803MOL0     C10732   9.273   8.735   6.541  0.2118 -0.5050 -1.3730
  803MOL0     C10733   9.215   8.636   6.616 -0.0746  0.7639 -0.1139
  803MOL0     C10734   9.230   8.497   6.580  0.2671 -0.1483  0.3073
  803MOL0     O10735   9.174   8.401   6.662  0.5356 -0.0943  0.1854
  803MOL0     C10736   9.284   8.321   6.727 -0.5452  0.8272 -0.8662
  803MOL0     C10737   9.346   8.397   6.844  0.6728 -0.3296 -0.5244
  803MOL0     C10738   9.236   8.454   6.938  0.2227  0.2364 -0.9516
  803MOL0     C10739   9.286   8.569   7.032  0.9639 -0.0419 -0.2264
  803MOL0     C10740   9.172   8.605   7.125 -0.4023  0.4580 -0.3649
  803MOL0     C10741   9.091   8.644   7.200  0.3727 -0.2136 -0.3644
  803MOL0     C10742   9.322   8.478   6.470  1.0689  0.2783 -0.0793
  803MOL0     C10743   9.371   8.582   6.388 -0.1511  0.1534  0.1275
  803MOL0     C10744   9.462   8.548   6.272 -0.6956  0.0048 -0.1953
  803MOL0     H10745   9.567   9.081   6.337  1.4681  1.3905 -1.4794
  803MOL0     H10746   9.556   9.264   6.150 -0.0083 -0.2761  0.7779
  803MOL0     H10747   9.429   9.491   5.897 -2.0211  1.4731  1.1782
  803MOL0     H10748   9.546   9.429   6.013 -0.2696 -1.2336 -0.8480
  803MOL0     H10749   9.302   9.619   6.043 -1.8379 -3.2967  0.7989
  803MOL0     H10750   9.399   9.568   6.187  0.7059  5.3786  1.4239
  803MOL0     H10751   9.602   9.676   6.053  0.7847  1.4429  0.3739
  803MOL0     H10752   9.488   9.769   5.972  1.9415  1.3233 -0.6429
  803MOL0     H10753   9.390   9.823   6.207  0.6000  2.0802 -0.8357
  803MOL0     H10754   9.559   9.776   6.253  2.3080 -1.5649 -1.1286
  803MOL0     H10755   9.517   9.980   6.025 -0.4528  0.6863  0.4664
  803MOL0     H10756   9.662   9.940   6.120  0.4200 -1.5836  0.5633
  803MOL0     H10757   9.430  10.040   6.272 -0.0979 -1.1556  2.4739
  803MOL0     H10758   9.587   9.997   6.339  3.0663  0.5398  0.1193
  803MOL0     H10759   9.590  10.189   6.099 -3.0677 -2.1203 -0.0370
  803MOL0     H10760   9.710  10.172   6.227  0.0500 -2.6336 -0.7505
  803MOL0     H10761   9.543  10.383   6.239 -0.5699 -0.0731 -0.9786
  803MOL0     H10762   9.417  10.274   6.267  0.4486  0.0374 -1.8500
  803MOL0     H10763   9.394  10.168   6.531 -0.6824 -0.5467  3.3451
  803MOL0     H10764   9.550  10.308   6.845  0.7789  1.6558 -0.8705
  803MOL0     H10765   9.608  10.140   6.828 -3.1122 -0.2017  2.5906
  803MOL0     H10766   9.330  10.218   6.814 -1.1412 -0.5988  1.1978
  803MOL0     H10767   9.386  10.065   6.743  1.8538 -0.6137  0.2601
  803MOL0     H10768   9.470  10.023   6.994 -1.4521 -2.5001  2.5185
  803MOL0     H10769   9.396  10.184   7.013 -2.1572  1.1272 -0.9285
  803MOL0     H10770   9.173  10.096   6.966  0.5741  0.0558 -1.8324
  803MOL0     H10771   9.246   9.936   6.929  0.0420 -1.3020  1.8286
  803MOL0     H10772   9.207   9.934   7.359 -0.4277 -1.1189  1.4355
  803MOL0     H10773   9.118   9.805   7.518 -0.2092  2.3984  0.0687
  803MOL0     H10774   9.001   9.677   7.496  1.8854 -0.0609 -2.8412
  803MOL0     H10775   8.948   9.838   7.541  1.2197  2.8805 -1.5230
  803MOL0     H10776   8.572   9.543   7.038  0.6799  1.2425  0.5198
  803MOL0     H10777   8.355   9.421   7.088 -0.5166 -0.0622  1.6397
  803MOL0     H10778   8.109   9.518   7.139 -0.3400  0.6118  1.0868
  803MOL0     H10779   8.133   9.338   7.160  1.8378  0.6475 -0.4279
  803MOL0     H10780   7.964   9.387   7.380 -0.4657  1.0295  0.4518
  803MOL0     H10781   7.936   9.528   7.282 -2.7945 -0.7784 -0.7597
  803MOL0     H10782   7.869   9.350   7.086  0.9395 -1.3113 -0.0911
  803MOL0     H10783   7.771   9.352   7.239  0.0627  0.1957  1.3570
  803MOL0     H10784   7.878   9.142   7.314  0.4257  1.7213 -0.3541
  803MOL0     H10785   8.004   9.149   7.194  0.6730 -0.7945 -0.9989
  803MOL0     H10786   7.782   9.133   7.021  3.8959 -0.9918 -2.2655
  803MOL0     H10787   7.884   9.003   7.072 -0.0113  0.2012  0.8384
  803MOL0     H10788   7.635   9.123   7.216 -1.2277 -0.0225 -1.0105
  803MOL0     H10789   7.704   8.971   7.256 -1.8000 -2.0669  0.2136
  803MOL0     H10790   7.585   9.034   6.979  2.2588  1.4965  1.1086
  803MOL0     H10791   7.490   8.967   7.113  0.9877  1.2019  1.0062
  803MOL0     H10792   7.631   8.782   7.138 -1.2115  1.7715  1.1955
  803MOL0     H10793   7.740   8.816   7.010  0.4462 -1.5937  1.5647
  803MOL0     H10794   8.318   9.632   7.452  1.7286  3.9089 -0.1418
  803MOL0     H10795   8.527   9.743   7.416 -1.1179  2.2032 -0.7877
  803MOL0     H10796   8.860   9.811   7.041  0.8167 -3.4977  0.7420
  803MOL0     H10797   9.030   9.928   6.976  1.3194  0.8808  0.6082
  803MOL0     H10798   9.142   9.235   6.111 -0.4555  2.5535 -0.3945
  803MOL0     H10799   9.132   9.069   6.298  0.9586 -1.9108 -0.7917
  803MOL0     H10800   9.253   8.833   6.583 -0.2238 -0.9867 -0.4282
  803MOL0     H10801   9.147   8.660   6.698  1.3975 -0.1015  1.4215
  803MOL0     H10802   9.244   8.230   6.773  0.9755 -0.7963 -2.5768
  803MOL0     H10803   9.362   8.283   6.660 -1.3485 -2.4987 -0.1114
  803MOL0     H10804   9.405   8.477   6.798  0.3419  0.0510 -0.2906
  803MOL0     H10805   9.413   8.327   6.896  0.6617 -0.0962 -0.1969
  803MOL0     H10806   9.155   8.503   6.882 -2.7626 -2.9483  0.2530
  803MOL0     H10807   9.184   8.383   7.003  0.7613  1.8317  1.3519
  803MOL0     H10808   9.317   8.663   6.986 -2.5495  2.1942  1.5568
  803MOL0     H10809   9.363   8.511   7.084  0.9723  1.0228  0.9798
  803MOL0     H10810   9.006   8.651   7.266  0.0975 -3.3917 -0.1996
  803MOL0     H10811   9.348   8.377   6.441  1.6789  0.1038  1.0592
  803MOL0     H10812   9.555   8.602   6.290 -1.7151  2.0609 -0.7739
  803MOL0     H10813   9.478   8.439   6.270  1.4485  0.2218  1.5202
  803MOL0     H10814   9.433   8.572   6.170  4.1965 -2.5261 -2.5603
  804MOL0     O10815   7.702   9.650   2.913  0.2733  0.3518 -0.5944
  804MOL0     C10816   7.653   9.693   3.022 -0.1579 -0.2510 -0.1629
  804MOL0     O10817   7.613   9.622   3.128 -0.1577  0.6150 -0.2811
  804MOL0     C10818   7.668   9.488   3.133  1.7548  0.2996 -0.2779
  804MOL0     C10819   7.583   9.377   3.163  0.5493 -0.8800  0.4770
  804MOL0     C10820   7.629   9.242   3.177  0.1103 -0.2880 -0.5688
  804MOL0     C10821   7.769   9.218   3.156 -0.3891  0.1769 -0.0734
  804MOL0     O10822   7.828   9.098   3.192 -0.0387 -0.6433 -0.1859
  804MOL0     C10823   7.814   9.048   3.321 -0.4413  0.6470 -0.1320
  804MOL0     C10824   7.867   8.906   3.344  0.4096  0.6168  0.0863
  804MOL0     C10825   8.017   8.900   3.310 -0.4773  0.1033 -0.3693
  804MOL0     C10826   8.116   8.959   3.416 -0.0302 -1.0689 -0.3768
  804MOL0     C10827   8.268   8.964   3.387  0.9118 -0.6970  0.0164
  804MOL0     C10828   8.310   8.822   3.351 -1.4768 -0.6155  1.2434
  804MOL0     C10829   8.462   8.820   3.316  0.3919  0.2551 -0.5718
  804MOL0     C10830   8.505   8.691   3.245 -0.5917 -0.2767  0.2259
  804MOL0     N10831   8.635   8.716   3.172 -0.3248 -0.7854 -0.5122
  804MOL0     C10832   8.753   8.730   3.240  0.2717  0.8557 -0.0583
  804MOL0     C10833   8.843   8.742   3.137  1.0630  0.1534  1.0075
  804MOL0     C10834   8.993   8.757   3.155  0.0082  0.8930 -0.2430
  804MOL0     C10835   9.034   8.843   3.265 -0.5922 -0.3418 -0.3789
  804MOL0     C10836   9.182   8.838   3.273 -0.7281  0.2457 -0.0385
  804MOL0     C10837   9.240   8.907   3.389  0.2779  0.1435  0.0725
  804MOL0     O10838   9.187   9.043   3.408 -0.0847 -0.0519 -0.2665
  804MOL0     C10839   9.245   9.137   3.332  0.3292 -0.5441 -0.0022
  804MOL0     C10840   9.363   9.187   3.387 -0.6538 -0.5018 -0.6156
  804MOL0     C10841   9.459   9.269   3.322 -0.1432 -0.2970  0.1596
  804MOL0     C10842   9.572   9.329   3.401  0.7258  0.9066 -0.4593
  804MOL0     C10843   9.424   9.310   3.193  0.7205 -0.1845  0.0737
  804MOL0     C10844   9.512   9.392   3.102 -0.4395  0.0014 -1.0184
  804MOL0     O10845   9.461   9.448   2.979 -0.4822 -0.1635 -0.1938
  804MOL0     C10846   9.547   9.529   2.895  0.8089  0.1230 -0.0730
  804MOL0     C10847   9.539   9.664   2.863  0.0965  0.1878  0.3228
  804MOL0     C10848   9.629   9.730   2.776 -0.4893 -0.2697  0.2362
  804MOL0     C10849   9.727   9.653   2.721 -0.2693  0.5076  0.7836
  804MOL0     O10850   9.815   9.701   2.624  0.3790 -0.1476  0.7896
  804MOL0     C10851   9.954   9.703   2.645 -0.0443  0.1488 -0.1534
  804MOL0     C10852  10.028   9.689   2.512  0.0599  0.4541 -0.1591
  804MOL0     C10853  10.186   9.662   2.536 -0.0056 -0.2816 -0.4136
  804MOL0     C10854  10.258   9.756   2.641  0.0406 -0.3237 -0.1580
  804MOL0     C10855  10.251   9.905   2.609 -0.0979 -0.9105 -0.3617
  804MOL0     C10856  10.338   9.975   2.709 -0.7410 -0.6509 -0.3685
  804MOL0     C10857  10.493  10.006   2.658  0.3941  0.7772  0.7686
  804MOL0     C10858  10.563  10.117   2.738 -0.7607 -0.1065 -0.8153
  804MOL0    Cl10859  10.448  10.202   2.851 -0.1020  0.1252  0.2419
  804MOL0     C10860   9.745   9.525   2.756  0.1422 -0.5267 -0.6031
  804MOL0     C10861   9.658   9.459   2.837  0.8060 -0.2325 -0.0081
  804MOL0     O10862   9.627   9.409   3.139  0.1364 -0.5977  0.6258
  804MOL0     C10863   9.300   9.259   3.134  0.0729  0.5073 -0.2665
  804MOL0     C10864   9.207   9.184   3.210 -0.4294 -0.1519  0.5138
  804MOL0     N10865   8.780   8.757   3.012 -0.1031 -0.0829  0.2806
  804MOL0     N10866   8.654   8.727   3.040 -1.0600  0.1398  0.3359
  804MOL0     C10867   7.842   9.327   3.118  0.1007 -0.6334  0.2122
  804MOL0     C10868   7.798   9.456   3.108  0.5233 -0.4482  0.6818
  804MOL0     C10869   7.590   9.825   3.016  0.3845  0.6311  0.5094
  804MOL0     C10870   7.448   9.831   3.016  0.4457 -0.0011 -0.3389
  804MOL0     C10871   7.386   9.953   2.996  0.0398 -0.2261 -0.7556
  804MOL0     C10872   7.454  10.075   2.970  0.6862 -0.2525 -0.6010
  804MOL0     O10873   7.374  10.187   2.957 -0.3852 -0.7755 -0.5541
  804MOL0     C10874   7.440  10.311   2.945  0.6590  0.0354 -0.0327
  804MOL0     C10875   7.329  10.421   2.914 -1.1697  0.5432  0.2715
  804MOL0     C10876   7.272  10.380   2.782 -0.1821  0.2660  0.5971
  804MOL0     C10877   7.320  10.454   2.653 -0.0147 -0.4982 -0.0852
  804MOL0     C10878   7.262  10.583   2.667  1.2749 -0.6986  0.7444
  804MOL0     C10879   7.203  10.690   2.655  0.1109  1.0049 -0.3355
  804MOL0     C10880   7.594  10.065   2.956 -0.6091  0.0946 -0.1423
  804MOL0     C10881   7.658   9.941   2.974 -0.5307 -0.5942  0.1666
  804MOL0     C10882   7.809   9.944   2.965 -1.0359  0.7645 -0.0565
  804MOL0     H10883   7.478   9.405   3.161  1.0453  1.1256 -1.0577
  804MOL0     H10884   7.565   9.161   3.209 -0.1448 -0.5439 -1.6858
  804MOL0     H10885   7.708   9.046   3.347  0.5067 -0.5773  4.6031
  804MOL0     H10886   7.860   9.109   3.399  1.1769 -1.2906  0.5104
  804MOL0     H10887   7.835   8.866   3.440 -0.5388 -2.2225 -1.3126
  804MOL0     H10888   7.818   8.840   3.272  0.1080  0.2271  0.6399
  804MOL0     H10889   8.032   8.792   3.302  1.3460  0.2498  0.4182
  804MOL0     H10890   8.028   8.937   3.208  0.4415  1.5185  0.2106
  804MOL0     H10891   8.088   9.062   3.439  2.8792 -0.3684  0.4298
  804MOL0     H10892   8.101   8.900   3.507 -0.8542  1.5614  1.3043
  804MOL0     H10893   8.328   8.991   3.475 -1.6236 -2.1971  2.3999
  804MOL0     H10894   8.294   9.032   3.306  1.3148 -1.4491 -0.4951
  804MOL0     H10895   8.288   8.762   3.439 -1.7730 -0.3071  1.3835
  804MOL0     H10896   8.253   8.781   3.268  0.2142 -1.6838  0.5552
  804MOL0     H10897   8.512   8.832   3.412 -1.3941  0.5822  0.3619
  804MOL0     H10898   8.481   8.908   3.253  1.0775  0.3593 -0.2176
  804MOL0     H10899   8.532   8.606   3.309 -0.9190 -0.7217 -0.2161
  804MOL0     H10900   8.431   8.656   3.172  0.3302  2.2946 -2.0802
  804MOL0     H10901   8.773   8.721   3.346  0.3361 -0.6857 -0.1783
  804MOL0     H10902   9.024   8.812   3.066  0.3743  0.6200 -0.2827
  804MOL0     H10903   9.044   8.661   3.148  0.4855  1.0833  0.5022
  804MOL0     H10904   8.991   8.943   3.253  1.0468  0.5417  0.6663
  804MOL0     H10905   8.999   8.799   3.359  0.1413 -3.4938 -1.4728
  804MOL0     H10906   9.213   8.734   3.286  0.5828 -0.0238 -3.9480
  804MOL0     H10907   9.224   8.872   3.178 -0.1717  1.8523  0.7523
  804MOL0     H10908   9.235   8.849   3.482  2.4977  0.0836  0.1960
  804MOL0     H10909   9.347   8.914   3.367 -0.2145  0.8415 -2.4535
  804MOL0     H10910   9.392   9.166   3.490 -2.0951  0.3295 -0.0085
  804MOL0     H10911   9.661   9.266   3.394  0.5966  0.8889 -2.1965
  804MOL0     H10912   9.541   9.333   3.506 -1.6334  1.9098 -1.1419
  804MOL0     H10913   9.586   9.432   3.369 -1.9533  1.6201  0.4147
  804MOL0     H10914   9.469   9.734   2.909 -3.1932 -1.1039 -2.2461
  804MOL0     H10915   9.618   9.838   2.767 -1.4483 -0.2605  1.3766
  804MOL0     H10916   9.975   9.795   2.700 -2.0294 -0.5853  1.9889
  804MOL0     H10917   9.990   9.625   2.713 -0.4701 -1.0193 -1.2290
  804MOL0     H10918   9.986   9.605   2.456  3.0476  1.3447 -4.2060
  804MOL0     H10919  10.020   9.782   2.455  0.5977  2.1001  2.2833
  804MOL0     H10920  10.224   9.685   2.436  2.4111  0.4533  0.5926
  804MOL0     H10921  10.201   9.558   2.567  1.9012 -0.5676 -2.1194
  804MOL0     H10922  10.361   9.721   2.641 -0.4746 -1.9060 -0.8840
  804MOL0     H10923  10.216   9.734   2.739  0.6444 -1.8523 -0.2209
  804MOL0     H10924  10.272   9.932   2.505  0.4271  0.4249  0.0670
  804MOL0     H10925  10.150   9.947   2.621 -0.4937 -1.4054 -1.7747
  804MOL0     H10926  10.344   9.922   2.805  0.3477 -0.4175 -0.2882
  804MOL0     H10927  10.290  10.071   2.731  2.8780  1.1665  0.4453
  804MOL0     H10928  10.481  10.021   2.550 -0.9333 -0.6686  0.6976
  804MOL0     H10929  10.559   9.919   2.667  0.0058  0.4362  0.3162
  804MOL0     H10930  10.606  10.185   2.664  1.5090 -1.5714 -0.9454
  804MOL0     H10931  10.639  10.078   2.807  0.1118  0.3298 -1.5073
  804MOL0     H10932   9.840   9.479   2.729  1.8282  2.0630  0.4572
  804MOL0     H10933   9.663   9.351   2.847 -0.0717 -0.1660  1.5630
  804MOL0     H10934   9.262   9.272   3.033 -0.6233 -0.6829 -0.1811
  804MOL0     H10935   9.117   9.143   3.165 -0.1252  0.0451 -0.3022
  804MOL0     H10936   7.949   9.312   3.107  0.1241 -0.1749 -0.2695
  804MOL0     H10937   7.870   9.532   3.080 -0.4575 -0.6480 -2.7787
  804MOL0     H10938   7.392   9.744   3.047 -1.6016  1.9386  1.8015
  804MOL0     H10939   7.282   9.970   3.023 -0.1426  2.1443 -2.5861
  804MOL0     H10940   7.500  10.333   3.034  2.5766 -0.7398 -1.0814
  804MOL0     H10941   7.514  10.293   2.867  2.1354  0.2785  1.2584
  804MOL0     H10942   7.373  10.521   2.900  0.7386 -0.3617 -0.6284
  804MOL0     H10943   7.253  10.439   2.991  1.0081  0.5206  2.5802
  804MOL0     H10944   7.281  10.272   2.764 -0.0528  0.3588  0.1052
  804MOL0     H10945   7.163  10.393   2.790 -0.4355  1.2712 -2.9527
  804MOL0     H10946   7.285  10.402   2.563  0.4986 -2.3206  0.7087
  804MOL0     H10947   7.428  10.461   2.643 -0.1903 -0.9192 -3.1310
  804MOL0     H10948   7.152  10.782   2.634  0.1456  0.3223 -3.9816
  804MOL0     H10949   7.656  10.148   2.928  0.6874 -0.3032  1.3847
  804MOL0     H10950   7.850  10.024   2.903  0.2987 -1.1135 -1.7324
  804MOL0     H10951   7.872   9.953   3.054 -0.0729 -0.1789 -0.6094
  804MOL0     H10952   7.842   9.850   2.919 -2.4326 -0.7971  1.9100
  805MOL0     O10953   0.891   5.410   7.251 -0.0957  0.0664  0.2351
  805MOL0     C10954   0.890   5.298   7.210 -0.0634  0.7340 -0.1272
  805MOL0     O10955   1.000   5.241   7.152 -0.4038 -0.3310  0.4190
  805MOL0     C10956   1.121   5.301   7.174 -0.1204 -0.1632 -0.4933
  805MOL0     C10957   1.217   5.244   7.261  0.0427  0.0797 -0.2647
  805MOL0     C10958   1.338   5.312   7.270  0.2053 -0.3797  0.2231
  805MOL0     C10959   1.378   5.422   7.188  0.0059 -0.7293 -0.4945
  805MOL0     O10960   1.498   5.483   7.222 -0.4208 -0.7457 -0.5945
  805MOL0     C10961   1.531   5.595   7.146 -0.0512  0.0197  0.2701
  805MOL0     C10962   1.654   5.659   7.213 -0.3717 -0.3047 -0.0852
  805MOL0     C10963   1.776   5.562   7.228 -0.4847  0.1588  0.6073
  805MOL0     C10964   1.845   5.532   7.098 -0.2920 -0.2481 -0.3277
  805MOL0     C10965   1.978   5.457   7.113 -0.0766  0.3962 -0.1540
  805MOL0     C10966   2.019   5.426   6.969 -0.1492 -0.2606  0.8972
  805MOL0     C10967   2.148   5.356   6.964 -0.1273  0.5725 -0.8342
  805MOL0     C10968   2.202   5.343   6.823 -1.3767 -0.0504 -0.4749
  805MOL0     N10969   2.331   5.279   6.839  0.1688 -0.0203  0.7746
  805MOL0     C10970   2.358   5.144   6.866 -0.1828 -0.1061 -0.4983
  805MOL0     C10971   2.488   5.134   6.858 -0.6326 -0.1166  0.9117
  805MOL0     C10972   2.561   5.001   6.876  0.5349 -1.4359  0.4076
  805MOL0     C10973   2.691   5.005   6.958 -0.5086  0.7564  0.2843
  805MOL0     C10974   2.773   4.875   6.933 -1.2365  0.3750  0.2887
  805MOL0     C10975   2.916   4.907   6.984 -0.7525  0.6990  0.2400
  805MOL0     O10976   3.000   4.811   6.915  0.7775  0.3484 -0.9684
  805MOL0     C10977   3.121   4.782   6.969 -0.2560  0.3044 -0.4406
  805MOL0     C10978   3.188   4.845   7.076 -0.6408  0.7755 -0.1405
  805MOL0     C10979   3.312   4.793   7.136  0.2543  0.1453 -0.3983
  805MOL0     C10980   3.378   4.862   7.253 -0.9366 -0.8293  0.4743
  805MOL0     C10981   3.362   4.675   7.077  0.3307  0.6543  0.6274
  805MOL0     C10982   3.497   4.627   7.105  0.3262 -0.5087 -0.4085
  805MOL0     O10983   3.571   4.592   6.998  0.3212 -0.3703  0.4295
  805MOL0     C10984   3.701   4.533   7.014  0.5351 -0.6712 -0.3944
  805MOL0     C10985   3.733   4.407   6.951 -0.1983  0.1767 -0.6518
  805MOL0     C10986   3.859   4.352   6.971  0.2085  0.9276  0.1233
  805MOL0     C10987   3.957   4.412   7.054  0.1864 -0.0854  0.3505
  805MOL0     O10988   4.078   4.343   7.067  0.6492 -0.0148 -0.1112
  805MOL0     C10989   4.149   4.362   7.189  0.7238 -0.0128 -0.3025
  805MOL0     C10990   4.227   4.235   7.221  0.0748  0.3291  0.3566
  805MOL0     C10991   4.333   4.272   7.322 -0.1326  0.5224 -0.1878
  805MOL0     C10992   4.452   4.355   7.277  0.8364  0.2257 -0.2069
  805MOL0     C10993   4.556   4.399   7.380  0.0033 -0.7893 -0.2371
  805MOL0     C10994   4.638   4.516   7.316  0.2780 -0.2997 -0.3780
  805MOL0     C10995   4.776   4.545   7.382 -0.0775 -0.0773  0.5195
  805MOL0     C10996   4.783   4.553   7.530 -0.4870  0.2620  0.1067
  805MOL0    Cl10997   4.940   4.601   7.587  0.1170 -0.0617  0.0635
  805MOL0     C10998   3.930   4.533   7.103  0.5559 -0.0277  0.2230
  805MOL0     C10999   3.803   4.592   7.098 -0.3554 -1.4377  0.3703
  805MOL0     O11000   3.535   4.629   7.219  0.7742 -0.4226  0.0643
  805MOL0     C11001   3.302   4.622   6.959 -0.5897 -0.5243 -0.1498
  805MOL0     C11002   3.183   4.667   6.913 -0.5374 -0.4836 -0.9491
  805MOL0     N11003   2.550   5.256   6.841  1.0175 -0.1694 -0.3585
  805MOL0     N11004   2.449   5.342   6.836 -0.1487 -0.4252  0.7359
  805MOL0     C11005   1.290   5.452   7.080  0.8967 -0.2476  0.6084
  805MOL0     C11006   1.157   5.395   7.084  0.1568 -0.9345  1.2345
  805MOL0     C11007   0.756   5.243   7.179 -0.4332  0.6039  0.0799
  805MOL0     C11008   0.745   5.134   7.081 -0.7674 -0.3769 -0.1856
  805MOL0     C11009   0.626   5.067   7.067  0.7350  0.4889 -0.2284
  805MOL0     C11010   0.513   5.106   7.129 -1.1746 -0.4395  0.1890
  805MOL0     O11011   0.399   5.032   7.114 -0.0781 -0.0368 -0.8634
  805MOL0     C11012   0.303   5.086   7.029 -0.4752 -0.6457  0.2767
  805MOL0     C11013   0.172   5.011   7.043  0.1075 -0.4196 -1.2972
  805MOL0     C11014   0.071   5.056   6.940  0.2935  0.3638  0.2049
  805MOL0     C11015  -0.059   4.966   6.944 -0.1092 -1.0243  0.3483
  805MOL0     C11016  -0.072   4.849   6.863 -0.3001  0.3996  0.3284
  805MOL0     C11017  -0.096   4.748   6.790 -0.3628  0.1631  0.1403
  805MOL0     C11018   0.516   5.206   7.226  0.8332  0.1940 -0.1324
  805MOL0     C11019   0.633   5.283   7.245  0.4230 -0.3846  1.2119
  805MOL0     C11020   0.625   5.380   7.359  0.9845 -0.5206 -0.0872
  805MOL0     H11021   1.200   5.167   7.335  0.5728  0.5353  0.3459
  805MOL0     H11022   1.406   5.279   7.347  1.1640 -0.8401 -0.7866
  805MOL0     H11023   1.451   5.668   7.160  0.7997  0.5185  3.1361
  805MOL0     H11024   1.549   5.581   7.039 -0.0349 -1.0728  0.4019
  805MOL0     H11025   1.690   5.753   7.170  2.2990 -1.4279 -0.5505
  805MOL0     H11026   1.623   5.678   7.316 -0.5620  0.0960 -0.2161
  805MOL0     H11027   1.842   5.626   7.288 -2.5724  0.2963  2.8939
  805MOL0     H11028   1.757   5.463   7.268 -0.2643 -1.5063 -3.0302
  805MOL0     H11029   1.774   5.474   7.038 -0.5466  0.4452 -0.7057
  805MOL0     H11030   1.866   5.629   7.053  0.2560  0.4675  1.3866
  805MOL0     H11031   1.960   5.363   7.167 -2.9585 -1.1561 -3.4547
  805MOL0     H11032   2.056   5.517   7.160 -0.3992  1.7714 -1.3271
  805MOL0     H11033   1.948   5.359   6.920 -0.1855  0.0928  0.4546
  805MOL0     H11034   2.017   5.520   6.913 -1.9694 -0.5879  0.3341
  805MOL0     H11035   2.129   5.255   7.002 -0.5739  1.1714  0.6093
  805MOL0     H11036   2.221   5.407   7.027 -0.4360 -0.0256  0.0223
  805MOL0     H11037   2.142   5.272   6.765 -0.7507 -1.5456  0.6533
  805MOL0     H11038   2.209   5.434   6.763  1.4488  0.6751  0.8175
  805MOL0     H11039   2.290   5.061   6.875  1.6268 -1.5019  1.2424
  805MOL0     H11040   2.570   4.963   6.774 -3.0450  0.6907 -0.8829
  805MOL0     H11041   2.507   4.925   6.933  0.6772 -2.0459 -0.2612
  805MOL0     H11042   2.754   5.087   6.925  2.1835  0.0146  3.1141
  805MOL0     H11043   2.667   5.019   7.064 -2.9402  0.0375 -0.1024
  805MOL0     H11044   2.725   4.788   6.978 -0.4980 -0.7738 -1.0567
  805MOL0     H11045   2.765   4.856   6.826 -2.9492 -0.3025  0.5066
  805MOL0     H11046   2.932   5.011   6.956  1.3657 -0.0970 -1.7628
  805MOL0     H11047   2.918   4.875   7.089  2.6028 -1.0123 -0.2254
  805MOL0     H11048   3.139   4.935   7.112 -3.1015 -0.0951 -1.1180
  805MOL0     H11049   3.325   4.955   7.275 -0.2739 -0.1896 -0.5058
  805MOL0     H11050   3.483   4.894   7.242 -1.5355  2.5167  2.8766
  805MOL0     H11051   3.367   4.797   7.340  3.2623  3.4177  4.8621
  805MOL0     H11052   3.657   4.348   6.901  1.5221 -1.7129 -1.1825
  805MOL0     H11053   3.886   4.259   6.923 -1.2849  0.8705 -0.6476
  805MOL0     H11054   4.210   4.452   7.185 -1.1245  1.2524 -2.0139
  805MOL0     H11055   4.078   4.387   7.269 -1.5257  0.7532 -2.4275
  805MOL0     H11056   4.164   4.155   7.262  0.3574  0.4798  1.0967
  805MOL0     H11057   4.271   4.196   7.129 -2.5684  0.6377 -1.1257
  805MOL0     H11058   4.377   4.188   7.376 -0.3313 -2.1939 -3.8820
  805MOL0     H11059   4.281   4.334   7.396  2.2711  3.1761 -0.5396
  805MOL0     H11060   4.421   4.440   7.216 -0.8301  0.2580  0.6394
  805MOL0     H11061   4.499   4.295   7.198 -2.0268 -0.9779 -1.1097
  805MOL0     H11062   4.517   4.440   7.473  0.7857 -0.4441 -0.0526
  805MOL0     H11063   4.627   4.319   7.401  1.7705  0.1776 -2.1590
  805MOL0     H11064   4.583   4.610   7.304  2.1114  0.5016 -4.4534
  805MOL0     H11065   4.660   4.486   7.213 -1.1241  1.0612 -1.1189
  805MOL0     H11066   4.803   4.647   7.351 -2.6000  0.3768 -0.4490
  805MOL0     H11067   4.851   4.481   7.335  1.4921  2.7314 -1.0863
  805MOL0     H11068   4.767   4.456   7.577 -1.6141  0.4346  0.0985
  805MOL0     H11069   4.697   4.616   7.553 -0.3413  1.2047 -1.7185
  805MOL0     H11070   4.002   4.586   7.165 -0.6398  0.8995  0.8646
  805MOL0     H11071   3.782   4.690   7.140  0.4420 -0.6010 -1.1200
  805MOL0     H11072   3.348   4.538   6.909  2.0068 -1.0864  2.8584
  805MOL0     H11073   3.122   4.624   6.835 -0.7432 -0.7179 -0.6607
  805MOL0     H11074   1.320   5.517   6.999 -0.5741 -0.2164  0.0544
  805MOL0     H11075   1.094   5.422   7.001  1.8444 -2.6691 -0.7318
  805MOL0     H11076   0.825   5.080   7.032 -1.3833 -1.7803  0.3057
  805MOL0     H11077   0.619   4.984   6.998 -0.8543  1.2981 -1.0931
  805MOL0     H11078   0.291   5.195   7.033  3.1399 -0.1280  0.6027
  805MOL0     H11079   0.322   5.068   6.923 -1.0338 -0.4686  0.1421
  805MOL0     H11080   0.127   5.029   7.140 -3.1341 -2.2000 -2.3064
  805MOL0     H11081   0.188   4.903   7.037 -2.3291 -1.1820  2.7548
  805MOL0     H11082   0.037   5.158   6.959 -2.1250 -0.3644  0.1118
  805MOL0     H11083   0.103   5.054   6.836  1.3332 -0.0044  0.5131
  805MOL0     H11084  -0.148   5.024   6.919 -0.1437 -1.1729  0.1243
  805MOL0     H11085  -0.069   4.935   7.048  0.2991  1.2809  1.1339
  805MOL0     H11086  -0.101   4.661   6.727 -2.8740 -1.2264  2.0637
  805MOL0     H11087   0.427   5.223   7.286  0.7942 -0.8339  0.1123
  805MOL0     H11088   0.534   5.359   7.416  0.9361  0.4658  0.2311
  805MOL0     H11089   0.712   5.366   7.424  1.2616 -3.3069 -0.9334
  805MOL0     H11090   0.622   5.484   7.325 -0.0788 -0.4832  0.0946
  806MOL0     O11091   6.001   8.845   6.055 -0.0078 -0.4811  0.8620
  806MOL0     C11092   6.059   8.945   6.021 -1.1354  0.0366 -0.3273
  806MOL0     O11093   6.013   9.077   6.030  0.0926 -1.0851 -0.1932
  806MOL0     C11094   5.895   9.108   6.093 -1.3565 -0.9701  0.5880
  806MOL0     C11095   5.792   9.032   6.142 -0.6157 -0.0067 -0.2630
  806MOL0     C11096   5.673   9.089   6.197 -0.1384  0.4083  0.1951
  806MOL0     C11097   5.656   9.222   6.215 -1.1478  0.2878 -0.5280
  806MOL0     O11098   5.549   9.290   6.277 -0.2195  0.2504 -0.0638
  806MOL0     C11099   5.497   9.239   6.396 -0.6134  0.2914 -0.6673
  806MOL0     C11100   5.358   9.303   6.425  0.5697 -0.7500 -0.8134
  806MOL0     C11101   5.248   9.281   6.328  0.1009 -0.3303  0.3238
  806MOL0     C11102   5.117   9.327   6.389  0.2753  0.4001 -1.0579
  806MOL0     C11103   4.989   9.294   6.313  0.6450  0.2270  0.4097
  806MOL0     C11104   4.986   9.147   6.267 -0.7754 -0.7342  0.2170
  806MOL0     C11105   4.852   9.110   6.206  0.3567 -0.4253 -0.2232
  806MOL0     C11106   4.839   8.956   6.193  0.0466  0.4699 -0.8519
  806MOL0     N11107   4.704   8.898   6.197  0.2735  0.0091  0.0325
  806MOL0     C11108   4.595   8.945   6.135  0.6836 -0.0154  0.2360
  806MOL0     C11109   4.495   8.852   6.163 -0.8681 -0.7401  0.0522
  806MOL0     C11110   4.350   8.849   6.137 -0.7568 -0.6650 -0.5008
  806MOL0     C11111   4.308   9.002   6.169 -0.0928  0.1466  0.2742
  806MOL0     C11112   4.157   9.007   6.145 -0.8664 -1.2918  0.7802
  806MOL0     C11113   4.095   9.121   6.235 -0.3006  0.0770 -0.1329
  806MOL0     O11114   4.145   9.248   6.190 -0.8749  1.1050 -0.5131
  806MOL0     C11115   4.239   9.323   6.258 -0.2141  0.0966  1.0040
  806MOL0     C11116   4.279   9.301   6.383 -0.1024  0.2154  0.4613
  806MOL0     C11117   4.362   9.396   6.454  0.5125  1.0652  0.2572
  806MOL0     C11118   4.398   9.353   6.593 -0.5616 -0.2401  0.0957
  806MOL0     C11119   4.420   9.507   6.391  0.0461 -0.1081  1.1847
  806MOL0     C11120   4.530   9.592   6.442  0.0885 -0.1933  0.4069
  806MOL0     O11121   4.562   9.600   6.580 -0.5951  0.3982 -0.0863
  806MOL0     C11122   4.674   9.667   6.605 -0.5496 -0.0782  1.0330
  806MOL0     C11123   4.792   9.597   6.622 -0.7846  0.3081  0.3237
  806MOL0     C11124   4.917   9.658   6.643 -0.1504 -1.0573  0.8530
  806MOL0     C11125   4.919   9.803   6.653  0.1650  0.1514  0.0362
  806MOL0     O11126   5.033   9.864   6.687 -0.9236  0.0257  0.2583
  806MOL0     C11127   5.165   9.819   6.638 -0.0657  0.2864 -0.6854
  806MOL0     C11128   5.172   9.809   6.484  0.2431 -0.2079 -0.6765
  806MOL0     C11129   5.276   9.713   6.442 -0.2899  0.1993 -0.3001
  806MOL0     C11130   5.420   9.764   6.465 -0.7801  0.5934  0.6237
  806MOL0     C11131   5.523   9.670   6.391  0.9239  0.7333  0.0857
  806MOL0     C11132   5.668   9.718   6.407  0.0421 -0.7122 -0.2302
  806MOL0     C11133   5.762   9.609   6.350 -0.6632 -0.0975  0.3946
  806MOL0     C11134   5.904   9.679   6.321  0.2831 -0.0028 -0.1584
  806MOL0    Cl11135   5.894   9.803   6.207 -0.1510 -0.2392  0.0385
  806MOL0     C11136   4.804   9.874   6.638  0.1887 -0.3544 -0.2374
  806MOL0     C11137   4.678   9.806   6.613 -0.1262 -0.7331  0.5962
  806MOL0     O11138   4.589   9.658   6.352 -0.2036  0.4595 -0.5723
  806MOL0     C11139   4.362   9.533   6.264  0.0855 -0.7618  0.4577
  806MOL0     C11140   4.271   9.445   6.204 -0.5974  0.7804 -0.0060
  806MOL0     N11141   4.561   8.769   6.248  1.0964 -0.6490 -0.7875
  806MOL0     N11142   4.685   8.779   6.261 -0.4043 -0.7993  0.3842
  806MOL0     C11143   5.751   9.301   6.152  0.4182  0.6275  0.2674
  806MOL0     C11144   5.865   9.247   6.094 -0.4899  1.4763  0.7230
  806MOL0     C11145   6.197   8.927   5.975 -0.8208 -0.5645  0.1049
  806MOL0     C11146   6.272   9.045   5.941 -0.3566  0.5885  0.3157
  806MOL0     C11147   6.399   9.030   5.881 -0.1834 -0.1031  0.4055
  806MOL0     C11148   6.454   8.908   5.863  0.2269  0.0514 -0.2477
  806MOL0     O11149   6.580   8.905   5.806 -0.1478 -1.0520 -0.3687
  806MOL0     C11150   6.643   8.785   5.760  0.9700 -0.6087  0.8616
  806MOL0     C11151   6.736   8.837   5.655  0.7977  0.4056  0.7706
  806MOL0     C11152   6.854   8.930   5.707  0.8520  0.1321 -0.9628
  806MOL0     C11153   6.971   8.950   5.613  0.2884 -0.1046 -0.5898
  806MOL0     C11154   7.093   8.994   5.684 -0.0106 -0.0230 -0.3479
  806MOL0     C11155   7.203   9.013   5.722  0.1331  0.3211 -0.8108
  806MOL0     C11156   6.383   8.788   5.890  1.0822 -0.1870  0.0496
  806MOL0     C11157   6.258   8.796   5.943  0.3599  0.6155 -0.3170
  806MOL0     C11158   6.194   8.659   5.988 -0.1041 -0.2423  0.4160
  806MOL0     H11159   5.796   8.924   6.136 -1.6095 -0.2290  2.0988
  806MOL0     H11160   5.594   9.024   6.234 -2.6315  1.0990 -3.3478
  806MOL0     H11161   5.565   9.254   6.481 -0.7625  3.0082 -0.9396
  806MOL0     H11162   5.482   9.134   6.367  0.5276 -0.4079  1.1265
  806MOL0     H11163   5.341   9.267   6.527  2.0602 -0.7253 -0.5286
  806MOL0     H11164   5.371   9.412   6.432  1.3373 -0.8464 -0.6691
  806MOL0     H11165   5.266   9.335   6.234 -0.5385  0.2400  0.5186
  806MOL0     H11166   5.242   9.174   6.309  3.8442 -0.4699 -0.9239
  806MOL0     H11167   5.104   9.290   6.491  0.5259  1.1445 -0.7527
  806MOL0     H11168   5.121   9.436   6.391  1.8039  0.4577 -3.2207
  806MOL0     H11169   4.970   9.352   6.222 -0.5455 -2.2831 -1.0391
  806MOL0     H11170   4.906   9.326   6.378 -0.6553  1.7133 -1.8160
  806MOL0     H11171   5.069   9.142   6.196 -0.3288 -1.1006  0.7575
  806MOL0     H11172   5.015   9.091   6.356  2.2547 -0.8463 -0.7110
  806MOL0     H11173   4.832   9.152   6.107 -4.1186  3.3713  1.8696
  806MOL0     H11174   4.771   9.149   6.269  0.7846 -1.2162  0.8293
  806MOL0     H11175   4.888   8.918   6.103 -0.9720 -0.7418 -0.9349
  806MOL0     H11176   4.902   8.913   6.272 -1.3660  0.6037  0.4015
  806MOL0     H11177   4.575   9.034   6.075 -1.6196  0.2172  1.2785
  806MOL0     H11178   4.297   8.786   6.210 -0.0007  0.5736  1.1988
  806MOL0     H11179   4.341   8.815   6.034  1.2113 -0.9904 -0.5906
  806MOL0     H11180   4.336   9.027   6.272  0.8802 -1.4581  0.4203
  806MOL0     H11181   4.367   9.075   6.113  0.9769  0.8711  2.2361
  806MOL0     H11182   4.129   9.011   6.040 -1.8010  0.8888  1.0410
  806MOL0     H11183   4.110   8.917   6.184  1.0353 -1.5079  2.7795
  806MOL0     H11184   3.987   9.107   6.228 -0.1102 -1.3272 -0.5603
  806MOL0     H11185   4.112   9.099   6.341  2.4668  0.8214 -0.3414
  806MOL0     H11186   4.251   9.208   6.431 -1.4944  1.7699  2.8829
  806MOL0     H11187   4.389   9.440   6.659  1.3914  1.9848 -2.3630
  806MOL0     H11188   4.502   9.328   6.613 -0.9640 -1.4181  0.8395
  806MOL0     H11189   4.340   9.274   6.641 -0.0103 -0.1666  0.8889
  806MOL0     H11190   4.787   9.489   6.611  1.2107  0.3421 -1.6262
  806MOL0     H11191   5.009   9.600   6.649  0.9896  0.7060  1.0857
  806MOL0     H11192   5.246   9.878   6.680  0.2116 -0.8245  0.3654
  806MOL0     H11193   5.181   9.720   6.680  1.3466  0.8173  0.0968
  806MOL0     H11194   5.076   9.774   6.446 -2.3101  1.4040  3.5149
  806MOL0     H11195   5.191   9.907   6.439  0.0554 -0.3481 -1.0605
  806MOL0     H11196   5.270   9.698   6.334  2.7859 -0.3298 -0.4744
  806MOL0     H11197   5.261   9.611   6.479 -1.8851 -0.2991 -2.1403
  806MOL0     H11198   5.433   9.751   6.573 -2.1909 -0.1515  0.7323
  806MOL0     H11199   5.434   9.869   6.437 -1.0096  0.6003  0.5360
  806MOL0     H11200   5.517   9.564   6.420  1.4370 -0.1140 -2.6812
  806MOL0     H11201   5.507   9.676   6.283 -0.5540  0.4453  0.2626
  806MOL0     H11202   5.702   9.737   6.509  0.3967 -0.2909 -0.4215
  806MOL0     H11203   5.686   9.817   6.364 -0.8394  0.9527  2.9882
  806MOL0     H11204   5.720   9.585   6.251  0.8520  1.6788 -0.7520
  806MOL0     H11205   5.770   9.518   6.409 -3.9241  0.5373  2.0357
  806MOL0     H11206   5.985   9.609   6.298 -1.0979 -1.9355  0.6223
  806MOL0     H11207   5.933   9.736   6.410 -1.7770 -0.4374  0.8496
  806MOL0     H11208   4.816   9.979   6.614  0.0280  0.3553  2.4534
  806MOL0     H11209   4.583   9.859   6.616  1.3739  2.1903 -0.3770
  806MOL0     H11210   4.415   9.615   6.217 -2.9066  1.9997  1.5158
  806MOL0     H11211   4.243   9.470   6.102  2.3340  0.6584 -0.9273
  806MOL0     H11212   5.725   9.407   6.150 -2.5516 -0.0304 -0.0692
  806MOL0     H11213   5.942   9.309   6.050  1.5598 -0.4850  1.3356
  806MOL0     H11214   6.225   9.141   5.962 -2.0659  0.0295 -0.6947
  806MOL0     H11215   6.460   9.116   5.856 -0.1498 -0.9412 -2.7980
  806MOL0     H11216   6.712   8.744   5.834  1.4773 -0.8508  0.2687
  806MOL0     H11217   6.565   8.718   5.722 -0.9355  2.3377 -0.7973
  806MOL0     H11218   6.673   8.892   5.585  2.8583  1.7183 -0.1530
  806MOL0     H11219   6.769   8.756   5.589 -3.5421 -1.1715  0.1999
  806MOL0     H11220   6.814   9.023   5.747  0.9131  0.2920 -1.2715
  806MOL0     H11221   6.895   8.880   5.795  0.6687  0.5473 -0.6363
  806MOL0     H11222   6.938   9.029   5.545 -0.6236  1.5802  1.7278
  806MOL0     H11223   6.990   8.861   5.551  0.8275  0.3977 -1.1611
  806MOL0     H11224   7.301   9.028   5.762 -0.4676 -1.1509  1.4136
  806MOL0     H11225   6.428   8.690   5.876 -2.4239 -2.0949  0.9239
  806MOL0     H11226   6.272   8.582   5.991  2.4088  2.1352  0.3579
  806MOL0     H11227   6.158   8.663   6.092  2.6871  0.9116  1.4369
  806MOL0     H11228   6.114   8.639   5.916  0.2021 -1.4014  0.3767
  807MOL0     O11229   7.649   3.303   1.273 -0.2056  0.5453  0.2103
  807MOL0     C11230   7.549   3.252   1.218 -0.3177  0.5679  0.4391
  807MOL0     O11231   7.506   3.123   1.244 -0.5519 -0.2774  0.2970
  807MOL0     C11232   7.554   3.060   1.360 -0.5904 -0.6365 -0.2374
  807MOL0     C11233   7.597   2.931   1.355  0.2161  0.6449  0.3075
  807MOL0     C11234   7.646   2.869   1.477  0.6765 -0.7546  0.4833
  807MOL0     C11235   7.631   2.928   1.599  0.1257  0.2482 -0.1049
  807MOL0     O11236   7.666   2.879   1.722  0.1738  0.4510 -0.4071
  807MOL0     C11237   7.686   2.734   1.734  0.3177 -0.1612  0.2551
  807MOL0     C11238   7.837   2.697   1.769 -0.6179  0.5120  0.5340
  807MOL0     C11239   7.856   2.541   1.752 -0.0104 -0.4366 -0.6212
  807MOL0     C11240   7.970   2.465   1.827  0.9318 -0.0930  0.3139
  807MOL0     C11241   8.005   2.334   1.756  0.0399 -0.1712  0.2754
  807MOL0     C11242   8.144   2.275   1.802  0.0301  1.1301 -0.4713
  807MOL0     C11243   8.176   2.147   1.720  0.5795  0.4834  0.0421
  807MOL0     C11244   8.321   2.085   1.735  0.6412  0.0251 -0.0571
  807MOL0     N11245   8.335   2.027   1.864 -0.6871  0.1462 -0.4329
  807MOL0     C11246   8.394   2.094   1.972  0.1266  0.2626 -0.6784
  807MOL0     C11247   8.357   2.026   2.082  0.0652 -0.3008  0.7096
  807MOL0     C11248   8.407   2.063   2.212 -0.0754 -0.7973 -0.3929
  807MOL0     C11249   8.415   1.946   2.317  0.4595  0.3216 -0.1575
  807MOL0     C11250   8.500   1.994   2.434 -0.2699  0.6476  0.8276
  807MOL0     C11251   8.427   2.069   2.548  0.5173  0.0587 -0.7552
  807MOL0     O11252   8.322   1.982   2.598 -0.3693  0.2618  0.1252
  807MOL0     C11253   8.290   2.000   2.727 -0.0792 -0.3098 -0.5119
  807MOL0     C11254   8.313   2.120   2.799 -0.4274 -0.2491  0.7885
  807MOL0     C11255   8.293   2.133   2.934 -0.1560 -0.2618  0.4191
  807MOL0     C11256   8.339   2.260   2.988 -0.4254  0.3376  0.0963
  807MOL0     C11257   8.241   2.020   3.009  0.1556  0.5757 -0.4276
  807MOL0     C11258   8.224   2.011   3.160 -0.3556  0.5415  0.7400
  807MOL0     O11259   8.149   1.895   3.197  0.6723 -0.2264  0.3555
  807MOL0     C11260   8.109   1.883   3.328  0.3826  0.7592 -0.2438
  807MOL0     C11261   8.188   1.892   3.440  0.5336  0.7909 -0.7446
  807MOL0     C11262   8.141   1.833   3.561 -0.0749  0.9373  0.2219
  807MOL0     C11263   8.019   1.788   3.585 -0.0084  0.4283  0.2659
  807MOL0     O11264   7.989   1.738   3.712  0.4379 -0.1520  0.1457
  807MOL0     C11265   7.881   1.653   3.736 -0.3108 -0.5137  0.3656
  807MOL0     C11266   7.823   1.709   3.868 -1.2136  0.7062 -0.0479
  807MOL0     C11267   7.728   1.600   3.929 -0.6611  0.2532 -0.0410
  807MOL0     C11268   7.683   1.659   4.064  0.5104 -0.1884  0.1224
  807MOL0     C11269   7.718   1.565   4.187  0.7068 -0.4848  1.2204
  807MOL0     C11270   7.642   1.622   4.309 -0.0044  0.5885 -0.4026
  807MOL0     C11271   7.650   1.543   4.429  0.0785 -0.5795 -0.7637
  807MOL0     C11272   7.596   1.604   4.557 -0.2648 -0.0223  0.1304
  807MOL0    Cl11273   7.427   1.631   4.530  0.6699 -0.5313 -0.1731
  807MOL0     C11274   7.936   1.795   3.472  0.4514  0.0225 -0.8464
  807MOL0     C11275   7.982   1.840   3.350  0.3639  0.3440 -0.3709
  807MOL0     O11276   8.278   2.089   3.239  0.4024 -0.9102  0.7862
  807MOL0     C11277   8.216   1.901   2.935 -0.3388 -0.2484 -0.1420
  807MOL0     C11278   8.244   1.887   2.799 -0.2560 -0.4475 -0.2679
  807MOL0     N11279   8.284   1.917   2.045 -0.6110  0.9040 -0.1096
  807MOL0     N11280   8.270   1.914   1.918  0.4927  0.7041  0.4518
  807MOL0     C11281   7.573   3.052   1.606  0.4068 -0.2847 -0.1911
  807MOL0     C11282   7.542   3.115   1.489  0.9702 -0.9059 -0.2450
  807MOL0     C11283   7.467   3.352   1.136  0.0377 -0.6414  0.4612
  807MOL0     C11284   7.337   3.311   1.106 -0.9170 -0.2094  0.2522
  807MOL0     C11285   7.256   3.403   1.049  1.0609 -0.0442  0.2892
  807MOL0     C11286   7.291   3.537   1.009 -0.0699 -1.3147 -0.6633
  807MOL0     O11287   7.186   3.620   0.957  0.1586  0.4993  0.7118
  807MOL0     C11288   7.226   3.739   0.886  0.0710  0.4474  0.3474
  807MOL0     C11289   7.253   3.686   0.740 -0.3130  0.2955 -0.2693
  807MOL0     C11290   7.138   3.622   0.682 -0.4879  0.6357 -0.8835
  807MOL0     C11291   7.175   3.500   0.596  0.2492  0.2999 -0.9857
  807MOL0     C11292   7.140   3.373   0.662 -0.7324  0.2310 -0.6203
  807MOL0     C11293   7.130   3.269   0.723  0.1160  0.0898 -0.4913
  807MOL0     C11294   7.426   3.573   1.032  1.0318  0.6880  0.1408
  807MOL0     C11295   7.518   3.481   1.086  0.6712  0.3467 -0.0152
  807MOL0     C11296   7.657   3.532   1.105 -0.4254  0.3627  0.2433
  807MOL0     H11297   7.598   2.864   1.270 -1.3371 -0.5302  1.1467
  807MOL0     H11298   7.685   2.768   1.465 -1.7912 -2.0454  2.3029
  807MOL0     H11299   7.654   2.687   1.640 -0.3175 -0.0708  0.4195
  807MOL0     H11300   7.614   2.696   1.807 -0.1861  0.4598  0.0970
  807MOL0     H11301   7.908   2.743   1.699 -0.1486 -0.7563  0.1323
  807MOL0     H11302   7.857   2.730   1.871 -0.7380 -1.6011  1.2950
  807MOL0     H11303   7.764   2.493   1.787  0.2512 -0.2248  0.3856
  807MOL0     H11304   7.865   2.519   1.645 -0.7976 -0.8546 -0.6080
  807MOL0     H11305   8.057   2.532   1.822 -0.3653  1.6032 -0.6831
  807MOL0     H11306   7.953   2.452   1.934 -0.1343 -0.4187  0.1078
  807MOL0     H11307   8.018   2.360   1.651  2.3441  0.7748  0.7376
  807MOL0     H11308   7.925   2.262   1.774 -0.8472  0.0825 -2.2481
  807MOL0     H11309   8.216   2.356   1.790  1.0877  0.0700 -1.6377
  807MOL0     H11310   8.142   2.243   1.907 -1.2976  1.8639 -0.2509
  807MOL0     H11311   8.167   2.183   1.617 -3.5944  0.1589  0.1326
  807MOL0     H11312   8.100   2.069   1.730  0.3318  0.1922 -3.0657
  807MOL0     H11313   8.337   2.013   1.655 -2.0606  3.0848 -3.7621
  807MOL0     H11314   8.402   2.157   1.725 -0.0156  0.9335  0.8604
  807MOL0     H11315   8.465   2.176   1.960 -0.8174  1.4269  1.1810
  807MOL0     H11316   8.344   2.144   2.249  0.3224 -0.1468 -1.1120
  807MOL0     H11317   8.505   2.107   2.196 -0.7764  0.2030 -2.1703
  807MOL0     H11318   8.322   1.903   2.356 -1.5028  4.0122 -0.3761
  807MOL0     H11319   8.463   1.869   2.256 -2.6780 -0.1036 -2.3397
  807MOL0     H11320   8.546   1.909   2.485  2.7237  1.8009  0.2056
  807MOL0     H11321   8.587   2.048   2.397 -1.8628  1.6735 -1.7311
  807MOL0     H11322   8.503   2.084   2.625  2.3015  1.4420 -2.6436
  807MOL0     H11323   8.387   2.166   2.516  0.7272  1.8023  3.5263
  807MOL0     H11324   8.332   2.212   2.745 -2.1076  1.5095  2.9999
  807MOL0     H11325   8.297   2.281   3.086 -1.4601  0.4508 -0.3592
  807MOL0     H11326   8.307   2.347   2.929  2.4704  1.5030  0.0841
  807MOL0     H11327   8.447   2.279   2.988 -0.7556  2.4797 -0.0778
  807MOL0     H11328   8.292   1.922   3.429  0.9805 -0.9256 -1.5619
  807MOL0     H11329   8.218   1.820   3.636  0.1738 -0.4697 -0.2569
  807MOL0     H11330   7.804   1.671   3.661 -0.0793 -1.7499 -0.2017
  807MOL0     H11331   7.910   1.547   3.731 -1.2396 -0.7587 -0.1278
  807MOL0     H11332   7.910   1.730   3.932 -1.0999  0.1863 -0.0288
  807MOL0     H11333   7.776   1.806   3.850 -2.0047  0.0638 -1.6597
  807MOL0     H11334   7.779   1.505   3.946  1.3314  1.2089 -0.4000
  807MOL0     H11335   7.646   1.578   3.860 -0.3223  2.2178 -1.1430
  807MOL0     H11336   7.576   1.682   4.063  1.0380  2.5587 -0.3232
  807MOL0     H11337   7.735   1.752   4.086  1.3321 -1.1252  2.5479
  807MOL0     H11338   7.684   1.466   4.156 -1.2696  1.1355 -2.4645
  807MOL0     H11339   7.827   1.564   4.190  1.0995  0.0558 -3.8255
  807MOL0     H11340   7.536   1.639   4.288 -0.1844 -0.4381 -0.3913
  807MOL0     H11341   7.683   1.722   4.327  0.7695 -0.1141  2.2410
  807MOL0     H11342   7.755   1.527   4.453 -0.4234  0.7945  3.1288
  807MOL0     H11343   7.606   1.443   4.422  1.0832 -1.0610 -0.3458
  807MOL0     H11344   7.649   1.700   4.562  1.8066 -0.7727 -3.6775
  807MOL0     H11345   7.616   1.547   4.648  0.7438  2.8774  1.8630
  807MOL0     H11346   7.830   1.777   3.483  0.4392  1.4642  2.3960
  807MOL0     H11347   7.915   1.819   3.267  0.2142 -2.0609  0.2740
  807MOL0     H11348   8.186   1.811   2.988 -0.8739  0.2909  0.4719
  807MOL0     H11349   8.217   1.801   2.738 -0.0308 -0.5148 -0.2748
  807MOL0     H11350   7.551   3.093   1.704  1.8223  1.0677 -0.4159
  807MOL0     H11351   7.484   3.207   1.492 -1.7261 -2.4781 -0.3779
  807MOL0     H11352   7.313   3.211   1.140  3.4305 -1.8220 -0.7877
  807MOL0     H11353   7.154   3.378   1.020  0.8327  0.0520  0.9641
  807MOL0     H11354   7.132   3.795   0.881 -0.4306 -0.3961 -0.1089
  807MOL0     H11355   7.303   3.805   0.926 -0.6369  0.9632  0.8895
  807MOL0     H11356   7.331   3.610   0.748 -0.3871  0.2512  0.0475
  807MOL0     H11357   7.294   3.768   0.680  0.5978  0.7354  0.9129
  807MOL0     H11358   7.061   3.600   0.757  0.5813 -1.2322 -0.3009
  807MOL0     H11359   7.088   3.695   0.617 -0.7225  0.8025 -0.5158
  807MOL0     H11360   7.277   3.489   0.559  0.3587 -0.5741 -0.4623
  807MOL0     H11361   7.108   3.514   0.511 -2.4115  0.8297  1.0747
  807MOL0     H11362   7.114   3.183   0.785 -1.0556  1.6968  1.5857
  807MOL0     H11363   7.448   3.672   0.994 -4.3736  2.5014  0.9207
  807MOL0     H11364   7.735   3.457   1.092 -1.9808 -0.9363 -2.8551
  807MOL0     H11365   7.680   3.618   1.040 -1.7133 -0.0278 -0.7755
  807MOL0     H11366   7.658   3.552   1.212  1.5055 -2.2446  0.8129
  808MOL0     O11367   5.617   9.413   6.759  0.5460  0.3183  0.2271
  808MOL0     C11368   5.690   9.318   6.737 -0.7343  0.6219  0.2562
  808MOL0     O11369   5.670   9.193   6.775 -0.3470 -0.5283 -0.7868
  808MOL0     C11370   5.555   9.178   6.844  0.3892 -0.1296 -0.0916
  808MOL0     C11371   5.439   9.131   6.768 -1.3753  0.6051 -0.3774
  808MOL0     C11372   5.326   9.106   6.846 -0.6063  0.2970  0.2245
  808MOL0     C11373   5.318   9.112   6.986  0.3531 -0.6217  0.0232
  808MOL0     O11374   5.204   9.086   7.047  0.1439  0.0470  0.3877
  808MOL0     C11375   5.216   8.991   7.156  0.4307 -0.3602  0.0862
  808MOL0     C11376   5.139   8.863   7.112  0.1627 -0.3456  0.5368
  808MOL0     C11377   5.140   8.745   7.215 -0.5987  0.9474  0.5567
  808MOL0     C11378   5.127   8.610   7.147  0.3160  1.1287  0.1578
  808MOL0     C11379   4.984   8.594   7.096  0.4211  0.2176 -0.9815
  808MOL0     C11380   4.948   8.442   7.085  0.3132  0.5334  0.4138
  808MOL0     C11381   4.815   8.414   7.008 -0.4237  0.2030 -0.3353
  808MOL0     C11382   4.693   8.362   7.087  0.3976 -0.1891 -0.8238
  808MOL0     N11383   4.712   8.232   7.154 -0.7977  0.6304  0.0215
  808MOL0     C11384   4.646   8.200   7.264 -0.0586  0.2426  0.3956
  808MOL0     C11385   4.698   8.082   7.313  0.2227  0.9264  0.5594
  808MOL0     C11386   4.665   7.990   7.432 -0.5469  1.1314  0.6761
  808MOL0     C11387   4.545   7.878   7.400 -0.0704 -0.9159  0.2668
  808MOL0     C11388   4.581   7.768   7.311  0.0980  0.4882  0.2957
  808MOL0     C11389   4.475   7.661   7.316  0.1615  0.9201 -0.5546
  808MOL0     O11390   4.485   7.571   7.202 -0.3516  0.8208 -0.0529
  808MOL0     C11391   4.616   7.534   7.179  0.9457 -0.8093  0.3840
  808MOL0     C11392   4.671   7.572   7.055  0.1312  0.8138  0.3781
  808MOL0     C11393   4.794   7.528   7.023 -0.1199  0.7806 -0.1943
  808MOL0     C11394   4.848   7.590   6.895  0.6191 -0.9298 -0.2036
  808MOL0     C11395   4.863   7.434   7.103 -0.0455 -0.2736  0.6778
  808MOL0     C11396   4.996   7.373   7.072 -0.4283 -0.7964 -0.5041
  808MOL0     O11397   5.035   7.368   6.940 -0.1039  0.0549  0.0227
  808MOL0     C11398   5.169   7.387   6.916  0.4507  1.2070  0.7794
  808MOL0     C11399   5.237   7.289   6.849  1.4832 -0.0235 -0.4710
  808MOL0     C11400   5.374   7.294   6.824  0.5306  0.0206 -0.1296
  808MOL0     C11401   5.448   7.411   6.863  0.1725 -0.5921  0.3216
  808MOL0     O11402   5.587   7.424   6.836  0.6962 -0.0462  0.4357
  808MOL0     C11403   5.645   7.358   6.715  0.3395  0.2027 -0.9459
  808MOL0     C11404   5.703   7.478   6.646 -1.0680 -0.1646 -0.0896
  808MOL0     C11405   5.789   7.442   6.513 -0.0620  0.2059  0.2289
  808MOL0     C11406   5.700   7.351   6.430  0.1508  0.1726  0.3272
  808MOL0     C11407   5.764   7.330   6.284 -0.0192 -0.2831 -0.8100
  808MOL0     C11408   5.674   7.253   6.190 -0.1569 -0.1254  0.0402
  808MOL0     C11409   5.589   7.344   6.092  0.4380  0.9198  0.8661
  808MOL0     C11410   5.462   7.280   6.032 -0.4023  0.3520 -0.4399
  808MOL0    Cl11411   5.510   7.142   5.916  0.2143 -0.0783  0.0754
  808MOL0     C11412   5.378   7.515   6.926 -0.0524  0.2482 -0.0452
  808MOL0     C11413   5.241   7.503   6.950  0.3333 -1.0357 -0.3825
  808MOL0     O11414   5.067   7.345   7.170 -0.0938 -0.3287 -0.0742
  808MOL0     C11415   4.809   7.389   7.222 -0.8761 -0.1945 -0.3897
  808MOL0     C11416   4.686   7.437   7.258 -0.5230 -0.8803  0.0600
  808MOL0     N11417   4.791   8.039   7.218  0.3613 -0.0489 -0.1994
  808MOL0     N11418   4.797   8.127   7.119  0.9299 -0.3804 -0.0563
  808MOL0     C11419   5.432   9.148   7.051  0.5111 -0.3496 -0.3684
  808MOL0     C11420   5.548   9.187   6.983 -0.6269 -0.3456  0.8575
  808MOL0     C11421   5.812   9.336   6.666 -0.1323  0.0892  0.8848
  808MOL0     C11422   5.841   9.279   6.538  0.4967  0.9188 -0.2325
  808MOL0     C11423   5.958   9.297   6.469  0.5612 -0.1437  0.0216
  808MOL0     C11424   6.054   9.382   6.515 -0.4631 -0.3609 -0.5929
  808MOL0     O11425   6.162   9.404   6.436 -0.0582 -0.5167 -0.4900
  808MOL0     C11426   6.285   9.463   6.475  0.5664 -0.5407  0.1032
  808MOL0     C11427   6.276   9.615   6.459 -0.1766 -0.1961  0.0284
  808MOL0     C11428   6.427   9.666   6.462  0.5256  0.2135 -0.2089
  808MOL0     C11429   6.434   9.807   6.424  0.2216 -0.4013 -0.7624
  808MOL0     C11430   6.368   9.829   6.304  0.3107 -0.7895 -1.0468
  808MOL0     C11431   6.322   9.850   6.195 -0.6756 -0.4252  0.0496
  808MOL0     C11432   6.027   9.446   6.640  0.9715  0.3303 -0.1090
  808MOL0     C11433   5.905   9.428   6.721 -0.2853  0.7357  0.8101
  808MOL0     C11434   5.878   9.492   6.854 -0.0631  0.0317  1.1538
  808MOL0     H11435   5.442   9.116   6.661  0.4256 -2.0246 -0.0600
  808MOL0     H11436   5.237   9.062   6.803 -0.2864 -0.2921  0.1533
  808MOL0     H11437   5.163   9.033   7.242 -1.0451 -1.3468 -0.2992
  808MOL0     H11438   5.318   8.962   7.181 -0.1448 -2.5090  0.1296
  808MOL0     H11439   5.040   8.885   7.070 -0.4130  1.0413  2.4913
  808MOL0     H11440   5.202   8.841   7.025  1.3266  0.8360  1.0448
  808MOL0     H11441   5.239   8.751   7.261 -1.5702 -1.7317  3.3856
  808MOL0     H11442   5.060   8.756   7.290 -1.4503  2.7588 -0.5329
  808MOL0     H11443   5.201   8.599   7.067 -2.4306  0.8062 -2.5658
  808MOL0     H11444   5.139   8.535   7.225 -1.9224  1.9717  1.4104
  808MOL0     H11445   4.970   8.639   6.997  0.1227 -1.3409 -1.6744
  808MOL0     H11446   4.907   8.635   7.161 -3.0426 -2.8447 -2.7704
  808MOL0     H11447   5.020   8.402   7.013 -1.0840 -0.8889 -0.2662
  808MOL0     H11448   4.955   8.389   7.180  3.8732  2.8883  1.6847
  808MOL0     H11449   4.832   8.338   6.931 -0.3227  1.8798 -2.0303
  808MOL0     H11450   4.791   8.500   6.945 -1.2122 -1.7102 -2.7817
  808MOL0     H11451   4.677   8.442   7.160  2.5484 -1.4517  1.1759
  808MOL0     H11452   4.600   8.359   7.030 -0.5973 -3.0243  0.7749
  808MOL0     H11453   4.581   8.266   7.321  0.9563  0.9338  0.7702
  808MOL0     H11454   4.622   8.046   7.516 -0.0370  1.2363  0.8717
  808MOL0     H11455   4.757   7.941   7.462  1.8046  2.2692 -3.8545
  808MOL0     H11456   4.502   7.835   7.491 -2.3454  0.2711 -0.1783
  808MOL0     H11457   4.471   7.943   7.351  1.2040  0.1451 -0.3137
  808MOL0     H11458   4.583   7.806   7.209 -1.8587  3.5306  1.2677
  808MOL0     H11459   4.678   7.721   7.328  0.5207  0.4554 -1.9143
  808MOL0     H11460   4.482   7.607   7.411 -0.3489 -1.7529 -1.9252
  808MOL0     H11461   4.373   7.700   7.315 -1.5954 -3.1276 -2.4721
  808MOL0     H11462   4.621   7.648   6.995 -1.4716 -0.2965  0.2479
  808MOL0     H11463   4.810   7.690   6.870  2.1176 -0.2902 -0.0679
  808MOL0     H11464   4.828   7.518   6.816 -1.3684 -0.4419 -0.2051
  808MOL0     H11465   4.956   7.599   6.909  0.1150  2.2933  3.8279
  808MOL0     H11466   5.172   7.203   6.835 -1.8854  1.5933  3.2295
  808MOL0     H11467   5.418   7.202   6.786 -3.6924 -0.8298 -3.6959
  808MOL0     H11468   5.725   7.288   6.739  0.4849  0.2778 -1.2152
  808MOL0     H11469   5.570   7.310   6.652 -0.3655 -0.3713  0.2755
  808MOL0     H11470   5.620   7.535   6.604  0.0551  1.2630 -0.4986
  808MOL0     H11471   5.761   7.542   6.713  1.4342 -0.6798 -1.5915
  808MOL0     H11472   5.878   7.386   6.543 -0.9810 -0.3757  1.9829
  808MOL0     H11473   5.809   7.535   6.458  2.2533 -0.7616 -0.6898
  808MOL0     H11474   5.597   7.390   6.429 -0.2108 -0.7397  0.9527
  808MOL0     H11475   5.696   7.250   6.472 -0.0206 -0.8200 -1.9188
  808MOL0     H11476   5.788   7.427   6.242 -1.9027  1.2387  1.3625
  808MOL0     H11477   5.855   7.269   6.293  1.7384  2.2661 -0.4844
  808MOL0     H11478   5.600   7.209   6.258 -0.7213  2.7305  1.4299
  808MOL0     H11479   5.732   7.189   6.123 -0.5428  2.4224 -2.9844
  808MOL0     H11480   5.639   7.387   6.005 -2.5437  0.3142 -1.3173
  808MOL0     H11481   5.557   7.433   6.147 -3.4088 -0.5162  1.2875
  808MOL0     H11482   5.406   7.360   5.983 -3.6827 -2.7822 -2.2504
  808MOL0     H11483   5.395   7.249   6.113  1.4198  0.1177  1.0350
  808MOL0     H11484   5.422   7.613   6.941  1.8541 -0.2804 -1.8035
  808MOL0     H11485   5.196   7.588   7.000  2.2144 -0.0568 -0.2624
  808MOL0     H11486   4.864   7.326   7.291 -0.1444  0.9106  0.0725
  808MOL0     H11487   4.650   7.431   7.360  0.8748  0.2587  0.6463
  808MOL0     H11488   5.424   9.165   7.158 -0.9724  1.7504 -0.7427
  808MOL0     H11489   5.620   9.222   7.055  0.2286 -1.7942  0.7405
  808MOL0     H11490   5.768   9.220   6.483 -0.8807  0.3979  2.0121
  808MOL0     H11491   5.976   9.233   6.384 -2.3981 -2.3414  0.8898
  808MOL0     H11492   6.310   9.439   6.578 -0.9855 -3.2349 -0.0601
  808MOL0     H11493   6.358   9.417   6.408  0.9234  0.8971 -0.5385
  808MOL0     H11494   6.205   9.655   6.532  1.3247  2.0400  0.3332
  808MOL0     H11495   6.222   9.635   6.366  1.2115  1.2553 -0.4971
  808MOL0     H11496   6.472   9.662   6.562 -0.2587  3.1091  0.3339
  808MOL0     H11497   6.476   9.603   6.387 -2.0561 -1.9550 -0.2003
  808MOL0     H11498   6.536   9.844   6.414  0.1279 -0.2452 -1.1646
  808MOL0     H11499   6.371   9.860   6.496 -2.0885 -1.4350 -1.8926
  808MOL0     H11500   6.288   9.883   6.099  2.4786  0.7852 -0.7542
  808MOL0     H11501   6.094   9.528   6.663  0.7408  0.7321 -0.8491
  808MOL0     H11502   5.961   9.552   6.890  1.0600  0.5965 -2.0256
  808MOL0     H11503   5.790   9.557   6.852 -0.3658 -0.1991 -3.2725
  808MOL0     H11504   5.869   9.420   6.936  0.2958  1.0392  2.0953
  809MOL0     O11505   6.495   9.791   5.309  0.1348  0.5680  0.3509
  809MOL0     C11506   6.564   9.870   5.237  0.1409 -0.3812  0.1585
  809MOL0     O11507   6.519   9.970   5.149  0.1052 -0.0943  0.3251
  809MOL0     C11508   6.381   9.976   5.125  0.0217 -0.7552  0.3968
  809MOL0     C11509   6.332   9.900   5.019  0.3881  0.0057  0.4490
  809MOL0     C11510   6.190   9.892   4.996  0.5910 -0.3842  0.1647
  809MOL0     C11511   6.100   9.952   5.084  0.3112 -0.3843  0.2950
  809MOL0     O11512   5.964   9.958   5.057 -0.0942 -0.0586  0.3291
  809MOL0     C11513   5.897  10.083   5.070  0.1659  0.0634  0.0013
  809MOL0     C11514   5.765  10.086   4.983 -0.4880  0.5517  0.6869
  809MOL0     C11515   5.681   9.959   4.988 -0.5896 -0.6943  0.8439
  809MOL0     C11516   5.707   9.888   4.850  0.8515 -0.1027 -0.1203
  809MOL0     C11517   5.617   9.764   4.842 -1.1162 -0.0016 -0.3097
  809MOL0     C11518   5.680   9.646   4.924  1.4912 -0.0749 -0.4016
  809MOL0     C11519   5.792   9.578   4.838 -0.8594  0.5820  0.1926
  809MOL0     C11520   5.835   9.450   4.898  0.2298  0.7287  0.0357
  809MOL0     N11521   5.933   9.393   4.806 -0.1509 -0.2063 -0.2659
  809MOL0     C11522   5.912   9.289   4.726  0.6805  0.2164 -0.2312
  809MOL0     C11523   6.031   9.261   4.669 -0.4467  0.4141 -0.5409
  809MOL0     C11524   6.073   9.148   4.587 -0.1749  0.7588 -0.5782
  809MOL0     C11525   5.973   9.033   4.581  0.3043  0.4551 -0.5264
  809MOL0     C11526   6.021   8.929   4.463 -0.0298  0.1365 -0.9026
  809MOL0     C11527   5.921   8.815   4.455  0.6054 -0.2465  1.2682
  809MOL0     O11528   5.958   8.756   4.333  0.1804 -0.1353 -0.0795
  809MOL0     C11529   5.865   8.671   4.266 -0.1441 -0.2981 -1.0196
  809MOL0     C11530   5.874   8.634   4.131 -0.4596 -0.6363  1.1830
  809MOL0     C11531   5.778   8.547   4.067 -0.1535 -0.7390 -0.0304
  809MOL0     C11532   5.793   8.505   3.919  0.0130 -0.3785  1.5212
  809MOL0     C11533   5.676   8.493   4.150  0.2993  0.0168 -0.0029
  809MOL0     C11534   5.570   8.397   4.100 -0.6150  1.1866 -1.0641
  809MOL0     O11535   5.446   8.398   4.158 -0.9313  0.0918 -0.8698
  809MOL0     C11536   5.346   8.324   4.117  0.8592 -0.0195 -0.2870
  809MOL0     C11537   5.303   8.296   3.981  0.5891 -0.7657 -1.0866
  809MOL0     C11538   5.173   8.248   3.965  0.6982 -0.5434  0.1112
  809MOL0     C11539   5.089   8.207   4.071 -0.3231  0.2991 -0.2691
  809MOL0     O11540   4.965   8.152   4.057  0.1415  0.9873 -0.6940
  809MOL0     C11541   4.929   8.097   3.927  0.4250 -0.5099  0.3628
  809MOL0     C11542   4.865   8.207   3.842 -0.4478  0.1845  0.0577
  809MOL0     C11543   4.737   8.261   3.902  0.6651 -0.0805  0.0052
  809MOL0     C11544   4.664   8.373   3.805 -0.2735  1.4041  0.4741
  809MOL0     C11545   4.751   8.500   3.782  0.0266  0.1804  0.6261
  809MOL0     C11546   4.664   8.594   3.697  0.1344 -0.5546 -0.2315
  809MOL0     C11547   4.723   8.734   3.698  0.2897  0.1386 -0.4948
  809MOL0     C11548   4.833   8.740   3.595  0.1922  0.4489 -0.1740
  809MOL0    Cl11549   4.929   8.884   3.602 -0.3520 -0.4088 -0.2155
  809MOL0     C11550   5.145   8.224   4.197 -0.0419  1.0456  0.2807
  809MOL0     C11551   5.268   8.279   4.228 -0.2608 -0.6332  0.6282
  809MOL0     O11552   5.601   8.320   4.011  0.2273 -0.3583 -0.5831
  809MOL0     C11553   5.672   8.522   4.286  0.9254  0.7772 -0.0343
  809MOL0     C11554   5.765   8.610   4.340  0.0343  0.5945 -0.5096
  809MOL0     N11555   6.122   9.360   4.707  0.0493  0.0134 -0.4926
  809MOL0     N11556   6.061   9.428   4.796  0.2834  0.0015 -0.5952
  809MOL0     C11557   6.150  10.019   5.197  0.2090 -0.4302  0.2493
  809MOL0     C11558   6.293  10.029   5.215 -0.1030  0.2909 -0.4814
  809MOL0     C11559   6.704   9.873   5.281 -0.2762 -0.6111 -0.3043
  809MOL0     C11560   6.782   9.970   5.217  0.3856  0.3314  0.0059
  809MOL0     C11561   6.908  10.000   5.260 -0.3207  0.5823 -0.4143
  809MOL0     C11562   6.966   9.933   5.364  0.4330  1.2407  0.0428
  809MOL0     O11563   7.092   9.970   5.388 -0.6775  0.2898 -0.0706
  809MOL0     C11564   7.169   9.908   5.497  0.3097  0.1550  0.4789
  809MOL0     C11565   7.304   9.974   5.526  0.4192  0.0187  0.6710
  809MOL0     C11566   7.398   9.886   5.603 -0.1805  0.0140 -1.2489
  809MOL0     C11567   7.489   9.978   5.678  0.0159 -0.1871 -0.1144
  809MOL0     C11568   7.609   9.904   5.721 -0.0403  0.9960 -0.3768
  809MOL0     C11569   7.708   9.842   5.751  0.0878 -0.2479  0.9991
  809MOL0     C11570   6.892   9.835   5.434 -0.2591 -0.0292  1.0708
  809MOL0     C11571   6.759   9.805   5.405  0.0920 -0.2751 -0.4434
  809MOL0     C11572   6.689   9.717   5.502  0.2548 -0.1935 -1.4217
  809MOL0     H11573   6.397   9.833   4.962 -0.6211 -0.8177  0.2317
  809MOL0     H11574   6.157   9.836   4.910 -0.3461 -0.1652  0.3734
  809MOL0     H11575   5.961  10.159   5.025 -2.8288  2.3259 -0.7051
  809MOL0     H11576   5.876  10.107   5.174  2.8573  2.2654  0.1693
  809MOL0     H11577   5.701  10.171   5.008  0.9066  2.0804 -0.6422
  809MOL0     H11578   5.812  10.105   4.885 -2.1116 -0.3838 -0.3097
  809MOL0     H11579   5.704   9.898   5.076 -1.2091 -0.0036  1.5021
  809MOL0     H11580   5.573   9.979   4.983 -0.3983  0.5261  1.3068
  809MOL0     H11581   5.673   9.944   4.762 -2.4276 -1.4215  0.1357
  809MOL0     H11582   5.814   9.871   4.837  0.5857 -0.1610 -2.7951
  809MOL0     H11583   5.596   9.733   4.739  1.0641 -3.9054  0.2342
  809MOL0     H11584   5.517   9.778   4.886 -1.1569 -0.8845 -0.1058
  809MOL0     H11585   5.712   9.679   5.023  0.1832 -2.2431  0.8099
  809MOL0     H11586   5.598   9.577   4.943  1.2726  0.1156 -0.6335
  809MOL0     H11587   5.872   9.653   4.834 -0.2204 -0.1024 -0.2076
  809MOL0     H11588   5.759   9.553   4.737 -2.6661 -2.8282  1.4741
  809MOL0     H11589   5.873   9.462   5.000  2.4352  1.6998 -0.8415
  809MOL0     H11590   5.745   9.387   4.899 -0.3536  1.5064 -1.0216
  809MOL0     H11591   5.822   9.229   4.719 -1.5428  2.9255  2.4812
  809MOL0     H11592   6.171   9.113   4.620 -0.0081  3.1570  1.8312
  809MOL0     H11593   6.089   9.182   4.484  2.2245 -0.5973 -0.7189
  809MOL0     H11594   5.963   8.987   4.680  1.4192  1.8609  0.2792
  809MOL0     H11595   5.875   9.073   4.555  0.5878  1.2456 -0.4037
  809MOL0     H11596   6.015   8.981   4.367 -1.8102  2.4336  0.3342
  809MOL0     H11597   6.114   8.878   4.487  0.0516  1.1215  1.0565
  809MOL0     H11598   5.919   8.741   4.536 -1.2890 -1.8401 -0.1243
  809MOL0     H11599   5.822   8.861   4.445  1.3016  0.7121 -4.0495
  809MOL0     H11600   5.957   8.656   4.065 -1.9416  0.0489 -0.5595
  809MOL0     H11601   5.830   8.402   3.913  2.8190  0.3184  4.1600
  809MOL0     H11602   5.861   8.574   3.868 -1.0166 -1.1949 -1.1445
  809MOL0     H11603   5.701   8.514   3.860  1.4948  0.4031 -0.8095
  809MOL0     H11604   5.368   8.306   3.895  0.9966 -0.9542 -0.8012
  809MOL0     H11605   5.147   8.239   3.860  1.7496 -2.5040 -0.0295
  809MOL0     H11606   5.012   8.057   3.868  0.4617  0.8255 -0.5278
  809MOL0     H11607   4.861   8.012   3.935 -0.4639  0.1684  0.1085
  809MOL0     H11608   4.938   8.288   3.829  0.4363 -0.5138  0.5601
  809MOL0     H11609   4.839   8.161   3.747 -1.3448 -0.4755  0.6144
  809MOL0     H11610   4.764   8.298   4.002  3.1006 -1.9084  0.1025
  809MOL0     H11611   4.674   8.173   3.915  0.1990  0.4658  1.9037
  809MOL0     H11612   4.566   8.392   3.852  0.4046  0.9510  2.1428
  809MOL0     H11613   4.632   8.325   3.713 -1.1867  1.6428  0.6544
  809MOL0     H11614   4.777   8.544   3.878  1.9668 -0.6263  0.5129
  809MOL0     H11615   4.854   8.485   3.749  0.0630  1.8630 -0.1448
  809MOL0     H11616   4.563   8.592   3.737  0.2491  2.6174  0.4934
  809MOL0     H11617   4.663   8.572   3.590 -1.2379 -2.8765  0.2071
  809MOL0     H11618   4.753   8.763   3.799  1.1240  0.2632 -0.7725
  809MOL0     H11619   4.644   8.801   3.663  0.1520  0.2229 -0.0334
  809MOL0     H11620   4.800   8.730   3.491  2.7787  0.1951 -1.0418
  809MOL0     H11621   4.899   8.654   3.607 -1.2037 -0.6047  0.1614
  809MOL0     H11622   5.085   8.188   4.280  3.1677 -1.2616  1.8244
  809MOL0     H11623   5.310   8.282   4.328 -1.9708 -0.8544  1.3858
  809MOL0     H11624   5.588   8.473   4.333  1.4255 -0.1914 -0.1225
  809MOL0     H11625   5.757   8.641   4.444  0.9614  2.7828 -1.0197
  809MOL0     H11626   6.081  10.072   5.262  2.6111  1.3179  1.5392
  809MOL0     H11627   6.323  10.079   5.307  2.3130 -2.3190  0.2919
  809MOL0     H11628   6.750  10.040   5.140 -2.5318 -0.1304  0.6878
  809MOL0     H11629   6.950  10.085   5.208 -0.5443 -0.9491 -3.3450
  809MOL0     H11630   7.113   9.895   5.589  0.0753 -1.6744  0.1087
  809MOL0     H11631   7.212   9.814   5.460  3.8756  2.2962 -1.4189
  809MOL0     H11632   7.280  10.065   5.582 -0.2503  1.7211 -2.1745
  809MOL0     H11633   7.342  10.010   5.430  1.8305 -0.5263  1.0021
  809MOL0     H11634   7.339   9.827   5.673  0.3096  2.3885  1.3228
  809MOL0     H11635   7.460   9.838   5.526 -0.7347 -0.1483 -1.5977
  809MOL0     H11636   7.443  10.010   5.772  1.8510 -1.4824  1.3078
  809MOL0     H11637   7.509  10.068   5.620 -0.7102  1.1472  1.6338
  809MOL0     H11638   7.796   9.803   5.798  0.7290  2.6896  2.4574
  809MOL0     H11639   6.939   9.777   5.512 -1.9401 -3.1041 -0.0245
  809MOL0     H11640   6.619   9.650   5.453 -2.6490  2.0033 -0.5293
  809MOL0     H11641   6.765   9.666   5.562  0.5891  3.7483  1.9412
  809MOL0     H11642   6.639   9.772   5.582  6.0501 -1.0767  3.5618
  810MOL0     O11643  11.406   6.685   3.135 -1.2858  0.3163  0.0786
  810MOL0     C11644  11.333   6.740   3.210 -0.6825 -0.5163  0.4654
  810MOL0     O11645  11.367   6.858   3.277  0.3168  0.5821 -0.2378
  810MOL0     C11646  11.486   6.923   3.286  0.1227 -0.1567 -0.4200
  810MOL0     C11647  11.536   6.970   3.406  0.7524 -0.1764 -0.5019
  810MOL0     C11648  11.660   7.028   3.418  0.3147 -0.5473  0.3588
  810MOL0     C11649  11.738   7.045   3.302 -1.0102 -0.0118  0.8691
  810MOL0     O11650  11.853   7.108   3.323  0.0752 -0.2487 -0.5322
  810MOL0     C11651  11.906   7.174   3.207  0.0101  0.5765  0.6657
  810MOL0     C11652  11.823   7.298   3.171  0.1185 -0.2172  0.4495
  810MOL0     C11653  11.897   7.399   3.083  0.3825  0.9637  0.1927
  810MOL0     C11654  11.790   7.486   3.032  0.1442  0.5891  0.0153
  810MOL0     C11655  11.832   7.564   2.908  0.2155  0.2438  0.1334
  810MOL0     C11656  11.724   7.652   2.844 -0.2428  0.0618 -0.2155
  810MOL0     C11657  11.797   7.730   2.736 -0.1075  0.6607 -0.2660
  810MOL0     C11658  11.717   7.761   2.610  0.2848  0.2861  0.4411
  810MOL0     N11659  11.694   7.658   2.506  0.5958  0.8086  0.4320
  810MOL0     C11660  11.567   7.613   2.474  0.2560  0.4249 -0.6598
  810MOL0     C11661  11.572   7.554   2.351 -0.1411 -0.3495 -0.2692
  810MOL0     C11662  11.462   7.508   2.269  0.8586  0.6862  0.8898
  810MOL0     C11663  11.361   7.607   2.228 -0.4168 -0.2577  1.2110
  810MOL0     C11664  11.256   7.548   2.140  0.0021 -0.0240 -0.3030
  810MOL0     C11665  11.306   7.478   2.014  0.3630  0.2779  0.1631
  810MOL0     O11666  11.401   7.554   1.936 -0.2629 -0.3661 -0.4427
  810MOL0     C11667  11.364   7.668   1.866  0.8096  1.0024  0.5904
  810MOL0     C11668  11.444   7.778   1.861 -0.1349  0.4041  0.0577
  810MOL0     C11669  11.404   7.895   1.794  0.1600  0.1903 -0.7141
  810MOL0     C11670  11.508   8.010   1.780  0.9852 -0.0775  0.2805
  810MOL0     C11671  11.285   7.893   1.719  0.0435 -0.4933  0.3245
  810MOL0     C11672  11.238   8.013   1.639 -0.9740  0.5223  0.0521
  810MOL0     O11673  11.302   8.133   1.643  0.5027 -0.0857  0.5395
  810MOL0     C11674  11.279   8.232   1.551 -0.3214 -0.3501  0.5351
  810MOL0     C11675  11.349   8.352   1.575  0.3632  0.7104 -0.1015
  810MOL0     C11676  11.329   8.470   1.505  0.2899  0.2911 -0.8674
  810MOL0     C11677  11.224   8.471   1.415 -0.7236  0.6797  1.0066
  810MOL0     O11678  11.185   8.600   1.373  0.1734 -0.1641  0.1105
  810MOL0     C11679  11.055   8.617   1.315  0.3065  0.5677 -0.0859
  810MOL0     C11680  11.027   8.760   1.280 -0.0830 -0.6022  0.4641
  810MOL0     C11681  11.131   8.817   1.181 -0.0006 -0.1975  0.3227
  810MOL0     C11682  11.107   8.967   1.152 -0.5069 -0.5132 -1.2084
  810MOL0     C11683  11.176   9.025   1.024 -0.5723  0.1187  0.3554
  810MOL0     C11684  11.329   8.995   1.013  0.1793  0.6945  0.1037
  810MOL0     C11685  11.393   9.068   0.902  0.1097  0.2095 -1.0234
  810MOL0     C11686  11.545   9.077   0.939  0.2264 -0.1608  0.2742
  810MOL0    Cl11687  11.620   8.905   0.952 -0.2065 -0.4329 -0.1136
  810MOL0     C11688  11.164   8.349   1.371  1.0134 -0.7572  0.2856
  810MOL0     C11689  11.201   8.229   1.427  0.0662 -0.8166 -0.6319
  810MOL0     O11690  11.133   7.990   1.587 -0.2865  0.0353 -0.0486
  810MOL0     C11691  11.198   7.783   1.740  0.0473  0.3528  0.9225
  810MOL0     C11692  11.237   7.676   1.812  0.1906 -0.7615 -0.0119
  810MOL0     N11693  11.708   7.561   2.314  0.5200  0.8131  0.1280
  810MOL0     N11694  11.776   7.625   2.402 -0.2366 -0.6791  0.0627
  810MOL0     C11695  11.686   7.007   3.179  0.0683  0.0044  1.0316
  810MOL0     C11696  11.568   6.941   3.171  0.6023 -0.3807 -0.2534
  810MOL0     C11697  11.204   6.672   3.221 -0.5294  0.2263 -0.6543
  810MOL0     C11698  11.123   6.638   3.112  1.3041  0.1733  0.3477
  810MOL0     C11699  10.996   6.581   3.114  0.1852  0.4901  0.5672
  810MOL0     C11700  10.947   6.542   3.244 -0.3086  1.0429  0.0930
  810MOL0     O11701  10.815   6.489   3.253  0.3207  0.4443 -0.1900
  810MOL0     C11702  10.811   6.368   3.324  0.0989  0.3378 -0.4085
  810MOL0     C11703  10.673   6.341   3.378  0.6209 -0.1930  0.5246
  810MOL0     C11704  10.659   6.204   3.423 -0.6557 -0.4706 -0.0690
  810MOL0     C11705  10.522   6.151   3.460  0.9046  0.7756 -0.1510
  810MOL0     C11706  10.459   6.221   3.574 -1.4114 -0.2645 -0.6648
  810MOL0     C11707  10.414   6.282   3.666 -0.6166 -0.2005  0.0435
  810MOL0     C11708  11.029   6.581   3.359  0.2977 -0.6638  0.3398
  810MOL0     C11709  11.153   6.644   3.353  0.5693  0.5342 -0.6610
  810MOL0     C11710  11.223   6.695   3.476 -0.4052  0.2976  0.4459
  810MOL0     H11711  11.482   6.954   3.499  2.1200 -2.7121 -0.0407
  810MOL0     H11712  11.693   7.066   3.514 -0.8790  0.7573  0.2935
  810MOL0     H11713  11.929   7.103   3.127 -0.0214 -0.1036  1.2499
  810MOL0     H11714  12.006   7.204   3.239  0.1879 -0.4094  1.0848
  810MOL0     H11715  11.732   7.252   3.132 -0.7097 -1.7413  3.9082
  810MOL0     H11716  11.787   7.348   3.261 -1.8645  2.0092 -1.4090
  810MOL0     H11717  11.965   7.461   3.143  0.7927 -0.5010  1.2846
  810MOL0     H11718  11.955   7.351   3.003 -1.4681 -1.1640  0.0492
  810MOL0     H11719  11.692   7.442   3.011 -0.6051  1.0672  2.2258
  810MOL0     H11720  11.771   7.558   3.112 -0.0141  0.3374  0.2048
  810MOL0     H11721  11.867   7.497   2.828  1.5997  0.6649  0.3643
  810MOL0     H11722  11.912   7.632   2.938  0.5862  0.3554 -1.0692
  810MOL0     H11723  11.635   7.598   2.810  1.7728 -2.4388 -1.8834
  810MOL0     H11724  11.691   7.713   2.929  2.4499 -0.6409  1.4720
  810MOL0     H11725  11.882   7.665   2.711  0.5444  1.0108  0.9527
  810MOL0     H11726  11.842   7.820   2.779  1.2455  0.8509 -1.9646
  810MOL0     H11727  11.627   7.818   2.633 -0.1544  0.5354 -1.6780
  810MOL0     H11728  11.788   7.830   2.561  0.5129  1.3259  2.1704
  810MOL0     H11729  11.480   7.626   2.538 -0.8804  0.5454 -2.1560
  810MOL0     H11730  11.422   7.424   2.326 -0.0081 -0.2273 -0.9494
  810MOL0     H11731  11.503   7.456   2.182  0.5142  3.1199 -0.8476
  810MOL0     H11732  11.312   7.651   2.316 -0.0874  2.3346  0.1710
  810MOL0     H11733  11.408   7.692   2.179  2.1388 -1.4788  1.3512
  810MOL0     H11734  11.201   7.482   2.208  2.8846 -0.5019  1.7047
  810MOL0     H11735  11.195   7.633   2.107  1.9878  1.2017 -0.9374
  810MOL0     H11736  11.351   7.381   2.038 -1.3014 -1.0152 -1.5945
  810MOL0     H11737  11.224   7.437   1.954  1.4019 -0.1862 -0.9935
  810MOL0     H11738  11.550   7.764   1.882  0.2972 -1.4108 -2.7984
  810MOL0     H11739  11.534   8.032   1.676  4.7954  0.1336  1.1350
  810MOL0     H11740  11.605   7.981   1.822  2.3049  1.0975 -1.7676
  810MOL0     H11741  11.477   8.102   1.831  0.6163 -1.8600  3.6057
  810MOL0     H11742  11.425   8.337   1.651 -0.4134 -1.0317  0.3814
  810MOL0     H11743  11.397   8.550   1.533  1.2844 -1.4857  2.4098
  810MOL0     H11744  11.040   8.559   1.223  2.4649  0.5924 -0.4982
  810MOL0     H11745  10.987   8.585   1.394  0.0840  1.0520 -0.0810
  810MOL0     H11746  10.923   8.763   1.248  0.5767 -1.7403 -2.0130
  810MOL0     H11747  11.043   8.809   1.377  1.5923  0.4282 -0.2837
  810MOL0     H11748  11.118   8.758   1.089 -2.3446  0.1452  0.3778
  810MOL0     H11749  11.230   8.802   1.227 -0.7303 -0.4042  1.8700
  810MOL0     H11750  11.133   9.021   1.244 -2.4150 -2.2386  0.4423
  810MOL0     H11751  10.999   8.982   1.145 -0.8006 -1.7026  0.2915
  810MOL0     H11752  11.128   8.987   0.932  0.5951  1.2697 -0.7731
  810MOL0     H11753  11.155   9.131   1.033  0.3070  0.2323  1.2632
  810MOL0     H11754  11.343   8.889   0.993 -0.6452  0.4417  0.8210
  810MOL0     H11755  11.383   9.022   1.105  1.8484 -1.5802 -0.1194
  810MOL0     H11756  11.357   9.168   0.876  2.1808  0.8299 -1.6672
  810MOL0     H11757  11.389   9.012   0.808 -2.7056 -0.2601 -0.7054
  810MOL0     H11758  11.553   9.123   1.038  0.4719  0.5182 -0.0494
  810MOL0     H11759  11.594   9.147   0.870 -0.7140 -0.3252 -0.5919
  810MOL0     H11760  11.090   8.351   1.291  3.7303  1.0329 -2.4129
  810MOL0     H11761  11.154   8.137   1.396  1.0166 -0.8912 -1.9507
  810MOL0     H11762  11.096   7.788   1.703  1.5327  1.8075 -3.5297
  810MOL0     H11763  11.167   7.594   1.820 -1.0196  0.1708 -0.7446
  810MOL0     H11764  11.742   7.015   3.086  1.2885 -0.3649  1.7156
  810MOL0     H11765  11.524   6.925   3.073  0.6943  2.6060 -0.8804
  810MOL0     H11766  11.144   6.666   3.010 -1.3450  1.9009  0.1672
  810MOL0     H11767  10.956   6.556   3.016  1.2723 -0.6282  0.3748
  810MOL0     H11768  10.831   6.282   3.260  1.0029 -0.1198  0.4587
  810MOL0     H11769  10.869   6.376   3.416  0.3122 -0.0156 -0.5106
  810MOL0     H11770  10.601   6.361   3.298  0.2261 -4.7092 -0.5046
  810MOL0     H11771  10.667   6.411   3.461 -1.6223  0.9292 -0.4920
  810MOL0     H11772  10.697   6.136   3.347  2.4218  0.2506  0.6935
  810MOL0     H11773  10.720   6.184   3.511 -1.9120 -1.3557  0.6313
  810MOL0     H11774  10.517   6.042   3.468 -0.9683  0.9689  3.3047
  810MOL0     H11775  10.460   6.181   3.375 -1.2043 -2.6474 -0.0428
  810MOL0     H11776  10.369   6.343   3.741  0.0387 -0.0429  0.3125
  810MOL0     H11777  10.994   6.552   3.457  0.5038 -0.6542  0.4156
  810MOL0     H11778  11.218   6.803   3.495  0.5814  0.2444  1.0210
  810MOL0     H11779  11.179   6.662   3.570  3.6843 -2.5897  1.6067
  810MOL0     H11780  11.326   6.659   3.469  0.3877  2.5145 -0.3493
  811MOL0     O11781   1.982  10.590   5.535 -0.2676  0.5232  0.3937
  811MOL0     C11782   2.107  10.599   5.547  0.7758 -0.6543 -0.6021
  811MOL0     O11783   2.172  10.718   5.551  0.1958  0.4455 -0.6173
  811MOL0     C11784   2.102  10.824   5.511  0.0123 -0.4613 -0.2870
  811MOL0     C11785   2.050  10.914   5.599 -0.6685  0.1991  0.1068
  811MOL0     C11786   1.982  11.023   5.553 -0.7667 -0.7297  1.2177
  811MOL0     C11787   1.970  11.056   5.413  0.2075  0.1223  0.2291
  811MOL0     O11788   1.903  11.179   5.385 -0.0267  0.1872  0.7644
  811MOL0     C11789   1.805  11.158   5.281  0.5451 -0.0803 -0.0886
  811MOL0     C11790   1.725  11.286   5.270  0.3459  0.2069 -0.5850
  811MOL0     C11791   1.698  11.339   5.131 -0.0983 -0.2610  0.3390
  811MOL0     C11792   1.595  11.254   5.052  0.0654  0.6282 -0.3870
  811MOL0     C11793   1.605  11.265   4.897  0.6233 -0.2966 -0.2915
  811MOL0     C11794   1.568  11.402   4.835  0.3661 -0.6204  0.3036
  811MOL0     C11795   1.546  11.391   4.679 -0.0536  0.4427 -0.4104
  811MOL0     C11796   1.680  11.342   4.614  0.3068  0.4828  0.2349
  811MOL0     N11797   1.781  11.433   4.639 -0.4065 -0.7604 -0.3296
  811MOL0     C11798   1.790  11.563   4.578 -0.0207  0.2931  0.3590
  811MOL0     C11799   1.919  11.597   4.593 -1.4922  0.7985 -0.9546
  811MOL0     C11800   1.967  11.734   4.553 -0.3809 -0.4413 -0.5158
  811MOL0     C11801   2.040  11.732   4.417  0.3083 -0.3788 -0.0649
  811MOL0     C11802   1.943  11.729   4.299 -0.2873  0.6902  0.3197
  811MOL0     C11803   2.021  11.750   4.163  0.9068 -0.7309  0.3039
  811MOL0     O11804   1.943  11.717   4.052 -0.0715  0.0956  0.0609
  811MOL0     C11805   1.973  11.748   3.924 -0.9276 -0.1615  0.8637
  811MOL0     C11806   1.868  11.735   3.829 -0.9685 -0.1667  0.0323
  811MOL0     C11807   1.886  11.758   3.690  0.1146  0.0681  0.4444
  811MOL0     C11808   1.764  11.749   3.598  0.5068  0.8486 -0.6150
  811MOL0     C11809   2.015  11.792   3.640 -0.0477  0.2660  0.6337
  811MOL0     C11810   2.043  11.823   3.495  1.1159  0.1140 -0.3966
  811MOL0     O11811   1.979  11.758   3.387 -0.5892  0.3069  0.1028
  811MOL0     C11812   2.011  11.789   3.261  0.4350  0.2773  0.1605
  811MOL0     C11813   2.141  11.768   3.212  0.7404  0.2101 -0.1797
  811MOL0     C11814   2.175  11.796   3.079  0.0035  0.9807  0.1152
  811MOL0     C11815   2.080  11.853   2.989  0.7556 -0.1678 -0.7311
  811MOL0     O11816   2.134  11.894   2.868 -0.0749  0.2925 -0.0931
  811MOL0     C11817   2.056  11.870   2.752 -0.3053  0.2913 -0.0417
  811MOL0     C11818   2.127  11.915   2.622 -0.6527  0.0396 -0.6895
  811MOL0     C11819   2.267  11.850   2.618  0.3402  0.0413  0.3537
  811MOL0     C11820   2.331  11.878   2.482 -0.0669  0.2488 -1.1108
  811MOL0     C11821   2.480  11.832   2.472 -0.3379 -0.0151  0.6924
  811MOL0     C11822   2.557  11.902   2.363  0.8633  0.2485  0.0688
  811MOL0     C11823   2.706  11.880   2.370  0.5156  0.3681 -0.1410
  811MOL0     C11824   2.739  11.733   2.349 -0.4340  0.8176 -0.4153
  811MOL0    Cl11825   2.669  11.699   2.185 -0.0991  0.6513 -0.5066
  811MOL0     C11826   1.950  11.867   3.036  0.2532 -0.0031  0.2216
  811MOL0     C11827   1.913  11.828   3.169 -0.3267 -0.4203 -0.2297
  811MOL0     O11828   2.123  11.911   3.486 -0.4075  0.9107  0.2267
  811MOL0     C11829   2.115  11.820   3.736 -0.3276  0.3525 -0.3257
  811MOL0     C11830   2.097  11.793   3.876  0.5153 -0.3349 -0.1933
  811MOL0     N11831   1.983  11.495   4.658  0.0675 -0.3616  0.8427
  811MOL0     N11832   1.911  11.392   4.677  0.4720 -0.2894 -0.2187
  811MOL0     C11833   2.025  10.960   5.319 -0.7871 -0.6476  0.3142
  811MOL0     C11834   2.101  10.851   5.369  0.1713 -0.1354  0.5338
  811MOL0     C11835   2.177  10.483   5.597  1.3033  0.7212 -0.1791
  811MOL0     C11836   2.303  10.508   5.645  0.0802 -0.4034  0.5020
  811MOL0     C11837   2.377  10.410   5.688  0.1899  0.2002 -0.0497
  811MOL0     C11838   2.347  10.276   5.689 -0.0942  0.5336  0.3059
  811MOL0     O11839   2.449  10.195   5.732  0.3368  0.4055  0.0054
  811MOL0     C11840   2.428  10.050   5.714 -0.0788  0.2644  0.0664
  811MOL0     C11841   2.558   9.963   5.707  0.2939 -0.0949  0.0270
  811MOL0     C11842   2.649   9.990   5.824 -0.4387 -0.2896 -0.0695
  811MOL0     C11843   2.611   9.903   5.951  0.1934 -0.1925  0.0574
  811MOL0     C11844   2.652   9.949   6.081 -1.0277  0.1875  0.1560
  811MOL0     C11845   2.671   9.999   6.186 -0.3704 -0.8465 -0.5180
  811MOL0     C11846   2.216  10.248   5.642 -0.0781  0.5628  0.3992
  811MOL0     C11847   2.130  10.350   5.593 -0.6143  0.8529  0.7268
  811MOL0     C11848   1.991  10.304   5.560 -0.2199  0.0350  0.4194
  811MOL0     H11849   2.051  10.894   5.706 -0.0569 -0.5116 -0.0263
  811MOL0     H11850   1.946  11.104   5.617  1.5723  0.3524  1.2778
  811MOL0     H11851   1.734  11.080   5.307 -0.9679  0.5912 -1.9802
  811MOL0     H11852   1.844  11.129   5.183 -0.5610  0.8590 -0.8302
  811MOL0     H11853   1.631  11.282   5.326  2.2794  2.5530  3.2619
  811MOL0     H11854   1.776  11.367   5.324  1.6427 -0.1394 -1.2489
  811MOL0     H11855   1.656  11.439   5.131 -0.3114 -0.3331 -1.1619
  811MOL0     H11856   1.794  11.353   5.082 -1.0611 -1.8884 -2.2408
  811MOL0     H11857   1.592  11.148   5.079  0.5826  0.5541 -0.6243
  811MOL0     H11858   1.498  11.294   5.084  0.5479 -0.2258  2.4584
  811MOL0     H11859   1.535  11.185   4.869 -1.0122  0.9437  0.0953
  811MOL0     H11860   1.705  11.232   4.870  0.4915 -0.5914 -0.4273
  811MOL0     H11861   1.480  11.456   4.872 -0.1924 -1.6929  0.5879
  811MOL0     H11862   1.649  11.465   4.872  0.0705 -1.4017  2.4310
  811MOL0     H11863   1.516  11.486   4.633  0.0005  0.3775 -0.5839
  811MOL0     H11864   1.467  11.319   4.657  2.7437 -3.7062  1.7952
  811MOL0     H11865   1.725  11.250   4.653 -0.2601  0.0796 -0.0444
  811MOL0     H11866   1.662  11.329   4.507  1.2921  0.6833  0.0357
  811MOL0     H11867   1.705  11.626   4.553 -0.6934 -0.8962 -0.4575
  811MOL0     H11868   2.037  11.770   4.629  2.6246 -0.7231 -2.9479
  811MOL0     H11869   1.878  11.796   4.540  0.0237  0.1198 -0.6538
  811MOL0     H11870   2.105  11.820   4.406 -0.2800 -0.0968 -1.5343
  811MOL0     H11871   2.107  11.645   4.406 -0.5906 -1.2253  0.9670
  811MOL0     H11872   1.896  11.631   4.296  2.6273 -0.7812 -0.5651
  811MOL0     H11873   1.863  11.804   4.301 -2.9137 -1.9598  0.0763
  811MOL0     H11874   2.057  11.853   4.172  0.3050 -0.4793 -0.0948
  811MOL0     H11875   2.102  11.676   4.161 -0.0270 -1.7817  0.5490
  811MOL0     H11876   1.776  11.701   3.875 -0.9395  1.8810  1.7565
  811MOL0     H11877   1.681  11.784   3.660  2.1917  2.6912  0.7074
  811MOL0     H11878   1.739  11.646   3.572  2.3586 -0.3994  2.0704
  811MOL0     H11879   1.784  11.807   3.507  1.1838 -0.6657 -1.4661
  811MOL0     H11880   2.209  11.709   3.274 -0.6782 -1.3578 -0.0385
  811MOL0     H11881   2.275  11.779   3.041 -0.7572 -0.4208 -1.3671
  811MOL0     H11882   2.033  11.763   2.749  1.4450 -0.0963 -0.1315
  811MOL0     H11883   1.963  11.929   2.756 -2.1699 -2.2448 -2.2854
  811MOL0     H11884   2.062  11.893   2.536 -1.7873 -3.5975  0.8997
  811MOL0     H11885   2.138  12.023   2.626  0.5010  0.1153 -3.4574
  811MOL0     H11886   2.251  11.742   2.619  1.6495 -0.2008 -1.0530
  811MOL0     H11887   2.327  11.875   2.706  3.1133 -1.0646 -1.0857
  811MOL0     H11888   2.328  11.985   2.460 -3.8205 -0.0220 -2.7910
  811MOL0     H11889   2.273  11.825   2.405  0.0754 -0.4728 -0.7321
  811MOL0     H11890   2.532  11.845   2.567  0.8828  0.6850 -0.0529
  811MOL0     H11891   2.486  11.725   2.452 -0.4506  0.4620 -2.4304
  811MOL0     H11892   2.543  12.011   2.365  0.5482  0.2150 -0.3813
  811MOL0     H11893   2.514  11.867   2.269  0.6731 -0.1118  0.2912
  811MOL0     H11894   2.750  11.922   2.460  0.6277  1.4251 -0.6728
  811MOL0     H11895   2.754  11.935   2.288  0.0245 -0.2312 -0.8538
  811MOL0     H11896   2.703  11.668   2.429  2.1730 -1.4988 -0.9619
  811MOL0     H11897   2.847  11.715   2.352 -0.7838 -1.5423  2.7011
  811MOL0     H11898   1.879  11.929   2.981 -0.5813  0.6568  1.9817
  811MOL0     H11899   1.810  11.842   3.200  0.4204  2.5989  1.2403
  811MOL0     H11900   2.218  11.847   3.711 -0.9856  1.3440 -2.1495
  811MOL0     H11901   2.181  11.801   3.945  1.3274  1.3776 -1.3144
  811MOL0     H11902   2.020  10.983   5.213 -0.9177  0.2805  0.5133
  811MOL0     H11903   2.142  10.777   5.301  1.3328  2.0620 -1.3129
  811MOL0     H11904   2.336  10.612   5.651 -0.7207 -0.0859 -0.3439
  811MOL0     H11905   2.474  10.431   5.730 -0.4091 -0.4365  1.7653
  811MOL0     H11906   2.371  10.019   5.802 -0.1300  0.8536  0.2457
  811MOL0     H11907   2.362  10.039   5.628 -0.7868 -0.1798  0.6549
  811MOL0     H11908   2.613   9.976   5.614 -2.2919 -2.7625 -2.0874
  811MOL0     H11909   2.528   9.858   5.711  1.2125 -0.3174  2.4896
  811MOL0     H11910   2.755   9.993   5.796 -0.5640  1.7262 -0.5017
  811MOL0     H11911   2.635  10.096   5.844  2.4572  0.6890 -2.4246
  811MOL0     H11912   2.662   9.808   5.936  4.5610  1.9754 -0.2870
  811MOL0     H11913   2.502   9.891   5.952  0.0632  0.8321 -0.2053
  811MOL0     H11914   2.710  10.043   6.276  0.1020  3.2488 -2.4521
  811MOL0     H11915   2.181  10.145   5.636 -0.2169  0.5866  0.7756
  811MOL0     H11916   1.946  10.352   5.472 -0.4256  1.3820  1.2384
  811MOL0     H11917   1.990  10.201   5.523  1.7808  0.7178 -1.8287
  811MOL0     H11918   1.936  10.330   5.651 -1.5261  0.4686 -0.4592
  812MOL0     O11919   3.730   1.158   0.318  0.6977  0.2090 -0.2150
  812MOL0     C11920   3.720   1.280   0.332 -0.2505 -0.5671  0.0338
  812MOL0     O11921   3.830   1.363   0.361  1.1633 -0.2896  0.0677
  812MOL0     C11922   3.942   1.296   0.389 -0.3589  1.3376 -0.4513
  812MOL0     C11923   4.040   1.259   0.288 -0.0641 -0.5245 -0.2405
  812MOL0     C11924   4.159   1.201   0.333  0.3785 -0.3372 -0.5535
  812MOL0     C11925   4.186   1.172   0.466 -0.2244 -0.1933 -0.2282
  812MOL0     O11926   4.314   1.147   0.499  0.6600 -0.1336  0.0130
  812MOL0     C11927   4.330   1.058   0.606 -0.1114 -0.0547 -0.1105
  812MOL0     C11928   4.388   1.145   0.715 -0.4312 -0.1492  0.2924
  812MOL0     C11929   4.479   1.071   0.805 -0.2516 -0.4834  0.3443
  812MOL0     C11930   4.574   1.168   0.885 -0.1659 -0.2058 -0.1758
  812MOL0     C11931   4.623   1.108   1.012 -0.6265  0.0462  0.2922
  812MOL0     C11932   4.756   1.175   1.069 -0.2905  0.5518  0.0493
  812MOL0     C11933   4.770   1.154   1.220 -0.6680 -0.3315  0.5404
  812MOL0     C11934   4.844   1.288   1.270  0.2264  0.0191 -0.3293
  812MOL0     N11935   4.987   1.305   1.243  0.2973  0.3061  0.2326
  812MOL0     C11936   5.052   1.409   1.179 -0.4896 -0.5306  1.2510
  812MOL0     C11937   5.185   1.380   1.173  0.1605  0.7969 -0.0957
  812MOL0     C11938   5.299   1.468   1.134  0.1604  0.4853 -0.0920
  812MOL0     C11939   5.407   1.407   1.048  0.4654 -0.5961 -0.8382
  812MOL0     C11940   5.351   1.355   0.916 -0.2053  0.2067  0.5743
  812MOL0     C11941   5.466   1.319   0.812  0.5391 -0.1059 -0.0429
  812MOL0     O11942   5.425   1.364   0.681 -0.7085 -0.1655 -0.2289
  812MOL0     C11943   5.523   1.426   0.610 -0.4474  0.1491 -0.6112
  812MOL0     C11944   5.507   1.569   0.577 -0.1784 -0.0250  0.4468
  812MOL0     C11945   5.590   1.624   0.481  0.3522 -0.7876  0.0238
  812MOL0     C11946   5.556   1.768   0.456  0.3844  0.4868 -0.2486
  812MOL0     C11947   5.694   1.553   0.433 -0.2538 -0.6916  1.5151
  812MOL0     C11948   5.776   1.597   0.322  0.8382 -0.9965  0.1982
  812MOL0     O11949   5.904   1.583   0.333 -0.3391  0.4473 -1.4557
  812MOL0     C11950   5.996   1.633   0.251 -1.1356 -1.1255 -0.5737
  812MOL0     C11951   5.989   1.740   0.158 -0.6475  0.4889  0.1668
  812MOL0     C11952   6.098   1.802   0.100  0.0518  0.0759 -0.0679
  812MOL0     C11953   6.227   1.754   0.132  0.8729 -0.2019  0.8011
  812MOL0     O11954   6.343   1.804   0.089  0.0766  0.0778  0.0762
  812MOL0     C11955   6.339   1.916  -0.001 -0.6637  0.0307  0.0112
  812MOL0     C11956   6.487   1.974  -0.021 -0.4087  0.0756  0.1071
  812MOL0     C11957   6.499   2.050  -0.157  0.2723  1.1093  0.2289
  812MOL0     C11958   6.635   2.111  -0.185 -0.2597 -0.0205 -0.3792
  812MOL0     C11959   6.639   2.205  -0.310  0.0579  0.4941 -0.0125
  812MOL0     C11960   6.615   2.138  -0.455 -0.6921  0.6400  0.2800
  812MOL0     C11961   6.693   2.011  -0.485  0.3240  0.3581 -0.1383
  812MOL0     C11962   6.830   2.028  -0.549  0.0931  0.2287 -0.4770
  812MOL0    Cl11963   6.892   1.863  -0.595  0.0225 -0.2356 -0.2650
  812MOL0     C11964   6.232   1.643   0.213 -0.2488  0.0325  0.7112
  812MOL0     C11965   6.125   1.582   0.277  0.0829  0.7064  0.5140
  812MOL0     O11966   5.721   1.654   0.224 -0.0224 -0.3930 -0.0043
  812MOL0     C11967   5.721   1.424   0.482 -0.0727  0.0785  0.4886
  812MOL0     C11968   5.636   1.361   0.572  0.0159 -0.3209 -0.1198
  812MOL0     N11969   5.198   1.249   1.225 -0.4929 -0.6825  0.2480
  812MOL0     N11970   5.083   1.208   1.253 -0.0459  0.1129  1.0016
  812MOL0     C11971   4.081   1.195   0.562  0.3853  0.5971  0.4845
  812MOL0     C11972   3.963   1.260   0.519  0.1664 -0.0734  0.0916
  812MOL0     C11973   3.582   1.335   0.316 -0.3124  0.0513  0.1007
  812MOL0     C11974   3.586   1.472   0.281  1.0171  0.8315 -0.5796
  812MOL0     C11975   3.471   1.544   0.278 -0.0664  0.3972 -0.1451
  812MOL0     C11976   3.347   1.488   0.314 -0.1105  1.4356  0.6517
  812MOL0     O11977   3.227   1.561   0.322 -0.2669  0.2378  1.3127
  812MOL0     C11978   3.237   1.705   0.326  0.1180 -0.4645 -0.9168
  812MOL0     C11979   3.097   1.766   0.310  0.1893  0.8259 -1.0318
  812MOL0     C11980   3.016   1.714   0.189 -0.2284  0.3473 -0.6987
  812MOL0     C11981   2.892   1.797   0.151  0.3672 -0.2587  0.5078
  812MOL0     C11982   2.938   1.923   0.094 -0.0348 -0.0249  0.4240
  812MOL0     C11983   2.980   2.027   0.051 -1.0404 -0.3240 -0.4306
  812MOL0     C11984   3.346   1.351   0.346  0.3962 -0.5205  0.7844
  812MOL0     C11985   3.459   1.272   0.339  0.1196  0.0000 -0.9574
  812MOL0     C11986   3.450   1.126   0.379 -0.1828 -0.5902  1.1103
  812MOL0     H11987   4.018   1.290   0.186 -2.1699 -0.0819  0.3086
  812MOL0     H11988   4.238   1.198   0.259  3.5281  0.6751  2.5106
  812MOL0     H11989   4.407   0.988   0.575 -2.0945 -0.9844 -3.4098
  812MOL0     H11990   4.237   1.003   0.623 -1.2941  1.3964 -1.4994
  812MOL0     H11991   4.437   1.232   0.670 -0.2645 -0.3282  0.1212
  812MOL0     H11992   4.310   1.200   0.767 -1.8190 -0.6958 -1.1224
  812MOL0     H11993   4.416   1.021   0.879 -0.4006 -0.6960  0.0763
  812MOL0     H11994   4.531   0.994   0.747 -1.2803 -0.2861 -0.8949
  812MOL0     H11995   4.658   1.196   0.821  0.0649  3.0776  1.3122
  812MOL0     H11996   4.528   1.265   0.908  2.1126  0.4626  2.1858
  812MOL0     H11997   4.639   1.001   0.997 -0.1998 -0.0954  1.6046
  812MOL0     H11998   4.550   1.127   1.091  0.6100 -1.0579  1.7907
  812MOL0     H11999   4.840   1.133   1.013  0.2303  2.3079 -0.5322
  812MOL0     H12000   4.750   1.282   1.051  0.2050  0.7678  1.1282
  812MOL0     H12001   4.829   1.065   1.246  2.9017  1.4922 -0.6238
  812MOL0     H12002   4.673   1.149   1.269 -0.9102 -1.0942  0.0097
  812MOL0     H12003   4.792   1.381   1.244 -0.6023 -1.1508 -3.1669
  812MOL0     H12004   4.847   1.288   1.380  3.6135  3.9387 -0.1861
  812MOL0     H12005   5.014   1.501   1.135  1.0762 -0.8072 -0.8155
  812MOL0     H12006   5.342   1.503   1.229 -2.2741 -1.2507  1.8031
  812MOL0     H12007   5.272   1.562   1.085  1.8917  0.7597 -0.5832
  812MOL0     H12008   5.491   1.476   1.034  2.1035 -2.2186  0.5124
  812MOL0     H12009   5.458   1.329   1.106  4.1360  2.4531  0.4060
  812MOL0     H12010   5.282   1.275   0.941 -1.4162  0.9092 -0.3969
  812MOL0     H12011   5.298   1.436   0.865  0.7766  0.1026 -0.6591
  812MOL0     H12012   5.554   1.369   0.852 -1.3023  1.3651  2.4930
  812MOL0     H12013   5.484   1.211   0.813 -1.8143 -0.5553  1.1298
  812MOL0     H12014   5.421   1.621   0.620  0.8666 -0.4899  3.3795
  812MOL0     H12015   5.614   1.803   0.370  1.3692 -1.3418 -0.3751
  812MOL0     H12016   5.586   1.821   0.547  2.6118 -2.5667  0.9956
  812MOL0     H12017   5.449   1.769   0.433  0.5670 -1.1584 -1.3619
  812MOL0     H12018   5.892   1.776   0.126 -0.6296 -1.9436 -3.1404
  812MOL0     H12019   6.086   1.898   0.051 -0.0694 -0.5305 -1.2603
  812MOL0     H12020   6.301   1.876  -0.095 -0.9331  0.9911 -0.3068
  812MOL0     H12021   6.264   1.982   0.044 -3.7134 -2.5450 -0.9455
  812MOL0     H12022   6.492   2.052   0.056 -0.0380 -0.5260  0.7041
  812MOL0     H12023   6.566   1.900  -0.006  0.1455  0.5663 -0.3572
  812MOL0     H12024   6.424   2.124  -0.184  1.3789  2.1996  0.0629
  812MOL0     H12025   6.474   1.978  -0.236  2.9530  0.0578  0.2051
  812MOL0     H12026   6.705   2.027  -0.187 -1.3942 -1.0758  1.2543
  812MOL0     H12027   6.657   2.172  -0.097 -0.9414  0.4485 -0.5274
  812MOL0     H12028   6.561   2.281  -0.300  1.7766  2.1466  1.6640
  812MOL0     H12029   6.736   2.252  -0.327  0.7768  0.6176  3.5056
  812MOL0     H12030   6.619   2.205  -0.541  0.9993 -0.4970 -0.5992
  812MOL0     H12031   6.513   2.101  -0.443 -0.2838 -0.2472  1.1893
  812MOL0     H12032   6.622   1.967  -0.555  0.2650 -2.8495  1.7140
  812MOL0     H12033   6.690   1.932  -0.409 -1.2104 -1.3962 -1.9179
  812MOL0     H12034   6.906   2.061  -0.478  0.8002 -0.6778 -0.7910
  812MOL0     H12035   6.833   2.097  -0.633  3.0031 -0.9592 -1.4701
  812MOL0     H12036   6.329   1.605   0.243 -0.3658 -0.0270  1.0163
  812MOL0     H12037   6.137   1.500   0.348  1.0153 -0.3120 -0.7614
  812MOL0     H12038   5.811   1.371   0.455 -0.5361  0.0153 -1.0567
  812MOL0     H12039   5.660   1.256   0.589 -1.1100 -0.1782  2.8857
  812MOL0     H12040   4.095   1.177   0.669  1.5507  1.0303  0.4218
  812MOL0     H12041   3.890   1.294   0.593  0.5607 -1.3311  1.0859
  812MOL0     H12042   3.681   1.519   0.259  0.6108  1.0827 -1.8785
  812MOL0     H12043   3.475   1.652   0.262  1.5233  0.0931 -2.3785
  812MOL0     H12044   3.280   1.738   0.420  2.0355 -4.0554 -0.3305
  812MOL0     H12045   3.300   1.749   0.249  3.9417  1.4051  2.8719
  812MOL0     H12046   3.108   1.874   0.312  1.2010  0.7285 -0.9863
  812MOL0     H12047   3.052   1.740   0.406  2.0721  1.0674 -0.0350
  812MOL0     H12048   3.083   1.694   0.104  0.4546 -0.7273  0.0664
  812MOL0     H12049   2.971   1.621   0.223  0.7408 -0.8154 -2.4348
  812MOL0     H12050   2.821   1.810   0.234 -0.7007 -1.2130 -0.2165
  812MOL0     H12051   2.835   1.743   0.075 -0.8163  1.1985  0.3091
  812MOL0     H12052   3.039   2.115   0.032  0.0236 -0.8444  0.3195
  812MOL0     H12053   3.249   1.305   0.363 -0.3323 -0.2951 -2.1639
  812MOL0     H12054   3.531   1.093   0.446 -1.9858  1.8181  4.8341
  812MOL0     H12055   3.362   1.115   0.443 -0.8692  0.7691  0.4287
  812MOL0     H12056   3.442   1.061   0.292 -1.0693  0.9224  0.0132
  813MOL0     O12057   9.345  10.727   2.028 -0.1551 -0.5756  0.0386
  813MOL0     C12058   9.331  10.781   1.915 -0.2376  1.1177  0.7896
  813MOL0     O12059   9.359  10.723   1.797  0.4395 -0.5129 -0.0431
  813MOL0     C12060   9.408  10.601   1.802  0.3859 -0.4920 -0.3052
  813MOL0     C12061   9.327  10.490   1.836 -0.5236 -0.8563 -0.5938
  813MOL0     C12062   9.381  10.365   1.829 -0.2820  0.1945  0.4042
  813MOL0     C12063   9.519  10.351   1.817  0.3519  0.2824  1.0940
  813MOL0     O12064   9.575  10.223   1.808  0.4658 -0.5219 -0.7356
  813MOL0     C12065   9.640  10.190   1.929 -0.0681 -0.0467  0.1447
  813MOL0     C12066   9.797  10.188   1.916  0.0354 -0.0633  0.1919
  813MOL0     C12067   9.852  10.086   1.815 -0.0694  0.5379 -0.3061
  813MOL0     C12068   9.966  10.145   1.736 -0.3476 -0.3011 -0.4833
  813MOL0     C12069  10.026  10.042   1.640  0.5966  0.3282 -0.1896
  813MOL0     C12070  10.164  10.096   1.582 -0.5234 -0.7036 -0.5702
  813MOL0     C12071  10.215  10.029   1.458 -0.9444  0.5521  0.1529
  813MOL0     C12072  10.295   9.906   1.494 -0.4371  0.3987 -0.3100
  813MOL0     N12073  10.374   9.854   1.377  1.1728  0.4742 -0.2210
  813MOL0     C12074  10.318   9.757   1.293 -0.3035 -0.5652 -0.3451
  813MOL0     C12075  10.415   9.737   1.207 -0.4483  0.6694  0.1658
  813MOL0     C12076  10.415   9.627   1.104 -0.2337  0.1974 -0.0326
  813MOL0     C12077  10.552   9.548   1.108  0.1628 -0.2701 -0.2323
  813MOL0     C12078  10.599   9.497   1.241 -0.4351  0.4972  0.3028
  813MOL0     C12079  10.727   9.433   1.226  0.5384 -0.1006 -0.5995
  813MOL0     O12080  10.828   9.534   1.195 -0.2530  0.0856  0.3652
  813MOL0     C12081  10.960   9.499   1.212  0.1296  0.0333  0.4196
  813MOL0     C12082  11.055   9.595   1.190  0.7362 -0.3325  0.5007
  813MOL0     C12083  11.194   9.585   1.208  0.4775  0.9637 -0.3409
  813MOL0     C12084  11.285   9.707   1.176 -0.7716 -0.0837 -1.4552
  813MOL0     C12085  11.239   9.455   1.247  0.5123  0.0978  0.0345
  813MOL0     C12086  11.375   9.430   1.302 -0.7770 -0.8733  0.1031
  813MOL0     O12087  11.433   9.539   1.357 -0.1725 -0.7558  0.2664
  813MOL0     C12088  11.561   9.537   1.386  1.2999 -0.2587 -0.1627
  813MOL0     C12089  11.603   9.511   1.516  0.1639 -0.0739 -0.3226
  813MOL0     C12090  11.740   9.512   1.551 -0.0979 -0.0615  0.3254
  813MOL0     C12091  11.831   9.541   1.451 -0.0290  0.0600 -0.2587
  813MOL0     O12092  11.961   9.507   1.488  0.0124  0.2296 -0.4567
  813MOL0     C12093  12.064   9.512   1.389  0.0465 -0.0758  0.5671
  813MOL0     C12094  12.127   9.652   1.385 -1.0724 -0.3247 -0.4382
  813MOL0     C12095  12.261   9.661   1.315  0.0495 -0.9489 -0.5258
  813MOL0     C12096  12.253   9.635   1.169  0.5262  0.8743  0.2057
  813MOL0     C12097  12.378   9.681   1.099 -0.3685 -0.8798  0.4290
  813MOL0     C12098  12.506   9.610   1.143 -1.4237 -0.1165 -0.1215
  813MOL0     C12099  12.632   9.657   1.056 -0.4643 -0.3883  0.2630
  813MOL0     C12100  12.655   9.547   0.947 -0.1404  0.1250 -0.0632
  813MOL0    Cl12101  12.802   9.589   0.846  0.0612  0.2709 -0.1595
  813MOL0     C12102  11.790   9.577   1.326 -0.0432  0.5235  0.6930
  813MOL0     C12103  11.654   9.572   1.280  0.5199  0.8928 -0.9946
  813MOL0     O12104  11.433   9.332   1.267 -0.1755  0.3392  0.0727
  813MOL0     C12105  11.146   9.346   1.249  1.0923  0.1558 -0.0929
  813MOL0     C12106  11.005   9.370   1.234  0.0213  0.1834 -0.0731
  813MOL0     N12107  10.509   9.836   1.218 -1.1794  0.6647  0.0229
  813MOL0     N12108  10.484   9.907   1.327 -0.1826  0.0241  0.5292
  813MOL0     C12109   9.601  10.462   1.786  0.4424 -0.4013  0.0298
  813MOL0     C12110   9.542  10.587   1.784  0.0651  0.1131 -0.6996
  813MOL0     C12111   9.296  10.928   1.902  0.0896 -0.8670  0.6318
  813MOL0     C12112   9.318  10.998   1.780  0.1418  1.1823  0.0973
  813MOL0     C12113   9.274  11.128   1.755  0.7478 -0.1452 -0.2081
  813MOL0     C12114   9.225  11.209   1.855  0.3736 -0.2725 -0.3259
  813MOL0     O12115   9.198  11.334   1.819 -0.0190 -0.6281  0.1807
  813MOL0     C12116   9.146  11.435   1.906 -0.3069  0.8366  0.2024
  813MOL0     C12117   9.240  11.476   2.012 -0.7052 -0.1159  0.3034
  813MOL0     C12118   9.379  11.529   1.953  0.2512 -0.0632 -0.1398
  813MOL0     C12119   9.464  11.608   2.066 -0.6212 -0.3436 -0.1373
  813MOL0     C12120   9.483  11.526   2.183 -0.1936  0.0386  0.1996
  813MOL0     C12121   9.489  11.445   2.277  0.0932  0.1876 -0.3595
  813MOL0     C12122   9.192  11.141   1.982 -0.5325  0.1991  0.0824
  813MOL0     C12123   9.225  11.008   2.002  0.4526  0.1537 -0.1314
  813MOL0     C12124   9.162  10.948   2.126 -0.0174  0.4322 -0.6898
  813MOL0     H12125   9.223  10.519   1.845 -0.6854 -1.4265 -0.5392
  813MOL0     H12126   9.316  10.279   1.814  2.2686 -1.4229 -2.3671
  813MOL0     H12127   9.612  10.088   1.957  0.9688 -0.3266  0.2096
  813MOL0     H12128   9.618  10.263   2.007  0.1415  1.5830 -1.2662
  813MOL0     H12129   9.828  10.289   1.889 -0.6841  0.2991  0.6856
  813MOL0     H12130   9.855  10.163   2.005  0.0520  0.3580  0.3028
  813MOL0     H12131   9.889  10.000   1.872  1.8990  0.5653 -1.4748
  813MOL0     H12132   9.772  10.054   1.748 -0.7306  0.0263  0.6837
  813MOL0     H12133   9.929  10.225   1.672 -0.9375 -2.3773 -2.9005
  813MOL0     H12134  10.043  10.178   1.806  0.0368 -0.0548 -1.0139
  813MOL0     H12135   9.957  10.021   1.558 -0.3949 -3.3689  1.3843
  813MOL0     H12136  10.027   9.942   1.684 -1.2234  1.0530  1.6885
  813MOL0     H12137  10.148  10.203   1.567 -0.6241 -0.5687  0.4343
  813MOL0     H12138  10.237  10.097   1.663  1.0028  0.8595 -1.8812
  813MOL0     H12139  10.280  10.093   1.396 -2.9416  1.6156 -0.9642
  813MOL0     H12140  10.137   9.996   1.389  0.3733  0.5646 -1.4322
  813MOL0     H12141  10.362   9.917   1.580  0.9098 -2.2277 -0.9006
  813MOL0     H12142  10.224   9.826   1.520  1.9269 -1.7739 -0.1835
  813MOL0     H12143  10.234   9.693   1.319 -0.2089 -0.9318 -0.9412
  813MOL0     H12144  10.403   9.677   1.008  0.6377 -1.6864 -1.1880
  813MOL0     H12145  10.331   9.558   1.110 -1.4262  1.5613 -0.3903
  813MOL0     H12146  10.544   9.474   1.028  2.8098  1.7877 -2.6132
  813MOL0     H12147  10.628   9.616   1.070 -0.6921  1.1269  0.4578
  813MOL0     H12148  10.600   9.584   1.306  0.9730  1.1409 -0.5331
  813MOL0     H12149  10.525   9.426   1.279  0.7305 -1.7176 -1.2724
  813MOL0     H12150  10.751   9.373   1.314 -0.8947 -0.2821 -0.3048
  813MOL0     H12151  10.714   9.366   1.140 -1.4520  2.1621 -2.1825
  813MOL0     H12152  11.015   9.689   1.155 -0.7954 -1.1351  0.0013
  813MOL0     H12153  11.259   9.758   1.083 -3.4729  3.3121  0.8300
  813MOL0     H12154  11.391   9.689   1.158  0.0145  2.4565 -0.0189
  813MOL0     H12155  11.274   9.777   1.260 -3.2384 -0.9278 -0.9781
  813MOL0     H12156  11.529   9.499   1.595  1.0042  2.3797  0.9577
  813MOL0     H12157  11.781   9.499   1.650  1.3359  2.6792  0.1868
  813MOL0     H12158  12.128   9.430   1.425  1.4073  1.2358  1.2583
  813MOL0     H12159  12.028   9.479   1.291 -0.0419  0.7755  0.3076
  813MOL0     H12160  12.058   9.724   1.341  0.3739  0.3446 -1.7296
  813MOL0     H12161  12.143   9.688   1.486  0.1068  1.5147 -1.2271
  813MOL0     H12162  12.326   9.593   1.370  0.8720 -0.1226 -0.4529
  813MOL0     H12163  12.305   9.759   1.337 -2.0824  0.0074 -0.2479
  813MOL0     H12164  12.157   9.671   1.130  1.0258 -0.0456 -2.0280
  813MOL0     H12165  12.252   9.527   1.151  1.1011  0.5353  2.0968
  813MOL0     H12166  12.369   9.664   0.991  0.1717  1.8164 -0.0948
  813MOL0     H12167  12.385   9.790   1.105  0.7283 -0.9160  0.0660
  813MOL0     H12168  12.486   9.503   1.133 -3.0182  0.3022 -2.1594
  813MOL0     H12169  12.513   9.628   1.250 -0.7052  1.9824 -0.4771
  813MOL0     H12170  12.718   9.680   1.120 -1.8035  2.9156  1.1044
  813MOL0     H12171  12.589   9.749   1.014 -0.6329  0.2615  1.7795
  813MOL0     H12172  12.564   9.537   0.888 -1.4886 -1.0103  2.1034
  813MOL0     H12173  12.666   9.452   1.001 -1.6360 -0.4324 -0.6978
  813MOL0     H12174  11.861   9.578   1.244 -0.4355 -2.4264  0.2033
  813MOL0     H12175  11.618   9.588   1.179  0.7529  2.0478 -0.9026
  813MOL0     H12176  11.185   9.250   1.282 -0.9132 -0.7443 -0.1740
  813MOL0     H12177  10.925   9.297   1.231 -1.5441  1.7958  0.6383
  813MOL0     H12178   9.707  10.442   1.790  0.3490 -1.3184 -1.4117
  813MOL0     H12179   9.599  10.678   1.766  0.2701 -0.0260 -0.7586
  813MOL0     H12180   9.387  10.959   1.705  0.5793  0.7645  0.7113
  813MOL0     H12181   9.295  11.173   1.659 -4.0713  0.1313 -1.3556
  813MOL0     H12182   9.125  11.524   1.846 -0.5423 -0.5354 -1.8432
  813MOL0     H12183   9.058  11.392   1.956  0.7179 -2.0466 -0.3397
  813MOL0     H12184   9.258  11.382   2.065  0.2462 -1.0298 -1.5278
  813MOL0     H12185   9.193  11.544   2.083 -0.2860 -1.1051  1.5635
  813MOL0     H12186   9.437  11.444   1.918 -1.2611 -0.9395 -0.6112
  813MOL0     H12187   9.364  11.590   1.864 -1.5217 -2.9176 -1.9384
  813MOL0     H12188   9.406  11.699   2.086 -2.2471 -1.0043 -1.6063
  813MOL0     H12189   9.564  11.638   2.034  0.0658 -2.4760 -0.1195
  813MOL0     H12190   9.498  11.374   2.357 -2.4375  0.1605 -0.0166
  813MOL0     H12191   9.131  11.197   2.051  0.6224 -0.1094  1.3978
  813MOL0     H12192   9.064  10.986   2.154 -0.9032 -0.9143 -1.8475
  813MOL0     H12193   9.157  10.839   2.128 -1.6612  0.4859  0.4026
  813MOL0     H12194   9.235  10.957   2.208  0.0212 -3.0837 -0.1558
  814MOL0     O12195   7.069   3.773   4.793  0.5885  0.3121  0.4798
  814MOL0     C12196   6.999   3.776   4.685 -0.3457 -0.5383 -0.6089
  814MOL0     O12197   6.863   3.794   4.682 -0.2531 -0.3673  0.0548
  814MOL0     C12198   6.795   3.824   4.801  0.4026  0.1656  0.1766
  814MOL0     C12199   6.781   3.958   4.846  0.2418 -0.1037  0.5743
  814MOL0     C12200   6.709   3.987   4.967  1.2269 -0.2897 -0.3399
  814MOL0     C12201   6.660   3.881   5.044  0.3671 -1.0683 -0.1026
  814MOL0     O12202   6.597   3.921   5.161  0.4373  0.0718 -0.0765
  814MOL0     C12203   6.458   3.903   5.166  0.3415 -0.0039  0.7010
  814MOL0     C12204   6.407   3.898   5.316 -0.7942 -1.1230  0.0713
  814MOL0     C12205   6.425   4.036   5.385 -0.8746 -0.2346 -0.1720
  814MOL0     C12206   6.359   4.032   5.528  0.3400 -0.8167 -0.5286
  814MOL0     C12207   6.410   4.151   5.601 -0.4647  0.3681  0.1131
  814MOL0     C12208   6.416   4.290   5.522  0.1951 -1.0350  0.7563
  814MOL0     C12209   6.273   4.340   5.492  0.4259 -0.4863  0.4167
  814MOL0     C12210   6.285   4.494   5.447  0.3121 -0.5855  0.4966
  814MOL0     N12211   6.330   4.580   5.558 -0.0977  0.1366 -0.2893
  814MOL0     C12212   6.241   4.623   5.645  0.1644 -1.1010  0.4144
  814MOL0     C12213   6.307   4.701   5.723 -0.0141  0.2294  0.1234
  814MOL0     C12214   6.256   4.779   5.841 -0.3027  0.0199 -0.7253
  814MOL0     C12215   6.100   4.807   5.832  0.1400  0.2327 -0.4126
  814MOL0     C12216   6.037   4.863   5.703 -0.5776  0.2058 -0.7485
  814MOL0     C12217   6.088   5.009   5.676 -0.5738  0.5293 -0.0444
  814MOL0     O12218   6.003   5.105   5.746 -0.3945  0.2158 -0.1461
  814MOL0     C12219   5.881   5.142   5.695  0.7302 -0.4280 -0.1484
  814MOL0     C12220   5.796   5.191   5.786  0.8977  0.1869 -0.5630
  814MOL0     C12221   5.677   5.253   5.761 -0.3004  0.7195  0.0198
  814MOL0     C12222   5.581   5.268   5.866 -0.4647 -0.6348  0.3285
  814MOL0     C12223   5.645   5.277   5.629  0.0640  0.2827 -0.1037
  814MOL0     C12224   5.510   5.316   5.581  0.0322  0.0814  0.3846
  814MOL0     O12225   5.462   5.425   5.633  0.6884 -0.4039  0.4045
  814MOL0     C12226   5.339   5.478   5.594  0.2206 -0.6209  0.7249
  814MOL0     C12227   5.265   5.457   5.475 -0.9712  0.0734 -0.0728
  814MOL0     C12228   5.136   5.507   5.457 -1.2307 -0.7189 -0.4937
  814MOL0     C12229   5.063   5.568   5.570 -0.4532 -0.5141  0.7837
  814MOL0     O12230   4.930   5.580   5.557 -0.6339  0.1871 -0.1398
  814MOL0     C12231   4.852   5.491   5.636 -0.5287 -0.0850  0.6764
  814MOL0     C12232   4.742   5.559   5.713  0.2299 -0.0636  0.1643
  814MOL0     C12233   4.785   5.660   5.821  0.4911  0.5322 -0.3430
  814MOL0     C12234   4.763   5.606   5.967 -0.5387  0.8653 -0.9958
  814MOL0     C12235   4.886   5.531   6.014 -0.4581 -0.4983 -0.0828
  814MOL0     C12236   4.897   5.499   6.155 -0.1173  0.8220  0.6137
  814MOL0     C12237   5.031   5.437   6.208  0.4735  0.4149 -0.3321
  814MOL0     C12238   5.107   5.523   6.308 -0.2172  0.7168 -0.6021
  814MOL0    Cl12239   5.016   5.510   6.464  0.1458  0.2373 -0.3933
  814MOL0     C12240   5.143   5.598   5.685  1.4425 -0.5884  0.3597
  814MOL0     C12241   5.270   5.545   5.697 -0.2615  0.6332 -0.0503
  814MOL0     O12242   5.459   5.238   5.500  0.1383 -0.1325  0.3274
  814MOL0     C12243   5.731   5.233   5.528 -0.6358  0.1061  0.1680
  814MOL0     C12244   5.852   5.167   5.561  0.0238 -0.5141  0.2620
  814MOL0     N12245   6.435   4.697   5.682 -0.7981 -0.5987 -0.4496
  814MOL0     N12246   6.452   4.632   5.572 -0.4976 -0.9664  0.5104
  814MOL0     C12247   6.667   3.754   4.995 -0.5970  0.6117 -0.1565
  814MOL0     C12248   6.731   3.728   4.870  0.1528  0.8506 -0.5460
  814MOL0     C12249   7.064   3.782   4.554 -0.0927 -0.0329  0.1204
  814MOL0     C12250   6.988   3.795   4.436  0.3926  0.1454 -0.0267
  814MOL0     C12251   7.057   3.796   4.311  0.0262 -0.0194 -0.6286
  814MOL0     C12252   7.192   3.799   4.295  0.3219 -0.3859  0.2966
  814MOL0     O12253   7.264   3.821   4.175  0.4552 -0.8413  0.1834
  814MOL0     C12254   7.184   3.874   4.068 -0.2702 -0.2120  0.1123
  814MOL0     C12255   7.277   3.891   3.945  0.5308 -0.2417  0.1553
  814MOL0     C12256   7.207   3.910   3.817  0.1366 -0.1445 -0.2202
  814MOL0     C12257   7.102   4.024   3.830 -0.2662  0.2755  0.3187
  814MOL0     C12258   7.169   4.148   3.901  0.3336  0.2339  0.0539
  814MOL0     C12259   7.218   4.231   3.979 -0.1091 -0.3970  0.0803
  814MOL0     C12260   7.262   3.776   4.408  0.3956  0.7015  0.2392
  814MOL0     C12261   7.210   3.772   4.540  0.4582 -0.3205 -0.2323
  814MOL0     C12262   7.297   3.754   4.652 -0.1777 -0.4108 -0.2750
  814MOL0     H12263   6.818   4.036   4.780 -2.0774 -0.1409 -0.9158
  814MOL0     H12264   6.685   4.088   4.999  2.9686  0.4805 -1.3043
  814MOL0     H12265   6.444   3.803   5.126  2.6649  1.3433 -4.2486
  814MOL0     H12266   6.399   3.969   5.103 -2.5979 -1.0643  2.1592
  814MOL0     H12267   6.302   3.868   5.319 -1.3185  0.4301 -1.2378
  814MOL0     H12268   6.471   3.825   5.365 -0.6265  0.5395  2.5035
  814MOL0     H12269   6.531   4.061   5.382 -0.7184 -0.8721 -0.2130
  814MOL0     H12270   6.371   4.104   5.318 -0.1319 -1.6847 -2.3547
  814MOL0     H12271   6.250   4.017   5.526  0.5533 -2.9591  0.7485
  814MOL0     H12272   6.390   3.941   5.580  1.3219  0.8324  1.9652
  814MOL0     H12273   6.514   4.126   5.626 -0.8046  1.1322  2.5143
  814MOL0     H12274   6.356   4.156   5.696  0.4904 -2.0252  0.8559
  814MOL0     H12275   6.466   4.362   5.587  0.8583 -0.2719 -0.5699
  814MOL0     H12276   6.463   4.293   5.423 -1.8719 -0.0944 -0.2690
  814MOL0     H12277   6.215   4.338   5.585 -0.3520  0.9131 -0.0117
  814MOL0     H12278   6.217   4.278   5.422  0.0120 -1.5710  1.6664
  814MOL0     H12279   6.338   4.490   5.352 -0.8363 -0.2643 -0.1761
  814MOL0     H12280   6.185   4.523   5.414  0.1498  1.0930  2.2769
  814MOL0     H12281   6.136   4.598   5.658 -0.6333  0.7793 -1.7554
  814MOL0     H12282   6.307   4.875   5.846 -4.5085  2.6461 -2.4963
  814MOL0     H12283   6.271   4.719   5.931  2.9515  0.9233 -0.5554
  814MOL0     H12284   6.052   4.712   5.855  3.0396 -1.1501  0.5153
  814MOL0     H12285   6.078   4.867   5.921 -1.3973 -2.6490  1.2988
  814MOL0     H12286   6.056   4.808   5.610 -0.0093  2.2708 -1.9219
  814MOL0     H12287   5.928   4.861   5.701 -0.6778  2.1600 -3.2109
  814MOL0     H12288   6.192   5.020   5.708 -0.7288 -0.8171  0.9884
  814MOL0     H12289   6.095   5.015   5.567 -1.5719  1.8582 -0.0734
  814MOL0     H12290   5.824   5.169   5.888  2.0502  3.7843  0.0472
  814MOL0     H12291   5.601   5.208   5.955  0.4379  0.5547  0.9558
  814MOL0     H12292   5.482   5.235   5.833 -1.9426  1.4995  2.3258
  814MOL0     H12293   5.578   5.375   5.891 -1.0222 -0.0406 -2.0341
  814MOL0     H12294   5.316   5.395   5.401  1.5754 -2.0379  3.1802
  814MOL0     H12295   5.074   5.482   5.371 -2.7035 -2.9039  1.0932
  814MOL0     H12296   4.803   5.415   5.574  0.5095 -1.2080  1.2157
  814MOL0     H12297   4.925   5.443   5.701  0.1147 -2.8824 -1.8606
  814MOL0     H12298   4.693   5.612   5.631  0.2912 -1.4301 -0.7915
  814MOL0     H12299   4.681   5.480   5.757 -2.3335  1.4890 -0.4033
  814MOL0     H12300   4.725   5.750   5.802 -1.4545  0.1919  3.3047
  814MOL0     H12301   4.890   5.686   5.808  1.4190 -2.8266 -0.3054
  814MOL0     H12302   4.678   5.539   5.980  1.9465 -2.1595  1.4076
  814MOL0     H12303   4.753   5.693   6.033 -0.2500  0.7310 -0.7707
  814MOL0     H12304   4.894   5.436   5.960  0.4137 -1.9441  2.4374
  814MOL0     H12305   4.969   5.599   5.994 -0.0068 -0.4101  1.9088
  814MOL0     H12306   4.817   5.429   6.180  0.6881 -0.7874 -1.0925
  814MOL0     H12307   4.876   5.589   6.214 -1.4420  1.1668 -0.3400
  814MOL0     H12308   5.098   5.418   6.125 -0.1427 -0.0559 -0.7310
  814MOL0     H12309   5.020   5.342   6.261 -0.9255  0.1977 -0.9554
  814MOL0     H12310   5.107   5.629   6.280 -0.8978  0.0895 -3.2450
  814MOL0     H12311   5.211   5.492   6.322 -0.0342  0.8575 -1.6117
  814MOL0     H12312   5.098   5.658   5.763  0.7131  0.8995 -1.1320
  814MOL0     H12313   5.322   5.567   5.789  0.1904 -2.5737  0.5776
  814MOL0     H12314   5.718   5.252   5.422 -0.0205 -0.9748 -0.1223
  814MOL0     H12315   5.920   5.143   5.480 -1.0700  0.2053 -0.8966
  814MOL0     H12316   6.619   3.675   5.052  1.7882  0.3580  1.6043
  814MOL0     H12317   6.741   3.621   4.852  0.3833  1.0406 -1.5795
  814MOL0     H12318   6.879   3.798   4.436  0.3136 -0.9415 -2.1188
  814MOL0     H12319   6.996   3.800   4.222 -0.8553 -1.6699 -0.1549
  814MOL0     H12320   7.103   3.803   4.049  0.1289 -1.4077  2.5453
  814MOL0     H12321   7.137   3.967   4.100  0.6757 -0.1048  1.2486
  814MOL0     H12322   7.332   3.796   3.944  0.2108 -0.5058  2.4457
  814MOL0     H12323   7.356   3.964   3.961  0.1037 -0.1247  1.8751
  814MOL0     H12324   7.283   3.936   3.742  0.1073  3.5348  0.8325
  814MOL0     H12325   7.156   3.817   3.790  1.8019 -0.4782 -2.4885
  814MOL0     H12326   7.020   3.987   3.893 -0.6888 -0.8434 -0.8452
  814MOL0     H12327   7.040   4.059   3.747 -1.3239  2.1558  1.8115
  814MOL0     H12328   7.268   4.294   4.049  1.1366 -1.6408  0.3669
  814MOL0     H12329   7.370   3.770   4.398  0.2784  2.2920 -4.4913
  814MOL0     H12330   7.277   3.655   4.692  0.5249 -0.7010 -0.6243
  814MOL0     H12331   7.402   3.760   4.621 -0.1486  2.0492  0.0319
  814MOL0     H12332   7.281   3.840   4.719 -1.3924 -0.3341 -0.6511
  815MOL0     O12333   3.076  10.932  11.046  0.3436  0.3038 -0.0742
  815MOL0     C12334   3.028  11.023  11.109  0.2232 -0.9146  0.5827
  815MOL0     O12335   3.088  11.129  11.163  0.0502  0.3647  0.3319
  815MOL0     C12336   3.228  11.151  11.151 -0.7967 -0.2586  0.4631
  815MOL0     C12337   3.280  11.171  11.028 -0.4299 -0.3058  0.5381
  815MOL0     C12338   3.416  11.178  11.002  0.2296  1.4400 -0.2908
  815MOL0     C12339   3.513  11.176  11.110  1.2806  0.7252  0.1018
  815MOL0     O12340   3.648  11.190  11.097  0.5240  0.0470  0.5257
  815MOL0     C12341   3.711  11.150  10.970  0.0862  0.3611  0.8214
  815MOL0     C12342   3.849  11.091  11.007  0.4288 -0.0869  1.3815
  815MOL0     C12343   3.918  11.050  10.884 -0.3817 -0.5440  0.3530
  815MOL0     C12344   4.063  11.006  10.915 -0.0469 -0.6117 -0.4604
  815MOL0     C12345   4.153  10.970  10.794 -0.6083  0.3688  0.0090
  815MOL0     C12346   4.093  10.839  10.727  1.0017 -0.4724  0.9255
  815MOL0     C12347   4.132  10.787  10.589  0.4370 -0.5755 -0.3117
  815MOL0     C12348   4.100  10.873  10.463  0.0143  0.2886 -0.8398
  815MOL0     N12349   3.962  10.861  10.414 -0.0185 -0.5733 -0.0338
  815MOL0     C12350   3.929  10.814  10.291 -0.8971  0.3216  0.0204
  815MOL0     C12351   3.796  10.805  10.285  0.4964  0.4191  0.0294
  815MOL0     C12352   3.718  10.734  10.175  0.0557 -0.0413 -0.7157
  815MOL0     C12353   3.597  10.817  10.132 -1.2414  0.5482 -0.7780
  815MOL0     C12354   3.550  10.772   9.996 -0.2844  1.0145 -0.2877
  815MOL0     C12355   3.431  10.863   9.947 -0.2143 -0.1601 -0.7013
  815MOL0     O12356   3.338  10.785   9.864  0.2231 -0.5731 -0.2412
  815MOL0     C12357   3.213  10.853   9.868 -0.6910  0.2300 -0.3249
  815MOL0     C12358   3.212  10.986   9.821  0.0321 -0.1302  0.4522
  815MOL0     C12359   3.083  11.052   9.812  0.1506  0.0553 -0.0717
  815MOL0     C12360   3.087  11.200   9.755  0.2203  0.6128  0.1661
  815MOL0     C12361   2.958  10.983   9.860  0.3138  0.5164 -0.0539
  815MOL0     C12362   2.827  11.037   9.843  0.2019 -1.1413  0.1402
  815MOL0     O12363   2.718  10.959   9.828 -0.1183 -0.0021 -0.4238
  815MOL0     C12364   2.602  11.024   9.811  0.2781 -0.0567  0.0303
  815MOL0     C12365   2.559  11.073   9.687  1.0075 -0.8463  0.2379
  815MOL0     C12366   2.436  11.141   9.670 -0.0654 -0.6486  0.6324
  815MOL0     C12367   2.342  11.146   9.776 -0.9987  0.5445 -0.0564
  815MOL0     O12368   2.223  11.205   9.769 -0.0687 -0.4457  0.0176
  815MOL0     C12369   2.172  11.286   9.659 -0.3199  0.0759  0.6460
  815MOL0     C12370   2.067  11.383   9.703 -0.0115 -0.4118  0.0713
  815MOL0     C12371   2.013  11.459   9.582  0.0562 -0.7790  0.1263
  815MOL0     C12372   1.891  11.544   9.628 -0.2752 -0.2528 -0.4795
  815MOL0     C12373   1.793  11.465   9.716  0.3945 -0.2864  0.6734
  815MOL0     C12374   1.654  11.531   9.735 -0.5627 -0.2557  0.6296
  815MOL0     C12375   1.549  11.431   9.779 -0.5184 -0.3332 -0.0601
  815MOL0     C12376   1.422  11.509   9.804 -0.3656  0.5018  0.7616
  815MOL0    Cl12377   1.446  11.663   9.904  0.0164 -0.0506 -0.0471
  815MOL0     C12378   2.386  11.090   9.899 -0.5339 -0.3272 -0.3208
  815MOL0     C12379   2.511  11.034   9.912 -0.7837  0.0807  0.0461
  815MOL0     O12380   2.817  11.159   9.857 -0.1587 -0.1820 -0.3275
  815MOL0     C12381   2.975  10.849   9.884 -0.0671  0.1437 -0.0512
  815MOL0     C12382   3.094  10.783   9.889 -0.0662 -0.7284  0.8110
  815MOL0     N12383   3.741  10.854  10.404  0.0525  0.0091 -0.3044
  815MOL0     N12384   3.843  10.887  10.479  0.2370  0.3485  0.7873
  815MOL0     C12385   3.456  11.158  11.234 -1.0863 -0.0488  0.8167
  815MOL0     C12386   3.313  11.141  11.257  0.2604 -0.1615 -0.7049
  815MOL0     C12387   2.879  11.027  11.110  1.0839 -0.3815 -0.0911
  815MOL0     C12388   2.804  10.957  11.017  0.5491  0.4233 -0.2178
  815MOL0     C12389   2.663  10.933  11.041  0.5201 -1.1180 -0.9762
  815MOL0     C12390   2.583  11.004  11.138 -0.8623  0.6499  0.0398
  815MOL0     O12391   2.451  11.004  11.158  0.5877 -0.4090 -0.3835
  815MOL0     C12392   2.371  10.927  11.062  0.3767  0.2582  0.4108
  815MOL0     C12393   2.220  10.918  11.096 -0.4337  0.2162  0.6578
  815MOL0     C12394   2.162  11.060  11.140 -0.3570  0.0012 -0.4103
  815MOL0     C12395   2.022  11.042  11.206  0.3042 -0.2917  0.6933
  815MOL0     C12396   1.920  10.991  11.103  0.6548 -0.1332  0.6346
  815MOL0     C12397   1.838  10.954  11.017  0.5050 -0.2159 -0.6887
  815MOL0     C12398   2.656  11.079  11.220  0.4329 -0.8276 -0.1950
  815MOL0     C12399   2.795  11.094  11.206  0.6123  0.1212 -0.5179
  815MOL0     C12400   2.848  11.191  11.316 -0.4357  0.1420  0.7533
  815MOL0     H12401   3.217  11.178  10.939  2.2210 -2.1985 -1.6593
  815MOL0     H12402   3.460  11.192  10.904  2.1155 -0.0760  0.2478
  815MOL0     H12403   3.731  11.240  10.911  0.5771 -0.2330  0.0615
  815MOL0     H12404   3.646  11.083  10.912  1.8542 -2.1275  1.6073
  815MOL0     H12405   3.895  11.172  11.065  0.3085  3.2617 -2.7247
  815MOL0     H12406   3.837  11.003  11.071 -0.3805 -1.0421 -0.0322
  815MOL0     H12407   3.876  10.959  10.839  0.0269 -0.7204  0.3288
  815MOL0     H12408   3.924  11.129  10.808 -0.1375  1.7142  2.5939
  815MOL0     H12409   4.127  11.072  10.975 -1.4851  0.4351 -0.0144
  815MOL0     H12410   4.054  10.916  10.976 -0.3973  1.0187  2.0297
  815MOL0     H12411   4.253  10.956  10.836  0.1546  1.2523 -1.4381
  815MOL0     H12412   4.160  11.051  10.721  1.0178 -0.4814 -0.8376
  815MOL0     H12413   4.123  10.757  10.794  2.7213  0.5213  1.4506
  815MOL0     H12414   3.986  10.849  10.710  1.3442  2.7077  0.1157
  815MOL0     H12415   4.082  10.690  10.577 -2.3168  0.9822 -2.7091
  815MOL0     H12416   4.240  10.773  10.584  0.2115 -3.3597  0.8416
  815MOL0     H12417   4.101  10.975  10.503 -1.2294  0.2970 -0.7886
  815MOL0     H12418   4.164  10.874  10.375  0.3042 -0.6920 -0.6518
  815MOL0     H12419   4.003  10.781  10.220  0.9133 -0.9970  2.3836
  815MOL0     H12420   3.680  10.638  10.211 -0.1729  0.5520  0.6909
  815MOL0     H12421   3.779  10.716  10.086  0.4908  1.4159 -0.7285
  815MOL0     H12422   3.524  10.815  10.213  0.3190 -1.6351  0.6690
  815MOL0     H12423   3.617  10.923  10.114 -1.3950  0.8378  0.7136
  815MOL0     H12424   3.636  10.788   9.931  0.3589 -0.4995  0.1402
  815MOL0     H12425   3.532  10.664  10.000  0.9347  0.6870 -2.3166
  815MOL0     H12426   3.386  10.907  10.036  0.0081 -1.1726 -0.0683
  815MOL0     H12427   3.477  10.940   9.885  2.6669 -1.1626  0.0254
  815MOL0     H12428   3.306  11.038   9.808 -0.1952  0.5853  1.5106
  815MOL0     H12429   3.085  11.279   9.830  1.6637  1.9364 -1.1222
  815MOL0     H12430   3.007  11.207   9.681  1.8103  2.7444 -1.4986
  815MOL0     H12431   3.174  11.217   9.691 -0.8781 -2.5998 -2.5041
  815MOL0     H12432   2.633  11.065   9.609  1.8164  0.0201  0.8984
  815MOL0     H12433   2.403  11.191   9.580 -0.4366 -0.8290  0.6669
  815MOL0     H12434   2.253  11.349   9.620 -2.5049  1.7906 -1.4336
  815MOL0     H12435   2.134  11.218   9.583 -0.6006  1.7970 -0.8043
  815MOL0     H12436   1.992  11.321   9.754  1.3527 -0.4787  2.0768
  815MOL0     H12437   2.107  11.461   9.768 -2.3943  1.9195 -1.0740
  815MOL0     H12438   1.978  11.399   9.498 -0.0668  0.9979 -1.1482
  815MOL0     H12439   2.092  11.525   9.544 -0.8975 -0.7451 -1.9059
  815MOL0     H12440   1.833  11.562   9.537  0.0690  0.3557 -0.5856
  815MOL0     H12441   1.927  11.637   9.673 -1.3194 -0.5317  1.0115
  815MOL0     H12442   1.785  11.362   9.679 -0.6973  0.3267 -0.9236
  815MOL0     H12443   1.840  11.464   9.814  1.5625  1.1719  0.1492
  815MOL0     H12444   1.619  11.585   9.647 -0.1009  1.0286  1.2119
  815MOL0     H12445   1.666  11.595   9.823 -1.1982  1.3109 -0.3813
  815MOL0     H12446   1.581  11.387   9.874  0.9459 -2.2213 -1.3625
  815MOL0     H12447   1.545  11.353   9.702  2.5463  0.8262 -1.5428
  815MOL0     H12448   1.349  11.449   9.858  0.7492 -1.1655  0.4919
  815MOL0     H12449   1.397  11.531   9.700  2.7467 -0.4578 -0.3278
  815MOL0     H12450   2.314  11.097   9.980 -0.4057  2.1008 -0.3477
  815MOL0     H12451   2.531  10.995  10.011 -1.1130  0.3797  0.2313
  815MOL0     H12452   2.897  10.775   9.901 -2.1222  1.5076 -2.6633
  815MOL0     H12453   3.083  10.682   9.927 -0.9044 -2.5123 -3.5817
  815MOL0     H12454   3.522  11.149  11.319  1.0789  0.0233 -0.7967
  815MOL0     H12455   3.268  11.125  11.355  1.4215  1.4968  0.1449
  815MOL0     H12456   2.851  10.897  10.939  1.9411  0.2010  0.7624
  815MOL0     H12457   2.620  10.863  10.970  1.5757 -0.5495 -2.2159
  815MOL0     H12458   2.369  10.960  10.958 -2.7024 -1.3098 -0.1539
  815MOL0     H12459   2.407  10.823  11.061 -0.9584 -0.3162  3.3083
  815MOL0     H12460   2.208  10.848  11.179 -1.3557  1.2298  1.4110
  815MOL0     H12461   2.170  10.883  11.005 -0.5400 -1.0460  1.1839
  815MOL0     H12462   2.225  11.120  11.206 -0.7924  0.2339 -0.2052
  815MOL0     H12463   2.153  11.132  11.058  0.5708  1.5900  0.8313
  815MOL0     H12464   1.988  11.130  11.262 -1.1247  2.0891 -3.4823
  815MOL0     H12465   2.024  10.963  11.281 -2.4411  1.0377  2.3514
  815MOL0     H12466   1.775  10.913  10.941  0.9152 -0.5972 -0.8276
  815MOL0     H12467   2.605  11.135  11.298  1.6241  1.4063 -0.9506
  815MOL0     H12468   2.777  11.212  11.396 -1.8396  3.1452 -1.1075
  815MOL0     H12469   2.937  11.149  11.364  0.6579  1.2499 -0.2479
  815MOL0     H12470   2.862  11.285  11.262 -2.0674  0.0051  0.0393
  816MOL0     O12471   4.410   9.640   4.519 -0.2476 -0.0553 -0.3231
  816MOL0     C12472   4.434   9.752   4.555  0.1745  0.0150  0.4537
  816MOL0     O12473   4.376   9.873   4.507  0.5225  0.0630 -0.2272
  816MOL0     C12474   4.368   9.973   4.600 -0.9113  0.3901 -0.1585
  816MOL0     C12475   4.461  10.074   4.609 -0.3365  0.3351  0.0041
  816MOL0     C12476   4.453  10.164   4.707 -0.5533 -0.1189 -0.4747
  816MOL0     C12477   4.349  10.178   4.801 -0.9482  0.3738 -0.9441
  816MOL0     O12478   4.357  10.283   4.891  0.0218 -0.9289 -0.6082
  816MOL0     C12479   4.338  10.255   5.024 -0.1123  0.1692  0.3355
  816MOL0     C12480   4.464  10.217   5.116 -0.6057  0.5116 -0.3834
  816MOL0     C12481   4.573  10.117   5.047 -0.3930  0.0512 -0.9127
  816MOL0     C12482   4.697  10.104   5.137  0.0809 -0.2996  0.3996
  816MOL0     C12483   4.775  10.239   5.134  0.3635  0.4213 -0.7874
  816MOL0     C12484   4.799  10.296   4.998  0.2827  0.2481 -0.1239
  816MOL0     C12485   4.910  10.215   4.924  0.0186  0.4356  0.1788
  816MOL0     C12486   4.860  10.114   4.820  0.4407  0.4346 -0.2192
  816MOL0     N12487   4.964  10.077   4.725 -0.1718 -0.0653 -0.8552
  816MOL0     C12488   5.082  10.033   4.772  0.0416  0.5991 -0.3606
  816MOL0     C12489   5.167  10.039   4.672  0.3299  0.1274 -0.4768
  816MOL0     C12490   5.312   9.999   4.693  0.9843  0.0846 -0.0315
  816MOL0     C12491   5.401  10.036   4.567 -0.2555 -0.0562 -0.9628
  816MOL0     C12492   5.378   9.935   4.451 -0.0355 -0.2861  0.6952
  816MOL0     C12493   5.444   9.801   4.469 -0.6886  0.2188 -0.3582
  816MOL0     O12494   5.381   9.720   4.566  0.9974  0.0697  0.2670
  816MOL0     C12495   5.404   9.587   4.561  0.3166  0.9300 -0.0419
  816MOL0     C12496   5.324   9.504   4.651 -0.8640 -0.5701  0.0073
  816MOL0     C12497   5.366   9.374   4.677 -0.9416  0.2414  0.1118
  816MOL0     C12498   5.275   9.294   4.765 -0.7522  0.0762 -0.0564
  816MOL0     C12499   5.471   9.322   4.605 -0.2257  0.1815 -0.1188
  816MOL0     C12500   5.519   9.187   4.629  0.3334  0.5453 -0.2013
  816MOL0     O12501   5.465   9.100   4.536  0.1821 -1.0241 -0.4076
  816MOL0     C12502   5.497   8.970   4.545 -0.4762  0.4156  0.5462
  816MOL0     C12503   5.588   8.900   4.632  0.1716 -0.9030 -1.1264
  816MOL0     C12504   5.592   8.763   4.633 -0.1617  1.0081  0.4566
  816MOL0     C12505   5.500   8.685   4.554 -0.0555 -0.1461 -0.8071
  816MOL0     O12506   5.500   8.546   4.565  0.1199  1.1829 -0.7664
  816MOL0     C12507   5.514   8.471   4.687 -0.2752  0.1136  0.7096
  816MOL0     C12508   5.534   8.323   4.666  0.7051 -0.3242 -0.7942
  816MOL0     C12509   5.670   8.289   4.601  0.4660 -0.4202 -0.5263
  816MOL0     C12510   5.657   8.174   4.510 -0.0086  0.4596 -0.0306
  816MOL0     C12511   5.784   8.121   4.435 -0.3611 -0.2448  0.3459
  816MOL0     C12512   5.868   8.224   4.353  0.4382  0.6819 -0.2155
  816MOL0     C12513   5.979   8.152   4.285  0.0116 -0.2346  0.4665
  816MOL0     C12514   6.090   8.243   4.225 -0.0140 -0.3262  0.9145
  816MOL0    Cl12515   6.170   8.134   4.115 -0.4018 -0.1261 -0.4932
  816MOL0     C12516   5.412   8.754   4.473 -0.8464 -0.0673  0.1012
  816MOL0     C12517   5.417   8.892   4.466 -0.4433 -0.2737  0.4171
  816MOL0     O12518   5.579   9.165   4.732  0.5078 -0.4442 -0.6605
  816MOL0     C12519   5.538   9.395   4.509  0.9033 -0.1156 -0.4620
  816MOL0     C12520   5.516   9.531   4.495 -0.3529 -0.1945 -1.9760
  816MOL0     N12521   5.102  10.072   4.559  0.6166 -0.0569 -0.4669
  816MOL0     N12522   4.975  10.091   4.595  0.3006  0.4119 -0.5030
  816MOL0     C12523   4.250  10.079   4.796 -0.5994  0.3914 -0.0481
  816MOL0     C12524   4.264   9.977   4.700 -0.7760  0.1932  0.4513
  816MOL0     C12525   4.546   9.748   4.649 -0.4993 -0.7929  0.5407
  816MOL0     C12526   4.666   9.809   4.601 -0.7928  0.3033 -0.4740
  816MOL0     C12527   4.790   9.800   4.665 -0.4560  0.4380  0.0612
  816MOL0     C12528   4.798   9.738   4.786  0.1745  0.4455 -0.1215
  816MOL0     O12529   4.915   9.741   4.858  0.4549  0.1437 -0.3352
  816MOL0     C12530   4.911   9.716   4.993  0.7696  0.4148  0.2263
  816MOL0     C12531   5.044   9.746   5.068 -0.2485  0.0360 -1.6680
  816MOL0     C12532   5.144   9.643   5.019 -1.0237 -0.4214  0.4140
  816MOL0     C12533   5.293   9.704   5.015  0.5956 -0.7036 -0.6504
  816MOL0     C12534   5.323   9.789   5.134 -1.2765  1.2728 -0.1991
  816MOL0     C12535   5.332   9.857   5.236  0.7536  0.9277  0.1799
  816MOL0     C12536   4.680   9.682   4.844  0.7418  0.0772 -0.8066
  816MOL0     C12537   4.553   9.679   4.776  0.4371 -0.1616 -0.2641
  816MOL0     C12538   4.419   9.623   4.837  0.1407  0.4051 -0.4127
  816MOL0     H12539   4.536  10.072   4.531 -0.4072 -1.7700 -0.0686
  816MOL0     H12540   4.532  10.238   4.720 -1.3539  0.5597  0.7524
  816MOL0     H12541   4.275  10.166   5.031 -2.4139  1.7173  0.6032
  816MOL0     H12542   4.280  10.335   5.072 -1.5295 -0.9972  0.6349
  816MOL0     H12543   4.502  10.314   5.148 -0.8857  0.2800  0.6884
  816MOL0     H12544   4.432  10.177   5.213 -1.7147  0.7351 -0.6458
  816MOL0     H12545   4.533  10.016   5.034  0.5485 -0.0791 -3.1280
  816MOL0     H12546   4.606  10.141   4.946 -0.7132  1.3278 -0.7353
  816MOL0     H12547   4.674  10.085   5.242  2.1197  1.7980  1.3148
  816MOL0     H12548   4.759  10.022   5.100  1.2997  0.1934  1.3024
  816MOL0     H12549   4.869  10.212   5.184 -2.1982 -1.0611  3.8317
  816MOL0     H12550   4.727  10.311   5.201 -2.5238 -1.4595 -0.6444
  816MOL0     H12551   4.708  10.328   4.947 -0.4322  0.4510  1.2394
  816MOL0     H12552   4.855  10.388   5.016 -0.3400  0.3428  1.5167
  816MOL0     H12553   4.983  10.178   4.997  2.6043  2.0129 -1.4542
  816MOL0     H12554   4.967  10.287   4.866 -0.6005  0.6572 -0.1631
  816MOL0     H12555   4.840  10.021   4.873 -0.4157 -0.4783 -2.0693
  816MOL0     H12556   4.769  10.150   4.771  0.4976  2.3145  0.9453
  816MOL0     H12557   5.109   9.992   4.868 -1.1611  4.3485  1.8214
  816MOL0     H12558   5.329   9.901   4.738  1.7525  0.1826 -0.0973
  816MOL0     H12559   5.330  10.070   4.774 -0.7401 -0.1241  0.5730
  816MOL0     H12560   5.379  10.139   4.535 -1.2417  1.1331  2.9539
  816MOL0     H12561   5.507  10.031   4.592 -0.8777 -2.2764  1.7721
  816MOL0     H12562   5.272   9.911   4.435 -0.0414  0.0408  0.2039
  816MOL0     H12563   5.413   9.982   4.358  1.4482 -1.9146  0.3847
  816MOL0     H12564   5.446   9.747   4.374  0.6725 -0.3829 -0.0124
  816MOL0     H12565   5.547   9.812   4.505 -0.5084 -2.8512  0.3887
  816MOL0     H12566   5.247   9.547   4.714  1.7863  0.3267  2.8653
  816MOL0     H12567   5.177   9.286   4.717 -1.3422  3.0767  0.4146
  816MOL0     H12568   5.269   9.346   4.862  2.4409  3.2105 -1.3066
  816MOL0     H12569   5.318   9.195   4.782 -2.7590 -1.0760 -1.3534
  816MOL0     H12570   5.655   8.952   4.699 -2.2188  3.1576 -1.5632
  816MOL0     H12571   5.663   8.726   4.706 -0.8058  2.2129  1.7575
  816MOL0     H12572   5.611   8.514   4.715  1.0840  1.5606 -4.9597
  816MOL0     H12573   5.437   8.489   4.762 -0.8845  2.2580 -0.3518
  816MOL0     H12574   5.534   8.288   4.770  1.0303 -0.4717 -0.8422
  816MOL0     H12575   5.453   8.270   4.616  2.0050 -1.7113 -1.4848
  816MOL0     H12576   5.749   8.276   4.675 -0.7513 -1.5436  0.6264
  816MOL0     H12577   5.689   8.379   4.542 -1.1890 -0.4147 -1.1292
  816MOL0     H12578   5.587   8.209   4.434  0.0776  0.0266 -0.3153
  816MOL0     H12579   5.609   8.093   4.566 -0.3658  3.1838  4.0484
  816MOL0     H12580   5.853   8.080   4.510 -1.2135  1.6891  2.3168
  816MOL0     H12581   5.755   8.038   4.370 -1.7543  0.4396  0.0511
  816MOL0     H12582   5.906   8.308   4.411  2.0123 -0.2868  0.2128
  816MOL0     H12583   5.790   8.263   4.287  0.9705  0.5422 -0.9391
  816MOL0     H12584   5.940   8.089   4.205  2.7673 -0.3264 -0.9082
  816MOL0     H12585   6.024   8.075   4.349 -1.0080 -2.7024 -1.6099
  816MOL0     H12586   6.157   8.302   4.288  0.1542 -0.4024  0.8084
  816MOL0     H12587   6.041   8.317   4.161  1.9238  0.2614  0.0261
  816MOL0     H12588   5.342   8.692   4.418 -0.8350  0.0820 -0.0801
  816MOL0     H12589   5.345   8.945   4.404 -0.0303 -1.1330 -0.8330
  816MOL0     H12590   5.614   9.340   4.455  0.0571 -1.0993 -0.7002
  816MOL0     H12591   5.587   9.579   4.429  0.6304  0.2908 -0.6106
  816MOL0     H12592   4.164  10.079   4.863 -0.2798  0.4386  0.3697
  816MOL0     H12593   4.189   9.899   4.704 -0.8326  0.2577  0.6559
  816MOL0     H12594   4.663   9.856   4.502 -3.0559  1.3067  0.0129
  816MOL0     H12595   4.874   9.850   4.619 -0.3342  0.4998  0.3497
  816MOL0     H12596   4.831   9.777   5.037  0.0526  0.0163 -0.5148
  816MOL0     H12597   4.895   9.609   5.009  3.6535 -0.2144 -0.5609
  816MOL0     H12598   5.034   9.722   5.174  0.2193 -2.4352 -2.1316
  816MOL0     H12599   5.079   9.850   5.070 -3.8967  1.5765  2.9930
  816MOL0     H12600   5.148   9.566   5.096  1.2885  0.4467  1.2532
  816MOL0     H12601   5.115   9.606   4.920 -1.9133  1.9935 -0.3096
  816MOL0     H12602   5.308   9.759   4.922  0.6924 -1.6721 -1.2174
  816MOL0     H12603   5.372   9.629   5.019  0.2481 -1.0341  0.5245
  816MOL0     H12604   5.347   9.929   5.314  0.7818 -1.0159  2.0746
  816MOL0     H12605   4.673   9.640   4.944 -0.1814  2.6652  0.2851
  816MOL0     H12606   4.425   9.520   4.800  4.0818  0.7000 -1.1313
  816MOL0     H12607   4.415   9.634   4.945 -0.5230  3.2323 -0.6469
  816MOL0     H12608   4.330   9.671   4.797  0.1772  0.8010 -0.0284
  817MOL0     O12609   7.489   9.391   0.541  0.1687 -0.2385 -0.3238
  817MOL0     C12610   7.590   9.354   0.483  0.0555 -0.0374 -0.0697
  817MOL0     O12611   7.715   9.380   0.512  0.6020  0.2452  0.1568
  817MOL0     C12612   7.735   9.429   0.634 -0.4980  0.6756 -0.7873
  817MOL0     C12613   7.785   9.343   0.737  1.0877 -0.0715  0.7666
  817MOL0     C12614   7.804   9.385   0.863 -0.0413  0.3622  0.2253
  817MOL0     C12615   7.783   9.519   0.901  0.2479  0.2736 -0.7460
  817MOL0     O12616   7.806   9.554   1.033  1.3646 -0.3263  0.5144
  817MOL0     C12617   7.854   9.693   1.062  0.3141 -1.2420  0.1626
  817MOL0     C12618   7.958   9.683   1.173  1.1805  0.9485 -0.1417
  817MOL0     C12619   7.986   9.820   1.232 -0.4658 -0.0354  0.0303
  817MOL0     C12620   8.066   9.817   1.365  0.5615  0.6505 -0.1773
  817MOL0     C12621   8.107   9.947   1.449 -0.6899  0.5169 -0.9661
  817MOL0     C12622   8.182  10.034   1.343  0.4972 -0.1862 -0.6054
  817MOL0     C12623   8.261  10.146   1.415 -0.1377 -0.4610 -0.6598
  817MOL0     C12624   8.158  10.259   1.461  0.9745 -0.0730  0.0704
  817MOL0     N12625   8.220  10.381   1.498  1.0278  0.4660 -0.3502
  817MOL0     C12626   8.144  10.501   1.486 -0.2503  0.3154  1.2797
  817MOL0     C12627   8.204  10.599   1.550  0.6934  0.3296  0.9935
  817MOL0     C12628   8.156  10.748   1.579  0.1630  0.3835 -0.2361
  817MOL0     C12629   8.262  10.852   1.611  0.8709  0.4583 -0.4995
  817MOL0     C12630   8.361  10.881   1.507 -0.3860  0.1600 -0.5153
  817MOL0     C12631   8.501  10.913   1.574  0.1098 -0.1230  0.1387
  817MOL0     O12632   8.580  10.988   1.477  0.5178 -0.0237 -0.5039
  817MOL0     C12633   8.614  10.930   1.358  0.8861 -0.0466 -0.9430
  817MOL0     C12634   8.619  10.792   1.336 -0.2157 -0.0912  0.1735
  817MOL0     C12635   8.647  10.739   1.208  0.0563 -0.2473  0.6110
  817MOL0     C12636   8.661  10.590   1.218 -0.0904 -1.2039  1.1545
  817MOL0     C12637   8.681  10.829   1.094  0.5363  0.0424  0.0677
  817MOL0     C12638   8.717  10.778   0.959 -0.2917  0.1089 -0.2431
  817MOL0     O12639   8.708  10.640   0.935  0.3109  0.2400  0.5657
  817MOL0     C12640   8.802  10.576   0.859 -0.0946  1.0015  0.6167
  817MOL0     C12641   8.857  10.454   0.905  0.0919 -0.4295  0.1998
  817MOL0     C12642   8.955  10.384   0.830 -1.1521 -0.5326  0.4391
  817MOL0     C12643   9.009  10.439   0.708  0.4144  0.8195 -0.5547
  817MOL0     O12644   9.115  10.388   0.643 -0.2065  0.4176 -0.1445
  817MOL0     C12645   9.180  10.260   0.665 -0.7370 -0.3132  0.6362
  817MOL0     C12646   9.313  10.273   0.606  0.2359  0.5575  0.9385
  817MOL0     C12647   9.365  10.140   0.560  0.0175 -0.4606  0.0901
  817MOL0     C12648   9.477  10.168   0.457 -0.2050 -0.2181 -0.0466
  817MOL0     C12649   9.526  10.039   0.390 -0.2640  0.4680  0.0643
  817MOL0     C12650   9.620   9.969   0.491  0.0538 -0.1838 -1.1143
  817MOL0     C12651   9.685   9.847   0.437 -0.2038 -0.0872 -0.1563
  817MOL0     C12652   9.765   9.766   0.533  0.3962 -0.8004 -1.0969
  817MOL0    Cl12653   9.686   9.725   0.691  0.3145 -0.8054  0.0420
  817MOL0     C12654   8.949  10.565   0.674  0.0030  0.9837  0.5263
  817MOL0     C12655   8.849  10.624   0.737 -0.6377 -0.0669  0.2194
  817MOL0     O12656   8.756  10.858   0.880 -0.9909  0.0576 -0.4757
  817MOL0     C12657   8.678  10.963   1.127 -0.9303 -0.9277 -1.1596
  817MOL0     C12658   8.649  11.012   1.253 -0.5285 -0.5583 -0.1531
  817MOL0     N12659   8.311  10.535   1.623  0.1307 -0.2979 -0.0852
  817MOL0     N12660   8.307  10.403   1.601  0.6535 -0.3841 -0.2624
  817MOL0     C12661   7.728   9.600   0.805 -0.4911 -0.6468 -0.2105
  817MOL0     C12662   7.714   9.559   0.668  0.2894  0.3463  0.9553
  817MOL0     C12663   7.556   9.266   0.372  0.0339  0.2160 -0.3573
  817MOL0     C12664   7.486   9.316   0.261  0.2719  0.0299  0.1362
  817MOL0     C12665   7.445   9.242   0.147 -0.5595 -0.0222  1.1128
  817MOL0     C12666   7.479   9.106   0.148  0.0548  0.2159 -0.4956
  817MOL0     O12667   7.443   9.034   0.037  0.0069 -0.5694  0.6200
  817MOL0     C12668   7.484   8.908   0.006 -0.3731  0.5454 -0.2491
  817MOL0     C12669   7.409   8.793   0.080 -0.4845 -0.4339  0.2317
  817MOL0     C12670   7.273   8.761   0.019  0.0296 -0.6191 -0.6061
  817MOL0     C12671   7.194   8.662   0.115  0.3505 -0.4473 -0.0981
  817MOL0     C12672   7.227   8.521   0.098 -0.4144 -0.2514  1.4070
  817MOL0     C12673   7.260   8.404   0.075 -1.1038 -0.7190  0.1746
  817MOL0     C12674   7.559   9.051   0.259  0.6522  0.1504 -0.0040
  817MOL0     C12675   7.593   9.134   0.370 -0.1458  0.7441  0.1155
  817MOL0     C12676   7.677   9.067   0.486  0.6881 -0.9317 -0.0725
  817MOL0     H12677   7.804   9.241   0.707  2.5384  1.2078 -3.3866
  817MOL0     H12678   7.834   9.311   0.937 -0.7442 -3.1682 -2.7349
  817MOL0     H12679   7.777   9.763   1.096  0.5335 -0.5727 -0.6819
  817MOL0     H12680   7.895   9.741   0.972 -2.6443  2.4600  0.5318
  817MOL0     H12681   7.914   9.611   1.242 -0.3708 -1.1842 -3.1022
  817MOL0     H12682   8.047   9.635   1.133  0.1630 -1.9330  0.8432
  817MOL0     H12683   8.035   9.882   1.156  1.1516  1.5777  2.2622
  817MOL0     H12684   7.888   9.866   1.251 -0.4269  1.1014 -2.2087
  817MOL0     H12685   8.012   9.764   1.443 -0.0167  0.9713 -0.3522
  817MOL0     H12686   8.149   9.745   1.358 -0.6129 -1.1577  2.7712
  817MOL0     H12687   8.171   9.911   1.530  1.1195 -0.3836 -2.6901
  817MOL0     H12688   8.023  10.006   1.486 -1.3460  0.9652 -3.0312
  817MOL0     H12689   8.250   9.958   1.304 -0.6750 -1.2891 -0.5504
  817MOL0     H12690   8.118  10.067   1.261  0.5513 -1.7757 -1.3175
  817MOL0     H12691   8.334  10.194   1.348 -0.2275 -1.0475 -1.1841
  817MOL0     H12692   8.316  10.103   1.499 -1.0280 -0.6049 -0.1337
  817MOL0     H12693   8.087  10.264   1.377 -0.1041 -0.2214  0.9488
  817MOL0     H12694   8.101  10.215   1.543  3.6992 -1.4079  1.3737
  817MOL0     H12695   8.051  10.497   1.431 -0.2125 -1.7347  1.2857
  817MOL0     H12696   8.088  10.732   1.663 -0.2115  0.8411 -0.4462
  817MOL0     H12697   8.086  10.789   1.505  0.0135 -0.9388 -0.8420
  817MOL0     H12698   8.209  10.942   1.642  0.3490  1.0178 -2.8647
  817MOL0     H12699   8.312  10.814   1.701 -0.5950 -1.1199 -0.2976
  817MOL0     H12700   8.368  10.799   1.435 -2.9645 -0.4657 -0.1510
  817MOL0     H12701   8.330  10.961   1.439  0.6933 -0.7083 -2.1033
  817MOL0     H12702   8.495  10.970   1.667 -1.9848  1.6058 -0.9837
  817MOL0     H12703   8.551  10.819   1.599 -2.6268 -1.6417  0.2734
  817MOL0     H12704   8.603  10.728   1.422  1.3370 -1.5555 -0.5821
  817MOL0     H12705   8.740  10.549   1.154 -0.6151  0.5280 -0.7235
  817MOL0     H12706   8.568  10.542   1.187 -0.8583 -0.5883  2.4432
  817MOL0     H12707   8.678  10.557   1.321  4.2933 -4.1980 -0.2334
  817MOL0     H12708   8.833  10.413   1.003  4.9251  0.3099  1.9635
  817MOL0     H12709   9.001  10.293   0.869  4.1223  1.5287 -0.0876
  817MOL0     H12710   9.205  10.235   0.769  0.3957  1.2306  0.7676
  817MOL0     H12711   9.125  10.176   0.622  0.4600 -1.3666  1.1004
  817MOL0     H12712   9.294  10.329   0.514 -0.0873 -2.5342 -1.0342
  817MOL0     H12713   9.384  10.322   0.673 -0.2558  0.5425  1.4756
  817MOL0     H12714   9.282  10.085   0.514 -0.4803  0.6117 -0.3288
  817MOL0     H12715   9.403  10.079   0.642 -1.1438 -0.4943  0.6227
  817MOL0     H12716   9.557  10.230   0.499  1.3972 -2.2062 -0.0365
  817MOL0     H12717   9.436  10.230   0.376 -1.6128 -0.0138  0.7824
  817MOL0     H12718   9.441   9.975   0.364  0.6830 -0.7305 -0.1811
  817MOL0     H12719   9.579  10.065   0.298  0.7468  2.8617  1.2281
  817MOL0     H12720   9.561   9.955   0.582  0.2954  2.5837 -0.4465
  817MOL0     H12721   9.706  10.029   0.522 -1.0512 -1.1595  5.3644
  817MOL0     H12722   9.753   9.864   0.353  2.6122 -2.0104  1.5624
  817MOL0     H12723   9.609   9.781   0.394 -0.8298  2.5043 -3.4676
  817MOL0     H12724   9.854   9.828   0.550  1.6358 -1.6156 -4.1304
  817MOL0     H12725   9.800   9.673   0.488 -0.9154 -2.2828  0.7749
  817MOL0     H12726   8.991  10.612   0.586  1.2631 -1.0720 -0.0347
  817MOL0     H12727   8.813  10.717   0.693 -0.4340  0.3531  0.9192
  817MOL0     H12728   8.718  11.037   1.059  3.0946 -0.6363  1.2193
  817MOL0     H12729   8.661  11.119   1.269 -0.0621  0.0667 -3.8792
  817MOL0     H12730   7.685   9.696   0.832 -2.5646 -1.7733  0.6987
  817MOL0     H12731   7.684   9.630   0.591  0.3379 -0.2547  0.3696
  817MOL0     H12732   7.463   9.422   0.266 -0.2687 -0.1323  3.1394
  817MOL0     H12733   7.401   9.279   0.055 -0.6367  1.6679  1.8031
  817MOL0     H12734   7.461   8.900  -0.101 -3.7997  1.2988  0.3101
  817MOL0     H12735   7.592   8.897   0.013 -0.6859 -4.5722  0.4871
  817MOL0     H12736   7.414   8.810   0.188  0.5179 -1.6526  0.3940
  817MOL0     H12737   7.466   8.703   0.058  1.6252  0.8879 -0.0031
  817MOL0     H12738   7.218   8.855   0.005 -1.4837 -1.5979 -1.5620
  817MOL0     H12739   7.282   8.716  -0.080  3.3808  1.0869 -1.2274
  817MOL0     H12740   7.090   8.669   0.083  0.7901  0.4385 -1.4130
  817MOL0     H12741   7.204   8.689   0.220  0.8553 -0.4951 -0.1306
  817MOL0     H12742   7.298   8.306   0.054 -0.8693 -0.2231 -1.9840
  817MOL0     H12743   7.585   8.946   0.245 -1.4887 -0.5597  0.9367
  817MOL0     H12744   7.622   9.083   0.579 -0.9323 -1.1767 -0.9524
  817MOL0     H12745   7.684   8.962   0.458  0.4300 -1.0697  0.3681
  817MOL0     H12746   7.766   9.130   0.487 -0.0833  0.6535 -5.2389
  818MOL0     O12747   1.167   3.895  10.190  0.2870 -0.3946  0.0866
  818MOL0     C12748   1.276   3.882  10.135  0.4019 -0.5629 -0.2314
  818MOL0     O12749   1.391   3.891  10.207  0.4380  0.4444 -0.6760
  818MOL0     C12750   1.395   3.960  10.326  0.5399  0.0063 -0.3068
  818MOL0     C12751   1.330   4.080  10.347  0.5427 -0.1603  0.6898
  818MOL0     C12752   1.342   4.151  10.468 -0.9354 -0.0089 -0.0150
  818MOL0     C12753   1.422   4.091  10.570 -0.1905 -0.0981  0.1045
  818MOL0     O12754   1.427   4.169  10.680 -0.0845  0.5243 -0.0890
  818MOL0     C12755   1.448   4.113  10.812  0.3474  0.0743 -0.6551
  818MOL0     C12756   1.440   4.212  10.930  0.5292  0.3377 -0.4312
  818MOL0     C12757   1.523   4.342  10.917  0.2036 -0.5548  0.3012
  818MOL0     C12758   1.532   4.437  11.043  0.2629  1.6385 -0.2170
  818MOL0     C12759   1.395   4.486  11.089  0.4349 -0.2456  0.4943
  818MOL0     C12760   1.401   4.570  11.217  0.4950 -0.6077  0.3315
  818MOL0     C12761   1.470   4.705  11.207  0.5274  0.2082 -0.7104
  818MOL0     C12762   1.405   4.792  11.101  0.1546  0.2538 -0.6788
  818MOL0     N12763   1.446   4.929  11.118  0.5335 -0.0737  0.1798
  818MOL0     C12764   1.419   5.022  11.020 -1.1525  0.1826  0.7062
  818MOL0     C12765   1.457   5.140  11.073 -0.8176  0.1837 -0.0147
  818MOL0     C12766   1.448   5.276  11.005 -0.3808 -0.4608 -0.1805
  818MOL0     C12767   1.309   5.325  10.975  0.2925  0.0492 -0.0301
  818MOL0     C12768   1.222   5.329  11.095 -0.3099 -0.5005  0.0026
  818MOL0     C12769   1.240   5.462  11.172 -0.7881  0.4842  0.0372
  818MOL0     O12770   1.234   5.589  11.100 -0.3109 -1.0698  0.0914
  818MOL0     C12771   1.236   5.705  11.165 -0.2319 -0.0626  0.0005
  818MOL0     C12772   1.148   5.808  11.125  0.7081 -0.2608 -0.2626
  818MOL0     C12773   1.127   5.921  11.205  0.4874  1.0976 -0.0087
  818MOL0     C12774   1.026   6.027  11.150  0.1482  0.1151  0.3873
  818MOL0     C12775   1.189   5.934  11.331 -0.8648 -1.0812  0.0030
  818MOL0     C12776   1.178   6.054  11.418 -0.5999  0.8850  0.2446
  818MOL0     O12777   1.198   6.178  11.362  0.5170  0.1343  0.5846
  818MOL0     C12778   1.113   6.281  11.408  0.6742 -1.0088  0.2664
  818MOL0     C12779   0.984   6.274  11.466 -0.1288 -0.0617 -0.1672
  818MOL0     C12780   0.924   6.389  11.517  0.4432  0.3517  0.2319
  818MOL0     C12781   0.997   6.503  11.509 -0.0446 -0.2058  0.0691
  818MOL0     O12782   0.945   6.624  11.560 -0.1440 -0.8673  0.4603
  818MOL0     C12783   0.803   6.643  11.538  0.0027  0.0071  0.0114
  818MOL0     C12784   0.779   6.788  11.518 -0.2993 -0.3921 -0.6601
  818MOL0     C12785   0.668   6.821  11.418  0.6621 -0.0096 -1.1953
  818MOL0     C12786   0.535   6.735  11.426 -0.7669 -0.2229  0.0493
  818MOL0     C12787   0.439   6.782  11.318  0.9063  0.1823 -0.2741
  818MOL0     C12788   0.315   6.691  11.315  0.6136 -0.5362  0.3608
  818MOL0     C12789   0.210   6.777  11.253 -0.2222  0.1907  0.6779
  818MOL0     C12790   0.077   6.716  11.253 -0.0070 -0.5584 -0.0015
  818MOL0    Cl12791  -0.042   6.824  11.194 -0.3775 -0.0719  0.2078
  818MOL0     C12792   1.117   6.520  11.444  0.6900 -0.3279 -0.0059
  818MOL0     C12793   1.170   6.411  11.387 -0.0818 -0.0230 -0.4872
  818MOL0     O12794   1.167   6.024  11.539  0.7195 -0.0304 -0.3003
  818MOL0     C12795   1.274   5.829  11.369  0.3951  0.8464 -1.4650
  818MOL0     C12796   1.296   5.716  11.291 -0.4752  0.3823 -0.1255
  818MOL0     N12797   1.507   5.119  11.203 -0.5590  0.0574 -0.1253
  818MOL0     N12798   1.492   4.991  11.229  0.1247 -0.0440 -0.4132
  818MOL0     C12799   1.489   3.969  10.549 -0.9254 -0.9014  0.5643
  818MOL0     C12800   1.490   3.918  10.418 -0.4499  0.3055 -1.2141
  818MOL0     C12801   1.291   3.857   9.995  0.2695 -0.3473  0.2530
  818MOL0     C12802   1.420   3.849   9.946  0.4366  0.2730  0.5077
  818MOL0     C12803   1.447   3.844   9.807 -0.5758 -0.3076  0.0038
  818MOL0     C12804   1.351   3.850   9.708  0.8359  1.4277 -0.1945
  818MOL0     O12805   1.386   3.839   9.570  0.0618  0.5316 -0.1003
  818MOL0     C12806   1.504   3.754   9.539 -0.0026 -0.7821  0.2158
  818MOL0     C12807   1.485   3.680   9.409 -1.0155  0.4407 -0.3123
  818MOL0     C12808   1.498   3.768   9.283  0.5257  0.0037  0.5677
  818MOL0     C12809   1.372   3.755   9.181 -0.6725  0.7247 -0.0039
  818MOL0     C12810   1.243   3.796   9.242 -0.5529  0.7805 -0.3902
  818MOL0     C12811   1.142   3.835   9.288 -0.8263  0.1554 -0.1146
  818MOL0     C12812   1.214   3.853   9.769 -0.6717 -0.3437  0.3607
  818MOL0     C12813   1.182   3.852   9.905  0.8146 -0.0585 -0.0923
  818MOL0     C12814   1.033   3.850   9.939 -0.8360 -0.4878  0.4513
  818MOL0     H12815   1.266   4.125  10.272  0.6755  2.4525  2.0559
  818MOL0     H12816   1.297   4.249  10.465  1.1133  1.0712  1.7089
  818MOL0     H12817   1.546   4.063  10.810 -0.1512 -0.9358 -1.0404
  818MOL0     H12818   1.380   4.032  10.840  1.2121 -0.1233  0.9314
  818MOL0     H12819   1.339   4.250  10.946  0.7890  1.5187 -1.3647
  818MOL0     H12820   1.475   4.155  11.016 -0.0104 -1.0200 -1.0832
  818MOL0     H12821   1.622   4.312  10.879 -0.4105  0.1237 -2.0524
  818MOL0     H12822   1.470   4.396  10.837  1.8017  0.1445 -0.3363
  818MOL0     H12823   1.575   4.381  11.127 -1.3416 -0.2917 -0.5767
  818MOL0     H12824   1.598   4.520  11.018  0.2211  1.2223 -1.8643
  818MOL0     H12825   1.330   4.402  11.115 -0.6258  0.0415 -1.1115
  818MOL0     H12826   1.339   4.545  11.016  0.0972  0.8332  1.5887
  818MOL0     H12827   1.299   4.592  11.250  0.4887  1.5687 -0.9784
  818MOL0     H12828   1.454   4.510  11.291  1.1294 -0.6574 -0.1623
  818MOL0     H12829   1.578   4.692  11.193  1.0437 -0.8091  3.0795
  818MOL0     H12830   1.465   4.749  11.307 -0.8801 -1.4073 -0.0359
  818MOL0     H12831   1.434   4.755  11.002 -2.3767 -0.9728 -1.0490
  818MOL0     H12832   1.297   4.781  11.091  0.1583 -1.2331  0.5719
  818MOL0     H12833   1.372   5.009  10.923 -0.7233 -0.7598  0.6134
  818MOL0     H12834   1.497   5.272  10.907  2.1535  1.0223  0.9271
  818MOL0     H12835   1.495   5.355  11.063 -1.5563  0.0012  0.1674
  818MOL0     H12836   1.313   5.420  10.921  2.7807  1.2036  1.9819
  818MOL0     H12837   1.272   5.254  10.901  2.5630 -0.1622 -1.0546
  818MOL0     H12838   1.119   5.331  11.058 -0.2722  0.6617 -0.0891
  818MOL0     H12839   1.239   5.245  11.163  3.6300 -1.2541 -1.6295
  818MOL0     H12840   1.157   5.460  11.244 -0.6724 -1.4882  0.1668
  818MOL0     H12841   1.335   5.459  11.226 -0.6908  1.1959 -0.0889
  818MOL0     H12842   1.096   5.797  11.030  2.0901  0.6706 -1.1719
  818MOL0     H12843   1.038   6.131  11.183 -0.8039  0.9754 -1.7586
  818MOL0     H12844   0.929   6.001  11.193  1.6029 -1.0527  3.2441
  818MOL0     H12845   1.029   6.024  11.041  4.5260 -0.6097  0.3536
  818MOL0     H12846   0.924   6.184  11.472 -0.8823  0.3225 -1.5524
  818MOL0     H12847   0.824   6.380  11.560  1.0679  1.2315  1.9901
  818MOL0     H12848   0.770   6.604  11.441 -3.2980 -1.8031  1.7021
  818MOL0     H12849   0.749   6.595  11.620 -0.7595  0.3590 -0.2769
  818MOL0     H12850   0.743   6.821  11.616 -1.8820  1.0776 -1.6910
  818MOL0     H12851   0.867   6.844  11.487 -0.6483 -0.0732 -1.0800
  818MOL0     H12852   0.699   6.816  11.313  0.4363 -2.7706 -1.1916
  818MOL0     H12853   0.637   6.922  11.446  1.1069 -0.4869  1.2069
  818MOL0     H12854   0.486   6.749  11.523 -1.5471 -0.5086 -0.2944
  818MOL0     H12855   0.559   6.628  11.420  0.5155 -0.0723  1.7400
  818MOL0     H12856   0.406   6.882  11.348  0.2996 -0.3430  0.8854
  818MOL0     H12857   0.480   6.792  11.217  0.5970 -1.1760 -0.5568
  818MOL0     H12858   0.268   6.660  11.409 -1.1043 -3.3690 -1.2754
  818MOL0     H12859   0.339   6.600  11.259  0.9497 -0.9776  1.2099
  818MOL0     H12860   0.244   6.799  11.152  2.7832  2.3134  1.9720
  818MOL0     H12861   0.193   6.874  11.302 -2.6355  0.9197 -1.4106
  818MOL0     H12862   0.056   6.693  11.358 -0.0489 -1.1034 -0.1236
  818MOL0     H12863   0.074   6.618  11.205  1.1203 -1.5624  1.8273
  818MOL0     H12864   1.168   6.615  11.460 -1.3229  0.5005  2.0166
  818MOL0     H12865   1.266   6.437  11.343 -0.1636  1.2671  0.0344
  818MOL0     H12866   1.328   5.820  11.462  1.7425  0.1436 -2.2946
  818MOL0     H12867   1.359   5.639  11.334 -0.0043  1.0467  0.4033
  818MOL0     H12868   1.561   3.940  10.625  1.8067  1.9327 -0.6889
  818MOL0     H12869   1.567   3.845  10.393  0.1417  1.8010 -4.3077
  818MOL0     H12870   1.504   3.842  10.014  1.1609  2.8262 -0.0409
  818MOL0     H12871   1.553   3.845   9.785  0.2151 -0.1088  3.2742
  818MOL0     H12872   1.588   3.823   9.546  0.2023 -1.1307  1.3923
  818MOL0     H12873   1.516   3.677   9.616  2.6185 -1.6053 -0.8873
  818MOL0     H12874   1.390   3.625   9.409 -0.0418 -1.3518 -1.6475
  818MOL0     H12875   1.558   3.599   9.410 -0.3429  1.0392  0.1519
  818MOL0     H12876   1.516   3.872   9.312  1.1398  0.4247 -1.1704
  818MOL0     H12877   1.584   3.732   9.226  0.7463  0.2740  0.7254
  818MOL0     H12878   1.360   3.655   9.138  0.3486 -0.2543  1.8657
  818MOL0     H12879   1.393   3.806   9.086  2.0430 -2.5939 -1.3939
  818MOL0     H12880   1.057   3.889   9.325  0.0585  1.8300 -0.4198
  818MOL0     H12881   1.126   3.843   9.706 -1.8465 -0.2740  1.9324
  818MOL0     H12882   1.003   3.766  10.003 -1.6066 -0.6910 -0.1530
  818MOL0     H12883   1.013   3.939  10.000 -1.9946 -0.9608  0.7985
  818MOL0     H12884   0.969   3.844   9.850 -1.9420 -1.7887  1.2780
  819MOL0     O12885  10.912   2.207  11.126 -0.1981 -0.2642  0.0014
  819MOL0     C12886  10.828   2.135  11.184  0.0280 -0.1001  0.6030
  819MOL0     O12887  10.845   2.080  11.301 -0.2380  0.4513 -0.3570
  819MOL0     C12888  10.943   2.115  11.386  0.2116  0.5626 -0.1138
  819MOL0     C12889  11.039   2.027  11.420  0.5113  0.1568  0.9002
  819MOL0     C12890  11.139   2.055  11.517  0.3764  0.6358 -0.3225
  819MOL0     C12891  11.140   2.186  11.583 -1.0150 -0.8740 -0.1921
  819MOL0     O12892  11.233   2.230  11.674  0.2135  0.5032  0.5202
  819MOL0     C12893  11.341   2.137  11.703 -0.1561 -0.3335 -0.3066
  819MOL0     C12894  11.461   2.218  11.762  0.0078  0.1985 -0.7181
  819MOL0     C12895  11.561   2.283  11.674 -0.8254  1.0542  1.0021
  819MOL0     C12896  11.667   2.348  11.768 -0.4902 -0.8888 -0.8163
  819MOL0     C12897  11.787   2.399  11.682  0.0435 -0.3192 -0.1678
  819MOL0     C12898  11.886   2.474  11.771 -0.3317  0.3930 -0.1472
  819MOL0     C12899  12.018   2.500  11.700  0.1029 -0.0979 -0.5373
  819MOL0     C12900  12.123   2.575  11.783 -0.5381 -0.9692 -0.4230
  819MOL0     N12901  12.111   2.722  11.787 -1.1529 -0.1056  0.9036
  819MOL0     C12902  12.006   2.799  11.832  0.8817 -0.4515  0.6116
  819MOL0     C12903  12.051   2.930  11.827 -0.1365  0.2697 -1.3758
  819MOL0     C12904  11.975   3.048  11.878  0.2057  0.4584  0.2917
  819MOL0     C12905  11.923   3.130  11.764  0.0717  0.7176 -0.3944
  819MOL0     C12906  11.825   3.237  11.804  0.5695 -0.0369 -0.1840
  819MOL0     C12907  11.753   3.303  11.671 -0.3330 -0.4252 -0.0078
  819MOL0     O12908  11.844   3.360  11.580 -0.8342  0.2851  0.0421
  819MOL0     C12909  11.820   3.378  11.448 -0.5442 -1.5121  0.5264
  819MOL0     C12910  11.699   3.352  11.381  0.4168  1.1244  0.4485
  819MOL0     C12911  11.666   3.399  11.248 -0.1697  0.7410 -0.1649
  819MOL0     C12912  11.526   3.371  11.200 -0.1768 -0.5673  0.3184
  819MOL0     C12913  11.763   3.473  11.178  0.8175 -0.5655  0.2752
  819MOL0     C12914  11.718   3.566  11.062 -1.0998  0.4296  0.6056
  819MOL0     O12915  11.818   3.599  10.980 -0.3673 -0.4717 -0.0924
  819MOL0     C12916  11.795   3.705  10.901 -0.1958  0.0433  0.1315
  819MOL0     C12917  11.739   3.692  10.769  0.0212 -0.0100  0.0973
  819MOL0     C12918  11.712   3.804  10.690  0.0528  0.1366 -0.0913
  819MOL0     C12919  11.757   3.932  10.737  0.4647 -0.3360  0.0112
  819MOL0     O12920  11.721   4.039  10.661 -0.1053 -0.2210 -0.0720
  819MOL0     C12921  11.758   4.031  10.520  0.1831 -0.6695 -0.4876
  819MOL0     C12922  11.737   4.169  10.468  0.3185 -0.0686 -0.3237
  819MOL0     C12923  11.777   4.181  10.326 -0.1941 -0.5367 -0.2801
  819MOL0     C12924  11.856   4.317  10.293  0.5756 -0.2000  0.4393
  819MOL0     C12925  11.900   4.307  10.147  0.4612  0.9220  0.2875
  819MOL0     C12926  11.930   4.448  10.093 -1.7160  0.9918 -0.1110
  819MOL0     C12927  12.000   4.442   9.964  0.1694 -1.1373 -0.3984
  819MOL0     C12928  12.009   4.578   9.894  0.1725  0.2562  0.8388
  819MOL0    Cl12929  12.128   4.670   9.986  0.3793  0.8216  0.4508
  819MOL0     C12930  11.808   3.952  10.859 -0.2165  0.6240 -0.3157
  819MOL0     C12931  11.832   3.832  10.940  0.1635 -0.4526  0.8204
  819MOL0     O12932  11.604   3.596  11.045 -0.3891  0.1762  0.9795
  819MOL0     C12933  11.894   3.487  11.237  0.8248 -0.1807 -0.4181
  819MOL0     C12934  11.925   3.446  11.367  0.3317  0.1448 -0.6840
  819MOL0     N12935  12.182   2.927  11.775  0.1890 -0.6367  0.2681
  819MOL0     N12936  12.210   2.810  11.731 -0.0711  0.3193 -0.4362
  819MOL0     C12937  11.037   2.281  11.550 -0.8731  0.0142 -0.5652
  819MOL0     C12938  10.949   2.244  11.443 -0.1812  0.6665 -0.6684
  819MOL0     C12939  10.694   2.127  11.118  0.5847  0.1036  0.6695
  819MOL0     C12940  10.594   2.078  11.199 -0.6579  0.5604  0.7239
  819MOL0     C12941  10.461   2.083  11.165 -0.9086 -0.0071 -0.9669
  819MOL0     C12942  10.421   2.152  11.050 -0.6393  0.1322  0.4274
  819MOL0     O12943  10.289   2.152  11.013 -0.9702  0.0111 -0.0693
  819MOL0     C12944  10.242   2.220  10.896  0.2054  0.0559 -0.0949
  819MOL0     C12945  10.097   2.252  10.927 -0.3153 -0.3643 -0.1377
  819MOL0     C12946  10.003   2.260  10.803  0.1153 -0.5967 -0.6174
  819MOL0     C12947   9.960   2.135  10.730  0.7438  0.9646 -0.0050
  819MOL0     C12948   9.887   2.036  10.812  1.0522 -0.2929 -0.1402
  819MOL0     C12949   9.838   1.951  10.886 -0.0255  0.0121 -0.5209
  819MOL0     C12950  10.526   2.197  10.966 -0.1236 -0.0721 -0.2199
  819MOL0     C12951  10.662   2.192  10.997  0.9325 -0.2280 -0.0490
  819MOL0     C12952  10.748   2.259  10.897  0.2259  0.9830 -0.0134
  819MOL0     H12953  11.032   1.937  11.359 -2.9846  2.4492 -2.5131
  819MOL0     H12954  11.195   1.967  11.547 -2.8032 -2.2261 -2.1134
  819MOL0     H12955  11.382   2.091  11.613  1.8052 -1.9407  1.3086
  819MOL0     H12956  11.309   2.063  11.777 -2.0561 -0.5467 -1.2752
  819MOL0     H12957  11.425   2.284  11.843 -0.4611  0.5619 -1.2150
  819MOL0     H12958  11.519   2.137  11.807 -0.3322 -0.1262 -0.8612
  819MOL0     H12959  11.609   2.213  11.605  0.9795  1.5241  1.7388
  819MOL0     H12960  11.518   2.364  11.614 -0.6050  0.6649  0.2994
  819MOL0     H12961  11.626   2.428  11.831 -0.3914 -1.5570  0.1245
  819MOL0     H12962  11.712   2.275  11.835  1.3524 -0.2142 -1.2522
  819MOL0     H12963  11.760   2.468  11.602  1.6119  0.2123 -0.2649
  819MOL0     H12964  11.841   2.314  11.639 -0.9114 -2.7011  2.9236
  819MOL0     H12965  11.843   2.565  11.813 -1.0087 -0.2544  0.5842
  819MOL0     H12966  11.907   2.399  11.847  1.3532 -1.4473 -2.2772
  819MOL0     H12967  11.993   2.541  11.601  0.4769  0.2924 -0.4778
  819MOL0     H12968  12.066   2.406  11.671 -1.8456 -0.2501 -3.7032
  819MOL0     H12969  12.135   2.555  11.890  3.0779  0.9709 -0.3083
  819MOL0     H12970  12.221   2.555  11.740  0.6096 -1.1290  2.0501
  819MOL0     H12971  11.919   2.764  11.887 -0.5987 -0.9333 -1.8760
  819MOL0     H12972  12.042   3.108  11.940 -0.2039 -1.8458  3.2163
  819MOL0     H12973  11.887   3.018  11.936 -1.5333  0.7270 -2.0286
  819MOL0     H12974  12.014   3.176  11.723  1.4812 -1.7756 -0.2602
  819MOL0     H12975  11.883   3.062  11.688  0.4914  0.1215 -0.0881
  819MOL0     H12976  11.749   3.198  11.873 -0.6356  1.9699 -0.2703
  819MOL0     H12977  11.879   3.316  11.857  1.5964  0.6255 -2.1186
  819MOL0     H12978  11.704   3.218  11.623 -0.3893 -1.1383  1.2705
  819MOL0     H12979  11.683   3.382  11.699  0.8521  0.7028 -0.1610
  819MOL0     H12980  11.610   3.313  11.429  0.3239 -1.0389 -1.3159
  819MOL0     H12981  11.452   3.450  11.217 -0.0360  0.2391 -2.3522
  819MOL0     H12982  11.488   3.281  11.251  0.5490  0.4165  2.7348
  819MOL0     H12983  11.531   3.333  11.097 -1.7930 -1.6566  0.6002
  819MOL0     H12984  11.717   3.592  10.736 -0.1385  0.1751 -0.3590
  819MOL0     H12985  11.674   3.785  10.590  0.8197 -1.7334 -0.0579
  819MOL0     H12986  11.861   3.997  10.508  0.3368 -0.3558 -0.0671
  819MOL0     H12987  11.689   3.966  10.466 -1.1459  0.9469 -0.7951
  819MOL0     H12988  11.633   4.201  10.475  0.2661 -0.3342  0.1710
  819MOL0     H12989  11.797   4.234  10.532  1.2665 -2.7692  1.7612
  819MOL0     H12990  11.692   4.173  10.258  2.2772 -2.4365 -3.4141
  819MOL0     H12991  11.854   4.104  10.316  0.4041 -0.4775  2.7537
  819MOL0     H12992  11.946   4.330  10.354 -0.8055  1.6238  2.2287
  819MOL0     H12993  11.794   4.405  10.314  0.4413 -0.2304  0.1756
  819MOL0     H12994  11.990   4.245  10.146  0.5234  0.9347 -2.2170
  819MOL0     H12995  11.830   4.252  10.083  0.0110  0.1503  1.4204
  819MOL0     H12996  11.998   4.502  10.161 -1.5703  0.0044  0.5501
  819MOL0     H12997  11.832   4.493  10.077 -1.7691  1.4747  1.3818
  819MOL0     H12998  11.950   4.382   9.888  1.6637  1.5717 -3.8030
  819MOL0     H12999  12.100   4.400   9.981 -1.3327 -3.8177  2.7031
  819MOL0     H13000  11.916   4.635   9.886  0.7213  1.0198 -0.3646
  819MOL0     H13001  12.039   4.546   9.794 -0.4126  0.1737  0.6870
  819MOL0     H13002  11.840   4.048  10.896 -1.8872  0.4538  1.7658
  819MOL0     H13003  11.875   3.842  11.039 -1.3690  2.5749  1.2823
  819MOL0     H13004  11.959   3.553  11.182  1.1059 -0.5762 -0.5622
  819MOL0     H13005  12.024   3.473  11.404 -0.2798  0.7929  0.5355
  819MOL0     H13006  11.043   2.382  11.590 -1.0711 -0.7008  1.3707
  819MOL0     H13007  10.879   2.322  11.414 -1.5237 -0.5888 -0.9737
  819MOL0     H13008  10.605   2.023  11.292 -2.2859  1.1119  1.2736
  819MOL0     H13009  10.386   2.036  11.227  1.2420 -0.0585  1.7887
  819MOL0     H13010  10.290   2.317  10.882  1.5133 -0.7940 -2.1890
  819MOL0     H13011  10.242   2.162  10.803 -4.3697  0.4770 -0.5625
  819MOL0     H13012  10.089   2.346  10.983  0.8059 -0.2056 -0.2241
  819MOL0     H13013  10.060   2.170  10.989 -0.0229 -1.4241 -1.3177
  819MOL0     H13014   9.915   2.320  10.830  0.8228  0.3372 -0.3431
  819MOL0     H13015  10.059   2.316  10.729 -1.9659  1.2556 -0.8970
  819MOL0     H13016  10.046   2.078  10.695  1.4988  2.3237 -0.4165
  819MOL0     H13017   9.900   2.164  10.644 -0.5318  2.3016  1.2674
  819MOL0     H13018   9.811   1.876  10.958  2.6167 -0.6883 -0.1287
  819MOL0     H13019  10.507   2.235  10.866  1.9584  2.8569  0.3662
  819MOL0     H13020  10.709   2.256  10.795 -1.3177  3.0957  0.4253
  819MOL0     H13021  10.767   2.362  10.931  3.6618 -0.2419  2.3322
  819MOL0     H13022  10.851   2.222  10.901 -0.1396 -0.0119  2.7378
  820MOL0     O13023   3.741   2.603   5.300  0.0681 -0.4115 -0.8044
  820MOL0     C13024   3.758   2.623   5.423  0.4742 -0.0999  0.3744
  820MOL0     O13025   3.791   2.746   5.476  0.3703 -0.5692 -0.7508
  820MOL0     C13026   3.779   2.858   5.393 -0.0816  1.0030  0.0356
  820MOL0     C13027   3.887   2.949   5.408  0.4686  0.7825 -0.3889
  820MOL0     C13028   3.894   3.077   5.340  0.6151 -1.2772 -0.1486
  820MOL0     C13029   3.790   3.109   5.256 -0.6667 -1.0263 -0.3009
  820MOL0     O13030   3.777   3.229   5.188  0.6321 -0.2202 -0.1611
  820MOL0     C13031   3.900   3.293   5.145  1.2016  0.0582 -0.8146
  820MOL0     C13032   3.855   3.409   5.054  0.1818  0.5538 -1.2807
  820MOL0     C13033   3.979   3.481   5.002 -0.5123 -0.5742 -0.8714
  820MOL0     C13034   3.957   3.626   4.940  1.1747 -0.1539 -0.0529
  820MOL0     C13035   4.070   3.694   4.864 -0.0365 -0.8553  0.4700
  820MOL0     C13036   4.053   3.681   4.705 -0.7801  0.8175  0.0145
  820MOL0     C13037   4.164   3.758   4.635  0.1814  0.3579  0.3046
  820MOL0     C13038   4.274   3.677   4.571 -0.1484  0.0914 -0.1268
  820MOL0     N13039   4.323   3.571   4.658 -0.3113 -0.0006  0.1581
  820MOL0     C13040   4.393   3.598   4.773  0.0644  0.2393 -0.3512
  820MOL0     C13041   4.423   3.475   4.824 -0.0736 -0.5667 -0.8111
  820MOL0     C13042   4.483   3.455   4.956  0.1654  0.5966 -1.0834
  820MOL0     C13043   4.429   3.331   5.016 -0.0768 -0.1388 -0.4582
  820MOL0     C13044   4.467   3.304   5.155  0.0922 -0.7428 -0.5413
  820MOL0     C13045   4.615   3.345   5.190  0.0936 -0.1184 -0.1384
  820MOL0     O13046   4.646   3.294   5.319 -0.0291  0.3438  0.0350
  820MOL0     C13047   4.743   3.211   5.341  0.7387 -0.1659  0.5930
  820MOL0     C13048   4.734   3.151   5.466  0.8122  0.1657  0.0783
  820MOL0     C13049   4.830   3.062   5.503 -0.0450  0.2688  0.5680
  820MOL0     C13050   4.811   2.997   5.640  0.1471  0.8260 -0.1114
  820MOL0     C13051   4.939   3.026   5.408 -0.1361  0.4478 -0.1264
  820MOL0     C13052   5.043   2.924   5.449 -0.3338 -0.6106  0.2661
  820MOL0     O13053   5.093   2.857   5.339  0.3403 -0.7042 -0.1836
  820MOL0     C13054   5.163   2.747   5.370  1.0561 -0.2842  0.0535
  820MOL0     C13055   5.092   2.631   5.414 -0.3229  0.0354  0.1487
  820MOL0     C13056   5.165   2.515   5.437  0.1173 -0.3001 -0.9455
  820MOL0     C13057   5.312   2.518   5.438  0.3503 -0.0948 -0.1834
  820MOL0     O13058   5.377   2.404   5.479  0.0236 -0.5643 -0.4993
  820MOL0     C13059   5.349   2.281   5.423 -0.3335 -0.3382  0.1343
  820MOL0     C13060   5.411   2.174   5.524 -0.1427 -0.6998 -1.2102
  820MOL0     C13061   5.344   2.151   5.655 -0.3578 -0.5778  0.3364
  820MOL0     C13062   5.200   2.118   5.656  0.0074 -0.6084  0.9366
  820MOL0     C13063   5.153   2.093   5.800  0.2247  0.2614 -0.4224
  820MOL0     C13064   5.002   2.071   5.799 -1.1385  0.8552  0.0666
  820MOL0     C13065   4.965   2.018   5.932 -1.4752 -0.1597 -0.0968
  820MOL0     C13066   4.811   2.017   5.944 -0.7324  0.6025 -0.1866
  820MOL0    Cl13067   4.774   1.938   6.089 -0.0955 -0.1375  0.7291
  820MOL0     C13068   5.372   2.633   5.388  0.5149 -0.1221 -0.4524
  820MOL0     C13069   5.301   2.748   5.356  0.5159 -0.8960 -0.1817
  820MOL0     O13070   5.103   2.924   5.562  0.4468  0.1924  0.4361
  820MOL0     C13071   4.943   3.086   5.279 -0.7302 -0.2744 -0.3100
  820MOL0     C13072   4.854   3.189   5.259 -0.1125 -0.1436 -0.5785
  820MOL0     N13073   4.376   3.379   4.737 -0.0901  0.2954  0.4883
  820MOL0     N13074   4.308   3.439   4.652  0.0581 -0.0641  0.5473
  820MOL0     C13075   3.683   3.023   5.240 -0.3958  0.0638 -0.7976
  820MOL0     C13076   3.674   2.897   5.306 -0.7230  0.4207 -0.1536
  820MOL0     C13077   3.753   2.502   5.517 -0.5028 -0.0228 -0.2136
  820MOL0     C13078   3.803   2.527   5.649  0.4615 -0.3658  0.0054
  820MOL0     C13079   3.795   2.445   5.752 -0.6419 -0.1049  0.2995
  820MOL0     C13080   3.743   2.316   5.735 -0.6520 -0.2101 -0.3891
  820MOL0     O13081   3.718   2.232   5.834  0.2225 -0.5382 -0.0223
  820MOL0     C13082   3.668   2.297   5.950  0.6189  0.0494 -0.7630
  820MOL0     C13083   3.778   2.291   6.059  0.4473  0.6013 -0.4275
  820MOL0     C13084   3.843   2.158   6.083 -0.5595  0.1156  0.1915
  820MOL0     C13085   3.930   2.167   6.210 -0.0738 -0.3087 -0.1141
  820MOL0     C13086   3.997   2.035   6.192  0.3645  0.0265  0.1223
  820MOL0     C13087   4.036   1.923   6.176  0.0129  0.5211 -0.8083
  820MOL0     C13088   3.715   2.276   5.600  0.9457 -0.6491  0.3096
  820MOL0     C13089   3.720   2.368   5.491  0.0576 -0.0939 -0.0815
  820MOL0     C13090   3.692   2.305   5.356  0.7493 -0.4658 -0.0178
  820MOL0     H13091   3.969   2.919   5.473  2.1158  0.2328 -2.6092
  820MOL0     H13092   3.975   3.145   5.366 -1.6309  1.0147  1.3426
  820MOL0     H13093   3.965   3.220   5.095  1.0181 -0.6585 -0.0317
  820MOL0     H13094   3.959   3.314   5.235 -1.2610 -1.4324  1.3024
  820MOL0     H13095   3.792   3.379   4.970 -2.4699 -1.5242  1.2206
  820MOL0     H13096   3.788   3.468   5.118  0.9451  1.1019 -0.9784
  820MOL0     H13097   4.053   3.484   5.083 -0.6428  1.8407 -0.7700
  820MOL0     H13098   4.025   3.419   4.925  1.2093 -1.5153  0.8124
  820MOL0     H13099   3.873   3.616   4.870  2.3274 -2.0305 -1.2408
  820MOL0     H13100   3.940   3.691   5.026 -0.3238 -0.1710 -0.2992
  820MOL0     H13101   4.167   3.657   4.897 -0.3089 -0.5600  1.6308
  820MOL0     H13102   4.076   3.799   4.894  1.0761 -0.2708 -1.5734
  820MOL0     H13103   4.055   3.575   4.677  2.1747  0.5737  0.8053
  820MOL0     H13104   3.962   3.730   4.669 -1.3753  0.0251  0.4245
  820MOL0     H13105   4.204   3.837   4.699 -1.1655 -0.4104  2.1798
  820MOL0     H13106   4.135   3.815   4.546  0.0401  0.1110  0.1923
  820MOL0     H13107   4.235   3.630   4.480  1.6138 -1.7915  0.0226
  820MOL0     H13108   4.352   3.740   4.528 -3.1424  2.7300 -2.2138
  820MOL0     H13109   4.396   3.693   4.826 -1.1359  0.6865 -1.0217
  820MOL0     H13110   4.451   3.536   5.023 -2.6556 -0.7301 -0.6917
  820MOL0     H13111   4.592   3.468   4.951  0.9759 -3.8652  0.4439
  820MOL0     H13112   4.322   3.314   5.001  0.3452 -2.2953 -1.3918
  820MOL0     H13113   4.472   3.255   4.951  0.1643  0.1988 -0.7015
  820MOL0     H13114   4.402   3.364   5.219  1.2657  0.9811 -0.8984
  820MOL0     H13115   4.452   3.199   5.183 -0.6775 -0.2250  1.1369
  820MOL0     H13116   4.690   3.313   5.117  2.4464 -1.9507  2.7980
  820MOL0     H13117   4.609   3.452   5.207 -3.9304 -0.1658 -0.3508
  820MOL0     H13118   4.658   3.189   5.534 -0.4966 -0.8420 -0.7629
  820MOL0     H13119   4.730   3.045   5.696  1.3647  0.7569  1.8034
  820MOL0     H13120   4.898   3.008   5.705 -0.2371  0.5012  0.4675
  820MOL0     H13121   4.791   2.890   5.628 -5.4067  1.7435 -1.7087
  820MOL0     H13122   4.986   2.645   5.432 -1.0012  2.9483 -4.5660
  820MOL0     H13123   5.111   2.430   5.478 -0.2635  0.9388  1.2949
  820MOL0     H13124   5.242   2.259   5.425 -0.8528  1.8546 -0.6263
  820MOL0     H13125   5.381   2.276   5.318 -3.6787 -1.2320 -0.9627
  820MOL0     H13126   5.433   2.075   5.482  0.8578 -0.7710 -0.5550
  820MOL0     H13127   5.509   2.214   5.552 -0.6576  0.1281 -0.5524
  820MOL0     H13128   5.363   2.238   5.718 -0.0272 -0.7940  0.5366
  820MOL0     H13129   5.403   2.075   5.707 -0.1603 -0.0541  0.8797
  820MOL0     H13130   5.178   2.035   5.589 -1.2219  0.2540  0.2316
  820MOL0     H13131   5.143   2.207   5.627  4.1454  1.5814 -1.4269
  820MOL0     H13132   5.213   2.009   5.837 -0.0563 -1.4153 -3.4588
  820MOL0     H13133   5.173   2.182   5.859 -1.6839  0.5438 -0.1322
  820MOL0     H13134   4.970   2.001   5.721  0.8687  0.5602 -0.5440
  820MOL0     H13135   4.951   2.168   5.791  1.8629  2.4220 -2.2423
  820MOL0     H13136   5.009   2.077   6.013  0.0804 -1.2050 -0.1328
  820MOL0     H13137   5.001   1.914   5.927  1.2468  0.7053  0.0154
  820MOL0     H13138   4.780   1.960   5.856  0.8957 -2.7660  1.2237
  820MOL0     H13139   4.774   2.120   5.947 -0.8432  0.5594 -0.0675
  820MOL0     H13140   5.481   2.634   5.390  0.6377 -0.0013 -3.2761
  820MOL0     H13141   5.365   2.833   5.333 -2.6863  0.9413 -3.1378
  820MOL0     H13142   5.028   3.074   5.211 -1.7569  1.6709 -2.0604
  820MOL0     H13143   4.863   3.253   5.172 -1.1566  2.4964  1.1250
  820MOL0     H13144   3.598   3.058   5.183 -0.2060  0.2756 -0.9535
  820MOL0     H13145   3.587   2.834   5.291  0.0726 -0.0758 -3.7014
  820MOL0     H13146   3.823   2.632   5.666  0.2738 -0.1408 -1.1273
  820MOL0     H13147   3.833   2.485   5.845  4.1330 -1.7616 -0.6182
  820MOL0     H13148   3.630   2.399   5.946  2.2527  0.7573  0.7339
  820MOL0     H13149   3.590   2.236   5.998  0.5467  2.3332  2.2693
  820MOL0     H13150   3.723   2.329   6.145 -1.0209  0.8049 -1.4219
  820MOL0     H13151   3.848   2.372   6.037 -2.3640  2.6160 -2.8643
  820MOL0     H13152   3.765   2.083   6.098  1.8543 -2.4947  0.6176
  820MOL0     H13153   3.885   2.112   5.993 -0.1173  0.4188  0.2371
  820MOL0     H13154   3.861   2.166   6.295  0.9912 -1.6062  0.7731
  820MOL0     H13155   4.002   2.248   6.213  1.1065 -1.3695  1.1853
  820MOL0     H13156   4.070   1.823   6.159 -3.3534 -0.5240 -2.2412
  820MOL0     H13157   3.690   2.173   5.574  0.7939 -0.3322 -0.8299
  820MOL0     H13158   3.772   2.325   5.284 -1.0392 -0.5968 -2.1382
  820MOL0     H13159   3.677   2.197   5.353 -1.4902 -0.1916 -0.6544
  820MOL0     H13160   3.601   2.354   5.319 -0.2866 -3.9425 -2.6221
  821MOL0     O13161   1.526  10.969  10.724 -0.2212 -0.1896  0.7288
  821MOL0     C13162   1.416  10.997  10.685 -0.2167  0.1499  0.3624
  821MOL0     O13163   1.367  10.974  10.560  0.3713  0.0326 -0.9215
  821MOL0     C13164   1.430  10.888  10.474  0.8270  0.1766 -0.1603
  821MOL0     C13165   1.372  10.771  10.424 -0.1894  0.1743  0.1303
  821MOL0     C13166   1.440  10.692  10.326 -0.7595  0.0057 -0.2836
  821MOL0     C13167   1.563  10.728  10.275  0.0725 -0.1491 -0.0198
  821MOL0     O13168   1.635  10.651  10.184 -0.4860 -0.1563  0.4454
  821MOL0     C13169   1.578  10.533  10.127  0.4175 -0.1093  0.2918
  821MOL0     C13170   1.681  10.462  10.044 -0.1331  0.2246  0.6700
  821MOL0     C13171   1.622  10.343   9.982 -0.3061 -0.1048  0.5271
  821MOL0     C13172   1.725  10.282   9.888 -0.4620  0.3424 -0.2790
  821MOL0     C13173   1.667  10.158   9.816 -0.2620 -0.8695  0.3012
  821MOL0     C13174   1.693  10.038   9.896  0.0328  0.3825 -0.0108
  821MOL0     C13175   1.642   9.918   9.815 -0.6102 -0.2084  0.2814
  821MOL0     C13176   1.656   9.785   9.897 -1.4626  1.0596  0.0063
  821MOL0     N13177   1.574   9.762  10.019  0.6176  0.1627 -0.1974
  821MOL0     C13178   1.436   9.792  10.018 -0.4297 -0.5095  0.8984
  821MOL0     C13179   1.374   9.729  10.125 -0.0639  0.1227 -0.5750
  821MOL0     C13180   1.233   9.728  10.164  0.6513 -0.0578 -0.0283
  821MOL0     C13181   1.152   9.846  10.118 -0.0106  1.3348  0.4355
  821MOL0     C13182   1.002   9.824  10.155  0.0743  0.0845  0.4394
  821MOL0     C13183   0.985   9.843  10.308  0.4213 -0.7627 -0.3032
  821MOL0     O13184   0.850   9.804  10.334  0.5788  0.6449  0.1845
  821MOL0     C13185   0.741   9.874  10.311 -0.0608 -0.1208 -0.1190
  821MOL0     C13186   0.744   9.999  10.246 -0.1694  0.5949  0.0067
  821MOL0     C13187   0.632  10.081  10.227  0.3457 -0.6567 -0.1680
  821MOL0     C13188   0.652  10.219  10.162 -0.9362 -0.4397  0.0727
  821MOL0     C13189   0.503  10.025  10.260  0.1877 -0.3917 -0.1875
  821MOL0     C13190   0.370  10.102  10.243 -0.8331 -0.4992 -0.7021
  821MOL0     O13191   0.264  10.082  10.332  0.3525 -0.3720  0.2366
  821MOL0     C13192   0.152  10.159  10.291 -0.2577  0.3947 -0.2309
  821MOL0     C13193   0.066  10.102  10.193  1.1372 -0.2539 -1.3785
  821MOL0     C13194  -0.043  10.187  10.149  0.3396 -0.2836 -0.0060
  821MOL0     C13195  -0.060  10.310  10.194  0.2419 -0.7236 -0.1593
  821MOL0     O13196  -0.176  10.375  10.156 -0.3476  0.1811  0.1419
  821MOL0     C13197  -0.204  10.509  10.201 -0.1381 -0.1479  1.1885
  821MOL0     C13198  -0.321  10.566  10.126  0.2677 -0.8221  0.1481
  821MOL0     C13199  -0.372  10.702  10.175  0.0409  0.3873 -0.0063
  821MOL0     C13200  -0.440  10.683  10.313 -0.6786 -0.1502 -0.3277
  821MOL0     C13201  -0.355  10.720  10.433  0.7174  0.1936 -0.2318
  821MOL0     C13202  -0.433  10.754  10.559  0.7100  0.2095  0.6070
  821MOL0     C13203  -0.336  10.787  10.684 -0.6895  0.6010  0.7421
  821MOL0     C13204  -0.407  10.892  10.774 -0.5554 -0.2842 -0.1445
  821MOL0    Cl13205  -0.337  10.898  10.944  0.5790  0.3078  0.1709
  821MOL0     C13206   0.022  10.358  10.297 -0.2944 -0.4430 -0.0746
  821MOL0     C13207   0.126  10.281  10.341  0.0721 -0.4033 -0.5402
  821MOL0     O13208   0.370  10.175  10.142  0.6849  0.2623 -0.0518
  821MOL0     C13209   0.503   9.898  10.328 -0.1619  0.4509  0.4153
  821MOL0     C13210   0.615   9.830  10.355  0.7803 -0.2731 -0.5198
  821MOL0     N13211   1.478   9.657  10.184 -0.3283 -0.5111  0.5420
  821MOL0     N13212   1.593   9.688  10.124  0.7383 -0.1350 -0.7753
  821MOL0     C13213   1.622  10.845  10.324  0.0399  0.1081 -0.6120
  821MOL0     C13214   1.560  10.921  10.422  1.0450 -0.6271 -0.0211
  821MOL0     C13215   1.319  11.048  10.788  0.2440 -0.0839  0.2653
  821MOL0     C13216   1.372  11.117  10.896 -0.4897  0.1073 -0.4956
  821MOL0     C13217   1.291  11.188  10.985 -0.5860  0.6491  0.1454
  821MOL0     C13218   1.149  11.171  10.979 -0.2290  0.2930 -0.1678
  821MOL0     O13219   1.072  11.238  11.062 -0.4946  0.2919  0.0088
  821MOL0     C13220   1.123  11.321  11.174  0.2432 -0.0504 -0.2267
  821MOL0     C13221   1.016  11.357  11.269  0.8580 -1.2362 -0.1550
  821MOL0     C13222   0.912  11.451  11.203 -0.7292  0.5365 -0.2967
  821MOL0     C13223   0.798  11.476  11.303  0.3041  0.1204  0.8505
  821MOL0     C13224   0.840  11.571  11.402 -0.6455  0.4130 -0.4893
  821MOL0     C13225   0.885  11.658  11.475  1.0345 -0.3511 -0.1847
  821MOL0     C13226   1.094  11.090  10.882 -0.7092  0.0938 -0.6326
  821MOL0     C13227   1.177  11.027  10.787  0.3115 -0.8444  0.5823
  821MOL0     C13228   1.096  10.941  10.696 -0.3111  1.0288 -0.1552
  821MOL0     H13229   1.271  10.741  10.449  0.3935 -1.3011  0.7947
  821MOL0     H13230   1.365  10.623  10.287 -3.6711  3.1652 -0.7370
  821MOL0     H13231   1.491  10.565  10.069 -0.9622 -4.6280 -0.5140
  821MOL0     H13232   1.540  10.468  10.207  1.2399  0.0696  0.8388
  821MOL0     H13233   1.711  10.531   9.965 -0.9672  2.0169  1.8374
  821MOL0     H13234   1.773  10.438  10.098 -1.0108 -2.0536  1.2614
  821MOL0     H13235   1.604  10.264  10.055  2.3135 -3.2122 -1.8967
  821MOL0     H13236   1.528  10.364   9.931  0.8541  0.6951 -1.3965
  821MOL0     H13237   1.743  10.358   9.812  1.7571 -0.9900 -1.1918
  821MOL0     H13238   1.816  10.261   9.946 -1.6520  0.3551  1.7104
  821MOL0     H13239   1.703  10.152   9.713  0.8063  0.1759  0.6017
  821MOL0     H13240   1.558  10.173   9.821 -0.2336  1.8540 -3.1480
  821MOL0     H13241   1.801  10.031   9.909  0.3982 -3.2891 -3.4282
  821MOL0     H13242   1.638  10.048   9.991 -0.5731  1.4554 -0.4553
  821MOL0     H13243   1.691   9.924   9.717 -0.0179  3.5661  0.6745
  821MOL0     H13244   1.537   9.934   9.790 -0.6657  0.0623  0.6786
  821MOL0     H13245   1.632   9.707   9.825  1.1676  1.7581 -1.7826
  821MOL0     H13246   1.759   9.766   9.931 -1.2867  1.3537 -0.3568
  821MOL0     H13247   1.393   9.859   9.944  0.0120 -0.5247  0.6236
  821MOL0     H13248   1.225   9.733  10.273  0.4943  2.1030 -0.0839
  821MOL0     H13249   1.179   9.640  10.129 -1.2400  1.0422 -0.0533
  821MOL0     H13250   1.188   9.942  10.157  1.6631  0.2441  1.7619
  821MOL0     H13251   1.169   9.840  10.010  0.2267 -0.4478  0.5540
  821MOL0     H13252   0.935   9.886  10.094 -1.5206 -2.3957 -0.5085
  821MOL0     H13253   0.966   9.725  10.127  1.5792 -0.0425 -1.2379
  821MOL0     H13254   1.060   9.793  10.371 -1.1878 -2.3198  0.4478
  821MOL0     H13255   0.992   9.949  10.335 -3.4195  0.0583 -1.9436
  821MOL0     H13256   0.832  10.036  10.194 -1.2713 -0.4477 -2.8470
  821MOL0     H13257   0.754  10.256  10.172 -1.5121  1.3691 -0.2349
  821MOL0     H13258   0.594  10.294  10.217 -1.2348  1.0085 -2.0708
  821MOL0     H13259   0.611  10.222  10.060 -2.2971 -0.9462  0.5909
  821MOL0     H13260   0.070  10.004  10.147 -0.3865 -2.2315  2.3382
  821MOL0     H13261  -0.115  10.151  10.076  2.6801 -1.4249 -1.8988
  821MOL0     H13262  -0.228  10.503  10.307  1.2710  0.4951  1.5793
  821MOL0     H13263  -0.122  10.581  10.183 -0.9916  0.6139  0.2270
  821MOL0     H13264  -0.298  10.578  10.020  2.5036  1.3766  0.8027
  821MOL0     H13265  -0.408  10.500  10.124 -0.9482  0.7426 -1.0626
  821MOL0     H13266  -0.447  10.728  10.099 -0.0272  1.3361  0.3800
  821MOL0     H13267  -0.295  10.779  10.184  3.5115 -2.9813  2.1570
  821MOL0     H13268  -0.478  10.582  10.330  1.6149 -0.6634  2.4407
  821MOL0     H13269  -0.526  10.750  10.316  0.4983  1.3952 -0.1845
  821MOL0     H13270  -0.299  10.629  10.458 -0.4341 -0.2028  0.9850
  821MOL0     H13271  -0.289  10.800  10.399  2.2536 -1.0238 -0.2086
  821MOL0     H13272  -0.504  10.674  10.581 -1.3303  2.5656  3.3964
  821MOL0     H13273  -0.503  10.835  10.538 -0.0029 -0.7634 -0.8941
  821MOL0     H13274  -0.244  10.829  10.642 -1.1765  0.7877 -0.1500
  821MOL0     H13275  -0.311  10.698  10.743  0.0552 -0.6090 -1.2874
  821MOL0     H13276  -0.514  10.871  10.785 -0.3418 -2.6256 -1.7840
  821MOL0     H13277  -0.401  10.991  10.727 -0.0017  0.5639  1.6340
  821MOL0     H13278   0.010  10.457  10.340 -1.1255 -0.3636 -0.4738
  821MOL0     H13279   0.193  10.333  10.407 -2.2595  6.9984 -3.0213
  821MOL0     H13280   0.406   9.854  10.350  0.7899 -1.1256  1.6313
  821MOL0     H13281   0.591   9.741  10.413 -1.4217  0.1622 -0.7026
  821MOL0     H13282   1.725  10.870  10.301 -0.0687  2.8095  1.3908
  821MOL0     H13283   1.614  11.007  10.461 -0.8519  1.0085 -0.8052
  821MOL0     H13284   1.479  11.118  10.911 -0.3008 -0.7573 -1.6942
  821MOL0     H13285   1.336  11.249  11.062 -2.5241  1.1058  0.9807
  821MOL0     H13286   1.206  11.268  11.220 -0.7237 -1.0392  0.4270
  821MOL0     H13287   1.156  11.415  11.129 -3.1788  1.4237  0.0221
  821MOL0     H13288   1.054  11.408  11.358 -1.3807  0.1894  0.0619
  821MOL0     H13289   0.957  11.270  11.299 -3.9476  1.9279  0.7122
  821MOL0     H13290   0.960  11.544  11.174 -0.9616  1.7225  2.7388
  821MOL0     H13291   0.866  11.391  11.123 -1.6462  0.2480  0.4260
  821MOL0     H13292   0.760  11.385  11.349  0.2414  1.4631  3.7001
  821MOL0     H13293   0.711  11.515  11.249 -0.1806  2.7550  3.3154
  821MOL0     H13294   0.931  11.742  11.523  0.7235 -0.5983  0.5699
  821MOL0     H13295   0.993  11.056  10.898 -0.9544  0.8219 -0.5956
  821MOL0     H13296   1.011  10.892  10.744 -0.7273  1.1834 -0.7225
  821MOL0     H13297   1.058  11.000  10.612  1.6468 -0.5984 -2.3151
  821MOL0     H13298   1.142  10.848  10.664  1.4845  1.7863  0.1215
  822MOL0     O13299   2.862   9.700  10.504  0.6914 -0.6458  0.3586
  822MOL0     C13300   2.782   9.644  10.578  0.8545  0.3127  0.6189
  822MOL0     O13301   2.823   9.540  10.656  0.1216  0.7341  1.4640
  822MOL0     C13302   2.943   9.482  10.631 -1.5059  0.8607 -0.4137
  822MOL0     C13303   3.068   9.546  10.641  0.5183  0.0168  0.8713
  822MOL0     C13304   3.183   9.481  10.619 -0.0966  0.0169  0.9365
  822MOL0     C13305   3.184   9.344  10.578 -0.0848  0.0534 -1.1685
  822MOL0     O13306   3.290   9.266  10.558  0.0745 -0.1385 -0.0039
  822MOL0     C13307   3.418   9.327  10.580 -0.3134 -0.1555  0.3473
  822MOL0     C13308   3.463   9.399  10.454  0.0415 -0.4565  0.6696
  822MOL0     C13309   3.602   9.457  10.472 -0.4343 -0.2538  0.6111
  822MOL0     C13310   3.674   9.500  10.346  0.3011  0.8165  0.6013
  822MOL0     C13311   3.812   9.567  10.369  0.4765  0.2564 -0.6083
  822MOL0     C13312   3.901   9.571  10.236  0.4539  1.2004  0.0967
  822MOL0     C13313   3.884   9.691  10.141  0.0270  0.4036 -0.8815
  822MOL0     C13314   3.937   9.649  10.000 -0.1892 -0.1015 -0.0491
  822MOL0     N13315   4.069   9.573  10.000 -0.5555 -0.2098  0.0065
  822MOL0     C13316   4.094   9.437  10.009 -0.7050  0.4959 -0.3313
  822MOL0     C13317   4.234   9.420  10.006  0.5139 -0.7752 -0.1508
  822MOL0     C13318   4.303   9.297  10.017 -0.5065  0.2232  0.2544
  822MOL0     C13319   4.292   9.228  10.154  0.1400 -0.6605  0.0756
  822MOL0     C13320   4.371   9.308  10.265  0.6758 -0.1556  0.3651
  822MOL0     C13321   4.275   9.419  10.326  0.5583 -0.0137 -0.8975
  822MOL0     O13322   4.293   9.399  10.473  0.4664 -0.5009 -0.2570
  822MOL0     C13323   4.398   9.450  10.547  0.1000  0.6977  0.0865
  822MOL0     C13324   4.459   9.569  10.518  0.0657 -0.6624 -0.2294
  822MOL0     C13325   4.580   9.612  10.580  0.8367 -1.1617  0.2634
  822MOL0     C13326   4.642   9.743  10.535 -0.5017 -0.3702  0.2587
  822MOL0     C13327   4.639   9.527  10.677  0.4123 -0.1763  0.0382
  822MOL0     C13328   4.766   9.567  10.736  0.0722  0.3864 -0.6945
  822MOL0     O13329   4.752   9.650  10.843 -0.0817 -0.4437  0.1280
  822MOL0     C13330   4.868   9.721  10.883  0.0420 -0.4722  0.0907
  822MOL0     C13331   4.946   9.790  10.783  0.0608  0.1591 -0.2176
  822MOL0     C13332   5.068   9.854  10.815  0.3991  0.8799  0.3867
  822MOL0     C13333   5.119   9.852  10.938  0.4216 -0.1733 -0.1354
  822MOL0     O13334   5.241   9.910  10.979  0.2967  0.0462 -0.2915
  822MOL0     C13335   5.344   9.944  10.882 -0.5196  0.9554  0.0527
  822MOL0     C13336   5.452  10.033  10.942  0.8130  0.3598 -0.1838
  822MOL0     C13337   5.496   9.975  11.076 -0.1670 -0.2030 -0.2469
  822MOL0     C13338   5.591  10.069  11.149 -1.0061 -0.5044  0.4005
  822MOL0     C13339   5.531  10.207  11.175  0.9022  0.1476 -0.1762
  822MOL0     C13340   5.399  10.192  11.241  0.8213  0.8195 -0.4281
  822MOL0     C13341   5.360  10.328  11.300  0.0480 -0.2330  0.4799
  822MOL0     C13342   5.263  10.324  11.430  0.2844 -0.0607  0.1910
  822MOL0    Cl13343   5.228  10.500  11.473 -0.0411  0.3659  0.2697
  822MOL0     C13344   5.053   9.780  11.040 -0.4308  0.4546  0.0377
  822MOL0     C13345   4.923   9.727  11.012 -0.6773  1.0352 -0.2587
  822MOL0     O13346   4.877   9.530  10.697  0.4523  0.4558  0.2602
  822MOL0     C13347   4.565   9.410  10.719 -0.4498 -0.0120  0.0902
  822MOL0     C13348   4.446   9.387  10.657  0.7937  0.1547  0.3991
  822MOL0     N13349   4.287   9.548  10.000  0.3823  0.3793 -0.5351
  822MOL0     N13350   4.189   9.635   9.985  0.2392 -0.1961  0.0438
  822MOL0     C13351   3.068   9.274  10.560 -0.6746 -0.9065 -0.8304
  822MOL0     C13352   2.946   9.347  10.585 -0.8259 -0.8972 -0.2967
  822MOL0     C13353   2.644   9.686  10.596  0.4274 -0.4981 -0.2575
  822MOL0     C13354   2.543   9.585  10.613  0.7069 -1.1184 -0.2674
  822MOL0     C13355   2.416   9.628  10.653 -0.8196  0.6565  0.9810
  822MOL0     C13356   2.377   9.759  10.654 -0.0909 -0.8033  0.4768
  822MOL0     O13357   2.252   9.809  10.683 -0.5389 -0.3348 -0.4093
  822MOL0     C13358   2.142   9.722  10.670  0.0814  0.4132 -1.0067
  822MOL0     C13359   2.094   9.682  10.820  0.3740 -0.1964  0.1836
  822MOL0     C13360   2.010   9.553  10.804 -0.1236  0.2678 -0.4053
  822MOL0     C13361   1.933   9.527  10.937  0.1881  1.0378  0.7210
  822MOL0     C13362   2.004   9.511  11.062 -0.6371  0.7406 -0.4570
  822MOL0     C13363   2.059   9.486  11.168  0.4281 -0.0882 -0.4677
  822MOL0     C13364   2.475   9.853  10.622 -0.4590  0.4301  0.1192
  822MOL0     C13365   2.604   9.824  10.589  0.4600  0.3121 -0.0999
  822MOL0     C13366   2.700   9.936  10.557 -0.5617 -0.6782  0.4276
  822MOL0     H13367   3.062   9.652  10.664  0.1277  0.2859 -0.3650
  822MOL0     H13368   3.276   9.530  10.647  0.4157 -1.3695  1.7397
  822MOL0     H13369   3.499   9.257  10.604  0.8919  0.8627 -0.5541
  822MOL0     H13370   3.417   9.399  10.662  0.5068  0.9276 -0.5433
  822MOL0     H13371   3.468   9.329  10.370  1.6362  0.9970 -0.5195
  822MOL0     H13372   3.397   9.480  10.421  0.7227 -0.2521 -0.2459
  822MOL0     H13373   3.582   9.552  10.522 -0.1244  0.4885 -0.6324
  822MOL0     H13374   3.659   9.389  10.536 -0.8057 -1.8801 -0.7169
  822MOL0     H13375   3.685   9.403  10.298 -1.4819 -0.3860  2.4894
  822MOL0     H13376   3.599   9.551  10.285  0.9361  1.3629  0.2604
  822MOL0     H13377   3.860   9.535  10.462 -0.4026  2.6293  0.7454
  822MOL0     H13378   3.802   9.672  10.394 -1.0602 -0.2341  1.0067
  822MOL0     H13379   4.010   9.569  10.248  1.0581  3.3242 -3.5273
  822MOL0     H13380   3.869   9.478  10.189 -1.1950  2.0084 -0.4764
  822MOL0     H13381   3.936   9.779  10.179  0.7089 -0.4650  0.2867
  822MOL0     H13382   3.776   9.702  10.130 -0.5826 -0.6438  2.7150
  822MOL0     H13383   3.868   9.575   9.959  0.6712 -1.1617  0.3686
  822MOL0     H13384   3.949   9.744   9.947  2.0014  1.0325  2.2618
  822MOL0     H13385   4.011   9.368  10.017 -1.2660  1.3739  2.7230
  822MOL0     H13386   4.403   9.310   9.976 -0.2857 -1.6985  0.0843
  822MOL0     H13387   4.257   9.222   9.952 -1.4231  0.5298  0.5350
  822MOL0     H13388   4.193   9.204  10.193 -0.3051  2.1518  0.9346
  822MOL0     H13389   4.338   9.129  10.156 -0.5052 -0.9961 -0.9016
  822MOL0     H13390   4.407   9.238  10.341  0.8479 -0.2880  0.1621
  822MOL0     H13391   4.456   9.350  10.212 -0.7671  2.9184  0.2443
  822MOL0     H13392   4.315   9.515  10.293 -1.0849  0.1927 -2.4519
  822MOL0     H13393   4.168   9.416  10.300  0.1461 -0.5072  0.7488
  822MOL0     H13394   4.423   9.638  10.443  0.1690  0.1910  0.4870
  822MOL0     H13395   4.717   9.720  10.459  0.1844  3.2250 -0.3398
  822MOL0     H13396   4.689   9.782  10.626 -0.3358 -2.0789  0.9382
  822MOL0     H13397   4.574   9.814  10.487  1.6611  1.6448 -0.0380
  822MOL0     H13398   4.908   9.800  10.682 -2.3872  0.1611  0.6541
  822MOL0     H13399   5.125   9.904  10.737 -0.6823 -1.6251 -2.1847
  822MOL0     H13400   5.400   9.852  10.862 -1.6760  0.3556 -0.5188
  822MOL0     H13401   5.310   9.991  10.790 -0.9645 -1.4034 -1.0511
  822MOL0     H13402   5.534  10.046  10.871  0.8601  3.3932  0.3014
  822MOL0     H13403   5.410  10.133  10.954 -0.2430  0.0492 -1.1066
  822MOL0     H13404   5.536   9.874  11.060 -2.2058 -1.1649  0.3964
  822MOL0     H13405   5.407   9.959  11.137 -0.3663  1.9296  0.0818
  822MOL0     H13406   5.681  10.079  11.087 -0.8091  0.3500  0.8257
  822MOL0     H13407   5.619  10.020  11.243  0.6287  0.7612  0.6223
  822MOL0     H13408   5.600  10.253  11.246  0.4798  0.9010 -0.2523
  822MOL0     H13409   5.529  10.267  11.084 -1.8264  0.5617  0.0906
  822MOL0     H13410   5.405  10.114  11.318 -0.5003  1.2782  0.1775
  822MOL0     H13411   5.316  10.164  11.175  1.0768  1.5773 -1.0844
  822MOL0     H13412   5.320  10.392  11.220  2.5901 -0.1434 -0.8313
  822MOL0     H13413   5.454  10.371  11.334 -1.2361  0.9149  2.7830
  822MOL0     H13414   5.314  10.281  11.517 -1.9203  0.6825  1.9831
  822MOL0     H13415   5.171  10.267  11.415  0.0891 -0.7870  3.4427
  822MOL0     H13416   5.100   9.768  11.137 -0.1257 -0.6911 -0.2343
  822MOL0     H13417   4.855   9.683  11.085  1.5720 -1.9945  0.1915
  822MOL0     H13418   4.607   9.346  10.795 -1.2643 -2.2145 -1.2119
  822MOL0     H13419   4.385   9.305  10.692  2.0311 -0.8990  0.1651
  822MOL0     H13420   3.071   9.170  10.527  0.0247 -0.5807 -1.8190
  822MOL0     H13421   2.844   9.312  10.570 -2.3663  3.2298 -0.7595
  822MOL0     H13422   2.556   9.478  10.620  0.2933 -1.1701 -0.2525
  822MOL0     H13423   2.353   9.544  10.678  2.6644 -1.9290  1.8140
  822MOL0     H13424   2.060   9.772  10.618 -2.0042 -0.1641  1.4703
  822MOL0     H13425   2.176   9.632  10.619  3.2879  0.0458  1.4129
  822MOL0     H13426   2.044   9.766  10.868 -0.2955 -1.8381  2.5406
  822MOL0     H13427   2.181   9.653  10.880 -0.2123 -0.0098  1.1436
  822MOL0     H13428   1.940   9.566  10.721  1.2310 -0.2706 -1.6757
  822MOL0     H13429   2.069   9.467  10.774  3.9760  2.6449  0.0835
  822MOL0     H13430   1.870   9.439  10.923  0.9773  0.4412  0.8602
  822MOL0     H13431   1.869   9.615  10.947  2.1026  2.4677  1.0193
  822MOL0     H13432   2.093   9.468  11.268 -0.2187  1.3741  0.0455
  822MOL0     H13433   2.432   9.952  10.617 -3.6845 -0.7532  1.5334
  822MOL0     H13434   2.759   9.912  10.468 -1.9275  1.1521 -1.0271
  822MOL0     H13435   2.662  10.036  10.537  0.9556  0.7528  3.7948
  822MOL0     H13436   2.776   9.950  10.635 -3.7083  1.1273  3.4884
  823MOL0     O13437  10.847   2.394   6.721 -0.8828  0.0326  0.2733
  823MOL0     C13438  10.903   2.498   6.753 -0.2444  0.2107 -0.2935
  823MOL0     O13439  10.845   2.618   6.758 -0.3292 -0.0276 -0.2512
  823MOL0     C13440  10.720   2.620   6.703 -0.5529  0.2900 -0.0537
  823MOL0     C13441  10.694   2.659   6.576 -0.1928 -1.0856  0.0671
  823MOL0     C13442  10.563   2.672   6.530  0.1254 -0.0442  0.5684
  823MOL0     C13443  10.458   2.639   6.609  0.3222  0.2281  0.0565
  823MOL0     O13444  10.327   2.655   6.555 -0.6106 -0.1418  0.0109
  823MOL0     C13445  10.217   2.691   6.638  0.5515  1.4940 -0.7548
  823MOL0     C13446  10.167   2.828   6.619  1.0890 -0.6139  0.1850
  823MOL0     C13447  10.118   2.879   6.481  0.6969  0.1922 -0.5999
  823MOL0     C13448   9.975   2.844   6.435 -0.0015  0.7317 -0.6210
  823MOL0     C13449   9.953   2.686   6.432  0.0200  0.6710 -0.7290
  823MOL0     C13450   9.828   2.660   6.352 -0.5651  0.1892 -0.1378
  823MOL0     C13451   9.770   2.517   6.372  0.5259 -0.2921  0.5751
  823MOL0     C13452   9.692   2.512   6.505  0.0127 -0.3308 -0.7901
  823MOL0     N13453   9.660   2.377   6.543  0.0555 -0.0083  0.1273
  823MOL0     C13454   9.595   2.294   6.454 -0.0175 -0.3203  1.4055
  823MOL0     C13455   9.586   2.175   6.510  1.0100 -0.6193 -0.1989
  823MOL0     C13456   9.496   2.073   6.456  0.1194  0.0071  1.1355
  823MOL0     C13457   9.359   2.075   6.521 -0.0089  0.6649  0.1922
  823MOL0     C13458   9.258   2.033   6.416  0.1557  0.4554  0.3219
  823MOL0     C13459   9.110   2.030   6.457 -0.1430  1.0687  0.7880
  823MOL0     O13460   9.037   2.084   6.350 -0.5634  0.4410 -0.2191
  823MOL0     C13461   8.990   2.007   6.249  0.2586 -0.4972  0.5936
  823MOL0     C13462   9.038   1.882   6.214  0.2433 -0.7517 -0.5064
  823MOL0     C13463   9.008   1.824   6.089  0.7384 -0.4956  0.5160
  823MOL0     C13464   9.079   1.699   6.066  0.4747  0.2980 -0.7410
  823MOL0     C13465   8.910   1.882   6.008  0.6457 -0.3302  0.2524
  823MOL0     C13466   8.873   1.814   5.883  0.5357 -0.4201  0.3485
  823MOL0     O13467   8.849   1.678   5.890 -0.0921 -0.4592  0.1042
  823MOL0     C13468   8.794   1.609   5.785  0.2619 -0.2329  0.0428
  823MOL0     C13469   8.671   1.536   5.806  0.1115 -0.3028  1.1333
  823MOL0     C13470   8.619   1.465   5.696 -0.2414  0.2863  0.7490
  823MOL0     C13471   8.675   1.479   5.564  1.0612  0.3581  0.0090
  823MOL0     O13472   8.614   1.415   5.455  0.0829 -0.6065  0.3000
  823MOL0     C13473   8.702   1.379   5.344  0.9220  0.3686  0.3712
  823MOL0     C13474   8.763   1.230   5.379  0.5250 -0.4479  0.9771
  823MOL0     C13475   8.863   1.186   5.279 -1.0178 -0.1460  0.1048
  823MOL0     C13476   8.957   1.070   5.322 -0.0245 -0.2922 -0.1076
  823MOL0     C13477   9.036   1.003   5.199  0.8795 -0.0242  0.4031
  823MOL0     C13478   9.096   0.870   5.248 -0.5036 -0.3881 -0.4742
  823MOL0     C13479   9.151   0.783   5.133  0.2334 -0.4477  0.6739
  823MOL0     C13480   9.243   0.856   5.043 -1.2298 -1.4610 -0.8849
  823MOL0    Cl13481   9.279   0.727   4.923 -0.4841  0.0594  0.5142
  823MOL0     C13482   8.800   1.558   5.553  0.1528 -0.1806  0.7962
  823MOL0     C13483   8.856   1.608   5.664  0.6793  0.2586  0.3455
  823MOL0     O13484   8.851   1.885   5.787 -0.1065 -0.3857  0.2695
  823MOL0     C13485   8.844   2.009   6.047  0.5922  0.7674  0.0994
  823MOL0     C13486   8.895   2.063   6.168 -0.1776  0.3208 -0.0983
  823MOL0     N13487   9.637   2.192   6.637 -0.5895  0.3553  0.0113
  823MOL0     N13488   9.678   2.313   6.658  0.2297  0.2216 -0.6544
  823MOL0     C13489  10.483   2.600   6.742 -0.8786  0.5610  0.1262
  823MOL0     C13490  10.613   2.588   6.789 -0.9619 -0.5743 -0.4737
  823MOL0     C13491  11.050   2.490   6.791 -0.3225 -1.2980 -1.0150
  823MOL0     C13492  11.101   2.593   6.870 -0.2557  1.1262  0.1502
  823MOL0     C13493  11.238   2.591   6.922 -0.1328 -0.7456  0.8402
  823MOL0     C13494  11.307   2.471   6.912 -1.2069  0.1102  0.6597
  823MOL0     O13495  11.422   2.458   6.985 -0.4925 -0.7194 -0.7207
  823MOL0     C13496  11.475   2.331   7.023 -0.6511  0.0963 -1.0970
  823MOL0     C13497  11.574   2.351   7.134  0.5683  0.2213 -0.7132
  823MOL0     C13498  11.699   2.412   7.078 -0.2419  0.1673 -0.3159
  823MOL0     C13499  11.799   2.449   7.179 -0.5253 -0.2054 -0.0098
  823MOL0     C13500  11.918   2.498   7.117 -0.1155  1.5034 -0.5269
  823MOL0     C13501  12.014   2.538   7.056 -0.7299  0.1486 -0.5273
  823MOL0     C13502  11.258   2.365   6.833  0.3123  0.0460 -0.2371
  823MOL0     C13503  11.133   2.374   6.769 -0.2517 -0.5604 -0.5184
  823MOL0     C13504  11.090   2.261   6.684 -0.4478  0.2874  0.2117
  823MOL0     H13505  10.777   2.695   6.515 -1.4699 -0.2436 -1.2216
  823MOL0     H13506  10.543   2.708   6.430 -0.5161 -1.0650  0.3137
  823MOL0     H13507  10.234   2.677   6.745  0.9056 -0.5526 -1.0441
  823MOL0     H13508  10.136   2.620   6.627 -0.1893  1.7746  2.1707
  823MOL0     H13509  10.088   2.844   6.693  0.6233 -1.6245 -0.0738
  823MOL0     H13510  10.252   2.893   6.643  0.6818 -0.3056  0.7965
  823MOL0     H13511  10.125   2.988   6.485 -3.9670  0.7250 -0.6983
  823MOL0     H13512  10.184   2.837   6.405  0.8231 -0.2873 -0.2270
  823MOL0     H13513   9.911   2.895   6.508  2.6974  3.4638  0.0753
  823MOL0     H13514   9.964   2.879   6.332  1.0560 -1.5027 -1.5580
  823MOL0     H13515   9.943   2.649   6.535  0.5728  0.7579 -0.6436
  823MOL0     H13516  10.046   2.648   6.390  0.1578 -2.5200  2.0539
  823MOL0     H13517   9.762   2.743   6.376  1.5838  1.9195  0.1475
  823MOL0     H13518   9.841   2.681   6.245 -0.0482  1.0283  0.0820
  823MOL0     H13519   9.851   2.443   6.367 -0.0283 -1.0249  1.8814
  823MOL0     H13520   9.693   2.497   6.297  0.4965  0.8068  0.3075
  823MOL0     H13521   9.737   2.564   6.589  1.6010 -2.2597 -0.3776
  823MOL0     H13522   9.606   2.576   6.481  1.8122  2.2288 -0.7830
  823MOL0     H13523   9.541   2.322   6.365 -1.5887 -1.3869  1.9717
  823MOL0     H13524   9.530   1.970   6.473 -0.9745 -1.2278 -3.0109
  823MOL0     H13525   9.504   2.077   6.347 -1.3416 -3.3353  0.7666
  823MOL0     H13526   9.355   2.002   6.603  2.0175 -0.4098 -0.6025
  823MOL0     H13527   9.332   2.177   6.549  0.2125  0.9073 -0.4822
  823MOL0     H13528   9.263   2.106   6.335 -0.0284  2.1702  1.8073
  823MOL0     H13529   9.285   1.935   6.374  3.9546  1.0136  1.0650
  823MOL0     H13530   9.074   1.929   6.479 -0.8950  0.8213 -1.3318
  823MOL0     H13531   9.105   2.094   6.546  2.8885  0.0413  1.8232
  823MOL0     H13532   9.102   1.827   6.283  0.1096 -0.4056 -0.1078
  823MOL0     H13533   9.180   1.705   6.110 -0.5038 -1.4353  2.0399
  823MOL0     H13534   9.098   1.679   5.960  3.6526  1.1951 -0.4399
  823MOL0     H13535   9.018   1.622   6.114 -0.4676  1.5539  0.1487
  823MOL0     H13536   8.609   1.542   5.895 -2.2476 -0.3446 -0.4017
  823MOL0     H13537   8.525   1.413   5.702  0.2259 -1.1303 -2.2554
  823MOL0     H13538   8.640   1.355   5.258 -0.6852  0.5138  1.4340
  823MOL0     H13539   8.771   1.457   5.312  2.6978 -0.5220  1.7723
  823MOL0     H13540   8.805   1.248   5.479  0.8979  1.0397  0.5797
  823MOL0     H13541   8.680   1.159   5.386  1.2801 -1.2690  1.9964
  823MOL0     H13542   8.926   1.270   5.248 -0.1883 -1.4886 -2.0483
  823MOL0     H13543   8.803   1.151   5.194  0.1894 -0.2597 -0.7180
  823MOL0     H13544   8.887   0.997   5.366 -2.1698  1.3581 -0.6059
  823MOL0     H13545   9.030   1.108   5.395  1.4720 -0.9339 -1.2233
  823MOL0     H13546   8.969   0.992   5.113  3.1729  1.6907 -1.7643
  823MOL0     H13547   9.120   1.064   5.166  0.2603 -0.5296 -2.4399
  823MOL0     H13548   9.008   0.820   5.287 -1.7857  1.2564 -1.1248
  823MOL0     H13549   9.174   0.893   5.321 -0.5396  2.3418 -1.1909
  823MOL0     H13550   9.065   0.742   5.078  0.7309 -1.4827  0.6387
  823MOL0     H13551   9.207   0.702   5.179  0.4950  0.0046  1.1573
  823MOL0     H13552   9.332   0.892   5.097 -0.6865 -2.1309 -1.3243
  823MOL0     H13553   9.197   0.943   4.995 -1.3481 -0.6145  0.6929
  823MOL0     H13554   8.863   1.550   5.464  1.0383 -1.2122  1.4902
  823MOL0     H13555   8.957   1.648   5.669 -0.5267  3.4117  1.2199
  823MOL0     H13556   8.772   2.057   5.982  0.7549  1.3789  0.3647
  823MOL0     H13557   8.845   2.147   6.215 -0.6380 -0.8867  1.6677
  823MOL0     H13558  10.401   2.579   6.809 -0.9309  1.2053  0.2700
  823MOL0     H13559  10.623   2.574   6.896 -0.4335  0.4905 -0.3673
  823MOL0     H13560  11.043   2.684   6.881  2.8631  3.4662 -1.1217
  823MOL0     H13561  11.281   2.675   6.975 -3.1422  1.2037  0.4584
  823MOL0     H13562  11.394   2.263   7.051 -0.7666  0.5355 -0.3154
  823MOL0     H13563  11.532   2.286   6.941 -0.7700 -0.3410 -0.9436
  823MOL0     H13564  11.581   2.248   7.169 -0.7649  0.0223 -0.9712
  823MOL0     H13565  11.530   2.403   7.220 -1.9424 -1.5955 -0.7952
  823MOL0     H13566  11.744   2.345   7.006 -1.6337 -1.8650  0.6020
  823MOL0     H13567  11.656   2.506   7.041 -0.9199 -0.7234 -1.8594
  823MOL0     H13568  11.818   2.372   7.255  3.6211 -0.1913 -0.7961
  823MOL0     H13569  11.775   2.526   7.253  0.7723  0.4439 -0.2406
  823MOL0     H13570  12.102   2.565   7.001  0.6708  1.2760  2.0997
  823MOL0     H13571  11.314   2.276   6.804 -1.3254 -1.9865  2.4148
  823MOL0     H13572  11.028   2.292   6.599 -0.2954  0.1008  0.0316
  823MOL0     H13573  11.172   2.198   6.648 -1.4239 -2.4167  2.3914
  823MOL0     H13574  11.020   2.196   6.736  1.9246 -1.3959  1.4863
  824MOL0     O13575   3.152   3.151   3.972 -0.5821  0.3451  0.3036
  824MOL0     C13576   3.256   3.090   4.000 -0.9254 -0.3091 -0.2124
  824MOL0     O13577   3.377   3.101   3.933  0.2788 -0.3082 -0.3216
  824MOL0     C13578   3.406   3.203   3.841 -0.1384 -0.3011 -0.3086
  824MOL0     C13579   3.336   3.326   3.810  1.2007 -0.0357  0.7174
  824MOL0     C13580   3.381   3.407   3.705 -0.1888 -0.4184  0.1655
  824MOL0     C13581   3.495   3.385   3.628  0.6747 -0.0172 -0.7636
  824MOL0     O13582   3.520   3.474   3.524 -0.0707  0.3920 -0.6401
  824MOL0     C13583   3.639   3.471   3.451  0.1522  1.1953 -0.5570
  824MOL0     C13584   3.678   3.611   3.395  0.7612 -0.1585 -0.8821
  824MOL0     C13585   3.562   3.664   3.296  0.1563 -0.3490 -0.2453
  824MOL0     C13586   3.567   3.817   3.263 -0.2674  0.3519 -0.3855
  824MOL0     C13587   3.441   3.888   3.229 -1.1617 -0.5521  0.2648
  824MOL0     C13588   3.461   4.029   3.263 -0.2031 -1.3430 -1.0537
  824MOL0     C13589   3.326   4.094   3.273  0.0780  0.8159  0.4015
  824MOL0     C13590   3.323   4.245   3.302  0.0597 -0.7477  0.1101
  824MOL0     N13591   3.380   4.323   3.187  0.2035 -1.1363  0.6217
  824MOL0     C13592   3.362   4.280   3.057 -0.4069 -0.7442  0.6638
  824MOL0     C13593   3.412   4.375   2.977  0.3669  0.3099 -0.1006
  824MOL0     C13594   3.420   4.366   2.823 -0.1723  0.3936  0.2075
  824MOL0     C13595   3.409   4.507   2.757 -0.1273  0.3771 -0.0009
  824MOL0     C13596   3.267   4.548   2.784  0.5627  0.1742 -0.4746
  824MOL0     C13597   3.241   4.686   2.724  0.2395  0.2483 -0.7516
  824MOL0     O13598   3.102   4.695   2.707 -0.6285  0.3854  0.0124
  824MOL0     C13599   3.059   4.813   2.678  1.3734 -0.4859  1.0245
  824MOL0     C13600   2.920   4.826   2.673  0.5722  0.3153 -0.0584
  824MOL0     C13601   2.858   4.950   2.668  0.2460 -0.1912  0.4641
  824MOL0     C13602   2.712   4.951   2.664 -0.4495 -0.0949 -0.1119
  824MOL0     C13603   2.935   5.068   2.651 -0.0611  0.3885 -0.6072
  824MOL0     C13604   2.880   5.198   2.630 -0.5433 -1.2277  0.0157
  824MOL0     O13605   2.929   5.299   2.712  0.4659  0.2698  0.3471
  824MOL0     C13606   2.920   5.430   2.674 -1.0782  0.6436  0.0706
  824MOL0     C13607   3.019   5.486   2.589 -1.3282 -0.6277  0.9627
  824MOL0     C13608   3.000   5.614   2.536 -0.1301  0.9796  0.5855
  824MOL0     C13609   2.874   5.680   2.564 -0.6265  0.9426 -0.8195
  824MOL0     O13610   2.842   5.801   2.513  0.2291 -0.5722  0.0225
  824MOL0     C13611   2.889   5.836   2.383 -0.0185  0.1550  0.6624
  824MOL0     C13612   2.783   5.930   2.315 -0.7858 -0.3702  0.1273
  824MOL0     C13613   2.794   5.950   2.158  0.1128  0.1558 -0.0707
  824MOL0     C13614   2.692   6.066   2.132  0.6297 -0.6043 -0.0342
  824MOL0     C13615   2.704   6.117   1.986 -0.1293  0.0778  1.2620
  824MOL0     C13616   2.600   6.223   1.954 -0.5044  0.1791 -0.2791
  824MOL0     C13617   2.463   6.158   1.914  0.2498 -0.5354  0.0839
  824MOL0     C13618   2.350   6.248   1.968 -0.0860 -0.1370  0.1272
  824MOL0    Cl13619   2.206   6.184   1.902 -0.8438 -0.1825  0.1602
  824MOL0     C13620   2.793   5.625   2.656  0.0163  0.7313  0.4756
  824MOL0     C13621   2.819   5.504   2.722 -0.1761  0.4792  0.7206
  824MOL0     O13622   2.827   5.213   2.523  0.1676  0.1632  0.1180
  824MOL0     C13623   3.078   5.057   2.643 -0.5670  0.4472  0.6463
  824MOL0     C13624   3.135   4.934   2.665 -0.3385  0.5120  0.5007
  824MOL0     N13625   3.453   4.481   3.057  0.4021  0.3866 -0.0603
  824MOL0     N13626   3.421   4.456   3.178  0.6547  0.5518 -0.3777
  824MOL0     C13627   3.562   3.265   3.660 -0.5163  0.6499  0.6248
  824MOL0     C13628   3.521   3.178   3.765  0.3774 -0.4661  0.4849
  824MOL0     C13629   3.251   2.980   4.101 -0.8912 -1.1474 -1.1222
  824MOL0     C13630   3.133   2.904   4.104  0.7119 -0.6363 -0.1611
  824MOL0     C13631   3.113   2.804   4.197 -1.3340  0.4636  0.6891
  824MOL0     C13632   3.222   2.761   4.281 -0.3440 -1.0188  0.1909
  824MOL0     O13633   3.230   2.647   4.361  1.0546  0.3383 -0.4119
  824MOL0     C13634   3.110   2.563   4.362 -0.2481  0.0386  0.1851
  824MOL0     C13635   2.994   2.614   4.454 -0.1922 -0.2954 -0.2088
  824MOL0     C13636   2.870   2.520   4.462 -0.9219 -0.0391 -0.3289
  824MOL0     C13637   2.774   2.563   4.568 -0.1220  0.3290  0.7173
  824MOL0     C13638   2.679   2.454   4.603  0.0327 -0.1887  0.9023
  824MOL0     C13639   2.602   2.371   4.644 -0.0701  0.1847 -0.2877
  824MOL0     C13640   3.344   2.835   4.276  1.0149  0.6956  0.3762
  824MOL0     C13641   3.357   2.950   4.193  0.1263  0.1089 -0.8452
  824MOL0     C13642   3.496   3.021   4.198  0.9210 -0.0946  0.6974
  824MOL0     H13643   3.246   3.360   3.860  1.7166  2.4171  0.0914
  824MOL0     H13644   3.322   3.493   3.674  1.1692  0.5557  0.1850
  824MOL0     H13645   3.624   3.399   3.370 -0.3826 -0.4428  0.9304
  824MOL0     H13646   3.727   3.440   3.508  0.5825 -0.0197 -1.8176
  824MOL0     H13647   3.682   3.676   3.483  0.6152 -0.8036 -0.3849
  824MOL0     H13648   3.774   3.611   3.344  0.7743 -2.9774 -1.0298
  824MOL0     H13649   3.558   3.605   3.204  1.4622 -0.7790 -0.0505
  824MOL0     H13650   3.466   3.635   3.342  1.2354 -0.2700  2.2339
  824MOL0     H13651   3.600   3.857   3.360 -1.2099 -3.2599  1.6040
  824MOL0     H13652   3.641   3.831   3.183 -0.9915  0.5314 -1.0391
  824MOL0     H13653   3.360   3.847   3.289 -0.4186 -0.0406  1.6739
  824MOL0     H13654   3.421   3.869   3.123  3.5267 -1.7781 -0.6113
  824MOL0     H13655   3.504   4.044   3.363  1.4178  2.2571 -2.1225
  824MOL0     H13656   3.531   4.081   3.197 -0.7544  1.5085  0.4385
  824MOL0     H13657   3.255   4.048   3.343  0.1259 -2.7813 -1.6776
  824MOL0     H13658   3.267   4.078   3.182 -1.8182  1.0213  1.5357
  824MOL0     H13659   3.217   4.272   3.310  0.7060  1.5862  2.2145
  824MOL0     H13660   3.362   4.279   3.398 -2.7324  1.5216  0.5887
  824MOL0     H13661   3.326   4.183   3.023 -1.5355 -0.2217  0.3189
  824MOL0     H13662   3.345   4.298   2.780 -1.1362  1.5081  0.0851
  824MOL0     H13663   3.515   4.319   2.795 -0.4116 -0.1077  0.2214
  824MOL0     H13664   3.466   4.582   2.812 -3.9718  2.7944  1.0746
  824MOL0     H13665   3.447   4.502   2.654  1.4184 -3.4447  0.6042
  824MOL0     H13666   3.215   4.480   2.715 -0.8976  0.7584  0.0064
  824MOL0     H13667   3.232   4.527   2.885 -2.5739 -0.0365 -1.4755
  824MOL0     H13668   3.278   4.761   2.794  0.2421  0.2860 -0.7931
  824MOL0     H13669   3.274   4.693   2.620  1.3382  2.6726 -0.3051
  824MOL0     H13670   2.859   4.736   2.672 -0.9704  1.1181  3.9058
  824MOL0     H13671   2.690   4.902   2.568 -0.3573  0.5028 -0.4393
  824MOL0     H13672   2.662   5.048   2.659  0.5545  0.4584  0.3310
  824MOL0     H13673   2.677   4.896   2.752  0.0045 -1.5202 -0.7978
  824MOL0     H13674   3.100   5.422   2.556 -1.1712  0.2263 -0.3640
  824MOL0     H13675   3.071   5.655   2.465  0.3705  0.4183  0.7478
  824MOL0     H13676   2.987   5.885   2.393 -0.2831  0.6952  0.6467
  824MOL0     H13677   2.900   5.743   2.326  0.6026  1.3358 -1.2325
  824MOL0     H13678   2.676   5.915   2.334 -1.4984  2.9152 -0.6431
  824MOL0     H13679   2.813   6.026   2.358  0.6129  0.2403 -2.0480
  824MOL0     H13680   2.774   5.852   2.114 -1.6750 -0.1084  1.1921
  824MOL0     H13681   2.897   5.979   2.138 -0.0074  0.1730 -0.6768
  824MOL0     H13682   2.709   6.152   2.198 -0.5995  1.4023 -2.1728
  824MOL0     H13683   2.590   6.031   2.150  0.5298 -0.4350 -0.2733
  824MOL0     H13684   2.805   6.157   1.972  0.1285 -0.6279  1.0724
  824MOL0     H13685   2.686   6.043   1.908 -0.2321 -1.3969  2.6188
  824MOL0     H13686   2.639   6.280   1.870  1.9578  0.1791  0.7748
  824MOL0     H13687   2.583   6.292   2.038 -1.2505 -0.8601  0.4610
  824MOL0     H13688   2.452   6.055   1.949 -1.6353 -0.1699  0.6692
  824MOL0     H13689   2.453   6.163   1.805  0.4339  0.4757  0.1048
  824MOL0     H13690   2.356   6.345   1.917 -2.2530  1.0033  1.8625
  824MOL0     H13691   2.343   6.276   2.073  2.1155  3.0532 -0.4221
  824MOL0     H13692   2.709   5.686   2.688 -2.8849 -0.9901 -3.1408
  824MOL0     H13693   2.742   5.449   2.775 -0.2204  0.2212  0.3944
  824MOL0     H13694   3.136   5.148   2.631 -3.3938  2.4890  1.4393
  824MOL0     H13695   3.243   4.937   2.671 -0.4055  0.1239  2.7635
  824MOL0     H13696   3.658   3.262   3.609 -0.1522  1.2968  1.2432
  824MOL0     H13697   3.590   3.098   3.790  0.5995  0.1519  1.9186
  824MOL0     H13698   3.058   2.919   4.027 -1.1359 -1.3784  1.4130
  824MOL0     H13699   3.020   2.748   4.191 -1.7714  1.3134 -2.3012
  824MOL0     H13700   3.079   2.552   4.258  0.3539 -0.1155  0.0162
  824MOL0     H13701   3.145   2.464   4.393 -1.9171 -1.7291 -3.0443
  824MOL0     H13702   2.966   2.720   4.449 -1.8135 -0.7593 -1.9146
  824MOL0     H13703   3.034   2.613   4.556 -3.4983  0.7734  1.2217
  824MOL0     H13704   2.821   2.513   4.364 -0.2944 -3.3773 -0.5390
  824MOL0     H13705   2.896   2.418   4.491 -1.9324 -0.1974  0.0866
  824MOL0     H13706   2.722   2.656   4.545 -0.4115  0.8777  3.3426
  824MOL0     H13707   2.835   2.583   4.656 -0.0703  2.5007  0.2355
  824MOL0     H13708   2.511   2.321   4.671 -0.6514  1.3335 -0.0453
  824MOL0     H13709   3.417   2.812   4.352 -0.1940  1.5604  1.8633
  824MOL0     H13710   3.576   2.960   4.156  0.0359 -1.2429  0.6318
  824MOL0     H13711   3.502   3.123   4.159  1.6492 -0.2029  0.5124
  824MOL0     H13712   3.523   3.037   4.303  1.0449  3.5414  0.2343
  825MOL0     O13713   8.645   9.607   2.208 -0.3512  0.0413  0.1558
  825MOL0     C13714   8.524   9.583   2.185  0.1468 -0.2333 -0.3001
  825MOL0     O13715   8.420   9.632   2.257 -0.0102 -0.5502  0.0226
  825MOL0     C13716   8.421   9.728   2.354  0.8728 -0.1076 -0.1671
  825MOL0     C13717   8.530   9.796   2.402  0.1372  0.4972 -0.3402
  825MOL0     C13718   8.517   9.887   2.513  0.4190 -1.1526  0.8732
  825MOL0     C13719   8.394   9.906   2.581 -0.5986  0.0814  0.2215
  825MOL0     O13720   8.367   9.994   2.684  0.2505  1.1539  0.0140
  825MOL0     C13721   8.461  10.057   2.764  0.0521  0.3406  0.7669
  825MOL0     C13722   8.389  10.175   2.834 -0.3536 -0.1387 -0.2922
  825MOL0     C13723   8.496  10.274   2.886 -0.2644 -0.1195 -0.1707
  825MOL0     C13724   8.447  10.386   2.978 -1.1377  0.8147  0.4339
  825MOL0     C13725   8.566  10.483   3.024  1.1836  0.4055  0.3497
  825MOL0     C13726   8.528  10.594   3.121  0.4612  0.6059 -0.0880
  825MOL0     C13727   8.393  10.660   3.095  0.0768 -1.0366  0.3292
  825MOL0     C13728   8.368  10.796   3.175  0.2534  0.3853 -0.2054
  825MOL0     N13729   8.291  10.763   3.294 -0.4854 -1.0660  0.0058
  825MOL0     C13730   8.332  10.690   3.409 -0.2666  0.4797 -0.2591
  825MOL0     C13731   8.233  10.712   3.507 -0.0942  0.5909  0.3325
  825MOL0     C13732   8.224  10.671   3.652  0.1609  0.2641  0.0018
  825MOL0     C13733   8.082  10.657   3.698 -0.1626  0.3664 -0.3078
  825MOL0     C13734   8.058  10.699   3.846 -0.2109  0.4827 -0.2138
  825MOL0     C13735   7.913  10.678   3.904  0.3135  0.4448 -0.4818
  825MOL0     O13736   7.890  10.541   3.923  0.0385  0.4101  0.5832
  825MOL0     C13737   7.763  10.513   3.967  0.0921  0.1220  0.5461
  825MOL0     C13738   7.671  10.456   3.883  1.1474  0.0533  0.1131
  825MOL0     C13739   7.540  10.412   3.915 -0.8495  0.0812  0.3493
  825MOL0     C13740   7.470  10.357   3.789  0.1577  0.2034  0.0242
  825MOL0     C13741   7.497  10.418   4.050  1.2322  0.0274 -0.0772
  825MOL0     C13742   7.364  10.367   4.090 -0.1025 -0.4529 -0.6472
  825MOL0     O13743   7.345  10.336   4.220  0.2181 -0.1767  0.6898
  825MOL0     C13744   7.226  10.321   4.273  0.4996  0.2425  0.7747
  825MOL0     C13745   7.121  10.246   4.209 -0.6966  0.5097 -0.8562
  825MOL0     C13746   7.005  10.232   4.287 -0.1386 -0.2836 -0.3811
  825MOL0     C13747   6.999  10.269   4.427 -0.3026 -0.7030  0.3094
  825MOL0     O13748   6.894  10.251   4.509 -0.1401  0.0208 -0.1021
  825MOL0     C13749   6.794  10.152   4.471 -0.0240 -0.5152 -0.0007
  825MOL0     C13750   6.674  10.138   4.574 -0.3802  0.3151  0.0855
  825MOL0     C13751   6.550  10.087   4.485 -0.2597 -0.4669  0.1137
  825MOL0     C13752   6.476   9.985   4.562  0.8763 -0.1015  0.3417
  825MOL0     C13753   6.342   9.946   4.481 -0.1613 -0.9524 -0.0470
  825MOL0     C13754   6.249   9.882   4.571  0.6081  0.0587 -0.0490
  825MOL0     C13755   6.127   9.846   4.490 -0.3701  0.4164 -0.0919
  825MOL0     C13756   6.042   9.755   4.564 -0.0076  0.1282  1.0355
  825MOL0    Cl13757   5.895   9.697   4.472  0.4008  0.3215 -0.1800
  825MOL0     C13758   7.102  10.345   4.477 -0.3432 -0.4452  0.0091
  825MOL0     C13759   7.216  10.365   4.405  0.0590  0.3780  0.4365
  825MOL0     O13760   7.272  10.382   4.006 -0.6712  0.6445 -0.7164
  825MOL0     C13761   7.595  10.465   4.141  0.2646 -0.4272  0.7126
  825MOL0     C13762   7.723  10.507   4.103  0.1428  0.1182 -0.0928
  825MOL0     N13763   8.148  10.806   3.443  0.2477 -0.7148  0.3114
  825MOL0     N13764   8.185  10.836   3.326 -1.1881  0.5801 -0.2299
  825MOL0     C13765   8.283   9.838   2.523 -1.6015 -0.4283  0.2732
  825MOL0     C13766   8.290   9.753   2.411 -0.5618 -0.3631 -0.1232
  825MOL0     C13767   8.492   9.484   2.083  0.5450  0.5265 -0.2084
  825MOL0     C13768   8.592   9.453   1.990  0.5380 -0.4196  0.7163
  825MOL0     C13769   8.576   9.346   1.894  0.4307 -0.0597  0.4770
  825MOL0     C13770   8.459   9.265   1.899  0.0130 -0.4731 -0.7540
  825MOL0     O13771   8.419   9.176   1.799 -0.0850  0.1684 -0.7878
  825MOL0     C13772   8.523   9.089   1.760 -0.1241 -0.0737  0.8324
  825MOL0     C13773   8.476   8.939   1.751  1.1163  0.5573  0.3772
  825MOL0     C13774   8.583   8.836   1.696 -0.2876  0.3998 -0.6843
  825MOL0     C13775   8.532   8.697   1.652  0.6925 -0.0418  0.6075
  825MOL0     C13776   8.459   8.627   1.760 -0.4490  0.3486  0.5996
  825MOL0     C13777   8.393   8.566   1.837  0.3507 -0.1476  0.1458
  825MOL0     C13778   8.366   9.295   1.996  0.4750 -0.1748  0.2608
  825MOL0     C13779   8.377   9.403   2.085 -0.1053 -0.1973  0.0340
  825MOL0     C13780   8.273   9.423   2.189 -0.5271  0.1808 -0.2607
  825MOL0     H13781   8.627   9.776   2.358 -1.0770 -1.1135 -2.4657
  825MOL0     H13782   8.596   9.947   2.556  0.5271  0.0698 -0.9169
  825MOL0     H13783   8.540  10.108   2.708 -0.7655 -0.4022 -1.1946
  825MOL0     H13784   8.499   9.984   2.836 -0.3926 -0.3431  0.3257
  825MOL0     H13785   8.327  10.234   2.765  0.3466  0.7355 -0.1912
  825MOL0     H13786   8.331  10.147   2.922 -0.4645 -2.0377 -0.9213
  825MOL0     H13787   8.570  10.215   2.940 -0.4575 -0.8314 -0.6678
  825MOL0     H13788   8.541  10.319   2.797 -2.4437 -1.8393 -2.2841
  825MOL0     H13789   8.359  10.435   2.933 -2.5636  1.4759  3.6387
  825MOL0     H13790   8.405  10.339   3.068  0.2693 -3.8421 -1.0749
  825MOL0     H13791   8.616  10.527   2.937 -0.7380  2.0870  0.0129
  825MOL0     H13792   8.638  10.430   3.086  0.5088 -0.5080  0.3630
  825MOL0     H13793   8.515  10.557   3.223 -1.4534 -2.4706 -1.2971
  825MOL0     H13794   8.612  10.663   3.123  2.1454 -1.3408  0.7966
  825MOL0     H13795   8.323  10.580   3.122  0.5731 -1.1863  1.2275
  825MOL0     H13796   8.378  10.689   2.991 -0.7270 -3.9915 -0.4870
  825MOL0     H13797   8.454  10.858   3.198 -0.2688  0.1046  2.9571
  825MOL0     H13798   8.310  10.864   3.111  0.3576 -1.3590 -2.2720
  825MOL0     H13799   8.419  10.626   3.418 -0.6636  0.1422  1.4914
  825MOL0     H13800   8.267  10.754   3.709 -0.0128  2.3223 -2.6508
  825MOL0     H13801   8.268  10.572   3.668  0.1659 -0.1578 -2.2755
  825MOL0     H13802   8.024  10.721   3.631 -2.9921 -1.1577  0.5177
  825MOL0     H13803   8.053  10.551   3.695  0.8656 -0.1854  3.4361
  825MOL0     H13804   8.125  10.646   3.914 -0.7863  0.8882  0.6961
  825MOL0     H13805   8.089  10.804   3.844 -0.5969  0.5893 -1.6797
  825MOL0     H13806   7.887  10.722   4.001 -0.2510 -1.1415  0.1141
  825MOL0     H13807   7.852  10.710   3.818  1.5529 -0.2459 -1.6463
  825MOL0     H13808   7.696  10.430   3.780 -4.5722 -1.9783 -1.1438
  825MOL0     H13809   7.538  10.297   3.728  0.0750  0.1906 -0.0535
  825MOL0     H13810   7.416  10.430   3.728 -0.6601 -2.3108 -2.4779
  825MOL0     H13811   7.401  10.278   3.823  0.4233 -1.2324 -2.5615
  825MOL0     H13812   7.117  10.186   4.118 -0.5586 -0.6897 -0.0909
  825MOL0     H13813   6.919  10.188   4.239  1.7836 -2.6947 -1.8043
  825MOL0     H13814   6.747  10.194   4.382  0.0755  0.2705  0.3166
  825MOL0     H13815   6.843  10.056   4.450  0.7065  0.0904 -1.0985
  825MOL0     H13816   6.688  10.073   4.661  0.7388  0.2144 -0.1608
  825MOL0     H13817   6.657  10.239   4.615  0.5084 -0.5321  2.7563
  825MOL0     H13818   6.583  10.054   4.385  3.1203 -0.0210  0.9546
  825MOL0     H13819   6.485  10.174   4.474 -2.2112 -1.8391  0.2797
  825MOL0     H13820   6.436  10.027   4.654 -0.7274  1.7376 -1.1029
  825MOL0     H13821   6.542   9.902   4.587  1.1473  0.4110  1.3475
  825MOL0     H13822   6.306  10.041   4.440  2.3762  0.3605  0.6011
  825MOL0     H13823   6.376   9.893   4.391 -3.7094 -1.3632 -1.3487
  825MOL0     H13824   6.217   9.956   4.646 -1.3122  0.2851 -1.0265
  825MOL0     H13825   6.302   9.797   4.614 -0.7405 -0.6763  0.2049
  825MOL0     H13826   6.157   9.805   4.394  1.0885  1.4416 -0.1139
  825MOL0     H13827   6.070   9.938   4.471  2.2982  2.2003  0.0512
  825MOL0     H13828   6.007   9.819   4.645 -2.8816  0.3319 -0.2467
  825MOL0     H13829   6.097   9.665   4.590 -1.5513 -1.8840 -2.0108
  825MOL0     H13830   7.096  10.363   4.583 -0.6066 -4.5161  0.8609
  825MOL0     H13831   7.310  10.401   4.447  0.4984  1.7133 -1.5144
  825MOL0     H13832   7.568  10.481   4.244 -0.9714  0.3676  0.2901
  825MOL0     H13833   7.786  10.542   4.185  1.3321 -2.1124  0.0372
  825MOL0     H13834   8.187   9.837   2.574 -1.2167 -1.4321  1.0191
  825MOL0     H13835   8.201   9.705   2.370  0.5088 -2.3212 -0.2533
  825MOL0     H13836   8.683   9.513   1.988  1.5460 -1.8754 -1.5037
  825MOL0     H13837   8.638   9.346   1.805  0.0312 -1.7095  0.1746
  825MOL0     H13838   8.562   9.117   1.662  1.5113 -3.1874  0.4477
  825MOL0     H13839   8.604   9.092   1.834 -0.2858  0.9294  0.9818
  825MOL0     H13840   8.384   8.944   1.692 -1.8612 -2.7508  4.1073
  825MOL0     H13841   8.446   8.900   1.849 -0.1263 -0.5464 -0.4057
  825MOL0     H13842   8.650   8.883   1.623 -0.3911  1.1456 -0.3125
  825MOL0     H13843   8.661   8.811   1.769  0.9589 -4.1059 -3.1967
  825MOL0     H13844   8.615   8.632   1.622 -0.1859 -0.1237 -1.9481
  825MOL0     H13845   8.469   8.712   1.563 -0.6382  1.9455  1.8053
  825MOL0     H13846   8.329   8.525   1.913 -3.6592  0.9599 -2.3471
  825MOL0     H13847   8.269   9.245   2.003  0.5786 -0.5113 -0.5547
  825MOL0     H13848   8.321   9.417   2.287 -0.2958  0.9894 -0.3205
  825MOL0     H13849   8.227   9.521   2.177  1.7133  1.2955 -0.1920
  825MOL0     H13850   8.200   9.341   2.184  0.7493 -0.9997  0.0526
  826MOL0     O13851   8.649   3.779   8.378 -0.6145 -0.3206  0.0294
  826MOL0     C13852   8.685   3.829   8.269  0.2989 -1.2616  0.0493
  826MOL0     O13853   8.817   3.824   8.213  0.3483  0.2046 -0.3149
  826MOL0     C13854   8.906   3.729   8.261  0.1047 -0.8934 -0.5887
  826MOL0     C13855   9.039   3.772   8.252 -0.3005 -0.1881 -0.4954
  826MOL0     C13856   9.140   3.680   8.287  0.4644 -0.9017  0.1364
  826MOL0     C13857   9.104   3.552   8.332  0.0821  0.2895  0.0818
  826MOL0     O13858   9.197   3.464   8.378 -0.0292 -0.8977 -0.0661
  826MOL0     C13859   9.245   3.500   8.512 -0.8085  0.4720  0.5245
  826MOL0     C13860   9.396   3.507   8.528 -0.3004 -0.1259  0.3832
  826MOL0     C13861   9.471   3.386   8.453  1.0439 -1.0608  0.1801
  826MOL0     C13862   9.464   3.262   8.549  0.0191 -0.0575  0.3548
  826MOL0     C13863   9.527   3.131   8.483  0.0455  0.5688  0.4228
  826MOL0     C13864   9.427   3.084   8.375  0.0401  0.3062 -0.3658
  826MOL0     C13865   9.489   2.945   8.327  0.4164  0.4646  0.6243
  826MOL0     C13866   9.388   2.858   8.250  0.1723  0.5384  0.6819
  826MOL0     N13867   9.423   2.716   8.222 -0.2422 -0.7426  0.4590
  826MOL0     C13868   9.534   2.690   8.142  0.3567  0.5274 -0.6340
  826MOL0     C13869   9.525   2.553   8.143 -0.4104 -0.0691  0.0490
  826MOL0     C13870   9.637   2.462   8.086  0.1570  0.2798 -0.4175
  826MOL0     C13871   9.613   2.388   7.956  0.4887 -0.3035 -0.4831
  826MOL0     C13872   9.508   2.267   7.966  0.1069  0.2842  0.1061
  826MOL0     C13873   9.511   2.196   7.835  0.9274  0.4576  0.1896
  826MOL0     O13874   9.636   2.130   7.832 -0.8136 -0.5534 -0.2251
  826MOL0     C13875   9.659   2.011   7.775 -0.2116 -1.0007  0.1066
  826MOL0     C13876   9.783   1.963   7.799  0.9933  0.3997  0.1958
  826MOL0     C13877   9.824   1.838   7.754  0.7509 -0.1858  0.1010
  826MOL0     C13878   9.968   1.811   7.782  0.0772 -0.1134 -0.5417
  826MOL0     C13879   9.737   1.761   7.673 -0.0048  0.3335  0.4298
  826MOL0     C13880   9.782   1.638   7.601  0.5114  0.4512 -0.7898
  826MOL0     O13881   9.711   1.602   7.490  0.5608  0.4864  0.4055
  826MOL0     C13882   9.780   1.576   7.373 -0.2989  0.1155 -0.1607
  826MOL0     C13883   9.707   1.513   7.267  0.5131 -0.0624  0.3402
  826MOL0     C13884   9.777   1.478   7.148  0.0482 -0.0739  0.3987
  826MOL0     C13885   9.915   1.507   7.133 -0.4483  0.7303 -1.2913
  826MOL0     O13886   9.989   1.481   7.027 -0.4374 -0.2712  0.8301
  826MOL0     C13887   9.947   1.386   6.927  0.4654  0.6716 -0.0070
  826MOL0     C13888  10.061   1.339   6.820  0.5951 -0.1468 -0.0335
  826MOL0     C13889  10.003   1.246   6.713 -0.3038 -0.0035  0.4507
  826MOL0     C13890  10.112   1.214   6.607 -0.2952 -0.2244  0.3617
  826MOL0     C13891  10.063   1.099   6.510  0.3533  0.4054 -0.5368
  826MOL0     C13892  10.055   0.958   6.571  0.2356  0.1399 -0.4012
  826MOL0     C13893  10.059   0.845   6.464 -0.6981 -0.1274  0.6794
  826MOL0     C13894  10.000   0.709   6.521  0.6177  0.7261  0.9221
  826MOL0    Cl13895  10.102   0.559   6.483 -0.3418 -0.4084  0.0539
  826MOL0     C13896   9.983   1.577   7.229  0.7556 -0.3245  0.2239
  826MOL0     C13897   9.916   1.616   7.343 -0.3697 -0.6455 -0.4396
  826MOL0     O13898   9.859   1.558   7.664 -0.2031  0.0609 -0.2525
  826MOL0     C13899   9.611   1.816   7.645 -0.0816  0.2385 -0.1093
  826MOL0     C13900   9.563   1.935   7.707  0.1516  0.1025  0.5641
  826MOL0     N13901   9.418   2.503   8.216 -0.2676  0.4622  0.5470
  826MOL0     N13902   9.357   2.606   8.254 -0.1917  0.0548 -0.5539
  826MOL0     C13903   8.975   3.509   8.335  1.2084  0.7394  0.6759
  826MOL0     C13904   8.876   3.597   8.290  0.5381  0.1772  0.0981
  826MOL0     C13905   8.573   3.907   8.194 -0.1828 -0.0611 -0.3402
  826MOL0     C13906   8.458   3.926   8.266  0.1119 -1.4497  1.0263
  826MOL0     C13907   8.345   3.990   8.215 -1.2012  0.3193  0.3296
  826MOL0     C13908   8.343   4.042   8.085 -0.2370 -0.2339 -0.2697
  826MOL0     O13909   8.237   4.120   8.048 -0.3911  0.7531 -0.4944
  826MOL0     C13910   8.217   4.155   7.908  0.5385 -0.4943 -1.1246
  826MOL0     C13911   8.174   4.033   7.831 -0.2579  0.1651 -0.0094
  826MOL0     C13912   8.046   3.971   7.876  0.3123  0.0988  0.5246
  826MOL0     C13913   8.034   3.816   7.844 -1.4668 -0.4816 -0.8063
  826MOL0     C13914   8.085   3.777   7.716 -1.0169  0.1758 -0.3488
  826MOL0     C13915   8.107   3.754   7.600  0.9267 -0.2898  0.2237
  826MOL0     C13916   8.462   4.016   8.008  0.8392 -0.5556  0.9824
  826MOL0     C13917   8.577   3.946   8.059 -0.4553  0.6304  0.3671
  826MOL0     C13918   8.687   3.904   7.959  0.8572 -0.1557  1.0799
  826MOL0     H13919   9.064   3.877   8.238 -2.5420  0.3278 -1.0223
  826MOL0     H13920   9.241   3.722   8.287 -0.4995  1.6112 -1.2256
  826MOL0     H13921   9.207   3.426   8.582  0.8920 -1.2625 -0.3018
  826MOL0     H13922   9.211   3.599   8.544  1.6970  0.4908  3.5456
  826MOL0     H13923   9.418   3.601   8.476 -3.3914  0.7910  0.5026
  826MOL0     H13924   9.417   3.510   8.635  0.0860 -2.9103  0.4501
  826MOL0     H13925   9.421   3.363   8.359  3.1533  1.4726 -1.7100
  826MOL0     H13926   9.576   3.410   8.434  0.7310  1.6825  1.4326
  826MOL0     H13927   9.527   3.289   8.635 -0.7300 -1.1402  1.2732
  826MOL0     H13928   9.361   3.242   8.579  0.2002 -0.6381  0.6134
  826MOL0     H13929   9.550   3.056   8.560  1.8283 -0.9579 -1.4955
  826MOL0     H13930   9.611   3.146   8.416 -1.2891  2.4819 -0.9297
  826MOL0     H13931   9.326   3.065   8.412 -0.2257  2.6426  0.2162
  826MOL0     H13932   9.422   3.151   8.288 -0.3193 -2.0268 -2.2741
  826MOL0     H13933   9.531   2.883   8.407 -2.2729 -2.9269 -0.3618
  826MOL0     H13934   9.575   2.972   8.264 -0.4911  1.0396 -0.3944
  826MOL0     H13935   9.295   2.854   8.306 -0.9439 -0.6338 -1.1567
  826MOL0     H13936   9.374   2.901   8.150 -2.3897  3.8105  2.2727
  826MOL0     H13937   9.613   2.752   8.102  1.8370  0.5671  2.1414
  826MOL0     H13938   9.661   2.383   8.158  0.7166  1.4211  0.6834
  826MOL0     H13939   9.729   2.521   8.081  0.0333  0.5079 -0.0778
  826MOL0     H13940   9.576   2.458   7.880 -2.7415 -2.1104 -0.7538
  826MOL0     H13941   9.713   2.352   7.932  0.2238 -1.3932 -0.0137
  826MOL0     H13942   9.539   2.197   8.045 -1.4133  0.7009  1.1112
  826MOL0     H13943   9.413   2.313   7.993  1.4521  1.1788  4.0378
  826MOL0     H13944   9.431   2.121   7.824 -0.8135  1.7477  2.9298
  826MOL0     H13945   9.495   2.275   7.761 -0.0596  0.0428 -0.0601
  826MOL0     H13946   9.856   2.021   7.855  1.1580 -0.1541  0.5689
  826MOL0     H13947  10.014   1.760   7.697  1.1059  1.7757 -1.1817
  826MOL0     H13948   9.974   1.750   7.872  0.8511  2.7501  1.5198
  826MOL0     H13949  10.027   1.900   7.809  2.0490 -1.8780  1.2999
  826MOL0     H13950   9.606   1.489   7.298  1.0797  0.4663  2.8006
  826MOL0     H13951   9.716   1.426   7.074 -0.9218  0.1358  1.0346
  826MOL0     H13952   9.908   1.302   6.985  1.1356 -0.2214 -0.8203
  826MOL0     H13953   9.862   1.425   6.870 -0.6299  1.3650  1.9934
  826MOL0     H13954  10.111   1.428   6.781  0.4679  0.5809  1.3681
  826MOL0     H13955  10.146   1.297   6.874  0.0840 -0.2221  0.7375
  826MOL0     H13956   9.913   1.283   6.663  0.3275 -1.1679 -1.6625
  826MOL0     H13957   9.979   1.154   6.768  2.9242 -0.7383  0.8533
  826MOL0     H13958  10.196   1.180   6.668 -1.3470 -1.8676  0.9518
  826MOL0     H13959  10.136   1.308   6.556 -0.6671 -0.8491 -1.0060
  826MOL0     H13960   9.967   1.127   6.464  0.0366 -2.3193 -1.7350
  826MOL0     H13961  10.134   1.101   6.427  3.4375 -0.5353  1.8844
  826MOL0     H13962   9.965   0.940   6.631 -0.8433  1.7682 -1.4643
  826MOL0     H13963  10.142   0.961   6.638  1.6743 -0.0326 -2.2058
  826MOL0     H13964  10.161   0.819   6.437 -1.0171 -1.4170  0.6408
  826MOL0     H13965  10.006   0.874   6.373  0.1298 -0.0278  0.2205
  826MOL0     H13966   9.901   0.684   6.481 -0.1294 -1.4392  3.7599
  826MOL0     H13967   9.984   0.707   6.629  0.9668 -3.8331  1.1201
  826MOL0     H13968  10.087   1.600   7.208  0.9430 -1.5228 -0.2429
  826MOL0     H13969   9.984   1.646   7.422 -0.8848  0.7999 -0.5083
  826MOL0     H13970   9.538   1.754   7.593 -0.0233  0.0784 -0.0019
  826MOL0     H13971   9.462   1.965   7.678  0.6134  0.6927 -0.5019
  826MOL0     H13972   8.951   3.409   8.368  2.2586  0.1206 -0.3463
  826MOL0     H13973   8.776   3.564   8.261  1.1811 -0.6789 -1.2511
  826MOL0     H13974   8.447   3.901   8.371  0.2869  1.1121  1.7063
  826MOL0     H13975   8.264   4.015   8.281  0.4630 -0.8694  2.9774
  826MOL0     H13976   8.137   4.230   7.908 -0.6231 -1.5628  1.9082
  826MOL0     H13977   8.300   4.211   7.865 -0.0446  0.8066 -0.6283
  826MOL0     H13978   8.244   3.952   7.854  1.5405  2.0059  1.2980
  826MOL0     H13979   8.177   4.056   7.724 -0.3544 -2.2795 -0.5956
  826MOL0     H13980   8.017   4.001   7.977 -1.7575  2.6333 -0.6845
  826MOL0     H13981   7.966   4.023   7.821 -0.0046  0.7687  1.6054
  826MOL0     H13982   7.932   3.778   7.837 -0.4446 -3.7318  0.1503
  826MOL0     H13983   8.097   3.774   7.923 -2.5741  0.6589  0.7372
  826MOL0     H13984   8.118   3.751   7.494 -1.6440  4.4320 -0.4541
  826MOL0     H13985   8.461   4.045   7.903  1.2241  0.4779  1.2496
  826MOL0     H13986   8.713   3.799   7.976  4.5381 -0.0027 -2.2429
  826MOL0     H13987   8.648   3.915   7.857  0.4242 -1.9636  1.0169
  826MOL0     H13988   8.780   3.961   7.962  1.3787 -0.9287  0.0494
  827MOL0     O13989   5.982   9.760   8.568 -1.0990  0.4958 -0.9776
  827MOL0     C13990   5.911   9.714   8.661  0.0386 -0.1970 -0.6812
  827MOL0     O13991   5.930   9.724   8.792 -0.1103 -0.2241  0.1946
  827MOL0     C13992   6.059   9.737   8.833  0.8499 -0.3961  0.8259
  827MOL0     C13993   6.113   9.857   8.855 -0.3995  0.3673  0.5032
  827MOL0     C13994   6.248   9.869   8.896  0.1042  0.1351 -0.7567
  827MOL0     C13995   6.326   9.750   8.913  0.1140 -0.5906 -0.0944
  827MOL0     O13996   6.462   9.750   8.954 -0.0581  0.5575 -0.1140
  827MOL0     C13997   6.527   9.886   8.932  0.3406  0.8812 -0.3491
  827MOL0     C13998   6.669   9.900   8.997 -0.3115  0.4521 -0.2635
  827MOL0     C13999   6.764   9.793   8.961 -0.8466  0.0610  0.3651
  827MOL0     C14000   6.904   9.848   8.976 -0.0112 -0.3983  0.5396
  827MOL0     C14001   7.021   9.760   8.899  0.1945 -0.3131 -0.0107
  827MOL0     C14002   7.162   9.808   8.932 -0.5149 -0.4324 -0.4040
  827MOL0     C14003   7.263   9.789   8.815  0.4766  0.3020 -0.3236
  827MOL0     C14004   7.279   9.638   8.793 -0.2410  0.1998 -0.6049
  827MOL0     N14005   7.343   9.604   8.668 -0.4025 -0.0557 -0.2212
  827MOL0     C14006   7.481   9.603   8.652 -0.5769  0.6555  0.3446
  827MOL0     C14007   7.502   9.579   8.517 -0.5578 -0.4860 -0.0195
  827MOL0     C14008   7.634   9.581   8.441  0.3624  0.2453 -0.1266
  827MOL0     C14009   7.623   9.701   8.340  0.3485 -0.0117  0.7136
  827MOL0     C14010   7.750   9.746   8.268 -0.4721  0.7747 -0.0757
  827MOL0     C14011   7.865   9.790   8.360 -0.9546 -0.1007 -0.2301
  827MOL0     O14012   7.824   9.859   8.481  0.3003 -0.2691  0.2836
  827MOL0     C14013   7.903   9.875   8.589 -0.8388 -0.2712 -0.5565
  827MOL0     C14014   8.039   9.879   8.585 -0.2132 -0.2352 -0.6186
  827MOL0     C14015   8.115   9.895   8.702  0.4323 -1.1004 -1.0649
  827MOL0     C14016   8.268   9.910   8.678  0.9633  0.4226  0.5947
  827MOL0     C14017   8.051   9.937   8.826  0.2192  0.6895 -0.0051
  827MOL0     C14018   8.126   9.979   8.948 -0.1869  1.3287  0.2361
  827MOL0     O14019   8.254   9.934   8.955 -0.0954 -1.0137  0.2161
  827MOL0     C14020   8.333   9.970   9.058  0.4090 -0.4619 -1.7538
  827MOL0     C14021   8.286   9.975   9.198 -0.0469 -0.4276  0.1590
  827MOL0     C14022   8.383  10.007   9.298  0.3052 -0.5716 -0.5650
  827MOL0     C14023   8.521  10.019   9.265  0.2976 -1.0447  0.0940
  827MOL0     O14024   8.630  10.032   9.347  0.0088  0.4892 -0.3256
  827MOL0     C14025   8.610   9.985   9.482 -0.7481  0.2275 -0.0194
  827MOL0     C14026   8.739   9.962   9.563 -0.2298 -0.6825 -0.6905
  827MOL0     C14027   8.815   9.840   9.501 -0.5563 -0.7757  0.1501
  827MOL0     C14028   8.964   9.823   9.551  0.1850 -0.1922 -0.6284
  827MOL0     C14029   9.006   9.682   9.569 -1.6285  0.0121 -0.7761
  827MOL0     C14030   9.159   9.667   9.603 -0.5007  0.0934 -0.1710
  827MOL0     C14031   9.243   9.664   9.470  0.0759 -0.2419  0.2604
  827MOL0     C14032   9.389   9.658   9.506 -1.1674 -0.3001 -0.2516
  827MOL0    Cl14033   9.430   9.520   9.611 -0.4775  0.1056 -0.3295
  827MOL0     C14034   8.560  10.001   9.134 -0.4643  0.3234 -0.4566
  827MOL0     C14035   8.465   9.975   9.032  0.1109  0.7343 -0.4664
  827MOL0     O14036   8.069  10.042   9.028  0.6898 -0.6528  0.3293
  827MOL0     C14037   7.916   9.950   8.819  0.5384 -0.3558  0.6018
  827MOL0     C14038   7.847   9.928   8.700  0.1297 -0.7598 -0.3982
  827MOL0     N14039   7.384   9.550   8.458 -0.4828  0.3019 -0.6362
  827MOL0     N14040   7.292   9.571   8.546 -0.2398 -0.4644 -0.3055
  827MOL0     C14041   6.260   9.631   8.896  0.1874  0.3007  0.0731
  827MOL0     C14042   6.126   9.617   8.858  0.7266  0.5177  0.4509
  827MOL0     C14043   5.777   9.656   8.619  0.2684  0.1926  0.9424
  827MOL0     C14044   5.771   9.568   8.510 -0.6920  0.1098 -0.6413
  827MOL0     C14045   5.654   9.526   8.456  0.6281 -0.0817 -0.5827
  827MOL0     C14046   5.532   9.559   8.504  0.6741 -0.7978 -0.1273
  827MOL0     O14047   5.417   9.517   8.432  0.1339 -0.3300  0.3241
  827MOL0     C14048   5.286   9.550   8.489  0.5113 -0.7440  0.2017
  827MOL0     C14049   5.171   9.479   8.402 -0.8482 -0.0548 -0.7462
  827MOL0     C14050   5.149   9.543   8.253  0.2564  0.0885 -0.7994
  827MOL0     C14051   5.260   9.495   8.160  0.7183  0.5263  0.6917
  827MOL0     C14052   5.227   9.540   8.021  0.0097  0.4697 -0.0172
  827MOL0     C14053   5.193   9.556   7.906 -0.3188 -0.4288 -0.6737
  827MOL0     C14054   5.537   9.652   8.617  0.1571  0.4779 -0.8274
  827MOL0     C14055   5.654   9.700   8.677 -0.0011  0.1475 -0.1712
  827MOL0     C14056   5.645   9.811   8.781  0.6893  0.2108  0.9422
  827MOL0     H14057   6.061   9.948   8.826  2.9943  2.3770  0.2064
  827MOL0     H14058   6.288   9.969   8.905  0.0025 -0.0175  2.2756
  827MOL0     H14059   6.477   9.975   8.971  0.4350 -1.1066  5.2617
  827MOL0     H14060   6.539   9.894   8.824  0.1989 -1.3872 -0.5904
  827MOL0     H14061   6.711   9.997   8.968  1.4448  0.0583  0.7997
  827MOL0     H14062   6.651   9.886   9.104  1.3082  1.3687  0.1680
  827MOL0     H14063   6.753   9.708   9.029 -2.5666 -0.8188 -0.9344
  827MOL0     H14064   6.753   9.760   8.857 -2.5865 -0.2883  0.6321
  827MOL0     H14065   6.914   9.947   8.930  1.9860 -0.1097  1.4789
  827MOL0     H14066   6.929   9.859   9.082  2.0634  0.7525 -0.0141
  827MOL0     H14067   7.008   9.755   8.790  3.3250 -2.2859 -0.4162
  827MOL0     H14068   7.019   9.656   8.935  0.3128 -0.6222 -0.8691
  827MOL0     H14069   7.152   9.915   8.953  1.7047 -0.1851 -0.3051
  827MOL0     H14070   7.207   9.756   9.017  0.6286 -0.1991 -0.8475
  827MOL0     H14071   7.358   9.841   8.834  1.7924 -1.5346 -1.6061
  827MOL0     H14072   7.225   9.837   8.724  0.9080 -1.8766 -1.7305
  827MOL0     H14073   7.342   9.611   8.878 -0.0103 -0.5402 -1.0067
  827MOL0     H14074   7.187   9.581   8.811  0.8330 -0.6109  3.4438
  827MOL0     H14075   7.558   9.626   8.725  1.0130  2.6805 -1.8348
  827MOL0     H14076   7.655   9.498   8.374 -1.0376  2.3993 -3.4703
  827MOL0     H14077   7.715   9.616   8.507 -0.4298  2.3722 -0.2267
  827MOL0     H14078   7.559   9.674   8.256  3.0931 -0.9555 -1.2296
  827MOL0     H14079   7.582   9.789   8.390  1.1469 -0.8549  2.9869
  827MOL0     H14080   7.783   9.666   8.201  1.3008  1.7950 -0.5009
  827MOL0     H14081   7.726   9.829   8.201  2.0762  0.8713 -0.9973
  827MOL0     H14082   7.907   9.692   8.382 -4.1772 -1.2139  1.6474
  827MOL0     H14083   7.939   9.855   8.311 -0.9695  1.8636  2.1779
  827MOL0     H14084   8.093   9.869   8.491  0.7515  0.7731 -0.1990
  827MOL0     H14085   8.281   9.901   8.570 -0.4002 -1.2123  0.5353
  827MOL0     H14086   8.336   9.841   8.729  0.3021 -0.3123  0.4998
  827MOL0     H14087   8.294  10.014   8.703  0.7560  0.9677 -1.2520
  827MOL0     H14088   8.180   9.968   9.221  0.1544  0.6330  1.5357
  827MOL0     H14089   8.349  10.032   9.398 -1.3308 -0.0961 -1.2104
  827MOL0     H14090   8.568  10.074   9.530 -1.3283  2.1298 -3.6348
  827MOL0     H14091   8.535   9.907   9.490  0.5478 -0.9939  0.6790
  827MOL0     H14092   8.800  10.053   9.566 -0.6477 -0.4217  1.5425
  827MOL0     H14093   8.716   9.947   9.669  2.4577  4.9368  1.0596
  827MOL0     H14094   8.819   9.857   9.393 -0.0570  1.9727  0.5378
  827MOL0     H14095   8.754   9.752   9.521 -3.1363  0.5935 -1.1461
  827MOL0     H14096   8.980   9.869   9.649  1.5663  1.1552 -1.4362
  827MOL0     H14097   9.032   9.887   9.493  2.3460  0.6219  2.5384
  827MOL0     H14098   8.953   9.634   9.652  1.0000 -2.3629 -0.3071
  827MOL0     H14099   8.984   9.625   9.479  3.0999 -2.4832 -0.6653
  827MOL0     H14100   9.164   9.567   9.646  0.1581 -0.4799 -1.5147
  827MOL0     H14101   9.205   9.732   9.678 -2.6034  0.0286  1.2464
  827MOL0     H14102   9.228   9.757   9.414 -1.9217  0.1580  1.3827
  827MOL0     H14103   9.212   9.577   9.411  0.5237  0.0522 -0.4289
  827MOL0     H14104   9.406   9.754   9.556 -0.5498 -0.7472  0.4269
  827MOL0     H14105   9.445   9.651   9.412 -1.2047 -1.0301 -0.2260
  827MOL0     H14106   8.662  10.021   9.102 -0.3625 -1.2903 -1.2547
  827MOL0     H14107   8.487   9.980   8.926 -2.2949  2.0517 -0.9892
  827MOL0     H14108   7.870   9.981   8.913  0.6650 -0.8611  0.8367
  827MOL0     H14109   7.740   9.937   8.714  0.5200  1.2727  1.7829
  827MOL0     H14110   6.314   9.537   8.897  1.5491  1.0020 -1.8868
  827MOL0     H14111   6.087   9.517   8.842  0.2456  1.1818 -4.0649
  827MOL0     H14112   5.868   9.540   8.471  0.3609  0.4461  1.5533
  827MOL0     H14113   5.656   9.459   8.370 -4.2323 -0.8554 -0.3638
  827MOL0     H14114   5.287   9.513   8.591  0.8411 -0.4215  0.3201
  827MOL0     H14115   5.270   9.658   8.486  1.2465 -0.6213  0.5350
  827MOL0     H14116   5.078   9.486   8.460 -2.1128 -0.0865 -2.6818
  827MOL0     H14117   5.198   9.374   8.395  0.1367  0.2415 -1.5134
  827MOL0     H14118   5.057   9.507   8.206 -0.1815 -1.7302  1.3129
  827MOL0     H14119   5.147   9.651   8.271  0.4793 -0.1693  0.9875
  827MOL0     H14120   5.276   9.387   8.156  2.1243  0.6984 -3.5421
  827MOL0     H14121   5.356   9.543   8.176  1.3142  1.0528 -3.4759
  827MOL0     H14122   5.170   9.573   7.802 -0.4967  0.3368 -0.5166
  827MOL0     H14123   5.444   9.697   8.648  0.8946  1.6185 -0.2083
  827MOL0     H14124   5.664   9.779   8.884 -0.8249 -3.5795  0.2110
  827MOL0     H14125   5.722   9.883   8.751 -0.4037  1.2304  0.5000
  827MOL0     H14126   5.558   9.877   8.772  0.2535 -0.6447 -2.4229
  828MOL0     O14127   0.696   5.854   9.622  0.0009  0.4850  0.6557
  828MOL0     C14128   0.653   5.741   9.640  0.5692  0.2017  0.8992
  828MOL0     O14129   0.672   5.639   9.550 -0.4264  0.3696  0.1623
  828MOL0     C14130   0.739   5.686   9.438 -0.6296  0.4486 -0.2979
  828MOL0     C14131   0.872   5.712   9.443  0.1825  0.4779 -0.7718
  828MOL0     C14132   0.945   5.763   9.331 -0.7741  0.3556 -0.4814
  828MOL0     C14133   0.883   5.769   9.207 -0.0585 -0.0932 -0.4280
  828MOL0     O14134   0.955   5.825   9.107 -0.2776 -1.0583  0.0865
  828MOL0     C14135   0.902   5.851   8.976  0.0698 -0.0191 -0.0426
  828MOL0     C14136   0.913   5.722   8.888  0.1293  0.0195 -0.2310
  828MOL0     C14137   1.057   5.673   8.863  0.1538 -0.0801  0.3595
  828MOL0     C14138   1.167   5.781   8.825 -0.1681 -0.0494  0.3181
  828MOL0     C14139   1.306   5.731   8.787  0.5466  0.6184  0.2733
  828MOL0     C14140   1.307   5.683   8.643 -0.4148 -0.2940  0.1094
  828MOL0     C14141   1.444   5.616   8.609 -0.0398 -0.4625 -0.3424
  828MOL0     C14142   1.458   5.571   8.466 -0.0628  0.4064 -0.0303
  828MOL0     N14143   1.605   5.561   8.429  0.4105  0.2070 -0.2001
  828MOL0     C14144   1.692   5.464   8.476  0.9726  0.0627  0.6196
  828MOL0     C14145   1.814   5.491   8.417  0.7523 -0.0214 -0.2129
  828MOL0     C14146   1.937   5.411   8.460  1.0415 -1.6508  0.6487
  828MOL0     C14147   2.009   5.366   8.334 -0.0517 -0.2830 -0.1261
  828MOL0     C14148   2.125   5.283   8.374 -0.3640 -0.2275  0.1967
  828MOL0     C14149   2.230   5.259   8.267 -0.0497  0.6689 -0.2254
  828MOL0     O14150   2.184   5.185   8.154  0.1260 -0.0562 -0.4581
  828MOL0     C14151   2.226   5.060   8.136 -0.1184 -0.3615 -0.4759
  828MOL0     C14152   2.163   4.966   8.219  0.6227  0.0276 -0.9096
  828MOL0     C14153   2.195   4.831   8.194  1.1585  0.5454 -0.4315
  828MOL0     C14154   2.134   4.729   8.298 -0.1653  0.0969  1.1107
  828MOL0     C14155   2.281   4.790   8.092 -0.0192  0.2023  0.1478
  828MOL0     C14156   2.341   4.658   8.074  0.2439  0.0915  0.6920
  828MOL0     O14157   2.469   4.654   8.022  0.1457 -0.6959 -0.1508
  828MOL0     C14158   2.547   4.538   8.041 -0.2888  0.0992  1.2191
  828MOL0     C14159   2.539   4.438   8.135  0.5904 -0.7254  0.3280
  828MOL0     C14160   2.636   4.344   8.160  0.5307  0.0376 -0.4934
  828MOL0     C14161   2.750   4.337   8.090  0.0972 -0.0509  0.6855
  828MOL0     O14162   2.852   4.250   8.132 -0.3738 -0.4213 -0.1205
  828MOL0     C14163   2.975   4.245   8.058  0.2755  1.2086  0.6548
  828MOL0     C14164   3.060   4.129   8.097 -0.2404  0.8011  0.3590
  828MOL0     C14165   3.124   4.154   8.233  0.5432  0.3510 -0.7981
  828MOL0     C14166   3.217   4.040   8.268 -0.4319 -0.6751 -0.3938
  828MOL0     C14167   3.293   4.065   8.400 -0.0568  0.0081  0.0838
  828MOL0     C14168   3.373   4.188   8.432 -0.5108 -0.2505  0.6429
  828MOL0     C14169   3.405   4.189   8.586  0.0950  0.2198  0.7928
  828MOL0     C14170   3.500   4.302   8.627 -0.4237  0.7042 -0.0661
  828MOL0    Cl14171   3.664   4.265   8.581  0.1548 -0.3380  0.3534
  828MOL0     C14172   2.759   4.425   7.981  0.0792 -0.3318 -0.0094
  828MOL0     C14173   2.662   4.531   7.956  0.2541  0.7003  0.7272
  828MOL0     O14174   2.264   4.561   8.087 -0.0922 -0.0293  0.0451
  828MOL0     C14175   2.334   4.883   8.010 -0.4287 -0.2137  0.4173
  828MOL0     C14176   2.311   5.017   8.035  0.4291  0.1098 -0.4384
  828MOL0     N14177   1.802   5.606   8.340 -0.0763 -0.2164  0.7169
  828MOL0     N14178   1.676   5.646   8.346  0.3814  0.1092  0.1158
  828MOL0     C14179   0.743   5.740   9.210 -0.5883 -0.2285 -0.2918
  828MOL0     C14180   0.673   5.689   9.316  0.4109  0.2207 -1.0022
  828MOL0     C14181   0.583   5.736   9.767  0.9575 -0.1579  0.3742
  828MOL0     C14182   0.514   5.845   9.813  0.3635 -0.6262 -0.3388
  828MOL0     C14183   0.446   5.846   9.937  0.0137  0.1456  0.1193
  828MOL0     C14184   0.450   5.731  10.024  0.0236  0.1885  0.8795
  828MOL0     O14185   0.399   5.758  10.153 -0.1738 -0.8359  0.9257
  828MOL0     C14186   0.398   5.664  10.262 -0.7637  0.3626  0.0605
  828MOL0     C14187   0.438   5.727  10.400 -0.8171 -0.5996 -0.6797
  828MOL0     C14188   0.319   5.809  10.458  0.9200 -0.7445  0.4078
  828MOL0     C14189   0.361   5.901  10.583  0.7922  0.6172  0.8799
  828MOL0     C14190   0.456   6.004  10.548 -0.2752  0.3501  0.4016
  828MOL0     C14191   0.545   6.081  10.519  0.0840  0.4374 -0.3819
  828MOL0     C14192   0.510   5.611   9.969 -1.0680  0.4652  0.7171
  828MOL0     C14193   0.573   5.614   9.844  0.2980  0.1422  0.1507
  828MOL0     C14194   0.654   5.495   9.813 -0.6668  0.8961  0.1843
  828MOL0     H14195   0.933   5.698   9.532  0.6328  1.7170 -0.8685
  828MOL0     H14196   1.050   5.784   9.350 -0.9374 -0.2396  1.3219
  828MOL0     H14197   0.963   5.931   8.933  0.1998 -0.1203 -0.0457
  828MOL0     H14198   0.797   5.883   8.976 -0.1964 -0.7914  1.5026
  828MOL0     H14199   0.866   5.634   8.934  0.2523  0.2863  0.4172
  828MOL0     H14200   0.852   5.743   8.800  0.7442  0.7866 -0.4827
  828MOL0     H14201   1.091   5.620   8.952 -1.0463 -2.1846 -0.3646
  828MOL0     H14202   1.055   5.594   8.788 -0.1855 -1.5156  1.8291
  828MOL0     H14203   1.125   5.836   8.741  3.4170 -0.1983 -1.7590
  828MOL0     H14204   1.175   5.854   8.907 -0.8630 -0.2281  0.5533
  828MOL0     H14205   1.326   5.646   8.853 -1.5868  0.0721  0.2924
  828MOL0     H14206   1.380   5.809   8.804  0.0785  0.7535  1.9316
  828MOL0     H14207   1.218   5.626   8.616 -0.9442  0.6916 -0.3073
  828MOL0     H14208   1.300   5.775   8.585  0.9907 -0.9307 -1.1325
  828MOL0     H14209   1.438   5.528   8.674  1.9336 -0.6204 -0.3015
  828MOL0     H14210   1.527   5.680   8.643  0.4231 -1.2348  0.0002
  828MOL0     H14211   1.411   5.474   8.445  4.9348 -2.3282 -0.1191
  828MOL0     H14212   1.409   5.636   8.393  0.6489 -0.9771 -1.8262
  828MOL0     H14213   1.655   5.379   8.533  0.1958 -0.0416 -0.0349
  828MOL0     H14214   1.897   5.327   8.519 -0.5383 -1.0731  0.4372
  828MOL0     H14215   1.997   5.474   8.526  0.3859 -0.4594  0.1279
  828MOL0     H14216   1.945   5.301   8.275 -0.6315  0.8212 -0.7362
  828MOL0     H14217   2.039   5.449   8.268  2.9990 -2.5977 -1.9215
  828MOL0     H14218   2.179   5.332   8.456  1.1125  0.1583 -0.9741
  828MOL0     H14219   2.084   5.190   8.414 -0.6956 -0.6523 -1.1083
  828MOL0     H14220   2.266   5.352   8.222  0.3491 -0.4770 -2.4423
  828MOL0     H14221   2.304   5.199   8.321 -2.6149 -0.1563  2.6787
  828MOL0     H14222   2.107   4.998   8.306  1.9042  2.8274 -0.9815
  828MOL0     H14223   2.214   4.683   8.356 -0.4144  0.5578  1.8299
  828MOL0     H14224   2.072   4.646   8.262 -0.3307  0.4926  0.4532
  828MOL0     H14225   2.068   4.775   8.372 -0.2861  1.3544  0.2623
  828MOL0     H14226   2.460   4.426   8.208  0.0598  3.1656  0.5963
  828MOL0     H14227   2.625   4.293   8.254  0.6603 -0.3134 -0.6667
  828MOL0     H14228   2.962   4.237   7.950 -2.4412  0.3145  0.9675
  828MOL0     H14229   3.027   4.337   8.087  0.2453  1.2751  0.5047
  828MOL0     H14230   2.990   4.045   8.099  1.4241 -0.7298 -1.1745
  828MOL0     H14231   3.141   4.112   8.026 -0.4497  0.5517  0.1761
  828MOL0     H14232   3.055   4.178   8.314 -0.2525 -0.5557 -1.1932
  828MOL0     H14233   3.192   4.238   8.219  1.9129 -0.1736  1.9849
  828MOL0     H14234   3.307   4.034   8.205  1.9861 -3.6615  2.9742
  828MOL0     H14235   3.166   3.943   8.261 -0.8074 -0.4963 -0.1454
  828MOL0     H14236   3.223   4.040   8.480  1.8990 -2.2540  1.2086
  828MOL0     H14237   3.364   3.982   8.407 -1.4606 -1.1982  0.6794
  828MOL0     H14238   3.318   4.281   8.415  1.6682  1.3062  1.6343
  828MOL0     H14239   3.458   4.186   8.363 -0.9908 -0.3120  0.0377
  828MOL0     H14240   3.466   4.098   8.596  0.7770  0.1970 -2.4931
  828MOL0     H14241   3.309   4.178   8.637 -1.2873 -1.6620 -1.9534
  828MOL0     H14242   3.502   4.313   8.736  0.5666 -1.8773  0.2497
  828MOL0     H14243   3.460   4.392   8.579 -1.3336  0.5241  0.3299
  828MOL0     H14244   2.851   4.423   7.922 -1.2174 -3.0552 -2.1871
  828MOL0     H14245   2.670   4.611   7.883  0.1407  1.6414  1.7186
  828MOL0     H14246   2.391   4.855   7.922 -2.2579 -2.0050 -0.2892
  828MOL0     H14247   2.346   5.085   7.958  0.9900  1.3714  0.8869
  828MOL0     H14248   0.691   5.760   9.117 -1.5318  1.2299  0.5157
  828MOL0     H14249   0.565   5.681   9.305  0.2852  1.0579 -0.4205
  828MOL0     H14250   0.529   5.939   9.761 -2.3902 -0.6580 -1.3683
  828MOL0     H14251   0.376   5.925   9.961 -3.2911 -1.2922 -3.7442
  828MOL0     H14252   0.292   5.637  10.267 -1.5757  3.1533 -0.1428
  828MOL0     H14253   0.459   5.577  10.238 -0.2774  0.5156  0.7371
  828MOL0     H14254   0.529   5.787  10.392 -0.5048 -0.3236  3.0884
  828MOL0     H14255   0.455   5.634  10.457 -1.4955 -0.0555  0.4424
  828MOL0     H14256   0.290   5.881  10.380 -0.1002 -1.6824 -0.0988
  828MOL0     H14257   0.235   5.746  10.489 -0.1155  0.1745 -0.4385
  828MOL0     H14258   0.399   5.837  10.664 -0.2912 -2.7769 -1.1152
  828MOL0     H14259   0.272   5.958  10.609  1.1965  3.6832 -3.3782
  828MOL0     H14260   0.613   6.153  10.478  0.5286 -1.2404 -2.7802
  828MOL0     H14261   0.516   5.524  10.033  0.3923  0.1734  0.2143
  828MOL0     H14262   0.693   5.435   9.896  0.2432 -0.0781 -0.9163
  828MOL0     H14263   0.594   5.414   9.769  0.1389  0.4718 -0.1598
  828MOL0     H14264   0.737   5.516   9.745 -1.5586 -2.7939 -2.3612
  829MOL0     O14265   0.328   4.632   9.273  0.3445 -0.1453  0.0002
  829MOL0     C14266   0.354   4.720   9.358 -0.5974  0.7480  0.5236
  829MOL0     O14267   0.273   4.827   9.389  0.1082  0.5116  0.2205
  829MOL0     C14268   0.142   4.843   9.336 -1.0090  0.2295 -0.1234
  829MOL0     C14269   0.055   4.729   9.345  0.6944  0.3697 -0.4140
  829MOL0     C14270  -0.076   4.737   9.302 -0.2534  0.6497  0.0567
  829MOL0     C14271  -0.133   4.860   9.269  0.3341 -0.6103 -0.0795
  829MOL0     O14272  -0.255   4.864   9.202  0.4588  0.3642 -0.4221
  829MOL0     C14273  -0.346   4.962   9.240 -0.9914  0.0610 -0.0655
  829MOL0     C14274  -0.486   4.914   9.184  0.6291 -0.0112  0.0277
  829MOL0     C14275  -0.602   5.013   9.222  0.3599 -0.5627  0.0829
  829MOL0     C14276  -0.723   4.995   9.128 -0.4585 -0.2141  0.4188
  829MOL0     C14277  -0.827   5.082   9.188 -0.5024  0.5880  0.1449
  829MOL0     C14278  -0.977   5.049   9.144 -0.0798 -0.1629  0.1244
  829MOL0     C14279  -1.059   5.175   9.177 -0.6151  0.2187 -0.1754
  829MOL0     C14280  -1.212   5.148   9.210  0.1551 -0.3500 -0.5593
  829MOL0     N14281  -1.289   5.105   9.104  0.7231  0.6644  0.3958
  829MOL0     C14282  -1.267   5.119   8.964 -0.2861  0.4922  0.4032
  829MOL0     C14283  -1.387   5.102   8.897 -0.8923  0.4855 -0.3445
  829MOL0     C14284  -1.413   5.116   8.752 -1.0236  0.0762 -0.3731
  829MOL0     C14285  -1.416   4.974   8.688  0.6252  0.6786  0.2814
  829MOL0     C14286  -1.397   4.983   8.532 -0.2995  0.2008  1.0236
  829MOL0     C14287  -1.457   4.866   8.452 -0.9837 -0.4469 -0.3600
  829MOL0     O14288  -1.439   4.878   8.318 -0.8938 -0.1244 -0.3308
  829MOL0     C14289  -1.397   4.763   8.256 -0.1184 -0.1469  0.3464
  829MOL0     C14290  -1.483   4.728   8.150  0.1945  0.4124 -0.4440
  829MOL0     C14291  -1.462   4.614   8.066  0.2876 -0.8343 -0.4006
  829MOL0     C14292  -1.568   4.586   7.954  0.1072 -0.0902  0.5840
  829MOL0     C14293  -1.359   4.527   8.095 -0.4112 -0.4579 -0.2273
  829MOL0     C14294  -1.310   4.418   8.000  0.5072  0.1522  0.8539
  829MOL0     O14295  -1.178   4.380   7.995  0.5075 -0.4379  0.2650
  829MOL0     C14296  -1.134   4.280   7.911  0.6561 -0.1060 -0.2794
  829MOL0     C14297  -1.165   4.263   7.770  0.5576 -0.9885 -0.0171
  829MOL0     C14298  -1.114   4.163   7.691 -0.1470 -0.5026 -0.1776
  829MOL0     C14299  -1.019   4.074   7.758 -0.1331 -0.0498 -0.8068
  829MOL0     O14300  -0.943   3.974   7.696  0.5598  0.5209 -0.2079
  829MOL0     C14301  -1.000   3.907   7.587  0.4069 -0.3116 -0.2586
  829MOL0     C14302  -0.874   3.843   7.520  0.4346  0.4019  0.6608
  829MOL0     C14303  -0.813   3.729   7.600 -0.4035  0.1382  0.5127
  829MOL0     C14304  -0.687   3.679   7.524  0.0895 -0.9944  0.1241
  829MOL0     C14305  -0.571   3.652   7.615 -0.1770  0.4540  0.8595
  829MOL0     C14306  -0.503   3.523   7.566  0.4860  0.1966  0.0968
  829MOL0     C14307  -0.362   3.509   7.633  0.2120 -0.4533  0.1102
  829MOL0     C14308  -0.363   3.501   7.781  0.1414  0.8356  0.6126
  829MOL0    Cl14309  -0.375   3.661   7.865  0.1877 -0.7153  0.1553
  829MOL0     C14310  -0.997   4.082   7.902  0.3493 -0.6283  0.2571
  829MOL0     C14311  -1.050   4.187   7.980  0.0705 -0.4295 -0.7511
  829MOL0     O14312  -1.396   4.357   7.940 -0.0175 -0.2823 -0.6524
  829MOL0     C14313  -1.278   4.552   8.212  0.2323 -0.0376 -0.6924
  829MOL0     C14314  -1.299   4.673   8.284 -0.4895 -0.2652 -0.8884
  829MOL0     N14315  -1.478   5.075   8.994 -0.0520  0.3698  0.4407
  829MOL0     N14316  -1.428   5.085   9.115  0.3225  0.5327 -0.5499
  829MOL0     C14317  -0.052   4.979   9.266  0.0848 -0.4780  0.3707
  829MOL0     C14318   0.086   4.971   9.300 -0.6839  0.9201 -0.2019
  829MOL0     C14319   0.491   4.716   9.412 -0.4039 -0.0019  0.6120
  829MOL0     C14320   0.513   4.753   9.541 -0.2886 -0.9494 -0.3110
  829MOL0     C14321   0.634   4.758   9.603  0.3136 -0.3444  0.8582
  829MOL0     C14322   0.752   4.712   9.538  0.5636  1.2900 -0.2093
  829MOL0     O14323   0.868   4.703   9.611 -0.4862 -0.0390 -0.5335
  829MOL0     C14324   0.987   4.657   9.542  0.1383  0.5390 -0.0390
  829MOL0     C14325   1.098   4.643   9.635  0.7134  0.4515 -0.2501
  829MOL0     C14326   1.134   4.766   9.708  0.7129  0.0080  0.2210
  829MOL0     C14327   1.272   4.750   9.778 -0.4337 -0.1358  0.4215
  829MOL0     C14328   1.307   4.881   9.830 -0.8912  0.4257 -0.9907
  829MOL0     C14329   1.331   5.002   9.860  0.3093 -0.2487  0.2122
  829MOL0     C14330   0.735   4.669   9.403 -0.2607 -0.5713  0.2570
  829MOL0     C14331   0.603   4.667   9.344  0.5251  0.4905 -0.0783
  829MOL0     C14332   0.603   4.605   9.201 -0.6682  0.4522 -0.5788
  829MOL0     H14333   0.099   4.633   9.370  1.2997  0.0126 -2.6770
  829MOL0     H14334  -0.128   4.643   9.285  0.4541  0.6903 -2.8371
  829MOL0     H14335  -0.313   5.060   9.205  2.2697 -1.1704 -0.7644
  829MOL0     H14336  -0.339   4.969   9.349  1.8406  2.8131 -0.2925
  829MOL0     H14337  -0.480   4.897   9.076 -2.0451 -1.6984  0.0212
  829MOL0     H14338  -0.503   4.817   9.231  0.9159 -2.1460 -3.8131
  829MOL0     H14339  -0.620   4.990   9.327 -0.0896 -1.0250 -0.0946
  829MOL0     H14340  -0.568   5.117   9.218 -0.4712 -0.3166 -1.7923
  829MOL0     H14341  -0.695   5.032   9.029 -0.7571 -0.6163  0.1813
  829MOL0     H14342  -0.753   4.890   9.127  2.1483 -1.1259  2.6444
  829MOL0     H14343  -0.787   5.182   9.169  2.4468 -0.1752  1.7995
  829MOL0     H14344  -0.823   5.069   9.297  2.4655 -1.0928 -0.0563
  829MOL0     H14345  -0.979   5.017   9.040  1.2271 -0.2516  0.1116
  829MOL0     H14346  -1.017   4.976   9.215 -0.0364  0.0380  0.3570
  829MOL0     H14347  -1.043   5.251   9.100  2.5131  1.6467  1.6605
  829MOL0     H14348  -1.014   5.211   9.270  0.5442 -1.1733 -0.1577
  829MOL0     H14349  -1.227   5.065   9.280 -1.5529 -0.6187 -1.2007
  829MOL0     H14350  -1.263   5.237   9.248  0.0404 -0.1400 -1.2072
  829MOL0     H14351  -1.171   5.151   8.926 -0.9537  2.4888  0.2730
  829MOL0     H14352  -1.332   5.174   8.707 -0.5958  1.5034  2.0996
  829MOL0     H14353  -1.505   5.168   8.724  0.0226  1.6046 -1.0845
  829MOL0     H14354  -1.342   4.907   8.734 -2.1721 -1.6777  1.6638
  829MOL0     H14355  -1.517   4.936   8.705 -0.5613  1.6559 -3.7651
  829MOL0     H14356  -1.437   5.083   8.508 -3.3575 -0.4473  2.8459
  829MOL0     H14357  -1.290   4.986   8.510 -0.2632  1.4499  1.2856
  829MOL0     H14358  -1.400   4.780   8.486  0.0458  0.3450 -0.0213
  829MOL0     H14359  -1.564   4.851   8.464 -0.9544 -0.9762 -0.7336
  829MOL0     H14360  -1.570   4.791   8.146 -0.9103 -0.9629  0.6973
  829MOL0     H14361  -1.657   4.649   7.958 -1.6193 -2.4097  0.1785
  829MOL0     H14362  -1.614   4.489   7.972 -2.0160  0.5969 -0.7659
  829MOL0     H14363  -1.528   4.589   7.853  1.3660  2.1064  1.0598
  829MOL0     H14364  -1.234   4.334   7.727  2.5015  1.7261  1.0672
  829MOL0     H14365  -1.145   4.171   7.588 -1.1626  1.4544  0.2358
  829MOL0     H14366  -1.082   3.835   7.603 -0.7683  0.6456 -1.6926
  829MOL0     H14367  -1.060   3.980   7.532 -2.1738 -1.1823  1.2255
  829MOL0     H14368  -0.916   3.803   7.428 -0.4547 -2.8997  2.3323
  829MOL0     H14369  -0.801   3.918   7.491  3.2292 -2.1641  0.5090
  829MOL0     H14370  -0.885   3.648   7.619 -2.0262  0.7364 -2.5563
  829MOL0     H14371  -0.774   3.777   7.691  4.0890  0.1351 -1.1793
  829MOL0     H14372  -0.653   3.749   7.447 -0.0081 -0.0982  0.8726
  829MOL0     H14373  -0.720   3.586   7.478 -3.0328 -1.0106  2.0987
  829MOL0     H14374  -0.517   3.747   7.615 -1.2577  1.1178 -1.1746
  829MOL0     H14375  -0.607   3.625   7.715  0.3680 -0.3643  0.8520
  829MOL0     H14376  -0.487   3.522   7.458  0.5855 -1.4961  0.0962
  829MOL0     H14377  -0.563   3.433   7.582 -0.8875  0.8763 -1.0827
  829MOL0     H14378  -0.305   3.596   7.600 -0.2940  0.0402  0.5306
  829MOL0     H14379  -0.314   3.418   7.595 -3.2648 -3.4964  2.2986
  829MOL0     H14380  -0.268   3.454   7.810  1.7963  1.4170 -3.2622
  829MOL0     H14381  -0.443   3.438   7.820 -0.0135  1.8050  1.9173
  829MOL0     H14382  -0.930   4.007   7.942  1.2218 -0.6489 -1.1613
  829MOL0     H14383  -1.025   4.176   8.085 -1.1541  0.3483 -0.3596
  829MOL0     H14384  -1.202   4.481   8.243  0.4612 -0.2839 -1.7790
  829MOL0     H14385  -1.232   4.695   8.366 -2.5293 -3.0297  1.6989
  829MOL0     H14386  -0.093   5.077   9.241  4.4621  1.7779  0.9963
  829MOL0     H14387   0.168   5.039   9.281  1.8956 -2.7095 -3.7996
  829MOL0     H14388   0.428   4.774   9.605 -1.7948 -1.1100 -2.1959
  829MOL0     H14389   0.645   4.781   9.708 -0.6825  0.4915  0.7924
  829MOL0     H14390   0.967   4.561   9.494 -0.9355  0.4910  0.4727
  829MOL0     H14391   1.007   4.739   9.473 -0.9469 -0.2610 -1.3436
  829MOL0     H14392   1.181   4.608   9.573  1.4698 -1.1172  1.5431
  829MOL0     H14393   1.070   4.566   9.708  1.2129  0.9440  0.4687
  829MOL0     H14394   1.145   4.850   9.639  3.8170 -0.8724 -0.5431
  829MOL0     H14395   1.058   4.788   9.784 -0.0809 -1.4123 -0.1224
  829MOL0     H14396   1.338   4.707   9.702 -2.5585 -2.3533 -0.2977
  829MOL0     H14397   1.276   4.675   9.856  0.0767  0.7129  1.2334
  829MOL0     H14398   1.342   5.107   9.882 -2.3376  0.0141  0.5165
  829MOL0     H14399   0.810   4.630   9.335 -1.3689 -0.5243 -1.0437
  829MOL0     H14400   0.700   4.608   9.150 -0.3839  1.7795  0.0096
  829MOL0     H14401   0.567   4.504   9.222  0.5255  0.7725  3.9740
  829MOL0     H14402   0.530   4.664   9.144  0.3318  1.5543 -0.7639
  830MOL0     O14403  10.170   2.247  10.494 -0.6655 -0.4142  0.8573
  830MOL0     C14404  10.141   2.141  10.436 -0.0358 -0.2972  0.3752
  830MOL0     O14405  10.222   2.026  10.417 -1.0572 -0.5964 -0.1395
  830MOL0     C14406  10.349   2.033  10.475  1.0090 -0.7533 -0.1819
  830MOL0     C14407  10.368   2.023  10.615 -0.2904 -0.3033  0.1496
  830MOL0     C14408  10.493   2.033  10.668  0.2171  0.4614  0.4704
  830MOL0     C14409  10.603   2.059  10.578 -0.2438  0.8828 -0.7963
  830MOL0     O14410  10.729   2.084  10.615  0.4009  0.5022 -0.5377
  830MOL0     C14411  10.782   1.983  10.706 -0.1587 -0.0770  0.0627
  830MOL0     C14412  10.930   1.990  10.737 -0.6862  1.0449 -0.7059
  830MOL0     C14413  10.972   1.915  10.868 -0.1995 -0.3898 -0.5741
  830MOL0     C14414  11.007   1.769  10.838  0.0029  0.5538  0.2356
  830MOL0     C14415  11.022   1.703  10.977  0.4114 -0.3194  0.5327
  830MOL0     C14416  11.101   1.573  10.953  0.7619 -0.1239 -0.6350
  830MOL0     C14417  11.101   1.485  11.083  0.0290  0.8737  0.0982
  830MOL0     C14418  11.125   1.543  11.226 -0.8991 -1.1232  0.1019
  830MOL0     N14419  11.066   1.458  11.327 -1.0801 -0.4845  0.6784
  830MOL0     C14420  10.933   1.426  11.336  0.2337 -0.0193 -0.2029
  830MOL0     C14421  10.916   1.343  11.444  0.6348  0.8209 -0.2207
  830MOL0     C14422  10.785   1.279  11.500  0.6764 -0.4863 -0.2508
  830MOL0     C14423  10.670   1.278  11.402 -0.7476  0.1070 -1.2321
  830MOL0     C14424  10.533   1.229  11.466  0.1531  0.6641  0.2177
  830MOL0     C14425  10.530   1.098  11.540  0.2149 -0.1056 -0.6707
  830MOL0     O14426  10.398   1.036  11.538 -0.3554  0.2087  1.4960
  830MOL0     C14427  10.364   0.913  11.584 -0.5481  0.9154 -0.5646
  830MOL0     C14428  10.463   0.829  11.651  0.3753 -0.7185  0.4309
  830MOL0     C14429  10.438   0.701  11.709  0.1268 -0.0988 -0.6503
  830MOL0     C14430  10.539   0.641  11.805  0.5158  0.0853 -0.2557
  830MOL0     C14431  10.307   0.648  11.700 -0.0304  0.0769  0.4036
  830MOL0     C14432  10.259   0.515  11.745 -0.0479 -0.3435  0.4354
  830MOL0     O14433  10.339   0.405  11.713  0.0126  0.2399  0.2614
  830MOL0     C14434  10.340   0.298  11.803 -0.0578 -0.2157 -0.8806
  830MOL0     C14435  10.400   0.306  11.934  0.3294  0.1154  0.3132
  830MOL0     C14436  10.392   0.198  12.021  0.1278  0.1190  0.2197
  830MOL0     C14437  10.330   0.079  11.979  1.3325  0.6022  0.0761
  830MOL0     O14438  10.317  -0.022  12.074  0.1118  0.4123  0.6563
  830MOL0     C14439  10.319  -0.166  12.020 -0.5842  0.3783 -0.6188
  830MOL0     C14440  10.364  -0.268  12.132  0.5900  0.3737 -0.6436
  830MOL0     C14441  10.261  -0.273  12.259 -0.6424  1.1179  0.3864
  830MOL0     C14442  10.288  -0.388  12.352  0.4344  0.4769  0.3783
  830MOL0     C14443  10.339  -0.353  12.496  0.4367 -0.2741 -0.1064
  830MOL0     C14444  10.462  -0.270  12.502  0.9207 -0.0151 -0.1681
  830MOL0     C14445  10.523  -0.252  12.638  0.7754 -0.5602  0.0315
  830MOL0     C14446  10.620  -0.137  12.632  0.6738  0.0195 -0.4812
  830MOL0    Cl14447  10.745  -0.176  12.505  0.0396 -0.2186  0.2568
  830MOL0     C14448  10.279   0.062  11.852  0.6760  0.5770 -0.1633
  830MOL0     C14449  10.277   0.175  11.771  0.6333  0.3709  0.6689
  830MOL0     O14450  10.145   0.498  11.796  0.0432  0.2333 -0.3077
  830MOL0     C14451  10.209   0.728  11.631 -0.7072  1.0988 -0.3116
  830MOL0     C14452  10.235   0.859  11.583  0.9880 -0.2512 -0.0163
  830MOL0     N14453  11.041   1.324  11.502 -0.0137 -0.0756 -1.0476
  830MOL0     N14454  11.132   1.388  11.430 -0.1712  0.0709 -0.0075
  830MOL0     C14455  10.586   2.055  10.440 -0.3951  0.2943  0.0036
  830MOL0     C14456  10.458   2.046  10.391  1.1129 -0.2110  0.2066
  830MOL0     C14457   9.998   2.129  10.390 -0.9130 -0.5816 -0.5713
  830MOL0     C14458   9.960   2.005  10.334  0.0985  0.2272  0.6604
  830MOL0     C14459   9.835   1.976  10.289 -0.0626  0.0461  0.5201
  830MOL0     C14460   9.727   2.063  10.306 -0.6470  0.0784  0.9709
  830MOL0     O14461   9.601   2.019  10.287  0.0914 -0.1913  0.6846
  830MOL0     C14462   9.488   2.103  10.320  0.1411  0.0854  0.6428
  830MOL0     C14463   9.357   2.034  10.296  0.7843 -0.1284  0.3431
  830MOL0     C14464   9.337   1.987  10.140 -1.0245 -0.6581 -0.3944
  830MOL0     C14465   9.235   1.880  10.125 -0.3194 -0.0646 -0.4771
  830MOL0     C14466   9.197   1.865   9.988 -0.4671  0.3025 -0.4433
  830MOL0     C14467   9.154   1.861   9.873  1.0034  0.4828 -0.5957
  830MOL0     C14468   9.757   2.198  10.345 -0.6855  0.7289 -0.5093
  830MOL0     C14469   9.890   2.232  10.392 -0.4396 -0.5340 -0.3419
  830MOL0     C14470   9.922   2.382  10.397 -0.3883 -1.0224 -0.3006
  830MOL0     H14471  10.285   2.003  10.682  0.1105 -2.6540  0.0219
  830MOL0     H14472  10.513   2.038  10.775 -4.3542  0.8697  1.5168
  830MOL0     H14473  10.762   1.883  10.667 -1.3164 -0.9026  2.5587
  830MOL0     H14474  10.724   1.980  10.799 -1.3771 -0.5216 -0.6937
  830MOL0     H14475  10.987   1.934  10.662  1.8003 -1.2349  2.6099
  830MOL0     H14476  10.971   2.092  10.737 -0.0913  0.8140  0.1341
  830MOL0     H14477  11.062   1.965  10.906  1.7361 -2.0061 -2.7552
  830MOL0     H14478  10.886   1.919  10.936 -1.5350 -1.2342 -2.1231
  830MOL0     H14479  10.932   1.721  10.774  1.7186 -2.3696  0.2533
  830MOL0     H14480  11.101   1.758  10.784 -0.6647 -0.1893 -0.8098
  830MOL0     H14481  10.918   1.684  11.005 -0.6331 -0.4679 -2.9538
  830MOL0     H14482  11.067   1.772  11.050  0.1481  1.0957 -0.5851
  830MOL0     H14483  11.064   1.517  10.867  2.1631 -1.3310 -0.4788
  830MOL0     H14484  11.206   1.593  10.930  1.1816  0.7034  1.6948
  830MOL0     H14485  11.176   1.406  11.073  1.6197  2.0612  1.9041
  830MOL0     H14486  11.001   1.441  11.082  0.5220 -0.3015  0.4895
  830MOL0     H14487  11.231   1.560  11.244 -1.5693  1.0631  2.6994
  830MOL0     H14488  11.084   1.645  11.224  0.5000 -0.5324 -1.7225
  830MOL0     H14489  10.854   1.457  11.268 -1.0337 -1.2197  0.6721
  830MOL0     H14490  10.743   1.317  11.594  0.9635 -3.4262  1.1910
  830MOL0     H14491  10.810   1.176  11.524 -2.5390 -0.9078  1.9594
  830MOL0     H14492  10.657   1.382  11.370 -1.8146  0.9316  1.5804
  830MOL0     H14493  10.693   1.204  11.325  1.9901 -1.2779  0.7705
  830MOL0     H14494  10.488   1.315  11.517  0.0824  2.1931 -2.2434
  830MOL0     H14495  10.459   1.221  11.385 -2.3453  0.7528  2.3455
  830MOL0     H14496  10.602   1.033  11.489 -0.2373 -0.3729 -0.9913
  830MOL0     H14497  10.558   1.123  11.642 -2.0898  3.9074 -0.8127
  830MOL0     H14498  10.560   0.874  11.668  0.8912 -1.2562 -0.9497
  830MOL0     H14499  10.497   0.630  11.905  2.0334 -3.3507  0.1572
  830MOL0     H14500  10.636   0.692  11.810  1.3263 -1.3120 -1.1434
  830MOL0     H14501  10.555   0.540  11.766  0.6394  0.3461 -0.8935
  830MOL0     H14502  10.436   0.405  11.961  2.6205  0.2749 -2.7759
  830MOL0     H14503  10.432   0.193  12.122 -2.0418 -0.4977  1.1166
  830MOL0     H14504  10.219  -0.189  11.984 -0.6763 -0.1566 -0.0269
  830MOL0     H14505  10.394  -0.171  11.940  2.5948 -2.3550  2.1935
  830MOL0     H14506  10.371  -0.364  12.080  2.5632  0.6797 -1.0127
  830MOL0     H14507  10.455  -0.225  12.173  0.0715  0.6900  0.1967
  830MOL0     H14508  10.160  -0.277  12.216  0.3830  1.8546 -2.3311
  830MOL0     H14509  10.268  -0.181  12.318 -1.4218 -1.5167  5.0611
  830MOL0     H14510  10.371  -0.448  12.314  1.5384  1.9377  0.3912
  830MOL0     H14511  10.193  -0.441  12.366  1.7698 -2.1487  0.1417
  830MOL0     H14512  10.257  -0.303  12.548 -0.0710 -2.2624  1.0966
  830MOL0     H14513  10.358  -0.440  12.560 -1.4406 -1.3610 -0.9449
  830MOL0     H14514  10.431  -0.173  12.462 -1.7852 -2.7044 -5.7647
  830MOL0     H14515  10.536  -0.317  12.436  1.0135  0.8443 -0.6803
  830MOL0     H14516  10.584  -0.334  12.676 -0.0159 -0.5264  1.4210
  830MOL0     H14517  10.450  -0.229  12.716  2.0382 -1.7005  1.6083
  830MOL0     H14518  10.672  -0.124  12.728 -1.4401 -1.1600  0.9069
  830MOL0     H14519  10.586  -0.037  12.606  2.5995  2.2848  4.4754
  830MOL0     H14520  10.212  -0.020  11.829 -3.9589  3.7978  0.4673
  830MOL0     H14521  10.219   0.175  11.679 -0.3681 -1.3555  1.2540
  830MOL0     H14522  10.111   0.686  11.610  1.4543 -3.3041 -3.2107
  830MOL0     H14523  10.152   0.913  11.538  0.5606  0.9165  2.0489
  830MOL0     H14524  10.674   2.063  10.377 -1.7775 -0.2537 -2.0642
  830MOL0     H14525  10.439   2.056  10.285  0.4226 -0.0362  0.3427
  830MOL0     H14526  10.034   1.925  10.327 -0.5058 -0.4118  1.4177
  830MOL0     H14527   9.808   1.877  10.252  2.4952 -0.1434 -1.0698
  830MOL0     H14528   9.490   2.151  10.418 -3.4511 -1.4724  1.6205
  830MOL0     H14529   9.472   2.188  10.252 -1.3446 -0.2044  0.6090
  830MOL0     H14530   9.272   2.097  10.322  0.4481 -0.0262 -0.9357
  830MOL0     H14531   9.377   1.949  10.362  2.1498  1.1623  1.6621
  830MOL0     H14532   9.305   2.073  10.080  0.6380 -0.2324 -0.7118
  830MOL0     H14533   9.437   1.957  10.109  0.6704  0.1418  3.6608
  830MOL0     H14534   9.154   1.900  10.195  2.4050  5.8633  1.6192
  830MOL0     H14535   9.271   1.785  10.166 -2.5721 -0.3661  0.9762
  830MOL0     H14536   9.121   1.834   9.774 -2.4351 -0.6346  0.7060
  830MOL0     H14537   9.678   2.272  10.342 -1.4802 -0.1017 -2.9982
  830MOL0     H14538  10.023   2.400  10.360 -0.2389  0.6736  0.8225
  830MOL0     H14539   9.853   2.434  10.331  0.4607 -0.2011 -0.5654
  830MOL0     H14540   9.909   2.425  10.497 -1.9916  1.6063 -1.5250
  831MOL0     O14541  11.376   4.112   9.746 -0.6977 -0.1183  0.0681
  831MOL0     C14542  11.290   4.196   9.728  0.3794 -0.1419 -0.4622
  831MOL0     O14543  11.232   4.235   9.609  0.0612 -0.0056 -0.6071
  831MOL0     C14544  11.290   4.244   9.486 -0.0016  0.1818 -0.3007
  831MOL0     C14545  11.264   4.355   9.410 -0.2810  0.7662  0.0308
  831MOL0     C14546  11.316   4.368   9.281 -0.5108 -0.4425  0.1014
  831MOL0     C14547  11.400   4.279   9.225  1.4902  0.9858  0.1235
  831MOL0     O14548  11.457   4.289   9.103 -0.5344 -0.4309 -0.6964
  831MOL0     C14549  11.500   4.408   9.048 -0.0933  0.1881  0.1904
  831MOL0     C14550  11.563   4.402   8.904  0.2522  0.1070 -0.2194
  831MOL0     C14551  11.521   4.519   8.811  0.3014  0.5817 -0.6585
  831MOL0     C14552  11.549   4.654   8.875 -0.0370 -0.2986 -0.4827
  831MOL0     C14553  11.699   4.694   8.902  0.4468 -0.2987  0.4006
  831MOL0     C14554  11.713   4.836   8.958  0.1116  0.2418  0.2523
  831MOL0     C14555  11.861   4.867   8.973  0.6223  0.0135 -0.6715
  831MOL0     C14556  11.875   5.010   9.014 -0.2280 -0.2915  0.1046
  831MOL0     N14557  12.012   5.032   9.054 -0.6265 -0.3342  0.2559
  831MOL0     C14558  12.071   4.992   9.174 -0.4254  0.0202  0.9270
  831MOL0     C14559  12.195   5.045   9.163 -0.0721 -0.4759  0.7921
  831MOL0     C14560  12.294   5.042   9.270 -0.0088  1.0481  0.3383
  831MOL0     C14561  12.320   5.178   9.325 -0.7253 -0.2118 -0.1250
  831MOL0     C14562  12.197   5.260   9.386 -0.4162 -0.1791  0.7525
  831MOL0     C14563  12.169   5.205   9.524  0.5199  0.6267  1.4477
  831MOL0     O14564  12.029   5.221   9.555 -0.9654 -0.7646  0.0905
  831MOL0     C14565  11.981   5.170   9.678  0.1852 -0.3805  0.1164
  831MOL0     C14566  12.059   5.149   9.794 -1.1057  0.4858  0.6288
  831MOL0     C14567  12.007   5.108   9.914  0.3234 -0.0827  0.3451
  831MOL0     C14568  12.097   5.100  10.037  0.3591  0.0616  0.2407
  831MOL0     C14569  11.867   5.086   9.933  0.2186 -0.7371  0.3651
  831MOL0     C14570  11.804   5.019  10.055 -0.7773 -1.2730  0.0964
  831MOL0     O14571  11.883   4.978  10.155 -0.2669  0.1581 -0.1602
  831MOL0     C14572  11.832   4.916  10.254 -0.3468 -0.2937  0.8086
  831MOL0     C14573  11.800   4.987  10.374 -0.2279  0.1571  0.1469
  831MOL0     C14574  11.738   4.916  10.478  0.1324  0.1593  0.7166
  831MOL0     C14575  11.719   4.778  10.475  0.1147 -0.0118  0.9431
  831MOL0     O14576  11.662   4.719  10.585  0.4466  0.4097 -0.0625
  831MOL0     C14577  11.668   4.574  10.591 -0.3588  0.3185 -0.5246
  831MOL0     C14578  11.600   4.522  10.718 -0.1560 -0.0799 -0.2526
  831MOL0     C14579  11.589   4.376  10.733 -0.8626 -0.0416 -0.0276
  831MOL0     C14580  11.517   4.357  10.860  0.6585  0.0880  0.0082
  831MOL0     C14581  11.469   4.209  10.859 -0.0199 -0.1840  0.3035
  831MOL0     C14582  11.358   4.183  10.967 -0.4881  0.1161  0.1850
  831MOL0     C14583  11.303   4.043  10.955 -0.2150  0.5348 -0.3566
  831MOL0     C14584  11.390   3.943  11.020  0.3713  0.3913  0.6024
  831MOL0    Cl14585  11.322   3.787  10.974 -0.6833 -0.0783  0.2219
  831MOL0     C14586  11.736   4.717  10.347 -0.9491  0.8035 -0.5271
  831MOL0     C14587  11.797   4.776  10.235 -0.0376 -1.3784 -0.4177
  831MOL0     O14588  11.683   4.995  10.039  0.1891 -0.1271 -0.2665
  831MOL0     C14589  11.785   5.114   9.815 -0.1729  0.0352  0.5921
  831MOL0     C14590  11.841   5.152   9.688 -0.5722  0.5482  0.1825
  831MOL0     N14591  12.209   5.105   9.039  1.0123  0.3975 -0.5118
  831MOL0     N14592  12.099   5.090   8.974 -0.4326  0.3534 -0.3594
  831MOL0     C14593  11.427   4.173   9.300 -0.1843 -0.2904  0.5851
  831MOL0     C14594  11.368   4.147   9.428 -0.0142 -0.0544 -1.1558
  831MOL0     C14595  11.216   4.237   9.852  0.7420  0.6852 -0.6495
  831MOL0     C14596  11.193   4.136   9.946 -0.7921  0.1625  0.1955
  831MOL0     C14597  11.114   4.158  10.063  0.2299  0.4071  0.6029
  831MOL0     C14598  11.073   4.286  10.097  0.9600  0.3542 -0.5939
  831MOL0     O14599  11.002   4.292  10.217 -0.2464  0.6103  0.5569
  831MOL0     C14600  10.992   4.415  10.295 -0.5552  0.4456 -0.2836
  831MOL0     C14601  10.850   4.468  10.279  0.9523  0.9480 -0.3575
  831MOL0     C14602  10.830   4.602  10.351  0.8289  0.3091 -0.7115
  831MOL0     C14603  10.817   4.725  10.260  0.2656 -0.7949  0.2209
  831MOL0     C14604  10.942   4.751  10.179 -0.1193  0.3755 -0.1329
  831MOL0     C14605  11.034   4.769  10.104 -0.1103  0.7119  0.6447
  831MOL0     C14606  11.080   4.389  10.000  0.6393 -0.0548  0.3718
  831MOL0     C14607  11.151   4.362   9.881 -0.3730 -0.2313  0.0671
  831MOL0     C14608  11.173   4.472   9.780 -0.5486 -0.0934  0.3325
  831MOL0     H14609  11.184   4.413   9.454 -0.9021 -0.5832  0.7226
  831MOL0     H14610  11.293   4.450   9.213  0.7920 -0.1182  0.0258
  831MOL0     H14611  11.584   4.450   9.105 -0.9553  2.2472  0.0340
  831MOL0     H14612  11.417   4.479   9.046 -0.2636 -0.0191 -0.1007
  831MOL0     H14613  11.670   4.378   8.904  0.3545  0.4663 -1.7538
  831MOL0     H14614  11.527   4.319   8.842 -1.3728  1.6299 -1.3874
  831MOL0     H14615  11.574   4.497   8.718 -0.1376 -1.0220 -0.5517
  831MOL0     H14616  11.413   4.514   8.792  0.1169  1.1990  0.1503
  831MOL0     H14617  11.517   4.729   8.801  2.8301  0.7248 -0.8197
  831MOL0     H14618  11.496   4.661   8.971 -0.9585  1.2764 -1.0681
  831MOL0     H14619  11.750   4.692   8.806  0.4081 -2.1958  0.3745
  831MOL0     H14620  11.757   4.619   8.958 -0.8270 -0.6225  1.3396
  831MOL0     H14621  11.684   4.911   8.883  0.7245  1.0887  0.8385
  831MOL0     H14622  11.663   4.840   9.055  1.0831 -0.4632  0.7988
  831MOL0     H14623  11.911   4.861   8.875 -1.6592  1.4934 -2.0317
  831MOL0     H14624  11.909   4.803   9.047  0.1355 -0.3482 -0.6674
  831MOL0     H14625  11.842   5.071   8.930  0.8884  1.3755  0.8163
  831MOL0     H14626  11.815   5.026   9.104 -1.2722 -1.2086 -0.4035
  831MOL0     H14627  12.022   4.949   9.260  0.5896  0.6066  1.8164
  831MOL0     H14628  12.385   5.009   9.218 -0.4538  0.5158 -0.1134
  831MOL0     H14629  12.255   4.978   9.350 -2.0682  0.0200 -1.3772
  831MOL0     H14630  12.399   5.182   9.400 -0.1710  5.4180 -0.5862
  831MOL0     H14631  12.374   5.230   9.245  2.1453 -1.0426  1.1426
  831MOL0     H14632  12.236   5.362   9.395 -0.5157 -0.1136  0.4320
  831MOL0     H14633  12.110   5.253   9.321 -0.6208  0.6534  0.9246
  831MOL0     H14634  12.182   5.097   9.521 -0.2068  0.4966 -2.9005
  831MOL0     H14635  12.228   5.253   9.602 -0.6020 -1.7534  3.9188
  831MOL0     H14636  12.164   5.176   9.786 -0.6314 -1.3846 -0.0151
  831MOL0     H14637  12.052   5.158  10.118  0.0101 -1.8518  1.4884
  831MOL0     H14638  12.192   5.148  10.010  1.0771 -1.9914 -1.1363
  831MOL0     H14639  12.128   4.998  10.063  1.8511  0.1887 -0.9115
  831MOL0     H14640  11.830   5.091  10.385 -0.2419  0.6516 -3.3328
  831MOL0     H14641  11.719   4.965  10.573  2.6710  2.5377  0.1480
  831MOL0     H14642  11.626   4.531  10.500  0.9880  0.3506 -1.1851
  831MOL0     H14643  11.772   4.541  10.585 -0.6509 -0.5383 -1.1981
  831MOL0     H14644  11.662   4.575  10.791  0.7592  0.2521 -1.2491
  831MOL0     H14645  11.504   4.574  10.720  0.3860  0.9493  0.4790
  831MOL0     H14646  11.692   4.338  10.733 -0.9473 -0.5473  2.7988
  831MOL0     H14647  11.530   4.334  10.651  0.2908  0.4033 -1.1209
  831MOL0     H14648  11.433   4.426  10.875 -0.6784 -1.2646 -0.9463
  831MOL0     H14649  11.584   4.368  10.946 -1.3512 -0.1711  1.7179
  831MOL0     H14650  11.414   4.175  10.771  0.8733 -0.7792 -0.0468
  831MOL0     H14651  11.553   4.140  10.865 -0.3102 -0.5721 -0.0664
  831MOL0     H14652  11.272   4.250  10.963 -0.5251  0.1084  0.7668
  831MOL0     H14653  11.406   4.206  11.063 -1.6901  1.9710  0.3842
  831MOL0     H14654  11.299   4.027  10.847  1.6984 -3.2573 -0.0367
  831MOL0     H14655  11.207   4.031  11.004 -0.3348 -1.0433 -0.9331
  831MOL0     H14656  11.383   3.963  11.127  2.2839  1.0819  0.6288
  831MOL0     H14657  11.488   3.949  10.974  0.9002 -0.2811  1.6026
  831MOL0     H14658  11.713   4.612  10.333 -0.1322  0.8443 -2.5570
  831MOL0     H14659  11.839   4.719  10.153  1.7060 -2.6245  1.2328
  831MOL0     H14660  11.681   5.085   9.815  0.8589 -4.4403  0.6707
  831MOL0     H14661  11.785   5.179   9.599  1.2806  0.4606 -1.0900
  831MOL0     H14662  11.493   4.095   9.262 -0.9604 -0.4537 -0.4783
  831MOL0     H14663  11.399   4.068   9.497 -3.5519  1.5477  2.6946
  831MOL0     H14664  11.235   4.040   9.916 -1.2196  0.5205 -1.6202
  831MOL0     H14665  11.099   4.074  10.129 -3.8813  0.2711 -0.2496
  831MOL0     H14666  11.021   4.397  10.399  3.0044  1.4139 -0.9684
  831MOL0     H14667  11.063   4.492  10.263 -1.7621  0.8492 -2.1487
  831MOL0     H14668  10.798   4.388  10.332  2.5254 -0.7160 -1.1876
  831MOL0     H14669  10.839   4.480  10.171  3.3386 -0.3697 -0.8253
  831MOL0     H14670  10.730   4.606  10.396  1.7441  0.4130  1.4313
  831MOL0     H14671  10.894   4.627  10.435  0.0891  0.0820 -0.0668
  831MOL0     H14672  10.762   4.800  10.317 -1.9599  0.7549 -3.5990
  831MOL0     H14673  10.744   4.695  10.184  0.2504  1.1227 -0.5751
  831MOL0     H14674  11.117   4.780  10.037  0.3946  0.9116  1.2918
  831MOL0     H14675  11.047   4.491  10.015  4.7956  1.2589  2.2087
  831MOL0     H14676  11.106   4.448   9.697 -0.0413 -0.7493  0.1066
  831MOL0     H14677  11.142   4.571   9.816 -1.5685  0.1424 -1.1119
  831MOL0     H14678  11.274   4.480   9.738  1.5062 -3.7982  3.8600
  832MOL0     O14679   7.375   9.379   6.656 -0.2870  0.7281 -0.3288
  832MOL0     C14680   7.274   9.383   6.602  0.0306  0.9126 -0.5020
  832MOL0     O14681   7.217   9.492   6.545  0.3337 -0.3062  0.0766
  832MOL0     C14682   7.282   9.618   6.570  1.4176  0.4869 -0.2379
  832MOL0     C14683   7.274   9.692   6.683  0.0133  0.5854 -0.2384
  832MOL0     C14684   7.333   9.812   6.701 -0.7722  0.2836 -1.0219
  832MOL0     C14685   7.420   9.859   6.602 -1.0228  0.2354 -0.1551
  832MOL0     O14686   7.469   9.989   6.611 -0.9679 -0.0257 -0.2213
  832MOL0     C14687   7.609  10.002   6.629  0.6935  0.7195  0.7383
  832MOL0     C14688   7.651  10.087   6.745  0.3348 -0.2220  0.3966
  832MOL0     C14689   7.591  10.223   6.759  0.6270 -0.7768  1.5640
  832MOL0     C14690   7.674  10.311   6.848 -0.2793 -0.0062  0.2418
  832MOL0     C14691   7.596  10.437   6.881 -0.3882 -0.7778  0.5172
  832MOL0     C14692   7.645  10.490   7.015 -0.7478 -0.7620  0.5193
  832MOL0     C14693   7.540  10.600   7.057  0.5762 -0.3848 -0.2386
  832MOL0     C14694   7.572  10.658   7.193  0.4209  0.8874  0.2727
  832MOL0     N14695   7.695  10.728   7.179 -0.2128 -1.0921 -0.3934
  832MOL0     C14696   7.816  10.691   7.247 -0.6133  0.6737 -0.3691
  832MOL0     C14697   7.914  10.780   7.217  0.1970 -0.5395 -0.1290
  832MOL0     C14698   8.064  10.770   7.255  0.2386  0.3710  0.1157
  832MOL0     C14699   8.136  10.892   7.227  0.2897  0.1759  0.3021
  832MOL0     C14700   8.109  10.989   7.339  0.1655 -0.2300  0.1728
  832MOL0     C14701   8.184  10.962   7.471 -0.4872 -0.2347  0.5320
  832MOL0     O14702   8.207  11.082   7.549 -0.4613 -0.3707  0.6250
  832MOL0     C14703   8.338  11.110   7.577  1.0836  0.4506  0.3163
  832MOL0     C14704   8.428  11.126   7.480 -0.0239  0.3459 -0.0399
  832MOL0     C14705   8.562  11.156   7.496 -0.0581  0.0408 -0.9731
  832MOL0     C14706   8.638  11.188   7.368  0.3935  0.6564  0.4471
  832MOL0     C14707   8.619  11.157   7.633  0.0219  0.3411  0.2835
  832MOL0     C14708   8.754  11.177   7.677  0.1030  0.3364  0.1309
  832MOL0     O14709   8.846  11.197   7.577  0.8976  0.2429 -0.0781
  832MOL0     C14710   8.970  11.230   7.597  0.9724 -0.7635 -0.7879
  832MOL0     C14711   9.071  11.146   7.552  0.0611 -0.2965 -0.7735
  832MOL0     C14712   9.207  11.159   7.591 -0.1354  0.5117  0.1536
  832MOL0     C14713   9.243  11.265   7.674  0.5224  0.2432 -0.6212
  832MOL0     O14714   9.378  11.283   7.689  0.0084 -0.8412 -0.6084
  832MOL0     C14715   9.424  11.402   7.766 -0.8348 -0.2187 -0.5373
  832MOL0     C14716   9.422  11.387   7.920  0.4010 -0.8936 -0.2396
  832MOL0     C14717   9.474  11.254   7.967  0.0488 -0.0376  0.0008
  832MOL0     C14718   9.617  11.233   7.921  0.6507 -0.4664  0.2801
  832MOL0     C14719   9.653  11.092   7.973  0.1592  1.0151  0.0963
  832MOL0     C14720   9.797  11.051   7.931  0.0236  0.0550 -0.0305
  832MOL0     C14721   9.827  10.896   7.937  0.5171 -0.9668 -0.3267
  832MOL0     C14722   9.968  10.866   7.896 -0.4586  0.2879 -0.2415
  832MOL0    Cl14723  10.105  10.935   7.989 -0.5131  0.4723 -0.0420
  832MOL0     C14724   9.139  11.353   7.715 -0.3213 -0.1599 -0.1311
  832MOL0     C14725   9.004  11.341   7.680  0.1571 -0.8603  0.1614
  832MOL0     O14726   8.782  11.179   7.795  0.3991  0.2898 -0.5814
  832MOL0     C14727   8.514  11.139   7.737 -0.0186 -0.2086  0.8527
  832MOL0     C14728   8.378  11.127   7.707  0.6071 -0.0967 -0.6405
  832MOL0     N14729   7.851  10.871   7.141  0.2203  0.5299 -0.0041
  832MOL0     N14730   7.725  10.843   7.119  0.2733 -0.6840  0.0495
  832MOL0     C14731   7.438   9.776   6.484  0.0489 -0.5991 -1.2574
  832MOL0     C14732   7.367   9.658   6.477 -0.7618  0.4691  1.1014
  832MOL0     C14733   7.206   9.256   6.598  0.8976  0.6811  0.2940
  832MOL0     C14734   7.178   9.206   6.466  0.4902 -0.4324 -0.2390
  832MOL0     C14735   7.108   9.080   6.455  1.0185 -0.3821 -0.7990
  832MOL0     C14736   7.050   9.017   6.565 -0.1679  0.0250  0.5434
  832MOL0     O14737   6.971   8.900   6.543 -0.4970  0.4290 -0.5335
  832MOL0     C14738   6.828   8.930   6.542 -0.4676 -0.0245 -0.3394
  832MOL0     C14739   6.770   8.930   6.687  0.0333 -0.1518  0.3101
  832MOL0     C14740   6.771   8.790   6.741  0.6457 -1.1918  0.0420
  832MOL0     C14741   6.668   8.774   6.853  0.1105 -1.0896 -0.1824
  832MOL0     C14742   6.520   8.773   6.825 -0.3548  0.0824 -0.5421
  832MOL0     C14743   6.398   8.779   6.818 -0.2123 -0.2043  0.8761
  832MOL0     C14744   7.071   9.074   6.689  0.2563 -0.7500 -0.3560
  832MOL0     C14745   7.152   9.187   6.711 -0.2054 -1.0760 -0.3495
  832MOL0     C14746   7.171   9.227   6.855 -0.6638 -0.1989  0.9351
  832MOL0     H14747   7.216   9.668   6.771  1.9696 -1.4896  0.5736
  832MOL0     H14748   7.315   9.871   6.789 -3.8102 -3.9973  1.6227
  832MOL0     H14749   7.637  10.042   6.531 -2.4996 -1.2109 -1.1239
  832MOL0     H14750   7.658   9.905   6.644 -1.9696 -0.8838 -0.3295
  832MOL0     H14751   7.655  10.030   6.839  1.5001  0.3881  0.7349
  832MOL0     H14752   7.756  10.107   6.725  0.4731 -1.3005 -0.0410
  832MOL0     H14753   7.586  10.279   6.665  0.3155  3.0183  3.6522
  832MOL0     H14754   7.490  10.207   6.798  0.2880  2.0677  2.0345
  832MOL0     H14755   7.709  10.268   6.942 -1.2973  2.7914  2.0386
  832MOL0     H14756   7.758  10.347   6.787 -2.8658  3.7769 -1.4540
  832MOL0     H14757   7.490  10.413   6.893  0.1800 -2.7556  2.0897
  832MOL0     H14758   7.613  10.509   6.801  3.5799 -1.6319  0.4111
  832MOL0     H14759   7.647  10.403   7.081 -0.8868 -1.0019  0.2088
  832MOL0     H14760   7.745  10.531   7.004 -1.7087  1.1053 -3.1204
  832MOL0     H14761   7.438  10.563   7.063 -0.0970  1.3934 -0.3544
  832MOL0     H14762   7.540  10.671   6.975 -1.9024 -1.1926 -1.0079
  832MOL0     H14763   7.489  10.726   7.213 -1.8055  0.1387 -4.8164
  832MOL0     H14764   7.577  10.576   7.265 -1.4491 -0.3402 -0.8998
  832MOL0     H14765   7.831  10.598   7.302 -2.1567  1.2263  1.0397
  832MOL0     H14766   8.113  10.691   7.197 -4.1115 -2.6346  0.0163
  832MOL0     H14767   8.079  10.751   7.362  0.0179  0.2399  0.1242
  832MOL0     H14768   8.244  10.872   7.228  0.3616  0.5228 -0.1474
  832MOL0     H14769   8.111  10.948   7.136 -0.1104 -0.7894 -0.1986
  832MOL0     H14770   8.137  11.087   7.298 -0.4734 -0.4557 -0.8256
  832MOL0     H14771   8.002  10.988   7.362  0.5990 -2.7105  2.6776
  832MOL0     H14772   8.125  10.893   7.533  0.9833 -1.9504  0.1036
  832MOL0     H14773   8.280  10.912   7.454  0.0698  0.6627  0.9931
  832MOL0     H14774   8.378  11.125   7.384  1.1319  0.2938 -0.6439
  832MOL0     H14775   8.584  11.161   7.277 -1.5236 -0.2175  1.7775
  832MOL0     H14776   8.734  11.136   7.363  1.0542  1.7119  1.4592
  832MOL0     H14777   8.655  11.296   7.366 -1.9441  1.0530 -0.1973
  832MOL0     H14778   9.043  11.052   7.506 -4.5316 -0.2757  1.4236
  832MOL0     H14779   9.277  11.079   7.569  0.1645  0.4282  1.3472
  832MOL0     H14780   9.524  11.419   7.726 -1.0706  1.9537 -0.3331
  832MOL0     H14781   9.370  11.496   7.752 -1.5197  0.0702  3.0650
  832MOL0     H14782   9.477  11.472   7.962 -3.7211  0.2021  3.8367
  832MOL0     H14783   9.323  11.400   7.966 -0.0761 -0.8821 -1.2381
  832MOL0     H14784   9.411  11.170   7.934  0.7264 -0.3898 -0.4313
  832MOL0     H14785   9.462  11.257   8.075 -0.3727  0.8240 -0.0643
  832MOL0     H14786   9.668  11.325   7.951 -0.3680  0.4667 -0.7168
  832MOL0     H14787   9.634  11.217   7.814  0.0746 -2.4561  0.4480
  832MOL0     H14788   9.643  11.090   8.082 -0.9524  0.3160  0.0080
  832MOL0     H14789   9.585  11.015   7.934  1.7608 -0.6598  0.4615
  832MOL0     H14790   9.873  11.110   7.984 -0.1456  0.5386 -0.3223
  832MOL0     H14791   9.821  11.083   7.829 -2.3642 -0.3787 -0.7745
  832MOL0     H14792   9.757  10.847   7.869 -0.8583  2.0650 -1.2566
  832MOL0     H14793   9.801  10.868   8.040  1.9295  1.0116  0.6453
  832MOL0     H14794   9.973  10.902   7.793 -0.5256 -0.4361 -0.5060
  832MOL0     H14795   9.983  10.758   7.904 -2.8120 -0.0806 -0.2053
  832MOL0     H14796   9.172  11.422   7.792  1.0818 -1.0662  0.1097
  832MOL0     H14797   8.926  11.404   7.723  1.3355 -1.1256  2.8908
  832MOL0     H14798   8.536  11.156   7.842  2.3366 -1.0486  0.5520
  832MOL0     H14799   8.301  11.142   7.782  0.8536 -0.2140 -0.3638
  832MOL0     H14800   7.488   9.820   6.398  2.5891  0.0274  0.4336
  832MOL0     H14801   7.393   9.607   6.385  0.9750  1.9647  0.7278
  832MOL0     H14802   7.212   9.260   6.378 -2.9658  2.6509  0.0596
  832MOL0     H14803   7.089   9.036   6.358 -2.5313 -0.2770 -0.2707
  832MOL0     H14804   6.811   9.031   6.503  1.3788  1.7846  3.0437
  832MOL0     H14805   6.783   8.852   6.480 -3.8878  0.7692  0.9525
  832MOL0     H14806   6.667   8.964   6.677 -0.3659 -2.0037 -3.2041
  832MOL0     H14807   6.826   8.998   6.752  0.4795  0.9820 -1.1847
  832MOL0     H14808   6.764   8.715   6.663 -0.0013  0.1892 -1.2867
  832MOL0     H14809   6.869   8.782   6.789  1.6621  0.5692 -1.6007
  832MOL0     H14810   6.688   8.845   6.934  3.3822 -1.6958 -0.3061
  832MOL0     H14811   6.689   8.676   6.898 -0.8360 -1.1239  0.2265
  832MOL0     H14812   6.292   8.793   6.817 -0.8562 -3.5439 -2.9196
  832MOL0     H14813   7.031   9.025   6.777 -0.6944  0.1690 -0.2469
  832MOL0     H14814   7.235   9.151   6.900 -0.5342 -2.2061 -2.2837
  832MOL0     H14815   7.216   9.327   6.852  0.8614 -0.8138 -2.5324
  832MOL0     H14816   7.071   9.228   6.899 -0.1119  3.5187  2.4687
  833MOL0     O14817  10.681   3.622   4.125 -0.1076 -0.2335  0.2248
  833MOL0     C14818  10.595   3.546   4.164 -0.6183  0.0729 -0.4970
  833MOL0     O14819  10.526   3.557   4.278  0.2754 -0.4200 -0.0170
  833MOL0     C14820  10.551   3.669   4.354  0.2213  0.5742 -0.2879
  833MOL0     C14821  10.679   3.716   4.377 -0.2750  0.1469 -0.6650
  833MOL0     C14822  10.702   3.826   4.461 -0.3032 -0.0402  0.3736
  833MOL0     C14823  10.601   3.892   4.518 -0.2497 -0.6671 -1.0063
  833MOL0     O14824  10.616   4.000   4.598 -0.8544  0.3428  0.9072
  833MOL0     C14825  10.737   4.049   4.655  0.5242  0.1897 -0.4412
  833MOL0     C14826  10.768   3.947   4.767 -0.7036  0.2424  0.5164
  833MOL0     C14827  10.879   3.992   4.867 -0.1757 -1.0132  0.1543
  833MOL0     C14828  11.004   4.023   4.790 -0.2345 -0.3674 -0.6033
  833MOL0     C14829  11.118   4.036   4.906 -0.0408  0.2456  0.3306
  833MOL0     C14830  11.233   4.119   4.850 -0.8839 -0.3868  0.8909
  833MOL0     C14831  11.340   4.133   4.966 -0.1718 -0.3559  0.1175
  833MOL0     C14832  11.428   4.014   5.008  0.6701 -0.0210  0.6617
  833MOL0     N14833  11.522   3.975   4.901 -0.4334  0.2920  0.2205
  833MOL0     C14834  11.649   4.024   4.889 -0.3070 -0.4790 -0.4597
  833MOL0     C14835  11.702   3.964   4.778 -0.7488 -0.4173  0.6971
  833MOL0     C14836  11.838   3.995   4.727  0.1989  0.1532 -0.7713
  833MOL0     C14837  11.948   3.912   4.790  0.3490  0.5940  0.2572
  833MOL0     C14838  12.091   3.954   4.754  0.7548  0.1528  0.3119
  833MOL0     C14839  12.110   3.938   4.607 -1.2295 -0.3555  0.3362
  833MOL0     O14840  12.095   3.798   4.571 -0.2824  0.2733 -0.4435
  833MOL0     C14841  12.197   3.708   4.585 -0.0114  0.0112  0.2830
  833MOL0     C14842  12.167   3.579   4.552 -1.1040 -0.5458 -0.0213
  833MOL0     C14843  12.275   3.489   4.539 -0.3135  0.5691 -0.3251
  833MOL0     C14844  12.233   3.350   4.495  0.0291 -0.9659 -0.3789
  833MOL0     C14845  12.407   3.521   4.578  0.1351 -0.5426  0.2912
  833MOL0     C14846  12.532   3.426   4.568  0.1859 -0.1351  0.1877
  833MOL0     O14847  12.518   3.315   4.492  0.1579 -0.6974  0.8587
  833MOL0     C14848  12.627   3.235   4.454  0.4921 -0.1689 -0.0340
  833MOL0     C14849  12.702   3.282   4.348  0.6027  0.3628  0.7708
  833MOL0     C14850  12.833   3.217   4.318  0.6803  0.6379  0.4257
  833MOL0     C14851  12.863   3.096   4.386 -0.3413  0.4612 -0.5598
  833MOL0     O14852  12.966   3.008   4.342  0.0331  0.5292  0.0464
  833MOL0     C14853  12.972   2.956   4.208  1.0905  0.1735  0.1847
  833MOL0     C14854  12.848   2.872   4.192  1.0267  1.0110  0.4414
  833MOL0     C14855  12.855   2.769   4.075 -0.1371 -0.0588  1.0287
  833MOL0     C14856  12.718   2.708   4.062 -0.4568 -1.5322  0.1742
  833MOL0     C14857  12.725   2.563   4.109  0.1998 -0.5411  0.1037
  833MOL0     C14858  12.594   2.483   4.132  0.8005  0.6239 -0.6022
  833MOL0     C14859  12.566   2.470   4.287  1.0472  0.4393 -0.2714
  833MOL0     C14860  12.652   2.368   4.359  0.6178  0.6234  0.9127
  833MOL0    Cl14861  12.611   2.206   4.285 -0.5430 -0.2617  0.0253
  833MOL0     C14862  12.774   3.044   4.484 -0.7247 -0.2715 -0.1090
  833MOL0     C14863  12.656   3.111   4.518  0.0695 -0.0417 -0.0717
  833MOL0     O14864  12.633   3.471   4.617 -0.1736  0.3484 -0.5831
  833MOL0     C14865  12.431   3.648   4.620  0.4680 -0.1333  0.2768
  833MOL0     C14866  12.328   3.737   4.625  0.2194  0.7756  0.0832
  833MOL0     N14867  11.602   3.894   4.717  0.0181  0.3244 -0.7557
  833MOL0     N14868  11.491   3.905   4.786 -0.1185 -1.2802 -0.1807
  833MOL0     C14869  10.469   3.850   4.493 -0.8492 -0.3092  0.4145
  833MOL0     C14870  10.447   3.746   4.411  0.7825 -0.4251  1.1917
  833MOL0     C14871  10.562   3.430   4.077 -0.4448  0.6089 -0.5908
  833MOL0     C14872  10.492   3.330   4.137 -0.6393  0.0856  0.4550
  833MOL0     C14873  10.450   3.212   4.078  0.9026  0.2665  0.2690
  833MOL0     C14874  10.511   3.179   3.952 -0.7930 -0.1822 -0.3561
  833MOL0     O14875  10.500   3.064   3.876  0.1906  0.2111 -0.8052
  833MOL0     C14876  10.407   2.960   3.932  0.1357 -0.0353  0.2383
  833MOL0     C14877  10.341   2.883   3.826  0.6267 -1.3914 -0.2217
  833MOL0     C14878  10.225   2.962   3.764 -0.3672  0.3293 -0.9514
  833MOL0     C14879  10.150   2.861   3.678  0.4121  0.2839 -0.0792
  833MOL0     C14880  10.041   2.929   3.618  0.3825  0.2570  0.2582
  833MOL0     C14881   9.940   2.980   3.570 -0.4360 -0.5287 -0.5560
  833MOL0     C14882  10.591   3.277   3.889  0.2349  0.1242 -0.4615
  833MOL0     C14883  10.612   3.409   3.942 -0.0732  1.4833  0.0790
  833MOL0     C14884  10.685   3.508   3.858  0.2569 -0.3303 -0.2229
  833MOL0     H14885  10.767   3.667   4.335 -0.5442 -0.3446 -0.6624
  833MOL0     H14886  10.808   3.844   4.479  1.2202 -4.5940 -2.3785
  833MOL0     H14887  10.718   4.147   4.700  0.1238  0.4157 -1.0935
  833MOL0     H14888  10.831   4.052   4.599  1.7778  1.5143  1.5978
  833MOL0     H14889  10.677   3.923   4.823 -0.4775  2.0700  1.7315
  833MOL0     H14890  10.803   3.856   4.717 -0.1876  0.8274 -0.2128
  833MOL0     H14891  10.844   4.075   4.930  2.7350  0.9284 -0.5867
  833MOL0     H14892  10.895   3.905   4.931 -0.9219  0.1778  2.0630
  833MOL0     H14893  11.010   3.936   4.723 -2.3565 -0.2747 -0.9814
  833MOL0     H14894  11.005   4.112   4.727 -0.4213  1.5677  1.9567
  833MOL0     H14895  11.156   3.936   4.929  0.5054  0.7854  1.9666
  833MOL0     H14896  11.084   4.083   4.999 -3.5966  0.9719 -1.1819
  833MOL0     H14897  11.277   4.064   4.767  0.4129 -0.7563  1.7903
  833MOL0     H14898  11.193   4.215   4.816 -0.5454 -1.4872 -2.9986
  833MOL0     H14899  11.289   4.163   5.059  1.1048 -5.3188  2.7774
  833MOL0     H14900  11.410   4.214   4.945  0.1078 -0.6970 -0.2869
  833MOL0     H14901  11.475   4.039   5.103 -0.7613 -0.4017  1.5140
  833MOL0     H14902  11.362   3.928   5.025 -0.8122  0.7897 -0.6335
  833MOL0     H14903  11.700   4.084   4.964 -0.3161 -3.7877  2.4216
  833MOL0     H14904  11.863   4.102   4.734 -3.9050  1.2835 -0.9419
  833MOL0     H14905  11.843   3.963   4.623  2.8922  0.3551 -0.7800
  833MOL0     H14906  11.926   3.912   4.897 -4.0795  2.8849 -0.4209
  833MOL0     H14907  11.928   3.809   4.759 -1.2685  0.8156  0.4891
  833MOL0     H14908  12.102   4.056   4.793  1.3887 -0.3523  1.5105
  833MOL0     H14909  12.168   3.892   4.800  0.4363 -2.2572 -2.1612
  833MOL0     H14910  12.032   3.990   4.551  0.2234  2.6496  0.9000
  833MOL0     H14911  12.209   3.971   4.575 -0.8266 -2.6820 -1.0758
  833MOL0     H14912  12.065   3.570   4.517 -0.7111  2.1604 -2.1252
  833MOL0     H14913  12.292   3.321   4.408  0.2689  0.2255 -0.6332
  833MOL0     H14914  12.127   3.335   4.475 -0.2433 -0.9057  0.9094
  833MOL0     H14915  12.259   3.287   4.581 -0.9122  1.3213  1.6941
  833MOL0     H14916  12.680   3.370   4.288 -3.3596  0.0856  1.5387
  833MOL0     H14917  12.897   3.250   4.237  0.1370  3.0799  0.9333
  833MOL0     H14918  12.971   3.034   4.131 -3.8761 -0.2575 -0.5069
  833MOL0     H14919  13.052   2.883   4.196  1.0976  0.4185 -1.4660
  833MOL0     H14920  12.819   2.811   4.278  5.0239 -1.2511  0.4075
  833MOL0     H14921  12.773   2.949   4.173 -0.4153  0.1656  2.3127
  833MOL0     H14922  12.934   2.694   4.071 -0.4386 -0.3257 -0.6827
  833MOL0     H14923  12.878   2.840   3.994  3.4549 -1.8885  0.2685
  833MOL0     H14924  12.686   2.711   3.958 -0.0609  1.5116  0.0310
  833MOL0     H14925  12.644   2.766   4.118  1.1698 -0.9388  1.8292
  833MOL0     H14926  12.776   2.510   4.027  0.3616 -0.7939  0.3632
  833MOL0     H14927  12.787   2.554   4.199 -0.0509 -2.2840  0.1515
  833MOL0     H14928  12.603   2.387   4.081  0.0391  1.4859 -2.4240
  833MOL0     H14929  12.509   2.533   4.084  0.4510 -0.0258 -0.6628
  833MOL0     H14930  12.469   2.423   4.304  1.5501  0.2205  2.6101
  833MOL0     H14931  12.551   2.566   4.339 -0.5524 -0.4314  0.9670
  833MOL0     H14932  12.617   2.378   4.462 -1.9042  0.4966  0.1613
  833MOL0     H14933  12.758   2.392   4.362  1.9707 -4.3533  0.9876
  833MOL0     H14934  12.803   2.947   4.523 -1.4987 -0.3374  0.3269
  833MOL0     H14935  12.591   3.065   4.592  1.2208 -3.5504 -1.0479
  833MOL0     H14936  12.528   3.686   4.651  0.8515 -1.1358  0.3472
  833MOL0     H14937  12.356   3.840   4.643 -1.2148  1.1859  0.0940
  833MOL0     H14938  10.380   3.902   4.528 -1.5605  0.7421 -2.6384
  833MOL0     H14939  10.343   3.717   4.411  1.2500 -3.0765  5.7798
  833MOL0     H14940  10.452   3.348   4.236 -3.1283 -0.8653 -0.2980
  833MOL0     H14941  10.387   3.148   4.140 -0.8430  1.5443 -0.1050
  833MOL0     H14942  10.478   2.896   3.984 -0.5046 -2.8955 -2.1684
  833MOL0     H14943  10.331   2.993   4.005 -1.4273 -0.6232 -1.0620
  833MOL0     H14944  10.312   2.788   3.872 -0.5560 -0.9069  0.0798
  833MOL0     H14945  10.421   2.870   3.753  1.2117  1.9754 -0.3569
  833MOL0     H14946  10.153   3.011   3.832  0.5277 -1.5011  1.4529
  833MOL0     H14947  10.276   3.034   3.699  1.7533 -0.4865 -0.2441
  833MOL0     H14948  10.104   2.782   3.738  0.5771  0.9471  0.9470
  833MOL0     H14949  10.216   2.801   3.615  0.2941  0.3369 -0.2554
  833MOL0     H14950   9.846   3.009   3.528 -0.0201 -0.6314 -1.5934
  833MOL0     H14951  10.618   3.249   3.788  0.2957  0.4035 -0.5236
  833MOL0     H14952  10.788   3.520   3.893 -0.2145  2.1465  0.4525
  833MOL0     H14953  10.693   3.467   3.756  0.1715 -1.4032  0.1839
  833MOL0     H14954  10.644   3.609   3.858 -1.6402 -1.0664  0.5255
  834MOL0     O14955   8.416   0.658  10.096 -0.3481  0.4046 -0.1131
  834MOL0     C14956   8.332   0.740  10.078 -0.0465 -0.1154 -0.0417
  834MOL0     O14957   8.333   0.857  10.135 -0.1256 -0.2479  0.0260
  834MOL0     C14958   8.395   0.885  10.251 -0.2725 -0.1316 -0.4385
  834MOL0     C14959   8.538   0.905  10.246  0.2803  0.1925  0.2890
  834MOL0     C14960   8.599   0.907  10.375 -0.4562 -0.4702 -0.1479
  834MOL0     C14961   8.520   0.881  10.495 -0.1290 -0.1060  0.7882
  834MOL0     O14962   8.592   0.884  10.610 -0.0063  0.1183  0.1477
  834MOL0     C14963   8.527   0.855  10.735 -0.8580 -0.3450  1.5061
  834MOL0     C14964   8.616   0.806  10.851 -0.1255  0.9027  0.2834
  834MOL0     C14965   8.655   0.659  10.854  0.8248  0.5735 -0.7469
  834MOL0     C14966   8.711   0.601  10.726 -0.1647  0.2124  0.5603
  834MOL0     C14967   8.841   0.675  10.684 -0.1636 -0.0845  0.2223
  834MOL0     C14968   8.970   0.612  10.749  1.0407 -0.3683 -0.5848
  834MOL0     C14969   8.983   0.623  10.903  0.3304 -0.3947 -0.6231
  834MOL0     C14970   8.991   0.765  10.961  0.1818  0.0954 -0.6662
  834MOL0     N14971   9.120   0.831  10.947 -0.4273 -0.1033 -0.3617
  834MOL0     C14972   9.232   0.776  10.991 -0.4533  0.5518 -0.0343
  834MOL0     C14973   9.331   0.848  10.937  0.1993  1.0670 -0.4751
  834MOL0     C14974   9.481   0.811  10.938  0.1132 -0.7374  1.0563
  834MOL0     C14975   9.502   0.675  10.864  1.1991  0.5116  0.0451
  834MOL0     C14976   9.525   0.689  10.715  0.1737  0.2020  0.0993
  834MOL0     C14977   9.403   0.744  10.649  0.2821  0.2511 -0.1592
  834MOL0     O14978   9.410   0.734  10.507  0.2215  0.2853  0.1974
  834MOL0     C14979   9.308   0.776  10.428  0.1939  0.2725 -0.8987
  834MOL0     C14980   9.207   0.857  10.477 -0.3465  0.4127 -0.2915
  834MOL0     C14981   9.097   0.891  10.399 -0.2827  0.3116 -0.5798
  834MOL0     C14982   8.994   0.967  10.475  0.2177 -0.3077  0.6556
  834MOL0     C14983   9.086   0.846  10.263  0.3232  0.1069  0.3632
  834MOL0     C14984   8.974   0.887  10.161  0.2797  0.3887  0.1673
  834MOL0     O14985   8.973   0.840  10.034  0.2136 -0.0269  0.6135
  834MOL0     C14986   8.866   0.868   9.959  0.7510 -0.4863 -0.4276
  834MOL0     C14987   8.764   0.779   9.959  1.4275 -0.7432  1.1819
  834MOL0     C14988   8.647   0.805   9.882  0.5821 -0.6610 -0.9031
  834MOL0     C14989   8.628   0.924   9.810  0.0732 -0.2508 -0.4491
  834MOL0     O14990   8.516   0.922   9.742 -0.1963  0.3774  1.0350
  834MOL0     C14991   8.487   1.033   9.653  0.4216 -0.1231  0.1657
  834MOL0     C14992   8.341   1.018   9.606 -0.5583 -0.1678  0.3628
  834MOL0     C14993   8.243   1.072   9.717 -1.2359  0.2310  0.3254
  834MOL0     C14994   8.108   1.085   9.652 -0.4245  0.0142 -0.5755
  834MOL0     C14995   8.006   1.131   9.751 -0.9893 -0.3773 -0.0546
  834MOL0     C14996   7.866   1.094   9.694  0.9811 -0.0402 -0.4786
  834MOL0     C14997   7.766   1.166   9.776 -0.0035 -0.6467 -0.3039
  834MOL0     C14998   7.626   1.189   9.715  0.3634 -0.5434 -0.5913
  834MOL0    Cl14999   7.639   1.208   9.530  0.2902 -0.0031  0.8526
  834MOL0     C15000   8.734   1.015   9.805 -0.3959 -0.3775 -0.6791
  834MOL0     C15001   8.854   0.981   9.873  0.2658  0.3712 -0.2547
  834MOL0     O15002   8.896   0.968  10.203  0.1292 -0.0127 -0.4317
  834MOL0     C15003   9.186   0.760  10.213  0.3157 -0.2391 -0.0754
  834MOL0     C15004   9.298   0.735  10.296 -0.3681 -0.1644  0.5890
  834MOL0     N15005   9.272   0.962  10.872  0.3776  0.2077  0.3837
  834MOL0     N15006   9.145   0.943  10.879 -0.1904  0.3051  0.8784
  834MOL0     C15007   8.380   0.874  10.492 -0.7906 -0.4445 -0.2235
  834MOL0     C15008   8.319   0.869  10.367 -0.3248 -0.7940 -1.2207
  834MOL0     C15009   8.228   0.720   9.980  0.3796  0.2582  0.0920
  834MOL0     C15010   8.271   0.671   9.853  0.1382  0.5652 -0.3883
  834MOL0     C15011   8.176   0.663   9.751  0.5258  0.4304  0.5927
  834MOL0     C15012   8.051   0.708   9.763  0.2959  0.2333  1.1216
  834MOL0     O15013   7.953   0.716   9.664 -0.3472  0.1719 -0.1545
  834MOL0     C15014   7.981   0.677   9.526  0.3479 -0.1453 -0.3891
  834MOL0     C15015   7.853   0.692   9.442 -0.9864 -0.3344  0.6582
  834MOL0     C15016   7.805   0.836   9.418 -0.9308 -1.1604 -0.6610
  834MOL0     C15017   7.692   0.837   9.309 -0.0995  0.6013 -1.1780
  834MOL0     C15018   7.670   0.972   9.253  0.7732 -0.1780 -0.4957
  834MOL0     C15019   7.647   1.076   9.210 -0.2733  0.1903  0.4203
  834MOL0     C15020   8.007   0.766   9.879 -0.9079 -0.5493  0.2532
  834MOL0     C15021   8.096   0.768   9.991 -0.6650 -0.3710 -0.1075
  834MOL0     C15022   8.043   0.826  10.124 -0.0638 -0.0266  0.8652
  834MOL0     H15023   8.594   0.909  10.154 -1.1676 -1.0383 -0.7078
  834MOL0     H15024   8.707   0.921  10.379 -0.1298 -2.8346  2.6682
  834MOL0     H15025   8.446   0.783  10.722 -2.8638  1.6436  2.4605
  834MOL0     H15026   8.469   0.943  10.763 -2.2021 -0.3131 -1.0453
  834MOL0     H15027   8.699   0.876  10.862 -0.0373  0.9426 -0.5905
  834MOL0     H15028   8.558   0.807  10.944 -1.5044  0.8763 -0.5518
  834MOL0     H15029   8.715   0.642  10.943 -1.5324 -0.4398  0.7340
  834MOL0     H15030   8.567   0.598  10.876  0.6216  0.6910 -1.2255
  834MOL0     H15031   8.733   0.496  10.742  0.7868  0.2387 -0.4676
  834MOL0     H15032   8.640   0.611  10.643 -0.1228  0.5868  0.5635
  834MOL0     H15033   8.835   0.782  10.705 -2.2223 -0.1566  0.1809
  834MOL0     H15034   8.834   0.656  10.577 -1.8768  0.0908  0.2752
  834MOL0     H15035   8.970   0.505  10.728 -0.6635 -0.7186  0.9564
  834MOL0     H15036   9.065   0.654  10.715  0.8442 -1.3047 -2.4341
  834MOL0     H15037   9.064   0.558  10.936 -0.8615 -2.5246 -1.6940
  834MOL0     H15038   8.903   0.564  10.948 -0.1763 -0.6708 -1.8275
  834MOL0     H15039   8.919   0.830  10.911  0.9381  0.4924 -1.2633
  834MOL0     H15040   8.968   0.775  11.067 -0.8336 -1.1013 -0.7445
  834MOL0     H15041   9.226   0.692  11.059 -1.2996  0.5924 -0.0496
  834MOL0     H15042   9.519   0.790  11.038  1.8611 -2.0001  0.1914
  834MOL0     H15043   9.536   0.896  10.897 -0.2499 -0.7790  0.4666
  834MOL0     H15044   9.593   0.620  10.890  1.0405  0.7506  1.1395
  834MOL0     H15045   9.421   0.607  10.893  2.9061 -2.5391 -1.7637
  834MOL0     H15046   9.606   0.760  10.698  0.3151  0.3867  1.4689
  834MOL0     H15047   9.561   0.594  10.675  5.4759  1.2100  1.7728
  834MOL0     H15048   9.319   0.687  10.690  0.4978 -0.7048 -1.0121
  834MOL0     H15049   9.394   0.849  10.681 -1.1643 -0.0336  0.4588
  834MOL0     H15050   9.220   0.904  10.573  3.1127 -0.0194 -0.4323
  834MOL0     H15051   8.995   1.065  10.428  0.0202 -0.7041 -0.1978
  834MOL0     H15052   9.030   0.993  10.575  2.4225  0.9290 -0.3918
  834MOL0     H15053   8.898   0.914  10.477  0.6459 -1.3331 -2.0563
  834MOL0     H15054   8.776   0.689  10.019 -0.0568 -1.7860 -0.0143
  834MOL0     H15055   8.568   0.733   9.862  0.8541 -0.4214 -3.0415
  834MOL0     H15056   8.502   1.130   9.700 -0.0531  1.3309 -2.4742
  834MOL0     H15057   8.560   1.034   9.572 -1.5041  1.3157 -1.6650
  834MOL0     H15058   8.322   1.067   9.511 -1.5489 -1.5927 -0.1972
  834MOL0     H15059   8.311   0.914   9.594 -1.0526  0.2740 -3.2744
  834MOL0     H15060   8.291   1.164   9.751  2.7906 -2.7019  3.7162
  834MOL0     H15061   8.255   1.008   9.805  2.7165  0.5371  0.2178
  834MOL0     H15062   8.089   0.984   9.615  3.4959 -1.2001  0.1935
  834MOL0     H15063   8.111   1.160   9.572 -3.4234  2.1521  1.1697
  834MOL0     H15064   8.025   1.103   9.856 -0.9553 -4.6507 -1.0257
  834MOL0     H15065   7.998   1.240   9.750  1.1839 -0.1623 -1.7723
  834MOL0     H15066   7.844   0.986   9.693  0.8765 -0.0177 -0.5919
  834MOL0     H15067   7.864   1.120   9.588 -2.5793 -1.8385 -1.0117
  834MOL0     H15068   7.802   1.269   9.784 -4.5273  1.1668 -0.1462
  834MOL0     H15069   7.762   1.124   9.876 -1.7922 -2.2666 -0.9903
  834MOL0     H15070   7.592   1.287   9.749  0.7098 -0.1015 -1.4779
  834MOL0     H15071   7.549   1.117   9.746  0.2966  0.1988  1.0788
  834MOL0     H15072   8.734   1.101   9.738  1.1381 -1.6726 -2.4618
  834MOL0     H15073   8.929   1.060   9.865 -1.0542  1.7082  0.0398
  834MOL0     H15074   9.191   0.716  10.114 -1.1298 -1.9392  0.5549
  834MOL0     H15075   9.381   0.675  10.260 -0.8611 -0.3684 -0.2466
  834MOL0     H15076   8.313   0.880  10.577 -0.5435  1.7858 -0.1202
  834MOL0     H15077   8.212   0.851  10.360 -0.8919  0.5776  2.0060
  834MOL0     H15078   8.375   0.642   9.848  1.1485  3.8915 -1.6580
  834MOL0     H15079   8.208   0.621   9.656  1.3505  0.3609  0.8870
  834MOL0     H15080   8.051   0.748   9.481 -1.0543  1.4236 -0.1842
  834MOL0     H15081   8.025   0.577   9.515 -0.7086 -0.8348  1.2777
  834MOL0     H15082   7.774   0.629   9.483 -0.4672 -3.0971 -2.2089
  834MOL0     H15083   7.886   0.652   9.346  2.1316  1.8132  0.6691
  834MOL0     H15084   7.762   0.870   9.513 -0.9128 -0.2820 -0.9550
  834MOL0     H15085   7.882   0.908   9.388 -1.4390 -1.5486 -3.1457
  834MOL0     H15086   7.608   0.791   9.361  0.7402 -0.3981 -0.6633
  834MOL0     H15087   7.721   0.768   9.229  0.7719  1.3116 -1.4944
  834MOL0     H15088   7.625   1.172   9.168  0.3919 -0.5613 -1.8284
  834MOL0     H15089   7.910   0.815   9.875 -1.2772 -1.1688  1.1852
  834MOL0     H15090   7.940   0.860  10.109  0.1263  0.8658  1.4965
  834MOL0     H15091   8.047   0.754  10.207 -1.9074  0.8173  1.7396
  834MOL0     H15092   8.087   0.923  10.150 -0.3544 -0.1125  1.7074
  835MOL0     O15093  11.386   1.104   3.793  0.4949 -0.2777  0.5833
  835MOL0     C15094  11.348   1.000   3.842  0.6151  0.5590 -0.5247
  835MOL0     O15095  11.423   0.915   3.922 -0.6250  0.1947  0.4047
  835MOL0     C15096  11.565   0.934   3.914 -0.6587 -0.6740  0.0254
  835MOL0     C15097  11.617   0.967   4.036 -0.0456  0.7632 -0.1487
  835MOL0     C15098  11.753   0.991   4.043 -1.0243  0.6522  0.0991
  835MOL0     C15099  11.833   0.985   3.930 -0.6030 -0.4107  0.1579
  835MOL0     O15100  11.967   1.017   3.939  0.6657 -0.2478  0.4138
  835MOL0     C15101  12.044   0.897   3.924 -1.0137 -0.6512 -0.3286
  835MOL0     C15102  12.190   0.917   3.890  0.0109  0.1939  0.3998
  835MOL0     C15103  12.267   1.009   3.992  0.0413  0.0148 -0.0921
  835MOL0     C15104  12.272   0.945   4.130 -0.1084  0.1273  0.6575
  835MOL0     C15105  12.384   1.010   4.220 -0.2095  0.7135 -0.1826
  835MOL0     C15106  12.383   0.936   4.361  0.5407 -0.3718  0.0396
  835MOL0     C15107  12.504   0.981   4.438  0.1335 -0.8861  0.5090
  835MOL0     C15108  12.499   0.926   4.583 -0.0711  0.0098  0.0477
  835MOL0     N15109  12.625   0.960   4.659 -0.5833  0.4283 -0.5405
  835MOL0     C15110  12.679   1.087   4.666 -0.5921 -0.4676  0.5030
  835MOL0     C15111  12.810   1.068   4.713  0.5081  0.0159  1.2103
  835MOL0     C15112  12.895   1.190   4.733  0.4765  0.9833 -0.7564
  835MOL0     C15113  13.037   1.174   4.789  0.3415 -0.6924 -0.3847
  835MOL0     C15114  13.139   1.282   4.754 -0.5912  0.6575  0.5250
  835MOL0     C15115  13.108   1.405   4.845  0.0058  0.1970  0.0591
  835MOL0     O15116  12.975   1.458   4.824  0.5965 -0.1420  1.7216
  835MOL0     C15117  12.973   1.569   4.749  1.0410 -0.1485 -0.2973
  835MOL0     C15118  12.982   1.556   4.611 -0.6588 -0.0934  0.5604
  835MOL0     C15119  12.980   1.659   4.518  0.1798  1.0244  0.1579
  835MOL0     C15120  12.977   1.637   4.368 -0.6383 -0.2909 -0.2260
  835MOL0     C15121  12.970   1.797   4.578 -0.8811  0.8445  0.4304
  835MOL0     C15122  12.988   1.917   4.492 -0.8381  0.1291  0.0817
  835MOL0     O15123  13.077   1.906   4.383  0.2662 -0.6292  0.4506
  835MOL0     C15124  13.082   2.023   4.315  0.4551  0.0844 -0.8065
  835MOL0     C15125  12.978   2.085   4.247 -0.2195  0.8148  0.7922
  835MOL0     C15126  13.006   2.198   4.175 -0.2474  0.7144 -0.3346
  835MOL0     C15127  13.135   2.251   4.157  0.1224  0.1800 -0.4876
  835MOL0     O15128  13.148   2.373   4.092  0.2333  0.0318 -0.9701
  835MOL0     C15129  13.270   2.445   4.125  0.3484  0.2696  0.0302
  835MOL0     C15130  13.288   2.580   4.056 -0.3545  0.0512  0.7529
  835MOL0     C15131  13.348   2.563   3.915  0.1824 -0.1279  0.3311
  835MOL0     C15132  13.507   2.550   3.927  0.3505 -0.2121  0.4157
  835MOL0     C15133  13.590   2.668   3.964  0.1893 -0.0651 -0.1372
  835MOL0     C15134  13.566   2.777   3.854  0.7592 -0.3749  0.4180
  835MOL0     C15135  13.643   2.909   3.872 -0.6698  0.0783  0.1838
  835MOL0     C15136  13.608   3.011   3.771 -0.2915  0.4143 -0.4183
  835MOL0    Cl15137  13.444   3.089   3.776 -0.6832  0.2241 -0.1336
  835MOL0     C15138  13.232   2.185   4.231  0.4015  0.1724 -0.0747
  835MOL0     C15139  13.207   2.083   4.315 -0.7058 -0.1340 -0.1769
  835MOL0     O15140  12.936   2.027   4.527 -0.7830  0.8859 -0.2272
  835MOL0     C15141  12.966   1.810   4.717 -0.4790  0.3517 -0.3865
  835MOL0     C15142  12.975   1.698   4.808  0.0335  0.3354  0.6220
  835MOL0     N15143  12.817   0.939   4.742 -0.9889  0.0201 -0.5785
  835MOL0     N15144  12.709   0.874   4.712 -0.0260 -0.1300 -0.2052
  835MOL0     C15145  11.786   0.946   3.809  1.1175 -0.5178 -0.4087
  835MOL0     C15146  11.645   0.926   3.801 -1.3183 -0.7851 -0.2689
  835MOL0     C15147  11.200   0.990   3.853  0.6123 -0.4506  0.7160
  835MOL0     C15148  11.143   0.952   3.977  1.0847 -0.0478  0.0794
  835MOL0     C15149  11.006   0.936   3.998  0.1381  0.6887  0.1123
  835MOL0     C15150  10.919   0.962   3.890 -0.5774 -0.0918 -0.1888
  835MOL0     O15151  10.785   0.946   3.900 -0.2131  0.0224  0.1706
  835MOL0     C15152  10.720   0.908   4.028 -0.5116 -0.3207 -0.3024
  835MOL0     C15153  10.569   0.883   4.018 -0.6174 -0.3383 -0.5653
  835MOL0     C15154  10.486   1.005   3.976 -0.1807  0.7965 -0.3055
  835MOL0     C15155  10.485   1.067   3.836  0.7733  0.0763  0.1920
  835MOL0     C15156  10.435   0.966   3.742  0.9624  0.0149  0.0921
  835MOL0     C15157  10.381   0.887   3.669  0.0485  0.0418 -0.5550
  835MOL0     C15158  10.976   0.988   3.768  0.4077 -0.1533  0.3929
  835MOL0     C15159  11.111   1.007   3.745 -0.0854  0.0062  0.4100
  835MOL0     C15160  11.168   1.020   3.604 -0.2670 -0.4003 -0.1240
  835MOL0     H15161  11.568   0.971   4.133  1.0550 -0.8253  0.5111
  835MOL0     H15162  11.790   1.038   4.133 -1.0588 -1.7168  1.4138
  835MOL0     H15163  12.012   0.835   3.840 -1.9561 -1.0443  0.3077
  835MOL0     H15164  12.037   0.849   4.021  1.9569  0.8045  0.7341
  835MOL0     H15165  12.243   0.822   3.905 -1.0915 -0.1922  2.1533
  835MOL0     H15166  12.205   0.962   3.792  0.6402 -0.1585  0.3286
  835MOL0     H15167  12.372   0.999   3.965  0.5135  0.2734  1.5904
  835MOL0     H15168  12.253   1.117   3.984  1.6115  0.1355 -6.1218
  835MOL0     H15169  12.185   0.972   4.191  0.5311  0.6007  1.3734
  835MOL0     H15170  12.288   0.837   4.122  1.7934  0.4189 -0.0112
  835MOL0     H15171  12.382   1.119   4.227 -0.2118  0.8024 -1.4205
  835MOL0     H15172  12.479   0.987   4.171 -1.9814 -2.0257 -2.6156
  835MOL0     H15173  12.290   0.964   4.412  1.1726 -0.3554  1.2096
  835MOL0     H15174  12.380   0.829   4.339  1.2596 -0.1496 -1.2275
  835MOL0     H15175  12.519   1.090   4.433 -0.3433 -0.8638 -0.9400
  835MOL0     H15176  12.592   0.934   4.395  1.5784  0.3945  1.9315
  835MOL0     H15177  12.417   0.984   4.625  0.7310 -0.9563  3.2563
  835MOL0     H15178  12.480   0.819   4.595 -1.4525  0.2370 -0.0273
  835MOL0     H15179  12.638   1.180   4.627  0.1882  0.8344  2.6170
  835MOL0     H15180  12.830   1.251   4.796 -0.5727  0.3143 -1.1679
  835MOL0     H15181  12.897   1.244   4.638 -0.5075  0.5965 -1.0055
  835MOL0     H15182  13.037   1.160   4.897  0.7590  1.6531 -0.0455
  835MOL0     H15183  13.077   1.089   4.732 -0.4761  1.4456 -4.5316
  835MOL0     H15184  13.237   1.240   4.778 -0.7372 -0.9137 -1.3669
  835MOL0     H15185  13.140   1.305   4.647  0.4046 -2.2719 -0.1709
  835MOL0     H15186  13.101   1.374   4.949 -1.6044  1.3143  0.3155
  835MOL0     H15187  13.188   1.478   4.831 -0.4834  0.4054 -2.0667
  835MOL0     H15188  12.990   1.451   4.584 -2.0157 -0.9943  3.3313
  835MOL0     H15189  12.940   1.538   4.341 -1.8127  0.1125 -0.1303
  835MOL0     H15190  13.076   1.658   4.326 -1.9780  3.8624 -1.7259
  835MOL0     H15191  12.901   1.700   4.322  1.3513  2.2637 -0.2519
  835MOL0     H15192  12.879   2.041   4.238  1.1808 -2.1087 -2.9419
  835MOL0     H15193  12.925   2.249   4.123 -1.5522 -1.6106 -0.7456
  835MOL0     H15194  13.259   2.460   4.233 -0.0995  0.3039 -0.0185
  835MOL0     H15195  13.355   2.378   4.111 -0.3920 -0.8760  0.7654
  835MOL0     H15196  13.196   2.639   4.067 -1.6392 -1.3900 -1.4718
  835MOL0     H15197  13.362   2.637   4.112 -0.4499  2.1548 -1.1448
  835MOL0     H15198  13.322   2.640   3.843 -0.7442 -2.5367 -2.0948
  835MOL0     H15199  13.301   2.471   3.879 -3.9879  1.4580  1.1984
  835MOL0     H15200  13.543   2.504   3.835 -2.2154  0.0749 -0.8282
  835MOL0     H15201  13.520   2.472   4.003 -1.4853 -0.8204  0.1653
  835MOL0     H15202  13.565   2.705   4.064 -2.6166  0.4657 -0.9360
  835MOL0     H15203  13.696   2.642   3.968  0.6980  1.5796 -1.9132
  835MOL0     H15204  13.461   2.805   3.872  0.7010  1.2850 -2.0843
  835MOL0     H15205  13.572   2.740   3.752  2.0034 -0.1830  0.4141
  835MOL0     H15206  13.749   2.882   3.869 -0.4773  0.4041  2.1971
  835MOL0     H15207  13.626   2.953   3.971 -1.2594 -0.9032  0.5392
  835MOL0     H15208  13.628   2.970   3.672 -0.3065 -2.2041  0.5692
  835MOL0     H15209  13.675   3.095   3.791  0.7649 -0.6453  0.6823
  835MOL0     H15210  13.335   2.216   4.221  0.1802  0.5494 -1.3439
  835MOL0     H15211  13.288   2.040   4.372 -1.8303 -2.9018 -0.4905
  835MOL0     H15212  12.964   1.913   4.749 -1.5092  0.5386 -1.0148
  835MOL0     H15213  12.991   1.707   4.915  1.2585 -2.0636  0.7166
  835MOL0     H15214  11.847   0.924   3.722  0.2400 -2.1412 -0.6592
  835MOL0     H15215  11.604   0.887   3.708 -2.5395  2.1623 -1.0840
  835MOL0     H15216  11.201   0.930   4.066 -0.7877 -0.0285  1.3774
  835MOL0     H15217  10.960   0.885   4.083 -4.3381  0.8027 -1.9639
  835MOL0     H15218  10.768   0.811   4.046  0.2032  0.2787  1.1383
  835MOL0     H15219  10.758   0.975   4.105  0.9285 -1.0431 -0.3407
  835MOL0     H15220  10.523   0.856   4.113 -1.9120 -1.0833 -1.3724
  835MOL0     H15221  10.551   0.791   3.961  1.0243  0.6917 -2.9138
  835MOL0     H15222  10.382   0.971   3.986  0.2544 -0.5159 -0.0608
  835MOL0     H15223  10.502   1.083   4.050  0.3688  1.4374 -1.0862
  835MOL0     H15224  10.582   1.104   3.802 -0.2411  1.7199 -1.0989
  835MOL0     H15225  10.416   1.152   3.841 -1.5552 -1.7523  0.9413
  835MOL0     H15226  10.317   0.818   3.618 -0.9718  0.2985  0.3456
  835MOL0     H15227  10.900   0.981   3.692  0.9318  0.2198 -0.1752
  835MOL0     H15228  11.251   1.090   3.607 -1.4721  1.1197 -1.0821
  835MOL0     H15229  11.206   0.926   3.564 -1.4697 -0.5645 -0.9367
  835MOL0     H15230  11.093   1.065   3.539  0.2852  0.0373 -0.4630
  836MOL0     O15231   7.747   0.582   5.311 -0.0192 -0.0650 -0.4082
  836MOL0     C15232   7.689   0.484   5.346  0.4909  0.4887 -0.0419
  836MOL0     O15233   7.701   0.439   5.479 -0.7787  0.1179 -0.2110
  836MOL0     C15234   7.785   0.503   5.570  0.4033 -0.1844  0.2983
  836MOL0     C15235   7.744   0.518   5.700 -0.2892  0.8346  0.2238
  836MOL0     C15236   7.831   0.564   5.802  0.6272  0.0218  0.1301
  836MOL0     C15237   7.957   0.612   5.769 -0.5467  0.2841  0.5680
  836MOL0     O15238   8.047   0.671   5.848 -0.1538 -0.0059 -0.3807
  836MOL0     C15239   8.018   0.682   5.994 -0.2995 -0.4267  0.3565
  836MOL0     C15240   8.121   0.768   6.070 -0.4802 -0.3615  0.4666
  836MOL0     C15241   8.266   0.712   6.090 -0.1668  0.7344  0.5592
  836MOL0     C15242   8.349   0.719   5.967 -0.7612 -0.3887 -0.1006
  836MOL0     C15243   8.492   0.676   5.998 -0.1536  0.2810 -0.2621
  836MOL0     C15244   8.561   0.623   5.869  0.0164  0.8574 -0.0067
  836MOL0     C15245   8.705   0.593   5.875 -0.1833  1.4668  0.5009
  836MOL0     C15246   8.750   0.484   5.978 -0.4583  0.2825  0.3709
  836MOL0     N15247   8.896   0.494   6.015  0.5515  0.3676  0.6113
  836MOL0     C15248   8.991   0.405   5.964  0.5803 -0.1046 -0.2097
  836MOL0     C15249   9.099   0.412   6.049  0.1318  0.0161  0.1186
  836MOL0     C15250   9.232   0.332   6.035 -0.0631 -0.6546 -0.1088
  836MOL0     C15251   9.296   0.368   5.899 -0.7462  0.5535  0.2108
  836MOL0     C15252   9.318   0.516   5.858 -0.6994  0.8414  0.7117
  836MOL0     C15253   9.389   0.534   5.721  0.5086 -0.7646 -0.1591
  836MOL0     O15254   9.320   0.477   5.607  0.0967  0.7826 -0.0968
  836MOL0     C15255   9.199   0.526   5.569 -0.5680  0.0268 -0.1904
  836MOL0     C15256   9.134   0.646   5.610 -0.1596  0.0472  0.1523
  836MOL0     C15257   9.006   0.676   5.577  0.2939  0.0425  0.2497
  836MOL0     C15258   8.936   0.797   5.644  0.6225  0.4794 -0.5654
  836MOL0     C15259   8.953   0.604   5.464  1.3656  0.1649 -0.3436
  836MOL0     C15260   8.817   0.637   5.408 -0.3287 -0.5264 -0.3877
  836MOL0     O15261   8.736   0.724   5.476 -0.1235  0.4566  0.4813
  836MOL0     C15262   8.607   0.744   5.431 -0.1404 -0.5832  0.1260
  836MOL0     C15263   8.496   0.696   5.497 -1.2099 -0.0892  0.2697
  836MOL0     C15264   8.371   0.719   5.444 -0.3541  0.3278 -0.0140
  836MOL0     C15265   8.356   0.813   5.333  0.3744  0.9286 -0.8015
  836MOL0     O15266   8.238   0.846   5.285  0.0074 -0.3648  0.4143
  836MOL0     C15267   8.116   0.817   5.355 -1.0198 -0.3549  0.2936
  836MOL0     C15268   7.994   0.862   5.279 -0.1881 -0.1202  0.3517
  836MOL0     C15269   7.967   0.775   5.147  0.1826 -0.0799  0.8993
  836MOL0     C15270   7.832   0.822   5.086 -0.0311  0.7387 -0.1994
  836MOL0     C15271   7.794   0.751   4.953  0.3462 -0.4348 -0.1332
  836MOL0     C15272   7.902   0.771   4.846  0.5325 -0.5063 -0.2668
  836MOL0     C15273   7.841   0.750   4.703  0.1844  0.5945 -0.7593
  836MOL0     C15274   7.799   0.879   4.626 -0.6023 -0.3259 -0.0657
  836MOL0    Cl15275   7.678   0.844   4.497 -0.8358 -0.0220 -0.0820
  836MOL0     C15276   8.467   0.877   5.273 -1.0604  0.9740  0.4466
  836MOL0     C15277   8.592   0.839   5.329  0.1784  0.5042  0.1866
  836MOL0     O15278   8.783   0.586   5.312 -0.5842  0.2551 -0.3102
  836MOL0     C15279   9.016   0.484   5.427 -0.0429 -0.1523  0.6672
  836MOL0     C15280   9.140   0.452   5.473 -0.9024 -0.0210 -0.6205
  836MOL0     N15281   9.067   0.506   6.149  0.3901  0.0879  0.1988
  836MOL0     N15282   8.943   0.546   6.131 -0.0765 -0.9254 -0.0425
  836MOL0     C15283   8.000   0.607   5.636  0.3063  0.2881 -0.1507
  836MOL0     C15284   7.916   0.548   5.547 -0.0736  0.3599  0.2791
  836MOL0     C15285   7.608   0.409   5.236  0.7580 -0.7992 -0.0688
  836MOL0     C15286   7.605   0.468   5.112 -0.2876  0.0731  0.0527
  836MOL0     C15287   7.562   0.394   5.009  0.1451 -0.7770  0.0569
  836MOL0     C15288   7.508   0.267   5.015  0.0682 -0.1882  0.0243
  836MOL0     O15289   7.464   0.203   4.905 -0.7047  0.0292 -0.0645
  836MOL0     C15290   7.366   0.269   4.817  0.3729 -0.5044  0.4806
  836MOL0     C15291   7.315   0.177   4.715  0.2186 -0.3585  0.6067
  836MOL0     C15292   7.253   0.042   4.766  0.4361 -0.8901  0.3425
  836MOL0     C15293   7.123   0.002   4.701  0.1147  0.4410  0.5000
  836MOL0     C15294   7.137  -0.070   4.571  0.3398 -0.8034 -0.5441
  836MOL0     C15295   7.142  -0.106   4.457 -0.9831  0.3483 -0.2130
  836MOL0     C15296   7.502   0.204   5.141  0.3075 -0.0464 -0.3578
  836MOL0     C15297   7.550   0.274   5.251  0.4752 -0.1756 -0.6942
  836MOL0     C15298   7.526   0.205   5.387  0.1833  0.4015 -0.1376
  836MOL0     H15299   7.644   0.488   5.732  0.0134  1.1761  1.5545
  836MOL0     H15300   7.790   0.559   5.902 -1.0684 -0.7275 -0.5627
  836MOL0     H15301   8.028   0.575   6.012 -2.6588 -0.9808 -1.1674
  836MOL0     H15302   7.920   0.721   6.024  0.5190  2.5789 -0.5276
  836MOL0     H15303   8.137   0.868   6.028  1.4327 -1.4891 -1.6746
  836MOL0     H15304   8.074   0.763   6.168 -0.5521 -2.8917  0.3596
  836MOL0     H15305   8.318   0.785   6.153 -1.8084  1.4782  1.1148
  836MOL0     H15306   8.262   0.610   6.128  0.9327  1.1063  1.7561
  836MOL0     H15307   8.307   0.648   5.896  0.7939 -0.9700 -0.4897
  836MOL0     H15308   8.338   0.818   5.921 -0.5700  0.4076  1.4636
  836MOL0     H15309   8.480   0.590   6.064 -2.6891  0.5984 -0.2108
  836MOL0     H15310   8.552   0.756   6.042 -1.6351 -0.2565  3.0624
  836MOL0     H15311   8.507   0.534   5.834  0.0257  1.0816 -0.6046
  836MOL0     H15312   8.547   0.694   5.788  2.7566 -0.2278 -1.5579
  836MOL0     H15313   8.763   0.684   5.888 -0.4950  1.9677 -1.2839
  836MOL0     H15314   8.731   0.549   5.778 -0.2752  1.9711  0.2458
  836MOL0     H15315   8.696   0.502   6.071 -3.2359 -0.7096 -0.9444
  836MOL0     H15316   8.727   0.380   5.951 -0.9935  0.6989 -0.8649
  836MOL0     H15317   8.999   0.344   5.874  2.8856  1.2400 -1.0239
  836MOL0     H15318   9.205   0.227   6.024 -2.4027 -0.1402  0.1946
  836MOL0     H15319   9.303   0.335   6.118  1.4816 -3.5983 -1.1906
  836MOL0     H15320   9.398   0.329   5.902 -0.5350  1.1320  0.8300
  836MOL0     H15321   9.242   0.320   5.817  1.6916  0.1433 -1.2562
  836MOL0     H15322   9.225   0.573   5.854 -1.5571 -0.4636 -3.9834
  836MOL0     H15323   9.380   0.561   5.936  0.8364 -3.5972  2.3652
  836MOL0     H15324   9.404   0.642   5.707  0.6025 -0.8588 -0.7801
  836MOL0     H15325   9.485   0.483   5.735  0.9363  0.3356  1.1716
  836MOL0     H15326   9.180   0.693   5.696 -1.1440  0.7714  0.3129
  836MOL0     H15327   8.845   0.772   5.698 -0.1069  4.2689  0.2863
  836MOL0     H15328   8.905   0.875   5.572 -1.8174 -0.2422 -0.3658
  836MOL0     H15329   8.999   0.854   5.712  0.2293  0.5964 -0.2977
  836MOL0     H15330   8.510   0.636   5.586 -1.4631 -0.6931 -0.0963
  836MOL0     H15331   8.284   0.677   5.492 -1.3794  3.4992  1.1221
  836MOL0     H15332   8.104   0.714   5.392 -0.1660  0.1529  2.1560
  836MOL0     H15333   8.123   0.876   5.447  1.3972  2.3841 -1.4742
  836MOL0     H15334   7.916   0.843   5.353 -0.0687 -3.5635 -0.2588
  836MOL0     H15335   7.984   0.969   5.257 -6.9189 -0.3167  0.3121
  836MOL0     H15336   7.954   0.667   5.163 -2.2662  0.2401  1.4825
  836MOL0     H15337   8.052   0.792   5.080 -1.1401  0.8274 -0.6055
  836MOL0     H15338   7.823   0.931   5.085  1.2073  1.0265  3.5816
  836MOL0     H15339   7.752   0.791   5.154 -0.5878  0.2870 -1.0354
  836MOL0     H15340   7.782   0.642   4.958 -0.1832 -0.3864 -0.2522
  836MOL0     H15341   7.704   0.801   4.917  1.4611  1.7688 -0.0191
  836MOL0     H15342   7.981   0.697   4.861 -0.9935 -2.2418 -0.5313
  836MOL0     H15343   7.930   0.877   4.852 -3.0347  0.7693 -2.9289
  836MOL0     H15344   7.753   0.685   4.708  1.6118 -1.3229  2.4406
  836MOL0     H15345   7.918   0.701   4.644  1.3009  0.3410  0.8632
  836MOL0     H15346   7.884   0.938   4.591 -1.9927  1.5181 -0.5169
  836MOL0     H15347   7.754   0.946   4.700 -1.1268 -2.3938  1.6056
  836MOL0     H15348   8.460   0.938   5.184 -2.3572 -0.4588 -0.4806
  836MOL0     H15349   8.681   0.887   5.289  1.1055  1.3099  2.9813
  836MOL0     H15350   8.963   0.424   5.354 -2.1087  0.2426  1.7484
  836MOL0     H15351   9.193   0.367   5.433 -0.0131 -0.1355  0.7233
  836MOL0     H15352   8.101   0.641   5.615  2.3011 -2.0547  4.4307
  836MOL0     H15353   7.952   0.551   5.445  0.8609 -0.2581  0.5798
  836MOL0     H15354   7.639   0.566   5.081  4.1300 -0.8386  1.2862
  836MOL0     H15355   7.573   0.446   4.915  0.6896  2.5255  1.8149
  836MOL0     H15356   7.279   0.311   4.869  0.0356 -1.9023  1.0774
  836MOL0     H15357   7.411   0.349   4.757 -1.4751 -1.9952 -3.1749
  836MOL0     H15358   7.396   0.144   4.648  2.5416 -0.3721  3.2232
  836MOL0     H15359   7.236   0.236   4.667  0.7368  1.8321  2.2740
  836MOL0     H15360   7.326  -0.039   4.753 -1.7001 -2.6769 -1.3209
  836MOL0     H15361   7.233   0.056   4.873 -2.1254  0.8333 -0.2743
  836MOL0     H15362   7.053   0.085   4.686 -0.4322 -0.3908 -2.0764
  836MOL0     H15363   7.079  -0.072   4.768  1.4869 -0.4194  0.4825
  836MOL0     H15364   7.147  -0.151   4.359 -0.5913  1.1609 -0.5719
  836MOL0     H15365   7.451   0.109   5.149  1.4312 -0.5061  3.6120
  836MOL0     H15366   7.465   0.115   5.387 -0.3346  0.6573  2.4380
  836MOL0     H15367   7.620   0.171   5.432 -0.0573 -0.2662 -0.1450
  836MOL0     H15368   7.476   0.280   5.449 -0.1250  3.3038 -3.5467
  837MOL0     O15369   8.319   0.855   8.512 -0.1456 -0.4051 -0.0013
  837MOL0     C15370   8.230   0.779   8.461 -0.3810 -0.3089 -0.6580
  837MOL0     O15371   8.141   0.814   8.369 -0.1209  0.1536  0.2371
  837MOL0     C15372   8.128   0.945   8.344 -0.6359 -0.9107 -0.0098
  837MOL0     C15373   8.188   0.998   8.237  0.1141 -0.4574 -0.2921
  837MOL0     C15374   8.165   1.135   8.204 -1.2837 -0.1540  0.4435
  837MOL0     C15375   8.084   1.212   8.282  0.8222  0.1301 -0.2412
  837MOL0     O15376   8.056   1.336   8.224  0.0442 -0.0129  0.6693
  837MOL0     C15377   8.006   1.439   8.317 -0.0902 -0.5877  0.4775
  837MOL0     C15378   7.962   1.548   8.225  0.2482 -0.2621  0.1889
  837MOL0     C15379   8.095   1.598   8.157 -0.3761  0.2534  0.0695
  837MOL0     C15380   8.085   1.730   8.074  0.5404  0.2287 -0.0212
  837MOL0     C15381   8.207   1.728   7.985 -0.1480 -0.0462  0.2960
  837MOL0     C15382   8.348   1.716   8.053 -0.4559 -0.5245 -0.1543
  837MOL0     C15383   8.385   1.827   8.165 -0.1063  0.5807  0.0037
  837MOL0     C15384   8.514   1.796   8.246  0.0301  0.0564  0.5702
  837MOL0     N15385   8.497   1.679   8.334  0.5767 -0.5801 -0.6477
  837MOL0     C15386   8.516   1.548   8.294  0.4529  0.0047  0.1918
  837MOL0     C15387   8.478   1.472   8.396  0.4918 -0.0143  0.3534
  837MOL0     C15388   8.492   1.314   8.398 -0.1544 -0.9766  0.1071
  837MOL0     C15389   8.401   1.264   8.510  1.1938 -0.1397  0.4803
  837MOL0     C15390   8.475   1.254   8.643 -0.4572  0.0525 -0.1978
  837MOL0     C15391   8.391   1.187   8.754  0.4191  0.8138  0.7399
  837MOL0     O15392   8.466   1.151   8.874 -0.6039  0.1839 -0.2015
  837MOL0     C15393   8.540   1.027   8.875  0.1930 -0.7305 -0.0125
  837MOL0     C15394   8.604   1.002   8.995 -0.5562 -0.4249  0.4167
  837MOL0     C15395   8.688   0.891   8.993  0.1039  0.0583 -0.0769
  837MOL0     C15396   8.738   0.862   9.133  1.2611 -0.0975 -0.3500
  837MOL0     C15397   8.711   0.813   8.877  0.0448  0.5493 -0.0444
  837MOL0     C15398   8.802   0.693   8.872  0.4752  0.3623  0.6129
  837MOL0     O15399   8.892   0.658   8.980 -0.5842  0.6896 -0.4644
  837MOL0     C15400   8.979   0.561   8.943  0.3002  0.2933 -1.0330
  837MOL0     C15401   9.092   0.605   8.868  1.1392 -0.2952  0.0589
  837MOL0     C15402   9.181   0.514   8.798  0.1566 -0.4911 -0.3692
  837MOL0     C15403   9.163   0.374   8.806 -0.6981 -0.2272 -0.1601
  837MOL0     O15404   9.237   0.293   8.726  0.3672  0.7860 -0.2002
  837MOL0     C15405   9.207   0.159   8.735 -0.8512  0.7716  0.2764
  837MOL0     C15406   9.334   0.078   8.693  0.2449 -0.0378  0.1186
  837MOL0     C15407   9.355   0.073   8.535  0.6751 -0.5470 -0.5134
  837MOL0     C15408   9.506   0.073   8.506  1.1043  0.0432  0.4194
  837MOL0     C15409   9.526   0.084   8.357 -0.2434 -1.1210  0.5880
  837MOL0     C15410   9.673   0.087   8.309 -0.4274 -0.5522 -0.5488
  837MOL0     C15411   9.686   0.065   8.164 -0.2308  1.2430  0.2401
  837MOL0     C15412   9.824   0.092   8.122 -0.1057 -0.1186  0.2699
  837MOL0    Cl15413   9.941  -0.028   8.194  0.1909 -0.1371 -0.0328
  837MOL0     C15414   9.068   0.336   8.907 -0.8419  0.2008 -0.5507
  837MOL0     C15415   8.975   0.424   8.961  0.6228 -0.0210  0.5080
  837MOL0     O15416   8.797   0.628   8.765  0.2041 -0.4565  0.3031
  837MOL0     C15417   8.641   0.844   8.757  0.6218  0.4604 -0.2368
  837MOL0     C15418   8.556   0.955   8.751  0.3529  0.1823  1.0105
  837MOL0     N15419   8.455   1.557   8.503 -0.1355  0.3252  0.3920
  837MOL0     N15420   8.475   1.681   8.473 -0.9151  0.1245  0.3864
  837MOL0     C15421   8.015   1.157   8.390  0.4814  0.3243 -0.2605
  837MOL0     C15422   8.036   1.020   8.421 -0.0176  0.2481  0.2882
  837MOL0     C15423   8.243   0.636   8.499 -0.2884 -0.2711 -0.4454
  837MOL0     C15424   8.361   0.595   8.574 -0.6243 -0.2069 -0.0998
  837MOL0     C15425   8.391   0.456   8.594  0.0375 -0.1604  0.7806
  837MOL0     C15426   8.303   0.355   8.557 -0.1954 -0.1301  0.7420
  837MOL0     O15427   8.342   0.223   8.593  0.3026 -0.6390  0.1259
  837MOL0     C15428   8.312   0.130   8.483  0.0420  0.5479 -0.3510
  837MOL0     C15429   8.395   0.165   8.356  0.6966  0.2396  0.5082
  837MOL0     C15430   8.543   0.195   8.389  0.5069 -0.7495 -0.2880
  837MOL0     C15431   8.622   0.217   8.263 -0.1339 -0.4401 -0.6216
  837MOL0     C15432   8.581   0.331   8.189 -0.6116 -0.5170 -0.3359
  837MOL0     C15433   8.540   0.432   8.134 -0.0299 -0.7116 -0.1303
  837MOL0     C15434   8.176   0.397   8.513  0.1866 -1.0438  0.1534
  837MOL0     C15435   8.150   0.536   8.481  0.1092  0.1879 -0.7813
  837MOL0     C15436   8.006   0.575   8.438  0.0939 -0.0964 -0.1880
  837MOL0     H15437   8.258   0.933   8.184  1.6896  0.5293  0.5113
  837MOL0     H15438   8.224   1.174   8.121 -2.5306 -4.0046 -2.5932
  837MOL0     H15439   8.084   1.484   8.380  1.4088  3.8686 -3.8977
  837MOL0     H15440   7.917   1.418   8.377 -1.6475  2.4934 -0.5880
  837MOL0     H15441   7.901   1.510   8.143 -0.8246  1.2280  0.2682
  837MOL0     H15442   7.914   1.621   8.290 -0.0712  1.2124 -1.6365
  837MOL0     H15443   8.158   1.607   8.246  0.4352 -0.6615 -0.3886
  837MOL0     H15444   8.141   1.519   8.098 -0.8220 -1.6511  2.1375
  837MOL0     H15445   7.990   1.739   8.021 -0.9324 -0.7328  2.3159
  837MOL0     H15446   8.083   1.811   8.147 -0.0675  0.0372  0.1774
  837MOL0     H15447   8.197   1.823   7.930 -0.9483  0.7296  1.7216
  837MOL0     H15448   8.189   1.652   7.908 -0.5402 -0.3320  0.6659
  837MOL0     H15449   8.356   1.617   8.100  2.5984  0.1676  1.0103
  837MOL0     H15450   8.422   1.715   7.973 -1.0770 -3.2084 -0.8143
  837MOL0     H15451   8.307   1.836   8.242  0.4649 -1.5283  0.8893
  837MOL0     H15452   8.386   1.922   8.110  0.5237  0.9968  0.7178
  837MOL0     H15453   8.589   1.771   8.171  0.8236 -2.3102  2.0307
  837MOL0     H15454   8.541   1.888   8.298  1.5244  0.1780 -0.3725
  837MOL0     H15455   8.558   1.511   8.201  3.5998  0.0981  1.4519
  837MOL0     H15456   8.592   1.280   8.425 -0.1925  0.5974  2.5652
  837MOL0     H15457   8.452   1.278   8.303  0.1878  1.3383 -1.0026
  837MOL0     H15458   8.307   1.321   8.509 -0.4388 -2.3329 -4.2172
  837MOL0     H15459   8.369   1.165   8.476 -0.0794  0.5360 -0.3793
  837MOL0     H15460   8.573   1.208   8.624 -1.1661 -0.1613 -4.0975
  837MOL0     H15461   8.489   1.354   8.685  1.6257 -0.6768  1.0153
  837MOL0     H15462   8.309   1.256   8.781 -2.7664 -1.8906 -1.2405
  837MOL0     H15463   8.326   1.108   8.716  0.6443  0.0497  1.8777
  837MOL0     H15464   8.603   1.072   9.078  0.4887 -0.8908  0.8469
  837MOL0     H15465   8.674   0.782   9.171 -0.1768  1.1842  0.0298
  837MOL0     H15466   8.736   0.953   9.193 -2.4369  0.4186 -1.0315
  837MOL0     H15467   8.843   0.831   9.131  1.3303  0.1704 -2.3740
  837MOL0     H15468   9.106   0.710   8.841 -0.2714 -0.2197 -0.4452
  837MOL0     H15469   9.248   0.569   8.733 -1.0558  0.9999 -0.4255
  837MOL0     H15470   9.183   0.130   8.838 -4.0116  1.8884 -0.0212
  837MOL0     H15471   9.126   0.135   8.665  1.1122 -0.7844 -1.5908
  837MOL0     H15472   9.417   0.119   8.751 -0.3755  3.3552 -1.1610
  837MOL0     H15473   9.330  -0.026   8.726  2.1169 -0.7216 -1.6461
  837MOL0     H15474   9.306   0.162   8.496 -0.5289 -1.2715 -0.6822
  837MOL0     H15475   9.310  -0.018   8.494 -0.1840  0.5699 -2.1481
  837MOL0     H15476   9.564  -0.011   8.545 -0.7027 -0.6932  1.6454
  837MOL0     H15477   9.547   0.158   8.562  0.4561  2.6304 -2.6943
  837MOL0     H15478   9.479  -0.006   8.316 -2.4445 -0.2325  1.0077
  837MOL0     H15479   9.468   0.168   8.317  0.0664 -0.1403  2.1289
  837MOL0     H15480   9.730   0.009   8.362  0.4630 -1.7644 -3.0996
  837MOL0     H15481   9.721   0.183   8.332 -0.2825 -0.8274  0.3590
  837MOL0     H15482   9.610   0.127   8.116 -0.8410  0.9651  0.8268
  837MOL0     H15483   9.665  -0.040   8.142  2.4160  1.2794 -3.2154
  837MOL0     H15484   9.855   0.196   8.134  0.2186 -0.3915  1.9576
  837MOL0     H15485   9.837   0.080   8.014 -1.6251  1.2236 -0.1008
  837MOL0     H15486   9.050   0.231   8.927 -1.8291  0.1967 -1.3507
  837MOL0     H15487   8.900   0.390   9.032  0.8826 -0.4656  0.5746
  837MOL0     H15488   8.668   0.796   8.664 -0.7679 -1.5775  0.3454
  837MOL0     H15489   8.506   0.967   8.655  0.5509  5.4807  1.2641
  837MOL0     H15490   7.954   1.226   8.448  0.4347  0.7399 -0.7975
  837MOL0     H15491   7.996   0.975   8.511 -0.3040  1.7445  0.9328
  837MOL0     H15492   8.438   0.659   8.618  2.0280 -3.0568 -0.2346
  837MOL0     H15493   8.486   0.429   8.638  0.1211  0.4291  0.9698
  837MOL0     H15494   8.342   0.034   8.526  0.5087  0.4711 -0.8373
  837MOL0     H15495   8.208   0.119   8.450 -0.0955  0.2431  0.1760
  837MOL0     H15496   8.354   0.246   8.294 -0.5320 -2.9631 -3.2942
  837MOL0     H15497   8.397   0.076   8.292 -1.7416  0.0325  0.6417
  837MOL0     H15498   8.556   0.293   8.435 -0.3540 -1.1306  0.8188
  837MOL0     H15499   8.586   0.120   8.457 -0.9722 -1.2529  0.1343
  837MOL0     H15500   8.614   0.128   8.200  1.4607 -0.4102 -0.9282
  837MOL0     H15501   8.727   0.221   8.295 -0.7051 -3.9149  2.2603
  837MOL0     H15502   8.481   0.512   8.094 -1.7923 -1.4521  0.8547
  837MOL0     H15503   8.100   0.320   8.514 -1.3966  0.4381 -0.8788
  837MOL0     H15504   7.928   0.499   8.447 -0.6300  0.8090  1.4839
  837MOL0     H15505   7.977   0.667   8.488  2.1469  0.2329  0.4981
  837MOL0     H15506   8.013   0.605   8.333  0.9405  0.9068  0.1315
  838MOL0     O15507   0.975  10.934   8.865 -0.3100 -0.5405  0.7466
  838MOL0     C15508   0.877  10.970   8.804  0.1391 -0.6848  0.6304
  838MOL0     O15509   0.860  10.988   8.666  0.6416 -0.3070 -0.7155
  838MOL0     C15510   0.967  11.005   8.591 -0.3289 -0.7317  0.2458
  838MOL0     C15511   0.979  10.932   8.463 -0.0396 -0.4982 -0.6210
  838MOL0     C15512   1.093  10.963   8.381 -0.6986  0.4504  0.6768
  838MOL0     C15513   1.185  11.063   8.415  0.1518  0.2555  0.5829
  838MOL0     O15514   1.302  11.095   8.347  0.1922 -0.5736 -0.7182
  838MOL0     C15515   1.341  11.025   8.231  0.8732 -0.5766 -0.8187
  838MOL0     C15516   1.484  11.049   8.208  0.2356 -0.4522 -1.1571
  838MOL0     C15517   1.524  11.192   8.160 -0.3400  0.1460 -0.5176
  838MOL0     C15518   1.673  11.228   8.163 -0.3955 -0.3768 -0.0279
  838MOL0     C15519   1.752  11.199   8.287  0.4346 -0.7795  0.1865
  838MOL0     C15520   1.721  11.299   8.406 -1.0173  0.3146 -0.7024
  838MOL0     C15521   1.795  11.262   8.535  0.3151 -0.0201  0.2994
  838MOL0     C15522   1.956  11.255   8.532  0.1110 -0.0663 -0.0648
  838MOL0     N15523   2.023  11.382   8.490 -0.1677  0.1344  0.5935
  838MOL0     C15524   1.980  11.506   8.533 -0.8371  0.1969  0.3813
  838MOL0     C15525   2.066  11.594   8.480 -0.5448  1.3361  0.2234
  838MOL0     C15526   2.080  11.739   8.499 -0.0182 -0.1641 -0.1259
  838MOL0     C15527   2.007  11.810   8.382 -0.6982 -0.3635  0.4115
  838MOL0     C15528   2.000  11.961   8.420 -0.0091  0.4723 -0.4054
  838MOL0     C15529   1.904  12.039   8.328 -0.3768 -0.1423 -0.9175
  838MOL0     O15530   1.941  12.180   8.334  0.2465 -0.1654 -0.2179
  838MOL0     C15531   1.870  12.270   8.258 -0.9792  0.1927  0.6644
  838MOL0     C15532   1.904  12.405   8.263 -0.2878 -1.0503 -0.1604
  838MOL0     C15533   1.832  12.507   8.200 -0.1794  0.3579 -0.8191
  838MOL0     C15534   1.888  12.641   8.196  0.8094  0.1343  0.4949
  838MOL0     C15535   1.724  12.464   8.115 -0.3141  0.0957 -1.0932
  838MOL0     C15536   1.629  12.550   8.043 -0.8599  0.9523 -0.6108
  838MOL0     O15537   1.572  12.508   7.929 -0.7699 -0.0870  0.0347
  838MOL0     C15538   1.534  12.602   7.829 -0.3318  0.5253  0.2325
  838MOL0     C15539   1.400  12.593   7.784 -0.5859 -0.4974 -0.2720
  838MOL0     C15540   1.363  12.661   7.670  0.3275 -0.8276 -0.0299
  838MOL0     C15541   1.460  12.747   7.604  0.2393  0.0721  0.3800
  838MOL0     O15542   1.438  12.814   7.483  0.1900  0.4141 -0.5163
  838MOL0     C15543   1.305  12.815   7.429 -1.1198 -0.9945 -0.2649
  838MOL0     C15544   1.275  12.690   7.354 -0.3576  0.4568 -0.5263
  838MOL0     C15545   1.205  12.710   7.225  0.2647 -0.4357 -0.1564
  838MOL0     C15546   1.280  12.796   7.121 -0.1522 -1.0766 -0.5377
  838MOL0     C15547   1.241  12.769   6.981 -0.0789  0.6783 -0.6468
  838MOL0     C15548   1.261  12.890   6.878  0.0730  0.0611 -0.8629
  838MOL0     C15549   1.405  12.943   6.894  0.8259 -0.0641  0.4758
  838MOL0     C15550   1.460  12.989   6.757 -0.2176  0.0715  0.0340
  838MOL0    Cl15551   1.633  13.014   6.788  0.1661  0.3204  0.2054
  838MOL0     C15552   1.590  12.753   7.661  0.1804 -0.5334  0.0809
  838MOL0     C15553   1.628  12.680   7.770 -0.9962  0.1821  0.6995
  838MOL0     O15554   1.618  12.662   8.099 -1.2689  0.5470  0.3715
  838MOL0     C15555   1.697  12.327   8.102  0.3061  0.4178 -0.4757
  838MOL0     C15556   1.769  12.229   8.172 -0.1920 -0.0375 -0.4654
  838MOL0     N15557   2.167  11.524   8.412  0.9350 -0.6919 -0.0291
  838MOL0     N15558   2.136  11.400   8.420 -0.3480 -0.1610 -0.0656
  838MOL0     C15559   1.167  11.133   8.536 -0.6038  0.2937  0.4619
  838MOL0     C15560   1.067  11.103   8.627  0.5927 -0.1673  0.2134
  838MOL0     C15561   0.751  10.988   8.875 -0.4384  0.3931 -0.0791
  838MOL0     C15562   0.625  10.967   8.817 -0.4445  0.9173 -0.3578
  838MOL0     C15563   0.502  10.965   8.881  0.1964 -0.5210 -0.2624
  838MOL0     C15564   0.503  11.016   9.011  0.0596  0.1472  0.2742
  838MOL0     O15565   0.389  11.042   9.085  1.3034  0.2403  0.0478
  838MOL0     C15566   0.254  11.032   9.039 -0.6515 -0.2299 -0.7436
  838MOL0     C15567   0.229  11.168   8.967 -0.4608  0.2014  0.2572
  838MOL0     C15568   0.248  11.300   9.042  0.4572 -0.2270 -0.7062
  838MOL0     C15569   0.175  11.313   9.172 -0.5055 -0.2316 -0.3731
  838MOL0     C15570   0.169  11.451   9.204  0.3554 -0.3377 -0.7547
  838MOL0     C15571   0.145  11.562   9.237  0.6686  0.0301 -0.2193
  838MOL0     C15572   0.620  11.058   9.075  0.2928 -0.0481  0.3032
  838MOL0     C15573   0.741  11.036   9.006 -0.1685  0.0694  0.2415
  838MOL0     C15574   0.863  11.057   9.091 -0.8035  0.5666  0.0981
  838MOL0     H15575   0.899  10.859   8.454 -0.1164 -0.7355  1.3975
  838MOL0     H15576   1.107  10.907   8.290 -2.1734 -0.9930  1.2892
  838MOL0     H15577   1.280  11.071   8.152  2.1682  1.7809 -0.5191
  838MOL0     H15578   1.340  10.916   8.246  6.3620 -0.8380 -0.5561
  838MOL0     H15579   1.521  11.023   8.308 -0.7506 -1.0352 -0.9386
  838MOL0     H15580   1.526  10.981   8.133 -0.3066 -2.2884  0.1204
  838MOL0     H15581   1.493  11.212   8.057 -1.1557 -0.1961 -0.3445
  838MOL0     H15582   1.475  11.272   8.217  0.5506  0.7745 -0.6148
  838MOL0     H15583   1.722  11.167   8.087  2.2671 -1.7617  2.5868
  838MOL0     H15584   1.693  11.326   8.120 -2.3200 -1.8665 -5.0441
  838MOL0     H15585   1.859  11.206   8.263  0.0638 -0.6115 -1.6205
  838MOL0     H15586   1.729  11.096   8.316  1.3183 -1.2323 -0.6572
  838MOL0     H15587   1.746  11.402   8.380  1.1221  0.6381  2.1663
  838MOL0     H15588   1.615  11.303   8.430 -0.6516 -0.7368  1.2902
  838MOL0     H15589   1.750  11.166   8.560  0.2376 -0.3944 -1.1620
  838MOL0     H15590   1.763  11.325   8.618 -2.8623 -1.9919  0.7330
  838MOL0     H15591   1.991  11.216   8.628 -2.1722 -0.6709  0.5974
  838MOL0     H15592   1.974  11.178   8.457 -1.3407  0.9123 -1.4887
  838MOL0     H15593   1.895  11.520   8.600 -0.4138  0.9301  0.7831
  838MOL0     H15594   2.182  11.780   8.502  0.0033 -0.2415  0.1667
  838MOL0     H15595   2.033  11.755   8.596 -1.4551 -1.0473 -0.6488
  838MOL0     H15596   2.058  11.801   8.285  0.6228  0.1885  1.0304
  838MOL0     H15597   1.903  11.782   8.364 -0.0972 -1.1111 -2.6049
  838MOL0     H15598   1.979  11.978   8.526  0.7731  2.0668 -0.4855
  838MOL0     H15599   2.102  11.991   8.397  0.2742 -0.2168 -0.0900
  838MOL0     H15600   1.913  11.995   8.229  4.2172 -0.0414 -0.7942
  838MOL0     H15601   1.804  12.032   8.371  0.9376 -1.4097  2.2771
  838MOL0     H15602   2.003  12.420   8.304 -0.9026 -1.4711  1.5951
  838MOL0     H15603   1.815  12.712   8.235 -1.5103 -1.8578 -0.0400
  838MOL0     H15604   1.903  12.673   8.093 -2.3426 -4.5153 -1.7167
  838MOL0     H15605   1.981  12.653   8.253  1.3708  4.2701 -0.9189
  838MOL0     H15606   1.328  12.532   7.838 -1.0595  2.0774  2.1832
  838MOL0     H15607   1.262  12.664   7.632  0.3432 -0.4056 -0.0404
  838MOL0     H15608   1.228  12.847   7.500  0.2868  1.5456  0.2503
  838MOL0     H15609   1.297  12.894   7.353 -0.7249 -2.8825 -2.3650
  838MOL0     H15610   1.365  12.633   7.330  1.5430  0.2383  5.5309
  838MOL0     H15611   1.216  12.631   7.425  1.1757 -0.1663  0.2735
  838MOL0     H15612   1.108  12.754   7.250  0.2030 -1.0237  0.7138
  838MOL0     H15613   1.177  12.616   7.176 -0.5656 -0.3762  0.1916
  838MOL0     H15614   1.385  12.765   7.118  0.3060  0.3823 -0.8074
  838MOL0     H15615   1.282  12.903   7.144  0.4173 -1.7417  2.9481
  838MOL0     H15616   1.290  12.677   6.950 -2.5229 -0.9940  0.1606
  838MOL0     H15617   1.132  12.764   6.988 -0.2136 -0.1554 -2.5530
  838MOL0     H15618   1.194  12.972   6.907  1.8720  2.0741 -2.0818
  838MOL0     H15619   1.242  12.846   6.779 -1.1655 -0.2942 -0.4855
  838MOL0     H15620   1.478  12.869   6.927 -0.7843 -1.1731  1.7170
  838MOL0     H15621   1.412  13.021   6.969  2.0633 -1.0930  1.4808
  838MOL0     H15622   1.408  13.084   6.742 -1.3798 -0.3628  1.1567
  838MOL0     H15623   1.427  12.921   6.679 -2.4651  1.1449 -0.0208
  838MOL0     H15624   1.668  12.818   7.624 -0.7056  1.8753  2.1771
  838MOL0     H15625   1.732  12.681   7.801 -0.7851  1.2922  0.0365
  838MOL0     H15626   1.614  12.284   8.047  2.0338 -4.5964  0.3855
  838MOL0     H15627   1.749  12.123   8.156  1.1463 -0.3694 -0.0897
  838MOL0     H15628   1.245  11.200   8.569  0.7489  1.7146 -4.6983
  838MOL0     H15629   1.069  11.158   8.721 -0.6551 -1.7161  1.1984
  838MOL0     H15630   0.615  10.941   8.712 -2.3431 -0.6012  0.1292
  838MOL0     H15631   0.407  10.949   8.831 -0.8855  2.8886  0.3930
  838MOL0     H15632   0.250  10.937   8.985 -1.4031  0.1703 -1.4084
  838MOL0     H15633   0.188  11.020   9.126 -0.4384 -1.8214 -0.7742
  838MOL0     H15634   0.121  11.159   8.949 -0.7566  1.0337  1.5227
  838MOL0     H15635   0.292  11.166   8.877  0.7778 -4.3468  0.9805
  838MOL0     H15636   0.355  11.319   9.058  0.2107  1.2688 -0.7103
  838MOL0     H15637   0.212  11.384   8.981 -0.4509  0.6373  0.9648
  838MOL0     H15638   0.228  11.250   9.244 -1.2940  0.1987  0.5919
  838MOL0     H15639   0.074  11.273   9.167 -0.6819  0.2027 -0.3265
  838MOL0     H15640   0.136  11.662   9.274 -1.7933 -0.1179 -0.2455
  838MOL0     H15641   0.625  11.093   9.178 -0.0449 -2.8005  1.3461
  838MOL0     H15642   0.838  11.078   9.196  0.2561  1.3708  0.2068
  838MOL0     H15643   0.914  10.962   9.078 -1.1000  0.4629 -0.3076
  838MOL0     H15644   0.920  11.143   9.054  0.4494  1.1345  3.0505
  839MOL0     O15645   1.224   2.159  11.254 -0.2172  0.1913  0.8499
  839MOL0     C15646   1.102   2.152  11.259 -1.0002 -0.4563 -1.1097
  839MOL0     O15647   1.017   2.147  11.150  0.2771 -0.3619 -0.2966
  839MOL0     C15648   1.069   2.156  11.024 -0.4646  0.3651 -0.0427
  839MOL0     C15649   1.144   2.269  10.993 -0.8146  0.0925 -0.3357
  839MOL0     C15650   1.202   2.284  10.868 -0.3651  0.6362 -0.2808
  839MOL0     C15651   1.197   2.180  10.773 -1.1117 -0.5565  0.1532
  839MOL0     O15652   1.265   2.196  10.655  0.4327  0.1652 -0.3338
  839MOL0     C15653   1.306   2.084  10.571  0.6142 -0.1823 -0.5577
  839MOL0     C15654   1.199   2.092  10.449  0.4158  0.2722 -0.3237
  839MOL0     C15655   1.232   1.987  10.340  0.2583 -1.1529  0.5342
  839MOL0     C15656   1.344   2.051  10.254  0.5901 -0.3345 -0.0044
  839MOL0     C15657   1.380   1.942  10.151 -0.6945  0.0549 -0.3864
  839MOL0     C15658   1.476   2.002  10.040  0.0926 -0.3032  1.2191
  839MOL0     C15659   1.534   1.902   9.945 -0.3968  0.9932  0.4006
  839MOL0     C15660   1.595   1.980   9.821  0.1243 -1.0438  0.3802
  839MOL0     N15661   1.701   2.073   9.864  0.1673 -0.1706  0.1695
  839MOL0     C15662   1.808   2.034   9.928  0.1631  0.1509 -0.5080
  839MOL0     C15663   1.870   2.151   9.966  0.0747 -0.0600  0.4313
  839MOL0     C15664   1.998   2.182  10.039 -0.1536 -0.7559 -0.7303
  839MOL0     C15665   2.128   2.120   9.974 -0.2244 -0.1014  0.1041
  839MOL0     C15666   2.172   2.204   9.842  0.3841 -1.0872 -1.1057
  839MOL0     C15667   2.218   2.346   9.871 -0.1543  1.2496 -1.2327
  839MOL0     O15668   2.322   2.341   9.965 -0.7718 -0.1862  0.3988
  839MOL0     C15669   2.340   2.449  10.042 -0.6533  0.1501  0.3135
  839MOL0     C15670   2.439   2.438  10.137  0.4301  0.7182 -0.4215
  839MOL0     C15671   2.477   2.540  10.230  0.5790  0.3160 -0.3192
  839MOL0     C15672   2.585   2.490  10.329 -0.3884 -0.3628  0.0149
  839MOL0     C15673   2.421   2.669  10.230 -0.8918 -0.1000  0.1157
  839MOL0     C15674   2.455   2.787  10.314 -0.8297 -0.7829  0.2283
  839MOL0     O15675   2.571   2.790  10.393  1.0165  0.3700 -0.2467
  839MOL0     C15676   2.634   2.910  10.395  0.1076 -0.6025  0.1899
  839MOL0     C15677   2.701   2.957  10.282  0.3704 -0.2843  0.4304
  839MOL0     C15678   2.756   3.091  10.279 -0.0852  0.6118  0.0216
  839MOL0     C15679   2.760   3.162  10.394  0.1345 -0.0503  0.0878
  839MOL0     O15680   2.834   3.278  10.405 -0.1535  0.3837  0.2874
  839MOL0     C15681   2.894   3.354  10.297  0.1036 -1.1965 -0.6744
  839MOL0     C15682   2.921   3.500  10.343 -0.4195 -0.9282 -0.7971
  839MOL0     C15683   3.007   3.577  10.252 -0.3746  0.5666  0.5994
  839MOL0     C15684   3.021   3.717  10.315  0.0060 -0.2590 -0.4063
  839MOL0     C15685   3.087   3.823  10.225  1.4056  0.5515 -0.5491
  839MOL0     C15686   3.017   3.866  10.087 -0.9841  0.7717 -0.6223
  839MOL0     C15687   3.113   3.860   9.968 -0.0111 -0.4898 -0.3151
  839MOL0     C15688   3.045   3.788   9.846  0.3739  1.2046  0.3027
  839MOL0    Cl15689   3.147   3.743   9.704  0.1713  0.2479 -0.1119
  839MOL0     C15690   2.696   3.111  10.506 -0.0312 -1.2102 -0.2405
  839MOL0     C15691   2.628   2.986  10.508  0.6183 -0.5807  0.1019
  839MOL0     O15692   2.368   2.869  10.316 -0.3197  1.0696 -0.5687
  839MOL0     C15693   2.322   2.686  10.127 -0.1743  0.4294 -0.1084
  839MOL0     C15694   2.278   2.580  10.043 -0.3834  0.9883  0.4197
  839MOL0     N15695   1.794   2.248   9.908 -0.0031 -0.5019  0.1976
  839MOL0     N15696   1.702   2.204   9.838  0.0177  0.5818 -0.5074
  839MOL0     C15697   1.129   2.065  10.808  0.1215 -0.7533 -0.3866
  839MOL0     C15698   1.072   2.048  10.933 -0.0527 -0.3335  0.8569
  839MOL0     C15699   1.036   2.164  11.392 -0.0793  0.1483  0.2069
  839MOL0     C15700   1.096   2.096  11.498 -0.0476  0.4496  0.4316
  839MOL0     C15701   1.020   2.096  11.617  0.3903  0.3981 -0.1003
  839MOL0     C15702   0.903   2.167  11.639 -0.0091 -0.3036  0.2946
  839MOL0     O15703   0.838   2.171  11.757 -0.0931  0.0609 -0.4480
  839MOL0     C15704   0.797   2.043  11.806 -0.1283  0.2413  0.0374
  839MOL0     C15705   0.689   2.080  11.910 -0.2459 -1.1972  0.7310
  839MOL0     C15706   0.567   2.139  11.851 -0.0414  0.2780  0.1631
  839MOL0     C15707   0.440   2.120  11.942 -0.3731 -0.0016 -0.6722
  839MOL0     C15708   0.448   2.206  12.062  0.4615  0.5776 -0.3707
  839MOL0     C15709   0.467   2.275  12.159  0.0423 -0.3546 -0.3502
  839MOL0     C15710   0.847   2.236  11.531  0.5484  0.6137  1.4501
  839MOL0     C15711   0.915   2.247  11.409 -0.0879 -0.3452  0.3661
  839MOL0     C15712   0.867   2.347  11.308  0.1966  0.6513  0.5034
  839MOL0     H15713   1.153   2.347  11.068 -1.6504 -0.4637  0.3666
  839MOL0     H15714   1.252   2.371  10.827  0.3562 -0.1597 -1.1269
  839MOL0     H15715   1.318   1.993  10.631  1.1105 -1.2051 -2.1501
  839MOL0     H15716   1.408   2.098  10.533  2.3501  0.0649  3.5695
  839MOL0     H15717   1.099   2.081  10.493  0.7273  0.4132  0.4324
  839MOL0     H15718   1.201   2.190  10.400  0.3969 -0.4180 -1.7508
  839MOL0     H15719   1.265   1.894  10.386 -0.8060 -1.7278  0.1695
  839MOL0     H15720   1.142   1.970  10.280  0.5342  1.8103 -0.9190
  839MOL0     H15721   1.316   2.137  10.192 -0.0221 -1.2830 -1.0902
  839MOL0     H15722   1.426   2.080  10.321  3.0160  0.1882 -2.9919
  839MOL0     H15723   1.285   1.909  10.108 -1.5067 -0.4928  1.6877
  839MOL0     H15724   1.422   1.855  10.202  0.4584  0.4493 -0.6350
  839MOL0     H15725   1.420   2.068   9.974  1.2866 -1.3360 -0.9056
  839MOL0     H15726   1.555   2.057  10.092  0.7102 -3.0737  3.4921
  839MOL0     H15727   1.464   1.829   9.905  2.2095 -1.6619  0.2923
  839MOL0     H15728   1.593   1.832  10.005 -1.6885  0.6649  1.3206
  839MOL0     H15729   1.630   1.905   9.750  3.6692 -1.2364  2.0994
  839MOL0     H15730   1.516   2.036   9.771 -0.7192  1.7360  4.3172
  839MOL0     H15731   1.841   1.932   9.949  1.5413  0.3689 -1.5121
  839MOL0     H15732   1.990   2.153  10.144  2.7781 -0.1899 -0.2494
  839MOL0     H15733   1.998   2.291  10.047 -1.6393 -0.7633 -0.3234
  839MOL0     H15734   2.205   2.110  10.051  0.0863 -1.5208 -0.3451
  839MOL0     H15735   2.113   2.018   9.937  2.0851  0.0253 -1.3275
  839MOL0     H15736   2.247   2.144   9.788  0.7261 -1.6625 -0.0120
  839MOL0     H15737   2.084   2.214   9.777 -2.0284  0.3930  2.1019
  839MOL0     H15738   2.247   2.397   9.778  1.9958  0.9754 -0.7678
  839MOL0     H15739   2.129   2.386   9.920  1.1238  1.5487  0.9839
  839MOL0     H15740   2.494   2.344  10.133  1.2980  1.2555 -2.2440
  839MOL0     H15741   2.544   2.407  10.387 -0.0703 -0.8596 -0.4609
  839MOL0     H15742   2.614   2.567  10.402  0.4409 -1.5351  0.9623
  839MOL0     H15743   2.681   2.459  10.287 -1.6145 -1.4652 -2.1259
  839MOL0     H15744   2.697   2.905  10.187  1.1346 -0.9595  0.7552
  839MOL0     H15745   2.793   3.133  10.186 -2.9151 -0.8519 -1.9365
  839MOL0     H15746   2.991   3.309  10.276  1.4277 -0.5501  3.2650
  839MOL0     H15747   2.827   3.347  10.210 -1.2318  0.5954  0.1340
  839MOL0     H15748   2.825   3.550  10.353  0.4770  0.8079 -0.3909
  839MOL0     H15749   2.965   3.498  10.444  0.1158  2.2556 -0.8735
  839MOL0     H15750   2.964   3.574  10.152  0.7512 -1.7646  0.1209
  839MOL0     H15751   3.103   3.527  10.239 -1.3478 -0.7962 -2.3533
  839MOL0     H15752   3.068   3.716  10.414 -1.4563 -7.4091  0.7189
  839MOL0     H15753   2.921   3.748  10.349  0.3608 -0.3009  0.7376
  839MOL0     H15754   3.135   3.901  10.285  0.7531  0.2984  0.3288
  839MOL0     H15755   3.186   3.784  10.197  1.9887  1.1634  0.5730
  839MOL0     H15756   2.967   3.962  10.099 -3.2955 -0.4715  0.4980
  839MOL0     H15757   2.937   3.794  10.066  0.6672 -1.3226 -0.1499
  839MOL0     H15758   3.209   3.810   9.980 -0.8135 -1.4755  2.7654
  839MOL0     H15759   3.127   3.963   9.931 -1.3183 -1.4420 -3.9217
  839MOL0     H15760   2.963   3.856   9.821  0.0879  1.1087  0.9389
  839MOL0     H15761   2.998   3.690   9.862  2.7308 -0.6163 -2.8159
  839MOL0     H15762   2.698   3.165  10.600  0.9060 -1.6355  0.0014
  839MOL0     H15763   2.571   2.949  10.593  0.8459 -2.9332 -0.6951
  839MOL0     H15764   2.257   2.773  10.130 -0.6349  0.0558  1.5129
  839MOL0     H15765   2.196   2.600   9.975  0.2835  1.3220 -0.3053
  839MOL0     H15766   1.125   1.984  10.736  3.2157 -0.4825 -0.9855
  839MOL0     H15767   1.008   1.966  10.964  0.0136 -0.9519 -0.5539
  839MOL0     H15768   1.184   2.035  11.484  1.0220  2.5796 -3.3902
  839MOL0     H15769   1.057   2.051  11.708 -1.4997  1.6444  1.3496
  839MOL0     H15770   0.767   1.978  11.723 -0.8028 -0.2871  0.6798
  839MOL0     H15771   0.882   1.996  11.857 -0.7351  0.9190  1.7533
  839MOL0     H15772   0.720   2.148  11.990  1.8565 -0.9900 -0.2002
  839MOL0     H15773   0.679   1.984  11.961 -0.2877 -0.6046  1.8866
  839MOL0     H15774   0.588   2.242  11.822  1.6704  0.3023  1.3312
  839MOL0     H15775   0.542   2.076  11.765  0.5110 -3.0084  2.2228
  839MOL0     H15776   0.438   2.021  11.988  0.0002  0.7654  1.0839
  839MOL0     H15777   0.350   2.142  11.884 -0.9366 -1.0261 -0.2130
  839MOL0     H15778   0.486   2.322  12.254  2.0733 -0.5630 -0.6187
  839MOL0     H15779   0.754   2.289  11.552  1.1230  1.6730  1.4157
  839MOL0     H15780   0.926   2.439  11.308  1.1340  0.0893 -1.2369
  839MOL0     H15781   0.856   2.309  11.206 -2.0381 -0.2646  1.0335
  839MOL0     H15782   0.765   2.377  11.334  0.6852  3.2674 -0.3314
  840MOL0     O15783   7.817   2.361   6.526  0.3080  0.5594 -0.2695
  840MOL0     C15784   7.711   2.328   6.478  0.5702  0.4283  0.5718
  840MOL0     O15785   7.683   2.231   6.383 -0.6826 -0.0244  0.7416
  840MOL0     C15786   7.779   2.172   6.310 -0.3894  0.5077  0.4729
  840MOL0     C15787   7.906   2.235   6.277  0.4249 -1.0680 -0.0356
  840MOL0     C15788   7.986   2.162   6.192 -0.9466 -0.0138  0.4389
  840MOL0     C15789   7.958   2.035   6.131  0.5016 -0.8973 -0.5918
  840MOL0     O15790   8.053   1.974   6.057  0.2688 -0.2599  0.0516
  840MOL0     C15791   8.137   1.898   6.142 -0.2076  0.8977  0.2203
  840MOL0     C15792   8.280   1.910   6.087  0.9741 -0.1207  0.5583
  840MOL0     C15793   8.289   1.871   5.929  0.2591  0.1672  0.2293
  840MOL0     C15794   8.437   1.858   5.881  0.4240 -0.2876  0.7138
  840MOL0     C15795   8.456   1.849   5.728 -0.5833 -0.5765  0.6899
  840MOL0     C15796   8.373   1.733   5.670 -0.2226 -0.7164 -0.5338
  840MOL0     C15797   8.396   1.706   5.522  0.0392  0.4437 -0.3718
  840MOL0     C15798   8.284   1.615   5.464 -0.6588 -0.1766  0.1576
  840MOL0     N15799   8.247   1.651   5.327  0.8507 -0.7607 -0.3080
  840MOL0     C15800   8.321   1.637   5.217  0.1571  0.2783 -0.0401
  840MOL0     C15801   8.245   1.684   5.112 -0.5334 -0.4040  0.7054
  840MOL0     C15802   8.284   1.680   4.967  0.9248 -0.4704  0.5714
  840MOL0     C15803   8.344   1.818   4.934 -0.3782  0.0117  0.3723
  840MOL0     C15804   8.303   1.879   4.797  0.4089  0.5013 -0.0740
  840MOL0     C15805   8.338   2.032   4.776 -0.7704 -0.5636 -0.3777
  840MOL0     O15806   8.476   2.030   4.746 -0.1451 -0.0044  0.6710
  840MOL0     C15807   8.534   2.143   4.700  0.5073 -0.2595  0.4413
  840MOL0     C15808   8.472   2.271   4.689  0.1825  0.5640 -0.0193
  840MOL0     C15809   8.551   2.376   4.646 -0.3764  0.0169  0.5800
  840MOL0     C15810   8.473   2.507   4.640  0.6577 -0.3239 -0.7433
  840MOL0     C15811   8.688   2.355   4.611 -0.5667  0.2408  0.9176
  840MOL0     C15812   8.772   2.454   4.537  0.4734  0.3598  0.8127
  840MOL0     O15813   8.915   2.441   4.559  0.5193  0.4828  0.2492
  840MOL0     C15814   8.998   2.522   4.488  0.8463  0.9097 -0.0950
  840MOL0     C15815   9.058   2.478   4.368  0.2972  0.6178  0.8583
  840MOL0     C15816   9.156   2.561   4.306 -0.3415 -0.0523  0.7149
  840MOL0     C15817   9.205   2.678   4.367 -0.7294  0.2082  0.1016
  840MOL0     O15818   9.316   2.743   4.310  0.4677  0.0884 -0.3369
  840MOL0     C15819   9.445   2.729   4.388  0.6016  0.6680  0.1928
  840MOL0     C15820   9.485   2.869   4.438 -0.5694 -0.9553 -0.1906
  840MOL0     C15821   9.613   2.857   4.527  0.3457 -0.0388 -0.1152
  840MOL0     C15822   9.734   2.800   4.445  0.3309  0.8548 -0.8271
  840MOL0     C15823   9.855   2.822   4.534 -0.0202 -0.1719  0.5836
  840MOL0     C15824   9.978   2.809   4.443 -0.6332 -0.0066 -0.1037
  840MOL0     C15825  10.087   2.778   4.541 -0.0957 -0.4141 -0.0682
  840MOL0     C15826  10.218   2.730   4.470  0.3755  1.0256 -0.9200
  840MOL0    Cl15827  10.272   2.864   4.374  0.3816 -0.2449 -0.0794
  840MOL0     C15828   9.149   2.715   4.491 -0.2879 -0.2888  0.6047
  840MOL0     C15829   9.038   2.643   4.536 -0.4531  0.1662  0.2451
  840MOL0     O15830   8.718   2.531   4.461  0.0253  0.6995  0.3422
  840MOL0     C15831   8.735   2.224   4.633  0.4613  0.4866 -0.0052
  840MOL0     C15832   8.662   2.120   4.680  0.1959 -0.2573  0.2596
  840MOL0     N15833   8.128   1.726   5.169  0.1335 -0.8178 -0.0818
  840MOL0     N15834   8.125   1.709   5.297  0.4428  0.2378 -0.6953
  840MOL0     C15835   7.835   1.981   6.156 -0.6745 -0.4953 -0.1398
  840MOL0     C15836   7.752   2.045   6.250  1.0072 -0.2760 -0.2415
  840MOL0     C15837   7.594   2.391   6.533 -1.0994  0.3727  0.2813
  840MOL0     C15838   7.467   2.357   6.481 -0.3204 -0.1366 -0.3720
  840MOL0     C15839   7.358   2.422   6.534  0.4700 -1.2587  0.1809
  840MOL0     C15840   7.361   2.510   6.643 -0.6302 -0.3334  0.9929
  840MOL0     O15841   7.259   2.571   6.711  0.3438  0.7955 -0.4519
  840MOL0     C15842   7.133   2.534   6.667  0.1087  1.4009  1.2076
  840MOL0     C15843   7.020   2.573   6.756  0.2358 -0.9773 -0.8895
  840MOL0     C15844   6.998   2.468   6.868 -1.1365 -0.5094 -0.0367
  840MOL0     C15845   7.113   2.467   6.967  0.6481 -0.9761  0.1232
  840MOL0     C15846   7.149   2.602   7.027  0.3447  0.4282  0.2302
  840MOL0     C15847   7.176   2.705   7.083 -0.0267 -0.2973 -0.1687
  840MOL0     C15848   7.481   2.538   6.692 -0.1337  0.5157 -0.2880
  840MOL0     C15849   7.599   2.489   6.643  0.5190  0.4155 -0.8135
  840MOL0     C15850   7.724   2.537   6.710 -1.4993 -0.0749  0.3760
  840MOL0     H15851   7.937   2.333   6.313 -0.5563 -1.3824  1.7768
  840MOL0     H15852   8.088   2.189   6.168 -0.5701 -0.0999  1.8740
  840MOL0     H15853   8.103   1.794   6.140 -1.8058  1.3963 -1.8114
  840MOL0     H15854   8.129   1.936   6.245 -3.7928  0.0910  0.3792
  840MOL0     H15855   8.327   2.007   6.108  0.7989  0.0460  0.1805
  840MOL0     H15856   8.337   1.842   6.151  1.2340  0.2374  0.7150
  840MOL0     H15857   8.226   1.782   5.922  0.2153  0.2411 -0.3597
  840MOL0     H15858   8.254   1.960   5.875  3.2675  1.1091 -0.3720
  840MOL0     H15859   8.494   1.944   5.918  0.9679 -1.0799  1.7445
  840MOL0     H15860   8.473   1.761   5.916  0.4032 -0.6482 -0.2416
  840MOL0     H15861   8.563   1.834   5.710  0.2657  2.8012  2.1688
  840MOL0     H15862   8.425   1.939   5.674 -0.3999  1.1251  3.2343
  840MOL0     H15863   8.388   1.638   5.722  0.4298 -0.2289  0.2012
  840MOL0     H15864   8.267   1.759   5.677 -0.7679 -3.0078  0.9848
  840MOL0     H15865   8.492   1.660   5.498 -0.6988 -0.9716 -0.7286
  840MOL0     H15866   8.386   1.807   5.480  1.9776  1.2269  0.9085
  840MOL0     H15867   8.314   1.510   5.475  0.0264  0.0062  0.1160
  840MOL0     H15868   8.205   1.629   5.539 -0.3023 -0.8976  0.6847
  840MOL0     H15869   8.414   1.585   5.198 -0.5942 -1.2970  0.4585
  840MOL0     H15870   8.192   1.673   4.907 -0.3606  1.3754  2.1778
  840MOL0     H15871   8.366   1.610   4.949  5.0808  3.3965  2.5139
  840MOL0     H15872   8.329   1.898   5.008 -0.0294  1.0497 -0.6500
  840MOL0     H15873   8.453   1.812   4.936 -0.2738  0.5324  4.2203
  840MOL0     H15874   8.334   1.826   4.706 -0.3252 -0.5078  0.2397
  840MOL0     H15875   8.195   1.864   4.790  0.4881 -0.0309 -0.2716
  840MOL0     H15876   8.289   2.071   4.686  1.1707 -0.9709 -1.6525
  840MOL0     H15877   8.311   2.094   4.862  3.1990 -0.1661  0.7813
  840MOL0     H15878   8.373   2.285   4.732  0.1822 -0.6153  0.3938
  840MOL0     H15879   8.365   2.491   4.647 -0.0856  3.7932 -0.0804
  840MOL0     H15880   8.491   2.574   4.556 -0.2554  0.1778 -0.5611
  840MOL0     H15881   8.504   2.569   4.725  0.1949 -0.7948 -0.2160
  840MOL0     H15882   9.024   2.386   4.323 -0.1154  0.6093  1.1950
  840MOL0     H15883   9.207   2.538   4.213 -1.1562  1.6946 -0.2164
  840MOL0     H15884   9.455   2.658   4.470  2.0931 -2.9327 -2.7898
  840MOL0     H15885   9.518   2.693   4.315 -0.9915 -1.2722 -0.5515
  840MOL0     H15886   9.498   2.951   4.366  1.8101  2.5388  3.7366
  840MOL0     H15887   9.405   2.898   4.506  0.1940  0.7215  0.0321
  840MOL0     H15888   9.603   2.792   4.614  0.6975  0.8146  0.5859
  840MOL0     H15889   9.637   2.958   4.563  0.9719 -0.8481  1.8497
  840MOL0     H15890   9.741   2.858   4.352 -2.0657  0.6267 -1.2189
  840MOL0     H15891   9.728   2.700   4.402  1.5331  1.1481 -1.7019
  840MOL0     H15892   9.863   2.922   4.578 -1.0035  1.1154 -1.9461
  840MOL0     H15893   9.839   2.740   4.605  2.1267 -0.7774  0.4200
  840MOL0     H15894   9.990   2.899   4.383  1.0322 -0.1640 -0.0600
  840MOL0     H15895   9.979   2.723   4.375  2.1062 -0.0577 -0.1142
  840MOL0     H15896  10.057   2.693   4.602 -1.3148 -1.2580 -1.7436
  840MOL0     H15897  10.116   2.872   4.589  1.3727 -0.3547 -0.9826
  840MOL0     H15898  10.185   2.648   4.405 -0.7902  1.4043 -0.8393
  840MOL0     H15899  10.291   2.679   4.534  2.4835  1.3866 -2.9117
  840MOL0     H15900   9.187   2.806   4.538  1.8433 -1.3871  1.1499
  840MOL0     H15901   8.989   2.674   4.628 -1.2077 -1.9427  0.6137
  840MOL0     H15902   8.840   2.199   4.620  0.3165 -0.6044  0.8011
  840MOL0     H15903   8.702   2.020   4.693 -2.5082 -1.2509  1.9906
  840MOL0     H15904   7.810   1.888   6.106  0.7093 -1.9371  1.7143
  840MOL0     H15905   7.654   2.003   6.267  2.2559 -2.1924  3.3147
  840MOL0     H15906   7.446   2.287   6.401 -4.6277 -1.3080  1.5136
  840MOL0     H15907   7.261   2.392   6.495 -0.2819  1.5819 -0.3949
  840MOL0     H15908   7.118   2.563   6.563 -0.6668  0.5539  1.0717
  840MOL0     H15909   7.127   2.425   6.665  1.4077  1.3179  1.3153
  840MOL0     H15910   6.924   2.580   6.704 -0.7360 -0.9067  0.8580
  840MOL0     H15911   7.041   2.669   6.804  0.3544 -1.9172  1.0477
  840MOL0     H15912   6.910   2.480   6.932 -2.0089  2.0571 -1.5876
  840MOL0     H15913   6.994   2.368   6.824 -0.6828 -0.7325  0.4161
  840MOL0     H15914   7.204   2.440   6.912  0.2760 -2.0087 -0.0108
  840MOL0     H15915   7.089   2.402   7.051  3.5204 -2.6193 -0.1858
  840MOL0     H15916   7.185   2.789   7.149 -1.5679 -1.1467  1.1819
  840MOL0     H15917   7.480   2.609   6.774 -0.3671 -0.2160  0.3479
  840MOL0     H15918   7.785   2.455   6.750  0.0176 -0.0616 -1.7304
  840MOL0     H15919   7.776   2.587   6.628 -0.8016  1.6801  1.8370
  840MOL0     H15920   7.705   2.612   6.787 -2.8875  0.1377 -0.1597
  841MOL0     O15921  10.137   2.708  10.700 -0.3216 -0.6406 -0.0338
  841MOL0     C15922  10.100   2.719  10.815  0.0949  0.3913  0.4250
  841MOL0     O15923  10.172   2.693  10.927  0.2658 -0.8540  0.0823
  841MOL0     C15924  10.311   2.676  10.938  0.2037 -0.7314 -0.6555
  841MOL0     C15925  10.400   2.734  10.849  0.4747  0.2884  0.0229
  841MOL0     C15926  10.540   2.698  10.866  0.3499  0.0519 -0.0482
  841MOL0     C15927  10.584   2.626  10.974  0.8290  0.5290  1.0055
  841MOL0     O15928  10.714   2.602  10.989 -0.3899  0.1189  0.2261
  841MOL0     C15929  10.761   2.548  11.119 -0.9856  0.5337  0.0466
  841MOL0     C15930  10.742   2.638  11.239  0.2942  0.0260  0.4688
  841MOL0     C15931  10.812   2.597  11.369 -0.8618  0.3276 -0.7942
  841MOL0     C15932  10.833   2.713  11.476 -0.2605 -0.7728 -0.6893
  841MOL0     C15933  10.883   2.653  11.613  0.0383  0.7870 -0.8461
  841MOL0     C15934  10.849   2.749  11.727  0.6658  0.5173 -0.0991
  841MOL0     C15935  10.900   2.713  11.863  1.0323 -0.7324 -0.2806
  841MOL0     C15936  11.050   2.712  11.882 -0.2903 -0.4768  0.1385
  841MOL0     N15937  11.090   2.609  11.977 -0.9343 -0.8195  0.8708
  841MOL0     C15938  11.131   2.482  11.937 -0.7399  0.0907 -0.2960
  841MOL0     C15939  11.169   2.416  12.047  0.4214 -0.9575  0.3889
  841MOL0     C15940  11.219   2.268  12.048  0.6622  0.3519 -0.8445
  841MOL0     C15941  11.346   2.242  12.133  0.2407 -0.0254  0.3411
  841MOL0     C15942  11.398   2.088  12.117 -0.1897 -0.6810  1.3103
  841MOL0     C15943  11.300   1.980  12.173  0.1050 -0.9549  0.5643
  841MOL0     O15944  11.327   1.847  12.131 -0.2898 -0.4492  0.6425
  841MOL0     C15945  11.423   1.772  12.190 -0.7585 -0.8656 -0.8518
  841MOL0     C15946  11.429   1.719  12.313  0.3073  0.3294  0.0960
  841MOL0     C15947  11.543   1.661  12.375  0.6613 -0.5376  0.2654
  841MOL0     C15948  11.526   1.602  12.519  0.8135  0.6134  1.2111
  841MOL0     C15949  11.662   1.647  12.296 -0.9250 -0.3142 -0.5071
  841MOL0     C15950  11.782   1.580  12.357 -0.6187  0.0221  0.6592
  841MOL0     O15951  11.753   1.464  12.427 -0.1550 -0.2159 -0.5014
  841MOL0     C15952  11.856   1.394  12.477 -0.5120  0.2351  0.2393
  841MOL0     C15953  11.940   1.450  12.574  0.2302 -0.5524 -0.2396
  841MOL0     C15954  12.036   1.363  12.627 -0.4416  0.5236  0.0049
  841MOL0     C15955  12.052   1.232  12.583 -0.4311  0.2401  0.4211
  841MOL0     O15956  12.155   1.166  12.643 -0.5800  0.2036  0.1141
  841MOL0     C15957  12.217   1.057  12.569  0.2790 -0.9101 -0.2667
  841MOL0     C15958  12.369   1.045  12.603  0.5190  0.2610  0.1038
  841MOL0     C15959  12.430   0.928  12.525  0.3506  0.2989 -0.6662
  841MOL0     C15960  12.391   0.787  12.578 -0.3546  0.7612 -0.3419
  841MOL0     C15961  12.491   0.677  12.545  0.7083 -0.2246  0.0541
  841MOL0     C15962  12.502   0.647  12.399  0.1211 -0.0693  0.4586
  841MOL0     C15963  12.603   0.548  12.355 -0.5325  0.0126  0.5184
  841MOL0     C15964  12.744   0.612  12.350  0.1565  0.0664 -0.1086
  841MOL0    Cl15965  12.754   0.749  12.234  0.7633 -0.4396 -0.2154
  841MOL0     C15966  11.974   1.179  12.480  0.6119 -0.0369 -0.2141
  841MOL0     C15967  11.875   1.265  12.427 -0.4246  1.2754 -0.4461
  841MOL0     O15968  11.894   1.638  12.336 -0.1337  0.2833 -0.0476
  841MOL0     C15969  11.662   1.712  12.171  0.3981  0.0770  0.0351
  841MOL0     C15970  11.548   1.773  12.123 -0.1049 -0.2101  0.1082
  841MOL0     N15971  11.162   2.501  12.155  0.3307 -0.7810 -0.6066
  841MOL0     N15972  11.120   2.621  12.109  0.2095  0.1903 -0.1509
  841MOL0     C15973  10.486   2.562  11.058  0.4288 -0.6201  0.0672
  841MOL0     C15974  10.353   2.581  11.029  0.1540  0.1896  0.0460
  841MOL0     C15975   9.967   2.781  10.843 -0.2198 -0.3187  0.4730
  841MOL0     C15976   9.871   2.757  10.735  0.1193 -0.4644  0.0816
  841MOL0     C15977   9.734   2.785  10.747 -0.3476 -0.7619  0.2625
  841MOL0     C15978   9.689   2.842  10.860 -0.0444 -0.0713 -0.3854
  841MOL0     O15979   9.556   2.875  10.862  0.1961  0.5763 -0.4746
  841MOL0     C15980   9.461   2.826  10.765 -0.0100  0.4995 -0.3711
  841MOL0     C15981   9.414   2.678  10.796 -0.0311 -0.5266  0.7954
  841MOL0     C15982   9.377   2.663  10.939  0.0611  0.2533  0.0882
  841MOL0     C15983   9.275   2.549  10.966 -1.5411  0.1439  0.6130
  841MOL0     C15984   9.240   2.531  11.110  0.1542  0.0758  0.2775
  841MOL0     C15985   9.202   2.510  11.225  0.9851 -0.5160  0.0364
  841MOL0     C15986   9.786   2.883  10.959 -1.0104 -0.1907  0.0857
  841MOL0     C15987   9.928   2.855  10.956  0.1892  0.3063  0.5386
  841MOL0     C15988  10.021   2.882  11.075  0.1000  0.7805  0.2483
  841MOL0     H15989  10.365   2.805  10.775 -1.1673 -1.5224 -1.0317
  841MOL0     H15990  10.603   2.726  10.783  1.1887 -2.3533 -0.3049
  841MOL0     H15991  10.868   2.530  11.108 -1.1365  0.1755 -0.8870
  841MOL0     H15992  10.723   2.447  11.140 -2.1400  1.0165  0.3213
  841MOL0     H15993  10.787   2.736  11.222 -2.1359  1.6762  2.8001
  841MOL0     H15994  10.639   2.668  11.261  0.9664  4.3055 -1.3139
  841MOL0     H15995  10.748   2.524  11.418  0.1489  0.1319  0.2880
  841MOL0     H15996  10.908   2.549  11.349 -1.5672 -0.2200 -3.1946
  841MOL0     H15997  10.910   2.786  11.450  0.8427 -1.3126  0.8719
  841MOL0     H15998  10.744   2.768  11.506  2.3670  2.1211  2.7720
  841MOL0     H15999  10.992   2.641  11.602  0.3410  2.3999  0.0930
  841MOL0     H16000  10.835   2.557  11.633 -2.2543  2.2872  1.5705
  841MOL0     H16001  10.883   2.847  11.694 -0.1495  1.7178  2.3776
  841MOL0     H16002  10.740   2.756  11.733  0.5476 -0.6425 -0.5965
  841MOL0     H16003  10.859   2.613  11.882  2.8176 -1.4410  0.0350
  841MOL0     H16004  10.859   2.785  11.935 -0.7682 -1.1620 -0.8058
  841MOL0     H16005  11.102   2.700  11.786 -0.8612  1.3742 -0.4299
  841MOL0     H16006  11.089   2.807  11.916  4.0012 -1.0883 -2.3451
  841MOL0     H16007  11.137   2.437  11.839 -1.0681 -0.3826 -0.0985
  841MOL0     H16008  11.231   2.218  11.952  0.6477 -0.4792 -0.4282
  841MOL0     H16009  11.134   2.228  12.104  0.4311  2.1269  0.1581
  841MOL0     H16010  11.421   2.307  12.087 -0.1838 -0.1876 -0.6014
  841MOL0     H16011  11.344   2.269  12.239  1.3742  1.5680 -0.0134
  841MOL0     H16012  11.397   2.061  12.011 -1.8168 -3.0252  1.8524
  841MOL0     H16013  11.498   2.076  12.160  0.6529  1.2702  0.0971
  841MOL0     H16014  11.300   1.994  12.281 -1.6506 -1.5269  0.6700
  841MOL0     H16015  11.197   2.001  12.144 -0.3717 -1.2759  1.9598
  841MOL0     H16016  11.344   1.735  12.377  1.0117  0.7416  0.9421
  841MOL0     H16017  11.443   1.651  12.570  1.3298  0.1599  2.5335
  841MOL0     H16018  11.613   1.635  12.577  1.2634  2.2639 -0.2851
  841MOL0     H16019  11.499   1.496  12.512 -4.0260  1.7412 -2.4969
  841MOL0     H16020  11.930   1.556  12.595 -1.5697 -0.5457 -0.9871
  841MOL0     H16021  12.099   1.407  12.704 -1.5109  1.3667  0.4318
  841MOL0     H16022  12.171   0.964  12.604  2.4273 -2.1254 -0.4262
  841MOL0     H16023  12.193   1.078  12.465 -3.7397  1.6135  0.9594
  841MOL0     H16024  12.423   1.135  12.573  0.0094  1.0687  1.5109
  841MOL0     H16025  12.383   1.026  12.710  1.3489 -2.2401 -0.3633
  841MOL0     H16026  12.539   0.929  12.537  0.2770 -1.6331  0.5247
  841MOL0     H16027  12.410   0.939  12.418 -2.8633 -0.3125 -0.2300
  841MOL0     H16028  12.302   0.747  12.529  0.9619 -0.7124 -1.6771
  841MOL0     H16029  12.378   0.782  12.686  0.6648 -0.4723 -0.2492
  841MOL0     H16030  12.592   0.706  12.574  1.3042  0.0819 -2.1090
  841MOL0     H16031  12.458   0.585  12.594  2.5266 -1.3255 -0.6774
  841MOL0     H16032  12.522   0.745  12.356  2.5040 -0.6817  0.0169
  841MOL0     H16033  12.410   0.609  12.354 -0.0272  1.0376 -0.1853
  841MOL0     H16034  12.576   0.512  12.255  2.3999  1.2078 -0.8383
  841MOL0     H16035  12.620   0.466  12.425  1.4526  1.3068  1.6652
  841MOL0     H16036  12.816   0.532  12.329 -2.4837 -2.5207 -0.0605
  841MOL0     H16037  12.759   0.654  12.449  0.5664  4.0004 -1.6733
  841MOL0     H16038  11.967   1.074  12.456  0.6292  0.0449 -0.5733
  841MOL0     H16039  11.810   1.235  12.346  0.8111  0.8329 -1.3050
  841MOL0     H16040  11.747   1.707  12.103 -0.8562  1.7229 -1.7466
  841MOL0     H16041  11.549   1.805  12.019  0.2112  1.0022  0.4719
  841MOL0     H16042  10.509   2.495  11.140 -2.9125 -2.1477 -0.0948
  841MOL0     H16043  10.280   2.532  11.093  1.6155 -1.0571  0.8202
  841MOL0     H16044   9.907   2.696  10.653  1.1654  1.4126 -0.9180
  841MOL0     H16045   9.680   2.752  10.659 -0.4707  0.6777 -0.2273
  841MOL0     H16046   9.376   2.895  10.774  0.2790  0.6342  2.2409
  841MOL0     H16047   9.491   2.834  10.660 -0.4478 -0.6987 -0.6024
  841MOL0     H16048   9.495   2.609  10.771 -0.3032 -0.1671 -1.2749
  841MOL0     H16049   9.324   2.654  10.738  0.4096  1.1846 -0.7029
  841MOL0     H16050   9.464   2.659  11.004 -1.6004  2.0799  2.6311
  841MOL0     H16051   9.312   2.746  10.970  1.1176  1.2139 -0.2113
  841MOL0     H16052   9.302   2.457  10.913 -1.2368 -0.5056  1.8636
  841MOL0     H16053   9.184   2.580  10.913 -0.8570 -0.0184 -0.7142
  841MOL0     H16054   9.157   2.474  11.316  3.3685  0.3727  1.6554
  841MOL0     H16055   9.739   2.943  11.037 -2.0240 -1.7337  0.7109
  841MOL0     H16056  10.120   2.917  11.045  0.3017 -0.2323 -0.3120
  841MOL0     H16057   9.967   2.959  11.130 -0.7775  1.7039 -1.7939
  841MOL0     H16058  10.038   2.790  11.131  0.9249  0.1320 -1.0240
  842MOL0     O16059   9.962   5.421   8.674 -0.9076  0.7561 -0.4113
  842MOL0     C16060   9.871   5.413   8.758 -0.1012  0.5267 -0.0808
  842MOL0     O16061   9.744   5.376   8.736  0.4176 -0.0163  0.3299
  842MOL0     C16062   9.717   5.358   8.603 -1.0508  0.2905  0.0250
  842MOL0     C16063   9.728   5.226   8.559 -0.3789  0.1886 -0.1487
  842MOL0     C16064   9.691   5.195   8.426 -0.6290  0.4896 -0.1016
  842MOL0     C16065   9.651   5.304   8.336 -0.6133  0.8073  0.3629
  842MOL0     O16066   9.635   5.269   8.206 -0.2499 -0.2123  0.3710
  842MOL0     C16067   9.564   5.368   8.131  1.4561  0.1721  0.5264
  842MOL0     C16068   9.487   5.296   8.019 -0.1092  1.1972  0.6023
  842MOL0     C16069   9.343   5.248   8.063  0.6053  0.9387  0.2292
  842MOL0     C16070   9.308   5.125   7.970 -0.0240  0.2846  0.5436
  842MOL0     C16071   9.310   5.156   7.814 -0.2386  0.6170 -0.5805
  842MOL0     C16072   9.262   5.046   7.731  0.6613  0.7759 -0.0967
  842MOL0     C16073   9.199   5.089   7.594 -0.0352  0.5529  0.8976
  842MOL0     C16074   9.050   5.072   7.585  0.7399  0.1555  0.3874
  842MOL0     N16075   8.982   5.164   7.679  0.3732  0.3716 -0.6002
  842MOL0     C16076   8.991   5.302   7.679  0.4851  0.1470 -0.6519
  842MOL0     C16077   8.891   5.348   7.759 -1.0066  1.0510 -0.6023
  842MOL0     C16078   8.850   5.486   7.792 -0.9822 -0.3231 -0.2898
  842MOL0     C16079   8.773   5.555   7.683  0.0890  0.5052  0.9890
  842MOL0     C16080   8.864   5.609   7.572 -1.3144  0.5571  0.1187
  842MOL0     C16081   8.784   5.710   7.494 -0.0938  0.2553 -0.6675
  842MOL0     O16082   8.838   5.721   7.360  0.1080 -0.0307  0.1615
  842MOL0     C16083   8.931   5.817   7.337  0.3802  0.4130 -0.5598
  842MOL0     C16084   8.972   5.820   7.211 -0.3660  0.2140 -0.0447
  842MOL0     C16085   9.068   5.914   7.173  0.3708 -0.0063  0.7468
  842MOL0     C16086   9.115   5.897   7.026 -0.0976  0.1953 -0.2483
  842MOL0     C16087   9.113   6.010   7.264  0.2254 -0.4754 -0.7535
  842MOL0     C16088   9.199   6.131   7.231  0.0135  0.0491  0.3932
  842MOL0     O16089   9.248   6.204   7.339 -0.0154  0.1238  0.4645
  842MOL0     C16090   9.279   6.337   7.326  0.0800  0.1800  0.6655
  842MOL0     C16091   9.227   6.434   7.237 -0.1509  0.3026  0.0858
  842MOL0     C16092   9.257   6.570   7.251 -0.3789 -0.9896 -0.5714
  842MOL0     C16093   9.359   6.608   7.323 -0.1098 -0.3431 -0.0580
  842MOL0     O16094   9.376   6.747   7.313  0.2437  0.8723 -0.3181
  842MOL0     C16095   9.503   6.796   7.357 -0.5032 -0.7308 -0.5258
  842MOL0     C16096   9.538   6.905   7.256 -0.3415  0.5552  0.5365
  842MOL0     C16097   9.660   6.989   7.302 -0.8369 -0.0720  0.1498
  842MOL0     C16098   9.793   6.915   7.287  0.4700 -1.0541  0.5811
  842MOL0     C16099   9.912   7.013   7.299  0.1360 -0.4503 -0.2787
  842MOL0     C16100   9.966   7.048   7.433 -0.4999 -0.3504 -0.1761
  842MOL0     C16101  10.096   7.134   7.411 -0.2514  0.3214  0.9757
  842MOL0     C16102  10.167   7.185   7.534 -0.0011  0.0434  0.4067
  842MOL0    Cl16103  10.045   7.312   7.592 -0.3024  0.0881 -0.0685
  842MOL0     C16104   9.424   6.509   7.404 -0.3886  0.6369 -0.1356
  842MOL0     C16105   9.378   6.378   7.411 -0.4609 -0.1165 -0.1397
  842MOL0     O16106   9.225   6.164   7.118 -0.1228  0.5190 -0.1863
  842MOL0     C16107   9.076   6.000   7.401  0.4373 -0.0554  0.1598
  842MOL0     C16108   8.984   5.902   7.438 -0.2240 -0.8290 -0.3215
  842MOL0     N16109   8.832   5.234   7.815  0.6855  0.4098 -0.5511
  842MOL0     N16110   8.881   5.125   7.769 -0.4395  0.3374  0.4624
  842MOL0     C16111   9.639   5.435   8.387  0.9438  0.2126 -0.6422
  842MOL0     C16112   9.665   5.455   8.522  0.5594 -0.3671 -0.7040
  842MOL0     C16113   9.906   5.461   8.884 -0.5185  0.2025  0.2390
  842MOL0     C16114  10.047   5.441   8.915 -0.2553  0.6961  0.4105
  842MOL0     C16115  10.091   5.470   9.045  0.4041  0.4415  0.3704
  842MOL0     C16116  10.005   5.522   9.145  0.6945  0.0955  0.2418
  842MOL0     O16117  10.056   5.548   9.267 -0.9542 -0.4482 -0.4839
  842MOL0     C16118   9.970   5.559   9.386 -0.6166 -1.0176 -0.1697
  842MOL0     C16119   9.895   5.427   9.418  1.4124  0.4449 -0.0934
  842MOL0     C16120   9.984   5.299   9.440 -0.1876  0.4838  0.0606
  842MOL0     C16121   9.924   5.163   9.411 -0.8336  0.2594 -0.4217
  842MOL0     C16122   9.802   5.134   9.479  0.6751 -0.4355 -0.5873
  842MOL0     C16123   9.718   5.095   9.557 -0.3133 -0.0664 -0.4610
  842MOL0     C16124   9.866   5.542   9.109 -0.4044 -0.2735  0.2215
  842MOL0     C16125   9.818   5.516   8.981 -0.2315 -0.4833 -0.1979
  842MOL0     C16126   9.670   5.543   8.957  0.5973  0.2646 -1.0073
  842MOL0     H16127   9.747   5.148   8.633 -1.8120  2.7118  3.1716
  842MOL0     H16128   9.698   5.093   8.389 -1.4079  0.3614  0.0844
  842MOL0     H16129   9.621   5.447   8.081 -1.4913  0.9659 -1.8968
  842MOL0     H16130   9.480   5.422   8.176 -0.1179 -1.0360 -0.8205
  842MOL0     H16131   9.462   5.350   7.926 -1.4732 -0.9944 -0.3859
  842MOL0     H16132   9.540   5.206   7.989 -0.9215  0.4456  1.3701
  842MOL0     H16133   9.333   5.218   8.167 -0.3050  1.1574  0.2118
  842MOL0     H16134   9.276   5.334   8.067  1.6683  1.8974 -1.5759
  842MOL0     H16135   9.364   5.032   7.980 -3.0431 -1.5571  1.5761
  842MOL0     H16136   9.215   5.079   8.005  2.2357 -3.5246  2.1293
  842MOL0     H16137   9.413   5.175   7.783  0.7022 -1.2639  1.1644
  842MOL0     H16138   9.262   5.249   7.782 -0.3419  1.4617  1.8530
  842MOL0     H16139   9.345   4.976   7.716  0.5823  1.0428 -1.9431
  842MOL0     H16140   9.184   4.995   7.788  0.8071 -0.9272 -1.3456
  842MOL0     H16141   9.239   5.011   7.528  3.0893 -0.1857  3.4127
  842MOL0     H16142   9.227   5.188   7.558 -0.3994  0.1750 -0.5070
  842MOL0     H16143   9.019   5.094   7.482  2.4086  1.4420  0.1298
  842MOL0     H16144   9.014   4.970   7.600 -0.5128  0.3580 -0.9897
  842MOL0     H16145   9.041   5.352   7.597  0.9472 -2.3564 -1.9958
  842MOL0     H16146   8.942   5.540   7.818  0.1851 -3.0395  1.8282
  842MOL0     H16147   8.795   5.479   7.886  0.8294 -0.8231  0.7938
  842MOL0     H16148   8.703   5.489   7.632  0.7182 -1.2551  2.2970
  842MOL0     H16149   8.735   5.647   7.730  0.2591  0.6422  0.8597
  842MOL0     H16150   8.957   5.652   7.609 -0.2206 -2.6854  1.5673
  842MOL0     H16151   8.899   5.532   7.502  0.7466  1.9816 -0.4947
  842MOL0     H16152   8.682   5.670   7.489 -0.6678  1.3867  1.1273
  842MOL0     H16153   8.762   5.801   7.550 -2.5030 -0.9952  0.5862
  842MOL0     H16154   8.937   5.740   7.148  0.5661 -0.0072 -0.2979
  842MOL0     H16155   9.224   5.891   7.016  0.0058 -0.3665  1.0440
  842MOL0     H16156   9.082   5.982   6.966 -0.0819 -0.1742 -0.7967
  842MOL0     H16157   9.067   5.807   6.986  1.5827 -1.1944  0.7302
  842MOL0     H16158   9.145   6.398   7.176  0.5837 -0.9268 -0.2130
  842MOL0     H16159   9.203   6.642   7.191 -2.0385 -2.5618 -1.0648
  842MOL0     H16160   9.475   6.831   7.457 -1.1891 -1.8719 -0.2984
  842MOL0     H16161   9.591   6.732   7.351  0.1061  0.2067 -2.1347
  842MOL0     H16162   9.551   6.857   7.159 -0.3239  1.9825 -0.1876
  842MOL0     H16163   9.456   6.977   7.254 -1.3564 -0.5649 -1.9720
  842MOL0     H16164   9.638   7.014   7.406  1.2179  1.6092  0.2459
  842MOL0     H16165   9.675   7.081   7.245  2.8872  0.1751  1.2420
  842MOL0     H16166   9.802   6.862   7.191 -2.9022  0.5700 -0.7903
  842MOL0     H16167   9.797   6.837   7.364 -1.0633 -0.6351  1.1196
  842MOL0     H16168   9.993   6.964   7.244 -0.9957 -1.8010 -0.8174
  842MOL0     H16169   9.879   7.104   7.249 -0.7205 -1.0632 -0.8495
  842MOL0     H16170   9.981   6.958   7.493 -1.2458  1.3856  2.8059
  842MOL0     H16171   9.882   7.095   7.485 -0.3459  0.1762 -0.3929
  842MOL0     H16172  10.064   7.224   7.358 -3.9835 -1.4032 -0.0046
  842MOL0     H16173  10.171   7.071   7.361 -0.4491 -0.2443  1.3853
  842MOL0     H16174  10.261   7.239   7.524  0.1183 -0.4384 -1.6590
  842MOL0     H16175  10.172   7.092   7.592  0.3682  0.8964  1.7751
  842MOL0     H16176   9.511   6.531   7.465  2.9774  1.1203 -4.6239
  842MOL0     H16177   9.424   6.302   7.474  1.4668 -0.6093 -2.0306
  842MOL0     H16178   9.108   6.077   7.470  0.2793  2.4145 -2.3695
  842MOL0     H16179   8.952   5.889   7.540 -2.0855 -1.3085 -0.9267
  842MOL0     H16180   9.600   5.525   8.341 -1.5008  1.1376  2.8561
  842MOL0     H16181   9.642   5.553   8.562  1.0174 -0.3964 -0.3591
  842MOL0     H16182  10.118   5.389   8.852 -3.2821 -1.2646 -1.6310
  842MOL0     H16183  10.196   5.445   9.058  0.9228  0.8689 -2.3405
  842MOL0     H16184  10.029   5.592   9.472  1.1883 -3.2480 -0.4848
  842MOL0     H16185   9.892   5.635   9.372 -0.7430 -1.3500 -1.3093
  842MOL0     H16186   9.842   5.400   9.326 -0.7007  0.9911  0.8973
  842MOL0     H16187   9.833   5.443   9.506  1.1759 -0.0932 -0.1556
  842MOL0     H16188  10.071   5.319   9.376 -1.2561  2.9733 -0.7177
  842MOL0     H16189  10.019   5.286   9.543  0.9478 -6.2349 -0.6691
  842MOL0     H16190   9.999   5.087   9.436  0.6095  0.6219 -3.2226
  842MOL0     H16191   9.897   5.149   9.306 -1.8968  0.1773 -0.1489
  842MOL0     H16192   9.646   5.080   9.634 -0.3714 -1.4699 -0.7637
  842MOL0     H16193   9.799   5.572   9.189  0.0691 -1.4839  1.1083
  842MOL0     H16194   9.619   5.446   8.958  1.3101 -0.1329  0.8561
  842MOL0     H16195   9.631   5.611   9.033  1.2248  2.5130 -2.5741
  842MOL0     H16196   9.646   5.592   8.862  1.9018 -0.2340 -1.6148
  843MOL0     O16197   7.589   4.612   9.998  0.0600 -0.3560  0.1703
  843MOL0     C16198   7.543   4.659  10.100 -0.2966 -0.7776 -0.5617
  843MOL0     O16199   7.407   4.653  10.140 -0.3081 -0.1874  0.5434
  843MOL0     C16200   7.320   4.630  10.037  0.6321  0.4966 -0.7388
  843MOL0     C16201   7.281   4.496  10.006 -0.4564  1.0879 -0.7000
  843MOL0     C16202   7.170   4.477   9.916 -1.0840 -0.3761 -0.3524
  843MOL0     C16203   7.104   4.583   9.859  0.8319 -0.7792  0.6000
  843MOL0     O16204   6.987   4.559   9.789 -0.3543 -0.9128  0.0406
  843MOL0     C16205   6.884   4.649   9.804 -0.4531  0.2685  0.4718
  843MOL0     C16206   6.777   4.593   9.724 -0.0659  1.0889 -0.3271
  843MOL0     C16207   6.650   4.690   9.715 -0.3894 -0.1924 -0.1696
  843MOL0     C16208   6.606   4.745   9.844  0.8705  0.7977  0.3254
  843MOL0     C16209   6.484   4.828   9.831  1.1086  0.8255  0.0275
  843MOL0     C16210   6.347   4.762   9.836  0.0033  0.0272  0.1346
  843MOL0     C16211   6.234   4.839   9.898 -0.1098 -0.2518 -0.1889
  843MOL0     C16212   6.192   4.976   9.834 -0.6481  0.1193 -0.1926
  843MOL0     N16213   6.152   4.967   9.694  0.7127  0.7667 -0.7707
  843MOL0     C16214   6.019   4.935   9.667  0.0946  0.1690  0.0166
  843MOL0     C16215   6.012   4.958   9.533  0.1146 -1.0494 -0.0491
  843MOL0     C16216   5.897   4.906   9.461  0.7815  0.0313  0.1382
  843MOL0     C16217   5.902   4.754   9.460 -0.1359  0.7382 -0.2525
  843MOL0     C16218   5.999   4.686   9.359 -0.3303  0.1795  0.3013
  843MOL0     C16219   6.149   4.686   9.401  0.2721 -0.6671  0.0230
  843MOL0     O16220   6.207   4.586   9.315  0.5421 -0.3481  0.9399
  843MOL0     C16221   6.348   4.585   9.310  0.8487  0.0776 -0.1241
  843MOL0     C16222   6.402   4.520   9.195 -0.5246 -0.5497  0.5574
  843MOL0     C16223   6.541   4.523   9.171 -0.0750  0.0242  0.1554
  843MOL0     C16224   6.585   4.463   9.043 -0.0502 -0.4434  0.6592
  843MOL0     C16225   6.635   4.599   9.250  0.1566 -0.2278  0.6386
  843MOL0     C16226   6.777   4.605   9.233 -0.5481 -0.0300  1.4249
  843MOL0     O16227   6.832   4.730   9.255 -0.2906  0.0961 -0.4116
  843MOL0     C16228   6.966   4.764   9.252  0.4819 -0.5204 -0.3708
  843MOL0     C16229   7.052   4.727   9.152 -0.0633  0.7305 -0.2945
  843MOL0     C16230   7.184   4.783   9.154 -0.3795 -1.2467 -0.4301
  843MOL0     C16231   7.224   4.882   9.250  0.2827  0.2657  0.6140
  843MOL0     O16232   7.356   4.913   9.260 -0.2638  0.1964  0.2487
  843MOL0     C16233   7.405   4.967   9.389  1.0843 -0.0875  0.1929
  843MOL0     C16234   7.548   5.010   9.372 -0.1058  0.2904  0.2337
  843MOL0     C16235   7.635   4.889   9.325 -0.2902  0.0215  0.0316
  843MOL0     C16236   7.789   4.920   9.309 -0.8207 -0.1567  0.1021
  843MOL0     C16237   7.863   5.000   9.415 -0.1939 -0.6328  0.4633
  843MOL0     C16238   8.008   5.048   9.371  0.8112  0.1804 -0.3908
  843MOL0     C16239   8.096   5.035   9.498  0.8703 -0.2232  0.2537
  843MOL0     C16240   8.244   5.059   9.474  0.2180  0.3408  0.2854
  843MOL0    Cl16241   8.263   5.228   9.404 -0.0429 -0.1928  0.3786
  843MOL0     C16242   7.127   4.915   9.346  0.4340  1.4366  0.1114
  843MOL0     C16243   6.998   4.863   9.348 -0.0186  0.2914 -0.1703
  843MOL0     O16244   6.842   4.500   9.202 -0.0663 -0.3451 -0.1662
  843MOL0     C16245   6.578   4.663   9.363  0.1309  0.5152  0.9187
  843MOL0     C16246   6.437   4.655   9.393 -0.2372 -0.2228  0.2561
  843MOL0     N16247   6.132   5.013   9.489  0.4424  0.2885  0.2416
  843MOL0     N16248   6.210   5.021   9.585  0.0982 -0.1591  0.0297
  843MOL0     C16249   7.160   4.712   9.875  0.3362  0.0875  0.9036
  843MOL0     C16250   7.266   4.731   9.957  1.7416  0.1851  0.4040
  843MOL0     C16251   7.628   4.725  10.196  0.6240  0.8061 -0.1803
  843MOL0     C16252   7.576   4.797  10.311  0.3205 -0.3218 -0.7514
  843MOL0     C16253   7.654   4.867  10.406  0.5607 -0.3637  1.1184
  843MOL0     C16254   7.790   4.855  10.393 -1.5503 -0.7758 -0.3642
  843MOL0     O16255   7.865   4.937  10.478  0.0361 -0.3252 -0.2296
  843MOL0     C16256   7.815   5.067  10.515  0.4519  0.3387 -0.0426
  843MOL0     C16257   7.927   5.129  10.591  0.9741  0.0864  0.1512
  843MOL0     C16258   7.890   5.272  10.623  0.8046 -0.1494  0.5471
  843MOL0     C16259   7.912   5.375  10.504  0.2808 -0.6549 -0.6601
  843MOL0     C16260   8.059   5.393  10.483 -0.6832  0.5901  0.5322
  843MOL0     C16261   8.178   5.390  10.463 -0.0431 -0.0297  1.0608
  843MOL0     C16262   7.849   4.773  10.303  0.2830  0.7504  0.1179
  843MOL0     C16263   7.765   4.700  10.205 -0.0170  0.2025 -0.8746
  843MOL0     C16264   7.840   4.603  10.108 -0.1321  0.0331  0.4483
  843MOL0     H16265   7.328   4.410  10.052 -0.4174  0.9351 -1.0221
  843MOL0     H16266   7.137   4.375   9.900 -0.2742 -0.1696 -4.2802
  843MOL0     H16267   6.912   4.748   9.766  0.9208 -0.8475 -1.6693
  843MOL0     H16268   6.852   4.658   9.908  0.7605  0.1691  0.8701
  843MOL0     H16269   6.800   4.568   9.619 -1.8039  0.0363 -0.4980
  843MOL0     H16270   6.747   4.495   9.762 -0.7728  0.8999 -1.3320
  843MOL0     H16271   6.693   4.777   9.664  1.0311 -0.4822  0.4874
  843MOL0     H16272   6.567   4.660   9.651 -0.7707  2.0621 -0.8195
  843MOL0     H16273   6.592   4.669   9.921 -0.3484  0.8879  0.2124
  843MOL0     H16274   6.686   4.812   9.876  0.2637  1.8330 -0.2718
  843MOL0     H16275   6.500   4.901   9.751  3.3139  3.1999  2.4207
  843MOL0     H16276   6.481   4.882   9.927  3.3322 -0.2358  0.7738
  843MOL0     H16277   6.324   4.733   9.733  3.3840  0.7009 -0.9567
  843MOL0     H16278   6.355   4.664   9.884 -1.6085  0.9469  2.4915
  843MOL0     H16279   6.264   4.868   9.999 -1.1490  2.2752 -0.5263
  843MOL0     H16280   6.146   4.776   9.906  0.3728 -0.7857  1.3492
  843MOL0     H16281   6.108   5.014   9.894 -3.9123 -3.8136 -1.8252
  843MOL0     H16282   6.279   5.042   9.837  0.5726 -1.3899 -1.3381
  843MOL0     H16283   5.937   4.890   9.723 -0.7296 -1.1047 -2.1099
  843MOL0     H16284   5.894   4.949   9.361 -0.3310  1.9082  0.9103
  843MOL0     H16285   5.803   4.933   9.511 -0.0520 -0.1666 -1.2729
  843MOL0     H16286   5.921   4.719   9.562  4.3519  0.9506 -0.8148
  843MOL0     H16287   5.805   4.715   9.430  1.3423 -1.8368 -2.1394
  843MOL0     H16288   5.958   4.585   9.346 -3.7862  1.4163  0.6111
  843MOL0     H16289   5.987   4.746   9.268  2.5082 -1.1220 -1.0729
  843MOL0     H16290   6.192   4.781   9.368  0.5344 -1.4474 -2.0339
  843MOL0     H16291   6.162   4.672   9.509  3.0366  3.4476  0.4435
  843MOL0     H16292   6.326   4.481   9.128 -1.7415  0.7836  1.1018
  843MOL0     H16293   6.644   4.525   8.974  1.2798 -0.2196  1.9385
  843MOL0     H16294   6.499   4.435   8.983  1.5462 -0.0662 -1.9474
  843MOL0     H16295   6.642   4.373   9.065 -0.5420 -0.7322  0.7619
  843MOL0     H16296   7.015   4.646   9.089 -1.9864  1.6814 -0.4667
  843MOL0     H16297   7.260   4.749   9.084 -0.0514  1.8568 -1.7140
  843MOL0     H16298   7.354   5.061   9.412  3.1491  1.0639  0.2767
  843MOL0     H16299   7.392   4.904   9.478 -1.6659  2.8431  2.1188
  843MOL0     H16300   7.552   5.084   9.291  0.8197 -2.4979 -2.4662
  843MOL0     H16301   7.577   5.055   9.467 -0.5498  2.2119 -0.5011
  843MOL0     H16302   7.597   4.856   9.228 -0.7899 -2.9370  1.1326
  843MOL0     H16303   7.635   4.808   9.398  2.5774  1.4866  1.8679
  843MOL0     H16304   7.786   4.970   9.211 -0.0256 -1.6235 -0.7115
  843MOL0     H16305   7.844   4.827   9.295 -1.6908 -0.3718 -2.3774
  843MOL0     H16306   7.809   5.092   9.441 -0.4479 -1.1338  1.8109
  843MOL0     H16307   7.865   4.943   9.508  1.0155 -0.5278  0.5119
  843MOL0     H16308   8.006   5.149   9.328 -1.9190  0.3375 -0.1215
  843MOL0     H16309   8.046   4.980   9.294 -2.6717 -0.1483 -2.0448
  843MOL0     H16310   8.086   4.934   9.536 -0.0308  0.2918  1.4475
  843MOL0     H16311   8.055   5.101   9.574  0.6904 -0.4943  0.3903
  843MOL0     H16312   8.295   4.997   9.400 -0.5381  2.4473 -2.1449
  843MOL0     H16313   8.293   5.052   9.572  3.1025 -0.3346 -1.0732
  843MOL0     H16314   7.143   4.998   9.414 -1.3506  0.8555  1.3357
  843MOL0     H16315   6.926   4.901   9.420 -0.4210  0.5741 -0.7067
  843MOL0     H16316   6.640   4.735   9.416  0.7262  2.1973 -1.8215
  843MOL0     H16317   6.393   4.713   9.473  1.3582 -0.2929  1.2116
  843MOL0     H16318   7.116   4.797   9.824  2.3955  2.1190  2.3305
  843MOL0     H16319   7.300   4.832   9.978  3.1717 -0.6549  2.4850
  843MOL0     H16320   7.470   4.819  10.303  0.9237  2.4849 -2.7797
  843MOL0     H16321   7.606   4.937  10.473  3.6695  3.6053 -0.4051
  843MOL0     H16322   7.794   5.114  10.419  1.6149 -2.1408 -1.6191
  843MOL0     H16323   7.726   5.067  10.578  0.4969  0.4064  0.0209
  843MOL0     H16324   8.024   5.115  10.541  2.0769  2.1351  1.5814
  843MOL0     H16325   7.938   5.076  10.686 -1.9436 -0.0743  0.4682
  843MOL0     H16326   7.784   5.281  10.648  0.7564  0.4883  0.1446
  843MOL0     H16327   7.948   5.308  10.708  0.1054 -0.9044  1.3627
  843MOL0     H16328   7.866   5.464  10.547  2.7646  0.0283  0.7744
  843MOL0     H16329   7.864   5.351  10.408 -2.6104  0.6052  0.3431
  843MOL0     H16330   8.278   5.400  10.426 -0.6226  0.3843 -0.4777
  843MOL0     H16331   7.956   4.760  10.298  0.1496  0.1555 -3.4785
  843MOL0     H16332   7.926   4.545  10.144  0.4241 -1.7254 -3.1432
  843MOL0     H16333   7.777   4.518  10.080  1.3057 -0.7719 -0.5609
  843MOL0     H16334   7.886   4.668  10.033  0.1058 -0.1215  0.4578
  844MOL0     O16335   1.576   8.884   8.058 -0.9695  0.3662 -0.3534
  844MOL0     C16336   1.601   8.924   8.174 -0.1879  0.3260  0.9683
  844MOL0     O16337   1.669   8.849   8.272  0.5303  0.7728 -0.1316
  844MOL0     C16338   1.737   8.728   8.251  0.7112  0.6076 -0.2809
  844MOL0     C16339   1.804   8.693   8.137  0.0807 -0.6246  0.9091
  844MOL0     C16340   1.876   8.576   8.123 -0.1191 -0.6999 -0.8880
  844MOL0     C16341   1.886   8.495   8.243  0.6154  0.6929  0.1808
  844MOL0     O16342   1.961   8.379   8.258 -0.7952 -0.4822  0.0072
  844MOL0     C16343   1.994   8.311   8.144  0.4855 -0.2880  0.3020
  844MOL0     C16344   2.010   8.161   8.170 -0.1546  0.3814 -0.6428
  844MOL0     C16345   2.022   8.075   8.042  0.3091 -0.0760 -0.0503
  844MOL0     C16346   2.154   8.101   7.962  0.1007  0.1434 -0.5813
  844MOL0     C16347   2.166   8.047   7.824  0.7810  0.3276  0.7465
  844MOL0     C16348   2.300   8.098   7.755 -0.8327  1.0761 -0.6020
  844MOL0     C16349   2.333   8.027   7.621  0.4762  0.6087 -0.0593
  844MOL0     C16350   2.393   7.894   7.660  0.0179  1.0852 -0.9140
  844MOL0     N16351   2.532   7.900   7.713 -0.7974  0.4532 -0.7842
  844MOL0     C16352   2.618   8.012   7.713  0.2043 -0.0835  0.3811
  844MOL0     C16353   2.742   7.961   7.729  1.0078  1.2758 -0.1046
  844MOL0     C16354   2.862   8.039   7.743 -1.5645 -0.4955  0.4959
  844MOL0     C16355   2.979   8.002   7.650 -0.2549  0.9324 -0.0752
  844MOL0     C16356   3.062   7.896   7.718 -0.1384 -0.4593 -0.1079
  844MOL0     C16357   3.205   7.871   7.684  0.0494 -0.1701  0.3202
  844MOL0     O16358   3.282   7.996   7.689 -0.1646 -0.5875 -0.2193
  844MOL0     C16359   3.423   7.987   7.709  0.4553  0.7557  0.4086
  844MOL0     C16360   3.487   8.108   7.709  0.3057  0.7951  0.1620
  844MOL0     C16361   3.627   8.121   7.717  1.1183  0.2205 -0.2831
  844MOL0     C16362   3.686   8.259   7.704 -0.1545 -0.2297 -0.2882
  844MOL0     C16363   3.707   8.002   7.732  0.7912 -0.2592  0.5906
  844MOL0     C16364   3.854   8.006   7.716  0.7340 -0.6204 -1.1425
  844MOL0     O16365   3.911   7.890   7.699 -0.2514  0.0472  0.4011
  844MOL0     C16366   4.046   7.880   7.717  0.9152  0.8510  0.0259
  844MOL0     C16367   4.112   7.924   7.834  0.1700 -0.2165  0.2246
  844MOL0     C16368   4.243   7.894   7.849 -0.5786 -0.2320  0.4350
  844MOL0     C16369   4.316   7.837   7.735 -0.4375 -0.5778  0.6217
  844MOL0     O16370   4.453   7.811   7.734  0.1545  0.3141 -0.1068
  844MOL0     C16371   4.535   7.848   7.847  0.1083  0.0791  0.4218
  844MOL0     C16372   4.683   7.854   7.793 -0.5628  0.6030  0.2131
  844MOL0     C16373   4.727   7.721   7.733 -0.1423 -0.7245 -0.7819
  844MOL0     C16374   4.873   7.689   7.692  0.1000 -0.2933 -0.4112
  844MOL0     C16375   4.903   7.533   7.692 -0.4698 -0.3305  0.3380
  844MOL0     C16376   5.052   7.494   7.646  0.4224 -0.0107  0.1741
  844MOL0     C16377   5.143   7.550   7.762 -0.0185  0.3840  0.6016
  844MOL0     C16378   5.142   7.455   7.877  0.2739  0.0257  0.3542
  844MOL0    Cl16379   5.257   7.513   7.994 -0.1687  0.3935 -0.1406
  844MOL0     C16380   4.243   7.803   7.615 -0.8430  0.2043 -0.0875
  844MOL0     C16381   4.111   7.832   7.607 -0.7945  0.1589 -0.6323
  844MOL0     O16382   3.917   8.114   7.708  1.6198 -0.4078 -0.4616
  844MOL0     C16383   3.637   7.875   7.727  0.5361  0.4552  0.5817
  844MOL0     C16384   3.500   7.871   7.720 -0.3953  0.8094  0.1110
  844MOL0     N16385   2.734   7.818   7.728  0.3400 -0.8871 -0.0174
  844MOL0     N16386   2.608   7.785   7.710  0.3090  0.3023 -0.0888
  844MOL0     C16387   1.827   8.533   8.358 -0.2389  0.2338 -0.3787
  844MOL0     C16388   1.739   8.647   8.365 -0.9145  0.2990 -0.6419
  844MOL0     C16389   1.555   9.051   8.214 -0.3824 -0.0414 -0.2729
  844MOL0     C16390   1.642   9.140   8.292  0.3113  0.6833 -0.3448
  844MOL0     C16391   1.607   9.266   8.339  0.0069 -0.3474  0.8634
  844MOL0     C16392   1.480   9.315   8.291  0.3535  0.5878 -0.4798
  844MOL0     O16393   1.457   9.450   8.322 -0.5764  0.2782 -0.3904
  844MOL0     C16394   1.328   9.512   8.308  0.3243 -0.5644 -0.1142
  844MOL0     C16395   1.349   9.657   8.261 -0.1630 -0.0751  0.1559
  844MOL0     C16396   1.415   9.644   8.121 -0.6993 -0.3332 -0.2404
  844MOL0     C16397   1.469   9.772   8.077  0.1770  0.1788 -0.1596
  844MOL0     C16398   1.374   9.885   8.066 -0.2741  1.0801  0.4312
  844MOL0     C16399   1.290   9.962   8.081  0.4910 -0.9763 -0.3739
  844MOL0     C16400   1.394   9.231   8.211 -0.2922 -1.3308 -0.1800
  844MOL0     C16401   1.422   9.096   8.187  0.5066 -0.3650  1.1076
  844MOL0     C16402   1.319   9.019   8.106  0.9862 -0.3301  0.3016
  844MOL0     H16403   1.804   8.771   8.061  2.3899  0.4732  1.9427
  844MOL0     H16404   1.924   8.540   8.033  3.5628 -0.9319  0.9845
  844MOL0     H16405   2.080   8.354   8.092  0.0506  2.5786  1.7652
  844MOL0     H16406   1.918   8.305   8.066  3.3919 -2.4026 -2.6562
  844MOL0     H16407   2.095   8.146   8.238  1.2175  1.9893 -1.9078
  844MOL0     H16408   1.917   8.118   8.207  0.7636 -0.0401  1.2702
  844MOL0     H16409   2.023   7.973   8.079  0.0630  0.2845  0.9660
  844MOL0     H16410   1.931   8.087   7.983  0.9031 -0.1848 -1.0180
  844MOL0     H16411   2.156   8.210   7.950 -1.9654  0.5795  2.1928
  844MOL0     H16412   2.244   8.076   8.017  0.1766  1.8495  0.1284
  844MOL0     H16413   2.079   8.090   7.774  0.2852 -1.0568  0.3938
  844MOL0     H16414   2.158   7.938   7.820  1.2926  0.1983  2.3827
  844MOL0     H16415   2.298   8.207   7.741  3.5643  1.4576  0.2949
  844MOL0     H16416   2.380   8.083   7.828 -3.0671 -0.0974  1.7811
  844MOL0     H16417   2.407   8.086   7.566  0.9549 -0.5122 -0.6357
  844MOL0     H16418   2.238   8.008   7.569 -0.7807  1.2382  1.8827
  844MOL0     H16419   2.324   7.841   7.726 -1.2250  2.2946 -1.2068
  844MOL0     H16420   2.388   7.834   7.568 -0.8194  0.7799 -0.6741
  844MOL0     H16421   2.585   8.114   7.699 -0.2312 -0.2203  0.3983
  844MOL0     H16422   2.900   8.038   7.845 -0.3760 -4.3199  0.1780
  844MOL0     H16423   2.843   8.144   7.718  1.0060 -0.5098 -2.1469
  844MOL0     H16424   2.941   7.965   7.554  2.6292  1.3480 -1.4867
  844MOL0     H16425   3.034   8.094   7.632 -0.4624  0.7503 -1.8478
  844MOL0     H16426   3.068   7.901   7.827  4.4055 -1.7552 -0.0654
  844MOL0     H16427   3.007   7.804   7.695 -0.5294 -0.8396  2.0968
  844MOL0     H16428   3.246   7.796   7.752  1.8923  0.2843 -0.2206
  844MOL0     H16429   3.227   7.826   7.587 -1.4758  1.8456 -1.0644
  844MOL0     H16430   3.414   8.188   7.701 -2.5337 -1.6934 -0.7149
  844MOL0     H16431   3.613   8.340   7.695  0.5431  0.8711  2.7364
  844MOL0     H16432   3.752   8.277   7.619  0.6117 -0.0081  0.3387
  844MOL0     H16433   3.723   8.291   7.802  0.2374  3.6871 -1.5331
  844MOL0     H16434   4.052   7.971   7.912  1.2096 -0.3841  1.1517
  844MOL0     H16435   4.306   7.926   7.931  2.1736  1.0719 -2.0265
  844MOL0     H16436   4.528   7.951   7.883  1.3525  0.2921  0.0983
  844MOL0     H16437   4.521   7.789   7.939  2.4958  1.1866  1.5958
  844MOL0     H16438   4.693   7.932   7.718 -0.4820 -0.5749 -1.0280
  844MOL0     H16439   4.745   7.882   7.878  1.3977  1.2277 -1.3637
  844MOL0     H16440   4.671   7.708   7.640  0.7026 -0.0561 -1.4092
  844MOL0     H16441   4.699   7.643   7.804  0.2691 -2.4698 -2.4564
  844MOL0     H16442   4.940   7.751   7.754  1.3077 -0.6680 -1.2970
  844MOL0     H16443   4.881   7.731   7.592  0.8099  2.2866  0.6374
  844MOL0     H16444   4.883   7.490   7.791 -0.2365  1.0854  1.0144
  844MOL0     H16445   4.836   7.483   7.622  0.9031 -2.9638  0.7645
  844MOL0     H16446   5.069   7.547   7.552 -0.0805  2.0460  1.1784
  844MOL0     H16447   5.056   7.386   7.632  0.0609  0.3355 -3.7508
  844MOL0     H16448   5.108   7.650   7.789 -1.4107  0.6917 -2.0251
  844MOL0     H16449   5.250   7.547   7.740 -0.0409  0.8574  0.4360
  844MOL0     H16450   5.185   7.364   7.836  1.3017  2.5692 -5.1106
  844MOL0     H16451   5.049   7.450   7.935 -0.4128 -1.6452 -0.8283
  844MOL0     H16452   4.295   7.752   7.535 -1.4615  0.5405 -0.7058
  844MOL0     H16453   4.055   7.802   7.519  1.0327 -0.1430 -1.7437
  844MOL0     H16454   3.684   7.780   7.750 -1.7728 -0.8604  0.1440
  844MOL0     H16455   3.456   7.772   7.713  0.0893  0.7104 -2.1796
  844MOL0     H16456   1.853   8.471   8.443 -2.5581  0.7063  0.7287
  844MOL0     H16457   1.683   8.670   8.455 -2.1368  0.1356 -1.3393
  844MOL0     H16458   1.742   9.104   8.316 -0.3468 -2.4597 -1.7596
  844MOL0     H16459   1.680   9.332   8.384 -0.1696  1.0639 -0.7942
  844MOL0     H16460   1.275   9.465   8.224 -1.9590 -0.9488  1.4295
  844MOL0     H16461   1.260   9.505   8.394 -0.3272  0.4142 -0.5338
  844MOL0     H16462   1.418   9.698   8.334  2.0127  0.2788 -1.9491
  844MOL0     H16463   1.255   9.710   8.249 -0.1859 -0.5548 -2.7093
  844MOL0     H16464   1.493   9.568   8.118  1.5721  1.8815 -1.3958
  844MOL0     H16465   1.337   9.632   8.045  1.5235  0.5652 -2.8253
  844MOL0     H16466   1.510   9.761   7.976 -1.2931 -0.6999 -0.6885
  844MOL0     H16467   1.538   9.794   8.159 -3.3765  1.7093  2.7055
  844MOL0     H16468   1.213  10.031   8.109 -0.1349 -0.9792 -1.9618
  844MOL0     H16469   1.300   9.274   8.176 -0.1372 -1.3905 -0.6665
  844MOL0     H16470   1.222   9.069   8.107  0.6469 -0.9246 -0.9008
  844MOL0     H16471   1.355   9.014   8.003  4.5685 -0.5702  1.4351
  844MOL0     H16472   1.303   8.915   8.137 -1.1764 -0.5659 -1.3828
  845MOL0     O16473   8.291   6.374  11.347 -0.6814 -0.1561 -0.3860
  845MOL0     C16474   8.293   6.473  11.417 -1.0401 -0.0176  0.2403
  845MOL0     O16475   8.186   6.531  11.461  0.4429 -0.7410 -0.4277
  845MOL0     C16476   8.067   6.465  11.435 -0.1726  0.7652 -0.3825
  845MOL0     C16477   7.998   6.390  11.535 -0.1478  0.1232  0.8845
  845MOL0     C16478   7.860   6.349  11.523 -0.5318 -0.0075 -0.2918
  845MOL0     C16479   7.794   6.388  11.403  0.4077  0.6013  0.2598
  845MOL0     O16480   7.666   6.351  11.378 -1.2972  0.0398  0.4527
  845MOL0     C16481   7.586   6.295  11.475 -0.1384 -0.0383 -0.1530
  845MOL0     C16482   7.442   6.293  11.428 -0.7541 -0.5650  0.1876
  845MOL0     C16483   7.381   6.427  11.431  1.1698  0.2056  0.2754
  845MOL0     C16484   7.264   6.428  11.338  0.1912 -0.1782  1.1267
  845MOL0     C16485   7.179   6.563  11.350  0.1281  0.8151 -0.0451
  845MOL0     C16486   7.266   6.681  11.312  0.3405 -0.3304 -0.7242
  845MOL0     C16487   7.196   6.813  11.331 -0.4509 -0.2552  0.3012
  845MOL0     C16488   7.246   6.947  11.270 -0.3063 -1.5021 -1.4990
  845MOL0     N16489   7.359   7.013  11.345  1.0027 -0.5383  0.0676
  845MOL0     C16490   7.366   7.052  11.476  0.4222 -0.2024 -0.1096
  845MOL0     C16491   7.493   7.104  11.493  0.1511 -0.3405  0.5812
  845MOL0     C16492   7.555   7.143  11.623 -1.2571 -0.7505 -0.0314
  845MOL0     C16493   7.638   7.037  11.694 -0.0967  0.2083 -0.4365
  845MOL0     C16494   7.681   7.074  11.837 -0.3105  0.3774 -0.4874
  845MOL0     C16495   7.802   7.167  11.835  0.1158 -0.0039  0.5336
  845MOL0     O16496   7.823   7.223  11.971  0.0756  0.2542 -0.0983
  845MOL0     C16497   7.892   7.163  12.070 -0.4103  0.3224 -0.5357
  845MOL0     C16498   7.914   7.235  12.196 -1.3293  1.5282 -0.4266
  845MOL0     C16499   7.985   7.183  12.307  0.3381 -0.5046  0.3562
  845MOL0     C16500   7.983   7.274  12.430 -0.5668 -0.4207  0.3480
  845MOL0     C16501   8.050   7.053  12.291 -0.5524 -0.3027  0.4782
  845MOL0     C16502   8.137   6.988  12.392  0.4136 -0.3715  0.2445
  845MOL0     O16503   8.182   6.869  12.360 -0.3150  0.2633  0.1516
  845MOL0     C16504   8.252   6.792  12.450 -1.1939  0.5490  1.2010
  845MOL0     C16505   8.331   6.705  12.378  0.6122  0.8038 -0.4020
  845MOL0     C16506   8.419   6.623  12.453  0.2009  0.9687 -0.1128
  845MOL0     C16507   8.413   6.613  12.595 -1.1621  0.4731 -0.0601
  845MOL0     O16508   8.487   6.538  12.684 -0.4380  1.0315 -0.0621
  845MOL0     C16509   8.537   6.411  12.637 -0.7984 -0.6000  0.6032
  845MOL0     C16510   8.639   6.366  12.735 -0.2516 -0.0868 -0.8819
  845MOL0     C16511   8.567   6.325  12.860  0.0332  0.2027 -0.2422
  845MOL0     C16512   8.675   6.304  12.987  0.1004 -0.6670  0.5383
  845MOL0     C16513   8.589   6.283  13.108 -0.5872  0.3165 -0.3204
  845MOL0     C16514   8.549   6.142  13.119 -0.4404  0.0793  0.2498
  845MOL0     C16515   8.470   6.104  13.240 -0.4948  1.2870 -1.0461
  845MOL0     C16516   8.543   6.103  13.370 -0.2253 -0.4470 -0.2900
  845MOL0    Cl16517   8.538   6.268  13.445 -0.1489 -0.2495 -0.1335
  845MOL0     C16518   8.327   6.699  12.663 -1.1778  0.3147  0.3188
  845MOL0     C16519   8.249   6.791  12.592 -0.3425 -0.0866  0.2034
  845MOL0     O16520   8.170   7.051  12.490 -0.3710  0.1288 -0.6389
  845MOL0     C16521   8.035   6.986  12.164 -0.8271  0.3933  0.5270
  845MOL0     C16522   7.953   7.035  12.064  0.4397 -0.6771 -0.7792
  845MOL0     N16523   7.552   7.090  11.371  0.2068  0.5013 -0.4567
  845MOL0     N16524   7.478   7.037  11.283  0.3748 -0.0979  0.4522
  845MOL0     C16525   7.871   6.454  11.303  0.6508  0.3104  0.0181
  845MOL0     C16526   8.004   6.497  11.315  0.1834 -0.2084  0.0165
  845MOL0     C16527   8.424   6.524  11.463  0.2137  0.0680 -0.5573
  845MOL0     C16528   8.432   6.543  11.593 -0.2989  0.0634 -0.8281
  845MOL0     C16529   8.560   6.589  11.644  0.6433  0.0698 -0.8321
  845MOL0     C16530   8.668   6.599  11.562 -0.1588 -0.5031  0.2677
  845MOL0     O16531   8.791   6.636  11.615 -0.8378  0.6265 -0.3656
  845MOL0     C16532   8.818   6.627  11.752 -0.3739  0.4354  0.1714
  845MOL0     C16533   8.969   6.663  11.770  0.3478  0.8885 -1.0263
  845MOL0     C16534   9.055   6.565  11.692 -0.9022  0.8369 -0.1113
  845MOL0     C16535   9.206   6.600  11.729  0.2310  0.2174  0.0209
  845MOL0     C16536   9.265   6.710  11.660 -0.6726 -0.3414 -0.3594
  845MOL0     C16537   9.323   6.799  11.606 -0.1802  0.3522  0.5002
  845MOL0     C16538   8.654   6.573  11.423 -0.4129  0.0893 -0.5960
  845MOL0     C16539   8.528   6.543  11.372 -0.9365 -0.1269  0.8081
  845MOL0     C16540   8.521   6.515  11.220 -0.4903  0.5777 -1.1395
  845MOL0     H16541   8.043   6.382  11.634 -1.4197  0.7843  1.5485
  845MOL0     H16542   7.812   6.293  11.603  1.1949  0.6860  1.3111
  845MOL0     H16543   7.582   6.363  11.560 -1.3315  1.2448 -1.1881
  845MOL0     H16544   7.629   6.199  11.503 -0.0223  0.7082  2.4030
  845MOL0     H16545   7.451   6.248  11.328  1.1684 -1.2512  0.6346
  845MOL0     H16546   7.373   6.224  11.477 -2.4068  1.4473  0.8326
  845MOL0     H16547   7.352   6.451  11.534 -2.0483  0.8752 -0.6774
  845MOL0     H16548   7.458   6.499  11.401  1.3099 -1.0991 -2.7882
  845MOL0     H16549   7.302   6.417  11.236 -1.3458  0.8533  0.4075
  845MOL0     H16550   7.201   6.340  11.357 -1.9128 -0.3434 -4.5996
  845MOL0     H16551   7.140   6.568  11.452 -1.3701  0.2900 -0.5734
  845MOL0     H16552   7.089   6.561  11.288  0.1811 -2.0866 -0.1901
  845MOL0     H16553   7.356   6.682  11.373 -0.4117  0.3738  0.4126
  845MOL0     H16554   7.294   6.682  11.206  0.7806 -0.4735 -0.6130
  845MOL0     H16555   7.187   6.844  11.435  2.3974  0.8204  0.3191
  845MOL0     H16556   7.096   6.809  11.287 -0.5331 -0.2150  0.4836
  845MOL0     H16557   7.276   6.929  11.166  1.3754 -1.5431 -1.0319
  845MOL0     H16558   7.167   7.023  11.267  0.4702 -0.6864 -1.6699
  845MOL0     H16559   7.295   7.034  11.556  1.6337  1.2797  1.3729
  845MOL0     H16560   7.480   7.186  11.691 -0.2104 -0.3082  0.8649
  845MOL0     H16561   7.618   7.227  11.591 -3.1330  0.7076 -0.0933
  845MOL0     H16562   7.591   6.939  11.681  0.2682 -0.2896  1.5833
  845MOL0     H16563   7.738   7.030  11.649  1.0043 -1.2805  1.9933
  845MOL0     H16564   7.597   7.121  11.889 -0.3026 -1.7292  1.5791
  845MOL0     H16565   7.693   6.984  11.898  0.6391  0.4053 -0.6211
  845MOL0     H16566   7.891   7.119  11.794 -0.9901 -0.9428 -0.8511
  845MOL0     H16567   7.790   7.254  11.771 -0.2963  0.6149  1.4302
  845MOL0     H16568   7.875   7.336  12.200 -2.0243  1.2284  3.4718
  845MOL0     H16569   7.906   7.234  12.497 -0.6760 -0.1488  0.3881
  845MOL0     H16570   7.945   7.373  12.403 -0.7218 -0.5385  0.1309
  845MOL0     H16571   8.086   7.277  12.466 -1.3000  3.4965  2.6877
  845MOL0     H16572   8.334   6.708  12.270 -0.2275  1.6304 -0.4150
  845MOL0     H16573   8.494   6.561  12.406  0.2568 -0.0412  1.2594
  845MOL0     H16574   8.464   6.331  12.627 -1.2817 -0.1830  0.7806
  845MOL0     H16575   8.574   6.420  12.534  0.6556 -1.4781  1.0176
  845MOL0     H16576   8.699   6.286  12.690 -0.6974 -1.8312  1.4219
  845MOL0     H16577   8.708   6.451  12.748 -1.5906  0.9322 -0.1887
  845MOL0     H16578   8.501   6.238  12.849  0.2266  0.0626 -0.3182
  845MOL0     H16579   8.506   6.409  12.894  0.3919 -0.0168  0.9762
  845MOL0     H16580   8.728   6.399  13.000 -0.8366  0.0393 -0.5303
  845MOL0     H16581   8.757   6.235  12.968  1.1522  0.3904  1.0591
  845MOL0     H16582   8.654   6.317  13.190 -1.9035  4.0852 -0.6558
  845MOL0     H16583   8.500   6.345  13.120  0.4068  1.4199  2.1183
  845MOL0     H16584   8.631   6.072  13.101 -1.6682 -0.9486 -1.7026
  845MOL0     H16585   8.473   6.120  13.042  0.1712  0.5456 -0.5015
  845MOL0     H16586   8.447   5.998  13.229 -2.7081  1.7197 -0.9344
  845MOL0     H16587   8.376   6.158  13.255  1.3470  5.3148 -2.6974
  845MOL0     H16588   8.649   6.076  13.358  0.2141  1.1920 -0.3351
  845MOL0     H16589   8.492   6.042  13.445 -0.7037 -0.8958 -0.9626
  845MOL0     H16590   8.337   6.692  12.771  0.2334 -1.2706  0.1286
  845MOL0     H16591   8.186   6.862  12.644  1.0028  0.6232  0.9361
  845MOL0     H16592   8.092   6.898  12.138  1.6666  1.7537  1.0067
  845MOL0     H16593   7.948   6.969  11.978 -3.4500 -0.8865 -0.5660
  845MOL0     H16594   7.822   6.473  11.208  0.9282 -1.6812 -0.5530
  845MOL0     H16595   8.053   6.550  11.234  3.9575 -0.8837  1.6359
  845MOL0     H16596   8.349   6.528  11.661  1.9220  2.1038  2.6039
  845MOL0     H16597   8.564   6.608  11.751  0.2092  0.8666 -0.9440
  845MOL0     H16598   8.767   6.704  11.810  1.2618  0.2836  1.9005
  845MOL0     H16599   8.799   6.529  11.796 -1.3570 -0.3281 -1.8254
  845MOL0     H16600   8.981   6.648  11.877 -1.8065 -3.0473 -1.1172
  845MOL0     H16601   8.996   6.765  11.740  1.7843  0.6921 -0.4849
  845MOL0     H16602   9.044   6.460  11.721  2.5356  0.6735  1.0861
  845MOL0     H16603   9.045   6.582  11.584 -1.7500  2.6679  0.2282
  845MOL0     H16604   9.253   6.510  11.688 -1.6368 -0.0552 -1.7259
  845MOL0     H16605   9.229   6.602  11.836  1.3706 -0.2471 -0.2048
  845MOL0     H16606   9.377   6.874  11.552  0.1607  0.8561  1.5149
  845MOL0     H16607   8.736   6.593  11.355 -0.6717 -0.7205 -1.1590
  845MOL0     H16608   8.563   6.594  11.158 -1.8225 -0.0565 -2.9411
  845MOL0     H16609   8.577   6.423  11.199  0.7819  0.4390  2.2129
  845MOL0     H16610   8.423   6.502  11.172 -0.3416  0.4063 -1.3995
  846MOL0     O16611   0.303   0.815   5.649  0.0081 -0.0784 -0.3559
  846MOL0     C16612   0.225   0.867   5.725 -0.0405 -0.3305 -0.2355
  846MOL0     O16613   0.264   0.939   5.831  0.0577  1.2079 -0.0823
  846MOL0     C16614   0.395   0.940   5.866 -0.1963 -0.6592 -0.0445
  846MOL0     C16615   0.475   0.825   5.890  0.4127  0.8698  0.5452
  846MOL0     C16616   0.605   0.838   5.945  1.0308  0.3384  0.4221
  846MOL0     C16617   0.653   0.957   5.990  0.9529 -0.1565 -0.4314
  846MOL0     O16618   0.764   0.947   6.064  0.0026 -0.1803 -0.2126
  846MOL0     C16619   0.811   1.043   6.162  0.0517  0.6346  0.1326
  846MOL0     C16620   0.750   1.001   6.297 -0.6948 -0.3179  0.0476
  846MOL0     C16621   0.610   1.057   6.321 -0.5000 -0.5053  0.0260
  846MOL0     C16622   0.503   0.951   6.309  0.3717 -1.2238 -0.6198
  846MOL0     C16623   0.364   1.025   6.325  0.0826  0.4542  0.1533
  846MOL0     C16624   0.306   1.071   6.197  0.0873  0.1402  0.9132
  846MOL0     C16625   0.165   1.131   6.213  0.3118  0.0418  0.5408
  846MOL0     C16626   0.111   1.176   6.079 -0.1311  0.0694  0.1577
  846MOL0     N16627  -0.029   1.219   6.091 -0.0907 -0.0807  0.0880
  846MOL0     C16628  -0.145   1.143   6.097  0.0231 -0.2095 -0.9069
  846MOL0     C16629  -0.244   1.234   6.139 -0.0023  0.0574  0.5266
  846MOL0     C16630  -0.379   1.205   6.185  0.4165 -0.1223  1.1196
  846MOL0     C16631  -0.475   1.209   6.067 -0.1384  0.6941  0.3368
  846MOL0     C16632  -0.472   1.327   5.974  0.7094 -0.2214 -0.0516
  846MOL0     C16633  -0.601   1.343   5.881 -1.0496  0.7678 -0.1644
  846MOL0     O16634  -0.619   1.227   5.802  0.3809 -0.7980 -0.3296
  846MOL0     C16635  -0.597   1.251   5.671  0.8905 -0.5068 -0.2043
  846MOL0     C16636  -0.708   1.261   5.583 -0.0299  0.9864 -0.3859
  846MOL0     C16637  -0.691   1.275   5.448  0.2287  0.1375  0.4489
  846MOL0     C16638  -0.819   1.256   5.362 -0.1746 -0.2110 -0.1523
  846MOL0     C16639  -0.562   1.295   5.395  0.9726 -0.5836 -0.0020
  846MOL0     C16640  -0.528   1.310   5.248 -0.7870  0.0284 -0.7136
  846MOL0     O16641  -0.621   1.377   5.180  0.0321 -0.9426 -0.9135
  846MOL0     C16642  -0.606   1.383   5.042 -0.1672  0.4126  0.2176
  846MOL0     C16643  -0.572   1.280   4.953  0.0666 -0.5560 -0.0864
  846MOL0     C16644  -0.578   1.289   4.815 -0.0333 -0.6792  0.6515
  846MOL0     C16645  -0.609   1.407   4.753 -0.4514  0.0576 -0.9199
  846MOL0     O16646  -0.598   1.412   4.610  0.0145  0.3726 -0.1996
  846MOL0     C16647  -0.625   1.524   4.534 -1.2222 -0.0409 -0.2826
  846MOL0     C16648  -0.510   1.629   4.524 -0.1578  0.2820 -0.4477
  846MOL0     C16649  -0.550   1.739   4.428 -0.4377  0.6885  0.7052
  846MOL0     C16650  -0.452   1.848   4.434 -0.2633  0.9797  0.0342
  846MOL0     C16651  -0.467   1.966   4.334  0.1125  0.6132 -0.2326
  846MOL0     C16652  -0.599   2.036   4.324 -0.0102  0.6127  0.0604
  846MOL0     C16653  -0.699   1.963   4.229  1.0134 -0.1764 -0.9935
  846MOL0     C16654  -0.833   2.037   4.216  0.4100  0.5372 -0.0338
  846MOL0    Cl16655  -0.891   2.108   4.362 -0.4029  0.4713  0.2095
  846MOL0     C16656  -0.647   1.510   4.841 -0.5026  0.1322  0.7243
  846MOL0     C16657  -0.660   1.493   4.980 -0.0440  0.5351  0.6346
  846MOL0     O16658  -0.422   1.265   5.211 -0.0868 -0.8867 -0.0924
  846MOL0     C16659  -0.455   1.306   5.482 -0.2111  0.1988 -0.2121
  846MOL0     C16660  -0.468   1.283   5.622  0.4990  0.0729  0.5593
  846MOL0     N16661  -0.198   1.361   6.112 -0.6983 -0.2433  0.5013
  846MOL0     N16662  -0.073   1.349   6.092  0.5249  0.1563 -0.4202
  846MOL0     C16663   0.577   1.075   5.967 -0.5615  0.1037  0.5279
  846MOL0     C16664   0.448   1.062   5.912 -0.0154  0.1511  0.3942
  846MOL0     C16665   0.082   0.858   5.687 -0.2220 -1.0807 -0.2946
  846MOL0     C16666  -0.008   0.949   5.746 -0.0141  0.1301 -0.4445
  846MOL0     C16667  -0.150   0.937   5.741 -0.4588 -0.1638 -0.3490
  846MOL0     C16668  -0.205   0.844   5.662 -0.2464 -0.7517 -0.7099
  846MOL0     O16669  -0.343   0.833   5.643 -0.1776  0.2718 -0.1036
  846MOL0     C16670  -0.435   0.937   5.683 -0.0484 -0.0944  0.2613
  846MOL0     C16671  -0.577   0.915   5.619 -0.0618 -0.9396  0.0835
  846MOL0     C16672  -0.628   0.766   5.622  0.5447  0.4058  0.6052
  846MOL0     C16673  -0.780   0.752   5.603  0.2011 -0.0817  0.1538
  846MOL0     C16674  -0.848   0.827   5.700  0.2924 -0.0919  0.1680
  846MOL0     C16675  -0.919   0.904   5.762 -0.0818  0.1068 -0.4206
  846MOL0     C16676  -0.118   0.763   5.591 -0.2239  0.5020  0.1382
  846MOL0     C16677   0.020   0.759   5.610 -0.9425  0.3343  0.2245
  846MOL0     C16678   0.095   0.648   5.530  0.4499 -0.4239  0.0585
  846MOL0     H16679   0.427   0.733   5.859 -0.0937  1.4831 -0.5708
  846MOL0     H16680   0.667   0.749   5.955  0.9676 -0.0331 -1.7703
  846MOL0     H16681   0.794   1.145   6.127  2.3897  0.9748 -0.1682
  846MOL0     H16682   0.919   1.029   6.171 -0.1295 -0.7488  0.4426
  846MOL0     H16683   0.751   0.893   6.315  1.2883 -0.1687  1.0904
  846MOL0     H16684   0.819   1.029   6.377 -0.0774  0.0503 -0.5982
  846MOL0     H16685   0.621   1.102   6.420  0.7473  0.5707 -0.5663
  846MOL0     H16686   0.589   1.139   6.252  1.0138 -0.9096 -0.9661
  846MOL0     H16687   0.513   0.891   6.218  1.8939 -0.8917 -0.7034
  846MOL0     H16688   0.507   0.883   6.395  0.5991  0.1897  0.5124
  846MOL0     H16689   0.369   1.110   6.394 -0.6315  1.8026 -1.3720
  846MOL0     H16690   0.294   0.957   6.373  0.0132  1.6600  1.8565
  846MOL0     H16691   0.381   1.137   6.152  1.1110 -1.1405  0.6705
  846MOL0     H16692   0.290   0.991   6.124 -2.2602  2.3235 -1.2083
  846MOL0     H16693   0.164   1.210   6.289 -1.4932 -1.0054  1.6901
  846MOL0     H16694   0.100   1.055   6.256 -0.7906  0.5787 -0.1325
  846MOL0     H16695   0.175   1.257   6.043  2.2606 -1.7040  0.1705
  846MOL0     H16696   0.109   1.092   6.009 -1.6243  2.2651 -2.6034
  846MOL0     H16697  -0.159   1.036   6.111  0.8281  0.0593  3.3176
  846MOL0     H16698  -0.396   1.287   6.255  1.0419 -1.3474  2.7632
  846MOL0     H16699  -0.382   1.101   6.218 -2.1578 -1.3984 -2.4845
  846MOL0     H16700  -0.456   1.120   6.007 -1.0208 -0.8113  2.1634
  846MOL0     H16701  -0.575   1.201   6.110 -1.0561  1.4477 -1.5195
  846MOL0     H16702  -0.449   1.414   6.036 -0.2249 -0.1234  0.1764
  846MOL0     H16703  -0.383   1.313   5.912  0.3332  1.1490 -0.9430
  846MOL0     H16704  -0.687   1.356   5.947 -0.6418 -1.3372  0.8750
  846MOL0     H16705  -0.582   1.436   5.827  1.2230  0.5693  0.1868
  846MOL0     H16706  -0.808   1.240   5.619 -0.2694  4.0185  1.0716
  846MOL0     H16707  -0.902   1.313   5.404  1.5650  3.1115 -0.7718
  846MOL0     H16708  -0.851   1.152   5.361 -2.7593  0.5246 -0.8052
  846MOL0     H16709  -0.818   1.286   5.256 -2.1046 -0.6468 -0.3214
  846MOL0     H16710  -0.550   1.180   4.989 -2.0846 -1.2291 -0.5326
  846MOL0     H16711  -0.573   1.203   4.749  2.0918 -1.6327  1.9516
  846MOL0     H16712  -0.631   1.489   4.430 -3.5519 -1.6708  0.3126
  846MOL0     H16713  -0.717   1.576   4.564 -0.3934  1.1457  0.2585
  846MOL0     H16714  -0.490   1.673   4.622  3.6625 -0.0380 -0.9497
  846MOL0     H16715  -0.416   1.581   4.496  1.7575  3.2332  0.5430
  846MOL0     H16716  -0.650   1.776   4.452 -0.7623  0.3838 -0.1239
  846MOL0     H16717  -0.541   1.708   4.324  2.3638  5.8102 -0.9272
  846MOL0     H16718  -0.353   1.804   4.417 -0.6703 -0.0509  0.3197
  846MOL0     H16719  -0.446   1.886   4.537 -0.3328 -0.6348  0.6539
  846MOL0     H16720  -0.388   2.039   4.354  0.4276  0.2912 -0.2915
  846MOL0     H16721  -0.448   1.933   4.231  2.4995  3.3555 -0.8066
  846MOL0     H16722  -0.587   2.139   4.291 -0.1261  1.1701  1.6770
  846MOL0     H16723  -0.646   2.036   4.423 -1.8126 -1.3303 -0.6977
  846MOL0     H16724  -0.717   1.859   4.258 -3.9734  0.0259 -2.4376
  846MOL0     H16725  -0.646   1.957   4.133  0.2240  0.6398 -1.4949
  846MOL0     H16726  -0.911   1.968   4.182 -3.0332  3.3835  1.3977
  846MOL0     H16727  -0.818   2.116   4.142 -0.2530  0.0723 -0.6728
  846MOL0     H16728  -0.669   1.612   4.811 -3.3647 -0.4424  0.5938
  846MOL0     H16729  -0.699   1.576   5.039  1.1836  0.6556  1.3086
  846MOL0     H16730  -0.355   1.327   5.444 -0.4805 -0.4257 -1.3305
  846MOL0     H16731  -0.378   1.286   5.683  0.8005 -1.9029  0.2934
  846MOL0     H16732   0.613   1.172   5.998  3.0950 -0.2646 -1.9230
  846MOL0     H16733   0.402   1.160   5.909  0.1482  0.3301  2.2881
  846MOL0     H16734   0.031   1.019   5.819  1.5870 -0.1732 -0.9485
  846MOL0     H16735  -0.192   1.015   5.802  3.0274  0.7279  1.1631
  846MOL0     H16736  -0.453   0.946   5.791 -1.2813  0.5797  0.0156
  846MOL0     H16737  -0.403   1.039   5.658 -2.2590  0.9476  1.3868
  846MOL0     H16738  -0.580   0.956   5.517  0.5442  4.0498  1.7901
  846MOL0     H16739  -0.641   0.986   5.671 -0.2361  0.9317 -2.4952
  846MOL0     H16740  -0.585   0.711   5.538 -1.7032 -1.1724  0.4213
  846MOL0     H16741  -0.601   0.727   5.720  1.3116  2.6413  1.3626
  846MOL0     H16742  -0.826   0.654   5.612 -0.9240  0.5627  1.7227
  846MOL0     H16743  -0.796   0.804   5.508  1.9575  0.0721 -0.0991
  846MOL0     H16744  -0.995   0.971   5.799  0.1169  1.4433 -2.2994
  846MOL0     H16745  -0.167   0.685   5.533 -0.1958  0.7064 -0.1655
  846MOL0     H16746   0.173   0.603   5.594  1.7467  1.6912  0.0438
  846MOL0     H16747   0.031   0.565   5.500  2.1337 -2.1208  0.9124
  846MOL0     H16748   0.146   0.685   5.441  1.4390 -0.9416  0.3904
  847MOL0     O16749   4.295   7.757   3.677 -0.2320 -0.0157  0.2132
  847MOL0     C16750   4.264   7.870   3.631 -0.4840 -0.0424 -0.6040
  847MOL0     O16751   4.349   7.958   3.586 -1.2195 -0.2275 -0.4208
  847MOL0     C16752   4.477   7.927   3.579 -0.8356 -0.6385  0.1350
  847MOL0     C16753   4.563   7.941   3.688 -0.1584  0.5876  0.8310
  847MOL0     C16754   4.703   7.913   3.672  0.7202 -0.4317  0.4983
  847MOL0     C16755   4.752   7.874   3.546 -0.2124  0.0492  0.1361
  847MOL0     O16756   4.887   7.858   3.525 -0.4990 -0.0308 -0.6250
  847MOL0     C16757   4.964   7.754   3.590 -0.7692 -0.2609  0.2596
  847MOL0     C16758   4.935   7.620   3.534 -0.0966  0.6097 -0.0728
  847MOL0     C16759   4.959   7.608   3.384  0.2349  0.7224 -0.8374
  847MOL0     C16760   5.093   7.547   3.348 -0.2764  1.6599  0.0294
  847MOL0     C16761   5.081   7.455   3.231 -0.4205  0.3749  0.4142
  847MOL0     C16762   5.218   7.379   3.188 -0.3240 -0.1163  0.0493
  847MOL0     C16763   5.273   7.398   3.046 -0.7515  1.0593  0.4729
  847MOL0     C16764   5.402   7.316   3.030  0.6335  0.0242 -0.3806
  847MOL0     N16765   5.432   7.285   2.887  0.1845  0.6808  0.0981
  847MOL0     C16766   5.393   7.377   2.791 -0.0730 -0.2376  0.6590
  847MOL0     C16767   5.461   7.325   2.686 -0.2934  0.5919  0.1186
  847MOL0     C16768   5.452   7.394   2.546 -1.6650 -0.3464 -0.6809
  847MOL0     C16769   5.592   7.449   2.490 -0.8262  0.3543  0.5507
  847MOL0     C16770   5.585   7.517   2.353 -0.2812 -0.2612  0.1279
  847MOL0     C16771   5.713   7.556   2.296 -0.4201 -0.1250 -0.4974
  847MOL0     O16772   5.792   7.435   2.284  0.2299 -0.2993 -0.2057
  847MOL0     C16773   5.894   7.446   2.200 -0.3614 -0.2574 -1.0629
  847MOL0     C16774   5.963   7.562   2.160  0.8789 -0.3498  1.0108
  847MOL0     C16775   6.077   7.556   2.089 -0.5472 -0.3513  0.0510
  847MOL0     C16776   6.149   7.693   2.067 -0.1541  0.7613 -0.5777
  847MOL0     C16777   6.124   7.430   2.040  0.2100  0.2559 -0.2931
  847MOL0     C16778   6.231   7.409   1.930  0.4521  0.6295 -1.1931
  847MOL0     O16779   6.290   7.517   1.881 -0.4886  0.1537  0.5796
  847MOL0     C16780   6.347   7.532   1.752 -0.6218  0.1151 -0.0507
  847MOL0     C16781   6.377   7.665   1.699 -0.6745  0.2810 -0.6376
  847MOL0     C16782   6.422   7.689   1.564  0.4918  0.3495 -0.0885
  847MOL0     C16783   6.423   7.583   1.473 -0.5685 -0.3504 -0.2706
  847MOL0     O16784   6.447   7.613   1.341  0.0424 -0.4835 -0.7533
  847MOL0     C16785   6.360   7.561   1.233  0.0949  0.4432  0.8796
  847MOL0     C16786   6.425   7.596   1.102 -0.5787 -0.0576  0.3908
  847MOL0     C16787   6.430   7.750   1.076  0.1410  0.6226  0.3275
  847MOL0     C16788   6.489   7.789   0.939  0.0306  0.0789 -1.0565
  847MOL0     C16789   6.477   7.934   0.910 -0.4514 -0.8450  0.1770
  847MOL0     C16790   6.588   8.026   0.972 -0.1707 -0.1386  0.7917
  847MOL0     C16791   6.540   8.171   0.989 -0.9323 -0.4156  0.1816
  847MOL0     C16792   6.434   8.176   1.101  0.3585  0.2336  0.3093
  847MOL0    Cl16793   6.488   8.118   1.261  0.0178 -0.2587  0.0906
  847MOL0     C16794   6.412   7.460   1.528 -0.0797 -0.5916  0.7990
  847MOL0     C16795   6.381   7.430   1.658  0.4607  0.5974 -0.0751
  847MOL0     O16796   6.229   7.303   1.882 -0.0547  0.9368  1.0055
  847MOL0     C16797   6.053   7.316   2.083  0.2392  0.6701 -0.1426
  847MOL0     C16798   5.944   7.321   2.173 -0.3568  0.4700  0.5480
  847MOL0     N16799   5.518   7.211   2.713  0.5331  0.3212  0.9876
  847MOL0     N16800   5.484   7.166   2.830  0.4162  0.3966  0.3943
  847MOL0     C16801   4.669   7.869   3.436  0.0002  0.2343 -0.9426
  847MOL0     C16802   4.529   7.901   3.452 -0.4552  1.3016  0.1030
  847MOL0     C16803   4.123   7.892   3.609  0.2477 -0.2361 -0.2065
  847MOL0     C16804   4.069   7.938   3.484 -0.5774  0.1606 -0.2615
  847MOL0     C16805   3.937   7.960   3.461 -0.0786 -0.3169 -0.6745
  847MOL0     C16806   3.843   7.942   3.563 -0.7944 -0.7288 -0.7304
  847MOL0     O16807   3.715   7.974   3.539 -0.2564 -0.0318  0.6528
  847MOL0     C16808   3.620   7.998   3.641  0.5310  0.9069 -0.7480
  847MOL0     C16809   3.489   8.045   3.587 -0.3228 -0.0205  0.3727
  847MOL0     C16810   3.441   7.977   3.452  0.2981 -0.5153  0.5221
  847MOL0     C16811   3.296   8.029   3.410 -0.3391 -0.8045 -0.5784
  847MOL0     C16812   3.196   7.935   3.468 -0.4191  0.3939 -0.2263
  847MOL0     C16813   3.118   7.875   3.539 -0.3893  0.1536  0.0239
  847MOL0     C16814   3.883   7.907   3.689 -0.9109  0.9445 -1.5533
  847MOL0     C16815   4.024   7.881   3.714 -0.2376 -0.0590 -0.3384
  847MOL0     C16816   4.076   7.833   3.855  0.1815 -0.2541 -0.5011
  847MOL0     H16817   4.533   7.966   3.789 -2.5865 -0.7610  0.5358
  847MOL0     H16818   4.776   7.914   3.753  2.2245  0.2766 -0.8080
  847MOL0     H16819   4.950   7.744   3.698 -0.5224 -3.2123  0.0957
  847MOL0     H16820   5.070   7.773   3.568 -0.5749 -2.6231 -1.2019
  847MOL0     H16821   4.988   7.545   3.592 -3.3216  0.4258  3.0153
  847MOL0     H16822   4.827   7.610   3.553 -0.0315  1.8527  1.1272
  847MOL0     H16823   4.871   7.562   3.339 -0.7112 -0.0211  1.6020
  847MOL0     H16824   4.970   7.697   3.321  1.9491 -0.0689 -1.7302
  847MOL0     H16825   5.170   7.614   3.307  2.4348 -1.5288 -0.4989
  847MOL0     H16826   5.135   7.494   3.433 -0.4565  3.1644  1.0978
  847MOL0     H16827   5.029   7.501   3.147 -0.7496 -0.6457  0.0460
  847MOL0     H16828   5.010   7.378   3.265  1.0452 -2.2328 -1.9575
  847MOL0     H16829   5.290   7.420   3.260  0.5913  1.5391 -1.6837
  847MOL0     H16830   5.209   7.274   3.213 -1.8653  0.8239  4.1368
  847MOL0     H16831   5.292   7.500   3.010  0.5851  0.1981 -1.4583
  847MOL0     H16832   5.199   7.358   2.975 -0.4823  1.3626  0.0177
  847MOL0     H16833   5.477   7.375   3.083 -1.0074  0.7576  1.2285
  847MOL0     H16834   5.393   7.216   3.074 -2.2485 -1.7242 -4.3152
  847MOL0     H16835   5.336   7.469   2.800 -0.2441 -0.4409  1.7999
  847MOL0     H16836   5.407   7.494   2.553  2.1223  1.6049 -1.4864
  847MOL0     H16837   5.396   7.337   2.472  0.4542 -1.2966 -1.6306
  847MOL0     H16838   5.617   7.519   2.570 -1.1469  0.7939  0.2706
  847MOL0     H16839   5.661   7.364   2.495  0.3312  1.2801  0.5620
  847MOL0     H16840   5.535   7.445   2.288 -0.6390 -0.6551  0.8313
  847MOL0     H16841   5.528   7.610   2.361 -0.9062 -0.7403  1.6582
  847MOL0     H16842   5.705   7.608   2.200  2.8434  2.6922  0.5225
  847MOL0     H16843   5.774   7.625   2.356  0.1715 -1.0844  0.0263
  847MOL0     H16844   5.924   7.658   2.194 -1.6780 -0.6054 -0.9499
  847MOL0     H16845   6.157   7.708   1.959  0.3152 -0.3998 -0.7199
  847MOL0     H16846   6.254   7.689   2.097  0.4051 -0.2303 -2.5400
  847MOL0     H16847   6.090   7.775   2.109  0.3541  1.7796 -1.8042
  847MOL0     H16848   6.354   7.754   1.757 -3.3419 -0.9297  0.3112
  847MOL0     H16849   6.436   7.791   1.530 -0.5687  1.2350  1.9659
  847MOL0     H16850   6.339   7.454   1.226  0.3848  0.4561 -0.5384
  847MOL0     H16851   6.265   7.610   1.254  0.3491 -0.2233  4.1730
  847MOL0     H16852   6.521   7.544   1.111 -1.7549 -1.9581  3.7710
  847MOL0     H16853   6.360   7.556   1.024 -3.1555  1.0693  1.8190
  847MOL0     H16854   6.496   7.797   1.149  1.3799 -0.0220 -0.3225
  847MOL0     H16855   6.328   7.787   1.079  0.5789  1.8364  0.8239
  847MOL0     H16856   6.425   7.733   0.869 -0.6297 -2.6554  1.5573
  847MOL0     H16857   6.591   7.753   0.927  0.4544 -0.4369  2.8001
  847MOL0     H16858   6.481   7.948   0.801 -1.7272 -0.1730  0.1980
  847MOL0     H16859   6.381   7.964   0.953 -0.5067 -0.2439 -0.3512
  847MOL0     H16860   6.670   8.035   0.901 -1.2401  1.2098 -0.3499
  847MOL0     H16861   6.632   7.992   1.066  1.1030  0.6085  0.4839
  847MOL0     H16862   6.510   8.217   0.894  2.8402  2.4486  0.1805
  847MOL0     H16863   6.626   8.230   1.020 -0.0354 -0.5413 -1.8760
  847MOL0     H16864   6.341   8.125   1.072  1.3188 -1.3107 -0.1117
  847MOL0     H16865   6.410   8.283   1.106  0.9876  0.4863 -1.3956
  847MOL0     H16866   6.413   7.376   1.460 -1.7909  0.9356 -1.2257
  847MOL0     H16867   6.368   7.325   1.680 -3.1274  1.0648  0.5725
  847MOL0     H16868   6.097   7.219   2.060 -1.8244 -1.1333  2.7955
  847MOL0     H16869   5.894   7.229   2.204  1.2988 -2.1564 -3.6780
  847MOL0     H16870   4.712   7.850   3.338  0.2353 -0.2614 -0.7486
  847MOL0     H16871   4.454   7.894   3.374  0.8774 -0.7052 -1.0799
  847MOL0     H16872   4.139   7.972   3.408  0.0732 -0.1031  0.2096
  847MOL0     H16873   3.899   8.002   3.369 -3.2476  0.3763  0.8200
  847MOL0     H16874   3.599   7.899   3.681 -1.1615 -0.1652 -3.8901
  847MOL0     H16875   3.653   8.071   3.715  0.8670  0.4464 -0.4408
  847MOL0     H16876   3.503   8.153   3.569 -0.0606  0.0777  1.1573
  847MOL0     H16877   3.417   8.031   3.668  1.7872 -1.1242  2.1418
  847MOL0     H16878   3.511   7.999   3.371  0.2021 -3.2720 -0.4288
  847MOL0     H16879   3.434   7.868   3.451 -3.0291 -0.4381 -1.7861
  847MOL0     H16880   3.306   8.051   3.303  2.2401  3.4588  0.2888
  847MOL0     H16881   3.287   8.124   3.464  0.4843 -0.4095 -1.1260
  847MOL0     H16882   3.054   7.813   3.598 -0.4478  2.2605  2.3117
  847MOL0     H16883   3.818   7.905   3.776 -2.6838  1.2461 -2.8173
  847MOL0     H16884   4.121   7.733   3.850  0.8786 -0.0018  0.4678
  847MOL0     H16885   4.151   7.899   3.899 -1.0252 -0.0878  1.4486
  847MOL0     H16886   3.996   7.833   3.930  0.7305 -2.5871  0.1703
  848MOL0     O16887   6.527  10.058   7.610  0.1029 -0.2818 -0.5147
  848MOL0     C16888   6.519  10.036   7.494 -0.5822 -0.3056  0.0848
  848MOL0     O16889   6.405  10.043   7.410 -0.3055 -0.4526 -0.4520
  848MOL0     C16890   6.288  10.105   7.452  0.1736 -0.2856  1.7606
  848MOL0     C16891   6.211  10.168   7.354 -0.0494 -0.3669  0.3753
  848MOL0     C16892   6.086  10.235   7.386 -0.2864  0.0831  0.4160
  848MOL0     C16893   6.043  10.240   7.526 -0.8504 -0.1777 -1.3370
  848MOL0     O16894   5.938  10.309   7.582  0.7050 -0.2136  0.6889
  848MOL0     C16895   5.864  10.389   7.491 -0.6638  0.3298 -0.6714
  848MOL0     C16896   5.775  10.486   7.570 -0.4494 -0.8796  0.7555
  848MOL0     C16897   5.863  10.591   7.640  0.4924 -0.4035 -0.1146
  848MOL0     C16898   5.779  10.711   7.681 -0.2044 -0.0472  0.1512
  848MOL0     C16899   5.848  10.802   7.783  0.3141 -0.0652 -0.0968
  848MOL0     C16900   5.945  10.903   7.723  0.0152  0.1438  0.8418
  848MOL0     C16901   5.998  10.998   7.830  0.1119  1.0092 -0.2101
  848MOL0     C16902   6.063  11.119   7.772 -0.3241  0.9758  0.0533
  848MOL0     N16903   6.141  11.197   7.877 -0.3633 -0.5654  0.0827
  848MOL0     C16904   6.252  11.163   7.944 -0.0100  0.5997 -0.5674
  848MOL0     C16905   6.286  11.273   8.011  0.5694  0.3781  0.1748
  848MOL0     C16906   6.413  11.276   8.085  0.3396  0.1519 -0.4973
  848MOL0     C16907   6.436  11.415   8.155 -0.1083  0.4742 -0.2625
  848MOL0     C16908   6.571  11.395   8.236 -0.6208 -0.6032  0.3392
  848MOL0     C16909   6.616  11.525   8.296 -0.5635 -0.2670 -0.4045
  848MOL0     O16910   6.533  11.580   8.397  0.1174  0.5721 -0.5785
  848MOL0     C16911   6.540  11.525   8.530  0.0416 -1.0171  0.2883
  848MOL0     C16912   6.448  11.583   8.615  0.2318  0.1652  0.0527
  848MOL0     C16913   6.453  11.553   8.755  0.5918 -0.0487 -0.4808
  848MOL0     C16914   6.331  11.599   8.842 -0.1617 -0.1565  0.2726
  848MOL0     C16915   6.554  11.469   8.802  0.5839 -0.1226  0.2424
  848MOL0     C16916   6.567  11.451   8.943  0.2137 -0.0954  0.3536
  848MOL0     O16917   6.590  11.559   9.020 -0.6038  0.1821  0.2886
  848MOL0     C16918   6.633  11.530   9.149  0.5656 -0.6386  0.0716
  848MOL0     C16919   6.555  11.460   9.247  0.1271  0.1317 -0.0136
  848MOL0     C16920   6.622  11.431   9.368 -0.5998 -0.9894 -0.2418
  848MOL0     C16921   6.756  11.464   9.399  1.1179 -0.2181  0.6717
  848MOL0     O16922   6.799  11.433   9.527  0.4470  0.3143 -0.5305
  848MOL0     C16923   6.936  11.415   9.537  0.3550  0.4375  0.2460
  848MOL0     C16924   6.951  11.304   9.649  0.2711 -0.4650 -0.2289
  848MOL0     C16925   6.959  11.161   9.584  0.1559 -0.2265 -1.6509
  848MOL0     C16926   7.027  11.056   9.685  1.2388  1.0840  0.8995
  848MOL0     C16927   7.003  10.909   9.642  0.6114  0.1147 -0.5876
  848MOL0     C16928   6.872  10.842   9.679  0.0626  0.4033 -0.3903
  848MOL0     C16929   6.859  10.797   9.818 -0.4624  0.0011  0.2771
  848MOL0     C16930   6.723  10.755   9.855  0.8008  0.1878 -0.4804
  848MOL0    Cl16931   6.730  10.740  10.044  0.4679 -0.2363  0.1677
  848MOL0     C16932   6.814  11.540   9.307 -0.7402 -0.0546  0.6058
  848MOL0     C16933   6.757  11.586   9.189  0.8280  0.6889 -0.0368
  848MOL0     O16934   6.579  11.335   8.981 -0.6518 -0.8079  0.1803
  848MOL0     C16935   6.653  11.422   8.711  0.2080  0.4008 -0.7558
  848MOL0     C16936   6.643  11.451   8.576  0.2853  0.1681 -0.4848
  848MOL0     N16937   6.190  11.362   7.993  0.7289 -0.5845 -0.5848
  848MOL0     N16938   6.102  11.320   7.912  0.1628  0.3343  0.3097
  848MOL0     C16939   6.121  10.173   7.614 -0.0782 -0.2827 -0.0182
  848MOL0     C16940   6.233  10.097   7.579 -0.3749 -0.2086 -0.3631
  848MOL0     C16941   6.646   9.987   7.437 -0.0607  0.3562  0.8914
  848MOL0     C16942   6.636   9.892   7.333 -0.7178 -0.6180 -1.1001
  848MOL0     C16943   6.744   9.855   7.255 -0.6951 -0.1855  1.2787
  848MOL0     C16944   6.865   9.915   7.268  0.1605  0.6947  0.2616
  848MOL0     O16945   6.953   9.883   7.166  0.1505  0.1275 -0.2163
  848MOL0     C16946   7.094   9.903   7.196 -0.3511 -0.0794  0.8746
  848MOL0     C16947   7.136  10.039   7.137  0.2382 -0.7739  0.4691
  848MOL0     C16948   7.293  10.052   7.125  0.7226  0.0003 -0.4805
  848MOL0     C16949   7.345  10.197   7.107  0.4248  0.1694  0.2617
  848MOL0     C16950   7.341  10.285   7.218 -0.1551  0.0053 -0.6774
  848MOL0     C16951   7.323  10.370   7.308  0.8979 -0.0042  0.1530
  848MOL0     C16952   6.877  10.015   7.364  0.1009 -0.3143 -0.3457
  848MOL0     C16953   6.772  10.052   7.452  0.3342 -0.3908  0.8324
  848MOL0     C16954   6.796  10.171   7.545  0.4255  0.1140  0.4212
  848MOL0     H16955   6.252  10.174   7.254  3.0061 -1.6090  1.4285
  848MOL0     H16956   6.028  10.287   7.310  1.6188  2.9608  0.7342
  848MOL0     H16957   5.805  10.326   7.424  1.1125 -1.4365 -0.6376
  848MOL0     H16958   5.935  10.448   7.432 -1.2060 -1.4051 -3.2447
  848MOL0     H16959   5.710  10.532   7.495 -0.1569  0.1645  1.1328
  848MOL0     H16960   5.710  10.436   7.642 -2.2986  0.3856  0.0329
  848MOL0     H16961   5.901  10.529   7.722  1.0581 -0.8480 -0.6998
  848MOL0     H16962   5.937  10.620   7.565  1.5536  0.7875  1.3296
  848MOL0     H16963   5.747  10.771   7.596 -0.3200 -0.3955 -0.0542
  848MOL0     H16964   5.681  10.686   7.721 -0.9155 -1.4683 -2.2827
  848MOL0     H16965   5.907  10.743   7.854  0.1359 -0.5060 -0.3147
  848MOL0     H16966   5.781  10.862   7.846  0.3514  1.3527 -1.3566
  848MOL0     H16967   6.028  10.840   7.690 -0.1017  1.0892 -1.4854
  848MOL0     H16968   5.902  10.944   7.631 -0.6097 -0.2921  0.9309
  848MOL0     H16969   6.063  10.939   7.895 -3.2151 -0.6060  1.8924
  848MOL0     H16970   5.919  11.041   7.892  2.4045  0.2568  3.5406
  848MOL0     H16971   6.139  11.073   7.708  0.1461 -3.5148  3.3734
  848MOL0     H16972   5.986  11.185   7.730 -1.1065  2.7992  3.9660
  848MOL0     H16973   6.300  11.066   7.937  1.3947  1.1267  0.9740
  848MOL0     H16974   6.503  11.240   8.034  2.0256  0.1496  2.2352
  848MOL0     H16975   6.399  11.214   8.174  1.1447  1.6002  0.6959
  848MOL0     H16976   6.440  11.503   8.090 -2.6199  0.2728 -0.7779
  848MOL0     H16977   6.356  11.432   8.228  0.6211 -0.8741  0.9027
  848MOL0     H16978   6.561  11.322   8.316  2.0434 -0.5058  0.8277
  848MOL0     H16979   6.656  11.362   8.176 -0.0656  1.5209 -0.1182
  848MOL0     H16980   6.715  11.503   8.337 -0.2719  0.2150 -0.8451
  848MOL0     H16981   6.623  11.605   8.222  1.2810 -0.2914 -0.3095
  848MOL0     H16982   6.368  11.646   8.577 -1.3963  0.8293  4.0453
  848MOL0     H16983   6.233  11.573   8.802 -0.9730 -0.0004  2.0510
  848MOL0     H16984   6.328  11.709   8.840  1.5956 -0.0807 -0.5773
  848MOL0     H16985   6.334  11.561   8.945  0.5648 -0.5895  0.1011
  848MOL0     H16986   6.458  11.421   9.216 -0.6326  0.9385  1.2486
  848MOL0     H16987   6.563  11.390   9.450 -0.4182  3.8459  2.6782
  848MOL0     H16988   6.983  11.372   9.448  2.6477 -0.0975  1.6445
  848MOL0     H16989   6.997  11.498   9.574 -1.5806  0.2520  4.3906
  848MOL0     H16990   7.046  11.331   9.696 -1.5828  2.3305  2.2576
  848MOL0     H16991   6.875  11.304   9.728  2.1304  1.9567  1.7222
  848MOL0     H16992   7.006  11.172   9.486 -3.0383 -0.4286 -3.3309
  848MOL0     H16993   6.856  11.131   9.565  0.1010  0.6161 -2.8510
  848MOL0     H16994   6.989  11.063   9.787 -1.0248  1.8242  0.0943
  848MOL0     H16995   7.134  11.075   9.687  1.2169  1.2224  0.7524
  848MOL0     H16996   7.022  10.891   9.535  1.9368 -1.3951 -0.1402
  848MOL0     H16997   7.078  10.865   9.709 -0.2256  4.0613  3.4215
  848MOL0     H16998   6.858  10.755   9.614 -1.4764 -0.6015  1.1970
  848MOL0     H16999   6.785  10.903   9.655  1.3819  1.8000 -1.8150
  848MOL0     H17000   6.886  10.873   9.891  1.4885  0.3271 -0.7221
  848MOL0     H17001   6.923  10.710   9.837 -1.8128 -1.1237 -0.1873
  848MOL0     H17002   6.696  10.658   9.811  0.5376  0.8041 -1.6929
  848MOL0     H17003   6.642  10.824   9.833 -3.9505 -3.6158  2.7182
  848MOL0     H17004   6.914  11.579   9.324  0.4219 -2.3167 -0.5798
  848MOL0     H17005   6.800  11.660   9.122  0.9854  0.7447  0.1241
  848MOL0     H17006   6.739  11.368   8.750  0.5239  0.3503 -1.5022
  848MOL0     H17007   6.710  11.395   8.512 -3.1879 -1.8296 -2.7028
  848MOL0     H17008   6.097  10.168   7.720 -0.4085 -0.7804 -0.1121
  848MOL0     H17009   6.290  10.042   7.654  0.3871  0.4705 -0.4386
  848MOL0     H17010   6.536   9.850   7.326 -1.4259  0.7130  0.5487
  848MOL0     H17011   6.750   9.773   7.184  2.5747 -0.8071  2.1009
  848MOL0     H17012   7.115   9.911   7.303  1.8517  2.7948  0.3795
  848MOL0     H17013   7.160   9.822   7.164 -1.4494 -0.7977  0.3890
  848MOL0     H17014   7.082  10.116   7.193 -1.1872 -0.2589 -1.4930
  848MOL0     H17015   7.089  10.052   7.038 -2.3984 -0.3460  1.6936
  848MOL0     H17016   7.337  10.002   7.213 -0.4891 -0.7975 -0.3026
  848MOL0     H17017   7.332   9.989   7.045  1.9026  1.9168 -1.4794
  848MOL0     H17018   7.294  10.242   7.022  1.7012  1.9342  0.3646
  848MOL0     H17019   7.452  10.191   7.086  0.1298 -1.2352 -0.9306
  848MOL0     H17020   7.306  10.422   7.400  1.2857  1.0586 -0.3590
  848MOL0     H17021   6.970  10.067   7.383 -2.7493  4.3526  3.0058
  848MOL0     H17022   6.704  10.214   7.585 -2.3180 -3.9401 -0.8857
  848MOL0     H17023   6.850  10.147   7.637 -2.2311  2.6864  2.8598
  848MOL0     H17024   6.854  10.240   7.483  2.0246 -0.9901  0.6118
  849MOL0     O17025   1.142   1.542   0.082 -0.5472  0.1938 -0.3338
  849MOL0     C17026   1.145   1.649   0.019 -0.0523  0.6420 -0.8344
  849MOL0     O17027   1.119   1.765   0.082 -0.9161 -0.5454  0.2654
  849MOL0     C17028   1.076   1.755   0.211  0.8777  0.2261  0.4695
  849MOL0     C17029   1.154   1.801   0.304 -0.4940  1.0487  0.6675
  849MOL0     C17030   1.109   1.815   0.432 -0.2987  0.3077 -0.8699
  849MOL0     C17031   0.983   1.780   0.468 -0.5077 -0.2249  0.2852
  849MOL0     O17032   0.936   1.793   0.592 -0.5178 -0.1204  0.7086
  849MOL0     C17033   0.935   1.927   0.651  0.0805  0.5759  0.1891
  849MOL0     C17034   0.881   1.924   0.792  0.4843 -0.4272  0.1405
  849MOL0     C17035   0.735   1.888   0.789  0.0618 -0.7639  0.1792
  849MOL0     C17036   0.649   1.991   0.875 -0.4351 -0.3661  0.0808
  849MOL0     C17037   0.498   1.968   0.878 -0.2322  0.9899 -0.1110
  849MOL0     C17038   0.439   2.071   0.966  0.3607 -0.1756 -0.5540
  849MOL0     C17039   0.293   2.108   0.949 -0.6427  0.1768  0.2992
  849MOL0     C17040   0.207   1.985   0.949  0.3256 -0.0226  0.3480
  849MOL0     N17041   0.090   2.017   1.029 -0.4935  0.1743  0.1110
  849MOL0     C17042  -0.006   2.119   1.014 -0.6993  0.2109  0.2211
  849MOL0     C17043  -0.095   2.098   1.114 -0.2197 -0.0251  0.1137
  849MOL0     C17044  -0.217   2.186   1.138 -1.1570  0.9042  0.0724
  849MOL0     C17045  -0.314   2.185   1.024 -0.8058  0.4420  0.1397
  849MOL0     C17046  -0.381   2.051   0.992  0.2967  0.3832  0.0472
  849MOL0     C17047  -0.516   2.066   0.916 -1.2819 -0.5914  0.7761
  849MOL0     O17048  -0.529   2.183   0.842  0.2950 -0.3104 -0.1408
  849MOL0     C17049  -0.641   2.257   0.835  0.7680  0.0532 -0.9661
  849MOL0     C17050  -0.627   2.390   0.797  0.0230 -0.2322 -0.3694
  849MOL0     C17051  -0.743   2.468   0.788 -0.2472 -0.5621 -0.3839
  849MOL0     C17052  -0.723   2.620   0.753  0.4784  0.8570 -0.5647
  849MOL0     C17053  -0.875   2.417   0.821 -1.0364  0.0342  0.4888
  849MOL0     C17054  -1.002   2.494   0.817 -0.5688 -0.5578 -0.0521
  849MOL0     O17055  -0.995   2.626   0.780 -0.5863 -0.1352  0.3226
  849MOL0     C17056  -1.093   2.709   0.761  0.7854 -1.4025  0.6577
  849MOL0     C17057  -1.217   2.706   0.834  0.9547 -0.3151 -1.1814
  849MOL0     C17058  -1.319   2.799   0.810  0.0528 -0.6821 -0.0609
  849MOL0     C17059  -1.312   2.895   0.711 -0.8043 -0.2106  0.4585
  849MOL0     O17060  -1.403   2.995   0.681 -0.4507  0.0134  0.2495
  849MOL0     C17061  -1.539   2.955   0.683  0.1784  0.3419 -0.2058
  849MOL0     C17062  -1.615   2.998   0.809  0.1665  0.0262  0.6395
  849MOL0     C17063  -1.752   2.920   0.812 -0.6686 -0.3687  0.3402
  849MOL0     C17064  -1.853   2.955   0.690  0.1229  0.7339  0.4509
  849MOL0     C17065  -1.987   2.900   0.739 -0.2159 -0.0534  0.7996
  849MOL0     C17066  -2.085   2.906   0.629  0.5128 -0.3493  0.0023
  849MOL0     C17067  -2.228   2.866   0.678 -0.7616  0.3768 -0.1943
  849MOL0     C17068  -2.340   2.950   0.617  0.3011 -0.1476 -0.1286
  849MOL0    Cl17069  -2.502   2.931   0.707  0.0895  0.1432  0.5224
  849MOL0     C17070  -1.189   2.900   0.639 -0.7252 -0.8185  0.2470
  849MOL0     C17071  -1.087   2.806   0.663 -0.9466  0.3897  0.3027
  849MOL0     O17072  -1.102   2.437   0.863 -0.1538  0.0408  0.0461
  849MOL0     C17073  -0.884   2.276   0.857  0.4400  0.0432 -0.2222
  849MOL0     C17074  -0.764   2.203   0.853 -0.4317  0.0883  0.2156
  849MOL0     N17075  -0.049   1.983   1.186  0.7200  0.3059  1.3618
  849MOL0     N17076   0.053   1.934   1.131  0.3664 -0.8051  0.6816
  849MOL0     C17077   0.899   1.725   0.371  0.2775 -0.2163  0.4809
  849MOL0     C17078   0.945   1.715   0.238  0.9132  0.7391  0.3547
  849MOL0     C17079   1.188   1.653  -0.123  0.5521  0.5787  0.3733
  849MOL0     C17080   1.151   1.761  -0.210  0.3569 -0.6124 -1.0516
  849MOL0     C17081   1.198   1.771  -0.341 -0.0973 -0.1578 -1.2566
  849MOL0     C17082   1.277   1.667  -0.399  0.0044 -0.3445  0.6701
  849MOL0     O17083   1.336   1.671  -0.516  0.6928 -0.5202 -0.2821
  849MOL0     C17084   1.295   1.572  -0.608  0.2938 -0.3990 -0.6539
  849MOL0     C17085   1.374   1.585  -0.734  0.1554 -0.2608  0.1310
  849MOL0     C17086   1.370   1.712  -0.811  0.1700  0.8922  0.5837
  849MOL0     C17087   1.458   1.699  -0.942 -0.9244  0.0446  0.4726
  849MOL0     C17088   1.548   1.820  -0.955  0.0006 -0.3889  0.2110
  849MOL0     C17089   1.635   1.903  -0.947 -0.3541  0.1396  1.1490
  849MOL0     C17090   1.306   1.561  -0.314  0.1153  0.3195  0.2007
  849MOL0     C17091   1.264   1.544  -0.182 -0.3630  0.3216  0.9853
  849MOL0     C17092   1.295   1.405  -0.114 -0.5370 -0.0495  0.4733
  849MOL0     H17093   1.256   1.829   0.278 -0.7074  1.3835  0.1937
  849MOL0     H17094   1.168   1.862   0.510  0.4220  0.2680 -1.3869
  849MOL0     H17095   0.868   1.997   0.601 -2.2896  0.1257  2.5466
  849MOL0     H17096   1.039   1.959   0.666 -0.3165  0.5609  4.0407
  849MOL0     H17097   0.934   1.836   0.830 -0.3503 -2.4646 -3.0686
  849MOL0     H17098   0.901   2.020   0.841  3.3689  0.8826 -3.1558
  849MOL0     H17099   0.694   1.903   0.688  2.3452  1.6099 -0.5049
  849MOL0     H17100   0.727   1.786   0.827  1.2444 -1.3986 -1.2105
  849MOL0     H17101   0.688   1.996   0.977 -1.3374  3.2793  0.3949
  849MOL0     H17102   0.660   2.089   0.827 -0.9833  1.8508  4.0926
  849MOL0     H17103   0.480   1.870   0.923  2.6717  0.3031 -0.2988
  849MOL0     H17104   0.461   1.975   0.775  0.9672  4.8660 -0.4586
  849MOL0     H17105   0.443   2.032   1.068  3.4120 -1.0196 -0.9112
  849MOL0     H17106   0.499   2.162   0.964  3.2962 -1.8807  1.9666
  849MOL0     H17107   0.295   2.153   0.849  0.2719  1.0226  0.6782
  849MOL0     H17108   0.278   2.184   1.026  0.1074  3.1511 -2.2662
  849MOL0     H17109   0.173   1.964   0.848  1.0609 -0.1044  0.1125
  849MOL0     H17110   0.261   1.895   0.980 -0.1889 -0.8142 -0.9950
  849MOL0     H17111  -0.020   2.194   0.936 -1.0525  0.5077  0.5664
  849MOL0     H17112  -0.178   2.284   1.167 -0.9025  0.7466  0.2619
  849MOL0     H17113  -0.263   2.157   1.232  1.0520 -0.4601  0.8055
  849MOL0     H17114  -0.393   2.257   1.047 -1.4102 -0.8487  2.4435
  849MOL0     H17115  -0.262   2.224   0.936  0.9781 -3.1178 -0.5624
  849MOL0     H17116  -0.310   1.987   0.938  0.5866  1.5921 -1.0634
  849MOL0     H17117  -0.408   1.996   1.083  1.2925 -2.1501 -1.0961
  849MOL0     H17118  -0.527   1.980   0.849 -0.8959  0.9016 -1.3073
  849MOL0     H17119  -0.592   2.059   0.995 -0.6934 -1.1832  1.3044
  849MOL0     H17120  -0.535   2.422   0.750  2.1237 -1.3776  2.6498
  849MOL0     H17121  -0.771   2.691   0.822 -0.9431 -1.1841  0.6510
  849MOL0     H17122  -0.766   2.637   0.654 -2.8178 -2.1942  0.1363
  849MOL0     H17123  -0.617   2.647   0.756  0.2858  1.5881 -0.1240
  849MOL0     H17124  -1.227   2.635   0.915  0.1341 -0.9345 -1.8047
  849MOL0     H17125  -1.407   2.798   0.874 -0.6787  0.4380 -1.0095
  849MOL0     H17126  -1.594   3.000   0.600 -1.8107 -0.6911  0.4725
  849MOL0     H17127  -1.537   2.848   0.660 -0.0986  0.0737  0.9584
  849MOL0     H17128  -1.556   2.984   0.901 -0.7250  0.3254  1.2702
  849MOL0     H17129  -1.639   3.104   0.807  1.7653  0.4398 -2.7832
  849MOL0     H17130  -1.792   2.930   0.914  0.4337 -3.3788  1.1589
  849MOL0     H17131  -1.720   2.816   0.808 -1.0619 -0.4624 -3.2855
  849MOL0     H17132  -1.812   2.885   0.616  1.0397 -1.8165  3.1637
  849MOL0     H17133  -1.858   3.057   0.651  1.2257 -0.0761 -1.9849
  849MOL0     H17134  -1.976   2.796   0.770  1.2875 -0.3567 -0.6296
  849MOL0     H17135  -2.012   2.972   0.818  1.1301  0.9809  0.3129
  849MOL0     H17136  -2.053   2.835   0.552  1.5158 -1.8314  1.6922
  849MOL0     H17137  -2.090   3.007   0.588 -1.5613  0.6906  2.4952
  849MOL0     H17138  -2.236   2.887   0.785  3.0662  1.2431  0.0739
  849MOL0     H17139  -2.241   2.760   0.653  2.6534  0.2901 -2.2446
  849MOL0     H17140  -2.358   2.931   0.510 -2.1964 -2.2001  0.5511
  849MOL0     H17141  -2.325   3.057   0.630 -1.5824  0.0823  0.3919
  849MOL0     H17142  -1.183   2.981   0.567  1.7166  3.8656  5.0984
  849MOL0     H17143  -1.002   2.803   0.596 -2.2025  1.8488 -1.4792
  849MOL0     H17144  -0.986   2.242   0.870  0.3215  0.8280  1.0488
  849MOL0     H17145  -0.773   2.100   0.884  1.6176 -0.5331 -1.0487
  849MOL0     H17146   0.796   1.692   0.381 -0.2332  0.3405 -2.2031
  849MOL0     H17147   0.880   1.676   0.160  1.4461  1.5687 -0.5226
  849MOL0     H17148   1.094   1.846  -0.175  2.7755  0.8530 -0.4518
  849MOL0     H17149   1.165   1.856  -0.400  0.0005 -0.8011 -2.2690
  849MOL0     H17150   1.310   1.471  -0.569  2.8031  1.5596  4.2368
  849MOL0     H17151   1.191   1.602  -0.626 -0.2934 -0.9975  1.5439
  849MOL0     H17152   1.336   1.513  -0.806  1.2923  0.5871 -1.3769
  849MOL0     H17153   1.477   1.552  -0.716  0.3419  0.3500  0.2219
  849MOL0     H17154   1.268   1.741  -0.839  0.5520  1.6611 -0.0449
  849MOL0     H17155   1.405   1.790  -0.743  1.5421 -0.1189  1.0663
  849MOL0     H17156   1.404   1.685  -1.036  0.1124 -3.2941  0.2171
  849MOL0     H17157   1.522   1.610  -0.942  0.2464  0.7431 -2.8075
  849MOL0     H17158   1.712   1.978  -0.946 -1.6967  1.5658  1.9405
  849MOL0     H17159   1.346   1.469  -0.355 -1.7604  0.0410 -1.1881
  849MOL0     H17160   1.307   1.409  -0.006 -0.0292 -0.2188  0.4262
  849MOL0     H17161   1.213   1.334  -0.131 -2.4886  1.9505  1.0337
  849MOL0     H17162   1.387   1.367  -0.159 -0.9501  0.1469 -0.5763
  850MOL0     O17163   5.027   4.064   0.586 -1.2682 -1.0486 -0.0444
  850MOL0     C17164   5.110   4.079   0.491  0.5553  0.0134  1.1765
  850MOL0     O17165   5.122   4.190   0.404  0.3402 -0.4654  0.1248
  850MOL0     C17166   5.034   4.289   0.433  1.2048 -0.6562 -0.2966
  850MOL0     C17167   4.927   4.319   0.352  0.4085  0.1117  0.9821
  850MOL0     C17168   4.833   4.416   0.389 -0.0090  0.0408  0.2461
  850MOL0     C17169   4.844   4.501   0.499 -0.9677  0.0536  0.2341
  850MOL0     O17170   4.744   4.589   0.539 -0.6084 -0.2041  0.3179
  850MOL0     C17171   4.614   4.550   0.526  0.6756  0.2285  0.2659
  850MOL0     C17172   4.541   4.602   0.654  1.0073  0.7404 -0.2226
  850MOL0     C17173   4.397   4.552   0.666 -0.0207 -1.1598 -0.2162
  850MOL0     C17174   4.341   4.557   0.813 -0.5175 -0.5276  0.7803
  850MOL0     C17175   4.227   4.460   0.837 -0.3881  0.5166  0.8049
  850MOL0     C17176   4.156   4.477   0.970 -0.0856  0.4803 -0.8146
  850MOL0     C17177   4.051   4.373   0.974  0.1459  0.0572 -0.2874
  850MOL0     C17178   3.974   4.392   1.108 -0.3742  0.3406 -0.2734
  850MOL0     N17179   3.839   4.342   1.117 -0.0486  0.3617 -0.5281
  850MOL0     C17180   3.739   4.401   1.190 -0.5766 -0.3978 -0.1471
  850MOL0     C17181   3.637   4.318   1.185  0.3530 -0.0417  0.0554
  850MOL0     C17182   3.501   4.354   1.231  0.0675  0.3315 -0.7169
  850MOL0     C17183   3.447   4.451   1.128  0.2503 -0.2568 -0.2012
  850MOL0     C17184   3.304   4.491   1.165 -0.4520 -0.0045 -0.6786
  850MOL0     C17185   3.252   4.582   1.063 -0.5591  1.1586  0.1984
  850MOL0     O17186   3.322   4.708   1.060  1.0306 -0.1262  0.7287
  850MOL0     C17187   3.284   4.780   0.947 -0.4859  0.8181  0.1416
  850MOL0     C17188   3.352   4.899   0.917  0.3826 -0.1493 -0.2988
  850MOL0     C17189   3.323   4.970   0.796  0.4906 -0.0255 -0.6162
  850MOL0     C17190   3.428   5.073   0.756 -0.6883 -0.4067 -0.1225
  850MOL0     C17191   3.205   4.938   0.725  0.1636  0.7549  0.1941
  850MOL0     C17192   3.144   5.001   0.602  0.0539  0.1723 -0.4765
  850MOL0     O17193   3.048   4.928   0.533  0.4881 -0.8492 -0.0563
  850MOL0     C17194   2.950   4.980   0.456 -0.0410 -0.6154  0.0609
  850MOL0     C17195   2.910   4.899   0.349  1.1825 -0.8782 -0.1058
  850MOL0     C17196   2.789   4.928   0.290  0.4449  0.6281 -0.2080
  850MOL0     C17197   2.704   5.039   0.320 -0.1987  0.2960 -0.9481
  850MOL0     O17198   2.591   5.071   0.250 -0.2107 -0.2445 -0.5574
  850MOL0     C17199   2.561   5.038   0.107  0.7233  0.2447 -0.5904
  850MOL0     C17200   2.661   5.109   0.017 -0.0166 -0.7086  0.0521
  850MOL0     C17201   2.718   5.250   0.048 -0.1103  0.4080  0.1914
  850MOL0     C17202   2.609   5.354   0.071 -0.2528 -0.3489  0.2561
  850MOL0     C17203   2.670   5.497   0.076 -0.3713  0.8675 -0.6315
  850MOL0     C17204   2.555   5.602   0.041  0.8663 -0.4198 -0.4071
  850MOL0     C17205   2.612   5.729   0.094 -0.5438 -0.4348 -0.1945
  850MOL0     C17206   2.516   5.847   0.065  1.1653  0.4199  0.2798
  850MOL0    Cl17207   2.359   5.865   0.154 -0.4482 -0.1377  0.2710
  850MOL0     C17208   2.744   5.118   0.427  0.4796  0.5323  0.5683
  850MOL0     C17209   2.862   5.080   0.501  0.1667 -0.1783  0.1351
  850MOL0     O17210   3.194   5.108   0.563 -0.9977  0.2356 -0.5197
  850MOL0     C17211   3.125   4.830   0.770  0.1563 -0.1933  0.5388
  850MOL0     C17212   3.165   4.758   0.871 -0.8325  0.5497 -0.4159
  850MOL0     N17213   3.683   4.206   1.114  0.2970 -0.2809  0.9189
  850MOL0     N17214   3.795   4.227   1.061  0.9806 -0.3967  0.8345
  850MOL0     C17215   4.961   4.479   0.573 -1.1601  0.7784  0.0173
  850MOL0     C17216   5.049   4.373   0.546 -0.2265 -0.3508 -0.5729
  850MOL0     C17217   5.186   3.963   0.454 -0.1423 -0.8241  0.0441
  850MOL0     C17218   5.302   3.990   0.368 -0.2689  0.0255 -0.1260
  850MOL0     C17219   5.380   3.884   0.321 -0.6641  0.0675 -0.0257
  850MOL0     C17220   5.331   3.753   0.334 -0.2201  0.1176  0.7504
  850MOL0     O17221   5.384   3.647   0.257 -0.0236  0.0965 -0.1109
  850MOL0     C17222   5.511   3.664   0.198 -0.5225  0.5394 -0.4049
  850MOL0     C17223   5.531   3.546   0.115 -0.3268 -0.5552 -0.0035
  850MOL0     C17224   5.495   3.544  -0.030 -0.4199  0.1473  0.3951
  850MOL0     C17225   5.356   3.606  -0.057 -0.2199  0.3506  0.7406
  850MOL0     C17226   5.313   3.591  -0.196 -0.1085  0.2516  0.7518
  850MOL0     C17227   5.282   3.586  -0.313  0.4928 -0.1331 -0.4634
  850MOL0     C17228   5.216   3.726   0.417 -0.0099  0.1402  0.5415
  850MOL0     C17229   5.137   3.822   0.480 -0.3911 -1.0477 -0.4851
  850MOL0     C17230   5.007   3.778   0.545  0.0082 -0.3272  0.6582
  850MOL0     H17231   4.914   4.257   0.264 -1.3075  3.8257 -1.6705
  850MOL0     H17232   4.747   4.423   0.324 -0.6117  0.8104  1.1128
  850MOL0     H17233   4.592   4.444   0.517 -2.1275  0.8015 -0.4776
  850MOL0     H17234   4.569   4.596   0.438 -1.1129 -2.1941 -0.1712
  850MOL0     H17235   4.593   4.557   0.739 -0.9828 -1.8846 -0.2566
  850MOL0     H17236   4.546   4.710   0.666  1.7377  0.7110 -0.2123
  850MOL0     H17237   4.334   4.612   0.599  0.1535  1.2888  1.6388
  850MOL0     H17238   4.389   4.449   0.630  1.6914 -0.3965 -3.0464
  850MOL0     H17239   4.424   4.535   0.882  0.3642 -0.8455 -0.3572
  850MOL0     H17240   4.318   4.662   0.834 -0.4072 -0.1982 -0.6707
  850MOL0     H17241   4.267   4.360   0.820 -0.3542  1.0159 -2.7876
  850MOL0     H17242   4.145   4.476   0.767 -1.0415 -0.8169  1.2419
  850MOL0     H17243   4.230   4.445   1.044  0.4896  0.2067 -1.4897
  850MOL0     H17244   4.120   4.579   0.979  1.2923  1.0010 -0.9641
  850MOL0     H17245   4.085   4.270   0.960 -1.1266 -0.4191 -0.0265
  850MOL0     H17246   3.981   4.392   0.892 -1.7186 -2.4014  0.5931
  850MOL0     H17247   4.032   4.354   1.193 -0.0254  2.1377  0.3279
  850MOL0     H17248   3.965   4.498   1.133 -1.6520 -0.3338  2.5736
  850MOL0     H17249   3.741   4.491   1.251 -0.9584 -0.4162 -0.1018
  850MOL0     H17250   3.518   4.397   1.330  0.2061  1.3239 -1.1591
  850MOL0     H17251   3.432   4.269   1.233 -2.1715  1.9243 -3.0420
  850MOL0     H17252   3.505   4.543   1.116 -2.6797  1.5017 -2.3961
  850MOL0     H17253   3.442   4.414   1.025  0.8390  0.9378 -0.6785
  850MOL0     H17254   3.238   4.405   1.180 -3.2684  1.9250 -1.1746
  850MOL0     H17255   3.314   4.542   1.261  1.8796 -2.0611  0.2701
  850MOL0     H17256   3.256   4.526   0.969  2.2404  3.1009 -0.9670
  850MOL0     H17257   3.148   4.598   1.093 -1.6067  0.2528 -2.6078
  850MOL0     H17258   3.434   4.933   0.979 -2.2818  3.6556  1.5108
  850MOL0     H17259   3.396   5.169   0.799 -1.5672 -1.0256  0.6344
  850MOL0     H17260   3.440   5.076   0.648  2.3941 -1.5145  0.0895
  850MOL0     H17261   3.518   5.036   0.805 -1.3990 -3.7744 -1.1313
  850MOL0     H17262   2.965   4.807   0.331  0.1348 -1.4859 -0.2666
  850MOL0     H17263   2.754   4.858   0.214  0.1035  0.6613 -0.0857
  850MOL0     H17264   2.542   4.934   0.081 -0.7183  0.7466 -1.6535
  850MOL0     H17265   2.465   5.089   0.099 -1.2187 -3.1324 -0.4685
  850MOL0     H17266   2.744   5.040  -0.000  2.1871  1.8583 -0.1557
  850MOL0     H17267   2.610   5.131  -0.077  0.1052  2.9210  0.7215
  850MOL0     H17268   2.781   5.273  -0.039  0.1178 -2.1348 -0.3791
  850MOL0     H17269   2.781   5.245   0.137  2.4921 -4.1583 -1.5451
  850MOL0     H17270   2.557   5.352   0.167 -2.3325 -0.6987 -0.8190
  850MOL0     H17271   2.534   5.348  -0.009  0.4233 -2.1489 -0.3012
  850MOL0     H17272   2.709   5.514   0.177 -1.2466  3.1493 -0.6088
  850MOL0     H17273   2.743   5.499  -0.006 -0.9526 -2.3997 -1.3469
  850MOL0     H17274   2.460   5.581   0.090 -0.8884  2.7382 -2.0866
  850MOL0     H17275   2.532   5.611  -0.066 -1.6457  4.8819  0.2526
  850MOL0     H17276   2.714   5.745   0.056  0.1141 -1.3576  1.1149
  850MOL0     H17277   2.628   5.711   0.200 -0.0475 -1.1133 -0.3744
  850MOL0     H17278   2.513   5.842  -0.044  1.0302 -0.3091  0.3167
  850MOL0     H17279   2.573   5.931   0.106  1.5048 -1.9398  5.3130
  850MOL0     H17280   2.693   5.211   0.451 -0.4856  0.4164 -0.8832
  850MOL0     H17281   2.868   5.127   0.598 -3.7701 -1.3863  1.1741
  850MOL0     H17282   3.031   4.811   0.719  0.8285 -0.9992 -0.4399
  850MOL0     H17283   3.092   4.679   0.887  0.8342 -0.8892  0.5022
  850MOL0     H17284   4.983   4.542   0.659  0.8601 -0.9637  0.8551
  850MOL0     H17285   5.129   4.364   0.619  2.0540  2.5644 -2.5265
  850MOL0     H17286   5.330   4.091   0.337  0.4876 -0.7849 -2.2829
  850MOL0     H17287   5.472   3.914   0.272 -1.0235  1.1622 -0.0528
  850MOL0     H17288   5.524   3.751   0.132  1.5276  0.1722 -0.5473
  850MOL0     H17289   5.590   3.660   0.272  2.6563 -1.9642 -3.5921
  850MOL0     H17290   5.476   3.461   0.157 -0.3053 -1.2254 -1.2850
  850MOL0     H17291   5.636   3.514   0.121 -0.6112 -1.2242  3.1889
  850MOL0     H17292   5.571   3.605  -0.080  0.1376 -1.3075 -0.6254
  850MOL0     H17293   5.506   3.443  -0.073  0.6296 -0.3846  1.8409
  850MOL0     H17294   5.365   3.710  -0.026 -2.6826  0.2822  1.9435
  850MOL0     H17295   5.280   3.561   0.008 -1.9891  0.4680 -1.1520
  850MOL0     H17296   5.252   3.591  -0.416 -0.9702 -1.2296 -0.1195
  850MOL0     H17297   5.186   3.622   0.422 -3.1746  0.8256 -1.1299
  850MOL0     H17298   5.018   3.761   0.653 -0.7631 -0.5744  0.7029
  850MOL0     H17299   4.925   3.848   0.532 -1.4139 -1.6693  1.9680
  850MOL0     H17300   4.980   3.689   0.488 -1.0958  0.3159  0.1613
  851MOL0     O17301   2.274   9.502   0.143 -0.2194 -0.3140 -0.2864
  851MOL0     C17302   2.245   9.514   0.264 -0.3146 -1.2732  0.7645
  851MOL0     O17303   2.333   9.500   0.370 -0.3128 -0.0149  0.6329
  851MOL0     C17304   2.471   9.519   0.356  1.4977  0.2014  0.9698
  851MOL0     C17305   2.524   9.611   0.265 -0.6063 -0.9045 -0.2182
  851MOL0     C17306   2.661   9.643   0.271  0.8567 -0.4424  0.6555
  851MOL0     C17307   2.744   9.571   0.357 -0.4020  0.6818 -0.3690
  851MOL0     O17308   2.879   9.602   0.350  0.7406 -0.1525 -0.2404
  851MOL0     C17309   2.978   9.506   0.398 -0.0322  0.0786  0.1072
  851MOL0     C17310   3.021   9.526   0.549  0.7193  0.5666  0.4665
  851MOL0     C17311   3.120   9.633   0.578  0.1899  0.6972 -0.7417
  851MOL0     C17312   3.272   9.601   0.608 -0.6769  0.2197 -0.3470
  851MOL0     C17313   3.351   9.737   0.643  0.5298  0.3628  0.4646
  851MOL0     C17314   3.371   9.819   0.518 -0.0374  0.0604 -0.2996
  851MOL0     C17315   3.432   9.956   0.561 -0.8127 -0.2889  0.0848
  851MOL0     C17316   3.336  10.059   0.619  0.6629  0.9044 -0.8934
  851MOL0     N17317   3.203  10.074   0.558  0.2066 -0.4451 -0.1030
  851MOL0     C17318   3.089  10.019   0.609 -0.2553  0.5173  0.2512
  851MOL0     C17319   3.000  10.027   0.504 -0.6792 -0.9442 -0.2529
  851MOL0     C17320   2.869   9.958   0.506  0.3257  0.7159 -0.2845
  851MOL0     C17321   2.760  10.060   0.542  0.0048  0.1260  1.0411
  851MOL0     C17322   2.633   9.998   0.590 -0.3309 -0.4288 -0.3946
  851MOL0     C17323   2.562   9.909   0.480 -0.0794 -0.5496 -0.8585
  851MOL0     O17324   2.574   9.970   0.351  0.1630  1.0174 -0.3505
  851MOL0     C17325   2.459  10.022   0.291  0.1950 -1.2462 -0.7012
  851MOL0     C17326   2.334   9.962   0.281  0.3267 -0.2212 -0.5312
  851MOL0     C17327   2.224  10.042   0.242 -0.5690  0.5872  0.8915
  851MOL0     C17328   2.087   9.984   0.262 -0.3228 -0.2931  0.1635
  851MOL0     C17329   2.246  10.172   0.184  0.7169  0.9366 -1.0962
  851MOL0     C17330   2.142  10.247   0.128  0.1362  0.0645  0.3436
  851MOL0     O17331   2.156  10.272  -0.005  0.4103  0.6653 -0.1141
  851MOL0     C17332   2.049  10.326  -0.073 -0.9218 -0.1775 -0.5316
  851MOL0     C17333   1.920  10.276  -0.067 -0.5808  0.3303  0.1096
  851MOL0     C17334   1.820  10.350  -0.131  0.2221  0.1592 -0.1801
  851MOL0     C17335   1.845  10.467  -0.210  0.4986 -0.4408 -0.5932
  851MOL0     O17336   1.745  10.523  -0.280  0.5121  0.5941  0.5973
  851MOL0     C17337   1.760  10.633  -0.379 -0.7963  0.2740  0.6562
  851MOL0     C17338   1.626  10.627  -0.453 -0.4176  0.1189 -0.4016
  851MOL0     C17339   1.509  10.695  -0.373 -1.2753  0.1985  1.0921
  851MOL0     C17340   1.524  10.850  -0.366  0.0543  0.2404  0.5022
  851MOL0     C17341   1.455  10.913  -0.248 -0.3688 -1.0837  0.2721
  851MOL0     C17342   1.304  10.913  -0.281 -0.2047 -0.4519 -1.0101
  851MOL0     C17343   1.224  10.946  -0.149  0.6214  0.4693 -0.4218
  851MOL0     C17344   1.077  10.971  -0.158 -0.1157  0.2628  0.0940
  851MOL0    Cl17345   0.999  11.023   0.004  0.0821 -0.4160  0.2340
  851MOL0     C17346   1.976  10.509  -0.213  0.4581 -0.3828  1.1297
  851MOL0     C17347   2.079  10.434  -0.156 -0.7328 -0.3830 -0.3958
  851MOL0     O17348   2.050  10.290   0.197 -0.7942 -0.2023 -0.3129
  851MOL0     C17349   2.375  10.220   0.181  1.1518 -0.7912  0.2274
  851MOL0     C17350   2.479  10.149   0.253  0.2869 -0.7773  0.3610
  851MOL0     N17351   3.051  10.092   0.396 -0.7181 -0.7545 -0.8010
  851MOL0     N17352   3.176  10.118   0.433 -0.0500 -0.0967 -0.4314
  851MOL0     C17353   2.689   9.470   0.434  0.4809 -0.1956 -0.1921
  851MOL0     C17354   2.552   9.443   0.442  0.6059  0.2267  0.7411
  851MOL0     C17355   2.107   9.546   0.302  0.4724 -0.2688 -0.0842
  851MOL0     C17356   2.082   9.606   0.427 -0.5874 -1.0691 -0.5405
  851MOL0     C17357   1.952   9.648   0.462 -0.5872 -0.4827 -0.1452
  851MOL0     C17358   1.848   9.637   0.376  0.0191  0.4661 -0.7318
  851MOL0     O17359   1.724   9.675   0.427  0.1505  0.2746  0.3607
  851MOL0     C17360   1.622   9.719   0.335 -0.1522 -0.2130  0.3820
  851MOL0     C17361   1.535   9.827   0.388  0.8864  0.0975 -0.0631
  851MOL0     C17362   1.461   9.772   0.514 -0.4339  0.0662  0.6380
  851MOL0     C17363   1.341   9.671   0.473  0.3144 -0.0711 -0.1739
  851MOL0     C17364   1.224   9.749   0.419  0.2393 -0.9087  0.3615
  851MOL0     C17365   1.127   9.805   0.381  1.2591  0.0322 -0.0062
  851MOL0     C17366   1.864   9.559   0.262 -0.3255 -0.5243 -0.3724
  851MOL0     C17367   1.990   9.529   0.218  0.5654  1.3709  0.2890
  851MOL0     C17368   2.009   9.450   0.087 -0.1516 -0.6918  0.3716
  851MOL0     H17369   2.472   9.661   0.184  0.3859  1.4796  0.5314
  851MOL0     H17370   2.718   9.715   0.212  1.6704 -0.3796  1.4897
  851MOL0     H17371   3.069   9.511   0.338 -0.0593  1.9317  0.1632
  851MOL0     H17372   2.944   9.403   0.386  0.7447 -0.2878  1.0061
  851MOL0     H17373   2.927   9.552   0.599 -1.5256 -1.7693 -2.2230
  851MOL0     H17374   3.061   9.431   0.587 -2.9982 -1.5238 -0.3556
  851MOL0     H17375   3.117   9.688   0.483 -1.3349  0.9490 -0.5781
  851MOL0     H17376   3.082   9.695   0.660 -1.6566 -0.6906 -0.4792
  851MOL0     H17377   3.284   9.535   0.695 -0.6128  0.9908  0.2436
  851MOL0     H17378   3.319   9.553   0.522  3.2357  1.8473  0.6802
  851MOL0     H17379   3.450   9.697   0.669 -0.6541 -2.9425  0.2995
  851MOL0     H17380   3.311   9.784   0.733  0.7004 -4.0475  3.1044
  851MOL0     H17381   3.453   9.787   0.453  2.2784  2.0986  1.4251
  851MOL0     H17382   3.279   9.835   0.460 -0.7217 -1.4114  0.3222
  851MOL0     H17383   3.469  10.016   0.477  0.2849  1.5966  1.8465
  851MOL0     H17384   3.511   9.938   0.634 -0.1308 -0.9807 -0.7997
  851MOL0     H17385   3.332  10.033   0.725  0.2731  2.8258 -0.3912
  851MOL0     H17386   3.387  10.156   0.619  2.0171  0.2443  0.6562
  851MOL0     H17387   3.060   9.974   0.704  0.9413 -0.4421  0.1799
  851MOL0     H17388   2.877   9.870   0.569  2.2851  0.4523 -0.8281
  851MOL0     H17389   2.847   9.910   0.411 -0.2230  2.1223 -0.8981
  851MOL0     H17390   2.808  10.115   0.624  2.6374 -1.7794  0.8866
  851MOL0     H17391   2.744  10.129   0.458 -0.7764 -2.0859 -0.7320
  851MOL0     H17392   2.666   9.933   0.672 -1.7993 -1.4034 -0.5427
  851MOL0     H17393   2.568  10.085   0.606  0.2949  0.6155 -2.9878
  851MOL0     H17394   2.614   9.813   0.484 -1.0752 -1.0737  0.1030
  851MOL0     H17395   2.461   9.889   0.516  0.2473 -2.0028 -0.6809
  851MOL0     H17396   2.313   9.864   0.323  1.1119 -0.3491 -0.4194
  851MOL0     H17397   2.034  10.001   0.168 -1.9071 -2.7892  0.5226
  851MOL0     H17398   2.037  10.041   0.341 -3.0870 -2.8447  0.4206
  851MOL0     H17399   2.099   9.877   0.283  2.4799  0.0159  0.5026
  851MOL0     H17400   1.903  10.187  -0.008 -1.8250  1.1417  1.0176
  851MOL0     H17401   1.717  10.314  -0.131 -0.3383  1.7142  0.1666
  851MOL0     H17402   1.799  10.728  -0.340  2.1796 -1.0453  1.1973
  851MOL0     H17403   1.844  10.599  -0.440  0.5837 -0.8665  3.0352
  851MOL0     H17404   1.645  10.676  -0.549  3.3280  2.0265  1.0869
  851MOL0     H17405   1.595  10.526  -0.480  0.6911 -0.2104 -0.5232
  851MOL0     H17406   1.500  10.646  -0.276  1.0624 -2.1091  0.2690
  851MOL0     H17407   1.424  10.672  -0.437  2.0792 -3.2259 -2.6838
  851MOL0     H17408   1.505  10.898  -0.462 -1.8537 -3.0118 -0.9293
  851MOL0     H17409   1.632  10.869  -0.362  0.2394  0.1051 -1.9894
  851MOL0     H17410   1.479  10.844  -0.166  4.2734 -1.8926 -1.4776
  851MOL0     H17411   1.493  11.014  -0.238 -0.4340 -1.0779  0.4591
  851MOL0     H17412   1.273  10.812  -0.310 -0.0942 -0.7806 -0.0312
  851MOL0     H17413   1.289  10.980  -0.366  0.5296 -1.8110 -2.2590
  851MOL0     H17414   1.266  11.030  -0.092  2.4966  0.2308 -1.3867
  851MOL0     H17415   1.247  10.859  -0.086  0.8912  0.5136 -0.4577
  851MOL0     H17416   1.033  10.874  -0.183  0.4705  0.1751 -0.6103
  851MOL0     H17417   1.051  11.037  -0.241 -1.4266 -2.1992 -1.5826
  851MOL0     H17418   2.015  10.600  -0.256  3.3559  0.8502  5.6093
  851MOL0     H17419   2.184  10.448  -0.181 -0.5046 -1.7997 -0.3227
  851MOL0     H17420   2.385  10.317   0.134 -0.4392  0.2535  1.8782
  851MOL0     H17421   2.577  10.193   0.265  0.8658 -2.2323  1.2237
  851MOL0     H17422   2.755   9.404   0.489 -1.5760 -2.9047 -0.7716
  851MOL0     H17423   2.512   9.361   0.502  0.5099 -0.0382  0.3240
  851MOL0     H17424   2.164   9.617   0.498 -0.0634 -1.8852 -1.0045
  851MOL0     H17425   1.922   9.694   0.556  0.6843  1.0227 -0.4183
  851MOL0     H17426   1.670   9.755   0.244  0.3441 -1.7313  0.0054
  851MOL0     H17427   1.570   9.636   0.286  2.8421 -0.3562 -2.9155
  851MOL0     H17428   1.466   9.860   0.311  0.5553 -2.3624 -0.9297
  851MOL0     H17429   1.581   9.921   0.419 -2.6346  1.7450  0.6792
  851MOL0     H17430   1.529   9.719   0.582  1.1845 -0.5283 -1.3602
  851MOL0     H17431   1.429   9.859   0.573  0.6615  1.4996 -0.7793
  851MOL0     H17432   1.315   9.605   0.556 -0.6682 -1.1644 -1.3195
  851MOL0     H17433   1.369   9.607   0.389  0.9905  1.3730 -1.0834
  851MOL0     H17434   1.037   9.851   0.347  1.5245  0.5710  0.0086
  851MOL0     H17435   1.772   9.532   0.210 -0.4298  1.4270 -1.3120
  851MOL0     H17436   2.072   9.505   0.016  0.2770  2.8263  3.1776
  851MOL0     H17437   2.056   9.353   0.107  1.9483  0.6001  2.2427
  851MOL0     H17438   1.911   9.438   0.041  0.2566 -0.7339 -0.5071
  852MOL0     O17439   1.923   3.428   5.343  1.1136 -0.2990  0.7444
  852MOL0     C17440   2.030   3.388   5.298  0.4444 -0.4162  0.8123
  852MOL0     O17441   2.142   3.470   5.298  0.0461  0.4487  0.5820
  852MOL0     C17442   2.260   3.441   5.229 -0.3297  0.7099  0.4012
  852MOL0     C17443   2.380   3.415   5.297 -0.3692  0.5732  0.5853
  852MOL0     C17444   2.496   3.404   5.219  0.9204 -0.9897  0.1021
  852MOL0     C17445   2.486   3.416   5.069 -0.8663 -0.4372 -0.7573
  852MOL0     O17446   2.607   3.407   5.004 -0.5933 -0.6245 -0.1393
  852MOL0     C17447   2.687   3.524   5.030 -0.6298  0.2817 -0.9189
  852MOL0     C17448   2.816   3.512   4.950  0.1119  0.4656  0.1532
  852MOL0     C17449   2.796   3.511   4.799  0.4943  0.1662 -0.3578
  852MOL0     C17450   2.904   3.427   4.734  0.7776 -0.1743 -0.3976
  852MOL0     C17451   2.903   3.440   4.589  0.0099  0.5983 -0.7808
  852MOL0     C17452   2.984   3.331   4.516  0.0427 -0.1324 -0.5273
  852MOL0     C17453   2.993   3.349   4.363  0.8798 -0.3546 -1.1737
  852MOL0     C17454   3.074   3.235   4.290  0.1101 -0.1884 -0.0511
  852MOL0     N17455   3.211   3.267   4.321  0.4048 -0.1644 -0.3719
  852MOL0     C17456   3.286   3.343   4.243 -0.3036 -0.8357  0.6332
  852MOL0     C17457   3.408   3.353   4.293 -0.0709 -0.1095  0.6308
  852MOL0     C17458   3.511   3.449   4.244 -0.5202  0.8694  0.2134
  852MOL0     C17459   3.534   3.455   4.101  0.5129  0.5936 -0.8689
  852MOL0     C17460   3.631   3.574   4.058  0.1265 -0.2563 -0.0608
  852MOL0     C17461   3.685   3.547   3.910 -0.2648 -0.2670 -0.8854
  852MOL0     O17462   3.758   3.663   3.882 -0.0675  0.4815  0.7488
  852MOL0     C17463   3.672   3.763   3.838  0.1058 -0.5430  0.8230
  852MOL0     C17464   3.570   3.758   3.737  0.5063  0.0550  0.4422
  852MOL0     C17465   3.494   3.868   3.706  0.1863 -0.4970  0.8721
  852MOL0     C17466   3.385   3.832   3.614 -0.0463 -0.2032  0.8455
  852MOL0     C17467   3.523   3.994   3.770  0.2245 -0.1194  0.1504
  852MOL0     C17468   3.443   4.119   3.727  0.0137  1.0445 -0.0325
  852MOL0     O17469   3.407   4.199   3.830  0.3719  0.3512 -0.2927
  852MOL0     C17470   3.297   4.289   3.819  0.3915 -0.6953 -0.9194
  852MOL0     C17471   3.214   4.300   3.712 -0.2213 -1.1517  0.4750
  852MOL0     C17472   3.118   4.405   3.704  0.6825 -0.4870  0.3361
  852MOL0     C17473   3.097   4.493   3.807 -1.3674 -1.2812 -0.1772
  852MOL0     O17474   2.994   4.575   3.796  0.5722  0.7465 -0.5075
  852MOL0     C17475   2.911   4.614   3.907  0.4180  0.3853  0.7254
  852MOL0     C17476   2.882   4.764   3.911  0.0806 -1.3735  0.7947
  852MOL0     C17477   2.995   4.867   3.889  0.3570 -0.1353 -0.6801
  852MOL0     C17478   2.937   5.008   3.903 -0.0068  0.2564  0.1305
  852MOL0     C17479   2.894   5.047   4.049 -0.2263  0.8963 -0.0473
  852MOL0     C17480   2.928   5.195   4.071  0.4411 -0.2053 -0.1415
  852MOL0     C17481   2.846   5.293   3.984  0.3918 -0.6183  0.8625
  852MOL0     C17482   2.837   5.438   4.031 -0.2289 -0.3406 -0.2241
  852MOL0    Cl17483   2.993   5.526   4.002  0.1582  0.2478 -0.2492
  852MOL0     C17484   3.186   4.483   3.917  1.0831  0.4991 -0.3991
  852MOL0     C17485   3.278   4.380   3.924 -0.8225 -0.5350 -0.3142
  852MOL0     O17486   3.426   4.142   3.611 -0.5657 -0.0988 -0.2885
  852MOL0     C17487   3.630   4.005   3.855  0.3656 -0.6916  0.1083
  852MOL0     C17488   3.705   3.890   3.883 -1.0250  0.3163  0.6197
  852MOL0     N17489   3.408   3.263   4.403 -0.7355  0.1124  0.2079
  852MOL0     N17490   3.291   3.213   4.412 -0.0757 -0.3866 -0.0169
  852MOL0     C17491   2.371   3.433   5.006  0.4261 -0.2882  0.5040
  852MOL0     C17492   2.255   3.444   5.088 -0.0986  0.0469  0.3195
  852MOL0     C17493   2.030   3.250   5.249  0.4027 -0.3028  0.3346
  852MOL0     C17494   2.118   3.155   5.297 -0.0159 -0.2042  0.3222
  852MOL0     C17495   2.082   3.024   5.285  0.3954  0.1838 -0.7142
  852MOL0     C17496   1.967   2.982   5.213 -0.0176 -0.2756  1.0371
  852MOL0     O17497   1.940   2.849   5.209 -0.1123 -0.0665  0.2253
  852MOL0     C17498   1.826   2.800   5.142  0.8588  0.1555 -0.4533
  852MOL0     C17499   1.837   2.646   5.136 -0.0724  0.4405 -0.2554
  852MOL0     C17500   1.775   2.586   5.006 -0.3426 -1.4750 -1.0569
  852MOL0     C17501   1.793   2.435   4.991 -0.1511 -0.0108 -0.3746
  852MOL0     C17502   1.703   2.352   5.068  0.5585  0.1182 -0.7400
  852MOL0     C17503   1.636   2.285   5.147  0.3709 -1.4334 -0.6505
  852MOL0     C17504   1.887   3.075   5.152  0.3199  0.3369  0.5196
  852MOL0     C17505   1.930   3.209   5.157 -0.1963  0.4763 -0.4435
  852MOL0     C17506   1.861   3.304   5.068 -0.0356  0.4430  0.0616
  852MOL0     H17507   2.365   3.424   5.404 -0.6520  3.0782  0.4151
  852MOL0     H17508   2.588   3.385   5.274  1.7362  1.5146 -0.3037
  852MOL0     H17509   2.703   3.549   5.135 -0.3422  0.5940 -1.0321
  852MOL0     H17510   2.634   3.615   5.000 -1.8929  0.2582  1.0789
  852MOL0     H17511   2.893   3.583   4.984  1.4792 -1.5524  1.5087
  852MOL0     H17512   2.861   3.415   4.974  1.8289  0.6682 -1.9770
  852MOL0     H17513   2.699   3.466   4.775  0.3293  0.0380  0.5177
  852MOL0     H17514   2.796   3.612   4.757  2.7304 -0.2755 -1.5743
  852MOL0     H17515   3.000   3.469   4.765  0.6579  0.1973 -0.5243
  852MOL0     H17516   2.893   3.322   4.761 -1.5398  0.3288  0.9108
  852MOL0     H17517   2.940   3.540   4.565 -0.0973  1.2186  1.4051
  852MOL0     H17518   2.799   3.418   4.560  0.2989 -0.3929 -1.1034
  852MOL0     H17519   3.088   3.331   4.551 -0.8095 -1.8025  2.3336
  852MOL0     H17520   2.940   3.234   4.538  0.5404 -0.0637  0.8756
  852MOL0     H17521   3.041   3.445   4.341  1.9180 -0.2316  1.2370
  852MOL0     H17522   2.892   3.336   4.324  0.9613 -3.0653 -0.6860
  852MOL0     H17523   3.043   3.137   4.328 -1.4829  0.5781  0.6964
  852MOL0     H17524   3.048   3.240   4.184 -2.2002  0.6724  0.4897
  852MOL0     H17525   3.234   3.386   4.158  1.1659 -1.1638 -0.4878
  852MOL0     H17526   3.599   3.422   4.303  0.4698 -1.1759 -2.0315
  852MOL0     H17527   3.473   3.550   4.262  0.1779  1.1453  0.1397
  852MOL0     H17528   3.576   3.358   4.075  0.3294 -0.0983  1.2973
  852MOL0     H17529   3.444   3.484   4.045 -0.2329  1.5134  0.7288
  852MOL0     H17530   3.582   3.670   4.073  2.0400  0.5962  1.1159
  852MOL0     H17531   3.714   3.564   4.130  0.8846 -4.0182 -1.1972
  852MOL0     H17532   3.769   3.477   3.921  2.2743  2.7961  1.6252
  852MOL0     H17533   3.606   3.514   3.843 -0.9469  0.1362 -0.2987
  852MOL0     H17534   3.572   3.670   3.674  0.8209  1.2427 -1.2690
  852MOL0     H17535   3.383   3.730   3.575 -3.1104  0.1219 -0.0645
  852MOL0     H17536   3.389   3.907   3.534  2.3260 -1.0039  0.1438
  852MOL0     H17537   3.293   3.845   3.672  1.0009  2.0408  2.1360
  852MOL0     H17538   3.222   4.243   3.620 -0.2816  0.7375 -0.7409
  852MOL0     H17539   3.051   4.417   3.619 -0.7264 -0.2453  1.4373
  852MOL0     H17540   2.814   4.565   3.897  0.6624  0.1489 -0.7498
  852MOL0     H17541   2.943   4.593   4.010 -0.9489  0.0350  1.0930
  852MOL0     H17542   2.807   4.790   3.836 -0.5458 -0.3486  1.7470
  852MOL0     H17543   2.838   4.775   4.010 -1.0637 -1.5843  0.3222
  852MOL0     H17544   3.046   4.860   3.793  1.5621  4.4509 -0.6387
  852MOL0     H17545   3.065   4.841   3.969 -2.1830 -0.4554  1.5822
  852MOL0     H17546   2.852   5.020   3.835 -0.5652 -3.9330 -0.1465
  852MOL0     H17547   3.013   5.079   3.867  0.6875 -1.6992 -2.6134
  852MOL0     H17548   2.788   5.035   4.070 -0.1463  2.0699  1.1233
  852MOL0     H17549   2.949   4.994   4.127  0.4091 -0.1215 -1.1544
  852MOL0     H17550   3.036   5.208   4.058  0.4435 -1.3766 -1.5898
  852MOL0     H17551   2.889   5.233   4.166 -2.7106 -0.8152 -1.0519
  852MOL0     H17552   2.739   5.269   3.990  0.1047  0.4012  0.1876
  852MOL0     H17553   2.888   5.287   3.883 -1.9241 -0.0989 -0.2089
  852MOL0     H17554   2.813   5.443   4.137  0.7630  1.1338 -0.0413
  852MOL0     H17555   2.750   5.484   3.983 -0.6483  1.3855  2.0412
  852MOL0     H17556   3.180   4.552   4.001  2.0978  0.7206 -0.4836
  852MOL0     H17557   3.349   4.377   4.006  1.2266 -1.5019 -2.0300
  852MOL0     H17558   3.657   4.106   3.884  2.3451 -0.6698 -1.5484
  852MOL0     H17559   3.797   3.903   3.937 -0.4262 -2.3123  0.3452
  852MOL0     H17560   2.360   3.439   4.898 -2.5076 -0.1435  0.7191
  852MOL0     H17561   2.162   3.470   5.037  2.1487  0.0988 -4.3105
  852MOL0     H17562   2.196   3.176   5.370 -1.8015  2.1558  1.6997
  852MOL0     H17563   2.143   2.955   5.341 -1.2826  0.0898  1.1178
  852MOL0     H17564   1.742   2.833   5.203 -0.0225  0.7571 -1.9412
  852MOL0     H17565   1.818   2.840   5.041 -2.1708 -1.4118 -0.9513
  852MOL0     H17566   1.790   2.611   5.229 -0.2658 -0.8745 -0.8266
  852MOL0     H17567   1.942   2.618   5.144 -1.0486 -4.3371 -0.7513
  852MOL0     H17568   1.669   2.614   5.006  0.2867  1.0811 -1.3603
  852MOL0     H17569   1.820   2.645   4.926  1.4025 -0.0385  0.9194
  852MOL0     H17570   1.895   2.410   5.020  0.4939  3.5900  1.0379
  852MOL0     H17571   1.779   2.408   4.886 -1.0377  1.8289 -0.7823
  852MOL0     H17572   1.580   2.239   5.226 -1.0274  1.8963  0.5206
  852MOL0     H17573   1.801   3.039   5.098 -0.2500 -1.6140  2.5719
  852MOL0     H17574   1.819   3.262   4.976  0.6274  2.2592 -1.1486
  852MOL0     H17575   1.783   3.350   5.129  2.6432  1.4686  3.0065
  852MOL0     H17576   1.926   3.390   5.047 -0.7674  0.8255 -0.7131
  853MOL0     O17577   2.835  10.590   9.686  0.2919 -0.2748 -0.2953
  853MOL0     C17578   2.755  10.662   9.618  0.3798  1.4787  0.3204
  853MOL0     O17579   2.796  10.763   9.544  0.5889  0.5227  0.1082
  853MOL0     C17580   2.926  10.771   9.504 -0.6476  0.3539  0.8318
  853MOL0     C17581   2.998  10.662   9.460 -0.2553 -0.0378 -0.1221
  853MOL0     C17582   3.128  10.669   9.421 -0.3686 -0.3201  1.2125
  853MOL0     C17583   3.193  10.792   9.424  0.7441 -1.6540 -0.6714
  853MOL0     O17584   3.329  10.807   9.401 -0.2118  0.2437  0.1618
  853MOL0     C17585   3.417  10.711   9.445  0.0806 -0.1113  0.7390
  853MOL0     C17586   3.553  10.739   9.381  0.4004 -0.2727  0.1790
  853MOL0     C17587   3.573  10.697   9.232 -0.2285  0.2250 -0.7150
  853MOL0     C17588   3.725  10.713   9.198  0.4163  0.4291  0.3334
  853MOL0     C17589   3.743  10.758   9.056 -0.2547  0.0865 -0.2778
  853MOL0     C17590   3.891  10.760   9.046  0.4815 -0.0502  0.6549
  853MOL0     C17591   3.944  10.803   8.906  0.8349 -0.5112 -0.2366
  853MOL0     C17592   3.945  10.954   8.888 -0.2701 -0.4995  0.0545
  853MOL0     N17593   3.974  10.999   8.751  0.5629  0.2981  0.2259
  853MOL0     C17594   4.090  11.055   8.708 -0.1547 -0.5392  1.2484
  853MOL0     C17595   4.085  11.045   8.569 -0.5679 -0.5274  0.3972
  853MOL0     C17596   4.193  11.092   8.475 -0.0659 -0.9065 -0.5916
  853MOL0     C17597   4.229  11.237   8.510 -0.1052  0.4561  0.2348
  853MOL0     C17598   4.263  11.310   8.371 -0.1366 -0.0448  0.0325
  853MOL0     C17599   4.337  11.444   8.385 -0.3971  0.5199 -0.5242
  853MOL0     O17600   4.332  11.531   8.263 -0.1369 -0.4318 -0.5060
  853MOL0     C17601   4.393  11.655   8.274  0.6263  0.2500 -0.0847
  853MOL0     C17602   4.364  11.755   8.367 -0.3158 -1.0452 -0.2562
  853MOL0     C17603   4.429  11.874   8.362 -0.2463  1.1394  0.4065
  853MOL0     C17604   4.386  11.977   8.471  0.7127  0.6803  0.3908
  853MOL0     C17605   4.529  11.900   8.264  0.3012  0.2058 -0.5167
  853MOL0     C17606   4.609  12.033   8.260 -0.6235  0.1069  0.0397
  853MOL0     O17607   4.568  12.138   8.336  0.7397  0.7022  0.5745
  853MOL0     C17608   4.642  12.251   8.353  0.1014 -0.2162 -1.0017
  853MOL0     C17609   4.577  12.369   8.336  0.7594 -0.3722 -0.5614
  853MOL0     C17610   4.649  12.490   8.348  0.5155  0.2972 -0.0159
  853MOL0     C17611   4.785  12.491   8.391  0.0357 -0.1577 -0.6303
  853MOL0     O17612   4.857  12.602   8.420 -0.3180 -0.0328 -0.1210
  853MOL0     C17613   4.805  12.734   8.393  0.0155 -0.8750 -0.1990
  853MOL0     C17614   4.927  12.837   8.387  0.3423  0.7286  0.4833
  853MOL0     C17615   5.053  12.789   8.306  0.0605  0.4150  0.7081
  853MOL0     C17616   5.145  12.907   8.259  0.0376  0.2024  0.0537
  853MOL0     C17617   5.269  12.869   8.171  0.0685  0.7150 -0.2052
  853MOL0     C17618   5.222  12.809   8.045 -0.6239  0.3203  0.5171
  853MOL0     C17619   5.141  12.914   7.956  0.6165  0.6594  0.4091
  853MOL0     C17620   5.104  12.852   7.816 -0.1658 -0.5448  0.0018
  853MOL0    Cl17621   4.934  12.792   7.827 -0.1395  0.4542 -0.7218
  853MOL0     C17622   4.841  12.366   8.405  0.2093 -0.1529  0.4163
  853MOL0     C17623   4.776  12.249   8.385 -0.3943 -0.8188 -0.6794
  853MOL0     O17624   4.703  12.035   8.175 -0.2459  0.2777 -0.5678
  853MOL0     C17625   4.554  11.801   8.169  0.3684 -0.3658  0.1866
  853MOL0     C17626   4.482  11.684   8.169  0.5662 -0.4020  0.3500
  853MOL0     N17627   3.969  10.985   8.540  0.9746  0.6654  0.4870
  853MOL0     N17628   3.901  10.964   8.651 -0.6971  0.7377  0.8636
  853MOL0     C17629   3.116  10.906   9.448  0.0173 -0.1641 -0.4600
  853MOL0     C17630   2.990  10.891   9.494  0.2249 -0.5688  0.1258
  853MOL0     C17631   2.611  10.619   9.625 -0.0121  0.3495 -0.1885
  853MOL0     C17632   2.519  10.657   9.525  0.3264 -0.1437  0.1457
  853MOL0     C17633   2.385  10.616   9.531 -0.6825 -0.1957 -0.1396
  853MOL0     C17634   2.336  10.540   9.641 -0.8173 -0.5365  0.1634
  853MOL0     O17635   2.205  10.501   9.640  0.0600 -0.1315  0.3139
  853MOL0     C17636   2.188  10.356   9.638  0.6020 -0.5806  0.2573
  853MOL0     C17637   2.045  10.293   9.630 -1.1875  0.2589 -0.8491
  853MOL0     C17638   2.028  10.135   9.669 -0.0596  0.1280 -0.2592
  853MOL0     C17639   2.144  10.043   9.619 -0.6913 -0.9120  0.0878
  853MOL0     C17640   2.146   9.917   9.687  0.4877 -0.6339  0.2429
  853MOL0     C17641   2.144   9.804   9.739 -0.3585 -1.1862  0.2362
  853MOL0     C17642   2.421  10.510   9.744  0.3188 -1.1984  0.7897
  853MOL0     C17643   2.559  10.547   9.738  0.0335  0.7078 -0.0061
  853MOL0     C17644   2.634  10.488   9.849  0.1125  0.2575 -0.5947
  853MOL0     H17645   2.951  10.566   9.448 -0.4004 -0.0093  0.2116
  853MOL0     H17646   3.174  10.575   9.391 -0.6894  0.1101 -0.7738
  853MOL0     H17647   3.378  10.609   9.436 -2.4319  0.7588  1.1783
  853MOL0     H17648   3.432  10.742   9.548 -0.5460 -0.2185  0.8656
  853MOL0     H17649   3.581  10.845   9.379  3.7119 -1.0725 -1.1294
  853MOL0     H17650   3.629  10.689   9.441  0.7743  1.5202  1.2830
  853MOL0     H17651   3.551  10.592   9.212  0.1638  0.1143 -0.5567
  853MOL0     H17652   3.508  10.754   9.164  0.8570 -0.9206 -2.8176
  853MOL0     H17653   3.768  10.794   9.258 -0.6016  1.4270 -0.2333
  853MOL0     H17654   3.764  10.614   9.221 -1.8617 -0.2956  1.3229
  853MOL0     H17655   3.696  10.853   9.028 -1.6918 -0.9324 -1.4467
  853MOL0     H17656   3.695  10.688   8.987 -1.3113  0.8873 -0.3777
  853MOL0     H17657   3.937  10.829   9.118  0.5148 -0.9639  1.5372
  853MOL0     H17658   3.946  10.667   9.067  3.2614  1.3131 -0.0920
  853MOL0     H17659   3.875  10.766   8.830  0.3394 -0.6717  0.2855
  853MOL0     H17660   4.045  10.769   8.883  1.0369  1.9135 -3.6575
  853MOL0     H17661   3.852  10.996   8.929  1.1055  1.1279  1.6316
  853MOL0     H17662   4.021  10.991   8.957  0.0493 -3.3009  1.3343
  853MOL0     H17663   4.169  11.104   8.764  0.8769  0.6070 -1.0592
  853MOL0     H17664   4.155  11.081   8.373  0.8615  3.6669 -1.6622
  853MOL0     H17665   4.282  11.029   8.480  0.1451 -0.6630 -1.2115
  853MOL0     H17666   4.139  11.284   8.550 -1.3171 -0.4293 -1.3616
  853MOL0     H17667   4.307  11.240   8.587 -1.7879  2.0008  1.9807
  853MOL0     H17668   4.310  11.244   8.298  1.4759  1.2972 -0.2166
  853MOL0     H17669   4.164  11.332   8.331 -0.7923 -0.7218  1.2530
  853MOL0     H17670   4.296  11.493   8.473  0.6267 -3.4672  2.4311
  853MOL0     H17671   4.443  11.438   8.411 -0.1215  1.6784 -1.2871
  853MOL0     H17672   4.294  11.732   8.447  0.0263  1.1026  0.7423
  853MOL0     H17673   4.355  12.075   8.434 -1.5979 -0.8321 -2.0014
  853MOL0     H17674   4.461  11.979   8.551 -1.4972  0.2831  2.6240
  853MOL0     H17675   4.302  11.940   8.531 -0.8414  1.8689 -0.9862
  853MOL0     H17676   4.469  12.367   8.325  0.8165 -1.9428 -1.1849
  853MOL0     H17677   4.588  12.580   8.343  0.5559  0.2756 -2.3657
  853MOL0     H17678   4.751  12.742   8.298  5.3675 -1.0715 -3.6768
  853MOL0     H17679   4.732  12.758   8.471 -1.1273  3.1461 -2.2469
  853MOL0     H17680   4.889  12.930   8.345 -1.7753  0.6616  2.0626
  853MOL0     H17681   4.956  12.862   8.490  2.3057  1.2389 -0.1449
  853MOL0     H17682   5.013  12.733   8.220 -2.2597  1.5952  0.9434
  853MOL0     H17683   5.113  12.724   8.369  0.0620  0.8325  1.1430
  853MOL0     H17684   5.176  12.962   8.348 -0.2768  1.9442 -0.8732
  853MOL0     H17685   5.091  12.982   8.201  1.0415 -0.7835 -2.2954
  853MOL0     H17686   5.325  12.960   8.150  1.9783 -0.7939 -2.1192
  853MOL0     H17687   5.323  12.799   8.235 -2.3705  1.4535  2.9319
  853MOL0     H17688   5.160  12.721   8.060 -0.4504  0.3789  1.6498
  853MOL0     H17689   5.300  12.769   7.978  0.4745  0.2421  1.7944
  853MOL0     H17690   5.202  13.004   7.944 -1.0900  2.1337  2.1400
  853MOL0     H17691   5.045  12.937   8.004 -0.2827  0.0024 -1.0293
  853MOL0     H17692   5.169  12.773   7.777  1.2639  0.9029 -0.6578
  853MOL0     H17693   5.113  12.931   7.741  1.1050 -0.0128  0.6887
  853MOL0     H17694   4.945  12.376   8.434  0.7473 -1.3327 -0.9677
  853MOL0     H17695   4.821  12.151   8.402 -0.9875 -0.7121  1.9550
  853MOL0     H17696   4.621  11.822   8.087 -1.3290 -0.3148 -1.2667
  853MOL0     H17697   4.495  11.614   8.087 -0.9291 -0.7908  0.4088
  853MOL0     H17698   3.146  11.010   9.451 -0.9542  0.1610 -1.2909
  853MOL0     H17699   2.929  10.979   9.510 -1.7611 -1.4385 -2.0614
  853MOL0     H17700   2.547  10.710   9.435 -0.6431 -0.3038 -0.2557
  853MOL0     H17701   2.326  10.644   9.443  0.0398  3.1789  0.3091
  853MOL0     H17702   2.238  10.311   9.552 -1.0341 -1.1384 -0.4303
  853MOL0     H17703   2.233  10.312   9.727 -0.2368  1.2561  1.6541
  853MOL0     H17704   2.009  10.311   9.528 -3.1880 -0.5401 -0.3429
  853MOL0     H17705   1.978  10.357   9.688 -2.0363 -1.9398  0.7001
  853MOL0     H17706   2.025  10.125   9.778  2.1083  1.6417  0.0174
  853MOL0     H17707   1.930  10.096   9.640  0.7973 -1.6490 -0.9789
  853MOL0     H17708   2.229  10.089   9.671 -0.5816 -1.7734  0.6796
  853MOL0     H17709   2.152  10.035   9.510  0.0420 -1.9108  0.1979
  853MOL0     H17710   2.143   9.711   9.791 -0.1715  0.3335  3.2230
  853MOL0     H17711   2.382  10.469   9.837 -1.0550 -0.8363  0.4025
  853MOL0     H17712   2.684  10.400   9.808 -1.5062  0.3738 -3.1169
  853MOL0     H17713   2.707  10.559   9.888  0.4465 -0.3183 -0.1685
  853MOL0     H17714   2.572  10.463   9.935  0.7867 -1.4602 -0.5662
  854MOL0     O17715  10.646   0.906   0.660  0.2588 -0.2807  0.0667
  854MOL0     C17716  10.541   0.890   0.592 -0.8884 -0.6815  0.8952
  854MOL0     O17717  10.501   0.976   0.486  0.4649 -0.0634 -0.1071
  854MOL0     C17718  10.602   1.055   0.439 -0.2141 -0.6412 -0.0067
  854MOL0     C17719  10.603   1.193   0.488  0.6669  0.0406  0.5366
  854MOL0     C17720  10.717   1.268   0.469  0.7227  0.1279  0.2596
  854MOL0     C17721  10.814   1.221   0.374  0.2075  0.0405 -1.3223
  854MOL0     O17722  10.904   1.317   0.336  0.6155 -0.0989 -0.3185
  854MOL0     C17723  11.037   1.276   0.296  0.7828  0.2390  0.0729
  854MOL0     C17724  11.117   1.242   0.426 -1.0000  0.6200  0.3263
  854MOL0     C17725  11.089   1.096   0.491  0.7886 -0.3791  0.2482
  854MOL0     C17726  11.194   1.044   0.587  0.2086  0.6031 -1.1902
  854MOL0     C17727  11.157   0.911   0.658 -0.0629  0.6514  0.6781
  854MOL0     C17728  11.034   0.919   0.742  0.2397  0.0987 -1.0185
  854MOL0     C17729  11.015   0.781   0.815 -0.1674  0.2436 -0.2271
  854MOL0     C17730  10.909   0.760   0.930  0.0204 -0.6385  0.4483
  854MOL0     N17731  10.985   0.767   1.055 -0.7977 -0.2470 -0.4652
  854MOL0     C17732  11.034   0.882   1.109 -0.0143  0.2134 -0.7086
  854MOL0     C17733  11.060   0.857   1.238  0.4507 -0.1426  0.1875
  854MOL0     C17734  11.098   0.952   1.349  1.0176  0.1622 -0.9064
  854MOL0     C17735  11.242   0.999   1.338  0.2146 -0.4069 -0.1266
  854MOL0     C17736  11.260   1.154   1.365 -0.8842  0.4084 -0.0416
  854MOL0     C17737  11.405   1.182   1.385  0.0092  0.1444  0.6604
  854MOL0     O17738  11.429   1.319   1.380 -0.2454 -0.3600 -0.7006
  854MOL0     C17739  11.560   1.355   1.383 -0.0436 -1.0067 -0.3840
  854MOL0     C17740  11.671   1.277   1.409 -0.0424  0.7403 -1.3276
  854MOL0     C17741  11.798   1.332   1.399 -0.1557  0.8330 -0.6273
  854MOL0     C17742  11.906   1.229   1.410  0.3000  0.7627 -0.5892
  854MOL0     C17743  11.818   1.465   1.384 -1.0176 -0.3997 -0.4317
  854MOL0     C17744  11.950   1.540   1.396 -0.4528 -0.1954  0.6228
  854MOL0     O17745  11.952   1.665   1.331 -0.2970 -0.0448  0.6677
  854MOL0     C17746  12.063   1.747   1.309  1.5288 -0.6592 -0.2360
  854MOL0     C17747  12.043   1.890   1.321 -0.0589  0.7524 -0.3749
  854MOL0     C17748  12.157   1.971   1.306  0.1962 -0.7939  1.2077
  854MOL0     C17749  12.285   1.922   1.299  0.1912  0.2030 -0.1391
  854MOL0     O17750  12.401   2.002   1.310 -0.4416  0.3492  0.0340
  854MOL0     C17751  12.403   2.144   1.275  0.5548  0.0091 -0.4825
  854MOL0     C17752  12.470   2.171   1.148 -1.0282  0.3187  0.4580
  854MOL0     C17753  12.545   2.303   1.128  0.0981 -0.4574 -0.2883
  854MOL0     C17754  12.453   2.419   1.082 -0.0471 -0.3581  0.1835
  854MOL0     C17755  12.526   2.540   1.039 -0.1442 -0.0544 -0.2918
  854MOL0     C17756  12.421   2.637   0.982 -0.2781  0.2336  0.1417
  854MOL0     C17757  12.487   2.760   0.915  0.9770  0.5468 -0.8989
  854MOL0     C17758  12.452   2.877   1.004  0.8165 -0.2534  0.0703
  854MOL0    Cl17759  12.274   2.910   1.008 -0.4913  0.6640  0.2529
  854MOL0     C17760  12.300   1.779   1.297  0.3330  0.1377 -0.3513
  854MOL0     C17761  12.184   1.700   1.302 -0.2494  0.0887  0.4648
  854MOL0     O17762  12.032   1.507   1.477 -0.1786 -0.3288  0.1213
  854MOL0     C17763  11.704   1.548   1.372 -0.6849  0.1572  0.7492
  854MOL0     C17764  11.576   1.491   1.373 -0.4665  0.5978  0.2059
  854MOL0     N17765  11.038   0.723   1.254  0.1510  0.9398  0.1700
  854MOL0     N17766  11.001   0.664   1.139 -0.5191 -0.5477  0.0916
  854MOL0     C17767  10.798   1.102   0.308 -0.9681  0.1863  0.6086
  854MOL0     C17768  10.698   1.015   0.349  0.3407 -0.1945 -0.6123
  854MOL0     C17769  10.455   0.775   0.637  0.7276  0.1112 -0.7193
  854MOL0     C17770  10.525   0.668   0.712  0.3095  0.1542 -0.7242
  854MOL0     C17771  10.453   0.550   0.747  0.0287 -0.3847  0.6485
  854MOL0     C17772  10.320   0.530   0.717  0.5688 -0.3901  0.0743
  854MOL0     O17773  10.265   0.404   0.757 -1.2550 -0.6953 -0.2658
  854MOL0     C17774  10.144   0.372   0.697  0.5741 -0.3752  0.9041
  854MOL0     C17775  10.115   0.230   0.756  0.6785  0.5708  0.7623
  854MOL0     C17776   9.969   0.191   0.707 -0.3980  1.0476 -0.3133
  854MOL0     C17777   9.947   0.035   0.714  0.7866  0.0726  0.0243
  854MOL0     C17778   9.808  -0.016   0.693  0.4829 -0.0192 -0.2518
  854MOL0     C17779   9.700  -0.055   0.653 -0.5342 -0.1594  0.0754
  854MOL0     C17780  10.254   0.628   0.644  0.1334 -0.1372 -0.8615
  854MOL0     C17781  10.316   0.749   0.604 -0.5516  0.7611  0.0939
  854MOL0     C17782  10.241   0.836   0.520  0.1738 -0.5594 -0.5356
  854MOL0     H17783  10.538   1.204   0.574 -0.2746 -1.9484  0.1215
  854MOL0     H17784  10.733   1.363   0.518  0.1581 -0.0963  0.8937
  854MOL0     H17785  11.081   1.365   0.249 -3.4770  1.7047 -1.6237
  854MOL0     H17786  11.050   1.190   0.231 -1.4648 -1.1584  1.3466
  854MOL0     H17787  11.222   1.233   0.400 -1.7034 -3.5499 -1.9751
  854MOL0     H17788  11.094   1.319   0.501 -1.6983 -1.4720  2.3989
  854MOL0     H17789  10.994   1.107   0.545  0.1586 -2.2490 -0.4011
  854MOL0     H17790  11.076   1.018   0.415 -0.9719 -1.8639  1.9499
  854MOL0     H17791  11.292   1.025   0.543 -0.3294  0.4736 -2.3840
  854MOL0     H17792  11.210   1.123   0.661 -2.0431 -1.7982  2.1539
  854MOL0     H17793  11.247   0.886   0.715  1.8022  4.4160 -0.3295
  854MOL0     H17794  11.140   0.830   0.586 -1.5770 -0.9919  2.7490
  854MOL0     H17795  11.051   1.003   0.811  2.5328  0.8980 -2.4590
  854MOL0     H17796  10.941   0.941   0.688 -1.1513 -2.4542  0.1878
  854MOL0     H17797  11.114   0.764   0.858  1.1021  5.5117 -0.3721
  854MOL0     H17798  11.001   0.702   0.741  0.5291  0.0751 -0.1889
  854MOL0     H17799  10.824   0.828   0.920  1.1212  0.5130 -1.8202
  854MOL0     H17800  10.872   0.657   0.920  0.3252 -0.6702 -0.3936
  854MOL0     H17801  11.036   0.982   1.068 -2.8793  0.8799  0.5623
  854MOL0     H17802  11.072   0.918   1.449 -2.3100  1.6787 -1.1239
  854MOL0     H17803  11.033   1.039   1.336  3.6632  2.3164 -0.4177
  854MOL0     H17804  11.303   0.937   1.405 -0.4847  0.9521  1.8786
  854MOL0     H17805  11.281   0.981   1.238  0.5362  2.1064 -0.5286
  854MOL0     H17806  11.230   1.215   1.279 -1.8896  1.6103  1.1248
  854MOL0     H17807  11.206   1.181   1.456  1.3020 -0.5141  1.6154
  854MOL0     H17808  11.436   1.125   1.474  0.3323 -3.7147 -1.6704
  854MOL0     H17809  11.458   1.141   1.299 -0.1018 -0.0074  0.6651
  854MOL0     H17810  11.658   1.171   1.426 -1.7845  1.0288 -0.7372
  854MOL0     H17811  11.868   1.127   1.425 -1.8173  0.8730 -4.1496
  854MOL0     H17812  11.963   1.254   1.500 -0.4388  0.1254  0.0847
  854MOL0     H17813  11.965   1.232   1.319  1.0065  3.2598 -0.1157
  854MOL0     H17814  11.944   1.931   1.336 -0.9655 -1.8658  1.4793
  854MOL0     H17815  12.142   2.074   1.337  1.0510 -0.2014 -0.2084
  854MOL0     H17816  12.306   2.193   1.291 -0.0521 -1.6047  1.1168
  854MOL0     H17817  12.458   2.183   1.361 -1.3265 -1.5660  1.5369
  854MOL0     H17818  12.549   2.096   1.135 -0.4947  0.7693  1.0302
  854MOL0     H17819  12.393   2.156   1.072 -0.4620 -0.4859  0.0198
  854MOL0     H17820  12.623   2.277   1.056 -0.4232 -1.4604 -0.5120
  854MOL0     H17821  12.595   2.328   1.222 -2.1120  0.8059  0.6211
  854MOL0     H17822  12.387   2.443   1.166 -0.2842 -1.8202  0.4374
  854MOL0     H17823  12.391   2.385   0.999  1.4637 -0.6810 -0.8645
  854MOL0     H17824  12.578   2.583   1.125  0.7110 -2.5172  0.5017
  854MOL0     H17825  12.610   2.525   0.970  0.6895  3.3900 -0.2358
  854MOL0     H17826  12.352   2.665   1.062 -0.9447  0.4950 -0.5229
  854MOL0     H17827  12.366   2.580   0.907  0.7725 -1.3349  0.5179
  854MOL0     H17828  12.447   2.799   0.821  3.8220  2.9454 -1.2743
  854MOL0     H17829  12.594   2.752   0.895  1.9142  2.5748  2.4488
  854MOL0     H17830  12.504   2.967   0.971  2.6087  0.0218  3.2053
  854MOL0     H17831  12.517   2.875   1.091  3.0383  0.3717 -1.4973
  854MOL0     H17832  12.407   1.760   1.298  0.4294  0.6535 -0.3721
  854MOL0     H17833  12.194   1.592   1.306 -3.2397 -0.3492 -0.8815
  854MOL0     H17834  11.714   1.654   1.351  0.1591  0.1684  1.1549
  854MOL0     H17835  11.490   1.555   1.351 -1.2525 -0.1692  0.9441
  854MOL0     H17836  10.867   1.073   0.230 -0.3101  1.2468  0.7691
  854MOL0     H17837  10.696   0.916   0.304  5.5715 -0.5509 -0.6666
  854MOL0     H17838  10.632   0.673   0.726  0.2766 -0.2369 -0.3055
  854MOL0     H17839  10.511   0.467   0.785 -0.2881 -0.7553  0.3377
  854MOL0     H17840  10.059   0.434   0.727  0.9351  1.4029 -1.4703
  854MOL0     H17841  10.144   0.378   0.588  0.0591 -1.2030  0.8504
  854MOL0     H17842  10.103   0.237   0.864  1.5596 -2.5620  1.1659
  854MOL0     H17843  10.191   0.159   0.722 -0.5370 -1.0979  1.4298
  854MOL0     H17844   9.896   0.246   0.767 -1.7642  0.7290 -1.5991
  854MOL0     H17845   9.959   0.226   0.604 -1.0096  2.8708  0.3208
  854MOL0     H17846   9.977  -0.016   0.805 -0.6428 -0.2465  0.3462
  854MOL0     H17847  10.008   0.002   0.629 -0.5385  1.9821 -1.7787
  854MOL0     H17848   9.611  -0.103   0.619 -0.5512  2.0158 -3.5299
  854MOL0     H17849  10.151   0.610   0.615 -0.2226  0.1415  0.1919
  854MOL0     H17850  10.225   0.928   0.577 -2.3252 -0.6039 -1.0608
  854MOL0     H17851  10.292   0.867   0.428  1.9386  3.7788  1.5971
  854MOL0     H17852  10.140   0.797   0.505  0.1474 -1.2700  1.2874
  855MOL0     O17853   6.143  11.077   7.103  1.0955 -0.3129  0.7989
  855MOL0     C17854   6.046  11.059   7.173  0.4957  0.1794  0.5427
  855MOL0     O17855   6.018  10.940   7.227  1.8776  0.4743 -0.0359
  855MOL0     C17856   6.123  10.859   7.256  0.3839  0.1228  0.5114
  855MOL0     C17857   6.103  10.723   7.252 -0.3270  0.7144 -0.4399
  855MOL0     C17858   6.203  10.625   7.272  0.4393 -0.2832 -0.2057
  855MOL0     C17859   6.331  10.668   7.309  0.7783 -0.3468 -0.0013
  855MOL0     O17860   6.443  10.594   7.332 -1.0817  0.2407 -0.3755
  855MOL0     C17861   6.441  10.457   7.285 -0.0880  0.2886  0.1005
  855MOL0     C17862   6.578  10.393   7.284  0.2277 -0.5251  0.9306
  855MOL0     C17863   6.652  10.441   7.157  0.5759  0.7184 -0.4085
  855MOL0     C17864   6.804  10.410   7.173  0.5615 -0.3555 -0.2548
  855MOL0     C17865   6.879  10.471   7.058 -0.2409 -0.5481  0.2610
  855MOL0     C17866   7.034  10.445   7.070  0.0774  0.3401 -0.0471
  855MOL0     C17867   7.115  10.525   6.964  0.0578 -0.3323 -0.5004
  855MOL0     C17868   7.105  10.484   6.814 -0.1855 -0.5023 -0.1360
  855MOL0     N17869   6.978  10.541   6.746  0.3988  0.1069  1.4260
  855MOL0     C17870   6.941  10.673   6.728 -0.3543 -0.2617  0.7105
  855MOL0     C17871   6.870  10.676   6.606  0.9509  0.5222 -0.5534
  855MOL0     C17872   6.814  10.789   6.536  0.0544  0.5036 -0.3357
  855MOL0     C17873   6.911  10.879   6.461  0.9482  0.1584 -0.0625
  855MOL0     C17874   6.983  10.824   6.341  0.2522  0.6143  0.0930
  855MOL0     C17875   6.909  10.810   6.213 -0.4226  1.2195 -0.2797
  855MOL0     O17876   6.975  10.724   6.127  0.0218  0.8572 -0.3015
  855MOL0     C17877   6.904  10.675   6.019 -0.4311  0.2901 -0.3988
  855MOL0     C17878   6.768  10.697   5.988  0.7018  0.2059 -0.6987
  855MOL0     C17879   6.717  10.652   5.867  1.0476 -0.8088 -0.2905
  855MOL0     C17880   6.564  10.685   5.852 -0.2287  0.6958 -0.1542
  855MOL0     C17881   6.793  10.579   5.771 -0.3478 -0.3033  0.6484
  855MOL0     C17882   6.740  10.521   5.650  0.2882 -0.0383  0.4701
  855MOL0     O17883   6.627  10.454   5.660  0.1442  0.4785  0.2255
  855MOL0     C17884   6.545  10.424   5.550 -0.1872  0.2206 -0.1221
  855MOL0     C17885   6.437  10.332   5.572 -0.5145  0.0341 -0.6119
  855MOL0     C17886   6.337  10.318   5.474  0.0782 -0.1061  0.5552
  855MOL0     C17887   6.347  10.376   5.349  0.0801 -0.9698  0.1355
  855MOL0     O17888   6.249  10.370   5.260 -0.0529  0.5230 -0.3439
  855MOL0     C17889   6.155  10.482   5.263  0.5989  0.0823 -1.3269
  855MOL0     C17890   6.054  10.470   5.141 -0.5350 -0.1850  0.0247
  855MOL0     C17891   5.936  10.566   5.149 -0.2176  0.7174 -0.3347
  855MOL0     C17892   5.834  10.526   5.037 -0.2935  0.9761 -0.1806
  855MOL0     C17893   5.692  10.529   5.093  1.2242 -0.2006 -0.3804
  855MOL0     C17894   5.606  10.471   4.988  0.6458  0.6776  0.5896
  855MOL0     C17895   5.467  10.451   5.039  0.0996 -0.2977  0.2864
  855MOL0     C17896   5.357  10.446   4.928  0.9584 -0.8466  0.4007
  855MOL0    Cl17897   5.391  10.326   4.790  0.2392 -0.1413 -0.3003
  855MOL0     C17898   6.456  10.457   5.322  0.2107  0.1938  0.6745
  855MOL0     C17899   6.547  10.483   5.421  0.2104 -0.2103 -0.4243
  855MOL0     O17900   6.817  10.505   5.559 -0.2913 -0.0218 -0.0828
  855MOL0     C17901   6.926  10.554   5.807  0.2830 -0.3869 -0.4611
  855MOL0     C17902   6.978  10.602   5.928 -0.5200  0.0746 -0.1442
  855MOL0     N17903   6.849  10.546   6.571  0.1619  0.8152 -0.2477
  855MOL0     N17904   6.910  10.462   6.653 -0.2017  0.4689 -0.2730
  855MOL0     C17905   6.349  10.810   7.331 -0.4564  0.0501  0.4057
  855MOL0     C17906   6.245  10.903   7.298  0.7779  0.2817  0.0196
  855MOL0     C17907   5.952  11.173   7.166 -0.5803 -0.5383 -0.2530
  855MOL0     C17908   5.933  11.227   7.041  0.6224  0.1181  0.8740
  855MOL0     C17909   5.829  11.316   7.011 -0.3900 -0.6015  0.5596
  855MOL0     C17910   5.744  11.367   7.106  0.5057 -0.8080  0.0656
  855MOL0     O17911   5.640  11.452   7.070 -0.4830  0.1401 -0.0682
  855MOL0     C17912   5.545  11.488   7.173 -0.0892  0.6164  0.5226
  855MOL0     C17913   5.592  11.602   7.261  0.4489  0.1475 -0.5770
  855MOL0     C17914   5.494  11.595   7.384 -0.1599 -0.4863  0.5306
  855MOL0     C17915   5.511  11.716   7.470  0.5706  0.8040 -0.5172
  855MOL0     C17916   5.427  11.717   7.587  0.1584  1.3003 -0.9721
  855MOL0     C17917   5.345  11.710   7.683  0.4287  0.5633  0.0943
  855MOL0     C17918   5.768  11.322   7.239  0.5965  0.6827  0.1069
  855MOL0     C17919   5.860  11.222   7.265  0.1706  0.4374 -0.7500
  855MOL0     C17920   5.857  11.157   7.407  0.2021 -0.0508  1.0062
  855MOL0     H17921   6.005  10.692   7.217  0.1340  0.6153 -1.6896
  855MOL0     H17922   6.183  10.519   7.261 -0.4521  0.0458 -2.1012
  855MOL0     H17923   6.399  10.447   7.185  1.2871  1.9790 -0.7072
  855MOL0     H17924   6.386  10.394   7.356 -2.2684  1.9489  0.0008
  855MOL0     H17925   6.640  10.425   7.368  0.9566  2.2775 -0.5638
  855MOL0     H17926   6.560  10.285   7.278 -0.7424 -0.3370  0.2822
  855MOL0     H17927   6.606  10.390   7.071  0.2663 -0.0237  0.1910
  855MOL0     H17928   6.628  10.548   7.150 -3.4221  0.1540  1.7745
  855MOL0     H17929   6.844  10.440   7.270  0.2301 -0.2608 -0.1475
  855MOL0     H17930   6.828  10.304   7.181  3.3770  0.2687  0.6533
  855MOL0     H17931   6.858  10.576   7.036  0.7122 -0.4744 -0.3860
  855MOL0     H17932   6.853  10.420   6.964 -0.1807  0.0648 -0.0948
  855MOL0     H17933   7.066  10.491   7.164  4.9026 -1.8016 -0.3656
  855MOL0     H17934   7.056  10.339   7.076  1.0294  0.4849 -0.7600
  855MOL0     H17935   7.220  10.504   6.984  0.6565  1.8693 -0.9864
  855MOL0     H17936   7.085  10.630   6.979 -1.3107 -0.7331 -0.3029
  855MOL0     H17937   7.193  10.532   6.768 -0.4061 -0.7995 -0.8815
  855MOL0     H17938   7.115  10.376   6.803 -0.9104 -0.5074 -0.8440
  855MOL0     H17939   6.984  10.755   6.784  0.6642 -0.0682 -0.3305
  855MOL0     H17940   6.757  10.853   6.605  0.5538  0.8256 -0.2150
  855MOL0     H17941   6.738  10.754   6.466  1.1717  1.7436 -2.2516
  855MOL0     H17942   6.863  10.973   6.430 -1.6956 -1.1445 -0.1560
  855MOL0     H17943   6.978  10.921   6.538  2.3420  1.6616 -1.9947
  855MOL0     H17944   7.077  10.873   6.314 -1.3861  2.0974 -3.5228
  855MOL0     H17945   7.003  10.720   6.368  1.0729 -0.3133 -3.5675
  855MOL0     H17946   6.817  10.761   6.248  1.0065  0.0781  2.1316
  855MOL0     H17947   6.892  10.905   6.163  2.3565  1.8651 -0.1472
  855MOL0     H17948   6.702  10.752   6.054  2.2364  1.6156 -0.2716
  855MOL0     H17949   6.505  10.603   5.895  1.8006  0.4325  2.3952
  855MOL0     H17950   6.534  10.691   5.747 -2.0348 -0.3048  0.2552
  855MOL0     H17951   6.532  10.775   5.906 -3.6797 -1.1916  1.2924
  855MOL0     H17952   6.432  10.277   5.665 -3.1349 -1.9633 -1.7871
  855MOL0     H17953   6.244  10.265   5.491 -0.8351  1.0886 -0.4919
  855MOL0     H17954   6.092  10.480   5.353 -1.5925 -3.3439 -2.7175
  855MOL0     H17955   6.207  10.578   5.261 -1.6503  1.5458  2.0541
  855MOL0     H17956   6.110  10.502   5.052 -1.2101 -0.8362 -0.6425
  855MOL0     H17957   6.022  10.366   5.133  1.3986 -0.7961 -0.2755
  855MOL0     H17958   5.967  10.671   5.138 -0.7324  0.7278 -1.9725
  855MOL0     H17959   5.881  10.565   5.243 -0.3719 -0.4339 -0.4239
  855MOL0     H17960   5.855  10.429   4.992 -2.0509 -1.2179  3.2961
  855MOL0     H17961   5.846  10.598   4.955 -0.6868  2.2617  0.8501
  855MOL0     H17962   5.684  10.470   5.185 -2.7334  1.4472  0.5602
  855MOL0     H17963   5.654  10.629   5.115 -0.6343 -1.2797  1.7910
  855MOL0     H17964   5.654  10.376   4.966  0.9328  0.7211  1.0214
  855MOL0     H17965   5.596  10.528   4.895 -0.5949 -1.1261 -0.4381
  855MOL0     H17966   5.430  10.537   5.096 -1.0810 -1.1682  0.8835
  855MOL0     H17967   5.479  10.361   5.100  0.2907 -0.0206  0.6610
  855MOL0     H17968   5.356  10.542   4.876 -0.3331 -1.5170 -0.8959
  855MOL0     H17969   5.255  10.436   4.967  0.2204  1.4038 -0.7572
  855MOL0     H17970   6.457  10.519   5.233 -0.8952  2.1597  1.9415
  855MOL0     H17971   6.631  10.550   5.404  0.9052 -0.8247  0.5201
  855MOL0     H17972   6.997  10.493   5.752  2.3602  2.4929 -1.2100
  855MOL0     H17973   7.080  10.577   5.958  0.0191  0.6917 -1.4051
  855MOL0     H17974   6.440  10.848   7.374 -2.7236  0.6919  5.2926
  855MOL0     H17975   6.249  11.001   7.345  0.0424  0.3829 -0.1153
  855MOL0     H17976   5.999  11.201   6.959 -2.0651 -1.1409 -1.0655
  855MOL0     H17977   5.834  11.366   6.915  1.6898  1.6954  1.7576
  855MOL0     H17978   5.459  11.522   7.115 -1.0713  2.0998  2.6972
  855MOL0     H17979   5.520  11.399   7.232  4.8174 -1.3751  0.0402
  855MOL0     H17980   5.580  11.698   7.210 -1.6368 -0.4804 -1.3369
  855MOL0     H17981   5.696  11.584   7.292  0.5307  1.4269 -0.0286
  855MOL0     H17982   5.393  11.604   7.344 -0.1329  0.0706  0.5839
  855MOL0     H17983   5.502  11.504   7.444 -1.1496 -0.4501  0.7289
  855MOL0     H17984   5.472  11.799   7.411 -2.2321 -0.5786 -0.7451
  855MOL0     H17985   5.613  11.732   7.508 -0.6369  0.2572  3.4124
  855MOL0     H17986   5.266  11.681   7.749 -0.8496 -0.9597 -1.9716
  855MOL0     H17987   5.703  11.357   7.319 -1.1796  2.4651 -1.9881
  855MOL0     H17988   5.794  11.069   7.415 -3.2551  2.2950  1.6684
  855MOL0     H17989   5.960  11.128   7.433  0.2051 -0.7941  0.1900
  855MOL0     H17990   5.806  11.223   7.478 -0.5668  1.6795 -1.0671
  856MOL0     O17991   4.029   3.515  11.132 -0.4634  0.5148  0.1174
  856MOL0     C17992   4.047   3.546  11.015 -0.3869  0.9323  0.4964
  856MOL0     O17993   4.155   3.602  10.960 -0.2739 -0.0371  0.0404
  856MOL0     C17994   4.269   3.600  11.034  0.6954 -0.6635 -0.6016
  856MOL0     C17995   4.385   3.552  10.979  0.4399  0.1723 -1.1477
  856MOL0     C17996   4.509   3.576  11.034  0.0041 -0.6333 -0.5878
  856MOL0     C17997   4.521   3.653  11.149 -0.2292 -0.6846 -0.4988
  856MOL0     O17998   4.635   3.693  11.212  0.6329  0.0258  0.3129
  856MOL0     C17999   4.740   3.602  11.218 -0.8777 -0.1636 -0.2333
  856MOL0     C18000   4.872   3.674  11.212 -0.0742 -0.6249  0.4453
  856MOL0     C18001   4.884   3.737  11.073  0.1265  0.4414 -0.0559
  856MOL0     C18002   4.931   3.633  10.963  0.1152 -0.7454  0.1044
  856MOL0     C18003   4.951   3.718  10.828 -0.1524 -0.0513 -1.0105
  856MOL0     C18004   5.010   3.627  10.717 -0.8455  0.0210  0.5289
  856MOL0     C18005   5.062   3.713  10.599 -0.6046  0.3663  0.5250
  856MOL0     C18006   5.215   3.693  10.561 -0.2560 -0.0770 -0.0072
  856MOL0     N18007   5.311   3.754  10.657 -0.5114 -0.3570 -0.4502
  856MOL0     C18008   5.311   3.739  10.797  0.3401  0.1468  0.5052
  856MOL0     C18009   5.419   3.814  10.835 -0.5738 -0.4346 -0.3166
  856MOL0     C18010   5.449   3.851  10.982  0.8824  0.2973 -0.5192
  856MOL0     C18011   5.540   3.754  11.051  0.6346  0.6012  0.8147
  856MOL0     C18012   5.678   3.799  11.007 -0.0001 -0.3050  0.3880
  856MOL0     C18013   5.778   3.736  11.109 -0.0026 -0.0704 -0.0968
  856MOL0     O18014   5.789   3.809  11.231 -0.8629 -0.7731  0.1983
  856MOL0     C18015   5.839   3.751  11.346 -0.7172 -0.2135  0.0602
  856MOL0     C18016   5.832   3.802  11.478  0.4649  0.6116  0.0246
  856MOL0     C18017   5.873   3.744  11.595 -0.0940 -0.1515  0.4721
  856MOL0     C18018   5.847   3.825  11.724 -0.3343  0.5618 -0.4016
  856MOL0     C18019   5.939   3.623  11.579  0.3993  0.1800  0.6224
  856MOL0     C18020   5.988   3.556  11.698  0.6892  0.1894 -0.3154
  856MOL0     O18021   6.085   3.626  11.777 -0.1059  0.0145  0.3031
  856MOL0     C18022   6.134   3.573  11.896  0.2914  0.5318 -0.7242
  856MOL0     C18023   6.270   3.563  11.904  0.1344  0.2414 -0.5335
  856MOL0     C18024   6.339   3.508  12.011  0.2407 -0.0632 -0.2517
  856MOL0     C18025   6.266   3.460  12.117  0.6310  0.1156 -0.2318
  856MOL0     O18026   6.341   3.420  12.226 -0.0496  0.4025 -0.0788
  856MOL0     C18027   6.273   3.396  12.348 -0.9188  0.5352  0.1989
  856MOL0     C18028   6.363   3.431  12.462 -0.4879 -0.0272 -0.8716
  856MOL0     C18029   6.383   3.582  12.466  0.2435 -0.3530  0.6526
  856MOL0     C18030   6.268   3.681  12.465 -0.0881  0.2179 -0.7405
  856MOL0     C18031   6.315   3.825  12.510 -0.1046 -0.0261 -0.6348
  856MOL0     C18032   6.399   3.897  12.406  0.2496  0.4021 -0.3120
  856MOL0     C18033   6.318   3.923  12.266 -0.8488 -1.2986 -0.0716
  856MOL0     C18034   6.387   4.020  12.169 -0.3020  0.0464  0.6027
  856MOL0    Cl18035   6.260   4.103  12.082 -0.6691  0.3269  0.3904
  856MOL0     C18036   6.125   3.467  12.106  0.2698  0.7921  0.6576
  856MOL0     C18037   6.055   3.520  11.997 -0.5840  0.6385 -0.4559
  856MOL0     O18038   5.945   3.443  11.724  1.2965 -0.3070  0.4930
  856MOL0     C18039   5.949   3.565  11.452 -0.5557  0.1569  0.9884
  856MOL0     C18040   5.900   3.627  11.331 -0.3107  0.3301 -0.0274
  856MOL0     N18041   5.501   3.827  10.721 -0.1534  0.2142 -0.1057
  856MOL0     N18042   5.436   3.800  10.612  0.3408 -0.1287 -0.2867
  856MOL0     C18043   4.407   3.719  11.196 -1.4313  0.3508 -0.1011
  856MOL0     C18044   4.282   3.692  11.145  0.5943  0.7973  0.2241
  856MOL0     C18045   3.926   3.557  10.929  0.4919 -0.4623  0.1878
  856MOL0     C18046   3.799   3.570  10.987 -0.6856 -0.1157  0.0787
  856MOL0     C18047   3.675   3.561  10.922  0.2971 -0.4487  0.0546
  856MOL0     C18048   3.672   3.536  10.786 -0.1937 -0.1820  0.2890
  856MOL0     O18049   3.554   3.515  10.715  0.5964  0.7932 -0.4561
  856MOL0     C18050   3.439   3.452  10.780  0.8240 -1.4096  0.8367
  856MOL0     C18051   3.328   3.556  10.813  0.6820  0.3486  0.2909
  856MOL0     C18052   3.288   3.644  10.687  0.4175  0.7980 -0.4301
  856MOL0     C18053   3.170   3.729  10.721 -0.2631  0.2124 -0.5707
  856MOL0     C18054   3.041   3.650  10.724  0.7446  0.8992  0.2103
  856MOL0     C18055   2.934   3.594  10.741  0.5055 -0.3599  0.5329
  856MOL0     C18056   3.794   3.522  10.718  0.2512 -0.0023  0.0964
  856MOL0     C18057   3.928   3.531  10.783  0.7439 -0.0213 -0.2791
  856MOL0     C18058   4.046   3.519  10.700  0.3002 -0.3563 -0.0648
  856MOL0     H18059   4.364   3.482  10.898 -2.3476 -0.6403  0.1560
  856MOL0     H18060   4.601   3.531  10.997  0.8446 -2.7111  3.4965
  856MOL0     H18061   4.745   3.526  11.140  1.3788  0.6414 -0.9410
  856MOL0     H18062   4.750   3.541  11.308  0.0799 -3.6461 -2.5122
  856MOL0     H18063   4.853   3.753  11.285 -0.8635  0.4314 -0.8619
  856MOL0     H18064   4.955   3.609  11.242 -1.6606 -3.2633 -0.5630
  856MOL0     H18065   4.795   3.792  11.042  0.3982  0.7551 -0.2910
  856MOL0     H18066   4.960   3.816  11.070  0.5357  0.0279 -1.9939
  856MOL0     H18067   5.027   3.593  10.996  0.5104  0.8018  0.9292
  856MOL0     H18068   4.864   3.547  10.950  1.9719 -2.0081 -1.6238
  856MOL0     H18069   5.007   3.810  10.846  3.4140 -2.0271 -1.0078
  856MOL0     H18070   4.849   3.744  10.798 -2.1924 -1.4085  3.8638
  856MOL0     H18071   5.089   3.564  10.758 -1.8078 -2.4532 -1.2104
  856MOL0     H18072   4.931   3.556  10.694  0.4411 -1.6382  1.0320
  856MOL0     H18073   5.043   3.819  10.618  0.0516  0.2139  2.1412
  856MOL0     H18074   4.999   3.685  10.514  1.4531 -1.0964 -0.5967
  856MOL0     H18075   5.237   3.587  10.546  0.4559  0.3041 -1.9257
  856MOL0     H18076   5.231   3.736  10.461 -0.3141 -1.6433 -0.7224
  856MOL0     H18077   5.241   3.689  10.863 -1.4126  0.8590 -0.7350
  856MOL0     H18078   5.354   3.841  11.035  1.2166 -1.1762 -0.1574
  856MOL0     H18079   5.484   3.954  10.991  1.6983 -0.1802  3.0210
  856MOL0     H18080   5.523   3.774  11.157 -1.2230  0.2942  0.6074
  856MOL0     H18081   5.517   3.648  11.036  1.3783  0.4088  0.9951
  856MOL0     H18082   5.713   3.772  10.907 -1.1674  2.2713 -0.8084
  856MOL0     H18083   5.692   3.906  11.025 -0.0258  0.4312 -3.2757
  856MOL0     H18084   5.735   3.638  11.132  3.0549 -1.2861  1.0124
  856MOL0     H18085   5.874   3.729  11.058 -0.7374 -0.1359 -1.5151
  856MOL0     H18086   5.779   3.897  11.482  0.1550  0.4682 -0.6821
  856MOL0     H18087   5.807   3.758  11.800  0.0698  0.2962 -0.4210
  856MOL0     H18088   5.778   3.905  11.695 -3.9015 -2.4125 -0.9089
  856MOL0     H18089   5.941   3.857  11.769  0.3789 -2.0343  0.1005
  856MOL0     H18090   6.336   3.603  11.829  0.6674  0.2096 -0.0845
  856MOL0     H18091   6.446   3.524  12.012  0.0734  1.2926  1.5549
  856MOL0     H18092   6.178   3.449  12.361 -0.8365  1.3089 -1.9216
  856MOL0     H18093   6.259   3.288  12.360  1.7783  0.0461 -0.3041
  856MOL0     H18094   6.310   3.400  12.553 -1.9674 -0.2919 -1.7931
  856MOL0     H18095   6.460   3.381  12.472 -0.6282  0.1020  1.9541
  856MOL0     H18096   6.427   3.602  12.367 -0.7693  1.2086  0.4919
  856MOL0     H18097   6.462   3.612  12.535  1.4294 -0.1125 -0.7524
  856MOL0     H18098   6.202   3.642  12.543  0.2666  0.4422 -0.3240
  856MOL0     H18099   6.214   3.676  12.370 -2.6752 -0.2410  0.6666
  856MOL0     H18100   6.226   3.878  12.546 -1.0762 -1.7421 -0.3887
  856MOL0     H18101   6.376   3.810  12.599 -1.2407  0.7650  0.3221
  856MOL0     H18102   6.485   3.829  12.405 -2.1206 -2.9268  2.0911
  856MOL0     H18103   6.433   3.997  12.437 -0.1133  0.8342 -1.2514
  856MOL0     H18104   6.223   3.964  12.301  0.1575  0.1612  1.0321
  856MOL0     H18105   6.295   3.833  12.207  1.4444 -1.1562 -1.3084
  856MOL0     H18106   6.458   3.980  12.096 -1.2122 -0.9210  0.2262
  856MOL0     H18107   6.443   4.097  12.224  0.1384  0.0437  0.1660
  856MOL0     H18108   6.056   3.429  12.181  2.0842 -0.2560  1.8623
  856MOL0     H18109   5.949   3.510  11.976 -0.7238  1.9683 -0.4466
  856MOL0     H18110   5.996   3.467  11.452  0.1654  0.4045  3.8887
  856MOL0     H18111   5.902   3.575  11.235  3.6572  0.4019 -0.1356
  856MOL0     H18112   4.427   3.782  11.282 -1.9067  0.3781 -0.0081
  856MOL0     H18113   4.197   3.747  11.184 -0.2486 -0.3302  0.0092
  856MOL0     H18114   3.801   3.578  11.096  1.1887 -2.0182  0.2427
  856MOL0     H18115   3.578   3.566  10.971 -0.2464  0.0665 -1.0272
  856MOL0     H18116   3.396   3.384  10.705  0.8462 -2.0725  1.4141
  856MOL0     H18117   3.477   3.399  10.868 -1.0526  0.3844  2.8391
  856MOL0     H18118   3.372   3.610  10.897 -0.4039  2.5929 -0.5256
  856MOL0     H18119   3.235   3.505  10.840 -1.2619  2.9686 -0.9912
  856MOL0     H18120   3.375   3.705  10.664 -0.9211  1.7444 -3.4785
  856MOL0     H18121   3.263   3.582  10.601  0.3605 -0.7541  0.6587
  856MOL0     H18122   3.164   3.797  10.636 -1.7978 -0.4082 -0.9831
  856MOL0     H18123   3.181   3.779  10.818  0.0836  2.8441 -1.8626
  856MOL0     H18124   2.836   3.558  10.764  0.5642  0.4914  2.2604
  856MOL0     H18125   3.785   3.487  10.615  0.9556 -0.5680  0.2171
  856MOL0     H18126   4.099   3.614  10.689  0.0236 -0.1449  0.3980
  856MOL0     H18127   4.096   3.437  10.753 -0.0272 -0.1700  0.5483
  856MOL0     H18128   4.030   3.482  10.599  2.2533  2.3588 -1.4768
  857MOL0     O18129  10.550   5.700   8.189 -0.1036  1.1857  0.5769
  857MOL0     C18130  10.546   5.798   8.118  0.3181  0.7555  0.6413
  857MOL0     O18131  10.505   5.785   7.983  0.4385  0.3659 -1.0159
  857MOL0     C18132  10.469   5.665   7.932  0.7646  0.8796 -0.4946
  857MOL0     C18133  10.529   5.613   7.816  0.1801  0.5838 -0.3813
  857MOL0     C18134  10.483   5.487   7.762 -0.3072  1.0822  0.3106
  857MOL0     C18135  10.366   5.431   7.811 -0.3051  0.9089  0.2381
  857MOL0     O18136  10.313   5.326   7.738 -0.5474  0.0645 -0.2972
  857MOL0     C18137  10.185   5.351   7.687  0.2482 -0.6038  0.3438
  857MOL0     C18138  10.165   5.269   7.561 -0.1638  0.2888 -0.0260
  857MOL0     C18139  10.244   5.327   7.447  0.1964 -0.0882  0.3508
  857MOL0     C18140  10.161   5.440   7.385 -0.3794 -0.7949 -0.1544
  857MOL0     C18141  10.241   5.524   7.282 -0.2033 -0.2388  0.1956
  857MOL0     C18142  10.134   5.604   7.209 -0.1618  0.2355 -0.3757
  857MOL0     C18143  10.191   5.692   7.099 -0.5102  0.5470 -0.0056
  857MOL0     C18144  10.091   5.771   7.024 -0.6926 -0.2485  0.1890
  857MOL0     N18145  10.027   5.852   7.134 -0.1058  0.2885  0.7662
  857MOL0     C18146   9.903   5.832   7.173  0.1744  0.3310 -0.0621
  857MOL0     C18147   9.875   5.926   7.262 -0.6922  0.1822 -0.4617
  857MOL0     C18148   9.733   5.948   7.318  0.2609 -0.9333 -0.7152
  857MOL0     C18149   9.614   5.935   7.224  0.5061 -0.4264 -0.1036
  857MOL0     C18150   9.632   6.049   7.123 -0.8494 -0.4311  0.2740
  857MOL0     C18151   9.509   6.045   7.029 -0.4350 -0.2750 -1.0513
  857MOL0     O18152   9.552   5.983   6.909 -0.8955 -0.5791  0.6471
  857MOL0     C18153   9.620   6.045   6.813 -0.1390  0.4879  0.4980
  857MOL0     C18154   9.681   6.173   6.820  0.7140  0.7588 -0.9108
  857MOL0     C18155   9.741   6.227   6.702  0.1906  0.1075 -0.5383
  857MOL0     C18156   9.790   6.368   6.721 -0.5999  0.0417  1.0985
  857MOL0     C18157   9.736   6.159   6.572 -0.2046  0.3206  0.5282
  857MOL0     C18158   9.775   6.225   6.445 -0.4703  0.1362  1.0216
  857MOL0     O18159   9.741   6.351   6.424 -0.4499 -0.4956 -0.3230
  857MOL0     C18160   9.731   6.417   6.302  0.7174 -0.2101 -0.2864
  857MOL0     C18161   9.721   6.563   6.289  0.4803  0.6609  0.2084
  857MOL0     C18162   9.706   6.629   6.165 -0.2551  1.0829  0.1457
  857MOL0     C18163   9.697   6.554   6.046 -0.2229 -0.3120  0.2978
  857MOL0     O18164   9.706   6.608   5.920  0.1051 -0.1737  0.5133
  857MOL0     C18165   9.827   6.588   5.846  0.2048 -0.1818 -0.2552
  857MOL0     C18166   9.842   6.710   5.744  0.0008  0.2444  0.2157
  857MOL0     C18167   9.842   6.849   5.819  0.8398  0.3205 -0.3299
  857MOL0     C18168   9.961   6.925   5.764  0.5343 -0.0511 -0.1851
  857MOL0     C18169   9.936   6.976   5.619 -0.7902  0.3803  0.1421
  857MOL0     C18170   9.817   7.062   5.598 -0.0845 -0.0739  0.4639
  857MOL0     C18171   9.823   7.145   5.467  0.0034  0.2270  1.2282
  857MOL0     C18172   9.682   7.183   5.413 -0.2051  0.1342  0.8470
  857MOL0    Cl18173   9.688   7.263   5.257  0.1600  0.2224  0.0539
  857MOL0     C18174   9.703   6.412   6.056 -0.0056 -0.3393  0.1774
  857MOL0     C18175   9.722   6.348   6.181 -0.9010 -0.4586  0.6479
  857MOL0     O18176   9.838   6.151   6.370  0.0011 -1.1300 -0.3484
  857MOL0     C18177   9.682   6.030   6.578 -1.4342  0.6381  1.3081
  857MOL0     C18178   9.628   5.972   6.694 -1.2012 -0.5150 -0.2775
  857MOL0     N18179   9.996   5.995   7.289  0.3809 -0.7556 -0.3730
  857MOL0     N18180  10.082   5.947   7.204 -0.7055 -0.1598 -0.3320
  857MOL0     C18181  10.309   5.480   7.929  0.2281 -0.4974 -0.3455
  857MOL0     C18182  10.364   5.594   7.992  0.7807  0.5873 -0.1457
  857MOL0     C18183  10.572   5.933   8.175 -0.7776  0.1516 -0.5409
  857MOL0     C18184  10.501   6.046   8.134  0.7078  0.6421  0.2811
  857MOL0     C18185  10.522   6.161   8.202  0.3432  0.3640  0.2094
  857MOL0     C18186  10.616   6.182   8.300 -0.2455  0.1852 -0.6732
  857MOL0     O18187  10.629   6.316   8.354 -0.1375  0.3856  0.2742
  857MOL0     C18188  10.742   6.327   8.446 -0.4652  0.0473  1.1508
  857MOL0     C18189  10.770   6.475   8.477  0.3747  0.6093 -0.3346
  857MOL0     C18190  10.662   6.522   8.581 -0.7232 -0.4087 -0.3608
  857MOL0     C18191  10.522   6.530   8.526  0.1565  0.1832  0.9704
  857MOL0     C18192  10.425   6.586   8.616 -1.1283  0.1234 -0.1069
  857MOL0     C18193  10.334   6.609   8.689 -0.0302 -0.1015  0.6127
  857MOL0     C18194  10.689   6.069   8.337 -0.6545 -0.5251  0.1996
  857MOL0     C18195  10.674   5.951   8.277 -0.1866  0.3111  1.0996
  857MOL0     C18196  10.773   5.847   8.311  0.2332 -0.6589 -0.5474
  857MOL0     H18197  10.616   5.657   7.768 -0.0693  0.4996 -0.9117
  857MOL0     H18198  10.529   5.450   7.671  1.3051 -1.1490  1.9286
  857MOL0     H18199  10.168   5.458   7.676 -3.0985 -0.6762  2.9910
  857MOL0     H18200  10.107   5.322   7.758  1.4753 -3.2364  0.7619
  857MOL0     H18201  10.183   5.161   7.568  2.2444 -0.1643 -6.4600
  857MOL0     H18202  10.057   5.277   7.545  0.0127 -0.6112 -1.9533
  857MOL0     H18203  10.341   5.367   7.476  1.0352 -2.7046  1.4914
  857MOL0     H18204  10.260   5.245   7.376 -1.3762  0.5227 -0.7821
  857MOL0     H18205  10.077   5.384   7.341 -1.6119 -0.0363  1.1360
  857MOL0     H18206  10.121   5.510   7.459 -2.3334 -0.7482 -1.1882
  857MOL0     H18207  10.293   5.465   7.206 -0.4709 -1.5572  1.0001
  857MOL0     H18208  10.312   5.586   7.336 -0.5904 -1.7468  2.5894
  857MOL0     H18209  10.070   5.529   7.162 -2.0238  0.4777  1.6013
  857MOL0     H18210  10.072   5.655   7.283  0.7063  0.6355  0.0930
  857MOL0     H18211  10.237   5.625   7.025 -0.2358  0.0058  0.6433
  857MOL0     H18212  10.265   5.760   7.143 -1.4355 -0.7206  3.8888
  857MOL0     H18213  10.134   5.834   6.946  1.7472 -3.3566 -1.1844
  857MOL0     H18214  10.016   5.702   6.985 -1.2729  0.5787 -0.1936
  857MOL0     H18215   9.825   5.787   7.113 -0.7388  2.5964 -0.6733
  857MOL0     H18216   9.734   6.043   7.371 -0.2982 -3.6149  4.8951
  857MOL0     H18217   9.715   5.880   7.402  0.3893 -0.7786 -0.5641
  857MOL0     H18218   9.621   5.837   7.177 -1.8641  0.1704 -1.9199
  857MOL0     H18219   9.514   5.940   7.270 -0.5846  1.2213 -2.4400
  857MOL0     H18220   9.643   6.147   7.171 -0.8425  1.4185 -3.1747
  857MOL0     H18221   9.719   6.022   7.063 -2.0148 -0.8971 -1.2628
  857MOL0     H18222   9.421   5.993   7.070 -0.6881  0.3752 -0.7600
  857MOL0     H18223   9.467   6.144   7.011 -1.1824 -0.2844  0.4670
  857MOL0     H18224   9.689   6.232   6.911  1.6359  0.1865 -0.6110
  857MOL0     H18225   9.805   6.396   6.826 -1.0730  3.9063  0.2922
  857MOL0     H18226   9.724   6.444   6.678 -1.7512 -0.8533  1.2268
  857MOL0     H18227   9.882   6.376   6.663 -0.0903  2.5233  2.1201
  857MOL0     H18228   9.740   6.621   6.378 -2.7833  0.5983  1.0804
  857MOL0     H18229   9.711   6.737   6.175 -4.8023  1.3230  2.7542
  857MOL0     H18230   9.918   6.587   5.908 -1.7585  0.5089  2.8714
  857MOL0     H18231   9.812   6.494   5.794 -1.9666  1.8498 -3.6389
  857MOL0     H18232   9.936   6.699   5.689  0.0848 -0.9199  0.5693
  857MOL0     H18233   9.767   6.708   5.665 -0.2305 -0.3602  0.4445
  857MOL0     H18234   9.850   6.835   5.927 -3.2174 -0.9361 -0.0075
  857MOL0     H18235   9.741   6.890   5.804  0.9346  0.0378 -1.9099
  857MOL0     H18236  10.051   6.864   5.773  0.8483  0.3389 -0.6601
  857MOL0     H18237   9.963   7.016   5.825 -0.7427  0.1753 -0.4411
  857MOL0     H18238  10.026   7.034   5.596  0.0890 -1.0858 -0.3380
  857MOL0     H18239   9.924   6.891   5.550  0.0173  2.0659 -2.2117
  857MOL0     H18240   9.806   7.133   5.680  2.0454  0.8075  0.0747
  857MOL0     H18241   9.733   6.992   5.602  1.4038 -2.0350 -0.7252
  857MOL0     H18242   9.864   7.080   5.388  0.5893  2.1774 -0.1483
  857MOL0     H18243   9.875   7.240   5.481 -3.6787  2.4758  0.9639
  857MOL0     H18244   9.636   7.250   5.486 -0.4040  2.7498 -1.5397
  857MOL0     H18245   9.621   7.093   5.397 -0.6594  0.4566  0.7587
  857MOL0     H18246   9.682   6.357   5.965  0.4843  1.5872 -1.1769
  857MOL0     H18247   9.727   6.240   6.173 -3.4410 -0.5092 -3.4073
  857MOL0     H18248   9.654   5.968   6.494 -1.6319  1.3451  0.8411
  857MOL0     H18249   9.583   5.876   6.672  1.2030 -1.3994 -1.6357
  857MOL0     H18250  10.216   5.432   7.959  1.4517 -2.5380  0.4191
  857MOL0     H18251  10.315   5.640   8.077 -0.0745  1.3242 -1.0162
  857MOL0     H18252  10.433   6.046   8.049 -0.7167 -1.3118  1.3608
  857MOL0     H18253  10.479   6.252   8.164 -3.0255 -0.8376  0.8130
  857MOL0     H18254  10.733   6.271   8.540  1.2088 -0.9212  0.7829
  857MOL0     H18255  10.830   6.277   8.403 -2.0815 -4.4941  2.5373
  857MOL0     H18256  10.771   6.535   8.386 -1.2884  1.4379  0.1602
  857MOL0     H18257  10.867   6.473   8.528  0.8626 -0.6099 -1.2712
  857MOL0     H18258  10.660   6.464   8.673  0.2000  0.5101  0.2638
  857MOL0     H18259  10.695   6.623   8.610  1.1985 -1.5383  1.6988
  857MOL0     H18260  10.491   6.427   8.510 -1.5732  0.4211  2.4429
  857MOL0     H18261  10.517   6.598   8.441 -0.2924  2.4073  2.6590
  857MOL0     H18262  10.248   6.624   8.752 -0.1193 -2.2556  1.0845
  857MOL0     H18263  10.763   6.072   8.416 -2.1155  1.0334  1.5777
  857MOL0     H18264  10.801   5.786   8.224  0.4063 -0.4739 -0.6244
  857MOL0     H18265  10.860   5.906   8.342 -0.2580 -1.0714  1.7359
  857MOL0     H18266  10.737   5.783   8.391 -1.4446 -1.1814 -1.6612
  858MOL0     O18267   8.240   1.046   4.548  0.4009  0.7902 -0.8812
  858MOL0     C18268   8.255   1.123   4.641 -0.4115  0.1567 -0.8481
  858MOL0     O18269   8.278   1.090   4.770 -0.1492 -0.2391 -0.4841
  858MOL0     C18270   8.296   0.952   4.786 -0.4361 -0.1182  0.2938
  858MOL0     C18271   8.245   0.890   4.900 -0.4574 -0.1963  0.8608
  858MOL0     C18272   8.285   0.762   4.945 -1.2404  0.4739  0.3768
  858MOL0     C18273   8.372   0.688   4.864  0.0232  0.4241 -0.3393
  858MOL0     O18274   8.395   0.561   4.907 -0.2494 -0.4096 -1.1121
  858MOL0     C18275   8.500   0.543   4.999  0.3757  0.7340 -0.3500
  858MOL0     C18276   8.646   0.567   4.950  0.5092  0.1991  0.0207
  858MOL0     C18277   8.682   0.471   4.837 -0.1338  0.0818 -0.5248
  858MOL0     C18278   8.833   0.501   4.783  0.2574 -0.4742  0.8682
  858MOL0     C18279   8.865   0.414   4.664  0.6139 -0.1621 -0.1020
  858MOL0     C18280   8.977   0.466   4.581 -0.4755 -0.6119 -0.3769
  858MOL0     C18281   9.114   0.473   4.651 -0.3912 -0.1033 -0.2125
  858MOL0     C18282   9.235   0.510   4.565 -0.1734  0.4776  0.3620
  858MOL0     N18283   9.299   0.397   4.491 -1.3360 -0.1942 -0.1505
  858MOL0     C18284   9.429   0.411   4.439  0.3421 -0.6322 -0.3475
  858MOL0     C18285   9.458   0.285   4.421 -0.4361 -0.2134 -0.3686
  858MOL0     C18286   9.580   0.249   4.341 -0.3505  0.4832  0.8524
  858MOL0     C18287   9.537   0.228   4.190  0.3802  0.5141  0.4352
  858MOL0     C18288   9.654   0.191   4.088  0.5301 -0.2795 -0.7018
  858MOL0     C18289   9.767   0.288   4.083 -0.0845 -0.3287 -0.6208
  858MOL0     O18290   9.714   0.421   4.085  0.4503 -0.0218 -0.0967
  858MOL0     C18291   9.797   0.532   4.097  0.8901  0.3253 -0.4785
  858MOL0     C18292   9.752   0.659   4.096  0.3707 -0.2134 -0.1440
  858MOL0     C18293   9.830   0.770   4.111 -0.2044  1.2778  0.0365
  858MOL0     C18294   9.763   0.906   4.112 -0.0483  0.1141  0.1050
  858MOL0     C18295   9.963   0.747   4.128 -0.5148  0.3593 -0.1373
  858MOL0     C18296  10.065   0.856   4.136 -0.2360  0.1135  0.2347
  858MOL0     O18297  10.061   0.939   4.035  0.4047 -0.2277 -0.5033
  858MOL0     C18298  10.108   1.065   4.043 -0.2454 -0.3495  0.1320
  858MOL0     C18299  10.113   1.137   3.921 -0.0566 -0.1411  0.2000
  858MOL0     C18300  10.165   1.265   3.905  0.2363  0.2127 -0.3992
  858MOL0     C18301  10.236   1.318   4.013 -0.0608 -0.0180  0.3980
  858MOL0     O18302  10.313   1.435   4.005 -0.3391 -0.2837 -0.2320
  858MOL0     C18303  10.303   1.508   3.885  0.5076 -0.7328  0.1778
  858MOL0     C18304  10.390   1.466   3.758 -0.7145  0.0948 -0.0091
  858MOL0     C18305  10.543   1.443   3.790  0.2823 -0.3975 -0.1569
  858MOL0     C18306  10.610   1.377   3.670 -0.7439 -0.9054 -0.7830
  858MOL0     C18307  10.765   1.365   3.684  0.9808 -0.7948 -0.3043
  858MOL0     C18308  10.826   1.288   3.567 -0.2064 -0.5831 -0.5108
  858MOL0     C18309  10.828   1.376   3.444  0.5758  0.3441  0.1841
  858MOL0     C18310  10.752   1.305   3.329 -0.2143 -0.0719  0.2984
  858MOL0    Cl18311  10.668   1.417   3.214  0.6122  0.3067 -0.1855
  858MOL0     C18312  10.236   1.255   4.136  0.0193  0.1266 -0.1569
  858MOL0     C18313  10.164   1.135   4.150 -0.5808 -0.2122  0.0810
  858MOL0     O18314  10.156   0.846   4.223 -0.4456  0.2768  0.3613
  858MOL0     C18315  10.014   0.619   4.143  0.1909  0.2396  0.0618
  858MOL0     C18316   9.931   0.508   4.124 -0.7073  0.1496  0.7114
  858MOL0     N18317   9.362   0.190   4.458  0.1533 -0.0951 -0.3927
  858MOL0     N18318   9.258   0.262   4.495  0.0576 -0.3021  0.6388
  858MOL0     C18319   8.436   0.743   4.756 -0.5065 -0.7015  0.0650
  858MOL0     C18320   8.393   0.871   4.709  0.4442 -0.3333  0.0367
  858MOL0     C18321   8.248   1.265   4.609 -0.3234  0.1920 -0.0672
  858MOL0     C18322   8.200   1.354   4.716  0.4358  0.5990  0.1450
  858MOL0     C18323   8.154   1.474   4.684 -0.6780 -0.8555 -0.8520
  858MOL0     C18324   8.171   1.536   4.559  0.8719 -0.3108 -0.8337
  858MOL0     O18325   8.135   1.669   4.546 -0.2577 -0.9220  0.1194
  858MOL0     C18326   8.041   1.683   4.444  0.5900 -0.1898  0.0317
  858MOL0     C18327   8.081   1.800   4.360  0.0785  0.4013  0.2986
  858MOL0     C18328   8.053   1.936   4.430 -0.2131  0.0249 -0.4182
  858MOL0     C18329   8.068   2.065   4.336 -0.2997 -0.4281 -0.2006
  858MOL0     C18330   8.206   2.112   4.330  0.5447 -0.2507  0.3332
  858MOL0     C18331   8.321   2.141   4.311 -1.1464 -0.5631 -0.5329
  858MOL0     C18332   8.239   1.465   4.462 -0.8027  0.0709 -0.4922
  858MOL0     C18333   8.281   1.331   4.486  0.6244  0.8376 -0.0201
  858MOL0     C18334   8.367   1.266   4.379  0.2854  0.4910 -0.4311
  858MOL0     H18335   8.193   0.951   4.974  0.4195  3.0950 -1.0296
  858MOL0     H18336   8.257   0.722   5.042  2.6782 -1.1180  1.0602
  858MOL0     H18337   8.487   0.439   5.033 -0.7522  1.1606  0.6170
  858MOL0     H18338   8.489   0.608   5.087  2.5541  1.1329 -0.3338
  858MOL0     H18339   8.664   0.666   4.908 -0.8260  0.4715  0.0426
  858MOL0     H18340   8.715   0.559   5.035  0.9634  1.4942 -0.1917
  858MOL0     H18341   8.670   0.366   4.866  0.0390  0.5904  1.5037
  858MOL0     H18342   8.618   0.500   4.753 -0.2167 -1.6923 -1.1184
  858MOL0     H18343   8.855   0.607   4.767  0.6059 -0.8042 -1.2054
  858MOL0     H18344   8.902   0.463   4.859  1.9363 -2.7792 -1.5566
  858MOL0     H18345   8.770   0.403   4.611 -1.0831  0.8057  2.5219
  858MOL0     H18346   8.892   0.314   4.699 -1.1539  0.0445  2.0629
  858MOL0     H18347   8.997   0.406   4.491  0.4405  1.4526 -1.6334
  858MOL0     H18348   8.958   0.570   4.552 -3.2481 -0.1820  2.5003
  858MOL0     H18349   9.142   0.377   4.695 -0.4545 -0.3978 -0.7962
  858MOL0     H18350   9.100   0.545   4.732  0.0155 -1.5148  1.1591
  858MOL0     H18351   9.197   0.580   4.489 -2.0338  1.9748  2.5217
  858MOL0     H18352   9.306   0.560   4.632  2.1121  0.5599 -1.9670
  858MOL0     H18353   9.487   0.497   4.408 -0.2930 -0.2525 -0.4873
  858MOL0     H18354   9.627   0.159   4.383 -1.0290  0.9420  2.6975
  858MOL0     H18355   9.652   0.330   4.332  0.0086 -0.0598 -2.0849
  858MOL0     H18356   9.478   0.137   4.205 -3.5942  2.5159 -1.4815
  858MOL0     H18357   9.475   0.305   4.145 -1.5761 -0.3299  1.5436
  858MOL0     H18358   9.692   0.104   4.142 -0.0703  0.0625  0.3016
  858MOL0     H18359   9.616   0.167   3.988 -1.4661  0.3578 -0.1592
  858MOL0     H18360   9.843   0.273   4.160  0.7023  0.1468 -1.2923
  858MOL0     H18361   9.814   0.277   3.986 -3.4366  0.8064 -2.5445
  858MOL0     H18362   9.644   0.669   4.096  0.5027  1.7448 -1.0848
  858MOL0     H18363   9.806   0.970   4.035  0.6534  0.6725  0.9366
  858MOL0     H18364   9.780   0.952   4.210  1.7735  2.0892 -1.0726
  858MOL0     H18365   9.656   0.910   4.086  1.0018  3.5338 -5.0597
  858MOL0     H18366  10.070   1.092   3.832 -0.8481 -0.1710  0.5911
  858MOL0     H18367  10.152   1.321   3.813  1.4392 -0.3269 -0.9182
  858MOL0     H18368  10.200   1.511   3.848  1.3255 -0.4522 -2.2703
  858MOL0     H18369  10.335   1.610   3.908  2.7539 -1.8260  2.2739
  858MOL0     H18370  10.350   1.373   3.715 -2.1259  0.2475  0.8747
  858MOL0     H18371  10.366   1.533   3.675  1.0265  0.1130 -0.5199
  858MOL0     H18372  10.560   1.388   3.883  0.1992 -2.5989 -1.3910
  858MOL0     H18373  10.587   1.539   3.818 -1.1135 -0.3162  2.0174
  858MOL0     H18374  10.584   1.432   3.579 -2.6882  0.0747  0.2789
  858MOL0     H18375  10.579   1.274   3.653  0.4561 -1.5361  0.6489
  858MOL0     H18376  10.795   1.470   3.691  1.2245 -0.9756  3.1080
  858MOL0     H18377  10.794   1.311   3.775 -0.7238 -4.2408 -1.6302
  858MOL0     H18378  10.785   1.190   3.544 -0.1039 -0.8384  0.3557
  858MOL0     H18379  10.931   1.264   3.590 -0.7784 -0.1999  3.0456
  858MOL0     H18380  10.931   1.404   3.420 -0.2859  2.1108 -1.7370
  858MOL0     H18381  10.772   1.467   3.468 -0.4080 -0.1826 -0.0420
  858MOL0     H18382  10.669   1.252   3.377 -1.2176 -0.4458 -1.7306
  858MOL0     H18383  10.830   1.245   3.282 -0.1866  0.6626 -0.6108
  858MOL0     H18384  10.286   1.297   4.222  2.3581 -2.4482 -0.1053
  858MOL0     H18385  10.167   1.099   4.253  1.2673  3.1732  1.3768
  858MOL0     H18386  10.121   0.604   4.153  0.3344 -0.5579 -2.0517
  858MOL0     H18387   9.988   0.416   4.126  0.6110  0.9294  0.0189
  858MOL0     H18388   8.502   0.677   4.700  3.5614  0.3057  3.2394
  858MOL0     H18389   8.432   0.910   4.615 -1.5924  2.4202  0.2122
  858MOL0     H18390   8.177   1.325   4.818  0.8251 -1.2276 -0.2445
  858MOL0     H18391   8.122   1.529   4.772  2.0456 -0.8582  0.2321
  858MOL0     H18392   8.036   1.593   4.381  1.0732 -0.3931  0.2782
  858MOL0     H18393   7.939   1.704   4.479  0.0733 -0.2137 -1.3917
  858MOL0     H18394   8.023   1.797   4.268  1.8526 -3.2108 -0.9143
  858MOL0     H18395   8.184   1.771   4.337  0.6249  1.4941  1.2657
  858MOL0     H18396   7.952   1.932   4.473 -0.3267  0.2059 -0.6674
  858MOL0     H18397   8.122   1.951   4.513 -1.2814  0.4727  0.4254
  858MOL0     H18398   7.996   2.136   4.377 -0.1894  0.2808 -1.1815
  858MOL0     H18399   8.029   2.038   4.237  1.1494 -1.6130 -0.4831
  858MOL0     H18400   8.426   2.156   4.297 -0.5523 -2.3070  1.4717
  858MOL0     H18401   8.283   1.508   4.372  0.8545  0.1957  0.3296
  858MOL0     H18402   8.388   1.334   4.296  0.6058 -0.6516 -1.3017
  858MOL0     H18403   8.461   1.228   4.423 -0.7882  1.2535  2.8420
  858MOL0     H18404   8.307   1.187   4.334  1.4223 -1.5968  1.4744
  859MOL0     O18405   3.486   2.221  10.744 -0.2406  0.0098  0.3037
  859MOL0     C18406   3.538   2.128  10.682 -0.0163 -0.8959 -0.1860
  859MOL0     O18407   3.476   2.037  10.602 -0.2848  0.0461  0.5633
  859MOL0     C18408   3.359   1.980  10.653 -0.9233 -0.6600 -0.5842
  859MOL0     C18409   3.344   1.938  10.791  0.3317 -0.2715 -0.3386
  859MOL0     C18410   3.223   1.884  10.835  0.4589 -0.2022  0.0856
  859MOL0     C18411   3.106   1.874  10.762 -0.5920 -0.5527  0.7598
  859MOL0     O18412   2.989   1.818  10.806 -0.6673  0.4723  0.6050
  859MOL0     C18413   2.899   1.779  10.688 -0.1055  0.0084 -0.8575
  859MOL0     C18414   2.760   1.728  10.733  0.1039  0.0972  0.1429
  859MOL0     C18415   2.781   1.578  10.776  0.4984 -0.8843 -1.1817
  859MOL0     C18416   2.630   1.534  10.793  0.7899  0.7241  0.0162
  859MOL0     C18417   2.626   1.398  10.852  0.2921  1.4363  0.7867
  859MOL0     C18418   2.487   1.333  10.833 -0.3292  0.6051 -0.3431
  859MOL0     C18419   2.474   1.190  10.873  0.1712 -0.6471 -0.7623
  859MOL0     C18420   2.342   1.161  10.955  0.7557 -0.1817 -0.2722
  859MOL0     N18421   2.224   1.179  10.863  0.0091  0.0971  0.6000
  859MOL0     C18422   2.168   1.288  10.808  0.3624  0.1353  0.7532
  859MOL0     C18423   2.051   1.251  10.751  0.6712  0.1833  0.2671
  859MOL0     C18424   1.970   1.348  10.667 -0.0416 -0.0832 -0.4464
  859MOL0     C18425   1.840   1.284  10.618  0.0955  0.0010 -0.0156
  859MOL0     C18426   1.733   1.278  10.729 -0.0185  0.3652  0.3325
  859MOL0     C18427   1.599   1.236  10.673 -0.2330  0.0201  0.2228
  859MOL0     O18428   1.511   1.216  10.791 -0.2012  0.4413  1.3812
  859MOL0     C18429   1.393   1.147  10.780  0.2139 -0.0261  0.4446
  859MOL0     C18430   1.368   1.027  10.847  0.1749 -0.4370  0.1703
  859MOL0     C18431   1.257   0.944  10.826 -0.1370 -0.5222 -0.0011
  859MOL0     C18432   1.256   0.826  10.910  0.4500 -0.2888  0.4228
  859MOL0     C18433   1.158   0.983  10.726 -0.0967 -0.3998 -0.5382
  859MOL0     C18434   1.039   0.901  10.701  0.5542  0.9530 -0.3130
  859MOL0     O18435   1.035   0.765  10.728 -0.1603  0.2167 -0.7393
  859MOL0     C18436   0.943   0.690  10.655 -0.3791  0.3936  0.2972
  859MOL0     C18437   0.881   0.585  10.718  0.5784  1.1094  0.1807
  859MOL0     C18438   0.808   0.492  10.646 -0.0593  0.2975 -0.5005
  859MOL0     C18439   0.793   0.499  10.505 -0.6879  0.0041  0.0612
  859MOL0     O18440   0.725   0.400  10.449 -0.0495 -0.0381 -0.0146
  859MOL0     C18441   0.814   0.293  10.407  0.2193 -0.2282  0.1682
  859MOL0     C18442   0.737   0.188  10.339  0.4569  0.0113  0.2405
  859MOL0     C18443   0.660   0.232  10.211 -0.4058 -0.0223  0.1894
  859MOL0     C18444   0.625   0.109  10.117  0.7084 -0.3278 -0.1870
  859MOL0     C18445   0.546   0.136   9.993 -0.5759  0.1772  0.1065
  859MOL0     C18446   0.519   0.014   9.907  0.5177 -0.2153  0.0495
  859MOL0     C18447   0.632  -0.033   9.814  0.0252  0.2118 -0.5155
  859MOL0     C18448   0.581  -0.158   9.749 -0.6047  0.0219 -0.5941
  859MOL0    Cl18449   0.431  -0.131   9.666 -0.4765  0.3218 -0.3588
  859MOL0     C18450   0.856   0.611  10.442  1.0141  0.6207 -0.4011
  859MOL0     C18451   0.933   0.701  10.514 -0.1577  0.4325  0.3645
  859MOL0     O18452   0.941   0.960  10.659 -0.1856 -0.3236 -0.7217
  859MOL0     C18453   1.183   1.101  10.660 -0.1374 -0.1547  0.6052
  859MOL0     C18454   1.304   1.176  10.677  0.3885 -0.4848  0.1632
  859MOL0     N18455   2.030   1.115  10.774 -0.1118 -0.5345 -0.4039
  859MOL0     N18456   2.138   1.070  10.835  0.5927  0.3917  0.0612
  859MOL0     C18457   3.132   1.912  10.629 -0.0811  0.0842 -0.6490
  859MOL0     C18458   3.250   1.965  10.571 -0.0859 -0.6354 -0.3347
  859MOL0     C18459   3.681   2.134  10.676  1.0282  0.8107 -0.1130
  859MOL0     C18460   3.740   2.110  10.548 -0.4446  0.1769 -0.1416
  859MOL0     C18461   3.877   2.101  10.536 -0.9766  0.3965 -1.1955
  859MOL0     C18462   3.962   2.120  10.643  0.6621  0.5315 -1.3500
  859MOL0     O18463   4.106   2.121  10.635 -0.1139  0.4534  0.4101
  859MOL0     C18464   4.172   2.000  10.690 -0.6761  0.3107  0.6490
  859MOL0     C18465   4.314   1.999  10.626  0.6569 -0.2588 -0.4705
  859MOL0     C18466   4.304   2.006  10.479  0.2280 -0.1487  0.1156
  859MOL0     C18467   4.318   2.145  10.421 -0.1092  0.3259 -0.5740
  859MOL0     C18468   4.319   2.131  10.273  0.0274  0.6230 -0.7526
  859MOL0     C18469   4.324   2.088  10.156  0.8538 -0.1407  0.2672
  859MOL0     C18470   3.900   2.140  10.771 -0.1625 -0.3947  0.2255
  859MOL0     C18471   3.758   2.145  10.793  0.7383  0.0401  0.2591
  859MOL0     C18472   3.713   2.183  10.931 -1.2699 -0.3607 -0.0609
  859MOL0     H18473   3.421   1.955  10.866 -1.0225 -1.2933  1.3491
  859MOL0     H18474   3.212   1.842  10.935 -1.1165 -0.4702 -0.1723
  859MOL0     H18475   2.939   1.709  10.615 -1.3467  0.1144 -1.6581
  859MOL0     H18476   2.865   1.873  10.644 -2.9664 -0.7028 -0.3608
  859MOL0     H18477   2.729   1.790  10.817  2.1425  1.1729  0.1630
  859MOL0     H18478   2.700   1.747  10.643 -1.4838  1.9202  1.5021
  859MOL0     H18479   2.837   1.517  10.704  0.7472 -2.0090 -0.0662
  859MOL0     H18480   2.833   1.576  10.872 -0.9224  2.8182 -0.1655
  859MOL0     H18481   2.584   1.595  10.872  0.6433 -0.4836  0.8911
  859MOL0     H18482   2.575   1.523  10.700  3.5389 -4.4548 -1.3941
  859MOL0     H18483   2.652   1.386  10.958  1.6109 -0.0677  0.3388
  859MOL0     H18484   2.704   1.343  10.799 -0.0142  2.3920 -0.7197
  859MOL0     H18485   2.431   1.395  10.904 -1.2400 -0.3242 -0.2169
  859MOL0     H18486   2.444   1.353  10.734 -0.6328  1.6043 -0.0253
  859MOL0     H18487   2.563   1.152  10.925  1.4065 -1.9369 -3.5689
  859MOL0     H18488   2.478   1.144  10.774 -0.6131 -0.0702 -1.0731
  859MOL0     H18489   2.341   1.057  10.988  2.8871 -0.4891 -1.0012
  859MOL0     H18490   2.319   1.223  11.042  0.4213  0.0203 -0.5040
  859MOL0     H18491   2.210   1.388  10.817 -1.7184  0.9032  2.8323
  859MOL0     H18492   2.034   1.385  10.586 -1.2218  1.3635 -0.7620
  859MOL0     H18493   1.941   1.428  10.735 -0.3542 -0.0175 -0.6551
  859MOL0     H18494   1.801   1.350  10.540 -0.5139  0.8225  0.9609
  859MOL0     H18495   1.858   1.181  10.586 -0.2642 -0.1012  0.1126
  859MOL0     H18496   1.756   1.198  10.799 -1.4453  1.5172  2.2218
  859MOL0     H18497   1.723   1.374  10.782  1.2267  0.0266  1.2098
  859MOL0     H18498   1.561   1.323  10.618 -2.4110  0.0596  1.6665
  859MOL0     H18499   1.597   1.155  10.601 -0.0918 -0.3636  0.6411
  859MOL0     H18500   1.437   0.985  10.920 -1.8281 -2.7179  0.8885
  859MOL0     H18501   1.154   0.801  10.941 -0.2880  0.3528 -1.3797
  859MOL0     H18502   1.305   0.825  11.008 -4.2897  1.3516  3.1131
  859MOL0     H18503   1.284   0.734  10.857  2.5115  0.9355 -0.7668
  859MOL0     H18504   0.899   0.568  10.823  1.6510  1.5281  0.0744
  859MOL0     H18505   0.772   0.399  10.688 -0.5992  0.7979  0.1805
  859MOL0     H18506   0.893   0.332  10.343  0.5690  0.7021  1.1263
  859MOL0     H18507   0.874   0.247  10.486 -1.7631 -1.6931  0.8981
  859MOL0     H18508   0.806   0.110  10.307 -1.0405 -1.2280 -0.0956
  859MOL0     H18509   0.664   0.136  10.403  0.8697  0.3428  0.9959
  859MOL0     H18510   0.717   0.302  10.150 -0.0699 -0.3557  0.1153
  859MOL0     H18511   0.574   0.289  10.247 -1.0545 -0.9963  0.2254
  859MOL0     H18512   0.563   0.038  10.173  2.1018 -1.4953 -0.0573
  859MOL0     H18513   0.715   0.052  10.096  1.6441  0.4277  1.5290
  859MOL0     H18514   0.448   0.172  10.026 -0.5415 -0.1754  0.6136
  859MOL0     H18515   0.587   0.209   9.923 -2.2413 -1.7405 -3.1417
  859MOL0     H18516   0.444   0.052   9.837  2.3605 -0.7093 -2.3066
  859MOL0     H18517   0.483  -0.071   9.966 -0.6181 -2.3506 -3.4282
  859MOL0     H18518   0.720  -0.051   9.876 -0.3042  1.4536  0.3237
  859MOL0     H18519   0.658   0.041   9.738  2.3850  1.0735  1.0380
  859MOL0     H18520   0.565  -0.248   9.809  2.6255  0.5561  1.3040
  859MOL0     H18521   0.656  -0.182   9.674  2.4387 -0.5085  2.3808
  859MOL0     H18522   0.837   0.621  10.335 -0.0293  1.4438 -0.1463
  859MOL0     H18523   0.991   0.770  10.455  0.2864 -1.0894 -1.0444
  859MOL0     H18524   1.110   1.125  10.584 -0.0026  0.7847  0.7634
  859MOL0     H18525   1.314   1.263  10.613 -2.4904  2.6681  3.5837
  859MOL0     H18526   3.051   1.915  10.556 -0.1986  2.5459 -0.4973
  859MOL0     H18527   3.258   2.005  10.470 -2.3518  1.5084  0.2091
  859MOL0     H18528   3.675   2.109  10.461 -0.4325 -0.7371 -0.1479
  859MOL0     H18529   3.932   2.081  10.444  3.0553  4.0617  0.0973
  859MOL0     H18530   4.190   1.993  10.797  2.4996 -1.5031  0.1073
  859MOL0     H18531   4.120   1.908  10.660  2.0119 -1.9816  2.5053
  859MOL0     H18532   4.375   1.911  10.646  0.6429 -0.7502 -2.3776
  859MOL0     H18533   4.363   2.090  10.662  0.0318 -0.9625  2.3835
  859MOL0     H18534   4.384   1.939  10.445  0.2586 -0.0111 -0.0877
  859MOL0     H18535   4.214   1.959  10.437  1.9364 -1.4343 -2.4255
  859MOL0     H18536   4.413   2.185  10.456  0.5970  0.8127 -2.8638
  859MOL0     H18537   4.245   2.225  10.440 -0.1764 -0.5412  3.9910
  859MOL0     H18538   4.338   2.064  10.052  1.9166  2.7806 -0.3812
  859MOL0     H18539   3.962   2.154  10.859 -0.2422  0.0651  0.2109
  859MOL0     H18540   3.790   2.164  11.006  1.4728  1.7620 -2.1384
  859MOL0     H18541   3.693   2.290  10.929 -4.0329 -0.8088 -0.9126
  859MOL0     H18542   3.621   2.132  10.963 -1.2356  0.7041  1.8433
  860MOL0     O18543   4.745   7.570   3.838  1.0414  0.1609 -0.9211
  860MOL0     C18544   4.750   7.555   3.961  0.7076 -0.3100  0.5503
  860MOL0     O18545   4.859   7.574   4.025  0.1721  0.1309 -0.5719
  860MOL0     C18546   4.985   7.600   3.967 -1.3466 -0.4598 -0.4332
  860MOL0     C18547   5.044   7.527   3.871 -0.0328 -0.1056  0.1000
  860MOL0     C18548   5.151   7.576   3.801 -0.7493  0.4533 -0.8891
  860MOL0     C18549   5.202   7.705   3.813  0.8741 -0.2135  0.5231
  860MOL0     O18550   5.305   7.737   3.731  0.0272 -0.4832  0.0640
  860MOL0     C18551   5.422   7.799   3.789 -0.8392  0.2132 -0.0485
  860MOL0     C18552   5.550   7.778   3.705  0.5221 -1.1092  0.4131
  860MOL0     C18553   5.620   7.639   3.718  0.0224  0.4499  0.8176
  860MOL0     C18554   5.757   7.654   3.654  0.7033 -0.1226  0.0034
  860MOL0     C18555   5.843   7.521   3.657  0.5570 -0.3257 -0.1242
  860MOL0     C18556   5.885   7.485   3.802  0.1660 -0.1631  0.4930
  860MOL0     C18557   5.981   7.367   3.793  0.5611  0.6167  0.0817
  860MOL0     C18558   6.044   7.332   3.917 -0.3083 -0.2740 -0.6349
  860MOL0     N18559   6.129   7.209   3.903 -0.2946  0.4184  0.4440
  860MOL0     C18560   6.264   7.203   3.912  0.1144  0.4346 -0.4759
  860MOL0     C18561   6.298   7.071   3.917  0.0236  1.1981  1.1363
  860MOL0     C18562   6.441   7.029   3.914 -0.8096  0.3518  0.6324
  860MOL0     C18563   6.481   6.958   4.045 -0.4787 -0.1687  0.0213
  860MOL0     C18564   6.412   7.015   4.171 -0.1186  0.0305 -0.4954
  860MOL0     C18565   6.462   6.953   4.299 -0.4673 -0.2577  1.2472
  860MOL0     O18566   6.380   6.995   4.402 -0.3590 -0.6300  0.5629
  860MOL0     C18567   6.431   7.114   4.455  0.5668  0.1539  0.4391
  860MOL0     C18568   6.336   7.199   4.489  0.1191 -1.2805  0.2911
  860MOL0     C18569   6.363   7.328   4.547  0.2111 -0.2239 -0.1248
  860MOL0     C18570   6.243   7.420   4.562  0.4156  0.6902  0.4663
  860MOL0     C18571   6.497   7.370   4.583  0.9307 -0.8748  0.0121
  860MOL0     C18572   6.532   7.505   4.633 -0.5744 -0.9699  0.9009
  860MOL0     O18573   6.675   7.521   4.625 -0.0667  0.2830  0.4915
  860MOL0     C18574   6.719   7.650   4.636  0.2789  0.1838 -0.7826
  860MOL0     C18575   6.784   7.706   4.527  1.2021  0.1360 -0.2601
  860MOL0     C18576   6.819   7.838   4.545  0.6162  0.6466  0.2862
  860MOL0     C18577   6.802   7.914   4.665 -0.4508  0.2629 -0.0801
  860MOL0     O18578   6.836   8.046   4.665  0.0655  0.4547 -0.2515
  860MOL0     C18579   6.796   8.126   4.551  0.2944  0.4015  0.4671
  860MOL0     C18580   6.802   8.281   4.579 -0.0083  0.5297 -0.7000
  860MOL0     C18581   6.666   8.339   4.622 -0.3589  0.2837 -0.0582
  860MOL0     C18582   6.598   8.271   4.742 -0.4269 -0.4120  0.0172
  860MOL0     C18583   6.497   8.367   4.814 -0.3028 -0.0018 -0.2180
  860MOL0     C18584   6.551   8.480   4.892 -0.3221 -0.2116  0.2534
  860MOL0     C18585   6.435   8.528   4.982 -0.0379 -0.5458 -1.0321
  860MOL0     C18586   6.467   8.654   5.066  0.7086 -1.0701 -1.0843
  860MOL0    Cl18587   6.320   8.754   5.114 -0.3872  0.2824 -0.1489
  860MOL0     C18588   6.742   7.855   4.775  0.4674  0.6136  0.7905
  860MOL0     C18589   6.693   7.723   4.754  0.7314  0.4092 -0.7016
  860MOL0     O18590   6.456   7.600   4.656  0.6613  0.3432  0.0815
  860MOL0     C18591   6.592   7.274   4.550  0.3158  0.5387  0.3515
  860MOL0     C18592   6.568   7.148   4.487  0.2349  0.5496 -0.5109
  860MOL0     N18593   6.189   6.989   3.893  1.2205  0.2668 -0.8697
  860MOL0     N18594   6.095   7.077   3.897 -0.7408 -0.3423  0.3420
  860MOL0     C18595   5.145   7.785   3.918  0.2744 -0.4934  0.1631
  860MOL0     C18596   5.038   7.732   3.994 -1.0215  0.1609 -0.2894
  860MOL0     C18597   4.624   7.535   4.037  0.5980  0.7044  0.8054
  860MOL0     C18598   4.513   7.584   3.966  0.0645  0.3965 -1.8286
  860MOL0     C18599   4.390   7.582   4.024 -0.5131 -0.0788 -0.2929
  860MOL0     C18600   4.372   7.526   4.149  0.3496 -0.7698  0.2704
  860MOL0     O18601   4.241   7.537   4.184 -0.4691 -0.3234 -0.4516
  860MOL0     C18602   4.191   7.480   4.298  0.5593 -0.9493  0.9143
  860MOL0     C18603   4.214   7.567   4.416  0.0805 -0.5776  0.4216
  860MOL0     C18604   4.214   7.721   4.405 -0.0046 -1.7910  0.3178
  860MOL0     C18605   4.237   7.797   4.541 -0.1230  0.1237  0.6914
  860MOL0     C18606   4.258   7.946   4.532 -0.0732 -0.5312 -0.2184
  860MOL0     C18607   4.301   8.057   4.518 -0.0761 -0.0974 -0.4259
  860MOL0     C18608   4.479   7.470   4.217  0.4228  0.4126 -0.1488
  860MOL0     C18609   4.610   7.482   4.167  1.1733  0.2984 -0.4784
  860MOL0     C18610   4.724   7.419   4.248  0.1319 -0.3396 -0.6704
  860MOL0     H18611   5.008   7.427   3.850  0.5143 -0.3974  0.5253
  860MOL0     H18612   5.192   7.507   3.727  0.5192  0.0902  0.1149
  860MOL0     H18613   5.438   7.749   3.885 -0.3598 -0.6014 -0.5479
  860MOL0     H18614   5.416   7.907   3.807  0.8853  0.3100  0.1581
  860MOL0     H18615   5.509   7.805   3.607 -5.0364 -0.4065  2.5747
  860MOL0     H18616   5.620   7.853   3.741  1.5085 -3.0593  2.8842
  860MOL0     H18617   5.623   7.594   3.817  0.9483 -4.4056 -1.1375
  860MOL0     H18618   5.562   7.568   3.658  1.9515 -0.7751  0.3244
  860MOL0     H18619   5.738   7.679   3.549  1.5203 -0.0104 -0.1243
  860MOL0     H18620   5.808   7.735   3.707  1.1555 -1.1528  1.2101
  860MOL0     H18621   5.934   7.538   3.599 -0.2676  3.2804 -0.6003
  860MOL0     H18622   5.796   7.433   3.612  1.8378 -0.8837 -0.4209
  860MOL0     H18623   5.919   7.567   3.865  0.4970 -1.3836  1.9598
  860MOL0     H18624   5.800   7.451   3.861  2.2210 -0.9889  3.1998
  860MOL0     H18625   6.056   7.388   3.716 -0.7381  0.7917 -1.1886
  860MOL0     H18626   5.937   7.277   3.750  0.5029  1.5560 -1.9591
  860MOL0     H18627   6.113   7.414   3.940  0.8030 -1.5440  0.8414
  860MOL0     H18628   5.971   7.333   3.998  1.6854  0.2734  1.2677
  860MOL0     H18629   6.329   7.288   3.929  1.6267 -0.9525  1.0968
  860MOL0     H18630   6.501   7.120   3.896 -1.0649  0.4902  0.4776
  860MOL0     H18631   6.456   6.969   3.823 -1.3924  1.4858 -0.2416
  860MOL0     H18632   6.444   6.855   4.037  1.2830 -0.8501  0.2558
  860MOL0     H18633   6.590   6.967   4.049 -0.2149 -2.2357  4.8890
  860MOL0     H18634   6.417   7.124   4.178 -1.9631  0.1079  0.2995
  860MOL0     H18635   6.306   6.989   4.165 -0.4073 -0.1335  3.0714
  860MOL0     H18636   6.457   6.845   4.279  2.0983 -0.0037 -1.4309
  860MOL0     H18637   6.570   6.969   4.306 -0.3587  0.8794 -1.6121
  860MOL0     H18638   6.236   7.174   4.454  0.2689  1.6474 -2.8009
  860MOL0     H18639   6.160   7.360   4.526 -0.3110  0.5819  2.2429
  860MOL0     H18640   6.248   7.506   4.495 -4.3946  0.4871 -0.5060
  860MOL0     H18641   6.225   7.456   4.664  0.6872  0.7734  0.4875
  860MOL0     H18642   6.790   7.651   4.434 -2.6424  0.1300 -0.6627
  860MOL0     H18643   6.850   7.890   4.455 -2.4506  2.8355  0.3545
  860MOL0     H18644   6.840   8.110   4.452 -0.5290  3.4397 -0.5001
  860MOL0     H18645   6.688   8.119   4.537  0.0489  0.3150  2.2323
  860MOL0     H18646   6.877   8.295   4.657  1.5549 -1.0906 -1.8241
  860MOL0     H18647   6.835   8.337   4.490 -1.9282 -1.6274 -2.9151
  860MOL0     H18648   6.599   8.339   4.536  2.0735 -2.2127 -2.1391
  860MOL0     H18649   6.689   8.442   4.653  0.5613 -0.3450  1.4815
  860MOL0     H18650   6.686   8.245   4.801  0.0630 -1.7942 -1.2924
  860MOL0     H18651   6.557   8.179   4.699 -0.6525  0.5016 -1.7982
  860MOL0     H18652   6.430   8.419   4.745 -0.1254  1.8419  0.9104
  860MOL0     H18653   6.451   8.298   4.884 -2.8604  0.2945 -1.5104
  860MOL0     H18654   6.577   8.567   4.831 -1.9549  0.7048  0.8299
  860MOL0     H18655   6.636   8.438   4.947  0.4236 -1.5806 -1.8139
  860MOL0     H18656   6.409   8.448   5.052  0.0125  1.9537  2.0785
  860MOL0     H18657   6.352   8.568   4.922 -1.2610  0.7676  1.3742
  860MOL0     H18658   6.533   8.720   5.008  0.7018  2.1811  2.2013
  860MOL0     H18659   6.521   8.625   5.156 -2.5561  0.5529  1.6224
  860MOL0     H18660   6.716   7.901   4.870  0.0428 -2.0740  2.0625
  860MOL0     H18661   6.634   7.669   4.828  0.6814  0.7262 -0.5094
  860MOL0     H18662   6.698   7.282   4.569  0.1584  1.9216  0.7327
  860MOL0     H18663   6.655   7.085   4.471 -0.8639 -1.4246  0.9129
  860MOL0     H18664   5.172   7.883   3.954 -0.1307  0.0360 -0.9382
  860MOL0     H18665   4.986   7.773   4.080 -1.2442 -0.0187 -0.3398
  860MOL0     H18666   4.511   7.624   3.865 -0.0331  1.3768 -1.4442
  860MOL0     H18667   4.307   7.624   3.969 -0.2060 -0.0250 -0.7244
  860MOL0     H18668   4.082   7.475   4.290  0.5948  0.8837 -2.4431
  860MOL0     H18669   4.226   7.379   4.319  0.4557 -1.2651 -0.3826
  860MOL0     H18670   4.317   7.561   4.451  0.2791  0.1577 -0.0219
  860MOL0     H18671   4.154   7.529   4.499  2.1856 -4.0971  0.5513
  860MOL0     H18672   4.292   7.743   4.332 -0.0778  1.3723  1.0264
  860MOL0     H18673   4.122   7.752   4.354  2.4328 -1.1711 -4.2321
  860MOL0     H18674   4.325   7.761   4.597  0.2916  0.4484  0.2600
  860MOL0     H18675   4.149   7.775   4.601 -1.0146  2.5577  0.3649
  860MOL0     H18676   4.348   8.153   4.511  1.5127 -0.8939 -1.1145
  860MOL0     H18677   4.460   7.433   4.317 -2.7659 -0.4692 -0.9671
  860MOL0     H18678   4.825   7.437   4.210  1.2721 -0.5277  2.0139
  860MOL0     H18679   4.720   7.439   4.356  1.5825 -2.9183 -0.0424
  860MOL0     H18680   4.717   7.310   4.244  1.7376 -0.4730 -0.6202
  861MOL0     O18681   3.690   3.235   1.197 -0.0099 -0.3688 -0.1578
  861MOL0     C18682   3.691   3.124   1.144  0.4071 -0.5608 -0.1420
  861MOL0     O18683   3.615   3.089   1.032 -0.6355  0.4408 -0.3875
  861MOL0     C18684   3.501   3.158   1.003  1.1930 -0.2834  0.1791
  861MOL0     C18685   3.514   3.297   0.971  0.5639 -0.5511 -0.1162
  861MOL0     C18686   3.394   3.356   0.925  0.2621  0.0679 -0.0076
  861MOL0     C18687   3.272   3.297   0.915 -0.6625  0.7443 -0.0329
  861MOL0     O18688   3.170   3.375   0.872  0.5410  0.3781 -0.1495
  861MOL0     C18689   3.033   3.324   0.897 -0.0161 -0.8469 -1.2204
  861MOL0     C18690   2.934   3.430   0.850  0.0600 -0.3327 -0.2702
  861MOL0     C18691   2.791   3.374   0.843 -0.3589 -0.0654 -0.1514
  861MOL0     C18692   2.748   3.274   0.734 -0.2803  0.2698  0.1384
  861MOL0     C18693   2.615   3.213   0.773 -0.1239 -0.2960  0.5132
  861MOL0     C18694   2.555   3.123   0.651 -0.5365 -0.9389 -0.9588
  861MOL0     C18695   2.410   3.070   0.680  0.0840 -0.5158 -0.6322
  861MOL0     C18696   2.364   2.995   0.556  0.4718  0.3237 -0.2745
  861MOL0     N18697   2.238   2.918   0.567 -0.2988  0.2328 -1.4746
  861MOL0     C18698   2.216   2.805   0.503  0.0194 -0.6955  0.0675
  861MOL0     C18699   2.103   2.753   0.564 -1.0183 -0.8285  0.0261
  861MOL0     C18700   2.036   2.627   0.535 -0.4177  0.8864 -1.1517
  861MOL0     C18701   1.889   2.639   0.501 -0.6633  0.3612 -0.3982
  861MOL0     C18702   1.860   2.730   0.385  0.2084  0.3192  0.0166
  861MOL0     C18703   1.755   2.826   0.422  0.1196 -0.3260  0.4106
  861MOL0     O18704   1.725   2.914   0.313  0.3218  0.2023 -0.2866
  861MOL0     C18705   1.795   3.023   0.271  1.2631 -0.5527 -0.0807
  861MOL0     C18706   1.919   3.059   0.321 -0.5807  0.1629  0.4870
  861MOL0     C18707   1.983   3.173   0.270 -1.2043 -0.6997  0.4596
  861MOL0     C18708   2.088   3.233   0.359 -0.4212 -0.7469 -0.6370
  861MOL0     C18709   1.934   3.238   0.156 -0.5130  0.2345  0.5745
  861MOL0     C18710   1.993   3.354   0.093 -0.0737  1.0935 -0.7376
  861MOL0     O18711   1.913   3.468   0.068  0.2319  0.0707  0.5772
  861MOL0     C18712   1.976   3.584   0.047 -0.8798 -0.4118  0.2114
  861MOL0     C18713   1.921   3.675  -0.043 -0.5711  0.8882  0.1489
  861MOL0     C18714   1.988   3.795  -0.075 -0.5389  0.0600  1.0052
  861MOL0     C18715   2.105   3.827  -0.011 -1.2856 -0.5655 -0.1834
  861MOL0     O18716   2.172   3.929  -0.069  0.1423 -0.8187  0.0313
  861MOL0     C18717   2.312   3.956  -0.043  0.0451  0.1211 -0.6529
  861MOL0     C18718   2.320   4.065   0.071  0.5416 -0.0314 -0.1605
  861MOL0     C18719   2.465   4.093   0.119  0.7053 -0.6493 -0.3336
  861MOL0     C18720   2.461   4.104   0.270 -0.2425 -0.4321  1.1833
  861MOL0     C18721   2.596   4.142   0.326 -0.4036 -0.3170  0.2835
  861MOL0     C18722   2.585   4.148   0.478 -0.2631  0.1342 -0.0273
  861MOL0     C18723   2.715   4.180   0.554  0.0264  0.3049  0.8955
  861MOL0     C18724   2.696   4.206   0.703  0.3316  0.7338  0.3850
  861MOL0    Cl18725   2.584   4.344   0.751  0.4448 -0.0424  0.6420
  861MOL0     C18726   2.159   3.742   0.091 -0.1274  0.2313  0.5034
  861MOL0     C18727   2.089   3.623   0.126 -0.1508  0.1703  0.1030
  861MOL0     O18728   2.102   3.335   0.046 -0.1287  0.5404  0.4579
  861MOL0     C18729   1.817   3.193   0.101 -0.1144  1.2298 -0.1709
  861MOL0     C18730   1.742   3.097   0.165 -0.7772 -0.2167  0.2314
  861MOL0     N18731   2.054   2.845   0.650  0.2431  0.2365 -0.1003
  861MOL0     N18732   2.130   2.945   0.651 -0.0510 -0.4573 -1.0757
  861MOL0     C18733   3.266   3.155   0.945  0.2049 -0.1262  0.1411
  861MOL0     C18734   3.380   3.090   1.001  0.1407 -0.5391  0.0625
  861MOL0     C18735   3.792   3.028   1.180  1.0136 -0.2385  0.4041
  861MOL0     C18736   3.795   2.903   1.110  0.3602  0.9809 -0.6033
  861MOL0     C18737   3.908   2.825   1.121 -0.1010  0.5180 -0.4253
  861MOL0     C18738   4.018   2.860   1.199  0.1748  0.4780 -0.2661
  861MOL0     O18739   4.127   2.777   1.213  0.0425  0.0996 -0.1982
  861MOL0     C18740   4.253   2.843   1.221 -0.6739 -0.4536  0.4986
  861MOL0     C18741   4.366   2.749   1.201  0.5346  0.0695 -0.0264
  861MOL0     C18742   4.392   2.681   1.063  0.1739 -0.2626  0.3127
  861MOL0     C18743   4.504   2.566   1.075  0.3752  0.0898  0.4150
  861MOL0     C18744   4.495   2.483   0.954  0.1705  0.3021 -0.3589
  861MOL0     C18745   4.489   2.418   0.852  0.7573 -0.4023 -0.2437
  861MOL0     C18746   4.008   2.973   1.285 -0.4143 -0.0066  0.5980
  861MOL0     C18747   3.898   3.049   1.276 -0.5197 -0.6535  0.7686
  861MOL0     C18748   3.907   3.183   1.363 -0.5374  1.1840 -0.4340
  861MOL0     H18749   3.605   3.353   0.988  0.0678 -0.0940  1.1743
  861MOL0     H18750   3.402   3.461   0.897  0.9013 -0.1388 -0.6268
  861MOL0     H18751   3.019   3.301   1.003 -0.5962  1.6452 -0.6895
  861MOL0     H18752   3.010   3.243   0.827  1.4813 -0.3250 -2.3639
  861MOL0     H18753   2.928   3.511   0.923 -0.2290 -1.4514  0.9720
  861MOL0     H18754   2.962   3.470   0.752 -1.9071 -1.6253 -1.4146
  861MOL0     H18755   2.769   3.326   0.939  0.7852 -0.1531  0.0773
  861MOL0     H18756   2.724   3.460   0.836 -0.3826 -0.0845 -0.1591
  861MOL0     H18757   2.740   3.318   0.634  0.0439 -0.3667 -0.1770
  861MOL0     H18758   2.825   3.196   0.732  1.0784  1.5418  1.0616
  861MOL0     H18759   2.550   3.294   0.807 -0.0453 -0.0606  0.1105
  861MOL0     H18760   2.640   3.148   0.857 -0.7342 -3.1967 -1.3862
  861MOL0     H18761   2.562   3.178   0.557 -1.6834  1.3399  0.2177
  861MOL0     H18762   2.629   3.044   0.632 -1.2768 -2.6357  2.4178
  861MOL0     H18763   2.353   3.159   0.709  2.6071  0.7770  0.6993
  861MOL0     H18764   2.420   3.003   0.766  2.2369  0.6665  0.1331
  861MOL0     H18765   2.352   3.059   0.469 -0.1185 -1.1925 -1.3417
  861MOL0     H18766   2.448   2.932   0.526  0.9112  1.4062 -1.4142
  861MOL0     H18767   2.283   2.769   0.425  0.3373  0.1005 -0.0408
  861MOL0     H18768   2.054   2.555   0.616  0.2482 -0.7177 -2.6518
  861MOL0     H18769   2.082   2.582   0.446  0.6971 -1.0705  0.3181
  861MOL0     H18770   1.855   2.536   0.484 -1.1738  0.7077 -1.5902
  861MOL0     H18771   1.843   2.686   0.588  0.2256  1.6645 -0.5921
  861MOL0     H18772   1.948   2.786   0.352  1.0648 -1.3761 -0.6977
  861MOL0     H18773   1.833   2.664   0.302 -0.9571  1.1323 -0.2814
  861MOL0     H18774   1.661   2.779   0.452  0.6429 -2.9656 -1.6505
  861MOL0     H18775   1.785   2.889   0.506 -2.3944  1.0959  0.3352
  861MOL0     H18776   1.963   2.998   0.400 -2.3849  1.3504  2.5084
  861MOL0     H18777   2.069   3.191   0.458 -1.9616 -0.4962 -0.8022
  861MOL0     H18778   2.084   3.343   0.357  1.3411 -0.6312  0.5987
  861MOL0     H18779   2.189   3.202   0.334  0.0771  0.6393 -0.4453
  861MOL0     H18780   1.829   3.639  -0.089  0.7012 -1.5166 -0.6859
  861MOL0     H18781   1.961   3.862  -0.157  2.6241  1.5941  1.0693
  861MOL0     H18782   2.366   3.866  -0.014 -1.1820  0.4049  2.9702
  861MOL0     H18783   2.356   3.998  -0.134  2.8963  1.8185  1.3296
  861MOL0     H18784   2.272   4.155   0.031  0.2909 -0.7713 -1.6003
  861MOL0     H18785   2.255   4.024   0.150 -0.5755  1.4237 -0.2763
  861MOL0     H18786   2.501   4.182   0.066 -1.1437  0.1795 -0.2637
  861MOL0     H18787   2.535   4.015   0.086  1.2902  0.1898 -1.1191
  861MOL0     H18788   2.434   4.006   0.309  2.2253 -1.3819  0.7134
  861MOL0     H18789   2.393   4.183   0.304  1.1293  0.9603  0.7840
  861MOL0     H18790   2.678   4.075   0.296 -2.1422 -1.6428 -1.8471
  861MOL0     H18791   2.650   4.234   0.299  1.7317 -1.0420  1.8050
  861MOL0     H18792   2.550   4.050   0.509  1.7303 -0.0950  1.8011
  861MOL0     H18793   2.511   4.225   0.503 -0.2570 -0.4474  1.9978
  861MOL0     H18794   2.761   4.272   0.516  0.2514 -0.4372 -0.7008
  861MOL0     H18795   2.791   4.102   0.550  0.5312  0.7621  1.5292
  861MOL0     H18796   2.793   4.213   0.752  0.3547  1.6821  0.2145
  861MOL0     H18797   2.646   4.118   0.746  1.6198 -0.0006  0.4192
  861MOL0     H18798   2.253   3.770   0.138 -0.4638  1.4761  0.4644
  861MOL0     H18799   2.125   3.549   0.197 -2.2855  0.1143  1.1950
  861MOL0     H18800   1.788   3.224   0.001  0.3123 -0.1943 -0.7620
  861MOL0     H18801   1.645   3.085   0.119 -1.1039  2.6535 -0.0017
  861MOL0     H18802   3.176   3.095   0.947  1.0847 -1.4769  1.4329
  861MOL0     H18803   3.367   2.990   1.041  1.2964 -0.4524  0.6873
  861MOL0     H18804   3.718   2.867   1.042 -0.9647  2.7730 -0.1492
  861MOL0     H18805   3.918   2.730   1.071  0.3042  0.7769 -0.8412
  861MOL0     H18806   4.258   2.928   1.152  0.8046  0.3353  1.5070
  861MOL0     H18807   4.263   2.880   1.324 -2.1866 -0.8252  0.7956
  861MOL0     H18808   4.356   2.670   1.275  4.5618 -2.0973 -1.4587
  861MOL0     H18809   4.457   2.807   1.222  1.2965 -2.2276  4.1002
  861MOL0     H18810   4.302   2.626   1.035  2.2365 -4.3352  0.8799
  861MOL0     H18811   4.413   2.759   0.989  0.5740 -0.3082  0.3768
  861MOL0     H18812   4.498   2.508   1.168  0.2036  1.7681  1.4911
  861MOL0     H18813   4.601   2.615   1.088  1.2381 -1.6472  0.7920
  861MOL0     H18814   4.482   2.365   0.759 -0.3731 -0.6065 -0.0519
  861MOL0     H18815   4.089   3.009   1.347 -0.4764 -0.4171  0.9194
  861MOL0     H18816   3.994   3.167   1.427  0.8681  3.3230 -1.6741
  861MOL0     H18817   3.926   3.275   1.305 -3.5675  2.5144  0.4950
  861MOL0     H18818   3.816   3.207   1.418 -3.5847 -1.6060 -3.7506
  862MOL0     O18819   5.857   1.653   3.501  0.2264 -0.0893  0.6668
  862MOL0     C18820   5.889   1.536   3.528 -0.3571  0.3749  0.6246
  862MOL0     O18821   6.017   1.493   3.533 -0.9932  0.2314 -0.3767
  862MOL0     C18822   6.120   1.585   3.516 -1.4409  0.0630  0.4475
  862MOL0     C18823   6.121   1.709   3.568 -0.3169 -0.4169 -0.7991
  862MOL0     C18824   6.244   1.791   3.567 -0.6013  0.6935  0.6265
  862MOL0     C18825   6.362   1.742   3.505 -0.0703  0.0163  0.2699
  862MOL0     O18826   6.465   1.828   3.503  0.5518 -1.0117 -0.3970
  862MOL0     C18827   6.587   1.784   3.448  0.3486 -0.2820 -0.0039
  862MOL0     C18828   6.695   1.882   3.474 -0.0465  0.2411  0.4383
  862MOL0     C18829   6.722   1.877   3.626  0.2002  0.2446  0.5111
  862MOL0     C18830   6.848   1.967   3.651 -0.4928 -0.1475  0.4696
  862MOL0     C18831   6.887   1.963   3.797 -0.0756  0.9697  0.1220
  862MOL0     C18832   7.033   1.988   3.823 -0.2926 -0.8230 -0.2174
  862MOL0     C18833   7.052   2.020   3.967  0.3642 -1.2109 -0.3054
  862MOL0     C18834   7.072   2.169   3.991  0.4623  0.0621 -0.7225
  862MOL0     N18835   7.042   2.185   4.138  0.9268  0.3805 -0.5036
  862MOL0     C18836   7.135   2.218   4.234 -0.4624  0.1649 -0.6562
  862MOL0     C18837   7.070   2.274   4.337  0.3917 -0.3055  0.4738
  862MOL0     C18838   7.128   2.310   4.465 -0.8594 -0.9828 -0.1086
  862MOL0     C18839   7.166   2.186   4.539 -0.0721  0.2204 -1.5995
  862MOL0     C18840   7.208   2.204   4.686 -0.8251 -0.4120  0.0310
  862MOL0     C18841   7.109   2.270   4.786 -0.0602  0.0524  0.1227
  862MOL0     O18842   7.146   2.259   4.924  0.7417 -0.3783 -0.0786
  862MOL0     C18843   7.108   2.354   5.018  0.7420  0.6314  0.6976
  862MOL0     C18844   7.015   2.453   5.002  0.7333 -0.4350 -1.0622
  862MOL0     C18845   6.983   2.540   5.107 -0.8978 -0.1269  0.2040
  862MOL0     C18846   6.867   2.640   5.087  0.3779 -0.1870 -0.2218
  862MOL0     C18847   7.051   2.536   5.236  0.6520 -0.4523  0.5138
  862MOL0     C18848   7.020   2.633   5.354  0.4663  0.2072 -0.1251
  862MOL0     O18849   6.880   2.657   5.367 -0.2608  0.4826  0.3523
  862MOL0     C18850   6.851   2.699   5.499  0.0223 -0.2329 -0.5917
  862MOL0     C18851   6.861   2.611   5.612 -0.9227  0.4970 -0.3883
  862MOL0     C18852   6.855   2.661   5.751 -0.7305  0.2783 -0.1496
  862MOL0     C18853   6.831   2.804   5.769 -0.3043  0.0881  0.1853
  862MOL0     O18854   6.808   2.860   5.891 -0.2293  0.2972 -0.6960
  862MOL0     C18855   6.914   2.841   5.983 -0.0298  1.3767 -0.5588
  862MOL0     C18856   7.047   2.894   5.943 -0.8941 -0.3091  1.2156
  862MOL0     C18857   7.142   2.897   6.056 -0.0601 -0.3771 -0.5506
  862MOL0     C18858   7.235   3.024   6.066  0.6385  0.8887  1.0641
  862MOL0     C18859   7.147   3.150   6.086  0.2850 -0.4369 -1.3014
  862MOL0     C18860   7.236   3.271   6.134  1.2121  0.9073  0.3063
  862MOL0     C18861   7.280   3.248   6.280 -0.3141  0.0356  0.5788
  862MOL0     C18862   7.418   3.297   6.289 -0.5633  0.3792  0.3763
  862MOL0    Cl18863   7.469   3.249   6.459  0.5729 -0.0833 -0.3023
  862MOL0     C18864   6.820   2.885   5.661  0.8922 -0.2284  0.9973
  862MOL0     C18865   6.819   2.841   5.529  0.3434  0.3189  0.0671
  862MOL0     O18866   7.107   2.661   5.437  0.0864 -0.5937 -0.1625
  862MOL0     C18867   7.141   2.424   5.251 -0.0222 -0.0214  0.2228
  862MOL0     C18868   7.168   2.343   5.139  0.1099  0.0668 -0.3050
  862MOL0     N18869   6.941   2.282   4.297 -0.4932 -0.3950 -0.3009
  862MOL0     N18870   6.923   2.220   4.179 -1.3311  0.1885  0.8980
  862MOL0     C18871   6.355   1.615   3.442  0.6050 -0.1577  0.0963
  862MOL0     C18872   6.239   1.543   3.444  0.2525 -0.0850 -0.1649
  862MOL0     C18873   5.793   1.440   3.574  0.2086  0.6884  0.4262
  862MOL0     C18874   5.811   1.309   3.532  0.2216  0.4215 -0.8052
  862MOL0     C18875   5.710   1.215   3.560  0.1636 -0.3075 -0.3934
  862MOL0     C18876   5.593   1.248   3.628  0.5194  0.1124 -0.5732
  862MOL0     O18877   5.490   1.159   3.640 -0.2841  0.7127 -0.2417
  862MOL0     C18878   5.376   1.197   3.568  0.4817 -0.6723  0.3095
  862MOL0     C18879   5.276   1.093   3.588 -0.1241  1.0668 -0.4903
  862MOL0     C18880   5.233   1.058   3.733 -0.6132 -0.0173  0.4396
  862MOL0     C18881   5.163   1.168   3.814 -0.1904  0.1101 -0.2930
  862MOL0     C18882   5.043   1.198   3.748  0.6049 -0.8303 -0.9029
  862MOL0     C18883   4.929   1.226   3.709  0.3040 -0.2914 -0.3439
  862MOL0     C18884   5.576   1.382   3.678 -0.1910  0.1001 -0.8103
  862MOL0     C18885   5.678   1.473   3.647  0.0198  0.0656  0.2517
  862MOL0     C18886   5.669   1.612   3.707 -0.1723  0.3609  0.3374
  862MOL0     H18887   6.032   1.754   3.610  0.0843  1.0816 -1.4588
  862MOL0     H18888   6.234   1.884   3.623 -1.6220 -0.0973  1.8051
  862MOL0     H18889   6.579   1.770   3.340 -1.6334 -1.5980  0.2587
  862MOL0     H18890   6.622   1.687   3.485  1.4434 -0.4882 -1.4828
  862MOL0     H18891   6.770   1.856   3.399 -1.6859 -0.6545 -0.9717
  862MOL0     H18892   6.667   1.983   3.442 -2.2258 -0.2406  0.6611
  862MOL0     H18893   6.635   1.916   3.680 -1.1302 -1.9450  0.0755
  862MOL0     H18894   6.745   1.777   3.663  1.4261  0.0832 -0.6181
  862MOL0     H18895   6.926   1.921   3.589  0.9760  1.3837  1.0789
  862MOL0     H18896   6.847   2.075   3.637  0.7302 -0.1259  0.4094
  862MOL0     H18897   6.859   1.864   3.834 -0.1169  0.9773  0.1108
  862MOL0     H18898   6.838   2.041   3.856 -1.8757  0.8491 -1.1373
  862MOL0     H18899   7.082   1.899   3.784  2.2001 -0.0819  1.0139
  862MOL0     H18900   7.070   2.077   3.771 -0.7683  1.6134  3.2355
  862MOL0     H18901   7.143   1.969   4.000  2.0630  2.6135  1.5652
  862MOL0     H18902   6.979   1.976   4.035  0.0136 -0.3973 -0.1522
  862MOL0     H18903   7.162   2.215   3.951 -0.1450  0.9935 -1.0646
  862MOL0     H18904   6.980   2.212   3.950 -1.0515  0.0016  2.2672
  862MOL0     H18905   7.242   2.204   4.222 -0.3303  2.5609 -3.3745
  862MOL0     H18906   7.055   2.366   4.524 -1.7466 -0.2935 -1.7998
  862MOL0     H18907   7.217   2.373   4.458  0.2697 -2.5539 -0.4683
  862MOL0     H18908   7.089   2.108   4.535  0.2137 -0.0719 -1.4947
  862MOL0     H18909   7.254   2.153   4.483  0.3427  0.1219 -0.9088
  862MOL0     H18910   7.249   2.109   4.721  0.6721 -0.4786 -1.7348
  862MOL0     H18911   7.304   2.257   4.682  0.9225 -3.2360  1.5217
  862MOL0     H18912   7.102   2.378   4.768 -2.2521 -0.1527 -0.4706
  862MOL0     H18913   7.006   2.239   4.768  0.4046 -1.8571  0.5471
  862MOL0     H18914   6.954   2.475   4.914 -2.0290 -0.5385  0.6881
  862MOL0     H18915   6.828   2.661   4.987 -0.0678  3.5422  0.5991
  862MOL0     H18916   6.891   2.737   5.131 -0.2603  0.0466 -0.3733
  862MOL0     H18917   6.781   2.608   5.147  0.4880  0.5409  0.3345
  862MOL0     H18918   6.876   2.504   5.598 -0.6400 -0.2121  3.8498
  862MOL0     H18919   6.863   2.590   5.833  0.1225  0.0216 -0.4379
  862MOL0     H18920   6.881   2.874   6.082  2.1309  3.1961 -0.3647
  862MOL0     H18921   6.919   2.733   5.996 -1.0991  1.2830 -0.7818
  862MOL0     H18922   7.097   2.847   5.858 -3.4190 -1.0781  0.0585
  862MOL0     H18923   7.013   2.991   5.905 -1.8920 -1.6638 -1.5717
  862MOL0     H18924   7.203   2.806   6.057 -0.2877 -0.5339  0.3522
  862MOL0     H18925   7.075   2.903   6.142 -2.4639  1.0048 -2.4045
  862MOL0     H18926   7.289   3.046   5.973 -3.1013 -0.0324 -1.5537
  862MOL0     H18927   7.313   3.014   6.143  2.1393 -1.0347 -0.5804
  862MOL0     H18928   7.099   3.179   5.992 -0.1997  0.7624 -0.7092
  862MOL0     H18929   7.072   3.121   6.161  1.2191 -2.8541 -1.2359
  862MOL0     H18930   7.178   3.363   6.124  2.3596  1.6012 -0.2207
  862MOL0     H18931   7.327   3.276   6.075  1.8565 -0.8874  1.0653
  862MOL0     H18932   7.266   3.143   6.306 -1.5720  0.0799  0.1808
  862MOL0     H18933   7.220   3.307   6.350 -0.7255  1.7672 -1.1533
  862MOL0     H18934   7.421   3.404   6.266  1.2831  0.3016  0.1351
  862MOL0     H18935   7.490   3.256   6.217  1.9711  1.0247  2.4030
  862MOL0     H18936   6.802   2.991   5.677  1.5965  0.5762 -2.6461
  862MOL0     H18937   6.812   2.915   5.450 -0.0677 -0.8573 -1.0354
  862MOL0     H18938   7.199   2.404   5.341  0.3983 -3.4242 -0.6561
  862MOL0     H18939   7.238   2.264   5.163 -2.2863 -2.4129 -1.0309
  862MOL0     H18940   6.439   1.574   3.386  1.4444  0.5037  0.8554
  862MOL0     H18941   6.238   1.440   3.409 -1.3301 -0.0669 -0.2613
  862MOL0     H18942   5.907   1.279   3.492  0.8774  0.8931  0.3726
  862MOL0     H18943   5.722   1.112   3.528  0.9838 -1.5696  3.4521
  862MOL0     H18944   5.342   1.294   3.606  1.6643  0.1494 -0.6575
  862MOL0     H18945   5.398   1.199   3.461  0.2759  1.8109  0.2566
  862MOL0     H18946   5.314   0.999   3.546  0.9198 -1.1596  4.6982
  862MOL0     H18947   5.181   1.126   3.544 -1.6543 -2.4502 -0.1475
  862MOL0     H18948   5.163   0.974   3.729 -0.8550  0.2060 -0.1101
  862MOL0     H18949   5.319   1.024   3.790  1.3480  2.2232 -0.9769
  862MOL0     H18950   5.230   1.254   3.811  1.1579 -0.9293 -3.3536
  862MOL0     H18951   5.137   1.140   3.917  2.8882 -2.0673  0.0303
  862MOL0     H18952   4.825   1.239   3.689  0.6770 -1.0416 -3.2855
  862MOL0     H18953   5.494   1.414   3.742  0.6566  1.0883 -0.1820
  862MOL0     H18954   5.763   1.667   3.719  0.4144 -0.5037 -0.2258
  862MOL0     H18955   5.604   1.670   3.641 -0.2830  0.3716  0.4554
  862MOL0     H18956   5.622   1.598   3.805  1.6667 -1.3316  1.0643
  863MOL0     O18957   9.790   1.591   1.018 -0.0262 -0.0274  0.0615
  863MOL0     C18958   9.830   1.707   1.030 -0.7074 -0.1823 -0.2379
  863MOL0     O18959   9.900   1.751   1.142 -0.7244  0.1628 -0.6203
  863MOL0     C18960   9.899   1.669   1.255 -0.3925 -0.1315 -0.5586
  863MOL0     C18961   9.991   1.566   1.269  0.0475 -0.3735 -0.3650
  863MOL0     C18962   9.988   1.497   1.393 -0.2148 -0.2554  0.1267
  863MOL0     C18963   9.889   1.527   1.491 -0.6500  0.4246 -0.4210
  863MOL0     O18964   9.883   1.468   1.614  0.3828  0.2240  0.4220
  863MOL0     C18965  10.016   1.427   1.675  0.3064  0.0337 -0.4583
  863MOL0     C18966  10.142   1.525   1.666  0.1357 -0.5036  0.0521
  863MOL0     C18967  10.247   1.504   1.772 -0.1012  0.0295  0.1429
  863MOL0     C18968  10.376   1.570   1.738 -0.4535 -0.9170  0.3762
  863MOL0     C18969  10.475   1.566   1.849  0.5421 -0.1334 -0.0619
  863MOL0     C18970  10.504   1.705   1.909 -0.7080 -0.0238  0.7253
  863MOL0     C18971  10.574   1.689   2.046 -0.5101  0.0153 -0.6375
  863MOL0     C18972  10.628   1.830   2.081 -0.4785  0.0371 -0.0508
  863MOL0     N18973  10.517   1.931   2.074  1.2885  0.2827 -0.4092
  863MOL0     C18974  10.400   1.943   2.157 -0.8810  0.4197 -0.1922
  863MOL0     C18975  10.343   2.054   2.119  0.3560  0.5634  0.0534
  863MOL0     C18976  10.233   2.130   2.185 -0.8247 -0.7332 -0.3639
  863MOL0     C18977  10.128   2.041   2.228  0.4754 -0.8935  0.0545
  863MOL0     C18978   9.994   2.109   2.291 -0.1242 -0.4691 -0.5169
  863MOL0     C18979   9.898   1.992   2.329  0.0001  0.7036  0.2781
  863MOL0     O18980   9.963   1.909   2.419  0.1465  0.4782 -0.4596
  863MOL0     C18981   9.898   1.789   2.446 -0.5877  0.4736 -0.5264
  863MOL0     C18982   9.790   1.738   2.379  0.0175  0.9643  0.0906
  863MOL0     C18983   9.725   1.625   2.416 -0.0698 -0.2180  0.3592
  863MOL0     C18984   9.589   1.597   2.343 -0.7969 -0.1133 -0.1037
  863MOL0     C18985   9.782   1.530   2.507  0.6168 -1.1565  0.2446
  863MOL0     C18986   9.698   1.398   2.536 -0.0931 -0.1587 -0.6472
  863MOL0     O18987   9.686   1.368   2.664  0.0396  0.1159 -0.2834
  863MOL0     C18988   9.624   1.250   2.690  0.5107 -0.0458  0.3621
  863MOL0     C18989   9.482   1.251   2.689 -0.3062  0.7622  0.4186
  863MOL0     C18990   9.413   1.132   2.728  0.4093  0.1388  0.0779
  863MOL0     C18991   9.478   1.011   2.768  0.3187 -0.1940  0.6651
  863MOL0     O18992   9.412   0.895   2.814 -0.8721 -0.9706  0.1988
  863MOL0     C18993   9.304   0.861   2.728  0.1642  0.4202  0.6407
  863MOL0     C18994   9.277   0.711   2.698 -0.0666  1.1778 -0.2557
  863MOL0     C18995   9.403   0.639   2.651  1.3894 -0.0490 -0.9430
  863MOL0     C18996   9.366   0.488   2.627 -0.5181 -0.5285  0.0196
  863MOL0     C18997   9.485   0.409   2.605  0.5123 -0.3079  0.0231
  863MOL0     C18998   9.567   0.398   2.737  0.4019  0.3203  0.1474
  863MOL0     C18999   9.678   0.297   2.706  0.0406  0.1975 -0.6531
  863MOL0     C19000   9.760   0.271   2.832 -0.0889 -0.3487 -0.1032
  863MOL0    Cl19001   9.845   0.402   2.898  0.0010 -0.0810 -0.2877
  863MOL0     C19002   9.616   1.018   2.767 -0.7437 -0.2484  0.5599
  863MOL0     C19003   9.686   1.129   2.721  0.6578  0.4389 -0.0480
  863MOL0     O19004   9.633   1.341   2.441  0.1994 -0.2090  0.4419
  863MOL0     C19005   9.905   1.572   2.567  0.2214  0.1271  0.2474
  863MOL0     C19006   9.952   1.700   2.544  0.3555  0.0745  0.0576
  863MOL0     N19007  10.399   2.102   2.008  0.7403 -0.6769 -0.0455
  863MOL0     N19008  10.505   2.035   1.980 -0.0469 -0.1955 -0.2791
  863MOL0     C19009   9.796   1.628   1.465  0.0202 -0.3544 -0.2217
  863MOL0     C19010   9.805   1.700   1.351 -0.0442 -0.1844 -0.6316
  863MOL0     C19011   9.818   1.792   0.907  0.2193 -0.9275 -0.4375
  863MOL0     C19012   9.696   1.775   0.839  0.3456  0.2134  0.0742
  863MOL0     C19013   9.666   1.867   0.731  0.1228 -0.2853  0.6334
  863MOL0     C19014   9.757   1.965   0.685  0.2317 -0.6119 -0.1870
  863MOL0     O19015   9.732   2.032   0.567  0.3771 -0.3861  0.8149
  863MOL0     C19016   9.822   2.128   0.507  0.4422 -0.0439  0.5555
  863MOL0     C19017   9.729   2.252   0.463  0.2747  0.5043  0.5933
  863MOL0     C19018   9.672   2.332   0.577 -0.4182 -0.4215 -0.1897
  863MOL0     C19019   9.758   2.433   0.647 -0.2589  0.5294 -0.1152
  863MOL0     C19020   9.879   2.381   0.708  0.3453 -0.3206 -0.3073
  863MOL0     C19021   9.980   2.350   0.767  0.2454  1.2467 -0.4573
  863MOL0     C19022   9.871   1.983   0.759  0.0770 -0.5911 -0.2184
  863MOL0     C19023   9.901   1.905   0.869 -0.3778  0.9811  0.0933
  863MOL0     C19024  10.036   1.928   0.936  0.1045 -0.8321 -0.0201
  863MOL0     H19025  10.065   1.549   1.192  0.6238 -0.8287  0.2768
  863MOL0     H19026  10.057   1.414   1.400  2.9298  1.9856 -1.8626
  863MOL0     H19027  10.050   1.326   1.649 -1.4686 -0.9405  0.8164
  863MOL0     H19028  10.001   1.411   1.782 -1.8464  0.7143 -0.6221
  863MOL0     H19029  10.186   1.508   1.568 -1.4528  0.6455 -0.9007
  863MOL0     H19030  10.113   1.630   1.667  1.2773 -0.1656  1.1376
  863MOL0     H19031  10.200   1.539   1.864 -1.5047  0.0126 -0.5488
  863MOL0     H19032  10.265   1.399   1.799 -0.9511 -0.4352 -1.0472
  863MOL0     H19033  10.415   1.524   1.647 -2.4027 -2.2277  0.1290
  863MOL0     H19034  10.351   1.673   1.709  1.4837 -0.8429 -1.2332
  863MOL0     H19035  10.571   1.528   1.813  0.6486  0.9446 -0.9637
  863MOL0     H19036  10.440   1.502   1.930  0.5814  1.1185  0.9771
  863MOL0     H19037  10.571   1.753   1.838  0.9685  0.4699  2.5443
  863MOL0     H19038  10.410   1.757   1.928 -1.2417 -0.4000 -0.7731
  863MOL0     H19039  10.642   1.604   2.053 -0.6713  0.0442  3.2532
  863MOL0     H19040  10.503   1.671   2.127  0.6842  2.6625  1.1299
  863MOL0     H19041  10.682   1.830   2.176  1.4494  4.1055 -0.9108
  863MOL0     H19042  10.705   1.854   2.007  0.3370 -0.7240  0.5391
  863MOL0     H19043  10.387   1.879   2.244  1.6401 -2.5906 -1.8462
  863MOL0     H19044  10.191   2.194   2.106  0.9699 -1.4651 -2.0065
  863MOL0     H19045  10.275   2.179   2.273  1.5963 -1.6120 -0.9620
  863MOL0     H19046  10.083   1.979   2.150 -1.7922 -0.6501  1.0788
  863MOL0     H19047  10.177   1.982   2.306  0.2955  2.0143  2.5619
  863MOL0     H19048  10.029   2.167   2.376  1.8110 -1.3788 -0.6474
  863MOL0     H19049   9.943   2.178   2.223 -0.6471 -1.1904 -0.8837
  863MOL0     H19050   9.798   2.006   2.371 -1.5814  0.6449 -3.1206
  863MOL0     H19051   9.884   1.939   2.234 -0.0010  2.0445 -0.4829
  863MOL0     H19052   9.738   1.802   2.308 -4.0178  1.1938  2.9602
  863MOL0     H19053   9.547   1.679   2.284 -1.3942 -0.3638 -0.0292
  863MOL0     H19054   9.511   1.580   2.418 -2.8508  4.1954 -0.9241
  863MOL0     H19055   9.619   1.518   2.273  1.9496  1.4218 -0.8277
  863MOL0     H19056   9.425   1.340   2.665  1.0094  1.3229 -0.7772
  863MOL0     H19057   9.304   1.131   2.730  0.3251  2.6367  2.9959
  863MOL0     H19058   9.218   0.908   2.775  0.9945  0.2340  2.4448
  863MOL0     H19059   9.317   0.908   2.630  0.5625  1.6638  1.2616
  863MOL0     H19060   9.227   0.674   2.787  1.0219  0.6038  0.1465
  863MOL0     H19061   9.195   0.694   2.628  0.4125 -3.8449  0.0421
  863MOL0     H19062   9.470   0.658   2.735  0.7793  2.4129 -0.9407
  863MOL0     H19063   9.449   0.689   2.566  2.5462 -1.6566 -1.3061
  863MOL0     H19064   9.296   0.482   2.544 -0.0779  1.6717 -0.5532
  863MOL0     H19065   9.306   0.450   2.710 -0.1836 -1.7810 -0.2871
  863MOL0     H19066   9.452   0.306   2.587  1.6588 -0.7338  0.2651
  863MOL0     H19067   9.545   0.449   2.522  0.4536  3.4079  1.5725
  863MOL0     H19068   9.503   0.376   2.823 -0.4708  5.1256  1.0274
  863MOL0     H19069   9.616   0.492   2.765 -2.1183  2.1169 -1.0606
  863MOL0     H19070   9.745   0.319   2.622  0.5065 -4.8811 -1.9360
  863MOL0     H19071   9.639   0.195   2.699 -0.4478  0.1566  1.8600
  863MOL0     H19072   9.829   0.191   2.804  0.9413  0.6905 -0.5771
  863MOL0     H19073   9.699   0.238   2.918  1.7465  1.1807  1.9055
  863MOL0     H19074   9.676   0.933   2.796  1.0425 -0.4473 -3.1320
  863MOL0     H19075   9.793   1.136   2.741  1.4480 -0.0788 -3.4677
  863MOL0     H19076   9.940   1.516   2.653 -3.9713 -2.9430  0.2874
  863MOL0     H19077  10.043   1.724   2.599  1.5369 -2.1521 -0.7535
  863MOL0     H19078   9.721   1.655   1.538  2.3953  0.7738  1.9600
  863MOL0     H19079   9.731   1.778   1.335  0.1927  0.4274  1.1073
  863MOL0     H19080   9.627   1.700   0.876  0.3312  0.9028  1.5355
  863MOL0     H19081   9.581   1.861   0.664 -0.2041 -2.4169  1.1607
  863MOL0     H19082   9.898   2.172   0.572 -1.2947 -0.7112  3.2336
  863MOL0     H19083   9.874   2.082   0.423 -0.7783  3.8099 -2.6022
  863MOL0     H19084   9.645   2.217   0.403 -1.3277  1.3104  2.2562
  863MOL0     H19085   9.787   2.320   0.399 -2.1953  3.2547  1.0493
  863MOL0     H19086   9.586   2.388   0.538  0.8180  1.6799 -0.0171
  863MOL0     H19087   9.641   2.263   0.656  0.7459 -0.6910  0.0490
  863MOL0     H19088   9.704   2.484   0.727  1.5244 -0.3744  1.7352
  863MOL0     H19089   9.788   2.504   0.569  2.1484 -2.3608 -2.0508
  863MOL0     H19090  10.052   2.317   0.840 -1.1750 -1.9705 -0.3458
  863MOL0     H19091   9.954   2.040   0.717 -1.8100 -0.9625 -5.1408
  863MOL0     H19092  10.080   1.839   0.981  2.4946  2.2109  4.4678
  863MOL0     H19093  10.107   1.976   0.867 -1.0486 -0.8472 -1.2658
  863MOL0     H19094  10.035   1.998   1.020 -0.2858 -2.6213  1.5338
  864MOL0     O19095   6.422  10.924   4.015  0.3560 -0.2744 -1.2695
  864MOL0     C19096   6.463  10.837   3.942 -0.1661 -0.0268  1.1871
  864MOL0     O19097   6.574  10.858   3.861  0.6500 -0.1249  0.0422
  864MOL0     C19098   6.652  10.969   3.856  0.2129 -0.2815  0.4077
  864MOL0     C19099   6.692  11.053   3.965  0.0180  0.0897  0.0208
  864MOL0     C19100   6.766  11.165   3.927 -0.7022  0.5151 -1.1142
  864MOL0     C19101   6.809  11.183   3.796  0.2524  0.2047  0.0417
  864MOL0     O19102   6.882  11.297   3.764  0.2805 -0.2850 -0.0240
  864MOL0     C19103   6.911  11.348   3.636 -0.5332  0.0446 -0.3213
  864MOL0     C19104   6.986  11.490   3.624  0.5814  0.0375 -0.5095
  864MOL0     C19105   7.123  11.500   3.703 -0.5074 -0.1995 -0.2231
  864MOL0     C19106   7.223  11.607   3.656  0.7912 -0.5151  0.5392
  864MOL0     C19107   7.367  11.617   3.724  0.1774  0.0834  0.8508
  864MOL0     C19108   7.371  11.659   3.871 -0.3571 -0.0534 -0.2503
  864MOL0     C19109   7.523  11.676   3.905  0.6582  0.0195 -0.6422
  864MOL0     C19110   7.609  11.779   3.834 -0.7020 -1.0697  0.5687
  864MOL0     N19111   7.745  11.798   3.889 -0.6914  0.1262 -0.7575
  864MOL0     C19112   7.762  11.855   4.015 -0.2814  0.0615  0.2303
  864MOL0     C19113   7.898  11.856   4.035 -0.2885 -0.1101 -0.8684
  864MOL0     C19114   7.968  11.886   4.168 -0.4241 -0.3232 -0.1292
  864MOL0     C19115   7.974  12.035   4.200  0.4953 -0.5355  0.3289
  864MOL0     C19116   8.039  12.086   4.324 -0.3872  1.1308 -0.3416
  864MOL0     C19117   8.029  12.234   4.348 -0.4892 -0.2955 -0.1268
  864MOL0     O19118   8.087  12.306   4.239  0.3416 -0.4361  0.1050
  864MOL0     C19119   8.221  12.297   4.201  0.1142 -0.4056 -0.1250
  864MOL0     C19120   8.321  12.300   4.295  0.7131 -0.9012 -0.1862
  864MOL0     C19121   8.454  12.284   4.271 -0.1917  0.8315 -0.6937
  864MOL0     C19122   8.552  12.262   4.381  0.1187  0.3213 -0.0655
  864MOL0     C19123   8.491  12.279   4.128  0.6871  0.1112 -0.1293
  864MOL0     C19124   8.632  12.273   4.071 -0.0582  0.1331 -0.7336
  864MOL0     O19125   8.636  12.217   3.949 -0.2678 -0.0006  0.3441
  864MOL0     C19126   8.745  12.256   3.878 -0.4294  0.0183 -0.2560
  864MOL0     C19127   8.822  12.147   3.826  0.1012 -0.2781 -0.5356
  864MOL0     C19128   8.919  12.185   3.728  0.7638  1.1682 -0.3295
  864MOL0     C19129   8.942  12.313   3.685 -0.0094  0.5086  0.2908
  864MOL0     O19130   9.050  12.322   3.607  0.4005  0.2128 -0.5953
  864MOL0     C19131   9.127  12.446   3.625 -0.3522  0.2445 -0.3653
  864MOL0     C19132   9.254  12.432   3.540  0.0974  0.0568 -0.1444
  864MOL0     C19133   9.349  12.550   3.566  0.3169 -0.1420 -0.6130
  864MOL0     C19134   9.492  12.500   3.511  0.4591  0.1913  0.3405
  864MOL0     C19135   9.591  12.617   3.514 -0.5234  0.5515  0.3893
  864MOL0     C19136   9.718  12.584   3.437  0.4092 -0.4259 -0.3974
  864MOL0     C19137   9.825  12.694   3.460  0.4389  0.3784  0.7206
  864MOL0     C19138   9.903  12.646   3.583 -0.1036 -0.3851 -0.2962
  864MOL0    Cl19139  10.023  12.775   3.638  0.0587 -0.1886 -0.2055
  864MOL0     C19140   8.867  12.416   3.739  0.5803 -0.6642 -0.7745
  864MOL0     C19141   8.770  12.389   3.839 -0.3341 -0.0830  0.3730
  864MOL0     O19142   8.728  12.306   4.143  0.3147 -0.0187  0.2895
  864MOL0     C19143   8.384  12.288   4.032 -0.2305 -0.2112  0.9028
  864MOL0     C19144   8.248  12.290   4.072  1.3833 -0.4389  0.0732
  864MOL0     N19145   7.957  11.802   3.920  0.8079 -0.6907 -0.5169
  864MOL0     N19146   7.863  11.773   3.831 -0.1763 -0.0081 -1.1942
  864MOL0     C19147   6.768  11.094   3.696 -0.0332 -0.4287 -0.3534
  864MOL0     C19148   6.686  10.994   3.727 -1.1217  0.3802 -0.0942
  864MOL0     C19149   6.390  10.710   3.907  0.0984  0.2133 -0.9114
  864MOL0     C19150   6.409  10.651   3.778 -0.0819  0.1754  0.2099
  864MOL0     C19151   6.332  10.546   3.740 -0.2476  1.0387  0.7452
  864MOL0     C19152   6.245  10.477   3.827 -0.8849 -0.0393  0.1809
  864MOL0     O19153   6.171  10.373   3.769  0.1778 -0.0291  0.1410
  864MOL0     C19154   6.077  10.311   3.857  0.2227  0.3222  0.2399
  864MOL0     C19155   5.982  10.235   3.762 -0.0419  0.2078 -0.7403
  864MOL0     C19156   5.916  10.341   3.668 -0.5833  0.3595  0.2958
  864MOL0     C19157   5.819  10.270   3.577  0.8837 -0.2527  0.5080
  864MOL0     C19158   5.751  10.378   3.508 -0.4928  0.2569 -0.1744
  864MOL0     C19159   5.708  10.483   3.458 -0.7950  0.0073 -0.2036
  864MOL0     C19160   6.233  10.533   3.952 -0.3135  0.4806 -0.0338
  864MOL0     C19161   6.298  10.647   3.997 -0.6452  0.4511 -0.5838
  864MOL0     C19162   6.272  10.695   4.132 -0.4369  0.2175 -0.2252
  864MOL0     H19163   6.663  11.036   4.068 -2.0408  0.8968 -0.3650
  864MOL0     H19164   6.805  11.237   3.998 -0.9511 -0.3351 -0.0838
  864MOL0     H19165   6.815  11.356   3.585 -1.5947 -1.2944  1.3851
  864MOL0     H19166   6.983  11.286   3.582 -1.1339  0.0099 -1.0985
  864MOL0     H19167   7.015  11.510   3.520  1.8142 -3.3338 -0.9490
  864MOL0     H19168   6.918  11.571   3.653  0.3618 -0.3290  0.0114
  864MOL0     H19169   7.102  11.523   3.807 -2.6536  1.3325 -0.9398
  864MOL0     H19170   7.168  11.401   3.694 -0.2191  0.0643 -2.3702
  864MOL0     H19171   7.225  11.608   3.547 -4.0853 -0.2232  0.2467
  864MOL0     H19172   7.175  11.701   3.685  2.3242  1.8105 -3.6934
  864MOL0     H19173   7.416  11.700   3.672 -0.4126  0.6112  1.1074
  864MOL0     H19174   7.427  11.527   3.715 -0.9749 -0.5061 -1.7559
  864MOL0     H19175   7.318  11.754   3.880  2.9521  1.7886  1.6135
  864MOL0     H19176   7.321  11.590   3.940  0.0572  1.5146  1.7035
  864MOL0     H19177   7.584  11.586   3.893  2.8030  1.0229  1.6893
  864MOL0     H19178   7.520  11.707   4.010 -3.0420  2.6281 -1.3416
  864MOL0     H19179   7.626  11.763   3.727 -2.7251  0.9102 -0.1166
  864MOL0     H19180   7.566  11.880   3.832 -2.2428 -1.6888 -1.4631
  864MOL0     H19181   7.684  11.879   4.086  0.5777 -1.3043  1.7127
  864MOL0     H19182   8.065  11.835   4.169 -0.5731 -0.6962 -1.5435
  864MOL0     H19183   7.903  11.839   4.242 -1.6377 -3.8843 -3.1296
  864MOL0     H19184   8.024  12.080   4.113  2.2717 -2.4352  0.2724
  864MOL0     H19185   7.871  12.071   4.207  0.5996 -0.4717  1.9174
  864MOL0     H19186   7.998  12.040   4.415  1.3346 -0.1275 -0.1592
  864MOL0     H19187   8.146  12.067   4.311 -0.6303  1.0605 -2.6292
  864MOL0     H19188   7.921  12.250   4.352 -0.4414  0.4363 -1.4115
  864MOL0     H19189   8.083  12.252   4.441 -0.9703 -0.2232  0.1449
  864MOL0     H19190   8.290  12.312   4.398 -1.7491  0.2580 -0.9951
  864MOL0     H19191   8.616  12.348   4.401  0.5743 -0.3897  1.7772
  864MOL0     H19192   8.623  12.190   4.340 -0.0087  0.6883 -0.9480
  864MOL0     H19193   8.502  12.238   4.476 -1.4698  3.8852  0.1480
  864MOL0     H19194   8.800  12.048   3.865 -1.1904  0.8572  1.8380
  864MOL0     H19195   8.972  12.103   3.681 -2.0413 -1.2205  0.4208
  864MOL0     H19196   9.072  12.534   3.590  1.0689  2.2044  1.9465
  864MOL0     H19197   9.155  12.464   3.729 -0.5200  0.1296 -0.3025
  864MOL0     H19198   9.305  12.336   3.552 -0.3303 -0.0167  1.3569
  864MOL0     H19199   9.226  12.435   3.434  0.9207 -1.6405 -0.4401
  864MOL0     H19200   9.350  12.585   3.669 -0.1931  1.7756 -1.2130
  864MOL0     H19201   9.312  12.640   3.516  1.4745 -0.3118 -1.8428
  864MOL0     H19202   9.484  12.460   3.409  4.1478 -0.4252  0.1649
  864MOL0     H19203   9.528  12.414   3.567 -2.1713 -0.0480  1.8129
  864MOL0     H19204   9.548  12.705   3.466 -0.8579  0.3724  0.3527
  864MOL0     H19205   9.613  12.635   3.620  3.8991 -0.9018 -0.0725
  864MOL0     H19206   9.682  12.581   3.334 -0.8598  0.7648 -0.0179
  864MOL0     H19207   9.754  12.485   3.465  0.4351 -0.7382 -1.5036
  864MOL0     H19208   9.769  12.786   3.475 -2.9884 -1.3517 -0.3195
  864MOL0     H19209   9.894  12.699   3.374 -0.3250  0.0361  0.0742
  864MOL0     H19210   9.964  12.559   3.556  1.8128 -0.0331  2.4477
  864MOL0     H19211   9.842  12.614   3.668 -0.6568  0.9974 -0.1486
  864MOL0     H19212   8.883  12.517   3.703  1.7396 -1.0056 -1.2778
  864MOL0     H19213   8.706  12.466   3.879 -0.6537  1.1055 -2.2191
  864MOL0     H19214   8.405  12.294   3.926 -1.3829 -0.9502  0.6138
  864MOL0     H19215   8.163  12.275   4.005  1.2280 -1.8386  0.5512
  864MOL0     H19216   6.792  11.104   3.591  0.2812  0.1248 -0.2330
  864MOL0     H19217   6.641  10.930   3.652 -0.9431  0.6174 -0.4091
  864MOL0     H19218   6.487  10.693   3.715 -0.5197 -0.9519 -1.1197
  864MOL0     H19219   6.346  10.498   3.644  0.3043 -1.0032  1.7958
  864MOL0     H19220   6.117  10.237   3.927  0.6871 -0.0418 -0.3957
  864MOL0     H19221   6.017  10.382   3.914 -1.7469 -0.2107 -1.0626
  864MOL0     H19222   5.911  10.184   3.829  0.2870  0.1905 -0.4038
  864MOL0     H19223   6.046  10.157   3.721  1.0326  1.2490 -1.0825
  864MOL0     H19224   5.870  10.416   3.734  0.0616  0.3105  0.8105
  864MOL0     H19225   5.996  10.383   3.606  2.2488 -1.7671  2.2490
  864MOL0     H19226   5.751  10.201   3.629  1.3142  0.0308  1.4688
  864MOL0     H19227   5.881  10.216   3.505  1.3717 -0.3576  0.9991
  864MOL0     H19228   5.684  10.579   3.417  2.2251  1.7845  1.8029
  864MOL0     H19229   6.174  10.481   4.026 -2.2336  2.5315  0.0242
  864MOL0     H19230   6.366  10.720   4.182 -0.3507  2.3379 -1.3028
  864MOL0     H19231   6.201  10.779   4.132  0.9719  1.4570 -0.3147
  864MOL0     H19232   6.230  10.614   4.192 -0.5783  1.0387  0.8314
  865MOL0     O19233   2.636   4.801  10.365  0.3926  0.0058  0.2850
  865MOL0     C19234   2.555   4.889  10.372  0.6610  0.2152 -0.4536
  865MOL0     O19235   2.585   5.022  10.387 -0.0421  0.0392 -0.0440
  865MOL0     C19236   2.718   5.051  10.406  0.4628 -0.2410 -0.5454
  865MOL0     C19237   2.820   5.017  10.327 -0.2617 -0.0894  0.0390
  865MOL0     C19238   2.943   5.060  10.362 -1.2116  0.4988  0.1507
  865MOL0     C19239   2.975   5.127  10.474  0.1304  0.5797 -0.6277
  865MOL0     O19240   3.098   5.168  10.522  0.7337 -0.1580  0.1357
  865MOL0     C19241   3.209   5.155  10.440  0.1510  0.6382 -0.5497
  865MOL0     C19242   3.335   5.194  10.515 -1.0765 -0.6022 -0.2944
  865MOL0     C19243   3.451   5.141  10.433 -0.9480 -0.6463  0.6689
  865MOL0     C19244   3.582   5.182  10.502  0.5600  0.0175 -0.0443
  865MOL0     C19245   3.701   5.110  10.442  0.3404  0.2583 -0.6253
  865MOL0     C19246   3.701   4.960  10.477  0.0117  0.1787  0.4597
  865MOL0     C19247   3.837   4.917  10.417  0.4921 -0.0118 -0.1707
  865MOL0     C19248   3.874   4.779  10.483 -0.3500 -1.4860  1.0575
  865MOL0     N19249   3.993   4.754  10.394  0.3070 -0.2727  0.5874
  865MOL0     C19250   4.124   4.794  10.418  0.0933  0.3423  0.9796
  865MOL0     C19251   4.204   4.742  10.318  0.1339  0.2101 -0.8482
  865MOL0     C19252   4.342   4.789  10.304  0.5223 -0.9010  0.9621
  865MOL0     C19253   4.430   4.715  10.203  0.0348  0.6833 -0.3601
  865MOL0     C19254   4.392   4.729  10.051 -0.6869 -0.3374 -0.7086
  865MOL0     C19255   4.521   4.713   9.970  1.2350  0.9729  0.4205
  865MOL0     O19256   4.602   4.827  10.001 -0.5671 -0.1046  0.5484
  865MOL0     C19257   4.715   4.843   9.921  0.6435 -0.0367 -0.3545
  865MOL0     C19258   4.787   4.966   9.944  0.4140 -0.1629 -0.2432
  865MOL0     C19259   4.911   4.992   9.876  0.1071 -0.2500  0.1620
  865MOL0     C19260   4.969   5.134   9.880  0.1767 -0.5719 -0.3958
  865MOL0     C19261   4.966   4.892   9.787 -0.4397 -0.6790 -0.6951
  865MOL0     C19262   5.101   4.896   9.731  0.4037 -0.2921 -0.7530
  865MOL0     O19263   5.110   4.861   9.596  0.1572  0.3365 -0.0033
  865MOL0     C19264   5.213   4.867   9.514  0.0046  0.7266  0.0878
  865MOL0     C19265   5.319   4.957   9.533  0.0200 -0.2706  0.8570
  865MOL0     C19266   5.436   4.939   9.443  0.4627  0.5570 -0.2817
  865MOL0     C19267   5.420   4.846   9.343 -1.0824  0.8601 -0.1906
  865MOL0     O19268   5.519   4.825   9.248 -0.0865 -0.5456 -0.2098
  865MOL0     C19269   5.529   4.930   9.149 -0.6286 -0.4399 -0.2285
  865MOL0     C19270   5.657   4.899   9.066  0.5868 -0.5869 -0.3111
  865MOL0     C19271   5.715   5.017   8.988 -0.4420 -0.0104 -0.0977
  865MOL0     C19272   5.757   4.982   8.847  0.2908 -0.8414 -0.0040
  865MOL0     C19273   5.825   5.106   8.787 -0.3014 -0.8108 -0.7365
  865MOL0     C19274   5.880   5.078   8.647  0.3842  0.1177  0.4661
  865MOL0     C19275   5.952   5.195   8.576 -0.9028 -0.0968 -0.2545
  865MOL0     C19276   5.869   5.321   8.549  0.6742 -0.3326  0.3805
  865MOL0    Cl19277   5.718   5.272   8.454 -0.4000  0.3806  0.0688
  865MOL0     C19278   5.313   4.754   9.340  0.2617 -0.5597 -0.3213
  865MOL0     C19279   5.209   4.759   9.428 -0.5768 -0.5450  0.3894
  865MOL0     O19280   5.195   4.927   9.802 -0.0113  0.8747 -0.4393
  865MOL0     C19281   4.889   4.775   9.762  0.1638 -0.2318 -0.1831
  865MOL0     C19282   4.770   4.756   9.826  1.1094  0.6788 -0.5430
  865MOL0     N19283   4.118   4.688  10.219 -0.1465  0.2053 -0.2666
  865MOL0     N19284   3.998   4.678  10.266  0.1200 -0.1297 -0.7078
  865MOL0     C19285   2.871   5.170  10.549 -0.1599  0.7204  0.2509
  865MOL0     C19286   2.743   5.128  10.519  0.0013 -0.4304  0.3041
  865MOL0     C19287   2.412   4.865  10.358  0.8618  0.0103 -0.0117
  865MOL0     C19288   2.321   4.977  10.326 -0.5244 -0.1788 -0.9746
  865MOL0     C19289   2.180   4.970  10.334 -0.4667 -0.2620 -0.1334
  865MOL0     C19290   2.121   4.858  10.379  0.0262 -0.6482 -0.2516
  865MOL0     O19291   1.988   4.867  10.390  0.0308 -0.3664  0.2786
  865MOL0     C19292   1.924   4.790  10.496 -0.1411  0.6172  0.4558
  865MOL0     C19293   1.843   4.671  10.448 -0.8030  0.0964  0.8511
  865MOL0     C19294   1.722   4.712  10.367 -0.6399  0.1888 -0.8088
  865MOL0     C19295   1.642   4.591  10.303  0.3676 -0.1116  0.2069
  865MOL0     C19296   1.515   4.643  10.248  0.5266 -0.7465  0.5089
  865MOL0     C19297   1.418   4.674  10.176 -0.5063  0.6246  0.1489
  865MOL0     C19298   2.196   4.733  10.394 -0.1047  0.1205 -0.7325
  865MOL0     C19299   2.343   4.740  10.383  0.4332  0.1848 -0.3555
  865MOL0     C19300   2.417   4.628  10.432  0.2199  0.1318  0.4803
  865MOL0     H19301   2.794   4.944  10.251 -2.7579 -1.5641  2.1597
  865MOL0     H19302   3.028   5.037  10.298 -0.6768  1.4858  0.4963
  865MOL0     H19303   3.202   5.228  10.359 -0.0949 -0.1315 -1.2340
  865MOL0     H19304   3.221   5.051  10.410  3.2357  0.7191  0.1125
  865MOL0     H19305   3.357   5.301  10.520  0.1914 -0.8659  0.1957
  865MOL0     H19306   3.338   5.151  10.615  1.8005 -0.5355 -0.2655
  865MOL0     H19307   3.453   5.035  10.406 -2.7563 -0.3822 -0.6354
  865MOL0     H19308   3.445   5.192  10.337  0.5011 -1.2496  0.2333
  865MOL0     H19309   3.595   5.289  10.484  1.7312 -0.0204  0.4900
  865MOL0     H19310   3.572   5.156  10.608  3.4951  0.7089  0.5033
  865MOL0     H19311   3.792   5.160  10.479  0.4529 -0.6480  0.3901
  865MOL0     H19312   3.703   5.118  10.333 -0.6412 -1.0008 -0.7588
  865MOL0     H19313   3.700   4.934  10.583 -0.1320  0.3876  0.5089
  865MOL0     H19314   3.626   4.894  10.433  1.4018 -1.3203  0.2334
  865MOL0     H19315   3.914   4.987  10.451  1.0641 -0.0857 -1.2478
  865MOL0     H19316   3.809   4.914  10.311 -3.0626 -1.0145  0.6887
  865MOL0     H19317   3.894   4.769  10.590  1.7801  0.2304  0.8748
  865MOL0     H19318   3.802   4.705  10.447 -0.8101  0.1984 -1.8286
  865MOL0     H19319   4.164   4.865  10.490 -1.8371  1.9663  0.5330
  865MOL0     H19320   4.395   4.780  10.399  2.6910  1.8579  0.1567
  865MOL0     H19321   4.343   4.897  10.283  1.3759 -1.3612 -1.7707
  865MOL0     H19322   4.532   4.744  10.228 -0.2371  1.9489 -0.6176
  865MOL0     H19323   4.422   4.611  10.234  0.0336  1.0730  1.0033
  865MOL0     H19324   4.314   4.657  10.026 -0.8853 -0.2177 -0.4422
  865MOL0     H19325   4.359   4.831  10.031  0.2761  0.8024  2.7432
  865MOL0     H19326   4.567   4.619  10.001 -0.8936 -0.6630 -1.0970
  865MOL0     H19327   4.489   4.709   9.866 -1.3089 -1.0347  1.1889
  865MOL0     H19328   4.742   5.040  10.009 -1.1831 -0.7152 -0.6874
  865MOL0     H19329   5.042   5.125   9.960 -0.3975 -3.0568 -0.0659
  865MOL0     H19330   4.900   5.215   9.907 -0.4311  0.4264 -4.3252
  865MOL0     H19331   5.014   5.165   9.785  0.9520  0.0925  0.1706
  865MOL0     H19332   5.314   5.033   9.610 -1.7481 -0.6407  1.1542
  865MOL0     H19333   5.527   4.995   9.459  0.5569 -0.2635  2.4871
  865MOL0     H19334   5.443   4.943   9.082 -1.2504  1.8356  0.8985
  865MOL0     H19335   5.545   5.027   9.196 -2.4666 -1.4677  2.7518
  865MOL0     H19336   5.725   4.866   9.145 -0.8129 -0.4962  1.0009
  865MOL0     H19337   5.624   4.821   8.998  1.0118 -1.9388  0.9762
  865MOL0     H19338   5.801   5.057   9.041 -1.6130  1.5178  0.7159
  865MOL0     H19339   5.640   5.097   8.983 -1.5567 -1.0048  0.0359
  865MOL0     H19340   5.667   4.970   8.787 -0.2688  0.2830  0.5827
  865MOL0     H19341   5.823   4.894   8.846  1.1202 -0.2307  0.1159
  865MOL0     H19342   5.757   5.192   8.787  0.3318 -0.2819  0.5040
  865MOL0     H19343   5.917   5.134   8.839  1.3510 -3.2074 -2.1578
  865MOL0     H19344   5.801   5.032   8.587  0.9361 -0.4095  0.1349
  865MOL0     H19345   5.964   5.007   8.646  2.5763  2.5755 -1.4606
  865MOL0     H19346   5.999   5.154   8.486 -0.8026  1.8713 -1.1465
  865MOL0     H19347   6.033   5.224   8.644 -1.5272 -0.6388  0.7623
  865MOL0     H19348   5.930   5.383   8.483  2.7759 -0.1262  2.4241
  865MOL0     H19349   5.848   5.386   8.634 -2.1098  1.9022 -1.7852
  865MOL0     H19350   5.309   4.667   9.276  2.9956  0.8029 -2.5788
  865MOL0     H19351   5.129   4.687   9.415 -0.6000 -0.1641 -2.1006
  865MOL0     H19352   4.916   4.699   9.689 -1.5388 -0.7015 -0.3552
  865MOL0     H19353   4.716   4.667   9.793 -1.6933  1.9310  0.3567
  865MOL0     H19354   2.877   5.237  10.634 -1.4551  0.0010  0.9507
  865MOL0     H19355   2.667   5.170  10.585 -0.2997  0.9848 -0.8856
  865MOL0     H19356   2.359   5.075  10.299 -1.0655  0.1640 -0.5186
  865MOL0     H19357   2.122   5.060  10.317  1.1210  0.5304 -1.7875
  865MOL0     H19358   2.007   4.754  10.558  0.9042  1.8560 -0.1618
  865MOL0     H19359   1.857   4.862  10.544 -1.8714  1.0803 -2.4175
  865MOL0     H19360   1.811   4.612  10.534  0.6321  0.0695  1.3941
  865MOL0     H19361   1.904   4.612  10.379  1.8339  0.6394  2.5393
  865MOL0     H19362   1.653   4.769  10.431 -0.8994 -0.4703 -0.4931
  865MOL0     H19363   1.761   4.785  10.296 -1.7372 -0.6488 -2.3076
  865MOL0     H19364   1.620   4.514  10.378  0.0162  0.8786  1.1532
  865MOL0     H19365   1.698   4.537  10.227 -0.3090 -0.1497 -0.2684
  865MOL0     H19366   1.331   4.697  10.117  0.2650  1.5404 -0.6570
  865MOL0     H19367   2.143   4.641  10.413 -1.7798  0.5675 -2.8176
  865MOL0     H19368   2.473   4.656  10.522 -1.0047 -1.8258  1.9377
  865MOL0     H19369   2.365   4.534  10.446  1.0097 -0.3897 -0.0021
  865MOL0     H19370   2.494   4.597  10.361  2.3330  2.1708  1.6946
  866MOL0     O19371   5.923   2.140  10.871 -0.4284 -0.0469 -0.0904
  866MOL0     C19372   5.802   2.119  10.861 -0.0246  0.2325  0.5818
  866MOL0     O19373   5.699   2.174  10.936  0.2930  0.0708 -1.0836
  866MOL0     C19374   5.729   2.239  11.055  0.1850  0.1744 -0.4897
  866MOL0     C19375   5.650   2.201  11.165  0.2053  0.4607  0.6375
  866MOL0     C19376   5.684   2.250  11.293  0.9004 -0.3825  0.3798
  866MOL0     C19377   5.781   2.351  11.303  0.2934 -0.2703 -0.9196
  866MOL0     O19378   5.808   2.395  11.433  0.6617 -1.0761  0.4043
  866MOL0     C19379   5.876   2.531  11.442  0.1055  0.3037  0.6572
  866MOL0     C19380   5.766   2.639  11.393  0.3601 -0.2795  0.4062
  866MOL0     C19381   5.626   2.592  11.447  0.3386 -0.9283  0.9303
  866MOL0     C19382   5.517   2.699  11.431 -0.0755 -0.4993  0.1335
  866MOL0     C19383   5.367   2.661  11.446 -0.3378  0.0986  0.2392
  866MOL0     C19384   5.309   2.642  11.310  0.4150  0.5185 -0.0059
  866MOL0     C19385   5.164   2.579  11.314  0.0284 -0.2549 -0.1618
  866MOL0     C19386   5.058   2.680  11.367 -1.0298  0.1666 -0.0338
  866MOL0     N19387   5.072   2.811  11.304  0.4822 -0.4981  0.3873
  866MOL0     C19388   5.054   2.830  11.171  0.8166  0.2290 -0.0760
  866MOL0     C19389   5.071   2.960  11.145 -0.2628 -0.4127  0.8892
  866MOL0     C19390   5.039   3.034  11.018 -0.7284 -0.8806  0.3043
  866MOL0     C19391   5.142   3.143  10.978 -1.0611 -0.0476 -0.0016
  866MOL0     C19392   5.119   3.196  10.833  0.1711 -0.3441 -0.2480
  866MOL0     C19393   5.234   3.291  10.791 -0.0034 -0.0005  0.2362
  866MOL0     O19394   5.283   3.391  10.883  0.6421  0.1692 -0.0820
  866MOL0     C19395   5.416   3.399  10.890 -0.2536 -0.4398 -0.0388
  866MOL0     C19396   5.488   3.336  10.989  0.2930  0.5263 -0.0401
  866MOL0     C19397   5.619   3.363  11.005  0.3812  0.7122  0.3235
  866MOL0     C19398   5.685   3.290  11.121 -0.6526 -0.0991 -0.2325
  866MOL0     C19399   5.689   3.430  10.904 -0.1512 -0.7014 -0.4067
  866MOL0     C19400   5.836   3.446  10.904 -1.0642 -0.7583 -0.5898
  866MOL0     O19401   5.882   3.532  10.809  0.5176  0.1440 -0.7710
  866MOL0     C19402   6.017   3.523  10.772  0.2616 -0.1942 -0.7993
  866MOL0     C19403   6.089   3.642  10.736 -0.8059  0.3923  0.2806
  866MOL0     C19404   6.232   3.625  10.706 -0.2379  0.2232  0.1323
  866MOL0     C19405   6.289   3.499  10.714 -0.0807 -0.5389 -0.0272
  866MOL0     O19406   6.417   3.472  10.686 -0.2615  0.7573 -0.0190
  866MOL0     C19407   6.508   3.569  10.647 -0.0819 -0.9768 -0.0883
  866MOL0     C19408   6.638   3.527  10.711 -0.0455 -0.1848  0.4365
  866MOL0     C19409   6.630   3.534  10.864 -0.2315  0.1555  0.1344
  866MOL0     C19410   6.624   3.395  10.924 -0.3014 -0.3646 -0.5324
  866MOL0     C19411   6.600   3.389  11.073  0.7963 -0.4565  0.2365
  866MOL0     C19412   6.717   3.438  11.167  0.1882  0.1731 -0.0494
  866MOL0     C19413   6.686   3.417  11.313 -0.4042  0.1922 -0.5356
  866MOL0     C19414   6.805   3.470  11.407 -0.3908 -0.3712  0.8337
  866MOL0    Cl19415   6.831   3.381  11.565  0.4697  0.3892  0.5176
  866MOL0     C19416   6.212   3.394  10.742 -0.0595  0.0390 -0.3854
  866MOL0     C19417   6.080   3.406  10.764 -0.5266 -0.2455 -0.5943
  866MOL0     O19418   5.904   3.391  10.994  0.4277 -0.3559 -0.3289
  866MOL0     C19419   5.619   3.486  10.790 -0.3257  0.0391 -0.5725
  866MOL0     C19420   5.480   3.473  10.796 -0.1417  0.4969  0.0042
  866MOL0     N19421   5.116   3.016  11.261 -0.8977  0.2114  0.1991
  866MOL0     N19422   5.122   2.925  11.346 -0.0153  0.1115  0.0032
  866MOL0     C19423   5.854   2.389  11.189 -0.7603 -0.1325 -0.3798
  866MOL0     C19424   5.835   2.323  11.068 -0.0378  0.8480 -0.0185
  866MOL0     C19425   5.762   2.034  10.747  0.5329  0.6363  0.0461
  866MOL0     C19426   5.648   1.954  10.760 -0.4072 -0.1431 -1.0749
  866MOL0     C19427   5.609   1.870  10.656  0.3431 -0.0434 -0.2907
  866MOL0     C19428   5.663   1.882  10.531  0.3300 -0.1596 -0.0355
  866MOL0     O19429   5.620   1.790  10.443 -0.0244  0.7530 -0.5391
  866MOL0     C19430   5.674   1.666  10.431  0.2552 -0.3643  0.0941
  866MOL0     C19431   5.625   1.568  10.325 -0.1287 -0.3224  1.1525
  866MOL0     C19432   5.687   1.593  10.188  0.4962  0.0130 -0.1987
  866MOL0     C19433   5.601   1.695  10.102  0.3215  0.1082 -0.1560
  866MOL0     C19434   5.644   1.724   9.967 -0.0541  0.1265  1.0634
  866MOL0     C19435   5.671   1.736   9.849 -0.1797 -0.7188  0.2529
  866MOL0     C19436   5.770   1.969  10.509 -0.2553 -0.4618  0.4331
  866MOL0     C19437   5.823   2.040  10.615 -1.2326  0.0669  0.2386
  866MOL0     C19438   5.936   2.138  10.580 -0.0522 -0.3618 -0.2039
  866MOL0     H19439   5.566   2.132  11.164  0.7199 -0.2036  1.9679
  866MOL0     H19440   5.633   2.217  11.383  0.8088  2.6139  1.5484
  866MOL0     H19441   5.969   2.525  11.385 -2.1515  0.6386 -3.4347
  866MOL0     H19442   5.887   2.558  11.548 -2.4093 -1.3270  1.4319
  866MOL0     H19443   5.788   2.740  11.429 -1.8872  0.1965  0.6125
  866MOL0     H19444   5.762   2.639  11.284 -0.8145  0.9800  0.4104
  866MOL0     H19445   5.586   2.514  11.381  0.0903  0.5344 -0.7198
  866MOL0     H19446   5.633   2.560  11.552 -1.7884 -1.1811  1.0517
  866MOL0     H19447   5.534   2.771  11.511 -1.1986  0.8966 -0.8174
  866MOL0     H19448   5.527   2.768  11.346 -3.3111 -0.2417 -0.1820
  866MOL0     H19449   5.299   2.727  11.502 -3.7173 -3.4784  0.8418
  866MOL0     H19450   5.367   2.563  11.495 -2.3321 -1.0835 -1.9034
  866MOL0     H19451   5.311   2.738  11.258  0.2617  1.0195  0.8984
  866MOL0     H19452   5.363   2.561  11.260 -2.8763 -0.1091 -2.8573
  866MOL0     H19453   5.155   2.489  11.375 -3.3822  0.1914  0.1745
  866MOL0     H19454   5.137   2.554  11.211 -1.6695  1.6699 -0.2467
  866MOL0     H19455   4.957   2.639  11.364 -0.7418 -0.5284 -0.3145
  866MOL0     H19456   5.072   2.688  11.475  0.7059  1.6811 -0.3142
  866MOL0     H19457   5.023   2.760  11.094  1.3356  1.7137 -1.7224
  866MOL0     H19458   4.945   3.088  11.033  0.5634  1.2682  1.0810
  866MOL0     H19459   5.029   2.967  10.932  3.0563 -1.3195  0.0510
  866MOL0     H19460   5.132   3.228  11.047  0.6107 -1.3711  2.0017
  866MOL0     H19461   5.246   3.113  10.991 -0.2026  2.5030 -0.3809
  866MOL0     H19462   5.108   3.104  10.775 -1.9358 -0.7188  0.6630
  866MOL0     H19463   5.021   3.241  10.816 -0.6342 -3.1525 -4.4949
  866MOL0     H19464   5.318   3.232  10.753 -0.3760 -0.7339  0.5349
  866MOL0     H19465   5.195   3.340  10.701  0.8986  0.6721  0.1978
  866MOL0     H19466   5.435   3.274  11.060 -2.2812  1.4564 -1.0283
  866MOL0     H19467   5.611   3.231  11.176 -0.5979  0.9674  1.0258
  866MOL0     H19468   5.723   3.354  11.201  0.6724 -2.2973  0.9858
  866MOL0     H19469   5.758   3.224  11.074  1.1361 -0.5245  2.8442
  866MOL0     H19470   6.037   3.737  10.736 -2.2299 -0.3592  0.9127
  866MOL0     H19471   6.281   3.716  10.674  1.9349 -1.1597 -0.7376
  866MOL0     H19472   6.511   3.575  10.538  2.0756  0.4450 -0.0084
  866MOL0     H19473   6.477   3.663  10.694  1.8815 -0.7878  0.9241
  866MOL0     H19474   6.660   3.426  10.678 -1.6695 -0.6664  0.7856
  866MOL0     H19475   6.713   3.598  10.675 -1.4395  0.7609 -0.7010
  866MOL0     H19476   6.538   3.585  10.895 -0.1698 -0.2972  1.0937
  866MOL0     H19477   6.719   3.583  10.905 -0.0946  1.2015 -1.3212
  866MOL0     H19478   6.714   3.341  10.893 -0.2971 -0.8997  0.3884
  866MOL0     H19479   6.548   3.338  10.869  1.4172 -1.8234 -1.5160
  866MOL0     H19480   6.512   3.449  11.096  0.4614  1.1835 -4.4073
  866MOL0     H19481   6.572   3.284  11.089  1.7856 -0.8797 -0.7248
  866MOL0     H19482   6.767   3.530  11.136  0.6402 -0.4126 -1.1440
  866MOL0     H19483   6.792   3.359  11.155  1.1489  0.9719  0.5579
  866MOL0     H19484   6.673   3.311  11.336  0.3100  0.3194  0.5461
  866MOL0     H19485   6.592   3.467  11.335 -1.9301 -2.6306 -0.1482
  866MOL0     H19486   6.792   3.571  11.448 -0.5158 -1.3451  3.3649
  866MOL0     H19487   6.900   3.467  11.352  0.7539 -2.3486  2.7618
  866MOL0     H19488   6.238   3.289  10.733  1.3193  0.5493 -4.3128
  866MOL0     H19489   6.019   3.317  10.778 -1.6316  0.4916 -0.6040
  866MOL0     H19490   5.675   3.555  10.728 -0.7363  0.5848 -0.3403
  866MOL0     H19491   5.427   3.522  10.715  0.0905 -0.3213 -0.6533
  866MOL0     H19492   5.926   2.470  11.190 -0.6261 -0.2520 -0.2957
  866MOL0     H19493   5.902   2.357  10.990  0.8769 -0.0786  0.3442
  866MOL0     H19494   5.588   1.936  10.848 -0.5486 -3.8064 -1.7507
  866MOL0     H19495   5.527   1.801  10.676 -1.4348  1.7481 -1.1056
  866MOL0     H19496   5.781   1.686  10.418 -0.0218  0.2728 -1.3816
  866MOL0     H19497   5.671   1.612  10.526 -0.1063  0.9079  0.8298
  866MOL0     H19498   5.516   1.573  10.330 -0.1834 -1.9985  2.5428
  866MOL0     H19499   5.650   1.467  10.360 -3.2836 -1.6492 -0.0010
  866MOL0     H19500   5.788   1.632  10.195  0.0046  1.3368 -0.2343
  866MOL0     H19501   5.687   1.500  10.130 -1.1722  0.0943 -0.3820
  866MOL0     H19502   5.609   1.795  10.146 -1.6804 -0.2086  1.0496
  866MOL0     H19503   5.496   1.665  10.107  0.6335 -0.8489  1.2287
  866MOL0     H19504   5.691   1.774   9.751  0.2723  1.8787  1.2544
  866MOL0     H19505   5.821   1.976  10.413 -0.2060  1.6770  0.5826
  866MOL0     H19506   6.019   2.137  10.650 -0.6729 -2.1531  0.5717
  866MOL0     H19507   5.981   2.129  10.481  0.1852  0.8253 -0.2190
  866MOL0     H19508   5.893   2.238  10.586  0.7563  0.0806 -1.3207
  867MOL0     O19509   7.595   4.781   6.034 -0.0739 -0.5058  0.1636
  867MOL0     C19510   7.555   4.802   6.147 -0.9421  0.4993 -0.9861
  867MOL0     O19511   7.638   4.823   6.250 -0.1623  0.2158  0.5147
  867MOL0     C19512   7.773   4.799   6.235  0.8399  0.1307  0.0547
  867MOL0     C19513   7.824   4.685   6.175 -0.3267  0.0212  0.0472
  867MOL0     C19514   7.966   4.661   6.167 -0.3702  0.1557  0.9284
  867MOL0     C19515   8.062   4.752   6.210  0.3000  0.8037  0.1651
  867MOL0     O19516   8.199   4.722   6.221 -0.1464  0.0107  0.3727
  867MOL0     C19517   8.246   4.588   6.209 -0.6595 -0.6534 -0.3575
  867MOL0     C19518   8.394   4.597   6.250 -0.1609 -0.6232 -0.1514
  867MOL0     C19519   8.470   4.686   6.153  0.7372 -0.2247  0.0873
  867MOL0     C19520   8.606   4.741   6.202  0.1145 -0.0101  0.4927
  867MOL0     C19521   8.680   4.822   6.088  0.8925 -0.7641 -0.1294
  867MOL0     C19522   8.793   4.918   6.131 -0.1566 -0.1600  0.5121
  867MOL0     C19523   8.928   4.834   6.128  0.7302 -0.7873 -0.8611
  867MOL0     C19524   9.050   4.916   6.163 -0.1330  0.0495  0.4700
  867MOL0     N19525   9.060   5.047   6.092 -0.1491  0.2025  0.1228
  867MOL0     C19526   9.155   5.069   5.989 -0.1631 -0.4117 -0.2987
  867MOL0     C19527   9.154   5.204   5.968  0.1530 -0.3760  0.4004
  867MOL0     C19528   9.236   5.287   5.864  0.2200  0.1451  0.4048
  867MOL0     C19529   9.139   5.348   5.768  0.7321 -0.2516  0.4784
  867MOL0     C19530   9.198   5.390   5.637  0.1245 -0.2778  0.1342
  867MOL0     C19531   9.323   5.476   5.671  0.0942  0.2460 -0.0126
  867MOL0     O19532   9.380   5.532   5.552 -0.2404 -0.1625  0.0548
  867MOL0     C19533   9.492   5.604   5.560 -0.4416  0.3294 -0.4329
  867MOL0     C19534   9.567   5.616   5.680  0.1366  0.1068  0.7921
  867MOL0     C19535   9.689   5.686   5.684  1.2057 -0.6524 -1.4271
  867MOL0     C19536   9.752   5.701   5.820  1.3115  0.1409  0.0682
  867MOL0     C19537   9.745   5.735   5.560  0.9995  0.1085 -0.3472
  867MOL0     C19538   9.880   5.809   5.548 -0.4510  0.0467 -0.2793
  867MOL0     O19539   9.952   5.788   5.435 -0.1109  0.3721 -0.7331
  867MOL0     C19540  10.055   5.864   5.387  0.2778  0.1174  0.9088
  867MOL0     C19541  10.170   5.882   5.449 -0.8523  0.7373 -0.3059
  867MOL0     C19542  10.288   5.935   5.391  0.9161  1.3684 -0.4085
  867MOL0     C19543  10.279   5.991   5.259 -0.9380  0.5075 -0.1290
  867MOL0     O19544  10.392   6.046   5.219 -1.2065  0.0793  0.4803
  867MOL0     C19545  10.405   6.087   5.076  0.1860  0.0671  0.1425
  867MOL0     C19546  10.544   6.146   5.053 -0.6144  0.6548 -0.2132
  867MOL0     C19547  10.662   6.054   5.081  0.0739  0.5089  0.3153
  867MOL0     C19548  10.784   6.081   4.993  0.2154 -0.9170  0.4975
  867MOL0     C19549  10.907   6.016   5.038 -0.6739 -0.2667  0.2080
  867MOL0     C19550  11.028   6.057   4.951  0.1270  0.8502 -0.7604
  867MOL0     C19551  11.057   6.200   4.987 -0.0408  0.0656 -0.2065
  867MOL0     C19552  11.167   6.248   4.890 -0.1211 -0.0031 -0.9629
  867MOL0    Cl19553  11.225   6.412   4.908 -0.0858 -0.3692 -0.0999
  867MOL0     C19554  10.165   5.978   5.189  0.1911  0.1640  0.2687
  867MOL0     C19555  10.046   5.914   5.255  0.1925  0.1910  0.2453
  867MOL0     O19556   9.919   5.880   5.637 -0.1551 -0.2544 -0.8505
  867MOL0     C19557   9.672   5.729   5.443  0.0375  0.7662 -0.0921
  867MOL0     C19558   9.554   5.666   5.452  0.6210 -0.3520 -0.0571
  867MOL0     N19559   9.069   5.256   6.057 -0.2658 -0.0615 -0.1892
  867MOL0     N19560   9.020   5.164   6.135 -0.6727 -0.1953  1.3412
  867MOL0     C19561   8.013   4.860   6.285  0.0820 -0.0025  0.0014
  867MOL0     C19562   7.869   4.881   6.295  0.0684 -0.6041  0.2020
  867MOL0     C19563   7.408   4.813   6.195 -0.5077 -0.3889  1.2431
  867MOL0     C19564   7.382   4.780   6.322  0.5184 -0.8405  0.5739
  867MOL0     C19565   7.251   4.776   6.369  0.5811  0.0567 -0.1787
  867MOL0     C19566   7.139   4.803   6.290  0.2818 -0.4898 -0.0332
  867MOL0     O19567   7.017   4.790   6.355  0.0489 -0.2268 -0.5423
  867MOL0     C19568   6.907   4.868   6.324 -0.0855 -0.4298 -0.1657
  867MOL0     C19569   6.910   5.004   6.396 -0.4497  0.6785 -0.0071
  867MOL0     C19570   6.778   5.077   6.392 -0.5133 -0.3699 -0.1136
  867MOL0     C19571   6.801   5.234   6.375 -0.5092 -0.9409 -0.4982
  867MOL0     C19572   6.835   5.266   6.241  0.5553 -0.7908  0.2673
  867MOL0     C19573   6.864   5.317   6.129  0.2421  0.8973 -0.5612
  867MOL0     C19574   7.167   4.833   6.147 -0.0503  0.1696 -0.8169
  867MOL0     C19575   7.300   4.849   6.105 -0.6588 -0.0429 -0.4475
  867MOL0     C19576   7.332   4.885   5.964 -0.2197  0.0616 -0.8826
  867MOL0     H19577   7.766   4.605   6.131 -2.8372  1.7471 -0.0273
  867MOL0     H19578   8.002   4.566   6.127 -2.7941 -1.0431  1.3744
  867MOL0     H19579   8.239   4.535   6.114  1.2405 -1.3997 -0.1402
  867MOL0     H19580   8.208   4.520   6.286  0.3813 -1.1003 -0.2214
  867MOL0     H19581   8.396   4.654   6.344 -0.2667 -1.2694  0.2496
  867MOL0     H19582   8.440   4.498   6.257  0.8374 -0.2445 -1.0894
  867MOL0     H19583   8.471   4.610   6.074 -3.6976 -2.8491  2.1658
  867MOL0     H19584   8.402   4.767   6.125 -1.8433 -1.6404  1.8449
  867MOL0     H19585   8.579   4.817   6.275 -0.8118  0.0340  0.1239
  867MOL0     H19586   8.667   4.661   6.244 -0.1921 -0.0608  0.8449
  867MOL0     H19587   8.602   4.878   6.037 -0.3291 -0.9955  1.4066
  867MOL0     H19588   8.709   4.753   6.009  4.5901 -2.9606  2.7500
  867MOL0     H19589   8.789   4.998   6.056  2.5543 -1.4720 -1.1968
  867MOL0     H19590   8.773   4.944   6.235 -1.5116 -3.0539  1.0648
  867MOL0     H19591   8.940   4.781   6.033 -3.0413  0.2027 -2.0878
  867MOL0     H19592   8.921   4.765   6.213  0.2802  0.8391  0.4966
  867MOL0     H19593   9.052   4.925   6.272 -1.1683 -0.6833  0.5601
  867MOL0     H19594   9.138   4.868   6.120 -0.7296  0.8270 -1.7498
  867MOL0     H19595   9.223   5.007   5.931  2.5752  2.6118 -0.6601
  867MOL0     H19596   9.294   5.206   5.817  1.1570  1.5891 -1.0417
  867MOL0     H19597   9.303   5.359   5.911  1.3264 -0.2900 -0.4423
  867MOL0     H19598   9.069   5.270   5.737  0.9350 -0.4665  0.5570
  867MOL0     H19599   9.083   5.424   5.821 -0.6151 -2.6162  2.6558
  867MOL0     H19600   9.223   5.305   5.575 -3.3733 -2.1362  1.0030
  867MOL0     H19601   9.118   5.448   5.589 -0.5002 -0.3929  1.0000
  867MOL0     H19602   9.294   5.557   5.738  1.4135  1.8300 -1.2550
  867MOL0     H19603   9.406   5.412   5.702 -0.6328 -0.0585  1.3503
  867MOL0     H19604   9.525   5.594   5.778  2.0075 -0.2961  1.5548
  867MOL0     H19605   9.685   5.655   5.894  2.9595 -0.2220  1.3952
  867MOL0     H19606   9.744   5.808   5.840 -1.2710  0.2585 -1.1158
  867MOL0     H19607   9.857   5.673   5.824  1.1912 -0.4918 -0.8496
  867MOL0     H19608  10.170   5.853   5.554  1.4546  0.9403 -0.2001
  867MOL0     H19609  10.382   5.954   5.442 -0.5336  3.2378  1.7704
  867MOL0     H19610  10.396   6.013   4.996  0.2667  0.8254 -0.5805
  867MOL0     H19611  10.320   6.154   5.064 -1.8268 -1.8052  2.6899
  867MOL0     H19612  10.542   6.183   4.950 -0.0290 -1.4316 -1.0353
  867MOL0     H19613  10.554   6.234   5.117 -1.9189  0.2258  0.6128
  867MOL0     H19614  10.639   5.947   5.081 -2.1785  0.9259 -0.0131
  867MOL0     H19615  10.698   6.093   5.177  0.8041 -0.8007  0.5951
  867MOL0     H19616  10.795   6.189   4.993  0.1412 -0.8941  1.6614
  867MOL0     H19617  10.759   6.045   4.892 -2.3598 -1.3825  1.2151
  867MOL0     H19618  10.937   6.046   5.139 -0.5450 -1.4988  0.5477
  867MOL0     H19619  10.880   5.910   5.041 -1.1472 -0.1396  1.0412
  867MOL0     H19620  11.010   6.042   4.844 -0.2182  0.6470 -0.6777
  867MOL0     H19621  11.110   5.990   4.979 -1.2061 -0.6333 -0.2547
  867MOL0     H19622  11.095   6.195   5.090 -0.8225  0.6586  0.1223
  867MOL0     H19623  10.977   6.274   4.979  1.1005  1.3558  0.0683
  867MOL0     H19624  11.126   6.232   4.789 -1.8972 -0.0888 -0.2658
  867MOL0     H19625  11.253   6.180   4.891 -0.2272 -0.2088  2.1123
  867MOL0     H19626  10.148   6.025   5.093  1.7110 -0.0903 -0.1511
  867MOL0     H19627   9.956   5.907   5.195  1.0787 -2.3633 -0.9625
  867MOL0     H19628   9.704   5.777   5.350  0.6909 -1.3921 -1.0524
  867MOL0     H19629   9.486   5.668   5.368 -0.4324 -1.4086  0.7168
  867MOL0     H19630   8.077   4.940   6.321 -1.0201  0.6066  0.6547
  867MOL0     H19631   7.826   4.962   6.353 -4.2241 -0.4469 -2.7277
  867MOL0     H19632   7.462   4.760   6.392  0.3972  2.1392  1.7374
  867MOL0     H19633   7.247   4.749   6.474  5.2436  0.1907  0.2537
  867MOL0     H19634   6.900   4.873   6.215 -0.4547 -3.4042 -0.3722
  867MOL0     H19635   6.821   4.806   6.353 -0.5108  0.1216 -0.2415
  867MOL0     H19636   6.991   5.068   6.361  0.3205  1.9512  3.6910
  867MOL0     H19637   6.918   4.981   6.502 -2.8415 -3.5108 -0.5010
  867MOL0     H19638   6.712   5.049   6.309  0.6989 -2.8058 -0.3437
  867MOL0     H19639   6.722   5.052   6.482 -0.3293 -0.3021  0.0195
  867MOL0     H19640   6.875   5.277   6.443  1.4936  0.5622 -3.4311
  867MOL0     H19641   6.699   5.272   6.391 -0.0370  0.8691 -1.5115
  867MOL0     H19642   6.880   5.385   6.048 -0.2999  1.2592 -0.3720
  867MOL0     H19643   7.086   4.856   6.079 -0.8836  1.3618  0.5048
  867MOL0     H19644   7.239   4.916   5.916 -0.8896  0.4693  0.6217
  867MOL0     H19645   7.415   4.956   5.970  0.1707 -0.4825  2.4866
  867MOL0     H19646   7.360   4.792   5.913  0.1868 -0.1274 -0.3299
  868MOL0     O19647   4.349   2.750  11.482  0.9749 -1.0428 -0.4389
  868MOL0     C19648   4.413   2.751  11.378 -0.0996 -1.2445  0.8124
  868MOL0     O19649   4.546   2.716  11.373  1.0077 -0.0562 -0.9141
  868MOL0     C19650   4.632   2.737  11.482  0.3130  1.0142  0.6482
  868MOL0     C19651   4.745   2.817  11.461 -0.4976  0.0981 -0.0890
  868MOL0     C19652   4.808   2.871  11.578 -0.7664 -0.0458  0.4432
  868MOL0     C19653   4.784   2.822  11.707  0.2144 -0.1822 -0.5754
  868MOL0     O19654   4.841   2.854  11.829 -0.6062  0.9424  0.4010
  868MOL0     C19655   4.948   2.934  11.838 -1.1125 -0.5522 -0.1102
  868MOL0     C19656   5.010   2.942  11.981  0.0717 -0.0310 -0.0268
  868MOL0     C19657   5.109   2.834  11.993 -0.0285  0.0984  0.1317
  868MOL0     C19658   5.185   2.860  12.117 -1.4025  0.5855  0.2086
  868MOL0     C19659   5.300   2.757  12.129  0.2662 -0.1144 -0.9577
  868MOL0     C19660   5.372   2.766  12.264  0.7073 -0.2577 -0.2543
  868MOL0     C19661   5.480   2.671  12.280 -0.1766 -0.3536  0.2321
  868MOL0     C19662   5.453   2.528  12.303 -0.9253 -1.0902  0.3392
  868MOL0     N19663   5.417   2.505  12.448  0.4052 -0.5925  0.3428
  868MOL0     C19664   5.298   2.536  12.509  0.7285 -0.2693  0.2548
  868MOL0     C19665   5.309   2.503  12.640 -0.6057  0.4198  0.6833
  868MOL0     C19666   5.202   2.487  12.746 -0.0671  0.0149  0.7583
  868MOL0     C19667   5.081   2.407  12.687  0.7007 -1.0642  0.7335
  868MOL0     C19668   4.964   2.494  12.621  0.0471  0.3730 -0.3348
  868MOL0     C19669   4.924   2.627  12.699  0.0113  0.5752  0.8713
  868MOL0     O19670   4.875   2.590  12.835 -0.1916  0.3847  0.9114
  868MOL0     C19671   4.751   2.637  12.870 -0.5203 -0.2354 -0.1832
  868MOL0     C19672   4.653   2.544  12.900  0.5729  0.8085 -0.4183
  868MOL0     C19673   4.527   2.575  12.960 -0.9970 -0.0003  0.1630
  868MOL0     C19674   4.436   2.468  12.993  0.0715 -0.5086  0.2329
  868MOL0     C19675   4.503   2.717  12.980 -0.2162  0.1496 -0.1992
  868MOL0     C19676   4.394   2.765  13.062 -0.0588  0.0019 -0.2249
  868MOL0     O19677   4.375   2.904  13.071 -0.0351 -0.3138  0.1460
  868MOL0     C19678   4.271   2.967  13.131 -0.6717 -0.2635  0.2413
  868MOL0     C19679   4.283   3.099  13.155 -0.2383  0.0457 -0.1094
  868MOL0     C19680   4.179   3.164  13.215 -0.4157 -1.2641 -0.4618
  868MOL0     C19681   4.053   3.106  13.239  0.6117 -0.3204  0.9514
  868MOL0     O19682   3.937   3.170  13.284  1.1718  0.6210 -0.1314
  868MOL0     C19683   3.960   3.307  13.347  0.3405  0.0083  0.8774
  868MOL0     C19684   3.828   3.380  13.377 -0.1310 -0.6329 -0.6682
  868MOL0     C19685   3.738   3.301  13.479  0.2990 -0.7530  0.6904
  868MOL0     C19686   3.621   3.248  13.406 -0.7290 -0.0892 -0.1881
  868MOL0     C19687   3.505   3.192  13.479 -1.0381  0.0307  0.0661
  868MOL0     C19688   3.438   3.297  13.571  0.4159 -0.1206 -0.3896
  868MOL0     C19689   3.297   3.243  13.602  1.0402 -0.1258  0.6456
  868MOL0     C19690   3.294   3.098  13.673  0.4047  0.3226 -0.4965
  868MOL0    Cl19691   3.385   3.106  13.832  0.7089  0.5064 -0.4608
  868MOL0     C19692   4.037   2.977  13.204  0.8991 -0.2878 -0.1366
  868MOL0     C19693   4.146   2.904  13.152  0.9386 -0.5203 -0.4011
  868MOL0     O19694   4.329   2.689  13.132  0.0818  0.2804 -0.3650
  868MOL0     C19695   4.598   2.814  12.934 -0.2753  0.5866 -0.1879
  868MOL0     C19696   4.729   2.774  12.890  0.4620  0.4720 -1.4959
  868MOL0     N19697   5.439   2.466  12.655 -0.4713  0.1627  0.5020
  868MOL0     N19698   5.495   2.453  12.542 -0.1573 -0.0461  0.0255
  868MOL0     C19699   4.678   2.727  11.713  0.0628 -0.7098  0.6731
  868MOL0     C19700   4.604   2.687  11.610  0.0533  0.3883  0.0163
  868MOL0     C19701   4.347   2.768  11.245  0.2925 -0.4227 -0.2615
  868MOL0     C19702   4.430   2.742  11.132 -0.0539 -0.1544  0.2405
  868MOL0     C19703   4.377   2.758  10.999 -0.3238 -0.5556 -0.9704
  868MOL0     C19704   4.245   2.796  10.978 -0.8673  0.2048  0.0166
  868MOL0     O19705   4.194   2.788  10.847  0.5952 -0.1622  0.2863
  868MOL0     C19706   4.059   2.828  10.823 -0.2781  0.1005  0.4331
  868MOL0     C19707   4.018   2.878  10.677 -0.6540  0.1311  0.2841
  868MOL0     C19708   4.041   3.028  10.647  0.8648 -0.4807  0.2171
  868MOL0     C19709   4.180   3.086  10.641  0.1666 -0.5094 -0.7417
  868MOL0     C19710   4.239   3.134  10.764 -0.6484  0.5380  0.2034
  868MOL0     C19711   4.286   3.148  10.879  0.2722  0.7234  0.4988
  868MOL0     C19712   4.165   2.803  11.094  0.3962  0.3610 -0.3600
  868MOL0     C19713   4.218   2.800  11.226 -0.2851 -0.2941 -0.3677
  868MOL0     C19714   4.119   2.807  11.336  0.6053  0.0042  0.1963
  868MOL0     H19715   4.762   2.859  11.363 -1.9948  2.0018  0.4125
  868MOL0     H19716   4.881   2.950  11.564 -2.0244  0.9338 -0.9838
  868MOL0     H19717   4.944   3.042  11.822  1.3799 -0.4389 -0.3625
  868MOL0     H19718   5.020   2.889  11.769 -0.3015 -0.3819  0.6054
  868MOL0     H19719   5.070   3.034  11.986 -0.8143  0.6094 -0.8044
  868MOL0     H19720   4.937   2.946  12.061  0.4903 -1.6311  0.4685
  868MOL0     H19721   5.062   2.735  11.990 -0.8877  0.4547 -3.8043
  868MOL0     H19722   5.170   2.841  11.903 -3.1293 -1.5779 -2.3009
  868MOL0     H19723   5.220   2.963  12.128 -1.8584  0.7619  0.0411
  868MOL0     H19724   5.128   2.849  12.210 -1.7737  3.4676  0.4390
  868MOL0     H19725   5.373   2.774  12.050 -0.6668 -1.8824 -2.2617
  868MOL0     H19726   5.263   2.655  12.112  1.6717 -0.3458 -2.9082
  868MOL0     H19727   5.398   2.871  12.283  0.3175  0.2123 -2.1698
  868MOL0     H19728   5.291   2.743  12.334 -0.6780  0.8402 -1.4334
  868MOL0     H19729   5.558   2.713  12.344  0.5205 -0.7378 -0.3508
  868MOL0     H19730   5.531   2.678  12.184  1.7770  0.3381  1.2635
  868MOL0     H19731   5.378   2.486  12.235 -0.1201 -2.2352  0.1250
  868MOL0     H19732   5.542   2.470  12.277  0.0568  0.2198  0.6618
  868MOL0     H19733   5.201   2.574  12.480 -0.0954 -0.3621  2.6603
  868MOL0     H19734   5.169   2.582  12.790  0.5690  0.7326 -0.2681
  868MOL0     H19735   5.237   2.433  12.835 -0.1696 -0.3076  0.6012
  868MOL0     H19736   5.115   2.355  12.598  3.0406  4.8878 -2.4287
  868MOL0     H19737   5.052   2.337  12.766  1.7733 -1.5011  0.7546
  868MOL0     H19738   5.000   2.520  12.521  0.7815  1.5116  0.2086
  868MOL0     H19739   4.880   2.426  12.606 -0.8826  0.9165  2.0225
  868MOL0     H19740   5.011   2.693  12.710  1.4761 -1.3991  1.7656
  868MOL0     H19741   4.846   2.681  12.646  1.7191  3.2249  0.8732
  868MOL0     H19742   4.671   2.437  12.888 -2.0725  0.5764 -3.6311
  868MOL0     H19743   4.455   2.448  13.098 -0.1763  3.6066  1.1971
  868MOL0     H19744   4.441   2.381  12.926  5.1634 -1.8221  1.8497
  868MOL0     H19745   4.337   2.511  12.975  1.5735  2.0900 -2.8677
  868MOL0     H19746   4.366   3.166  13.136 -0.0925  1.3020  4.0508
  868MOL0     H19747   4.203   3.270  13.221 -1.2785 -0.9762 -1.7538
  868MOL0     H19748   4.018   3.296  13.439  0.3220 -0.2904  0.8549
  868MOL0     H19749   4.002   3.379  13.276 -2.7180  3.8085  2.5905
  868MOL0     H19750   3.857   3.480  13.411 -0.4705 -0.4701 -0.8493
  868MOL0     H19751   3.777   3.394  13.281  2.0336 -0.5552 -1.8658
  868MOL0     H19752   3.712   3.366  13.563 -0.5863 -2.4897  1.8212
  868MOL0     H19753   3.791   3.220  13.528 -1.1400 -1.8232  0.5504
  868MOL0     H19754   3.638   3.178  13.324 -0.9021 -0.8026  0.3781
  868MOL0     H19755   3.583   3.337  13.355  2.4391  0.8658 -1.0949
  868MOL0     H19756   3.433   3.159  13.404  1.9594  0.3125 -3.2001
  868MOL0     H19757   3.544   3.108  13.538  0.0042  0.5411  0.1333
  868MOL0     H19758   3.430   3.397  13.527  3.6291  0.9135  1.0523
  868MOL0     H19759   3.497   3.313  13.662 -1.0664 -0.5206  0.6777
  868MOL0     H19760   3.239   3.248  13.509 -0.2206 -2.0189  1.2640
  868MOL0     H19761   3.247   3.309  13.673  0.4370  0.3298 -0.1852
  868MOL0     H19762   3.337   3.020  13.609 -1.2989  0.1135 -1.4493
  868MOL0     H19763   3.193   3.058  13.685  0.3215 -0.7122 -3.6029
  868MOL0     H19764   3.939   2.929  13.206  0.3899  0.7116 -0.1127
  868MOL0     H19765   4.122   2.799  13.140 -0.3725 -0.0317 -2.5478
  868MOL0     H19766   4.587   2.920  12.954  2.1738  1.2945 -2.0792
  868MOL0     H19767   4.808   2.839  12.855  1.1235  0.4754 -0.0831
  868MOL0     H19768   4.650   2.684  11.809  0.4546 -1.3375  0.5171
  868MOL0     H19769   4.519   2.620  11.622 -0.0956  0.9610  2.9652
  868MOL0     H19770   4.534   2.711  11.132 -0.4030 -1.4489 -1.3683
  868MOL0     H19771   4.421   2.749  10.900  1.1299  2.3467 -0.7071
  868MOL0     H19772   3.997   2.741  10.847 -1.8504  1.2319  0.6355
  868MOL0     H19773   4.015   2.902  10.891 -0.2699  0.6344 -0.1352
  868MOL0     H19774   3.913   2.851  10.666 -0.7012 -1.4110  3.2754
  868MOL0     H19775   4.068   2.821  10.599 -0.1204 -0.6858  1.1964
  868MOL0     H19776   3.988   3.047  10.553  0.7516 -3.7286 -0.4997
  868MOL0     H19777   3.982   3.074  10.727  0.7919  0.6795 -0.4811
  868MOL0     H19778   4.180   3.168  10.568  2.0652 -0.4714 -0.7311
  868MOL0     H19779   4.243   3.011  10.593  1.9675  1.5856 -1.8634
  868MOL0     H19780   4.337   3.163  10.972 -3.4414 -1.1073  3.0673
  868MOL0     H19781   4.059   2.824  11.085  0.0022 -1.4622 -0.3708
  868MOL0     H19782   4.025   2.844  11.294  1.4425  1.4354 -0.5228
  868MOL0     H19783   4.103   2.708  11.380  2.9410 -0.5977 -0.1599
  868MOL0     H19784   4.126   2.873  11.423  1.8812 -0.8101  0.7458
  869MOL0     O19785   6.815   6.614   1.370 -0.6255  0.5635  0.0293
  869MOL0     C19786   6.760   6.716   1.330  0.2458 -0.0450  0.3105
  869MOL0     O19787   6.699   6.804   1.425  0.3541  0.8105 -0.3204
  869MOL0     C19788   6.733   6.789   1.553  0.4094  0.5743  1.0741
  869MOL0     C19789   6.709   6.682   1.631 -0.3442  0.9643 -0.8647
  869MOL0     C19790   6.748   6.677   1.766  0.2932 -0.4601  0.4041
  869MOL0     C19791   6.819   6.784   1.819  0.6378 -0.9734 -0.9928
  869MOL0     O19792   6.866   6.792   1.950 -0.2575  0.1965 -0.1952
  869MOL0     C19793   6.835   6.684   2.047  0.9951 -0.3862 -0.2816
  869MOL0     C19794   6.905   6.724   2.178  0.9687 -0.4006  0.7245
  869MOL0     C19795   6.865   6.644   2.302 -0.3650  0.1273 -0.0060
  869MOL0     C19796   6.953   6.675   2.423 -0.5189  0.3455 -0.1457
  869MOL0     C19797   7.100   6.617   2.420 -0.5049  1.0090 -0.6669
  869MOL0     C19798   7.161   6.621   2.561 -0.1525 -0.3285  0.3523
  869MOL0     C19799   7.240   6.753   2.590 -0.2822 -0.1404  0.5782
  869MOL0     C19800   7.162   6.889   2.622 -0.2974  0.0138  0.3267
  869MOL0     N19801   7.088   6.859   2.748  0.4716  0.3533  1.5780
  869MOL0     C19802   6.959   6.876   2.765 -0.2500 -0.2252 -1.4885
  869MOL0     C19803   6.945   6.871   2.902  0.2543  0.6953 -0.7955
  869MOL0     C19804   6.814   6.889   2.976 -0.4834  0.4769 -0.9363
  869MOL0     C19805   6.734   6.757   2.968 -0.8111  0.1610 -0.2707
  869MOL0     C19806   6.785   6.647   3.060  0.4234  0.3833 -0.1028
  869MOL0     C19807   6.753   6.663   3.213 -0.0579 -0.2362  0.1173
  869MOL0     O19808   6.838   6.590   3.295 -0.1481  0.0822  0.3640
  869MOL0     C19809   6.926   6.654   3.381  0.3098 -0.0490  0.4932
  869MOL0     C19810   6.961   6.596   3.504 -0.6568  0.8414  1.1912
  869MOL0     C19811   7.040   6.659   3.595 -1.1427  0.2474 -0.6355
  869MOL0     C19812   7.042   6.597   3.734 -0.6466 -0.4803  0.6290
  869MOL0     C19813   7.109   6.779   3.571  0.3883 -0.8718  0.8070
  869MOL0     C19814   7.203   6.852   3.663  0.4300  0.0360 -0.3753
  869MOL0     O19815   7.296   6.930   3.604 -0.0592 -0.4720  0.4663
  869MOL0     C19816   7.369   7.017   3.675  0.8052  0.8498 -0.2590
  869MOL0     C19817   7.383   7.152   3.640 -0.4433  0.1420 -0.4928
  869MOL0     C19818   7.485   7.232   3.696  0.9268 -0.0641 -0.4673
  869MOL0     C19819   7.580   7.179   3.779 -0.4443 -0.2692 -1.2086
  869MOL0     O19820   7.681   7.251   3.829 -0.2393  0.1350 -0.6839
  869MOL0     C19821   7.752   7.345   3.746  0.0544  1.1249  0.1428
  869MOL0     C19822   7.862   7.267   3.668  0.5760 -0.1203 -0.2895
  869MOL0     C19823   7.940   7.191   3.756  0.0809  0.4595  1.5354
  869MOL0     C19824   8.063   7.116   3.695 -1.2424  0.3591  0.0061
  869MOL0     C19825   8.139   7.047   3.804 -0.3502  0.6852 -0.0232
  869MOL0     C19826   8.273   7.002   3.749  0.6880  0.3881 -0.5565
  869MOL0     C19827   8.287   6.898   3.643  0.4708  0.1255  0.8505
  869MOL0     C19828   8.358   6.953   3.512  0.0146  0.1153 -0.1848
  869MOL0    Cl19829   8.330   6.819   3.395  0.2277 -0.1654 -0.4086
  869MOL0     C19830   7.560   7.046   3.819  1.2687  0.0932 -0.3369
  869MOL0     C19831   7.454   6.961   3.772  0.4019  0.6634 -0.7697
  869MOL0     O19832   7.188   6.843   3.788  0.3631 -0.3435 -0.0229
  869MOL0     C19833   7.088   6.835   3.443 -0.2425 -0.1107  0.7153
  869MOL0     C19834   6.991   6.773   3.355  0.0143 -0.1829  0.4875
  869MOL0     N19835   7.065   6.839   2.964  0.6366  0.0806 -0.0074
  869MOL0     N19836   7.149   6.830   2.866  0.2652 -0.4576  1.0650
  869MOL0     C19837   6.841   6.899   1.741  0.2443 -0.4440 -0.1418
  869MOL0     C19838   6.801   6.896   1.607  0.5529  0.3956 -0.3681
  869MOL0     C19839   6.735   6.725   1.194 -0.6084 -0.5816 -0.0884
  869MOL0     C19840   6.600   6.757   1.169 -0.7423 -0.5927  1.1619
  869MOL0     C19841   6.551   6.765   1.030 -0.7172  1.2206 -0.5769
  869MOL0     C19842   6.635   6.722   0.929  0.5498  0.2735  0.0307
  869MOL0     O19843   6.589   6.716   0.800 -0.2696  0.6862 -0.2823
  869MOL0     C19844   6.454   6.750   0.746 -1.0252 -0.2791 -0.1399
  869MOL0     C19845   6.438   6.647   0.637 -0.1310 -0.2235  0.8790
  869MOL0     C19846   6.524   6.694   0.519 -0.9421  0.8672 -0.2480
  869MOL0     C19847   6.523   6.585   0.411  0.4682 -0.0891  0.0311
  869MOL0     C19848   6.387   6.552   0.364  0.1552 -0.5113 -0.2893
  869MOL0     C19849   6.285   6.506   0.326  0.2005 -0.3903 -0.5356
  869MOL0     C19850   6.772   6.694   0.953 -0.5463 -0.0375 -0.3173
  869MOL0     C19851   6.818   6.696   1.084 -0.0249  0.4944 -0.2356
  869MOL0     C19852   6.969   6.660   1.119  1.0338 -0.6502  0.0222
  869MOL0     H19853   6.663   6.600   1.577 -1.3826  0.6087  0.4904
  869MOL0     H19854   6.730   6.577   1.806 -1.0226  0.3059  1.8495
  869MOL0     H19855   6.866   6.581   2.027 -0.0591 -0.8272  0.2225
  869MOL0     H19856   6.726   6.681   2.055  0.7978  1.9324 -1.3057
  869MOL0     H19857   7.014   6.723   2.166  1.2816  2.4931  2.2990
  869MOL0     H19858   6.875   6.828   2.191 -1.5434 -0.1029 -4.7225
  869MOL0     H19859   6.759   6.660   2.325 -0.3639 -2.2455  2.1059
  869MOL0     H19860   6.868   6.540   2.270 -0.4738  0.5456 -1.4282
  869MOL0     H19861   6.959   6.783   2.437  1.1160 -0.0081  2.6497
  869MOL0     H19862   6.898   6.627   2.505  1.4617 -1.7916  0.0150
  869MOL0     H19863   7.163   6.665   2.344  0.4746 -0.6045 -0.9305
  869MOL0     H19864   7.085   6.511   2.400  1.2045  0.9628 -1.9890
  869MOL0     H19865   7.079   6.608   2.632 -1.3485  1.7001 -0.5613
  869MOL0     H19866   7.232   6.539   2.573  0.0027 -0.1295  0.7899
  869MOL0     H19867   7.309   6.773   2.507  1.0376 -1.2580  1.3729
  869MOL0     H19868   7.317   6.731   2.665  1.9648 -0.9830 -1.8000
  869MOL0     H19869   7.248   6.954   2.640  1.0735 -2.3156  2.9964
  869MOL0     H19870   7.102   6.931   2.541  0.4111  1.7228  0.6595
  869MOL0     H19871   6.878   6.905   2.698 -2.1236 -3.2711 -0.7506
  869MOL0     H19872   6.751   6.966   2.932 -1.2638  2.3586  3.0955
  869MOL0     H19873   6.845   6.917   3.077 -1.1624 -0.8996 -0.3177
  869MOL0     H19874   6.627   6.766   2.986 -1.1829 -3.5155  0.0971
  869MOL0     H19875   6.739   6.733   2.861 -0.1570  0.3482 -0.2874
  869MOL0     H19876   6.739   6.552   3.030  0.6612  0.2383 -0.0094
  869MOL0     H19877   6.893   6.640   3.050  0.3471  0.4021 -1.0187
  869MOL0     H19878   6.760   6.771   3.233 -2.6435  0.4422 -1.9825
  869MOL0     H19879   6.645   6.650   3.230 -0.6725  1.6829 -1.8001
  869MOL0     H19880   6.913   6.508   3.545 -3.6523  2.4934  1.5271
  869MOL0     H19881   6.997   6.497   3.736 -2.9354  0.4579 -0.2263
  869MOL0     H19882   6.975   6.652   3.801  2.2514  2.6013  1.2578
  869MOL0     H19883   7.144   6.588   3.773  1.0539  2.5157 -2.5881
  869MOL0     H19884   7.322   7.196   3.562  2.0981  2.1532 -1.4769
  869MOL0     H19885   7.494   7.336   3.666  0.0659 -0.1825 -1.1939
  869MOL0     H19886   7.687   7.414   3.692 -2.9920 -2.2839 -0.9561
  869MOL0     H19887   7.801   7.417   3.812 -1.0004  2.3257 -0.3412
  869MOL0     H19888   7.811   7.209   3.591 -1.9428  1.8245 -0.2150
  869MOL0     H19889   7.919   7.336   3.606 -1.2293  0.6696 -1.1558
  869MOL0     H19890   7.889   7.120   3.821  0.0655  1.3976  2.5736
  869MOL0     H19891   7.975   7.261   3.833 -3.8433  1.9764  2.1533
  869MOL0     H19892   8.127   7.189   3.645 -1.0514  1.7534  2.1412
  869MOL0     H19893   8.022   7.045   3.623  0.3965 -1.8506  1.1079
  869MOL0     H19894   8.163   7.120   3.882  2.3907 -0.7767  0.6398
  869MOL0     H19895   8.078   6.967   3.848  1.5140 -0.1064  1.2424
  869MOL0     H19896   8.329   6.966   3.836 -0.1802 -2.4221 -1.0530
  869MOL0     H19897   8.321   7.095   3.717  1.0687  0.2581 -0.3753
  869MOL0     H19898   8.186   6.867   3.614 -0.3243 -0.2494  3.7431
  869MOL0     H19899   8.333   6.814   3.695 -1.8246 -1.2040  0.8990
  869MOL0     H19900   8.463   6.976   3.528 -0.1631  2.1662 -1.6171
  869MOL0     H19901   8.307   7.046   3.485 -0.1190  1.3948  3.7498
  869MOL0     H19902   7.628   7.007   3.894 -0.9353  0.4097  1.9703
  869MOL0     H19903   7.453   6.863   3.818  1.3740  1.9961  2.4219
  869MOL0     H19904   7.132   6.934   3.434 -1.2832  0.3207  0.2614
  869MOL0     H19905   7.001   6.817   3.256 -0.2947 -1.7277 -0.2517
  869MOL0     H19906   6.908   6.978   1.775  2.1282 -0.2060 -3.8793
  869MOL0     H19907   6.835   6.964   1.530  0.5727 -0.5676 -1.2301
  869MOL0     H19908   6.536   6.761   1.257 -1.2259 -2.3519  0.9091
  869MOL0     H19909   6.443   6.781   1.026 -0.6878  1.5026 -0.2960
  869MOL0     H19910   6.389   6.725   0.830 -0.6003 -0.5952  0.1019
  869MOL0     H19911   6.444   6.857   0.726 -0.3369  0.7222  3.9978
  869MOL0     H19912   6.332   6.640   0.614 -0.3614 -0.4796  1.9410
  869MOL0     H19913   6.478   6.557   0.685  0.4461 -0.0802  0.6796
  869MOL0     H19914   6.474   6.786   0.486 -4.6994  0.1087  2.7057
  869MOL0     H19915   6.626   6.721   0.548 -0.0506 -1.7997 -0.6337
  869MOL0     H19916   6.568   6.493   0.451 -0.2914  0.1784  1.5874
  869MOL0     H19917   6.582   6.623   0.327  0.5105 -0.8002 -0.2631
  869MOL0     H19918   6.195   6.463   0.285  1.5403 -1.0750 -2.9449
  869MOL0     H19919   6.823   6.665   0.861  0.2393 -1.0798  0.4300
  869MOL0     H19920   6.994   6.564   1.165  4.8440  1.0887  2.1141
  869MOL0     H19921   7.038   6.670   1.035  0.5571 -1.0320 -0.4180
  869MOL0     H19922   7.002   6.733   1.194 -0.8605 -0.4249  0.6906
  870MOL0     O19923   1.612   5.951  10.385 -0.2639 -0.1000 -0.0561
  870MOL0     C19924   1.702   6.010  10.449  1.1828  0.1177  0.3354
  870MOL0     O19925   1.831   5.958  10.475  0.3511 -0.3737  0.0894
  870MOL0     C19926   1.895   5.866  10.396 -0.2332 -0.6862 -0.3870
  870MOL0     C19927   1.986   5.782  10.470 -0.6838 -0.3656  0.0691
  870MOL0     C19928   2.061   5.682  10.402 -0.0236 -0.7674 -0.5011
  870MOL0     C19929   2.036   5.659  10.265  0.1333  0.9186  0.4525
  870MOL0     O19930   2.104   5.567  10.193 -0.3066 -0.3248  0.2521
  870MOL0     C19931   2.138   5.446  10.250 -0.1426 -0.5502  0.5972
  870MOL0     C19932   2.279   5.444  10.317  0.4322  0.0824  0.1151
  870MOL0     C19933   2.377   5.481  10.196  0.4403  0.8363 -0.6902
  870MOL0     C19934   2.516   5.462  10.231 -0.0478  0.2196 -0.0375
  870MOL0     C19935   2.558   5.575  10.333  0.2727 -0.9735  0.9645
  870MOL0     C19936   2.705   5.555  10.378 -0.6385 -0.0614 -0.1956
  870MOL0     C19937   2.769   5.678  10.441  0.0391  0.0064 -0.7849
  870MOL0     C19938   2.755   5.683  10.594  0.1152  0.1870 -0.8410
  870MOL0     N19939   2.854   5.618  10.665 -0.6122  0.4223  0.2344
  870MOL0     C19940   2.987   5.654  10.679 -0.1359  0.1114 -0.6376
  870MOL0     C19941   3.047   5.544  10.736 -0.0294  0.2219 -0.3021
  870MOL0     C19942   3.195   5.522  10.762  0.4667  0.8557 -0.8752
  870MOL0     C19943   3.231   5.537  10.913  0.3874  0.0680  0.3925
  870MOL0     C19944   3.338   5.435  10.948 -0.4800  0.9303  0.3218
  870MOL0     C19945   3.469   5.433  10.872 -0.2676  0.1649 -0.0664
  870MOL0     O19946   3.529   5.554  10.892 -0.2137  0.3042 -0.5327
  870MOL0     C19947   3.566   5.619  10.781  0.0176 -0.2954 -0.6644
  870MOL0     C19948   3.556   5.760  10.776 -0.0140 -0.4045  0.6427
  870MOL0     C19949   3.624   5.837  10.671 -0.4114  0.4168 -0.7768
  870MOL0     C19950   3.641   5.991  10.687  0.1420  0.1787 -0.6474
  870MOL0     C19951   3.676   5.768  10.564  0.7262 -0.3314 -0.6401
  870MOL0     C19952   3.716   5.839  10.444  0.1868 -0.9001 -0.5937
  870MOL0     O19953   3.624   5.907  10.367  0.5234  0.9223  0.1337
  870MOL0     C19954   3.666   5.951  10.239  0.0826  0.1430  0.5023
  870MOL0     C19955   3.628   6.091  10.212  0.8736  0.9328  0.4710
  870MOL0     C19956   3.672   6.138  10.088  0.0428 -0.4189  0.3121
  870MOL0     C19957   3.739   6.058   9.991  0.2236 -0.2543 -0.6579
  870MOL0     O19958   3.787   6.124   9.881 -0.6706  0.5898 -0.7217
  870MOL0     C19959   3.708   6.081   9.764 -0.8831 -0.2661  0.6067
  870MOL0     C19960   3.577   6.141   9.758 -0.4130 -0.2342 -0.7002
  870MOL0     C19961   3.460   6.052   9.782 -0.2666 -0.0328 -0.4538
  870MOL0     C19962   3.339   6.136   9.824 -0.0642  0.3185 -0.0799
  870MOL0     C19963   3.224   6.042   9.860  0.3516  0.0648 -0.3651
  870MOL0     C19964   3.224   5.997  10.006  0.1609 -0.4384  0.1578
  870MOL0     C19965   3.179   6.113  10.100  0.5748 -0.0348  0.5382
  870MOL0     C19966   3.195   6.083  10.246 -0.1206 -0.0290 -0.6009
  870MOL0    Cl19967   3.063   5.985  10.318 -0.0858 -0.0409 -0.5008
  870MOL0     C19968   3.772   5.928  10.015 -0.3345 -0.0226 -0.5796
  870MOL0     C19969   3.740   5.877  10.144 -0.1301  0.6438 -0.4557
  870MOL0     O19970   3.831   5.825  10.420 -0.5453  0.6785 -0.0689
  870MOL0     C19971   3.688   5.631  10.573  0.3153 -0.0277 -0.1901
  870MOL0     C19972   3.632   5.558  10.676 -0.0436  0.1099  0.0127
  870MOL0     N19973   2.952   5.447  10.746 -0.0530  0.1469 -0.8085
  870MOL0     N19974   2.837   5.491  10.700 -0.3379  0.4881  0.6382
  870MOL0     C19975   1.944   5.748  10.199 -0.5358 -0.4815  0.3230
  870MOL0     C19976   1.871   5.847  10.262  1.0407  0.2715 -0.8848
  870MOL0     C19977   1.680   6.147  10.501  0.5098  0.5165  0.2797
  870MOL0     C19978   1.705   6.170  10.642 -0.1347 -0.0143  0.2674
  870MOL0     C19979   1.679   6.298  10.694 -0.0966 -0.0639 -0.2354
  870MOL0     C19980   1.626   6.394  10.621 -0.4433  0.6399  0.2318
  870MOL0     O19981   1.608   6.527  10.661 -0.7959  0.4982  0.3700
  870MOL0     C19982   1.652   6.561  10.787  0.2965 -0.0628 -0.4836
  870MOL0     C19983   1.557   6.541  10.908 -0.4451  0.2412  0.6852
  870MOL0     C19984   1.630   6.585  11.039 -0.3862  0.9373  0.0329
  870MOL0     C19985   1.711   6.460  11.087  0.3909 -0.4527  0.0442
  870MOL0     C19986   1.614   6.364  11.141 -0.4264 -0.0069 -0.1943
  870MOL0     C19987   1.520   6.297  11.189 -0.6551 -0.2004  0.2958
  870MOL0     C19988   1.588   6.366  10.486  0.6280  0.0119 -0.1936
  870MOL0     C19989   1.619   6.250  10.424  1.2845  0.5229  0.5040
  870MOL0     C19990   1.600   6.231  10.268 -1.2541  0.3155 -0.0451
  870MOL0     H19991   2.003   5.797  10.576  0.4233  1.8092 -0.3515
  870MOL0     H19992   2.137   5.626  10.455 -0.0132  1.5879  2.1720
  870MOL0     H19993   2.142   5.362  10.180  1.0485  0.5986 -0.7723
  870MOL0     H19994   2.077   5.418  10.336  2.0388 -2.3583  1.6529
  870MOL0     H19995   2.294   5.512  10.401 -1.1201  0.6136 -0.0155
  870MOL0     H19996   2.290   5.342  10.356 -0.5115  0.0174  0.2203
  870MOL0     H19997   2.358   5.412  10.114  2.9476 -1.3028  0.3894
  870MOL0     H19998   2.365   5.587  10.171  1.0160  1.4887  1.5795
  870MOL0     H19999   2.516   5.366  10.283  0.0859  0.9500  1.3746
  870MOL0     H20000   2.578   5.458  10.141  3.3453  0.7353  2.1009
  870MOL0     H20001   2.497   5.577  10.423 -1.2276  0.5623 -0.0274
  870MOL0     H20002   2.548   5.670  10.280 -2.4867 -1.2870  0.8034
  870MOL0     H20003   2.712   5.466  10.441  0.2055 -1.6404 -2.3914
  870MOL0     H20004   2.765   5.541  10.287  2.9755  0.7986  1.8681
  870MOL0     H20005   2.746   5.772  10.390  1.8296  1.0733  0.2652
  870MOL0     H20006   2.877   5.677  10.424 -0.1591  2.5601 -2.8759
  870MOL0     H20007   2.761   5.790  10.618  3.3559  0.2690 -1.4857
  870MOL0     H20008   2.655   5.655  10.628 -0.4375  2.4111 -0.5116
  870MOL0     H20009   3.042   5.744  10.653 -1.3462  2.0876  2.8785
  870MOL0     H20010   3.261   5.590  10.708  0.7693 -0.2539 -1.9355
  870MOL0     H20011   3.205   5.420  10.724 -0.7755  0.5943 -0.5435
  870MOL0     H20012   3.257   5.641  10.930 -1.6821  0.8791 -0.9941
  870MOL0     H20013   3.143   5.529  10.977  0.8919  3.2701  1.6247
  870MOL0     H20014   3.355   5.452  11.055  0.9062  0.3825  0.2029
  870MOL0     H20015   3.301   5.334  10.930  0.9451  0.2032  1.3068
  870MOL0     H20016   3.537   5.352  10.900 -1.1007 -0.4597  0.1836
  870MOL0     H20017   3.435   5.412  10.770 -0.8714 -0.0496  0.1730
  870MOL0     H20018   3.509   5.818  10.855 -0.7436  2.5603 -1.7878
  870MOL0     H20019   3.639   6.020  10.793  1.0070 -0.4723 -0.4373
  870MOL0     H20020   3.563   6.044  10.632  0.7659  2.5251  0.6021
  870MOL0     H20021   3.742   6.009  10.651  0.7299  0.6396  1.1110
  870MOL0     H20022   3.588   6.144  10.298 -2.2597 -3.5844  2.2008
  870MOL0     H20023   3.656   6.242  10.064 -2.3173 -0.4919  1.2250
  870MOL0     H20024   3.763   6.128   9.681 -1.5603  0.4516  0.5587
  870MOL0     H20025   3.703   5.973   9.749  1.9651 -0.3842 -0.1230
  870MOL0     H20026   3.583   6.215   9.839  3.0525  1.3041 -2.1583
  870MOL0     H20027   3.561   6.186   9.660  2.2772  2.4445 -0.0684
  870MOL0     H20028   3.494   5.984   9.861  2.0947  0.9152 -0.5681
  870MOL0     H20029   3.445   5.995   9.690  0.3882  0.9209 -1.1689
  870MOL0     H20030   3.312   6.200   9.739  0.6704 -3.3369 -3.3572
  870MOL0     H20031   3.358   6.201   9.910  0.9230  2.2654 -1.6940
  870MOL0     H20032   3.130   6.094   9.838 -1.1117 -2.6350 -0.9369
  870MOL0     H20033   3.225   5.955   9.794 -1.2035 -3.3501  3.6540
  870MOL0     H20034   3.322   5.955  10.031  0.9038  0.4993 -1.0347
  870MOL0     H20035   3.161   5.912  10.031  0.4312 -0.4419  0.8468
  870MOL0     H20036   3.072   6.126  10.080  0.4125 -0.5029  1.0546
  870MOL0     H20037   3.235   6.205  10.081 -1.3258  1.2900  1.0008
  870MOL0     H20038   3.184   6.170  10.311 -0.7432 -0.4876 -0.0779
  870MOL0     H20039   3.295   6.041  10.264  1.0766  3.3028  1.6101
  870MOL0     H20040   3.835   5.881   9.941 -0.7588 -3.0618  0.8348
  870MOL0     H20041   3.786   5.782  10.172  0.9666  0.9464 -1.1798
  870MOL0     H20042   3.749   5.575  10.503  0.6851 -0.1684  0.2412
  870MOL0     H20043   3.634   5.450  10.678 -1.6264  0.0558  1.8109
  870MOL0     H20044   1.950   5.753  10.091 -0.6967 -0.0779  0.3302
  870MOL0     H20045   1.800   5.908  10.208 -0.5036  0.5373  1.3275
  870MOL0     H20046   1.762   6.106  10.708  1.9060  0.6891 -0.7172
  870MOL0     H20047   1.691   6.302  10.802 -2.6490 -3.4766  0.3620
  870MOL0     H20048   1.745   6.506  10.803 -0.8819 -1.5711  1.6487
  870MOL0     H20049   1.676   6.668  10.791 -3.6470  1.0397 -1.5876
  870MOL0     H20050   1.514   6.441  10.894  0.6649  0.0226 -1.4742
  870MOL0     H20051   1.475   6.613  10.906 -0.7859 -0.1505 -0.6891
  870MOL0     H20052   1.704   6.666  11.032  0.1761  0.4682  0.4080
  870MOL0     H20053   1.546   6.604  11.107 -1.5731 -0.6333 -0.9320
  870MOL0     H20054   1.768   6.499  11.172 -0.5907  2.0307 -0.3477
  870MOL0     H20055   1.777   6.418  11.010  1.6296 -0.2169  0.9348
  870MOL0     H20056   1.435   6.247  11.231 -1.7613  2.2860  1.1861
  870MOL0     H20057   1.546   6.454  10.438  0.8661  0.6748  0.8023
  870MOL0     H20058   1.632   6.325  10.222 -1.5675 -0.6996 -2.4662
  870MOL0     H20059   1.671   6.153  10.240 -0.7159 -0.6480  3.5277
  870MOL0     H20060   1.496   6.206  10.250 -1.7144  0.9751  1.4718
  871MOL0     O20061   4.518   5.891   6.803 -0.2312  0.1927 -0.2573
  871MOL0     C20062   4.465   5.780   6.803  0.0998 -0.4799 -0.0737
  871MOL0     O20063   4.527   5.665   6.825 -0.2348  0.3810  0.0886
  871MOL0     C20064   4.668   5.653   6.847  0.8782  0.2691  0.3197
  871MOL0     C20065   4.712   5.581   6.954 -0.6939  0.2293  1.2350
  871MOL0     C20066   4.847   5.573   6.981  0.0255 -0.3170 -0.1809
  871MOL0     C20067   4.943   5.630   6.906 -0.7173 -0.6638 -0.2098
  871MOL0     O20068   5.077   5.612   6.953 -0.1938 -0.7997 -0.3407
  871MOL0     C20069   5.164   5.713   6.908 -0.1310  0.2572 -0.2325
  871MOL0     C20070   5.287   5.654   6.835  0.2247  0.6026  0.2266
  871MOL0     C20071   5.245   5.597   6.701  0.8491  0.6272 -0.7569
  871MOL0     C20072   5.365   5.558   6.611 -0.7932 -0.1369  1.0490
  871MOL0     C20073   5.477   5.467   6.670  0.5628  0.3442 -0.3003
  871MOL0     C20074   5.586   5.423   6.563  1.0844 -0.9260  0.3631
  871MOL0     C20075   5.694   5.330   6.608 -0.4484  0.2293 -0.5930
  871MOL0     C20076   5.795   5.386   6.715 -0.6739  0.0051  0.3164
  871MOL0     N20077   5.908   5.298   6.741 -0.3407  0.8550  0.0083
  871MOL0     C20078   5.995   5.257   6.649 -0.3978  0.4089 -0.6128
  871MOL0     C20079   6.083   5.172   6.717 -0.6337 -0.1552  0.6116
  871MOL0     C20080   6.206   5.113   6.643  0.3102 -0.2275 -0.3031
  871MOL0     C20081   6.318   5.219   6.612 -0.4111 -0.6445 -0.0775
  871MOL0     C20082   6.373   5.276   6.743  0.5022  0.6582  0.2165
  871MOL0     C20083   6.472   5.381   6.718 -0.3522  0.2615  0.7483
  871MOL0     O20084   6.413   5.484   6.629 -0.3565  0.4264 -0.2618
  871MOL0     C20085   6.474   5.604   6.616 -1.0746  0.5384  0.0020
  871MOL0     C20086   6.421   5.718   6.677  0.5993  0.1820  0.8361
  871MOL0     C20087   6.489   5.842   6.690  0.8430  0.3426 -0.3555
  871MOL0     C20088   6.412   5.954   6.764  0.4844  0.1958 -0.2787
  871MOL0     C20089   6.626   5.849   6.647  0.7636  0.5096 -0.3906
  871MOL0     C20090   6.710   5.969   6.643 -0.1387  0.9436 -0.3531
  871MOL0     O20091   6.841   5.951   6.674 -0.2664 -0.0352 -0.2468
  871MOL0     C20092   6.927   6.050   6.635 -0.5957 -0.6816 -0.5488
  871MOL0     C20093   6.990   6.038   6.515 -0.3004 -0.2998  0.8760
  871MOL0     C20094   7.074   6.140   6.471 -0.6588 -0.4154 -0.0246
  871MOL0     C20095   7.092   6.262   6.540  0.4035 -0.0369  1.0762
  871MOL0     O20096   7.179   6.351   6.489 -0.3978  0.4458  0.4509
  871MOL0     C20097   7.172   6.383   6.344  0.2588  0.0830 -0.3293
  871MOL0     C20098   7.277   6.486   6.308 -0.0083 -0.1786 -0.0644
  871MOL0     C20099   7.418   6.439   6.322  0.7109  0.2388 -0.5585
  871MOL0     C20100   7.524   6.543   6.270  0.1006 -0.1395  0.5776
  871MOL0     C20101   7.672   6.490   6.265  0.3828  0.2700 -0.5323
  871MOL0     C20102   7.784   6.587   6.223  0.0879 -0.3791 -0.6612
  871MOL0     C20103   7.931   6.540   6.249  0.0991 -0.2031 -0.4677
  871MOL0     C20104   7.966   6.416   6.187  0.2356 -1.1183  0.2544
  871MOL0    Cl20105   8.129   6.366   6.230  0.0097  0.2869 -0.4512
  871MOL0     C20106   7.023   6.264   6.657 -0.6148 -0.7172 -0.7633
  871MOL0     C20107   6.944   6.168   6.708  0.6171  0.1070  0.4546
  871MOL0     O20108   6.659   6.077   6.620  0.0057  0.5254 -0.3059
  871MOL0     C20109   6.679   5.738   6.578 -0.4329 -0.5409  0.0627
  871MOL0     C20110   6.608   5.610   6.578  0.8956 -0.6256  0.1459
  871MOL0     N20111   6.053   5.172   6.848 -0.3226  0.2523 -0.2323
  871MOL0     N20112   5.950   5.247   6.861 -0.0404  0.0023 -0.4691
  871MOL0     C20113   4.895   5.699   6.794 -0.0720 -0.4980 -0.1395
  871MOL0     C20114   4.762   5.710   6.760  0.6118  1.2915  0.0808
  871MOL0     C20115   4.319   5.770   6.785  0.1217  0.4566  0.1370
  871MOL0     C20116   4.270   5.646   6.741 -0.0774 -0.2907  1.1471
  871MOL0     C20117   4.139   5.621   6.717  0.9376 -0.8240 -0.1982
  871MOL0     C20118   4.039   5.724   6.733 -0.7825 -0.2900 -0.0751
  871MOL0     O20119   3.907   5.695   6.721 -0.5410 -0.1931 -0.3135
  871MOL0     C20120   3.858   5.578   6.656  0.3335  0.0531  0.4180
  871MOL0     C20121   3.705   5.591   6.647  0.1071  0.6828 -0.3474
  871MOL0     C20122   3.636   5.669   6.758 -0.6275  0.7980  0.2187
  871MOL0     C20123   3.492   5.617   6.770  0.7052 -0.7273 -0.2354
  871MOL0     C20124   3.421   5.707   6.862  0.1649  0.5339 -0.3368
  871MOL0     C20125   3.372   5.782   6.944  0.1096 -1.4868  0.6056
  871MOL0     C20126   4.081   5.850   6.772 -0.2517  1.1206  0.8262
  871MOL0     C20127   4.221   5.878   6.803  0.3277 -0.5190  0.8753
  871MOL0     C20128   4.246   6.009   6.874 -0.2927  0.0378  0.6388
  871MOL0     H20129   4.637   5.528   7.012 -4.8666 -0.2311 -3.8905
  871MOL0     H20130   4.860   5.524   7.077 -0.7094  2.2217  1.3153
  871MOL0     H20131   5.185   5.786   6.987 -5.6374  0.4818  1.4736
  871MOL0     H20132   5.121   5.775   6.829 -0.5485 -0.5608 -0.6656
  871MOL0     H20133   5.359   5.735   6.820  0.8904  0.0290  0.2404
  871MOL0     H20134   5.336   5.582   6.901  1.3600  1.4764  0.3751
  871MOL0     H20135   5.183   5.510   6.724  1.6073 -0.0734 -1.3190
  871MOL0     H20136   5.189   5.673   6.644 -1.4794  0.9423  1.7614
  871MOL0     H20137   5.329   5.510   6.519  0.2446  0.8924  0.0809
  871MOL0     H20138   5.411   5.649   6.571 -0.2912 -0.4900  0.8139
  871MOL0     H20139   5.423   5.375   6.692 -1.2203  1.4189  0.0457
  871MOL0     H20140   5.515   5.520   6.758 -2.4069  2.1452  0.0646
  871MOL0     H20141   5.534   5.381   6.477  6.1083 -3.1030 -2.0215
  871MOL0     H20142   5.635   5.512   6.522 -3.3640  1.1775 -1.0487
  871MOL0     H20143   5.742   5.299   6.515 -0.2861  0.5529 -0.6214
  871MOL0     H20144   5.639   5.245   6.649 -0.3408  0.7033  0.5634
  871MOL0     H20145   5.837   5.483   6.683  2.6367 -1.0225  1.1063
  871MOL0     H20146   5.748   5.398   6.813  0.7008 -0.4290  1.0653
  871MOL0     H20147   6.003   5.291   6.546 -0.5071  1.2670 -0.3445
  871MOL0     H20148   6.183   5.066   6.547 -4.4446  1.0028 -0.0090
  871MOL0     H20149   6.240   5.044   6.721 -0.7957  0.6917  1.0255
  871MOL0     H20150   6.403   5.179   6.555 -1.3165 -2.1857 -0.3982
  871MOL0     H20151   6.270   5.297   6.552 -3.5166 -0.8816  1.8762
  871MOL0     H20152   6.295   5.317   6.808 -0.8755 -3.7118  1.6264
  871MOL0     H20153   6.427   5.198   6.798 -0.6746 -1.4927 -1.5117
  871MOL0     H20154   6.490   5.432   6.813  2.1625  2.8680 -0.9427
  871MOL0     H20155   6.573   5.346   6.694  0.0542  1.3933  0.7014
  871MOL0     H20156   6.320   5.713   6.716 -0.5558  1.8658 -1.6492
  871MOL0     H20157   6.327   5.915   6.820 -0.2063  0.6415 -0.9909
  871MOL0     H20158   6.388   6.034   6.693 -1.8608 -0.2914 -0.1270
  871MOL0     H20159   6.474   5.997   6.843  0.2491  0.0384 -0.0068
  871MOL0     H20160   6.977   5.956   6.446  2.8374  2.3364 -3.3261
  871MOL0     H20161   7.106   6.145   6.368  1.2805 -1.7185  0.4555
  871MOL0     H20162   7.190   6.302   6.272  0.3312  0.4158 -0.6890
  871MOL0     H20163   7.073   6.425   6.325 -0.6664 -1.2473  1.3004
  871MOL0     H20164   7.261   6.511   6.203 -0.5337  1.9771  0.4723
  871MOL0     H20165   7.261   6.576   6.369  1.8544 -0.8284  1.4953
  871MOL0     H20166   7.439   6.345   6.269  0.7489  0.2774 -0.6112
  871MOL0     H20167   7.432   6.409   6.426 -1.1443  2.4667  0.4221
  871MOL0     H20168   7.532   6.640   6.320  0.9043  0.5775 -0.8637
  871MOL0     H20169   7.495   6.573   6.169 -0.0581  1.1434  0.9869
  871MOL0     H20170   7.694   6.467   6.370 -0.1140  2.2522  0.0481
  871MOL0     H20171   7.673   6.408   6.193 -1.6641  0.8461 -1.2711
  871MOL0     H20172   7.766   6.671   6.290  0.5040  0.4177 -1.5331
  871MOL0     H20173   7.780   6.609   6.116  1.0033 -2.5265 -1.1874
  871MOL0     H20174   7.945   6.543   6.358  2.0984  1.6237 -0.7211
  871MOL0     H20175   7.985   6.627   6.212 -1.4987  1.3895  0.7434
  871MOL0     H20176   7.952   6.426   6.079  3.1410  0.9292 -0.0484
  871MOL0     H20177   7.892   6.349   6.232 -0.9429  0.2951  0.4928
  871MOL0     H20178   7.035   6.361   6.704  1.8802 -1.8025  1.0188
  871MOL0     H20179   6.902   6.173   6.808 -3.0016  4.5988 -0.9388
  871MOL0     H20180   6.772   5.758   6.525 -0.8619  0.9115 -0.1921
  871MOL0     H20181   6.653   5.517   6.544  1.7494 -0.9388  2.0315
  871MOL0     H20182   4.967   5.732   6.720  3.5827 -2.5521  2.1352
  871MOL0     H20183   4.729   5.758   6.669  1.4947 -1.7092 -1.9826
  871MOL0     H20184   4.334   5.559   6.731  2.4984  1.4839  1.1406
  871MOL0     H20185   4.114   5.517   6.698 -0.0158 -0.6091 -0.1839
  871MOL0     H20186   3.908   5.562   6.560  3.8837  1.3312  1.9106
  871MOL0     H20187   3.868   5.489   6.719  2.0421 -0.6445 -0.7738
  871MOL0     H20188   3.658   5.492   6.645 -1.9465  1.6030 -0.0377
  871MOL0     H20189   3.684   5.635   6.549 -2.5034  0.5359  0.0766
  871MOL0     H20190   3.690   5.664   6.854 -1.8854  1.2365  0.9718
  871MOL0     H20191   3.634   5.776   6.734 -0.9440  1.1907  1.8708
  871MOL0     H20192   3.488   5.511   6.798  0.7972 -0.4212  0.9665
  871MOL0     H20193   3.441   5.627   6.674  2.2658 -1.6725 -1.2130
  871MOL0     H20194   3.326   5.844   7.018 -1.7029  0.0992 -1.6860
  871MOL0     H20195   4.003   5.925   6.777 -1.9509 -0.3757 -1.3287
  871MOL0     H20196   4.159   6.073   6.855  1.6574  2.0256 -2.3902
  871MOL0     H20197   4.236   5.996   6.982  0.4883 -2.5601  0.4623
  871MOL0     H20198   4.337   6.063   6.846 -1.8186  0.9295 -3.2506
  872MOL0     O20199   9.546   7.931   3.811 -0.7477 -0.2050  0.2803
  872MOL0     C20200   9.629   7.999   3.864 -0.5354  0.0461  0.6045
  872MOL0     O20201   9.718   7.946   3.953  0.4344  0.5903 -0.2558
  872MOL0     C20202   9.674   7.843   4.028  0.2120  0.1945 -0.2261
  872MOL0     C20203   9.718   7.720   3.988  0.4523  1.0129  0.1378
  872MOL0     C20204   9.711   7.610   4.080  0.4791  0.3867  0.8857
  872MOL0     C20205   9.638   7.629   4.200  1.0558 -0.3222 -0.6800
  872MOL0     O20206   9.616   7.539   4.303 -0.4602  0.2803  0.5802
  872MOL0     C20207   9.582   7.406   4.248 -0.0592  0.2653 -1.6652
  872MOL0     C20208   9.457   7.354   4.323  0.0897  0.4021 -0.4915
  872MOL0     C20209   9.484   7.302   4.465  0.2379 -0.0662 -0.0651
  872MOL0     C20210   9.359   7.230   4.522  0.2891  0.3483 -0.5912
  872MOL0     C20211   9.361   7.191   4.670  0.3764 -0.4508 -0.1648
  872MOL0     C20212   9.341   7.310   4.764  0.1431 -0.5764 -0.0290
  872MOL0     C20213   9.344   7.264   4.904  1.5118 -0.6386  0.4925
  872MOL0     C20214   9.359   7.391   4.997  0.2631  0.1805  0.3925
  872MOL0     N20215   9.373   7.359   5.139 -0.5905 -0.2432 -0.2326
  872MOL0     C20216   9.401   7.459   5.235  0.0845 -0.0527  0.1685
  872MOL0     C20217   9.382   7.393   5.354 -0.3165 -0.4481 -0.9877
  872MOL0     C20218   9.403   7.459   5.490  0.1722  0.4796  0.2352
  872MOL0     C20219   9.275   7.480   5.561  0.1513  0.3420 -0.8183
  872MOL0     C20220   9.294   7.530   5.702  0.3103  0.1494  0.1051
  872MOL0     C20221   9.307   7.412   5.806  0.4507 -0.5655  0.2567
  872MOL0     O20222   9.285   7.471   5.935 -0.6411 -0.9689  0.4477
  872MOL0     C20223   9.160   7.484   5.978  0.1300 -0.4189  0.5795
  872MOL0     C20224   9.068   7.376   5.982 -0.5923 -0.5581 -0.1918
  872MOL0     C20225   8.944   7.387   6.023  0.4333 -0.2482 -0.3208
  872MOL0     C20226   8.858   7.261   6.007  0.4277 -0.7890 -0.4852
  872MOL0     C20227   8.890   7.520   6.052  0.2555 -0.3592  0.8111
  872MOL0     C20228   8.742   7.550   6.078  0.1414  0.1837  0.0098
  872MOL0     O20229   8.707   7.666   6.146  0.0473  0.0413  0.2574
  872MOL0     C20230   8.606   7.737   6.085 -0.8409 -0.5152 -0.7346
  872MOL0     C20231   8.470   7.692   6.080 -0.0013  0.4223 -0.2371
  872MOL0     C20232   8.374   7.773   6.025 -0.2064  0.4801  0.4598
  872MOL0     C20233   8.397   7.901   5.990 -0.0214  0.1043  0.6809
  872MOL0     O20234   8.296   7.981   5.951  0.3487  0.0990 -0.2721
  872MOL0     C20235   8.181   8.005   6.025  0.2137 -0.3708 -0.1775
  872MOL0     C20236   8.121   8.139   5.961  1.3987 -0.4139 -0.1484
  872MOL0     C20237   8.093   8.119   5.811  1.1034  0.9880 -0.7139
  872MOL0     C20238   8.019   8.240   5.759  0.2632  0.2422 -0.3917
  872MOL0     C20239   7.978   8.222   5.622  0.2723  0.4913 -0.0253
  872MOL0     C20240   8.102   8.230   5.525  0.0076 -0.4136 -0.5804
  872MOL0     C20241   8.045   8.210   5.388 -0.4712 -0.0279  1.0767
  872MOL0     C20242   8.000   8.335   5.310  0.1780 -0.1831  0.5734
  872MOL0    Cl20243   8.144   8.426   5.256  0.0083 -0.2108 -0.0978
  872MOL0     C20244   8.528   7.947   5.985  0.2448  0.6754  0.9379
  872MOL0     C20245   8.631   7.863   6.029 -0.0621 -0.0628 -0.6852
  872MOL0     O20246   8.659   7.471   6.040 -0.9807  0.2717  0.6020
  872MOL0     C20247   8.982   7.629   6.053  0.1104  1.2316  0.7341
  872MOL0     C20248   9.118   7.606   6.023 -0.3220  0.1312  0.5105
  872MOL0     N20249   9.351   7.261   5.330 -0.3823  0.7857 -0.4554
  872MOL0     N20250   9.350   7.240   5.207 -0.0618  0.0134 -0.6497
  872MOL0     C20251   9.583   7.759   4.236  0.2123 -0.1074  0.7516
  872MOL0     C20252   9.613   7.868   4.156 -0.7558  0.3424 -0.0719
  872MOL0     C20253   9.668   8.119   3.788  0.4052 -0.6407  0.0504
  872MOL0     C20254   9.628   8.137   3.651 -0.8507  0.0574 -0.0084
  872MOL0     C20255   9.683   8.240   3.565  0.1717 -0.2677 -0.0028
  872MOL0     C20256   9.759   8.340   3.624  1.0921  0.0205 -0.3029
  872MOL0     O20257   9.791   8.455   3.552  0.4379  1.1351 -0.3451
  872MOL0     C20258   9.882   8.418   3.445  0.5877 -0.8500 -0.5064
  872MOL0     C20259   9.984   8.530   3.423 -0.2937 -0.4756  0.3005
  872MOL0     C20260  10.060   8.576   3.547 -0.5442 -0.2664  0.2144
  872MOL0     C20261  10.030   8.726   3.581  0.2277  0.7903  1.3887
  872MOL0     C20262  10.099   8.760   3.708 -0.2419  0.1646  0.8914
  872MOL0     C20263  10.166   8.762   3.812 -0.6711 -0.9740 -0.7629
  872MOL0     C20264   9.792   8.325   3.762 -0.5640  0.3997  0.2553
  872MOL0     C20265   9.757   8.219   3.843 -1.0140 -0.0085  0.0169
  872MOL0     C20266   9.823   8.205   3.979 -0.0404 -0.9001  0.4976
  872MOL0     H20267   9.747   7.717   3.883  0.2263  2.0711  0.0300
  872MOL0     H20268   9.750   7.511   4.057 -1.2406 -0.2961  0.7550
  872MOL0     H20269   9.663   7.332   4.252 -1.0290 -0.8243 -1.4944
  872MOL0     H20270   9.551   7.404   4.143 -0.8077  0.5198 -1.4563
  872MOL0     H20271   9.386   7.438   4.330 -0.1113  0.1138  1.3319
  872MOL0     H20272   9.407   7.274   4.267 -0.2504 -0.2504  0.7192
  872MOL0     H20273   9.561   7.226   4.451  1.8945  1.4203  0.5965
  872MOL0     H20274   9.523   7.381   4.529 -1.5762  0.1095  0.8943
  872MOL0     H20275   9.271   7.292   4.508  0.1400  0.1283 -0.6395
  872MOL0     H20276   9.336   7.136   4.471 -2.4834  0.5511  0.1494
  872MOL0     H20277   9.459   7.143   4.676 -0.5359 -2.4882 -0.8948
  872MOL0     H20278   9.289   7.113   4.692 -0.5162  0.2503 -0.5533
  872MOL0     H20279   9.430   7.372   4.754  2.2999 -3.3146  0.7005
  872MOL0     H20280   9.252   7.368   4.738  0.7755 -0.5293 -2.2779
  872MOL0     H20281   9.423   7.191   4.923  0.1378 -2.3277 -0.0134
  872MOL0     H20282   9.249   7.211   4.922 -1.4903  4.4143  1.4207
  872MOL0     H20283   9.443   7.456   4.969  0.3617 -0.1897 -0.1812
  872MOL0     H20284   9.273   7.455   4.975 -0.3858 -1.3739 -2.0102
  872MOL0     H20285   9.433   7.563   5.229  1.2508 -0.1890  2.8041
  872MOL0     H20286   9.441   7.559   5.464 -3.0451  1.1685 -2.4908
  872MOL0     H20287   9.485   7.409   5.542  0.7950  2.1367  0.9377
  872MOL0     H20288   9.215   7.551   5.503 -0.6281  0.8965  0.5918
  872MOL0     H20289   9.223   7.384   5.560  0.3996  0.1992 -0.4088
  872MOL0     H20290   9.376   7.600   5.718 -1.4178  1.9313  1.5970
  872MOL0     H20291   9.201   7.582   5.726 -2.7498 -4.5458 -0.2280
  872MOL0     H20292   9.233   7.335   5.784 -0.7931  0.8544 -0.6512
  872MOL0     H20293   9.404   7.361   5.804  1.4470  1.0669  2.8400
  872MOL0     H20294   9.114   7.282   5.955  0.5501  0.1177 -0.6621
  872MOL0     H20295   8.907   7.166   5.983 -1.7558 -1.6800 -1.7195
  872MOL0     H20296   8.788   7.278   5.925 -1.0786 -1.8867  0.5206
  872MOL0     H20297   8.803   7.247   6.100 -0.2556 -0.4641 -0.8389
  872MOL0     H20298   8.459   7.598   6.132  2.7941  1.6121  2.8624
  872MOL0     H20299   8.271   7.743   6.011 -0.1184 -0.0464  0.9108
  872MOL0     H20300   8.109   7.922   6.015 -1.4827  0.7010  2.1920
  872MOL0     H20301   8.212   8.025   6.128  1.6088  0.8167 -0.8052
  872MOL0     H20302   8.032   8.155   6.023 -0.5557 -2.8545 -2.0973
  872MOL0     H20303   8.196   8.216   5.982  1.5658 -0.3955 -0.8154
  872MOL0     H20304   8.035   8.027   5.795 -0.9543  2.4218 -2.0742
  872MOL0     H20305   8.184   8.108   5.752  0.8796 -2.8655 -0.6005
  872MOL0     H20306   8.083   8.326   5.778  0.5556  0.0698 -0.5892
  872MOL0     H20307   7.934   8.263   5.823  1.9748  1.1462  1.6908
  872MOL0     H20308   7.931   8.123   5.612 -0.1202  0.8181 -1.9447
  872MOL0     H20309   7.902   8.294   5.591  0.4317  0.7054  0.0766
  872MOL0     H20310   8.176   8.151   5.546 -1.3693 -1.1081  2.1296
  872MOL0     H20311   8.146   8.326   5.551 -4.0646  1.9176 -1.4708
  872MOL0     H20312   7.962   8.140   5.398 -1.6173  1.5412  3.7178
  872MOL0     H20313   8.125   8.162   5.331 -0.3610  0.8044  0.5121
  872MOL0     H20314   7.926   8.386   5.372  1.8795 -0.0842  2.6350
  872MOL0     H20315   7.938   8.303   5.226  0.4309 -0.4322  0.4793
  872MOL0     H20316   8.537   8.043   5.936 -1.4448 -0.9774 -3.0893
  872MOL0     H20317   8.731   7.906   6.031 -0.0954  0.0153  0.6754
  872MOL0     H20318   8.938   7.721   6.091 -1.9061  0.7847 -0.3679
  872MOL0     H20319   9.187   7.689   6.033 -2.6284  2.0489  1.6915
  872MOL0     H20320   9.525   7.770   4.328 -0.8635 -1.2614  0.2501
  872MOL0     H20321   9.593   7.969   4.190  4.2817  1.2171  0.9752
  872MOL0     H20322   9.569   8.061   3.600 -1.8557  0.6823  0.1901
  872MOL0     H20323   9.643   8.247   3.465  2.8575  1.5001 -1.0525
  872MOL0     H20324   9.943   8.331   3.471  1.1789 -0.6244 -1.1158
  872MOL0     H20325   9.829   8.396   3.351  0.0044  0.6107 -0.5449
  872MOL0     H20326   9.924   8.615   3.387  1.4585  2.2051  3.1717
  872MOL0     H20327  10.050   8.500   3.342 -3.4085 -0.1708 -2.5786
  872MOL0     H20328  10.038   8.517   3.636 -1.0302  1.3954  1.2280
  872MOL0     H20329  10.164   8.564   3.514 -0.6324 -0.3679 -0.0315
  872MOL0     H20330   9.924   8.750   3.591 -0.3241  0.6040 -2.5342
  872MOL0     H20331  10.072   8.793   3.505  1.5633  3.1805  4.0159
  872MOL0     H20332  10.221   8.748   3.903  0.1889  0.7286 -0.9826
  872MOL0     H20333   9.844   8.411   3.805 -3.2066  0.5575  3.5134
  872MOL0     H20334   9.874   8.297   4.010  0.3256 -1.8120  2.8375
  872MOL0     H20335   9.751   8.174   4.055 -1.3470 -0.5089 -0.5449
  872MOL0     H20336   9.894   8.122   3.977  3.1183  1.5489  2.2646
  873MOL0     O20337   9.698   5.849   4.402  0.6184 -0.6686 -0.6979
  873MOL0     C20338   9.658   5.764   4.483  0.7442  0.4939  0.1968
  873MOL0     O20339   9.706   5.633   4.502 -0.0715 -0.8757 -0.5418
  873MOL0     C20340   9.793   5.574   4.417 -0.1312  0.6626  0.4515
  873MOL0     C20341   9.894   5.635   4.356 -0.0474 -0.5791 -0.4385
  873MOL0     C20342   9.979   5.575   4.264  0.7191  0.0281  0.8029
  873MOL0     C20343   9.976   5.434   4.240  0.0429  0.3536  0.3124
  873MOL0     O20344  10.064   5.371   4.160  0.1323 -0.2274  0.8384
  873MOL0     C20345  10.160   5.440   4.072 -0.2842  0.0804  0.2709
  873MOL0     C20346  10.278   5.499   4.146 -0.2623 -0.0797  0.6347
  873MOL0     C20347  10.395   5.562   4.057  0.1556  0.0934 -0.3125
  873MOL0     C20348  10.504   5.455   4.042  0.5688 -0.1839  0.6265
  873MOL0     C20349  10.608   5.510   3.949 -0.2566  0.4120 -0.2124
  873MOL0     C20350  10.719   5.417   3.938 -0.5067 -0.2339 -0.4869
  873MOL0     C20351  10.809   5.471   3.829 -0.2131 -0.2494 -0.6169
  873MOL0     C20352  10.922   5.362   3.812 -0.0713 -0.8754 -0.5706
  873MOL0     N20353  10.988   5.377   3.681  0.8183  1.2862  0.3105
  873MOL0     C20354  11.122   5.369   3.669 -1.2273  0.4359 -0.1921
  873MOL0     C20355  11.149   5.387   3.540  0.1479 -0.2845 -0.3799
  873MOL0     C20356  11.287   5.408   3.484  0.6064 -0.8943 -0.2979
  873MOL0     C20357  11.374   5.290   3.505  0.1694 -0.3508  0.2338
  873MOL0     C20358  11.502   5.304   3.421  0.4668  0.3569 -0.2636
  873MOL0     C20359  11.582   5.174   3.420 -0.8332  0.8510  0.7306
  873MOL0     O20360  11.628   5.146   3.554  0.8810  0.2832 -0.1491
  873MOL0     C20361  11.738   5.065   3.570 -0.1174 -0.0088  0.5248
  873MOL0     C20362  11.785   4.976   3.465 -0.9346 -0.4195  0.0463
  873MOL0     C20363  11.876   4.873   3.501 -0.4071 -0.3735  0.1572
  873MOL0     C20364  11.893   4.766   3.388  1.2393 -0.5149  0.5689
  873MOL0     C20365  11.933   4.859   3.631 -0.3889  0.1805 -0.8081
  873MOL0     C20366  12.033   4.758   3.673  0.0655  0.2164 -0.1676
  873MOL0     O20367  12.069   4.769   3.801 -0.0588 -1.2214  0.0299
  873MOL0     C20368  12.154   4.672   3.856  0.7352  0.2581 -0.3158
  873MOL0     C20369  12.282   4.704   3.877 -0.3734 -0.5597 -0.3187
  873MOL0     C20370  12.366   4.616   3.937  0.3463  0.2328 -0.1817
  873MOL0     C20371  12.309   4.492   3.978 -0.3376 -0.8083  0.0915
  873MOL0     O20372  12.406   4.414   4.032 -0.1336 -0.5146 -0.7985
  873MOL0     C20373  12.369   4.281   4.074 -0.1179  1.0535  0.9896
  873MOL0     C20374  12.481   4.229   4.156  0.1045 -0.3770 -0.4609
  873MOL0     C20375  12.603   4.203   4.070 -0.4509  0.0885  0.7215
  873MOL0     C20376  12.686   4.094   4.142 -1.0830 -0.7584  0.0560
  873MOL0     C20377  12.820   4.060   4.080  0.9473  0.1026 -0.3701
  873MOL0     C20378  12.808   3.992   3.942  0.5242  1.0145  0.1737
  873MOL0     C20379  12.712   3.871   3.945 -0.4290 -0.2898  0.4668
  873MOL0     C20380  12.750   3.772   3.842 -0.2771 -0.1174 -0.4871
  873MOL0    Cl20381  12.733   3.859   3.687 -0.2083 -0.3545 -0.2090
  873MOL0     C20382  12.178   4.457   3.950  0.3410 -0.1779 -0.0737
  873MOL0     C20383  12.089   4.550   3.895  0.6252  0.0214  0.3541
  873MOL0     O20384  12.073   4.670   3.600  0.2970 -0.1086  0.3562
  873MOL0     C20385  11.890   4.954   3.725 -0.1649  0.8412  0.0728
  873MOL0     C20386  11.789   5.047   3.694  0.4928 -0.1358 -0.7595
  873MOL0     N20387  11.021   5.375   3.469  0.4063 -0.3883  0.2223
  873MOL0     N20388  10.932   5.362   3.554  0.6075 -0.2231 -0.3518
  873MOL0     C20389   9.875   5.365   4.307  0.2320 -0.5421  0.3272
  873MOL0     C20390   9.788   5.439   4.393  0.0932 -0.1298 -0.0873
  873MOL0     C20391   9.555   5.806   4.573  0.8689 -0.4624  0.2287
  873MOL0     C20392   9.464   5.710   4.614  0.6615 -0.4162  0.7072
  873MOL0     C20393   9.347   5.745   4.694 -0.7473  0.6667  0.9672
  873MOL0     C20394   9.324   5.875   4.742 -0.3724 -0.2986  0.5008
  873MOL0     O20395   9.214   5.904   4.820  0.7064 -0.1164  0.3905
  873MOL0     C20396   9.168   6.043   4.851 -0.5466 -0.1998  0.7532
  873MOL0     C20397   9.101   6.107   4.732  0.4948 -1.5870 -0.2169
  873MOL0     C20398   8.967   6.035   4.705  0.3767 -1.1516 -0.2464
  873MOL0     C20399   8.929   6.048   4.558 -0.5911 -0.8011 -0.4593
  873MOL0     C20400   8.788   5.994   4.544  0.0738  0.5099 -0.3384
  873MOL0     C20401   8.680   5.958   4.533  0.5430  0.6202  0.6108
  873MOL0     C20402   9.421   5.967   4.704 -0.1843 -0.5966 -0.0851
  873MOL0     C20403   9.531   5.941   4.620  0.1736 -0.3010  0.3629
  873MOL0     C20404   9.611   6.066   4.586 -0.2035 -0.2134  0.2597
  873MOL0     H20405   9.909   5.742   4.364 -3.0795 -0.0734 -0.2353
  873MOL0     H20406  10.050   5.637   4.211 -1.4800 -0.3108 -2.8301
  873MOL0     H20407  10.108   5.516   4.013  0.2246 -0.4260 -0.8597
  873MOL0     H20408  10.196   5.368   3.998  2.2598  0.7128  0.7864
  873MOL0     H20409  10.244   5.579   4.213  1.1977 -1.3566  3.0265
  873MOL0     H20410  10.326   5.424   4.210 -0.9023  0.3244  1.6189
  873MOL0     H20411  10.370   5.606   3.960  0.4169  0.1315 -0.3612
  873MOL0     H20412  10.442   5.646   4.109  1.3659  0.3144 -1.7044
  873MOL0     H20413  10.544   5.439   4.143  1.9309  0.5595  0.2303
  873MOL0     H20414  10.454   5.367   3.999  3.1988  0.0938 -3.5617
  873MOL0     H20415  10.650   5.601   3.992  1.5298  0.5281 -2.0580
  873MOL0     H20416  10.557   5.534   3.856 -1.1728  1.6657  0.5762
  873MOL0     H20417  10.769   5.403   4.035 -2.3715  0.9292  0.7039
  873MOL0     H20418  10.682   5.317   3.912  0.6914 -0.6098 -0.8071
  873MOL0     H20419  10.846   5.569   3.860 -0.0120 -0.5536  0.1410
  873MOL0     H20420  10.752   5.486   3.737 -1.9277  2.1998  0.7490
  873MOL0     H20421  11.006   5.367   3.881  0.4461  1.1901 -1.2666
  873MOL0     H20422  10.868   5.267   3.818  1.6213 -1.8160  0.4439
  873MOL0     H20423  11.202   5.358   3.741 -2.1487  0.8582  0.9250
  873MOL0     H20424  11.337   5.491   3.535  1.5554 -1.3927 -0.3939
  873MOL0     H20425  11.277   5.422   3.376  0.0069  1.0842 -0.0299
  873MOL0     H20426  11.390   5.260   3.609 -0.3183 -0.9859  0.1328
  873MOL0     H20427  11.329   5.200   3.462 -0.1138  0.8347 -2.0984
  873MOL0     H20428  11.488   5.332   3.317 -0.6890  0.4148 -0.1049
  873MOL0     H20429  11.570   5.378   3.465 -0.9018  0.1419  2.4516
  873MOL0     H20430  11.532   5.082   3.388  0.4199  0.2104  0.5621
  873MOL0     H20431  11.664   5.190   3.350 -1.9158  2.0097 -0.3360
  873MOL0     H20432  11.750   4.968   3.362  0.3726 -1.1487 -0.3582
  873MOL0     H20433  11.845   4.802   3.297  0.6448 -2.5130  0.0548
  873MOL0     H20434  11.846   4.675   3.425 -1.1564  1.1594  1.8999
  873MOL0     H20435  11.999   4.747   3.367  1.4370 -1.3166  2.1008
  873MOL0     H20436  12.324   4.802   3.857 -0.9478 -0.7457 -2.6697
  873MOL0     H20437  12.471   4.638   3.955  0.5827 -0.4727 -0.6679
  873MOL0     H20438  12.273   4.276   4.125 -1.3091  1.8007 -1.0747
  873MOL0     H20439  12.348   4.228   3.981 -2.0295  1.5239  1.1131
  873MOL0     H20440  12.514   4.297   4.236  1.6045  0.8326 -2.0204
  873MOL0     H20441  12.436   4.139   4.197 -3.6851  0.6080 -2.0089
  873MOL0     H20442  12.663   4.293   4.053 -0.6898 -0.1540 -1.9181
  873MOL0     H20443  12.580   4.176   3.966 -0.9211  0.4174  0.7416
  873MOL0     H20444  12.626   4.008   4.172  0.8329 -2.2108 -0.1070
  873MOL0     H20445  12.702   4.124   4.246 -1.0200 -2.5096  0.5755
  873MOL0     H20446  12.876   4.147   4.046  0.6210  0.3074 -0.3869
  873MOL0     H20447  12.876   4.001   4.154  2.3514 -1.3950 -2.5290
  873MOL0     H20448  12.910   3.957   3.921  0.7860  0.9306  1.4925
  873MOL0     H20449  12.774   4.071   3.876  2.7301  0.0724 -2.2770
  873MOL0     H20450  12.616   3.914   3.916  0.6907  1.6534 -0.5369
  873MOL0     H20451  12.713   3.832   4.048  2.3428  2.2955  1.5838
  873MOL0     H20452  12.672   3.695   3.853 -1.1846  1.1229  4.0640
  873MOL0     H20453  12.845   3.722   3.860 -1.3923 -1.8495  0.9871
  873MOL0     H20454  12.137   4.369   3.998  1.8815  0.8411  3.4287
  873MOL0     H20455  11.983   4.535   3.876  0.1502  2.6688  0.6047
  873MOL0     H20456  11.926   4.949   3.827 -1.5572 -0.5714  0.5411
  873MOL0     H20457  11.734   5.087   3.779 -0.3223  0.7141 -1.6709
  873MOL0     H20458   9.874   5.257   4.297  0.4157 -0.3879 -1.6159
  873MOL0     H20459   9.712   5.387   4.450  0.8688 -0.0045  1.1044
  873MOL0     H20460   9.474   5.609   4.576  1.7574 -1.1528  2.7839
  873MOL0     H20461   9.276   5.665   4.714  1.1492 -1.5597 -0.5723
  873MOL0     H20462   9.118   6.052   4.947 -0.3146  1.6899  0.7534
  873MOL0     H20463   9.261   6.098   4.869  0.2444 -2.1357  3.0068
  873MOL0     H20464   9.160   6.084   4.643 -1.5318  0.2949 -2.1794
  873MOL0     H20465   9.082   6.214   4.743 -4.1394 -2.0570 -1.4184
  873MOL0     H20466   8.962   5.934   4.746  3.6076  0.0204  3.6729
  873MOL0     H20467   8.888   6.090   4.757 -0.5885 -1.5370 -1.2631
  873MOL0     H20468   8.999   5.985   4.502 -0.8703 -2.6058  1.1172
  873MOL0     H20469   8.951   6.153   4.534  5.5260 -1.0883  1.9405
  873MOL0     H20470   8.577   5.931   4.523  0.5368  0.8942 -0.0797
  873MOL0     H20471   9.406   6.073   4.723 -0.2445 -0.1575 -2.3991
  873MOL0     H20472   9.620   6.139   4.666  2.5725  1.3576 -1.3439
  873MOL0     H20473   9.713   6.030   4.571  0.8270  3.1568 -1.6976
  873MOL0     H20474   9.573   6.113   4.495  2.1374 -1.5239 -1.5000
  874MOL0     O20475   1.844  10.541   3.943 -0.4914  0.8044 -0.2870
  874MOL0     C20476   1.814  10.519   4.063 -1.0279  0.1167  0.4260
  874MOL0     O20477   1.871  10.561   4.177  0.3476  0.3366  0.4437
  874MOL0     C20478   1.992  10.617   4.169  0.1958 -0.4750 -0.5145
  874MOL0     C20479   2.004  10.740   4.115 -0.0805 -0.0400  0.5852
  874MOL0     C20480   2.129  10.804   4.097  0.8361 -0.2125  0.0056
  874MOL0     C20481   2.245  10.741   4.138 -1.0129  0.5558 -0.0275
  874MOL0     O20482   2.379  10.774   4.106  0.3728 -0.3439  0.0375
  874MOL0     C20483   2.382  10.906   4.046  0.6985 -0.5437  0.3645
  874MOL0     C20484   2.524  10.975   4.037 -0.6434  0.2173 -0.3910
  874MOL0     C20485   2.512  11.126   4.011 -0.8914 -0.1266 -0.5459
  874MOL0     C20486   2.655  11.191   4.010 -0.0331  0.2403 -0.5244
  874MOL0     C20487   2.669  11.305   3.914 -0.5133  0.5364  0.3930
  874MOL0     C20488   2.627  11.442   3.968 -0.8213  0.4303 -0.7380
  874MOL0     C20489   2.525  11.499   3.875  0.5496  0.2241  0.3766
  874MOL0     C20490   2.490  11.651   3.887  0.1393  0.2481  0.5793
  874MOL0     N20491   2.459  11.690   4.030 -0.1097  0.5760  0.0077
  874MOL0     C20492   2.534  11.773   4.114  0.1773 -1.0444  0.6183
  874MOL0     C20493   2.474  11.770   4.234  0.1742 -0.5855 -0.4435
  874MOL0     C20494   2.515  11.826   4.366 -0.2295  0.6923  0.6398
  874MOL0     C20495   2.496  11.979   4.364  0.5846  0.1906 -0.0263
  874MOL0     C20496   2.580  12.037   4.480 -1.1891  0.0842  0.0343
  874MOL0     C20497   2.572  12.178   4.499  0.1060  0.2291  0.5951
  874MOL0     O20498   2.589  12.259   4.385  0.8298 -0.3555  0.0148
  874MOL0     C20499   2.603  12.396   4.397  0.1001 -0.5431 -0.7464
  874MOL0     C20500   2.608  12.459   4.528 -0.0524 -0.0972 -0.3020
  874MOL0     C20501   2.620  12.602   4.543 -0.3088  1.1747 -0.5143
  874MOL0     C20502   2.614  12.664   4.690 -0.3166  0.6193 -0.2763
  874MOL0     C20503   2.628  12.681   4.423 -0.9850  0.2179  0.3182
  874MOL0     C20504   2.635  12.825   4.419 -1.2901  0.2424  0.7663
  874MOL0     O20505   2.613  12.876   4.291  0.1391  0.2650 -0.0266
  874MOL0     C20506   2.691  12.973   4.235 -0.6537 -0.2478  0.2901
  874MOL0     C20507   2.719  12.974   4.099 -0.7331 -0.4100  1.1537
  874MOL0     C20508   2.818  13.054   4.044 -0.6013  0.1526 -0.2118
  874MOL0     C20509   2.887  13.154   4.125  0.3145 -0.2205  0.4994
  874MOL0     O20510   2.972  13.246   4.066 -0.2453  0.8000  0.4687
  874MOL0     C20511   3.060  13.307   4.157 -0.0991  0.6210 -0.1963
  874MOL0     C20512   3.170  13.366   4.079 -0.1865  0.1767 -0.0792
  874MOL0     C20513   3.293  13.412   4.167  0.4623  0.5326  1.0744
  874MOL0     C20514   3.275  13.552   4.230  0.7354  0.4033 -0.4339
  874MOL0     C20515   3.391  13.588   4.317 -0.5453  0.0426 -0.0961
  874MOL0     C20516   3.524  13.610   4.242  0.1846  0.3435 -0.1259
  874MOL0     C20517   3.617  13.704   4.328 -1.1969 -0.1317 -0.5678
  874MOL0     C20518   3.685  13.630   4.439 -0.6243 -0.3910 -0.6383
  874MOL0    Cl20519   3.578  13.597   4.588  0.6289 -0.1321 -0.4301
  874MOL0     C20520   2.850  13.161   4.266  0.5818 -0.4153  0.0967
  874MOL0     C20521   2.751  13.073   4.316 -0.7623  0.2012  0.5481
  874MOL0     O20522   2.652  12.888   4.524 -0.1322 -0.4855  0.3955
  874MOL0     C20523   2.656  12.610   4.304 -0.5166  0.2353 -0.3546
  874MOL0     C20524   2.641  12.470   4.287  0.6094 -0.7689 -0.6412
  874MOL0     N20525   2.365  11.689   4.216 -0.0339  0.5096  0.0539
  874MOL0     N20526   2.358  11.645   4.099 -0.4226  0.5310  0.1081
  874MOL0     C20527   2.234  10.612   4.197 -1.0799  1.3425 -0.1566
  874MOL0     C20528   2.107  10.553   4.211 -0.7653 -0.0482  0.2269
  874MOL0     C20529   1.700  10.427   4.092 -0.1465 -0.4530 -0.6065
  874MOL0     C20530   1.695  10.363   4.213 -0.1762  0.3192 -1.1897
  874MOL0     C20531   1.581  10.300   4.269  0.2951 -0.0076 -0.5475
  874MOL0     C20532   1.475  10.263   4.187  0.8067  0.1596  0.7394
  874MOL0     O20533   1.371  10.185   4.237 -0.0745 -0.7319 -0.3920
  874MOL0     C20534   1.271  10.136   4.145 -0.7529  0.7003  0.1439
  874MOL0     C20535   1.185  10.055   4.241 -0.2823 -0.1075 -0.0241
  874MOL0     C20536   1.083   9.973   4.162  0.2684  0.1290 -0.4907
  874MOL0     C20537   0.947   9.995   4.237 -0.7784  0.4891 -0.4576
  874MOL0     C20538   0.852   9.905   4.178  0.1028 -0.4537 -1.0593
  874MOL0     C20539   0.776   9.826   4.129 -0.3951 -0.0520 -0.1106
  874MOL0     C20540   1.476  10.315   4.051  0.4488 -0.2831  0.1457
  874MOL0     C20541   1.582  10.404   4.011 -0.0363 -0.4775 -0.9117
  874MOL0     C20542   1.560  10.476   3.881  0.1460  0.1564  0.6992
  874MOL0     H20543   1.911  10.794   4.094  0.6556  0.8527 -0.5270
  874MOL0     H20544   2.125  10.897   4.040  1.7077 -1.5754 -2.3995
  874MOL0     H20545   2.338  10.973   4.121 -1.0544 -2.1924  0.8838
  874MOL0     H20546   2.353  10.910   3.941  1.8599  1.3041  0.0715
  874MOL0     H20547   2.577  10.958   4.131  2.5888  0.1767 -2.0837
  874MOL0     H20548   2.595  10.934   3.965 -2.1314 -1.3247 -1.0408
  874MOL0     H20549   2.447  11.157   3.929 -1.4750  1.6905  0.5610
  874MOL0     H20550   2.459  11.162   4.100 -0.7636 -1.8893  0.3122
  874MOL0     H20551   2.699  11.219   4.106  0.3460  1.2593 -0.9847
  874MOL0     H20552   2.713  11.105   3.975 -1.5555 -0.6171 -1.0142
  874MOL0     H20553   2.617  11.267   3.825  3.5718 -0.6893 -1.7676
  874MOL0     H20554   2.771  11.295   3.874 -1.1147 -0.4021 -0.9861
  874MOL0     H20555   2.584  11.435   4.069 -2.0412  0.0844 -1.2682
  874MOL0     H20556   2.715  11.506   3.979  0.0764 -1.0223  1.3771
  874MOL0     H20557   2.427  11.451   3.879  0.3409  0.6020 -0.0978
  874MOL0     H20558   2.557  11.482   3.772  0.8963 -0.6296  0.6163
  874MOL0     H20559   2.560  11.726   3.850 -0.1482  0.2479  0.0165
  874MOL0     H20560   2.398  11.669   3.830 -0.0009 -3.1862 -0.5024
  874MOL0     H20561   2.622  11.830   4.084  0.0762 -0.3364  1.6134
  874MOL0     H20562   2.617  11.792   4.385 -0.8023 -1.1469  0.6201
  874MOL0     H20563   2.444  11.796   4.444 -2.0168 -0.7461 -1.4283
  874MOL0     H20564   2.524  12.020   4.267 -1.0685 -0.6367 -0.8971
  874MOL0     H20565   2.392  12.009   4.379  1.0433  2.0659 -0.3323
  874MOL0     H20566   2.573  11.998   4.582  0.5204 -2.0214 -0.5695
  874MOL0     H20567   2.681  12.007   4.449 -0.8907 -1.2568  2.0917
  874MOL0     H20568   2.472  12.205   4.534 -1.0817  0.5936 -2.7220
  874MOL0     H20569   2.644  12.205   4.577 -1.9828  3.0001  1.7429
  874MOL0     H20570   2.595  12.405   4.621  0.7347  2.4844  1.3832
  874MOL0     H20571   2.709  12.710   4.718 -1.1261  2.2003 -0.0165
  874MOL0     H20572   2.583  12.581   4.755  0.9689 -0.8912 -1.5337
  874MOL0     H20573   2.533  12.738   4.693 -1.6345 -0.7031 -1.3525
  874MOL0     H20574   2.666  12.906   4.032  0.6859  0.5201 -1.0409
  874MOL0     H20575   2.837  13.043   3.938 -0.3951  0.1298 -0.1720
  874MOL0     H20576   3.013  13.387   4.214  0.7563  0.7251  0.3944
  874MOL0     H20577   3.102  13.231   4.224  0.4358  1.1065  0.0270
  874MOL0     H20578   3.205  13.308   3.993  0.8773  2.2516 -1.1489
  874MOL0     H20579   3.138  13.464   4.041  0.8571  0.7787  0.5258
  874MOL0     H20580   3.376  13.418   4.096  0.5992 -0.2228  1.1544
  874MOL0     H20581   3.316  13.342   4.248  0.1620 -1.6216 -0.6105
  874MOL0     H20582   3.186  13.540   4.292  0.9244  1.2316  0.0132
  874MOL0     H20583   3.245  13.630   4.160 -0.1454 -1.4279 -2.1934
  874MOL0     H20584   3.358  13.679   4.367 -4.1177 -1.3372  0.3705
  874MOL0     H20585   3.415  13.508   4.389 -0.0933 -0.2376 -0.5519
  874MOL0     H20586   3.510  13.657   4.144  0.4216 -1.7205 -1.2277
  874MOL0     H20587   3.585  13.520   4.228 -1.1911 -0.6322 -0.1402
  874MOL0     H20588   3.544  13.775   4.368 -1.9888 -0.5997 -1.1585
  874MOL0     H20589   3.694  13.743   4.260 -2.1240  0.6093 -1.2126
  874MOL0     H20590   3.761  13.694   4.484 -1.7847  1.9871 -1.8536
  874MOL0     H20591   3.731  13.534   4.412 -1.3987 -0.9991  0.1088
  874MOL0     H20592   2.889  13.230   4.340 -1.4455  1.9447 -0.8847
  874MOL0     H20593   2.724  13.089   4.420 -0.0281  1.6646  0.5416
  874MOL0     H20594   2.700  12.665   4.221 -0.5654  0.5499 -0.1762
  874MOL0     H20595   2.650  12.417   4.193  2.5061 -1.8538  0.0761
  874MOL0     H20596   2.324  10.561   4.230  1.0700 -1.1232 -7.7381
  874MOL0     H20597   2.103  10.461   4.269 -0.2659  1.1527  2.2972
  874MOL0     H20598   1.771  10.383   4.288 -2.2898  2.0086  0.6764
  874MOL0     H20599   1.572  10.260   4.370  0.6622 -3.8197 -1.8526
  874MOL0     H20600   1.206  10.220   4.119 -1.7724 -0.4616 -1.3289
  874MOL0     H20601   1.311  10.078   4.061 -1.8859 -1.0040  0.7308
  874MOL0     H20602   1.139  10.126   4.311 -0.9821  1.9947 -2.4721
  874MOL0     H20603   1.245   9.978   4.289 -0.0698 -0.9823 -1.6452
  874MOL0     H20604   1.081   9.997   4.055  1.5309  0.9965 -0.3347
  874MOL0     H20605   1.119   9.870   4.164 -0.0082 -0.0647 -2.7363
  874MOL0     H20606   0.916  10.098   4.220 -0.3885  0.3752 -2.0502
  874MOL0     H20607   0.950   9.974   4.344 -2.4842  1.4042 -0.1941
  874MOL0     H20608   0.713   9.746   4.097 -3.6576  2.5340 -0.7207
  874MOL0     H20609   1.404  10.285   3.976 -2.1280 -1.2114  2.8364
  874MOL0     H20610   1.594  10.407   3.803  0.4646  0.0489  0.9326
  874MOL0     H20611   1.453  10.497   3.875  0.2220  0.9081  1.7794
  874MOL0     H20612   1.603  10.577   3.886 -1.0891  0.6858  1.0118
  875MOL0     O20613  10.925   3.647   3.537 -0.4764  0.5137 -0.4389
  875MOL0     C20614  10.914   3.763   3.490 -0.1492  0.6717 -0.5511
  875MOL0     O20615  10.825   3.862   3.555  0.1146 -1.2926 -0.7146
  875MOL0     C20616  10.704   3.830   3.611  0.4092  0.0017 -0.4676
  875MOL0     C20617  10.654   3.902   3.718  0.1945 -0.2268 -0.3615
  875MOL0     C20618  10.526   3.868   3.774  0.0626 -0.4365 -0.0693
  875MOL0     C20619  10.448   3.767   3.707  0.4471  0.1065 -0.4880
  875MOL0     O20620  10.335   3.718   3.755  0.6665 -0.9500  0.5854
  875MOL0     C20621  10.299   3.721   3.890  0.9262  0.1950 -0.3226
  875MOL0     C20622  10.177   3.635   3.930  0.5620  1.2187  0.0267
  875MOL0     C20623  10.175   3.607   4.081 -0.0361  0.0411 -0.1467
  875MOL0     C20624  10.029   3.568   4.137 -0.3585 -0.4483 -0.9090
  875MOL0     C20625   9.991   3.419   4.110 -0.1320 -0.3293 -0.1115
  875MOL0     C20626  10.029   3.326   4.221 -0.4944 -0.8063  0.5311
  875MOL0     C20627   9.989   3.177   4.194  0.5960  0.6300  0.1485
  875MOL0     C20628  10.073   3.115   4.076 -0.2196 -0.3477 -0.5769
  875MOL0     N20629  10.018   2.985   4.036  0.5388 -0.3725 -0.4442
  875MOL0     C20630   9.895   2.973   3.977 -0.3686 -0.6557  0.3684
  875MOL0     C20631   9.877   2.844   3.954  0.5675  0.8522  0.4363
  875MOL0     C20632   9.761   2.784   3.868 -0.9733 -0.5035  0.4788
  875MOL0     C20633   9.630   2.811   3.937  0.4027  0.3228  0.8314
  875MOL0     C20634   9.525   2.705   3.907  0.7587  0.6590  0.3893
  875MOL0     C20635   9.395   2.742   3.966 -0.0837 -0.4634  0.6389
  875MOL0     O20636   9.297   2.643   3.971  0.7443  0.4428 -0.8242
  875MOL0     C20637   9.170   2.683   3.957  0.1166  0.1206 -1.3350
  875MOL0     C20638   9.120   2.792   4.024 -0.6584 -0.2898  0.1518
  875MOL0     C20639   8.985   2.828   3.992  0.4377 -0.3683  0.0217
  875MOL0     C20640   8.933   2.936   4.087  0.1650 -1.1787 -0.6314
  875MOL0     C20641   8.903   2.753   3.907 -0.7060  0.0086 -0.7203
  875MOL0     C20642   8.767   2.788   3.871  0.3332  0.5833  0.8157
  875MOL0     O20643   8.740   2.922   3.853 -0.3491  0.1548  1.0712
  875MOL0     C20644   8.607   2.956   3.866  0.1186 -0.3484 -0.4362
  875MOL0     C20645   8.521   2.896   3.959 -0.3860  0.1563  0.8193
  875MOL0     C20646   8.390   2.925   3.958 -0.3956  1.0792  0.1061
  875MOL0     C20647   8.336   3.008   3.865 -0.2327  0.0892  0.4040
  875MOL0     O20648   8.202   3.020   3.872 -0.0188 -0.0965  0.0077
  875MOL0     C20649   8.134   2.931   3.773 -0.0606 -0.4436  0.0624
  875MOL0     C20650   7.992   2.986   3.753 -0.0907  1.3857 -0.2254
  875MOL0     C20651   8.001   3.094   3.657 -0.5034 -0.2817  0.6596
  875MOL0     C20652   7.857   3.157   3.649  1.3010 -1.1039  0.7851
  875MOL0     C20653   7.860   3.235   3.516 -0.2315  0.6714 -0.0425
  875MOL0     C20654   7.741   3.331   3.518 -0.0206  0.3950 -0.2012
  875MOL0     C20655   7.730   3.423   3.397 -0.3907 -0.3316 -0.2313
  875MOL0     C20656   7.826   3.544   3.400 -0.3972 -0.9162 -0.0976
  875MOL0    Cl20657   7.820   3.629   3.568  0.1724  0.4269  0.0443
  875MOL0     C20658   8.417   3.072   3.768  0.5665  0.4115  0.0571
  875MOL0     C20659   8.554   3.055   3.769 -0.9337  0.4434 -0.5883
  875MOL0     O20660   8.686   2.695   3.849 -0.2584 -0.0283 -0.6246
  875MOL0     C20661   8.957   2.630   3.854  0.4736 -0.4963  0.3877
  875MOL0     C20662   9.090   2.594   3.878 -0.5591 -0.3039 -0.2160
  875MOL0     N20663   9.995   2.775   3.993 -0.3594 -0.5301 -0.7361
  875MOL0     N20664  10.078   2.860   4.042  0.0611 -0.2026  0.0364
  875MOL0     C20665  10.501   3.703   3.598  0.5815 -0.2478 -0.0249
  875MOL0     C20666  10.626   3.729   3.552  0.4308  0.0629 -0.3718
  875MOL0     C20667  11.024   3.828   3.412  1.3019  0.6322 -0.2622
  875MOL0     C20668  11.083   3.944   3.465 -0.4486 -0.2004  1.2351
  875MOL0     C20669  11.177   4.019   3.397  0.5581 -0.0740 -1.2562
  875MOL0     C20670  11.225   3.971   3.273 -0.0201  0.0390  0.0608
  875MOL0     O20671  11.339   4.021   3.214  0.0748 -0.2447  0.0282
  875MOL0     C20672  11.339   4.164   3.201 -0.6211  0.8618 -0.3139
  875MOL0     C20673  11.454   4.197   3.096  0.0969  0.4283  0.8385
  875MOL0     C20674  11.600   4.209   3.143  0.9866  0.7846  0.7343
  875MOL0     C20675  11.688   4.326   3.098 -0.2883  0.4334  0.2826
  875MOL0     C20676  11.662   4.455   3.159  0.2497  0.5060 -0.1823
  875MOL0     C20677  11.630   4.565   3.197  0.1596  0.6834  0.3007
  875MOL0     C20678  11.168   3.852   3.210 -0.6023  0.7299 -0.9579
  875MOL0     C20679  11.068   3.780   3.284 -0.7023 -0.2791  0.8450
  875MOL0     C20680  11.019   3.658   3.217  0.0934 -0.3782  0.5301
  875MOL0     H20681  10.711   3.987   3.754  0.4699 -1.1223  1.4277
  875MOL0     H20682  10.478   3.928   3.851 -2.2871 -1.2324 -0.8314
  875MOL0     H20683  10.276   3.819   3.932  1.0279 -1.1161  3.1644
  875MOL0     H20684  10.386   3.691   3.949  1.5346  0.1924 -1.2007
  875MOL0     H20685  10.082   3.686   3.909 -0.4986  0.2708  2.2223
  875MOL0     H20686  10.182   3.548   3.864  0.8684  1.8636 -0.8166
  875MOL0     H20687  10.240   3.520   4.098  1.3608  1.5907  3.1580
  875MOL0     H20688  10.202   3.692   4.144 -1.7306 -0.6223  1.5994
  875MOL0     H20689  10.018   3.596   4.242 -0.2532  1.7960 -1.4442
  875MOL0     H20690   9.970   3.637   4.075  0.1054 -0.2442 -1.1350
  875MOL0     H20691  10.034   3.388   4.014  0.0197 -1.2238  0.2299
  875MOL0     H20692   9.882   3.412   4.109 -0.0979 -1.2400  0.7188
  875MOL0     H20693  10.135   3.334   4.248 -0.3779  1.3292 -0.3307
  875MOL0     H20694   9.970   3.356   4.308 -1.3070  0.3318 -0.3831
  875MOL0     H20695   9.881   3.168   4.179  0.5407 -0.2902  0.9535
  875MOL0     H20696  10.009   3.112   4.280 -0.2998 -1.1398 -0.9112
  875MOL0     H20697  10.073   3.191   3.998 -0.8015  1.3072  0.9695
  875MOL0     H20698  10.177   3.099   4.107 -0.4822 -2.8848 -0.7509
  875MOL0     H20699   9.831   3.058   3.956 -1.0554 -1.1989  0.2069
  875MOL0     H20700   9.781   2.678   3.854  2.5876 -0.1500  1.8194
  875MOL0     H20701   9.758   2.835   3.771 -0.7348 -2.3975 -0.5722
  875MOL0     H20702   9.659   2.790   4.041  1.7467  0.7246  0.5553
  875MOL0     H20703   9.595   2.914   3.927 -1.4237 -0.3173  0.2291
  875MOL0     H20704   9.515   2.682   3.800 -3.0392  0.1742  0.7178
  875MOL0     H20705   9.559   2.610   3.949  0.3179  0.0237 -0.6525
  875MOL0     H20706   9.414   2.788   4.063 -1.9088 -0.4576  1.0236
  875MOL0     H20707   9.362   2.832   3.913  0.4222  0.3073  1.5952
  875MOL0     H20708   9.186   2.851   4.087 -1.3447  2.0478 -1.2257
  875MOL0     H20709   8.827   2.958   4.074  0.9377  2.5191 -2.0734
  875MOL0     H20710   8.978   3.035   4.072  1.9340 -2.0699 -1.4824
  875MOL0     H20711   8.949   2.904   4.191 -2.9405 -0.1613  0.2843
  875MOL0     H20712   8.556   2.845   4.049  0.9240  1.5123  1.1205
  875MOL0     H20713   8.329   2.874   4.032 -1.0008 -0.3096 -1.2774
  875MOL0     H20714   8.188   2.905   3.682  1.1005 -1.6389  1.0400
  875MOL0     H20715   8.132   2.835   3.827  0.0190 -1.2435 -1.3197
  875MOL0     H20716   7.929   2.906   3.713  1.3200 -1.1937  2.3356
  875MOL0     H20717   7.961   3.029   3.849  0.7258 -0.0860  0.7374
  875MOL0     H20718   8.034   3.055   3.560 -0.9382  1.7012 -0.3335
  875MOL0     H20719   8.076   3.171   3.676 -0.3534 -0.1182 -0.4914
  875MOL0     H20720   7.840   3.226   3.732  0.1587 -2.1889  1.4716
  875MOL0     H20721   7.776   3.085   3.654  0.2531  0.0890  1.5468
  875MOL0     H20722   7.954   3.289   3.504  0.0475  0.3692  0.6996
  875MOL0     H20723   7.841   3.166   3.434  1.4981  4.2570 -3.8300
  875MOL0     H20724   7.753   3.388   3.611 -3.2784 -1.5236  1.5860
  875MOL0     H20725   7.649   3.274   3.534  1.7181 -2.0552  1.9605
  875MOL0     H20726   7.627   3.461   3.404 -0.7438 -1.2568 -0.2554
  875MOL0     H20727   7.741   3.371   3.301  2.0448  0.2535 -0.3374
  875MOL0     H20728   7.807   3.628   3.334 -0.1326  0.6636  1.7341
  875MOL0     H20729   7.920   3.490   3.383 -0.2078 -0.8839  0.7800
  875MOL0     H20730   8.355   3.137   3.707 -1.5405 -0.4355  1.1934
  875MOL0     H20731   8.621   3.099   3.696 -0.0339  2.0857  1.1381
  875MOL0     H20732   8.900   2.561   3.793 -0.5591  0.0803  0.6723
  875MOL0     H20733   9.134   2.496   3.860  0.5852  0.4431 -1.7189
  875MOL0     H20734  10.434   3.656   3.526  0.4667  3.0294 -2.2263
  875MOL0     H20735  10.671   3.683   3.465  0.2386  3.2224 -2.3134
  875MOL0     H20736  11.052   3.983   3.562 -0.5300 -0.4834  1.3237
  875MOL0     H20737  11.213   4.115   3.432 -1.6926  0.2843  0.3036
  875MOL0     H20738  11.238   4.194   3.170 -0.7129  0.1159 -0.7682
  875MOL0     H20739  11.358   4.201   3.302 -0.8172 -2.1734  0.9183
  875MOL0     H20740  11.438   4.296   3.051  2.6165  1.5157  2.0716
  875MOL0     H20741  11.455   4.120   3.019 -2.0549  0.2460  0.9386
  875MOL0     H20742  11.600   4.226   3.251  0.4249 -0.2546  0.9034
  875MOL0     H20743  11.647   4.113   3.120 -1.1615  0.0416 -0.8508
  875MOL0     H20744  11.678   4.339   2.990 -0.2335  1.1200  0.3576
  875MOL0     H20745  11.788   4.286   3.117 -1.1905 -1.3337  1.7329
  875MOL0     H20746  11.607   4.665   3.227  0.4185 -0.2700  4.1267
  875MOL0     H20747  11.202   3.810   3.116  1.6304 -1.6922  0.8093
  875MOL0     H20748  11.110   3.601   3.197  0.5582  0.6672 -0.4407
  875MOL0     H20749  10.948   3.601   3.278 -3.7432  2.1207 -1.1882
  875MOL0     H20750  10.965   3.686   3.126 -0.4389 -3.4906 -0.2039
  876MOL0     O20751   7.728   7.680   6.791 -0.1472 -0.1103  0.2194
  876MOL0     C20752   7.680   7.582   6.731  0.5058 -0.7422 -0.3044
  876MOL0     O20753   7.739   7.460   6.708  0.4989  0.4745 -0.4215
  876MOL0     C20754   7.865   7.429   6.762 -0.3652  0.0790 -0.5607
  876MOL0     C20755   7.948   7.351   6.694 -1.0223 -0.2218 -0.4046
  876MOL0     C20756   8.074   7.321   6.740  0.1680  0.0872  0.0564
  876MOL0     C20757   8.117   7.375   6.861  1.0129 -0.0845 -0.8793
  876MOL0     O20758   8.247   7.357   6.901  0.3597 -0.0736  0.8414
  876MOL0     C20759   8.344   7.419   6.813 -0.2090  0.4488  0.1717
  876MOL0     C20760   8.407   7.322   6.719 -0.0277  0.5704  0.5963
  876MOL0     C20761   8.445   7.189   6.792  0.5156  0.3201 -0.4761
  876MOL0     C20762   8.494   7.087   6.693  0.3668  0.3565 -0.3749
  876MOL0     C20763   8.563   6.965   6.756  0.1950 -0.2997  0.3420
  876MOL0     C20764   8.696   7.002   6.827  0.4812  0.4687  0.6461
  876MOL0     C20765   8.748   6.876   6.903 -0.5040 -0.1141 -0.2220
  876MOL0     C20766   8.654   6.822   7.017  0.4276  0.0278  0.7806
  876MOL0     N20767   8.593   6.934   7.095 -0.2496  0.1153 -0.1448
  876MOL0     C20768   8.463   6.979   7.094 -0.2452 -0.1863 -0.0225
  876MOL0     C20769   8.474   7.103   7.159 -0.6267 -0.2740  0.2148
  876MOL0     C20770   8.365   7.199   7.194  0.5590  0.0820 -0.3466
  876MOL0     C20771   8.412   7.333   7.254  0.5240  0.0571 -0.0251
  876MOL0     C20772   8.291   7.438   7.264  0.4560  0.3892  0.2415
  876MOL0     C20773   8.155   7.381   7.319  0.1679 -0.2858 -0.8679
  876MOL0     O20774   8.069   7.496   7.323 -0.2336 -0.2805  0.0813
  876MOL0     C20775   7.932   7.484   7.356 -0.4485 -0.2174 -0.3880
  876MOL0     C20776   7.849   7.588   7.332  0.4594 -0.5579 -1.2572
  876MOL0     C20777   7.715   7.597   7.389  0.3635  0.4873  0.3771
  876MOL0     C20778   7.637   7.730   7.383 -0.5949 -0.4420 -0.1760
  876MOL0     C20779   7.658   7.475   7.442  0.1644 -0.1979  0.0893
  876MOL0     C20780   7.507   7.451   7.453  0.1980  0.4436 -0.1434
  876MOL0     O20781   7.464   7.325   7.475 -0.5559  1.0990  0.4049
  876MOL0     C20782   7.338   7.286   7.450 -0.2162  0.6562  0.1024
  876MOL0     C20783   7.271   7.325   7.331 -0.3550 -0.4936  0.1335
  876MOL0     C20784   7.136   7.290   7.314 -0.7245  0.4051 -0.4622
  876MOL0     C20785   7.066   7.219   7.410 -0.0775  1.0392 -0.1159
  876MOL0     O20786   6.937   7.183   7.382  0.2994 -0.4621 -0.3134
  876MOL0     C20787   6.844   7.110   7.473 -0.2534  0.0513 -0.2160
  876MOL0     C20788   6.707   7.141   7.416 -0.2226 -0.6703  0.1620
  876MOL0     C20789   6.594   7.083   7.494  0.0717 -0.3631  0.3730
  876MOL0     C20790   6.463   7.068   7.413 -0.1583 -0.6047  0.1784
  876MOL0     C20791   6.337   7.005   7.482  0.2587  0.2377 -0.2181
  876MOL0     C20792   6.291   7.094   7.593  0.2840 -1.1831  0.3520
  876MOL0     C20793   6.145   7.057   7.636  0.4088  0.5182  0.8117
  876MOL0     C20794   6.092   7.124   7.760  0.8695  0.4095  0.2251
  876MOL0    Cl20795   6.142   7.052   7.908  0.2086 -0.5318 -0.0168
  876MOL0     C20796   7.141   7.171   7.516  0.5329  0.4146  0.2756
  876MOL0     C20797   7.270   7.206   7.543 -0.2300 -0.0234  0.0385
  876MOL0     O20798   7.432   7.543   7.447  0.2392  0.2753  0.1329
  876MOL0     C20799   7.736   7.359   7.438 -0.4885 -0.3003 -0.5437
  876MOL0     C20800   7.877   7.359   7.404  0.2340 -0.3704  0.6289
  876MOL0     N20801   8.614   7.122   7.191  0.5530  0.3035 -0.4023
  876MOL0     N20802   8.674   7.014   7.159 -0.5102  0.0650 -0.2387
  876MOL0     C20803   8.032   7.453   6.934 -0.2140 -0.0210 -0.7825
  876MOL0     C20804   7.909   7.481   6.890  0.6077 -0.1186 -0.0635
  876MOL0     C20805   7.537   7.584   6.707  0.7398  0.1596  1.2862
  876MOL0     C20806   7.486   7.586   6.575  0.1207  0.9218 -0.7381
  876MOL0     C20807   7.356   7.613   6.549  0.2185  0.5923  0.1605
  876MOL0     C20808   7.258   7.616   6.650  0.0818 -0.1214  1.5060
  876MOL0     O20809   7.127   7.609   6.624 -0.3728  1.0516 -0.3864
  876MOL0     C20810   7.083   7.676   6.507 -0.4271 -0.5135 -0.2707
  876MOL0     C20811   6.933   7.690   6.532  0.2239  0.2844  0.3288
  876MOL0     C20812   6.849   7.565   6.521  0.2931  0.7401 -1.0158
  876MOL0     C20813   6.701   7.590   6.551 -0.1322  0.1726 -0.1002
  876MOL0     C20814   6.646   7.702   6.472  0.3460  1.1229  0.8693
  876MOL0     C20815   6.586   7.792   6.418  0.2077  0.7636  0.3457
  876MOL0     C20816   7.305   7.619   6.777  0.5328  0.3120  0.9259
  876MOL0     C20817   7.445   7.609   6.811 -0.7210  0.6695 -0.9423
  876MOL0     C20818   7.491   7.612   6.957 -0.8108  0.3898  0.3080
  876MOL0     H20819   7.917   7.306   6.600 -0.3549 -0.9559 -0.2855
  876MOL0     H20820   8.141   7.268   6.672 -2.0199 -0.0457 -2.1202
  876MOL0     H20821   8.416   7.475   6.873  0.7023 -0.7571  0.2416
  876MOL0     H20822   8.301   7.494   6.746  3.7187  3.5841  0.7453
  876MOL0     H20823   8.353   7.294   6.627 -1.4910 -1.1840  1.9082
  876MOL0     H20824   8.500   7.359   6.675 -0.8344 -0.4241 -2.2359
  876MOL0     H20825   8.506   7.208   6.881  0.9634  0.0374 -0.7188
  876MOL0     H20826   8.353   7.150   6.839 -0.9864  3.3331 -0.7015
  876MOL0     H20827   8.410   7.047   6.634  0.8713  0.8787 -1.4665
  876MOL0     H20828   8.565   7.138   6.628  2.1357 -1.8458 -0.2760
  876MOL0     H20829   8.583   6.886   6.682  1.4928 -0.6543  1.0492
  876MOL0     H20830   8.490   6.935   6.831  2.1650 -0.2897  2.3520
  876MOL0     H20831   8.763   7.032   6.746 -1.1003  0.4639 -0.7174
  876MOL0     H20832   8.690   7.092   6.890 -2.1328  0.8638 -0.0366
  876MOL0     H20833   8.838   6.912   6.954 -1.7278  1.3712  1.0087
  876MOL0     H20834   8.768   6.786   6.844  1.1724  0.2787 -0.2887
  876MOL0     H20835   8.579   6.760   6.968  0.0358  1.9805 -1.2406
  876MOL0     H20836   8.718   6.760   7.080 -0.8281 -3.3583 -1.0538
  876MOL0     H20837   8.366   6.950   7.055 -1.6558  3.8379  0.0019
  876MOL0     H20838   8.297   7.162   7.271  1.8332 -0.9617  0.3312
  876MOL0     H20839   8.302   7.223   7.108 -1.8609 -2.7287  0.4673
  876MOL0     H20840   8.444   7.326   7.359 -0.0124  1.3678  0.2415
  876MOL0     H20841   8.494   7.365   7.188  2.8566 -3.1536  1.0182
  876MOL0     H20842   8.326   7.522   7.325 -1.8342  1.9118 -0.3964
  876MOL0     H20843   8.279   7.480   7.164 -1.5009 -1.1474 -0.2232
  876MOL0     H20844   8.112   7.307   7.251  0.4134 -0.6466 -0.6340
  876MOL0     H20845   8.172   7.332   7.416 -1.3547 -0.5786 -0.7170
  876MOL0     H20846   7.884   7.684   7.293 -2.6206  0.8450 -0.9102
  876MOL0     H20847   7.707   7.814   7.397  0.0755 -1.1657  0.9973
  876MOL0     H20848   7.572   7.731   7.470 -1.4206  0.7081 -0.7870
  876MOL0     H20849   7.585   7.749   7.289 -1.2065 -0.7858  0.0928
  876MOL0     H20850   7.315   7.393   7.259 -2.6477  1.4231  0.4255
  876MOL0     H20851   7.072   7.317   7.230 -1.0322  0.5518 -0.1845
  876MOL0     H20852   6.865   7.003   7.477  1.9412  0.2038 -3.7039
  876MOL0     H20853   6.857   7.148   7.575  1.1292  2.8776 -1.3412
  876MOL0     H20854   6.696   7.249   7.409  0.2090 -0.7199 -2.1492
  876MOL0     H20855   6.700   7.102   7.314  0.7540  2.3433 -1.1685
  876MOL0     H20856   6.572   7.147   7.580  1.5533 -0.1263  0.6052
  876MOL0     H20857   6.625   6.984   7.529 -0.1893 -0.6265 -0.1254
  876MOL0     H20858   6.483   7.014   7.320 -2.3727  1.6647 -1.7663
  876MOL0     H20859   6.426   7.167   7.385  0.6440 -0.7111 -1.3405
  876MOL0     H20860   6.265   6.985   7.403  0.7833  0.4671 -0.7614
  876MOL0     H20861   6.361   6.907   7.526 -0.3196  1.3398  2.7576
  876MOL0     H20862   6.292   7.201   7.566  1.6221 -1.8685 -2.8045
  876MOL0     H20863   6.365   7.080   7.672  2.0832 -2.1882 -1.4098
  876MOL0     H20864   6.132   6.949   7.649  1.1283  0.3687  0.3316
  876MOL0     H20865   6.093   7.082   7.544 -0.5628 -0.4302  1.0748
  876MOL0     H20866   5.983   7.118   7.753  0.8747  0.8464 -0.2438
  876MOL0     H20867   6.116   7.231   7.763 -0.3244  0.8617 -2.9501
  876MOL0     H20868   7.094   7.103   7.586  2.1523  2.0667  3.1088
  876MOL0     H20869   7.335   7.174   7.623 -0.5556 -0.0298  0.3007
  876MOL0     H20870   7.703   7.260   7.467  3.0664 -1.6312 -0.5838
  876MOL0     H20871   7.935   7.268   7.404  0.5728 -0.1602  0.3499
  876MOL0     H20872   8.069   7.491   7.028  2.9928 -3.5105 -0.4317
  876MOL0     H20873   7.851   7.552   6.948  1.2873  2.5092 -2.3795
  876MOL0     H20874   7.556   7.552   6.499 -0.3246 -0.4145 -0.5602
  876MOL0     H20875   7.323   7.603   6.446  0.7586 -0.2788  0.0550
  876MOL0     H20876   7.121   7.778   6.514  1.4277 -1.2975  2.7587
  876MOL0     H20877   7.109   7.639   6.407 -2.7508  0.0202 -1.1463
  876MOL0     H20878   6.892   7.759   6.458 -2.7729 -0.7804  0.8417
  876MOL0     H20879   6.909   7.742   6.625  0.7288 -0.7560  1.0598
  876MOL0     H20880   6.854   7.529   6.418 -1.9169  2.9431 -2.0008
  876MOL0     H20881   6.873   7.482   6.588 -0.9092  0.0592 -1.3743
  876MOL0     H20882   6.691   7.605   6.659 -2.5477  0.1660 -0.2568
  876MOL0     H20883   6.646   7.497   6.535 -0.8648 -0.1447  3.3600
  876MOL0     H20884   6.534   7.868   6.364 -0.8552  0.4624  0.9096
  876MOL0     H20885   7.225   7.625   6.849  0.1517  4.2456  0.4033
  876MOL0     H20886   7.498   7.714   6.997  2.9377  0.2226  0.3948
  876MOL0     H20887   7.421   7.558   7.022  2.0976 -1.2819  2.3070
  876MOL0     H20888   7.587   7.560   6.965 -1.0500 -0.2874 -0.9388
  877MOL0     O20889   7.757  10.746   6.422  0.0374  0.4059  0.0780
  877MOL0     C20890   7.698  10.645   6.463  0.3455 -0.2874 -0.6990
  877MOL0     O20891   7.728  10.586   6.579  0.0484 -0.2008 -0.1393
  877MOL0     C20892   7.847  10.607   6.645 -0.7806 -0.4250 -0.1627
  877MOL0     C20893   7.860  10.699   6.741 -0.7878  0.0142  0.8179
  877MOL0     C20894   7.987  10.724   6.811 -1.2408 -0.8131 -0.2531
  877MOL0     C20895   8.105  10.653   6.776  0.2054  0.0042  1.2369
  877MOL0     O20896   8.221  10.658   6.840  0.6055 -0.0756  0.1734
  877MOL0     C20897   8.338  10.669   6.760  0.0226 -0.5219 -0.4888
  877MOL0     C20898   8.448  10.692   6.862  0.0907  0.3039  0.3292
  877MOL0     C20899   8.445  10.821   6.929  1.3117  0.2713  1.1542
  877MOL0     C20900   8.462  10.941   6.831 -0.6650 -0.5344  0.1548
  877MOL0     C20901   8.493  11.073   6.896 -0.1610 -0.2762 -0.1650
  877MOL0     C20902   8.388  11.117   7.006  0.3789 -0.7354  0.2599
  877MOL0     C20903   8.391  11.264   7.044  0.9489  0.2048 -0.1970
  877MOL0     C20904   8.254  11.326   7.096 -0.7911 -0.8450 -0.2671
  877MOL0     N20905   8.263  11.466   7.100  0.1534 -0.6341 -0.4568
  877MOL0     C20906   8.289  11.532   7.217 -0.0195 -0.3779 -0.3075
  877MOL0     C20907   8.277  11.661   7.181 -0.1961  0.2514 -0.2437
  877MOL0     C20908   8.304  11.773   7.276  0.1522 -1.0256  0.0735
  877MOL0     C20909   8.444  11.837   7.244  0.0346 -0.1343 -0.6287
  877MOL0     C20910   8.569  11.740   7.260  0.4311  0.3110 -0.7024
  877MOL0     C20911   8.593  11.699   7.400 -0.4331  0.2211 -0.9068
  877MOL0     O20912   8.539  11.567   7.421  0.3042 -0.1297 -0.6284
  877MOL0     C20913   8.507  11.539   7.552  0.4023 -0.8713  0.2902
  877MOL0     C20914   8.600  11.535   7.652  0.4273  0.6389 -0.3015
  877MOL0     C20915   8.564  11.537   7.783  0.2156  0.3498 -0.6778
  877MOL0     C20916   8.670  11.504   7.894 -0.7042 -0.8276  0.8186
  877MOL0     C20917   8.425  11.531   7.820  0.1093 -0.2293  0.2738
  877MOL0     C20918   8.380  11.502   7.953 -0.3779  0.3544  0.3866
  877MOL0     O20919   8.269  11.423   7.964 -0.4187 -0.3880  0.5188
  877MOL0     C20920   8.239  11.379   8.090 -0.3006  0.5211 -0.6939
  877MOL0     C20921   8.335  11.316   8.180  0.0756 -0.5817  0.4740
  877MOL0     C20922   8.289  11.278   8.301 -0.5390 -0.1931  0.2820
  877MOL0     C20923   8.153  11.277   8.331  0.0705  0.2072 -0.7028
  877MOL0     O20924   8.090  11.229   8.441 -0.0516  0.8928  0.5827
  877MOL0     C20925   8.166  11.161   8.537  0.0036 -0.3640  1.1973
  877MOL0     C20926   8.080  11.116   8.659 -0.5530  0.2684 -0.2750
  877MOL0     C20927   8.162  11.024   8.761 -0.0092 -0.4084  0.3796
  877MOL0     C20928   8.060  10.948   8.859  0.1810 -0.5529 -0.6828
  877MOL0     C20929   8.143  10.860   8.962  0.6188  0.5037 -0.7925
  877MOL0     C20930   8.046  10.767   9.053 -0.4536 -0.0007 -0.3599
  877MOL0     C20931   8.102  10.702   9.182 -0.1669 -0.0740  0.2578
  877MOL0     C20932   8.085  10.790   9.302 -0.2014 -0.9369 -0.5030
  877MOL0    Cl20933   8.154  10.723   9.447  0.2495  0.1045 -0.2087
  877MOL0     C20934   8.056  11.327   8.241  0.2908  0.9581 -1.0784
  877MOL0     C20935   8.099  11.397   8.127 -0.2722  1.0640  0.2068
  877MOL0     O20936   8.437  11.554   8.047 -0.3222  0.1089 -0.3347
  877MOL0     C20937   8.333  11.514   7.718 -0.3674 -0.7356 -0.3212
  877MOL0     C20938   8.372  11.536   7.581  1.0759  0.3475 -0.0996
  877MOL0     N20939   8.240  11.663   7.048 -0.2115 -0.3817 -0.2067
  877MOL0     N20940   8.231  11.547   7.005 -0.2560  0.3866 -0.9178
  877MOL0     C20941   8.091  10.559   6.667 -0.6527 -0.9732  0.9945
  877MOL0     C20942   7.966  10.536   6.606 -0.5138  1.0288  0.4152
  877MOL0     C20943   7.567  10.607   6.395 -0.1691  0.2105  0.5654
  877MOL0     C20944   7.488  10.524   6.470 -0.8244 -0.4195 -0.0886
  877MOL0     C20945   7.347  10.497   6.435 -0.2501 -0.5906 -0.0275
  877MOL0     C20946   7.298  10.535   6.299 -0.9373 -0.2265 -0.6414
  877MOL0     O20947   7.173  10.509   6.250  0.0223 -0.2683 -0.4776
  877MOL0     C20948   7.086  10.434   6.323 -0.4162  0.4710  0.5807
  877MOL0     C20949   6.949  10.432   6.261  0.0368 -0.7903  0.8939
  877MOL0     C20950   6.876  10.304   6.295 -0.9795  0.9989 -0.3008
  877MOL0     C20951   6.727  10.306   6.261  0.6596  0.9055 -0.1154
  877MOL0     C20952   6.689  10.325   6.124 -0.5204 -0.3263 -0.2341
  877MOL0     C20953   6.653  10.347   6.009  0.7626  0.3734 -0.3651
  877MOL0     C20954   7.397  10.606   6.217  0.7757 -0.5345 -0.4162
  877MOL0     C20955   7.522  10.651   6.265  0.7966  0.1555 -0.4381
  877MOL0     C20956   7.596  10.747   6.171 -0.2669 -0.1576 -0.3566
  877MOL0     H20957   7.776  10.742   6.794 -0.5913  0.7924  0.5105
  877MOL0     H20958   7.984  10.794   6.894  2.4915 -0.0132 -0.5996
  877MOL0     H20959   8.334  10.742   6.679 -1.6856 -1.1548 -1.0194
  877MOL0     H20960   8.364  10.574   6.712  1.2533 -1.1227  1.2838
  877MOL0     H20961   8.457  10.608   6.931  0.9545  0.1778  0.0660
  877MOL0     H20962   8.542  10.684   6.807  2.6151  3.1960  3.7293
  877MOL0     H20963   8.339  10.822   6.957 -1.0367 -1.9174 -5.4480
  877MOL0     H20964   8.523  10.835   7.004  0.1466  0.4051  2.3846
  877MOL0     H20965   8.546  10.915   6.766  0.6291 -0.0377  1.5569
  877MOL0     H20966   8.372  10.952   6.770  0.3053  2.8800 -0.9174
  877MOL0     H20967   8.483  11.155   6.824  0.5549  0.5563  0.6580
  877MOL0     H20968   8.591  11.073   6.945 -0.1105  3.2690  0.0407
  877MOL0     H20969   8.293  11.090   6.958  0.6889  1.6838 -1.9311
  877MOL0     H20970   8.404  11.055   7.095 -0.6269 -2.7057 -0.8373
  877MOL0     H20971   8.429  11.325   6.961 -0.0609  0.4534 -0.4975
  877MOL0     H20972   8.462  11.267   7.127  2.1021 -1.3435 -1.0620
  877MOL0     H20973   8.173  11.312   7.024 -1.3718 -1.3460  0.4651
  877MOL0     H20974   8.228  11.277   7.190  0.5764 -1.4697 -0.1932
  877MOL0     H20975   8.323  11.490   7.311 -1.4049  3.3304  2.0679
  877MOL0     H20976   8.298  11.749   7.383  0.0425  2.7789  1.0777
  877MOL0     H20977   8.226  11.849   7.258 -0.2066 -1.8552 -2.2216
  877MOL0     H20978   8.429  11.872   7.142 -0.6532  0.4439 -0.3437
  877MOL0     H20979   8.470  11.926   7.302  2.3894 -2.0082  1.4105
  877MOL0     H20980   8.550  11.649   7.203  0.3053 -1.1691  1.5545
  877MOL0     H20981   8.655  11.789   7.214  1.5166 -0.8625  0.0377
  877MOL0     H20982   8.700  11.694   7.422 -0.7693 -0.6900  0.6490
  877MOL0     H20983   8.563  11.769   7.478  2.0590 -2.1579  2.4857
  877MOL0     H20984   8.700  11.516   7.614  0.4153 -1.1434  0.4537
  877MOL0     H20985   8.668  11.576   7.977 -1.5453 -0.8610  0.8317
  877MOL0     H20986   8.770  11.517   7.852 -0.9664  1.6835  0.8036
  877MOL0     H20987   8.652  11.402   7.929 -1.9522 -1.1328 -0.6345
  877MOL0     H20988   8.442  11.314   8.161 -0.1237  0.6535 -1.0288
  877MOL0     H20989   8.354  11.242   8.381  1.4713  0.8274 -0.8148
  877MOL0     H20990   8.215  11.070   8.501 -2.2651 -1.2973  0.2729
  877MOL0     H20991   8.243  11.225   8.581  3.6753 -1.2061 -3.2863
  877MOL0     H20992   8.052  11.208   8.711 -1.6916 -0.9704  1.4037
  877MOL0     H20993   7.985  11.074   8.625 -3.3613  4.8606  1.1301
  877MOL0     H20994   8.226  11.089   8.820  0.2070 -0.1852 -0.0947
  877MOL0     H20995   8.215  10.950   8.700 -2.1670 -1.4897 -0.2878
  877MOL0     H20996   7.997  10.880   8.800  1.1557 -2.2188  0.1178
  877MOL0     H20997   8.001  11.021   8.915  0.8773 -0.9475  0.6089
  877MOL0     H20998   8.204  10.790   8.904 -1.0939 -2.2124  0.5128
  877MOL0     H20999   8.210  10.920   9.024 -0.3895 -0.0122  0.8647
  877MOL0     H21000   8.015  10.682   8.991 -0.6487 -1.7033  1.9424
  877MOL0     H21001   7.951  10.811   9.081 -0.2482 -1.9013  4.1644
  877MOL0     H21002   8.209  10.686   9.170 -0.2590 -4.0224  2.6946
  877MOL0     H21003   8.053  10.606   9.204 -2.5070  1.5518  2.8625
  877MOL0     H21004   7.977  10.795   9.319 -0.6046  0.1363 -2.8957
  877MOL0     H21005   8.137  10.883   9.275  1.8695 -2.2205 -1.1890
  877MOL0     H21006   7.950  11.333   8.263  1.0528  0.3818  3.7338
  877MOL0     H21007   8.029  11.438   8.055 -0.5763 -1.1215 -0.8307
  877MOL0     H21008   8.228  11.496   7.735 -0.7411 -2.3824 -3.6505
  877MOL0     H21009   8.301  11.545   7.500  1.2287 -3.4904 -0.8440
  877MOL0     H21010   8.169  10.487   6.647 -2.1275 -1.4752 -4.2094
  877MOL0     H21011   7.944  10.463   6.528  1.4893  2.4212 -1.5690
  877MOL0     H21012   7.522  10.489   6.567  0.8504  0.3677 -0.3545
  877MOL0     H21013   7.287  10.434   6.500  0.4425  0.9443  2.1741
  877MOL0     H21014   7.119  10.329   6.326 -1.9755 -0.0307  1.9930
  877MOL0     H21015   7.076  10.479   6.422  0.9894  5.9844 -1.4548
  877MOL0     H21016   6.955  10.448   6.153  1.2152 -1.2049  0.8845
  877MOL0     H21017   6.896  10.520   6.301 -1.3960 -1.3410  0.2693
  877MOL0     H21018   6.923  10.215   6.253  1.4195  0.7098  2.6594
  877MOL0     H21019   6.880  10.288   6.403  0.6690  4.8015  0.3465
  877MOL0     H21020   6.685  10.380   6.329  0.0099  0.4733 -0.0365
  877MOL0     H21021   6.693  10.205   6.289  1.6745  0.5288 -0.1890
  877MOL0     H21022   6.623  10.364   5.907 -0.9915  0.4418  0.1252
  877MOL0     H21023   7.375  10.642   6.117 -1.5668  0.0222  0.2384
  877MOL0     H21024   7.550  10.765   6.073 -0.1736 -2.2260 -0.8290
  877MOL0     H21025   7.593  10.844   6.222 -1.8633  0.8996 -2.3070
  877MOL0     H21026   7.697  10.711   6.151 -0.7008 -2.8901  1.7559
  878MOL0     O21027   4.665   1.562   0.904  0.1893  0.1355  0.0998
  878MOL0     C21028   4.704   1.610   1.011 -0.5914 -0.1445 -0.4937
  878MOL0     O21029   4.632   1.600   1.136  0.8771  0.0899 -0.4154
  878MOL0     C21030   4.511   1.536   1.140  0.3414  0.1608 -1.0507
  878MOL0     C21031   4.487   1.438   1.238  0.1471 -0.0774  0.3739
  878MOL0     C21032   4.370   1.366   1.228 -0.3311  0.2138 -0.5947
  878MOL0     C21033   4.276   1.373   1.114 -0.5940 -0.2359  0.6561
  878MOL0     O21034   4.165   1.294   1.097 -0.1247  0.6938 -0.1395
  878MOL0     C21035   4.140   1.188   1.185  0.2973  0.0595 -0.3127
  878MOL0     C21036   4.198   1.058   1.121 -0.1235  0.7358 -0.0352
  878MOL0     C21037   4.113   0.995   1.003 -0.1610 -0.2075 -0.3925
  878MOL0     C21038   3.995   0.916   1.052  0.4617 -0.6686  0.3402
  878MOL0     C21039   3.921   0.852   0.939  0.4570  0.7974 -0.5654
  878MOL0     C21040   3.858   0.955   0.847  0.3800 -0.1766 -0.4312
  878MOL0     C21041   3.759   0.885   0.758 -0.6178 -0.2752 -0.1876
  878MOL0     C21042   3.687   0.971   0.656  1.2297  0.4192  0.0941
  878MOL0     N21043   3.580   1.065   0.710  0.7150 -0.1343 -0.0991
  878MOL0     C21044   3.480   1.014   0.787  0.2379  0.9509 -0.1412
  878MOL0     C21045   3.399   1.125   0.812 -0.1060  0.7252  0.3364
  878MOL0     C21046   3.265   1.124   0.888 -0.2296  0.1766 -1.8393
  878MOL0     C21047   3.157   1.035   0.826  0.6019 -0.7481 -0.2957
  878MOL0     C21048   3.072   1.131   0.742 -0.1422  0.5202 -0.0475
  878MOL0     C21049   2.953   1.059   0.671 -0.3723  0.1316  0.7932
  878MOL0     O21050   2.962   1.060   0.529  0.0307 -0.9058  0.0574
  878MOL0     C21051   2.859   1.032   0.451  0.3669  0.7836  0.1487
  878MOL0     C21052   2.738   0.965   0.490  0.3113 -0.1384 -0.4908
  878MOL0     C21053   2.623   0.944   0.401 -0.6106 -0.0198  1.3250
  878MOL0     C21054   2.498   0.881   0.449  0.2881 -0.1167  0.5674
  878MOL0     C21055   2.631   1.010   0.272 -0.3101 -0.1250  0.2468
  878MOL0     C21056   2.526   1.002   0.169  0.5807 -0.2979  1.1575
  878MOL0     O21057   2.511   1.096   0.071  0.1540 -0.5778 -0.6641
  878MOL0     C21058   2.402   1.078  -0.011 -0.4888 -0.6192 -0.1172
  878MOL0     C21059   2.291   1.154   0.009 -0.5802 -0.8106  0.5207
  878MOL0     C21060   2.183   1.143  -0.071  0.6134 -0.1826 -0.1690
  878MOL0     C21061   2.169   1.044  -0.174  0.2305 -0.2709  0.5553
  878MOL0     O21062   2.054   1.026  -0.241  0.3504  0.1597  0.4224
  878MOL0     C21063   1.987   1.146  -0.291  0.0239 -0.6844 -0.3676
  878MOL0     C21064   1.879   1.218  -0.208  0.2902 -0.3179 -0.3795
  878MOL0     C21065   1.759   1.122  -0.175 -0.4148 -1.1064  0.6106
  878MOL0     C21066   1.656   1.121  -0.278  0.9823  0.5206 -0.0252
  878MOL0     C21067   1.538   1.010  -0.250 -0.9037 -0.1435 -0.3857
  878MOL0     C21068   1.449   1.044  -0.122  0.5105 -0.8085 -0.1676
  878MOL0     C21069   1.307   0.996  -0.151 -0.4683 -0.0310  0.8330
  878MOL0     C21070   1.203   1.031  -0.046 -0.2597 -0.3545  0.1730
  878MOL0    Cl21071   1.026   1.036  -0.103  0.1142 -0.4797  0.4505
  878MOL0     C21072   2.289   0.980  -0.205  0.6750 -0.6055  1.2182
  878MOL0     C21073   2.400   0.989  -0.123 -0.0752 -0.6164 -0.3152
  878MOL0     O21074   2.466   0.904   0.168  0.5396  0.3081  0.1934
  878MOL0     C21075   2.750   1.071   0.231  0.5492 -0.6350  0.2121
  878MOL0     C21076   2.858   1.073   0.316 -0.6490 -1.0359 -0.7344
  878MOL0     N21077   3.450   1.231   0.745 -0.4266  0.4000  1.0547
  878MOL0     N21078   3.566   1.201   0.695 -0.0264  0.0845 -0.2269
  878MOL0     C21079   4.308   1.466   1.019  0.0617 -0.4106 -0.2696
  878MOL0     C21080   4.418   1.549   1.028  0.4014 -0.5693 -0.1265
  878MOL0     C21081   4.838   1.679   1.002 -0.4511  0.0114 -0.6704
  878MOL0     C21082   4.893   1.694   0.874 -0.5709  0.5377  0.4676
  878MOL0     C21083   5.023   1.750   0.848 -0.5430  0.2266 -0.2033
  878MOL0     C21084   5.094   1.784   0.957 -0.3012  0.2372 -0.4789
  878MOL0     O21085   5.228   1.817   0.944 -0.6903 -0.0218 -0.4927
  878MOL0     C21086   5.300   1.792   0.819  0.0893 -0.7874  0.6820
  878MOL0     C21087   5.444   1.823   0.853 -0.1585  0.3089  0.1762
  878MOL0     C21088   5.516   1.722   0.945 -0.3164  0.2548 -1.0601
  878MOL0     C21089   5.667   1.744   0.967  0.1770  0.0903 -0.8156
  878MOL0     C21090   5.751   1.723   0.849 -0.1204  0.6277  0.1966
  878MOL0     C21091   5.823   1.684   0.756  0.4266  0.0871  0.0558
  878MOL0     C21092   5.035   1.789   1.085  0.4451 -0.1204 -0.1256
  878MOL0     C21093   4.908   1.743   1.106  0.6972  0.3422 -0.4754
  878MOL0     C21094   4.853   1.754   1.249 -0.5090  1.4640  1.0448
  878MOL0     H21095   4.557   1.410   1.316  0.3052 -2.0015 -0.4135
  878MOL0     H21096   4.369   1.293   1.308 -1.2458 -0.1643 -0.9432
  878MOL0     H21097   4.032   1.189   1.200 -0.0471  2.1044 -2.2379
  878MOL0     H21098   4.177   1.195   1.288  0.7551 -2.3942 -0.2661
  878MOL0     H21099   4.296   1.083   1.081 -1.8349  4.5180 -2.4473
  878MOL0     H21100   4.204   0.983   1.201 -0.0487  1.9452  1.1236
  878MOL0     H21101   4.088   1.074   0.931  1.1368  2.6802  2.0921
  878MOL0     H21102   4.187   0.932   0.953 -0.5419 -1.3766  0.4841
  878MOL0     H21103   4.024   0.841   1.127 -1.1800 -2.0389 -0.3326
  878MOL0     H21104   3.924   0.977   1.108  0.7422 -1.4407  1.6049
  878MOL0     H21105   3.847   0.783   0.979 -0.2476  1.6220 -0.4259
  878MOL0     H21106   3.980   0.803   0.861 -1.0251  0.4264 -1.4896
  878MOL0     H21107   3.802   1.028   0.906 -2.5436  0.5148 -3.6811
  878MOL0     H21108   3.930   1.004   0.781  0.2089  0.3557 -0.2232
  878MOL0     H21109   3.684   0.841   0.824 -0.4057 -0.9006 -0.3555
  878MOL0     H21110   3.807   0.802   0.706  2.2714 -0.1326  1.9742
  878MOL0     H21111   3.745   1.031   0.586 -0.9942 -0.9606 -3.1441
  878MOL0     H21112   3.643   0.895   0.591  4.4241 -2.8853  1.4534
  878MOL0     H21113   3.451   0.918   0.827 -1.4713  1.0196 -1.1216
  878MOL0     H21114   3.233   1.227   0.908 -0.3195  0.2559 -2.3805
  878MOL0     H21115   3.288   1.086   0.989  2.2088  2.7231 -1.3067
  878MOL0     H21116   3.209   0.959   0.767 -0.0424 -0.1319 -1.6919
  878MOL0     H21117   3.103   0.977   0.901  1.4019 -3.0490 -1.4063
  878MOL0     H21118   3.040   1.211   0.808  2.8544  1.8721 -0.0870
  878MOL0     H21119   3.130   1.187   0.668  1.3864 -0.9037 -0.0060
  878MOL0     H21120   2.942   0.955   0.703 -1.3234 -0.7323 -2.0514
  878MOL0     H21121   2.861   1.108   0.706 -0.6960  0.7197 -0.8004
  878MOL0     H21122   2.731   0.912   0.585 -1.0888  0.4491 -0.2429
  878MOL0     H21123   2.498   0.774   0.426 -1.0606 -0.2189  0.9446
  878MOL0     H21124   2.408   0.927   0.408  0.6369 -1.2909 -1.6942
  878MOL0     H21125   2.500   0.885   0.558  1.1775 -0.2915  0.5659
  878MOL0     H21126   2.291   1.229   0.088 -2.0897 -0.0411 -0.1619
  878MOL0     H21127   2.100   1.191  -0.019 -2.1286 -3.0300 -1.5879
  878MOL0     H21128   2.067   1.216  -0.316  0.3096 -1.1777 -0.8558
  878MOL0     H21129   1.948   1.122  -0.390  1.6216 -0.3000 -1.1196
  878MOL0     H21130   1.922   1.254  -0.114  0.3306  1.6806 -1.1229
  878MOL0     H21131   1.845   1.308  -0.260 -0.0793  1.3886  2.6256
  878MOL0     H21132   1.708   1.156  -0.085  0.5683  0.1982  0.7027
  878MOL0     H21133   1.787   1.017  -0.159 -1.5346 -1.6501 -0.7935
  878MOL0     H21134   1.700   1.089  -0.374  2.1915 -2.1328  1.2989
  878MOL0     H21135   1.613   1.220  -0.292  0.4715  0.1896 -0.9118
  878MOL0     H21136   1.474   1.003  -0.338 -0.2462 -0.8550 -0.8180
  878MOL0     H21137   1.569   0.907  -0.235  1.1377  0.2877 -1.3059
  878MOL0     H21138   1.437   1.151  -0.100  0.3985 -1.2693  2.4030
  878MOL0     H21139   1.492   1.006  -0.028 -1.2648  0.6044  1.2873
  878MOL0     H21140   1.312   0.888  -0.171  1.3979  0.1353  0.1854
  878MOL0     H21141   1.268   1.047  -0.240 -1.4005  2.1015  2.3874
  878MOL0     H21142   1.236   1.127  -0.005 -0.9504  0.8962 -1.9779
  878MOL0     H21143   1.211   0.954   0.031 -2.6545 -1.0086 -0.1586
  878MOL0     H21144   2.281   0.921  -0.296  1.3829  0.5664  0.3635
  878MOL0     H21145   2.481   0.925  -0.156  0.7239  1.2184 -2.1047
  878MOL0     H21146   2.752   1.116   0.133 -0.0931 -1.7993 -0.3612
  878MOL0     H21147   2.950   1.116   0.276  0.9312 -2.8052  0.7859
  878MOL0     H21148   4.238   1.479   0.937 -0.5898  2.4242  0.6248
  878MOL0     H21149   4.421   1.628   0.954  0.3657  0.7152  1.1840
  878MOL0     H21150   4.847   1.649   0.787 -3.2506  3.5250  0.1252
  878MOL0     H21151   5.058   1.758   0.746 -0.7580 -0.4791 -0.3390
  878MOL0     H21152   5.292   1.691   0.777  0.5033 -0.4260 -0.2880
  878MOL0     H21153   5.263   1.854   0.737  0.2989 -1.1325  0.3215
  878MOL0     H21154   5.453   1.921   0.902 -1.4473 -0.3012  1.7060
  878MOL0     H21155   5.490   1.821   0.754  0.0582  0.7788  0.2623
  878MOL0     H21156   5.464   1.737   1.040  0.4177  2.0969 -0.9184
  878MOL0     H21157   5.501   1.623   0.900  0.0954  0.7357 -2.2850
  878MOL0     H21158   5.708   1.691   1.053  1.0930  0.2659 -1.1357
  878MOL0     H21159   5.673   1.849   0.997 -1.5243 -0.3067  1.2310
  878MOL0     H21160   5.883   1.659   0.671 -0.0249  2.5851 -1.0743
  878MOL0     H21161   5.097   1.812   1.171  2.0302 -2.9190 -0.3746
  878MOL0     H21162   4.788   1.842   1.251 -3.0559 -0.2862  0.3862
  878MOL0     H21163   4.805   1.666   1.292  0.1537  0.4497 -0.2143
  878MOL0     H21164   4.940   1.767   1.314  2.3219  0.0179 -2.0964
  879MOL0     O21165   1.853  10.932   0.516  0.7843  0.0787  0.3042
  879MOL0     C21166   1.770  10.844   0.553 -1.5386 -0.5618 -0.1087
  879MOL0     O21167   1.801  10.719   0.598 -0.0209  0.0615 -0.1062
  879MOL0     C21168   1.926  10.667   0.569 -0.1289  0.5513 -0.7369
  879MOL0     C21169   2.029  10.704   0.642 -0.5969  0.4788 -0.2297
  879MOL0     C21170   2.162  10.660   0.614  0.2461 -0.6962  0.4182
  879MOL0     C21171   2.183  10.574   0.504 -0.4705  0.9253 -0.3982
  879MOL0     O21172   2.307  10.514   0.476 -0.0760 -0.1221 -0.0529
  879MOL0     C21173   2.421  10.544   0.557 -0.5747  0.3082  0.5412
  879MOL0     C21174   2.548  10.489   0.501  0.2679  0.8841 -0.4267
  879MOL0     C21175   2.626  10.592   0.411 -0.4904 -0.2444  0.2575
  879MOL0     C21176   2.720  10.504   0.324  0.5441  0.3100 -0.3514
  879MOL0     C21177   2.784  10.594   0.209 -0.0303  0.6784  0.2140
  879MOL0     C21178   2.898  10.526   0.131  0.1499 -0.6936 -0.9489
  879MOL0     C21179   3.028  10.556   0.190 -0.2172  0.2257  0.2573
  879MOL0     C21180   3.059  10.472   0.320  0.6672  0.0767  0.1293
  879MOL0     N21181   3.208  10.455   0.324 -0.5734 -1.2995 -0.3954
  879MOL0     C21182   3.277  10.377   0.238  0.1674  0.7294  0.8668
  879MOL0     C21183   3.396  10.376   0.294 -0.4878  1.1865  0.1874
  879MOL0     C21184   3.515  10.288   0.251  0.5660  0.1194 -0.3281
  879MOL0     C21185   3.563  10.338   0.111  0.4318  0.5375 -0.5345
  879MOL0     C21186   3.672  10.447   0.122  0.0996  0.2191  0.6585
  879MOL0     C21187   3.803  10.389   0.059  0.5524 -0.6044  1.2348
  879MOL0     O21188   3.764  10.341  -0.071  0.2015 -0.0890  0.0682
  879MOL0     C21189   3.729  10.429  -0.166 -0.7387  0.4321  0.0959
  879MOL0     C21190   3.823  10.523  -0.213 -0.5942 -0.3501 -0.0017
  879MOL0     C21191   3.792  10.612  -0.311 -0.3816  0.3193  0.5753
  879MOL0     C21192   3.905  10.689  -0.372  0.2963 -0.6433  0.5848
  879MOL0     C21193   3.658  10.621  -0.360  0.4385  1.0378  0.3383
  879MOL0     C21194   3.613  10.716  -0.465 -0.3180  0.1298 -1.2838
  879MOL0     O21195   3.501  10.682  -0.543  0.3807  0.0927  0.5204
  879MOL0     C21196   3.474  10.763  -0.648 -0.6872  0.0944  0.5481
  879MOL0     C21197   3.336  10.775  -0.662  0.5153 -0.3330 -0.5665
  879MOL0     C21198   3.273  10.831  -0.773  0.2965  0.5102  0.2934
  879MOL0     C21199   3.351  10.887  -0.876  0.3587 -0.2222  0.1453
  879MOL0     O21200   3.306  10.950  -0.989 -0.2433  0.5261  0.0497
  879MOL0     C21201   3.193  11.027  -0.976 -1.0777  0.2819  0.3399
  879MOL0     C21202   3.160  11.119  -1.091  0.1572  1.1928  0.8548
  879MOL0     C21203   3.161  11.051  -1.231 -0.1517  0.4269 -0.7253
  879MOL0     C21204   3.179  11.152  -1.338 -0.5248  0.5183  0.3954
  879MOL0     C21205   3.093  11.280  -1.337 -0.7054  0.3494 -0.6014
  879MOL0     C21206   2.944  11.247  -1.335 -0.5304 -0.4891 -0.1034
  879MOL0     C21207   2.859  11.376  -1.351 -0.0400 -0.1882  0.7243
  879MOL0     C21208   2.708  11.369  -1.314  0.5029 -0.0579 -0.8732
  879MOL0    Cl21209   2.691  11.379  -1.138 -0.5217 -0.4648  0.2158
  879MOL0     C21210   3.492  10.867  -0.867 -0.5205  0.1534  0.0486
  879MOL0     C21211   3.553  10.809  -0.758 -0.1115 -0.0897 -0.5145
  879MOL0     O21212   3.672  10.825  -0.472  0.0884 -0.3767  1.2838
  879MOL0     C21213   3.562  10.522  -0.318  0.0829  0.0593  0.4906
  879MOL0     C21214   3.600  10.432  -0.213 -0.0022 -1.4022 -0.1869
  879MOL0     N21215   3.401  10.465   0.404  0.1427 -0.4420  0.1582
  879MOL0     N21216   3.287  10.503   0.420 -0.8456 -0.8710 -0.2829
  879MOL0     C21217   2.069  10.544   0.420 -0.3856  0.1156  0.4486
  879MOL0     C21218   1.942  10.592   0.455 -0.3986  0.4899 -0.8966
  879MOL0     C21219   1.630  10.870   0.579 -0.6938 -0.1677  0.8588
  879MOL0     C21220   1.563  10.782   0.673 -0.5400  0.1171 -0.1221
  879MOL0     C21221   1.425  10.789   0.686 -0.8502  0.2471  0.3432
  879MOL0     C21222   1.346  10.885   0.626  0.8918 -0.2104 -0.7572
  879MOL0     O21223   1.210  10.880   0.668 -0.3553  0.5893  0.2648
  879MOL0     C21224   1.121  10.961   0.592  0.4487 -0.4451  0.6267
  879MOL0     C21225   1.117  11.112   0.629  0.2055 -0.5537 -0.1950
  879MOL0     C21226   1.094  11.131   0.782  0.2070 -0.6547 -0.1463
  879MOL0     C21227   1.213  11.129   0.878 -0.1117 -0.1293  0.1407
  879MOL0     C21228   1.341  11.171   0.823  0.8047 -0.0108 -1.2771
  879MOL0     C21229   1.446  11.210   0.784  0.2983  0.2932  0.2314
  879MOL0     C21230   1.411  10.966   0.531  1.0017  0.5650 -1.1021
  879MOL0     C21231   1.550  10.964   0.509  0.1108 -0.8904 -0.2648
  879MOL0     C21232   1.599  11.064   0.403  0.5230  0.4376  0.0527
  879MOL0     H21233   2.009  10.763   0.731 -1.2423 -0.5669  0.3504
  879MOL0     H21234   2.240  10.685   0.686  0.6075 -0.3366 -0.0884
  879MOL0     H21235   2.392  10.498   0.652 -0.2634 -3.2855 -0.9579
  879MOL0     H21236   2.427  10.653   0.566  0.7977  0.1729  1.5893
  879MOL0     H21237   2.603  10.475   0.595 -1.3874  0.8803  0.5853
  879MOL0     H21238   2.523  10.396   0.450  1.5746  0.6714 -0.7149
  879MOL0     H21239   2.555  10.638   0.341 -0.6877 -0.5398  0.2638
  879MOL0     H21240   2.669  10.674   0.469  1.3251 -0.6476 -0.4546
  879MOL0     H21241   2.795  10.453   0.385 -0.8946 -2.7881 -0.9967
  879MOL0     H21242   2.660  10.431   0.269 -1.6532  2.9394 -1.6877
  879MOL0     H21243   2.815  10.690   0.250  0.9952  0.7214 -0.6227
  879MOL0     H21244   2.712  10.624   0.133 -2.2625 -1.6738  1.2448
  879MOL0     H21245   2.875  10.420   0.122  1.0606 -1.2067  1.8250
  879MOL0     H21246   2.898  10.569   0.030 -0.3591  2.8419  0.3845
  879MOL0     H21247   3.038  10.664   0.206  0.2577  0.3103 -0.5504
  879MOL0     H21248   3.096  10.530   0.108  0.3083 -1.5133  1.1841
  879MOL0     H21249   3.018  10.517   0.410 -0.8923  0.0339 -0.5312
  879MOL0     H21250   3.004  10.378   0.306 -0.0668  0.4025  0.7489
  879MOL0     H21251   3.229  10.333   0.152 -0.7340  2.2688  0.5488
  879MOL0     H21252   3.492  10.181   0.238 -0.2898  0.5598 -2.8116
  879MOL0     H21253   3.594  10.295   0.326 -1.1213 -0.1428  1.5655
  879MOL0     H21254   3.587  10.246   0.057  1.8673  0.6346 -0.0985
  879MOL0     H21255   3.487  10.397   0.059  0.9490  1.6872 -0.0202
  879MOL0     H21256   3.641  10.539   0.071 -1.3395 -0.5927  0.0397
  879MOL0     H21257   3.691  10.480   0.225  2.0588  1.7368 -0.1215
  879MOL0     H21258   3.878  10.469   0.063 -2.1949  2.1262  1.9183
  879MOL0     H21259   3.840  10.309   0.124  1.3720 -0.1738  1.3136
  879MOL0     H21260   3.925  10.510  -0.180 -0.1110 -2.3212 -1.9973
  879MOL0     H21261   3.903  10.678  -0.481  1.4501 -4.7502  0.8445
  879MOL0     H21262   4.003  10.657  -0.337  1.6242  1.5643 -0.8209
  879MOL0     H21263   3.892  10.794  -0.343 -1.1002 -0.7792  0.4908
  879MOL0     H21264   3.253  10.739  -0.601 -1.5289  3.0247 -1.0952
  879MOL0     H21265   3.165  10.824  -0.778  0.3305  0.3859 -0.3298
  879MOL0     H21266   3.110  10.957  -0.969 -2.6401  1.9909 -0.2670
  879MOL0     H21267   3.205  11.091  -0.888  1.1018  0.7459 -0.2214
  879MOL0     H21268   3.066  11.170  -1.067  0.0794  1.4248  0.0836
  879MOL0     H21269   3.228  11.204  -1.098  0.9768  0.9281  3.9826
  879MOL0     H21270   3.070  10.992  -1.248  0.7432 -1.5210  0.8618
  879MOL0     H21271   3.237  10.973  -1.225 -1.7408 -1.0817  3.3479
  879MOL0     H21272   3.177  11.116  -1.442  0.8383  1.0205  0.1670
  879MOL0     H21273   3.283  11.187  -1.336 -0.7680  1.4553 -1.2426
  879MOL0     H21274   3.115  11.336  -1.246 -1.7979 -1.1130  0.5932
  879MOL0     H21275   3.126  11.344  -1.420  0.7463  1.7726  0.9793
  879MOL0     H21276   2.905  11.201  -1.244  1.8696 -1.8284  0.3147
  879MOL0     H21277   2.928  11.173  -1.414  2.6995 -4.2746  2.4154
  879MOL0     H21278   2.875  11.420  -1.450 -1.6514  0.0806  0.5683
  879MOL0     H21279   2.896  11.455  -1.284 -1.0517  0.2604  0.7692
  879MOL0     H21280   2.667  11.283  -1.366  1.4959 -2.3583  1.8882
  879MOL0     H21281   2.661  11.456  -1.362  0.2276 -0.6057 -1.6019
  879MOL0     H21282   3.559  10.903  -0.945  0.1335  3.3934  1.9108
  879MOL0     H21283   3.659  10.809  -0.736 -0.6065  1.8771  2.4128
  879MOL0     H21284   3.458  10.522  -0.349  0.2108 -0.0592  0.0519
  879MOL0     H21285   3.523  10.365  -0.176 -0.7786 -1.9478 -2.5572
  879MOL0     H21286   2.083  10.471   0.340 -1.0838 -2.0671  2.2151
  879MOL0     H21287   1.852  10.567   0.400 -1.2231 -0.6689  0.8944
  879MOL0     H21288   1.612  10.699   0.723  1.5915  0.4663 -1.4818
  879MOL0     H21289   1.384  10.709   0.747  0.5184 -1.4686 -0.8990
  879MOL0     H21290   1.125  10.947   0.483  2.7558 -0.4629  0.6701
  879MOL0     H21291   1.025  10.913   0.612  1.3726 -2.5776  0.1869
  879MOL0     H21292   1.039  11.161   0.569  0.9721  0.1487 -0.6431
  879MOL0     H21293   1.206  11.169   0.602  1.4640 -2.1522  0.4095
  879MOL0     H21294   1.042  11.225   0.804  2.7585  1.0605 -1.0000
  879MOL0     H21295   1.020  11.058   0.817 -0.9665  0.8444  0.6193
  879MOL0     H21296   1.226  11.027   0.916 -3.0450 -0.9312 -0.7703
  879MOL0     H21297   1.192  11.203   0.955 -0.5455  0.8608 -0.9082
  879MOL0     H21298   1.540  11.238   0.740 -1.1773  0.9152 -2.7845
  879MOL0     H21299   1.344  11.034   0.478 -0.9895 -2.0843 -2.2093
  879MOL0     H21300   1.602  11.167   0.440 -2.4765  1.9349 -3.2444
  879MOL0     H21301   1.697  11.029   0.370  0.1764  0.4668 -1.0455
  879MOL0     H21302   1.529  11.077   0.320  0.7841  0.7719 -0.1176
  880MOL0     O21303   4.890  10.585   6.138 -0.0248 -0.3919  0.6751
  880MOL0     C21304   4.874  10.565   6.259  0.2668 -0.7611 -0.5551
  880MOL0     O21305   4.773  10.611   6.337  0.0554  0.3530  0.0736
  880MOL0     C21306   4.652  10.609   6.284  0.0733 -0.0463  0.0741
  880MOL0     C21307   4.562  10.672   6.361  1.1116 -0.0782 -0.0371
  880MOL0     C21308   4.419  10.649   6.345  0.4466  0.3293  1.2070
  880MOL0     C21309   4.374  10.564   6.246 -0.2221  0.1207  0.4277
  880MOL0     O21310   4.239  10.545   6.236 -0.5235 -0.4583  0.4622
  880MOL0     C21311   4.190  10.440   6.143  0.2974 -0.8014  0.2675
  880MOL0     C21312   4.042  10.424   6.168  0.3335 -0.5257 -1.2127
  880MOL0     C21313   4.009  10.387   6.314 -0.1329  0.2077  0.4432
  880MOL0     C21314   3.864  10.401   6.364 -0.3302  0.6646  0.1398
  880MOL0     C21315   3.857  10.381   6.516  0.4447  0.5811 -0.0974
  880MOL0     C21316   3.710  10.378   6.560  0.7548 -0.0713 -0.5477
  880MOL0     C21317   3.634  10.257   6.521  0.5507  0.7767  0.0826
  880MOL0     C21318   3.521  10.241   6.620 -0.1886  0.3575  0.4324
  880MOL0     N21319   3.414  10.172   6.558 -0.2283  0.1489  0.4831
  880MOL0     C21320   3.418  10.041   6.498 -0.6508 -0.4709 -0.6721
  880MOL0     C21321   3.292  10.012   6.461 -0.5944 -0.5164 -0.7020
  880MOL0     C21322   3.245   9.879   6.396  0.2747 -0.2836  0.2651
  880MOL0     C21323   3.100   9.876   6.341 -0.3766 -0.7648 -0.0124
  880MOL0     C21324   3.054   9.727   6.331  0.5864  1.0810  0.2209
  880MOL0     C21325   2.914   9.706   6.265 -0.6289  0.2491 -0.1254
  880MOL0     O21326   2.819   9.728   6.369 -0.0353  0.6195 -0.2686
  880MOL0     C21327   2.698   9.665   6.362 -0.1498 -0.5409 -0.2002
  880MOL0     C21328   2.643   9.619   6.479 -0.2219 -0.8561 -0.7410
  880MOL0     C21329   2.519   9.555   6.477 -0.4328 -0.2022 -0.1737
  880MOL0     C21330   2.481   9.512   6.617  0.3375  0.1162 -0.3269
  880MOL0     C21331   2.442   9.538   6.357 -0.0840  0.2581 -0.6204
  880MOL0     C21332   2.304   9.476   6.357 -0.9814  0.3889  0.1142
  880MOL0     O21333   2.283   9.373   6.446  0.1561 -0.2608  0.2783
  880MOL0     C21334   2.153   9.330   6.456  0.1906 -0.0555 -0.1694
  880MOL0     C21335   2.071   9.420   6.533  0.2884 -0.0848 -0.2270
  880MOL0     C21336   1.936   9.379   6.550 -0.2255 -0.2792 -0.5691
  880MOL0     C21337   1.885   9.258   6.499  0.5400  0.6672  0.5372
  880MOL0     O21338   1.757   9.229   6.532  0.3781  0.4424  0.1817
  880MOL0     C21339   1.734   9.100   6.599 -0.3669 -0.2825  0.1607
  880MOL0     C21340   1.823   9.078   6.721  0.1268 -0.1827  1.0351
  880MOL0     C21341   1.781   9.183   6.832 -0.5465 -0.3787  0.8222
  880MOL0     C21342   1.857   9.147   6.955 -0.0753  0.4384  0.1651
  880MOL0     C21343   1.823   9.242   7.070 -0.8338 -0.1631 -0.0184
  880MOL0     C21344   1.903   9.203   7.196  0.1968  0.4600 -0.1071
  880MOL0     C21345   1.885   9.302   7.314 -1.3060  0.0131  1.1078
  880MOL0     C21346   1.971   9.267   7.439  0.7293 -0.6656  0.2424
  880MOL0    Cl21347   2.132   9.334   7.423 -0.2368 -0.1176  0.1556
  880MOL0     C21348   1.968   9.177   6.427  0.2414  0.1903 -0.5625
  880MOL0     C21349   2.098   9.215   6.404  0.3505  0.0372 -0.3796
  880MOL0     O21350   2.232   9.509   6.265 -0.0519  0.3109  0.0382
  880MOL0     C21351   2.501   9.591   6.241 -0.0803  0.9434  0.4467
  880MOL0     C21352   2.627   9.654   6.243 -0.3284  0.1482 -0.5751
  880MOL0     N21353   3.214  10.123   6.505 -0.2276 -0.6377  0.5311
  880MOL0     N21354   3.284  10.212   6.557  0.0108 -0.3102 -0.4009
  880MOL0     C21355   4.468  10.519   6.153  0.4760 -0.6788 -0.7395
  880MOL0     C21356   4.604  10.547   6.166 -0.4955 -0.5555  0.4306
  880MOL0     C21357   4.982  10.491   6.328  0.6444  0.1824 -0.8277
  880MOL0     C21358   5.091  10.452   6.249 -0.1491 -0.4507  0.2567
  880MOL0     C21359   5.190  10.367   6.298  0.2088  0.0045 -0.0651
  880MOL0     C21360   5.180  10.323   6.428 -0.2505  0.1582 -0.0375
  880MOL0     O21361   5.278  10.237   6.483 -0.0842  0.2298 -0.1444
  880MOL0     C21362   5.402  10.209   6.409 -0.1231  0.7036 -0.6767
  880MOL0     C21363   5.504  10.141   6.508  0.4154  0.4414  0.3142
  880MOL0     C21364   5.649  10.120   6.458  0.2707  0.2688  0.1152
  880MOL0     C21365   5.738  10.120   6.584 -0.7434  1.0564 -0.1297
  880MOL0     C21366   5.871  10.064   6.562  0.9228 -0.0294 -0.4079
  880MOL0     C21367   5.972  10.001   6.546  0.0552 -0.3603  0.0098
  880MOL0     C21368   5.070  10.351   6.504 -0.3424 -0.5796 -0.0862
  880MOL0     C21369   4.974  10.439   6.462 -0.7566  0.5138 -0.8162
  880MOL0     C21370   4.853  10.464   6.551  0.0136  0.0440  0.8996
  880MOL0     H21371   4.591  10.731   6.447  0.8732  0.1889 -0.1395
  880MOL0     H21372   4.354  10.697   6.418 -1.2952  0.2777 -0.2202
  880MOL0     H21373   4.246  10.348   6.162 -1.6969 -1.3588  4.8278
  880MOL0     H21374   4.198  10.475   6.039 -1.2325  1.3531  0.8003
  880MOL0     H21375   3.993  10.521   6.155  0.1854 -0.4736 -0.3059
  880MOL0     H21376   4.006  10.349   6.097  1.6658 -0.2355 -2.2376
  880MOL0     H21377   4.037  10.284   6.335  1.6000  0.7140  0.7286
  880MOL0     H21378   4.070  10.445   6.383  1.0315 -0.9255  0.3857
  880MOL0     H21379   3.830  10.503   6.344 -3.5755 -0.5324 -1.2110
  880MOL0     H21380   3.807  10.328   6.305  2.5126 -0.0447 -1.9282
  880MOL0     H21381   3.905  10.463   6.570  1.7594  0.5590 -1.1687
  880MOL0     H21382   3.905  10.288   6.548 -0.3479 -0.5410 -1.9405
  880MOL0     H21383   3.702  10.387   6.668 -3.6076  3.9578 -0.8764
  880MOL0     H21384   3.659  10.467   6.521 -1.1090 -0.0465  1.7225
  880MOL0     H21385   3.698  10.170   6.534  0.9216  1.3377  2.6583
  880MOL0     H21386   3.597  10.274   6.420  3.7414  1.9611 -1.0325
  880MOL0     H21387   3.553  10.175   6.701 -1.3094 -0.3645  0.3214
  880MOL0     H21388   3.473  10.334   6.650 -1.1254  0.1411 -0.3163
  880MOL0     H21389   3.512   9.988   6.482 -0.4371 -0.5391  0.7265
  880MOL0     H21390   3.249   9.810   6.481 -2.1754  0.6836  1.2814
  880MOL0     H21391   3.321   9.858   6.320 -0.8642 -0.9603 -0.7134
  880MOL0     H21392   3.045   9.927   6.419  2.0029  0.8799  0.6963
  880MOL0     H21393   3.099   9.928   6.245  0.7457 -0.4630  0.1184
  880MOL0     H21394   3.125   9.668   6.272 -2.7661 -0.8993 -2.1894
  880MOL0     H21395   3.035   9.693   6.433 -0.1450  0.2344 -0.1874
  880MOL0     H21396   2.901   9.779   6.185 -0.2936 -0.8216 -1.1735
  880MOL0     H21397   2.912   9.606   6.221  3.1281  0.3607 -0.9393
  880MOL0     H21398   2.698   9.642   6.569 -0.5836 -1.5346 -0.3424
  880MOL0     H21399   2.526   9.581   6.689  0.9455 -0.9705  0.3526
  880MOL0     H21400   2.517   9.417   6.656 -0.7034  1.0656  3.3411
  880MOL0     H21401   2.372   9.508   6.627  0.3276 -0.3145 -0.5935
  880MOL0     H21402   2.112   9.516   6.563 -1.0068  0.8987 -1.5195
  880MOL0     H21403   1.860   9.428   6.609  1.4677  0.0813  1.4285
  880MOL0     H21404   1.628   9.098   6.626 -1.0650  2.0249 -2.0355
  880MOL0     H21405   1.754   9.016   6.532  3.1252  0.8727 -0.4498
  880MOL0     H21406   1.805   8.973   6.745 -1.3281 -0.5056 -1.2199
  880MOL0     H21407   1.924   9.094   6.684 -0.9436 -0.2583 -2.2638
  880MOL0     H21408   1.672   9.186   6.838 -0.7604  1.0141 -2.1614
  880MOL0     H21409   1.805   9.284   6.798 -1.8937 -1.0931 -2.6329
  880MOL0     H21410   1.963   9.145   6.927  0.0871 -0.7861  0.8054
  880MOL0     H21411   1.834   9.046   6.990  0.8573  0.0847 -0.2238
  880MOL0     H21412   1.856   9.340   7.033  1.6886  0.5609  3.6059
  880MOL0     H21413   1.716   9.251   7.093 -0.4799 -2.6357  3.3579
  880MOL0     H21414   2.006   9.209   7.159 -0.0787  0.1821 -0.9321
  880MOL0     H21415   1.866   9.107   7.232 -0.3149  0.7643  0.1973
  880MOL0     H21416   1.776   9.303   7.326 -1.8878  0.0784 -2.6604
  880MOL0     H21417   1.907   9.405   7.282 -3.7191 -0.4446 -2.6011
  880MOL0     H21418   1.982   9.159   7.449  0.5039 -0.7232 -0.1409
  880MOL0     H21419   1.930   9.309   7.532  1.6882  0.8995  0.0022
  880MOL0     H21420   1.937   9.083   6.384 -1.4334  1.1745 -1.6386
  880MOL0     H21421   2.162   9.146   6.350 -4.0948 -4.3365 -0.7862
  880MOL0     H21422   2.442   9.598   6.150 -0.5484  2.1859  0.8353
  880MOL0     H21423   2.673   9.680   6.148 -0.4603  1.0737 -0.3901
  880MOL0     H21424   4.444  10.463   6.064 -1.4227  0.1149 -0.7732
  880MOL0     H21425   4.662  10.503   6.086  0.2100  0.8338  0.1417
  880MOL0     H21426   5.093  10.476   6.143  1.7387 -3.2585 -0.4671
  880MOL0     H21427   5.268  10.335   6.230  1.1633  0.1968  0.9210
  880MOL0     H21428   5.381  10.137   6.328  0.2295  1.1122 -1.1364
  880MOL0     H21429   5.444  10.299   6.365 -1.9821  0.8296 -2.3461
  880MOL0     H21430   5.466  10.042   6.536  1.8465  0.2090  1.5679
  880MOL0     H21431   5.496  10.194   6.603 -0.3975 -0.7988  0.9640
  880MOL0     H21432   5.655  10.040   6.385  2.6761  0.7293 -0.3084
  880MOL0     H21433   5.673  10.203   6.390  0.1445  1.6624  1.6989
  880MOL0     H21434   5.678  10.052   6.645 -2.4868  1.9595 -0.7806
  880MOL0     H21435   5.742  10.218   6.635 -2.8705  1.4551 -0.6502
  880MOL0     H21436   6.056   9.941   6.517 -0.1571 -0.1645 -1.0724
  880MOL0     H21437   5.064  10.329   6.610 -1.3567  0.6642  0.1324
  880MOL0     H21438   4.760  10.417   6.516 -0.1075  2.2477 -2.0862
  880MOL0     H21439   4.876  10.429   6.652  1.1536  2.2901  1.4775
  880MOL0     H21440   4.823  10.568   6.560  1.8108  0.6636  0.2204
  881MOL0     O21441   5.569   0.037   3.411  0.3915 -0.5141 -0.5619
  881MOL0     C21442   5.655   0.018   3.323  0.0624 -0.3359 -0.8138
  881MOL0     O21443   5.784  -0.011   3.348  0.0555 -0.3167 -0.4141
  881MOL0     C21444   5.819  -0.046   3.476  0.5511 -0.3319  0.3380
  881MOL0     C21445   5.893   0.041   3.549  1.3007  0.0214 -0.1097
  881MOL0     C21446   5.919   0.011   3.686 -0.8776 -0.2500  0.9423
  881MOL0     C21447   5.877  -0.108   3.747 -0.6424  1.3840  0.8378
  881MOL0     O21448   5.895  -0.124   3.886  0.2636 -0.3576  0.4335
  881MOL0     C21449   5.855  -0.249   3.938  0.7322  0.2271 -0.0012
  881MOL0     C21450   5.712  -0.224   3.979 -0.0896  0.0528 -0.1629
  881MOL0     C21451   5.650  -0.347   4.042 -0.6244 -0.3514 -0.5664
  881MOL0     C21452   5.511  -0.386   3.996  0.2802 -0.3120 -0.2632
  881MOL0     C21453   5.472  -0.523   4.046 -0.1182 -0.0048  0.1648
  881MOL0     C21454   5.331  -0.559   3.991 -0.7485 -0.2096 -0.0357
  881MOL0     C21455   5.291  -0.697   4.039  0.3454  0.1369  0.7125
  881MOL0     C21456   5.208  -0.777   3.940 -0.4123 -0.0307 -0.9647
  881MOL0     N21457   5.183  -0.920   3.986 -0.0048 -0.9413  0.7986
  881MOL0     C21458   5.136  -0.960   4.113 -0.4150  0.0326 -0.9374
  881MOL0     C21459   5.130  -1.093   4.094 -0.0725 -0.1863 -0.2543
  881MOL0     C21460   5.094  -1.208   4.189 -0.1554 -0.4553 -0.8605
  881MOL0     C21461   5.220  -1.289   4.225 -0.3188  0.0026 -0.0295
  881MOL0     C21462   5.341  -1.212   4.270  1.1030  0.1386  0.7609
  881MOL0     C21463   5.311  -1.113   4.382 -0.6823  0.0665  0.3633
  881MOL0     O21464   5.437  -1.104   4.459 -0.2541 -0.5642 -0.0960
  881MOL0     C21465   5.507  -0.987   4.448 -1.6490 -0.6929  0.2830
  881MOL0     C21466   5.580  -0.960   4.559 -0.1833 -0.7209  0.2786
  881MOL0     C21467   5.662  -0.842   4.567  0.3502  0.9768  0.4523
  881MOL0     C21468   5.725  -0.826   4.701  0.2224 -0.2959 -1.1542
  881MOL0     C21469   5.670  -0.758   4.449  0.1793 -0.2381 -0.1495
  881MOL0     C21470   5.738  -0.629   4.449  0.3628  0.1643  0.4264
  881MOL0     O21471   5.779  -0.594   4.327 -0.8410 -0.1764 -0.7099
  881MOL0     C21472   5.887  -0.505   4.313  0.3906  0.1144 -0.1132
  881MOL0     C21473   5.900  -0.382   4.376  0.4886 -0.4190 -0.0199
  881MOL0     C21474   6.005  -0.301   4.365 -0.8503  0.8605 -0.3598
  881MOL0     C21475   6.109  -0.343   4.276 -0.3124 -0.7197 -0.0403
  881MOL0     O21476   6.224  -0.270   4.287 -0.6362 -0.0329  0.1330
  881MOL0     C21477   6.352  -0.327   4.233 -0.6765 -0.2645  0.4786
  881MOL0     C21478   6.462  -0.214   4.238  0.6221  0.6700  0.9223
  881MOL0     C21479   6.417  -0.086   4.155 -0.5914 -0.3897 -0.2147
  881MOL0     C21480   6.397   0.030   4.254  0.4381 -0.9781  0.1316
  881MOL0     C21481   6.325   0.156   4.195  0.1157  0.4557  1.0929
  881MOL0     C21482   6.335   0.275   4.284 -0.5996  0.1395  0.6593
  881MOL0     C21483   6.274   0.395   4.201 -0.0254  0.0112  0.0395
  881MOL0     C21484   6.349   0.447   4.074 -0.7799 -0.2870 -0.3188
  881MOL0    Cl21485   6.532   0.432   4.085 -0.1208 -0.2850  0.5043
  881MOL0     C21486   6.103  -0.462   4.206 -0.7002 -0.3431 -0.9020
  881MOL0     C21487   5.994  -0.547   4.223  0.6950 -0.8276  0.4256
  881MOL0     O21488   5.761  -0.564   4.553  0.2422 -0.4023 -0.6026
  881MOL0     C21489   5.587  -0.793   4.338  0.1552 -0.4958  0.2282
  881MOL0     C21490   5.507  -0.899   4.339  1.2256 -0.0436 -0.0727
  881MOL0     N21491   5.163  -1.126   3.969  0.6005  0.7228 -0.1972
  881MOL0     N21492   5.191  -1.022   3.899  0.4854  0.2066  0.2401
  881MOL0     C21493   5.822  -0.204   3.660  0.9444  0.6372 -0.8536
  881MOL0     C21494   5.794  -0.178   3.523 -0.3049 -0.8845 -0.3397
  881MOL0     C21495   5.626   0.024   3.174  0.9678  0.4614 -0.5310
  881MOL0     C21496   5.733   0.024   3.083  0.2715 -0.7007 -0.3170
  881MOL0     C21497   5.718   0.031   2.944  0.4461  0.3970 -0.6840
  881MOL0     C21498   5.589   0.044   2.894  0.2621  0.0137  0.7844
  881MOL0     O21499   5.576   0.050   2.754 -0.7057  0.0163  0.3677
  881MOL0     C21500   5.450   0.073   2.686 -0.7355  0.3018 -0.2264
  881MOL0     C21501   5.486   0.077   2.547  0.2546 -0.7167 -1.4475
  881MOL0     C21502   5.519  -0.063   2.496  0.1059 -0.7985 -0.6087
  881MOL0     C21503   5.579  -0.065   2.357  0.4300 -0.6247  0.1667
  881MOL0     C21504   5.641  -0.197   2.327  0.3197 -0.6650 -0.2398
  881MOL0     C21505   5.663  -0.311   2.325 -0.4871  0.2583  0.8903
  881MOL0     C21506   5.476   0.049   2.979 -1.2002  0.1348 -0.0968
  881MOL0     C21507   5.494   0.035   3.118 -0.5976 -0.3583  0.4025
  881MOL0     C21508   5.363   0.025   3.192 -0.2355 -0.6739  0.9774
  881MOL0     H21509   5.932   0.134   3.508  1.8887 -0.4014 -0.5269
  881MOL0     H21510   5.964   0.093   3.741  2.5169 -0.5621 -1.1359
  881MOL0     H21511   5.930  -0.269   4.015 -0.3405 -0.1729  0.9684
  881MOL0     H21512   5.869  -0.331   3.867  3.3005  1.3270 -0.8793
  881MOL0     H21513   5.703  -0.154   4.063  0.3999 -2.6078  2.2737
  881MOL0     H21514   5.651  -0.195   3.893 -0.1565 -1.4349 -0.6491
  881MOL0     H21515   5.706  -0.436   4.014 -1.0703 -0.8797  0.2088
  881MOL0     H21516   5.667  -0.327   4.148 -0.7935 -0.0405 -0.5967
  881MOL0     H21517   5.432  -0.314   4.021 -0.0071 -0.1857 -1.4358
  881MOL0     H21518   5.516  -0.379   3.887 -0.9811 -2.1369 -0.4913
  881MOL0     H21519   5.463  -0.524   4.155 -1.3520 -0.5514  0.0723
  881MOL0     H21520   5.536  -0.606   4.015 -1.3551 -1.0055  0.2093
  881MOL0     H21521   5.255  -0.483   4.013 -1.0375 -1.0927  2.3823
  881MOL0     H21522   5.345  -0.563   3.883  0.5818  0.8923  0.0661
  881MOL0     H21523   5.233  -0.682   4.131  1.3233 -0.9919  1.5405
  881MOL0     H21524   5.376  -0.759   4.067  1.3154  1.3974  0.6514
  881MOL0     H21525   5.114  -0.730   3.911 -1.5659  0.3368  2.7778
  881MOL0     H21526   5.261  -0.794   3.846  0.9936 -1.1818 -0.0135
  881MOL0     H21527   5.098  -0.905   4.199  1.0304  1.0282 -0.8874
  881MOL0     H21528   5.007  -1.264   4.152 -0.4096  0.5452 -1.8172
  881MOL0     H21529   5.056  -1.154   4.276 -0.0060 -2.4935  0.5622
  881MOL0     H21530   5.188  -1.360   4.301 -1.6878 -0.1327 -0.7013
  881MOL0     H21531   5.249  -1.344   4.135  1.2472 -0.0318  0.4641
  881MOL0     H21532   5.413  -1.283   4.313  1.3683  0.3681  0.6999
  881MOL0     H21533   5.383  -1.157   4.185  0.7297 -0.7008  0.0132
  881MOL0     H21534   5.280  -1.015   4.344 -0.4178  0.8874  2.1349
  881MOL0     H21535   5.232  -1.155   4.445 -1.6655 -0.1104 -0.9521
  881MOL0     H21536   5.578  -1.024   4.646 -1.3822 -0.8211  0.1908
  881MOL0     H21537   5.760  -0.925   4.732  1.7906 -0.4091 -3.1104
  881MOL0     H21538   5.650  -0.776   4.764 -0.3971 -0.7536 -1.5183
  881MOL0     H21539   5.814  -0.763   4.697  0.2293  0.0358  1.7981
  881MOL0     H21540   5.822  -0.338   4.438  0.6156  0.3507 -0.3815
  881MOL0     H21541   6.018  -0.217   4.433 -0.3567  1.3398 -1.0293
  881MOL0     H21542   6.380  -0.412   4.296 -2.3328 -0.2645  1.2405
  881MOL0     H21543   6.351  -0.367   4.131 -1.2815 -1.9017  1.0969
  881MOL0     H21544   6.497  -0.188   4.338 -1.6880 -0.3739  2.0786
  881MOL0     H21545   6.555  -0.251   4.192 -1.1526 -3.6872  0.3048
  881MOL0     H21546   6.332  -0.116   4.092  0.0479  0.7081 -1.6584
  881MOL0     H21547   6.502  -0.061   4.091 -0.1681  2.6077  1.3485
  881MOL0     H21548   6.490   0.071   4.293 -0.3679 -0.0991  1.1897
  881MOL0     H21549   6.322   0.003   4.328 -4.6938  1.0257 -3.6599
  881MOL0     H21550   6.372   0.176   4.098  1.6491 -3.1821  0.9562
  881MOL0     H21551   6.220   0.137   4.169  0.5555  0.9364 -1.3151
  881MOL0     H21552   6.441   0.292   4.304 -0.4977 -0.6864  0.8741
  881MOL0     H21553   6.271   0.257   4.371 -3.1387 -0.9222 -1.2953
  881MOL0     H21554   6.249   0.485   4.256 -2.1667 -0.2994 -0.3448
  881MOL0     H21555   6.175   0.364   4.167 -0.2560 -0.0247  0.7357
  881MOL0     H21556   6.319   0.552   4.071 -1.6678 -0.3181  3.3155
  881MOL0     H21557   6.323   0.384   3.988 -1.1545  0.4715 -0.7667
  881MOL0     H21558   6.191  -0.482   4.145  0.1084  0.3296  0.0104
  881MOL0     H21559   5.987  -0.637   4.162  1.8689  0.5897 -1.9474
  881MOL0     H21560   5.584  -0.730   4.250  0.2961 -0.9331 -0.0942
  881MOL0     H21561   5.448  -0.912   4.249 -2.1843  1.8368  1.6929
  881MOL0     H21562   5.802  -0.307   3.689 -0.1956  1.0532 -0.0933
  881MOL0     H21563   5.735  -0.237   3.454 -0.3308  0.3986 -1.4642
  881MOL0     H21564   5.833   0.036   3.124 -0.5500 -0.9690  1.8974
  881MOL0     H21565   5.807   0.029   2.881 -1.2041 -1.5235 -3.1632
  881MOL0     H21566   5.388  -0.013   2.712 -1.3773  0.4721 -1.1702
  881MOL0     H21567   5.400   0.163   2.722 -2.9238 -1.5034  1.5462
  881MOL0     H21568   5.574   0.139   2.531 -2.1419  2.9658 -1.6851
  881MOL0     H21569   5.400   0.118   2.492 -1.8703  0.3059  2.2855
  881MOL0     H21570   5.595  -0.106   2.561 -0.2013 -1.5965 -0.7698
  881MOL0     H21571   5.430  -0.126   2.503  0.6094 -1.6059 -1.3894
  881MOL0     H21572   5.646   0.020   2.345 -0.0572 -0.3310 -0.5249
  881MOL0     H21573   5.491  -0.051   2.295 -0.5616 -3.2755  0.8080
  881MOL0     H21574   5.678  -0.417   2.335 -1.9907 -0.1096 -0.4071
  881MOL0     H21575   5.378   0.070   2.937 -1.2856 -0.7168 -0.3392
  881MOL0     H21576   5.337  -0.058   3.258 -3.1886 -0.5828  0.0433
  881MOL0     H21577   5.362   0.103   3.268  1.0741  0.4930 -0.1309
  881MOL0     H21578   5.275   0.046   3.131 -0.3221 -1.4711  0.8250
  882MOL0     O21579   4.149   0.741  10.963 -0.6371 -0.8671 -0.2791
  882MOL0     C21580   4.150   0.863  10.972 -0.6923  0.2404  0.5131
  882MOL0     O21581   4.263   0.934  10.990 -0.3448 -0.5267  0.2503
  882MOL0     C21582   4.387   0.874  10.996 -0.3727 -0.1457 -0.3992
  882MOL0     C21583   4.425   0.760  11.058 -0.7044  0.2546  0.0597
  882MOL0     C21584   4.554   0.706  11.063  0.5751 -0.0469 -0.8563
  882MOL0     C21585   4.654   0.777  11.006  0.0876 -0.0399 -0.0051
  882MOL0     O21586   4.774   0.711  11.010 -0.0724 -0.1759  0.2483
  882MOL0     C21587   4.886   0.743  10.926 -0.5137  1.0211 -0.3771
  882MOL0     C21588   4.887   0.670  10.796  1.1588  0.0140 -0.7232
  882MOL0     C21589   4.995   0.717  10.700  0.1379 -0.0361 -0.1788
  882MOL0     C21590   4.927   0.823  10.605 -0.3535 -0.4833  0.6419
  882MOL0     C21591   5.033   0.914  10.538 -0.3753 -0.2407 -0.1729
  882MOL0     C21592   5.119   0.847  10.428  0.9313 -0.3938  0.6114
  882MOL0     C21593   5.232   0.937  10.389 -0.1127  0.1512  0.1476
  882MOL0     C21594   5.309   0.895  10.258  0.9260  0.3351  0.4260
  882MOL0     N21595   5.236   0.924  10.131 -0.0241 -0.6935  0.3650
  882MOL0     C21596   5.305   0.976  10.024  0.1020  0.3519  0.5156
  882MOL0     C21597   5.206   1.009   9.939  0.2718  1.5279  0.0848
  882MOL0     C21598   5.235   1.091   9.818  0.3790  0.0419 -0.3410
  882MOL0     C21599   5.210   1.034   9.685  0.4397  0.0682 -0.3014
  882MOL0     C21600   5.218   1.143   9.576 -0.2355 -0.2560  0.2503
  882MOL0     C21601   5.261   1.095   9.443  0.2877 -0.0759 -0.7389
  882MOL0     O21602   5.399   1.034   9.463  0.4971  0.1141 -0.2977
  882MOL0     C21603   5.476   1.027   9.349 -0.4855  0.8084  0.0931
  882MOL0     C21604   5.614   1.016   9.353 -0.4168  0.5459 -0.6356
  882MOL0     C21605   5.696   0.982   9.242 -0.8222 -0.3060 -0.2987
  882MOL0     C21606   5.840   0.953   9.250  0.4704  0.9209  0.2336
  882MOL0     C21607   5.635   0.976   9.117  0.1424 -0.1859 -0.0296
  882MOL0     C21608   5.716   0.971   8.987 -0.9040 -0.0996 -0.1447
  882MOL0     O21609   5.664   0.901   8.882  0.2579 -0.0985  0.0300
  882MOL0     C21610   5.707   0.894   8.749 -0.3316  0.0464  0.2010
  882MOL0     C21611   5.641   0.799   8.670 -1.2166  0.1812 -0.4233
  882MOL0     C21612   5.689   0.772   8.535  0.1929 -0.1842  0.0244
  882MOL0     C21613   5.807   0.835   8.489 -0.0528 -0.5034 -0.8298
  882MOL0     O21614   5.852   0.798   8.364 -0.4667  0.3199  0.3714
  882MOL0     C21615   5.973   0.869   8.305  0.2659  0.0738 -1.1950
  882MOL0     C21616   6.018   0.834   8.165  0.0577  0.5395  0.4064
  882MOL0     C21617   6.051   0.687   8.152  0.0095  0.5613  0.0681
  882MOL0     C21618   6.186   0.634   8.225  0.8222 -0.5663 -0.3234
  882MOL0     C21619   6.215   0.481   8.197 -0.1199  0.1248 -1.1881
  882MOL0     C21620   6.372   0.457   8.185 -0.4744  0.1833 -0.8896
  882MOL0     C21621   6.421   0.468   8.040 -0.0435 -0.7532  0.3423
  882MOL0     C21622   6.329   0.393   7.938  0.2666 -0.3491  0.8127
  882MOL0    Cl21623   6.415   0.346   7.791  0.1664 -0.6725 -0.2579
  882MOL0     C21624   5.865   0.942   8.571 -0.8137  0.5411  0.7063
  882MOL0     C21625   5.813   0.966   8.695 -0.1555 -1.1683 -0.1801
  882MOL0     O21626   5.825   1.023   8.982 -0.2132  0.3935  0.7465
  882MOL0     C21627   5.498   0.996   9.110 -0.1696 -0.9904  0.2819
  882MOL0     C21628   5.420   1.015   9.221 -0.3388 -0.1963  0.4781
  882MOL0     N21629   5.082   0.965   9.989  0.3245 -0.2790 -0.0590
  882MOL0     N21630   5.100   0.909  10.107 -0.1529 -0.0291 -0.7712
  882MOL0     C21631   4.629   0.903  10.950  0.1636  0.3305  0.0761
  882MOL0     C21632   4.493   0.955  10.945  0.2209  0.2974  0.0679
  882MOL0     C21633   4.021   0.939  10.957 -0.4853 -0.1787 -0.4892
  882MOL0     C21634   4.026   1.072  10.969 -0.6562 -1.0136  0.2442
  882MOL0     C21635   3.921   1.155  10.944 -0.7766 -0.4899 -0.2583
  882MOL0     C21636   3.800   1.101  10.919 -0.0052 -0.1785  0.4143
  882MOL0     O21637   3.694   1.183  10.880 -0.8735 -0.5862 -0.5022
  882MOL0     C21638   3.580   1.175  10.960  0.2393  0.2572  1.3036
  882MOL0     C21639   3.500   1.292  10.968 -0.4260 -0.1215  0.0619
  882MOL0     C21640   3.577   1.420  11.009 -0.0984  0.8009 -0.0040
  882MOL0     C21641   3.490   1.545  11.021 -0.4411  0.0266 -0.9231
  882MOL0     C21642   3.404   1.573  10.904 -0.0247 -0.0290 -0.5509
  882MOL0     C21643   3.334   1.584  10.803 -0.3666  0.3903  0.2465
  882MOL0     C21644   3.786   0.964  10.919  0.4019  0.1297 -0.0443
  882MOL0     C21645   3.891   0.882  10.944  0.0749  0.0122  0.2213
  882MOL0     C21646   3.867   0.732  10.937 -0.5464 -0.4304 -0.0964
  882MOL0     H21647   4.352   0.688  11.094 -0.4848 -1.2881 -2.3443
  882MOL0     H21648   4.572   0.606  11.100 -0.4633 -0.7195 -2.1204
  882MOL0     H21649   4.975   0.712  10.981 -0.9094  2.5816  1.2331
  882MOL0     H21650   4.898   0.848  10.896  2.1733  0.5091 -1.3943
  882MOL0     H21651   4.896   0.563  10.815  2.1988  0.4501  1.6174
  882MOL0     H21652   4.788   0.696  10.758  0.7992  3.3219  2.0263
  882MOL0     H21653   5.079   0.760  10.754 -0.1974 -0.5162  0.7414
  882MOL0     H21654   5.037   0.635  10.640 -2.6035 -0.7345 -1.3343
  882MOL0     H21655   4.853   0.773  10.542 -0.2809  0.9228 -0.6096
  882MOL0     H21656   4.864   0.887  10.668  1.8122  2.0290  0.3994
  882MOL0     H21657   5.102   0.948  10.615  0.2216  3.4716 -2.1297
  882MOL0     H21658   4.980   1.001  10.498 -1.7192 -0.6674  0.6012
  882MOL0     H21659   5.169   0.758  10.467  0.6442 -0.8660 -0.0701
  882MOL0     H21660   5.056   0.828  10.341  0.6781 -1.2516  0.9666
  882MOL0     H21661   5.299   0.926  10.475  0.6027 -0.2669 -0.4468
  882MOL0     H21662   5.197   1.040  10.384 -0.6532 -0.0153  0.5291
  882MOL0     H21663   5.407   0.944  10.257  1.6295 -0.7507 -3.7237
  882MOL0     H21664   5.325   0.787  10.267 -2.5102 -0.0919  3.6203
  882MOL0     H21665   5.406   1.015  10.024  0.2895 -0.1191  0.7540
  882MOL0     H21666   5.336   1.131   9.826 -0.3189  1.5424  1.8437
  882MOL0     H21667   5.186   1.188   9.828  1.2331  0.3557  1.0282
  882MOL0     H21668   5.281   0.951   9.685  0.7592  0.3250 -1.3978
  882MOL0     H21669   5.108   0.996   9.676  0.4968 -0.1836  0.0827
  882MOL0     H21670   5.134   1.213   9.573  2.5832  3.5411  1.7695
  882MOL0     H21671   5.290   1.214   9.619 -1.1045  0.8310 -0.0409
  882MOL0     H21672   5.195   1.019   9.400  0.0053  0.9335 -2.1564
  882MOL0     H21673   5.259   1.184   9.380 -1.6335  0.0338 -0.5600
  882MOL0     H21674   5.662   1.020   9.451  1.5791 -1.1991 -1.4556
  882MOL0     H21675   5.854   0.849   9.220 -3.5516  0.1023  0.6641
  882MOL0     H21676   5.861   0.947   9.357 -0.4996 -0.6704  0.3557
  882MOL0     H21677   5.908   1.023   9.199 -0.7428  1.4113 -0.7673
  882MOL0     H21678   5.564   0.745   8.724 -0.0340 -1.1673 -0.0117
  882MOL0     H21679   5.640   0.693   8.479  1.3746  0.2973 -1.7876
  882MOL0     H21680   5.954   0.976   8.317 -0.9872 -0.4057  2.4493
  882MOL0     H21681   6.054   0.843   8.374 -1.6152  0.9012  1.5091
  882MOL0     H21682   5.937   0.866   8.100  1.0315  1.8190 -0.2132
  882MOL0     H21683   6.099   0.894   8.123 -1.9286  2.7955 -0.4024
  882MOL0     H21684   6.058   0.658   8.047  4.9770 -1.7923  0.7898
  882MOL0     H21685   5.964   0.631   8.189 -0.0440  0.7056  0.1618
  882MOL0     H21686   6.166   0.655   8.331  1.0285 -1.1190 -0.1718
  882MOL0     H21687   6.258   0.702   8.180  0.2284 -0.0776 -0.5545
  882MOL0     H21688   6.172   0.433   8.286 -0.0968 -1.0134 -1.7688
  882MOL0     H21689   6.158   0.450   8.109  3.0527 -0.2994 -3.2576
  882MOL0     H21690   6.402   0.359   8.224 -1.8883 -0.0838 -0.3936
  882MOL0     H21691   6.429   0.524   8.249 -4.5841  1.3593  1.9816
  882MOL0     H21692   6.519   0.421   8.035 -0.9929 -2.8344  0.0652
  882MOL0     H21693   6.415   0.575   8.018  1.0861 -1.0340 -1.5324
  882MOL0     H21694   6.249   0.462   7.912  1.3046  0.4712 -0.3376
  882MOL0     H21695   6.288   0.300   7.979 -0.0848 -0.4414  0.2606
  882MOL0     H21696   5.948   0.995   8.528  0.8252 -2.8005 -0.6328
  882MOL0     H21697   5.864   1.045   8.750  1.5318 -0.0255 -3.1218
  882MOL0     H21698   5.457   1.000   9.009  0.4421  0.2959  0.0670
  882MOL0     H21699   5.311   1.020   9.218 -0.2745  1.0939 -0.4201
  882MOL0     H21700   4.704   0.958  10.893 -3.0243  0.5947 -4.4623
  882MOL0     H21701   4.474   1.048  10.891  0.0089  1.1497  1.5438
  882MOL0     H21702   4.125   1.116  10.977  1.6948 -5.6836  0.2448
  882MOL0     H21703   3.918   1.264  10.950 -0.3570 -0.4086 -1.3264
  882MOL0     H21704   3.519   1.091  10.926 -1.4417  2.8491 -2.7757
  882MOL0     H21705   3.626   1.145  11.055 -0.2539  0.2516  1.5419
  882MOL0     H21706   3.418   1.279  11.039  1.0471 -0.9525  1.7076
  882MOL0     H21707   3.447   1.313  10.875 -2.4815 -1.4938  0.8402
  882MOL0     H21708   3.630   1.404  11.104  0.1098 -0.1721 -0.2721
  882MOL0     H21709   3.658   1.444  10.940  0.7426  1.8226  1.2703
  882MOL0     H21710   3.555   1.632  11.039  0.9748 -1.2616  0.5117
  882MOL0     H21711   3.420   1.537  11.104  1.7115 -0.5790  0.9324
  882MOL0     H21712   3.257   1.596  10.731 -2.3106  0.1609  2.1851
  882MOL0     H21713   3.688   0.920  10.904  0.5646  0.3520 -2.0294
  882MOL0     H21714   3.916   0.683  10.852  1.1193  1.6375 -0.4077
  882MOL0     H21715   3.899   0.696  11.035 -0.0501  0.7670  0.1929
  882MOL0     H21716   3.759   0.715  10.936 -0.8941  1.4842  0.6488
  883MOL0     O21717  10.473   0.364   4.814  0.0043  0.4193 -0.6701
  883MOL0     C21718  10.351   0.392   4.783 -0.4166  0.1331  0.0256
  883MOL0     O21719  10.256   0.444   4.866  0.2890  1.0367  0.9721
  883MOL0     C21720  10.296   0.468   4.999 -0.0378  0.0250  0.9746
  883MOL0     C21721  10.279   0.375   5.100  0.1949 -1.1709 -0.2433
  883MOL0     C21722  10.316   0.391   5.242  0.9042 -0.2330  0.7901
  883MOL0     C21723  10.377   0.512   5.277  0.6135  0.4114  0.9039
  883MOL0     O21724  10.419   0.536   5.406 -1.3294  0.3790  0.3612
  883MOL0     C21725  10.356   0.469   5.517  0.0321 -0.4398  0.8535
  883MOL0     C21726  10.375   0.559   5.641  0.0569 -0.5100  0.2303
  883MOL0     C21727  10.317   0.698   5.630 -0.7583  0.3511 -0.4902
  883MOL0     C21728  10.175   0.696   5.592 -0.4786 -0.7628 -0.0760
  883MOL0     C21729  10.132   0.840   5.563 -0.0318  0.5011  0.4084
  883MOL0     C21730  10.134   0.927   5.680  0.5315 -1.0888  0.1966
  883MOL0     C21731  10.056   1.059   5.648 -0.2895 -0.5569 -0.6425
  883MOL0     C21732  10.129   1.145   5.544 -0.9393  1.0587 -0.4424
  883MOL0     N21733  10.256   1.186   5.606  0.3192  0.0820  0.6802
  883MOL0     C21734  10.270   1.259   5.726 -0.2853 -0.1920  0.9065
  883MOL0     C21735  10.402   1.271   5.732 -0.4875 -0.1409 -0.6814
  883MOL0     C21736  10.472   1.349   5.846 -0.0259 -0.0855  0.2652
  883MOL0     C21737  10.520   1.475   5.784  0.1112 -0.6405  0.2924
  883MOL0     C21738  10.577   1.550   5.900  0.2291 -0.1229 -0.1437
  883MOL0     C21739  10.620   1.687   5.867 -0.5492 -0.8232  0.1447
  883MOL0     O21740  10.759   1.692   5.830 -0.0886  0.7668  0.2500
  883MOL0     C21741  10.838   1.678   5.944  0.3408 -0.1027 -0.4910
  883MOL0     C21742  10.796   1.687   6.077  1.0924  0.3810 -0.1814
  883MOL0     C21743  10.886   1.682   6.187 -0.7806  0.8614 -0.1149
  883MOL0     C21744  10.829   1.696   6.328 -0.9465  0.6440  0.7902
  883MOL0     C21745  11.028   1.679   6.167  1.3252 -0.3093  0.7140
  883MOL0     C21746  11.123   1.664   6.285 -0.3098  0.3394  0.4431
  883MOL0     O21747  11.230   1.747   6.290  0.0929 -0.8888  0.0350
  883MOL0     C21748  11.220   1.881   6.263  0.3393 -0.1502 -0.0441
  883MOL0     C21749  11.291   1.930   6.154 -0.4393  0.1996 -0.9415
  883MOL0     C21750  11.269   2.063   6.120 -0.2146  0.1942  0.7666
  883MOL0     C21751  11.188   2.147   6.189  1.0639 -0.3409 -0.9201
  883MOL0     O21752  11.151   2.268   6.141 -0.3269  1.0005 -0.0077
  883MOL0     C21753  11.157   2.295   5.998  0.4360 -0.2899 -0.7062
  883MOL0     C21754  11.077   2.410   5.950  0.0322  0.6090  0.1877
  883MOL0     C21755  11.110   2.446   5.806 -0.8734 -0.6433  0.6230
  883MOL0     C21756  11.217   2.554   5.805  0.0311  0.2240 -0.0251
  883MOL0     C21757  11.278   2.575   5.665  0.0752  0.9178 -1.2191
  883MOL0     C21758  11.195   2.681   5.604 -0.0651  0.0986  0.0213
  883MOL0     C21759  11.244   2.706   5.461 -0.8970  0.7209  0.9389
  883MOL0     C21760  11.362   2.809   5.445 -0.3737  0.2002  0.4437
  883MOL0    Cl21761  11.402   2.809   5.276  0.2030 -0.0878  0.2590
  883MOL0     C21762  11.126   2.100   6.306 -0.1766  0.1554 -0.1997
  883MOL0     C21763  11.133   1.965   6.341 -0.6056  0.4664  1.1450
  883MOL0     O21764  11.096   1.579   6.364 -0.8363  0.4507 -0.0198
  883MOL0     C21765  11.072   1.698   6.030 -0.2850  1.0502 -0.7636
  883MOL0     C21766  10.980   1.691   5.928 -0.3070  0.3854 -0.5520
  883MOL0     N21767  10.455   1.196   5.632  0.0397  0.4163  0.8804
  883MOL0     N21768  10.372   1.135   5.555 -0.4180  0.2082 -0.8748
  883MOL0     C21769  10.395   0.614   5.170  0.1788 -0.4640 -0.6168
  883MOL0     C21770  10.351   0.590   5.038  0.6505 -0.6457  1.0274
  883MOL0     C21771  10.304   0.350   4.652  0.1402  0.2814  1.1739
  883MOL0     C21772  10.160   0.353   4.619 -0.6763 -0.5561 -1.0735
  883MOL0     C21773  10.106   0.301   4.505 -0.4000 -0.2757  0.0653
  883MOL0     C21774  10.190   0.260   4.398 -0.4755  0.7972  0.2318
  883MOL0     O21775  10.136   0.231   4.272  0.0295  0.3142  0.3796
  883MOL0     C21776  10.221   0.211   4.149  0.3123 -0.0226  0.2357
  883MOL0     C21777  10.289   0.081   4.128  0.8163 -0.8238  0.3706
  883MOL0     C21778  10.210  -0.018   4.043 -1.0666 -0.4847 -0.0256
  883MOL0     C21779  10.059  -0.030   4.088  0.5376 -0.3035  0.4106
  883MOL0     C21780   9.982  -0.138   4.026  0.2993  0.3369 -0.8651
  883MOL0     C21781   9.945  -0.230   3.959  0.3575  0.0787 -0.2654
  883MOL0     C21782  10.332   0.274   4.417  0.9336  0.0461 -0.1551
  883MOL0     C21783  10.387   0.313   4.539  0.0951  0.8699 -1.1651
  883MOL0     C21784  10.536   0.304   4.543 -0.4419  0.0772  0.2217
  883MOL0     H21785  10.230   0.281   5.073  0.9021 -1.3893 -0.8078
  883MOL0     H21786  10.285   0.309   5.306 -2.2576 -0.8468 -1.2833
  883MOL0     H21787  10.397   0.369   5.531  0.4005 -0.7624 -1.9660
  883MOL0     H21788  10.249   0.449   5.510 -0.0325 -1.0177  2.9125
  883MOL0     H21789  10.319   0.507   5.720 -2.5906 -0.7854 -1.6950
  883MOL0     H21790  10.484   0.561   5.653  0.1419  0.5983 -0.5772
  883MOL0     H21791  10.329   0.749   5.726 -0.8954 -1.7967  0.7443
  883MOL0     H21792  10.382   0.750   5.559 -3.1363 -0.9141 -3.8689
  883MOL0     H21793  10.165   0.643   5.497 -0.4170  0.4548 -0.7787
  883MOL0     H21794  10.111   0.638   5.660  0.3052 -2.0233 -0.3784
  883MOL0     H21795  10.027   0.835   5.531 -0.2067 -0.9703  1.1165
  883MOL0     H21796  10.197   0.874   5.481  1.2270  2.0274  1.9770
  883MOL0     H21797  10.108   0.877   5.773  2.6779 -0.7881  1.0177
  883MOL0     H21798  10.236   0.950   5.712  0.4963  0.0043 -0.4146
  883MOL0     H21799  10.056   1.114   5.743 -1.1886  0.0923 -1.0098
  883MOL0     H21800   9.953   1.044   5.614 -1.0616  3.4709 -0.5851
  883MOL0     H21801  10.152   1.097   5.449  3.2435  0.6641  0.5451
  883MOL0     H21802  10.075   1.238   5.524 -0.3653  1.9360  1.7877
  883MOL0     H21803  10.197   1.310   5.788 -2.2922 -0.5351 -1.0518
  883MOL0     H21804  10.554   1.285   5.879 -1.3360 -1.0756  1.7087
  883MOL0     H21805  10.405   1.367   5.931 -0.9203 -1.1791 -0.1928
  883MOL0     H21806  10.600   1.471   5.710 -0.0247 -1.9498  0.2054
  883MOL0     H21807  10.435   1.523   5.734  0.3937  1.3390  1.5801
  883MOL0     H21808  10.497   1.559   5.974 -0.1841 -1.4943 -0.3819
  883MOL0     H21809  10.659   1.490   5.940  0.7347  1.3314  1.0890
  883MOL0     H21810  10.568   1.723   5.777 -0.5243 -2.1787 -0.4336
  883MOL0     H21811  10.596   1.771   5.933  0.1477  1.0822 -1.8752
  883MOL0     H21812  10.696   1.720   6.102  1.0834  1.1585 -1.1519
  883MOL0     H21813  10.805   1.602   6.379 -2.2624  0.2217 -0.5149
  883MOL0     H21814  10.737   1.755   6.327 -1.5649 -0.2840 -0.4680
  883MOL0     H21815  10.892   1.745   6.402  0.6535 -0.2830  0.0846
  883MOL0     H21816  11.357   1.878   6.086 -0.0330 -0.8444  0.2064
  883MOL0     H21817  11.325   2.098   6.034 -0.1640 -1.5543  0.0440
  883MOL0     H21818  11.263   2.307   5.973  1.0326 -0.1619  1.6879
  883MOL0     H21819  11.128   2.201   5.950  1.5404 -1.8592  1.5221
  883MOL0     H21820  10.973   2.378   5.950  0.3432 -0.4411  1.0044
  883MOL0     H21821  11.080   2.486   6.029  0.3377  0.7875  0.0057
  883MOL0     H21822  11.029   2.492   5.748  0.8489  1.6473 -0.0967
  883MOL0     H21823  11.147   2.363   5.745  1.5459  0.1196  0.9606
  883MOL0     H21824  11.293   2.525   5.879 -1.8633 -1.1606  1.4809
  883MOL0     H21825  11.182   2.651   5.841  0.1289  0.1338  0.3186
  883MOL0     H21826  11.381   2.611   5.667  0.0863  0.9189 -1.6184
  883MOL0     H21827  11.273   2.483   5.606 -1.2455 -0.4855  0.9396
  883MOL0     H21828  11.179   2.773   5.660  3.2179 -0.4892  2.1885
  883MOL0     H21829  11.104   2.623   5.585  2.2131 -3.2833 -1.6573
  883MOL0     H21830  11.154   2.735   5.407 -1.9598  1.2324  2.9161
  883MOL0     H21831  11.273   2.616   5.406 -1.9113  0.0222  1.5201
  883MOL0     H21832  11.459   2.785   5.491  2.2901  3.2331 -2.8930
  883MOL0     H21833  11.334   2.909   5.480 -0.7021  0.0484  0.6069
  883MOL0     H21834  11.067   2.173   6.362  1.4626  2.9113 -1.8264
  883MOL0     H21835  11.085   1.935   6.433 -0.4319  0.3284  1.1905
  883MOL0     H21836  11.176   1.684   6.002  0.4629  1.2589  1.6613
  883MOL0     H21837  11.009   1.694   5.824  2.6061 -1.5450  0.0790
  883MOL0     H21838  10.448   0.706   5.190 -1.4023 -0.0709  2.3294
  883MOL0     H21839  10.369   0.678   4.978  0.4075  0.2661  2.2475
  883MOL0     H21840  10.104   0.381   4.708 -0.0511 -0.4439 -0.7150
  883MOL0     H21841  10.002   0.284   4.479  0.0890 -0.1002 -2.2281
  883MOL0     H21842  10.163   0.236   4.060  1.3627 -1.3298 -0.8513
  883MOL0     H21843  10.298   0.288   4.147  1.6075 -1.0031  3.7109
  883MOL0     H21844  10.329   0.043   4.222  3.5254  0.7837 -0.0189
  883MOL0     H21845  10.384   0.105   4.078  0.1378  1.6071  0.1357
  883MOL0     H21846  10.217   0.018   3.940 -1.1864 -0.4302 -0.0149
  883MOL0     H21847  10.268  -0.111   4.046  1.4748  1.0262  1.4514
  883MOL0     H21848  10.002   0.062   4.070  1.8874  0.1309 -2.1432
  883MOL0     H21849  10.056  -0.045   4.196  1.1957 -3.5921  0.0773
  883MOL0     H21850   9.906  -0.310   3.899 -1.5359  2.0664 -1.8650
  883MOL0     H21851  10.396   0.244   4.335  2.0671 -0.4618  0.8834
  883MOL0     H21852  10.572   0.248   4.630  2.1524  0.6637 -0.3804
  883MOL0     H21853  10.563   0.252   4.451 -2.2743  0.0338 -0.3246
  883MOL0     H21854  10.574   0.407   4.547  1.2541 -0.5527  1.8659
  884MOL0     O21855   1.332   2.173   1.228  0.7657 -0.2068  0.1188
  884MOL0     C21856   1.384   2.173   1.337 -0.3851 -0.1526 -1.7880
  884MOL0     O21857   1.411   2.064   1.407 -0.8299  0.2623 -0.1464
  884MOL0     C21858   1.384   1.937   1.362 -0.5996 -0.6062 -1.0045
  884MOL0     C21859   1.256   1.912   1.315 -0.4292  0.2680  1.4354
  884MOL0     C21860   1.232   1.788   1.262 -0.1990 -0.1058 -0.5771
  884MOL0     C21861   1.336   1.694   1.248  0.5276  0.1991  0.5430
  884MOL0     O21862   1.313   1.566   1.224 -0.2722  0.4788 -1.0608
  884MOL0     C21863   1.192   1.505   1.191 -0.4277 -1.0722  0.1988
  884MOL0     C21864   1.177   1.484   1.041  0.6436 -0.1386  0.4622
  884MOL0     C21865   1.043   1.425   1.002  0.6413 -0.0242 -0.1290
  884MOL0     C21866   0.924   1.519   0.994 -0.1120 -0.2078  0.0035
  884MOL0     C21867   0.804   1.437   0.944  1.0061  0.0156  0.3435
  884MOL0     C21868   0.807   1.384   0.796  0.0027 -0.4326 -0.2298
  884MOL0     C21869   0.803   1.501   0.687 -0.1812  1.1379 -0.2420
  884MOL0     C21870   0.710   1.468   0.572  0.3477  0.0212  1.1612
  884MOL0     N21871   0.757   1.354   0.490  0.0968  0.2881 -0.5336
  884MOL0     C21872   0.863   1.354   0.410 -0.3654  0.3452  0.5336
  884MOL0     C21873   0.838   1.250   0.327  0.2896 -0.8391  0.8430
  884MOL0     C21874   0.911   1.214   0.199 -0.1036 -0.2469 -0.0013
  884MOL0     C21875   0.907   1.328   0.102 -0.7607 -0.1162 -0.6426
  884MOL0     C21876   0.778   1.343   0.024  0.3877  0.1661  0.3184
  884MOL0     C21877   0.751   1.216  -0.070 -0.2107  0.5591  0.2505
  884MOL0     O21878   0.613   1.212  -0.116 -0.6846 -0.3232  0.5394
  884MOL0     C21879   0.514   1.173  -0.033  0.1791  0.0019  0.4028
  884MOL0     C21880   0.381   1.174  -0.088  0.8673 -0.3891 -0.4463
  884MOL0     C21881   0.265   1.136  -0.011  0.2324 -1.0009 -0.3364
  884MOL0     C21882   0.123   1.168  -0.065 -0.2573  0.1116  0.3775
  884MOL0     C21883   0.289   1.065   0.109 -0.7577  0.0362  0.1026
  884MOL0     C21884   0.190   1.004   0.205  0.2678  0.4034  0.2826
  884MOL0     O21885   0.224   0.969   0.329  0.7216 -0.6147  0.1343
  884MOL0     C21886   0.142   0.917   0.420  0.3345  0.0342  0.3025
  884MOL0     C21887   0.027   0.841   0.400  0.9943 -0.3463  0.3587
  884MOL0     C21888  -0.032   0.783   0.508  0.8723  0.1088 -0.7785
  884MOL0     C21889   0.010   0.804   0.641 -0.2808 -0.9035 -0.2481
  884MOL0     O21890  -0.050   0.753   0.748  0.5617  0.1631  0.0361
  884MOL0     C21891  -0.124   0.634   0.733  0.3291 -0.0393  0.5532
  884MOL0     C21892  -0.150   0.555   0.873 -0.2836 -0.2219  0.3044
  884MOL0     C21893  -0.025   0.493   0.931 -1.0760  0.0458 -0.4426
  884MOL0     C21894   0.022   0.386   0.827  0.0500 -0.2633  0.1430
  884MOL0     C21895   0.118   0.298   0.907  0.2217 -0.8694  0.4794
  884MOL0     C21896   0.199   0.205   0.809 -0.3854 -0.0651 -0.4527
  884MOL0     C21897   0.118   0.087   0.778  0.5470 -0.1298  0.5543
  884MOL0     C21898   0.178   0.008   0.670 -0.1599 -0.0469  0.2327
  884MOL0    Cl21899   0.202   0.096   0.516  0.0320 -0.0026 -0.1983
  884MOL0     C21900   0.119   0.893   0.672  0.6547  0.2630 -0.6141
  884MOL0     C21901   0.182   0.942   0.553 -0.5548 -1.1746 -0.0655
  884MOL0     O21902   0.080   0.990   0.156 -0.1467 -0.4136  0.1304
  884MOL0     C21903   0.423   1.064   0.161 -0.6132 -0.0408  0.0462
  884MOL0     C21904   0.528   1.113   0.092  0.2565  0.0082 -0.3596
  884MOL0     N21905   0.721   1.189   0.359 -0.2296 -0.0610  0.4356
  884MOL0     N21906   0.675   1.253   0.463 -0.5055  0.3645 -0.0179
  884MOL0     C21907   1.461   1.727   1.291  0.0016 -0.0016 -0.8204
  884MOL0     C21908   1.484   1.849   1.362  0.2618 -0.4291 -0.5348
  884MOL0     C21909   1.395   2.309   1.403  0.1630  0.3222  0.3204
  884MOL0     C21910   1.392   2.314   1.547  0.7519  0.5973  0.1585
  884MOL0     C21911   1.417   2.435   1.606 -0.3133  0.1326  0.0478
  884MOL0     C21912   1.448   2.552   1.528  0.1044 -0.3141 -0.9043
  884MOL0     O21913   1.480   2.675   1.576 -0.1734  0.7552 -0.7661
  884MOL0     C21914   1.508   2.689   1.718  0.5207 -0.7138 -0.6767
  884MOL0     C21915   1.642   2.633   1.765 -0.6337  0.3339  0.8451
  884MOL0     C21916   1.645   2.653   1.911  0.7270 -0.4464 -0.6898
  884MOL0     C21917   1.788   2.620   1.974 -0.3183  0.2722 -1.2574
  884MOL0     C21918   1.792   2.483   2.032  0.2007 -0.7120  0.3003
  884MOL0     C21919   1.779   2.364   2.072 -0.1538 -0.0333 -0.6708
  884MOL0     C21920   1.424   2.551   1.391  0.6976 -0.5298  0.1208
  884MOL0     C21921   1.397   2.425   1.330 -0.7354 -0.2734  0.9377
  884MOL0     C21922   1.399   2.437   1.177  0.2789 -0.0023 -0.2213
  884MOL0     H21923   1.186   1.995   1.315 -2.1272 -1.0751 -0.1819
  884MOL0     H21924   1.131   1.761   1.232 -1.0127  1.9445  0.1713
  884MOL0     H21925   1.100   1.556   1.222  0.3044  0.9571 -0.8492
  884MOL0     H21926   1.184   1.407   1.240  0.2122 -0.5518  1.3709
  884MOL0     H21927   1.196   1.571   0.977  2.9370 -0.6770  0.3512
  884MOL0     H21928   1.257   1.417   1.010  1.2987  0.4686  0.8070
  884MOL0     H21929   1.036   1.375   0.905 -2.7553 -0.4921  0.2160
  884MOL0     H21930   1.008   1.350   1.073  0.1348 -0.9855 -1.3472
  884MOL0     H21931   0.916   1.545   1.100  0.2003  0.0794 -0.0399
  884MOL0     H21932   0.935   1.608   0.931  1.9126 -0.6935 -0.3857
  884MOL0     H21933   0.712   1.496   0.948 -0.6571 -2.1180 -2.5763
  884MOL0     H21934   0.798   1.343   1.001 -2.4619 -1.0443 -1.4630
  884MOL0     H21935   0.891   1.320   0.766  1.6890  1.8887 -0.6829
  884MOL0     H21936   0.713   1.328   0.795 -0.4074  0.0529  2.9092
  884MOL0     H21937   0.906   1.526   0.661  0.1241  2.8007  2.2734
  884MOL0     H21938   0.768   1.592   0.735  1.6640  1.7147  0.0850
  884MOL0     H21939   0.611   1.444   0.612 -1.0968 -0.0801 -2.1506
  884MOL0     H21940   0.696   1.551   0.503 -1.2391 -1.4404 -0.3701
  884MOL0     H21941   0.949   1.421   0.407  0.8382 -1.1857 -0.6669
  884MOL0     H21942   0.865   1.128   0.148 -0.2329  0.2894 -0.8133
  884MOL0     H21943   1.013   1.184   0.225 -0.8867 -2.1059  1.1452
  884MOL0     H21944   0.912   1.427   0.150 -1.6154 -1.0334  1.4532
  884MOL0     H21945   0.992   1.317   0.034  1.0419 -3.6514  1.8740
  884MOL0     H21946   0.695   1.350   0.095 -1.6109 -0.8143 -1.8349
  884MOL0     H21947   0.788   1.424  -0.048 -0.4359 -2.1328 -2.5953
  884MOL0     H21948   0.818   1.219  -0.157 -0.1959  0.8176  0.2682
  884MOL0     H21949   0.775   1.121  -0.022 -0.7394  0.1968 -0.1986
  884MOL0     H21950   0.374   1.227  -0.182  1.2380 -2.2669 -1.5965
  884MOL0     H21951   0.065   1.080  -0.094  1.7587 -1.1003 -0.1820
  884MOL0     H21952   0.142   1.226  -0.155 -0.2309 -1.2212 -0.5097
  884MOL0     H21953   0.069   1.227   0.010 -0.9366 -2.5979  2.1879
  884MOL0     H21954  -0.015   0.823   0.302  0.7700 -2.3534  0.7679
  884MOL0     H21955  -0.126   0.732   0.494  1.1078  0.1865 -2.8902
  884MOL0     H21956  -0.216   0.658   0.680  1.1839  0.5939 -0.7115
  884MOL0     H21957  -0.068   0.573   0.661 -3.4593 -1.8122 -1.1797
  884MOL0     H21958  -0.186   0.626   0.948  2.3077  0.8322  0.6889
  884MOL0     H21959  -0.227   0.482   0.848 -2.6857  2.7399 -1.8093
  884MOL0     H21960  -0.042   0.447   1.029 -0.6512 -1.6033 -1.1083
  884MOL0     H21961   0.050   0.573   0.940 -0.6778 -0.1216 -2.0077
  884MOL0     H21962   0.071   0.428   0.739 -0.0434  0.8308  0.5961
  884MOL0     H21963  -0.053   0.317   0.789  2.1665 -2.7827  0.2194
  884MOL0     H21964   0.188   0.368   0.952  0.7757  0.2752 -1.9727
  884MOL0     H21965   0.065   0.255   0.993  0.7858  2.0216  2.4001
  884MOL0     H21966   0.290   0.161   0.851 -0.4059 -1.2341 -1.5795
  884MOL0     H21967   0.242   0.258   0.724 -0.9117  2.2615  0.6338
  884MOL0     H21968   0.023   0.125   0.742  0.7430  1.0442  1.2351
  884MOL0     H21969   0.086   0.024   0.862  1.7207 -1.3606  0.1181
  884MOL0     H21970   0.099  -0.063   0.644 -0.7658  0.7221 -0.0471
  884MOL0     H21971   0.267  -0.041   0.711 -0.2879  0.1662  0.7756
  884MOL0     H21972   0.145   0.915   0.775 -2.6818  1.2339  0.1478
  884MOL0     H21973   0.269   1.006   0.565  0.6256 -2.2746 -2.1216
  884MOL0     H21974   0.452   1.024   0.257 -1.0447  1.2324  0.7319
  884MOL0     H21975   0.628   1.090   0.128 -0.1087 -1.9584 -0.4821
  884MOL0     H21976   1.526   1.640   1.290 -2.4199 -1.8824 -1.5581
  884MOL0     H21977   1.579   1.865   1.411 -0.0347  0.3055 -0.1825
  884MOL0     H21978   1.394   2.224   1.608  1.2871  0.1855 -0.4540
  884MOL0     H21979   1.420   2.447   1.714 -1.9725  2.5720 -0.1222
  884MOL0     H21980   1.504   2.797   1.735  1.7164 -0.4043 -2.1571
  884MOL0     H21981   1.435   2.641   1.784 -0.1388  0.2288 -0.6951
  884MOL0     H21982   1.723   2.681   1.709  0.0884 -2.0722 -0.3102
  884MOL0     H21983   1.634   2.525   1.748 -0.5612  0.4533 -0.0222
  884MOL0     H21984   1.636   2.758   1.940  2.5961 -0.3448 -0.3181
  884MOL0     H21985   1.568   2.596   1.964  0.0112  0.1884 -1.0226
  884MOL0     H21986   1.810   2.685   2.059  3.0648 -0.1481 -1.7077
  884MOL0     H21987   1.858   2.647   1.895  0.9027 -3.2036 -1.5233
  884MOL0     H21988   1.782   2.262   2.104  0.7127  0.2436  0.1437
  884MOL0     H21989   1.438   2.644   1.337  0.8883  0.8581  2.4403
  884MOL0     H21990   1.297   2.439   1.138  0.0223 -4.2393 -0.2455
  884MOL0     H21991   1.455   2.524   1.141 -2.0748  2.3741  1.5086
  884MOL0     H21992   1.462   2.362   1.128  0.0142  0.5625 -1.4598
  885MOL0     O21993   5.305   4.994   4.711  0.1540  0.0189  0.6015
  885MOL0     C21994   5.192   4.939   4.729  0.7748 -2.1700 -0.0701
  885MOL0     O21995   5.151   4.823   4.681  0.7425 -0.3660 -0.1923
  885MOL0     C21996   5.249   4.750   4.617 -0.1656 -0.9082  0.4193
  885MOL0     C21997   5.343   4.654   4.665 -0.0607 -0.4083  0.0970
  885MOL0     C21998   5.442   4.595   4.584 -0.2733  0.8040  1.5028
  885MOL0     C21999   5.450   4.626   4.444  0.3956 -0.3449  0.7343
  885MOL0     O22000   5.538   4.564   4.362  0.2567 -0.5604  0.8153
  885MOL0     C22001   5.506   4.427   4.346 -0.5315 -0.6593 -0.1971
  885MOL0     C22002   5.638   4.353   4.320  0.0154 -0.0369 -0.0301
  885MOL0     C22003   5.751   4.424   4.232  0.2476 -0.8197 -0.1987
  885MOL0     C22004   5.711   4.427   4.078 -0.2855 -0.3477 -1.3585
  885MOL0     C22005   5.813   4.504   3.993  0.1767  0.1993 -0.6056
  885MOL0     C22006   5.786   4.490   3.844 -1.0876 -1.3789 -0.2407
  885MOL0     C22007   5.836   4.349   3.802  0.5221 -0.4238 -0.0908
  885MOL0     C22008   5.982   4.315   3.778  0.2382  0.3756 -0.1432
  885MOL0     N22009   6.018   4.355   3.644 -0.2271  0.4855 -0.5713
  885MOL0     C22010   6.108   4.449   3.629  0.2373 -0.1063 -0.5929
  885MOL0     C22011   6.086   4.500   3.501 -0.2387  0.0003 -0.3863
  885MOL0     C22012   6.160   4.608   3.441  0.2541 -0.2242  0.4490
  885MOL0     C22013   6.309   4.564   3.411  0.3968  0.2367 -1.0524
  885MOL0     C22014   6.365   4.653   3.298  0.9753  0.7721  0.2104
  885MOL0     C22015   6.495   4.595   3.235 -0.3236 -0.3200 -0.3557
  885MOL0     O22016   6.603   4.619   3.331  1.0296  0.6554  0.4027
  885MOL0     C22017   6.699   4.715   3.330  0.4365 -0.6208  0.2153
  885MOL0     C22018   6.793   4.709   3.435  0.0923  0.2383 -0.5220
  885MOL0     C22019   6.900   4.800   3.441  0.3343  0.2163  0.3747
  885MOL0     C22020   7.002   4.790   3.554 -0.4096  1.0132  0.1008
  885MOL0     C22021   6.911   4.895   3.343 -0.0811  0.2373  0.3651
  885MOL0     C22022   7.017   5.005   3.344  0.1589 -0.0498  0.5950
  885MOL0     O22023   7.116   4.992   3.249 -0.0721 -0.2419  0.0445
  885MOL0     C22024   7.214   5.078   3.261 -0.4720  1.0860  1.2291
  885MOL0     C22025   7.343   5.019   3.291  0.4133  0.1682  0.2910
  885MOL0     C22026   7.454   5.102   3.296  0.5280 -1.0878  0.0584
  885MOL0     C22027   7.441   5.234   3.269 -0.2480 -0.2950 -0.2174
  885MOL0     O22028   7.545   5.325   3.288 -0.1586 -0.0992 -0.6108
  885MOL0     C22029   7.642   5.307   3.392  0.0100 -0.1021 -0.2134
  885MOL0     C22030   7.709   5.438   3.433  0.0745  0.4963  0.2930
  885MOL0     C22031   7.617   5.552   3.491 -0.4232 -0.7367 -0.1833
  885MOL0     C22032   7.522   5.508   3.604  0.6433 -0.4926 -1.0332
  885MOL0     C22033   7.474   5.646   3.675  0.2473 -0.9346 -0.1168
  885MOL0     C22034   7.348   5.708   3.606 -0.6819 -0.0606  0.6924
  885MOL0     C22035   7.291   5.819   3.675 -0.6106 -0.1234 -0.1979
  885MOL0     C22036   7.189   5.894   3.591  0.0612  0.4260 -0.3606
  885MOL0    Cl22037   7.268   5.983   3.458  0.2426 -0.2057 -0.5358
  885MOL0     C22038   7.322   5.289   3.226 -0.0724  0.2479 -0.4449
  885MOL0     C22039   7.208   5.213   3.215  0.0846  1.3202  0.1699
  885MOL0     O22040   7.009   5.104   3.419 -0.0828 -0.9723 -0.0757
  885MOL0     C22041   6.820   4.898   3.239 -1.2842 -0.3610  0.5106
  885MOL0     C22042   6.714   4.815   3.227 -0.2616  1.0080 -0.3184
  885MOL0     N22043   5.988   4.426   3.436  0.3208  0.3616 -1.0132
  885MOL0     N22044   5.953   4.337   3.528 -0.3541  0.0696  0.4476
  885MOL0     C22045   5.352   4.715   4.393  0.0960 -0.0962  0.6170
  885MOL0     C22046   5.256   4.772   4.475  1.0957  0.7319  0.5001
  885MOL0     C22047   5.085   5.017   4.798 -0.0614 -0.1566  0.0841
  885MOL0     C22048   5.125   5.139   4.860 -0.8887  1.0343 -0.3389
  885MOL0     C22049   5.028   5.227   4.908 -0.3383  0.8585 -0.1411
  885MOL0     C22050   4.888   5.195   4.916 -1.6173  0.6502  0.4433
  885MOL0     O22051   4.808   5.289   4.981 -1.4055  0.1858  0.3690
  885MOL0     C22052   4.681   5.236   5.029  0.1373  0.1639  0.2104
  885MOL0     C22053   4.650   5.299   5.166 -0.2520  0.7492 -0.2047
  885MOL0     C22054   4.617   5.447   5.159  0.2052 -0.0518 -0.7640
  885MOL0     C22055   4.575   5.496   5.289 -0.0442  0.1255 -0.0248
  885MOL0     C22056   4.562   5.642   5.280 -0.7699  0.2729 -0.1968
  885MOL0     C22057   4.563   5.769   5.276  0.3767  0.7410 -0.0441
  885MOL0     C22058   4.856   5.073   4.852 -0.1311 -0.0163  0.0395
  885MOL0     C22059   4.944   4.981   4.795 -0.0158  0.4666  0.3431
  885MOL0     C22060   4.887   4.856   4.752  0.0322  0.1740  0.2371
  885MOL0     H22061   5.344   4.624   4.769 -0.6714 -1.2156 -0.1182
  885MOL0     H22062   5.517   4.537   4.638 -1.7162 -1.5655  1.0996
  885MOL0     H22063   5.446   4.405   4.258 -0.4386  1.4436 -0.8202
  885MOL0     H22064   5.456   4.389   4.436 -4.3409  2.6646 -0.6502
  885MOL0     H22065   5.681   4.338   4.420 -0.1385 -0.6342 -0.0463
  885MOL0     H22066   5.623   4.251   4.284  0.7219  0.3263 -1.3899
  885MOL0     H22067   5.785   4.523   4.265  2.1419 -0.7793 -1.9989
  885MOL0     H22068   5.843   4.365   4.242  2.9343  2.9277 -0.5372
  885MOL0     H22069   5.690   4.323   4.051  1.5487 -2.6403  4.6136
  885MOL0     H22070   5.619   4.486   4.066 -0.1287 -0.1578 -1.6270
  885MOL0     H22071   5.915   4.476   4.022 -0.2588 -0.4631  0.3113
  885MOL0     H22072   5.802   4.609   4.022 -1.7961 -0.1018 -0.1812
  885MOL0     H22073   5.679   4.504   3.825 -1.1671  0.8775  1.4784
  885MOL0     H22074   5.841   4.560   3.781 -2.1505  1.3456  1.6362
  885MOL0     H22075   5.773   4.326   3.715  0.5991 -0.3104 -0.1770
  885MOL0     H22076   5.813   4.274   3.878 -3.2897  0.9879  0.4028
  885MOL0     H22077   6.058   4.348   3.850 -3.4098  1.3763  3.6762
  885MOL0     H22078   5.983   4.206   3.774  3.2210  0.2640  1.2300
  885MOL0     H22079   6.161   4.494   3.711  0.3397 -1.3289  0.0429
  885MOL0     H22080   6.164   4.699   3.501  0.8172  0.7920 -1.0658
  885MOL0     H22081   6.108   4.629   3.347 -1.7444 -3.0622  0.7954
  885MOL0     H22082   6.365   4.568   3.505 -0.5603  1.5922 -0.5126
  885MOL0     H22083   6.301   4.460   3.378 -2.2268 -0.2654  0.8386
  885MOL0     H22084   6.288   4.659   3.220  3.0902  0.1429 -2.0407
  885MOL0     H22085   6.370   4.752   3.346 -2.4904  0.4428  1.5488
  885MOL0     H22086   6.479   4.488   3.221  1.0890 -0.5363 -0.4152
  885MOL0     H22087   6.510   4.635   3.134 -1.6111 -0.9580 -0.8331
  885MOL0     H22088   6.777   4.626   3.503  2.5817 -0.3426 -0.5324
  885MOL0     H22089   7.014   4.886   3.606 -2.2500  2.4458 -1.9249
  885MOL0     H22090   7.101   4.753   3.524  0.5107  2.7997  0.7460
  885MOL0     H22091   6.968   4.720   3.631  1.8917  2.2287  2.3811
  885MOL0     H22092   7.351   4.912   3.307 -1.0474  0.1588  1.1263
  885MOL0     H22093   7.549   5.070   3.337 -0.0971 -2.1576  0.7566
  885MOL0     H22094   7.593   5.261   3.479  0.6036  0.9991  0.7322
  885MOL0     H22095   7.713   5.228   3.368 -2.3802 -2.2543 -0.6479
  885MOL0     H22096   7.789   5.406   3.500 -1.1164 -2.8432  0.3056
  885MOL0     H22097   7.757   5.481   3.344  0.1016  1.4512  0.7605
  885MOL0     H22098   7.555   5.610   3.421 -3.2922 -3.3118 -0.0317
  885MOL0     H22099   7.685   5.624   3.537  0.6879 -1.4525 -0.6616
  885MOL0     H22100   7.583   5.456   3.678  0.1480  0.9076  0.4402
  885MOL0     H22101   7.437   5.456   3.560  1.6217 -1.0408 -2.3373
  885MOL0     H22102   7.437   5.630   3.777 -2.4651  0.6452 -0.7380
  885MOL0     H22103   7.549   5.725   3.678 -0.0903 -0.4797 -2.1197
  885MOL0     H22104   7.282   5.621   3.597  0.6793 -1.3303  2.1793
  885MOL0     H22105   7.380   5.728   3.503 -3.2781 -3.1038 -0.9261
  885MOL0     H22106   7.377   5.883   3.695 -1.2568  0.0836  2.2046
  885MOL0     H22107   7.242   5.791   3.768  0.0524  0.3143  0.2885
  885MOL0     H22108   7.125   5.955   3.656  1.7899  1.2081  0.6575
  885MOL0     H22109   7.120   5.820   3.549  2.5131 -2.0502 -0.2510
  885MOL0     H22110   7.306   5.394   3.202  1.4581 -0.0949 -3.4095
  885MOL0     H22111   7.116   5.254   3.175 -0.0818  2.2311  1.4312
  885MOL0     H22112   6.840   4.977   3.167  1.4601 -0.7457  0.7338
  885MOL0     H22113   6.637   4.819   3.150 -0.9775 -0.2526  0.2838
  885MOL0     H22114   5.354   4.744   4.288 -1.8882  2.8310  1.2472
  885MOL0     H22115   5.177   4.828   4.426 -3.1947 -3.0653  2.2504
  885MOL0     H22116   5.230   5.168   4.858 -0.6586  0.9205  3.4382
  885MOL0     H22117   5.051   5.323   4.952  0.0912  0.7985 -0.2299
  885MOL0     H22118   4.600   5.257   4.958 -0.2161  0.8196  0.7903
  885MOL0     H22119   4.678   5.128   5.039 -4.1445 -0.1679 -1.9712
  885MOL0     H22120   4.737   5.283   5.230 -1.4984  0.0905  1.3791
  885MOL0     H22121   4.565   5.249   5.214  1.2995 -2.4880 -0.5048
  885MOL0     H22122   4.706   5.491   5.115  1.2180 -3.6783 -2.8278
  885MOL0     H22123   4.525   5.453   5.099  1.7703 -0.1082 -3.3055
  885MOL0     H22124   4.653   5.476   5.364 -2.8487 -0.7026  2.8896
  885MOL0     H22125   4.484   5.447   5.324  1.2130 -2.0933  0.3479
  885MOL0     H22126   4.544   5.874   5.285 -1.4948  0.3665  1.0027
  885MOL0     H22127   4.751   5.047   4.840 -0.0078 -0.5460  0.1110
  885MOL0     H22128   4.784   4.833   4.784 -0.2163 -1.0697 -1.3227
  885MOL0     H22129   4.887   4.862   4.642  1.4903 -2.1436  0.0449
  885MOL0     H22130   4.955   4.773   4.772  2.0004  1.5208 -0.6259
  886MOL0     O22131   9.419  10.290   3.482 -0.0742 -0.6791 -0.1274
  886MOL0     C22132   9.332  10.364   3.433 -0.3385  0.7231  0.2024
  886MOL0     O22133   9.352  10.472   3.349  0.1833  0.2324 -0.6398
  886MOL0     C22134   9.481  10.497   3.314  0.7535  0.1503 -0.8243
  886MOL0     C22135   9.572  10.541   3.408  1.2119  0.5065  0.2980
  886MOL0     C22136   9.697  10.570   3.371  0.3017 -0.4496 -0.6540
  886MOL0     C22137   9.744  10.564   3.241 -0.1250  0.7283  0.2415
  886MOL0     O22138   9.873  10.605   3.224 -0.1317 -0.0932 -0.2719
  886MOL0     C22139   9.939  10.602   3.101  0.5225 -0.5735 -0.4547
  886MOL0     C22140  10.079  10.539   3.102 -0.7983 -0.4364  0.6711
  886MOL0     C22141  10.081  10.396   3.137  0.6872 -0.5152  0.0571
  886MOL0     C22142  10.213  10.328   3.157  0.2361 -0.3333  0.0678
  886MOL0     C22143  10.205  10.176   3.168 -0.0809  0.5723 -0.0407
  886MOL0     C22144  10.339  10.127   3.214 -0.5904  0.2357 -0.8489
  886MOL0     C22145  10.323   9.977   3.252  0.7973 -0.6019 -0.6675
  886MOL0     C22146  10.294   9.885   3.136  0.0136 -0.0785  0.0507
  886MOL0     N22147  10.153   9.871   3.099 -0.2395  0.0025 -0.0584
  886MOL0     C22148  10.052   9.829   3.180 -0.3644  0.5810 -0.6673
  886MOL0     C22149   9.950   9.802   3.095 -0.0083 -0.4100 -0.3738
  886MOL0     C22150   9.810   9.740   3.114 -1.2301  0.0691  0.1192
  886MOL0     C22151   9.757   9.736   3.259 -0.2926  0.4232  0.0964
  886MOL0     C22152   9.703   9.881   3.292 -0.5889  0.7783 -0.2529
  886MOL0     C22153   9.690   9.896   3.444 -0.3146 -0.0993 -0.1655
  886MOL0     O22154   9.832   9.904   3.492  0.0092  0.1959  0.3958
  886MOL0     C22155   9.897  10.023   3.502  0.0339  0.9895  0.7248
  886MOL0     C22156  10.032  10.026   3.548  1.2937  0.6094  0.2058
  886MOL0     C22157  10.094  10.149   3.576  0.0154  0.2333  0.3345
  886MOL0     C22158  10.234  10.143   3.636  0.0199 -0.9394 -0.2621
  886MOL0     C22159  10.030  10.269   3.537  0.2422  0.0051  0.2056
  886MOL0     C22160  10.078  10.404   3.552 -0.3111 -1.0132  0.1316
  886MOL0     O22161   9.994  10.513   3.524  0.3162 -0.5040 -0.4007
  886MOL0     C22162  10.039  10.640   3.511 -0.0447 -0.3752  0.2017
  886MOL0     C22163   9.980  10.744   3.585 -0.5463 -0.0303 -0.3891
  886MOL0     C22164  10.029  10.878   3.580  0.2748 -1.1357  0.5413
  886MOL0     C22165  10.135  10.911   3.502 -0.1921 -0.3299 -0.0329
  886MOL0     O22166  10.183  11.038   3.479  0.5706  0.1420 -0.2240
  886MOL0     C22167  10.089  11.148   3.486  0.5994  0.0417  0.1063
  886MOL0     C22168  10.136  11.270   3.416  0.3910  0.8673 -0.2541
  886MOL0     C22169  10.202  11.386   3.501 -0.2477 -0.4102  0.1921
  886MOL0     C22170  10.252  11.514   3.415  0.5387  0.0544  1.0747
  886MOL0     C22171  10.337  11.612   3.498 -0.1048 -0.3894 -0.4453
  886MOL0     C22172  10.466  11.544   3.540  0.6728  0.3388  0.0441
  886MOL0     C22173  10.550  11.650   3.603 -0.6612 -0.4054  0.5502
  886MOL0     C22174  10.689  11.583   3.596  0.2293  0.0627  0.3045
  886MOL0    Cl22175  10.816  11.697   3.663  0.1276  0.3427 -0.1138
  886MOL0     C22176  10.194  10.807   3.432 -0.0746  0.5997  0.3428
  886MOL0     C22177  10.154  10.676   3.437 -0.3235 -0.0668  0.2078
  886MOL0     O22178  10.196  10.414   3.584 -0.4370 -0.8244 -0.4783
  886MOL0     C22179   9.899  10.271   3.488  0.1216  0.2294 -0.5739
  886MOL0     C22180   9.836  10.145   3.465 -0.1196  0.1812 -0.0366
  886MOL0     N22181   9.991   9.834   2.967  0.0519  0.6451  0.3579
  886MOL0     N22182  10.104   9.895   2.971 -0.9243 -0.2080 -0.0477
  886MOL0     C22183   9.653  10.514   3.144  0.1038  0.8773 -0.7465
  886MOL0     C22184   9.528  10.479   3.185  0.4468  0.4708  0.2021
  886MOL0     C22185   9.187  10.328   3.456 -0.2523 -1.1054 -0.3246
  886MOL0     C22186   9.098  10.356   3.353 -0.7092  0.4253  0.4014
  886MOL0     C22187   8.965  10.322   3.357  0.5438  0.0930 -0.8235
  886MOL0     C22188   8.917  10.255   3.481  0.6768 -0.1959  0.0650
  886MOL0     O22189   8.783  10.245   3.519  0.2274  0.7557 -0.9266
  886MOL0     C22190   8.676  10.317   3.452 -0.0882  0.3315  0.7784
  886MOL0     C22191   8.606  10.217   3.359  0.0188 -1.2691  0.2723
  886MOL0     C22192   8.531  10.108   3.434 -0.6168  0.2739  0.0887
  886MOL0     C22193   8.440  10.156   3.554 -0.5951  0.4091 -0.0158
  886MOL0     C22194   8.341  10.252   3.502 -0.3876 -0.8556 -0.4074
  886MOL0     C22195   8.271  10.345   3.464  0.4062  0.1093 -0.6453
  886MOL0     C22196   9.005  10.235   3.589  1.1031  0.0768  0.0826
  886MOL0     C22197   9.134  10.271   3.575  0.0198 -0.1966  0.0446
  886MOL0     C22198   9.218  10.240   3.706 -0.4976  0.2846  0.1485
  886MOL0     H22199   9.527  10.568   3.503 -2.5581  0.3890 -1.2626
  886MOL0     H22200   9.754  10.625   3.445  0.4247  1.1193 -1.8373
  886MOL0     H22201   9.937  10.706   3.068  3.3022  0.6366  2.5971
  886MOL0     H22202   9.881  10.552   3.023  1.4393 -0.6726 -1.0997
  886MOL0     H22203  10.113  10.558   3.000  0.1106  3.0803  1.4843
  886MOL0     H22204  10.143  10.595   3.170  4.3976 -0.6588 -3.4019
  886MOL0     H22205  10.025  10.389   3.230 -2.2847 -0.1384 -1.5891
  886MOL0     H22206  10.020  10.342   3.064  1.8305 -0.2120 -1.1813
  886MOL0     H22207  10.281  10.351   3.074  1.1082  1.6919  1.2707
  886MOL0     H22208  10.252  10.368   3.251 -2.0110  1.0885  0.4762
  886MOL0     H22209  10.180  10.143   3.067  0.1524  0.1476  0.0409
  886MOL0     H22210  10.127  10.159   3.242  1.0827 -0.4521  0.9816
  886MOL0     H22211  10.416  10.146   3.139  0.6397  1.0236  0.5770
  886MOL0     H22212  10.375  10.177   3.304  2.5892 -2.2759 -0.5563
  886MOL0     H22213  10.244   9.971   3.327 -0.0600 -2.0845 -1.6434
  886MOL0     H22214  10.419   9.948   3.296  0.2493 -0.0429  0.9673
  886MOL0     H22215  10.341   9.927   3.046 -1.0580  1.3814  0.1315
  886MOL0     H22216  10.351   9.794   3.155  3.9726  2.2132  0.3504
  886MOL0     H22217  10.058   9.813   3.287 -0.7771 -0.9634 -0.8525
  886MOL0     H22218   9.819   9.639   3.073 -3.1578 -0.9595  2.0304
  886MOL0     H22219   9.737   9.798   3.057  0.9857  0.7718 -2.1986
  886MOL0     H22220   9.693   9.649   3.279 -0.2750  0.9005  2.4696
  886MOL0     H22221   9.837   9.716   3.331  1.9795 -0.2776 -2.4802
  886MOL0     H22222   9.764   9.961   3.249  0.0897 -0.1805 -1.1316
  886MOL0     H22223   9.604   9.898   3.248 -0.7711 -3.5353 -2.0009
  886MOL0     H22224   9.640   9.987   3.478  1.0167  1.4781 -2.1949
  886MOL0     H22225   9.641   9.809   3.487  0.1343 -0.6710 -0.7906
  886MOL0     H22226  10.061   9.923   3.567 -4.0496 -1.2688 -0.1033
  886MOL0     H22227  10.242  10.201   3.728 -2.9080  1.8309 -1.5341
  886MOL0     H22228  10.304  10.187   3.564 -1.3282  1.2559 -0.3195
  886MOL0     H22229  10.264  10.039   3.653  1.6526 -0.4898 -0.2867
  886MOL0     H22230   9.890  10.732   3.644 -0.8552  0.9071 -0.6486
  886MOL0     H22231   9.979  10.958   3.633 -1.2030 -1.2429 -0.5934
  886MOL0     H22232   9.986  11.123   3.458 -0.0238 -0.6475  2.7558
  886MOL0     H22233  10.077  11.160   3.594 -1.5285  2.1608 -0.2890
  886MOL0     H22234  10.215  11.237   3.347 -0.1722 -1.2272  0.0402
  886MOL0     H22235  10.050  11.313   3.364 -0.9839 -2.8740 -1.4243
  886MOL0     H22236  10.290  11.338   3.545 -0.8935 -4.0720 -2.0515
  886MOL0     H22237  10.135  11.418   3.581 -0.1237 -1.9578  0.9463
  886MOL0     H22238  10.169  11.568   3.368  0.5217 -0.0595  0.9731
  886MOL0     H22239  10.317  11.486   3.333  0.6685  1.9285  0.4925
  886MOL0     H22240  10.358  11.704   3.443  1.5346 -0.2568  0.3200
  886MOL0     H22241  10.278  11.648   3.584  0.3779 -2.5756  0.8720
  886MOL0     H22242  10.507  11.499   3.450  2.8214  1.8480  0.1712
  886MOL0     H22243  10.449  11.465   3.614 -2.5500 -1.2332 -2.1384
  886MOL0     H22244  10.525  11.675   3.707  3.5066 -0.0214  1.6348
  886MOL0     H22245  10.542  11.737   3.537 -0.5085 -0.4178  0.5157
  886MOL0     H22246  10.705  11.549   3.493 -0.6354 -1.0587  0.5120
  886MOL0     H22247  10.687  11.483   3.639 -2.3916 -1.1688 -2.2776
  886MOL0     H22248  10.278  10.833   3.368 -1.6532 -0.6550 -2.4433
  886MOL0     H22249  10.207  10.599   3.381  2.0127  0.3645  1.7074
  886MOL0     H22250   9.851  10.365   3.462 -0.1074 -0.1773 -1.6519
  886MOL0     H22251   9.743  10.138   3.408 -0.1994  2.8668 -0.4026
  886MOL0     H22252   9.684  10.492   3.043  0.1107  0.7458 -0.7162
  886MOL0     H22253   9.455  10.444   3.113 -0.7473  1.0313  1.0895
  886MOL0     H22254   9.130  10.411   3.266 -1.5533  1.6339  0.8198
  886MOL0     H22255   8.889  10.350   3.286  1.3205  1.8831 -0.9950
  886MOL0     H22256   8.608  10.362   3.526  1.5266 -0.8226  3.1012
  886MOL0     H22257   8.713  10.398   3.390 -2.7916 -1.7356 -4.0894
  886MOL0     H22258   8.685  10.165   3.305  0.4710 -1.0626  0.7276
  886MOL0     H22259   8.539  10.264   3.286 -0.3494  1.7179  2.3197
  886MOL0     H22260   8.464  10.060   3.362  0.7736 -2.4060  0.4307
  886MOL0     H22261   8.607  10.042   3.478 -1.1906  0.6398  1.7230
  886MOL0     H22262   8.497  10.200   3.636  0.4086 -0.2709 -0.3257
  886MOL0     H22263   8.403  10.065   3.603  0.3940 -0.1322 -0.2442
  886MOL0     H22264   8.226  10.433   3.423  2.6090  1.4533 -0.3665
  886MOL0     H22265   8.968  10.211   3.688 -1.9398  1.4906 -0.5964
  886MOL0     H22266   9.203  10.140   3.747 -0.2327  0.5234  0.8442
  886MOL0     H22267   9.324  10.266   3.695 -0.5775  0.8186  0.5532
  886MOL0     H22268   9.176  10.312   3.778 -1.7870  0.1861 -0.4746
  887MOL0     O22269   6.654   1.146   6.917  0.7302 -0.2748  1.0283
  887MOL0     C22270   6.655   1.027   6.884 -0.6230 -0.2326  0.6175
  887MOL0     O22271   6.548   0.942   6.890  0.5598  0.2683  0.5603
  887MOL0     C22272   6.434   0.973   6.959  1.1055  0.1123 -0.6319
  887MOL0     C22273   6.435   1.053   7.077  1.0454 -0.2298 -0.1410
  887MOL0     C22274   6.317   1.086   7.145 -0.0316 -0.4970 -0.4927
  887MOL0     C22275   6.194   1.029   7.103  0.1813 -0.5744 -0.0748
  887MOL0     O22276   6.065   1.055   7.139 -0.4620 -0.5245  0.7438
  887MOL0     C22277   6.026   1.127   7.255  0.8177  0.0466 -0.7880
  887MOL0     C22278   5.928   1.242   7.220  0.0069 -0.0598  0.7001
  887MOL0     C22279   5.987   1.358   7.149  0.1440 -0.3292 -0.4146
  887MOL0     C22280   6.049   1.456   7.245  0.6212 -0.6235  0.8895
  887MOL0     C22281   6.120   1.561   7.149 -0.1214 -0.0288 -0.5801
  887MOL0     C22282   6.143   1.700   7.208 -0.0942 -0.8265 -0.0534
  887MOL0     C22283   6.262   1.765   7.142  0.4489  0.6608  0.1391
  887MOL0     C22284   6.261   1.915   7.181  0.0362  0.3894 -0.5640
  887MOL0     N22285   6.397   1.979   7.158  0.9204  0.0227  0.1711
  887MOL0     C22286   6.449   1.968   7.031  0.2079 -0.3552 -0.2219
  887MOL0     C22287   6.574   2.023   7.054  0.6436 -0.1840 -0.2091
  887MOL0     C22288   6.683   2.043   6.960  0.7474  0.6312  0.3717
  887MOL0     C22289   6.816   2.078   7.017 -0.2550  0.6723 -0.8455
  887MOL0     C22290   6.894   1.958   7.058 -1.2069  0.2623 -0.7849
  887MOL0     C22291   6.836   1.888   7.182  1.4046  0.4822 -0.1013
  887MOL0     O22292   6.925   1.796   7.229  0.8064  0.6428  0.2686
  887MOL0     C22293   6.912   1.735   7.344  0.3521 -0.3146 -0.1803
  887MOL0     C22294   7.023   1.666   7.392 -0.3030 -0.3363 -0.1867
  887MOL0     C22295   7.031   1.586   7.509  0.4239 -0.1129  0.3834
  887MOL0     C22296   7.160   1.517   7.534  0.5268 -0.6870  0.3875
  887MOL0     C22297   6.910   1.579   7.585 -1.5002  0.1729 -0.5907
  887MOL0     C22298   6.899   1.498   7.713 -0.3139  0.6642 -0.0490
  887MOL0     O22299   6.802   1.513   7.803  0.5495 -1.0713 -0.1534
  887MOL0     C22300   6.767   1.416   7.899  0.1561 -0.8445 -0.4371
  887MOL0     C22301   6.753   1.280   7.878  1.2121 -0.2409 -0.1120
  887MOL0     C22302   6.724   1.198   7.988 -0.3739 -0.2918  0.0955
  887MOL0     C22303   6.700   1.253   8.111  0.4232  1.1341 -0.3907
  887MOL0     O22304   6.674   1.142   8.191 -0.2467  0.4025 -0.2309
  887MOL0     C22305   6.695   1.150   8.337  0.3833  0.6328 -0.0329
  887MOL0     C22306   6.676   1.010   8.409 -0.3232  0.1329  0.0029
  887MOL0     C22307   6.523   0.962   8.415  0.1724  0.0808 -0.8317
  887MOL0     C22308   6.515   0.833   8.497 -0.3709 -0.9111 -0.2073
  887MOL0     C22309   6.359   0.818   8.527  0.0280 -0.1318  0.3769
  887MOL0     C22310   6.346   0.677   8.581  0.4881 -0.5298  0.9497
  887MOL0     C22311   6.213   0.653   8.657 -1.2690  0.5089 -0.6154
  887MOL0     C22312   6.206   0.507   8.706 -0.0104 -0.1774 -0.3680
  887MOL0    Cl22313   6.300   0.466   8.848  0.7401 -0.0052  0.1005
  887MOL0     C22314   6.701   1.389   8.138 -0.6283  0.0651 -0.1533
  887MOL0     C22315   6.719   1.473   8.023  0.2738  0.4591  0.6297
  887MOL0     O22316   6.979   1.405   7.735  0.4150  0.0486 -0.5589
  887MOL0     C22317   6.801   1.667   7.548  0.3574 -0.5244  0.0064
  887MOL0     C22318   6.801   1.730   7.423 -0.5235  0.4027  0.4299
  887MOL0     N22319   6.586   2.054   7.184  1.0190  0.1192  0.0014
  887MOL0     N22320   6.479   2.026   7.254 -0.5123  0.1409  0.2452
  887MOL0     C22321   6.195   0.937   7.000 -0.2558 -0.4076 -0.0172
  887MOL0     C22322   6.312   0.909   6.929 -0.2109  0.1981 -0.1333
  887MOL0     C22323   6.786   0.959   6.851 -0.6536  0.9352  0.5909
  887MOL0     C22324   6.812   0.817   6.876  0.7746  0.6556  0.6315
  887MOL0     C22325   6.941   0.750   6.855  0.7033 -0.5663 -0.9067
  887MOL0     C22326   7.042   0.817   6.791 -0.6396  0.5930 -0.4697
  887MOL0     O22327   7.148   0.751   6.757 -0.8326  0.7945  0.1743
  887MOL0     C22328   7.265   0.822   6.719 -0.0336  0.4275 -0.4737
  887MOL0     C22329   7.381   0.729   6.694 -0.5328  0.0806  0.4147
  887MOL0     C22330   7.334   0.600   6.610 -0.3113  0.2723 -0.0429
  887MOL0     C22331   7.448   0.558   6.505  0.2445 -0.1373 -0.0302
  887MOL0     C22332   7.388   0.454   6.420  0.2919  0.0294 -0.4421
  887MOL0     C22333   7.329   0.378   6.349  0.2360  0.5590  0.8220
  887MOL0     C22334   7.023   0.953   6.759 -0.1806 -0.3321 -1.6403
  887MOL0     C22335   6.901   1.023   6.790 -0.3731 -0.3617 -0.1807
  887MOL0     C22336   6.888   1.161   6.749  0.0500 -0.9859 -0.1994
  887MOL0     H22337   6.531   1.089   7.114  1.1701  0.1865 -0.8519
  887MOL0     H22338   6.332   1.157   7.225  2.4450  3.2047 -3.8918
  887MOL0     H22339   6.112   1.165   7.311  0.6213 -0.6681  0.0205
  887MOL0     H22340   5.979   1.057   7.326  2.4570 -0.3573 -0.0507
  887MOL0     H22341   5.838   1.215   7.164  0.2361 -0.9202  0.7281
  887MOL0     H22342   5.896   1.278   7.319 -1.2444  0.6158  0.0694
  887MOL0     H22343   6.066   1.322   7.083  2.7902  2.4254  1.0128
  887MOL0     H22344   5.908   1.415   7.099  0.7922  3.4590  2.4035
  887MOL0     H22345   5.974   1.513   7.300  0.1647 -0.3055 -0.0537
  887MOL0     H22346   6.112   1.403   7.318  1.1225  0.4950  1.3006
  887MOL0     H22347   6.066   1.566   7.054 -0.6206 -0.1790 -0.3075
  887MOL0     H22348   6.216   1.514   7.126 -1.2841 -2.2485 -1.1726
  887MOL0     H22349   6.058   1.762   7.179  0.7247 -0.5325 -1.9730
  887MOL0     H22350   6.157   1.706   7.316  0.2388  4.9773 -0.1454
  887MOL0     H22351   6.252   1.765   7.033 -0.1312  0.0598  0.1855
  887MOL0     H22352   6.350   1.718   7.184 -1.7199 -1.6363  2.4819
  887MOL0     H22353   6.180   1.958   7.122 -0.3402  0.5177  0.0350
  887MOL0     H22354   6.225   1.928   7.283 -0.3412 -2.4806 -0.2464
  887MOL0     H22355   6.396   1.926   6.947  0.5982 -0.8992 -0.1998
  887MOL0     H22356   6.655   2.119   6.886 -1.6984 -1.5888 -1.1815
  887MOL0     H22357   6.692   1.953   6.898  1.1409  0.5269  0.5806
  887MOL0     H22358   6.865   2.154   6.956 -2.3109  4.0598  1.4000
  887MOL0     H22359   6.800   2.144   7.102  0.8174  1.2271 -1.0589
  887MOL0     H22360   6.909   1.882   6.980  2.0220 -0.6783  0.5811
  887MOL0     H22361   6.997   1.991   7.074 -1.3537  0.6271 -0.6033
  887MOL0     H22362   6.820   1.961   7.263 -0.3560 -0.4292  0.4229
  887MOL0     H22363   6.737   1.848   7.159  0.1798  3.3935 -0.4281
  887MOL0     H22364   7.108   1.679   7.326 -0.7713  0.2613 -0.6872
  887MOL0     H22365   7.174   1.439   7.458  3.7390  1.3224 -1.3002
  887MOL0     H22366   7.171   1.474   7.634 -1.8888  0.2799  1.1384
  887MOL0     H22367   7.237   1.593   7.522  0.0310 -0.4554 -1.7858
  887MOL0     H22368   6.774   1.241   7.779 -0.4493 -0.4177 -0.4354
  887MOL0     H22369   6.731   1.090   7.982 -0.8715 -0.2537 -1.7814
  887MOL0     H22370   6.790   1.199   8.358  0.7485 -0.4229  0.9317
  887MOL0     H22371   6.625   1.223   8.379  2.0985  2.2725  0.0647
  887MOL0     H22372   6.736   0.935   8.357 -1.9329 -4.1993  3.7688
  887MOL0     H22373   6.715   1.004   8.511  2.1875 -0.1121 -0.9121
  887MOL0     H22374   6.484   0.940   8.315 -2.2344 -0.0681  0.0868
  887MOL0     H22375   6.461   1.033   8.471  1.4015  1.7548 -1.5098
  887MOL0     H22376   6.569   0.837   8.592 -1.9018 -0.0857  0.6759
  887MOL0     H22377   6.554   0.759   8.427  0.7326 -1.0384  0.5131
  887MOL0     H22378   6.326   0.883   8.609  2.7338 -1.1758  2.4475
  887MOL0     H22379   6.301   0.835   8.436  4.0239  0.9270 -2.2627
  887MOL0     H22380   6.423   0.673   8.658 -0.7880  3.3884  2.6411
  887MOL0     H22381   6.357   0.598   8.506 -0.4611  0.2934 -0.0909
  887MOL0     H22382   6.141   0.677   8.579 -0.2555 -1.7327 -2.3727
  887MOL0     H22383   6.210   0.730   8.735  0.3164  0.2101 -0.2274
  887MOL0     H22384   6.239   0.437   8.628 -2.5991 -0.3728 -1.4082
  887MOL0     H22385   6.100   0.497   8.730 -0.2257  0.8476 -0.8376
  887MOL0     H22386   6.673   1.427   8.236  0.9368  1.4168 -0.1791
  887MOL0     H22387   6.734   1.580   8.031  0.6350  0.2838  3.4974
  887MOL0     H22388   6.713   1.678   7.611  1.6334  0.1722  1.7730
  887MOL0     H22389   6.710   1.783   7.394 -1.2973  0.1412  2.2664
  887MOL0     H22390   6.113   0.876   6.966  0.4969 -1.6784  0.3818
  887MOL0     H22391   6.300   0.851   6.838 -0.6952 -0.2610  0.2084
  887MOL0     H22392   6.737   0.762   6.931  3.3518 -3.6093  0.3247
  887MOL0     H22393   6.954   0.649   6.893 -1.2690 -2.0924 -3.8650
  887MOL0     H22394   7.240   0.881   6.630 -1.2442  1.7056  0.6641
  887MOL0     H22395   7.289   0.888   6.803 -0.0667  0.2560 -0.3295
  887MOL0     H22396   7.433   0.692   6.783  1.1882 -3.2807 -1.7608
  887MOL0     H22397   7.458   0.783   6.638 -0.6057  1.5223  1.6455
  887MOL0     H22398   7.310   0.517   6.677 -1.8981  0.9786  0.3260
  887MOL0     H22399   7.247   0.626   6.548  0.2571  0.6545 -0.7039
  887MOL0     H22400   7.520   0.502   6.565 -1.3539 -4.2885 -1.5865
  887MOL0     H22401   7.493   0.645   6.456  0.1675 -0.7856 -1.2997
  887MOL0     H22402   7.283   0.315   6.276  2.6746  0.7346 -0.9918
  887MOL0     H22403   7.094   1.012   6.703 -0.0350 -0.4264 -1.5562
  887MOL0     H22404   6.891   1.226   6.838 -3.8701 -1.3263  0.3384
  887MOL0     H22405   6.970   1.202   6.688  0.6334 -3.7680 -1.4210
  887MOL0     H22406   6.791   1.178   6.702 -1.0581 -1.2912  1.8815
  888MOL0     O22407   4.684   5.345   0.006 -0.3967  0.6998  0.7868
  888MOL0     C22408   4.591   5.421   0.006  0.4368 -0.4900 -0.3308
  888MOL0     O22409   4.584   5.538  -0.068  1.0618  0.8944 -0.1359
  888MOL0     C22410   4.703   5.602  -0.084 -0.4730 -0.5046  0.1445
  888MOL0     C22411   4.805   5.539  -0.174 -0.4980 -0.4135  0.9236
  888MOL0     C22412   4.932   5.601  -0.185  0.5245 -0.5823 -0.4632
  888MOL0     C22413   4.956   5.730  -0.127  0.0599 -0.9580  0.5308
  888MOL0     O22414   5.078   5.794  -0.157  0.0374  0.8509 -0.5423
  888MOL0     C22415   5.066   5.915  -0.228 -0.3475 -0.8726  0.0671
  888MOL0     C22416   5.182   5.927  -0.332  0.0681 -1.3514 -0.5362
  888MOL0     C22417   5.171   5.819  -0.450 -0.9986  0.6682  0.2206
  888MOL0     C22418   5.299   5.827  -0.551  0.7593  0.6982 -0.7012
  888MOL0     C22419   5.324   5.971  -0.596 -0.8849 -1.1369 -0.6096
  888MOL0     C22420   5.446   5.969  -0.700  0.0480 -0.3005 -0.6993
  888MOL0     C22421   5.506   6.105  -0.744 -0.2552  0.3937  0.3799
  888MOL0     C22422   5.590   6.183  -0.637 -0.2161  0.3910 -0.3582
  888MOL0     N22423   5.713   6.102  -0.598  0.0734 -0.2482 -0.3227
  888MOL0     C22424   5.793   6.043  -0.689 -0.6550 -0.8883 -0.4884
  888MOL0     C22425   5.883   5.970  -0.603 -0.1814  0.7259 -0.2243
  888MOL0     C22426   6.012   5.900  -0.642  0.1332 -0.1169 -0.1842
  888MOL0     C22427   6.088   5.816  -0.534  0.0712 -0.9339  0.8829
  888MOL0     C22428   6.196   5.713  -0.589 -0.6430 -0.5688  1.0433
  888MOL0     C22429   6.304   5.657  -0.499 -0.2317  0.1830 -0.3259
  888MOL0     O22430   6.393   5.568  -0.565  0.4938  0.0111  0.4434
  888MOL0     C22431   6.455   5.471  -0.486  0.1627  0.1480  0.1036
  888MOL0     C22432   6.467   5.484  -0.348  0.2913  0.6326  0.1975
  888MOL0     C22433   6.540   5.386  -0.274 -0.1005 -0.0920  0.7360
  888MOL0     C22434   6.550   5.395  -0.124 -0.5410 -0.0166  0.3095
  888MOL0     C22435   6.615   5.289  -0.339  0.1336  0.6953  0.5244
  888MOL0     C22436   6.706   5.187  -0.277 -0.2458  0.5478  0.3239
  888MOL0     O22437   6.787   5.119  -0.365  0.0292  0.4313  0.3103
  888MOL0     C22438   6.899   5.059  -0.323  0.0695 -0.2561 -0.5520
  888MOL0     C22439   6.952   4.966  -0.404  0.1976  0.7578 -0.2512
  888MOL0     C22440   7.081   4.912  -0.376  0.3051 -0.1751 -0.5367
  888MOL0     C22441   7.167   4.956  -0.272 -0.0979  0.5571 -0.1793
  888MOL0     O22442   7.291   4.900  -0.246  0.2451 -0.5040  0.0213
  888MOL0     C22443   7.358   4.906  -0.114 -0.4731 -0.4711 -0.0114
  888MOL0     C22444   7.492   4.832  -0.122 -0.1009  0.5023  0.0797
  888MOL0     C22445   7.496   4.696  -0.198  0.3929  0.7875 -1.2879
  888MOL0     C22446   7.416   4.591  -0.117 -1.1764  0.0955  0.0351
  888MOL0     C22447   7.410   4.463  -0.196 -0.2807 -0.1874  0.3979
  888MOL0     C22448   7.346   4.352  -0.106 -0.9234 -0.3233  0.5206
  888MOL0     C22449   7.206   4.384  -0.054  0.1787  0.7846 -0.0347
  888MOL0     C22450   7.130   4.262  -0.004  0.2452 -1.0473 -0.3284
  888MOL0    Cl22451   7.128   4.138  -0.137  0.1068 -0.0909  0.1820
  888MOL0     C22452   7.116   5.057  -0.187  0.0809 -0.8218  0.5356
  888MOL0     C22453   6.981   5.106  -0.210  0.3811 -0.0453 -0.5651
  888MOL0     O22454   6.707   5.174  -0.159 -0.3264 -0.0612  0.0044
  888MOL0     C22455   6.602   5.286  -0.475 -0.5335  0.6056 -0.7290
  888MOL0     C22456   6.518   5.372  -0.551 -0.2037  0.9514  0.3004
  888MOL0     N22457   5.827   5.966  -0.472 -0.1767 -0.7640 -0.1430
  888MOL0     N22458   5.728   6.049  -0.474 -0.1130  0.7905 -0.0573
  888MOL0     C22459   4.866   5.794  -0.045  0.4617  0.3180  0.7448
  888MOL0     C22460   4.742   5.721  -0.029  0.9445  0.3508  0.5945
  888MOL0     C22461   4.473   5.369   0.085  0.7031  0.0985 -0.5840
  888MOL0     C22462   4.337   5.395   0.051 -0.0621  0.3578  0.3839
  888MOL0     C22463   4.230   5.358   0.124 -0.1775  0.0002 -0.6725
  888MOL0     C22464   4.239   5.279   0.240 -0.5250 -0.1807 -0.6905
  888MOL0     O22465   4.145   5.220   0.325 -0.4313  0.3835  0.1556
  888MOL0     C22466   4.009   5.220   0.283 -0.4566  0.6409  0.5419
  888MOL0     C22467   3.972   5.103   0.184 -0.6082 -0.0337 -0.2871
  888MOL0     C22468   4.002   4.972   0.249  0.4505  0.7270  0.4241
  888MOL0     C22469   3.897   4.862   0.211 -0.4558 -0.5110 -0.6195
  888MOL0     C22470   3.752   4.891   0.252 -0.3637 -0.5116  1.0708
  888MOL0     C22471   3.641   4.917   0.294  0.1213  0.1254 -0.3154
  888MOL0     C22472   4.369   5.248   0.277 -0.0370  0.2954 -0.4597
  888MOL0     C22473   4.485   5.291   0.212  0.3994  0.3992 -0.0085
  888MOL0     C22474   4.620   5.260   0.275 -0.0499 -0.6347  0.5501
  888MOL0     H22475   4.773   5.452  -0.231 -1.0727  0.6492 -0.4256
  888MOL0     H22476   5.010   5.559  -0.248  1.7489 -1.3687  1.4851
  888MOL0     H22477   5.072   5.990  -0.148  1.5449 -1.9065  0.9351
  888MOL0     H22478   4.971   5.924  -0.282  0.5291 -0.0240 -1.4101
  888MOL0     H22479   5.181   6.032  -0.361  3.2315 -1.2679 -0.6184
  888MOL0     H22480   5.280   5.919  -0.283  0.0961  5.0631  1.3969
  888MOL0     H22481   5.146   5.719  -0.413  1.0850 -0.6149 -1.6077
  888MOL0     H22482   5.077   5.843  -0.498  0.6835  1.3481 -3.0070
  888MOL0     H22483   5.387   5.788  -0.500  1.6806 -0.8523 -3.2971
  888MOL0     H22484   5.279   5.756  -0.631 -4.1534 -3.9769  3.8661
  888MOL0     H22485   5.345   6.031  -0.507  0.5856 -3.3705  0.6709
  888MOL0     H22486   5.243   6.014  -0.654  1.0191  1.9394 -1.2431
  888MOL0     H22487   5.530   5.911  -0.661 -0.9760 -0.7355  0.9864
  888MOL0     H22488   5.398   5.922  -0.786  0.1914 -0.0520 -0.9161
  888MOL0     H22489   5.417   6.164  -0.767 -1.8990 -1.9681  0.3105
  888MOL0     H22490   5.558   6.108  -0.840 -0.0230  4.3267  0.4839
  888MOL0     H22491   5.632   6.269  -0.691 -1.6477  0.4580 -1.4451
  888MOL0     H22492   5.523   6.205  -0.554 -0.5230 -2.4250  0.2387
  888MOL0     H22493   5.803   6.081  -0.790 -3.8604  0.1126 -0.5251
  888MOL0     H22494   6.080   5.975  -0.683 -3.0446  2.9985 -0.2057
  888MOL0     H22495   5.991   5.832  -0.725  1.0716  2.6559 -2.8598
  888MOL0     H22496   6.132   5.883  -0.459 -0.5857 -0.4547  0.8450
  888MOL0     H22497   6.020   5.756  -0.473 -1.5988 -2.2446 -2.0748
  888MOL0     H22498   6.144   5.624  -0.625 -1.0084  0.3209 -0.7048
  888MOL0     H22499   6.249   5.756  -0.674 -1.4453 -1.1256  0.2465
  888MOL0     H22500   6.363   5.741  -0.461  0.7800 -0.6941  0.1110
  888MOL0     H22501   6.249   5.607  -0.419  0.4493 -1.3604 -0.7819
  888MOL0     H22502   6.421   5.570  -0.300  1.0699  2.2833 -1.8541
  888MOL0     H22503   6.650   5.414  -0.085 -1.4684 -1.0045  3.4264
  888MOL0     H22504   6.511   5.307  -0.072  2.2395 -0.4841  1.7908
  888MOL0     H22505   6.494   5.485  -0.099  0.4149 -0.2751  3.9710
  888MOL0     H22506   6.897   4.938  -0.493 -0.0448 -0.0017  0.1246
  888MOL0     H22507   7.119   4.831  -0.438 -1.8884 -2.0586  0.4157
  888MOL0     H22508   7.368   5.014  -0.096 -2.5810 -0.5075  1.8902
  888MOL0     H22509   7.298   4.867  -0.031  0.2784  1.2464  1.3952
  888MOL0     H22510   7.563   4.898  -0.173  1.5069  2.0815  3.9559
  888MOL0     H22511   7.534   4.820  -0.022  1.2193 -0.8304 -0.5982
  888MOL0     H22512   7.603   4.676  -0.207  1.5052  3.2637  3.2657
  888MOL0     H22513   7.451   4.725  -0.293  0.5013 -1.9857 -2.2693
  888MOL0     H22514   7.311   4.614  -0.097 -0.7748  1.4266  0.7527
  888MOL0     H22515   7.467   4.589  -0.020  0.3416  1.8819 -0.6497
  888MOL0     H22516   7.361   4.472  -0.293 -0.1623 -0.7538  0.2834
  888MOL0     H22517   7.511   4.432  -0.224  0.8654  3.5757 -0.2640
  888MOL0     H22518   7.415   4.326  -0.026  1.5551 -2.4404 -2.0695
  888MOL0     H22519   7.344   4.262  -0.168 -1.3638 -2.2749  3.2319
  888MOL0     H22520   7.150   4.444  -0.126 -0.7541 -0.6362 -0.5228
  888MOL0     H22521   7.209   4.447   0.035  1.6978 -0.4419  0.8358
  888MOL0     H22522   7.026   4.284   0.022  1.0962  0.4077  2.2016
  888MOL0     H22523   7.185   4.220   0.081 -0.1236 -3.0991 -1.0526
  888MOL0     H22524   7.168   5.111  -0.108  1.2286 -1.6272  0.3688
  888MOL0     H22525   6.934   5.172  -0.137 -1.6232 -1.5186 -0.4181
  888MOL0     H22526   6.632   5.194  -0.524 -1.8915 -0.9638  1.2502
  888MOL0     H22527   6.495   5.352  -0.656 -0.5905 -1.2886  0.7615
  888MOL0     H22528   4.900   5.885   0.003  2.4402  0.1167 -0.1525
  888MOL0     H22529   4.674   5.777   0.034  0.1795  1.7932 -1.4269
  888MOL0     H22530   4.323   5.431  -0.051  2.1853 -0.2913 -0.2336
  888MOL0     H22531   4.127   5.376   0.095 -1.7702 -3.3059  2.1326
  888MOL0     H22532   3.951   5.212   0.375 -0.5386  0.5103  0.4799
  888MOL0     H22533   3.975   5.309   0.230  2.8301  0.8276 -1.4987
  888MOL0     H22534   4.036   5.113   0.096  4.3979  2.8048  3.1363
  888MOL0     H22535   3.870   5.094   0.144  0.6748  0.7224 -4.0902
  888MOL0     H22536   4.094   4.944   0.195 -0.3854  2.1933 -1.9084
  888MOL0     H22537   4.006   4.975   0.358 -0.3772 -2.7434  0.6651
  888MOL0     H22538   3.937   4.780   0.271  2.4942  1.2102 -0.0199
  888MOL0     H22539   3.905   4.829   0.107  2.6201 -0.9904 -0.3260
  888MOL0     H22540   3.540   4.936   0.323 -0.3566 -2.0189 -0.4177
  888MOL0     H22541   4.386   5.184   0.363 -3.6531 -2.3171 -1.4279
  888MOL0     H22542   4.618   5.238   0.382  0.8247 -0.2423  0.6568
  888MOL0     H22543   4.681   5.183   0.226  4.0480  0.5362  3.2268
  888MOL0     H22544   4.685   5.347   0.260 -3.1040  1.8939  1.0600
  889MOL0     O22545   4.844   2.814   7.010  0.3303 -1.0633 -0.5166
  889MOL0     C22546   4.727   2.857   7.008  0.0964 -0.1650 -0.4763
  889MOL0     O22547   4.692   2.987   7.038 -0.4073 -0.2971 -0.1116
  889MOL0     C22548   4.786   3.071   7.088  0.3899 -0.3619  0.0625
  889MOL0     C22549   4.738   3.139   7.199  0.0435 -0.7090  0.6517
  889MOL0     C22550   4.826   3.215   7.282 -0.3667  0.7060 -0.1093
  889MOL0     C22551   4.959   3.222   7.248 -0.5511 -0.1521  0.5486
  889MOL0     O22552   5.057   3.306   7.309 -0.0820 -0.0233  0.4172
  889MOL0     C22553   5.010   3.354   7.436  0.1621  0.1521  0.1131
  889MOL0     C22554   5.105   3.447   7.514  0.4657 -1.3149 -0.7364
  889MOL0     C22555   5.247   3.408   7.497 -1.2080  0.3771 -0.9207
  889MOL0     C22556   5.285   3.268   7.556  0.0792 -0.0519  0.7215
  889MOL0     C22557   5.437   3.244   7.584  0.3342  0.0243 -1.1223
  889MOL0     C22558   5.531   3.239   7.464 -0.8937  0.4651 -0.5039
  889MOL0     C22559   5.649   3.136   7.475  0.0389 -0.4304  0.7939
  889MOL0     C22560   5.768   3.200   7.542  0.2348 -0.8152  0.2879
  889MOL0     N22561   5.896   3.122   7.544 -0.0251  0.2519  0.0569
  889MOL0     C22562   5.945   3.059   7.426  0.4900 -0.8844 -0.3189
  889MOL0     C22563   6.049   2.984   7.466  1.0933 -0.6513  0.5581
  889MOL0     C22564   6.153   2.921   7.376 -0.0453  0.4374 -0.3380
  889MOL0     C22565   6.273   3.009   7.386  0.4606 -0.0171  0.2441
  889MOL0     C22566   6.391   2.961   7.295 -0.2309  0.3328  0.0695
  889MOL0     C22567   6.431   2.814   7.311  0.1014 -0.1453  0.8118
  889MOL0     O22568   6.548   2.782   7.233  0.3248  0.0536 -0.7071
  889MOL0     C22569   6.619   2.672   7.275 -0.2258 -0.3146  0.0422
  889MOL0     C22570   6.575   2.559   7.337 -0.3753 -0.1569 -0.3256
  889MOL0     C22571   6.649   2.446   7.364 -0.7479 -0.6898  0.4429
  889MOL0     C22572   6.584   2.329   7.429  0.3124 -0.6057  0.1932
  889MOL0     C22573   6.786   2.444   7.325  0.3524  0.3923  1.5419
  889MOL0     C22574   6.880   2.336   7.363 -0.0048 -0.1383 -0.9058
  889MOL0     O22575   6.998   2.325   7.291  0.2628  0.5203  0.1563
  889MOL0     C22576   7.102   2.238   7.307 -0.2317 -0.7015 -0.4534
  889MOL0     C22577   7.239   2.289   7.302  0.1380 -0.3025 -0.4139
  889MOL0     C22578   7.341   2.199   7.330 -0.3221 -0.1672 -0.8652
  889MOL0     C22579   7.326   2.061   7.365 -0.0011  0.7700  0.4496
  889MOL0     O22580   7.446   1.987   7.383  0.2513  0.3729  0.2410
  889MOL0     C22581   7.431   1.842   7.399 -0.1886  0.0205  0.6360
  889MOL0     C22582   7.567   1.782   7.395 -0.4190 -0.1310  0.5009
  889MOL0     C22583   7.575   1.630   7.405 -0.1091 -0.4655 -0.2293
  889MOL0     C22584   7.558   1.563   7.268  0.4460 -0.5029 -0.2449
  889MOL0     C22585   7.596   1.420   7.276 -1.3323 -0.3144 -0.0235
  889MOL0     C22586   7.757   1.395   7.237  0.3229 -0.5153 -1.1662
  889MOL0     C22587   7.799   1.248   7.242  0.0841  0.5326  0.2308
  889MOL0     C22588   7.803   1.202   7.391 -0.9715 -0.3966 -0.2216
  889MOL0    Cl22589   7.818   1.019   7.389 -0.0253 -0.2398 -0.3145
  889MOL0     C22590   7.196   2.023   7.384  0.3606  0.2912  0.6255
  889MOL0     C22591   7.091   2.105   7.349  1.1815  0.0203  0.6610
  889MOL0     O22592   6.858   2.257   7.458  0.4113 -0.3085  0.3087
  889MOL0     C22593   6.834   2.560   7.264 -0.0170 -0.0772 -0.3130
  889MOL0     C22594   6.756   2.669   7.241  0.4302 -0.6765  1.4353
  889MOL0     N22595   6.049   2.982   7.605  0.4571  0.0876  0.3058
  889MOL0     N22596   5.951   3.063   7.651 -0.0759  0.1437 -0.3606
  889MOL0     C22597   5.005   3.160   7.130  1.6076  0.5066  0.2768
  889MOL0     C22598   4.923   3.079   7.056  0.4412  0.0997 -0.2295
  889MOL0     C22599   4.619   2.772   6.956 -0.9408  0.7039 -0.7560
  889MOL0     C22600   4.514   2.821   6.883  0.3596 -0.1056  0.5682
  889MOL0     C22601   4.421   2.730   6.832  0.2181  0.5271  0.3199
  889MOL0     C22602   4.415   2.593   6.866 -0.0063 -0.1141 -0.8912
  889MOL0     O22603   4.308   2.511   6.839  0.1735  0.6883  0.2527
  889MOL0     C22604   4.189   2.567   6.765 -0.1655  0.0409 -0.3525
  889MOL0     C22605   4.086   2.455   6.739  0.5519  0.5133 -1.1785
  889MOL0     C22606   4.135   2.372   6.617  0.6854  0.1012  0.8599
  889MOL0     C22607   4.067   2.238   6.587  0.8340 -0.0349 -0.4254
  889MOL0     C22608   3.925   2.254   6.574 -0.4269  1.1778  0.0505
  889MOL0     C22609   3.807   2.260   6.550  0.4673 -0.0687 -0.1673
  889MOL0     C22610   4.521   2.547   6.945  0.9903 -0.0644 -1.2816
  889MOL0     C22611   4.621   2.631   6.989  0.3442  0.4489 -0.4361
  889MOL0     C22612   4.713   2.554   7.089  0.3649  0.0797 -0.1672
  889MOL0     H22613   4.632   3.126   7.219 -0.0915 -1.7418 -0.5801
  889MOL0     H22614   4.785   3.267   7.368 -0.9230 -0.1987  0.1808
  889MOL0     H22615   4.981   3.270   7.500 -0.9498  1.2907  1.1425
  889MOL0     H22616   4.921   3.417   7.422  1.3830  2.0886  0.7585
  889MOL0     H22617   5.092   3.552   7.486  0.3187 -1.4610 -1.2187
  889MOL0     H22618   5.074   3.440   7.619 -1.3411 -1.4423 -1.2362
  889MOL0     H22619   5.281   3.406   7.393  0.6943  0.5108 -0.3310
  889MOL0     H22620   5.309   3.488   7.536  1.3227 -2.0505  0.3791
  889MOL0     H22621   5.221   3.258   7.644 -0.8527  0.5441  0.1360
  889MOL0     H22622   5.255   3.183   7.494  1.6048 -0.1244  0.0384
  889MOL0     H22623   5.457   3.144   7.624 -1.2961  0.0874 -0.0336
  889MOL0     H22624   5.474   3.321   7.652  1.1419 -0.5785 -0.8652
  889MOL0     H22625   5.476   3.217   7.372 -1.5663  0.1544 -0.0332
  889MOL0     H22626   5.574   3.337   7.440 -1.1406  0.7926  0.3561
  889MOL0     H22627   5.677   3.106   7.373 -0.5848 -0.7392  0.7024
  889MOL0     H22628   5.611   3.047   7.526 -0.5208 -1.2876 -1.0435
  889MOL0     H22629   5.786   3.294   7.491 -1.2143  1.5365  3.7112
  889MOL0     H22630   5.737   3.220   7.645  0.6143 -2.3851  0.7451
  889MOL0     H22631   5.918   3.079   7.323  0.1415 -1.1204 -0.2731
  889MOL0     H22632   6.109   2.909   7.277 -2.3016  0.7939  0.5648
  889MOL0     H22633   6.169   2.819   7.413 -1.6582  0.4143  0.3758
  889MOL0     H22634   6.253   3.116   7.373 -0.9402 -0.1934  0.7995
  889MOL0     H22635   6.309   3.004   7.490 -0.0272 -2.2778  0.3433
  889MOL0     H22636   6.358   2.974   7.192 -0.1377 -3.4647 -0.5747
  889MOL0     H22637   6.479   3.019   7.325 -0.8186  0.2277  2.1643
  889MOL0     H22638   6.430   2.793   7.419 -0.6831 -3.3185  0.2788
  889MOL0     H22639   6.351   2.750   7.274  0.0541 -0.6764  1.7972
  889MOL0     H22640   6.466   2.554   7.341 -0.2980 -1.3660  1.4741
  889MOL0     H22641   6.600   2.331   7.537  3.3021 -0.1443 -0.1890
  889MOL0     H22642   6.621   2.229   7.405  0.8230 -0.6706  1.2029
  889MOL0     H22643   6.481   2.326   7.391  0.0953  1.9710  0.3944
  889MOL0     H22644   7.265   2.391   7.277  0.4673  0.4197  2.5097
  889MOL0     H22645   7.442   2.239   7.331 -0.3946  0.0301 -1.2391
  889MOL0     H22646   7.376   1.815   7.489 -2.0302  0.3987 -0.3206
  889MOL0     H22647   7.372   1.801   7.316  1.5325 -2.3933  0.4949
  889MOL0     H22648   7.605   1.808   7.296 -2.2830 -1.2514 -0.5710
  889MOL0     H22649   7.625   1.827   7.475  0.3396 -0.6593  0.2615
  889MOL0     H22650   7.504   1.600   7.482  1.7059  2.0358  2.5961
  889MOL0     H22651   7.671   1.605   7.451  0.0296 -1.8132 -1.1579
  889MOL0     H22652   7.609   1.624   7.193  1.3403  0.4016  1.0467
  889MOL0     H22653   7.451   1.566   7.244 -0.1448  1.1169  2.1653
  889MOL0     H22654   7.566   1.384   7.374  0.6925  0.1887  0.8392
  889MOL0     H22655   7.535   1.362   7.206 -1.6504 -0.1922  0.1528
  889MOL0     H22656   7.809   1.461   7.307 -0.4134 -1.2623  0.1363
  889MOL0     H22657   7.757   1.433   7.134  2.4662 -0.4915 -1.2043
  889MOL0     H22658   7.892   1.241   7.185  0.3359  0.8449  0.5989
  889MOL0     H22659   7.721   1.196   7.185  0.4017 -1.3385  1.4351
  889MOL0     H22660   7.724   1.232   7.461  0.0681 -0.5066  1.0570
  889MOL0     H22661   7.890   1.252   7.436 -2.2594  1.2406  0.5521
  889MOL0     H22662   7.170   1.921   7.411 -0.8934  0.2175 -0.7606
  889MOL0     H22663   6.991   2.067   7.368  0.8294  1.4225  1.8691
  889MOL0     H22664   6.937   2.575   7.233 -0.1603  1.1864 -0.2602
  889MOL0     H22665   6.801   2.760   7.203  3.7115 -2.8913 -0.4479
  889MOL0     H22666   5.108   3.160   7.095  1.6924 -0.5429  0.4756
  889MOL0     H22667   4.961   3.015   6.977 -2.0662  0.2759 -1.6887
  889MOL0     H22668   4.498   2.924   6.853 -0.8794  0.3159  2.4962
  889MOL0     H22669   4.351   2.772   6.761  0.7682  3.6012  1.4222
  889MOL0     H22670   4.155   2.650   6.827 -1.7223  0.5276 -1.7617
  889MOL0     H22671   4.223   2.611   6.671 -1.9397  2.3456 -0.0210
  889MOL0     H22672   3.995   2.509   6.714  0.6999  1.0208 -0.6524
  889MOL0     H22673   4.089   2.396   6.831  2.2639  2.6297  0.2318
  889MOL0     H22674   4.120   2.436   6.529 -5.6674 -0.1518  1.2602
  889MOL0     H22675   4.242   2.355   6.630  0.9090 -2.4311 -2.7425
  889MOL0     H22676   4.089   2.163   6.664 -0.0593  0.6651  0.5322
  889MOL0     H22677   4.108   2.191   6.497 -1.6294  0.1528 -1.7339
  889MOL0     H22678   3.700   2.259   6.547  0.4486 -2.5659 -0.9156
  889MOL0     H22679   4.512   2.441   6.966 -2.6612  0.3014 -0.4305
  889MOL0     H22680   4.766   2.616   7.162 -3.7182  1.7720  1.6803
  889MOL0     H22681   4.655   2.482   7.147 -1.3757  3.2848  2.4389
  889MOL0     H22682   4.783   2.492   7.034  1.1166  1.9128 -1.3658
  890MOL0     O22683   3.163   2.376   2.523 -0.0311 -0.6900 -0.2278
  890MOL0     C22684   3.235   2.298   2.595 -1.3338 -0.7262 -0.5293
  890MOL0     O22685   3.369   2.270   2.574 -0.1938 -0.2335  0.1207
  890MOL0     C22686   3.421   2.283   2.447  0.0848  0.3318 -0.2026
  890MOL0     C22687   3.557   2.283   2.444 -0.7535 -0.5786 -0.9824
  890MOL0     C22688   3.625   2.298   2.328  0.1221  0.0010  0.0003
  890MOL0     C22689   3.567   2.287   2.197 -1.0734 -0.7046  0.0710
  890MOL0     O22690   3.637   2.293   2.071  0.5411 -0.3297 -0.5032
  890MOL0     C22691   3.780   2.257   2.051  0.2627 -0.3875  0.0361
  890MOL0     C22692   3.792   2.119   1.996 -0.0082  0.0097 -0.1648
  890MOL0     C22693   3.792   2.020   2.114 -0.1482  0.8624  0.3731
  890MOL0     C22694   3.815   1.881   2.065 -0.6200 -0.1077 -0.3052
  890MOL0     C22695   3.801   1.773   2.167  0.2057  0.1996  0.5314
  890MOL0     C22696   3.839   1.632   2.114  0.0645 -0.7338 -0.1569
  890MOL0     C22697   3.792   1.531   2.217  0.6484  0.4431 -0.1708
  890MOL0     C22698   3.839   1.389   2.184  1.5824 -0.6017 -0.4477
  890MOL0     N22699   3.798   1.288   2.279  0.8111  0.5578 -0.4261
  890MOL0     C22700   3.885   1.216   2.365  0.6508 -1.2968 -0.4180
  890MOL0     C22701   3.817   1.107   2.392  1.0784  1.2098 -0.2357
  890MOL0     C22702   3.871   1.006   2.487 -0.4193  0.3426  0.1068
  890MOL0     C22703   3.787   0.978   2.616  0.1757  0.3970 -0.4369
  890MOL0     C22704   3.871   0.877   2.693 -0.2034 -0.7955 -0.2286
  890MOL0     C22705   3.812   0.842   2.829  1.0966 -0.8715  0.9716
  890MOL0     O22706   3.794   0.957   2.914 -0.6086 -0.3911 -0.5177
  890MOL0     C22707   3.900   1.040   2.943 -0.1104  0.3255  1.0402
  890MOL0     C22708   4.037   0.998   2.945  0.9083  0.1564 -0.4677
  890MOL0     C22709   4.137   1.093   2.973  0.4170 -0.0254  0.8678
  890MOL0     C22710   4.278   1.045   2.947  0.0120  0.4717  0.1168
  890MOL0     C22711   4.104   1.235   2.994 -0.4989  0.2125  0.0491
  890MOL0     C22712   4.206   1.339   3.019  0.0646  0.1485 -0.5959
  890MOL0     O22713   4.161   1.467   3.029 -0.0483 -0.7423 -0.1686
  890MOL0     C22714   4.264   1.557   3.058 -0.1942 -0.9912  0.4304
  890MOL0     C22715   4.375   1.574   2.970  0.6246  0.6487 -0.0757
  890MOL0     C22716   4.466   1.684   3.001  0.7081 -0.4842 -0.4100
  890MOL0     C22717   4.440   1.776   3.100  0.5883 -0.0374 -0.3442
  890MOL0     O22718   4.522   1.876   3.133 -0.6549  0.6544  0.0274
  890MOL0     C22719   4.613   1.926   3.027  0.6036 -0.1791  0.6050
  890MOL0     C22720   4.673   2.062   3.062 -0.2091 -0.7485  0.1690
  890MOL0     C22721   4.766   2.066   3.184  0.5746 -0.1630  0.9149
  890MOL0     C22722   4.784   2.211   3.228  0.5844 -0.4504  0.6179
  890MOL0     C22723   4.856   2.313   3.143 -0.3017  0.1607 -0.2004
  890MOL0     C22724   4.993   2.260   3.104 -0.6036  0.0674  0.7705
  890MOL0     C22725   5.066   2.355   3.008  0.0035  0.7448  0.0918
  890MOL0     C22726   5.220   2.352   3.021 -0.0439 -0.4780 -0.1013
  890MOL0    Cl22727   5.279   2.196   2.977  0.6587  0.1050  0.4788
  890MOL0     C22728   4.321   1.774   3.166  0.9022 -0.6273  0.8396
  890MOL0     C22729   4.232   1.656   3.148  0.0846 -1.2682 -0.0183
  890MOL0     O22730   4.324   1.302   3.041 -0.3826  0.6780  0.5038
  890MOL0     C22731   3.968   1.269   3.004  0.3497  0.4191 -0.0817
  890MOL0     C22732   3.871   1.170   2.979  0.0532  0.3530 -0.3784
  890MOL0     N22733   3.697   1.093   2.322  0.0529 -0.7271  0.6044
  890MOL0     N22734   3.688   1.207   2.256 -0.4735 -0.3238 -0.3121
  890MOL0     C22735   3.423   2.290   2.202 -0.2366  0.0974  0.3083
  890MOL0     C22736   3.347   2.293   2.322  0.4555 -0.8459  0.5821
  890MOL0     C22737   3.175   2.243   2.721 -1.1244  0.3395 -0.5353
  890MOL0     C22738   3.265   2.164   2.804 -0.1206  0.5795  0.1302
  890MOL0     C22739   3.233   2.102   2.923 -0.1149  0.3639 -0.5471
  890MOL0     C22740   3.099   2.117   2.964 -0.5126 -0.3955  1.4468
  890MOL0     O22741   3.078   2.057   3.085 -0.3901 -0.3102 -0.0143
  890MOL0     C22742   2.943   2.048   3.136 -0.6887  0.0684 -0.0277
  890MOL0     C22743   2.906   2.178   3.201  0.0136 -0.5640 -0.4209
  890MOL0     C22744   2.758   2.202   3.216  0.3579 -0.6595  0.1953
  890MOL0     C22745   2.698   2.182   3.356 -0.1220  0.0712  0.2069
  890MOL0     C22746   2.731   2.048   3.393  0.6313 -0.7373 -0.6024
  890MOL0     C22747   2.779   1.941   3.433 -0.1420 -0.6017  0.4001
  890MOL0     C22748   3.006   2.196   2.888 -0.6699 -0.0974  0.0540
  890MOL0     C22749   3.036   2.257   2.764 -0.2989  0.4521 -0.1132
  890MOL0     C22750   2.930   2.322   2.682 -0.8611 -1.0500 -0.5695
  890MOL0     H22751   3.624   2.270   2.529 -2.6182  1.1629  0.8604
  890MOL0     H22752   3.731   2.324   2.328  0.7345 -2.3067  0.0546
  890MOL0     H22753   3.848   2.290   2.130  1.3470  0.0997 -1.0725
  890MOL0     H22754   3.813   2.325   1.971  0.9100  0.3215  0.8878
  890MOL0     H22755   3.713   2.082   1.930 -2.8195  0.6769  2.5796
  890MOL0     H22756   3.881   2.112   1.932  0.7158  0.2977  0.7829
  890MOL0     H22757   3.880   2.052   2.170 -1.5829  2.2020  1.9895
  890MOL0     H22758   3.700   2.021   2.173 -1.2795 -3.4162 -0.9490
  890MOL0     H22759   3.734   1.857   1.996 -0.8306  0.3419 -0.2189
  890MOL0     H22760   3.913   1.874   2.018 -1.2589 -3.0132 -1.4384
  890MOL0     H22761   3.700   1.771   2.210  1.2468  0.3782  3.2185
  890MOL0     H22762   3.874   1.805   2.243  1.2755  0.6698 -0.6655
  890MOL0     H22763   3.791   1.605   2.020  1.1935  0.1614 -1.0128
  890MOL0     H22764   3.947   1.621   2.106  0.5108  1.8745  1.1449
  890MOL0     H22765   3.683   1.538   2.228  0.4074 -1.2088 -1.1261
  890MOL0     H22766   3.845   1.553   2.310 -0.5574  2.3251  0.1186
  890MOL0     H22767   3.789   1.368   2.089  0.1235 -0.2743  0.2175
  890MOL0     H22768   3.948   1.392   2.182  1.5817 -0.2946 -2.6337
  890MOL0     H22769   3.978   1.250   2.410  0.6489 -2.3832  0.4514
  890MOL0     H22770   3.968   1.046   2.516  0.0409 -1.2492  0.8641
  890MOL0     H22771   3.892   0.912   2.437  1.3719 -0.7810  2.7602
  890MOL0     H22772   3.768   1.073   2.666  2.4267  2.8385 -3.8234
  890MOL0     H22773   3.700   0.932   2.569  1.0918 -0.7586 -1.0614
  890MOL0     H22774   3.887   0.787   2.633  1.3152 -0.8078  0.1495
  890MOL0     H22775   3.971   0.919   2.710 -0.1225 -1.4707  1.1381
  890MOL0     H22776   3.711   0.806   2.806  0.6326  0.1720  1.3115
  890MOL0     H22777   3.860   0.759   2.881 -0.5243 -0.9874  2.3541
  890MOL0     H22778   4.057   0.894   2.919 -4.5626 -0.3372 -4.5761
  890MOL0     H22779   4.335   1.117   2.887  3.1063 -1.3516  0.7235
  890MOL0     H22780   4.291   0.950   2.895  1.6042  1.7252 -1.9704
  890MOL0     H22781   4.322   1.034   3.046  1.9297 -0.3719 -0.7725
  890MOL0     H22782   4.383   1.512   2.882  0.7463  1.5565 -0.7230
  890MOL0     H22783   4.557   1.704   2.945  1.0061  0.6673  0.4639
  890MOL0     H22784   4.693   1.852   3.031 -0.3984 -1.3798 -0.5935
  890MOL0     H22785   4.569   1.920   2.927  0.1774  0.2394  0.7649
  890MOL0     H22786   4.731   2.088   2.973 -1.2818  1.7040  0.1306
  890MOL0     H22787   4.588   2.131   3.061 -0.1940 -0.7031 -1.3345
  890MOL0     H22788   4.858   2.009   3.169  0.1438 -0.8916  1.0079
  890MOL0     H22789   4.718   2.026   3.274 -2.2685  1.3062  0.1501
  890MOL0     H22790   4.840   2.214   3.322  2.0213  2.0050 -0.2353
  890MOL0     H22791   4.686   2.261   3.233 -0.2706 -2.1157  1.6825
  890MOL0     H22792   4.798   2.321   3.050  0.1875 -1.3015 -0.6698
  890MOL0     H22793   4.865   2.410   3.191 -0.5676  1.4584 -2.6071
  890MOL0     H22794   4.985   2.160   3.060  1.5865 -0.5885  1.7008
  890MOL0     H22795   5.052   2.242   3.194 -0.8155 -0.5600  0.7929
  890MOL0     H22796   5.027   2.457   3.008 -0.0321  0.7314 -0.0826
  890MOL0     H22797   5.042   2.318   2.908  0.4058 -0.8910  0.5669
  890MOL0     H22798   5.256   2.362   3.124  1.6557 -4.1066 -0.1963
  890MOL0     H22799   5.267   2.426   2.956 -0.9492  0.2023 -0.0136
  890MOL0     H22800   4.291   1.851   3.236  1.3340  0.2755  0.0497
  890MOL0     H22801   4.147   1.651   3.214  1.9615  0.4189  2.7730
  890MOL0     H22802   3.925   1.365   3.032  1.0318  1.4092 -2.2749
  890MOL0     H22803   3.766   1.192   2.999  0.3270  1.8921 -0.4738
  890MOL0     H22804   3.367   2.283   2.110  0.4472  2.9228 -0.4100
  890MOL0     H22805   3.240   2.301   2.310  0.5639 -1.1740 -0.7995
  890MOL0     H22806   3.371   2.155   2.779 -0.6464 -2.4807 -1.5653
  890MOL0     H22807   3.293   2.051   2.998 -2.2427 -0.0205  0.9981
  890MOL0     H22808   2.882   2.027   3.048 -0.3040  0.3001 -0.3544
  890MOL0     H22809   2.923   1.962   3.200  0.3768 -0.4476 -0.3591
  890MOL0     H22810   2.937   2.267   3.147  1.6466  0.0485  1.4273
  890MOL0     H22811   2.950   2.196   3.299 -0.5347 -0.4315 -0.1908
  890MOL0     H22812   2.737   2.307   3.194 -0.6987 -0.3388  2.4633
  890MOL0     H22813   2.703   2.148   3.138  0.9483  0.9629 -1.4182
  890MOL0     H22814   2.589   2.178   3.344 -0.4592 -2.2397  2.9116
  890MOL0     H22815   2.714   2.256   3.434  2.5702 -0.5928  0.3742
  890MOL0     H22816   2.813   1.843   3.457 -1.1920 -0.4016  2.9713
  890MOL0     H22817   2.907   2.212   2.930 -1.2067 -1.2206 -0.7233
  890MOL0     H22818   2.944   2.292   2.577 -1.7977  2.4316 -1.8190
  890MOL0     H22819   2.831   2.292   2.717 -0.9005  1.5147  1.8098
  890MOL0     H22820   2.930   2.430   2.695 -0.2188 -1.2240  0.9954
  891MOL0     O22821   0.540   3.103   4.684 -0.0188 -0.1276  0.1618
  891MOL0     C22822   0.437   3.064   4.623  0.0374  0.7963 -0.0508
  891MOL0     O22823   0.398   2.936   4.609 -0.7501 -0.3359  1.0859
  891MOL0     C22824   0.467   2.835   4.670 -0.3899  0.5141  0.0767
  891MOL0     C22825   0.506   2.732   4.581  0.0218 -0.2421 -1.0478
  891MOL0     C22826   0.571   2.613   4.629 -0.4287  0.2211 -0.0435
  891MOL0     C22827   0.588   2.597   4.766 -0.8700 -1.0253 -0.6930
  891MOL0     O22828   0.646   2.493   4.830  0.3522  0.2205 -0.2856
  891MOL0     C22829   0.768   2.436   4.784 -0.3755  0.2700 -1.0570
  891MOL0     C22830   0.853   2.379   4.894  0.7002 -0.7928 -1.0883
  891MOL0     C22831   0.869   2.478   5.008  0.1777  0.4482 -0.3557
  891MOL0     C22832   0.992   2.453   5.097 -0.3622 -0.5383 -0.2887
  891MOL0     C22833   0.983   2.515   5.239 -0.1982  0.8385 -0.3711
  891MOL0     C22834   1.101   2.476   5.334 -0.8155 -0.4841 -0.1369
  891MOL0     C22835   1.109   2.561   5.465  0.7718 -0.6469  0.1311
  891MOL0     C22836   0.989   2.535   5.561 -0.5206 -0.3549  0.0222
  891MOL0     N22837   1.000   2.626   5.677 -0.4283 -0.2306  0.6424
  891MOL0     C22838   1.050   2.759   5.663 -0.2272  0.0765  0.2038
  891MOL0     C22839   1.077   2.796   5.797  0.2077 -0.3322  0.6014
  891MOL0     C22840   1.134   2.926   5.840  0.2430 -1.0054  0.2696
  891MOL0     C22841   1.292   2.918   5.855  0.4894 -0.0702 -0.0349
  891MOL0     C22842   1.314   2.940   6.010  0.7024  0.1590 -0.6408
  891MOL0     C22843   1.458   2.944   6.057  0.0296  0.4528  0.0613
  891MOL0     O22844   1.467   2.948   6.200 -0.4406 -0.8553  0.1511
  891MOL0     C22845   1.472   2.838   6.280 -0.4093  0.1275  0.4131
  891MOL0     C22846   1.446   2.703   6.248  0.4078 -0.0003 -0.0634
  891MOL0     C22847   1.466   2.600   6.339 -0.3235 -0.5545  0.9277
  891MOL0     C22848   1.430   2.461   6.299 -0.1332 -0.6865 -0.0419
  891MOL0     C22849   1.530   2.633   6.462  0.3264 -0.2940 -0.4437
  891MOL0     C22850   1.557   2.533   6.568  0.0671 -0.1204  0.3040
  891MOL0     O22851   1.667   2.559   6.654 -0.6388  0.0111  0.2237
  891MOL0     C22852   1.704   2.496   6.760 -0.5998 -0.4371 -0.5108
  891MOL0     C22853   1.620   2.476   6.876  0.4156 -0.1598  0.1279
  891MOL0     C22854   1.671   2.412   6.984  0.3189  0.0562  0.5260
  891MOL0     C22855   1.808   2.367   6.989 -0.5707 -0.3624  1.0396
  891MOL0     O22856   1.854   2.312   7.104 -0.1037 -0.1676  0.2562
  891MOL0     C22857   1.776   2.215   7.167 -0.2333 -0.3216 -0.1680
  891MOL0     C22858   1.783   2.241   7.323  0.0697 -0.1499  0.5623
  891MOL0     C22859   1.714   2.128   7.394  0.3785  0.1697 -0.5367
  891MOL0     C22860   1.733   2.135   7.543  0.1905  1.0466  0.2427
  891MOL0     C22861   1.664   2.022   7.620  0.0108  0.1728 -0.1841
  891MOL0     C22862   1.696   1.875   7.572 -0.2467 -0.7930 -0.2249
  891MOL0     C22863   1.605   1.777   7.630 -0.3997 -0.1013 -0.5961
  891MOL0     C22864   1.639   1.625   7.603 -0.9338 -0.7374  0.9167
  891MOL0    Cl22865   1.536   1.526   7.711 -0.0907  0.4348  0.0679
  891MOL0     C22866   1.889   2.408   6.887 -1.1126  0.8675 -0.3680
  891MOL0     C22867   1.842   2.469   6.769 -1.1707 -0.6599  1.4158
  891MOL0     O22868   1.478   2.444   6.584 -0.3808  0.0167 -0.6188
  891MOL0     C22869   1.554   2.762   6.494  0.1105 -0.4056 -0.3371
  891MOL0     C22870   1.517   2.867   6.410 -0.1128 -0.3076 -0.3525
  891MOL0     N22871   1.056   2.689   5.875  0.5746 -0.5807 -0.0149
  891MOL0     N22872   0.998   2.591   5.804 -0.6449 -0.6365  0.5181
  891MOL0     C22873   0.531   2.690   4.854 -1.1302  0.8901 -0.4461
  891MOL0     C22874   0.470   2.808   4.801 -0.1155  0.5692 -0.7146
  891MOL0     C22875   0.376   3.156   4.533  1.1788 -0.6441  0.4225
  891MOL0     C22876   0.287   3.258   4.585 -0.5964  0.4480 -0.4877
  891MOL0     C22877   0.236   3.354   4.504  0.0657 -1.0090  0.1622
  891MOL0     C22878   0.254   3.343   4.367  0.3708  0.4755 -0.5376
  891MOL0     O22879   0.179   3.406   4.271  0.8313  0.0246 -0.5110
  891MOL0     C22880   0.089   3.514   4.297 -0.0938 -0.1839 -0.6154
  891MOL0     C22881   0.163   3.640   4.337  0.4261 -1.0078  0.2183
  891MOL0     C22882   0.274   3.683   4.245 -0.5834 -0.3950  1.0331
  891MOL0     C22883   0.328   3.816   4.303  0.3855  0.2187  0.3135
  891MOL0     C22884   0.242   3.934   4.265 -0.5067 -0.1647 -0.8566
  891MOL0     C22885   0.192   4.041   4.241 -0.3223 -0.8317  0.2163
  891MOL0     C22886   0.334   3.246   4.316  0.9346  0.1422  1.4685
  891MOL0     C22887   0.394   3.148   4.394  0.0207 -0.3147  0.0580
  891MOL0     C22888   0.486   3.040   4.331 -0.3391 -0.8656  0.4040
  891MOL0     H22889   0.480   2.748   4.476  0.7749  1.8500 -0.9573
  891MOL0     H22890   0.611   2.538   4.561  0.7985  0.2509  0.6162
  891MOL0     H22891   0.827   2.513   4.733  0.6397  1.6978  2.0393
  891MOL0     H22892   0.739   2.359   4.711 -1.2167 -2.1516  1.6315
  891MOL0     H22893   0.794   2.293   4.927 -0.5094 -0.1351 -1.4383
  891MOL0     H22894   0.953   2.357   4.858  0.9751 -1.7793  0.2004
  891MOL0     H22895   0.873   2.579   4.966  0.2240  0.9815  0.9005
  891MOL0     H22896   0.778   2.484   5.068 -0.1882 -3.0675 -0.3115
  891MOL0     H22897   0.988   2.347   5.123  3.3981 -0.4142  1.5122
  891MOL0     H22898   1.081   2.483   5.040  0.3002  2.1569  1.9207
  891MOL0     H22899   0.893   2.503   5.299 -1.0610 -3.7232 -2.1641
  891MOL0     H22900   0.987   2.621   5.212 -3.2252  1.5684  1.6152
  891MOL0     H22901   1.092   2.367   5.342  0.1676 -0.4646  1.6343
  891MOL0     H22902   1.196   2.491   5.281 -0.1844  1.4984  1.4485
  891MOL0     H22903   1.110   2.670   5.452 -2.1854 -0.7058 -1.4634
  891MOL0     H22904   1.199   2.530   5.519  1.3067  0.7796  0.1141
  891MOL0     H22905   0.887   2.544   5.522 -0.9414  0.7102  1.3074
  891MOL0     H22906   1.006   2.432   5.594  3.4452  0.7723  2.1822
  891MOL0     H22907   1.065   2.823   5.577  0.6893 -0.2080  0.1448
  891MOL0     H22908   1.091   2.939   5.940  2.5091 -0.4574  1.2544
  891MOL0     H22909   1.113   3.014   5.779 -2.3957  0.4613  3.0052
  891MOL0     H22910   1.336   2.821   5.829 -1.3868 -0.2419 -3.0122
  891MOL0     H22911   1.332   2.993   5.786 -2.3012  1.2878 -0.3234
  891MOL0     H22912   1.259   3.031   6.033  1.5423  0.5827 -0.2977
  891MOL0     H22913   1.277   2.852   6.064  1.9353 -1.0037 -1.6191
  891MOL0     H22914   1.511   2.851   6.034 -0.8927  0.1915 -1.0677
  891MOL0     H22915   1.510   3.023   6.002  2.4740 -0.4737  0.8727
  891MOL0     H22916   1.408   2.674   6.151 -0.7354 -2.5692  1.0503
  891MOL0     H22917   1.517   2.397   6.320  1.0391  0.5536 -0.9179
  891MOL0     H22918   1.391   2.451   6.197  0.7713  1.2103 -0.6137
  891MOL0     H22919   1.353   2.423   6.367  0.4129  0.1738  1.0948
  891MOL0     H22920   1.514   2.500   6.875  0.8064  1.7719 -0.9033
  891MOL0     H22921   1.613   2.393   7.074  1.2879 -2.5856  0.6626
  891MOL0     H22922   1.681   2.193   7.119 -0.0685  1.7298 -1.5849
  891MOL0     H22923   1.835   2.123   7.163 -1.2528 -1.1305  2.0503
  891MOL0     H22924   1.888   2.259   7.349 -0.0315  5.7013 -1.4530
  891MOL0     H22925   1.724   2.333   7.331 -0.9685 -0.6603 -0.8580
  891MOL0     H22926   1.757   2.034   7.359  0.1654  0.6525 -2.1568
  891MOL0     H22927   1.608   2.110   7.373  0.4700 -3.8518  1.3422
  891MOL0     H22928   1.700   2.230   7.586  0.0617  0.0301  2.5410
  891MOL0     H22929   1.840   2.138   7.568  0.7211  0.5149 -1.7555
  891MOL0     H22930   1.699   2.036   7.723  5.9893  0.8189 -1.8979
  891MOL0     H22931   1.556   2.040   7.615  0.1342  0.8819 -0.4390
  891MOL0     H22932   1.803   1.854   7.583  0.1577  1.2216  0.0805
  891MOL0     H22933   1.679   1.868   7.464 -0.0021 -2.4156 -0.1832
  891MOL0     H22934   1.499   1.796   7.611  0.1870  1.0163 -3.2300
  891MOL0     H22935   1.618   1.790   7.738  2.3133  1.0436 -0.9814
  891MOL0     H22936   1.747   1.624   7.622 -0.7606  1.5571  0.3092
  891MOL0     H22937   1.628   1.598   7.498  0.6304 -1.6631  0.9612
  891MOL0     H22938   1.994   2.380   6.897 -0.9653  1.7829  0.8623
  891MOL0     H22939   1.908   2.478   6.684 -0.8644 -2.7579  1.3697
  891MOL0     H22940   1.613   2.790   6.581  1.4849  0.4432 -1.4811
  891MOL0     H22941   1.518   2.969   6.447  0.6852  0.0003 -1.2027
  891MOL0     H22942   0.537   2.672   4.961  1.9284 -1.6395 -0.8790
  891MOL0     H22943   0.409   2.872   4.864 -0.5417  0.3964 -0.9451
  891MOL0     H22944   0.254   3.261   4.689  0.9314 -1.8898  0.1425
  891MOL0     H22945   0.169   3.432   4.540 -0.0161 -1.5857  1.3193
  891MOL0     H22946   0.043   3.536   4.200  2.8343  3.0371 -1.5040
  891MOL0     H22947   0.012   3.490   4.371 -0.2044 -0.5890 -0.8574
  891MOL0     H22948   0.203   3.643   4.438  1.5198 -2.2140 -0.1407
  891MOL0     H22949   0.087   3.719   4.328  1.2188 -0.3280 -0.8651
  891MOL0     H22950   0.354   3.609   4.254 -0.1283 -0.5806 -3.0354
  891MOL0     H22951   0.231   3.692   4.145 -0.1649 -3.4093  0.5053
  891MOL0     H22952   0.428   3.832   4.261 -0.1023  1.6609 -0.3591
  891MOL0     H22953   0.339   3.808   4.411  1.4561  0.2814  0.2163
  891MOL0     H22954   0.158   4.140   4.221  1.0794 -0.4353 -0.2638
  891MOL0     H22955   0.326   3.237   4.208 -1.4968  4.2850  1.0996
  891MOL0     H22956   0.521   3.084   4.237  0.7988 -0.4068  1.0108
  891MOL0     H22957   0.574   3.005   4.386 -0.3306 -0.6838  0.5102
  891MOL0     H22958   0.428   2.951   4.308  0.2827 -0.6759 -2.1995
  892MOL0     O22959   3.618   8.426   0.543  0.9283  0.5321  0.1125
  892MOL0     C22960   3.687   8.362   0.458 -0.2879  0.0592  0.3418
  892MOL0     O22961   3.820   8.348   0.461  0.7368 -0.4512 -0.5974
  892MOL0     C22962   3.905   8.450   0.424  1.3222  0.0783  0.8278
  892MOL0     C22963   4.007   8.430   0.333  0.3509  0.0125  0.1871
  892MOL0     C22964   4.088   8.535   0.284 -0.2225 -0.9579  0.4985
  892MOL0     C22965   4.062   8.667   0.327 -0.3364  0.7377  0.3332
  892MOL0     O22966   4.148   8.754   0.278 -0.4447  0.0824  0.3323
  892MOL0     C22967   4.181   8.874   0.355 -1.1152  0.6163 -0.0169
  892MOL0     C22968   4.328   8.897   0.367  0.5066  1.0642 -0.2800
  892MOL0     C22969   4.401   8.807   0.470  0.0772  0.2162  0.3293
  892MOL0     C22970   4.555   8.804   0.466  0.3973  0.1596  0.3336
  892MOL0     C22971   4.611   8.688   0.532 -0.3674  0.8076  1.1711
  892MOL0     C22972   4.764   8.667   0.500 -0.7919  0.1898  0.9216
  892MOL0     C22973   4.794   8.515   0.517 -0.4662 -0.5069 -0.4762
  892MOL0     C22974   4.917   8.491   0.429 -0.1844  1.3807  0.0202
  892MOL0     N22975   5.049   8.532   0.479  0.6055 -0.5116  0.6341
  892MOL0     C22976   5.168   8.496   0.419  0.2686  0.3875 -0.5360
  892MOL0     C22977   5.269   8.540   0.492 -0.5725 -0.7820 -0.3080
  892MOL0     C22978   5.420   8.520   0.469  0.6581 -0.1956 -0.7134
  892MOL0     C22979   5.465   8.600   0.346 -0.1251 -0.1433 -0.3060
  892MOL0     C22980   5.595   8.668   0.376 -0.4469  1.0011  0.7514
  892MOL0     C22981   5.640   8.737   0.259  0.6498 -1.5103 -0.3540
  892MOL0     O22982   5.766   8.804   0.295  0.0702  0.5678  0.6891
  892MOL0     C22983   5.850   8.847   0.198 -1.4453  0.3253  0.1296
  892MOL0     C22984   5.947   8.939   0.243 -0.2010 -0.0803 -0.0941
  892MOL0     C22985   6.026   9.014   0.151  0.4123 -0.3999  0.4525
  892MOL0     C22986   6.129   9.108   0.219 -0.1920 -0.1146  0.3786
  892MOL0     C22987   6.029   8.973   0.013  0.1059  0.3392  0.5708
  892MOL0     C22988   6.114   9.041  -0.095  0.6054  0.6215 -0.5595
  892MOL0     O22989   6.083   9.016  -0.226  0.0789  0.4765  0.3140
  892MOL0     C22990   6.143   9.108  -0.310 -0.0183  0.8879  0.3185
  892MOL0     C22991   6.080   9.228  -0.325 -0.6630  0.1178  0.8571
  892MOL0     C22992   6.136   9.316  -0.419  1.1132 -0.4381 -0.3096
  892MOL0     C22993   6.228   9.272  -0.507  0.3779  0.2405 -0.3621
  892MOL0     O22994   6.297   9.357  -0.586  0.4127 -0.3140 -0.1012
  892MOL0     C22995   6.395   9.447  -0.522  0.2687  0.9131  0.6968
  892MOL0     C22996   6.519   9.371  -0.466  0.7678  0.3920  0.0685
  892MOL0     C22997   6.627   9.353  -0.562  0.1367  0.8978 -0.4811
  892MOL0     C22998   6.654   9.208  -0.618  0.5082  0.3753 -0.2111
  892MOL0     C22999   6.796   9.188  -0.682 -0.1510  0.5563 -0.1176
  892MOL0     C23000   6.854   9.046  -0.675 -0.7071  0.6476  1.4505
  892MOL0     C23001   6.964   9.027  -0.788  0.3835  0.7368 -1.1581
  892MOL0     C23002   7.020   8.882  -0.793  0.1170  0.7739 -0.6441
  892MOL0    Cl23003   6.900   8.781  -0.869  0.0864 -0.2793 -0.4881
  892MOL0     C23004   6.283   9.142  -0.508 -0.4305  0.6463  0.2645
  892MOL0     C23005   6.244   9.065  -0.403  0.1613  0.2918  0.4507
  892MOL0     O23006   6.196   9.123  -0.051 -0.5510 -0.4536  0.7801
  892MOL0     C23007   5.936   8.875  -0.031  0.7731 -0.3191 -0.1710
  892MOL0     C23008   5.847   8.817   0.061  0.0909  0.5515  0.3786
  892MOL0     N23009   5.212   8.599   0.612  0.2433 -0.2039  0.2357
  892MOL0     N23010   5.086   8.605   0.590  0.6088 -0.6558  0.2760
  892MOL0     C23011   3.954   8.691   0.407 -0.0587 -0.9840 -0.8741
  892MOL0     C23012   3.876   8.586   0.461 -0.1261  1.2666 -0.4389
  892MOL0     C23013   3.611   8.268   0.375 -0.9749  1.0248 -0.0404
  892MOL0     C23014   3.503   8.328   0.309 -0.2628  0.3639 -0.3780
  892MOL0     C23015   3.404   8.251   0.243 -0.4426 -0.4289  0.0578
  892MOL0     C23016   3.416   8.119   0.234  0.0007  0.2159  0.6700
  892MOL0     O23017   3.317   8.051   0.166  0.0651 -0.1715  0.4488
  892MOL0     C23018   3.306   7.907   0.170  0.5689 -0.1350  0.0451
  892MOL0     C23019   3.168   7.880   0.104  0.2802  0.3911 -0.4778
  892MOL0     C23020   3.115   7.964  -0.020  0.8742 -0.2767 -0.0390
  892MOL0     C23021   2.983   7.899  -0.061  0.0803 -0.1341 -0.0644
  892MOL0     C23022   2.935   7.943  -0.198 -0.0580 -0.7868 -0.2056
  892MOL0     C23023   2.909   7.986  -0.307  0.3139 -0.1865  0.7925
  892MOL0     C23024   3.520   8.059   0.298 -0.7489  0.2725  0.5717
  892MOL0     C23025   3.621   8.129   0.370 -0.3084  0.0488 -0.2619
  892MOL0     C23026   3.729   8.055   0.441  0.1714 -0.2940  0.1408
  892MOL0     H23027   4.015   8.335   0.282 -1.2774  0.7863 -1.6701
  892MOL0     H23028   4.169   8.520   0.213  1.6381  0.8721  2.0874
  892MOL0     H23029   4.128   8.874   0.451  0.3879  0.8222  0.8319
  892MOL0     H23030   4.137   8.955   0.296 -0.7312  1.2872  0.6109
  892MOL0     H23031   4.385   8.880   0.275  4.0615  1.0871  1.7202
  892MOL0     H23032   4.350   9.002   0.389 -1.9248  1.3690  1.0018
  892MOL0     H23033   4.373   8.835   0.573 -1.8017 -1.3459  0.3120
  892MOL0     H23034   4.369   8.704   0.454  0.1159 -0.0081  1.5549
  892MOL0     H23035   4.595   8.811   0.364  1.7847  0.8811  0.8891
  892MOL0     H23036   4.590   8.899   0.509  0.0484  0.2646  0.3869
  892MOL0     H23037   4.557   8.598   0.505  3.1250 -1.4305  0.9664
  892MOL0     H23038   4.588   8.704   0.638 -2.9335  2.4437  0.4475
  892MOL0     H23039   4.795   8.701   0.401  1.0092 -0.8678  1.0828
  892MOL0     H23040   4.833   8.719   0.567  1.8962 -0.1981 -1.3566
  892MOL0     H23041   4.721   8.450   0.467  0.8414 -3.1187  0.7672
  892MOL0     H23042   4.793   8.492   0.624 -3.1243  1.1432 -0.0449
  892MOL0     H23043   4.921   8.384   0.410  1.8666  1.3782  0.2302
  892MOL0     H23044   4.887   8.522   0.328 -0.9081 -2.1819 -0.9916
  892MOL0     H23045   5.184   8.429   0.335  0.1800 -0.0042 -0.2415
  892MOL0     H23046   5.438   8.413   0.452  0.2783 -0.2057 -1.0558
  892MOL0     H23047   5.475   8.538   0.562 -1.0583 -0.1820  0.3458
  892MOL0     H23048   5.479   8.526   0.267 -0.0147 -0.1517 -0.2787
  892MOL0     H23049   5.391   8.680   0.332  0.1261 -0.2749 -2.8655
  892MOL0     H23050   5.571   8.747   0.447 -2.4590  1.0243  0.1020
  892MOL0     H23051   5.670   8.600   0.418  1.4580  2.6376  0.1341
  892MOL0     H23052   5.645   8.674   0.169 -1.3762 -0.4268 -1.2983
  892MOL0     H23053   5.564   8.809   0.229  0.4978 -1.0605  1.0534
  892MOL0     H23054   5.940   8.975   0.345 -0.4065 -0.1435 -0.0861
  892MOL0     H23055   6.110   9.131   0.325  3.0682  2.0689  0.6176
  892MOL0     H23056   6.144   9.208   0.176  4.0445  0.2805  2.2809
  892MOL0     H23057   6.226   9.058   0.212 -0.1781  0.0809 -1.1775
  892MOL0     H23058   6.011   9.264  -0.249 -1.1820  2.2776 -0.5503
  892MOL0     H23059   6.109   9.421  -0.422 -1.2783 -1.0107 -3.7532
  892MOL0     H23060   6.424   9.516  -0.602  1.7366 -1.1770 -0.6862
  892MOL0     H23061   6.355   9.510  -0.442 -0.8474  0.9965  0.0877
  892MOL0     H23062   6.547   9.416  -0.370 -0.5291  1.2563  0.0645
  892MOL0     H23063   6.484   9.273  -0.432 -0.2370  1.0297  0.9435
  892MOL0     H23064   6.716   9.401  -0.518  1.6467 -2.6639  0.7144
  892MOL0     H23065   6.618   9.405  -0.658  4.6763  0.9673 -1.0912
  892MOL0     H23066   6.572   9.175  -0.683  1.0547 -0.6788 -0.3859
  892MOL0     H23067   6.646   9.137  -0.535 -4.1694  0.5514 -0.2630
  892MOL0     H23068   6.783   9.203  -0.790  1.8503 -0.2364 -0.5233
  892MOL0     H23069   6.873   9.263  -0.660 -0.5027  0.3937  1.8025
  892MOL0     H23070   6.771   8.981  -0.705  0.8201 -0.2062 -1.1923
  892MOL0     H23071   6.877   9.023  -0.571 -2.2671 -3.1200  1.1193
  892MOL0     H23072   7.040   9.104  -0.773 -2.7784  3.8102  0.6443
  892MOL0     H23073   6.924   9.062  -0.884  0.2234 -2.0919 -2.2057
  892MOL0     H23074   7.042   8.849  -0.691 -3.2588 -1.4831 -0.4523
  892MOL0     H23075   7.112   8.887  -0.852 -0.0225  0.2190 -0.9224
  892MOL0     H23076   6.355   9.124  -0.586 -0.3806  0.6572  0.3081
  892MOL0     H23077   6.282   8.964  -0.390 -4.0926 -1.5733  0.0077
  892MOL0     H23078   5.918   8.863  -0.138 -2.5218  1.7746  0.0077
  892MOL0     H23079   5.766   8.764   0.012  0.8577  1.0387 -1.5113
  892MOL0     H23080   3.931   8.792   0.441 -1.2208 -0.8286 -2.0599
  892MOL0     H23081   3.795   8.605   0.531  1.0588  0.4879  1.2167
  892MOL0     H23082   3.487   8.435   0.318  0.7193  0.6445 -1.6619
  892MOL0     H23083   3.318   8.299   0.198 -3.2847 -2.7680  2.5497
  892MOL0     H23084   3.387   7.861   0.112  0.3304  0.5292 -0.8473
  892MOL0     H23085   3.322   7.861   0.267  0.5618 -4.7361 -1.8779
  892MOL0     H23086   3.101   7.901   0.187  0.3572 -0.1490 -0.2774
  892MOL0     H23087   3.171   7.774   0.076 -4.2341 -1.2146  3.6845
  892MOL0     H23088   3.100   8.072  -0.009  1.1402 -0.3469  1.1095
  892MOL0     H23089   3.188   7.956  -0.101 -0.5102 -0.6841 -1.2952
  892MOL0     H23090   2.912   7.921   0.019  0.3788  0.7614 -0.0379
  892MOL0     H23091   2.988   7.790  -0.070 -1.0192 -0.2681  0.7086
  892MOL0     H23092   2.878   8.018  -0.404 -1.7772 -2.8733  0.4553
  892MOL0     H23093   3.531   7.951   0.293 -0.6647  0.3207 -0.4864
  892MOL0     H23094   3.729   7.946   0.427 -0.4083 -0.3196  0.3247
  892MOL0     H23095   3.829   8.101   0.437  0.3894 -0.6733  0.9628
  892MOL0     H23096   3.708   8.048   0.548 -1.9093 -0.9569 -0.2711
  893MOL0     O23097   6.999   3.870  10.756  0.7171  0.5731 -0.4179
  893MOL0     C23098   6.966   3.884  10.879  0.7247 -0.1581 -0.7697
  893MOL0     O23099   6.894   3.995  10.924 -0.1862  0.7608  0.1356
  893MOL0     C23100   6.831   4.071  10.825 -0.2924  0.7103 -0.3339
  893MOL0     C23101   6.902   4.149  10.730 -0.1140  0.3423  0.0822
  893MOL0     C23102   6.836   4.232  10.641  0.6050 -0.5865 -0.5690
  893MOL0     C23103   6.690   4.237  10.633  0.6492  1.0620 -0.0941
  893MOL0     O23104   6.617   4.322  10.556 -0.4439  0.4652  0.7072
  893MOL0     C23105   6.690   4.434  10.512  0.6011  0.5907 -0.8425
  893MOL0     C23106   6.584   4.537  10.484  0.3814 -0.1558 -0.5177
  893MOL0     C23107   6.472   4.502  10.376 -0.1567  0.0815  0.4036
  893MOL0     C23108   6.349   4.591  10.377  0.7522  0.6040  0.3046
  893MOL0     C23109   6.256   4.567  10.258  0.4940  0.2571 -0.0187
  893MOL0     C23110   6.172   4.437  10.269 -0.2910  0.7097 -0.3629
  893MOL0     C23111   6.039   4.440  10.189  1.1768  0.0156  0.4551
  893MOL0     C23112   5.972   4.304  10.168 -0.0185 -0.4851 -0.0166
  893MOL0     N23113   6.027   4.213  10.059  0.4371  0.0624  0.3669
  893MOL0     C23114   6.142   4.133  10.065  0.0021  0.5733  0.1585
  893MOL0     C23115   6.120   4.034   9.981 -0.6678 -0.6266 -0.0718
  893MOL0     C23116   6.179   3.897   9.958 -0.4786 -0.9607 -0.1910
  893MOL0     C23117   6.088   3.799  10.035 -1.0204  0.3277  1.0695
  893MOL0     C23118   6.147   3.658  10.029 -0.9598  0.5093 -1.3544
  893MOL0     C23119   6.062   3.548  10.107 -0.2833 -0.0497  0.2386
  893MOL0     O23120   6.058   3.561  10.244 -0.9270 -0.2824 -0.8841
  893MOL0     C23121   5.993   3.464  10.314  0.0184  0.1803 -0.2119
  893MOL0     C23122   6.059   3.355  10.357 -0.2794  0.0359 -0.1084
  893MOL0     C23123   5.998   3.261  10.437  0.3089  0.7099  0.7164
  893MOL0     C23124   6.082   3.146  10.473  0.1876 -0.4118  0.0409
  893MOL0     C23125   5.858   3.271  10.473 -0.3959  0.3399  0.7908
  893MOL0     C23126   5.775   3.173  10.542  0.0872 -0.3134 -0.4029
  893MOL0     O23127   5.646   3.211  10.573 -0.1219  0.5832  0.1966
  893MOL0     C23128   5.571   3.127  10.650 -0.0012  0.7424 -0.3689
  893MOL0     C23129   5.601   3.093  10.782  0.4184 -0.1876 -0.6721
  893MOL0     C23130   5.523   3.006  10.856  0.3070  0.2200 -0.4725
  893MOL0     C23131   5.401   2.957  10.810 -0.1330  0.9134  0.5306
  893MOL0     O23132   5.333   2.851  10.864  0.0548  0.1650  0.4001
  893MOL0     C23133   5.363   2.797  10.993  0.1140  0.4341  0.2037
  893MOL0     C23134   5.453   2.676  10.980 -0.3905  0.2584 -0.3668
  893MOL0     C23135   5.376   2.551  10.914  0.1730 -0.0432  0.3136
  893MOL0     C23136   5.452   2.419  10.943 -0.7837 -0.1397  0.4454
  893MOL0     C23137   5.355   2.299  10.951  0.1438 -0.0820 -0.0204
  893MOL0     C23138   5.289   2.282  11.088 -0.1297  0.1445 -0.2684
  893MOL0     C23139   5.211   2.147  11.104 -0.0650 -0.2790  0.4857
  893MOL0     C23140   5.135   2.149  11.236 -0.6807  0.4496 -0.1246
  893MOL0    Cl23141   5.027   2.014  11.272 -0.4455  0.2808  0.0205
  893MOL0     C23142   5.372   2.987  10.673  0.2524  0.5007 -0.0777
  893MOL0     C23143   5.457   3.062  10.594 -0.1235 -0.4444 -0.6493
  893MOL0     O23144   5.817   3.060  10.553 -0.4699  0.2217 -0.5310
  893MOL0     C23145   5.792   3.390  10.429 -0.2737 -0.0391  0.1786
  893MOL0     C23146   5.860   3.481  10.354 -0.4837  1.0214 -0.3183
  893MOL0     N23147   6.014   4.072   9.909  0.4916  0.4950  0.3158
  893MOL0     N23148   5.948   4.168   9.960 -0.7356  0.5785 -0.1291
  893MOL0     C23149   6.622   4.169  10.733 -0.1247  0.4690  0.6527
  893MOL0     C23150   6.691   4.087  10.828 -0.1280  0.0538  0.8722
  893MOL0     C23151   7.012   3.784  10.993  0.5913 -0.5654 -0.3893
  893MOL0     C23152   7.018   3.827  11.128  0.7068 -0.4424 -0.3990
  893MOL0     C23153   7.084   3.753  11.228 -0.7916 -0.2114 -0.2770
  893MOL0     C23154   7.109   3.618  11.206  0.3732  0.8624 -0.2022
  893MOL0     O23155   7.158   3.527  11.296  0.5041 -0.6000 -0.8682
  893MOL0     C23156   7.190   3.569  11.433 -0.3801  0.8024 -0.2169
  893MOL0     C23157   7.263   3.457  11.517  0.3940  0.0215 -0.7446
  893MOL0     C23158   7.171   3.340  11.568  0.0586 -0.1309  0.2191
  893MOL0     C23159   7.252   3.245  11.648 -0.0240 -0.1144  0.2162
  893MOL0     C23160   7.336   3.304  11.757 -0.1052 -0.2780 -0.5417
  893MOL0     C23161   7.419   3.349  11.838 -0.1891  1.0447 -0.4034
  893MOL0     C23162   7.091   3.573  11.073  0.3679 -1.0576 -0.3240
  893MOL0     C23163   7.046   3.647  10.966 -0.2052  0.4748 -0.2760
  893MOL0     C23164   7.028   3.568  10.840  0.9608  0.9186 -1.1155
  893MOL0     H23165   7.009   4.145  10.712 -0.0648  3.2841 -0.6876
  893MOL0     H23166   6.890   4.298  10.574 -3.3054  1.2112 -2.2493
  893MOL0     H23167   6.749   4.409  10.423  2.2568 -2.0953  0.8444
  893MOL0     H23168   6.753   4.477  10.591  0.6343 -1.0587  0.0832
  893MOL0     H23169   6.526   4.568  10.572 -1.6381 -0.0340 -1.8170
  893MOL0     H23170   6.648   4.617  10.448  3.0917 -1.7944  0.3052
  893MOL0     H23171   6.518   4.517  10.278  2.8659 -0.0794  1.7004
  893MOL0     H23172   6.451   4.396  10.395  3.5326 -1.3150 -2.2145
  893MOL0     H23173   6.290   4.578  10.469  0.7379  1.7458  0.4739
  893MOL0     H23174   6.366   4.698  10.388 -2.1144  1.1826  0.0112
  893MOL0     H23175   6.315   4.553  10.167  0.7859  0.5926  0.1172
  893MOL0     H23176   6.192   4.655  10.254  1.0348  0.6657  0.1712
  893MOL0     H23177   6.236   4.354  10.236  0.5269  0.6114  1.3848
  893MOL0     H23178   6.144   4.411  10.371  0.4450 -3.0502 -0.9821
  893MOL0     H23179   6.053   4.481  10.089  2.6765  1.5999  1.2616
  893MOL0     H23180   5.970   4.500  10.249 -1.7252 -1.1250 -1.4930
  893MOL0     H23181   5.976   4.253  10.265  0.3746  1.3522  0.9842
  893MOL0     H23182   5.865   4.322  10.156 -0.3987 -1.6932  1.2517
  893MOL0     H23183   6.210   4.146  10.148  1.5406 -1.4947 -0.6895
  893MOL0     H23184   6.282   3.882   9.992 -0.7324 -0.9827  0.5830
  893MOL0     H23185   6.160   3.876   9.853 -0.8672  3.7574 -1.3064
  893MOL0     H23186   6.087   3.822  10.142  0.1574  2.7378  0.6317
  893MOL0     H23187   5.988   3.795   9.991  0.4921  0.2089 -2.6723
  893MOL0     H23188   6.152   3.629   9.924 -3.6487 -1.1136 -1.1299
  893MOL0     H23189   6.245   3.661  10.077 -1.4127 -0.9875 -0.2415
  893MOL0     H23190   5.958   3.537  10.075 -0.2934  1.3426 -0.3226
  893MOL0     H23191   6.113   3.454  10.088  0.5945  0.5724 -0.5747
  893MOL0     H23192   6.150   3.331  10.304  1.8284  2.2133  2.2787
  893MOL0     H23193   6.184   3.170  10.440 -1.3231  0.7932 -4.3937
  893MOL0     H23194   6.059   3.058  10.414  1.4380 -0.4673 -0.3933
  893MOL0     H23195   6.084   3.116  10.578  0.4454 -1.5758 -0.2842
  893MOL0     H23196   5.689   3.128  10.836  0.7761  1.3476 -2.1810
  893MOL0     H23197   5.565   2.988  10.954  0.0835  0.7937 -0.2682
  893MOL0     H23198   5.411   2.870  11.058 -0.3575  1.3757 -0.4899
  893MOL0     H23199   5.276   2.770  11.053  0.9458  1.7834  2.1164
  893MOL0     H23200   5.535   2.708  10.916 -2.2896  3.7281 -1.3339
  893MOL0     H23201   5.499   2.643  11.074  2.5171  0.9171 -1.4546
  893MOL0     H23202   5.363   2.577  10.809  1.0419 -1.7329 -0.2457
  893MOL0     H23203   5.277   2.545  10.961  0.4582 -1.4360  0.7824
  893MOL0     H23204   5.502   2.437  11.039 -3.5423  0.1345  1.9604
  893MOL0     H23205   5.525   2.408  10.863  0.9226  0.5176  1.8485
  893MOL0     H23206   5.277   2.324  10.877 -3.0611  1.1583  3.4515
  893MOL0     H23207   5.412   2.213  10.913 -0.6680 -0.3645 -0.6482
  893MOL0     H23208   5.230   2.369  11.119  1.2942  0.4463  1.8018
  893MOL0     H23209   5.368   2.285  11.164 -0.0546  3.3645 -0.3502
  893MOL0     H23210   5.276   2.060  11.090 -0.9294 -0.9134  0.3436
  893MOL0     H23211   5.136   2.136  11.026 -0.8139 -2.0726  1.4001
  893MOL0     H23212   5.072   2.239  11.236  0.1855  1.2790 -4.3862
  893MOL0     H23213   5.206   2.151  11.319 -1.7536 -1.0454  0.8725
  893MOL0     H23214   5.277   2.952  10.632  0.1891 -0.3329  0.7514
  893MOL0     H23215   5.439   3.065  10.487  2.3543 -1.8816 -1.1671
  893MOL0     H23216   5.686   3.398  10.449 -0.3390 -1.7945  0.7196
  893MOL0     H23217   5.807   3.569  10.319 -0.3032  0.1091 -3.1389
  893MOL0     H23218   6.515   4.190  10.736 -0.4954 -1.0106 -0.5833
  893MOL0     H23219   6.644   4.038  10.913 -2.9952  2.4182  0.8054
  893MOL0     H23220   6.974   3.924  11.144  0.2232 -0.9274  1.4786
  893MOL0     H23221   7.104   3.801  11.323  0.5810  2.5378 -1.8351
  893MOL0     H23222   7.252   3.658  11.428  0.5380  0.1036 -2.4577
  893MOL0     H23223   7.101   3.599  11.490  0.3379  0.1817  1.2875
  893MOL0     H23224   7.319   3.501  11.601 -0.9247  1.5269 -0.5869
  893MOL0     H23225   7.337   3.407  11.455  1.8486 -3.6917  3.4630
  893MOL0     H23226   7.082   3.381  11.616 -0.6333 -0.2652 -0.9194
  893MOL0     H23227   7.121   3.295  11.482 -0.5858  0.7448  0.1202
  893MOL0     H23228   7.319   3.189  11.582 -0.6731 -0.5592 -0.0759
  893MOL0     H23229   7.185   3.166  11.682  0.7808 -0.6244  0.6506
  893MOL0     H23230   7.482   3.371  11.921  0.3838  1.1060 -0.8532
  893MOL0     H23231   7.111   3.468  11.058 -1.5832 -1.3491 -1.2031
  893MOL0     H23232   7.078   3.471  10.842 -1.3980 -0.3725 -1.5057
  893MOL0     H23233   6.923   3.550  10.814  1.2345  2.1529 -3.4094
  893MOL0     H23234   7.066   3.629  10.757 -2.6625  1.2139 -2.7774
  894MOL0     O23235   6.463  10.845   1.645 -0.5865 -0.8678 -0.0663
  894MOL0     C23236   6.450  10.763   1.731 -0.7430  0.0769  0.5585
  894MOL0     O23237   6.549  10.684   1.777  0.1559  0.5364 -0.3590
  894MOL0     C23238   6.673  10.690   1.719 -0.5103 -0.0342 -0.3520
  894MOL0     C23239   6.797  10.716   1.790  0.0204 -0.9611  0.1989
  894MOL0     C23240   6.921  10.719   1.722  0.5180 -0.6026 -0.5776
  894MOL0     C23241   6.924  10.685   1.578 -0.1603  0.7311  0.2949
  894MOL0     O23242   7.046  10.680   1.513  0.2313  0.8699  0.1424
  894MOL0     C23243   7.128  10.790   1.550  0.6561 -0.7942  0.1693
  894MOL0     C23244   7.241  10.796   1.441  0.4392  0.4771  0.1191
  894MOL0     C23245   7.343  10.906   1.474 -0.8046  0.5308  0.4210
  894MOL0     C23246   7.286  11.047   1.453  0.4548 -0.1250 -0.0008
  894MOL0     C23247   7.400  11.138   1.463 -0.2533 -0.5802  0.9651
  894MOL0     C23248   7.361  11.278   1.436 -0.1622 -0.4385  0.1970
  894MOL0     C23249   7.471  11.374   1.438 -0.2128  0.2170  0.6160
  894MOL0     C23250   7.561  11.365   1.314  0.0914  0.0243  0.4299
  894MOL0     N23251   7.673  11.459   1.333 -0.2819  0.4261  0.6645
  894MOL0     C23252   7.664  11.598   1.320  0.4167 -0.0387  0.7545
  894MOL0     C23253   7.792  11.634   1.298 -0.2298 -0.9905  0.0044
  894MOL0     C23254   7.843  11.774   1.265 -0.5173 -0.1415 -0.2310
  894MOL0     C23255   7.965  11.832   1.353  0.0753  0.1279  0.3796
  894MOL0     C23256   7.921  11.858   1.494 -1.2624  1.0316  0.0818
  894MOL0     C23257   8.052  11.882   1.584  0.5408  0.2115 -0.6233
  894MOL0     O23258   8.145  11.970   1.521 -0.4840 -0.2086  0.2995
  894MOL0     C23259   8.263  11.987   1.583  0.3983 -0.7911  0.9137
  894MOL0     C23260   8.340  11.880   1.617 -0.4436 -0.1430 -1.0524
  894MOL0     C23261   8.468  11.899   1.666 -0.5586  0.4168 -0.6807
  894MOL0     C23262   8.551  11.773   1.700 -0.4503  0.7258 -0.0036
  894MOL0     C23263   8.517  12.027   1.691 -0.0353  0.5245  0.3392
  894MOL0     C23264   8.656  12.053   1.747 -0.0327 -0.5951 -0.6060
  894MOL0     O23265   8.711  12.170   1.716 -0.2455 -0.2541  0.4164
  894MOL0     C23266   8.794  12.224   1.814  0.7207  0.6082  0.5517
  894MOL0     C23267   8.916  12.277   1.761 -0.4744 -0.4602  0.1311
  894MOL0     C23268   9.003  12.336   1.850 -0.8479  0.0444 -1.1063
  894MOL0     C23269   8.972  12.364   1.984  0.0664  0.9470 -0.0836
  894MOL0     O23270   9.049  12.432   2.076  0.3670  0.2294 -0.4837
  894MOL0     C23271   9.055  12.365   2.208 -0.7214 -0.5339  0.1347
  894MOL0     C23272   9.183  12.421   2.282 -0.4819  0.2303  0.2677
  894MOL0     C23273   9.318  12.363   2.227 -0.0449 -1.0725 -0.3194
  894MOL0     C23274   9.325  12.207   2.252  0.0031 -0.5925 -0.6408
  894MOL0     C23275   9.470  12.165   2.258  0.1146 -0.0926 -0.2849
  894MOL0     C23276   9.527  12.132   2.122 -0.0443 -0.0724 -0.4465
  894MOL0     C23277   9.680  12.099   2.112  0.1454  0.0879 -0.0024
  894MOL0     C23278   9.715  12.040   1.970 -0.7054 -0.4437  0.6895
  894MOL0    Cl23279   9.624  11.891   1.927 -0.0348  0.1986 -0.2890
  894MOL0     C23280   8.854  12.304   2.029  0.3287 -0.8377  1.0541
  894MOL0     C23281   8.767  12.226   1.959  0.2542 -0.1563  0.4748
  894MOL0     O23282   8.712  11.970   1.815 -0.6136  0.8007 -0.0945
  894MOL0     C23283   8.433  12.136   1.659  0.3228 -0.1890 -0.1089
  894MOL0     C23284   8.312  12.120   1.595  0.5915 -0.8680 -0.0861
  894MOL0     N23285   7.879  11.525   1.297 -0.2562 -1.3448  0.0343
  894MOL0     N23286   7.805  11.416   1.325  0.2700 -0.2286 -0.5680
  894MOL0     C23287   6.806  10.653   1.510 -0.4400  0.5838  0.7382
  894MOL0     C23288   6.691  10.661   1.581 -0.5390 -0.4359  0.0460
  894MOL0     C23289   6.328  10.769   1.812 -0.3369  0.0279  1.4223
  894MOL0     C23290   6.329  10.746   1.949 -0.5160 -0.5113  0.3440
  894MOL0     C23291   6.214  10.768   2.020  0.5608 -0.5144 -1.1094
  894MOL0     C23292   6.091  10.807   1.968 -0.2810  0.9488  0.4201
  894MOL0     O23293   5.976  10.833   2.045  0.3031  0.3715  0.0673
  894MOL0     C23294   5.984  10.827   2.181 -0.4264 -0.2040  1.0455
  894MOL0     C23295   5.863  10.902   2.219  0.3445 -0.5318  0.3362
  894MOL0     C23296   5.726  10.838   2.187 -0.2204  0.2486 -1.1055
  894MOL0     C23297   5.693  10.706   2.256 -0.2725 -0.4795 -0.3407
  894MOL0     C23298   5.695  10.702   2.407  0.2000  0.3968 -0.0690
  894MOL0     C23299   5.686  10.680   2.524 -1.6449  0.5081  0.1709
  894MOL0     C23300   6.091  10.829   1.829  0.5570  0.0211 -0.6137
  894MOL0     C23301   6.204  10.817   1.754 -0.1238 -0.1528  0.6400
  894MOL0     C23302   6.189  10.854   1.611  0.3292  0.3543 -0.0264
  894MOL0     H23303   6.791  10.709   1.898  2.5174 -3.7861  0.3018
  894MOL0     H23304   7.014  10.726   1.777  1.3182 -2.5876 -1.5473
  894MOL0     H23305   7.178  10.763   1.643 -0.1432  0.8783  1.1236
  894MOL0     H23306   7.071  10.883   1.563  0.5669 -0.5483 -1.6339
  894MOL0     H23307   7.292  10.700   1.428 -1.2906 -0.3335 -0.9526
  894MOL0     H23308   7.197  10.820   1.344  0.1570 -1.3646 -0.2385
  894MOL0     H23309   7.381  10.890   1.575  1.1134 -1.5850 -0.5573
  894MOL0     H23310   7.422  10.885   1.402 -1.1274  0.1762  0.1623
  894MOL0     H23311   7.229  11.055   1.360 -2.9400 -3.2243  1.5754
  894MOL0     H23312   7.207  11.076   1.523  1.5747  1.2319  0.7547
  894MOL0     H23313   7.484  11.108   1.399  0.0278  1.1708  0.4446
  894MOL0     H23314   7.445  11.127   1.562  2.8124 -2.8144 -0.5194
  894MOL0     H23315   7.298  11.283   1.347  0.8074 -0.2920 -0.4932
  894MOL0     H23316   7.291  11.305   1.517 -1.5219 -0.4411 -0.9337
  894MOL0     H23317   7.536  11.351   1.523  1.1192  0.7996 -0.2027
  894MOL0     H23318   7.421  11.471   1.442 -0.6063 -0.0036  1.3167
  894MOL0     H23319   7.593  11.262   1.293 -1.3959 -0.1088 -1.5123
  894MOL0     H23320   7.505  11.397   1.226 -0.3856 -1.7372  0.0429
  894MOL0     H23321   7.578  11.662   1.333  2.0614  2.8167 -1.3217
  894MOL0     H23322   7.760  11.842   1.284 -2.1166 -1.5165 -1.9596
  894MOL0     H23323   7.865  11.787   1.159 -0.8693  1.4409 -0.1364
  894MOL0     H23324   8.047  11.761   1.363  2.0886  2.1465 -0.6848
  894MOL0     H23325   7.995  11.926   1.306 -0.3010 -1.1352 -2.6432
  894MOL0     H23326   7.853  11.944   1.497 -1.8025  0.9062 -3.4277
  894MOL0     H23327   7.871  11.766   1.526  1.0244  0.6477  2.9402
  894MOL0     H23328   8.027  11.914   1.685 -5.3579 -0.9909 -1.3480
  894MOL0     H23329   8.102  11.785   1.581  1.2079  0.5246 -3.8842
  894MOL0     H23330   8.312  11.775   1.610  1.8729 -1.3007  3.4816
  894MOL0     H23331   8.568  11.770   1.808 -1.8828 -0.1473  0.2230
  894MOL0     H23332   8.650  11.784   1.655 -0.5765  1.8316 -0.0353
  894MOL0     H23333   8.495  11.681   1.679  0.1472  0.0174  1.3684
  894MOL0     H23334   8.934  12.284   1.655  2.0555 -0.2248  0.5264
  894MOL0     H23335   9.093  12.383   1.812 -0.6574  0.7875  0.2253
  894MOL0     H23336   8.961  12.374   2.263 -0.6714 -2.5087  0.5873
  894MOL0     H23337   9.071  12.258   2.197 -0.9333 -0.7755  1.8427
  894MOL0     H23338   9.186  12.529   2.268  0.9869  0.2503  0.6053
  894MOL0     H23339   9.165  12.410   2.389  1.4447  1.3047  0.7347
  894MOL0     H23340   9.408  12.414   2.262 -0.2375  0.1933 -1.5760
  894MOL0     H23341   9.321  12.376   2.118  1.0676  1.1309 -0.0707
  894MOL0     H23342   9.264  12.155   2.178 -0.2775  0.1702 -0.9581
  894MOL0     H23343   9.286  12.192   2.353  0.2297 -1.3155 -0.6571
  894MOL0     H23344   9.532  12.245   2.300  2.9554 -2.0877 -0.3850
  894MOL0     H23345   9.461  12.085   2.332 -1.6482 -0.2180 -0.5783
  894MOL0     H23346   9.500  12.207   2.047  1.2460 -0.1144 -0.9847
  894MOL0     H23347   9.473  12.044   2.087 -4.6650  1.7884  1.2568
  894MOL0     H23348   9.698  12.023   2.189  0.1686  0.4595  0.3598
  894MOL0     H23349   9.738  12.190   2.128 -0.2859  1.1594 -3.5612
  894MOL0     H23350   9.818  12.008   1.956 -0.2718  0.9476  0.4749
  894MOL0     H23351   9.701  12.122   1.899  1.3904  0.2256  0.9741
  894MOL0     H23352   8.814  12.339   2.124 -4.2199 -0.3270 -0.7723
  894MOL0     H23353   8.687  12.172   2.009 -0.0552 -0.1339  0.0110
  894MOL0     H23354   8.472  12.234   1.687  0.4696 -0.6232  1.3005
  894MOL0     H23355   8.257  12.207   1.560  0.8839  0.2660  2.0683
  894MOL0     H23356   6.816  10.630   1.404  4.0355  0.5368  0.9820
  894MOL0     H23357   6.598  10.640   1.530 -0.3513  0.1096 -0.5416
  894MOL0     H23358   6.419  10.700   1.987  0.3412 -1.3794 -2.4782
  894MOL0     H23359   6.212  10.732   2.123 -1.8413 -1.7528 -1.4939
  894MOL0     H23360   5.992  10.731   2.233  0.2771 -0.8371 -0.2007
  894MOL0     H23361   6.079  10.870   2.212  0.3601 -1.8515  1.0584
  894MOL0     H23362   5.861  11.003   2.179  0.5322 -0.4125  0.6192
  894MOL0     H23363   5.869  10.924   2.326  3.9881 -1.6862  0.4974
  894MOL0     H23364   5.656  10.907   2.233  0.9305 -0.4034  1.8588
  894MOL0     H23365   5.704  10.827   2.080 -0.4152  1.6621 -1.2288
  894MOL0     H23366   5.769  10.630   2.234  1.5237  0.8315  1.1067
  894MOL0     H23367   5.594  10.667   2.229 -1.5655  2.8339 -0.8845
  894MOL0     H23368   5.684  10.664   2.630  0.8615 -1.9256 -0.0492
  894MOL0     H23369   6.009  10.878   1.776  1.1113 -0.1209 -1.6411
  894MOL0     H23370   6.081  10.863   1.592 -0.0501  1.5860  2.3705
  894MOL0     H23371   6.230  10.954   1.594  2.7245 -0.2351  1.8401
  894MOL0     H23372   6.228  10.775   1.546 -2.4747  0.7376 -2.3870
  895MOL0     O23373   8.619   6.970   9.812  1.2494  0.1023 -0.3869
  895MOL0     C23374   8.602   7.075   9.746 -0.9909 -0.1025 -0.1092
  895MOL0     O23375   8.708   7.151   9.705  0.7994  0.0227  0.2315
  895MOL0     C23376   8.833   7.122   9.753  0.1286 -0.0777  0.8959
  895MOL0     C23377   8.937   7.141   9.663 -0.5046  0.1612  0.5305
  895MOL0     C23378   9.074   7.123   9.708 -0.0600 -0.4341  0.1824
  895MOL0     C23379   9.105   7.087   9.838 -0.2985  0.5888  0.5247
  895MOL0     O23380   9.233   7.046   9.879  1.3748 -0.1867 -0.1054
  895MOL0     C23381   9.344   7.115   9.825  0.4529  0.4541  0.2974
  895MOL0     C23382   9.465   7.066   9.901  0.2263 -0.0676  0.1556
  895MOL0     C23383   9.593   7.132   9.844 -0.9687  0.1001  0.4198
  895MOL0     C23384   9.617   7.279   9.859 -0.8157 -0.3643 -0.6792
  895MOL0     C23385   9.738   7.336   9.778 -0.0433 -0.2552  0.4386
  895MOL0     C23386   9.875   7.310   9.843  0.3582 -0.4712  1.3414
  895MOL0     C23387   9.995   7.326   9.750  0.0866  0.3674  0.4245
  895MOL0     C23388  10.004   7.454   9.659  0.2018 -0.3677 -0.2498
  895MOL0     N23389  10.145   7.506   9.648 -0.1728 -0.3933 -0.7113
  895MOL0     C23390  10.227   7.569   9.746 -0.2588  1.1146  0.3023
  895MOL0     C23391  10.353   7.559   9.699  0.5565  0.0677  0.1194
  895MOL0     C23392  10.472   7.616   9.778  0.7083 -0.9592 -0.2261
  895MOL0     C23393  10.607   7.566   9.721 -0.3604 -1.2410 -0.0190
  895MOL0     C23394  10.738   7.599   9.800  0.0242  0.6396  0.0236
  895MOL0     C23395  10.850   7.496   9.779  0.5508 -0.3053 -0.8866
  895MOL0     O23396  10.973   7.569   9.790 -0.3185  0.1802  0.0778
  895MOL0     C23397  11.034   7.627   9.681 -0.0430  0.2838 -0.1841
  895MOL0     C23398  10.964   7.658   9.563  1.1292 -0.5977 -0.7584
  895MOL0     C23399  11.032   7.714   9.457  0.7003  0.0884  0.3461
  895MOL0     C23400  10.958   7.743   9.329 -0.0103 -0.0267 -1.3206
  895MOL0     C23401  11.179   7.718   9.449  0.0127 -0.3090  0.1895
  895MOL0     C23402  11.269   7.744   9.328  0.0776  0.1075 -0.4911
  895MOL0     O23403  11.344   7.645   9.282 -0.2210  0.1323  0.2389
  895MOL0     C23404  11.432   7.686   9.181 -0.3995  0.0349 -0.4930
  895MOL0     C23405  11.380   7.712   9.054 -0.0525 -0.3668  0.0475
  895MOL0     C23406  11.477   7.739   8.952  0.7614 -0.2658 -0.2876
  895MOL0     C23407  11.616   7.744   8.972  0.2032 -0.9964  0.3333
  895MOL0     O23408  11.715   7.757   8.876  0.3504 -0.2517 -0.3704
  895MOL0     C23409  11.684   7.820   8.750 -0.3153 -0.7883  0.5316
  895MOL0     C23410  11.798   7.823   8.645 -0.4822  0.3531 -0.2720
  895MOL0     C23411  11.820   7.685   8.578 -0.6349 -0.0606  0.7014
  895MOL0     C23412  11.935   7.697   8.477 -0.1311  0.4933 -0.0820
  895MOL0     C23413  12.077   7.685   8.543 -0.8554 -0.3856 -0.0424
  895MOL0     C23414  12.186   7.653   8.443 -0.2600 -0.5730 -0.6130
  895MOL0     C23415  12.229   7.785   8.374  0.4660  0.2322 -0.6471
  895MOL0     C23416  12.374   7.794   8.337 -0.5005  0.8360  0.1678
  895MOL0    Cl23417  12.383   7.743   8.174  0.1899  0.1513  0.2237
  895MOL0     C23418  11.664   7.716   9.095  0.6097  0.1643 -0.0588
  895MOL0     C23419  11.570   7.694   9.202 -1.2952  0.4948  0.2328
  895MOL0     O23420  11.254   7.852   9.281 -0.1799  0.1106  0.5993
  895MOL0     C23421  11.240   7.689   9.573 -0.5605  1.1689  0.8482
  895MOL0     C23422  11.172   7.648   9.684 -0.1496  0.2568 -0.9480
  895MOL0     N23423  10.350   7.500   9.577 -0.4028 -0.0846 -0.4135
  895MOL0     N23424  10.231   7.462   9.556 -0.0011  0.0396  0.5881
  895MOL0     C23425   8.990   7.070   9.929 -0.4036  0.3628  0.3273
  895MOL0     C23426   8.862   7.085   9.884  0.5594  0.5623 -0.3744
  895MOL0     C23427   8.465   7.108   9.711 -0.8203 -0.3001  0.9558
  895MOL0     C23428   8.448   7.233   9.645 -0.3532 -0.0937  0.4145
  895MOL0     C23429   8.318   7.282   9.611  0.2269  0.1566  0.1308
  895MOL0     C23430   8.212   7.205   9.638  0.2607  0.3367 -0.2068
  895MOL0     O23431   8.083   7.235   9.621  0.0237 -0.3852 -0.4439
  895MOL0     C23432   8.041   7.367   9.580 -0.1563 -0.4073 -0.0421
  895MOL0     C23433   7.894   7.373   9.592  0.0041  0.6558  0.6333
  895MOL0     C23434   7.831   7.318   9.464 -0.0249 -0.6829 -0.5273
  895MOL0     C23435   7.857   7.174   9.422 -0.1490  0.0604 -0.2265
  895MOL0     C23436   7.760   7.116   9.331 -0.7814 -0.6284 -0.6487
  895MOL0     C23437   7.683   7.059   9.262  0.1723  0.1647 -0.6594
  895MOL0     C23438   8.234   7.073   9.683  0.1340 -0.0753  0.9841
  895MOL0     C23439   8.355   7.024   9.726  0.1858  0.8000  0.2679
  895MOL0     C23440   8.345   6.897   9.812 -0.3247  0.0548  0.7777
  895MOL0     H23441   8.919   7.164   9.559  4.3964 -0.1978 -0.6251
  895MOL0     H23442   9.156   7.120   9.637  0.5634  0.5467  0.8491
  895MOL0     H23443   9.338   7.223   9.844  5.1660  1.1450 -0.8946
  895MOL0     H23444   9.359   7.092   9.719  1.4989  1.3585  0.2333
  895MOL0     H23445   9.458   7.081  10.009 -1.7640 -3.0365  0.5601
  895MOL0     H23446   9.478   6.957   9.900 -1.0129 -0.2548 -1.9124
  895MOL0     H23447   9.678   7.069   9.874 -0.0985 -0.6464 -3.1171
  895MOL0     H23448   9.584   7.107   9.738 -2.4688 -2.8117  1.1305
  895MOL0     H23449   9.521   7.318   9.822 -1.3892 -0.0382  1.0331
  895MOL0     H23450   9.623   7.316   9.962  0.2452 -0.9731 -0.5136
  895MOL0     H23451   9.734   7.445   9.781  1.2909 -0.1862  0.4380
  895MOL0     H23452   9.723   7.301   9.675 -1.2683 -0.3841  0.6514
  895MOL0     H23453   9.891   7.382   9.924  0.5965  1.4226 -0.3102
  895MOL0     H23454   9.867   7.209   9.883 -2.7834 -0.3692  1.2353
  895MOL0     H23455  10.003   7.233   9.693  1.1199 -0.3565  1.6991
  895MOL0     H23456  10.075   7.331   9.825  0.9877  3.1633 -0.6089
  895MOL0     H23457   9.952   7.437   9.564 -1.1856  0.5397  0.3144
  895MOL0     H23458   9.944   7.532   9.707  2.5802  2.8193 -2.0489
  895MOL0     H23459  10.187   7.621   9.833  0.5506  3.8016 -0.8028
  895MOL0     H23460  10.469   7.593   9.885 -1.9096 -1.0568 -0.2676
  895MOL0     H23461  10.459   7.724   9.777 -1.2049 -1.1547 -0.2943
  895MOL0     H23462  10.595   7.458   9.708 -2.8249 -0.7216 -3.6330
  895MOL0     H23463  10.620   7.604   9.619 -0.9158 -1.6744 -0.2573
  895MOL0     H23464  10.780   7.693   9.766  2.4334  0.1727  1.4767
  895MOL0     H23465  10.712   7.597   9.906 -1.7358 -0.9940 -0.3794
  895MOL0     H23466  10.850   7.420   9.858 -3.2401  0.1887 -0.2235
  895MOL0     H23467  10.841   7.438   9.687 -0.3265  1.6347 -2.0911
  895MOL0     H23468  10.857   7.643   9.563  1.1107 -0.7127  1.2028
  895MOL0     H23469  10.891   7.658   9.311  0.1899 -0.2016 -1.2472
  895MOL0     H23470  11.018   7.748   9.238 -0.1590 -0.8074 -1.4664
  895MOL0     H23471  10.894   7.830   9.347  1.0007  0.5409 -0.3477
  895MOL0     H23472  11.272   7.712   9.037 -0.2064  3.5411  0.1701
  895MOL0     H23473  11.438   7.751   8.851 -3.4467  2.6140  1.4198
  895MOL0     H23474  11.599   7.780   8.693  1.4447  1.6156 -4.3514
  895MOL0     H23475  11.661   7.924   8.775  0.8648 -0.6756  1.2291
  895MOL0     H23476  11.765   7.895   8.569 -3.0655  0.9422  1.2755
  895MOL0     H23477  11.888   7.852   8.700 -0.4201 -0.6133  0.1418
  895MOL0     H23478  11.723   7.662   8.535 -0.6131  1.1485 -0.0270
  895MOL0     H23479  11.847   7.616   8.659 -0.6150 -0.7326  0.1223
  895MOL0     H23480  11.932   7.792   8.423  0.1859  1.0233  0.8124
  895MOL0     H23481  11.933   7.621   8.398  1.7981  0.7046 -0.3727
  895MOL0     H23482  12.101   7.776   8.599 -0.1780  0.4168 -1.5903
  895MOL0     H23483  12.071   7.600   8.613  0.6035  0.6321  1.3668
  895MOL0     H23484  12.151   7.577   8.371  0.0472  1.8931 -3.5943
  895MOL0     H23485  12.274   7.615   8.496 -0.4067 -0.4968 -0.3136
  895MOL0     H23486  12.196   7.866   8.438 -1.9751 -0.3497 -1.0846
  895MOL0     H23487  12.178   7.803   8.279  1.2021  0.0960 -1.0774
  895MOL0     H23488  12.439   7.728   8.396  0.1029 -0.3897 -1.7526
  895MOL0     H23489  12.416   7.894   8.350  1.6318 -0.2259  2.2011
  895MOL0     H23490  11.769   7.715   9.124  0.2259 -0.1796  1.4189
  895MOL0     H23491  11.615   7.686   9.301 -0.4551  1.6720 -0.0232
  895MOL0     H23492  11.347   7.690   9.588 -0.3297  0.8097 -0.5763
  895MOL0     H23493  11.217   7.633   9.781 -0.1100 -1.2679 -1.1889
  895MOL0     H23494   9.017   7.025  10.025  0.6222 -0.3104 -0.2583
  895MOL0     H23495   8.777   7.065   9.948  1.6819  2.2669  1.8265
  895MOL0     H23496   8.528   7.305   9.657  0.2914 -0.5262 -1.0283
  895MOL0     H23497   8.317   7.383   9.572 -3.0838  0.3818  0.5211
  895MOL0     H23498   8.086   7.435   9.652  1.3378  0.0701 -1.3768
  895MOL0     H23499   8.093   7.394   9.488  2.0250 -2.5492  0.4489
  895MOL0     H23500   7.870   7.478   9.607 -1.2931 -0.0449  5.0891
  895MOL0     H23501   7.863   7.313   9.679  2.3672 -2.6049 -0.5516
  895MOL0     H23502   7.724   7.317   9.485  0.4737 -3.8951  2.7488
  895MOL0     H23503   7.861   7.382   9.380  0.3664  0.7565  0.6657
  895MOL0     H23504   7.835   7.118   9.513 -3.8710  2.4327  0.5594
  895MOL0     H23505   7.956   7.157   9.380 -0.0313 -1.8130  0.7384
  895MOL0     H23506   7.616   6.997   9.207  1.2784  0.0006 -1.8661
  895MOL0     H23507   8.146   7.020   9.716 -0.6182  1.5300  1.6491
  895MOL0     H23508   8.245   6.860   9.836  0.8539 -3.3303  1.1058
  895MOL0     H23509   8.383   6.811   9.756  1.3002 -2.2304  4.8460
  895MOL0     H23510   8.400   6.893   9.907 -0.9583 -2.9061  1.1250
  896MOL0     O23511   8.995   2.618   9.151  0.0195 -0.7979  0.9654
  896MOL0     C23512   8.875   2.654   9.137 -0.6331 -1.4304  0.5062
  896MOL0     O23513   8.804   2.650   9.032 -0.6106  1.4872  0.0850
  896MOL0     C23514   8.847   2.569   8.932 -0.0273 -0.1436 -0.5894
  896MOL0     C23515   8.835   2.618   8.803 -0.8305 -0.2123  0.4071
  896MOL0     C23516   8.877   2.545   8.690 -0.2201 -0.5027  0.7267
  896MOL0     C23517   8.914   2.414   8.703 -0.2217  0.1544  0.1787
  896MOL0     O23518   8.945   2.347   8.587  0.0066  0.1828  0.4964
  896MOL0     C23519   9.028   2.234   8.583 -0.5316 -0.6334  0.9865
  896MOL0     C23520   9.089   2.232   8.442 -0.2581  0.1696  0.3983
  896MOL0     C23521   9.156   2.098   8.437  0.5863 -0.2705 -0.5434
  896MOL0     C23522   9.251   2.102   8.312  0.7501  0.2953 -0.0761
  896MOL0     C23523   9.304   1.964   8.279  0.1543  0.2940  0.1279
  896MOL0     C23524   9.381   1.988   8.152  0.0934  0.2605  0.6512
  896MOL0     C23525   9.486   1.877   8.117  0.6708  0.5644  0.3755
  896MOL0     C23526   9.631   1.916   8.158  0.0048 -0.3606  0.7744
  896MOL0     N23527   9.731   1.814   8.142  0.2110 -0.3603  0.2303
  896MOL0     C23528   9.706   1.697   8.073  0.6757 -1.4394  0.8527
  896MOL0     C23529   9.825   1.628   8.095 -0.0142 -0.3202  0.0076
  896MOL0     C23530   9.869   1.481   8.057  0.5285  0.3164 -0.7861
  896MOL0     C23531   9.778   1.383   8.130  0.5143  0.7894 -0.5840
  896MOL0     C23532   9.827   1.329   8.271 -0.6777 -0.3699  0.2782
  896MOL0     C23533   9.816   1.437   8.386  1.0842 -0.1189 -0.5864
  896MOL0     O23534   9.677   1.466   8.409 -0.1452 -0.5095  0.1173
  896MOL0     C23535   9.641   1.578   8.474  0.2864 -0.1572 -0.3599
  896MOL0     C23536   9.731   1.682   8.514 -0.0036  0.1038  0.7530
  896MOL0     C23537   9.675   1.795   8.562  0.0909  1.7366 -0.0849
  896MOL0     C23538   9.777   1.905   8.572  0.5031 -1.7520 -0.7394
  896MOL0     C23539   9.540   1.809   8.611  0.0605  0.2671  0.7508
  896MOL0     C23540   9.482   1.938   8.656  1.1025  0.0583  0.8920
  896MOL0     O23541   9.552   2.049   8.676 -0.4448  0.3706  1.2686
  896MOL0     C23542   9.478   2.169   8.675 -0.0697 -0.9326  0.5104
  896MOL0     C23543   9.408   2.215   8.783  0.1337  0.0079 -0.3787
  896MOL0     C23544   9.353   2.345   8.803 -0.2481 -0.6230  0.2889
  896MOL0     C23545   9.367   2.434   8.697  1.1709 -0.7622 -0.2370
  896MOL0     O23546   9.323   2.566   8.708  0.6066  1.1330  0.1182
  896MOL0     C23547   9.216   2.602   8.626  0.3056 -0.5568  0.3355
  896MOL0     C23548   9.170   2.744   8.637  0.4968 -0.4940  0.2243
  896MOL0     C23549   9.140   2.789   8.790  0.2209  0.2192  0.3071
  896MOL0     C23550   9.103   2.937   8.825 -0.0589  0.1265  0.1548
  896MOL0     C23551   9.191   3.045   8.765  0.7233 -0.0788  0.5420
  896MOL0     C23552   9.178   3.179   8.832 -0.4368 -0.0373 -0.4349
  896MOL0     C23553   9.049   3.248   8.783  0.3484 -0.0981  0.1999
  896MOL0     C23554   9.044   3.394   8.847  0.9759 -0.0766  0.3106
  896MOL0    Cl23555   8.886   3.473   8.803 -0.5109 -0.1501  0.0381
  896MOL0     C23556   9.424   2.385   8.579  0.1699  0.3665  1.0068
  896MOL0     C23557   9.493   2.264   8.568  1.1301 -0.3764  0.2531
  896MOL0     O23558   9.362   1.936   8.677 -0.1574 -0.1557  0.1290
  896MOL0     C23559   9.453   1.695   8.581  0.1508  0.3215  0.6403
  896MOL0     C23560   9.509   1.586   8.513  0.1094  0.4715 -0.1954
  896MOL0     N23561   9.902   1.704   8.177 -0.1994 -0.3279 -0.2798
  896MOL0     N23562   9.840   1.812   8.211  0.0674  0.4645  0.4538
  896MOL0     C23563   8.934   2.356   8.837 -0.0718 -0.1204  0.1450
  896MOL0     C23564   8.898   2.433   8.951 -0.2930 -0.7870  0.5736
  896MOL0     C23565   8.811   2.722   9.256  0.5184  0.3791 -0.2136
  896MOL0     C23566   8.714   2.825   9.231 -0.2344 -1.5326 -0.6284
  896MOL0     C23567   8.659   2.899   9.342  0.1890  0.1075 -0.6639
  896MOL0     C23568   8.702   2.867   9.471  0.3065  0.5228 -0.3525
  896MOL0     O23569   8.654   2.907   9.590  0.4051 -0.4219 -0.2654
  896MOL0     C23570   8.558   3.013   9.607 -0.8880 -0.1447  0.2567
  896MOL0     C23571   8.601   3.156   9.592  0.3049 -0.9483  0.2706
  896MOL0     C23572   8.688   3.211   9.712  0.9293  0.5331  0.3747
  896MOL0     C23573   8.616   3.233   9.851 -0.1279  0.0960 -0.7170
  896MOL0     C23574   8.511   3.334   9.848  0.1242 -0.4009 -0.0140
  896MOL0     C23575   8.417   3.406   9.863  0.7834  0.1663  0.5546
  896MOL0     C23576   8.796   2.765   9.493 -0.1458 -0.2795  0.6867
  896MOL0     C23577   8.856   2.693   9.387  0.4899  0.6036  0.5371
  896MOL0     C23578   8.952   2.591   9.433  0.5387 -0.4186 -0.3454
  896MOL0     H23579   8.798   2.720   8.801  2.0616  0.9542  0.9505
  896MOL0     H23580   8.843   2.575   8.591  1.0518  1.4796  0.8384
  896MOL0     H23581   8.970   2.145   8.611 -0.0913 -1.4146 -0.5097
  896MOL0     H23582   9.104   2.249   8.660 -0.4024  4.2592  0.2094
  896MOL0     H23583   9.019   2.232   8.357  0.2599 -3.8350 -0.2320
  896MOL0     H23584   9.163   2.312   8.444  0.4232 -0.4655  2.0338
  896MOL0     H23585   9.227   2.080   8.518  0.8460  1.0009 -0.4650
  896MOL0     H23586   9.085   2.016   8.438 -0.1685  0.3759  0.7087
  896MOL0     H23587   9.199   2.141   8.224  0.4863  1.0587  0.4080
  896MOL0     H23588   9.336   2.168   8.331  2.9710 -2.1099 -1.0623
  896MOL0     H23589   9.224   1.891   8.269  0.8527 -1.1140  3.4909
  896MOL0     H23590   9.361   1.943   8.371  1.2130  2.2818 -0.0129
  896MOL0     H23591   9.305   1.995   8.074 -0.4784 -1.7802  0.9731
  896MOL0     H23592   9.439   2.077   8.177  1.3580 -1.0352  2.7026
  896MOL0     H23593   9.480   1.862   8.009  2.7162 -0.7108  0.3719
  896MOL0     H23594   9.459   1.789   8.176  3.0810  0.0713  0.8581
  896MOL0     H23595   9.653   1.999   8.090  0.0839 -1.3606 -0.4624
  896MOL0     H23596   9.638   1.961   8.258 -0.4336  2.6030 -0.4366
  896MOL0     H23597   9.614   1.666   8.025 -1.0827  2.5109  1.3084
  896MOL0     H23598   9.975   1.467   8.076  1.1319  1.1427 -3.1982
  896MOL0     H23599   9.857   1.473   7.949  3.4732  0.4516 -1.1967
  896MOL0     H23600   9.675   1.420   8.132 -0.2062 -1.0125 -2.0284
  896MOL0     H23601   9.777   1.294   8.068  2.9051 -1.0906  1.8597
  896MOL0     H23602   9.783   1.235   8.304  4.2997 -3.0860 -0.0119
  896MOL0     H23603   9.930   1.303   8.246 -0.6184 -0.7788  0.9389
  896MOL0     H23604   9.845   1.403   8.486  2.6807 -0.7658 -1.2265
  896MOL0     H23605   9.867   1.532   8.366  1.9180 -0.2432  0.8175
  896MOL0     H23606   9.839   1.672   8.510  0.1910  1.7660 -3.6139
  896MOL0     H23607   9.877   1.871   8.542  0.2628 -2.4491 -0.7904
  896MOL0     H23608   9.784   1.955   8.668 -0.6608  1.8540 -2.3803
  896MOL0     H23609   9.769   1.989   8.503 -1.2702 -0.8903  0.4590
  896MOL0     H23610   9.404   2.147   8.868  0.5891 -0.9512 -1.1072
  896MOL0     H23611   9.311   2.378   8.898  1.7758  0.6651  0.7984
  896MOL0     H23612   9.229   2.576   8.520 -0.3326 -2.8338  0.7702
  896MOL0     H23613   9.130   2.540   8.654  0.7939 -0.5114  2.0122
  896MOL0     H23614   9.239   2.813   8.588 -0.7047  2.6430  2.6816
  896MOL0     H23615   9.081   2.749   8.574  0.1282 -3.0515  0.4242
  896MOL0     H23616   9.238   2.767   8.832 -0.0393 -2.0995 -0.1849
  896MOL0     H23617   9.082   2.709   8.838 -1.5412 -1.1066 -3.5732
  896MOL0     H23618   9.108   2.940   8.934  0.8428 -2.8605  0.2884
  896MOL0     H23619   9.000   2.950   8.791  0.2644 -0.2034 -1.0264
  896MOL0     H23620   9.297   3.019   8.779  1.7642  2.3984 -1.8679
  896MOL0     H23621   9.180   3.052   8.657  1.8837 -0.5203  0.3761
  896MOL0     H23622   9.257   3.243   8.792 -3.0241  2.1394 -2.4866
  896MOL0     H23623   9.166   3.165   8.940 -0.1271 -2.5545 -0.6751
  896MOL0     H23624   8.955   3.196   8.801  0.2477  0.2329  0.6815
  896MOL0     H23625   9.051   3.259   8.675  2.5190  0.4368  0.2314
  896MOL0     H23626   9.132   3.451   8.816  3.0427 -2.5153  1.3305
  896MOL0     H23627   9.052   3.390   8.956 -0.2158  1.3380  0.4805
  896MOL0     H23628   9.437   2.446   8.490 -0.3623 -1.1966 -0.1979
  896MOL0     H23629   9.551   2.239   8.480  0.8639  0.3059 -0.1296
  896MOL0     H23630   9.347   1.699   8.599 -0.3041  0.7670 -1.7982
  896MOL0     H23631   9.447   1.501   8.489  0.0926 -0.5476  2.9271
  896MOL0     H23632   8.979   2.259   8.851  3.4947  1.8055  4.0659
  896MOL0     H23633   8.909   2.402   9.055  2.6205 -0.4740  0.4571
  896MOL0     H23634   8.693   2.845   9.127 -0.2286 -3.1116 -0.9519
  896MOL0     H23635   8.580   2.973   9.329 -0.1865 -0.5275 -2.2445
  896MOL0     H23636   8.480   3.000   9.532 -1.0468 -2.0186  0.7086
  896MOL0     H23637   8.507   2.988   9.701  0.2954 -1.9635  0.4746
  896MOL0     H23638   8.521   3.222   9.558  0.3457 -1.0574 -0.0362
  896MOL0     H23639   8.666   3.152   9.504  0.1300  0.6259  0.0351
  896MOL0     H23640   8.761   3.130   9.720  1.9869  1.2175 -1.5922
  896MOL0     H23641   8.739   3.305   9.688 -0.2256  1.4102  1.2152
  896MOL0     H23642   8.689   3.265   9.926  2.8851 -2.5686 -2.2977
  896MOL0     H23643   8.579   3.138   9.889  0.4388 -0.2216 -0.9537
  896MOL0     H23644   8.339   3.476   9.885  1.8481  0.8035  2.5720
  896MOL0     H23645   8.825   2.758   9.597  0.2991 -1.0881  0.5207
  896MOL0     H23646   8.925   2.495   9.387 -1.3601 -1.1994  2.2014
  896MOL0     H23647   9.053   2.628   9.415 -1.0506  4.6979 -0.2510
  896MOL0     H23648   8.942   2.581   9.541 -1.9526  2.4731 -0.1803
  897MOL0     O23649  10.989  11.204   1.962 -0.9484  0.9061  0.0418
  897MOL0     C23650  11.009  11.116   1.875  0.4386  0.4989 -0.3122
  897MOL0     O23651  11.108  11.016   1.886  0.5741 -0.2098  0.4015
  897MOL0     C23652  11.209  11.065   1.960  0.1713  0.3945  0.0093
  897MOL0     C23653  11.240  10.995   2.073  0.3076  0.0828  0.1561
  897MOL0     C23654  11.351  11.021   2.147 -0.0224  0.5062  1.3583
  897MOL0     C23655  11.434  11.126   2.109 -0.2639 -0.8992 -0.0465
  897MOL0     O23656  11.555  11.166   2.171  0.2290 -0.3049 -0.1531
  897MOL0     C23657  11.623  11.061   2.249  0.1756 -0.5537  0.1898
  897MOL0     C23658  11.748  11.139   2.309  0.2660  0.7397 -0.4374
  897MOL0     C23659  11.809  11.224   2.194  0.7032 -0.2310  0.2795
  897MOL0     C23660  11.938  11.289   2.251  0.3095 -0.5428  0.1157
  897MOL0     C23661  12.028  11.357   2.137  0.5138  0.3549 -0.6482
  897MOL0     C23662  12.153  11.423   2.196 -0.3116  0.0297 -0.6721
  897MOL0     C23663  12.247  11.475   2.087 -0.3153  0.2666  0.1412
  897MOL0     C23664  12.178  11.562   1.978 -0.2823  0.0696 -0.3409
  897MOL0     N23665  12.280  11.599   1.874 -0.7628 -0.1747 -0.2936
  897MOL0     C23666  12.293  11.723   1.826 -0.0032  0.1727  0.5558
  897MOL0     C23667  12.417  11.725   1.779  0.6101 -0.3609  1.0937
  897MOL0     C23668  12.502  11.839   1.735  0.0201  0.9563 -0.5940
  897MOL0     C23669  12.529  11.839   1.589 -0.4425  0.1341  0.1827
  897MOL0     C23670  12.407  11.883   1.507 -0.1853 -0.1016  0.3709
  897MOL0     C23671  12.423  11.867   1.352  0.6179 -0.0848  0.5568
  897MOL0     O23672  12.291  11.858   1.295 -0.6237 -0.5869  0.7088
  897MOL0     C23673  12.216  11.965   1.276 -0.0542 -0.4734  0.2734
  897MOL0     C23674  12.240  12.095   1.315 -0.0458  0.7053 -0.4572
  897MOL0     C23675  12.131  12.189   1.322  0.3703 -0.4849 -0.0444
  897MOL0     C23676  12.155  12.332   1.362 -0.9799 -0.4352 -0.5515
  897MOL0     C23677  12.005  12.152   1.262 -1.0089 -0.3043  0.4372
  897MOL0     C23678  11.896  12.243   1.240  0.0788 -0.1391 -0.7571
  897MOL0     O23679  11.814  12.233   1.140 -0.1046 -0.0295  0.3863
  897MOL0     C23680  11.717  12.327   1.117  0.7846  0.4361 -0.4970
  897MOL0     C23681  11.583  12.289   1.102  0.0913 -0.4467 -0.2217
  897MOL0     C23682  11.472  12.369   1.080  0.1849  0.3258 -0.2742
  897MOL0     C23683  11.491  12.504   1.064 -0.3020 -0.1925 -0.3516
  897MOL0     O23684  11.385  12.580   1.032 -0.3340 -0.0526  0.2887
  897MOL0     C23685  11.406  12.695   0.958  0.2123 -0.1928 -0.0089
  897MOL0     C23686  11.270  12.759   0.974 -0.1378 -0.5254 -0.5534
  897MOL0     C23687  11.236  12.883   0.899 -0.2251  0.1283 -0.1192
  897MOL0     C23688  11.084  12.897   0.896  0.6633  0.0478  1.2156
  897MOL0     C23689  11.041  13.020   0.809  0.3638 -0.9351  0.2733
  897MOL0     C23690  10.903  13.064   0.854  0.0810 -0.5895  0.7241
  897MOL0     C23691  10.855  13.188   0.773 -0.0451 -0.3494 -0.3280
  897MOL0     C23692  10.731  13.235   0.834  0.7426 -0.5315  1.0705
  897MOL0    Cl23693  10.678  13.385   0.760  0.1291 -0.1988 -0.1146
  897MOL0     C23694  11.625  12.546   1.072 -0.4102  0.7078  0.1322
  897MOL0     C23695  11.728  12.464   1.098 -0.7737 -0.0287 -0.0407
  897MOL0     O23696  11.884  12.329   1.333 -0.5020 -1.1058 -0.2067
  897MOL0     C23697  11.994  12.022   1.204  0.0369  0.0063 -0.2007
  897MOL0     C23698  12.095  11.933   1.222  0.1899  0.8234 -0.5485
  897MOL0     N23699  12.474  11.599   1.785 -0.3216 -0.8941  0.3596
  897MOL0     N23700  12.382  11.524   1.834  0.2308  0.2895  0.1446
  897MOL0     C23701  11.406  11.191   1.997 -0.9389 -0.3077  0.7910
  897MOL0     C23702  11.300  11.158   1.918  0.8360 -0.5419 -0.9470
  897MOL0     C23703  10.914  11.113   1.764 -0.0477  0.9073  0.5076
  897MOL0     C23704  10.830  11.231   1.747 -0.1556 -0.1493  0.4433
  897MOL0     C23705  10.720  11.225   1.668  0.3936 -1.1296 -0.3963
  897MOL0     C23706  10.696  11.115   1.587  0.7647  0.0025  0.7534
  897MOL0     O23707  10.583  11.120   1.516 -0.8891 -0.1049  1.0493
  897MOL0     C23708  10.509  10.997   1.511 -1.3322  0.6940  0.4754
  897MOL0     C23709  10.365  11.019   1.508 -0.2854  1.0610  0.0706
  897MOL0     C23710  10.289  11.028   1.640  0.3752 -0.3743  0.4374
  897MOL0     C23711  10.324  11.150   1.723  0.4260  0.4741 -0.6687
  897MOL0     C23712  10.317  11.281   1.652 -0.5963  0.0242 -0.1031
  897MOL0     C23713  10.307  11.377   1.587 -0.2026 -0.0758 -0.3773
  897MOL0     C23714  10.781  11.001   1.588 -0.0791 -0.3822 -0.3189
  897MOL0     C23715  10.889  11.001   1.681  0.0843 -0.4762 -0.2037
  897MOL0     C23716  10.973  10.866   1.687  0.5730 -1.1989  0.3570
  897MOL0     H23717  11.179  10.910   2.104  1.2546  0.1127  2.2821
  897MOL0     H23718  11.385  10.949   2.221 -0.5996 -1.2441  0.0151
  897MOL0     H23719  11.651  10.976   2.187  0.1717 -0.8683  0.6128
  897MOL0     H23720  11.560  11.026   2.331  0.8209  3.1095  2.4956
  897MOL0     H23721  11.697  11.202   2.382  1.1834  0.2597  0.6489
  897MOL0     H23722  11.814  11.078   2.372 -2.6229 -0.9091  1.2219
  897MOL0     H23723  11.822  11.153   2.112 -2.7213 -2.6025  1.5781
  897MOL0     H23724  11.753  11.311   2.159  0.0597 -1.0620 -0.8291
  897MOL0     H23725  11.920  11.365   2.328  0.0672 -0.8507  0.3680
  897MOL0     H23726  12.000  11.217   2.305 -0.0036 -1.0859 -0.2359
  897MOL0     H23727  11.950  11.417   2.088 -1.2986 -0.1852  1.4295
  897MOL0     H23728  12.047  11.284   2.057 -0.3950  1.5984 -2.0547
  897MOL0     H23729  12.124  11.510   2.255 -0.8850  0.8068 -2.0415
  897MOL0     H23730  12.207  11.351   2.258  0.8778  1.9491  0.6495
  897MOL0     H23731  12.289  11.385   2.043  0.5780 -0.4703  2.3560
  897MOL0     H23732  12.330  11.530   2.132  0.1382  3.0354 -3.6150
  897MOL0     H23733  12.103  11.495   1.935  2.0214 -1.0398 -2.9281
  897MOL0     H23734  12.133  11.653   2.019 -2.6447 -1.2304  0.1379
  897MOL0     H23735  12.234  11.811   1.850  0.2315  0.6761 -0.6369
  897MOL0     H23736  12.595  11.822   1.790 -0.2556 -1.1847 -0.7090
  897MOL0     H23737  12.454  11.930   1.771  0.1780  0.2367  1.6290
  897MOL0     H23738  12.614  11.902   1.561  1.1491 -2.4630 -1.2097
  897MOL0     H23739  12.550  11.735   1.561 -1.0412  0.1837 -0.4813
  897MOL0     H23740  12.313  11.829   1.524 -1.0301  0.9657 -0.8131
  897MOL0     H23741  12.392  11.989   1.528  1.7586  0.0769  1.1015
  897MOL0     H23742  12.495  11.934   1.304  0.5565 -1.5201 -1.6585
  897MOL0     H23743  12.467  11.769   1.334  1.9423 -0.0341  3.0490
  897MOL0     H23744  12.341  12.118   1.349 -0.2164 -1.0653  1.4701
  897MOL0     H23745  12.262  12.352   1.371 -0.9872 -1.1045  1.6526
  897MOL0     H23746  12.104  12.353   1.457  1.4520  0.3864  0.6663
  897MOL0     H23747  12.116  12.400   1.286  0.8938  3.2494  1.5136
  897MOL0     H23748  11.589  12.182   1.122  3.1131 -0.4537 -0.7300
  897MOL0     H23749  11.374  12.323   1.078 -0.4348  1.6013 -0.4966
  897MOL0     H23750  11.465  12.770   1.011 -2.7122  1.3221  1.3375
  897MOL0     H23751  11.437  12.682   0.854  0.0367  1.6790 -0.3296
  897MOL0     H23752  11.195  12.680   0.961 -0.8961 -0.4706  2.5254
  897MOL0     H23753  11.252  12.779   1.080  2.2734  2.0059 -0.5140
  897MOL0     H23754  11.281  12.880   0.799 -0.0378  2.4042 -0.1411
  897MOL0     H23755  11.278  12.968   0.952 -0.9768  2.3135 -2.7937
  897MOL0     H23756  11.032  12.899   0.992  2.8062 -1.0215  2.4719
  897MOL0     H23757  11.041  12.813   0.842 -1.7073  1.6077  0.5610
  897MOL0     H23758  11.095  13.114   0.822 -3.9770  2.1085 -1.4456
  897MOL0     H23759  11.048  13.001   0.701  0.4156  2.4351 -0.4063
  897MOL0     H23760  10.908  13.098   0.958  1.6225  1.8430 -0.0563
  897MOL0     H23761  10.822  12.992   0.840 -3.3852  3.2372 -1.2360
  897MOL0     H23762  10.830  13.157   0.671 -1.0527  1.6613 -0.7299
  897MOL0     H23763  10.934  13.262   0.765  1.8745 -2.4653 -2.9944
  897MOL0     H23764  10.743  13.245   0.943 -3.1831  0.0336  1.6031
  897MOL0     H23765  10.651  13.163   0.813 -1.3706  0.1097  5.6617
  897MOL0     H23766  11.638  12.653   1.057 -2.7388  1.3187  1.9018
  897MOL0     H23767  11.826  12.508   1.115 -1.7545  2.4309 -0.3797
  897MOL0     H23768  11.905  11.998   1.147 -1.3885  1.9279  1.0902
  897MOL0     H23769  12.101  11.830   1.187  0.9977 -0.3377  2.6383
  897MOL0     H23770  11.476  11.272   1.978 -1.2154  0.0201  1.1732
  897MOL0     H23771  11.279  11.197   1.818 -1.8142  1.0265  0.1081
  897MOL0     H23772  10.860  11.322   1.799  1.9319 -0.7033  0.2831
  897MOL0     H23773  10.660  11.315   1.659  0.8918  0.0394  4.8530
  897MOL0     H23774  10.545  10.937   1.427 -0.8423  1.2635  0.2726
  897MOL0     H23775  10.527  10.939   1.602 -2.2199  1.4805  1.1763
  897MOL0     H23776  10.325  10.931   1.456  2.9282 -2.2903  2.7339
  897MOL0     H23777  10.338  11.104   1.444 -1.9868  0.8265  0.4333
  897MOL0     H23778  10.182  11.018   1.618  0.2270  1.8804 -0.0770
  897MOL0     H23779  10.312  10.934   1.691 -1.2765 -1.0804 -0.0459
  897MOL0     H23780  10.429  11.140   1.751  0.5603  2.0014 -0.5132
  897MOL0     H23781  10.249  11.162   1.802  0.6667  4.4431 -0.8069
  897MOL0     H23782  10.297  11.471   1.538  2.9607  0.0195 -1.0496
  897MOL0     H23783  10.782  10.921   1.515 -3.6290 -3.5122  2.6551
  897MOL0     H23784  10.959  10.814   1.592 -1.3548 -2.4945  1.2609
  897MOL0     H23785  11.079  10.876   1.713  0.7456  1.2304 -1.0654
  897MOL0     H23786  10.927  10.794   1.756 -0.8726 -2.2903 -1.6432
  898MOL0     O23787   7.807  11.408   5.560  0.5074 -0.0894  0.5747
  898MOL0     C23788   7.849  11.463   5.456  0.2086 -0.4488 -0.0894
  898MOL0     O23789   7.938  11.567   5.452 -0.2295  0.2934 -0.3015
  898MOL0     C23790   8.005  11.593   5.563  0.2243  0.1352  0.0109
  898MOL0     C23791   8.090  11.495   5.614  0.0402  0.7138  0.6233
  898MOL0     C23792   8.149  11.517   5.740 -0.2304  0.2669  0.9492
  898MOL0     C23793   8.145  11.633   5.808  0.2347 -0.6906 -0.4226
  898MOL0     O23794   8.228  11.653   5.915 -0.3214  0.3870  0.3353
  898MOL0     C23795   8.201  11.768   5.992 -0.0313  0.1282  0.0295
  898MOL0     C23796   8.269  11.738   6.131  0.0927  0.7097 -0.1883
  898MOL0     C23797   8.423  11.733   6.110 -0.0892  0.1170 -0.5143
  898MOL0     C23798   8.499  11.679   6.235 -0.1122  0.1374 -0.3796
  898MOL0     C23799   8.647  11.710   6.230  1.0830  0.2010  0.2574
  898MOL0     C23800   8.732  11.652   6.339 -0.1668 -0.2413  0.3104
  898MOL0     C23801   8.871  11.708   6.325 -0.3541 -0.4556 -0.6356
  898MOL0     C23802   8.972  11.655   6.423 -0.7641  0.1709  0.2416
  898MOL0     N23803   9.092  11.740   6.436 -0.0206 -0.2346 -0.8868
  898MOL0     C23804   9.101  11.875   6.457  0.3910  0.3017 -0.2732
  898MOL0     C23805   9.241  11.883   6.461  0.9394 -0.5178  0.2697
  898MOL0     C23806   9.304  12.022   6.479  0.5155  1.6106 -0.5038
  898MOL0     C23807   9.304  12.079   6.627 -0.0596  0.1395  0.3812
  898MOL0     C23808   9.394  11.994   6.725 -0.2268  0.0129 -0.0689
  898MOL0     C23809   9.543  12.008   6.714  0.3681 -0.3374 -0.0394
  898MOL0     O23810   9.577  12.147   6.751 -0.1132 -0.2232  0.1294
  898MOL0     C23811   9.698  12.169   6.805 -0.5361  0.4047 -0.2066
  898MOL0     C23812   9.703  12.299   6.858  0.4963 -0.7072 -0.2482
  898MOL0     C23813   9.820  12.363   6.903 -0.3133 -0.2898  0.7881
  898MOL0     C23814   9.795  12.508   6.946  0.4410  0.8999  0.2345
  898MOL0     C23815   9.942  12.292   6.899 -0.1894 -0.2864  0.5938
  898MOL0     C23816  10.079  12.354   6.913 -0.0679 -0.1259 -0.1234
  898MOL0     O23817  10.193  12.278   6.864 -0.3320 -0.7408  0.5437
  898MOL0     C23818  10.320  12.316   6.905 -0.4888  0.0598  0.0978
  898MOL0     C23819  10.427  12.323   6.818 -0.8201 -0.0905 -0.7960
  898MOL0     C23820  10.541  12.383   6.861 -0.0827  0.5476 -0.2134
  898MOL0     C23821  10.558  12.435   6.994  0.0152  0.1007  1.3240
  898MOL0     O23822  10.671  12.483   7.046  0.5165  0.3809 -0.6134
  898MOL0     C23823  10.778  12.500   6.961 -0.0613  0.0855 -0.0512
  898MOL0     C23824  10.880  12.601   7.025  0.6722  0.2111 -1.0053
  898MOL0     C23825  11.003  12.637   6.934 -0.6746 -0.3416 -0.5225
  898MOL0     C23826  11.106  12.731   7.012 -0.2926  0.3743 -0.5765
  898MOL0     C23827  11.232  12.734   6.933 -0.3998 -0.4587 -0.1883
  898MOL0     C23828  11.341  12.841   6.990  0.0608 -0.2254 -1.0768
  898MOL0     C23829  11.301  12.980   6.923  0.0072 -0.0117 -0.0270
  898MOL0     C23830  11.384  13.089   7.001  0.7093  0.2730  0.6213
  898MOL0    Cl23831  11.562  13.049   7.010 -0.1589 -0.1930 -0.0541
  898MOL0     C23832  10.458  12.419   7.092 -0.2137  0.2480  1.5657
  898MOL0     C23833  10.335  12.363   7.052  0.4754  0.9822  1.0495
  898MOL0     O23834  10.093  12.468   6.959 -0.0482 -0.2879 -0.2556
  898MOL0     C23835   9.928  12.154   6.851  0.5231 -0.2867 -0.7839
  898MOL0     C23836   9.811  12.096   6.801  0.9788  0.4840 -1.2060
  898MOL0     N23837   9.300  11.761   6.450 -0.5602  0.1495  0.9745
  898MOL0     N23838   9.211  11.671   6.435 -0.3930 -0.0199 -0.4051
  898MOL0     C23839   8.063  11.737   5.751  0.3820  0.2380  1.0211
  898MOL0     C23840   7.986  11.710   5.635 -0.5377 -1.6607  0.8654
  898MOL0     C23841   7.816  11.423   5.312 -0.5838 -0.0509  0.2861
  898MOL0     C23842   7.891  11.472   5.197 -0.2024 -0.1626 -0.2133
  898MOL0     C23843   7.870  11.437   5.066  0.3706 -0.7297  0.2404
  898MOL0     C23844   7.759  11.357   5.041 -0.3813  0.2027 -0.3126
  898MOL0     O23845   7.728  11.311   4.918  0.0790 -0.6089 -0.7876
  898MOL0     C23846   7.759  11.407   4.812 -0.0217  0.7318  0.2586
  898MOL0     C23847   7.683  11.341   4.692  1.3514 -0.2043 -0.1841
  898MOL0     C23848   7.708  11.190   4.665 -0.2208 -0.0417 -0.9262
  898MOL0     C23849   7.673  11.136   4.526 -0.6188  0.9695 -0.1684
  898MOL0     C23850   7.525  11.152   4.498  0.1195  1.3615  1.0185
  898MOL0     C23851   7.406  11.177   4.494  0.1228  0.2325  0.6863
  898MOL0     C23852   7.683  11.300   5.150 -0.4108 -0.1055 -0.1582
  898MOL0     C23853   7.710  11.327   5.285  0.5354  0.2905  0.8687
  898MOL0     C23854   7.604  11.283   5.384  0.4124  0.9795 -0.1719
  898MOL0     H23855   8.092  11.397   5.568 -0.8824 -0.6689  3.3008
  898MOL0     H23856   8.222  11.443   5.772  1.6158  2.0285  1.0579
  898MOL0     H23857   8.095  11.789   6.011 -0.5405 -3.4120  1.8869
  898MOL0     H23858   8.244  11.856   5.943  0.9647 -0.2165  0.2711
  898MOL0     H23859   8.246  11.825   6.193  0.6244  0.3370  0.5361
  898MOL0     H23860   8.223  11.645   6.167  0.8908 -0.9628 -3.1573
  898MOL0     H23861   8.448  11.670   6.024  1.9866 -1.5753  1.2432
  898MOL0     H23862   8.458  11.836   6.096  1.3858  0.0266  2.0596
  898MOL0     H23863   8.464  11.725   6.328  2.0983  1.5841 -0.1669
  898MOL0     H23864   8.491  11.572   6.251  0.1282 -0.1264 -1.8594
  898MOL0     H23865   8.645  11.819   6.243 -3.5405  0.4712 -0.9409
  898MOL0     H23866   8.686  11.697   6.129 -0.5662 -1.2143 -0.2508
  898MOL0     H23867   8.685  11.669   6.436 -1.0247 -0.1636 -0.1072
  898MOL0     H23868   8.734  11.543   6.328  2.1611 -0.2165 -0.1031
  898MOL0     H23869   8.869  11.818   6.327  0.8990 -0.4191 -0.5171
  898MOL0     H23870   8.908  11.690   6.223  3.1629  0.4473  0.3190
  898MOL0     H23871   8.936  11.648   6.526  1.2614 -4.0852  0.8317
  898MOL0     H23872   8.990  11.559   6.375  0.1322  1.0959 -1.3696
  898MOL0     H23873   9.025  11.952   6.464  0.9629  0.7021  2.9498
  898MOL0     H23874   9.255  12.084   6.404 -1.9233 -1.7469 -1.9701
  898MOL0     H23875   9.407  12.003   6.449 -0.5582  0.3420 -3.8949
  898MOL0     H23876   9.349  12.179   6.626 -0.2588  0.2390  1.0082
  898MOL0     H23877   9.204  12.083   6.670 -0.9098 -3.4691 -0.9492
  898MOL0     H23878   9.360  12.029   6.823  0.7402  1.4510 -0.2084
  898MOL0     H23879   9.361  11.890   6.719 -3.1634  0.9289 -2.3282
  898MOL0     H23880   9.579  11.927   6.778 -2.1443 -1.4626  0.0567
  898MOL0     H23881   9.577  11.995   6.611  1.0160 -2.0980  0.3626
  898MOL0     H23882   9.614  12.360   6.848  0.4074 -0.8282 -0.2037
  898MOL0     H23883   9.697  12.517   6.994 -0.6127 -0.6520 -1.4903
  898MOL0     H23884   9.790  12.571   6.856 -1.0849 -1.5524 -1.5296
  898MOL0     H23885   9.865  12.542   7.023 -1.1487  2.6146  1.0304
  898MOL0     H23886  10.426  12.285   6.716 -1.1674 -2.4716  0.0324
  898MOL0     H23887  10.614  12.392   6.781  0.7346 -2.4726  0.0597
  898MOL0     H23888  10.829  12.404   6.952 -2.2549 -1.4950  2.5888
  898MOL0     H23889  10.758  12.533   6.859  4.0204  1.2671 -0.6051
  898MOL0     H23890  10.829  12.695   7.045  0.0738 -0.5934  1.5651
  898MOL0     H23891  10.916  12.563   7.121 -1.7670  2.6449  1.0477
  898MOL0     H23892  10.977  12.686   6.840  1.0014 -0.6487 -1.1916
  898MOL0     H23893  11.056  12.544   6.909  0.2324 -0.3339  1.1912
  898MOL0     H23894  11.115  12.688   7.112  0.2139 -1.9216 -1.5402
  898MOL0     H23895  11.058  12.828   7.022 -1.9200 -0.4753  0.4090
  898MOL0     H23896  11.278  12.635   6.933  0.7199 -0.0153 -2.3507
  898MOL0     H23897  11.200  12.771   6.835 -1.6226  1.3426  0.8214
  898MOL0     H23898  11.446  12.812   6.991  0.6185  1.6617  0.6505
  898MOL0     H23899  11.322  12.851   7.097  2.5649 -1.5226 -0.4311
  898MOL0     H23900  11.193  12.993   6.937 -0.5643 -3.9189  0.5533
  898MOL0     H23901  11.329  12.964   6.819  0.7875  0.3363  0.1254
  898MOL0     H23902  11.341  13.109   7.100 -0.7553 -0.2692  0.1162
  898MOL0     H23903  11.355  13.176   6.942  1.1646 -1.4992 -2.4073
  898MOL0     H23904  10.465  12.461   7.192  0.5495  1.0927  1.1707
  898MOL0     H23905  10.252  12.358   7.123  0.4815 -3.3616  0.9905
  898MOL0     H23906  10.018  12.093   6.850 -0.1545 -1.9672  4.8209
  898MOL0     H23907   9.831  11.995   6.765  2.3569  0.1006  0.4510
  898MOL0     H23908   8.046  11.840   5.782 -2.5082 -0.7165  3.0310
  898MOL0     H23909   7.911  11.787   5.615  1.5604  0.9696  2.3863
  898MOL0     H23910   7.961  11.547   5.231 -0.9687 -0.0525  1.2090
  898MOL0     H23911   7.920  11.492   4.986 -2.4909  1.5784 -0.1239
  898MOL0     H23912   7.716  11.506   4.832 -4.8009 -0.9545 -0.5058
  898MOL0     H23913   7.863  11.398   4.779 -0.2579  0.4510 -0.4319
  898MOL0     H23914   7.711  11.403   4.606  3.8632 -0.6484  0.2406
  898MOL0     H23915   7.578  11.361   4.716  0.5965 -1.3185 -2.2835
  898MOL0     H23916   7.815  11.176   4.686 -0.6567 -1.6147  0.5309
  898MOL0     H23917   7.658  11.136   4.747  0.6814  2.0221  1.0847
  898MOL0     H23918   7.697  11.029   4.525 -0.6915  0.9350  0.5487
  898MOL0     H23919   7.728  11.186   4.447  0.2261  1.5854  0.7767
  898MOL0     H23920   7.309  11.221   4.486 -1.1255 -2.2684  0.8494
  898MOL0     H23921   7.600  11.234   5.127 -1.0199 -0.3886  2.5185
  898MOL0     H23922   7.512  11.255   5.330  0.7499  2.3700 -1.5424
  898MOL0     H23923   7.640  11.197   5.440 -2.5832 -0.7448 -0.6638
  898MOL0     H23924   7.567  11.360   5.452  1.0774  1.0202  0.1439
  899MOL0     O23925   7.951   1.774   1.366  0.2894  0.1048 -0.5231
  899MOL0     C23926   8.070   1.806   1.371 -0.7582  0.4940  0.2631
  899MOL0     O23927   8.158   1.748   1.455 -0.3952  0.0492  0.1010
  899MOL0     C23928   8.103   1.672   1.549  0.0028 -0.3795 -0.2705
  899MOL0     C23929   8.091   1.711   1.685  0.2297 -0.3828  0.0079
  899MOL0     C23930   8.053   1.627   1.788  0.4269  0.7429 -0.6142
  899MOL0     C23931   8.010   1.501   1.754  0.4508 -0.5020 -0.4033
  899MOL0     O23932   7.959   1.426   1.854  0.3014  0.1232 -0.4647
  899MOL0     C23933   7.932   1.287   1.829  0.2955 -0.2137 -0.3908
  899MOL0     C23934   7.887   1.199   1.951  0.2238 -0.0557  0.2478
  899MOL0     C23935   8.016   1.157   2.029 -0.2217  0.5859 -0.1837
  899MOL0     C23936   7.954   1.087   2.161 -0.5202 -0.0610 -0.0840
  899MOL0     C23937   8.063   1.039   2.258  0.3993 -0.1464 -0.8474
  899MOL0     C23938   8.164   1.135   2.309  0.8667  0.2875  0.4111
  899MOL0     C23939   8.241   1.083   2.433  0.9094  0.1291 -0.7295
  899MOL0     C23940   8.151   1.046   2.561 -0.2601 -0.4353 -0.3016
  899MOL0     N23941   8.228   1.004   2.676 -0.4436 -1.3039  0.3294
  899MOL0     C23942   8.295   1.081   2.769  0.1751  0.0430  0.2857
  899MOL0     C23943   8.374   0.999   2.830  0.6307  0.3834 -0.0165
  899MOL0     C23944   8.470   1.034   2.939  0.7831 -1.1936  0.6260
  899MOL0     C23945   8.616   1.082   2.910 -0.2510  0.8105  0.0204
  899MOL0     C23946   8.626   1.211   2.838 -0.1756 -0.5241  0.6013
  899MOL0     C23947   8.754   1.291   2.854 -0.7827  0.2752  0.0759
  899MOL0     O23948   8.853   1.231   2.769 -0.1628 -0.5781 -0.7990
  899MOL0     C23949   8.963   1.324   2.744  0.1920  0.3500 -0.1489
  899MOL0     C23950   9.047   1.303   2.627  0.5757 -0.4421  0.4455
  899MOL0     C23951   9.150   1.393   2.584 -0.3428 -0.3634  0.2082
  899MOL0     C23952   9.210   1.370   2.442  0.0827 -0.8546  0.0904
  899MOL0     C23953   9.175   1.503   2.670 -0.3881 -0.2916  0.1838
  899MOL0     C23954   9.276   1.605   2.642  0.3757 -0.5216 -0.6140
  899MOL0     O23955   9.354   1.643   2.752 -1.2192  0.0863 -0.0204
  899MOL0     C23956   9.447   1.742   2.742 -0.4426  0.1994  0.4050
  899MOL0     C23957   9.567   1.725   2.810 -0.1649 -0.6875  0.0984
  899MOL0     C23958   9.668   1.814   2.802 -0.1120  0.3669  0.0360
  899MOL0     C23959   9.662   1.929   2.732 -0.2757  0.0649 -0.3752
  899MOL0     O23960   9.765   2.008   2.716  0.1072  0.5250 -0.7969
  899MOL0     C23961   9.738   2.123   2.796  0.1717 -0.8625  0.5808
  899MOL0     C23962   9.862   2.225   2.811 -0.5742  0.2087  0.1028
  899MOL0     C23963   9.924   2.269   2.683  0.1305  0.5329 -0.3427
  899MOL0     C23964  10.078   2.304   2.704  0.3394 -0.2743  0.6210
  899MOL0     C23965  10.131   2.432   2.625  0.2413  0.2884 -0.7292
  899MOL0     C23966  10.078   2.563   2.686  0.8691 -0.3094 -0.2140
  899MOL0     C23967  10.113   2.683   2.598 -0.1661  0.1040  0.2063
  899MOL0     C23968  10.056   2.812   2.661  0.6983  0.3667 -0.2797
  899MOL0    Cl23969   9.873   2.797   2.659  0.4699 -0.3658 -0.1866
  899MOL0     C23970   9.542   1.941   2.653  0.0456 -0.0895 -0.3933
  899MOL0     C23971   9.430   1.851   2.666 -0.3428 -0.5542 -0.3182
  899MOL0     O23972   9.278   1.648   2.524  0.7890 -0.3233 -0.6818
  899MOL0     C23973   9.106   1.515   2.790 -0.4586 -0.6365  0.1371
  899MOL0     C23974   8.999   1.431   2.825  0.1326 -0.8252 -0.2378
  899MOL0     N23975   8.348   0.874   2.789 -0.5151  0.5435 -0.0415
  899MOL0     N23976   8.267   0.880   2.697  0.1084  0.0223 -1.1481
  899MOL0     C23977   8.026   1.453   1.625 -0.6402  0.6125  0.4499
  899MOL0     C23978   8.083   1.537   1.527  0.1257 -0.4571  0.1846
  899MOL0     C23979   8.123   1.899   1.264  0.1802  0.4276  0.2732
  899MOL0     C23980   8.267   1.930   1.278  0.7972  0.0203 -0.2007
  899MOL0     C23981   8.344   2.008   1.190  0.7462 -0.2445 -0.3465
  899MOL0     C23982   8.272   2.067   1.080  0.4511  0.4767 -0.9419
  899MOL0     O23983   8.329   2.145   0.987 -0.9128  0.4536 -0.7998
  899MOL0     C23984   8.465   2.193   1.001 -0.9153 -0.4064 -0.7807
  899MOL0     C23985   8.480   2.320   1.093  0.1436 -0.4529 -0.1420
  899MOL0     C23986   8.413   2.445   1.035  0.6795 -0.2729 -0.4014
  899MOL0     C23987   8.456   2.499   0.895  0.8834 -1.2124 -0.0484
  899MOL0     C23988   8.394   2.632   0.879 -0.2148 -0.6895 -0.1793
  899MOL0     C23989   8.348   2.747   0.893  0.1387 -0.0576  0.5433
  899MOL0     C23990   8.133   2.055   1.072 -0.2255  0.2988 -0.2640
  899MOL0     C23991   8.058   1.965   1.152 -0.3409  0.7428 -0.5553
  899MOL0     C23992   7.910   1.961   1.135  0.4754  0.1462  0.0435
  899MOL0     H23993   8.112   1.813   1.714 -2.1069  0.5443 -1.3639
  899MOL0     H23994   8.048   1.651   1.894 -1.8687 -3.2883  0.3900
  899MOL0     H23995   8.015   1.231   1.784 -1.3722 -1.6743 -1.8271
  899MOL0     H23996   7.859   1.294   1.748  1.2119  1.9041 -1.0845
  899MOL0     H23997   7.829   1.262   2.018  1.0128 -0.6937  1.5609
  899MOL0     H23998   7.824   1.115   1.919 -1.3448  1.7676 -1.7161
  899MOL0     H23999   8.092   1.096   1.980  3.9007  2.2718  3.4487
  899MOL0     H24000   8.065   1.249   2.063 -0.5659  0.4150  0.8197
  899MOL0     H24001   7.895   1.156   2.222  0.5323  0.0184  0.8889
  899MOL0     H24002   7.894   0.997   2.144  1.9467 -3.0368  4.8215
  899MOL0     H24003   8.126   0.969   2.203  0.1243 -0.0605 -1.2724
  899MOL0     H24004   8.014   0.990   2.343  2.1424 -0.0644  0.2679
  899MOL0     H24005   8.242   1.153   2.235 -0.0445  1.5844 -0.2685
  899MOL0     H24006   8.115   1.232   2.325 -1.0314 -0.7500  1.2983
  899MOL0     H24007   8.302   1.169   2.466  2.8225 -2.2125  2.4698
  899MOL0     H24008   8.301   0.993   2.422 -0.2161 -0.7920  0.4402
  899MOL0     H24009   8.089   1.128   2.599  0.0463 -0.7366  0.8979
  899MOL0     H24010   8.089   0.958   2.542  0.4475 -1.0949  0.3546
  899MOL0     H24011   8.285   1.187   2.791 -0.3908 -0.2051  1.2865
  899MOL0     H24012   8.478   0.940   2.995  2.4870 -1.8274 -0.5706
  899MOL0     H24013   8.416   1.112   2.993  1.1162 -1.7686  1.8345
  899MOL0     H24014   8.664   1.089   3.007  2.5039 -3.5598 -0.7788
  899MOL0     H24015   8.664   1.006   2.848 -1.4695 -0.2823  0.3620
  899MOL0     H24016   8.615   1.183   2.733  0.8508  2.4557 -0.4050
  899MOL0     H24017   8.538   1.266   2.873 -0.4054  0.3558 -1.2450
  899MOL0     H24018   8.735   1.391   2.814  0.3245  0.3993 -0.1811
  899MOL0     H24019   8.787   1.294   2.958  1.0598 -0.6717 -0.4285
  899MOL0     H24020   9.017   1.222   2.562  0.9870 -1.0890  1.0387
  899MOL0     H24021   9.162   1.435   2.369  0.2020  0.6259  1.2839
  899MOL0     H24022   9.206   1.265   2.410 -1.2895 -0.3446 -1.5311
  899MOL0     H24023   9.318   1.390   2.435 -0.4024  1.7187 -0.8836
  899MOL0     H24024   9.587   1.628   2.853 -4.1452 -1.5139  0.5326
  899MOL0     H24025   9.758   1.779   2.851 -1.4445 -2.9418  0.4167
  899MOL0     H24026   9.660   2.177   2.743 -1.1814 -1.4337  1.9289
  899MOL0     H24027   9.704   2.100   2.898 -1.4026 -1.0600  0.0328
  899MOL0     H24028   9.834   2.310   2.875  0.3417  0.8571 -0.3316
  899MOL0     H24029   9.943   2.175   2.865  0.3193 -1.3330 -2.5280
  899MOL0     H24030   9.867   2.354   2.645 -0.9630 -0.3702 -0.7437
  899MOL0     H24031   9.912   2.198   2.601 -2.7731  3.8101 -3.0351
  899MOL0     H24032  10.141   2.216   2.683  3.0177  2.0451 -2.0307
  899MOL0     H24033  10.097   2.330   2.808 -3.3709  0.4551  1.2520
  899MOL0     H24034  10.240   2.430   2.631  0.2992  0.6770 -1.5263
  899MOL0     H24035  10.102   2.420   2.520 -5.4777 -0.9670  0.6653
  899MOL0     H24036  10.103   2.579   2.792 -4.7004  1.1210  1.2015
  899MOL0     H24037   9.969   2.556   2.690  0.8882 -2.0190 -1.5247
  899MOL0     H24038  10.069   2.679   2.498  0.8956 -1.4107 -0.2373
  899MOL0     H24039  10.221   2.673   2.590 -0.1433 -0.8988  1.4798
  899MOL0     H24040  10.076   2.900   2.599 -0.9423 -0.3447 -1.9021
  899MOL0     H24041  10.089   2.835   2.763 -1.2420 -2.6861  1.1709
  899MOL0     H24042   9.541   2.015   2.574 -0.6440  0.8037  0.4247
  899MOL0     H24043   9.327   1.867   2.637 -1.5812 -0.5648  3.5176
  899MOL0     H24044   9.133   1.608   2.838  0.0811 -0.8787  0.3024
  899MOL0     H24045   8.940   1.463   2.910  1.1050 -1.6394  0.7729
  899MOL0     H24046   8.001   1.349   1.605 -0.1973  0.1907  1.9566
  899MOL0     H24047   8.097   1.524   1.421  1.1282  3.5663 -0.3613
  899MOL0     H24048   8.313   1.896   1.370  1.3366 -2.2090 -1.2323
  899MOL0     H24049   8.451   2.017   1.211  0.1563  1.0248  2.7144
  899MOL0     H24050   8.535   2.115   1.034 -0.0319  0.1398 -1.3027
  899MOL0     H24051   8.504   2.216   0.901 -1.7778 -1.0490 -1.2820
  899MOL0     H24052   8.586   2.344   1.105  0.2916 -1.5395  0.9716
  899MOL0     H24053   8.440   2.277   1.186  0.1625 -0.6907 -0.2432
  899MOL0     H24054   8.305   2.428   1.029  0.0727  2.5381  0.9289
  899MOL0     H24055   8.415   2.510   1.123 -0.8067 -0.5818 -0.0979
  899MOL0     H24056   8.404   2.444   0.816 -1.8271  1.0466 -0.0215
  899MOL0     H24057   8.565   2.494   0.889  1.0095 -0.5538  1.2084
  899MOL0     H24058   8.305   2.844   0.883 -0.9687 -0.6618 -1.1215
  899MOL0     H24059   8.089   2.108   0.988  2.4491 -0.7487 -2.4634
  899MOL0     H24060   7.854   2.003   1.220  0.6787  1.6975 -0.5670
  899MOL0     H24061   7.883   2.012   1.043  3.6501  1.7662 -0.1355
  899MOL0     H24062   7.867   1.861   1.126 -0.8906  0.5526  1.5115
  900MOL0     O24063   5.099   2.613   8.738  0.4087  0.3312 -0.1869
  900MOL0     C24064   5.137   2.731   8.712 -0.1078 -0.9239  0.0734
  900MOL0     O24065   5.252   2.801   8.754  0.5448 -0.4052 -0.3320
  900MOL0     C24066   5.349   2.735   8.823  0.2873  0.6401 -0.2582
  900MOL0     C24067   5.305   2.679   8.948 -0.6671  0.0035  0.3178
  900MOL0     C24068   5.403   2.631   9.039 -0.3435  0.8114  0.6270
  900MOL0     C24069   5.539   2.631   8.995  1.0474 -0.5202  0.1232
  900MOL0     O24070   5.629   2.581   9.085 -0.3421  0.0046 -0.4433
  900MOL0     C24071   5.719   2.485   9.023 -0.2328 -0.2343  0.3345
  900MOL0     C24072   5.787   2.420   9.142 -0.8893 -0.0607 -0.3143
  900MOL0     C24073   5.909   2.509   9.189 -0.1674  0.8316 -0.0525
  900MOL0     C24074   6.037   2.496   9.110  0.2513  0.4264 -0.3486
  900MOL0     C24075   6.147   2.572   9.187  0.8960 -0.4349  0.6496
  900MOL0     C24076   6.257   2.620   9.083 -0.3734  0.3081 -0.3336
  900MOL0     C24077   6.399   2.649   9.142  0.0692 -0.2148 -0.8843
  900MOL0     C24078   6.511   2.682   9.041 -0.2350  0.0885 -0.2188
  900MOL0     N24079   6.478   2.789   8.950  0.0556  0.4155 -0.1185
  900MOL0     C24080   6.454   2.920   8.971  0.1210  0.3565 -0.6013
  900MOL0     C24081   6.419   2.973   8.846  0.2841 -0.1982 -0.8791
  900MOL0     C24082   6.391   3.120   8.818 -0.0222 -0.6836 -0.9776
  900MOL0     C24083   6.513   3.205   8.873 -0.7554 -0.1375 -0.7919
  900MOL0     C24084   6.471   3.345   8.847 -0.1582  0.2400  1.6331
  900MOL0     C24085   6.576   3.448   8.890  0.3897  0.5193 -0.5155
  900MOL0     O24086   6.678   3.437   8.800 -0.4786  0.2580 -0.6716
  900MOL0     C24087   6.803   3.481   8.836 -0.1266 -0.2622 -0.2792
  900MOL0     C24088   6.829   3.571   8.937  0.1984 -1.2019 -0.2229
  900MOL0     C24089   6.966   3.611   8.966 -0.4122 -0.1666  0.1123
  900MOL0     C24090   6.985   3.735   9.054 -0.2511  0.1627  0.4978
  900MOL0     C24091   7.069   3.552   8.892 -0.0551 -0.6398 -0.1145
  900MOL0     C24092   7.221   3.579   8.913 -0.7144  0.2610 -0.2167
  900MOL0     O24093   7.260   3.637   9.034 -0.0963 -1.0107  0.6173
  900MOL0     C24094   7.393   3.643   9.070  1.0216 -0.5654  0.7038
  900MOL0     C24095   7.493   3.728   9.012  0.1244  0.4335 -0.4787
  900MOL0     C24096   7.626   3.698   9.033  0.0405  0.8179  0.6054
  900MOL0     C24097   7.667   3.594   9.120  0.0925 -0.1719 -0.5319
  900MOL0     O24098   7.807   3.587   9.133  0.0047  0.0181  0.9204
  900MOL0     C24099   7.852   3.455   9.132  1.1144  0.5389  0.6254
  900MOL0     C24100   8.005   3.440   9.142  0.1726  0.2016  0.8486
  900MOL0     C24101   8.051   3.530   9.261  0.3834  0.6393  0.2737
  900MOL0     C24102   8.207   3.512   9.291  0.6370 -0.6400 -1.0029
  900MOL0     C24103   8.252   3.382   9.358  1.1035 -0.4937  0.5144
  900MOL0     C24104   8.154   3.330   9.469  0.4122  0.0829  0.2837
  900MOL0     C24105   8.175   3.180   9.502 -0.2214 -0.1408  0.6814
  900MOL0     C24106   8.136   3.159   9.656 -0.2603 -1.1889  0.2607
  900MOL0    Cl24107   8.269   3.070   9.742  0.2694 -0.0114  0.2516
  900MOL0     C24108   7.568   3.515   9.182  1.0503  0.8212  0.6249
  900MOL0     C24109   7.430   3.545   9.160 -0.0492 -0.1010  0.1982
  900MOL0     O24110   7.300   3.553   8.821  0.8294 -0.2261 -0.4082
  900MOL0     C24111   7.040   3.452   8.796  0.1902  0.6030  1.1167
  900MOL0     C24112   6.909   3.420   8.764  0.1206 -0.3986 -0.5298
  900MOL0     N24113   6.411   2.862   8.760 -0.2773 -0.2727  0.4489
  900MOL0     N24114   6.458   2.763   8.822 -0.6063 -0.1468  1.1052
  900MOL0     C24115   5.574   2.696   8.872  0.1996  0.1940 -0.4570
  900MOL0     C24116   5.480   2.746   8.795  0.3160  0.6229 -0.3312
  900MOL0     C24117   5.067   2.812   8.613 -0.4662  0.2286  0.6843
  900MOL0     C24118   5.142   2.893   8.518 -0.2324 -0.3588 -0.7368
  900MOL0     C24119   5.071   2.970   8.424 -0.3728  0.1333  0.1109
  900MOL0     C24120   4.929   2.966   8.416 -0.1078 -0.0119 -0.6336
  900MOL0     O24121   4.849   3.034   8.324 -0.3586 -0.3372 -0.1748
  900MOL0     C24122   4.907   3.145   8.253 -0.0682  0.2905  0.0583
  900MOL0     C24123   4.801   3.235   8.186 -0.0264 -0.1380 -0.3504
  900MOL0     C24124   4.688   3.274   8.282 -0.0742 -0.4075 -0.1727
  900MOL0     C24125   4.612   3.401   8.240  0.6282 -0.0960  0.6473
  900MOL0     C24126   4.518   3.436   8.344 -0.1713  0.4021 -0.1122
  900MOL0     C24127   4.439   3.461   8.437 -1.4336 -0.6955  0.2047
  900MOL0     C24128   4.859   2.884   8.505  0.3488  0.6685  0.3402
  900MOL0     C24129   4.924   2.808   8.601 -0.0630 -0.7004  1.1921
  900MOL0     C24130   4.828   2.734   8.702  0.7239  0.1213  0.3911
  900MOL0     H24131   5.201   2.678   8.980 -0.7856  2.2814  0.1938
  900MOL0     H24132   5.376   2.583   9.132  2.4506 -2.6634 -0.1668
  900MOL0     H24133   5.788   2.527   8.950 -3.9273  0.1009 -3.3716
  900MOL0     H24134   5.658   2.415   8.964 -3.3996  1.2593  1.6006
  900MOL0     H24135   5.722   2.417   9.229 -2.4348 -2.9211 -1.4283
  900MOL0     H24136   5.818   2.316   9.124 -0.5189 -0.2891  1.4836
  900MOL0     H24137   5.869   2.610   9.184 -0.3325  0.7222 -1.1301
  900MOL0     H24138   5.942   2.482   9.290 -0.4976 -0.3821 -0.2493
  900MOL0     H24139   6.073   2.394   9.100 -0.3226  0.0387  1.1887
  900MOL0     H24140   6.016   2.550   9.017  0.8996  0.8454 -0.2626
  900MOL0     H24141   6.180   2.513   9.273  1.2424 -0.4311  0.5188
  900MOL0     H24142   6.102   2.662   9.232 -1.5152 -0.9451 -0.5678
  900MOL0     H24143   6.265   2.545   9.003 -1.9195  2.8217 -3.0548
  900MOL0     H24144   6.216   2.711   9.039  1.0450 -0.2322 -3.0198
  900MOL0     H24145   6.434   2.557   9.189 -0.1711  0.4355  0.6375
  900MOL0     H24146   6.396   2.725   9.222  2.2357  0.6706 -1.5681
  900MOL0     H24147   6.592   2.727   9.100 -0.5524  1.6537 -0.9360
  900MOL0     H24148   6.556   2.592   8.999  2.2432 -0.5520  3.3338
  900MOL0     H24149   6.458   2.969   9.068  4.0159  1.0974 -0.9438
  900MOL0     H24150   6.297   3.137   8.870  0.0835 -0.2293 -0.9321
  900MOL0     H24151   6.376   3.130   8.710  0.6669  1.1387 -0.9346
  900MOL0     H24152   6.520   3.183   8.980 -2.5803  0.5403 -0.4922
  900MOL0     H24153   6.613   3.183   8.835 -0.6664  0.2121 -0.7644
  900MOL0     H24154   6.461   3.356   8.738  4.3517  0.9680  1.1022
  900MOL0     H24155   6.372   3.367   8.888 -1.2665  3.2457 -2.1422
  900MOL0     H24156   6.549   3.553   8.897 -0.4583  0.1844  4.4686
  900MOL0     H24157   6.602   3.422   8.993  3.0934 -0.7017 -1.4210
  900MOL0     H24158   6.747   3.613   8.995 -0.8020 -2.0667 -0.9847
  900MOL0     H24159   7.042   3.818   9.012 -2.0022  2.1553  1.8205
  900MOL0     H24160   7.025   3.709   9.152  1.6571  1.6991  0.1932
  900MOL0     H24161   6.889   3.775   9.089  0.3641  1.2018  1.0520
  900MOL0     H24162   7.458   3.810   8.950 -0.9086  1.6696  1.6332
  900MOL0     H24163   7.709   3.755   8.992  0.2376  1.3956  1.7807
  900MOL0     H24164   7.808   3.397   9.214 -0.7621  0.6027 -0.2708
  900MOL0     H24165   7.828   3.407   9.037 -0.6849  1.0611  0.7861
  900MOL0     H24166   8.031   3.334   9.144 -1.5066 -0.2353  2.0652
  900MOL0     H24167   8.053   3.492   9.059 -2.0590  1.0912  0.0386
  900MOL0     H24168   7.988   3.505   9.346 -0.6045 -1.3865 -0.9673
  900MOL0     H24169   8.035   3.633   9.227 -2.9099 -0.1335 -0.8991
  900MOL0     H24170   8.235   3.599   9.351  0.0201 -1.3357  0.3677
  900MOL0     H24171   8.262   3.524   9.198 -2.0212 -0.0921 -2.6013
  900MOL0     H24172   8.252   3.311   9.275 -0.1266  0.1490 -0.0478
  900MOL0     H24173   8.348   3.399   9.408 -0.2825  1.7162  2.6480
  900MOL0     H24174   8.050   3.335   9.436  0.1916  2.0143  1.1456
  900MOL0     H24175   8.169   3.397   9.553 -0.0612 -0.3933  0.7550
  900MOL0     H24176   8.280   3.153   9.484  0.3534  2.7789 -0.9145
  900MOL0     H24177   8.116   3.112   9.440  1.9546 -0.1901 -1.4682
  900MOL0     H24178   8.044   3.100   9.651 -0.4268 -0.8799 -0.4894
  900MOL0     H24179   8.121   3.256   9.704 -1.8303 -0.4035 -1.6983
  900MOL0     H24180   7.591   3.434   9.250 -0.4874 -0.0271  0.1955
  900MOL0     H24181   7.358   3.482   9.211  1.1974 -0.7615  1.2244
  900MOL0     H24182   7.119   3.419   8.730 -2.3298 -3.4722 -0.1814
  900MOL0     H24183   6.899   3.345   8.686  0.0935 -1.8207  0.7995
  900MOL0     H24184   5.679   2.698   8.844  0.0103 -0.7872 -1.2921
  900MOL0     H24185   5.512   2.801   8.707  3.3239 -0.2940  0.0694
  900MOL0     H24186   5.248   2.910   8.531 -0.0543 -0.6775 -1.7013
  900MOL0     H24187   5.120   3.048   8.366 -0.1978 -0.7248 -0.9347
  900MOL0     H24188   4.959   3.209   8.325 -0.2077 -0.2414  0.6433
  900MOL0     H24189   4.986   3.105   8.188  0.1773  2.0476 -0.7842
  900MOL0     H24190   4.761   3.176   8.103  0.9427  0.3459 -1.1744
  900MOL0     H24191   4.844   3.319   8.131  2.3260  0.0073  1.5421
  900MOL0     H24192   4.621   3.188   8.294 -0.4586  0.1809  2.5893
  900MOL0     H24193   4.722   3.285   8.385  1.3787  0.7733 -0.7408
  900MOL0     H24194   4.561   3.383   8.146 -0.0601  1.4042  0.7089
  900MOL0     H24195   4.677   3.487   8.222 -1.8486  1.9396  0.8568
  900MOL0     H24196   4.371   3.468   8.519  1.5845  1.5054  2.7570
  900MOL0     H24197   4.751   2.879   8.512  0.1481 -0.2646 -2.3710
  900MOL0     H24198   4.819   2.629   8.672 -2.6289  0.2052  0.7514
  900MOL0     H24199   4.869   2.744   8.803  2.0072 -1.0665  0.0156
  900MOL0     H24200   4.726   2.773   8.695  0.5426 -0.3019  0.6568
  901MOL0     O24201   5.885  10.381   0.671 -0.6347 -0.2116 -0.0614
  901MOL0     C24202   5.826  10.434   0.574 -0.0484  0.3363  0.8695
  901MOL0     O24203   5.885  10.472   0.457  0.9845 -0.2815  0.1092
  901MOL0     C24204   6.007  10.437   0.426  1.6593  0.5411  0.4879
  901MOL0     C24205   6.043  10.308   0.399  0.5749  0.5016  0.6545
  901MOL0     C24206   6.173  10.281   0.359 -0.0378  0.3533 -0.2867
  901MOL0     C24207   6.270  10.381   0.348  0.2945 -0.3056 -0.1637
  901MOL0     O24208   6.392  10.345   0.305  0.2183 -0.0680  0.1021
  901MOL0     C24209   6.499  10.439   0.345  0.7244  0.0359 -0.2801
  901MOL0     C24210   6.632  10.366   0.348  0.3050  0.7711 -0.7278
  901MOL0     C24211   6.660  10.271   0.233  0.1911 -0.4443 -0.8649
  901MOL0     C24212   6.783  10.181   0.269  0.1141  0.5232  0.4932
  901MOL0     C24213   6.802  10.077   0.167 -0.5873  0.0248  0.8537
  901MOL0     C24214   6.932   9.997   0.179 -0.2333 -0.3390  0.1871
  901MOL0     C24215   7.071  10.086   0.184  1.0443 -0.2707  0.6134
  901MOL0     C24216   7.195  10.011   0.138  0.0448  0.2947 -0.5952
  901MOL0     N24217   7.225   9.892   0.220  0.0790 -0.4085  0.5675
  901MOL0     C24218   7.167   9.772   0.216  1.1235  0.5153 -0.5286
  901MOL0     C24219   7.228   9.697   0.314 -0.1403 -0.2823  0.1500
  901MOL0     C24220   7.228   9.551   0.339 -0.7686  0.5500  1.0159
  901MOL0     C24221   7.088   9.495   0.371  0.1649  0.4590  0.4141
  901MOL0     C24222   7.080   9.343   0.369 -0.7237  0.6620 -0.6482
  901MOL0     C24223   6.958   9.286   0.445  0.8517  1.1421 -0.7783
  901MOL0     O24224   6.833   9.326   0.391 -0.4360  0.6394  1.0319
  901MOL0     C24225   6.751   9.221   0.359 -0.7799  0.7801 -0.2309
  901MOL0     C24226   6.712   9.141   0.464 -0.3289  0.4188 -0.7639
  901MOL0     C24227   6.617   9.042   0.461  0.3957 -0.3521 -0.2063
  901MOL0     C24228   6.594   8.966   0.587  0.3478  0.0316 -0.5946
  901MOL0     C24229   6.559   9.020   0.327  0.5936 -0.1907  0.4255
  901MOL0     C24230   6.473   8.902   0.301 -0.5241  0.1528 -0.2218
  901MOL0     O24231   6.434   8.887   0.168  0.3411  0.1506  0.0341
  901MOL0     C24232   6.361   8.789   0.102  0.3332  0.3888 -0.0217
  901MOL0     C24233   6.305   8.674   0.160 -0.4860 -0.4011 -0.8880
  901MOL0     C24234   6.242   8.582   0.075 -0.0780 -0.3927 -0.5510
  901MOL0     C24235   6.238   8.591  -0.063  0.2792  0.3590  0.2606
  901MOL0     O24236   6.198   8.483  -0.137 -0.1331  0.4071  1.0670
  901MOL0     C24237   6.106   8.503  -0.247  0.6152  0.2966 -0.4284
  901MOL0     C24238   5.996   8.397  -0.243  0.5451 -1.0219  0.7305
  901MOL0     C24239   5.896   8.412  -0.138  0.5618  0.8095 -0.2561
  901MOL0     C24240   5.815   8.283  -0.137 -0.3803  0.8614 -0.3576
  901MOL0     C24241   5.699   8.286  -0.042  0.0133  0.4051 -0.4907
  901MOL0     C24242   5.587   8.185  -0.072 -0.2758  0.6922 -0.4135
  901MOL0     C24243   5.490   8.169   0.048 -0.3754 -0.1820 -0.4344
  901MOL0     C24244   5.366   8.243   0.018  1.2390  0.2141 -0.1765
  901MOL0    Cl24245   5.260   8.239   0.152  0.1802  0.0736 -0.1759
  901MOL0     C24246   6.284   8.710  -0.124  0.5883  0.1311  0.6566
  901MOL0     C24247   6.347   8.805  -0.042 -0.0240  0.6468 -0.3644
  901MOL0     O24248   6.444   8.826   0.395  0.4208  0.2260  0.2837
  901MOL0     C24249   6.593   9.104   0.216  0.3163 -0.5175 -0.1091
  901MOL0     C24250   6.681   9.210   0.234  0.4191 -0.4418 -0.0027
  901MOL0     N24251   7.329   9.775   0.368 -0.6540  0.1335  0.4276
  901MOL0     N24252   7.322   9.891   0.313  0.3818  0.4710  0.0598
  901MOL0     C24253   6.233  10.515   0.384  0.3499 -0.0147  0.0935
  901MOL0     C24254   6.097  10.539   0.410 -0.3161  0.4750 -0.2510
  901MOL0     C24255   5.685  10.445   0.579  0.5820 -0.4820  0.0510
  901MOL0     C24256   5.609  10.416   0.462 -0.8859  0.4015  0.5351
  901MOL0     C24257   5.470  10.426   0.467  0.9472 -0.4230 -0.1726
  901MOL0     C24258   5.403  10.464   0.588  0.3408  0.7306  0.3138
  901MOL0     O24259   5.267  10.479   0.600  0.4063 -0.3906  0.3700
  901MOL0     C24260   5.189  10.424   0.487  0.2850  0.2948  1.4236
  901MOL0     C24261   5.040  10.447   0.532 -0.5016  0.5675  0.2093
  901MOL0     C24262   4.927  10.414   0.431  0.4848 -0.1277  0.1554
  901MOL0     C24263   4.924  10.519   0.325 -0.2020 -0.5357  0.2544
  901MOL0     C24264   4.829  10.483   0.217  0.4596  1.1839 -0.3852
  901MOL0     C24265   4.771  10.444   0.114  0.2038  0.2893  0.1636
  901MOL0     C24266   5.477  10.496   0.704  0.7460  0.9595 -0.3113
  901MOL0     C24267   5.616  10.485   0.701 -0.1998 -0.2438 -0.2086
  901MOL0     C24268   5.698  10.528   0.821  0.3409  0.7163 -0.2320
  901MOL0     H24269   5.971  10.228   0.413  1.9202 -0.8280  0.2286
  901MOL0     H24270   6.198  10.181   0.326  2.2972 -0.8115  4.1923
  901MOL0     H24271   6.482  10.489   0.441  1.4477 -1.8192  0.8543
  901MOL0     H24272   6.518  10.526   0.281 -1.1455  0.6917 -0.0173
  901MOL0     H24273   6.713  10.439   0.341  1.9121 -0.9783 -1.3100
  901MOL0     H24274   6.646  10.310   0.441 -0.4574 -0.1499 -1.1431
  901MOL0     H24275   6.578  10.201   0.219 -0.3498  0.1239 -0.6207
  901MOL0     H24276   6.688  10.336   0.149 -1.0975  2.1746  0.5824
  901MOL0     H24277   6.871  10.247   0.276 -1.1200  2.2239  0.6154
  901MOL0     H24278   6.763  10.119   0.357 -0.1984 -0.1733 -0.0670
  901MOL0     H24279   6.805  10.133   0.074 -0.7057 -2.0724 -0.4871
  901MOL0     H24280   6.707  10.023   0.165 -2.4726  3.1013 -1.2661
  901MOL0     H24281   6.937   9.930   0.266  2.4885 -4.0369 -2.5248
  901MOL0     H24282   6.941   9.928   0.095 -3.1487 -1.0416  0.3374
  901MOL0     H24283   7.086  10.118   0.288 -1.1097 -0.4136  1.0253
  901MOL0     H24284   7.052  10.169   0.116  2.5704 -2.4634 -2.7328
  901MOL0     H24285   7.198   9.999   0.029  1.0552  1.7170 -0.7409
  901MOL0     H24286   7.272  10.081   0.168 -1.9762  2.4735 -0.2052
  901MOL0     H24287   7.098   9.739   0.139 -0.0923  0.2481  0.6270
  901MOL0     H24288   7.298   9.533   0.421  2.9406  2.1531 -1.4880
  901MOL0     H24289   7.270   9.498   0.253 -1.3282  1.6400  0.0473
  901MOL0     H24290   7.048   9.540   0.463 -0.9216 -0.3858  0.3689
  901MOL0     H24291   7.009   9.524   0.301 -0.5655 -2.6882 -0.2278
  901MOL0     H24292   7.054   9.300   0.272 -1.8439  2.2803 -1.1021
  901MOL0     H24293   7.171   9.308   0.418 -0.3023  2.7417  0.1326
  901MOL0     H24294   6.973   9.179   0.466 -1.9721  0.2077 -2.7578
  901MOL0     H24295   6.968   9.334   0.542  1.2540  1.2226 -0.8591
  901MOL0     H24296   6.763   9.167   0.556  2.1225 -0.4648 -1.7679
  901MOL0     H24297   6.643   8.868   0.584  1.3585  0.4910  0.0376
  901MOL0     H24298   6.489   8.944   0.606  0.1021 -0.2846 -2.2412
  901MOL0     H24299   6.629   9.015   0.679 -3.4417  1.5408  0.2248
  901MOL0     H24300   6.299   8.657   0.267 -1.6257  1.2860 -0.6367
  901MOL0     H24301   6.197   8.501   0.132 -0.8013 -1.7864 -2.9553
  901MOL0     H24302   6.060   8.601  -0.232  0.0528 -0.4231  3.5800
  901MOL0     H24303   6.172   8.504  -0.335  0.7094  1.8827 -0.3817
  901MOL0     H24304   5.951   8.397  -0.343 -1.2426  0.7043  1.4679
  901MOL0     H24305   6.048   8.302  -0.223  2.1527 -0.4455 -0.4768
  901MOL0     H24306   5.822   8.492  -0.148 -1.6215 -0.7125  2.2552
  901MOL0     H24307   5.947   8.429  -0.043 -0.0898  2.1056 -0.1128
  901MOL0     H24308   5.874   8.193  -0.115 -0.4562 -0.0232 -3.2892
  901MOL0     H24309   5.791   8.253  -0.240  0.9332 -0.7936 -0.2320
  901MOL0     H24310   5.737   8.258   0.057 -2.5725 -2.0360 -0.0678
  901MOL0     H24311   5.658   8.387  -0.030 -1.6913  0.0981 -3.0296
  901MOL0     H24312   5.636   8.091  -0.098 -0.2908  1.2992 -2.9276
  901MOL0     H24313   5.545   8.215  -0.168 -0.1545  1.5971 -0.1998
  901MOL0     H24314   5.534   8.205   0.141 -0.6767 -2.2279  0.5665
  901MOL0     H24315   5.464   8.065   0.069 -1.4413 -0.2113 -1.7958
  901MOL0     H24316   5.319   8.193  -0.067 -1.9100 -1.9645  2.5831
  901MOL0     H24317   5.379   8.351   0.001  0.1517  0.2438 -0.8618
  901MOL0     H24318   6.273   8.728  -0.231  0.1018  0.3317  0.7364
  901MOL0     H24319   6.381   8.895  -0.093 -2.5755  2.5467  1.0403
  901MOL0     H24320   6.539   9.100   0.122  0.3905  0.2480 -0.1869
  901MOL0     H24321   6.701   9.268   0.144 -1.9637  0.5077  0.0180
  901MOL0     H24322   6.306  10.596   0.379  1.4177 -0.9862 -0.4136
  901MOL0     H24323   6.055  10.639   0.422 -4.8176 -1.4894  4.1400
  901MOL0     H24324   5.662  10.384   0.373  0.0899  0.7497  0.9756
  901MOL0     H24325   5.434  10.387   0.372 -1.4877 -0.8557  0.8472
  901MOL0     H24326   5.210  10.484   0.398 -1.0022 -0.2952  0.7001
  901MOL0     H24327   5.215  10.320   0.467  1.6297  0.7381  0.7026
  901MOL0     H24328   5.022  10.553   0.551  0.4603  1.0248 -1.2368
  901MOL0     H24329   5.025  10.392   0.625 -0.2685 -0.5911 -0.4125
  901MOL0     H24330   4.965  10.321   0.387  1.5148  0.1429  0.4524
  901MOL0     H24331   4.826  10.407   0.474  0.8490  2.9719  1.7691
  901MOL0     H24332   5.021  10.530   0.275 -2.0304  0.4267 -3.4302
  901MOL0     H24333   4.884  10.612   0.366 -0.5797  0.5466 -2.3625
  901MOL0     H24334   4.744  10.386   0.028  0.3689  1.8489 -1.0043
  901MOL0     H24335   5.435  10.528   0.798  1.2108  0.9103 -0.0844
  901MOL0     H24336   5.782  10.590   0.789  0.1759  0.4398 -1.2388
  901MOL0     H24337   5.629  10.583   0.885  1.6921  3.8587 -1.2609
  901MOL0     H24338   5.751  10.444   0.868  0.6418  0.6370 -0.6937
  902MOL0     O24339   4.026   6.469   5.936 -0.4056  0.2126  0.0554
  902MOL0     C24340   3.947   6.549   5.987  0.2591  0.0523 -0.0103
  902MOL0     O24341   3.946   6.679   5.974 -0.6115 -0.3862 -0.3997
  902MOL0     C24342   4.044   6.760   5.911  0.0247  0.1331 -0.7554
  902MOL0     C24343   4.118   6.708   5.804  0.1021 -0.8418 -0.1623
  902MOL0     C24344   4.200   6.805   5.734  0.7835  0.1478 -0.1372
  902MOL0     C24345   4.217   6.940   5.779  0.2197  1.6404  1.4041
  902MOL0     O24346   4.277   7.018   5.680 -0.6629 -0.4517 -0.6043
  902MOL0     C24347   4.234   7.151   5.661  0.1499 -0.6627 -0.7256
  902MOL0     C24348   4.089   7.157   5.604 -0.7875  0.2951 -0.7283
  902MOL0     C24349   4.071   7.090   5.466  0.0293  0.3508  0.3350
  902MOL0     C24350   4.132   7.180   5.356  0.4249 -0.0668 -0.2505
  902MOL0     C24351   4.102   7.146   5.217 -1.0518 -0.0981 -0.0104
  902MOL0     C24352   4.158   7.011   5.187 -0.2508  0.7280  0.2655
  902MOL0     C24353   4.307   6.994   5.232 -0.3695  0.1989 -0.9539
  902MOL0     C24354   4.378   6.870   5.184  0.1373  0.6474 -0.4317
  902MOL0     N24355   4.516   6.891   5.210  0.3147  0.2759 -0.5387
  902MOL0     C24356   4.580   6.884   5.328  0.3667 -0.2328 -0.5345
  902MOL0     C24357   4.715   6.915   5.303 -0.3655 -0.7826  0.4167
  902MOL0     C24358   4.827   6.945   5.406 -0.3833 -0.8350 -0.6856
  902MOL0     C24359   4.812   7.070   5.484  1.2755 -0.5325 -0.4762
  902MOL0     C24360   4.678   7.096   5.551 -1.1502  0.4927 -1.0783
  902MOL0     C24361   4.687   7.207   5.661  0.3180  0.5904  0.5149
  902MOL0     O24362   4.571   7.175   5.744  0.2548 -0.6967  0.3047
  902MOL0     C24363   4.527   7.269   5.835 -0.4407 -0.3029  0.1431
  902MOL0     C24364   4.566   7.403   5.846  0.2306 -0.2492 -1.2387
  902MOL0     C24365   4.519   7.484   5.947  0.5851 -0.9734 -0.5509
  902MOL0     C24366   4.585   7.619   5.951  0.3613 -0.3271  0.0861
  902MOL0     C24367   4.421   7.438   6.042 -0.2524  0.0253  0.2280
  902MOL0     C24368   4.353   7.525   6.138  0.6496  0.3239  0.0355
  902MOL0     O24369   4.291   7.447   6.246 -0.2109 -0.4652  0.1371
  902MOL0     C24370   4.211   7.522   6.329  0.2570  0.7223 -0.2170
  902MOL0     C24371   4.244   7.500   6.467 -0.1540 -0.4535 -0.2468
  902MOL0     C24372   4.160   7.557   6.563 -0.7495 -0.3108  0.1263
  902MOL0     C24373   4.045   7.632   6.533 -0.4281  0.2372  0.8763
  902MOL0     O24374   3.958   7.690   6.621  0.7853 -0.4659 -0.8432
  902MOL0     C24375   4.010   7.736   6.749 -0.1952 -1.0480  0.5130
  902MOL0     C24376   3.927   7.860   6.780  0.4550  0.7958  0.2596
  902MOL0     C24377   3.774   7.819   6.807  0.0431  0.3596  0.7727
  902MOL0     C24378   3.761   7.751   6.946  0.3496  0.4094  0.2582
  902MOL0     C24379   3.625   7.689   6.963 -0.0104 -0.1018  0.7211
  902MOL0     C24380   3.599   7.666   7.109  0.1058  0.2684 -0.4580
  902MOL0     C24381   3.494   7.561   7.136 -0.4998  0.4458  0.2809
  902MOL0     C24382   3.470   7.533   7.286  0.0387 -0.1083 -0.2853
  902MOL0    Cl24383   3.382   7.669   7.360  0.2150  0.2974  0.0322
  902MOL0     C24384   4.009   7.642   6.396 -0.4267  0.4292  0.3940
  902MOL0     C24385   4.092   7.582   6.295  0.5774 -0.0581 -0.2460
  902MOL0     O24386   4.345   7.647   6.123  0.0351 -0.0564 -0.4493
  902MOL0     C24387   4.389   7.307   6.032 -0.2094 -1.1170 -0.4415
  902MOL0     C24388   4.442   7.225   5.933  0.5370  0.7863  0.8585
  902MOL0     N24389   4.717   6.937   5.162  0.3833 -0.3949 -0.5794
  902MOL0     N24390   4.599   6.917   5.110  0.6314 -0.3704  0.6996
  902MOL0     C24391   4.149   6.979   5.882  0.4348 -0.6388  0.1232
  902MOL0     C24392   4.068   6.889   5.958 -1.0884 -1.1358  1.0107
  902MOL0     C24393   3.844   6.483   6.071 -0.0898 -0.1939 -0.5500
  902MOL0     C24394   3.796   6.354   6.051  0.1501 -0.0033 -0.3264
  902MOL0     C24395   3.689   6.293   6.115  0.0256 -0.6606  0.5983
  902MOL0     C24396   3.614   6.366   6.207  0.0479  0.0620 -0.1008
  902MOL0     O24397   3.496   6.309   6.250 -0.3608 -0.7082 -0.0031
  902MOL0     C24398   3.466   6.333   6.390  0.2113 -1.1154 -0.8071
  902MOL0     C24399   3.342   6.425   6.413 -0.2911  0.0464  0.6576
  902MOL0     C24400   3.232   6.380   6.318  0.0701  0.5315  0.8503
  902MOL0     C24401   3.090   6.424   6.364 -0.1826  0.4710  0.7948
  902MOL0     C24402   2.994   6.336   6.299  0.6941  0.3136 -0.0184
  902MOL0     C24403   2.908   6.275   6.236 -0.0584  0.1959 -0.1400
  902MOL0     C24404   3.655   6.500   6.229 -0.0077  0.5771 -0.8536
  902MOL0     C24405   3.771   6.552   6.173  0.2405 -0.2491  0.0663
  902MOL0     C24406   3.805   6.699   6.221  1.1066  0.4895 -0.4639
  902MOL0     H24407   4.113   6.608   5.763  2.1242 -1.4900  1.0072
  902MOL0     H24408   4.252   6.784   5.640 -2.4090  0.0209 -2.0176
  902MOL0     H24409   4.304   7.206   5.596  0.7605 -0.2041  0.2992
  902MOL0     H24410   4.245   7.201   5.757  0.8680  2.1816 -2.1735
  902MOL0     H24411   4.025   7.104   5.674 -2.0119  0.8204 -1.4254
  902MOL0     H24412   4.053   7.259   5.596 -2.0239 -0.2210 -2.1199
  902MOL0     H24413   4.106   6.987   5.456 -1.7340 -0.5360  2.5584
  902MOL0     H24414   3.964   7.091   5.443  0.3366 -1.3912 -1.5114
  902MOL0     H24415   4.086   7.275   5.384 -0.6391 -0.2493 -1.3016
  902MOL0     H24416   4.240   7.194   5.369  0.1834  1.2927  0.5351
  902MOL0     H24417   4.163   7.206   5.149 -1.4947 -0.3433 -0.6249
  902MOL0     H24418   3.999   7.164   5.185  0.2129  2.0500 -3.3877
  902MOL0     H24419   4.093   6.934   5.229  0.9601  0.9958  2.8088
  902MOL0     H24420   4.147   6.989   5.080 -2.7324 -0.1426  0.6286
  902MOL0     H24421   4.320   7.007   5.339  2.4396 -0.1667 -1.1796
  902MOL0     H24422   4.371   7.080   5.209 -1.2093  2.2023  3.2705
  902MOL0     H24423   4.330   6.791   5.242  2.5260  1.0595  2.3148
  902MOL0     H24424   4.359   6.866   5.076  0.2896  5.1480 -0.8154
  902MOL0     H24425   4.542   6.884   5.430  0.4251  0.6935 -0.5029
  902MOL0     H24426   4.923   6.960   5.355  1.2007 -0.7822  2.1210
  902MOL0     H24427   4.847   6.857   5.467 -2.6587 -1.9774 -1.4550
  902MOL0     H24428   4.886   7.064   5.565  0.5643  0.8064  0.3052
  902MOL0     H24429   4.835   7.152   5.414 -1.4038  0.4100 -0.3599
  902MOL0     H24430   4.591   7.112   5.487 -0.1414  1.2295 -2.3229
  902MOL0     H24431   4.643   7.013   5.613  1.9783  0.4749  0.9091
  902MOL0     H24432   4.784   7.203   5.712  0.3790 -0.6980  0.3237
  902MOL0     H24433   4.676   7.307   5.617 -1.4693 -0.4925 -1.7084
  902MOL0     H24434   4.639   7.448   5.779  0.1528 -1.8958 -2.4881
  902MOL0     H24435   4.545   7.674   5.865  0.2063  0.6248  0.7617
  902MOL0     H24436   4.693   7.614   5.936  0.5850  0.2084  1.3639
  902MOL0     H24437   4.579   7.672   6.046 -0.0097  2.2711 -1.2893
  902MOL0     H24438   4.332   7.442   6.492 -2.0943 -3.7856 -0.5198
  902MOL0     H24439   4.183   7.550   6.669  1.5339  2.0630 -0.0795
  902MOL0     H24440   3.995   7.658   6.823 -1.8682  3.0781  5.0537
  902MOL0     H24441   4.113   7.770   6.756 -1.2959  2.7803  0.8037
  902MOL0     H24442   3.972   7.897   6.872  1.3460  0.9726 -0.2299
  902MOL0     H24443   3.949   7.935   6.703 -0.2540  1.7511  0.9607
  902MOL0     H24444   3.728   7.761   6.727 -1.3390  2.3314  0.0551
  902MOL0     H24445   3.724   7.917   6.811  1.0120  0.8576  1.2666
  902MOL0     H24446   3.780   7.832   7.017 -0.2905  3.8541 -3.1882
  902MOL0     H24447   3.842   7.677   6.946  0.3537  0.4130 -0.0876
  902MOL0     H24448   3.554   7.768   6.937 -1.9133 -2.1117 -0.5409
  902MOL0     H24449   3.599   7.602   6.902 -0.0560  1.1054 -1.0481
  902MOL0     H24450   3.577   7.758   7.164  1.8251  1.1061 -1.0982
  902MOL0     H24451   3.699   7.639   7.145  0.9632  1.2099 -2.0531
  902MOL0     H24452   3.515   7.471   7.078 -0.1944  1.4642 -1.2573
  902MOL0     H24453   3.401   7.598   7.092  0.3608  0.3827 -1.7218
  902MOL0     H24454   3.567   7.508   7.329  1.0272  0.0068 -2.3256
  902MOL0     H24455   3.410   7.442   7.300 -0.2162  0.0820 -0.1181
  902MOL0     H24456   3.917   7.682   6.354 -1.1017 -2.0212 -0.6868
  902MOL0     H24457   4.076   7.584   6.188  0.0422  1.1080 -0.1560
  902MOL0     H24458   4.317   7.263   6.100  1.9038 -0.2175  2.5967
  902MOL0     H24459   4.414   7.121   5.941  2.4969  0.3134  2.4629
  902MOL0     H24460   4.149   7.081   5.921 -0.4516 -0.9650  1.0212
  902MOL0     H24461   4.019   6.926   6.048  0.2943 -0.7267  1.6212
  902MOL0     H24462   3.855   6.294   5.982  2.1294  1.3918  0.0639
  902MOL0     H24463   3.654   6.194   6.088 -1.4252  0.4279 -1.8038
  902MOL0     H24464   3.446   6.235   6.436  0.3334 -0.2454  1.1944
  902MOL0     H24465   3.553   6.371   6.444  0.0992 -1.9514 -0.0106
  902MOL0     H24466   3.356   6.531   6.390  2.1032 -0.3480 -0.0327
  902MOL0     H24467   3.306   6.419   6.516 -0.2253 -0.5058  0.6520
  902MOL0     H24468   3.251   6.406   6.213  0.5757 -3.9508 -0.3905
  902MOL0     H24469   3.243   6.271   6.313  2.2026  0.7468 -2.7755
  902MOL0     H24470   3.073   6.528   6.336  2.3045  0.2172 -2.0949
  902MOL0     H24471   3.083   6.400   6.471  0.8251  0.6617  0.9087
  902MOL0     H24472   2.828   6.227   6.184  1.4682 -0.6027 -1.8566
  902MOL0     H24473   3.598   6.572   6.286  1.6110  0.0387  1.5892
  902MOL0     H24474   3.913   6.711   6.232  1.1661 -1.0563  1.2001
  902MOL0     H24475   3.750   6.765   6.154 -1.7053 -0.2824  0.9132
  902MOL0     H24476   3.753   6.713   6.317 -3.4262 -1.8792 -2.2431
  903MOL0     O24477  11.029   6.185   1.688 -1.1045 -0.4359  0.1956
  903MOL0     C24478  11.034   6.064   1.705  0.2231 -1.0568 -0.0899
  903MOL0     O24479  11.079   6.003   1.817 -0.1750  0.5364 -0.5532
  903MOL0     C24480  11.101   6.067   1.945 -1.2158 -0.2498 -0.0114
  903MOL0     C24481  11.199   6.022   2.028  0.0143  0.1547  0.2452
  903MOL0     C24482  11.230   6.081   2.147  1.5721 -0.3116 -0.6760
  903MOL0     C24483  11.156   6.200   2.187  0.1355 -0.2040  0.7312
  903MOL0     O24484  11.189   6.270   2.296 -0.0129  0.0763 -0.4931
  903MOL0     C24485  11.304   6.234   2.378  0.7448 -0.7729 -0.6026
  903MOL0     C24486  11.319   6.307   2.503 -0.6252  0.6003  0.2420
  903MOL0     C24487  11.327   6.455   2.473 -0.1077 -0.0409  0.5760
  903MOL0     C24488  11.472   6.497   2.428 -0.5849 -0.2234 -0.5621
  903MOL0     C24489  11.497   6.512   2.276  0.2070 -0.5830  0.1083
  903MOL0     C24490  11.650   6.525   2.248  0.3694 -0.0407 -0.2032
  903MOL0     C24491  11.702   6.461   2.118  0.5190 -0.9897  0.0310
  903MOL0     C24492  11.854   6.453   2.113 -0.3021 -0.3275 -0.1114
  903MOL0     N24493  11.924   6.583   2.125 -0.1645 -0.4752 -1.0511
  903MOL0     C24494  11.902   6.698   2.051 -0.2805 -0.3126  0.7645
  903MOL0     C24495  11.989   6.793   2.096 -0.4981  0.0607  0.2405
  903MOL0     C24496  12.014   6.929   2.033 -0.5080  0.0903 -0.1553
  903MOL0     C24497  11.885   7.008   2.052 -0.5603  0.6960 -0.1172
  903MOL0     C24498  11.872   7.054   2.195 -0.4710  0.0199  0.6052
  903MOL0     C24499  11.774   7.180   2.203 -0.0157  0.2090 -0.7646
  903MOL0     O24500  11.640   7.161   2.155  0.6008  0.5664 -0.0968
  903MOL0     C24501  11.541   7.102   2.232  1.1518 -0.3585  0.4878
  903MOL0     C24502  11.419   7.106   2.179 -0.7085  0.0326 -0.4003
  903MOL0     C24503  11.311   7.057   2.246  0.0633 -0.1135 -0.3107
  903MOL0     C24504  11.180   7.054   2.172 -0.2478 -0.1194  0.4562
  903MOL0     C24505  11.322   7.011   2.382  0.7359  0.6985  0.0887
  903MOL0     C24506  11.224   6.940   2.471  0.2296 -0.6973 -1.4896
  903MOL0     O24507  11.089   6.971   2.450 -0.2712  0.3875  0.6889
  903MOL0     C24508  10.988   6.948   2.537  0.9271 -0.5893 -0.4932
  903MOL0     C24509  10.857   6.915   2.485 -0.6918 -0.9128  0.6437
  903MOL0     C24510  10.752   6.888   2.568  0.0624 -0.0066  0.6563
  903MOL0     C24511  10.762   6.907   2.700 -0.8604 -1.0454 -0.1045
  903MOL0     O24512  10.669   6.865   2.789 -0.5434  0.6907  0.9254
  903MOL0     C24513  10.655   6.724   2.781 -0.3555  1.0804 -0.2694
  903MOL0     C24514  10.633   6.687   2.932  0.6792 -0.6485 -0.2401
  903MOL0     C24515  10.636   6.542   2.952  0.0646  0.1622 -0.2304
  903MOL0     C24516  10.502   6.474   2.913 -0.5212 -0.2293  0.1884
  903MOL0     C24517  10.479   6.326   2.964 -0.0083 -0.3364 -0.7390
  903MOL0     C24518  10.357   6.264   2.905  0.2635 -0.3912 -0.1984
  903MOL0     C24519  10.330   6.133   2.992 -0.1700  0.3265 -0.0970
  903MOL0     C24520  10.193   6.070   2.955  0.4650 -0.2447  0.1198
  903MOL0    Cl24521  10.056   6.177   3.000 -0.0520  0.0773  0.6164
  903MOL0     C24522  10.883   6.958   2.753 -0.5698  0.4955  0.5944
  903MOL0     C24523  10.999   6.969   2.673  0.0469 -0.4333  0.4592
  903MOL0     O24524  11.266   6.880   2.566  0.6355  0.1746 -0.6075
  903MOL0     C24525  11.445   7.024   2.440 -1.3586 -1.0186 -0.4528
  903MOL0     C24526  11.559   7.061   2.361  0.1979 -0.2359  0.4017
  903MOL0     N24527  12.059   6.728   2.199  0.1528  0.6435  0.2545
  903MOL0     N24528  12.008   6.612   2.227 -0.0278 -0.4548  0.7117
  903MOL0     C24529  11.056   6.257   2.105 -0.7673  0.2845 -0.1992
  903MOL0     C24530  11.032   6.184   1.987 -0.4198 -0.0428  0.1769
  903MOL0     C24531  10.980   5.983   1.595  0.4611  0.0661 -0.6554
  903MOL0     C24532  11.067   5.901   1.527  0.4596  0.6927  0.2503
  903MOL0     C24533  11.020   5.825   1.419 -0.4565  0.1041  0.0221
  903MOL0     C24534  10.888   5.837   1.375 -0.2170 -0.0671 -0.5532
  903MOL0     O24535  10.825   5.782   1.265 -0.3600  0.2315  0.1026
  903MOL0     C24536  10.909   5.708   1.172  0.0045 -0.0022  0.7121
  903MOL0     C24537  10.980   5.809   1.077  0.6781 -0.3348 -0.1020
  903MOL0     C24538  10.893   5.843   0.965  0.4599 -0.3371  0.4145
  903MOL0     C24539  10.974   5.895   0.851 -0.3265  0.0975  0.1099
  903MOL0     C24540  11.012   6.036   0.868 -0.4016 -0.8567  0.3698
  903MOL0     C24541  11.063   6.143   0.868  0.1029 -0.1212  0.1302
  903MOL0     C24542  10.799   5.913   1.444  0.2439  0.4940 -0.3641
  903MOL0     C24543  10.840   5.986   1.558  0.8048 -0.5117  0.6497
  903MOL0     C24544  10.744   6.076   1.627 -1.2311 -0.3043  0.1293
  903MOL0     H24545  11.252   5.933   1.997  0.0272  0.6671 -1.2930
  903MOL0     H24546  11.322   6.054   2.199  0.1109 -1.8057  1.2934
  903MOL0     H24547  11.396   6.248   2.319 -0.4132  0.5002 -2.2137
  903MOL0     H24548  11.303   6.128   2.404  0.3757 -0.2317  1.8083
  903MOL0     H24549  11.229   6.306   2.565 -1.7449 -0.6639 -1.3402
  903MOL0     H24550  11.402   6.267   2.563 -0.3947  1.7490  0.7227
  903MOL0     H24551  11.259   6.485   2.392  0.8856  0.1788 -0.1913
  903MOL0     H24552  11.286   6.506   2.561  0.2978 -0.6352  1.1212
  903MOL0     H24553  11.491   6.586   2.488  1.6303 -2.8323  3.0039
  903MOL0     H24554  11.542   6.421   2.466  1.0716  0.6317 -1.7395
  903MOL0     H24555  11.438   6.595   2.237 -2.0995 -2.5349 -0.8202
  903MOL0     H24556  11.458   6.421   2.228 -1.4065  0.4093 -0.5511
  903MOL0     H24557  11.675   6.631   2.251  4.0278 -0.8093  0.5378
  903MOL0     H24558  11.704   6.477   2.329  0.2128  0.7729  0.3884
  903MOL0     H24559  11.663   6.519   2.033  1.7494  2.8913  1.8619
  903MOL0     H24560  11.674   6.356   2.118  0.9175 -1.1068 -0.6509
  903MOL0     H24561  11.892   6.400   2.201  2.4118  1.6598  0.0337
  903MOL0     H24562  11.886   6.405   2.020  0.0263 -1.5975  0.6198
  903MOL0     H24563  11.835   6.700   1.966  0.0580 -2.7599  0.3807
  903MOL0     H24564  12.030   6.917   1.926  2.7954  1.3520  0.1005
  903MOL0     H24565  12.097   6.985   2.076 -0.1668 -1.6283  1.5899
  903MOL0     H24566  11.892   7.096   1.988  0.9635 -0.7205 -2.0623
  903MOL0     H24567  11.803   6.939   2.029  1.9030 -2.2293 -0.8660
  903MOL0     H24568  11.844   6.981   2.272 -0.8459  0.0461  0.4967
  903MOL0     H24569  11.971   7.091   2.224 -0.8995  1.1024  0.7659
  903MOL0     H24570  11.780   7.218   2.305  0.9688  1.6626 -1.3307
  903MOL0     H24571  11.817   7.255   2.137 -0.9885  0.7584 -0.7855
  903MOL0     H24572  11.414   7.139   2.075 -0.2434  1.8717  0.1205
  903MOL0     H24573  11.206   7.074   2.068  0.8398 -1.6144  0.4197
  903MOL0     H24574  11.114   7.133   2.211 -0.4753  0.5392 -1.1812
  903MOL0     H24575  11.135   6.955   2.183  0.7041 -0.3135  3.5324
  903MOL0     H24576  10.848   6.912   2.377  1.5968 -4.8932  0.3888
  903MOL0     H24577  10.660   6.852   2.525  0.5950  0.3009 -0.7919
  903MOL0     H24578  10.573   6.698   2.714 -0.3701  0.8711 -0.1706
  903MOL0     H24579  10.745   6.675   2.743  0.1436 -0.1344  2.2582
  903MOL0     H24580  10.715   6.731   2.989  0.9474  2.4607 -2.7559
  903MOL0     H24581  10.539   6.731   2.967 -0.1141  0.8909 -3.8181
  903MOL0     H24582  10.642   6.522   3.060 -0.0305  1.5806  0.0516
  903MOL0     H24583  10.725   6.503   2.901  0.7913 -1.1555  1.9025
  903MOL0     H24584  10.508   6.487   2.805  0.2677  2.3713  0.4779
  903MOL0     H24585  10.422   6.535   2.955 -0.7193  2.4167 -3.5322
  903MOL0     H24586  10.570   6.273   2.935  0.1455 -1.6352  1.8973
  903MOL0     H24587  10.477   6.320   3.073  1.3681 -2.2858 -0.7748
  903MOL0     H24588  10.381   6.235   2.802  0.2465 -0.0451 -0.3022
  903MOL0     H24589  10.273   6.333   2.906 -1.2643 -2.1670  0.1078
  903MOL0     H24590  10.332   6.162   3.097 -0.9524  4.6669 -1.0907
  903MOL0     H24591  10.413   6.064   2.978 -1.3761 -1.7271  2.1082
  903MOL0     H24592  10.193   5.977   3.014  1.2721  1.0179  2.2272
  903MOL0     H24593  10.199   6.048   2.848 -1.9276 -4.1895  0.5717
  903MOL0     H24594  10.887   6.975   2.860 -3.2469 -3.3921  1.5547
  903MOL0     H24595  11.079   7.012   2.731 -0.6290  0.6446  0.6135
  903MOL0     H24596  11.468   6.993   2.542  0.6160  0.4767 -0.3875
  903MOL0     H24597  11.656   7.060   2.409 -0.5711 -1.0834  1.9979
  903MOL0     H24598  11.000   6.347   2.129 -1.8023 -0.4475  0.2131
  903MOL0     H24599  10.947   6.227   1.934 -0.9725  2.2435  2.6577
  903MOL0     H24600  11.173   5.902   1.551  1.2720  1.4240 -2.9054
  903MOL0     H24601  11.095   5.767   1.366 -1.6712 -0.0361 -1.6537
  903MOL0     H24602  10.982   5.654   1.234  1.7540  2.5406  1.0507
  903MOL0     H24603  10.850   5.635   1.117  2.3659  0.4316 -2.7071
  903MOL0     H24604  11.075   5.767   1.043  0.4754 -0.0306 -1.0816
  903MOL0     H24605  11.010   5.891   1.142 -0.1397 -1.8594  2.3334
  903MOL0     H24606  10.831   5.758   0.936  0.4124 -0.1803  0.0636
  903MOL0     H24607  10.820   5.917   0.996 -0.3212 -1.0255  0.2517
  903MOL0     H24608  10.902   5.894   0.769 -0.4550  0.9019  0.2005
  903MOL0     H24609  11.057   5.831   0.819  1.3668  1.8151  0.9009
  903MOL0     H24610  11.098   6.244   0.874  2.3300 -0.8123 -0.4368
  903MOL0     H24611  10.699   5.931   1.407 -0.3792 -0.3764  0.8280
  903MOL0     H24612  10.645   6.046   1.593 -1.2503  0.4175 -0.4874
  903MOL0     H24613  10.763   6.077   1.734 -0.0380 -1.2456 -0.0483
  903MOL0     H24614  10.768   6.181   1.605  1.0326  0.0778  3.5563
  904MOL0     O24615   9.652   3.396   1.084  0.1838  0.7909 -0.7899
  904MOL0     C24616   9.699   3.482   1.156 -0.5400 -0.8620  0.1470
  904MOL0     O24617   9.644   3.527   1.273  0.3962  0.1522  0.4956
  904MOL0     C24618   9.524   3.480   1.316 -0.0855  0.2814 -0.5791
  904MOL0     C24619   9.501   3.459   1.453 -0.5266  0.7993 -0.4504
  904MOL0     C24620   9.387   3.393   1.512 -0.0961 -0.0731 -0.2341
  904MOL0     C24621   9.273   3.369   1.430 -0.7348  0.5396  0.0516
  904MOL0     O24622   9.176   3.302   1.491  0.0064  0.3764  0.6783
  904MOL0     C24623   9.076   3.231   1.419  0.8120  0.6863  0.1418
  904MOL0     C24624   9.111   3.100   1.332 -0.7459 -0.9215 -0.3188
  904MOL0     C24625   8.990   3.049   1.256 -0.4325  0.0732  0.7177
  904MOL0     C24626   9.002   3.070   1.102  0.9674  0.1308  0.8190
  904MOL0     C24627   8.872   3.021   1.031  0.4246  0.3824  0.2525
  904MOL0     C24628   8.880   2.870   0.997  0.1417  0.3677 -0.4021
  904MOL0     C24629   8.763   2.815   0.915  0.7383 -0.4653 -0.5843
  904MOL0     C24630   8.791   2.689   0.833 -0.0184  0.8408  0.0252
  904MOL0     N24631   8.815   2.558   0.898 -0.4949 -0.3776  0.4128
  904MOL0     C24632   8.861   2.437   0.843 -1.3795 -0.7059  0.5032
  904MOL0     C24633   8.877   2.342   0.939  0.4871  0.8504  0.4635
  904MOL0     C24634   8.910   2.190   0.910  0.5959 -1.0853  0.5590
  904MOL0     C24635   8.779   2.101   0.893  0.2773  0.2815 -0.3887
  904MOL0     C24636   8.818   1.957   0.843 -0.0970 -0.5030  0.4065
  904MOL0     C24637   8.699   1.862   0.824 -0.1800 -0.7053 -0.9743
  904MOL0     O24638   8.601   1.879   0.934 -0.0474  0.0617  0.2150
  904MOL0     C24639   8.491   1.801   0.933 -0.6154  0.1548 -0.5431
  904MOL0     C24640   8.476   1.693   1.017  0.2427  0.0282  0.6323
  904MOL0     C24641   8.354   1.638   1.039  0.3207 -0.9852 -1.1033
  904MOL0     C24642   8.348   1.543   1.155 -0.3355 -0.8169 -0.1700
  904MOL0     C24643   8.240   1.676   0.962  0.1658 -0.4651  0.1016
  904MOL0     C24644   8.101   1.643   0.973  0.2757  0.7139 -0.9171
  904MOL0     O24645   8.007   1.706   0.896  0.3186 -0.1374  0.3969
  904MOL0     C24646   7.878   1.653   0.884  0.2314 -0.7721 -0.6214
  904MOL0     C24647   7.835   1.616   0.757  0.3399  0.2724 -0.8039
  904MOL0     C24648   7.710   1.557   0.733  0.0061  0.2747 -0.0084
  904MOL0     C24649   7.626   1.518   0.834 -0.0010 -0.9187 -0.5110
  904MOL0     O24650   7.506   1.465   0.814  0.0005  0.3142  0.4113
  904MOL0     C24651   7.437   1.398   0.914 -0.0207  0.1261  0.0539
  904MOL0     C24652   7.309   1.343   0.842  0.3065  1.4689  0.1083
  904MOL0     C24653   7.210   1.262   0.934 -0.4953  0.1879  0.4991
  904MOL0     C24654   7.079   1.228   0.860  0.1190 -0.8184 -0.6743
  904MOL0     C24655   7.105   1.138   0.745 -0.4776  0.3998 -0.2194
  904MOL0     C24656   7.189   1.013   0.780  0.3288  0.2284  0.4736
  904MOL0     C24657   7.140   0.931   0.891 -0.6609 -1.1063  0.4214
  904MOL0     C24658   7.227   0.802   0.896 -0.5029  0.3512 -0.4637
  904MOL0    Cl24659   7.394   0.837   0.959 -0.4650  0.1330 -0.4662
  904MOL0     C24660   7.675   1.549   0.962 -0.3077  0.4000  0.0666
  904MOL0     C24661   7.796   1.618   0.994  0.0720 -0.0283 -0.1399
  904MOL0     O24662   8.067   1.571   1.076 -0.5329 -0.5476 -0.4049
  904MOL0     C24663   8.263   1.776   0.863  0.4186  0.7036 -0.1883
  904MOL0     C24664   8.387   1.845   0.857 -0.5624  0.5962  1.1889
  904MOL0     N24665   8.841   2.397   1.056  0.1426 -0.9882 -0.3913
  904MOL0     N24666   8.809   2.529   1.028 -0.1607  0.5729  0.1457
  904MOL0     C24667   9.285   3.403   1.291 -1.6792  0.7444  0.3504
  904MOL0     C24668   9.410   3.446   1.239 -0.3118  0.4334 -0.7678
  904MOL0     C24669   9.830   3.543   1.121 -0.1703 -0.3023  0.5283
  904MOL0     C24670   9.877   3.662   1.183 -0.2585 -0.1672  0.1560
  904MOL0     C24671   9.997   3.727   1.145  0.1569  0.2017  0.0674
  904MOL0     C24672  10.075   3.667   1.052  0.5346  0.9889 -0.2780
  904MOL0     O24673  10.182   3.737   1.010  0.5789 -0.3770  0.2121
  904MOL0     C24674  10.308   3.674   1.021  0.5938 -0.1676 -0.1654
  904MOL0     C24675  10.407   3.732   0.918 -0.0673  0.2155  0.1783
  904MOL0     C24676  10.467   3.869   0.951 -0.1854 -0.5938 -0.2627
  904MOL0     C24677  10.401   3.973   0.868 -0.0727 -0.5205  0.3881
  904MOL0     C24678  10.451   4.109   0.896  0.0714 -0.8811 -0.6642
  904MOL0     C24679  10.479   4.226   0.890  0.1427  0.5961  0.3013
  904MOL0     C24680  10.040   3.546   1.001  0.4113 -0.3343  0.4995
  904MOL0     C24681   9.920   3.479   1.036 -0.9796  0.5808 -0.3336
  904MOL0     C24682   9.903   3.338   0.987  0.9819 -0.4541  0.0816
  904MOL0     H24683   9.584   3.496   1.513  0.3533  2.2148 -2.4197
  904MOL0     H24684   9.379   3.373   1.619  3.1406 -0.6516  0.0059
  904MOL0     H24685   9.028   3.309   1.360 -0.6277  0.1217  0.5347
  904MOL0     H24686   9.003   3.204   1.496 -0.2206  1.6512 -0.4707
  904MOL0     H24687   9.191   3.126   1.262  0.6543 -0.6916  1.2993
  904MOL0     H24688   9.137   3.021   1.402 -2.3690 -1.2804 -0.0787
  904MOL0     H24689   8.981   2.941   1.272  1.2543  0.2160  3.2049
  904MOL0     H24690   8.902   3.111   1.272 -1.6342 -0.1911 -3.5280
  904MOL0     H24691   9.010   3.178   1.085 -2.0330  0.5395  1.4273
  904MOL0     H24692   9.092   3.031   1.054  1.6967 -2.0211  3.7080
  904MOL0     H24693   8.861   3.074   0.936  3.1103 -1.4774 -1.2329
  904MOL0     H24694   8.784   3.045   1.091  0.0948 -0.2838  0.0398
  904MOL0     H24695   8.972   2.842   0.945 -0.9461  1.8442 -3.3654
  904MOL0     H24696   8.871   2.819   1.094  0.1101  0.2764 -0.4535
  904MOL0     H24697   8.723   2.893   0.850 -1.9506 -0.7693  0.5849
  904MOL0     H24698   8.677   2.789   0.978 -1.6385  0.8942 -3.0977
  904MOL0     H24699   8.706   2.670   0.767  1.2458 -2.1287 -0.9428
  904MOL0     H24700   8.880   2.709   0.774  2.5086 -2.6726  2.2019
  904MOL0     H24701   8.892   2.426   0.740  1.0362  0.7765  0.9883
  904MOL0     H24702   8.974   2.156   0.992  0.3736  1.4415  1.8680
  904MOL0     H24703   8.967   2.196   0.817 -1.1919  4.3694 -0.5593
  904MOL0     H24704   8.740   2.101   0.995  5.1512 -1.7501  1.7956
  904MOL0     H24705   8.708   2.143   0.821 -1.0239 -0.7724  0.2447
  904MOL0     H24706   8.873   1.975   0.750 -1.7140 -2.2967 -0.9914
  904MOL0     H24707   8.882   1.912   0.920  1.4083 -0.9794 -1.0397
  904MOL0     H24708   8.646   1.895   0.734  1.6857 -1.3420 -2.3865
  904MOL0     H24709   8.727   1.757   0.809 -2.0537 -1.4538  0.4024
  904MOL0     H24710   8.568   1.654   1.060 -0.7504 -0.2685  2.5937
  904MOL0     H24711   8.343   1.606   1.244  0.6863 -1.9291  0.7170
  904MOL0     H24712   8.435   1.482   1.180  0.6811  0.0592 -1.4734
  904MOL0     H24713   8.267   1.469   1.158 -0.1565 -0.9802  1.0633
  904MOL0     H24714   7.904   1.646   0.680  1.2734 -0.0038 -0.0962
  904MOL0     H24715   7.672   1.550   0.631  0.3284  0.1495 -0.1233
  904MOL0     H24716   7.500   1.319   0.956 -2.5381 -2.4572 -0.7119
  904MOL0     H24717   7.404   1.466   0.994  1.7156  0.0067  0.9272
  904MOL0     H24718   7.261   1.437   0.814  1.4662  2.3409  0.9462
  904MOL0     H24719   7.337   1.291   0.750 -1.0954  0.5578  0.1704
  904MOL0     H24720   7.196   1.327   1.021  0.4428 -1.4293  1.9200
  904MOL0     H24721   7.253   1.174   0.981  0.8901 -0.0814 -1.1715
  904MOL0     H24722   7.032   1.320   0.822  0.5610  1.6552  3.9622
  904MOL0     H24723   7.014   1.176   0.930  0.8009  0.3298  0.8735
  904MOL0     H24724   7.009   1.114   0.699 -0.2648 -1.1238  0.0737
  904MOL0     H24725   7.151   1.194   0.663 -2.0956  1.8250 -0.2298
  904MOL0     H24726   7.296   1.037   0.788  0.6622 -1.2992  1.0419
  904MOL0     H24727   7.197   0.949   0.691 -2.8646 -0.4536  0.5625
  904MOL0     H24728   7.036   0.913   0.862 -0.1490 -0.5218 -1.9839
  904MOL0     H24729   7.133   0.986   0.986 -0.8395 -0.0234 -0.2076
  904MOL0     H24730   7.229   0.751   0.800  0.4878  0.5791 -0.5771
  904MOL0     H24731   7.176   0.734   0.965 -0.9874  0.1022 -1.0601
  904MOL0     H24732   7.617   1.527   1.050 -1.8306  2.2131 -0.4217
  904MOL0     H24733   7.831   1.635   1.095 -0.3651  0.1939 -0.0214
  904MOL0     H24734   8.190   1.810   0.791  0.8519  1.5170 -0.2571
  904MOL0     H24735   8.406   1.922   0.783  1.5869 -0.1010  0.9452
  904MOL0     H24736   9.207   3.384   1.218 -0.4554  0.7995 -1.0120
  904MOL0     H24737   9.411   3.452   1.131 -0.3058 -2.9265 -1.0626
  904MOL0     H24738   9.809   3.696   1.261 -0.6871 -1.7225  0.4873
  904MOL0     H24739  10.010   3.832   1.171  0.9647 -0.1810  1.2648
  904MOL0     H24740  10.346   3.688   1.123 -3.2476  2.5110  1.1365
  904MOL0     H24741  10.303   3.565   1.012 -2.3513 -0.0917 -0.4081
  904MOL0     H24742  10.358   3.734   0.820 -2.8631  0.2259  1.4868
  904MOL0     H24743  10.490   3.662   0.905 -1.9791 -1.6687 -3.3073
  904MOL0     H24744  10.446   3.889   1.057 -1.3858  1.1516 -0.7973
  904MOL0     H24745  10.576   3.865   0.938 -0.1567 -0.4925 -0.0602
  904MOL0     H24746  10.293   3.973   0.885 -0.2037  1.6734 -0.1651
  904MOL0     H24747  10.423   3.956   0.762  1.4050  0.9836  0.4081
  904MOL0     H24748  10.497   4.331   0.879  3.0918 -0.0960 -3.5655
  904MOL0     H24749  10.111   3.501   0.932  0.3201  1.8164 -1.1098
  904MOL0     H24750   9.888   3.268   1.070  1.9209  1.7422  2.2389
  904MOL0     H24751   9.823   3.339   0.913  0.4065  0.1870  0.6947
  904MOL0     H24752   9.996   3.309   0.937  0.0435 -2.8709 -0.3916
  905MOL0     O24753   9.862   4.582   2.545 -0.3437 -0.4076 -0.5707
  905MOL0     C24754   9.904   4.698   2.531 -0.4048  0.6248  0.8466
  905MOL0     O24755   9.887   4.775   2.422  0.0372 -0.3360 -0.1611
  905MOL0     C24756   9.803   4.737   2.323  0.3349  0.5106  0.1786
  905MOL0     C24757   9.857   4.707   2.197 -0.0893  0.4096  0.2859
  905MOL0     C24758   9.785   4.666   2.087 -0.8540 -0.3614  0.1145
  905MOL0     C24759   9.649   4.659   2.099  0.1352 -0.6359 -0.9444
  905MOL0     O24760   9.559   4.628   1.988 -0.5834  0.5026 -0.2719
  905MOL0     C24761   9.627   4.570   1.867  0.0496  0.3535  0.2659
  905MOL0     C24762   9.524   4.497   1.793 -0.8491 -0.1314 -0.3282
  905MOL0     C24763   9.554   4.356   1.740  0.2285 -0.3432 -0.0286
  905MOL0     C24764   9.643   4.352   1.613 -0.7979 -0.0465  0.9355
  905MOL0     C24765   9.794   4.400   1.641 -0.7325  0.3554  0.6064
  905MOL0     C24766   9.877   4.386   1.512 -0.6427 -0.5353  0.2742
  905MOL0     C24767  10.034   4.404   1.528  0.4777  0.3543 -0.9197
  905MOL0     C24768  10.107   4.328   1.630 -0.2605  0.8679 -0.5508
  905MOL0     N24769  10.079   4.374   1.767  0.1292  0.4158  0.3228
  905MOL0     C24770  10.084   4.285   1.872 -0.6765  0.4579  0.1745
  905MOL0     C24771  10.070   4.375   1.977 -0.8909 -0.2203 -0.2472
  905MOL0     C24772  10.045   4.337   2.120  0.1125 -0.0582 -0.6016
  905MOL0     C24773   9.893   4.329   2.146 -0.3179 -0.2429 -0.0509
  905MOL0     C24774   9.846   4.317   2.285  0.2525  0.9023 -0.0540
  905MOL0     C24775   9.696   4.344   2.291 -0.1389  0.1428  0.1304
  905MOL0     O24776   9.618   4.269   2.193  0.5542 -0.6188  0.2986
  905MOL0     C24777   9.486   4.303   2.166 -0.2427  0.2970 -0.9778
  905MOL0     C24778   9.410   4.391   2.233 -0.7461 -0.9344  0.0042
  905MOL0     C24779   9.280   4.413   2.197  0.3552 -0.4246 -0.5077
  905MOL0     C24780   9.192   4.512   2.282 -0.8858  0.2556 -0.2128
  905MOL0     C24781   9.221   4.337   2.090 -1.0660  0.8103 -0.6157
  905MOL0     C24782   9.076   4.336   2.050 -0.0467 -0.0330  0.5921
  905MOL0     O24783   9.039   4.282   1.937 -0.5359  0.2704  0.2225
  905MOL0     C24784   8.913   4.253   1.905 -0.7527  0.5038  1.0182
  905MOL0     C24785   8.873   4.123   1.872 -0.3530  0.0475 -0.5643
  905MOL0     C24786   8.741   4.081   1.874  0.9966 -0.6070 -0.4739
  905MOL0     C24787   8.642   4.183   1.882 -0.9128  0.5082  0.8030
  905MOL0     O24788   8.505   4.150   1.876 -0.2209 -0.2476 -0.3350
  905MOL0     C24789   8.467   4.015   1.909  0.2095  0.3937 -0.1218
  905MOL0     C24790   8.318   4.014   1.923 -0.6329 -0.5319  1.0984
  905MOL0     C24791   8.234   4.085   1.813  0.1289  0.6849 -0.6539
  905MOL0     C24792   8.086   4.088   1.854  0.0692 -0.5208 -0.2230
  905MOL0     C24793   7.980   4.163   1.769  0.8282  0.5914 -0.3874
  905MOL0     C24794   7.837   4.108   1.796  0.2415 -0.7905 -1.0740
  905MOL0     C24795   7.740   4.213   1.736  1.1695  0.4941 -0.5442
  905MOL0     C24796   7.640   4.259   1.837  0.9511  0.4763  0.2564
  905MOL0    Cl24797   7.502   4.344   1.764  0.1144 -0.6101  0.5652
  905MOL0     C24798   8.677   4.316   1.905 -0.0488  0.6022 -0.1937
  905MOL0     C24799   8.809   4.345   1.918 -0.4211 -0.0342  0.2035
  905MOL0     O24800   9.000   4.375   2.139 -0.9176  0.0524  0.9490
  905MOL0     C24801   9.307   4.247   2.026  0.8520  0.6321  0.1391
  905MOL0     C24802   9.440   4.229   2.066  0.9855 -0.6095 -1.0608
  905MOL0     N24803  10.068   4.505   1.939 -0.6986  0.4771  0.4032
  905MOL0     N24804  10.074   4.502   1.811  0.5053 -0.4288  0.1060
  905MOL0     C24805   9.585   4.692   2.223 -0.2246 -0.5746 -0.3190
  905MOL0     C24806   9.660   4.732   2.336  0.4123 -0.2778 -0.3988
  905MOL0     C24807   9.980   4.754   2.643 -1.3574 -0.3727 -0.4000
  905MOL0     C24808  10.108   4.703   2.666  0.4355  0.4851 -0.2153
  905MOL0     C24809  10.173   4.722   2.792  0.4274 -0.1451  0.4025
  905MOL0     C24810  10.116   4.808   2.890  0.1595 -0.4688  0.2949
  905MOL0     O24811  10.162   4.835   3.014 -0.5545 -0.2496 -0.7104
  905MOL0     C24812  10.304   4.838   3.049  0.0475  1.0946 -0.4148
  905MOL0     C24813  10.372   4.960   2.989  0.7697 -0.1733 -0.7442
  905MOL0     C24814  10.524   4.973   3.009 -0.5038  0.3126 -0.4823
  905MOL0     C24815  10.571   4.932   3.150  0.3077 -0.0421  0.4019
  905MOL0     C24816  10.518   5.021   3.253  0.5165  0.0746  0.6334
  905MOL0     C24817  10.458   5.075   3.349 -0.4119  0.4472  0.0895
  905MOL0     C24818   9.995   4.877   2.859  0.4824  0.1503 -0.2008
  905MOL0     C24819   9.929   4.851   2.739  0.2572  0.0576  1.1485
  905MOL0     C24820   9.795   4.919   2.717  0.2197 -0.3620  0.9897
  905MOL0     H24821   9.965   4.706   2.184 -0.1980 -1.1010 -0.6597
  905MOL0     H24822   9.830   4.645   1.990  1.2848  2.6717  0.3009
  905MOL0     H24823   9.715   4.509   1.888 -0.8452 -1.2142 -0.3867
  905MOL0     H24824   9.667   4.645   1.798  2.7883 -2.1687 -1.1207
  905MOL0     H24825   9.439   4.475   1.858 -0.5318  0.3722  0.2671
  905MOL0     H24826   9.493   4.557   1.707  0.9667  1.5175  0.0883
  905MOL0     H24827   9.600   4.305   1.826 -0.7077 -1.3019 -0.0699
  905MOL0     H24828   9.465   4.300   1.707  1.4109 -0.9930 -2.3589
  905MOL0     H24829   9.647   4.250   1.574  1.5084 -0.3374  1.7229
  905MOL0     H24830   9.608   4.414   1.530  2.5570 -0.7382 -1.1823
  905MOL0     H24831   9.834   4.337   1.721  2.5505  1.1550 -0.2749
  905MOL0     H24832   9.799   4.501   1.682 -0.6277  0.5381  0.1531
  905MOL0     H24833   9.868   4.280   1.489  0.4868  0.0123 -3.1486
  905MOL0     H24834   9.830   4.446   1.433 -0.0789 -2.2648 -1.4510
  905MOL0     H24835  10.060   4.509   1.544  0.5504 -0.0504  2.1701
  905MOL0     H24836  10.071   4.359   1.435  3.4132  0.0686  0.2562
  905MOL0     H24837  10.065   4.227   1.620 -1.4823  1.4408 -1.4391
  905MOL0     H24838  10.215   4.316   1.619 -0.5971 -1.8073 -1.7497
  905MOL0     H24839  10.093   4.177   1.873 -0.0806  0.5010 -0.1730
  905MOL0     H24840  10.103   4.405   2.182  1.9719  0.9367 -3.2237
  905MOL0     H24841  10.089   4.239   2.137 -0.3839 -0.0382  0.9494
  905MOL0     H24842   9.847   4.417   2.100 -0.7324 -0.1169  0.5959
  905MOL0     H24843   9.852   4.247   2.085 -1.3327 -0.4124  0.8305
  905MOL0     H24844   9.858   4.216   2.324 -1.0098  0.5216 -0.5952
  905MOL0     H24845   9.891   4.393   2.349  2.4852 -0.2079 -0.1962
  905MOL0     H24846   9.651   4.316   2.386 -0.3617 -0.4020 -0.1305
  905MOL0     H24847   9.692   4.454   2.286  0.6108  0.1657 -0.0218
  905MOL0     H24848   9.457   4.457   2.306 -1.5422  1.5139 -1.5970
  905MOL0     H24849   9.125   4.464   2.354 -0.5481 -0.8920 -0.6511
  905MOL0     H24850   9.142   4.585   2.218 -0.8011  1.9764  1.5989
  905MOL0     H24851   9.248   4.575   2.352 -1.9719 -0.4713  1.3777
  905MOL0     H24852   8.951   4.049   1.859  0.0425  0.3717 -0.0821
  905MOL0     H24853   8.725   3.975   1.858 -0.9792 -0.6028  1.1177
  905MOL0     H24854   8.487   3.952   1.821  1.7455  0.9383 -0.1862
  905MOL0     H24855   8.530   3.966   1.983  0.2746 -0.3523 -0.6642
  905MOL0     H24856   8.281   3.911   1.923 -2.8301  0.1969 -0.0731
  905MOL0     H24857   8.286   4.060   2.017  0.1579  0.2645  0.9901
  905MOL0     H24858   8.251   4.030   1.720 -0.0800 -1.0462  0.2901
  905MOL0     H24859   8.263   4.189   1.794 -0.7454  1.0487 -0.0591
  905MOL0     H24860   8.062   4.130   1.953 -4.0254 -0.4179 -1.0926
  905MOL0     H24861   8.051   3.984   1.862 -4.0939  0.8144  1.5020
  905MOL0     H24862   7.981   4.268   1.798 -2.2926 -0.7314  6.2751
  905MOL0     H24863   8.012   4.151   1.665  0.1936  0.1130 -0.5288
  905MOL0     H24864   7.823   4.081   1.901 -0.8569 -0.4652 -1.1257
  905MOL0     H24865   7.816   4.011   1.751  0.3479 -1.7405  0.8134
  905MOL0     H24866   7.683   4.174   1.652  0.8192  2.0993 -1.0808
  905MOL0     H24867   7.796   4.302   1.706  1.1497  0.7346  0.1064
  905MOL0     H24868   7.687   4.330   1.905 -0.1237  0.4389  1.0715
  905MOL0     H24869   7.615   4.170   1.896  3.0321  0.7163  1.5940
  905MOL0     H24870   8.587   4.376   1.914  0.2256  1.2481 -1.4832
  905MOL0     H24871   8.839   4.447   1.938 -3.5613  0.5140  2.9233
  905MOL0     H24872   9.278   4.181   1.945 -2.2575  0.8726  0.9292
  905MOL0     H24873   9.502   4.160   2.010  3.9298  2.3954 -1.8398
  905MOL0     H24874   9.477   4.692   2.221 -0.2207 -0.7440 -0.5389
  905MOL0     H24875   9.614   4.768   2.428 -1.0455  3.4662 -2.3844
  905MOL0     H24876  10.153   4.649   2.583  1.1946  1.7337 -0.6470
  905MOL0     H24877  10.269   4.673   2.802  0.0690 -0.8166  0.6526
  905MOL0     H24878  10.296   4.843   3.158  0.3562 -0.7998 -0.2668
  905MOL0     H24879  10.362   4.750   3.018 -0.6228  0.9787 -1.3800
  905MOL0     H24880  10.317   5.044   3.032  1.8287 -0.3952  1.1817
  905MOL0     H24881  10.355   4.964   2.882 -1.7562 -0.8643 -0.4418
  905MOL0     H24882  10.580   4.918   2.933  2.0420  1.4743  0.4539
  905MOL0     H24883  10.551   5.078   2.996 -1.4958  1.0049  2.3184
  905MOL0     H24884  10.677   4.946   3.172 -0.3142  1.8673  2.6500
  905MOL0     H24885  10.542   4.829   3.172 -0.2863 -0.5552 -2.4064
  905MOL0     H24886  10.415   5.133   3.428 -2.3835  0.7002 -1.0838
  905MOL0     H24887   9.954   4.932   2.944 -0.3204 -0.8124  0.0497
  905MOL0     H24888   9.810   4.976   2.624  2.0168 -1.2828  0.6681
  905MOL0     H24889   9.719   4.841   2.721  0.2252 -0.3570  1.1727
  905MOL0     H24890   9.773   4.982   2.804 -1.7468  0.1402  0.1861
  906MOL0     O24891  11.457   6.376   9.480 -0.0375 -0.1859  0.3013
  906MOL0     C24892  11.419   6.271   9.429  0.1013 -0.7427  0.0252
  906MOL0     O24893  11.474   6.214   9.324 -0.4392 -0.9627  0.4843
  906MOL0     C24894  11.573   6.284   9.249 -0.8544  0.8572 -0.6174
  906MOL0     C24895  11.710   6.282   9.292  0.0888  0.7464  0.2758
  906MOL0     C24896  11.810   6.339   9.215 -0.4966  0.6402  0.2443
  906MOL0     C24897  11.778   6.409   9.093  0.1812 -0.9646  0.3392
  906MOL0     O24898  11.863   6.483   9.010  0.0789  0.4724  0.2673
  906MOL0     C24899  12.003   6.508   9.064 -0.7012  0.8115  0.2058
  906MOL0     C24900  12.087   6.602   8.973 -0.8501 -0.1937  0.6448
  906MOL0     C24901  12.236   6.611   9.014 -0.6785 -0.1563 -1.1843
  906MOL0     C24902  12.256   6.656   9.156 -0.2101 -0.5372 -0.7386
  906MOL0     C24903  12.398   6.725   9.181  0.2283  0.0880 -0.6977
  906MOL0     C24904  12.510   6.628   9.188 -0.6145  0.4893 -0.6808
  906MOL0     C24905  12.656   6.688   9.163 -0.4249 -0.0259 -0.6695
  906MOL0     C24906  12.692   6.703   9.018  0.8141 -0.0190  0.2259
  906MOL0     N24907  12.833   6.739   8.998  0.7434 -0.9172 -0.3055
  906MOL0     C24908  12.896   6.853   9.037 -0.6834 -0.7196 -0.3494
  906MOL0     C24909  13.028   6.839   9.017  0.5294  0.1826 -0.0722
  906MOL0     C24910  13.140   6.933   9.055  0.0903  0.0933 -0.3791
  906MOL0     C24911  13.090   7.056   9.124 -0.3871 -0.2594  1.2229
  906MOL0     C24912  13.207   7.137   9.177 -0.5720  0.6623  0.3746
  906MOL0     C24913  13.160   7.291   9.172  0.0975  0.8174 -0.2815
  906MOL0     O24914  13.209   7.367   9.283  0.9329  0.2753  0.1853
  906MOL0     C24915  13.161   7.493   9.302  0.0108 -0.5559 -0.4391
  906MOL0     C24916  13.231   7.574   9.390  0.2180 -0.1407  0.3753
  906MOL0     C24917  13.197   7.708   9.423  0.5417  0.3148 -0.6378
  906MOL0     C24918  13.269   7.767   9.544  0.4724  0.8447 -0.6038
  906MOL0     C24919  13.086   7.760   9.354 -0.6048 -0.6786  0.6458
  906MOL0     C24920  13.035   7.896   9.377 -0.4112 -0.1841 -0.2372
  906MOL0     O24921  13.119   7.979   9.452 -0.1685 -0.1838 -0.0891
  906MOL0     C24922  13.080   8.096   9.508 -0.0394 -0.5970  0.8549
  906MOL0     C24923  13.125   8.120   9.639 -0.0232  0.3399  0.1502
  906MOL0     C24924  13.086   8.241   9.709 -0.0839 -0.2519  0.4454
  906MOL0     C24925  12.990   8.324   9.644 -0.7402  0.1966 -0.2393
  906MOL0     O24926  12.954   8.439   9.713  0.1076 -0.2207 -0.4370
  906MOL0     C24927  13.051   8.520   9.784 -0.1712  0.4342 -1.2048
  906MOL0     C24928  12.986   8.649   9.834  0.1986  0.3832  0.2053
  906MOL0     C24929  13.095   8.725   9.921 -0.3672 -0.0978  0.0870
  906MOL0     C24930  13.066   8.873   9.950  0.4701  0.6379 -0.0599
  906MOL0     C24931  13.179   8.943  10.038  0.0699 -0.7412 -0.4099
  906MOL0     C24932  13.150   9.084  10.086 -0.0655  0.3165  0.7232
  906MOL0     C24933  13.067   9.174   9.990 -0.0385 -0.0521 -0.6613
  906MOL0     C24934  13.074   9.325  10.043  0.2537  0.3178 -0.8545
  906MOL0    Cl24935  13.230   9.394  10.014  0.1624 -0.5124 -0.1721
  906MOL0     C24936  12.944   8.293   9.521 -0.4282 -0.1604  0.3576
  906MOL0     C24937  13.004   8.194   9.442  0.3116 -0.7131 -0.3181
  906MOL0     O24938  12.932   7.931   9.325 -0.1380 -0.8087  0.0806
  906MOL0     C24939  13.022   7.685   9.251 -0.0105  0.0743  0.8755
  906MOL0     C24940  13.054   7.552   9.241 -0.2629 -0.9133  0.5812
  906MOL0     N24941  13.042   6.717   8.958  0.7886  0.2319  0.2192
  906MOL0     N24942  12.925   6.663   8.950  0.1640 -0.4527  0.0511
  906MOL0     C24943  11.639   6.422   9.062 -0.5754  0.6079  0.7035
  906MOL0     C24944  11.539   6.361   9.134 -0.1219  0.4277 -1.0949
  906MOL0     C24945  11.291   6.207   9.484 -1.1289 -0.1756  0.8580
  906MOL0     C24946  11.199   6.168   9.386 -0.0489  0.0650 -0.0797
  906MOL0     C24947  11.083   6.100   9.409  0.1824  0.2469  0.7465
  906MOL0     C24948  11.054   6.073   9.547  0.0977  0.0328  0.7943
  906MOL0     O24949  10.933   6.019   9.574 -0.1903  0.2944  0.6853
  906MOL0     C24950  10.942   5.897   9.655  0.0369 -0.4269  0.0615
  906MOL0     C24951  10.848   5.923   9.773  0.5352 -0.0833  0.6086
  906MOL0     C24952  10.694   5.919   9.729 -0.0285  0.7119 -0.5210
  906MOL0     C24953  10.599   5.898   9.843 -1.1739 -0.5041  0.5017
  906MOL0     C24954  10.607   6.005   9.936 -0.7415  0.4327  0.0556
  906MOL0     C24955  10.607   6.102  10.011  0.5594 -0.2041 -1.0445
  906MOL0     C24956  11.141   6.115   9.647  0.1035  1.1072  0.1006
  906MOL0     C24957  11.262   6.177   9.624  0.0765  0.0219 -0.1196
  906MOL0     C24958  11.353   6.206   9.738 -1.0119 -0.7293  0.6732
  906MOL0     H24959  11.747   6.230   9.380 -0.1633  3.1232  1.8686
  906MOL0     H24960  11.914   6.329   9.242  0.6089  1.8440 -2.9941
  906MOL0     H24961  12.064   6.418   9.077  0.7458  2.0829  2.9724
  906MOL0     H24962  11.989   6.552   9.164 -1.5223 -3.3167  2.1258
  906MOL0     H24963  12.073   6.575   8.868  1.1320  1.9606 -0.2831
  906MOL0     H24964  12.043   6.700   8.995  0.0998  0.7370 -1.2939
  906MOL0     H24965  12.271   6.508   9.018  0.9437  0.4045 -0.1379
  906MOL0     H24966  12.301   6.671   8.951 -0.8347  1.9631  0.5471
  906MOL0     H24967  12.178   6.730   9.171 -1.1122 -1.2348 -1.8091
  906MOL0     H24968  12.246   6.564   9.214 -2.1692 -1.2518 -2.1219
  906MOL0     H24969  12.392   6.780   9.276  0.6369 -2.4080  0.8564
  906MOL0     H24970  12.419   6.786   9.093  0.7507  0.5216 -0.2835
  906MOL0     H24971  12.504   6.584   9.288  3.7517 -0.2529 -0.5406
  906MOL0     H24972  12.505   6.545   9.116  0.2092  0.2493 -0.4717
  906MOL0     H24973  12.728   6.622   9.211 -0.0947  1.6651  1.3469
  906MOL0     H24974  12.671   6.782   9.218 -1.1152  1.8353 -3.4723
  906MOL0     H24975  12.680   6.605   8.970  3.7945  1.3764 -3.9967
  906MOL0     H24976  12.627   6.774   8.966 -0.7152 -1.2590  0.3793
  906MOL0     H24977  12.845   6.929   9.094 -3.3399 -1.7903 -1.1650
  906MOL0     H24978  13.194   6.968   8.967 -0.2856  3.4202  0.5430
  906MOL0     H24979  13.206   6.876   9.120 -4.0189 -1.9042  2.5384
  906MOL0     H24980  13.026   7.111   9.054  0.6173 -0.0249  0.4734
  906MOL0     H24981  13.028   7.020   9.208  1.9431 -1.8370  2.3780
  906MOL0     H24982  13.229   7.118   9.283  0.7762  2.2207  0.4118
  906MOL0     H24983  13.292   7.120   9.110 -2.1048 -4.5857 -0.6786
  906MOL0     H24984  13.184   7.337   9.076 -0.4577 -2.2775 -2.0386
  906MOL0     H24985  13.054   7.284   9.195  0.8945  0.2727  3.9943
  906MOL0     H24986  13.315   7.530   9.443  0.0719 -0.5578  0.2694
  906MOL0     H24987  13.338   7.840   9.500 -1.1831  1.7577 -1.8342
  906MOL0     H24988  13.332   7.689   9.588 -0.3192  2.0207  2.9384
  906MOL0     H24989  13.198   7.808   9.617  1.0801  0.8738 -0.0222
  906MOL0     H24990  13.179   8.040   9.687  3.0904  1.0535 -1.8633
  906MOL0     H24991  13.119   8.265   9.810 -0.8155 -0.5465  0.7609
  906MOL0     H24992  13.084   8.469   9.875 -0.9191  1.6922 -0.1933
  906MOL0     H24993  13.142   8.540   9.727  1.7688 -2.6405  0.5723
  906MOL0     H24994  12.941   8.693   9.745  0.1861  2.4361  1.1503
  906MOL0     H24995  12.900   8.634   9.900  0.5211  1.0822  0.8076
  906MOL0     H24996  13.183   8.729   9.856 -0.6030  1.9297 -0.1661
  906MOL0     H24997  13.113   8.663  10.009 -0.1617 -1.7261 -1.0529
  906MOL0     H24998  12.981   8.890  10.016  0.4582  0.7456 -0.1023
  906MOL0     H24999  13.052   8.922   9.853 -0.5549 -0.5075 -0.5101
  906MOL0     H25000  13.183   8.876  10.124  1.2533  0.2652  0.3514
  906MOL0     H25001  13.275   8.948   9.987 -0.3389  1.7796 -1.0845
  906MOL0     H25002  13.247   9.121  10.122 -1.7868  1.7099  4.4543
  906MOL0     H25003  13.088   9.068  10.174  0.3497 -0.1512  0.9341
  906MOL0     H25004  12.962   9.144   9.985 -0.3146  1.0661 -3.1465
  906MOL0     H25005  13.110   9.163   9.890  3.5964 -1.1982  0.8605
  906MOL0     H25006  13.035   9.336  10.145  0.0904  0.8077 -0.9682
  906MOL0     H25007  13.006   9.391   9.987  0.7592  0.2558 -1.5578
  906MOL0     H25008  12.880   8.370   9.479 -1.2773 -0.0195  1.8318
  906MOL0     H25009  12.989   8.188   9.335  3.3262 -0.3913 -0.8468
  906MOL0     H25010  12.941   7.725   9.190  2.1552  1.3322 -1.3754
  906MOL0     H25011  13.004   7.485   9.171  1.3861 -2.0805  0.4644
  906MOL0     H25012  11.619   6.470   8.967  0.5595  0.6915  0.4857
  906MOL0     H25013  11.434   6.353   9.108 -0.4047 -0.6572  0.2373
  906MOL0     H25014  11.223   6.205   9.287 -2.0756  1.4196 -0.1173
  906MOL0     H25015  11.008   6.080   9.334  1.0552  1.0960 -0.3855
  906MOL0     H25016  10.904   5.811   9.598  0.2385 -1.1541  0.9963
  906MOL0     H25017  11.045   5.880   9.688  0.7780 -0.1389 -1.9860
  906MOL0     H25018  10.873   6.020   9.815 -0.3884 -0.4891  2.1485
  906MOL0     H25019  10.874   5.855   9.854  4.7613 -1.4516 -1.5958
  906MOL0     H25020  10.673   6.012   9.675 -1.1432  1.1085  0.5456
  906MOL0     H25021  10.691   5.841   9.652 -0.4427 -0.8177  0.9775
  906MOL0     H25022  10.625   5.807   9.898  1.2140 -0.1231  0.1223
  906MOL0     H25023  10.497   5.885   9.806 -1.2945  0.9555  0.2457
  906MOL0     H25024  10.617   6.184  10.079  1.4968 -0.4512 -0.8612
  906MOL0     H25025  11.127   6.090   9.752  2.0143  1.4518  0.4868
  906MOL0     H25026  11.437   6.271   9.713 -1.4126 -0.3011  0.4323
  906MOL0     H25027  11.291   6.248   9.818 -0.1519  1.7227  0.1264
  906MOL0     H25028  11.392   6.112   9.779 -3.1476 -1.2450  1.7076
  907MOL0     O25029   5.133   6.360   2.258 -0.1268  0.6105 -0.3978
  907MOL0     C25030   5.237   6.314   2.296 -0.5795 -0.2254 -0.4893
  907MOL0     O25031   5.360   6.352   2.252  0.4064  0.3982 -0.1144
  907MOL0     C25032   5.369   6.446   2.157 -0.2163 -0.0344  0.2301
  907MOL0     C25033   5.357   6.411   2.025 -0.2566 -0.7739 -0.4322
  907MOL0     C25034   5.378   6.504   1.920  0.2334  1.6611 -0.7421
  907MOL0     C25035   5.440   6.622   1.947 -0.8126 -0.6031 -0.2019
  907MOL0     O25036   5.491   6.700   1.844 -0.1384  0.5749  0.3093
  907MOL0     C25037   5.450   6.683   1.709 -0.1247  0.1683  0.1412
  907MOL0     C25038   5.522   6.794   1.629  1.1674 -0.4976  0.7117
  907MOL0     C25039   5.481   6.802   1.475 -0.1190 -0.5528  0.3606
  907MOL0     C25040   5.587   6.866   1.391 -0.0727  0.2019  0.1171
  907MOL0     C25041   5.523   6.940   1.264 -0.0324 -0.4170 -0.5348
  907MOL0     C25042   5.632   7.011   1.178  1.1201  0.6237 -0.5716
  907MOL0     C25043   5.570   7.066   1.048 -0.0609  0.3656 -0.1152
  907MOL0     C25044   5.676   7.146   0.973  0.8563 -0.2330 -0.0258
  907MOL0     N25045   5.632   7.205   0.843  0.2032  0.2307  0.3471
  907MOL0     C25046   5.721   7.252   0.746 -1.2261  0.0025  0.3030
  907MOL0     C25047   5.640   7.294   0.647  0.7188  0.7817 -0.4596
  907MOL0     C25048   5.693   7.345   0.519 -0.6325 -0.3331  0.9498
  907MOL0     C25049   5.739   7.483   0.546  0.0318 -0.1479 -0.0466
  907MOL0     C25050   5.627   7.584   0.563 -0.1412 -0.0232  0.9032
  907MOL0     C25051   5.688   7.724   0.568 -0.3749 -0.5881 -0.2949
  907MOL0     O25052   5.698   7.788   0.436 -0.2234 -0.4101 -0.2263
  907MOL0     C25053   5.801   7.880   0.451 -1.1509  0.4434  0.2192
  907MOL0     C25054   5.776   8.009   0.412 -0.6040 -1.3278  0.2448
  907MOL0     C25055   5.874   8.108   0.400 -0.4789 -1.3250 -0.9690
  907MOL0     C25056   5.824   8.247   0.366 -0.4882  0.0390 -0.3956
  907MOL0     C25057   6.009   8.082   0.413 -0.5973  0.7282  0.0261
  907MOL0     C25058   6.132   8.164   0.362  0.1641 -0.4953  0.6378
  907MOL0     O25059   6.246   8.136   0.423 -0.1110  0.2739 -0.0182
  907MOL0     C25060   6.324   8.237   0.466  0.0103 -0.6200 -0.0291
  907MOL0     C25061   6.452   8.193   0.507  0.1575  0.8087  0.0269
  907MOL0     C25062   6.544   8.286   0.563  0.6211  1.3854 -0.1985
  907MOL0     C25063   6.500   8.420   0.589  0.3498  1.1395  0.0040
  907MOL0     O25064   6.571   8.514   0.655 -0.2634 -0.4430 -0.0706
  907MOL0     C25065   6.515   8.550   0.787  0.0861 -0.0217 -0.3706
  907MOL0     C25066   6.606   8.647   0.869  0.7076  0.9331  0.5874
  907MOL0     C25067   6.752   8.613   0.868 -0.4093 -0.1302  0.7172
  907MOL0     C25068   6.832   8.709   0.956  0.1309 -0.3277  0.0811
  907MOL0     C25069   6.973   8.659   0.971  0.4439 -0.2478 -0.2718
  907MOL0     C25070   7.059   8.793   1.012  0.3525  0.2116  0.0941
  907MOL0     C25071   7.208   8.763   1.044 -0.2158  0.5573 -0.5837
  907MOL0     C25072   7.277   8.894   1.079 -0.5043 -0.5652 -0.6284
  907MOL0    Cl25073   7.220   8.956   1.231  0.0814  0.4578 -0.0864
  907MOL0     C25074   6.373   8.461   0.549  0.6462 -0.7591  1.1961
  907MOL0     C25075   6.289   8.376   0.481  0.1348  0.8684  0.3936
  907MOL0     O25076   6.119   8.255   0.277 -0.0692 -1.1382  1.0675
  907MOL0     C25077   6.038   7.946   0.459 -0.3088 -0.6314  0.1136
  907MOL0     C25078   5.934   7.854   0.486  0.0938 -0.2374 -0.0264
  907MOL0     N25079   5.507   7.269   0.676 -0.2887  0.1141  0.0435
  907MOL0     N25080   5.508   7.215   0.796  0.6803  0.4235 -0.3541
  907MOL0     C25081   5.456   6.657   2.082 -0.2176 -0.2382  0.1570
  907MOL0     C25082   5.414   6.572   2.184  0.5407 -1.3846 -0.0526
  907MOL0     C25083   5.247   6.208   2.396 -1.0295 -0.5192  0.5463
  907MOL0     C25084   5.368   6.204   2.468 -0.0245  0.0290  0.5996
  907MOL0     C25085   5.388   6.102   2.560  0.4375  1.0674 -0.6539
  907MOL0     C25086   5.284   6.014   2.601  0.3202 -0.8618  0.7258
  907MOL0     O25087   5.313   5.946   2.713  0.7168  0.0719  0.6114
  907MOL0     C25088   5.232   5.829   2.735  0.1148  1.1950  0.6922
  907MOL0     C25089   5.263   5.777   2.871  0.4322 -0.7488 -0.5073
  907MOL0     C25090   5.394   5.711   2.880  0.4325  0.4624 -0.3776
  907MOL0     C25091   5.448   5.671   3.030  0.2413  0.5753  0.3159
  907MOL0     C25092   5.360   5.577   3.099  0.1506  0.1876 -0.7526
  907MOL0     C25093   5.275   5.507   3.153 -0.9689  0.5489  0.1219
  907MOL0     C25094   5.170   6.015   2.526 -0.4800 -0.0454  0.4681
  907MOL0     C25095   5.157   6.107   2.414  0.8583  0.5697 -0.2007
  907MOL0     C25096   5.042   6.086   2.314 -0.3361 -0.3869 -0.0262
  907MOL0     H25097   5.316   6.313   2.001 -2.5614  0.5578 -2.4519
  907MOL0     H25098   5.352   6.474   1.819 -1.4948  2.0870 -0.4527
  907MOL0     H25099   5.340   6.684   1.707 -0.1255 -0.2663 -0.4038
  907MOL0     H25100   5.482   6.588   1.665  1.2815  0.5962  0.2199
  907MOL0     H25101   5.490   6.883   1.683 -0.0356 -0.5284  0.0803
  907MOL0     H25102   5.630   6.778   1.633  1.4502  0.6751 -1.1553
  907MOL0     H25103   5.475   6.699   1.436  1.8052 -0.5630 -0.0071
  907MOL0     H25104   5.386   6.853   1.458  0.8423  0.9751 -0.6580
  907MOL0     H25105   5.646   6.930   1.457  0.3380  2.0496 -1.9227
  907MOL0     H25106   5.657   6.791   1.353  1.5017  3.2614 -3.7940
  907MOL0     H25107   5.453   7.018   1.296 -0.5732 -1.3389  0.6147
  907MOL0     H25108   5.456   6.880   1.201 -1.9958  1.9864 -0.9018
  907MOL0     H25109   5.659   7.103   1.231  1.2742 -0.6420  1.6790
  907MOL0     H25110   5.723   6.950   1.173 -0.0415 -1.7558  3.1228
  907MOL0     H25111   5.480   7.128   1.060 -0.0413  0.5663 -0.9015
  907MOL0     H25112   5.560   6.983   0.978  0.6999 -1.0319  1.3979
  907MOL0     H25113   5.699   7.231   1.038 -1.2832 -0.0522  0.5545
  907MOL0     H25114   5.762   7.079   0.968  1.8002  0.9913 -0.8934
  907MOL0     H25115   5.829   7.246   0.747 -1.1492  0.4041 -1.9131
  907MOL0     H25116   5.617   7.355   0.441  1.2998 -2.5403 -1.3705
  907MOL0     H25117   5.767   7.279   0.473 -0.9097  1.5210 -2.3814
  907MOL0     H25118   5.808   7.473   0.630  1.9106  0.5497 -1.4404
  907MOL0     H25119   5.793   7.514   0.456 -0.8435  0.1715 -0.4840
  907MOL0     H25120   5.558   7.568   0.479 -0.5741 -0.8003  1.3926
  907MOL0     H25121   5.567   7.559   0.651 -2.5106  2.9050  0.3043
  907MOL0     H25122   5.622   7.790   0.624 -1.9961 -4.1769  2.4517
  907MOL0     H25123   5.776   7.714   0.633 -1.3417 -0.5560  1.0651
  907MOL0     H25124   5.674   8.035   0.387 -0.9516 -1.2011  1.7015
  907MOL0     H25125   5.877   8.316   0.432 -0.0256 -0.1855 -0.5199
  907MOL0     H25126   5.717   8.265   0.376 -0.1883  0.9291  1.6368
  907MOL0     H25127   5.854   8.272   0.264  0.3163 -4.5380 -1.5234
  907MOL0     H25128   6.469   8.086   0.498 -1.3919  0.5991 -0.6245
  907MOL0     H25129   6.645   8.266   0.595  0.8110  1.5407 -0.6869
  907MOL0     H25130   6.425   8.610   0.769 -0.3641  0.9070  3.9551
  907MOL0     H25131   6.491   8.463   0.849 -0.9664 -0.9007 -1.9545
  907MOL0     H25132   6.601   8.741   0.814  0.5316  1.2119  1.0717
  907MOL0     H25133   6.578   8.663   0.973  1.0191 -1.1697  1.0491
  907MOL0     H25134   6.792   8.607   0.766  1.2772 -3.1218  1.4509
  907MOL0     H25135   6.767   8.507   0.890  0.5521 -0.5544 -1.6538
  907MOL0     H25136   6.782   8.697   1.052  0.0409  1.5686  0.3134
  907MOL0     H25137   6.819   8.817   0.941  1.6388 -0.1438 -0.1284
  907MOL0     H25138   6.966   8.577   1.043 -0.8380 -0.7247 -0.9205
  907MOL0     H25139   7.011   8.613   0.879  0.6246 -1.2687  0.2937
  907MOL0     H25140   7.003   8.836   1.096  1.2955  2.5317 -0.3826
  907MOL0     H25141   7.047   8.865   0.930 -2.2052  0.8831  0.9591
  907MOL0     H25142   7.268   8.740   0.955  1.7970  0.0197  0.8496
  907MOL0     H25143   7.239   8.689   1.118  5.4069  1.3404 -1.7334
  907MOL0     H25144   7.268   8.973   1.004  1.2253  0.7056  0.4093
  907MOL0     H25145   7.383   8.871   1.092  0.1390  2.9637  2.2136
  907MOL0     H25146   6.358   8.567   0.567 -0.9310 -0.9643  1.2382
  907MOL0     H25147   6.199   8.425   0.444  0.5354  3.2214  2.2060
  907MOL0     H25148   6.138   7.905   0.473 -2.0651 -5.7286 -0.0979
  907MOL0     H25149   5.954   7.749   0.502  0.9527  0.0285  0.8144
  907MOL0     H25150   5.496   6.752   2.116  1.3641 -0.4034 -1.0917
  907MOL0     H25151   5.429   6.595   2.289  2.8252 -1.5182 -0.3030
  907MOL0     H25152   5.447   6.273   2.443 -1.5826  1.2624 -1.2164
  907MOL0     H25153   5.487   6.077   2.598  0.1585 -0.1848 -0.7172
  907MOL0     H25154   5.124   5.847   2.735 -0.1925 -0.4766  1.7386
  907MOL0     H25155   5.255   5.756   2.658 -2.5221  0.4767  0.4701
  907MOL0     H25156   5.187   5.710   2.910  0.1017  0.7358  1.5554
  907MOL0     H25157   5.255   5.862   2.939 -1.1733 -0.0762 -1.4533
  907MOL0     H25158   5.397   5.612   2.834 -0.2890  0.1810  0.1667
  907MOL0     H25159   5.475   5.757   2.822  1.8824 -1.7357 -0.2367
  907MOL0     H25160   5.458   5.757   3.097 -0.5879 -1.3140  3.0411
  907MOL0     H25161   5.544   5.620   3.021 -0.4097 -0.6636  0.1108
  907MOL0     H25162   5.215   5.431   3.199  0.4035 -1.2293 -0.9085
  907MOL0     H25163   5.091   5.941   2.529 -0.7818 -0.1035 -3.5365
  907MOL0     H25164   4.954   6.143   2.343 -1.3275 -1.8458 -0.0575
  907MOL0     H25165   5.073   6.121   2.215  2.3586  1.5354  1.3699
  907MOL0     H25166   4.997   5.987   2.300 -0.9357  0.2172 -2.9162
  908MOL0     O25167   8.620   5.279   8.411  0.8788  0.0233 -0.3819
  908MOL0     C25168   8.497   5.316   8.424 -0.1680 -0.0551  0.9304
  908MOL0     O25169   8.447   5.434   8.382  0.4211  0.0926 -0.6596
  908MOL0     C25170   8.452   5.464   8.247 -0.2431 -0.7671 -0.7795
  908MOL0     C25171   8.467   5.605   8.214  0.0583 -0.3987 -0.0038
  908MOL0     C25172   8.455   5.643   8.077 -0.3272 -0.3995  0.1163
  908MOL0     C25173   8.456   5.542   7.976  0.2251  0.2930  0.8965
  908MOL0     O25174   8.456   5.564   7.837 -0.0549  0.0459 -1.1518
  908MOL0     C25175   8.395   5.690   7.787 -0.6465 -0.2939  0.2953
  908MOL0     C25176   8.348   5.661   7.651  0.3040 -1.0505  1.1947
  908MOL0     C25177   8.198   5.623   7.645 -0.8110  0.2238 -1.2560
  908MOL0     C25178   8.181   5.480   7.694  1.1569 -0.2369  0.1848
  908MOL0     C25179   8.043   5.416   7.668 -0.0481  0.1225  0.3717
  908MOL0     C25180   8.052   5.328   7.542 -0.1183 -1.3253 -0.0194
  908MOL0     C25181   8.069   5.412   7.410 -0.6499 -0.5139  0.2002
  908MOL0     C25182   8.025   5.321   7.292  0.1631 -0.0993  0.6642
  908MOL0     N25183   8.053   5.381   7.161 -0.6801  0.5693  0.3333
  908MOL0     C25184   7.979   5.475   7.103 -1.1341 -0.3206 -1.0208
  908MOL0     C25185   8.046   5.503   6.992 -0.1525 -0.5271 -0.1619
  908MOL0     C25186   8.006   5.612   6.888  0.0883 -0.7253 -0.3236
  908MOL0     C25187   8.106   5.736   6.883 -0.1921 -0.2648 -0.2034
  908MOL0     C25188   8.061   5.840   6.780 -0.7913  0.0107  0.4087
  908MOL0     C25189   8.160   5.961   6.793  0.4594  0.1857  0.0319
  908MOL0     O25190   8.090   6.059   6.886 -0.0197  0.3596 -0.1608
  908MOL0     C25191   8.163   6.169   6.934 -0.0566 -0.7912  0.6383
  908MOL0     C25192   8.297   6.196   6.929 -0.0279  0.0787  0.0309
  908MOL0     C25193   8.355   6.309   6.981 -0.8040 -0.5171  1.2247
  908MOL0     C25194   8.513   6.318   6.969  0.9803 -0.5261  0.4029
  908MOL0     C25195   8.278   6.414   7.039  0.6067  0.9754 -0.3994
  908MOL0     C25196   8.333   6.539   7.093  0.1977 -0.0943 -0.3972
  908MOL0     O25197   8.264   6.587   7.202  0.3231  0.5757  0.0806
  908MOL0     C25198   8.321   6.689   7.281  0.1687  0.0018 -0.1609
  908MOL0     C25199   8.438   6.673   7.349 -0.7551  0.3658  0.0648
  908MOL0     C25200   8.495   6.772   7.428 -0.4110 -0.1871  1.0727
  908MOL0     C25201   8.434   6.892   7.449 -0.2519  0.5574 -0.9177
  908MOL0     O25202   8.481   6.994   7.537  0.4806 -0.1916  0.4126
  908MOL0     C25203   8.619   7.027   7.540 -0.3624 -0.2121 -0.3274
  908MOL0     C25204   8.624   7.160   7.608 -0.9466  0.4279 -0.4391
  908MOL0     C25205   8.768   7.219   7.614 -0.0891 -0.4086  0.2686
  908MOL0     C25206   8.838   7.271   7.483  0.6739  0.6369  0.6875
  908MOL0     C25207   8.774   7.394   7.407  0.5530  0.4288  0.9226
  908MOL0     C25208   8.760   7.511   7.497 -0.6474  0.4011  0.2617
  908MOL0     C25209   8.742   7.634   7.411  0.4362  0.2628  0.3839
  908MOL0     C25210   8.790   7.759   7.474 -0.2978  0.0731  0.1930
  908MOL0    Cl25211   8.685   7.793   7.617  0.0864 -1.0233  0.1421
  908MOL0     C25212   8.305   6.909   7.386 -0.6700  0.7767 -0.2841
  908MOL0     C25213   8.250   6.812   7.303  0.4389  0.3857 -1.4845
  908MOL0     O25214   8.435   6.579   7.048 -0.5251  0.5815 -0.3308
  908MOL0     C25215   8.139   6.393   7.043 -0.0203  0.8755  0.6134
  908MOL0     C25216   8.085   6.268   6.995 -0.0724  0.5007 -0.9243
  908MOL0     N25217   8.161   5.427   6.988 -0.1093  0.6089  0.8935
  908MOL0     N25218   8.158   5.343   7.082 -0.9391 -0.0686 -1.1674
  908MOL0     C25219   8.463   5.408   8.005  0.2236  0.1635 -0.8826
  908MOL0     C25220   8.460   5.373   8.141  0.3852 -0.5180  0.5018
  908MOL0     C25221   8.408   5.212   8.482 -0.5469  1.1750 -0.3586
  908MOL0     C25222   8.282   5.184   8.423  0.5554 -0.2206  0.4123
  908MOL0     C25223   8.193   5.081   8.461 -0.3117  1.1334 -0.2965
  908MOL0     C25224   8.250   4.989   8.555 -0.1645 -0.0213  0.3480
  908MOL0     O25225   8.183   4.880   8.594 -0.5123  0.4579 -0.5432
  908MOL0     C25226   8.061   4.834   8.533 -0.6883 -1.3600  0.2501
  908MOL0     C25227   8.053   4.690   8.579  0.5920  0.5293 -0.4220
  908MOL0     C25228   7.928   4.624   8.533  0.5715  0.3704 -0.2699
  908MOL0     C25229   7.902   4.504   8.616 -0.1093  0.3667 -0.0054
  908MOL0     C25230   7.793   4.415   8.559 -1.9744 -0.4170  0.1654
  908MOL0     C25231   7.699   4.351   8.523 -0.1072  0.3293 -0.1289
  908MOL0     C25232   8.364   5.018   8.625 -0.1830 -0.7266  0.1366
  908MOL0     C25233   8.447   5.133   8.591  0.1916 -1.0796  0.0842
  908MOL0     C25234   8.559   5.168   8.677 -0.5576  0.6217  1.1873
  908MOL0     H25235   8.482   5.682   8.288  3.1410 -1.8835  1.0712
  908MOL0     H25236   8.460   5.749   8.052  1.3079 -0.8388 -1.7065
  908MOL0     H25237   8.479   5.760   7.785 -1.6315  0.9467 -2.0227
  908MOL0     H25238   8.311   5.716   7.851 -1.5108 -3.4785  0.6272
  908MOL0     H25239   8.371   5.744   7.585  3.3902 -2.5282  0.2355
  908MOL0     H25240   8.413   5.579   7.619  1.0357 -0.7546  1.9072
  908MOL0     H25241   8.146   5.688   7.715  0.8225  0.0760  0.1739
  908MOL0     H25242   8.158   5.634   7.544  1.7218 -0.6800 -2.4690
  908MOL0     H25243   8.260   5.421   7.648  1.7769  0.9469 -0.3323
  908MOL0     H25244   8.188   5.479   7.803 -0.4716 -5.1300  0.4671
  908MOL0     H25245   7.962   5.489   7.659 -2.2199 -1.6830  3.1771
  908MOL0     H25246   8.025   5.342   7.747  0.9165  0.0066  0.4883
  908MOL0     H25247   8.139   5.262   7.544  1.5805  0.8000 -0.5757
  908MOL0     H25248   7.962   5.265   7.536  0.1244 -1.6257 -0.6040
  908MOL0     H25249   8.173   5.442   7.395 -0.8369 -0.7505 -1.7043
  908MOL0     H25250   8.015   5.506   7.411  0.1771 -0.0320  0.7820
  908MOL0     H25251   8.064   5.221   7.316 -1.5518 -0.5642  1.6613
  908MOL0     H25252   7.917   5.325   7.306 -0.0046  2.6820 -0.7555
  908MOL0     H25253   7.896   5.527   7.150  0.3690 -0.0858  1.5837
  908MOL0     H25254   7.916   5.663   6.923  0.9327 -0.9741  2.4272
  908MOL0     H25255   7.999   5.561   6.792  0.2762 -1.5998  0.1173
  908MOL0     H25256   8.088   5.770   6.985 -1.2081 -3.6418  0.8813
  908MOL0     H25257   8.206   5.694   6.870 -0.8869 -1.3364 -2.8180
  908MOL0     H25258   8.065   5.793   6.681  0.9803 -0.6698  0.7620
  908MOL0     H25259   7.956   5.860   6.803 -1.1749  0.1994 -1.3693
  908MOL0     H25260   8.249   5.918   6.840 -1.2750 -0.9076  2.5881
  908MOL0     H25261   8.175   6.003   6.693  2.4722 -2.2298 -0.7894
  908MOL0     H25262   8.355   6.117   6.882 -0.5227 -2.0336  2.7240
  908MOL0     H25263   8.554   6.336   7.069 -3.3598  1.8521  2.0029
  908MOL0     H25264   8.540   6.403   6.906  0.9010  0.5503  1.7767
  908MOL0     H25265   8.554   6.225   6.927  0.8065  0.5042 -2.2518
  908MOL0     H25266   8.509   6.592   7.333 -0.0983  0.5381  1.8548
  908MOL0     H25267   8.592   6.762   7.477 -0.6288  1.6114  1.9542
  908MOL0     H25268   8.666   6.961   7.613  0.8056 -0.6817 -1.4575
  908MOL0     H25269   8.679   7.029   7.448 -1.1802  0.7154 -0.8579
  908MOL0     H25270   8.542   7.219   7.567 -1.3822 -0.0258 -0.2334
  908MOL0     H25271   8.594   7.137   7.711  4.2971 -0.1450  1.2727
  908MOL0     H25272   8.837   7.140   7.647  0.8330 -0.4455 -1.6223
  908MOL0     H25273   8.764   7.299   7.688  0.9193 -1.8266  1.9482
  908MOL0     H25274   8.847   7.181   7.421  1.1719 -1.2741  3.3504
  908MOL0     H25275   8.946   7.287   7.490  1.0255  0.3070 -2.5971
  908MOL0     H25276   8.820   7.419   7.311  2.0457  0.6618  1.6729
  908MOL0     H25277   8.673   7.367   7.374 -0.7204  3.4755  1.9828
  908MOL0     H25278   8.852   7.520   7.556 -1.8153 -0.4892  2.3133
  908MOL0     H25279   8.687   7.491   7.575 -0.9963 -1.3926 -0.4751
  908MOL0     H25280   8.639   7.642   7.378  1.3229  0.4660 -2.6163
  908MOL0     H25281   8.794   7.617   7.316  0.5378 -0.0804  0.4991
  908MOL0     H25282   8.793   7.849   7.412  6.0882  0.2916  0.1811
  908MOL0     H25283   8.894   7.742   7.504 -0.5513 -0.7586  0.6373
  908MOL0     H25284   8.250   7.000   7.408 -1.8354 -0.5623  2.8725
  908MOL0     H25285   8.157   6.828   7.249  0.1737 -1.6356 -1.7069
  908MOL0     H25286   8.061   6.454   7.087 -1.1337  1.5664 -2.1422
  908MOL0     H25287   7.978   6.263   7.014  0.3288  1.5493  2.1067
  908MOL0     H25288   8.476   5.327   7.935  1.0658 -1.7478  1.3739
  908MOL0     H25289   8.468   5.266   8.158  1.3657 -0.9774 -2.3649
  908MOL0     H25290   8.252   5.237   8.334 -0.9682 -1.3084  0.2366
  908MOL0     H25291   8.093   5.064   8.422  0.0613  2.3914 -1.8946
  908MOL0     H25292   7.972   4.888   8.567  0.2037 -0.7206  1.6593
  908MOL0     H25293   8.062   4.850   8.425 -2.1468 -2.0250  0.1207
  908MOL0     H25294   8.064   4.691   8.688 -1.1484  0.2161 -0.2156
  908MOL0     H25295   8.134   4.628   8.538 -1.8009 -1.1462 -2.9919
  908MOL0     H25296   7.840   4.690   8.535  0.2381  0.1914 -3.3954
  908MOL0     H25297   7.950   4.598   8.429  1.1051  0.7673 -0.2563
  908MOL0     H25298   7.875   4.531   8.719  0.6531 -0.3717  0.4025
  908MOL0     H25299   7.992   4.444   8.629 -0.2219  0.4022  1.0616
  908MOL0     H25300   7.624   4.287   8.481 -0.2949  1.7519 -2.0939
  908MOL0     H25301   8.381   4.960   8.716  0.8154 -0.3143  0.2293
  908MOL0     H25302   8.544   5.268   8.719 -3.9252 -0.4838  2.9465
  908MOL0     H25303   8.562   5.101   8.764  1.7524 -1.8690 -0.6306
  908MOL0     H25304   8.654   5.171   8.621 -1.2970 -0.5395 -0.1838
  909MOL0     O25305   8.886   2.286   3.687 -0.3429  0.8865  0.4109
  909MOL0     C25306   8.785   2.212   3.686  0.3199  1.0162  0.0610
  909MOL0     O25307   8.776   2.088   3.751 -0.3822  0.2460  0.4454
  909MOL0     C25308   8.881   2.028   3.811 -0.1578  0.4523  0.0633
  909MOL0     C25309   9.007   2.081   3.841 -0.5267  0.2051 -0.6838
  909MOL0     C25310   9.103   2.000   3.908  0.7563 -0.4990  0.4982
  909MOL0     C25311   9.075   1.873   3.964 -0.9046  0.2182  0.1071
  909MOL0     O25312   9.170   1.798   4.037 -0.9520 -0.6227  0.1129
  909MOL0     C25313   9.253   1.871   4.131 -1.1550 -0.6619 -0.3269
  909MOL0     C25314   9.323   1.769   4.233  0.4567  0.0070  0.5454
  909MOL0     C25315   9.401   1.855   4.326  0.3796  0.2100 -0.5570
  909MOL0     C25316   9.514   1.779   4.388 -0.2893 -0.0144  0.2483
  909MOL0     C25317   9.584   1.857   4.506  0.7117  0.5126  0.7492
  909MOL0     C25318   9.682   1.769   4.577 -0.4148 -0.3774 -0.1647
  909MOL0     C25319   9.754   1.837   4.688 -0.0144 -0.9391 -0.3725
  909MOL0     C25320   9.852   1.941   4.638  0.5355 -0.2023  0.0258
  909MOL0     N25321   9.925   1.995   4.755 -0.3783 -0.4225  0.1508
  909MOL0     C25322  10.054   1.970   4.795  0.3515  0.2073 -0.1844
  909MOL0     C25323  10.074   2.052   4.903 -0.1828 -0.1078  0.2463
  909MOL0     C25324  10.201   2.033   4.981 -0.1091 -0.8121 -0.1317
  909MOL0     C25325  10.257   2.153   5.061  0.2081 -0.1876  0.0678
  909MOL0     C25326  10.351   2.106   5.170 -0.0353  0.9674 -0.9890
  909MOL0     C25327  10.394   2.214   5.271  0.7826  0.2781  0.5096
  909MOL0     O25328  10.457   2.329   5.200  0.1085 -0.0906  0.3453
  909MOL0     C25329  10.577   2.373   5.241  0.0631 -0.1000  0.3200
  909MOL0     C25330  10.627   2.374   5.372  0.4222 -0.4750  0.8361
  909MOL0     C25331  10.767   2.398   5.397 -0.5490  0.8029  0.5787
  909MOL0     C25332  10.823   2.412   5.540 -0.1298  0.3148  0.0082
  909MOL0     C25333  10.853   2.400   5.288  0.3735  0.6680  1.0634
  909MOL0     C25334  10.996   2.377   5.301 -0.0925 -0.1241 -0.2840
  909MOL0     O25335  11.078   2.412   5.198  0.5980 -0.2781 -0.5047
  909MOL0     C25336  11.215   2.383   5.191  1.2270 -0.3549 -0.0893
  909MOL0     C25337  11.268   2.247   5.187 -0.2760 -0.0833  0.0766
  909MOL0     C25338  11.410   2.231   5.161  0.2984  0.5847 -0.6592
  909MOL0     C25339  11.491   2.346   5.130  0.0448 -0.1973 -0.4999
  909MOL0     O25340  11.618   2.318   5.110  0.2991  0.5479 -0.7492
  909MOL0     C25341  11.720   2.408   5.058  0.6010  0.0388 -0.5362
  909MOL0     C25342  11.853   2.332   5.054  0.5731 -1.2552  0.2055
  909MOL0     C25343  11.907   2.294   5.186  0.0187 -0.4727  0.4222
  909MOL0     C25344  12.051   2.271   5.191  0.2317  0.7834  0.5135
  909MOL0     C25345  12.102   2.184   5.312  0.1091  0.4290 -0.0376
  909MOL0     C25346  12.091   2.246   5.447  0.5276 -0.2507  0.6927
  909MOL0     C25347  12.171   2.179   5.564 -0.5944 -0.0614 -0.0603
  909MOL0     C25348  12.329   2.195   5.543  0.8054 -0.0221 -0.5753
  909MOL0    Cl25349  12.402   2.068   5.434  0.3495  0.2332  0.2252
  909MOL0     C25350  11.435   2.479   5.127  0.0603 -0.0107  0.8649
  909MOL0     C25351  11.295   2.494   5.161  0.5939  0.6601  0.5462
  909MOL0     O25352  11.037   2.314   5.399  0.3780 -0.1607 -0.6057
  909MOL0     C25353  10.803   2.422   5.158  0.1492  0.8060  0.1442
  909MOL0     C25354  10.670   2.391   5.138 -0.7004 -0.7172 -0.4453
  909MOL0     N25355   9.968   2.135   4.919  0.2412  0.2421  0.2442
  909MOL0     N25356   9.875   2.100   4.836  0.2060  0.2264  0.6714
  909MOL0     C25357   8.955   1.821   3.932  0.1320  0.2409  0.2092
  909MOL0     C25358   8.860   1.893   3.858 -0.3381 -0.2727  0.3608
  909MOL0     C25359   8.657   2.268   3.635 -0.8993  0.2134 -0.7529
  909MOL0     C25360   8.535   2.227   3.716 -0.0983 -0.4924 -0.3764
  909MOL0     C25361   8.414   2.274   3.674  1.3485  0.0861  0.1706
  909MOL0     C25362   8.403   2.356   3.563  0.8228  0.3237  0.2404
  909MOL0     O25363   8.286   2.411   3.532  0.4404  0.5997  0.2831
  909MOL0     C25364   8.180   2.311   3.504 -0.5287  0.4536 -0.0370
  909MOL0     C25365   8.058   2.325   3.599 -0.2142 -0.4874  0.6088
  909MOL0     C25366   7.955   2.218   3.569  0.5197  0.1523 -0.2881
  909MOL0     C25367   7.806   2.255   3.599 -0.1955  0.1783 -0.7190
  909MOL0     C25368   7.713   2.163   3.532  0.4232  0.9308  0.4627
  909MOL0     C25369   7.631   2.081   3.489 -0.7029 -0.9484 -0.1823
  909MOL0     C25370   8.518   2.387   3.483 -0.0016  0.9274  0.3217
  909MOL0     C25371   8.643   2.345   3.521  0.2544  0.5342  0.5868
  909MOL0     C25372   8.766   2.367   3.429  0.5550  0.8143  0.5295
  909MOL0     H25373   9.038   2.181   3.812 -2.8967  1.5701  1.1323
  909MOL0     H25374   9.195   2.053   3.930  1.5113 -1.1987 -0.8814
  909MOL0     H25375   9.189   1.940   4.187 -1.5665  0.0926 -1.6636
  909MOL0     H25376   9.338   1.926   4.090  0.3040  1.2395  4.5867
  909MOL0     H25377   9.239   1.718   4.280  0.2217 -0.0944  0.0215
  909MOL0     H25378   9.387   1.698   4.181  3.7937  2.2799  1.2053
  909MOL0     H25379   9.438   1.944   4.275  2.9226  0.2062  1.1390
  909MOL0     H25380   9.335   1.891   4.405 -2.9086 -5.9113  0.1385
  909MOL0     H25381   9.485   1.683   4.432  0.5354 -0.7334 -0.7082
  909MOL0     H25382   9.578   1.750   4.304 -0.3604 -2.6113  1.0037
  909MOL0     H25383   9.506   1.887   4.577 -0.7063  0.9137 -0.9206
  909MOL0     H25384   9.638   1.940   4.460  0.4818 -1.2499 -3.0531
  909MOL0     H25385   9.629   1.681   4.615  1.5739 -1.7397 -0.4298
  909MOL0     H25386   9.752   1.734   4.500  2.7570 -1.5039  2.9781
  909MOL0     H25387   9.807   1.757   4.741 -0.8450 -1.4305 -0.2598
  909MOL0     H25388   9.674   1.873   4.754  0.5775 -0.5660  0.1482
  909MOL0     H25389   9.928   1.895   4.574  1.7009  0.2554  1.0517
  909MOL0     H25390   9.793   2.018   4.588 -0.6702  1.3717  3.5973
  909MOL0     H25391  10.124   1.898   4.753  0.4116 -1.0016  1.8853
  909MOL0     H25392  10.273   1.997   4.907 -0.6922 -1.0535 -0.5931
  909MOL0     H25393  10.176   1.952   5.049 -0.4724  0.7473  1.6588
  909MOL0     H25394  10.304   2.220   4.989 -1.4751 -1.6317 -2.5072
  909MOL0     H25395  10.175   2.204   5.112 -0.0248 -0.3539 -0.1410
  909MOL0     H25396  10.301   2.028   5.228 -0.1537 -0.2098 -2.6107
  909MOL0     H25397  10.442   2.064   5.125  0.7277  0.2133  1.1170
  909MOL0     H25398  10.306   2.254   5.323  0.4949 -0.6530  0.7634
  909MOL0     H25399  10.464   2.171   5.343  0.2726 -0.1684  0.7518
  909MOL0     H25400  10.557   2.349   5.451  0.5249 -1.1805  0.7050
  909MOL0     H25401  10.882   2.325   5.572  0.9043  0.0825 -2.3495
  909MOL0     H25402  10.746   2.422   5.617  1.3087 -0.3792  1.6144
  909MOL0     H25403  10.881   2.504   5.543 -0.4741  0.5216  0.9518
  909MOL0     H25404  11.202   2.163   5.206  0.7351 -0.5837  1.4922
  909MOL0     H25405  11.461   2.136   5.173  1.3034  0.7974 -2.7872
  909MOL0     H25406  11.685   2.439   4.959  2.0707 -0.5761 -1.2798
  909MOL0     H25407  11.734   2.498   5.118 -0.2557  0.5536 -1.0868
  909MOL0     H25408  11.852   2.250   4.981 -0.6599  2.3522 -4.2783
  909MOL0     H25409  11.927   2.404   5.018 -0.8497  0.3725  0.4056
  909MOL0     H25410  11.855   2.200   5.210 -2.7270  0.6893 -0.5772
  909MOL0     H25411  11.873   2.369   5.258  4.6474  0.3931  2.0152
  909MOL0     H25412  12.106   2.365   5.187 -0.5790  1.2370 -0.4899
  909MOL0     H25413  12.079   2.220   5.098  0.0037  0.5678  0.5622
  909MOL0     H25414  12.057   2.085   5.308  0.1820  0.3806  0.2975
  909MOL0     H25415  12.207   2.167   5.287  0.2978  0.7418  0.5195
  909MOL0     H25416  11.986   2.258   5.475  0.3784 -1.4558  0.7170
  909MOL0     H25417  12.135   2.345   5.437 -0.3115 -0.0400 -1.2982
  909MOL0     H25418  12.140   2.075   5.569 -3.4761  0.6883 -0.5916
  909MOL0     H25419  12.133   2.229   5.654 -2.2603 -1.1928 -0.1000
  909MOL0     H25420  12.390   2.196   5.634 -0.1208 -0.4422  0.0649
  909MOL0     H25421  12.350   2.291   5.495  0.9541 -1.2618 -3.1662
  909MOL0     H25422  11.497   2.565   5.103  1.3557 -1.1158  0.1226
  909MOL0     H25423  11.246   2.591   5.154  2.5632  1.6653 -0.5548
  909MOL0     H25424  10.868   2.431   5.071 -0.6003  2.2346 -0.2994
  909MOL0     H25425  10.628   2.384   5.038 -2.6554 -0.9729  0.3669
  909MOL0     H25426   8.924   1.729   3.981 -4.1988  1.7991  0.7988
  909MOL0     H25427   8.759   1.853   3.848 -0.3448 -0.6673  1.8448
  909MOL0     H25428   8.527   2.155   3.797  1.7670 -3.0704 -2.3363
  909MOL0     H25429   8.319   2.258   3.724 -0.6607  3.6547 -2.0679
  909MOL0     H25430   8.145   2.329   3.402 -0.4310  0.3524 -0.0884
  909MOL0     H25431   8.211   2.206   3.514  2.0526  1.3521  3.5964
  909MOL0     H25432   8.009   2.422   3.585  1.0063 -0.1674 -2.1668
  909MOL0     H25433   8.092   2.313   3.702 -0.6089 -1.1981  0.6628
  909MOL0     H25434   7.965   2.182   3.466 -2.7135  1.0446 -1.0314
  909MOL0     H25435   7.986   2.140   3.639 -0.2455  0.3457  0.2826
  909MOL0     H25436   7.783   2.356   3.563  0.7638  0.8608  0.5326
  909MOL0     H25437   7.794   2.251   3.707  1.1819 -0.4729 -0.5728
  909MOL0     H25438   7.553   2.016   3.456 -0.0332 -1.6288 -0.4423
  909MOL0     H25439   8.509   2.448   3.393 -1.9579 -1.1316 -0.9530
  909MOL0     H25440   8.744   2.402   3.328  0.2809 -3.5015 -1.1534
  909MOL0     H25441   8.818   2.442   3.489  0.1560  0.2504  1.6102
  909MOL0     H25442   8.821   2.272   3.419 -2.0045 -0.6710 -0.4932
  910MOL0     O25443  10.029   1.366   6.177 -0.1558  0.2604  0.0230
  910MOL0     C25444  10.131   1.383   6.111 -0.6365 -0.4628  0.0969
  910MOL0     O25445  10.195   1.289   6.034 -0.1294 -0.2419  0.2342
  910MOL0     C25446  10.176   1.151   6.048  0.1219 -1.4834 -0.0011
  910MOL0     C25447  10.048   1.090   6.055 -0.3316 -0.1040  0.0599
  910MOL0     C25448  10.056   0.948   6.076  0.3894  0.8253  0.6950
  910MOL0     C25449  10.172   0.873   6.072 -0.9684  0.1707 -0.4440
  910MOL0     O25450  10.162   0.738   6.083 -0.5120 -0.1029 -0.0460
  910MOL0     C25451  10.109   0.670   5.971  0.2207 -0.6506 -0.0553
  910MOL0     C25452  10.136   0.515   5.971  0.1092 -1.3809 -0.5030
  910MOL0     C25453  10.083   0.447   6.104  0.0715 -0.3902 -0.1478
  910MOL0     C25454  10.131   0.306   6.097  0.0316 -0.4868 -0.0720
  910MOL0     C25455  10.072   0.214   6.217 -0.1840  0.0161  0.6889
  910MOL0     C25456  10.115   0.072   6.209 -0.0399 -0.1886  0.8677
  910MOL0     C25457  10.070  -0.009   6.330 -0.5129  0.3243 -0.8474
  910MOL0     C25458  10.084  -0.156   6.299 -0.0657 -0.4233  1.0447
  910MOL0     N25459   9.996  -0.220   6.197 -0.5360  0.0338 -0.2374
  910MOL0     C25460   9.864  -0.255   6.202  0.4815 -0.1909  0.0608
  910MOL0     C25461   9.831  -0.318   6.084 -0.7985 -1.1775 -0.0641
  910MOL0     C25462   9.704  -0.367   6.040  0.1230 -0.0325  0.0467
  910MOL0     C25463   9.615  -0.256   5.988 -0.1153  0.0531 -0.2412
  910MOL0     C25464   9.592  -0.140   6.088  0.2737  0.4446 -0.2414
  910MOL0     C25465   9.494  -0.045   6.017  0.9189 -0.8410 -0.6264
  910MOL0     O25466   9.358  -0.069   6.064  0.4768 -0.3949 -0.7381
  910MOL0     C25467   9.256  -0.031   5.974  0.1721  0.5151 -0.2849
  910MOL0     C25468   9.266  -0.011   5.836 -0.4517 -0.3094 -0.2009
  910MOL0     C25469   9.169   0.057   5.762 -0.2680 -0.4408 -0.6042
  910MOL0     C25470   9.204   0.091   5.619  0.2161  0.5079 -0.0239
  910MOL0     C25471   9.035   0.070   5.821 -0.0979  0.4385 -0.0466
  910MOL0     C25472   8.913   0.108   5.749  0.0470  1.4642 -0.2404
  910MOL0     O25473   8.810   0.164   5.817  0.3969  0.9808  0.7283
  910MOL0     C25474   8.704   0.201   5.728 -0.1080 -1.9092 -0.5682
  910MOL0     C25475   8.574   0.156   5.741 -0.3846 -0.1205 -0.4443
  910MOL0     C25476   8.472   0.207   5.662 -0.7911 -0.9889  0.0302
  910MOL0     C25477   8.498   0.324   5.583  0.0849 -0.0677  0.8608
  910MOL0     O25478   8.404   0.383   5.503  0.8296 -0.0362 -0.0234
  910MOL0     C25479   8.285   0.314   5.455 -0.5102  0.5427 -0.7174
  910MOL0     C25480   8.254   0.379   5.329 -0.6380 -0.3030 -0.1689
  910MOL0     C25481   8.118   0.330   5.273  0.7199 -0.3413  0.5133
  910MOL0     C25482   8.067   0.405   5.142 -0.6218  0.6550  0.3094
  910MOL0     C25483   8.022   0.299   5.046  0.1222 -0.7667  0.0634
  910MOL0     C25484   7.963   0.356   4.916  0.2837 -0.9703 -0.1450
  910MOL0     C25485   7.912   0.236   4.845  0.0870 -0.1947  1.3878
  910MOL0     C25486   7.866   0.287   4.709  0.0720 -0.2347  1.5732
  910MOL0    Cl25487   7.735   0.190   4.628  0.2264  0.2007  0.4173
  910MOL0     C25488   8.628   0.375   5.572 -0.1226 -0.4127  0.3845
  910MOL0     C25489   8.728   0.315   5.647 -0.8439 -1.3589 -0.7036
  910MOL0     O25490   8.923   0.085   5.631  0.0042 -1.0125  0.3954
  910MOL0     C25491   9.015   0.041   5.955 -0.3313  0.6593 -0.1762
  910MOL0     C25492   9.130  -0.009   6.025 -0.2753 -0.3507  0.5863
  910MOL0     N25493   9.946  -0.331   6.018  0.2664  0.4399  0.4355
  910MOL0     N25494  10.041  -0.276   6.081  0.2600 -0.2510 -0.2103
  910MOL0     C25495  10.299   0.932   6.064 -0.0058 -0.5354 -0.4529
  910MOL0     C25496  10.294   1.071   6.052 -0.1695 -0.2489 -0.3094
  910MOL0     C25497  10.192   1.517   6.110  0.5333 -0.0339  0.2316
  910MOL0     C25498  10.229   1.567   5.988  1.1156  0.3518 -0.0609
  910MOL0     C25499  10.283   1.691   5.978 -0.3767 -0.2673  0.1395
  910MOL0     C25500  10.285   1.775   6.087 -1.2890 -0.6526  0.1318
  910MOL0     O25501  10.335   1.900   6.069  0.0490 -0.0781 -0.0291
  910MOL0     C25502  10.332   1.990   6.180 -0.0447  0.3292  0.3750
  910MOL0     C25503  10.320   2.115   6.112  0.3967  0.2295  0.0079
  910MOL0     C25504  10.279   2.227   6.206  0.7000 -0.5507  0.3686
  910MOL0     C25505  10.234   2.355   6.132  0.3079  0.2094 -1.1909
  910MOL0     C25506  10.096   2.335   6.078 -0.7362  0.6815  0.7148
  910MOL0     C25507   9.991   2.292   6.043 -0.3500  0.1072 -0.5879
  910MOL0     C25508  10.268   1.709   6.211  0.6716 -0.2930 -0.3326
  910MOL0     C25509  10.221   1.585   6.225  0.9619  0.8470 -0.1321
  910MOL0     C25510  10.192   1.535   6.374 -0.3833  0.4340  0.1099
  910MOL0     H25511   9.960   1.150   6.074 -0.1725 -0.5755  2.6239
  910MOL0     H25512   9.964   0.896   6.097  0.1625  0.2454 -1.5437
  910MOL0     H25513  10.160   0.706   5.881 -3.6697  3.5126 -0.9541
  910MOL0     H25514  10.004   0.696   5.957  0.7182  0.2929 -2.4424
  910MOL0     H25515  10.086   0.471   5.885 -2.3795 -4.7712  2.3762
  910MOL0     H25516  10.242   0.490   5.965  0.0027 -2.4523  1.2975
  910MOL0     H25517  10.130   0.486   6.195  2.1641 -1.4303 -0.7084
  910MOL0     H25518   9.974   0.452   6.104  0.1436  2.1378  0.7100
  910MOL0     H25519  10.092   0.260   6.005 -2.2425 -1.4639  1.2832
  910MOL0     H25520  10.240   0.295   6.098 -0.0757 -2.3766 -1.5430
  910MOL0     H25521   9.963   0.222   6.217 -0.1763  0.4399 -1.2121
  910MOL0     H25522  10.112   0.265   6.305  0.9596 -0.6701  0.5846
  910MOL0     H25523  10.067   0.031   6.119 -0.2142 -3.6658  2.4055
  910MOL0     H25524  10.223   0.062   6.198  0.1274 -0.5307  2.5446
  910MOL0     H25525   9.965   0.010   6.354 -0.9009 -0.1402 -2.0597
  910MOL0     H25526  10.134   0.014   6.416  1.0359 -2.9664 -0.9523
  910MOL0     H25527  10.191  -0.170   6.277 -0.3229  0.6401 -1.0912
  910MOL0     H25528  10.066  -0.209   6.393  2.6529  1.6746  2.9343
  910MOL0     H25529   9.800  -0.227   6.286  2.5977 -2.0648  2.4455
  910MOL0     H25530   9.662  -0.434   6.116 -0.5290 -0.2735 -0.5148
  910MOL0     H25531   9.716  -0.434   5.954  1.8543 -0.5103  0.6237
  910MOL0     H25532   9.671  -0.205   5.909  0.9594 -0.6958  0.0058
  910MOL0     H25533   9.525  -0.310   5.956 -0.8002 -0.0169  1.6526
  910MOL0     H25534   9.548  -0.185   6.177 -2.1767 -0.4391 -1.7834
  910MOL0     H25535   9.685  -0.089   6.115  1.3548 -1.5906  0.1124
  910MOL0     H25536   9.518   0.059   6.040 -4.4343  1.4133 -3.4522
  910MOL0     H25537   9.501  -0.045   5.908  0.8010  2.3360 -0.7300
  910MOL0     H25538   9.354  -0.034   5.777 -1.0569 -0.7906 -0.9317
  910MOL0     H25539   9.163   0.017   5.549  2.7620  0.6791 -1.8648
  910MOL0     H25540   9.312   0.101   5.603  0.7987 -1.5855  2.1102
  910MOL0     H25541   9.162   0.190   5.600 -1.0930  0.8072  3.7463
  910MOL0     H25542   8.561   0.083   5.821  2.2247  1.8713  2.0454
  910MOL0     H25543   8.369   0.172   5.669 -0.8696 -0.5785  1.3237
  910MOL0     H25544   8.308   0.208   5.445 -0.5553  0.6442 -2.1695
  910MOL0     H25545   8.203   0.313   5.527  0.5738 -1.4000  0.5744
  910MOL0     H25546   8.258   0.486   5.353  1.6305  0.1581 -2.2470
  910MOL0     H25547   8.318   0.357   5.243  2.3011 -3.4898  2.5113
  910MOL0     H25548   8.039   0.343   5.347  0.2054  1.5596 -0.3201
  910MOL0     H25549   8.126   0.223   5.250  1.7285 -0.0119 -0.7947
  910MOL0     H25550   8.141   0.470   5.095 -2.7841  2.1895 -1.1522
  910MOL0     H25551   7.983   0.470   5.170 -0.7158  0.2253  1.0610
  910MOL0     H25552   8.111   0.238   5.025  1.1735  1.5078 -2.8091
  910MOL0     H25553   7.956   0.224   5.090 -0.5664  0.5530  1.3499
  910MOL0     H25554   8.029   0.423   4.860 -0.3364  0.3764  0.6775
  910MOL0     H25555   7.879   0.417   4.951  1.3817 -0.9318  2.7398
  910MOL0     H25556   7.836   0.185   4.905 -0.8298  0.6929  1.0142
  910MOL0     H25557   7.998   0.172   4.825  0.9455  1.1280  0.6473
  910MOL0     H25558   7.948   0.296   4.638 -0.0774  0.3868  1.4785
  910MOL0     H25559   7.826   0.388   4.723  2.1687  0.8567  0.1308
  910MOL0     H25560   8.643   0.461   5.507  1.7018 -1.3175 -0.4592
  910MOL0     H25561   8.826   0.363   5.645 -1.7894  0.8209  0.9893
  910MOL0     H25562   8.917   0.052   5.999  0.1035 -0.0581  1.0256
  910MOL0     H25563   9.121  -0.029   6.131 -1.3849 -1.2189  0.3381
  910MOL0     H25564  10.398   0.888   6.069  1.9998  3.5242 -0.4718
  910MOL0     H25565  10.394   1.115   6.051 -0.8621  1.5326 -2.9746
  910MOL0     H25566  10.198   1.501   5.907 -1.6783 -1.6621  2.3872
  910MOL0     H25567  10.313   1.728   5.881  0.4345 -0.9182  0.1307
  910MOL0     H25568  10.242   1.975   6.239 -0.0777  0.3844  0.3388
  910MOL0     H25569  10.423   1.988   6.242  0.1076  0.2839  0.1521
  910MOL0     H25570  10.253   2.105   6.025  1.6918  1.1684 -1.1409
  910MOL0     H25571  10.418   2.148   6.078  0.5357 -0.7509 -0.5946
  910MOL0     H25572  10.190   2.201   6.265  2.1035  2.1580  4.0413
  910MOL0     H25573  10.367   2.259   6.263  0.4640 -0.3649  0.6330
  910MOL0     H25574  10.311   2.375   6.056  0.3912 -2.9638 -2.0854
  910MOL0     H25575  10.242   2.434   6.207  2.3010 -2.2449  1.4233
  910MOL0     H25576   9.892   2.264   6.013 -0.7542 -0.8723  1.4916
  910MOL0     H25577  10.290   1.771   6.297 -1.0253  0.5712 -0.4736
  910MOL0     H25578  10.278   1.555   6.439 -1.2332 -1.7030  2.0250
  910MOL0     H25579  10.105   1.578   6.424 -2.0720 -3.2601  0.6703
  910MOL0     H25580  10.180   1.427   6.367  2.1667  0.1261 -0.6736
  911MOL0     O25581   0.783   9.631  10.941 -0.8763 -0.2540 -0.6482
  911MOL0     C25582   0.821   9.726  11.006  0.2470  0.4320 -0.7616
  911MOL0     O25583   0.744   9.814  11.072 -0.1282  0.2959  0.5374
  911MOL0     C25584   0.606   9.800  11.049  0.2056  0.4645 -0.0321
  911MOL0     C25585   0.535   9.683  11.099 -0.0477 -0.5277 -0.1240
  911MOL0     C25586   0.397   9.668  11.078  0.6793  0.1171  0.0819
  911MOL0     C25587   0.322   9.764  11.020 -0.0417 -1.2385  0.3621
  911MOL0     O25588   0.186   9.750  11.001  0.5341 -0.1366  0.2796
  911MOL0     C25589   0.092   9.856  10.996  0.2926  0.0872 -0.6867
  911MOL0     C25590  -0.050   9.810  11.026  0.1988  0.1122 -0.4575
  911MOL0     C25591  -0.142   9.933  11.019  0.3271 -0.5431 -0.4210
  911MOL0     C25592  -0.293   9.915  11.065  0.1337  0.4903 -0.4283
  911MOL0     C25593  -0.371  10.041  11.067  0.1099  0.4365 -0.2211
  911MOL0     C25594  -0.517  10.022  11.109 -0.5648 -0.3186  0.4977
  911MOL0     C25595  -0.602   9.932  11.012 -0.3609 -0.6574  0.3570
  911MOL0     C25596  -0.659   9.986  10.885 -0.1567 -0.0436  0.6238
  911MOL0     N25597  -0.782  10.073  10.913  0.1034  0.5803  0.6643
  911MOL0     C25598  -0.914  10.021  10.927  0.1564  0.2050  0.3902
  911MOL0     C25599  -0.976  10.120  10.988 -0.1566 -0.4910 -0.7390
  911MOL0     C25600  -1.114  10.107  11.055  1.1939 -0.5082 -0.1705
  911MOL0     C25601  -1.098  10.081  11.207 -0.6487 -0.1232 -0.0132
  911MOL0     C25602  -1.225  10.069  11.294 -0.2741 -0.9613  0.4222
  911MOL0     C25603  -1.325   9.957  11.248 -0.0198  0.7341  0.6281
  911MOL0     O25604  -1.424   9.941  11.349 -0.6480  0.2047 -0.0990
  911MOL0     C25605  -1.511  10.036  11.374  0.2741  0.4685 -0.2166
  911MOL0     C25606  -1.556  10.052  11.505  0.1998  0.3749  0.5893
  911MOL0     C25607  -1.650  10.154  11.539 -0.0828 -0.5352  0.2183
  911MOL0     C25608  -1.667  10.169  11.691 -0.0186  0.1682  0.1130
  911MOL0     C25609  -1.702  10.233  11.433 -0.5609 -0.1755 -0.2004
  911MOL0     C25610  -1.782  10.354  11.462  1.2297 -0.0432  0.4664
  911MOL0     O25611  -1.765  10.460  11.371 -0.5219 -0.0465 -0.6696
  911MOL0     C25612  -1.781  10.583  11.435  0.3564 -0.8892 -0.0301
  911MOL0     C25613  -1.905  10.640  11.480 -0.0331 -0.8061  0.2200
  911MOL0     C25614  -1.909  10.769  11.536 -0.3682 -0.8110  0.4437
  911MOL0     C25615  -1.788  10.838  11.549  0.1029 -0.3602 -0.4473
  911MOL0     O25616  -1.777  10.963  11.607 -0.4333 -0.2634 -0.1149
  911MOL0     C25617  -1.888  11.048  11.617  0.6707  0.5950 -0.6335
  911MOL0     C25618  -1.829  11.188  11.657 -0.1796  0.4814 -0.9475
  911MOL0     C25619  -1.926  11.295  11.627 -0.2158  0.8617 -0.4088
  911MOL0     C25620  -1.987  11.360  11.756 -0.0289  1.0945 -1.0226
  911MOL0     C25621  -2.116  11.305  11.803 -0.2454  0.1848 -0.3421
  911MOL0     C25622  -2.235  11.328  11.712 -0.3885  0.1000 -0.0788
  911MOL0     C25623  -2.360  11.257  11.753  0.2193 -0.9527 -0.1866
  911MOL0     C25624  -2.465  11.276  11.645  0.0682  0.0080  0.7312
  911MOL0    Cl25625  -2.512  11.447  11.625  0.3564  0.2741 -0.1398
  911MOL0     C25626  -1.670  10.779  11.508 -0.4974 -0.4544  0.0691
  911MOL0     C25627  -1.664  10.657  11.443 -0.2488 -0.2960 -0.3907
  911MOL0     O25628  -1.861  10.358  11.557 -0.5889 -0.0757 -0.1210
  911MOL0     C25629  -1.663  10.205  11.300 -0.0833  0.2257 -0.1204
  911MOL0     C25630  -1.572  10.104  11.267  0.5137 -0.1010 -0.5250
  911MOL0     N25631  -0.892  10.226  11.011 -0.2268  0.0149  1.0044
  911MOL0     N25632  -0.778  10.188  10.976 -0.4534 -0.4677  0.5876
  911MOL0     C25633   0.387   9.880  10.978 -0.7131 -0.2438 -0.0770
  911MOL0     C25634   0.527   9.905  10.989 -0.1794  1.0575 -0.4194
  911MOL0     C25635   0.969   9.753  11.021  1.1482 -0.0481 -0.0885
  911MOL0     C25636   1.054   9.652  10.982 -0.1447  0.3583  0.3886
  911MOL0     C25637   1.191   9.651  11.003 -0.7444 -0.0302 -0.3637
  911MOL0     C25638   1.252   9.765  11.058  0.5191  0.3435 -1.3944
  911MOL0     O25639   1.387   9.790  11.086  0.1692  0.5221 -0.3295
  911MOL0     C25640   1.481   9.685  11.076  0.2017 -0.3893 -0.5360
  911MOL0     C25641   1.487   9.581  11.177  1.1166 -0.1197 -1.0638
  911MOL0     C25642   1.590   9.470  11.153  0.6353  0.5846 -0.4610
  911MOL0     C25643   1.635   9.408  11.283 -0.3850  0.1068  0.3170
  911MOL0     C25644   1.533   9.314  11.344 -0.9582 -0.0161 -1.3611
  911MOL0     C25645   1.449   9.256  11.413 -0.9501  0.0081 -0.1071
  911MOL0     C25646   1.170   9.867  11.096  0.5409 -0.7562 -1.5575
  911MOL0     C25647   1.028   9.864  11.078  0.1717  0.2691 -0.1578
  911MOL0     C25648   0.951   9.974  11.132 -0.3728 -0.5852 -0.5737
  911MOL0     H25649   0.578   9.606  11.163  1.8906  1.2197  0.7937
  911MOL0     H25650   0.344   9.576  11.101  1.1932 -0.4586 -0.9603
  911MOL0     H25651   0.092   9.907  10.899 -0.7782 -2.2747 -2.0198
  911MOL0     H25652   0.122   9.930  11.071 -0.6318 -0.2773  0.0483
  911MOL0     H25653  -0.093   9.736  10.959  1.4220  0.5923 -1.8077
  911MOL0     H25654  -0.045   9.763  11.125  3.6154 -0.8375 -0.9590
  911MOL0     H25655  -0.091  10.014  11.073 -0.4101  1.8302 -3.0516
  911MOL0     H25656  -0.147   9.973  10.917  0.9300 -0.0664 -0.2748
  911MOL0     H25657  -0.347   9.847  10.999 -1.1843  0.7364  0.3605
  911MOL0     H25658  -0.307   9.875  11.166 -0.5634 -1.9679 -1.4352
  911MOL0     H25659  -0.363  10.098  10.974  2.4450  2.0206  0.8643
  911MOL0     H25660  -0.315  10.098  11.142  0.3348 -1.5320  1.1877
  911MOL0     H25661  -0.514   9.981  11.211  2.0110  2.8666  1.8683
  911MOL0     H25662  -0.555  10.123  11.123  0.1473  0.2714 -1.5707
  911MOL0     H25663  -0.690   9.895  11.066 -1.8329 -0.7242 -1.9260
  911MOL0     H25664  -0.549   9.839  10.989  1.6848  1.2575 -3.3878
  911MOL0     H25665  -0.578  10.040  10.834 -0.1614 -0.6796 -0.0817
  911MOL0     H25666  -0.679   9.900  10.821  4.5101 -0.7596 -0.2971
  911MOL0     H25667  -0.942   9.924  10.890  1.2690 -0.0823  0.2718
  911MOL0     H25668  -1.179  10.031  11.012  0.9912 -0.9293  0.8373
  911MOL0     H25669  -1.156  10.208  11.049 -0.2258 -0.9366  1.6862
  911MOL0     H25670  -1.037   9.990  11.217 -1.9555 -1.3979 -2.5857
  911MOL0     H25671  -1.035  10.160  11.248  0.4689 -1.2217  0.4779
  911MOL0     H25672  -1.206  10.041  11.398 -1.7117 -2.5624  0.3008
  911MOL0     H25673  -1.279  10.164  11.284 -0.0082 -0.9650 -1.3464
  911MOL0     H25674  -1.364   9.972  11.147 -0.1580  4.1742  1.0877
  911MOL0     H25675  -1.285   9.855  11.248 -0.6770  0.4747  0.7029
  911MOL0     H25676  -1.520   9.986  11.583  3.2264  1.1200 -0.0386
  911MOL0     H25677  -1.771  10.186  11.717 -0.5111  0.8894 -2.0927
  911MOL0     H25678  -1.609  10.259  11.711 -0.5029  0.5617 -0.2299
  911MOL0     H25679  -1.634  10.078  11.743  1.3527 -1.4129 -3.2133
  911MOL0     H25680  -1.997  10.589  11.452 -1.1263  0.5062  1.3142
  911MOL0     H25681  -2.000  10.822  11.564 -0.7845 -0.9893 -0.5170
  911MOL0     H25682  -1.947  11.043  11.525 -1.3138 -2.8111  0.6268
  911MOL0     H25683  -1.941  11.015  11.707  0.2879  0.4195 -0.9218
  911MOL0     H25684  -1.790  11.194  11.759 -0.8363  0.1195 -0.6696
  911MOL0     H25685  -1.748  11.196  11.584  1.4504  1.1970  0.8641
  911MOL0     H25686  -2.004  11.254  11.562 -1.5797  0.6452  1.2830
  911MOL0     H25687  -1.868  11.365  11.567  1.8654 -0.7636 -0.4186
  911MOL0     H25688  -1.995  11.467  11.738 -1.9115  0.8191 -2.1430
  911MOL0     H25689  -1.924  11.352  11.845 -1.7624  0.1590  0.1632
  911MOL0     H25690  -2.102  11.198  11.818 -0.4288  0.2017 -0.0443
  911MOL0     H25691  -2.144  11.347  11.900 -2.8370  1.5575 -1.5809
  911MOL0     H25692  -2.212  11.287  11.614  1.5703 -0.3321  0.5013
  911MOL0     H25693  -2.235  11.437  11.704  0.4605 -0.0556 -3.7439
  911MOL0     H25694  -2.394  11.302  11.847  3.6490 -0.1579  0.8238
  911MOL0     H25695  -2.348  11.153  11.783 -2.1720 -0.9607  0.9767
  911MOL0     H25696  -2.548  11.211  11.675  0.0904 -0.5147 -0.2870
  911MOL0     H25697  -2.422  11.247  11.549 -1.2202 -0.7498  0.3491
  911MOL0     H25698  -1.590  10.842  11.545 -1.6766  1.5253 -0.5405
  911MOL0     H25699  -1.566  10.630  11.404  0.9770 -1.2768  3.0160
  911MOL0     H25700  -1.710  10.266  11.223 -0.8528 -0.1584  0.0418
  911MOL0     H25701  -1.539  10.088  11.165 -1.1285 -4.4979 -0.5869
  911MOL0     H25702   0.326   9.959  10.934 -0.5013  0.5701  1.0391
  911MOL0     H25703   0.566   9.996  10.945 -1.2331  1.0849 -1.3523
  911MOL0     H25704   1.015   9.563  10.934  0.7609 -0.2711  0.8104
  911MOL0     H25705   1.245   9.567  10.960 -0.8215 -0.8403  1.0457
  911MOL0     H25706   1.468   9.644  10.976  1.8727  0.4518 -1.1412
  911MOL0     H25707   1.582   9.727  11.072  0.7716 -1.6403  0.0041
  911MOL0     H25708   1.390   9.532  11.188  1.1679  0.4005  4.4527
  911MOL0     H25709   1.504   9.623  11.276  2.3598  0.0372 -1.3294
  911MOL0     H25710   1.545   9.399  11.083  0.0398  1.2871 -0.8121
  911MOL0     H25711   1.684   9.510  11.114  2.2561  0.2312  2.7149
  911MOL0     H25712   1.655   9.486  11.357 -3.0492  1.0399  0.1793
  911MOL0     H25713   1.718   9.337  11.280  0.0229  0.3585  3.1913
  911MOL0     H25714   1.369   9.211  11.468 -0.1976 -0.8589  0.3213
  911MOL0     H25715   1.230   9.948  11.136 -0.9136  0.6742 -2.1708
  911MOL0     H25716   1.027  10.050  11.153 -1.2637  0.0832  0.3298
  911MOL0     H25717   0.886  10.022  11.059 -0.4378 -0.8883 -0.7155
  911MOL0     H25718   0.894   9.961  11.225  1.0929 -0.0999  0.4393
  912MOL0     O25719  10.070   4.470   3.931  0.3416 -0.2272  0.1879
  912MOL0     C25720  10.042   4.368   3.998 -0.4902 -1.0666 -0.0936
  912MOL0     O25721  10.032   4.242   3.952  0.0916 -0.0501 -0.1164
  912MOL0     C25722  10.091   4.193   3.838  0.2134 -0.8782  0.3232
  912MOL0     C25723  10.211   4.252   3.789 -0.6274  0.4797  0.1556
  912MOL0     C25724  10.286   4.204   3.682 -0.8664  0.1769  0.1975
  912MOL0     C25725  10.229   4.091   3.604  0.3736 -0.6671  0.0710
  912MOL0     O25726  10.274   4.029   3.492 -0.4192  0.7141 -0.4492
  912MOL0     C25727  10.411   4.027   3.465 -0.4870  0.1471 -0.5483
  912MOL0     C25728  10.444   4.130   3.356 -0.2929 -0.2886 -0.0245
  912MOL0     C25729  10.588   4.115   3.311  0.5713  0.5284  1.0463
  912MOL0     C25730  10.606   4.011   3.191  0.1858  0.1203  0.1897
  912MOL0     C25731  10.755   4.012   3.141 -0.8732 -0.0143 -0.3983
  912MOL0     C25732  10.759   3.899   3.042  0.9915 -0.3256  0.2531
  912MOL0     C25733  10.892   3.903   2.955  0.4260  0.7605 -0.3206
  912MOL0     C25734  10.863   3.992   2.831 -0.0575 -0.8846 -0.6549
  912MOL0     N25735  10.956   3.971   2.725 -1.1805 -0.2639  1.0202
  912MOL0     C25736  11.089   4.001   2.714  0.4181  0.1522  1.0312
  912MOL0     C25737  11.126   3.969   2.590  0.0448 -0.0545  0.2834
  912MOL0     C25738  11.263   3.997   2.541  0.5283 -0.2426 -0.3323
  912MOL0     C25739  11.381   3.921   2.601 -0.5190  0.3760  0.7984
  912MOL0     C25740  11.384   3.766   2.562 -0.1637 -1.3326 -0.7629
  912MOL0     C25741  11.521   3.709   2.584  1.2055  0.6632  0.9586
  912MOL0     O25742  11.562   3.714   2.716 -0.2447  0.1646 -0.0584
  912MOL0     C25743  11.564   3.591   2.762 -0.2178  0.3982 -0.6306
  912MOL0     C25744  11.458   3.530   2.823  0.4780  0.7399 -0.2918
  912MOL0     C25745  11.457   3.395   2.848  0.0632  0.3411 -0.0871
  912MOL0     C25746  11.337   3.348   2.928  0.0478 -0.2051 -0.3594
  912MOL0     C25747  11.565   3.317   2.811 -0.4909 -0.8371  0.4609
  912MOL0     C25748  11.585   3.174   2.832  0.9387  0.7538 -1.0574
  912MOL0     O25749  11.473   3.096   2.859 -0.4610 -0.3287 -0.5423
  912MOL0     C25750  11.492   2.966   2.905  0.3656  0.5376  0.1111
  912MOL0     C25751  11.528   2.931   3.034 -0.8916 -0.1690 -0.4482
  912MOL0     C25752  11.527   2.793   3.077  0.2222  0.9552 -0.4641
  912MOL0     C25753  11.489   2.692   2.983  0.1623  0.5886  0.1356
  912MOL0     O25754  11.490   2.563   3.032  0.2121  0.3740  0.1375
  912MOL0     C25755  11.516   2.452   2.941 -1.0759 -0.1638 -0.3771
  912MOL0     C25756  11.660   2.453   2.906  0.4797 -0.1992 -0.0929
  912MOL0     C25757  11.691   2.366   2.787 -0.2747 -0.2763  0.3381
  912MOL0     C25758  11.841   2.340   2.771  0.1453 -0.4346  0.2858
  912MOL0     C25759  11.864   2.219   2.683  0.2116 -0.2559  0.8128
  912MOL0     C25760  12.000   2.181   2.630  0.0759  0.3915  0.2026
  912MOL0     C25761  12.003   2.035   2.584  0.1120  0.7688  0.6553
  912MOL0     C25762  12.141   1.981   2.549 -0.4035 -1.0934  0.3304
  912MOL0    Cl25763  12.236   1.953   2.698 -0.2655  0.0685  0.0332
  912MOL0     C25764  11.452   2.727   2.850  0.0498 -0.2597  0.3397
  912MOL0     C25765  11.449   2.865   2.810 -0.1888  0.1849 -0.3516
  912MOL0     O25766  11.695   3.129   2.827  0.0124  0.1670 -0.2747
  912MOL0     C25767  11.670   3.382   2.753 -0.3795 -0.2159  0.4541
  912MOL0     C25768  11.685   3.518   2.745  0.1348 -0.4223 -0.0799
  912MOL0     N25769  11.012   3.925   2.527  0.3313 -0.2644  0.5327
  912MOL0     N25770  10.912   3.918   2.610 -0.5468 -1.1439 -0.4543
  912MOL0     C25771  10.109   4.038   3.658 -0.4703  0.7010 -0.7348
  912MOL0     C25772  10.044   4.080   3.769  0.5408 -0.7444  0.5395
  912MOL0     C25773   9.992   4.398   4.141  0.3946 -0.5549  0.2161
  912MOL0     C25774   9.888   4.323   4.194  0.3429  0.4402  1.4028
  912MOL0     C25775   9.830   4.359   4.308  0.8300 -0.1659 -0.1852
  912MOL0     C25776   9.878   4.465   4.390  0.6092 -0.2431  0.0957
  912MOL0     O25777   9.817   4.484   4.511  0.0056  0.0079 -0.5621
  912MOL0     C25778   9.836   4.604   4.597  0.1996  1.0383  0.3549
  912MOL0     C25779   9.944   4.597   4.700  0.0624  0.6258 -0.6111
  912MOL0     C25780   9.930   4.731   4.774 -0.1565  0.1005  0.7957
  912MOL0     C25781  10.010   4.728   4.898  0.1697 -0.3568 -0.6985
  912MOL0     C25782  10.000   4.866   4.959 -0.2306 -0.3923 -0.2668
  912MOL0     C25783   9.999   4.975   5.016 -0.1846 -0.2858  0.2422
  912MOL0     C25784   9.985   4.542   4.338  0.1577  0.5857 -0.4693
  912MOL0     C25785  10.044   4.513   4.211  0.3917  0.6519 -0.1374
  912MOL0     C25786  10.168   4.597   4.160 -1.0522  0.5325 -0.6057
  912MOL0     H25787  10.260   4.337   3.835 -1.1322  1.0425 -0.3282
  912MOL0     H25788  10.383   4.236   3.643 -0.7716 -1.1385 -0.6927
  912MOL0     H25789  10.429   3.927   3.424  2.3609  0.3738 -0.0762
  912MOL0     H25790  10.478   4.039   3.551  0.0149 -2.3397 -0.5148
  912MOL0     H25791  10.377   4.117   3.271  1.7065 -0.7409 -1.5902
  912MOL0     H25792  10.431   4.236   3.380  0.1431 -0.3773  0.6223
  912MOL0     H25793  10.627   4.212   3.279 -2.9032  2.6089  2.5286
  912MOL0     H25794  10.646   4.072   3.394 -0.6178 -1.2581  1.0238
  912MOL0     H25795  10.584   3.912   3.233  1.1132  0.4128  1.4347
  912MOL0     H25796  10.533   4.030   3.112  1.8773 -1.3957 -1.8773
  912MOL0     H25797  10.827   3.980   3.217 -2.1913 -0.6940  0.6164
  912MOL0     H25798  10.796   4.108   3.109  3.0768 -0.9003  1.3379
  912MOL0     H25799  10.761   3.801   3.090 -0.0845 -0.4573  0.0382
  912MOL0     H25800  10.671   3.910   2.978  0.6735  1.1369  0.8863
  912MOL0     H25801  10.924   3.801   2.936  2.1292  0.8403  1.7137
  912MOL0     H25802  10.977   3.944   3.010 -0.3751  0.9758  0.7981
  912MOL0     H25803  10.764   3.960   2.795 -0.3884 -0.9016  0.2506
  912MOL0     H25804  10.860   4.097   2.862  2.9414 -0.8105 -0.2950
  912MOL0     H25805  11.158   4.051   2.782 -1.3056  3.7617  0.3466
  912MOL0     H25806  11.282   4.104   2.548  0.9427 -0.1411 -2.3536
  912MOL0     H25807  11.253   3.982   2.433  4.0692 -2.4679 -0.5254
  912MOL0     H25808  11.466   3.965   2.549 -0.4182  1.6245  1.9701
  912MOL0     H25809  11.393   3.928   2.709  0.1258 -1.5001  0.8808
  912MOL0     H25810  11.298   3.716   2.607 -1.2550  1.3267  0.3346
  912MOL0     H25811  11.369   3.770   2.454 -0.3078  0.4732 -0.7114
  912MOL0     H25812  11.530   3.612   2.534 -2.8376  0.5874  0.0617
  912MOL0     H25813  11.584   3.773   2.521  0.9832 -1.6209 -1.7450
  912MOL0     H25814  11.372   3.596   2.833 -0.7746 -1.0621  1.9886
  912MOL0     H25815  11.256   3.312   2.864  0.2046  2.4967 -2.2325
  912MOL0     H25816  11.298   3.435   2.982 -1.1151  0.2816 -1.9255
  912MOL0     H25817  11.363   3.267   2.997 -0.1430  0.4123  0.4488
  912MOL0     H25818  11.556   3.014   3.098 -2.1967 -0.6722  0.8525
  912MOL0     H25819  11.565   2.759   3.173 -2.7103 -2.1381 -0.1908
  912MOL0     H25820  11.498   2.365   3.005  1.2268  0.3389  1.0851
  912MOL0     H25821  11.450   2.451   2.854 -1.7643 -1.9598  0.1255
  912MOL0     H25822  11.698   2.554   2.888  0.3083 -0.5165 -2.7102
  912MOL0     H25823  11.717   2.413   2.990 -2.8412  0.6310  2.7962
  912MOL0     H25824  11.653   2.416   2.697  1.2770 -1.1155 -0.8405
  912MOL0     H25825  11.639   2.270   2.790  1.1205 -1.0450  2.5932
  912MOL0     H25826  11.890   2.314   2.866  0.2140  2.1766  1.0640
  912MOL0     H25827  11.880   2.433   2.727 -3.2010  1.1484  0.2967
  912MOL0     H25828  11.820   2.137   2.740 -0.5170  0.2914  1.0562
  912MOL0     H25829  11.790   2.224   2.603 -1.2428 -2.4952  1.9306
  912MOL0     H25830  12.077   2.192   2.707 -1.1580 -2.4436  2.0077
  912MOL0     H25831  12.029   2.244   2.545 -0.3295  0.8600  0.4058
  912MOL0     H25832  11.934   2.019   2.501 -1.4362 -0.4659  2.1153
  912MOL0     H25833  11.974   1.969   2.667  1.6927 -2.1972 -0.9741
  912MOL0     H25834  12.195   2.051   2.485 -0.4008  1.7629  3.2213
  912MOL0     H25835  12.135   1.884   2.499  0.2037 -1.2069  0.4791
  912MOL0     H25836  11.407   2.652   2.786 -0.9067 -1.5079  2.3591
  912MOL0     H25837  11.429   2.896   2.708  2.6612 -1.1885 -1.4100
  912MOL0     H25838  11.757   3.334   2.710 -1.4500 -2.5370  0.7537
  912MOL0     H25839  11.778   3.552   2.701  0.1806 -0.3600  0.0628
  912MOL0     H25840  10.072   3.946   3.614  0.4694 -0.8927  1.6100
  912MOL0     H25841   9.960   4.019   3.801  0.7978 -0.2055  2.3340
  912MOL0     H25842   9.851   4.236   4.140  0.3741  1.3187 -0.0830
  912MOL0     H25843   9.752   4.299   4.354 -1.2369  3.5204  1.4765
  912MOL0     H25844   9.846   4.691   4.532 -0.5230 -0.0935 -1.3262
  912MOL0     H25845   9.742   4.614   4.652  1.0338 -1.9636  2.5790
  912MOL0     H25846  10.043   4.595   4.653  1.6435 -1.7243  2.5069
  912MOL0     H25847   9.930   4.508   4.762 -0.3298  0.8630 -0.3557
  912MOL0     H25848   9.945   4.822   4.715 -3.7189 -1.0285 -2.2485
  912MOL0     H25849   9.825   4.749   4.796  0.0422  0.8191  1.2041
  912MOL0     H25850  10.114   4.712   4.869 -0.0405  1.1952 -2.4566
  912MOL0     H25851   9.975   4.661   4.977 -1.2305 -0.4837 -1.3877
  912MOL0     H25852  10.022   5.076   5.043 -1.1112  0.7342 -2.4629
  912MOL0     H25853  10.013   4.635   4.387  0.6409  1.0410 -1.5734
  912MOL0     H25854  10.141   4.665   4.079 -0.0957 -0.6888 -2.0117
  912MOL0     H25855  10.217   4.644   4.246 -0.3320 -2.3020  0.6693
  912MOL0     H25856  10.242   4.533   4.111 -0.6984 -0.7110  1.3999
  913MOL0     O25857   7.529   5.825   2.846 -0.0911  0.0095  0.3578
  913MOL0     C25858   7.519   5.830   2.724 -0.7699 -1.0034 -0.4894
  913MOL0     O25859   7.625   5.810   2.640 -0.5540  0.8246  0.3296
  913MOL0     C25860   7.751   5.800   2.695  0.4486 -0.4152 -0.9664
  913MOL0     C25861   7.824   5.690   2.674  1.1258 -0.3585  0.2700
  913MOL0     C25862   7.959   5.667   2.732  0.2440 -0.0681  0.2423
  913MOL0     C25863   8.003   5.763   2.824 -0.0941 -0.0989 -0.0092
  913MOL0     O25864   8.131   5.757   2.876 -0.0918  0.0751 -0.2833
  913MOL0     C25865   8.130   5.651   2.975 -0.0035  0.5718  0.0796
  913MOL0     C25866   8.257   5.660   3.051 -0.5099 -0.8872  0.2188
  913MOL0     C25867   8.275   5.803   3.107  0.3839  0.2228 -0.6865
  913MOL0     C25868   8.150   5.851   3.187  0.0744 -0.8183 -0.7733
  913MOL0     C25869   8.199   5.972   3.266  0.5860 -0.1822 -0.3995
  913MOL0     C25870   8.071   6.036   3.322  0.6424  0.5071 -0.8473
  913MOL0     C25871   8.102   6.096   3.456  0.0480  0.3224 -0.5737
  913MOL0     C25872   8.197   6.218   3.451  0.2647  0.1785 -0.4086
  913MOL0     N25873   8.284   6.238   3.575 -0.0850  0.3708 -0.3724
  913MOL0     C25874   8.248   6.241   3.706 -0.1356  0.7507 -0.0938
  913MOL0     C25875   8.353   6.293   3.772 -0.3358 -1.3223 -0.1845
  913MOL0     C25876   8.346   6.316   3.919  0.0744 -0.9701 -0.3252
  913MOL0     C25877   8.470   6.330   3.998 -0.5391 -0.0505 -0.2495
  913MOL0     C25878   8.533   6.475   3.988  0.7193  0.7937  0.1665
  913MOL0     C25879   8.668   6.504   4.062  0.3732  0.2647  0.9208
  913MOL0     O25880   8.717   6.626   4.000 -0.1872 -0.1798 -0.8789
  913MOL0     C25881   8.828   6.682   4.061  0.3526  0.7203  0.6890
  913MOL0     C25882   8.854   6.809   4.025  0.7138  0.1427  1.2351
  913MOL0     C25883   8.943   6.889   4.088 -0.8152 -0.6176 -0.4158
  913MOL0     C25884   8.944   7.035   4.047 -0.7997  0.1622  0.3978
  913MOL0     C25885   9.027   6.822   4.185 -0.4245  0.4769  0.4262
  913MOL0     C25886   9.147   6.890   4.247  0.5043 -0.1213  0.5820
  913MOL0     O25887   9.229   6.799   4.311 -0.1696 -0.3078  0.1413
  913MOL0     C25888   9.346   6.851   4.361 -0.9113  0.3187 -0.7102
  913MOL0     C25889   9.453   6.881   4.278 -0.0393  0.2840 -0.9515
  913MOL0     C25890   9.574   6.915   4.329  0.3012 -0.4191  0.9119
  913MOL0     C25891   9.592   6.907   4.474  0.6570  0.6977 -0.0502
  913MOL0     O25892   9.709   6.934   4.541  0.8103  0.3217 -0.3558
  913MOL0     C25893   9.826   6.953   4.457  0.0352  0.5344 -0.0047
  913MOL0     C25894   9.953   6.990   4.542 -0.6891 -0.0797  0.0492
  913MOL0     C25895   9.920   7.121   4.613 -1.0376 -0.2549 -0.4827
  913MOL0     C25896   9.852   7.099   4.756 -0.4364  0.2708  1.0631
  913MOL0     C25897   9.907   7.201   4.849 -1.1871 -0.4605  0.3397
  913MOL0     C25898   9.845   7.342   4.854 -0.3933 -0.1070  0.5058
  913MOL0     C25899   9.907   7.426   4.956 -0.3077 -0.4456  0.1136
  913MOL0     C25900  10.055   7.461   4.951  0.4981  0.7007 -0.7281
  913MOL0    Cl25901  10.094   7.546   4.820 -0.0490  0.1551 -0.0308
  913MOL0     C25902   9.481   6.892   4.551 -0.9318 -0.4969 -0.3230
  913MOL0     C25903   9.358   6.869   4.494  0.3193  0.1413 -0.4913
  913MOL0     O25904   9.161   7.007   4.240 -0.4875 -0.1880  1.1152
  913MOL0     C25905   9.004   6.689   4.221 -0.6962  0.1978  0.2104
  913MOL0     C25906   8.902   6.616   4.156 -0.7404  0.4297  0.2829
  913MOL0     N25907   8.448   6.317   3.684 -0.0882  0.7924  0.0913
  913MOL0     N25908   8.408   6.294   3.562  0.6176 -0.3967 -0.0493
  913MOL0     C25909   7.915   5.866   2.865  0.9199 -1.1035  0.3669
  913MOL0     C25910   7.796   5.887   2.793 -0.0452  0.6809  0.7719
  913MOL0     C25911   7.391   5.884   2.664  0.3780  0.7221  0.1087
  913MOL0     C25912   7.294   5.959   2.740 -0.3535 -0.0983  0.3187
  913MOL0     C25913   7.167   5.993   2.681  0.7150 -0.5627  0.6800
  913MOL0     C25914   7.157   5.988   2.538  0.7517 -0.3538 -0.0013
  913MOL0     O25915   7.046   6.033   2.464  0.1280  0.9302  0.3689
  913MOL0     C25916   6.995   6.159   2.489 -0.0029  0.2349 -0.1842
  913MOL0     C25917   6.884   6.196   2.381 -0.2071  0.0166 -0.4526
  913MOL0     C25918   6.939   6.209   2.245  0.4813  0.2512  0.1550
  913MOL0     C25919   6.838   6.248   2.146 -0.4511 -0.1491 -0.2892
  913MOL0     C25920   6.885   6.312   2.029  0.1060  1.3240  0.3213
  913MOL0     C25921   6.942   6.367   1.944  1.2332 -0.7931 -0.2418
  913MOL0     C25922   7.256   5.924   2.465  0.7244  0.4568 -0.2494
  913MOL0     C25923   7.361   5.856   2.527  0.1226 -0.4200 -0.1501
  913MOL0     C25924   7.447   5.767   2.438 -0.2498 -0.5494 -0.5440
  913MOL0     H25925   7.787   5.623   2.597 -1.9228  1.3962  0.0606
  913MOL0     H25926   8.025   5.591   2.691  0.8606 -0.5714  2.0481
  913MOL0     H25927   8.144   5.551   2.931  0.0110 -0.0590  1.4760
  913MOL0     H25928   8.037   5.653   3.032  1.6357  3.6276  3.0053
  913MOL0     H25929   8.266   5.578   3.124  4.0925  0.9913  2.2220
  913MOL0     H25930   8.345   5.650   2.987  1.7153 -0.9619  3.0621
  913MOL0     H25931   8.363   5.791   3.171 -0.7625  0.4056  0.9592
  913MOL0     H25932   8.307   5.872   3.029  3.3833 -0.5083 -0.2368
  913MOL0     H25933   8.067   5.889   3.127 -1.7732 -3.5371 -0.1192
  913MOL0     H25934   8.104   5.774   3.250  2.4709 -2.7940 -1.2306
  913MOL0     H25935   8.252   6.038   3.196 -0.8765 -0.5352 -1.8948
  913MOL0     H25936   8.262   5.923   3.341 -0.3977 -2.7569 -1.1658
  913MOL0     H25937   8.035   6.108   3.247  0.2333 -2.3195 -3.5629
  913MOL0     H25938   7.988   5.966   3.328  0.7654  0.3578 -0.8657
  913MOL0     H25939   8.133   6.018   3.526  0.0660 -1.8879 -2.9009
  913MOL0     H25940   8.001   6.121   3.489 -1.0080 -0.4406 -2.9870
  913MOL0     H25941   8.250   6.210   3.356  1.6087 -0.4590  0.3699
  913MOL0     H25942   8.122   6.298   3.449 -0.6093 -0.6211 -0.1755
  913MOL0     H25943   8.149   6.207   3.735  0.1754  0.9691  1.2910
  913MOL0     H25944   8.299   6.225   3.957 -2.8115 -0.2826 -1.9745
  913MOL0     H25945   8.277   6.397   3.946 -0.6151 -2.0322  1.2539
  913MOL0     H25946   8.441   6.316   4.103  0.6866 -0.3326  0.0626
  913MOL0     H25947   8.545   6.255   3.975 -1.2166  0.0576 -3.2275
  913MOL0     H25948   8.527   6.488   3.880 -2.8980 -1.2716 -0.0053
  913MOL0     H25949   8.462   6.542   4.038  1.0031  1.6519 -0.5504
  913MOL0     H25950   8.653   6.516   4.169 -1.3110  3.0493  0.4851
  913MOL0     H25951   8.735   6.421   4.039 -0.3992 -0.4521  1.2281
  913MOL0     H25952   8.782   6.846   3.952  2.1878  1.1155  0.2115
  913MOL0     H25953   8.850   7.066   4.002  0.0736  1.5054 -0.5817
  913MOL0     H25954   9.015   7.055   3.966 -1.2205 -0.9814 -0.2792
  913MOL0     H25955   8.970   7.096   4.134  0.7623 -0.7795  0.6332
  913MOL0     H25956   9.428   6.883   4.173 -4.3270 -0.5548 -0.1044
  913MOL0     H25957   9.661   6.936   4.268 -0.8115  2.4058  0.1675
  913MOL0     H25958   9.848   6.861   4.403 -1.9534  1.1692 -2.0328
  913MOL0     H25959   9.798   7.034   4.388  1.5856  2.8813  1.9384
  913MOL0     H25960   9.991   6.916   4.613  0.3883 -1.1449 -1.5697
  913MOL0     H25961  10.034   7.026   4.477 -1.7411  1.3571 -0.5253
  913MOL0     H25962   9.862   7.191   4.553 -1.7179  0.4051  0.8812
  913MOL0     H25963  10.017   7.170   4.624  0.4458 -3.2091  0.9629
  913MOL0     H25964   9.858   6.994   4.785  1.6196 -0.4161 -1.4643
  913MOL0     H25965   9.745   7.118   4.737  0.3519  1.7381 -2.9289
  913MOL0     H25966   9.887   7.158   4.948 -1.6586 -1.1478 -0.0478
  913MOL0     H25967  10.014   7.214   4.831 -0.6228 -2.5233  1.8092
  913MOL0     H25968   9.740   7.330   4.879 -0.0666 -1.4039  1.3190
  913MOL0     H25969   9.848   7.388   4.755 -0.4322 -1.2058 -0.0257
  913MOL0     H25970   9.888   7.374   5.050 -0.5615  1.0168  0.9041
  913MOL0     H25971   9.856   7.523   4.964  2.3541  1.0680 -0.2408
  913MOL0     H25972  10.118   7.371   4.955 -2.2673 -1.3331  1.5686
  913MOL0     H25973  10.076   7.527   5.035  0.2799 -1.4172  1.0857
  913MOL0     H25974   9.490   6.895   4.659  0.4678 -1.5977 -0.3706
  913MOL0     H25975   9.265   6.849   4.548  0.8591 -0.2626  0.3187
  913MOL0     H25976   9.062   6.629   4.290 -1.2306 -0.7648 -0.1683
  913MOL0     H25977   8.893   6.509   4.169  0.3816  0.4765  1.6508
  913MOL0     H25978   7.941   5.947   2.933 -2.5687  2.7971 -2.4794
  913MOL0     H25979   7.739   5.978   2.811 -0.6499  0.9772 -2.1930
  913MOL0     H25980   7.331   5.996   2.835  1.3526  2.6848 -1.2991
  913MOL0     H25981   7.097   6.045   2.745  3.5755  0.5416  3.1371
  913MOL0     H25982   6.955   6.166   2.590  3.7536  2.2383  1.3931
  913MOL0     H25983   7.079   6.229   2.490  1.1963 -1.0833 -1.7879
  913MOL0     H25984   6.844   6.289   2.423  0.1460  0.4344 -1.0293
  913MOL0     H25985   6.804   6.122   2.388 -1.6124  1.3533 -1.6916
  913MOL0     H25986   7.028   6.271   2.231  1.2294 -1.1196 -1.5688
  913MOL0     H25987   6.966   6.109   2.210 -0.0729  0.4817 -0.9562
  913MOL0     H25988   6.770   6.318   2.196  1.5066  1.6700 -0.0227
  913MOL0     H25989   6.769   6.169   2.114 -0.6639  1.4233 -4.2488
  913MOL0     H25990   6.985   6.429   1.867 -1.1664  1.9979  0.5017
  913MOL0     H25991   7.238   5.923   2.358  1.3515  1.5852 -0.3774
  913MOL0     H25992   7.487   5.675   2.483  1.9591  0.5552 -0.1187
  913MOL0     H25993   7.396   5.748   2.343  0.2396 -0.9242 -0.7427
  913MOL0     H25994   7.536   5.828   2.419  0.0954 -0.3838  1.4616
  914MOL0     O25995   6.092   0.608   5.760  0.2778 -0.0731  0.0941
  914MOL0     C25996   6.035   0.528   5.834 -0.0743  1.6076  0.3700
  914MOL0     O25997   6.105   0.441   5.926  0.3826  0.1612 -0.6277
  914MOL0     C25998   6.239   0.439   5.906  0.3861 -0.5499 -0.5642
  914MOL0     C25999   6.314   0.500   6.005  0.1897 -0.3704  0.4310
  914MOL0     C26000   6.445   0.511   5.990 -0.3622  0.8956 -0.4602
  914MOL0     C26001   6.517   0.453   5.886 -0.6548  0.8134  0.3433
  914MOL0     O26002   6.652   0.473   5.876  0.3897 -0.5262 -0.2307
  914MOL0     C26003   6.711   0.457   5.749  0.5540  0.3269 -0.1604
  914MOL0     C26004   6.851   0.503   5.739  0.2392  1.0742 -0.1034
  914MOL0     C26005   6.941   0.433   5.638  0.7721  0.3885  1.0248
  914MOL0     C26006   6.933   0.485   5.499 -0.3206 -0.3617 -0.2723
  914MOL0     C26007   6.965   0.384   5.391 -0.4018  0.4862  0.5886
  914MOL0     C26008   7.111   0.329   5.385  0.4958 -0.0978  0.3165
  914MOL0     C26009   7.131   0.246   5.251  0.1985  0.2283 -0.7575
  914MOL0     C26010   7.059   0.110   5.267 -0.2168  0.0318 -0.3941
  914MOL0     N26011   7.141   0.034   5.364 -0.3132 -0.4085  0.2926
  914MOL0     C26012   7.127   0.020   5.501  0.3043 -0.5049 -0.2986
  914MOL0     C26013   7.219  -0.063   5.538 -0.3019 -1.3057 -0.4719
  914MOL0     C26014   7.261  -0.102   5.677  0.3651 -0.1064  0.2859
  914MOL0     C26015   7.345   0.003   5.747 -1.2592 -0.2356 -0.0792
  914MOL0     C26016   7.325   0.157   5.714  0.2766 -0.3803 -0.6593
  914MOL0     C26017   7.424   0.254   5.792 -0.0886  0.2720  0.3073
  914MOL0     O26018   7.384   0.391   5.780 -0.0366 -0.1190 -0.1062
  914MOL0     C26019   7.293   0.456   5.857  0.5528  0.3179 -0.0766
  914MOL0     C26020   7.259   0.586   5.813 -0.5524  0.0029 -0.0585
  914MOL0     C26021   7.161   0.671   5.871  0.9069 -0.3843 -0.2060
  914MOL0     C26022   7.138   0.801   5.799 -0.5201 -0.4911 -0.7473
  914MOL0     C26023   7.109   0.635   5.993 -0.0070 -0.0568 -1.1693
  914MOL0     C26024   7.043   0.733   6.092 -0.3912 -0.1891 -0.5738
  914MOL0     O26025   6.989   0.665   6.207  0.3510  0.2831  0.1767
  914MOL0     C26026   6.904   0.732   6.290  0.1084  0.7326  0.8299
  914MOL0     C26027   6.777   0.761   6.248  1.0498 -0.4800  0.0523
  914MOL0     C26028   6.679   0.807   6.329 -0.1201  0.4583  0.3748
  914MOL0     C26029   6.705   0.821   6.466  0.2517 -0.0421  0.6192
  914MOL0     O26030   6.617   0.858   6.563 -0.1364 -0.7615  0.1681
  914MOL0     C26031   6.477   0.868   6.535 -0.0895 -0.9242  0.6695
  914MOL0     C26032   6.411   0.738   6.569 -0.2714 -0.6456  0.3490
  914MOL0     C26033   6.266   0.757   6.542  0.1339  0.2419  0.1931
  914MOL0     C26034   6.188   0.638   6.597  0.3307  0.7670  0.1911
  914MOL0     C26035   6.039   0.670   6.574 -0.2433 -0.3940 -0.1173
  914MOL0     C26036   5.952   0.646   6.692 -0.5888 -0.8878  0.1513
  914MOL0     C26037   5.808   0.621   6.649  0.7986  0.1264  0.4730
  914MOL0     C26038   5.703   0.690   6.728 -0.7256 -1.0713 -0.0970
  914MOL0    Cl26039   5.628   0.823   6.641  0.2179 -0.2139 -0.1795
  914MOL0     C26040   6.837   0.795   6.512  0.0023  0.3677 -0.0084
  914MOL0     C26041   6.936   0.742   6.428  0.3742  0.4759 -0.0336
  914MOL0     O26042   7.031   0.850   6.063  0.0194  0.2228  0.4380
  914MOL0     C26043   7.124   0.506   6.036  0.3940 -0.3336 -0.9086
  914MOL0     C26044   7.215   0.414   5.964 -0.0279 -0.1385 -1.2737
  914MOL0     N26045   7.295  -0.088   5.425 -0.3339 -0.1209  1.0276
  914MOL0     N26046   7.250  -0.036   5.320 -0.7383  0.1679 -0.9517
  914MOL0     C26047   6.439   0.395   5.784 -0.4191  0.2104  0.0138
  914MOL0     C26048   6.300   0.393   5.793  0.0249  0.1072 -0.0437
  914MOL0     C26049   5.885   0.533   5.845 -0.3261  0.2227 -0.4292
  914MOL0     C26050   5.808   0.418   5.885  0.7759 -0.6766 -0.0778
  914MOL0     C26051   5.675   0.420   5.895  1.0584  0.4137 -0.5510
  914MOL0     C26052   5.606   0.534   5.871 -0.3660  0.3152 -0.0256
  914MOL0     O26053   5.470   0.547   5.882  0.7241  0.0978  0.4880
  914MOL0     C26054   5.381   0.444   5.917 -0.8415  0.3599 -0.1974
  914MOL0     C26055   5.264   0.515   5.965  0.4035  0.2467 -0.1208
  914MOL0     C26056   5.158   0.555   5.857 -0.3697  0.3416 -0.0720
  914MOL0     C26057   5.109   0.447   5.755 -0.3812  0.5469 -0.1285
  914MOL0     C26058   5.029   0.354   5.839 -0.2438  0.1201 -0.5603
  914MOL0     C26059   4.980   0.270   5.916  0.2584 -0.8249 -0.3475
  914MOL0     C26060   5.670   0.651   5.836 -0.1896 -0.2421  0.1497
  914MOL0     C26061   5.810   0.658   5.836  0.1024  0.4261  0.6204
  914MOL0     C26062   5.871   0.800   5.817  0.5526  0.5575  0.3134
  914MOL0     H26063   6.271   0.549   6.092  2.1916 -2.0246  2.4950
  914MOL0     H26064   6.507   0.566   6.060  0.0332 -0.1990  0.0537
  914MOL0     H26065   6.652   0.516   5.679 -0.3552 -2.0953 -1.5610
  914MOL0     H26066   6.709   0.350   5.728  0.1336  0.4145 -0.5872
  914MOL0     H26067   6.852   0.611   5.719  2.4771  0.7278 -2.4949
  914MOL0     H26068   6.906   0.497   5.833 -1.1979 -0.3771  0.6871
  914MOL0     H26069   7.046   0.417   5.661  1.0712 -0.1359 -0.5854
  914MOL0     H26070   6.904   0.330   5.633 -2.8716  1.5820  0.1289
  914MOL0     H26071   6.830   0.521   5.494  0.2403  1.7829  1.6956
  914MOL0     H26072   7.007   0.564   5.484  2.1174 -1.7444  3.0527
  914MOL0     H26073   6.949   0.422   5.289 -5.9625 -2.2269  0.0831
  914MOL0     H26074   6.894   0.301   5.397  1.0304 -0.6997  1.8050
  914MOL0     H26075   7.182   0.413   5.384 -3.0495  3.2152  1.5867
  914MOL0     H26076   7.142   0.278   5.476  1.3242 -1.4849 -0.6990
  914MOL0     H26077   7.239   0.233   5.239 -0.1271 -1.4354 -2.2078
  914MOL0     H26078   7.090   0.299   5.164  0.7242  0.7528 -0.6909
  914MOL0     H26079   6.954   0.125   5.293 -0.6890  0.1401 -2.1983
  914MOL0     H26080   7.054   0.049   5.176 -0.2296 -2.0636  0.9415
  914MOL0     H26081   7.064   0.065   5.576  2.6584 -0.0922  1.5181
  914MOL0     H26082   7.323  -0.191   5.666 -1.8328 -1.6289 -0.3570
  914MOL0     H26083   7.176  -0.119   5.744  0.5260  1.4990  0.9438
  914MOL0     H26084   7.341  -0.009   5.856  4.1427  0.2420  0.4668
  914MOL0     H26085   7.451  -0.020   5.733 -0.4405  1.7136  2.3185
  914MOL0     H26086   7.343   0.177   5.608  1.1213  2.4453 -0.0597
  914MOL0     H26087   7.219   0.177   5.734 -0.7185 -4.2431 -1.2957
  914MOL0     H26088   7.420   0.221   5.897 -1.1123  0.1158  0.2325
  914MOL0     H26089   7.523   0.242   5.748 -1.3266  1.2934 -3.0331
  914MOL0     H26090   7.324   0.621   5.733  2.0444 -3.7035  0.1519
  914MOL0     H26091   7.194   0.876   5.854 -2.6713  2.4278 -2.2272
  914MOL0     H26092   7.032   0.830   5.796  0.3621  3.4270  0.2405
  914MOL0     H26093   7.166   0.797   5.693 -0.4814  0.7538 -0.8037
  914MOL0     H26094   6.753   0.733   6.146 -0.0629 -1.9844  0.7003
  914MOL0     H26095   6.582   0.829   6.287 -1.2900 -1.8665  1.6749
  914MOL0     H26096   6.425   0.933   6.606  1.1624 -2.0150  2.6681
  914MOL0     H26097   6.455   0.909   6.435  2.7028  2.7791  1.3636
  914MOL0     H26098   6.461   0.659   6.512 -0.6077  0.5891 -1.7416
  914MOL0     H26099   6.427   0.718   6.676  0.4065 -1.6324  0.0810
  914MOL0     H26100   6.255   0.776   6.434 -1.0769  1.7979  0.5546
  914MOL0     H26101   6.230   0.845   6.596  2.3202  1.3704 -0.0695
  914MOL0     H26102   6.217   0.637   6.702 -2.3763  0.4798  1.0271
  914MOL0     H26103   6.208   0.539   6.557 -1.0700 -0.5357  2.4748
  914MOL0     H26104   6.021   0.775   6.550 -0.9193  0.0260  2.0263
  914MOL0     H26105   6.010   0.611   6.486 -2.9035 -2.8556  2.2113
  914MOL0     H26106   5.949   0.734   6.756 -1.6126 -0.1095 -0.9252
  914MOL0     H26107   5.991   0.556   6.741 -1.1234 -2.5367 -2.2361
  914MOL0     H26108   5.792   0.513   6.640  3.0518 -0.0565 -4.0412
  914MOL0     H26109   5.793   0.663   6.549 -4.1037 -4.2151 -1.0954
  914MOL0     H26110   5.748   0.745   6.811 -4.1498  0.9167  0.6184
  914MOL0     H26111   5.631   0.623   6.774 -1.8579 -1.8131 -2.7381
  914MOL0     H26112   6.863   0.788   6.617 -2.1818  1.1577  0.6497
  914MOL0     H26113   7.032   0.707   6.464  0.9815  0.9924 -1.0993
  914MOL0     H26114   7.057   0.468   6.112 -1.8210  1.2893 -1.9315
  914MOL0     H26115   7.227   0.309   5.990  0.2649 -0.5400 -2.9110
  914MOL0     H26116   6.492   0.377   5.691 -0.0436  1.6272 -0.0755
  914MOL0     H26117   6.235   0.358   5.713  1.6691 -0.2757 -1.2896
  914MOL0     H26118   5.869   0.329   5.897  1.0457 -0.5563 -0.5374
  914MOL0     H26119   5.630   0.330   5.936 -0.9200  0.6134 -2.1496
  914MOL0     H26120   5.360   0.369   5.840  0.9288  2.7914 -3.2810
  914MOL0     H26121   5.431   0.395   6.002 -0.3392  1.2819  0.0574
  914MOL0     H26122   5.284   0.606   6.022 -0.1514  1.3028 -1.5563
  914MOL0     H26123   5.216   0.454   6.042  2.4071  0.6072  1.5042
  914MOL0     H26124   5.078   0.609   5.909 -0.2260  0.4589  0.0266
  914MOL0     H26125   5.196   0.640   5.800  1.1153 -0.9505 -1.1039
  914MOL0     H26126   5.198   0.398   5.713 -3.1614 -2.8175 -2.7141
  914MOL0     H26127   5.044   0.483   5.675  0.5107  0.3453 -0.9606
  914MOL0     H26128   4.932   0.195   5.976  2.5984 -1.7248  0.5278
  914MOL0     H26129   5.614   0.740   5.809  1.1376  1.7349  3.3691
  914MOL0     H26130   5.872   0.826   5.711  2.3667 -3.2584 -0.7943
  914MOL0     H26131   5.801   0.872   5.859 -0.6035  0.9092 -2.0555
  914MOL0     H26132   5.972   0.814   5.858  0.8745  0.7459 -0.5381
  915MOL0     O26133   8.994  10.609   0.333  0.2644 -0.4532 -0.9346
  915MOL0     C26134   8.939  10.500   0.322  0.7342 -0.4710 -1.6405
  915MOL0     O26135   8.805  10.479   0.347  0.2724 -0.5918  0.0795
  915MOL0     C26136   8.724  10.594   0.382 -0.1070  0.2297  1.0211
  915MOL0     C26137   8.644  10.594   0.494  0.2962  0.0378 -1.1687
  915MOL0     C26138   8.547  10.690   0.527  0.3073  0.5973  0.1438
  915MOL0     C26139   8.546  10.799   0.442 -0.3032 -0.1101  1.1313
  915MOL0     O26140   8.460  10.895   0.472 -0.2998 -0.3961 -0.4799
  915MOL0     C26141   8.530  11.008   0.527  0.4376 -0.4203  0.0334
  915MOL0     C26142   8.423  11.093   0.617 -0.4118  0.3460  0.3731
  915MOL0     C26143   8.443  11.033   0.754  0.1704 -0.1580 -1.0280
  915MOL0     C26144   8.357  10.915   0.782  0.7267  0.1707  0.8400
  915MOL0     C26145   8.363  10.863   0.931  0.1048 -0.5953 -0.4305
  915MOL0     C26146   8.237  10.778   0.965  0.5478  0.6287  0.2382
  915MOL0     C26147   8.224  10.741   1.112 -0.4132  0.3234  0.0472
  915MOL0     C26148   8.294  10.617   1.154  0.5509 -0.7816 -0.3575
  915MOL0     N26149   8.226  10.493   1.118  0.8256  0.1277 -0.0558
  915MOL0     C26150   8.257  10.408   1.015  0.2323 -1.0149  0.0044
  915MOL0     C26151   8.164  10.316   1.017  0.0343  0.4027  0.1876
  915MOL0     C26152   8.162  10.181   0.948  0.6069 -0.1329 -1.1258
  915MOL0     C26153   8.036  10.146   0.869  0.3868 -0.2036 -0.6382
  915MOL0     C26154   8.034   9.997   0.873 -0.4275 -0.3545  0.4263
  915MOL0     C26155   7.935   9.947   0.769  0.6536  0.3305  0.2401
  915MOL0     O26156   7.971   9.986   0.630  0.8506  0.7117  0.2276
  915MOL0     C26157   7.874  10.057   0.558  0.1480 -0.0974 -0.0736
  915MOL0     C26158   7.734  10.038   0.560 -0.0627 -0.9526 -0.1544
  915MOL0     C26159   7.644  10.130   0.498  0.7452  0.3972  0.4750
  915MOL0     C26160   7.490  10.100   0.501 -0.8201  0.8341  0.4058
  915MOL0     C26161   7.699  10.239   0.430 -0.0206  0.9482  0.2351
  915MOL0     C26162   7.617  10.330   0.342  0.8291  0.0074 -0.0401
  915MOL0     O26163   7.503  10.381   0.395 -0.5718  1.0336  0.7378
  915MOL0     C26164   7.409  10.429   0.302  0.0849 -0.5434  0.1122
  915MOL0     C26165   7.363  10.563   0.316 -0.3705  0.1559 -0.7451
  915MOL0     C26166   7.265  10.615   0.238 -0.2063  0.2835 -0.1369
  915MOL0     C26167   7.217  10.538   0.130  0.9119 -1.0738 -0.2256
  915MOL0     O26168   7.117  10.604   0.062  0.1503 -0.4474  0.4203
  915MOL0     C26169   7.018  10.518  -0.005 -0.7278 -0.1809  0.0778
  915MOL0     C26170   6.878  10.571   0.014  1.0599 -0.4026  0.3293
  915MOL0     C26171   6.765  10.497  -0.061 -0.4978 -0.2870 -0.1796
  915MOL0     C26172   6.638  10.558  -0.021 -0.7589 -0.1017  0.3624
  915MOL0     C26173   6.512  10.493  -0.078 -0.6372  0.1491  0.0853
  915MOL0     C26174   6.403  10.592  -0.116 -0.4231  0.3634  0.1540
  915MOL0     C26175   6.262  10.524  -0.125  0.0513  1.2938 -0.7628
  915MOL0     C26176   6.223  10.481   0.013  0.4178  0.1908 -0.5470
  915MOL0    Cl26177   6.046  10.508   0.038  0.0044  0.6938 -0.2571
  915MOL0     C26178   7.257  10.402   0.120  0.0729 -0.1009 -0.2537
  915MOL0     C26179   7.350  10.350   0.206  0.8353 -0.4125  0.3144
  915MOL0     O26180   7.652  10.353   0.227 -0.8452 -0.0309 -0.6424
  915MOL0     C26181   7.846  10.247   0.412  0.3826 -0.0699 -0.8242
  915MOL0     C26182   7.929  10.158   0.481  0.3784  0.0013 -0.8222
  915MOL0     N26183   8.075  10.348   1.119  0.5468  0.4184  1.0639
  915MOL0     N26184   8.104  10.458   1.169  0.1596  0.5151  0.1697
  915MOL0     C26185   8.636  10.818   0.338 -0.4143  0.0222  0.3744
  915MOL0     C26186   8.715  10.709   0.296 -1.0380 -0.3657 -0.1093
  915MOL0     C26187   9.021  10.389   0.277 -1.1240  0.2090  0.2838
  915MOL0     C26188   9.144  10.419   0.211 -0.3657  0.0647 -0.5842
  915MOL0     C26189   9.236  10.320   0.175  0.2235 -0.0632  0.0469
  915MOL0     C26190   9.209  10.189   0.198  0.5359  0.3780 -0.4686
  915MOL0     O26191   9.288  10.079   0.155 -0.6271  0.0187 -0.0968
  915MOL0     C26192   9.391  10.098   0.057 -0.1046  0.0371 -0.2059
  915MOL0     C26193   9.440   9.955   0.003 -0.0325 -1.2263 -0.2227
  915MOL0     C26194   9.555   9.992  -0.093  0.8082  0.4277 -0.4900
  915MOL0     C26195   9.615   9.871  -0.162  0.0914  0.0086  0.3270
  915MOL0     C26196   9.525   9.788  -0.245  0.2472  0.7780 -0.4969
  915MOL0     C26197   9.461   9.715  -0.312  0.0348 -0.1297  0.2143
  915MOL0     C26198   9.087  10.154   0.261 -0.3735 -0.8496 -0.3296
  915MOL0     C26199   8.996  10.257   0.304  0.9967  0.5125 -0.2181
  915MOL0     C26200   8.879  10.199   0.393 -1.6030  0.9821  0.2444
  915MOL0     H26201   8.654  10.501   0.549 -2.8275 -1.5462 -3.0113
  915MOL0     H26202   8.495  10.669   0.619  1.3434 -0.0476  0.6012
  915MOL0     H26203   8.575  11.069   0.448 -1.5305 -0.3421 -1.0888
  915MOL0     H26204   8.615  10.973   0.587  1.3675  0.3123 -0.8110
  915MOL0     H26205   8.455  11.197   0.617  1.8580 -0.2694 -1.3752
  915MOL0     H26206   8.322  11.079   0.577 -0.1335 -0.8253  0.0364
  915MOL0     H26207   8.548  11.009   0.776 -0.5946 -1.8480  1.1214
  915MOL0     H26208   8.410  11.101   0.833  0.1403  0.9941 -2.0031
  915MOL0     H26209   8.261  10.949   0.741 -0.1566  0.4774  3.0610
  915MOL0     H26210   8.365  10.828   0.715 -1.9576  0.8376 -0.5188
  915MOL0     H26211   8.366  10.949   0.998 -3.2089 -1.4990  1.1263
  915MOL0     H26212   8.450  10.798   0.941  0.1115 -0.2955  2.1059
  915MOL0     H26213   8.158  10.851   0.944  1.7269  2.1739  0.9867
  915MOL0     H26214   8.228  10.691   0.900  1.4148  1.6043 -1.2638
  915MOL0     H26215   8.118  10.720   1.132  0.5286 -2.7457  2.6428
  915MOL0     H26216   8.268  10.819   1.175  2.5221 -1.3322  0.1920
  915MOL0     H26217   8.392  10.614   1.106  1.0822  0.0435  0.6242
  915MOL0     H26218   8.292  10.620   1.264 -2.9234  0.2340 -0.3149
  915MOL0     H26219   8.342  10.416   0.948 -0.0032 -2.6089 -0.5271
  915MOL0     H26220   8.157  10.112   1.033 -1.5565  0.8542 -0.3627
  915MOL0     H26221   8.254  10.168   0.890  0.3126  2.2747 -2.2640
  915MOL0     H26222   7.946  10.184   0.918  1.6281  0.6338  1.1151
  915MOL0     H26223   8.025  10.204   0.777 -3.1253  5.1531  2.6197
  915MOL0     H26224   8.132   9.960   0.843 -0.2970 -0.5766  1.1019
  915MOL0     H26225   7.993   9.966   0.970  1.9006 -0.4587  1.4485
  915MOL0     H26226   7.943   9.838   0.772 -2.6776 -0.0318  0.0202
  915MOL0     H26227   7.834   9.982   0.792 -1.1196 -2.8092 -1.9812
  915MOL0     H26228   7.693   9.956   0.618 -1.7454  1.9933  3.2086
  915MOL0     H26229   7.448  10.092   0.400  1.4364  5.2674 -1.1443
  915MOL0     H26230   7.436  10.183   0.547 -2.1680 -0.1013  0.5733
  915MOL0     H26231   7.467  10.002   0.543 -2.3428 -1.4616 -4.9315
  915MOL0     H26232   7.399  10.629   0.395  1.3623  1.1992 -2.3254
  915MOL0     H26233   7.252  10.723   0.236 -1.5642  0.1128 -0.9027
  915MOL0     H26234   7.036  10.505  -0.112 -3.3988  1.3494 -0.6563
  915MOL0     H26235   7.014  10.417   0.039 -1.6309 -1.4633 -2.7277
  915MOL0     H26236   6.853  10.575   0.120  0.4733 -1.5231  0.2516
  915MOL0     H26237   6.872  10.676  -0.016 -3.1055 -0.7440 -0.5902
  915MOL0     H26238   6.762  10.390  -0.038 -0.7782 -0.3068 -0.3018
  915MOL0     H26239   6.775  10.516  -0.168 -1.6632  1.6297  0.0100
  915MOL0     H26240   6.638  10.665  -0.042 -3.3878 -0.1259 -0.0253
  915MOL0     H26241   6.637  10.536   0.086  0.8654 -1.4503  0.1515
  915MOL0     H26242   6.533  10.440  -0.172  0.1368 -2.6732  1.7180
  915MOL0     H26243   6.469  10.415  -0.014  1.9888 -0.8541  0.7491
  915MOL0     H26244   6.440  10.610  -0.217 -1.5000 -0.0955 -0.3325
  915MOL0     H26245   6.408  10.681  -0.052 -0.9180 -1.0283  2.2296
  915MOL0     H26246   6.262  10.440  -0.195  1.6104  2.0386 -1.6865
  915MOL0     H26247   6.193  10.602  -0.158  1.6730  1.8198 -3.1052
  915MOL0     H26248   6.271  10.535   0.095 -0.5798 -2.8086  2.2439
  915MOL0     H26249   6.237  10.372   0.022  0.6710  0.3061  0.5622
  915MOL0     H26250   7.213  10.326   0.056  0.1605  1.1780 -1.8823
  915MOL0     H26251   7.379  10.248   0.184  2.3886  0.2836 -0.9960
  915MOL0     H26252   7.884  10.333   0.358  0.9039 -0.5327 -1.2120
  915MOL0     H26253   8.037  10.162   0.489  0.3902 -2.4935  3.2834
  915MOL0     H26254   8.629  10.902   0.269  1.8562 -0.9239 -1.1295
  915MOL0     H26255   8.778  10.718   0.209 -0.1053 -1.3749  0.4447
  915MOL0     H26256   9.169  10.522   0.186 -1.3343  0.5788  0.4487
  915MOL0     H26257   9.325  10.364   0.131 -0.4034  1.4935  0.2501
  915MOL0     H26258   9.351  10.157  -0.027 -1.6073 -1.7915 -0.8544
  915MOL0     H26259   9.475  10.152   0.102  1.1696 -0.9151 -1.3478
  915MOL0     H26260   9.356   9.910  -0.051 -0.0712 -0.2634 -1.0045
  915MOL0     H26261   9.468   9.886   0.083 -0.4844 -1.4282 -0.2386
  915MOL0     H26262   9.525  10.067  -0.166  0.8003 -1.5147 -2.6235
  915MOL0     H26263   9.633  10.044  -0.037  0.2831  0.2535  0.4177
  915MOL0     H26264   9.678   9.821  -0.089 -2.3892 -0.9251  1.9396
  915MOL0     H26265   9.685   9.904  -0.239  0.3132 -3.2837 -1.0030
  915MOL0     H26266   9.413   9.651  -0.382  4.8001 -3.2619 -0.6640
  915MOL0     H26267   9.063  10.048   0.265  0.6333 -1.0980 -0.6947
  915MOL0     H26268   8.892  10.092   0.414 -0.4158  0.4926 -2.5070
  915MOL0     H26269   8.891  10.250   0.489  0.1083  1.1247 -0.0272
  915MOL0     H26270   8.776  10.222   0.362 -1.0836  2.1491 -0.6745
  916MOL0     O26271   9.690   7.774   5.098  0.3355  0.6231  0.3688
  916MOL0     C26272   9.739   7.833   5.190 -0.4110  0.6082 -0.5621
  916MOL0     O26273   9.798   7.953   5.193  0.1241  0.1751 -0.0042
  916MOL0     C26274   9.813   8.010   5.067 -0.3168  0.0832 -0.1699
  916MOL0     C26275   9.723   8.077   4.991  0.0166  0.0797 -1.6611
  916MOL0     C26276   9.759   8.121   4.864 -0.6188 -0.0287  0.1871
  916MOL0     C26277   9.895   8.125   4.823  0.0834  0.0093 -0.9141
  916MOL0     O26278   9.949   8.179   4.714  0.2020  0.2556 -0.1570
  916MOL0     C26279   9.901   8.307   4.673 -0.0824  0.3826 -0.3730
  916MOL0     C26280   9.970   8.426   4.744 -0.6444  0.5171 -1.0376
  916MOL0     C26281   9.878   8.554   4.751 -0.6433  0.0214 -0.3435
  916MOL0     C26282   9.865   8.619   4.614  0.6230 -0.4459 -0.2929
  916MOL0     C26283   9.799   8.753   4.633 -0.7829 -0.1578  0.0287
  916MOL0     C26284   9.788   8.829   4.504 -0.1670  0.1791  0.9063
  916MOL0     C26285   9.738   8.971   4.534  0.4111 -0.6678  0.5225
  916MOL0     C26286   9.617   8.995   4.620 -0.4299  0.5122  0.0066
  916MOL0     N26287   9.567   9.134   4.630  0.1826  0.1758  0.1355
  916MOL0     C26288   9.488   9.181   4.738  0.0188  0.3796  0.4707
  916MOL0     C26289   9.389   9.249   4.681  0.8628 -0.4462 -1.4457
  916MOL0     C26290   9.270   9.296   4.767  0.4595  0.1017 -0.1455
  916MOL0     C26291   9.139   9.238   4.735  0.9549 -0.2447  1.3201
  916MOL0     C26292   9.083   9.263   4.593  0.0973 -0.4172 -0.4713
  916MOL0     C26293   9.098   9.399   4.527  0.0434  1.1240  0.5657
  916MOL0     O26294   9.116   9.509   4.619  0.9050  0.4352  0.3350
  916MOL0     C26295   9.009   9.575   4.680  1.5225  1.1289 -0.4230
  916MOL0     C26296   9.029   9.700   4.741 -0.0574  0.3703  0.4281
  916MOL0     C26297   8.927   9.769   4.800  0.0338 -0.1885  0.1919
  916MOL0     C26298   8.977   9.900   4.868 -0.3141  0.4284 -0.6639
  916MOL0     C26299   8.796   9.734   4.790  0.6405  0.6932 -0.1995
  916MOL0     C26300   8.672   9.807   4.837 -0.0019  0.6812  0.6290
  916MOL0     O26301   8.557   9.810   4.753  0.0347  0.0608 -0.6054
  916MOL0     C26302   8.456   9.895   4.800 -0.2626 -0.1393 -0.6725
  916MOL0     C26303   8.450  10.020   4.742  0.2525  0.7746 -1.0111
  916MOL0     C26304   8.335  10.102   4.772  0.3358  0.3235 -0.4945
  916MOL0     C26305   8.226  10.053   4.851  0.1914  0.2068  1.2211
  916MOL0     O26306   8.109  10.119   4.887 -0.4133  0.5611  0.7554
  916MOL0     C26307   8.082  10.251   4.843 -0.3258  0.3538 -0.4980
  916MOL0     C26308   8.037  10.234   4.697  0.0340  1.3903 -0.5805
  916MOL0     C26309   7.990  10.362   4.626  0.8926 -0.2087 -0.2791
  916MOL0     C26310   7.862  10.417   4.691  0.6937 -0.1587 -0.2197
  916MOL0     C26311   7.816  10.529   4.601 -0.2176  0.0880 -0.6168
  916MOL0     C26312   7.692  10.603   4.644 -0.4561 -0.1532  0.0890
  916MOL0     C26313   7.586  10.498   4.677  0.8564  0.3466 -0.1311
  916MOL0     C26314   7.444  10.569   4.698 -0.0370 -0.1084 -0.3469
  916MOL0    Cl26315   7.335  10.441   4.734  0.1795 -0.0018  0.3022
  916MOL0     C26316   8.238   9.921   4.902 -0.0046 -0.1485  0.2439
  916MOL0     C26317   8.351   9.844   4.877  0.2630  0.3614  0.4683
  916MOL0     O26318   8.676   9.837   4.953 -0.2428 -0.2123 -0.0244
  916MOL0     C26319   8.771   9.606   4.735  0.1569 -0.6835 -0.7519
  916MOL0     C26320   8.871   9.530   4.687 -0.5875  0.5971 -0.7131
  916MOL0     N26321   9.416   9.268   4.548 -0.5903  0.3823 -0.1555
  916MOL0     N26322   9.519   9.194   4.518  0.2214  0.2942 -0.0764
  916MOL0     C26323   9.983   8.060   4.907  0.0921  0.7358  1.5378
  916MOL0     C26324   9.947   7.996   5.018 -0.1437  0.4184 -0.6308
  916MOL0     C26325   9.746   7.756   5.318  0.3046 -0.3212  0.2502
  916MOL0     C26326   9.817   7.635   5.317 -0.0974  0.0636 -0.3009
  916MOL0     C26327   9.826   7.567   5.442 -0.5465  1.5543 -0.6408
  916MOL0     C26328   9.755   7.610   5.551 -0.1734 -0.1297  0.6658
  916MOL0     O26329   9.754   7.534   5.663 -0.0015 -0.6705  0.3610
  916MOL0     C26330   9.711   7.591   5.787 -0.3937  0.8421  0.6313
  916MOL0     C26331   9.765   7.499   5.904  1.4560 -0.6587  0.7065
  916MOL0     C26332   9.917   7.504   5.920  0.4469  0.2237  0.2285
  916MOL0     C26333   9.959   7.414   6.031  0.1585  0.6076 -1.0608
  916MOL0     C26334  10.105   7.393   6.004 -0.3512  0.0477 -0.5440
  916MOL0     C26335  10.220   7.371   5.977 -1.2622 -0.3648 -0.2995
  916MOL0     C26336   9.683   7.731   5.544  0.1096  0.2557 -0.3525
  916MOL0     C26337   9.676   7.807   5.434  0.6694  0.0074  0.4186
  916MOL0     C26338   9.598   7.934   5.428 -0.0056 -0.4314  0.4371
  916MOL0     H26339   9.626   8.081   5.039  0.9773 -1.2534  0.5759
  916MOL0     H26340   9.680   8.151   4.796 -0.0807 -4.4158 -2.8013
  916MOL0     H26341   9.791   8.305   4.678 -0.0725 -1.9377  4.0546
  916MOL0     H26342   9.934   8.320   4.569  2.4365  0.4845  0.3786
  916MOL0     H26343  10.011   8.399   4.842 -1.0891  1.0367 -0.7050
  916MOL0     H26344  10.055   8.434   4.676 -0.3207  0.1766 -0.6788
  916MOL0     H26345   9.779   8.527   4.790 -1.1473  0.2027 -1.4821
  916MOL0     H26346   9.927   8.632   4.810 -0.8529  1.8685 -2.4970
  916MOL0     H26347   9.957   8.643   4.559  0.0916  1.7449 -0.3426
  916MOL0     H26348   9.808   8.552   4.549  1.7153 -0.1420 -1.6225
  916MOL0     H26349   9.852   8.799   4.717  3.6779 -1.0948 -1.9841
  916MOL0     H26350   9.701   8.724   4.672 -0.9586 -2.8786 -2.1062
  916MOL0     H26351   9.881   8.829   4.447 -0.7387 -2.9454 -0.2199
  916MOL0     H26352   9.711   8.780   4.443 -0.1438 -1.2305  1.9492
  916MOL0     H26353   9.718   9.024   4.440  0.1512  2.6449  2.2824
  916MOL0     H26354   9.816   9.040   4.567 -0.8628  1.3866 -0.5454
  916MOL0     H26355   9.542   8.927   4.579  1.0671  0.5305 -3.0078
  916MOL0     H26356   9.642   8.949   4.717 -1.8380 -1.4069 -0.4694
  916MOL0     H26357   9.489   9.155   4.844  0.0194  1.4050  0.7302
  916MOL0     H26358   9.255   9.401   4.743 -0.0046 -0.1953 -1.2215
  916MOL0     H26359   9.297   9.283   4.872 -1.4977  2.0448  0.6679
  916MOL0     H26360   9.143   9.129   4.746 -1.1463 -0.3200  1.7221
  916MOL0     H26361   9.065   9.288   4.799 -1.8637  2.1746 -3.2312
  916MOL0     H26362   9.134   9.183   4.539  0.5927 -1.7033  1.7506
  916MOL0     H26363   8.977   9.234   4.592 -0.4389  1.2885 -3.2206
  916MOL0     H26364   9.190   9.387   4.470 -1.3373 -0.0092 -1.5866
  916MOL0     H26365   9.025   9.411   4.446  0.2658 -0.4074  0.1001
  916MOL0     H26366   9.132   9.734   4.737  0.7497 -1.4401  3.1499
  916MOL0     H26367   8.893   9.963   4.896 -1.4424 -0.4769 -1.8868
  916MOL0     H26368   9.024   9.960   4.789  1.6509  1.7398  1.3826
  916MOL0     H26369   9.060   9.884   4.938 -2.0133 -3.2678  0.7544
  916MOL0     H26370   8.531  10.054   4.678  0.8782  1.9413  0.3380
  916MOL0     H26371   8.337  10.206   4.742  1.5383  0.3315 -0.4294
  916MOL0     H26372   8.002  10.299   4.900 -0.3239  0.7450 -0.8237
  916MOL0     H26373   8.173  10.311   4.846  1.0925 -1.3655 -3.8549
  916MOL0     H26374   8.128  10.205   4.644  1.4312  0.8229  1.9710
  916MOL0     H26375   7.953  10.165   4.681 -0.1841  1.5659 -0.2082
  916MOL0     H26376   7.967  10.338   4.521  0.5187 -1.9388  0.1756
  916MOL0     H26377   8.062  10.444   4.636 -1.9333  2.2920  1.5116
  916MOL0     H26378   7.876  10.459   4.791 -0.7816 -1.5833  0.6219
  916MOL0     H26379   7.780  10.346   4.699 -0.2453  0.9276  0.0743
  916MOL0     H26380   7.897  10.603   4.591 -0.3908 -0.0017 -4.8341
  916MOL0     H26381   7.803  10.504   4.495  0.3244  0.5291 -0.7998
  916MOL0     H26382   7.657  10.675   4.570  1.0035  1.1288  0.6088
  916MOL0     H26383   7.710  10.663   4.734 -1.4453  3.2686 -1.8042
  916MOL0     H26384   7.613  10.455   4.774 -1.0950 -2.6192 -0.7700
  916MOL0     H26385   7.579  10.411   4.611 -1.6478  0.4624 -0.1033
  916MOL0     H26386   7.402  10.619   4.610 -1.4181  0.3840  0.5620
  916MOL0     H26387   7.454  10.646   4.775 -2.5852  0.2212 -0.2755
  916MOL0     H26388   8.156   9.875   4.956 -0.6007  1.5208  0.8178
  916MOL0     H26389   8.357   9.747   4.925 -2.3551  0.5826  1.3997
  916MOL0     H26390   8.669   9.569   4.738  0.7988 -2.5258  1.9596
  916MOL0     H26391   8.852   9.435   4.638 -1.7125  0.2236  0.3965
  916MOL0     H26392  10.089   8.071   4.884 -0.1078  1.1238  0.7709
  916MOL0     H26393  10.009   7.948   5.093 -0.6078  1.6518  0.5745
  916MOL0     H26394   9.861   7.586   5.231 -0.4005 -1.3790  0.3365
  916MOL0     H26395   9.891   7.480   5.449  1.5509  3.1559  3.1230
  916MOL0     H26396   9.746   7.694   5.795 -0.6106  0.8754  1.2046
  916MOL0     H26397   9.602   7.588   5.785 -0.4346  2.0076  0.6784
  916MOL0     H26398   9.725   7.402   5.872  0.9532  0.1653 -1.2713
  916MOL0     H26399   9.725   7.534   6.000  4.2436 -0.5665  1.9223
  916MOL0     H26400   9.957   7.472   5.824  0.3078 -1.5243  0.7232
  916MOL0     H26401   9.947   7.607   5.940 -3.9087  1.5706  0.9428
  916MOL0     H26402   9.912   7.315   6.026  0.3852  0.1727  2.4387
  916MOL0     H26403   9.942   7.467   6.126 -0.7739  2.3535 -2.1384
  916MOL0     H26404  10.324   7.352   5.958 -1.3267 -0.4151 -0.5972
  916MOL0     H26405   9.626   7.764   5.630  0.7834 -3.0330  1.5527
  916MOL0     H26406   9.522   7.910   5.354  0.5427 -1.0940  0.0699
  916MOL0     H26407   9.553   7.966   5.523  1.9963  1.9156  0.6936
  916MOL0     H26408   9.668   8.014   5.400 -1.9355  1.4615  0.7865
  917MOL0     O26409  10.503  10.177   8.731 -0.3836  0.6629  0.4015
  917MOL0     C26410  10.381  10.142   8.726 -0.5180  0.4901 -0.1620
  917MOL0     O26411  10.327  10.038   8.786 -0.0352 -0.2296  0.1579
  917MOL0     C26412  10.409   9.936   8.818  0.2424  0.3999  0.1024
  917MOL0     C26413  10.422   9.818   8.739  1.1128  0.0476  0.1661
  917MOL0     C26414  10.512   9.723   8.786 -0.0065  0.5548  0.2715
  917MOL0     C26415  10.598   9.731   8.903 -0.0680 -0.2038  0.2549
  917MOL0     O26416  10.693   9.641   8.933 -0.3425 -0.5759 -0.3679
  917MOL0     C26417  10.756   9.586   8.810 -0.1761  0.4959  0.6768
  917MOL0     C26418  10.903   9.545   8.825  1.1924  0.3139  0.5061
  917MOL0     C26419  10.992   9.669   8.800  0.8512 -0.1254  0.2126
  917MOL0     C26420  11.137   9.631   8.815 -0.0448 -0.7936  0.3960
  917MOL0     C26421  11.250   9.737   8.803 -0.3089 -0.0809  0.6562
  917MOL0     C26422  11.256   9.783   8.663  0.4696 -0.9509 -0.3201
  917MOL0     C26423  11.394   9.859   8.627 -0.6172  0.3282  0.4631
  917MOL0     C26424  11.399   9.907   8.480 -0.2963 -0.0297 -0.4754
  917MOL0     N26425  11.518   9.989   8.453 -0.4388 -0.4360  0.0169
  917MOL0     C26426  11.647   9.956   8.500 -0.7438  0.3997  0.4840
  917MOL0     C26427  11.708  10.083   8.499 -0.4153  1.0588  0.1343
  917MOL0     C26428  11.848  10.108   8.530 -0.4483  0.7550 -0.6816
  917MOL0     C26429  11.952  10.107   8.414  0.8151  0.1161  0.6107
  917MOL0     C26430  11.920  10.216   8.318 -0.1318 -0.2654  1.1016
  917MOL0     C26431  12.030  10.210   8.199 -0.0640 -0.3015  0.6548
  917MOL0     O26432  12.014  10.091   8.113  0.2821 -0.0574 -0.5787
  917MOL0     C26433  11.964  10.102   7.989  0.1764  0.5314 -0.3572
  917MOL0     C26434  11.955   9.970   7.930  0.1322  0.1292 -0.0073
  917MOL0     C26435  11.884   9.947   7.809 -0.0145 -0.4276  0.3424
  917MOL0     C26436  11.883   9.808   7.760  0.4813 -0.0427  0.2856
  917MOL0     C26437  11.826  10.060   7.745 -0.4179  0.1109  0.4006
  917MOL0     C26438  11.743  10.045   7.625  0.8360 -0.4169  0.5232
  917MOL0     O26439  11.718  10.155   7.550  0.3301 -0.7984 -0.1157
  917MOL0     C26440  11.622  10.155   7.449 -0.2134 -0.2707 -0.1114
  917MOL0     C26441  11.638  10.081   7.333  0.7359  0.6895 -0.2848
  917MOL0     C26442  11.542  10.099   7.243  0.1202 -0.3055  0.8401
  917MOL0     C26443  11.421  10.177   7.251  0.6861  0.5328 -0.6239
  917MOL0     O26444  11.334  10.172   7.157  0.4351  0.4992  0.2019
  917MOL0     C26445  11.193  10.169   7.191 -1.1331 -0.2628 -0.8838
  917MOL0     C26446  11.101  10.196   7.075  0.0822  0.8630  1.0801
  917MOL0     C26447  10.960  10.157   7.118 -0.0608 -0.3191  0.0605
  917MOL0     C26448  10.875  10.152   6.985 -0.6797  0.9519  0.2293
  917MOL0     C26449  10.734  10.122   7.009  0.5013 -0.8644  0.2491
  917MOL0     C26450  10.684   9.983   6.961  0.6896  0.6097 -0.5642
  917MOL0     C26451  10.533   9.967   6.985  0.7720  0.3286  0.2420
  917MOL0     C26452  10.433  10.068   6.913  0.9125 -0.4224  0.3216
  917MOL0    Cl26453  10.260  10.029   6.943  0.0790  0.1840 -0.6062
  917MOL0     C26454  11.425  10.263   7.359 -0.5311 -0.5442  0.3226
  917MOL0     C26455  11.517  10.251   7.462  0.0146  0.0287 -0.2893
  917MOL0     O26456  11.690   9.930   7.602 -0.3669  0.2343 -0.5959
  917MOL0     C26457  11.828  10.188   7.810 -0.2220  0.1392 -0.4757
  917MOL0     C26458  11.898  10.206   7.931  0.0394  0.0970 -0.4766
  917MOL0     N26459  11.619  10.175   8.456  0.1721  0.2487  0.6885
  917MOL0     N26460  11.507  10.122   8.421 -0.2474  0.0479 -0.2003
  917MOL0     C26461  10.587   9.849   8.974  0.4324 -0.4101 -0.0176
  917MOL0     C26462  10.491   9.948   8.934 -1.0121  0.0719 -0.4276
  917MOL0     C26463  10.294  10.250   8.680  0.5874 -0.2031 -0.7612
  917MOL0     C26464  10.176  10.261   8.765 -0.2064  0.0328  0.0829
  917MOL0     C26465  10.079  10.355   8.736  0.0301 -0.1936 -0.2919
  917MOL0     C26466  10.077  10.426   8.619  0.6194 -0.1348  0.2718
  917MOL0     O26467   9.963  10.504   8.601  1.0389 -0.7074 -0.1747
  917MOL0     C26468   9.979  10.628   8.532 -0.3638 -0.1128 -0.4581
  917MOL0     C26469   9.853  10.715   8.554 -0.1956  0.9139 -1.0303
  917MOL0     C26470   9.737  10.665   8.470  0.2480 -0.9028  0.3597
  917MOL0     C26471   9.594  10.693   8.521 -0.5131  0.1568 -1.0216
  917MOL0     C26472   9.489  10.662   8.422 -0.9401 -0.0982  0.4038
  917MOL0     C26473   9.418  10.648   8.329 -0.4722 -0.9622 -1.3029
  917MOL0     C26474  10.200  10.418   8.541  0.2870 -0.6907  0.2156
  917MOL0     C26475  10.304  10.335   8.571  0.2704  0.9432  1.1548
  917MOL0     C26476  10.432  10.318   8.486  0.1607  0.8035 -0.0354
  917MOL0     H26477  10.366   9.799   8.648  0.1270 -1.6559  1.0768
  917MOL0     H26478  10.518   9.632   8.727  1.5446  2.4847 -2.8426
  917MOL0     H26479  10.750   9.662   8.732 -2.8891  2.7691  2.8892
  917MOL0     H26480  10.691   9.503   8.781  2.8217 -1.9509  0.4599
  917MOL0     H26481  10.919   9.503   8.925  0.9882 -1.6181 -0.2363
  917MOL0     H26482  10.928   9.479   8.742  2.1538  1.2046  0.0580
  917MOL0     H26483  10.982   9.707   8.698 -0.6299 -2.4697 -0.5867
  917MOL0     H26484  10.964   9.752   8.865 -0.2168  0.7131 -1.2650
  917MOL0     H26485  11.145   9.582   8.913 -1.4594  0.8124  1.3580
  917MOL0     H26486  11.164   9.550   8.746 -3.7420 -2.2920  0.5159
  917MOL0     H26487  11.340   9.681   8.829 -1.4335 -2.3342 -0.1277
  917MOL0     H26488  11.243   9.822   8.872 -1.5240 -2.2447  3.3724
  917MOL0     H26489  11.242   9.693   8.603  2.9443 -1.5340 -0.1479
  917MOL0     H26490  11.166   9.843   8.650  1.0224  0.5946  2.2317
  917MOL0     H26491  11.472   9.785   8.649 -2.4831 -1.9651 -0.1811
  917MOL0     H26492  11.403   9.943   8.696 -1.8314 -0.4851  1.6563
  917MOL0     H26493  11.404   9.814   8.423  4.5894 -2.0648  2.5986
  917MOL0     H26494  11.311   9.964   8.452 -1.4968 -1.9111 -0.6995
  917MOL0     H26495  11.683   9.861   8.537 -1.6186  0.0545  0.4745
  917MOL0     H26496  11.881  10.027   8.595 -0.8321  0.9750 -0.2102
  917MOL0     H26497  11.855  10.197   8.593 -0.9157  0.6150 -0.4316
  917MOL0     H26498  12.055  10.116   8.451  1.2013  1.0277 -0.6272
  917MOL0     H26499  11.943  10.012   8.360 -0.6867  1.2881 -1.3274
  917MOL0     H26500  11.817  10.216   8.280  0.5651  5.4488 -1.8991
  917MOL0     H26501  11.930  10.315   8.363 -0.8520  1.7989 -2.7985
  917MOL0     H26502  12.029  10.301   8.139 -3.3572 -1.2405 -0.9061
  917MOL0     H26503  12.127  10.201   8.250 -0.6203 -0.6556  1.6819
  917MOL0     H26504  11.994   9.884   7.982 -0.5653  0.0770  0.4363
  917MOL0     H26505  11.951   9.734   7.804  1.8939  2.3290  2.3458
  917MOL0     H26506  11.908   9.813   7.653  2.2403 -0.7459  0.6233
  917MOL0     H26507  11.782   9.771   7.776  0.0843  1.0386  0.3506
  917MOL0     H26508  11.724  10.017   7.317  1.5094  2.1538 -2.5028
  917MOL0     H26509  11.539  10.045   7.149  1.1743  0.9116  0.0823
  917MOL0     H26510  11.175  10.070   7.234 -0.5921  0.8202  2.0852
  917MOL0     H26511  11.176  10.244   7.268  1.5884  1.3982 -1.7449
  917MOL0     H26512  11.119  10.294   7.031  0.1756  0.3598 -0.0444
  917MOL0     H26513  11.125  10.130   6.991  0.6801  1.4379  0.7901
  917MOL0     H26514  10.915  10.227   7.188 -0.5324  0.4752 -1.0075
  917MOL0     H26515  10.971  10.060   7.169  0.4729  0.2800  1.1196
  917MOL0     H26516  10.911  10.077   6.915 -3.1008  0.8026 -0.9772
  917MOL0     H26517  10.879  10.248   6.932 -2.6363  1.2157  0.4642
  917MOL0     H26518  10.707  10.153   7.111 -0.4854  2.1049 -0.7929
  917MOL0     H26519  10.675  10.203   6.965 -0.1988  0.1871  2.9028
  917MOL0     H26520  10.731   9.901   7.016 -3.7144 -2.6034 -1.0597
  917MOL0     H26521  10.704   9.959   6.856 -3.7024 -2.8279 -0.8955
  917MOL0     H26522  10.511   9.966   7.092  1.0277  3.7972  0.4296
  917MOL0     H26523  10.498   9.876   6.935 -3.8048  3.2639 -2.6638
  917MOL0     H26524  10.454  10.079   6.806  1.1711  0.5459  0.4657
  917MOL0     H26525  10.444  10.172   6.944 -0.6385 -0.3851  0.8617
  917MOL0     H26526  11.348  10.339   7.347  0.1320  0.1235  0.2617
  917MOL0     H26527  11.514  10.303   7.558  0.8999 -1.8471  0.8305
  917MOL0     H26528  11.775  10.272   7.767 -3.2980 -1.5289 -0.2002
  917MOL0     H26529  11.896  10.307   7.971 -2.5818  0.4332 -1.2720
  917MOL0     H26530  10.651   9.855   9.061 -0.2419  0.0131  0.4548
  917MOL0     H26531  10.496  10.044   8.983  0.2728  1.0260 -2.3106
  917MOL0     H26532  10.171  10.194   8.851  2.2746 -0.5036 -0.1243
  917MOL0     H26533   9.995  10.368   8.803  0.7106 -3.2625  1.3736
  917MOL0     H26534  10.055  10.695   8.572 -1.0018  1.7448 -2.1725
  917MOL0     H26535  10.008  10.620   8.427 -0.7729  3.4633 -0.9771
  917MOL0     H26536   9.882  10.815   8.522 -0.1458  0.4308 -2.5697
  917MOL0     H26537   9.825  10.719   8.659  0.6148  0.4522 -0.7810
  917MOL0     H26538   9.744  10.698   8.365  1.8519 -1.5704  0.2297
  917MOL0     H26539   9.763  10.560   8.456 -0.0406 -0.6182 -3.6285
  917MOL0     H26540   9.586  10.798   8.549 -0.4687  0.0766 -0.6969
  917MOL0     H26541   9.572  10.633   8.610  0.3032  0.0651 -0.8685
  917MOL0     H26542   9.351  10.636   8.246 -1.6374  0.5518 -0.6376
  917MOL0     H26543  10.220  10.476   8.451 -0.2413 -1.3245 -0.3198
  917MOL0     H26544  10.513  10.384   8.518  1.1752 -1.7009  3.1351
  917MOL0     H26545  10.468  10.214   8.485  0.5102  0.9232 -0.2970
  917MOL0     H26546  10.406  10.340   8.382  2.4169 -3.2935 -1.7547
  918MOL0     O26547   9.433   9.301  10.588  0.2916  0.2886 -0.1050
  918MOL0     C26548   9.530   9.284  10.519  0.9425  0.2217  0.7231
  918MOL0     O26549   9.541   9.188  10.419  0.4340  0.6699 -0.0897
  918MOL0     C26550   9.438   9.122  10.362  0.3193  0.5607  0.4334
  918MOL0     C26551   9.306   9.177  10.359  0.7425  0.8569 -0.6273
  918MOL0     C26552   9.205   9.107  10.292  0.1436  0.5010 -0.0317
  918MOL0     C26553   9.237   8.985  10.231 -0.2679  0.0664 -0.6495
  918MOL0     O26554   9.152   8.917  10.153  0.5709 -0.4640 -0.0937
  918MOL0     C26555   9.020   8.970  10.139 -1.5972 -0.4767  0.4965
  918MOL0     C26556   8.935   8.893  10.041  0.1997 -0.4933  0.3178
  918MOL0     C26557   8.800   8.953   9.990  0.4885 -0.5560  0.1422
  918MOL0     C26558   8.710   8.996  10.111 -0.4572  0.3407  0.2596
  918MOL0     C26559   8.574   9.024  10.065 -0.2449 -0.0060  0.4481
  918MOL0     C26560   8.486   9.093  10.164 -0.5961  1.4269 -0.2725
  918MOL0     C26561   8.543   9.212  10.241 -0.5254 -0.6432  0.0654
  918MOL0     C26562   8.449   9.277  10.339 -0.7705  0.1069  0.1432
  918MOL0     N26563   8.399   9.191  10.451  0.1917  0.4946  0.6286
  918MOL0     C26564   8.475   9.104  10.526 -0.2526 -0.6074  0.2125
  918MOL0     C26565   8.401   9.068  10.634  1.0322 -0.1123 -0.4413
  918MOL0     C26566   8.434   8.971  10.745 -0.1228  0.1752 -0.2017
  918MOL0     C26567   8.489   9.030  10.868 -0.3966  0.1670  0.2254
  918MOL0     C26568   8.519   8.932  10.973  0.5546 -0.2411 -0.0329
  918MOL0     C26569   8.624   8.823  10.953  0.3853 -0.8921 -0.8550
  918MOL0     O26570   8.752   8.873  10.922 -0.9249  0.0487  0.0072
  918MOL0     C26571   8.845   8.771  10.898 -0.1534  0.9294  0.1279
  918MOL0     C26572   8.851   8.707  10.773 -0.3963 -0.5348  0.3225
  918MOL0     C26573   8.945   8.610  10.733  0.2841 -0.3008 -0.4674
  918MOL0     C26574   8.930   8.543  10.599 -0.3742  0.7802  0.0637
  918MOL0     C26575   9.053   8.594  10.826 -0.5522  0.8471  1.2760
  918MOL0     C26576   9.168   8.492  10.805  0.4947  0.3167  0.3370
  918MOL0     O26577   9.253   8.475  10.908  0.2737 -0.1416  0.1934
  918MOL0     C26578   9.377   8.424  10.894 -0.0646 -0.3398 -0.5857
  918MOL0     C26579   9.452   8.398  11.015 -0.3525 -0.4449 -0.0223
  918MOL0     C26580   9.578   8.336  11.008 -0.7312  0.2580  0.6312
  918MOL0     C26581   9.646   8.314  10.888  0.6666 -0.2521 -0.3296
  918MOL0     O26582   9.775   8.279  10.883 -0.5563  0.0237  0.0674
  918MOL0     C26583   9.842   8.243  11.006  0.3065 -0.1851  0.8875
  918MOL0     C26584   9.975   8.189  10.963  0.1813  0.7977  0.7157
  918MOL0     C26585  10.061   8.173  11.091  0.0805 -0.0456 -0.0300
  918MOL0     C26586  10.195   8.097  11.063 -0.3521  0.4526  0.1965
  918MOL0     C26587  10.273   8.069  11.190  0.0063 -1.1664 -0.4805
  918MOL0     C26588  10.420   8.050  11.164 -0.1627  0.0024 -0.0730
  918MOL0     C26589  10.500   8.021  11.301 -0.2208  0.4613 -0.6814
  918MOL0     C26590  10.647   8.010  11.274  0.0801 -0.7563  0.7828
  918MOL0    Cl26591  10.690   7.850  11.182 -0.0985  0.4610 -0.0626
  918MOL0     C26592   9.568   8.343  10.772  0.5339  0.7934  0.4763
  918MOL0     C26593   9.442   8.394  10.773 -0.1788 -0.2759 -1.0000
  918MOL0     O26594   9.167   8.413  10.712 -0.0506 -0.7942 -0.1905
  918MOL0     C26595   9.046   8.662  10.954 -0.1080 -0.2142 -0.4195
  918MOL0     C26596   8.943   8.746  10.993 -0.0998  0.9031 -0.5097
  918MOL0     N26597   8.275   9.130  10.618  0.2949 -0.2338  0.5452
  918MOL0     N26598   8.268   9.206  10.512 -0.9634  0.4753  0.1995
  918MOL0     C26599   9.363   8.926  10.232  0.6273 -0.2303 -0.3826
  918MOL0     C26600   9.465   9.004  10.294 -0.5088  0.2235  0.9255
  918MOL0     C26601   9.643   9.367  10.541 -0.2160 -0.2522 -0.4850
  918MOL0     C26602   9.730   9.337  10.651 -0.6847 -0.6311 -0.4922
  918MOL0     C26603   9.842   9.411  10.677 -0.0508 -0.1547  0.8981
  918MOL0     C26604   9.882   9.523  10.598 -0.6624 -0.4649  0.5368
  918MOL0     O26605   9.996   9.610  10.612  0.1069  0.4410  0.1189
  918MOL0     C26606  10.103   9.579  10.704  0.5045  0.0159 -0.2371
  918MOL0     C26607  10.225   9.639  10.630  0.7712  0.5013 -0.2639
  918MOL0     C26608  10.360   9.607  10.686  0.8899  0.4251 -0.1304
  918MOL0     C26609  10.404   9.698  10.799 -0.4841 -0.1413 -0.1016
  918MOL0     C26610  10.538   9.655  10.827  0.7771  0.1549  0.0871
  918MOL0     C26611  10.648   9.612  10.854 -0.0665 -0.2620 -0.8169
  918MOL0     C26612   9.799   9.547  10.491 -0.6567 -0.2348  0.4994
  918MOL0     C26613   9.679   9.477  10.465 -0.4142 -0.4750  0.1541
  918MOL0     C26614   9.597   9.522  10.345  0.3390  0.0256  0.5203
  918MOL0     H26615   9.275   9.265  10.414 -1.7347 -0.9695  1.1768
  918MOL0     H26616   9.105   9.149  10.297  1.4640  4.5202 -2.7718
  918MOL0     H26617   9.030   9.067  10.089  1.1879 -1.1984 -0.4996
  918MOL0     H26618   8.973   8.968  10.238  0.1510 -0.6788  1.3548
  918MOL0     H26619   8.995   8.850   9.960 -0.0959 -0.1272 -0.1023
  918MOL0     H26620   8.912   8.812  10.111  2.8392  0.7985  2.9283
  918MOL0     H26621   8.804   9.046   9.933 -0.7613  0.3570  1.4558
  918MOL0     H26622   8.755   8.876   9.926  0.5501 -0.7694  0.3517
  918MOL0     H26623   8.713   8.923  10.193 -0.2465  0.9235  0.7788
  918MOL0     H26624   8.758   9.090  10.140 -3.5518  2.2116 -0.3044
  918MOL0     H26625   8.532   8.935  10.018 -0.5898 -0.0341  0.8094
  918MOL0     H26626   8.595   9.089   9.979  1.7922 -1.1321  0.0134
  918MOL0     H26627   8.387   9.112  10.122 -1.8192 -0.2212  1.6065
  918MOL0     H26628   8.458   9.013  10.234  1.5519  0.0817 -0.8656
  918MOL0     H26629   8.564   9.296  10.174  0.2616 -0.2010  0.8518
  918MOL0     H26630   8.636   9.193  10.295 -0.4526  1.8705  0.9964
  918MOL0     H26631   8.493   9.364  10.390  1.8963 -0.4096 -1.0918
  918MOL0     H26632   8.370   9.301  10.267  1.0517 -0.5021 -2.2224
  918MOL0     H26633   8.578   9.076  10.507 -0.2043 -0.7159  0.6128
  918MOL0     H26634   8.522   8.921  10.705 -0.2918 -1.2265  1.1238
  918MOL0     H26635   8.355   8.903  10.777  0.2818  0.5255  1.6428
  918MOL0     H26636   8.589   9.068  10.844 -0.8775  1.9200  0.8694
  918MOL0     H26637   8.430   9.114  10.904 -0.4982 -0.4048  1.4558
  918MOL0     H26638   8.554   8.993  11.057 -1.2953  1.8983 -0.7017
  918MOL0     H26639   8.427   8.887  11.011 -0.8136  1.6188 -1.0148
  918MOL0     H26640   8.638   8.767  11.046 -1.1811  0.8299  0.5089
  918MOL0     H26641   8.579   8.756  10.879 -3.1806 -1.8551  1.8463
  918MOL0     H26642   8.763   8.724  10.712 -0.1967 -4.0996 -1.1627
  918MOL0     H26643   8.835   8.579  10.557 -2.2938 -0.9605  2.6098
  918MOL0     H26644   8.919   8.435  10.608  1.0144  0.6920  0.8840
  918MOL0     H26645   9.016   8.567  10.535  0.6290  2.1582  1.8497
  918MOL0     H26646   9.404   8.404  11.112  0.5039 -0.2892  0.4027
  918MOL0     H26647   9.619   8.325  11.108  0.5067  2.1178  0.3768
  918MOL0     H26648   9.851   8.330  11.072 -0.9590  1.1183 -0.5503
  918MOL0     H26649   9.781   8.167  11.056  0.2771 -1.2712 -0.7393
  918MOL0     H26650   9.972   8.097  10.903  0.8745  1.9444 -1.1772
  918MOL0     H26651  10.028   8.256  10.895  1.3987 -2.1560 -1.4709
  918MOL0     H26652  10.008   8.100  11.153 -0.4846  0.3287 -0.0596
  918MOL0     H26653  10.075   8.268  11.143 -0.6753 -0.5903  1.2200
  918MOL0     H26654  10.258   8.161  11.001  1.2511  0.7590  2.0228
  918MOL0     H26655  10.173   8.008  11.003 -1.5846  2.0772 -1.8724
  918MOL0     H26656  10.254   8.156  11.253 -0.4578 -0.8208 -1.0802
  918MOL0     H26657  10.225   7.981  11.234  0.7763 -1.6280 -0.5544
  918MOL0     H26658  10.462   8.141  11.119  3.2301 -2.1173 -1.5757
  918MOL0     H26659  10.441   7.975  11.088  0.7340 -0.9764  1.1046
  918MOL0     H26660  10.459   7.928  11.342 -1.8144  1.4403  0.0716
  918MOL0     H26661  10.476   8.105  11.367 -0.9599  0.9828 -1.5728
  918MOL0     H26662  10.700   8.025  11.368  2.6952 -2.2423 -0.3602
  918MOL0     H26663  10.660   8.097  11.209 -5.5139 -1.2496 -1.5950
  918MOL0     H26664   9.608   8.317  10.674 -1.7636 -0.5621 -0.1978
  918MOL0     H26665   9.395   8.419  10.678 -2.8093  2.4061  0.8097
  918MOL0     H26666   9.125   8.671  11.028 -1.3991  0.3265  0.9414
  918MOL0     H26667   8.953   8.804  11.084 -3.2278 -1.9660  1.9299
  918MOL0     H26668   9.383   8.824  10.202  1.4159 -0.6293  1.3594
  918MOL0     H26669   9.570   8.977  10.298 -1.0853 -4.0015 -3.3275
  918MOL0     H26670   9.700   9.255  10.715  1.7259 -2.1550 -1.1738
  918MOL0     H26671   9.898   9.394  10.768 -4.0838 -0.7291  3.5436
  918MOL0     H26672  10.089   9.625  10.802 -0.7398 -1.6701  0.4184
  918MOL0     H26673  10.128   9.473  10.719  0.1012  0.0505  0.7738
  918MOL0     H26674  10.217   9.748  10.627 -0.5095  0.4310  0.1477
  918MOL0     H26675  10.228   9.600  10.528  0.5745 -0.7944  0.2003
  918MOL0     H26676  10.359   9.501  10.712  2.3879 -0.4770 -3.2171
  918MOL0     H26677  10.427   9.622  10.600 -0.6442  2.7213 -1.0183
  918MOL0     H26678  10.340   9.687  10.887 -1.0030 -3.6488 -0.7769
  918MOL0     H26679  10.405   9.801  10.762 -0.2369 -0.6148 -1.4395
  918MOL0     H26680  10.749   9.588  10.879 -0.3391  0.0304  0.6140
  918MOL0     H26681   9.818   9.636  10.432  0.0363  1.1825  2.7731
  918MOL0     H26682   9.579   9.432  10.285  1.9251  0.6546 -0.9923
  918MOL0     H26683   9.509   9.574  10.382  2.0677  5.7591 -2.2561
  918MOL0     H26684   9.649   9.592  10.279 -2.7563  1.6361 -0.3945
  919MOL0     O26685   4.391   6.274   6.293 -0.2785 -0.5097 -1.7769
  919MOL0     C26686   4.331   6.228   6.393 -0.9533  0.8667  0.0392
  919MOL0     O26687   4.346   6.266   6.524  0.3332  0.6630  0.4109
  919MOL0     C26688   4.452   6.346   6.548  0.0494  0.5652 -0.0990
  919MOL0     C26689   4.471   6.476   6.491  0.2277 -1.0593  0.2725
  919MOL0     C26690   4.586   6.553   6.524 -0.3947 -0.1732  0.1529
  919MOL0     C26691   4.674   6.501   6.615  0.7269 -0.3893  0.4302
  919MOL0     O26692   4.786   6.566   6.647  0.0316  0.1946 -0.2263
  919MOL0     C26693   4.793   6.713   6.654  0.1287  0.1165 -0.6741
  919MOL0     C26694   4.698   6.759   6.766 -0.4244  0.7779  0.0937
  919MOL0     C26695   4.725   6.906   6.812  0.8364  0.3072  1.0900
  919MOL0     C26696   4.625   6.942   6.929 -0.4811 -0.7064 -0.0962
  919MOL0     C26697   4.646   7.084   6.964 -0.8674 -0.2291  0.8511
  919MOL0     C26698   4.543   7.155   6.877  0.0150 -0.6600  0.2387
  919MOL0     C26699   4.560   7.299   6.912  0.3033  1.0726  0.1405
  919MOL0     C26700   4.480   7.395   6.822  0.3734  0.4003 -0.0824
  919MOL0     N26701   4.341   7.390   6.871  0.1781 -0.1007 -0.1511
  919MOL0     C26702   4.280   7.483   6.946 -0.4526 -0.6208  0.9845
  919MOL0     C26703   4.158   7.442   6.982  0.5120  0.7719  0.5322
  919MOL0     C26704   4.079   7.508   7.081  0.4154 -0.1539 -0.0828
  919MOL0     C26705   4.100   7.438   7.217  0.0502 -0.1906 -0.2775
  919MOL0     C26706   4.030   7.492   7.343  0.2707 -0.2693 -0.0739
  919MOL0     C26707   4.048   7.399   7.462 -0.7167 -0.0769  0.3463
  919MOL0     O26708   4.117   7.466   7.569  0.1201 -0.0860  0.8155
  919MOL0     C26709   4.247   7.418   7.602  0.7318 -0.0629  0.2476
  919MOL0     C26710   4.286   7.458   7.722  0.3648 -0.2588 -0.5506
  919MOL0     C26711   4.411   7.421   7.772  0.1969  0.2979 -0.4819
  919MOL0     C26712   4.438   7.459   7.916 -0.1070  0.3486 -1.0322
  919MOL0     C26713   4.497   7.336   7.700  0.2106  0.0389  0.0607
  919MOL0     C26714   4.630   7.276   7.741  0.0624  0.1765 -0.1340
  919MOL0     O26715   4.654   7.277   7.877 -0.5318  0.0881  0.2861
  919MOL0     C26716   4.780   7.239   7.921 -0.2915  0.5027  0.3878
  919MOL0     C26717   4.821   7.311   8.038 -0.1339  0.1360  1.1152
  919MOL0     C26718   4.943   7.285   8.088 -1.1315  1.6826  0.3638
  919MOL0     C26719   5.028   7.180   8.034 -0.0603  0.8503 -0.4928
  919MOL0     O26720   5.153   7.171   8.080  0.0482 -0.0797 -0.4298
  919MOL0     C26721   5.183   7.041   8.130 -0.4226  0.2750 -1.0318
  919MOL0     C26722   5.331   7.050   8.176 -0.5236  0.8189  0.2618
  919MOL0     C26723   5.433   7.070   8.058 -0.4106 -0.0460 -0.0590
  919MOL0     C26724   5.589   7.053   8.097  0.6129  0.4667  0.1486
  919MOL0     C26725   5.681   7.110   7.985  0.0388  0.5837 -0.5423
  919MOL0     C26726   5.827   7.118   8.035  0.4367  0.0846  0.6422
  919MOL0     C26727   5.842   7.214   8.145 -0.6714  0.0064  0.7087
  919MOL0     C26728   5.991   7.252   8.172  0.1085 -0.1936  0.7926
  919MOL0    Cl26729   5.996   7.355   8.319  0.0071 -0.3951 -0.2775
  919MOL0     C26730   4.983   7.100   7.920  0.3582  0.2430  0.6934
  919MOL0     C26731   4.862   7.134   7.871  0.4294 -0.1944  0.4278
  919MOL0     O26732   4.706   7.234   7.655  0.7495 -0.4790 -0.4487
  919MOL0     C26733   4.460   7.321   7.561 -0.2671 -0.2704  0.8456
  919MOL0     C26734   4.330   7.348   7.515  0.4923 -0.3109  0.2593
  919MOL0     N26735   4.145   7.321   6.923 -0.4562 -0.1155  1.2638
  919MOL0     N26736   4.255   7.286   6.854  0.1507  0.6262  0.3521
  919MOL0     C26737   4.667   6.375   6.660 -0.5325  0.6390  0.1109
  919MOL0     C26738   4.548   6.303   6.637 -0.6444 -0.6688 -0.4275
  919MOL0     C26739   4.236   6.120   6.371  0.0327 -0.0709  0.9968
  919MOL0     C26740   4.224   6.015   6.461 -0.0412 -0.1370 -0.4247
  919MOL0     C26741   4.159   5.904   6.440 -0.1770 -0.0044  0.8551
  919MOL0     C26742   4.087   5.884   6.314  0.7545  0.0215  0.6584
  919MOL0     O26743   4.032   5.764   6.256 -0.3080 -0.1701  0.4155
  919MOL0     C26744   4.067   5.652   6.337 -0.0115  0.2973 -0.0192
  919MOL0     C26745   4.023   5.510   6.284  1.0135  0.2331 -0.2149
  919MOL0     C26746   3.865   5.510   6.283 -0.0360 -0.5386 -0.6005
  919MOL0     C26747   3.806   5.395   6.192  0.0565 -0.4198  0.1211
  919MOL0     C26748   3.659   5.409   6.188  0.0339 -0.3962 -0.5375
  919MOL0     C26749   3.550   5.452   6.183 -0.7171  0.4405 -0.9167
  919MOL0     C26750   4.092   5.995   6.224  0.0376  0.1071  0.3249
  919MOL0     C26751   4.156   6.115   6.257 -0.1037 -0.3314  0.3986
  919MOL0     C26752   4.154   6.227   6.151 -0.1599 -0.0165  0.4291
  919MOL0     H26753   4.398   6.523   6.426  2.9494  0.8044 -1.6516
  919MOL0     H26754   4.602   6.655   6.491  0.9979 -0.5300 -0.3403
  919MOL0     H26755   4.764   6.750   6.555  0.9194  2.5618 -0.0617
  919MOL0     H26756   4.899   6.729   6.677 -0.4938  3.2949  0.4921
  919MOL0     H26757   4.594   6.727   6.753  0.1230 -0.9357 -0.3827
  919MOL0     H26758   4.725   6.705   6.857 -0.7309  2.9310  1.5454
  919MOL0     H26759   4.827   6.906   6.850  1.7387 -3.4837 -0.8483
  919MOL0     H26760   4.708   6.980   6.733 -1.0708 -1.0271  0.1665
  919MOL0     H26761   4.522   6.910   6.912  0.6105 -2.6384 -4.3084
  919MOL0     H26762   4.645   6.874   7.012  0.9587 -1.3314 -0.9227
  919MOL0     H26763   4.749   7.109   6.940  0.1069 -1.7817  3.1451
  919MOL0     H26764   4.629   7.092   7.072  0.7429 -2.7608  1.3764
  919MOL0     H26765   4.555   7.143   6.769  2.7372 -1.1605  0.5294
  919MOL0     H26766   4.438   7.135   6.900 -0.7964  4.0268  1.7080
  919MOL0     H26767   4.665   7.332   6.911  0.8405 -0.5189  0.8567
  919MOL0     H26768   4.532   7.303   7.018 -0.4109 -2.0591  0.1570
  919MOL0     H26769   4.501   7.502   6.818  1.7767  0.1159 -1.4140
  919MOL0     H26770   4.486   7.356   6.720  1.5886 -0.9806  0.4865
  919MOL0     H26771   4.326   7.578   6.973  1.4845 -1.9298  2.5751
  919MOL0     H26772   3.973   7.495   7.057 -0.0504  1.5723  0.8760
  919MOL0     H26773   4.114   7.612   7.085 -0.5532  0.1437  1.2575
  919MOL0     H26774   4.073   7.333   7.202 -6.4989  1.1827 -1.1377
  919MOL0     H26775   4.206   7.461   7.229  0.1998  1.6112 -3.6908
  919MOL0     H26776   4.053   7.593   7.380 -1.9067 -0.3156  1.6456
  919MOL0     H26777   3.927   7.495   7.305  1.4007 -1.2611 -3.5155
  919MOL0     H26778   3.945   7.381   7.496 -1.1345  0.1827 -0.7343
  919MOL0     H26779   4.082   7.298   7.439  0.5959  0.1383  1.2692
  919MOL0     H26780   4.210   7.496   7.789  0.7435  1.8776 -1.2802
  919MOL0     H26781   4.375   7.547   7.932 -0.7596  0.1495 -2.3710
  919MOL0     H26782   4.537   7.496   7.944 -0.4910  1.6859 -1.3458
  919MOL0     H26783   4.407   7.373   7.975  0.5613 -0.6084 -2.0306
  919MOL0     H26784   4.764   7.392   8.085 -2.7881  0.3032 -2.0319
  919MOL0     H26785   4.994   7.342   8.165  1.4361 -0.4802  0.4474
  919MOL0     H26786   5.108   7.016   8.206  0.8992 -2.4478 -0.5093
  919MOL0     H26787   5.175   6.954   8.064  1.8953  1.1341 -2.5824
  919MOL0     H26788   5.341   7.135   8.244 -0.7100  0.8719  0.2219
  919MOL0     H26789   5.361   6.961   8.232 -1.3491  0.9286  0.8949
  919MOL0     H26790   5.418   7.159   7.996  0.2458  0.9053  1.0820
  919MOL0     H26791   5.423   6.996   7.979 -0.7923 -0.8154  0.6910
  919MOL0     H26792   5.615   6.948   8.110 -1.5922  0.0222  1.5511
  919MOL0     H26793   5.605   7.096   8.197  2.1047  0.1613  0.0592
  919MOL0     H26794   5.673   7.033   7.908  0.4276  1.9823 -2.0446
  919MOL0     H26795   5.647   7.212   7.963  2.3455  2.6446  4.0165
  919MOL0     H26796   5.891   7.149   7.952 -0.2974 -1.6483 -0.6445
  919MOL0     H26797   5.857   7.014   8.053  1.2961 -0.0691 -1.3370
  919MOL0     H26798   5.801   7.168   8.235  0.0388  0.2179  1.1511
  919MOL0     H26799   5.795   7.309   8.119  1.4314  1.3050  1.3714
  919MOL0     H26800   6.039   7.310   8.092 -1.7730  1.3878  0.7113
  919MOL0     H26801   6.046   7.161   8.196 -0.0902 -0.7588 -0.7962
  919MOL0     H26802   5.056   7.032   7.876  0.6241 -0.8624  2.7278
  919MOL0     H26803   4.819   7.074   7.792 -2.4907  2.3353 -0.1369
  919MOL0     H26804   4.530   7.266   7.500 -0.5788  1.1776 -0.9129
  919MOL0     H26805   4.315   7.329   7.409  1.1442  0.3489  0.0413
  919MOL0     H26806   4.740   6.331   6.726 -2.1521  0.5213  1.9236
  919MOL0     H26807   4.543   6.210   6.693  0.5518 -0.7199 -0.3867
  919MOL0     H26808   4.292   5.999   6.543  0.2186  0.0650 -0.5955
  919MOL0     H26809   4.163   5.821   6.510 -2.7632 -2.4402 -1.6149
  919MOL0     H26810   4.174   5.637   6.352 -0.6731 -3.5465  2.1578
  919MOL0     H26811   4.015   5.680   6.429 -1.0662  1.9346 -1.0615
  919MOL0     H26812   4.050   5.431   6.355 -2.1980 -0.7746  0.0533
  919MOL0     H26813   4.061   5.490   6.183  1.3655 -0.0792 -0.0208
  919MOL0     H26814   3.820   5.486   6.379 -4.6190  0.7729 -2.1268
  919MOL0     H26815   3.820   5.607   6.258 -1.2089 -1.2486 -1.3727
  919MOL0     H26816   3.825   5.296   6.234 -3.0919 -1.2374 -0.1017
  919MOL0     H26817   3.847   5.399   6.091 -2.8293 -0.5053 -1.1697
  919MOL0     H26818   3.453   5.498   6.184 -1.8432 -1.7890  0.3081
  919MOL0     H26819   4.047   5.973   6.127 -3.0201  3.0897  0.9033
  919MOL0     H26820   4.154   6.329   6.188 -0.0953  0.1136  0.0761
  919MOL0     H26821   4.243   6.214   6.088 -1.0181  1.8565 -1.2912
  919MOL0     H26822   4.072   6.216   6.079  0.0030 -1.2425  0.4093
  920MOL0     O26823   7.583   6.333   8.330  0.2497  0.5171  0.9828
  920MOL0     C26824   7.521   6.403   8.407  0.4094  0.7701  0.0303
  920MOL0     O26825   7.404   6.369   8.468  0.0899 -0.1813 -0.2172
  920MOL0     C26826   7.323   6.275   8.420 -0.4727  0.7233 -0.3273
  920MOL0     C26827   7.211   6.299   8.344  1.0444 -0.8472 -0.0268
  920MOL0     C26828   7.124   6.197   8.296 -1.5300  0.8786  0.6924
  920MOL0     C26829   7.164   6.067   8.297 -0.9773  0.2722 -0.9061
  920MOL0     O26830   7.095   5.962   8.236 -1.3512 -0.2166  0.0165
  920MOL0     C26831   6.971   5.973   8.185  0.2461 -1.1099 -0.7494
  920MOL0     C26832   6.904   5.839   8.184  1.0585  0.4063  0.7667
  920MOL0     C26833   6.776   5.844   8.095  0.6970 -0.1168 -0.6280
  920MOL0     C26834   6.715   5.713   8.078  0.2995 -0.3339  0.1265
  920MOL0     C26835   6.584   5.726   8.002  0.0872 -1.0627  0.0254
  920MOL0     C26836   6.518   5.588   7.980 -1.4741  0.7344  0.3011
  920MOL0     C26837   6.377   5.617   7.922  0.8118 -0.0176 -0.7150
  920MOL0     C26838   6.305   5.482   7.898 -0.2007 -0.3832  0.3315
  920MOL0     N26839   6.163   5.489   7.856 -0.2277 -0.5408 -0.4000
  920MOL0     C26840   6.054   5.531   7.928 -0.2147 -0.0425 -0.5324
  920MOL0     C26841   5.949   5.510   7.836 -0.0451 -0.4707  0.5764
  920MOL0     C26842   5.809   5.559   7.859 -0.2837  0.0391 -0.0859
  920MOL0     C26843   5.745   5.488   7.981 -0.0207  0.8039  0.6806
  920MOL0     C26844   5.591   5.447   7.972  0.1341  0.0883  0.1273
  920MOL0     C26845   5.489   5.554   7.940 -0.3441  0.3619 -0.1801
  920MOL0     O26846   5.364   5.492   7.923  0.1493 -0.0224  0.3004
  920MOL0     C26847   5.332   5.448   7.795  0.7101 -0.3808 -0.0572
  920MOL0     C26848   5.419   5.405   7.701 -0.5463  0.3042 -0.9356
  920MOL0     C26849   5.390   5.352   7.578 -0.7411  0.5236 -0.0402
  920MOL0     C26850   5.498   5.295   7.504 -0.3261 -0.1960  0.0512
  920MOL0     C26851   5.249   5.351   7.535 -0.7850  0.2735 -0.0582
  920MOL0     C26852   5.191   5.297   7.413 -0.1345  0.2882  0.6985
  920MOL0     O26853   5.064   5.263   7.420  0.3196 -0.0236  1.3621
  920MOL0     C26854   4.977   5.240   7.311 -0.4000 -0.8338  0.3252
  920MOL0     C26855   4.839   5.229   7.340 -0.8931 -0.1615  0.5671
  920MOL0     C26856   4.740   5.234   7.240  0.1353 -0.0092  0.1861
  920MOL0     C26857   4.777   5.213   7.107 -0.5384 -0.4763  0.1988
  920MOL0     O26858   4.664   5.195   7.013 -0.1102  0.0570  0.2375
  920MOL0     C26859   4.594   5.058   7.031 -0.8656  0.4866  0.7205
  920MOL0     C26860   4.467   5.068   6.949  0.9172 -0.4389  0.0300
  920MOL0     C26861   4.360   5.159   7.018  0.3252  1.0289  0.1815
  920MOL0     C26862   4.348   5.288   6.941  0.7946  0.6370 -1.0212
  920MOL0     C26863   4.241   5.368   7.013  0.2499  0.8449 -1.6020
  920MOL0     C26864   4.107   5.300   7.017  0.4379  0.9819  0.0331
  920MOL0     C26865   4.005   5.404   7.031  0.4776  0.8453  0.1061
  920MOL0     C26866   3.867   5.342   7.056 -0.8747  0.9051  0.4784
  920MOL0    Cl26867   3.780   5.287   6.917  0.0176  0.2276 -0.1227
  920MOL0     C26868   4.915   5.207   7.074 -1.3346 -0.2726 -0.0952
  920MOL0     C26869   5.014   5.230   7.170 -0.1613  0.5462 -0.1678
  920MOL0     O26870   5.259   5.294   7.311 -0.4963 -0.4574 -0.8316
  920MOL0     C26871   5.159   5.388   7.639 -0.4810 -0.6744 -0.0928
  920MOL0     C26872   5.199   5.435   7.765 -1.1277  0.4520 -0.0776
  920MOL0     N26873   6.000   5.444   7.725 -0.2363 -0.1651  0.0165
  920MOL0     N26874   6.124   5.436   7.742  0.4325 -0.0675  0.7002
  920MOL0     C26875   7.287   6.046   8.363 -1.3949  0.2810 -0.6613
  920MOL0     C26876   7.362   6.140   8.427 -0.0414 -0.2756 -0.4605
  920MOL0     C26877   7.576   6.539   8.433  0.3875  0.1307  0.8299
  920MOL0     C26878   7.717   6.554   8.417  0.0990  0.1857  0.5862
  920MOL0     C26879   7.772   6.680   8.441  0.2670 -0.1215 -0.3715
  920MOL0     C26880   7.705   6.785   8.491 -0.1123 -0.6143  0.5302
  920MOL0     O26881   7.772   6.899   8.518 -0.2374 -0.4293 -0.3081
  920MOL0     C26882   7.711   7.010   8.572 -0.4228 -0.7807 -0.0142
  920MOL0     C26883   7.810   7.138   8.545  0.3216  0.5188  0.7902
  920MOL0     C26884   7.799   7.242   8.651  0.1691  0.0162 -0.1752
  920MOL0     C26885   7.887   7.370   8.621  0.2833  0.2256 -0.3669
  920MOL0     C26886   7.803   7.454   8.528  0.3212  0.3057  0.1635
  920MOL0     C26887   7.751   7.530   8.447 -0.3213  0.3204  0.3007
  920MOL0     C26888   7.572   6.762   8.519 -0.3301  0.3835  0.0303
  920MOL0     C26889   7.501   6.644   8.486  0.4189  0.2675 -0.1814
  920MOL0     C26890   7.361   6.627   8.535 -0.2027  0.0651 -0.0018
  920MOL0     H26891   7.186   6.402   8.321  0.6381 -0.7795  0.6817
  920MOL0     H26892   7.038   6.217   8.232  0.3255  2.4524 -1.4715
  920MOL0     H26893   6.982   6.010   8.082  2.0039  0.1610 -0.1467
  920MOL0     H26894   6.915   6.046   8.243  3.0250  1.1738 -0.6998
  920MOL0     H26895   6.977   5.767   8.147 -0.2206 -0.2413 -0.5547
  920MOL0     H26896   6.879   5.809   8.286  3.7049 -1.5029  0.9591
  920MOL0     H26897   6.700   5.907   8.142  0.7583 -1.4375  1.3679
  920MOL0     H26898   6.809   5.877   7.996  0.7019  2.0067  0.0345
  920MOL0     H26899   6.777   5.642   8.022  0.8065 -0.2528  0.5783
  920MOL0     H26900   6.714   5.669   8.178  3.1349 -0.2381  0.2815
  920MOL0     H26901   6.598   5.790   7.914 -2.4966  1.0010  0.9863
  920MOL0     H26902   6.522   5.792   8.063  2.2564  0.7888  0.3496
  920MOL0     H26903   6.583   5.531   7.912 -0.2821  2.4570 -0.0676
  920MOL0     H26904   6.516   5.535   8.075  0.4881 -2.1668 -1.1302
  920MOL0     H26905   6.381   5.669   7.826 -0.7510  1.4055 -0.0707
  920MOL0     H26906   6.309   5.664   7.994  3.0503  2.5690 -0.1356
  920MOL0     H26907   6.354   5.430   7.815  1.0190  1.4173 -0.1312
  920MOL0     H26908   6.308   5.424   7.991 -1.8726 -1.2749 -0.1290
  920MOL0     H26909   6.061   5.579   8.025  4.2515 -2.3590  0.5516
  920MOL0     H26910   5.750   5.531   7.771  0.8201  0.3452 -0.9448
  920MOL0     H26911   5.819   5.667   7.869  0.5352 -0.1512  1.3154
  920MOL0     H26912   5.798   5.392   7.990  1.3806  1.5779  1.1055
  920MOL0     H26913   5.764   5.544   8.073  1.1817  0.1618  0.8529
  920MOL0     H26914   5.587   5.358   7.909  0.8517  0.2385 -0.1461
  920MOL0     H26915   5.569   5.410   8.072  1.4430  0.5338  0.6067
  920MOL0     H26916   5.486   5.625   8.023  0.2758  0.5613 -0.3194
  920MOL0     H26917   5.518   5.614   7.854 -1.0035  1.1028  0.1088
  920MOL0     H26918   5.523   5.413   7.730 -1.3777 -0.7446  2.9456
  920MOL0     H26919   5.465   5.237   7.417  2.7902 -0.0681 -1.3517
  920MOL0     H26920   5.545   5.216   7.564 -0.4008 -0.1933  0.1128
  920MOL0     H26921   5.567   5.374   7.472 -2.0076  1.6852  0.8533
  920MOL0     H26922   4.815   5.237   7.446  0.4364 -2.5873  1.1269
  920MOL0     H26923   4.635   5.241   7.265  0.2405  1.4013  0.3036
  920MOL0     H26924   4.657   4.979   6.989  0.6872  1.0387  1.9293
  920MOL0     H26925   4.579   5.028   7.135 -1.1436  0.1815  0.5923
  920MOL0     H26926   4.479   5.092   6.843  2.5627 -0.7816  0.1194
  920MOL0     H26927   4.425   4.968   6.937 -1.7840  0.4154  1.3748
  920MOL0     H26928   4.393   5.183   7.120  0.7294 -2.2862  0.9265
  920MOL0     H26929   4.266   5.111   7.043 -0.2447  1.1301 -1.6349
  920MOL0     H26930   4.317   5.275   6.836  1.3996  3.2832 -1.6070
  920MOL0     H26931   4.448   5.333   6.935  1.1690 -0.1014 -0.3205
  920MOL0     H26932   4.266   5.391   7.117 -2.1705  5.1292 -1.7152
  920MOL0     H26933   4.241   5.468   6.969  2.1128  1.8952  0.5787
  920MOL0     H26934   4.105   5.239   7.109  1.4738  0.2247 -0.4253
  920MOL0     H26935   4.098   5.241   6.925  0.0322  1.2709 -0.1142
  920MOL0     H26936   3.998   5.468   6.943 -2.6272  1.0827  0.4130
  920MOL0     H26937   4.037   5.478   7.105  1.3623 -2.2219  3.0281
  920MOL0     H26938   3.806   5.404   7.123  0.4121 -0.0661  2.6436
  920MOL0     H26939   3.882   5.253   7.117 -2.4059  1.1418  1.2396
  920MOL0     H26940   4.947   5.202   6.971  2.2644  1.5198  0.7501
  920MOL0     H26941   5.114   5.226   7.128  0.1578  0.8824  0.5550
  920MOL0     H26942   5.052   5.397   7.621 -0.2259  0.7540 -1.1229
  920MOL0     H26943   5.134   5.484   7.836 -0.7520  1.9138 -0.7030
  920MOL0     H26944   7.317   5.942   8.366 -2.6349 -0.0754  1.4267
  920MOL0     H26945   7.454   6.109   8.475 -0.4782 -1.1772 -0.2085
  920MOL0     H26946   7.774   6.468   8.382  0.2747  0.4923  0.1189
  920MOL0     H26947   7.878   6.683   8.415 -0.5659 -0.9942 -4.6192
  920MOL0     H26948   7.616   7.039   8.527 -0.6757  1.4088  1.7123
  920MOL0     H26949   7.687   6.996   8.678 -2.7996 -0.3564 -0.4459
  920MOL0     H26950   7.790   7.177   8.445  1.5668 -0.9432 -0.0827
  920MOL0     H26951   7.915   7.108   8.541 -0.3617 -1.9422 -0.9838
  920MOL0     H26952   7.697   7.271   8.680  1.0150  2.1319  0.8912
  920MOL0     H26953   7.837   7.193   8.741 -1.5314  0.4611  0.8482
  920MOL0     H26954   7.983   7.344   8.577 -1.2038 -2.4684 -2.3344
  920MOL0     H26955   7.906   7.420   8.717  1.5064 -2.7586  1.0689
  920MOL0     H26956   7.696   7.581   8.371 -1.7772 -0.4913  0.7626
  920MOL0     H26957   7.514   6.838   8.570 -3.4560 -2.5474  1.2147
  920MOL0     H26958   7.328   6.730   8.553 -2.1356 -1.0441  3.5316
  920MOL0     H26959   7.299   6.579   8.459  0.6362 -1.6357  0.3569
  920MOL0     H26960   7.355   6.570   8.628  1.9737  1.4636  1.0865
  921MOL0     O26961   5.307   0.812  11.077  0.7241  0.0430 -0.3303
  921MOL0     C26962   5.263   0.703  11.047  0.8866 -0.0964  1.0987
  921MOL0     O26963   5.200   0.615  11.127 -0.3540  0.1719 -0.2949
  921MOL0     C26964   5.160   0.655  11.252  0.8243 -0.4666 -0.4606
  921MOL0     C26965   5.240   0.711  11.358  0.4745  0.2068 -0.5427
  921MOL0     C26966   5.191   0.719  11.492 -0.2250 -0.9203  0.2052
  921MOL0     C26967   5.060   0.693  11.522 -0.0657  0.2590  0.3238
  921MOL0     O26968   5.017   0.721  11.647  0.2430 -0.9189 -0.9280
  921MOL0     C26969   4.886   0.703  11.694  0.6510 -0.3780  0.1913
  921MOL0     C26970   4.862   0.733  11.838  1.0413 -0.0047 -1.2175
  921MOL0     C26971   4.921   0.628  11.939  1.7358 -0.4770  0.4012
  921MOL0     C26972   5.071   0.654  11.957  0.2870  0.1759  0.1637
  921MOL0     C26973   5.127   0.566  12.066 -0.5139  0.0244 -0.3597
  921MOL0     C26974   5.082   0.414  12.047 -0.5350 -0.4292 -0.0745
  921MOL0     C26975   5.157   0.330  12.156 -0.2661 -0.4241 -1.3927
  921MOL0     C26976   5.166   0.387  12.305  0.2172 -0.3652 -0.1940
  921MOL0     N26977   5.023   0.383  12.358 -0.1675 -0.1105  0.4255
  921MOL0     C26978   4.927   0.486  12.336  0.6111 -0.1455 -0.7038
  921MOL0     C26979   4.814   0.423  12.381  0.1017  0.5405  0.4562
  921MOL0     C26980   4.683   0.482  12.378  0.6032 -0.6155  0.3963
  921MOL0     C26981   4.611   0.455  12.244  0.1860  0.0257  0.0268
  921MOL0     C26982   4.676   0.514  12.126  0.3187  0.2877 -0.0633
  921MOL0     C26983   4.574   0.485  12.013  0.3861 -1.0471  0.3014
  921MOL0     O26984   4.544   0.341  11.988 -0.4750  0.4099 -0.6543
  921MOL0     C26985   4.657   0.281  11.939 -0.5807  0.4316  0.6564
  921MOL0     C26986   4.704   0.319  11.817 -0.3360 -0.4689 -0.2526
  921MOL0     C26987   4.812   0.253  11.750  0.3285  0.6012 -0.2448
  921MOL0     C26988   4.852   0.292  11.610  0.6278 -0.5356 -0.1909
  921MOL0     C26989   4.884   0.161  11.825  0.5211  0.4100 -0.0483
  921MOL0     C26990   5.011   0.097  11.788  0.0817  0.6965  0.2110
  921MOL0     O26991   5.085   0.054  11.890 -0.3525  0.3223  0.7108
  921MOL0     C26992   5.194  -0.023  11.862 -0.0507 -0.3719  1.0385
  921MOL0     C26993   5.203  -0.153  11.897  0.3515 -0.1442  0.0603
  921MOL0     C26994   5.325  -0.219  11.866  0.3289  1.1238 -0.8612
  921MOL0     C26995   5.425  -0.167  11.800 -0.3127  0.2831  0.3039
  921MOL0     O26996   5.534  -0.246  11.770 -0.2282 -0.7563 -0.3497
  921MOL0     C26997   5.624  -0.202  11.670 -0.4367 -1.2487  0.9275
  921MOL0     C26998   5.728  -0.313  11.646 -0.7621  0.4337  0.5386
  921MOL0     C26999   5.662  -0.438  11.580 -0.1614 -0.9818  0.8479
  921MOL0     C27000   5.745  -0.551  11.589 -0.1548  0.0705  0.3997
  921MOL0     C27001   5.653  -0.677  11.540  0.0028 -0.9019  0.0666
  921MOL0     C27002   5.728  -0.813  11.542 -0.2159 -0.0466 -0.7881
  921MOL0     C27003   5.635  -0.935  11.574 -0.1007  0.0386 -0.5353
  921MOL0     C27004   5.695  -1.072  11.566 -0.4484 -0.4646  0.7584
  921MOL0    Cl27005   5.590  -1.218  11.597  0.4080 -0.2747  0.2383
  921MOL0     C27006   5.414  -0.033  11.754 -1.1036 -1.1706  0.6149
  921MOL0     C27007   5.298   0.039  11.778 -0.5632 -0.1389  0.2520
  921MOL0     O27008   5.032   0.070  11.672  0.2775 -0.3756 -0.1750
  921MOL0     C27009   4.838   0.132  11.958  1.0161 -0.1992  0.3803
  921MOL0     C27010   4.718   0.183  12.006 -0.4615  0.0010  0.2512
  921MOL0     N27011   4.838   0.288  12.414 -0.5791 -0.7244  1.4007
  921MOL0     N27012   4.968   0.270  12.406  0.4338  0.2257 -0.3952
  921MOL0     C27013   4.974   0.650  11.418 -0.5664 -1.0092  1.1332
  921MOL0     C27014   5.028   0.628  11.289  0.0827  0.8430 -0.7701
  921MOL0     C27015   5.292   0.662  10.908 -0.1024  0.4218  0.3162
  921MOL0     C27016   5.277   0.521  10.881 -0.4123 -0.7520  0.2598
  921MOL0     C27017   5.315   0.470  10.759  0.6002 -0.4308  0.6513
  921MOL0     C27018   5.368   0.552  10.658  0.2557 -0.5960 -0.3802
  921MOL0     O27019   5.395   0.500  10.529  0.2302 -0.2279  0.6471
  921MOL0     C27020   5.321   0.391  10.478 -0.4356 -0.7882 -0.0270
  921MOL0     C27021   5.193   0.449  10.413  0.4399 -0.1040  0.4540
  921MOL0     C27022   5.110   0.339  10.336  0.0208  0.6187  0.1910
  921MOL0     C27023   5.054   0.221  10.419 -0.0678 -0.0609  0.1336
  921MOL0     C27024   4.978   0.268  10.539 -0.4634 -0.3873 -0.1428
  921MOL0     C27025   4.916   0.315  10.634 -0.4415  1.5244 -0.8934
  921MOL0     C27026   5.378   0.689  10.680  0.4392 -0.1045 -0.1898
  921MOL0     C27027   5.347   0.739  10.805  0.3384 -0.0603  1.3707
  921MOL0     C27028   5.365   0.886  10.823 -0.2215  0.1721 -0.3650
  921MOL0     H27029   5.343   0.743  11.345  0.1884  0.9223 -1.1440
  921MOL0     H27030   5.238   0.763  11.580  2.5536 -0.8301 -1.2128
  921MOL0     H27031   4.868   0.595  11.683  4.1255 -1.0499  0.0945
  921MOL0     H27032   4.822   0.761  11.627  1.1649  0.2583  0.2452
  921MOL0     H27033   4.894   0.834  11.864  1.4356 -0.4528  0.1715
  921MOL0     H27034   4.754   0.723  11.851  1.2110 -1.8161 -0.9059
  921MOL0     H27035   4.867   0.642  12.033 -1.1846  3.4607 -1.5791
  921MOL0     H27036   4.906   0.527  11.898  5.0105 -1.3552  1.0631
  921MOL0     H27037   5.119   0.638  11.860 -0.4479  3.3336 -0.8606
  921MOL0     H27038   5.089   0.761  11.973  0.2018  0.1910  0.1569
  921MOL0     H27039   5.089   0.601  12.162 -1.6165 -2.0357  0.0071
  921MOL0     H27040   5.235   0.583  12.066 -0.2537 -1.0941  2.6651
  921MOL0     H27041   4.975   0.396  12.064 -0.4601 -2.3191 -1.3442
  921MOL0     H27042   5.111   0.377  11.948  1.7992 -0.8428  0.7000
  921MOL0     H27043   5.255   0.316  12.109  0.9803 -0.5430  1.0333
  921MOL0     H27044   5.109   0.232  12.154  1.9919 -1.5944 -3.2514
  921MOL0     H27045   5.224   0.316  12.365 -0.8431 -1.8861 -0.8813
  921MOL0     H27046   5.201   0.490  12.313 -2.7756  1.0631 -2.8337
  921MOL0     H27047   4.919   0.591  12.311  0.2891 -0.2537 -1.0666
  921MOL0     H27048   4.684   0.588  12.405  1.2813 -1.1912  2.9267
  921MOL0     H27049   4.615   0.434  12.449 -1.4677 -0.0649 -1.1315
  921MOL0     H27050   4.598   0.348  12.226  1.6269  0.1978 -2.4247
  921MOL0     H27051   4.516   0.507  12.258  0.0011  0.3321 -2.0655
  921MOL0     H27052   4.694   0.621  12.137 -2.4372  1.5150 -4.8146
  921MOL0     H27053   4.768   0.460  12.101  1.2273  1.3074  0.9958
  921MOL0     H27054   4.482   0.542  12.026  0.1378 -0.6783 -2.5048
  921MOL0     H27055   4.602   0.533  11.919 -3.8730 -2.1889 -1.7992
  921MOL0     H27056   4.642   0.393  11.767 -2.4908  0.0341  2.8836
  921MOL0     H27057   4.780   0.358  11.561  2.3931 -0.8162 -3.4569
  921MOL0     H27058   4.849   0.202  11.548 -1.1124 -0.3878 -0.3669
  921MOL0     H27059   4.952   0.336  11.615 -0.4319  2.0596 -0.6137
  921MOL0     H27060   5.119  -0.193  11.954 -1.0699  1.5144 -0.7398
  921MOL0     H27061   5.340  -0.319  11.904 -1.6876  0.7577 -0.9164
  921MOL0     H27062   5.563  -0.189  11.581 -0.7928  1.9757  1.5451
  921MOL0     H27063   5.685  -0.117  11.703  2.6589 -3.2004  0.6614
  921MOL0     H27064   5.807  -0.270  11.584 -1.7587  2.0152  0.3032
  921MOL0     H27065   5.788  -0.330  11.736  1.6071  0.1658 -1.0184
  921MOL0     H27066   5.628  -0.436  11.476 -2.1013 -2.5955  1.3722
  921MOL0     H27067   5.571  -0.456  11.639 -0.9773 -0.1310 -0.1097
  921MOL0     H27068   5.777  -0.557  11.694  0.3762  1.8222  0.3757
  921MOL0     H27069   5.829  -0.555  11.520 -0.3228 -0.2918  0.2160
  921MOL0     H27070   5.560  -0.692  11.596 -0.1766 -3.5042 -0.8123
  921MOL0     H27071   5.619  -0.655  11.439  0.9728 -4.4234 -1.1960
  921MOL0     H27072   5.803  -0.800  11.621 -1.4947 -0.1302  0.4604
  921MOL0     H27073   5.785  -0.831  11.450 -0.7315  1.0020 -1.3334
  921MOL0     H27074   5.553  -0.916  11.505 -1.1331 -0.7020  0.4624
  921MOL0     H27075   5.597  -0.914  11.674  3.2887  1.0742  0.6678
  921MOL0     H27076   5.779  -1.080  11.637  2.7104  1.6561 -2.4384
  921MOL0     H27077   5.742  -1.084  11.468 -3.8572  1.4401 -1.2947
  921MOL0     H27078   5.487   0.018  11.692 -1.4839  0.8193  1.7123
  921MOL0     H27079   5.299   0.140  11.737  2.8731 -0.7741 -1.5502
  921MOL0     H27080   4.888   0.058  12.019  1.5262 -0.9096 -0.8629
  921MOL0     H27081   4.682   0.157  12.105 -3.5360  2.7906  0.0224
  921MOL0     H27082   4.868   0.634  11.429 -1.4411  2.6854 -0.3111
  921MOL0     H27083   4.953   0.589  11.221 -2.7841 -1.0764  3.0842
  921MOL0     H27084   5.236   0.460  10.961 -0.4255  0.5571  1.2812
  921MOL0     H27085   5.305   0.363  10.743  1.6219 -0.2777 -1.2808
  921MOL0     H27086   5.377   0.343  10.397 -0.8764  2.4281 -2.4697
  921MOL0     H27087   5.307   0.317  10.557 -0.6201 -0.5132  0.1971
  921MOL0     H27088   5.217   0.534  10.349 -1.0026 -1.6454 -2.3286
  921MOL0     H27089   5.126   0.483  10.493 -1.3088 -1.4668 -0.3616
  921MOL0     H27090   5.042   0.392  10.269  0.5856  0.1395 -0.7905
  921MOL0     H27091   5.179   0.295  10.263  0.0814 -0.2290  0.7399
  921MOL0     H27092   5.131   0.154  10.458  0.9392  1.7426  1.4172
  921MOL0     H27093   4.994   0.154  10.357 -0.1108  0.2639 -0.1760
  921MOL0     H27094   4.857   0.354  10.715  0.5290  2.1939 -0.5014
  921MOL0     H27095   5.418   0.745  10.596  0.9261 -2.0490 -1.3288
  921MOL0     H27096   5.455   0.912  10.880 -1.1082  1.8720  0.3187
  921MOL0     H27097   5.369   0.940  10.728  1.0886 -0.2779 -0.5995
  921MOL0     H27098   5.277   0.914  10.881  0.4293 -3.5723  2.8418
  922MOL0     O27099  10.404   1.426  11.197  0.2270  0.4902 -0.3889
  922MOL0     C27100  10.376   1.530  11.140  0.7215  0.2316  0.4251
  922MOL0     O27101  10.456   1.643  11.146 -0.6510  0.4971 -0.0512
  922MOL0     C27102  10.558   1.651  11.237  0.4600 -0.7144  0.8577
  922MOL0     C27103  10.550   1.615  11.370 -1.0032  0.0705  0.0151
  922MOL0     C27104  10.656   1.653  11.462 -0.0811 -0.8593 -1.6271
  922MOL0     C27105  10.772   1.719  11.420 -0.1826 -0.7794 -0.3807
  922MOL0     O27106  10.866   1.765  11.502 -0.2585 -0.0619  0.5045
  922MOL0     C27107  10.901   1.692  11.621 -0.5188 -0.6889  0.6363
  922MOL0     C27108  11.020   1.760  11.689  0.2476  0.4974 -0.2988
  922MOL0     C27109  10.974   1.883  11.766  0.6808 -0.0968 -0.2244
  922MOL0     C27110  10.928   1.845  11.907  0.5496 -0.0833  0.5793
  922MOL0     C27111  10.914   1.956  12.004 -0.3632 -0.8912 -0.6164
  922MOL0     C27112  10.771   2.010  12.000  0.1539  0.0185  0.3982
  922MOL0     C27113  10.743   2.094  11.874 -0.4885 -0.8056  0.2326
  922MOL0     C27114  10.624   2.196  11.896  0.1676 -0.3957  0.0208
  922MOL0     N27115  10.602   2.279  11.777 -0.2426  0.2615  0.1143
  922MOL0     C27116  10.531   2.250  11.663  0.0382 -0.2064  0.1912
  922MOL0     C27117  10.536   2.365  11.589  0.6419  0.4759 -0.1932
  922MOL0     C27118  10.456   2.392  11.462  0.6942 -0.3687  0.7333
  922MOL0     C27119  10.332   2.482  11.473  0.6821 -0.0910 -0.4027
  922MOL0     C27120  10.382   2.630  11.495  0.1148 -0.0079  0.3068
  922MOL0     C27121  10.277   2.733  11.453 -0.8583 -0.5859  0.2356
  922MOL0     O27122  10.147   2.696  11.503  0.2897 -0.3562 -0.0984
  922MOL0     C27123  10.044   2.784  11.487 -0.3697  0.1445  0.2414
  922MOL0     C27124   9.912   2.725  11.498 -0.0321 -0.0309 -0.2049
  922MOL0     C27125   9.797   2.792  11.446  0.4479 -0.2914 -0.1514
  922MOL0     C27126   9.660   2.728  11.440  0.1064 -0.6930  0.6369
  922MOL0     C27127   9.811   2.927  11.423  0.0193 -0.4403  0.0023
  922MOL0     C27128   9.694   3.006  11.382  0.1074  0.7797 -0.4905
  922MOL0     O27129   9.589   3.025  11.472  0.3666 -0.3766 -0.1463
  922MOL0     C27130   9.500   3.123  11.447  0.4150 -0.7796  0.1119
  922MOL0     C27131   9.546   3.253  11.481  0.3498 -0.6620  0.7498
  922MOL0     C27132   9.457   3.360  11.470  0.0707  1.2118 -0.3211
  922MOL0     C27133   9.326   3.347  11.420  0.5133  0.5496  0.3740
  922MOL0     O27134   9.245   3.456  11.407 -0.1609 -0.7651  0.4538
  922MOL0     C27135   9.118   3.443  11.344  0.2757  0.1187 -0.2877
  922MOL0     C27136   9.055   3.582  11.344  0.4860 -0.1502  0.7041
  922MOL0     C27137   9.020   3.642  11.486  0.2963  0.9707 -0.0267
  922MOL0     C27138   8.913   3.549  11.560 -0.2983  0.2069  0.3958
  922MOL0     C27139   8.845   3.621  11.680 -0.0015  0.8555 -0.1014
  922MOL0     C27140   8.749   3.517  11.742 -0.5501 -0.5548  0.1312
  922MOL0     C27141   8.688   3.571  11.869  0.0114 -0.1758  0.4595
  922MOL0     C27142   8.614   3.445  11.926 -0.3705 -0.0471  1.0452
  922MOL0    Cl27143   8.550   3.462  12.097 -0.2739  0.1987  0.4129
  922MOL0     C27144   9.284   3.222  11.381 -0.1533 -0.4837 -0.2158
  922MOL0     C27145   9.372   3.105  11.403 -0.2450 -0.8520  1.2216
  922MOL0     O27146   9.710   3.067  11.277 -0.3948 -0.2504 -0.4015
  922MOL0     C27147   9.934   2.987  11.439  1.3894 -0.4751 -0.7130
  922MOL0     C27148  10.051   2.918  11.468 -0.2070 -0.6377 -1.3970
  922MOL0     N27149  10.598   2.466  11.662 -0.6549  0.6209  0.0819
  922MOL0     N27150  10.646   2.409  11.762  0.0849 -0.6193  0.1269
  922MOL0     C27151  10.777   1.741  11.283  0.2189 -0.5209  0.7267
  922MOL0     C27152  10.673   1.709  11.186 -0.0644 -0.2707 -0.3176
  922MOL0     C27153  10.251   1.539  11.063  0.0757 -0.9057  0.6285
  922MOL0     C27154  10.185   1.430  11.013 -0.3897 -0.3821  0.1184
  922MOL0     C27155  10.049   1.438  10.958  0.1083  0.6150  0.1529
  922MOL0     C27156   9.993   1.566  10.930 -0.3226 -1.3028  0.2286
  922MOL0     O27157   9.866   1.593  10.881 -0.1426 -0.2437 -0.7593
  922MOL0     C27158   9.788   1.476  10.835 -0.1951 -1.0002 -0.1095
  922MOL0     C27159   9.663   1.538  10.768 -0.0001 -0.8932 -0.6139
  922MOL0     C27160   9.570   1.419  10.724 -0.4094 -0.0654 -0.8328
  922MOL0     C27161   9.426   1.471  10.726  0.6949 -0.3213  0.4232
  922MOL0     C27162   9.316   1.367  10.732 -1.0179  0.4001 -0.0100
  922MOL0     C27163   9.234   1.279  10.742  0.3879  0.1947  0.3538
  922MOL0     C27164  10.067   1.679  10.970  0.0471 -1.1627 -0.2561
  922MOL0     C27165  10.193   1.670  11.026 -0.6078  0.5799 -0.1048
  922MOL0     C27166  10.258   1.805  11.047  0.2416  0.1676 -0.7400
  922MOL0     H27167  10.463   1.563  11.408 -0.3614 -2.1024 -1.2481
  922MOL0     H27168  10.643   1.618  11.564 -0.5642 -3.6540 -2.5601
  922MOL0     H27169  10.925   1.587  11.600  1.7645 -0.1015 -0.0340
  922MOL0     H27170  10.824   1.704  11.697 -0.8056 -1.7290  0.5305
  922MOL0     H27171  11.056   1.677  11.752  0.3298 -0.4587 -1.5617
  922MOL0     H27172  11.088   1.779  11.606 -2.8401  1.5370 -2.8026
  922MOL0     H27173  11.062   1.947  11.775 -0.2058  1.1139  0.0506
  922MOL0     H27174  10.895   1.937  11.713  1.8739  3.2841  1.1728
  922MOL0     H27175  10.831   1.796  11.896  1.8740 -2.7815  0.1495
  922MOL0     H27176  11.001   1.768  11.933  2.2726  0.3023 -2.5966
  922MOL0     H27177  10.981   2.039  11.979 -2.9197  0.2466 -4.4903
  922MOL0     H27178  10.939   1.918  12.104  1.5352 -3.5977 -1.9969
  922MOL0     H27179  10.693   1.934  12.007  0.4393 -0.2822  0.3230
  922MOL0     H27180  10.753   2.079  12.083 -1.7291  0.5087 -0.3716
  922MOL0     H27181  10.708   2.021  11.800 -2.6508  1.5356 -1.2274
  922MOL0     H27182  10.824   2.163  11.849 -1.6950  0.6621  0.2218
  922MOL0     H27183  10.528   2.148  11.919 -1.7409  3.0506 -0.0070
  922MOL0     H27184  10.643   2.259  11.984 -0.9710 -1.2485  0.9122
  922MOL0     H27185  10.470   2.161  11.650 -0.4545  0.3665 -1.8649
  922MOL0     H27186  10.421   2.301  11.413 -3.1382  2.8434 -3.3862
  922MOL0     H27187  10.519   2.439  11.386 -3.3530  0.5438 -2.4105
  922MOL0     H27188  10.275   2.478  11.379  3.6586  1.0037 -2.4326
  922MOL0     H27189  10.265   2.455  11.555 -0.1400 -0.8476 -1.3032
  922MOL0     H27190  10.408   2.644  11.601  1.9631 -1.2314  0.0612
  922MOL0     H27191  10.470   2.658  11.436 -2.2425 -0.2668 -3.6591
  922MOL0     H27192  10.306   2.835  11.479  3.8958 -1.3008 -1.3604
  922MOL0     H27193  10.268   2.750  11.345 -0.8660  1.1473  0.4702
  922MOL0     H27194   9.913   2.619  11.526  2.0003  0.9361  4.4585
  922MOL0     H27195   9.669   2.628  11.482  0.8865 -0.6552  0.5596
  922MOL0     H27196   9.626   2.719  11.336  2.8988 -1.0778 -0.3054
  922MOL0     H27197   9.579   2.779  11.494  0.3323  0.9736 -0.5095
  922MOL0     H27198   9.648   3.265  11.518  1.4905 -0.0637 -2.2447
  922MOL0     H27199   9.502   3.452  11.506  0.6291  0.5060  0.8684
  922MOL0     H27200   9.142   3.418  11.240  1.7199  0.8157 -0.1415
  922MOL0     H27201   9.062   3.368  11.400  2.5556 -3.3263 -2.2448
  922MOL0     H27202   9.128   3.654  11.306  1.3875 -0.2959  2.0790
  922MOL0     H27203   8.972   3.579  11.274  1.3016 -2.3809 -0.2494
  922MOL0     H27204   8.992   3.748  11.487 -1.1469  0.6296 -0.6120
  922MOL0     H27205   9.104   3.641  11.556 -0.6875 -1.0363  1.2406
  922MOL0     H27206   8.958   3.463  11.611  0.3450  0.8158  0.8543
  922MOL0     H27207   8.839   3.519  11.485  0.2708  0.9955 -0.4931
  922MOL0     H27208   8.920   3.654  11.753 -0.8565 -0.3404  1.3931
  922MOL0     H27209   8.792   3.701  11.627 -0.4674  1.0381  0.6129
  922MOL0     H27210   8.802   3.423  11.759 -1.9543 -1.6978 -1.3962
  922MOL0     H27211   8.678   3.491  11.663  1.1821  0.5237 -1.9002
  922MOL0     H27212   8.617   3.650  11.844 -0.2370 -0.8596 -1.1135
  922MOL0     H27213   8.762   3.614  11.938  1.9334  0.5426 -1.9010
  922MOL0     H27214   8.681   3.361  11.942  0.7023  0.0085 -2.3940
  922MOL0     H27215   8.530   3.420  11.860 -1.8770  1.9190  2.1091
  922MOL0     H27216   9.184   3.199  11.347 -1.7403 -0.2056  3.7216
  922MOL0     H27217   9.342   3.001  11.393  0.1896 -0.8765 -0.1110
  922MOL0     H27218   9.929   3.093  11.417 -2.0729 -0.7313 -1.6121
  922MOL0     H27219  10.143   2.970  11.489 -0.3691 -1.1814  0.9505
  922MOL0     H27220  10.855   1.807  11.248  1.3723 -1.9183  0.5350
  922MOL0     H27221  10.673   1.740  11.082 -0.5479  0.2927 -0.1504
  922MOL0     H27222  10.232   1.333  11.021 -2.1543 -1.2938 -0.0362
  922MOL0     H27223  10.004   1.345  10.925  0.8860 -0.8715  2.9509
  922MOL0     H27224   9.844   1.417  10.762  0.2156  0.6543 -1.1712
  922MOL0     H27225   9.759   1.415  10.922 -1.8395 -0.5520 -0.3221
  922MOL0     H27226   9.689   1.610  10.690 -3.3044  1.2424  0.0455
  922MOL0     H27227   9.600   1.596  10.837  1.2522  1.7288 -1.5464
  922MOL0     H27228   9.617   1.375  10.635  2.1173  0.5622  0.1362
  922MOL0     H27229   9.567   1.338  10.798 -2.3433  0.8901  0.2156
  922MOL0     H27230   9.417   1.545  10.646 -2.8577 -0.4940  0.5126
  922MOL0     H27231   9.406   1.524  10.820  0.0721  0.0213  0.1081
  922MOL0     H27232   9.173   1.192  10.753 -0.3762  0.8708  1.8527
  922MOL0     H27233  10.030   1.778  10.947  2.0965 -0.5718 -1.3035
  922MOL0     H27234  10.354   1.803  10.994  0.4351 -0.6694 -0.3725
  922MOL0     H27235  10.202   1.890  11.005  2.3342  0.8952 -2.2350
  922MOL0     H27236  10.279   1.821  11.153  2.2358 -0.8869 -0.9384
  923MOL0     O27237  10.684   9.875   0.005  0.8025 -0.4422  0.4743
  923MOL0     C27238  10.788   9.904  -0.055 -0.0672 -0.1657 -0.9111
  923MOL0     O27239  10.837  10.028  -0.078  0.2776  0.1317  0.8264
  923MOL0     C27240  10.768  10.129  -0.007  0.2801  1.1685 -0.6495
  923MOL0     C27241  10.804  10.146   0.131 -0.6083 -0.9066 -0.8624
  923MOL0     C27242  10.740  10.245   0.210  0.0636  0.7986 -0.0524
  923MOL0     C27243  10.649  10.336   0.139 -0.4239  0.0848  0.4179
  923MOL0     O27244  10.584  10.437   0.207 -0.2843  0.5640  0.0476
  923MOL0     C27245  10.594  10.440   0.349 -0.5625 -0.3819 -0.1184
  923MOL0     C27246  10.505  10.555   0.401  0.5871 -0.4244 -0.0283
  923MOL0     C27247  10.458  10.526   0.539  0.8135 -0.4425 -0.1335
  923MOL0     C27248  10.403  10.660   0.605  1.0250 -0.1320  0.4798
  923MOL0     C27249  10.406  10.656   0.754 -0.1899 -0.3498  0.7873
  923MOL0     C27250  10.294  10.568   0.826 -0.6586 -0.9946 -0.7807
  923MOL0     C27251  10.157  10.631   0.833 -0.7302 -1.0440  0.1620
  923MOL0     C27252  10.053  10.525   0.859 -0.1804  0.3478 -0.0541
  923MOL0     N27253   9.918  10.572   0.902 -0.0090 -0.1340 -0.3078
  923MOL0     C27254   9.843  10.664   0.838 -0.1473  0.6708 -0.3397
  923MOL0     C27255   9.727  10.664   0.901 -0.0565 -0.3155 -0.3086
  923MOL0     C27256   9.612  10.750   0.899  0.2828 -0.4965 -0.3217
  923MOL0     C27257   9.476  10.680   0.896 -0.0953 -0.0594  0.2119
  923MOL0     C27258   9.355  10.774   0.904 -0.1593 -0.1007 -0.1488
  923MOL0     C27259   9.213  10.705   0.897 -0.2733  0.5960 -0.5273
  923MOL0     O27260   9.205  10.601   0.996  0.0502 -0.7003  0.5008
  923MOL0     C27261   9.120  10.597   1.110 -1.0517 -1.2434 -0.2842
  923MOL0     C27262   9.150  10.504   1.211  0.0821  0.6055  0.2184
  923MOL0     C27263   9.103  10.506   1.341  0.7537 -0.0212 -0.9885
  923MOL0     C27264   9.142  10.383   1.421  0.1083  0.2594 -0.5106
  923MOL0     C27265   9.026  10.614   1.382 -0.6150 -0.0305  0.8259
  923MOL0     C27266   8.979  10.644   1.521  0.2377  1.0587  0.1341
  923MOL0     O27267   8.888  10.740   1.532 -0.0534 -0.6782  0.1494
  923MOL0     C27268   8.833  10.755   1.652 -0.0118 -0.0936 -0.1087
  923MOL0     C27269   8.891  10.859   1.736  0.4413 -0.1993 -0.0057
  923MOL0     C27270   8.839  10.865   1.867  0.1828 -0.6431  0.1374
  923MOL0     C27271   8.728  10.798   1.910  1.1174 -0.0629  0.4558
  923MOL0     O27272   8.665  10.841   2.035 -0.3124 -0.5742  0.0788
  923MOL0     C27273   8.589  10.754   2.106  0.9651  0.0898  0.2982
  923MOL0     C27274   8.438  10.780   2.088 -0.0164 -0.2109 -0.6260
  923MOL0     C27275   8.347  10.674   2.150  0.4542  0.0275 -0.1371
  923MOL0     C27276   8.201  10.711   2.178 -0.2178  0.7299 -1.4433
  923MOL0     C27277   8.130  10.599   2.257 -0.9870  0.8212  0.1803
  923MOL0     C27278   7.993  10.642   2.305  0.2774  0.5659  0.1907
  923MOL0     C27279   7.923  10.518   2.357 -0.3767 -0.1223 -0.2176
  923MOL0     C27280   7.774  10.550   2.354 -0.2901 -0.2176 -0.1471
  923MOL0    Cl27281   7.682  10.439   2.461 -0.3664 -0.1573  0.0209
  923MOL0     C27282   8.676  10.688   1.831 -0.9459 -0.5233  0.5958
  923MOL0     C27283   8.727  10.681   1.701  0.6623  0.0404  0.2111
  923MOL0     O27284   9.022  10.571   1.612 -0.6470 -0.0607 -0.4946
  923MOL0     C27285   8.992  10.714   1.284  0.6226 -0.7620  1.1603
  923MOL0     C27286   9.036  10.702   1.153  0.5934 -0.1940 -0.2458
  923MOL0     N27287   9.729  10.567   1.003  0.6819 -0.2235  0.7062
  923MOL0     N27288   9.852  10.519   1.006  0.1312 -0.5002 -1.4878
  923MOL0     C27289  10.630  10.320   0.006 -0.0457  0.1218  0.7891
  923MOL0     C27290  10.694  10.226  -0.069 -0.6311  0.1703  0.6453
  923MOL0     C27291  10.861   9.796  -0.114 -1.3605  0.0384  0.6368
  923MOL0     C27292  10.802   9.712  -0.214  0.1713 -0.0941  0.0060
  923MOL0     C27293  10.865   9.610  -0.276 -0.5234  0.0785  0.5277
  923MOL0     C27294  10.997   9.585  -0.252  0.2877  0.6993 -0.3376
  923MOL0     O27295  11.063   9.488  -0.313  0.3176  0.0648  0.0205
  923MOL0     C27296  11.021   9.433  -0.441  0.0776  0.8620 -0.0087
  923MOL0     C27297  11.054   9.510  -0.569 -0.1932 -0.3746 -0.7384
  923MOL0     C27298  11.205   9.523  -0.592 -0.9019 -0.1764 -0.4043
  923MOL0     C27299  11.234   9.582  -0.733 -0.0078  0.0255  0.1728
  923MOL0     C27300  11.144   9.696  -0.777 -0.9022 -0.7287  1.4921
  923MOL0     C27301  11.067   9.765  -0.831  0.1169 -0.1847  0.7787
  923MOL0     C27302  11.064   9.656  -0.147  0.7736 -0.2712  1.0042
  923MOL0     C27303  10.995   9.758  -0.081  1.5925  0.0244 -0.3642
  923MOL0     C27304  11.072   9.823   0.035  0.1512  0.1042  0.7077
  923MOL0     H27305  10.871  10.073   0.174  1.3438  1.1829 -0.1392
  923MOL0     H27306  10.759  10.240   0.316 -1.5364 -1.5073  0.1919
  923MOL0     H27307  10.695  10.445   0.389 -0.3974  0.7938 -0.6490
  923MOL0     H27308  10.551  10.350   0.395 -2.2502  0.7982  0.7130
  923MOL0     H27309  10.560  10.650   0.407  0.1566 -0.1136 -0.8941
  923MOL0     H27310  10.431  10.572   0.323  2.4910 -0.7870 -2.0337
  923MOL0     H27311  10.383  10.446   0.534  1.0662 -0.8513  1.8509
  923MOL0     H27312  10.545  10.487   0.592 -0.7630 -2.8509  0.8506
  923MOL0     H27313  10.478  10.739   0.594  1.1754 -0.2407  0.7218
  923MOL0     H27314  10.306  10.692   0.567  3.1988  1.8296 -4.1851
  923MOL0     H27315  10.420  10.756   0.795  0.9459  0.4115 -1.3254
  923MOL0     H27316  10.501  10.610   0.782 -1.5420 -2.8136  1.7220
  923MOL0     H27317  10.281  10.472   0.775 -2.1791 -0.9519 -0.5203
  923MOL0     H27318  10.330  10.537   0.925 -0.2305 -2.2384 -1.3059
  923MOL0     H27319  10.137  10.685   0.740  0.2190  1.3940  1.2914
  923MOL0     H27320  10.146  10.699   0.918 -2.4018 -0.1206 -0.7340
  923MOL0     H27321  10.041  10.464   0.769 -0.5236  1.1044 -0.5299
  923MOL0     H27322  10.101  10.458   0.931  3.7029  1.9040 -0.9431
  923MOL0     H27323   9.877  10.728   0.758 -0.8756 -0.2275 -1.4079
  923MOL0     H27324   9.622  10.798   0.801  2.1037 -3.2653 -1.5976
  923MOL0     H27325   9.621  10.829   0.975  1.7919  2.4389 -3.2745
  923MOL0     H27326   9.472  10.614   0.808  5.7034 -2.7225  1.5050
  923MOL0     H27327   9.471  10.613   0.982  1.7220 -2.6461 -1.5693
  923MOL0     H27328   9.356  10.849   0.984  1.7213 -1.1775  0.9174
  923MOL0     H27329   9.359  10.825   0.808 -2.5786 -0.6027 -0.5801
  923MOL0     H27330   9.123  10.765   0.914 -2.5641 -3.2176  2.6802
  923MOL0     H27331   9.205  10.661   0.798 -1.7447  0.2594 -0.2767
  923MOL0     H27332   9.217  10.420   1.190 -1.5078 -1.4039  2.6057
  923MOL0     H27333   9.061  10.341   1.483 -0.1022  1.5079  0.1119
  923MOL0     H27334   9.222  10.405   1.492 -1.8385  4.3230  0.7850
  923MOL0     H27335   9.176  10.310   1.348  1.0913  1.6717 -1.5145
  923MOL0     H27336   8.977  10.918   1.709 -1.1667  3.0321  1.4127
  923MOL0     H27337   8.855  10.951   1.931 -1.3533  2.0493 -2.7881
  923MOL0     H27338   8.594  10.648   2.080 -0.8504  0.2237 -0.7923
  923MOL0     H27339   8.609  10.753   2.214 -1.3205 -0.5110  0.7869
  923MOL0     H27340   8.416  10.875   2.138  1.6890 -1.2437  2.3783
  923MOL0     H27341   8.407  10.778   1.984 -2.6618 -1.7238  0.0918
  923MOL0     H27342   8.388  10.634   2.243 -1.1716  0.3503  0.7621
  923MOL0     H27343   8.348  10.584   2.087  0.5964 -0.6784  0.8526
  923MOL0     H27344   8.143  10.728   2.087 -0.5899 -0.7034 -1.4890
  923MOL0     H27345   8.196  10.794   2.250  1.2798 -0.9901  0.7733
  923MOL0     H27346   8.131  10.506   2.201  0.4875 -0.0115  1.4867
  923MOL0     H27347   8.183  10.570   2.349 -0.9037 -0.6270 -0.2934
  923MOL0     H27348   7.925  10.663   2.221 -1.2115  0.7132  1.3924
  923MOL0     H27349   8.009  10.729   2.369  5.3972  1.9347 -2.4193
  923MOL0     H27350   7.964  10.517   2.458  2.3760  0.0506 -1.2503
  923MOL0     H27351   7.941  10.425   2.301 -1.0540  1.0685 -2.5499
  923MOL0     H27352   7.742  10.539   2.250 -0.4804  2.1207 -0.3703
  923MOL0     H27353   7.754  10.654   2.380 -0.8175 -0.6505  1.2857
  923MOL0     H27354   8.585  10.635   1.859 -1.5849  1.1036  1.7471
  923MOL0     H27355   8.678  10.602   1.645  4.0055 -1.5875 -0.6685
  923MOL0     H27356   8.929  10.799   1.311  0.6581 -0.7645  1.2522
  923MOL0     H27357   9.005  10.783   1.088 -1.5758  0.6054  1.6520
  923MOL0     H27358  10.566  10.395  -0.040 -0.4098  0.3051  1.5901
  923MOL0     H27359  10.685  10.211  -0.176 -2.0040 -0.2627  0.8079
  923MOL0     H27360  10.700   9.716  -0.252  0.8772  1.9025 -1.9232
  923MOL0     H27361  10.802   9.543  -0.333  0.6086  0.3527 -1.1285
  923MOL0     H27362  11.061   9.331  -0.446 -3.6632 -0.7916  0.4827
  923MOL0     H27363  10.917   9.401  -0.441  0.7317 -1.4921 -0.3723
  923MOL0     H27364  11.015   9.612  -0.570  1.8453  0.5787  2.0116
  923MOL0     H27365  11.020   9.452  -0.655 -1.1072  0.0045 -0.6359
  923MOL0     H27366  11.243   9.580  -0.507  0.4664  1.2746 -1.9125
  923MOL0     H27367  11.261   9.430  -0.576 -0.7959  0.0499  0.5758
  923MOL0     H27368  11.226   9.509  -0.814  0.1808  0.6895 -0.4625
  923MOL0     H27369  11.336   9.622  -0.725  0.3553 -0.8656  0.1006
  923MOL0     H27370  10.982   9.818  -0.869 -1.1837 -1.9463  1.1236
  923MOL0     H27371  11.164   9.640  -0.109  2.1791 -2.1306 -2.9491
  923MOL0     H27372  11.035   9.923   0.060  2.4829  0.3160  3.7395
  923MOL0     H27373  11.063   9.764   0.126 -2.7737  1.1342  1.1934
  923MOL0     H27374  11.175   9.818   0.000 -1.4770 -1.1480 -5.0608
  924MOL0     O27375   6.054  11.447   9.069  0.2694  0.2728  0.1979
  924MOL0     C27376   6.035  11.342   9.011 -0.9538  0.3920 -0.4411
  924MOL0     O27377   6.081  11.225   9.058  1.0483  0.1459  0.5051
  924MOL0     C27378   6.183  11.210   9.146 -0.4552  0.8985 -0.0928
  924MOL0     C27379   6.160  11.233   9.283  0.2427  1.2998  0.0545
  924MOL0     C27380   6.263  11.216   9.373 -0.4785  0.4904  0.6865
  924MOL0     C27381   6.397  11.176   9.321  0.6247 -0.6302  0.8451
  924MOL0     O27382   6.500  11.158   9.416  0.6694  0.0856  0.6486
  924MOL0     C27383   6.619  11.089   9.376  0.4645  0.9683 -0.3662
  924MOL0     C27384   6.579  10.937   9.377 -0.7442  0.2061 -0.1463
  924MOL0     C27385   6.697  10.861   9.333  0.3439  0.1802  0.3585
  924MOL0     C27386   6.651  10.719   9.310  0.7646  0.2055 -0.0404
  924MOL0     C27387   6.774  10.653   9.253  0.7074 -1.0052  0.1139
  924MOL0     C27388   6.756  10.506   9.217  0.2595 -0.9617 -0.0959
  924MOL0     C27389   6.877  10.474   9.134  0.9979  0.0964 -0.1368
  924MOL0     C27390   6.983  10.399   9.227  0.0421  0.1119  0.7003
  924MOL0     N27391   7.122  10.441   9.174  0.7506  0.8057  0.0738
  924MOL0     C27392   7.191  10.535   9.237 -0.7707 -0.7586  0.4682
  924MOL0     C27393   7.322  10.502   9.197 -0.5715 -0.9262  0.2232
  924MOL0     C27394   7.430  10.586   9.256  0.0931  0.8271 -0.0329
  924MOL0     C27395   7.532  10.634   9.153  0.1730 -0.2486 -0.5390
  924MOL0     C27396   7.661  10.695   9.210  0.0159  0.0788  0.8831
  924MOL0     C27397   7.726  10.621   9.326 -0.3187 -0.2108 -0.0691
  924MOL0     O27398   7.764  10.492   9.282 -0.6346  0.1092  0.4325
  924MOL0     C27399   7.860  10.426   9.366 -0.1295  0.2117 -0.6695
  924MOL0     C27400   7.859  10.426   9.504 -0.5351 -0.2196  0.1698
  924MOL0     C27401   7.946  10.350   9.585 -0.3587 -0.5537 -0.1479
  924MOL0     C27402   7.951  10.396   9.738 -0.5661  0.2033  1.1685
  924MOL0     C27403   8.022  10.245   9.531 -0.1767  0.1099  0.0479
  924MOL0     C27404   8.099  10.152   9.614 -0.4532  0.5956 -0.5573
  924MOL0     O27405   8.112  10.024   9.564 -0.0705 -0.1730  0.1523
  924MOL0     C27406   8.186   9.922   9.614  0.1185 -0.8050 -0.2946
  924MOL0     C27407   8.170   9.788   9.572 -0.0495 -0.7315 -0.0337
  924MOL0     C27408   8.249   9.678   9.608 -0.3242  0.0215  0.6356
  924MOL0     C27409   8.353   9.702   9.698  0.3786  0.9751 -0.4405
  924MOL0     O27410   8.439   9.598   9.750 -0.0155 -0.3541  0.1189
  924MOL0     C27411   8.488   9.499   9.657 -0.1625 -0.8592 -0.2713
  924MOL0     C27412   8.639   9.481   9.668 -1.6024  0.0903 -0.2833
  924MOL0     C27413   8.693   9.438   9.801 -0.0903  0.5421 -0.4142
  924MOL0     C27414   8.823   9.366   9.793  0.1441  0.7666 -0.5538
  924MOL0     C27415   8.917   9.371   9.918 -0.2708  0.6169  0.1433
  924MOL0     C27416   9.047   9.290   9.895  0.5498 -0.5501  0.1880
  924MOL0     C27417   9.143   9.297  10.006  0.4115  0.2895  0.3630
  924MOL0     C27418   9.219   9.433  10.012  0.2080 -0.2606 -0.2025
  924MOL0    Cl27419   9.387   9.393  10.070 -0.2162 -0.0900  0.5256
  924MOL0     C27420   8.366   9.833   9.749  0.1919 -0.0025  0.0605
  924MOL0     C27421   8.284   9.940   9.712 -0.3579 -0.4046 -0.2038
  924MOL0     O27422   8.159  10.197   9.705  0.0032  0.4619 -0.4863
  924MOL0     C27423   8.002  10.228   9.393 -0.3713 -0.4827  1.1808
  924MOL0     C27424   7.932  10.320   9.307 -0.6269 -0.1873 -0.3846
  924MOL0     N27425   7.314  10.400   9.114 -0.1003  0.5557  0.7484
  924MOL0     N27426   7.195  10.366   9.098  1.1194 -0.2725  0.5337
  924MOL0     C27427   6.422  11.160   9.180  0.2156  0.0375  0.0578
  924MOL0     C27428   6.312  11.180   9.094 -0.1913 -0.0521  0.8525
  924MOL0     C27429   5.945  11.354   8.906  0.9367  1.2933  0.1440
  924MOL0     C27430   5.855  11.459   8.900 -0.3577 -0.2451 -0.0779
  924MOL0     C27431   5.763  11.474   8.801  0.1702 -0.3497 -0.5695
  924MOL0     C27432   5.744  11.372   8.711 -0.7639  0.1960  0.2659
  924MOL0     O27433   5.640  11.367   8.619  0.0207 -0.0689  0.1492
  924MOL0     C27434   5.651  11.465   8.513  0.4927 -0.2684 -1.7462
  924MOL0     C27435   5.542  11.442   8.412 -1.4501  0.0577  0.2129
  924MOL0     C27436   5.413  11.522   8.431  0.5935 -0.0512 -0.2314
  924MOL0     C27437   5.291  11.458   8.357  0.7580 -0.0271 -0.2086
  924MOL0     C27438   5.309  11.476   8.215  0.0721  0.2659  0.0568
  924MOL0     C27439   5.329  11.480   8.097 -0.4472 -0.5293 -0.4126
  924MOL0     C27440   5.837  11.261   8.705  0.7822  0.1814  0.3416
  924MOL0     C27441   5.938  11.248   8.805  0.6288 -0.2241  0.0457
  924MOL0     C27442   6.034  11.136   8.785  0.8524 -0.7610  0.4383
  924MOL0     H27443   6.067  11.261   9.332  0.8007 -0.5637  2.3775
  924MOL0     H27444   6.231  11.212   9.477 -2.4865  0.6547  0.1341
  924MOL0     H27445   6.692  11.108   9.455  0.9430 -0.2139 -0.4993
  924MOL0     H27446   6.657  11.114   9.276 -3.4171  0.4586 -2.1902
  924MOL0     H27447   6.540  10.913   9.476  0.8825 -2.0565  0.0191
  924MOL0     H27448   6.504  10.928   9.298  1.2134  1.8367 -2.3434
  924MOL0     H27449   6.731  10.907   9.239 -2.1645  0.5462 -0.4663
  924MOL0     H27450   6.775  10.868   9.408  1.9688  1.8922 -1.3601
  924MOL0     H27451   6.631  10.668   9.404 -1.2146  0.3241 -0.3642
  924MOL0     H27452   6.565  10.706   9.243  0.5008  1.1345  0.1081
  924MOL0     H27453   6.859  10.663   9.322  1.6247  1.1120 -1.2339
  924MOL0     H27454   6.807  10.709   9.165  1.2258 -1.1742  0.1928
  924MOL0     H27455   6.752  10.450   9.311  1.9021  0.7040  1.0408
  924MOL0     H27456   6.661  10.481   9.170 -0.2124 -2.7935  1.6657
  924MOL0     H27457   6.924  10.559   9.086  1.0994 -1.3277 -2.7586
  924MOL0     H27458   6.844  10.404   9.056  1.1912  0.7595 -0.8247
  924MOL0     H27459   6.972  10.446   9.326  0.0109 -0.6165  1.0477
  924MOL0     H27460   6.968  10.292   9.214  3.0474 -0.1803 -1.2064
  924MOL0     H27461   7.161  10.624   9.292  0.5755 -1.1210  1.8560
  924MOL0     H27462   7.481  10.515   9.322 -0.6224 -0.4984 -0.8569
  924MOL0     H27463   7.383  10.672   9.303  1.5389  0.9826  1.1770
  924MOL0     H27464   7.569  10.558   9.084  0.1538  2.0332 -3.2420
  924MOL0     H27465   7.478  10.708   9.093 -1.3588 -1.5526 -0.8164
  924MOL0     H27466   7.736  10.702   9.131  0.3041 -2.1924  0.8777
  924MOL0     H27467   7.635  10.793   9.251 -2.4155 -0.3910  0.6201
  924MOL0     H27468   7.810  10.673   9.373 -0.0475 -0.4647 -0.2638
  924MOL0     H27469   7.656  10.603   9.408  0.3104  1.4388  0.8821
  924MOL0     H27470   7.786  10.497   9.543 -3.4949 -1.6284 -2.3020
  924MOL0     H27471   7.959  10.308   9.802  1.0947  0.4886  1.4154
  924MOL0     H27472   7.862  10.456   9.757 -1.9658 -0.5683 -2.2098
  924MOL0     H27473   8.041  10.451   9.769  0.2121 -0.4693  0.1715
  924MOL0     H27474   8.089   9.770   9.502  1.3545  2.0169 -2.5757
  924MOL0     H27475   8.236   9.579   9.565 -0.1186 -0.0443  0.7211
  924MOL0     H27476   8.438   9.404   9.678  0.3408 -0.7807  1.4927
  924MOL0     H27477   8.465   9.535   9.556 -0.4537  2.8803  0.9617
  924MOL0     H27478   8.679   9.419   9.587  1.4588  0.0340  1.1317
  924MOL0     H27479   8.677   9.581   9.647  1.0672 -0.5067  1.1419
  924MOL0     H27480   8.618   9.377   9.852  0.3164  2.2275  2.4183
  924MOL0     H27481   8.708   9.532   9.855  0.5181 -0.7550  1.7980
  924MOL0     H27482   8.882   9.400   9.707 -0.9554  3.6561 -0.3048
  924MOL0     H27483   8.811   9.259   9.775  1.1464  0.7632 -1.2495
  924MOL0     H27484   8.933   9.475   9.946 -0.3551  0.6857 -0.0634
  924MOL0     H27485   8.862   9.323  10.000 -0.1230 -1.7001 -1.0264
  924MOL0     H27486   9.090   9.330   9.803  1.1694 -1.8335 -0.0884
  924MOL0     H27487   9.022   9.187   9.871 -1.2423 -0.1592  0.2445
  924MOL0     H27488   9.216   9.220   9.978  0.7361  1.0338 -0.9318
  924MOL0     H27489   9.084   9.277  10.096 -0.1845 -0.3729 -0.1559
  924MOL0     H27490   9.156   9.487  10.083  1.7035 -0.2146  1.1593
  924MOL0     H27491   9.212   9.488   9.918 -2.2887 -0.4251 -0.1781
  924MOL0     H27492   8.444   9.850   9.822  1.4276  0.5261 -1.3416
  924MOL0     H27493   8.298  10.039   9.753 -2.9161  1.5894 -3.6679
  924MOL0     H27494   8.062  10.150   9.348  0.4899 -1.0245  3.1452
  924MOL0     H27495   7.942  10.310   9.200 -0.1699  2.3314 -0.6463
  924MOL0     H27496   6.512  11.124   9.132  0.4954  1.5154 -0.5657
  924MOL0     H27497   6.333  11.142   8.995  2.9475  0.9068  1.0528
  924MOL0     H27498   5.868  11.532   8.979 -2.1214 -0.5257  0.5094
  924MOL0     H27499   5.699  11.561   8.803 -0.2467 -0.5856 -2.3286
  924MOL0     H27500   5.649  11.569   8.546  2.7545 -0.8065  0.3503
  924MOL0     H27501   5.740  11.443   8.454  1.2867 -1.2627 -0.2333
  924MOL0     H27502   5.521  11.335   8.414 -2.7661  0.2243 -1.7627
  924MOL0     H27503   5.585  11.471   8.316  2.6357 -1.0434  1.5334
  924MOL0     H27504   5.393  11.548   8.535  0.1287 -0.1926 -0.2805
  924MOL0     H27505   5.425  11.622   8.388 -0.5716 -1.1672 -3.5087
  924MOL0     H27506   5.197  11.508   8.380  0.0767 -1.9734  1.5614
  924MOL0     H27507   5.276  11.353   8.386  1.4811 -0.5025 -1.4464
  924MOL0     H27508   5.344  11.473   7.991  0.4774  1.8933 -0.4951
  924MOL0     H27509   5.829  11.182   8.630  2.6464 -0.5748  0.8859
  924MOL0     H27510   6.025  11.081   8.691  2.0905  0.5353 -0.4792
  924MOL0     H27511   6.138  11.171   8.781  0.2604  1.0620 -0.4497
  924MOL0     H27512   6.032  11.063   8.866 -3.5829 -2.5596 -1.0066
  925MOL0     O27513  10.687   9.020  10.288  0.4225  0.5662 -0.4531
  925MOL0     C27514  10.668   8.902  10.243 -0.0380 -0.7165 -1.0365
  925MOL0     O27515  10.764   8.806  10.231 -0.0729  0.2282 -0.3557
  925MOL0     C27516  10.893   8.827  10.222 -0.5431  0.2129  0.3474
  925MOL0     C27517  10.973   8.756  10.127  0.7725 -0.3110  0.1328
  925MOL0     C27518  11.102   8.781  10.113 -0.0419 -0.3970 -0.1412
  925MOL0     C27519  11.167   8.881  10.191 -0.5784  0.2917  0.4524
  925MOL0     O27520  11.289   8.929  10.155 -0.5210  0.1470 -0.7901
  925MOL0     C27521  11.383   8.827  10.109 -0.2766  0.4499 -0.1213
  925MOL0     C27522  11.522   8.876  10.132 -0.7780  0.0497  0.2776
  925MOL0     C27523  11.628   8.796  10.054  0.3260  0.2169 -0.4506
  925MOL0     C27524  11.762   8.865  10.070  0.2873 -0.6766 -0.1393
  925MOL0     C27525  11.873   8.763  10.027 -0.7062 -0.2536  0.4419
  925MOL0     C27526  12.004   8.765  10.115 -0.0515  0.0460 -0.8511
  925MOL0     C27527  12.112   8.676  10.066  0.5619  0.1778  0.1160
  925MOL0     C27528  12.252   8.696  10.129 -0.3121 -0.3625 -1.3854
  925MOL0     N27529  12.338   8.591  10.084 -0.4677  0.2140  0.7466
  925MOL0     C27530  12.400   8.604   9.956 -0.4190  0.7560  0.7249
  925MOL0     C27531  12.448   8.475   9.945 -1.0477  0.1418  0.0424
  925MOL0     C27532  12.540   8.423   9.834 -0.7069  0.0459 -0.4573
  925MOL0     C27533  12.557   8.261   9.831 -0.0198  0.3295  0.3280
  925MOL0     C27534  12.643   8.226   9.706 -0.0120  0.0063 -0.0766
  925MOL0     C27535  12.727   8.101   9.717 -0.9052  0.8882 -0.3349
  925MOL0     O27536  12.654   7.986   9.751 -0.0938 -0.0419  0.2618
  925MOL0     C27537  12.722   7.872   9.762 -0.6557  0.1623 -0.8593
  925MOL0     C27538  12.645   7.772   9.816 -0.0235 -0.3590 -0.7025
  925MOL0     C27539  12.696   7.635   9.824  0.6080 -0.9567  0.0376
  925MOL0     C27540  12.617   7.532   9.892  0.0046  0.0049  0.0478
  925MOL0     C27541  12.820   7.605   9.784 -0.9757 -0.6296  0.0363
  925MOL0     C27542  12.889   7.473   9.786  1.0882 -0.7096 -0.4254
  925MOL0     O27543  13.018   7.468   9.737 -0.0647 -0.3692  0.1286
  925MOL0     C27544  13.081   7.347   9.739 -0.2608  0.3073  0.5487
  925MOL0     C27545  13.101   7.270   9.855 -0.5580  0.7311 -0.1999
  925MOL0     C27546  13.158   7.145   9.853  0.2945  0.1328  0.2351
  925MOL0     C27547  13.202   7.096   9.725  0.4401  0.5340  0.6739
  925MOL0     O27548  13.275   6.982   9.702 -0.2618  0.8734 -0.4717
  925MOL0     C27549  13.249   6.874   9.798  0.9446  0.8825  0.6491
  925MOL0     C27550  13.119   6.813   9.763  0.8379  0.2324  1.0109
  925MOL0     C27551  13.097   6.666   9.820  0.0203  0.2817  0.2638
  925MOL0     C27552  13.214   6.567   9.795 -0.3179  0.8505  0.2577
  925MOL0     C27553  13.175   6.416   9.830 -0.1772 -0.7432  1.7736
  925MOL0     C27554  13.304   6.347   9.835 -0.6402 -0.6559  0.4011
  925MOL0     C27555  13.277   6.207   9.899 -0.9298 -1.1816 -0.5798
  925MOL0     C27556  13.412   6.132   9.895  0.2356 -0.4719  0.1237
  925MOL0    Cl27557  13.415   5.967   9.878  0.3739  0.0031 -0.3835
  925MOL0     C27558  13.183   7.172   9.611 -0.3807  0.3469  0.1499
  925MOL0     C27559  13.119   7.296   9.615 -0.9058  0.4996  0.7708
  925MOL0     O27560  12.824   7.372   9.819 -1.3202 -0.1136  0.0498
  925MOL0     C27561  12.904   7.721   9.747  0.5955 -0.0101  0.7559
  925MOL0     C27562  12.849   7.847   9.725 -0.6562 -0.2104  0.0560
  925MOL0     N27563  12.400   8.391  10.040  0.0212 -0.1281  0.8198
  925MOL0     N27564  12.338   8.460  10.128 -0.6045 -0.3224  0.4990
  925MOL0     C27565  11.093   8.953  10.288 -0.3568  0.1602 -0.7140
  925MOL0     C27566  10.957   8.924  10.304  0.0749  0.0598 -0.2141
  925MOL0     C27567  10.522   8.870  10.210  0.0330 -0.1688 -0.6395
  925MOL0     C27568  10.435   8.975  10.171 -0.2016 -0.0229  0.2836
  925MOL0     C27569  10.309   8.958  10.128  0.8626  0.1178 -0.4840
  925MOL0     C27570  10.254   8.832  10.114  0.7544 -0.3131  0.3633
  925MOL0     O27571  10.118   8.823  10.078 -0.3378  0.0248 -0.0392
  925MOL0     C27572  10.032   8.823  10.195  0.6743 -0.3768  0.9937
  925MOL0     C27573   9.989   8.957  10.244 -0.7795 -0.3695  0.5286
  925MOL0     C27574   9.841   8.984  10.206  0.6031  0.1092  0.2760
  925MOL0     C27575   9.828   9.027  10.061  0.1898  0.4757  0.6965
  925MOL0     C27576   9.686   9.046  10.023  0.5364 -0.4590 -0.2433
  925MOL0     C27577   9.567   9.064   9.995 -0.6729 -0.3469 -0.2214
  925MOL0     C27578  10.327   8.722  10.161  0.1127 -0.4704  0.3732
  925MOL0     C27579  10.463   8.739  10.208 -0.0732 -0.4853 -0.3447
  925MOL0     C27580  10.535   8.613  10.247  0.3785  0.5901 -0.0705
  925MOL0     H27581  10.925   8.674  10.074  2.5516 -3.2176  2.7031
  925MOL0     H27582  11.152   8.721  10.038  0.7574  0.1744 -0.0856
  925MOL0     H27583  11.366   8.823  10.001 -3.0908  0.5987  0.2591
  925MOL0     H27584  11.365   8.737  10.169 -0.6239 -0.1452 -1.0994
  925MOL0     H27585  11.517   8.979  10.095 -0.4054  0.3805  1.1064
  925MOL0     H27586  11.542   8.874  10.240  0.5278 -0.9774  0.0405
  925MOL0     H27587  11.630   8.693  10.091 -1.7374  0.0959 -0.5254
  925MOL0     H27588  11.609   8.795   9.947  0.1659 -1.2855 -0.4334
  925MOL0     H27589  11.769   8.959  10.014 -0.1032  1.3084  2.9170
  925MOL0     H27590  11.769   8.877  10.178 -0.1896  0.7673 -0.2431
  925MOL0     H27591  11.893   8.794   9.924 -1.7774  2.0568  0.8383
  925MOL0     H27592  11.847   8.657  10.027  0.8111 -0.6458  0.3444
  925MOL0     H27593  12.045   8.866  10.110  2.0675 -0.6718  0.6522
  925MOL0     H27594  11.987   8.743  10.221  2.0024 -1.7641 -0.8388
  925MOL0     H27595  12.122   8.677   9.957 -2.2305 -0.0848 -0.2160
  925MOL0     H27596  12.090   8.576  10.106 -0.4257  0.7586  1.0750
  925MOL0     H27597  12.277   8.801  10.109 -0.8838  0.4421  1.6259
  925MOL0     H27598  12.239   8.687  10.237 -1.7308 -0.7700 -1.5753
  925MOL0     H27599  12.409   8.683   9.882 -1.1725 -0.2612 -0.4927
  925MOL0     H27600  12.635   8.476   9.848 -0.9829 -0.1006  2.4787
  925MOL0     H27601  12.494   8.444   9.737 -1.4209  0.1018 -0.1095
  925MOL0     H27602  12.603   8.215   9.918 -0.5725 -2.5149 -0.7966
  925MOL0     H27603  12.463   8.206   9.822  0.3424 -0.9599  3.3853
  925MOL0     H27604  12.580   8.226   9.617  1.9818 -0.4049 -1.5704
  925MOL0     H27605  12.707   8.310   9.679 -0.6049  0.7869  0.8780
  925MOL0     H27606  12.763   8.084   9.615  0.2564  0.3348  0.1454
  925MOL0     H27607  12.798   8.116   9.798 -1.6984  2.1508  0.1531
  925MOL0     H27608  12.542   7.792   9.843  0.7100  0.3204  1.9255
  925MOL0     H27609  12.519   7.564   9.928 -1.5630 -1.9570 -2.1742
  925MOL0     H27610  12.672   7.502   9.982 -3.8032  1.7468  3.2942
  925MOL0     H27611  12.592   7.444   9.832 -0.8973 -1.3337  2.2229
  925MOL0     H27612  13.076   7.309   9.954 -0.7215 -1.8760  0.8756
  925MOL0     H27613  13.167   7.100   9.951 -2.4877  1.9537  1.4582
  925MOL0     H27614  13.327   6.798   9.793 -0.1934 -0.4665  2.1255
  925MOL0     H27615  13.246   6.921   9.896 -0.2329  1.7042  0.2486
  925MOL0     H27616  13.045   6.883   9.802  0.7065 -1.6038  4.3830
  925MOL0     H27617  13.118   6.798   9.654 -3.3659  1.8367  0.6463
  925MOL0     H27618  12.998   6.629   9.790 -0.1590  2.0066 -1.4815
  925MOL0     H27619  13.073   6.682   9.926 -0.9364 -0.0441  0.1099
  925MOL0     H27620  13.293   6.596   9.864  0.8283 -0.4647 -0.4490
  925MOL0     H27621  13.243   6.581   9.690 -2.2010  1.6726 -0.1828
  925MOL0     H27622  13.124   6.404   9.925 -1.0959 -0.3628  1.3444
  925MOL0     H27623  13.116   6.366   9.752  0.1237 -0.3457  1.2785
  925MOL0     H27624  13.380   6.402   9.890 -0.9439  1.3445 -1.0753
  925MOL0     H27625  13.333   6.330   9.731 -3.1364  0.1100 -0.5142
  925MOL0     H27626  13.206   6.145   9.843 -0.2568 -1.2741 -1.3461
  925MOL0     H27627  13.242   6.212  10.003 -2.7457  0.3027 -1.2062
  925MOL0     H27628  13.470   6.142   9.988  0.1164 -1.4619  0.3101
  925MOL0     H27629  13.465   6.163   9.804  0.7060  1.2031  0.9263
  925MOL0     H27630  13.227   7.137   9.518  2.5372  0.0594  1.5062
  925MOL0     H27631  13.105   7.353   9.524  1.1725  0.4404  0.3668
  925MOL0     H27632  13.008   7.722   9.716  0.4758 -2.0638  0.1699
  925MOL0     H27633  12.914   7.923   9.684 -0.0826 -0.0146  1.2835
  925MOL0     H27634  11.150   9.021  10.349 -0.4097  0.5301 -1.0726
  925MOL0     H27635  10.908   8.972  10.388 -1.7940  0.8598 -1.6747
  925MOL0     H27636  10.469   9.076  10.186 -0.0463 -0.2173  1.2687
  925MOL0     H27637  10.246   9.040  10.094 -0.4319 -0.6815 -0.0771
  925MOL0     H27638   9.943   8.764  10.172  0.8458  0.1106 -1.0547
  925MOL0     H27639  10.087   8.770  10.273  3.6035 -1.9441 -1.8941
  925MOL0     H27640  10.046   9.041  10.202 -0.1509 -0.8511  0.4146
  925MOL0     H27641  10.005   8.953  10.352 -0.3821  0.5029  0.5134
  925MOL0     H27642   9.781   8.896  10.229 -1.3533  1.9241  2.6209
  925MOL0     H27643   9.807   9.058  10.279  2.5453  0.8086  0.5512
  925MOL0     H27644   9.870   8.947  10.000 -0.3241 -1.1752  2.3930
  925MOL0     H27645   9.883   9.116  10.029 -0.8954  0.5616 -1.1180
  925MOL0     H27646   9.472   9.100   9.962 -1.4116  0.6917  2.7829
  925MOL0     H27647  10.283   8.623  10.148 -3.0561  1.0253 -1.7432
  925MOL0     H27648  10.605   8.583  10.169  2.5537  2.5437  1.0209
  925MOL0     H27649  10.590   8.612  10.341 -1.2627 -3.0249  1.0257
  925MOL0     H27650  10.457   8.540  10.270 -0.6637  1.9667  0.9878
  926MOL0     O27651   5.282   2.839   9.316  0.0791  0.6442  0.3915
  926MOL0     C27652   5.166   2.877   9.334 -0.1187  0.7339  0.2266
  926MOL0     O27653   5.109   2.985   9.276  0.3637  0.1588 -0.4260
  926MOL0     C27654   5.182   3.064   9.201 -0.5695  0.8088  0.3254
  926MOL0     C27655   5.221   3.190   9.229 -0.5573 -0.1234  0.3620
  926MOL0     C27656   5.309   3.268   9.151  0.9605 -0.0667  0.3015
  926MOL0     C27657   5.367   3.204   9.040  0.6232 -0.7904  0.3470
  926MOL0     O27658   5.442   3.260   8.942 -0.4644 -0.1406  0.2854
  926MOL0     C27659   5.467   3.404   8.948  0.5771  0.4132  0.0109
  926MOL0     C27660   5.567   3.463   8.847 -0.1089 -0.3044  0.3525
  926MOL0     C27661   5.696   3.502   8.916 -0.2105 -0.4061  0.2839
  926MOL0     C27662   5.774   3.595   8.826 -0.2928  0.2010  0.2888
  926MOL0     C27663   5.716   3.736   8.836  0.7443 -0.1983 -0.5455
  926MOL0     C27664   5.792   3.832   8.749  0.2918 -0.2606  0.2180
  926MOL0     C27665   5.730   3.968   8.732  0.5055 -0.8550  1.2950
  926MOL0     C27666   5.812   4.054   8.646 -0.4618 -0.1929  0.3211
  926MOL0     N27667   5.807   4.024   8.501  0.0325 -0.2805  0.1996
  926MOL0     C27668   5.910   3.970   8.435 -0.2201  0.9656  0.7900
  926MOL0     C27669   5.859   3.956   8.307 -0.0449 -0.1273 -0.3508
  926MOL0     C27670   5.917   3.869   8.201  1.5952  0.1506  0.6542
  926MOL0     C27671   6.060   3.899   8.161  0.4465  0.3773 -0.3734
  926MOL0     C27672   6.132   3.805   8.062  0.1377 -0.8769  0.2670
  926MOL0     C27673   6.278   3.805   8.101 -0.3563  1.2057  0.4809
  926MOL0     O27674   6.342   3.931   8.070  0.2173 -0.0834  0.5218
  926MOL0     C27675   6.472   3.950   8.082 -0.1971  0.1476 -0.0856
  926MOL0     C27676   6.515   4.079   8.049 -0.6344  0.2991 -0.6204
  926MOL0     C27677   6.656   4.113   8.061 -0.5142  0.2995  0.8568
  926MOL0     C27678   6.706   4.242   8.003  0.2294 -0.0274  0.3408
  926MOL0     C27679   6.738   4.022   8.128  0.7225 -0.3000 -0.1616
  926MOL0     C27680   6.880   4.050   8.153  0.1633  0.6454 -0.2863
  926MOL0     O27681   6.906   4.181   8.179 -0.5999  0.4089  0.1800
  926MOL0     C27682   7.044   4.219   8.179 -0.7008 -0.3199  0.2507
  926MOL0     C27683   7.089   4.313   8.082  0.1846 -0.4187 -0.3975
  926MOL0     C27684   7.223   4.353   8.079 -0.2644  0.4952  0.3814
  926MOL0     C27685   7.320   4.304   8.163  0.3219  1.0432  0.0096
  926MOL0     O27686   7.443   4.367   8.186  0.3442  0.7219 -0.0625
  926MOL0     C27687   7.492   4.479   8.116  0.8839  0.8386  0.0165
  926MOL0     C27688   7.625   4.519   8.150  0.5968 -0.6493  0.0336
  926MOL0     C27689   7.650   4.664   8.108 -0.3651  1.0426 -0.3753
  926MOL0     C27690   7.794   4.701   8.167  0.6257 -0.2354  0.3342
  926MOL0     C27691   7.827   4.840   8.114 -0.6848 -0.9703 -0.0533
  926MOL0     C27692   7.967   4.883   8.175  0.0808 -0.6301  0.0996
  926MOL0     C27693   8.064   4.958   8.078 -0.2880  0.1119 -0.1249
  926MOL0     C27694   8.006   5.067   7.990  0.4549  0.6424 -0.0595
  926MOL0    Cl27695   8.134   5.179   7.956  0.0633 -0.0171 -0.0993
  926MOL0     C27696   7.275   4.208   8.258 -0.4082 -0.1727 -0.8143
  926MOL0     C27697   7.138   4.169   8.269 -0.3073 -1.0106 -0.7122
  926MOL0     O27698   6.971   3.964   8.158 -0.0192  0.6976  1.0807
  926MOL0     C27699   6.691   3.894   8.164 -0.1506  1.0620 -0.7497
  926MOL0     C27700   6.561   3.852   8.140  0.2664 -0.5078  0.4612
  926MOL0     N27701   5.734   4.015   8.303  0.0888 -0.5539  0.5751
  926MOL0     N27702   5.692   4.049   8.422 -0.4767  0.0412  0.6183
  926MOL0     C27703   5.336   3.073   9.006 -0.7195  0.0759 -1.3305
  926MOL0     C27704   5.241   3.011   9.084  0.5604  0.5007  0.0017
  926MOL0     C27705   5.077   2.802   9.443  0.7685 -0.4615 -0.4052
  926MOL0     C27706   4.956   2.866   9.483  0.2563  0.0874 -0.5075
  926MOL0     C27707   4.873   2.805   9.564 -1.2399  0.1230 -0.5828
  926MOL0     C27708   4.908   2.681   9.611  0.5002 -0.1111 -0.5557
  926MOL0     O27709   4.802   2.613   9.669  0.8148 -0.2681 -0.4171
  926MOL0     C27710   4.813   2.482   9.695  0.9601  0.3237  1.2775
  926MOL0     C27711   4.678   2.430   9.763  0.9253  0.1481  0.5668
  926MOL0     C27712   4.683   2.291   9.825  0.5274 -0.1262 -0.0352
  926MOL0     C27713   4.702   2.175   9.720  0.7311  0.7131 -0.0805
  926MOL0     C27714   4.671   2.042   9.785 -0.3093 -0.3867  0.2768
  926MOL0     C27715   4.655   1.930   9.823 -0.0662  0.5923  0.2792
  926MOL0     C27716   5.032   2.617   9.589  0.3121 -0.2221 -0.0694
  926MOL0     C27717   5.120   2.684   9.509 -0.0202 -0.0554  0.0994
  926MOL0     C27718   5.251   2.608   9.478  0.8103 -0.9048 -0.9044
  926MOL0     H27719   5.179   3.231   9.320 -0.9966  0.2209  0.0069
  926MOL0     H27720   5.328   3.370   9.182  3.9785 -0.6015  0.4981
  926MOL0     H27721   5.482   3.433   9.052 -0.5013 -0.6916  0.5007
  926MOL0     H27722   5.368   3.443   8.923  0.5141 -0.2086 -0.7574
  926MOL0     H27723   5.600   3.397   8.767 -4.0364  0.7841 -2.4813
  926MOL0     H27724   5.512   3.545   8.799 -0.0294 -0.4578  0.0006
  926MOL0     H27725   5.672   3.551   9.011 -0.3468  0.7151 -0.3188
  926MOL0     H27726   5.760   3.415   8.933 -0.5086 -1.5182 -3.4952
  926MOL0     H27727   5.878   3.601   8.860 -0.4086  1.1083  0.5182
  926MOL0     H27728   5.779   3.560   8.722  1.7201 -0.7347  0.6500
  926MOL0     H27729   5.729   3.759   8.942  0.2083 -0.4843 -0.4090
  926MOL0     H27730   5.608   3.751   8.823  0.4222 -0.9034  0.9988
  926MOL0     H27731   5.893   3.836   8.791 -0.0631  0.8243  1.0362
  926MOL0     H27732   5.798   3.798   8.645 -0.9449  1.0067 -0.3133
  926MOL0     H27733   5.717   4.021   8.827 -1.8034  0.2033  0.4632
  926MOL0     H27734   5.630   3.954   8.690  1.1880 -3.1449  0.2468
  926MOL0     H27735   5.798   4.162   8.652  2.2157  0.3908 -1.6921
  926MOL0     H27736   5.917   4.043   8.675 -0.2511  0.2627 -0.2480
  926MOL0     H27737   6.004   3.926   8.468 -0.5419 -0.2533  0.1670
  926MOL0     H27738   5.842   3.888   8.124  1.4691 -0.4307  0.6262
  926MOL0     H27739   5.905   3.761   8.217 -2.1784  0.2741 -0.3523
  926MOL0     H27740   6.050   3.992   8.105 -0.0339 -0.1565 -1.2023
  926MOL0     H27741   6.121   3.912   8.251  0.8978 -0.7735 -0.4855
  926MOL0     H27742   6.093   3.703   8.076  1.1295 -1.1629  1.1397
  926MOL0     H27743   6.112   3.838   7.960 -0.2561  2.4183  1.2942
  926MOL0     H27744   6.289   3.778   8.206 -0.7792  0.4432  0.3380
  926MOL0     H27745   6.336   3.729   8.047 -0.3631  2.3403 -1.2138
  926MOL0     H27746   6.452   4.153   8.000  1.0461  2.4312  0.2814
  926MOL0     H27747   6.643   4.276   7.921 -3.1369 -2.3190  1.7340
  926MOL0     H27748   6.805   4.228   7.960  0.3937  3.8824 -0.9048
  926MOL0     H27749   6.702   4.322   8.078  5.1751 -0.1277  1.0603
  926MOL0     H27750   7.033   4.370   8.008 -0.1121  1.5330  1.2255
  926MOL0     H27751   7.247   4.427   8.004 -3.1945  1.2506  0.0541
  926MOL0     H27752   7.482   4.474   8.007  0.8958 -2.5924  0.0802
  926MOL0     H27753   7.416   4.553   8.141 -2.4676 -2.3080  0.0338
  926MOL0     H27754   7.643   4.508   8.257  1.7644 -0.8180 -0.1659
  926MOL0     H27755   7.686   4.453   8.087  1.4359  0.4802 -0.3669
  926MOL0     H27756   7.568   4.733   8.129 -3.6098 -2.6187  0.1148
  926MOL0     H27757   7.656   4.669   7.999 -0.9823  0.7416 -0.4231
  926MOL0     H27758   7.866   4.638   8.114  0.3492  1.6011 -2.4105
  926MOL0     H27759   7.806   4.691   8.275  0.1911 -1.5312  0.2845
  926MOL0     H27760   7.829   4.847   8.005  3.3257  1.7399 -0.0193
  926MOL0     H27761   7.741   4.904   8.133 -0.2978 -1.1803  2.9534
  926MOL0     H27762   8.018   4.793   8.212  1.6297  0.4258  0.6166
  926MOL0     H27763   7.945   4.945   8.262 -1.5163  0.1680 -0.8279
  926MOL0     H27764   8.112   4.881   8.017 -2.6541 -2.3860  0.9859
  926MOL0     H27765   8.137   5.008   8.144  1.3369 -0.1141 -1.6667
  926MOL0     H27766   7.922   5.123   8.031 -0.0564  1.4832 -2.1163
  926MOL0     H27767   7.955   5.020   7.905 -0.4928  0.7679  0.4271
  926MOL0     H27768   7.347   4.181   8.334  1.4505  4.0575 -0.7546
  926MOL0     H27769   7.096   4.106   8.346 -3.0993  1.6107  0.1203
  926MOL0     H27770   6.766   3.830   8.209  0.4638  0.3572 -2.6691
  926MOL0     H27771   6.530   3.749   8.152 -1.0543 -0.1152  0.6320
  926MOL0     H27772   5.380   3.023   8.921  2.2944 -1.0300  0.6983
  926MOL0     H27773   5.206   2.910   9.065  0.2468  0.0097  2.8480
  926MOL0     H27774   4.926   2.964   9.449 -2.1621 -0.3345  0.2595
  926MOL0     H27775   4.777   2.846   9.592 -0.9846 -0.5406  1.4438
  926MOL0     H27776   4.830   2.422   9.604 -2.3624 -1.8627  1.9247
  926MOL0     H27777   4.894   2.457   9.764  2.7299  0.1979 -0.7150
  926MOL0     H27778   4.606   2.441   9.682  1.2710 -0.4310  0.1755
  926MOL0     H27779   4.648   2.504   9.839 -0.2471 -0.3018  0.5588
  926MOL0     H27780   4.763   2.297   9.900  1.1177 -0.9978 -0.5828
  926MOL0     H27781   4.591   2.281   9.883  0.9759  0.2229  0.7542
  926MOL0     H27782   4.804   2.170   9.683  0.9298 -2.3193  0.5613
  926MOL0     H27783   4.635   2.169   9.634 -1.1442 -1.8695  1.3896
  926MOL0     H27784   4.630   1.831   9.857  0.8124  0.1586 -0.3131
  926MOL0     H27785   5.066   2.521   9.626  0.6979  0.5715  1.7347
  926MOL0     H27786   5.333   2.678   9.489  0.0988 -0.3485  1.5702
  926MOL0     H27787   5.272   2.530   9.552  0.2447 -0.1492  0.0738
  926MOL0     H27788   5.253   2.580   9.372  3.0540  1.3411 -1.5400
  927MOL0     O27789   2.609   2.086   1.271  0.3532  0.9957  0.4859
  927MOL0     C27790   2.711   2.026   1.308 -0.8721  0.1260  0.3055
  927MOL0     O27791   2.773   1.929   1.229  0.1876 -0.9250 -0.2653
  927MOL0     C27792   2.700   1.875   1.129 -0.2723  0.4221  0.4222
  927MOL0     C27793   2.614   1.929   1.032  0.1971 -0.5659 -0.0954
  927MOL0     C27794   2.537   1.844   0.943  0.7898  0.1878  0.0995
  927MOL0     C27795   2.548   1.706   0.948 -0.1055  0.5237  0.3386
  927MOL0     O27796   2.469   1.639   0.866  0.0782  0.7981  1.0561
  927MOL0     C27797   2.365   1.559   0.921 -1.4358 -0.0652  1.2859
  927MOL0     C27798   2.265   1.520   0.822  0.3849 -0.1581  1.4367
  927MOL0     C27799   2.327   1.434   0.708  0.5187  0.6840  0.4650
  927MOL0     C27800   2.362   1.289   0.768  0.8833 -0.6040  0.0773
  927MOL0     C27801   2.254   1.196   0.797  1.0017 -0.1092  0.0731
  927MOL0     C27802   2.175   1.129   0.674 -0.4993  0.1431 -0.3702
  927MOL0     C27803   2.058   1.039   0.713  0.1915  0.6108 -0.2075
  927MOL0     C27804   1.924   1.126   0.713 -0.0944 -0.7497  0.4664
  927MOL0     N27805   1.796   1.046   0.715 -0.2631  0.4710 -0.2681
  927MOL0     C27806   1.771   0.948   0.814  0.1644 -0.7177 -0.9531
  927MOL0     C27807   1.660   0.887   0.779 -0.3869 -0.4438  0.1629
  927MOL0     C27808   1.591   0.768   0.849  0.3581  0.1910  0.4151
  927MOL0     C27809   1.655   0.716   0.974 -0.9310 -0.2615 -0.0844
  927MOL0     C27810   1.581   0.597   1.030 -0.3641 -0.6032  0.3046
  927MOL0     C27811   1.595   0.464   0.941 -0.0758 -0.0248 -0.1242
  927MOL0     O27812   1.719   0.415   0.989 -0.8117  0.3792 -0.3825
  927MOL0     C27813   1.720   0.289   1.046 -0.0384  0.0662 -0.1248
  927MOL0     C27814   1.629   0.190   1.009  0.9191  0.3527 -0.0067
  927MOL0     C27815   1.630   0.065   1.071  0.0062 -0.8681  0.4322
  927MOL0     C27816   1.546  -0.043   1.017  0.2502 -0.0997 -0.3260
  927MOL0     C27817   1.718   0.049   1.183  0.2525  0.2844 -0.2918
  927MOL0     C27818   1.734  -0.085   1.253  0.9432 -0.8862 -0.0444
  927MOL0     O27819   1.751  -0.084   1.389  0.3065  0.4468 -0.2763
  927MOL0     C27820   1.714  -0.188   1.470  0.0744  0.3393  0.9240
  927MOL0     C27821   1.801  -0.223   1.578  0.4094  0.0673  0.6743
  927MOL0     C27822   1.776  -0.325   1.656 -0.4952 -0.5113 -0.7374
  927MOL0     C27823   1.671  -0.410   1.637  0.7975 -0.0064  0.1746
  927MOL0     O27824   1.656  -0.511   1.730  0.3188 -0.9642 -0.6515
  927MOL0     C27825   1.665  -0.651   1.687 -0.2834  0.4175  0.0428
  927MOL0     C27826   1.777  -0.724   1.747 -0.1606  0.2232 -0.6766
  927MOL0     C27827   1.909  -0.667   1.713  0.7160 -0.3358  0.6643
  927MOL0     C27828   2.034  -0.732   1.779  0.2374  0.1189  0.4823
  927MOL0     C27829   2.159  -0.683   1.714 -0.2568 -0.2484  0.5117
  927MOL0     C27830   2.174  -0.532   1.730  0.1815  0.8089  0.0878
  927MOL0     C27831   2.309  -0.478   1.683 -0.2503  0.1671  0.1172
  927MOL0     C27832   2.298  -0.327   1.683 -0.4739 -0.0566  0.1078
  927MOL0    Cl27833   2.450  -0.235   1.698 -0.1029 -0.2657 -0.2771
  927MOL0     C27834   1.583  -0.385   1.531  0.0780 -0.3826  0.2651
  927MOL0     C27835   1.615  -0.282   1.444  0.1099  0.4266  0.1711
  927MOL0     O27836   1.731  -0.189   1.191  0.0142 -0.3854 -0.6038
  927MOL0     C27837   1.809   0.150   1.212 -0.0889  0.6164 -0.0841
  927MOL0     C27838   1.806   0.272   1.143 -0.2654 -0.5685 -0.6364
  927MOL0     N27839   1.627   0.946   0.657 -0.7418 -0.0780  0.3330
  927MOL0     N27840   1.697   1.043   0.620  0.6883 -1.1550  0.1280
  927MOL0     C27841   2.628   1.654   1.045  0.4993 -0.0890 -0.0792
  927MOL0     C27842   2.706   1.733   1.130 -1.0707  0.2612 -0.4035
  927MOL0     C27843   2.774   2.061   1.435  0.1891 -1.0177  0.6954
  927MOL0     C27844   2.887   2.001   1.483 -1.1215  0.3840 -0.5890
  927MOL0     C27845   2.934   2.018   1.617  0.3497  0.0795 -0.1157
  927MOL0     C27846   2.873   2.105   1.706  0.2632 -0.0027  0.2477
  927MOL0     O27847   2.925   2.124   1.832  0.0817  0.1556  0.5742
  927MOL0     C27848   2.841   2.149   1.940 -0.6725 -0.2887  0.6168
  927MOL0     C27849   2.903   2.114   2.075  0.1616  0.1316  0.6663
  927MOL0     C27850   3.053   2.131   2.085 -0.4225 -0.4704  0.1049
  927MOL0     C27851   3.117   1.990   2.057  0.9166 -0.0538  0.3380
  927MOL0     C27852   3.261   1.993   2.020  0.4304 -0.1189  0.6853
  927MOL0     C27853   3.379   1.996   1.999 -0.2183  0.0645  0.1540
  927MOL0     C27854   2.761   2.163   1.662 -0.2900 -0.2355 -0.9017
  927MOL0     C27855   2.715   2.148   1.528  0.0430 -0.0260 -0.0323
  927MOL0     C27856   2.584   2.212   1.514  0.3948  0.2468  0.5788
  927MOL0     H27857   2.593   2.035   1.028 -0.0423 -0.5864  0.5587
  927MOL0     H27858   2.464   1.893   0.879  0.5640 -2.5974 -1.9486
  927MOL0     H27859   2.309   1.618   0.994 -0.7802  1.8277  0.3438
  927MOL0     H27860   2.402   1.475   0.980 -0.0276  1.3687  2.5431
  927MOL0     H27861   2.184   1.460   0.863 -2.1170 -1.0785 -3.9435
  927MOL0     H27862   2.216   1.607   0.778  0.2936 -0.5434  0.7653
  927MOL0     H27863   2.243   1.410   0.642 -1.1502 -0.0976  2.7563
  927MOL0     H27864   2.408   1.478   0.649 -0.9771  0.6456 -1.7415
  927MOL0     H27865   2.432   1.250   0.694 -1.1474 -1.0781 -1.7078
  927MOL0     H27866   2.422   1.294   0.859  0.5227 -1.5684  0.3796
  927MOL0     H27867   2.180   1.252   0.855  1.6547  0.8092  0.0221
  927MOL0     H27868   2.283   1.107   0.855 -2.0938 -0.9816  0.4683
  927MOL0     H27869   2.133   1.206   0.609 -1.7186 -0.6875 -0.6041
  927MOL0     H27870   2.249   1.069   0.621  0.9597  1.3103  0.2783
  927MOL0     H27871   2.073   1.000   0.814 -1.1405  2.5002  0.7987
  927MOL0     H27872   2.057   0.946   0.656 -0.7095  1.4341 -1.6282
  927MOL0     H27873   1.937   1.204   0.788  2.6859  0.1772 -0.8546
  927MOL0     H27874   1.921   1.187   0.623  0.8371  0.3969  1.1819
  927MOL0     H27875   1.839   0.922   0.894  0.3948  0.4900 -0.7287
  927MOL0     H27876   1.573   0.693   0.771 -1.6428  3.7632 -2.9152
  927MOL0     H27877   1.490   0.804   0.872  0.5906  1.2848 -0.1970
  927MOL0     H27878   1.759   0.687   0.954 -0.3384  2.0538 -0.6120
  927MOL0     H27879   1.656   0.789   1.055  1.3475 -0.1147 -0.1780
  927MOL0     H27880   1.599   0.585   1.137 -0.2258  1.0303  0.4846
  927MOL0     H27881   1.479   0.637   1.030 -0.2073 -0.1982 -0.1719
  927MOL0     H27882   1.511   0.394   0.945  1.9990 -2.9212 -2.4480
  927MOL0     H27883   1.602   0.477   0.833 -2.0613  1.1665 -0.1663
  927MOL0     H27884   1.559   0.211   0.928 -1.9512  0.0187  2.2094
  927MOL0     H27885   1.605  -0.115   0.961 -0.6478 -0.2768 -1.0620
  927MOL0     H27886   1.472   0.000   0.949 -0.3779  2.2431  1.6900
  927MOL0     H27887   1.487  -0.088   1.097  0.8117  0.6710  0.5472
  927MOL0     H27888   1.872  -0.150   1.616 -4.1097  4.9087  0.8897
  927MOL0     H27889   1.833  -0.333   1.749 -0.1854 -0.6400 -0.9361
  927MOL0     H27890   1.579  -0.710   1.719 -0.0872 -0.8933 -1.6684
  927MOL0     H27891   1.670  -0.653   1.577  3.2232  2.1066  0.0359
  927MOL0     H27892   1.751  -0.706   1.851  1.4516  2.0418 -0.5368
  927MOL0     H27893   1.783  -0.830   1.721 -0.7286 -0.1656  0.6893
  927MOL0     H27894   1.920  -0.568   1.757 -0.1502  0.0893 -0.0396
  927MOL0     H27895   1.916  -0.659   1.604 -1.3834 -1.4739  0.3740
  927MOL0     H27896   2.024  -0.839   1.759  0.8414  0.2908 -0.8389
  927MOL0     H27897   2.044  -0.711   1.886  1.3845 -0.0793  0.4203
  927MOL0     H27898   2.244  -0.735   1.759  0.1964  0.9685  1.1026
  927MOL0     H27899   2.145  -0.710   1.609  0.5525  1.4529 -0.0610
  927MOL0     H27900   2.150  -0.519   1.836 -1.0459 -3.7617  0.5728
  927MOL0     H27901   2.095  -0.492   1.667 -0.4208 -2.3626 -1.3545
  927MOL0     H27902   2.339  -0.514   1.584  1.9576 -0.8834  1.0927
  927MOL0     H27903   2.391  -0.517   1.743 -0.7643  1.4660  1.7134
  927MOL0     H27904   2.246  -0.293   1.773 -0.9874  0.6176 -0.4229
  927MOL0     H27905   2.229  -0.292   1.605 -2.2934  0.7712  1.9870
  927MOL0     H27906   1.490  -0.438   1.514  0.1629 -0.4247 -0.0662
  927MOL0     H27907   1.551  -0.287   1.356 -3.5052 -1.4178  2.6601
  927MOL0     H27908   1.872   0.137   1.299 -1.9741  1.4867  1.4847
  927MOL0     H27909   1.883   0.345   1.169  2.8457 -2.9840 -2.3810
  927MOL0     H27910   2.630   1.546   1.046  3.3006 -0.1152 -0.7654
  927MOL0     H27911   2.769   1.688   1.206  0.4544 -0.1875 -1.8609
  927MOL0     H27912   2.943   1.926   1.429  0.5896  0.0561  1.5261
  927MOL0     H27913   3.030   1.979   1.649  0.3384 -2.5268 -2.8696
  927MOL0     H27914   2.804   2.252   1.941  0.5067  0.1728 -0.1565
  927MOL0     H27915   2.750   2.092   1.924  0.1764 -1.2284 -1.0943
  927MOL0     H27916   2.882   2.009   2.096  0.3853 -0.5432 -2.1658
  927MOL0     H27917   2.863   2.181   2.152 -2.0977 -0.7117  0.3217
  927MOL0     H27918   3.089   2.198   2.006 -3.1559 -1.4249 -2.1033
  927MOL0     H27919   3.078   2.151   2.190  0.4100  0.0746 -0.1820
  927MOL0     H27920   3.067   1.949   1.969  1.5460 -1.2054  0.4941
  927MOL0     H27921   3.089   1.916   2.132 -1.6053  0.8350  0.3622
  927MOL0     H27922   3.483   1.995   1.972 -0.0148  3.0414  0.5681
  927MOL0     H27923   2.707   2.226   1.733  1.9633  0.0111  0.6897
  927MOL0     H27924   2.582   2.280   1.428 -1.1665 -0.3983  0.0687
  927MOL0     H27925   2.506   2.137   1.499 -0.3299  1.2262 -0.8350
  927MOL0     H27926   2.559   2.280   1.596 -0.5491  0.3202  0.2462
  928MOL0     O27927   4.375   3.781   6.567 -0.2032  0.9386 -0.1000
  928MOL0     C27928   4.363   3.672   6.624 -0.1686 -0.0150  0.0467
  928MOL0     O27929   4.457   3.616   6.698 -0.3571 -0.2435  0.3638
  928MOL0     C27930   4.584   3.668   6.693  0.0681  0.0285 -0.5867
  928MOL0     C27931   4.606   3.796   6.751 -0.0056  0.3222  0.4474
  928MOL0     C27932   4.740   3.843   6.752  0.4487 -0.1827 -0.1338
  928MOL0     C27933   4.845   3.768   6.710 -1.0531 -0.3501  0.1884
  928MOL0     O27934   4.980   3.808   6.716 -0.4497 -0.2855 -0.1743
  928MOL0     C27935   5.012   3.831   6.854 -0.9697  0.4736  0.6119
  928MOL0     C27936   5.098   3.951   6.867 -0.5685 -0.6009 -0.2933
  928MOL0     C27937   5.252   3.928   6.857 -0.6537  1.2260  0.7422
  928MOL0     C27938   5.312   4.068   6.851  0.1094  1.2699  0.9112
  928MOL0     C27939   5.446   4.081   6.925 -0.2048  1.0963  0.1019
  928MOL0     C27940   5.468   4.228   6.967  0.3600 -0.0694  0.1770
  928MOL0     C27941   5.577   4.253   7.074 -0.4850  0.5103  0.1794
  928MOL0     C27942   5.721   4.183   7.038 -0.3717  0.1353  0.8091
  928MOL0     N27943   5.784   4.250   6.931 -0.5081  1.2505 -0.1231
  928MOL0     C27944   5.793   4.217   6.800  0.3032  0.3720 -0.6666
  928MOL0     C27945   5.865   4.322   6.750  0.1121  0.7862 -0.5612
  928MOL0     C27946   5.900   4.314   6.600 -0.8380  0.2659 -0.2723
  928MOL0     C27947   5.999   4.198   6.564  1.0359 -0.5465  0.2982
  928MOL0     C27948   6.121   4.255   6.488  0.0200  0.4171 -0.1386
  928MOL0     C27949   6.252   4.164   6.476  0.5093  0.2541  1.1519
  928MOL0     O27950   6.369   4.225   6.414 -0.0445  0.5602  0.9149
  928MOL0     C27951   6.478   4.147   6.387  0.4985  0.1256 -0.4023
  928MOL0     C27952   6.508   4.022   6.450  0.2594 -0.0573  0.2747
  928MOL0     C27953   6.621   3.941   6.424 -0.5283 -1.7616 -0.5869
  928MOL0     C27954   6.638   3.824   6.517 -0.4339 -1.2157  0.9104
  928MOL0     C27955   6.712   3.994   6.327 -0.1335  0.6430  0.3104
  928MOL0     C27956   6.846   3.938   6.302 -0.4728  0.6551  0.1279
  928MOL0     O27957   6.932   4.007   6.225 -0.2544 -0.0815  0.2483
  928MOL0     C27958   7.052   3.951   6.186  0.3339  0.9472 -0.9238
  928MOL0     C27959   7.066   3.943   6.053  0.0982  0.0358 -0.1229
  928MOL0     C27960   7.174   3.868   6.000 -0.2462 -0.7616  0.2778
  928MOL0     C27961   7.268   3.812   6.079  0.2811 -0.0841 -1.0300
  928MOL0     O27962   7.350   3.727   6.018 -0.8462  0.3313  0.6063
  928MOL0     C27963   7.423   3.620   6.083 -0.2906 -0.0645 -0.1816
  928MOL0     C27964   7.569   3.644   6.051 -0.0777 -0.5034 -0.6382
  928MOL0     C27965   7.620   3.751   6.140  0.1033  0.5553  0.3544
  928MOL0     C27966   7.782   3.760   6.134  0.5042 -0.4780  1.2038
  928MOL0     C27967   7.836   3.834   6.253  0.8948 -0.5742  0.5900
  928MOL0     C27968   7.990   3.827   6.242  0.4250  0.4605 -0.4847
  928MOL0     C27969   8.070   3.900   6.352 -0.7041 -0.5072 -0.0223
  928MOL0     C27970   8.224   3.877   6.357  0.3590  0.1414 -0.5964
  928MOL0    Cl27971   8.265   3.711   6.410  0.0734  0.2117 -0.4667
  928MOL0     C27972   7.268   3.841   6.213 -0.4364 -0.4239 -0.1756
  928MOL0     C27973   7.157   3.908   6.268  0.1235 -0.1302 -0.1810
  928MOL0     O27974   6.879   3.836   6.366 -0.0542  0.0551 -0.2933
  928MOL0     C27975   6.684   4.117   6.263 -0.1017 -0.4983  0.6248
  928MOL0     C27976   6.569   4.197   6.299  0.8704  1.0809  0.0898
  928MOL0     N27977   5.907   4.405   6.848  0.5499  0.0673  0.0118
  928MOL0     N27978   5.858   4.360   6.953 -0.9842 -0.3392 -0.2731
  928MOL0     C27979   4.822   3.641   6.644 -0.0100 -0.3010  1.0504
  928MOL0     C27980   4.691   3.594   6.639  0.1670  0.2885 -0.1303
  928MOL0     C27981   4.225   3.627   6.631  1.1733 -0.3447 -0.4121
  928MOL0     C27982   4.131   3.668   6.533 -0.1655  0.1943  0.3508
  928MOL0     C27983   3.997   3.637   6.529 -0.1515  0.3466 -0.4475
  928MOL0     C27984   3.937   3.559   6.629  0.7326  0.0758 -0.6357
  928MOL0     O27985   3.798   3.540   6.630  0.9992  0.4149 -0.2233
  928MOL0     C27986   3.761   3.403   6.660  0.2270 -0.7428  0.5094
  928MOL0     C27987   3.611   3.393   6.616  0.6809 -0.1018  1.0203
  928MOL0     C27988   3.502   3.480   6.680 -0.2738  0.2086 -0.5559
  928MOL0     C27989   3.384   3.493   6.576  0.4189 -0.1877 -0.2912
  928MOL0     C27990   3.267   3.412   6.597 -0.2285 -0.5202 -0.8877
  928MOL0     C27991   3.169   3.346   6.627 -1.7982 -0.2303  0.5177
  928MOL0     C27992   4.024   3.514   6.732 -0.0176  0.1975 -0.2568
  928MOL0     C27993   4.168   3.541   6.734 -0.1705 -0.9300  0.7156
  928MOL0     C27994   4.233   3.506   6.864 -0.6479  0.1854 -0.0672
  928MOL0     H27995   4.529   3.863   6.787  0.7830  0.1788  2.5322
  928MOL0     H27996   4.764   3.942   6.788  1.0443 -0.2607 -0.3099
  928MOL0     H27997   5.072   3.747   6.893 -2.5208 -0.6529  0.6567
  928MOL0     H27998   4.925   3.836   6.920  0.6166  2.3158  2.7030
  928MOL0     H27999   5.057   4.024   6.796 -3.4665 -2.1553 -0.3657
  928MOL0     H28000   5.072   3.985   6.968 -1.3896 -2.1987  0.0563
  928MOL0     H28001   5.280   3.858   6.936 -0.2470 -2.3499 -2.2724
  928MOL0     H28002   5.272   3.874   6.764 -0.0789 -0.5667  1.8778
  928MOL0     H28003   5.314   4.089   6.744 -2.2961 -1.6199  0.1751
  928MOL0     H28004   5.233   4.134   6.888 -1.7111 -1.1476  1.6094
  928MOL0     H28005   5.519   4.047   6.851 -2.8089 -1.6590 -1.4512
  928MOL0     H28006   5.461   4.018   7.013 -0.7870 -0.0216 -0.5767
  928MOL0     H28007   5.478   4.281   6.872 -1.2265 -0.1826 -0.0795
  928MOL0     H28008   5.373   4.261   7.010  0.5862  0.6561  0.1334
  928MOL0     H28009   5.537   4.219   7.170 -2.5547  0.4181 -0.6770
  928MOL0     H28010   5.589   4.359   7.098 -3.0444  0.4155  2.2366
  928MOL0     H28011   5.790   4.193   7.123  1.7587  2.1597 -1.0451
  928MOL0     H28012   5.711   4.080   7.002  0.1320  0.3308  0.0910
  928MOL0     H28013   5.749   4.135   6.744  1.1961  1.4147 -3.0586
  928MOL0     H28014   5.947   4.405   6.560  0.2653  0.1978  0.8017
  928MOL0     H28015   5.806   4.302   6.546 -0.5577  1.9837 -1.2051
  928MOL0     H28016   6.032   4.142   6.652  0.1002 -1.3236  0.1696
  928MOL0     H28017   5.939   4.133   6.500  3.2255  0.2673 -2.8724
  928MOL0     H28018   6.077   4.281   6.391 -0.8339  0.8854  0.3672
  928MOL0     H28019   6.152   4.348   6.536  2.7924 -0.6513  0.2881
  928MOL0     H28020   6.292   4.128   6.572  3.8051 -0.3418 -0.3031
  928MOL0     H28021   6.223   4.074   6.422  2.8387 -0.0634  0.3231
  928MOL0     H28022   6.438   3.990   6.526  1.5380  0.5979  1.7823
  928MOL0     H28023   6.653   3.730   6.462  3.0238  0.0605 -0.6124
  928MOL0     H28024   6.549   3.803   6.577 -0.6912 -2.8694  0.0265
  928MOL0     H28025   6.730   3.844   6.572  0.9681  4.0488 -2.6316
  928MOL0     H28026   6.994   3.992   5.989 -0.0165  0.0939  0.0493
  928MOL0     H28027   7.174   3.834   5.897 -1.1315  1.6821 -0.6073
  928MOL0     H28028   7.409   3.621   6.192 -0.8617  1.6855 -0.2362
  928MOL0     H28029   7.379   3.525   6.052 -0.3320 -0.9387  2.3513
  928MOL0     H28030   7.626   3.555   6.078  4.4807  2.2683 -0.0413
  928MOL0     H28031   7.584   3.677   5.947  2.5502 -1.2943 -0.5563
  928MOL0     H28032   7.591   3.739   6.245  2.1375 -0.5694  0.8221
  928MOL0     H28033   7.587   3.847   6.098  2.6512  1.5470  0.4551
  928MOL0     H28034   7.808   3.822   6.048 -0.1217 -2.2923 -0.3375
  928MOL0     H28035   7.819   3.658   6.133  0.5352 -0.4647  1.0650
  928MOL0     H28036   7.792   3.934   6.253 -4.3176 -2.5192  2.7821
  928MOL0     H28037   7.794   3.788   6.344 -2.1224  3.2839  1.3952
  928MOL0     H28038   8.021   3.885   6.154  2.4615 -1.3769 -1.0819
  928MOL0     H28039   8.027   3.725   6.233 -0.2840  0.1004  0.5634
  928MOL0     H28040   8.030   3.877   6.451 -2.6843  2.4108 -0.0232
  928MOL0     H28041   8.058   4.007   6.336  2.5681 -0.1904 -1.1484
  928MOL0     H28042   8.266   3.953   6.423 -0.4873 -0.9049  1.2075
  928MOL0     H28043   8.265   3.891   6.257  0.3735 -0.1625 -0.6339
  928MOL0     H28044   7.347   3.815   6.282 -0.3249  0.8640  0.2160
  928MOL0     H28045   7.146   3.922   6.375 -1.9777 -2.4182  0.0058
  928MOL0     H28046   6.749   4.155   6.184 -2.0284 -2.3184 -2.0016
  928MOL0     H28047   6.556   4.287   6.240  3.7984  1.0937 -0.6925
  928MOL0     H28048   4.901   3.574   6.612 -0.5030 -0.9452  1.1453
  928MOL0     H28049   4.659   3.514   6.573 -0.9972  3.6005 -3.9870
  928MOL0     H28050   4.154   3.738   6.453 -0.2141  0.6040  0.6907
  928MOL0     H28051   3.933   3.678   6.451 -3.4269 -1.6572  0.9575
  928MOL0     H28052   3.822   3.332   6.604 -0.1989 -1.4590  0.9392
  928MOL0     H28053   3.767   3.380   6.767 -0.7034 -3.5076  0.0401
  928MOL0     H28054   3.572   3.291   6.623 -2.9818  1.1419  1.1380
  928MOL0     H28055   3.609   3.430   6.513 -0.6266 -0.9439  0.7136
  928MOL0     H28056   3.471   3.439   6.776  3.4906 -1.5519  0.1129
  928MOL0     H28057   3.541   3.580   6.703 -1.1795 -0.0847  2.6200
  928MOL0     H28058   3.421   3.482   6.474 -2.0782  1.2641 -1.4612
  928MOL0     H28059   3.341   3.592   6.556  1.9056  0.5973  0.2646
  928MOL0     H28060   3.080   3.287   6.636 -1.5528 -0.2996  3.1653
  928MOL0     H28061   3.978   3.474   6.822  2.4156 -0.6818  0.6591
  928MOL0     H28062   4.240   3.592   6.931 -2.0386 -1.1102  1.8581
  928MOL0     H28063   4.180   3.428   6.919 -0.8333 -1.1303 -2.0222
  928MOL0     H28064   4.331   3.460   6.845 -1.2270 -0.9957 -0.2711
  929MOL0     O28065   8.037   3.932   9.357 -0.2453 -1.0714 -0.2810
  929MOL0     C28066   7.987   4.023   9.288  0.4086  0.4629  0.4605
  929MOL0     O28067   8.054   4.128   9.232  0.3646  0.6009  0.6200
  929MOL0     C28068   8.186   4.143   9.219 -0.0916 -0.5575  0.2359
  929MOL0     C28069   8.277   4.038   9.219 -0.2673 -0.1591 -0.5565
  929MOL0     C28070   8.412   4.075   9.233  0.3762 -0.1053  0.1566
  929MOL0     C28071   8.460   4.202   9.242 -0.7131 -0.8996  0.4860
  929MOL0     O28072   8.591   4.246   9.236 -0.0563  0.1348  0.0730
  929MOL0     C28073   8.677   4.238   9.352 -0.2221 -0.1388  0.1591
  929MOL0     C28074   8.749   4.105   9.366  0.1312  0.2198 -0.3738
  929MOL0     C28075   8.850   4.121   9.486 -0.6365  0.9887  0.0777
  929MOL0     C28076   8.978   4.188   9.438 -0.7244 -0.1297 -0.1772
  929MOL0     C28077   9.088   4.213   9.544 -1.2043  0.5816 -0.2726
  929MOL0     C28078   9.046   4.306   9.667 -0.8471 -0.1460  0.8875
  929MOL0     C28079   9.032   4.459   9.631 -0.0895  0.9116  0.0990
  929MOL0     C28080   9.004   4.536   9.760  0.2116 -0.1583  0.1667
  929MOL0     N28081   9.121   4.553   9.846 -0.2464  1.0109  0.5348
  929MOL0     C28082   9.224   4.643   9.826  0.2849 -0.1169 -0.9511
  929MOL0     C28083   9.314   4.614   9.929  0.2761 -0.2972 -0.2358
  929MOL0     C28084   9.443   4.680   9.960  0.9344  0.6084 -0.3810
  929MOL0     C28085   9.552   4.654   9.858  0.6339  0.0887 -0.3994
  929MOL0     C28086   9.556   4.755   9.746  0.3758  0.2760 -0.0826
  929MOL0     C28087   9.689   4.754   9.683  0.4587  0.2097  0.6458
  929MOL0     O28088   9.795   4.783   9.777 -0.0545  0.2496 -0.2872
  929MOL0     C28089   9.914   4.727   9.740 -0.4172  0.8865 -0.3759
  929MOL0     C28090  10.006   4.717   9.845 -0.0227  0.0889  0.4117
  929MOL0     C28091  10.135   4.660   9.823  0.2605 -0.7780  0.1631
  929MOL0     C28092  10.219   4.649   9.947  0.4831 -0.2082  0.1279
  929MOL0     C28093  10.177   4.616   9.691 -0.3629 -0.0344  0.4979
  929MOL0     C28094  10.312   4.548   9.664  0.3197  0.0591  0.7252
  929MOL0     O28095  10.359   4.469   9.763  0.0346 -0.4385  0.3613
  929MOL0     C28096  10.467   4.389   9.729  0.5172  0.2741 -0.1211
  929MOL0     C28097  10.594   4.445   9.702 -0.9237 -0.0667  0.1231
  929MOL0     C28098  10.691   4.358   9.675 -0.9666  0.3104 -0.9528
  929MOL0     C28099  10.670   4.220   9.684 -1.2173  0.0970 -0.0049
  929MOL0     O28100  10.762   4.120   9.673 -0.1602  0.1730 -0.2003
  929MOL0     C28101  10.897   4.144   9.677  0.4300  0.0298  0.9589
  929MOL0     C28102  10.962   4.019   9.635 -0.4630 -0.7266  0.7247
  929MOL0     C28103  11.007   3.932   9.751  1.9911 -0.1171  0.2115
  929MOL0     C28104  11.131   3.847   9.731  0.5914 -0.1147  0.4576
  929MOL0     C28105  11.164   3.782   9.866  0.0453  1.1912  0.4644
  929MOL0     C28106  11.094   3.651   9.883  0.3445  0.5932  0.2786
  929MOL0     C28107  11.120   3.584  10.019 -0.5182 -0.2721 -0.0235
  929MOL0     C28108  11.268   3.559  10.043 -0.4112  0.2072 -0.9266
  929MOL0    Cl28109  11.273   3.456  10.174 -0.0513  0.2290 -0.0177
  929MOL0     C28110  10.546   4.167   9.704 -0.4539 -0.4111  0.0897
  929MOL0     C28111  10.440   4.253   9.719  0.1682 -0.7767 -0.3588
  929MOL0     O28112  10.361   4.558   9.545  0.8378  0.3468 -0.5880
  929MOL0     C28113  10.086   4.646   9.587 -0.7615 -0.1994  0.1705
  929MOL0     C28114   9.956   4.691   9.610  0.0432  0.1188 -0.5430
  929MOL0     N28115   9.265   4.511  10.009  0.3085 -0.2104 -0.2939
  929MOL0     N28116   9.154   4.470   9.957 -0.5778  0.8271  0.6039
  929MOL0     C28117   8.368   4.307   9.227  0.6010 -0.0312  0.8282
  929MOL0     C28118   8.227   4.276   9.216  0.0451  0.2818  1.2776
  929MOL0     C28119   7.836   4.023   9.271  0.7641  0.1667 -0.5366
  929MOL0     C28120   7.779   4.138   9.209  0.4318  0.0065  0.2882
  929MOL0     C28121   7.644   4.160   9.197  0.4517  0.7554  0.1267
  929MOL0     C28122   7.550   4.062   9.235 -0.2228  0.3999 -0.6533
  929MOL0     O28123   7.419   4.054   9.227  1.4053 -0.1557 -0.2299
  929MOL0     C28124   7.334   4.148   9.141 -0.6850 -0.2973 -0.7043
  929MOL0     C28125   7.193   4.158   9.176  0.3563 -0.1537  0.3740
  929MOL0     C28126   7.114   4.231   9.068  0.2929 -0.0610  0.2434
  929MOL0     C28127   6.965   4.213   9.077  0.2577  0.0655 -0.3835
  929MOL0     C28128   6.894   4.271   8.963 -0.1088 -0.6678 -0.4666
  929MOL0     C28129   6.841   4.310   8.861  0.8123 -0.3842  0.2587
  929MOL0     C28130   7.608   3.955   9.303  0.5546  0.5795  1.1484
  929MOL0     C28131   7.746   3.930   9.313  0.0400  0.4765 -0.3410
  929MOL0     C28132   7.790   3.808   9.393  0.1404 -0.0489  0.5590
  929MOL0     H28133   8.254   3.932   9.219 -1.8835  0.1474 -1.8392
  929MOL0     H28134   8.488   3.998   9.245  0.5141 -0.1422 -0.8712
  929MOL0     H28135   8.622   4.246   9.446 -2.9186 -2.2363 -1.1007
  929MOL0     H28136   8.747   4.319   9.330  0.3941 -1.4564 -3.6182
  929MOL0     H28137   8.667   4.036   9.387 -0.5328  0.9980 -0.3502
  929MOL0     H28138   8.797   4.075   9.272 -1.7452  0.8175 -1.5702
  929MOL0     H28139   8.797   4.164   9.572  0.4993 -0.5456  1.6113
  929MOL0     H28140   8.876   4.019   9.514  1.1905  1.5832  0.7006
  929MOL0     H28141   9.025   4.111   9.376 -1.0277 -1.3531  1.0653
  929MOL0     H28142   8.963   4.272   9.370  2.0369 -0.4158 -1.2615
  929MOL0     H28143   9.178   4.258   9.501 -1.6945  2.5832  0.6838
  929MOL0     H28144   9.126   4.121   9.589 -0.0497  0.6662 -1.0446
  929MOL0     H28145   8.954   4.270   9.712  1.3441 -0.4428  5.7334
  929MOL0     H28146   9.138   4.300   9.725 -0.7890 -2.1100  0.6575
  929MOL0     H28147   8.958   4.473   9.552  1.0588  2.4010 -0.7659
  929MOL0     H28148   9.125   4.488   9.581  0.5929 -2.7591 -1.1294
  929MOL0     H28149   8.963   4.632   9.729  0.9135  0.7031  1.7640
  929MOL0     H28150   8.930   4.486   9.823  0.0521  0.0004  0.1067
  929MOL0     H28151   9.236   4.722   9.752  1.2548 -0.9086 -1.6852
  929MOL0     H28152   9.471   4.650  10.061 -2.2432 -0.5252  0.2973
  929MOL0     H28153   9.426   4.788   9.964 -0.4482  0.3769  0.7612
  929MOL0     H28154   9.648   4.650   9.910  1.9792  0.5011 -2.7183
  929MOL0     H28155   9.529   4.554   9.822 -0.9287 -0.6642  2.3446
  929MOL0     H28156   9.478   4.733   9.673 -2.3969  0.4429  2.6372
  929MOL0     H28157   9.540   4.857   9.782 -3.3590  0.6945 -2.3539
  929MOL0     H28158   9.700   4.655   9.636  1.3715  0.8878 -0.6385
  929MOL0     H28159   9.682   4.829   9.604 -0.9731  1.2989  1.7453
  929MOL0     H28160   9.990   4.747   9.948 -0.3767  1.0026  0.1091
  929MOL0     H28161  10.326   4.664   9.930  1.3406 -3.8232  1.5235
  929MOL0     H28162  10.216   4.547   9.985 -1.0611 -1.6726 -3.4386
  929MOL0     H28163  10.184   4.702  10.036 -0.5058 -2.7964  1.3745
  929MOL0     H28164  10.610   4.551   9.721  1.0633  0.2494 -2.6236
  929MOL0     H28165  10.795   4.388   9.673 -0.6336 -0.6473  0.2029
  929MOL0     H28166  10.921   4.230   9.615 -0.5207 -0.9252 -0.7904
  929MOL0     H28167  10.924   4.173   9.779  0.5046 -1.0138  1.2478
  929MOL0     H28168  10.899   3.957   9.571 -1.1379 -0.3525  1.0197
  929MOL0     H28169  11.043   4.044   9.566  0.1461 -1.1405  1.2783
  929MOL0     H28170  10.924   3.864   9.771  1.8491  0.3628  1.3659
  929MOL0     H28171  11.022   4.003   9.834  3.3240  3.1204 -2.5434
  929MOL0     H28172  11.223   3.900   9.703  0.3704 -0.9985 -2.2367
  929MOL0     H28173  11.117   3.771   9.653  3.9892  1.9352 -2.5059
  929MOL0     H28174  11.272   3.766   9.865  0.1972  2.0482 -1.2499
  929MOL0     H28175  11.140   3.843   9.954 -0.0092  0.6670  0.8157
  929MOL0     H28176  11.128   3.582   9.805  1.4933 -0.6565  1.8249
  929MOL0     H28177  10.988   3.675   9.876  0.5082  1.1801 -0.2825
  929MOL0     H28178  11.078   3.483  10.025  0.1563 -0.4762  2.1572
  929MOL0     H28179  11.073   3.646  10.096  2.1563  0.4391  1.1861
  929MOL0     H28180  11.316   3.652  10.075 -0.6778  0.2842 -0.7462
  929MOL0     H28181  11.318   3.515   9.957 -0.8830 -0.6030 -0.7975
  929MOL0     H28182  10.525   4.061   9.717 -1.9396  0.0269  1.5550
  929MOL0     H28183  10.346   4.206   9.746  0.7631 -1.8321 -0.0369
  929MOL0     H28184  10.126   4.627   9.488  3.1334  2.0073  1.1230
  929MOL0     H28185   9.896   4.726   9.527 -2.5934  2.0133  1.9584
  929MOL0     H28186   8.406   4.409   9.224  1.8975 -0.5221 -0.1109
  929MOL0     H28187   8.148   4.347   9.195 -0.1586  0.1812  1.6906
  929MOL0     H28188   7.846   4.215   9.172  0.3795 -0.0331  0.1062
  929MOL0     H28189   7.609   4.250   9.147 -0.7339  0.6813  0.7948
  929MOL0     H28190   7.384   4.245   9.136  2.9671 -2.0626 -2.7842
  929MOL0     H28191   7.342   4.111   9.038 -0.9079  1.7441 -1.5044
  929MOL0     H28192   7.184   4.225   9.261 -1.2394  0.8857 -0.5534
  929MOL0     H28193   7.152   4.059   9.199  0.4118  0.1004  1.6008
  929MOL0     H28194   7.147   4.335   9.076  0.7810 -0.2620  0.9161
  929MOL0     H28195   7.143   4.189   8.971  1.0767  0.8264  0.0710
  929MOL0     H28196   6.928   4.265   9.165  1.7050 -1.5232  1.2604
  929MOL0     H28197   6.938   4.107   9.081 -2.9713  0.7589 -1.3939
  929MOL0     H28198   6.796   4.335   8.767  1.1055 -0.2706  0.1478
  929MOL0     H28199   7.538   3.876   9.330  0.7709 -0.3555 -0.8533
  929MOL0     H28200   7.882   3.772   9.346  1.5268  1.0713  2.2869
  929MOL0     H28201   7.810   3.834   9.497 -2.0272  0.7785  0.8158
  929MOL0     H28202   7.711   3.732   9.389  1.3674 -1.4194  1.2605
  930MOL0     O28203   2.042   1.492   7.243  0.4865 -0.0546 -0.1288
  930MOL0     C28204   2.081   1.380   7.265  0.1119  0.0751  0.7796
  930MOL0     O28205   2.209   1.352   7.292 -0.5032  0.7308 -0.0019
  930MOL0     C28206   2.283   1.444   7.363 -0.7277  0.4488  0.0080
  930MOL0     C28207   2.365   1.531   7.294 -0.4091 -1.6916  0.7185
  930MOL0     C28208   2.445   1.633   7.356  0.2058 -0.0800  0.3141
  930MOL0     C28209   2.458   1.635   7.499  0.2037 -0.1516 -0.1480
  930MOL0     O28210   2.533   1.726   7.560 -0.3103  0.0423  0.0967
  930MOL0     C28211   2.635   1.655   7.639 -0.4889  0.1872  0.0856
  930MOL0     C28212   2.738   1.757   7.691  0.7449 -0.6824  0.4085
  930MOL0     C28213   2.695   1.846   7.812  0.0580  0.2799  0.2815
  930MOL0     C28214   2.660   1.766   7.940  1.0265 -0.6377  0.1516
  930MOL0     C28215   2.610   1.857   8.066 -0.0530  0.9316 -0.4516
  930MOL0     C28216   2.579   1.761   8.193 -0.2995 -0.2592 -0.0280
  930MOL0     C28217   2.544   1.825   8.329 -0.2017  0.0349  1.4239
  930MOL0     C28218   2.531   1.714   8.431 -0.3059  0.2746  0.1723
  930MOL0     N28219   2.495   1.755   8.569 -0.0198  0.2065 -0.2881
  930MOL0     C28220   2.576   1.816   8.670 -0.0199  0.0649 -0.3843
  930MOL0     C28221   2.495   1.833   8.779 -0.6292  0.1095  0.1519
  930MOL0     C28222   2.526   1.876   8.916 -0.3964  0.0389 -0.3465
  930MOL0     C28223   2.462   2.014   8.946  0.8756 -0.2460 -0.3698
  930MOL0     C28224   2.535   2.133   8.899 -0.5202  0.4239  0.0416
  930MOL0     C28225   2.669   2.175   8.952 -0.6742 -0.3297  0.4777
  930MOL0     O28226   2.675   2.177   9.090  0.3225  0.0789 -0.3217
  930MOL0     C28227   2.785   2.217   9.154 -0.3630 -0.5751  0.0439
  930MOL0     C28228   2.789   2.201   9.297  0.2607  0.1694  0.2239
  930MOL0     C28229   2.900   2.234   9.376  0.8833  0.7090  0.1249
  930MOL0     C28230   2.898   2.216   9.533  0.0487  0.1700  0.3179
  930MOL0     C28231   3.017   2.263   9.309 -0.0704  0.5182 -0.5244
  930MOL0     C28232   3.150   2.287   9.373  0.9618 -0.5023  0.0080
  930MOL0     O28233   3.248   2.329   9.287  0.6702 -0.6349  0.4777
  930MOL0     C28234   3.378   2.369   9.330  0.5926 -0.2406 -0.5674
  930MOL0     C28235   3.453   2.387   9.212 -0.9388 -0.2629  0.2206
  930MOL0     C28236   3.593   2.390   9.225 -0.6002  0.4235  0.4909
  930MOL0     C28237   3.651   2.412   9.357  0.0099  0.1443 -0.1371
  930MOL0     O28238   3.786   2.429   9.377 -0.2151  0.4573  0.8800
  930MOL0     C28239   3.863   2.509   9.289 -0.0707 -0.6305 -0.8841
  930MOL0     C28240   3.979   2.576   9.358 -0.5070 -0.7373 -0.1109
  930MOL0     C28241   4.088   2.471   9.394  0.0580 -0.3683 -0.6920
  930MOL0     C28242   4.231   2.526   9.396  0.5929 -0.8564 -0.1941
  930MOL0     C28243   4.332   2.405   9.411 -0.2185  0.8848  0.0975
  930MOL0     C28244   4.470   2.452   9.402  0.0380 -0.3884  0.7119
  930MOL0     C28245   4.511   2.513   9.270  0.8096 -0.3227 -1.1639
  930MOL0     C28246   4.622   2.609   9.264  0.3652 -0.8694 -0.5628
  930MOL0    Cl28247   4.639   2.699   9.112 -0.2852  0.2559 -0.2014
  930MOL0     C28248   3.569   2.400   9.473  0.0015  0.1035  1.0458
  930MOL0     C28249   3.429   2.378   9.459 -0.3527 -0.0778  0.8820
  930MOL0     O28250   3.170   2.259   9.488 -0.3476 -0.0744  0.1690
  930MOL0     C28251   3.017   2.267   9.168  0.2926 -1.0564  0.3370
  930MOL0     C28252   2.901   2.250   9.089  0.0912  0.1091 -0.2591
  930MOL0     N28253   2.367   1.807   8.734  1.0029  0.0824  0.7969
  930MOL0     N28254   2.368   1.749   8.619  0.1314  0.2014 -0.1284
  930MOL0     C28255   2.376   1.546   7.565  0.3950 -0.0071 -0.1438
  930MOL0     C28256   2.294   1.448   7.505 -0.5026 -0.3508  0.4189
  930MOL0     C28257   1.984   1.261   7.254  0.6056  0.0524 -0.0682
  930MOL0     C28258   2.047   1.140   7.244  0.8137  0.4754  0.2028
  930MOL0     C28259   1.966   1.020   7.270  0.1703 -0.1876  0.4960
  930MOL0     C28260   1.825   1.024   7.282 -0.2403 -0.0799  0.2657
  930MOL0     O28261   1.761   0.904   7.304  0.3752  0.7649  0.7067
  930MOL0     C28262   1.637   0.896   7.373  0.2117  0.8235  0.0542
  930MOL0     C28263   1.670   0.885   7.516 -0.0235  0.5197  0.4691
  930MOL0     C28264   1.746   0.760   7.558 -0.4775  0.3407  0.3468
  930MOL0     C28265   1.772   0.771   7.707 -0.0819 -1.1319  0.0937
  930MOL0     C28266   1.829   0.647   7.759 -0.6146  0.3976 -0.2450
  930MOL0     C28267   1.883   0.542   7.804  0.1330 -0.4172 -0.3870
  930MOL0     C28268   1.771   1.150   7.271 -1.2730  1.2566  1.4351
  930MOL0     C28269   1.844   1.264   7.256 -0.3466  0.8478  1.0004
  930MOL0     C28270   1.775   1.387   7.248  0.7268  1.1463  0.9168
  930MOL0     H28271   2.365   1.540   7.185  1.6039  1.5221  0.8513
  930MOL0     H28272   2.496   1.699   7.287  1.4940 -0.0038  1.3055
  930MOL0     H28273   2.684   1.582   7.574  0.0072  2.2172 -1.9768
  930MOL0     H28274   2.582   1.614   7.725 -0.3951  1.4105  0.7534
  930MOL0     H28275   2.834   1.709   7.709  0.5508 -0.6912  1.4908
  930MOL0     H28276   2.757   1.822   7.605  1.1294 -1.6334 -0.2411
  930MOL0     H28277   2.777   1.918   7.821  0.8945 -0.4960 -0.8493
  930MOL0     H28278   2.612   1.910   7.779 -0.6808 -0.6198  0.3726
  930MOL0     H28279   2.580   1.695   7.918  2.1135 -1.6136 -0.7671
  930MOL0     H28280   2.749   1.710   7.971  1.6308 -1.0590 -2.1581
  930MOL0     H28281   2.524   1.917   8.035 -0.0169  0.7409 -0.9362
  930MOL0     H28282   2.693   1.921   8.096  2.1201 -1.4648 -0.9965
  930MOL0     H28283   2.491   1.700   8.168 -0.5433  0.1535 -0.2038
  930MOL0     H28284   2.662   1.692   8.208 -0.2606 -0.5253 -1.3210
  930MOL0     H28285   2.450   1.878   8.314 -0.0533 -0.3574 -1.6844
  930MOL0     H28286   2.626   1.890   8.360  0.7101 -0.6983  0.6389
  930MOL0     H28287   2.445   1.652   8.404 -2.0587  1.7514  1.9712
  930MOL0     H28288   2.622   1.654   8.431  0.0607  0.8053  1.1824
  930MOL0     H28289   2.684   1.820   8.660 -0.1550  0.4034 -2.0044
  930MOL0     H28290   2.634   1.875   8.933 -0.1118  0.6520 -1.9496
  930MOL0     H28291   2.485   1.804   8.987 -2.5026  2.4350  1.0690
  930MOL0     H28292   2.361   2.020   8.902  0.3236  4.2529  0.9475
  930MOL0     H28293   2.437   2.027   9.051 -3.6135 -1.0582 -1.1023
  930MOL0     H28294   2.555   2.120   8.792  2.4793 -2.8109  0.8096
  930MOL0     H28295   2.470   2.221   8.906 -2.4800 -0.9884  0.5752
  930MOL0     H28296   2.751   2.120   8.906 -0.8778 -1.1383  1.0569
  930MOL0     H28297   2.666   2.280   8.923 -0.0129 -0.9312 -1.9705
  930MOL0     H28298   2.691   2.176   9.337 -1.0431  3.0661 -0.8502
  930MOL0     H28299   2.930   2.307   9.583  0.6625 -0.3483  0.8902
  930MOL0     H28300   2.966   2.138   9.569  0.2958  0.4646  0.4964
  930MOL0     H28301   2.796   2.201   9.568 -1.5519  3.0166 -2.6078
  930MOL0     H28302   3.418   2.402   9.110 -0.8062  0.7219  0.3089
  930MOL0     H28303   3.656   2.390   9.136  0.5275 -0.8166  1.2520
  930MOL0     H28304   3.891   2.442   9.206  0.1121 -0.4065 -1.0049
  930MOL0     H28305   3.791   2.580   9.248 -0.1304 -0.6971 -0.8948
  930MOL0     H28306   4.029   2.645   9.289 -1.4463  1.7501  1.5391
  930MOL0     H28307   3.945   2.633   9.446  0.0564 -1.2309  0.4322
  930MOL0     H28308   4.094   2.396   9.315 -2.8302  0.3134 -1.6848
  930MOL0     H28309   4.062   2.430   9.493  3.3153  0.9817  0.8692
  930MOL0     H28310   4.237   2.592   9.483  0.8807 -0.3142 -0.6187
  930MOL0     H28311   4.251   2.585   9.306  0.7109  1.3529  1.2081
  930MOL0     H28312   4.315   2.346   9.502  0.0200  0.3281 -0.2128
  930MOL0     H28313   4.309   2.345   9.323  0.4705  0.5510  0.1404
  930MOL0     H28314   4.544   2.377   9.432  3.3692  2.5461  0.5444
  930MOL0     H28315   4.484   2.524   9.484 -0.7661 -0.6135  1.0586
  930MOL0     H28316   4.425   2.567   9.230  1.9616 -0.0130 -3.3562
  930MOL0     H28317   4.534   2.427   9.206 -2.4591 -0.6907 -2.0105
  930MOL0     H28318   4.716   2.573   9.307 -0.4923 -0.4158  1.8743
  930MOL0     H28319   4.596   2.684   9.340 -0.6258 -1.3423 -0.4137
  930MOL0     H28320   3.619   2.408   9.568  2.0732  1.1252 -0.0682
  930MOL0     H28321   3.370   2.352   9.546 -1.2160 -0.0146  0.3266
  930MOL0     H28322   3.100   2.272   9.097  1.1100 -0.5123  1.3081
  930MOL0     H28323   2.909   2.256   8.981 -1.0138 -2.3416 -0.5395
  930MOL0     H28324   2.364   1.556   7.672 -1.9020  0.9484 -0.4268
  930MOL0     H28325   2.249   1.376   7.572  1.8848 -1.9597  0.4016
  930MOL0     H28326   2.154   1.127   7.229  0.7782 -1.2602  1.1920
  930MOL0     H28327   2.016   0.925   7.287  0.8056 -0.2955 -1.6839
  930MOL0     H28328   1.558   0.970   7.357  0.6729  1.5498  0.9765
  930MOL0     H28329   1.587   0.806   7.335  0.7654  0.6666 -0.3159
  930MOL0     H28330   1.573   0.899   7.565  0.6277 -2.1047  2.7942
  930MOL0     H28331   1.734   0.965   7.555  0.8370 -0.0126  0.1708
  930MOL0     H28332   1.673   0.680   7.541 -2.2478  1.9851 -0.1654
  930MOL0     H28333   1.843   0.747   7.510 -0.9705  0.8302 -0.7998
  930MOL0     H28334   1.672   0.796   7.744  0.1668  1.5422 -0.8016
  930MOL0     H28335   1.836   0.859   7.722  1.2816 -1.4467 -3.0545
  930MOL0     H28336   1.914   0.453   7.855  1.6776  1.1099  1.4655
  930MOL0     H28337   1.664   1.166   7.269 -1.0064  3.4516 -1.0071
  930MOL0     H28338   1.784   1.427   7.147  1.4229  3.2168  1.7554
  930MOL0     H28339   1.667   1.381   7.265  0.2531 -1.0529 -2.0319
  930MOL0     H28340   1.810   1.461   7.321 -2.7751  2.4503  1.4590
  931MOL0     O28341   9.472  10.031   8.394  0.3629 -0.2439  0.3755
  931MOL0     C28342   9.561  10.030   8.303 -0.3730 -0.1105  0.5373
  931MOL0     O28343   9.534   9.997   8.169 -0.2418 -0.6026  0.1845
  931MOL0     C28344   9.414   9.941   8.141 -0.0047  0.7024 -0.1196
  931MOL0     C28345   9.376   9.822   8.212  0.5281  0.3628 -0.0465
  931MOL0     C28346   9.269   9.738   8.171  0.1572  0.3342  0.0973
  931MOL0     C28347   9.185   9.797   8.064 -0.2112 -0.7423  0.7040
  931MOL0     O28348   9.070   9.738   8.018 -0.0835 -0.9033  0.3294
  931MOL0     C28349   8.981   9.666   8.101  0.1997  1.1254  0.0838
  931MOL0     C28350   8.970   9.506   8.063  0.4074 -0.5218 -0.4706
  931MOL0     C28351   9.079   9.428   8.138  0.2983  0.4217  0.0249
  931MOL0     C28352   9.063   9.279   8.096  0.5353  0.4169 -1.1817
  931MOL0     C28353   9.187   9.203   8.141  0.0702  0.1805  0.2334
  931MOL0     C28354   9.161   9.054   8.124  0.6481 -0.2398 -0.3519
  931MOL0     C28355   9.263   8.972   8.194  0.8449  0.1013  0.3203
  931MOL0     C28356   9.396   8.967   8.123  0.5532 -0.5356 -0.2118
  931MOL0     N28357   9.496   8.879   8.192  0.9420  0.2930  0.3910
  931MOL0     C28358   9.544   8.767   8.141 -0.6881 -0.0855 -0.2483
  931MOL0     C28359   9.642   8.735   8.224 -0.0445  0.0756 -0.5423
  931MOL0     C28360   9.726   8.614   8.225  0.0962 -0.0934 -1.1486
  931MOL0     C28361   9.860   8.647   8.156  0.0557 -0.4723 -0.0332
  931MOL0     C28362   9.839   8.619   8.005  0.2592  0.2119 -1.2325
  931MOL0     C28363   9.948   8.660   7.919  0.3669 -0.2156 -0.3153
  931MOL0     O28364   9.955   8.592   7.793 -0.3617  0.6629 -0.3330
  931MOL0     C28365  10.033   8.649   7.697  0.5042  0.0486  0.8053
  931MOL0     C28366   9.984   8.636   7.567 -0.5498 -0.2704 -0.6049
  931MOL0     C28367  10.053   8.694   7.455  0.2732  0.7650 -0.0876
  931MOL0     C28368   9.981   8.676   7.321  0.0712 -0.8029 -0.2628
  931MOL0     C28369  10.185   8.754   7.478 -0.4979 -0.2462  0.2394
  931MOL0     C28370  10.276   8.801   7.367  0.3989  0.6143 -0.4534
  931MOL0     O28371  10.403   8.833   7.411  0.6559  0.9138  0.1798
  931MOL0     C28372  10.496   8.850   7.318  0.3758 -0.6166  1.2026
  931MOL0     C28373  10.545   8.982   7.281  0.7285  0.3115  0.9664
  931MOL0     C28374  10.626   8.991   7.172 -0.6133 -0.4407 -0.4377
  931MOL0     C28375  10.671   8.878   7.104  0.5943  0.3309  0.2932
  931MOL0     O28376  10.752   8.905   6.996  0.3465 -0.1183 -0.2264
  931MOL0     C28377  10.787   8.801   6.902  0.9230 -0.1183 -0.9154
  931MOL0     C28378  10.907   8.728   6.955 -0.9961  0.0139  0.1687
  931MOL0     C28379  11.032   8.813   6.934  1.2089  0.0963  0.6140
  931MOL0     C28380  11.144   8.797   7.041 -0.3874 -0.3726  0.6260
  931MOL0     C28381  11.258   8.891   7.012  0.3629 -0.0070 -0.2537
  931MOL0     C28382  11.376   8.863   7.103 -0.5522 -0.1270  0.0661
  931MOL0     C28383  11.485   8.963   7.134 -0.3348 -0.8957 -0.3227
  931MOL0     C28384  11.524   9.066   7.022 -0.0602  0.2271  0.3384
  931MOL0    Cl28385  11.539   8.995   6.861 -0.3481  0.6050 -0.1287
  931MOL0     C28386  10.626   8.751   7.145 -0.2766 -0.3952  0.0143
  931MOL0     C28387  10.543   8.736   7.254  0.2455 -0.2788  0.2168
  931MOL0     O28388  10.225   8.833   7.263  0.5298 -0.1462  0.5957
  931MOL0     C28389  10.232   8.764   7.609  0.4342 -0.5291  0.5444
  931MOL0     C28390  10.158   8.710   7.716 -0.2038  0.0498 -0.9233
  931MOL0     N28391   9.648   8.832   8.325 -0.0721  0.5401 -0.8245
  931MOL0     N28392   9.562   8.913   8.305 -0.2644 -0.1827  0.8906
  931MOL0     C28393   9.223   9.922   8.000  0.1242  0.8602  0.1157
  931MOL0     C28394   9.341   9.985   8.040 -0.4703 -0.9571 -0.1572
  931MOL0     C28395   9.702  10.055   8.333  0.1160 -0.8535 -0.4055
  931MOL0     C28396   9.797   9.997   8.247 -0.0227  0.3040  0.6509
  931MOL0     C28397   9.933  10.009   8.269 -0.3006  0.7709  0.1696
  931MOL0     C28398   9.973  10.109   8.358 -0.1297  0.0191  0.5058
  931MOL0     O28399  10.114  10.135   8.379 -0.1646  0.7105  0.4809
  931MOL0     C28400  10.208  10.101   8.270 -0.8466 -0.2164  0.1502
  931MOL0     C28401  10.252   9.958   8.307  0.0428 -0.0825  0.9656
  931MOL0     C28402  10.369   9.921   8.209 -0.5258  0.4982 -0.5331
  931MOL0     C28403  10.471   9.820   8.282  0.5048  0.1510  0.2553
  931MOL0     C28404  10.540   9.890   8.382 -0.9254 -0.8429 -0.3233
  931MOL0     C28405  10.604   9.943   8.476 -0.8453  0.3861  0.1299
  931MOL0     C28406   9.888  10.173   8.443 -0.1272  0.2994 -0.1295
  931MOL0     C28407   9.747  10.148   8.432  0.7854  0.3637  0.0463
  931MOL0     C28408   9.663  10.218   8.537 -1.2842 -0.1643  0.0871
  931MOL0     H28409   9.445   9.800   8.293 -1.1028  2.0179  1.8912
  931MOL0     H28410   9.240   9.641   8.208 -0.5429  0.3087 -0.4921
  931MOL0     H28411   8.881   9.708   8.088 -0.7147 -0.6828  0.9782
  931MOL0     H28412   9.008   9.676   8.206 -1.5128  0.9764  0.5587
  931MOL0     H28413   8.871   9.478   8.102  0.1958  0.6693 -0.1116
  931MOL0     H28414   8.976   9.495   7.954  1.4381  0.7520 -0.5624
  931MOL0     H28415   9.177   9.464   8.104 -0.0613 -0.6779 -2.4711
  931MOL0     H28416   9.067   9.440   8.246  1.8403 -2.4666  0.6435
  931MOL0     H28417   8.968   9.241   8.135  1.4407 -0.5022  0.2059
  931MOL0     H28418   9.063   9.268   7.987  2.9436 -0.7635 -1.1157
  931MOL0     H28419   9.196   9.215   8.250 -2.6883 -3.3537  1.0372
  931MOL0     H28420   9.283   9.232   8.097  0.7872  1.0695  2.2164
  931MOL0     H28421   9.067   9.026   8.174  1.2479 -1.6536  0.0230
  931MOL0     H28422   9.152   9.029   8.018 -1.7269 -3.2330  0.3947
  931MOL0     H28423   9.227   8.871   8.213 -3.3658  0.8210 -2.4978
  931MOL0     H28424   9.288   9.034   8.281  1.5096 -0.3129  0.4314
  931MOL0     H28425   9.392   8.943   8.016 -1.2387  0.6395 -0.4512
  931MOL0     H28426   9.440   9.066   8.129  3.3646 -1.7625  2.7005
  931MOL0     H28427   9.518   8.719   8.047  1.1834 -0.3602 -0.6634
  931MOL0     H28428   9.685   8.519   8.189  3.8167 -1.7904 -1.4537
  931MOL0     H28429   9.738   8.599   8.333 -2.7044  0.6613 -0.6689
  931MOL0     H28430   9.888   8.752   8.157  0.0482 -0.4675 -0.2517
  931MOL0     H28431   9.944   8.581   8.182  0.7634 -0.0880 -1.2428
  931MOL0     H28432   9.832   8.512   7.986 -0.2888  0.1611 -0.7627
  931MOL0     H28433   9.749   8.672   7.972  0.8324  2.8045  0.9730
  931MOL0     H28434   9.947   8.767   7.898 -0.3813 -0.4712 -1.6208
  931MOL0     H28435  10.038   8.632   7.974 -1.2661 -2.7503  1.2515
  931MOL0     H28436   9.888   8.588   7.558  0.0535 -1.9446  1.1326
  931MOL0     H28437   9.896   8.745   7.323 -0.0112 -0.9085  2.0289
  931MOL0     H28438   9.930   8.580   7.330 -0.8993 -0.2701  0.0331
  931MOL0     H28439  10.043   8.678   7.230  0.8076 -1.5726  0.2033
  931MOL0     H28440  10.527   9.072   7.339  2.3648 -0.3977  2.6959
  931MOL0     H28441  10.679   9.080   7.140  1.8310 -0.8241  2.1125
  931MOL0     H28442  10.696   8.741   6.892 -1.6236  3.0183  1.1058
  931MOL0     H28443  10.803   8.841   6.802  0.9682 -0.2595 -0.9653
  931MOL0     H28444  10.903   8.712   7.064  3.8096  3.2103  1.1072
  931MOL0     H28445  10.922   8.636   6.897  0.1311 -0.5056  1.2124
  931MOL0     H28446  10.995   8.916   6.923  0.8721 -0.1060 -0.2154
  931MOL0     H28447  11.067   8.785   6.834 -0.4182 -0.2108  0.1012
  931MOL0     H28448  11.187   8.697   7.048  1.6200  0.0237 -3.0530
  931MOL0     H28449  11.100   8.808   7.140  0.3383 -1.2348  1.0639
  931MOL0     H28450  11.287   8.869   6.909  0.5835 -0.4724 -0.0959
  931MOL0     H28451  11.217   8.992   7.013 -1.9228 -0.8751  0.6977
  931MOL0     H28452  11.433   8.783   7.055 -2.3667 -0.3584 -1.8234
  931MOL0     H28453  11.349   8.825   7.202  2.3562 -3.2579 -0.1598
  931MOL0     H28454  11.576   8.915   7.172 -0.5817  0.3342  2.0259
  931MOL0     H28455  11.453   9.024   7.219 -0.6154 -0.5654 -0.6611
  931MOL0     H28456  11.615   9.120   7.051  0.8783 -0.6712 -0.8233
  931MOL0     H28457  11.447   9.143   7.011 -0.5314 -0.3210 -0.3357
  931MOL0     H28458  10.669   8.670   7.087  0.6515  0.1376 -0.0705
  931MOL0     H28459  10.501   8.641   7.284 -2.0251  1.0749  1.6095
  931MOL0     H28460  10.328   8.807   7.637  0.8759 -1.2509  0.1655
  931MOL0     H28461  10.200   8.714   7.815 -1.6348  1.9969 -0.3396
  931MOL0     H28462   9.155   9.951   7.920 -3.5225 -1.5422  2.0468
  931MOL0     H28463   9.372  10.070   7.980 -2.2292 -1.1225 -1.3590
  931MOL0     H28464   9.761   9.926   8.173  1.7141  0.3112 -0.2472
  931MOL0     H28465   9.993   9.951   8.200 -1.2359  1.0729 -0.9181
  931MOL0     H28466  10.172  10.091   8.167  1.0806  0.3298 -0.6272
  931MOL0     H28467  10.291  10.173   8.260  0.8721 -2.0098  0.8015
  931MOL0     H28468  10.171   9.885   8.314 -1.5545  1.3611 -1.0083
  931MOL0     H28469  10.294   9.969   8.408 -1.5511  1.2537  1.5300
  931MOL0     H28470  10.327   9.880   8.117  2.3404 -2.3188 -0.7816
  931MOL0     H28471  10.427  10.010   8.183 -0.5729 -0.2155 -3.4827
  931MOL0     H28472  10.544   9.774   8.215  0.9698  1.4203 -0.1382
  931MOL0     H28473  10.414   9.738   8.327  1.9995 -0.6849  0.7114
  931MOL0     H28474  10.655   9.990   8.557 -2.1679  1.0615  0.5987
  931MOL0     H28475   9.938  10.239   8.513  2.6608 -0.4160 -1.2911
  931MOL0     H28476   9.593  10.141   8.572  1.8619 -3.1508  0.3729
  931MOL0     H28477   9.716  10.275   8.615  2.5359 -2.4919 -0.5263
  931MOL0     H28478   9.606  10.293   8.482 -0.7328  1.0544  1.1289
  932MOL0     O28479   3.935   0.149  10.928  0.6097 -0.1943  0.5860
  932MOL0     C28480   3.910   0.199  11.041 -0.7923 -0.7743 -0.4203
  932MOL0     O28481   3.996   0.280  11.110 -0.3639 -0.2869  0.4117
  932MOL0     C28482   4.106   0.329  11.048  0.6306  0.0472 -0.0033
  932MOL0     C28483   4.231   0.300  11.098 -0.8146 -0.2495 -0.1404
  932MOL0     C28484   4.349   0.332  11.019  0.6592  0.2187 -0.2426
  932MOL0     C28485   4.336   0.410  10.901  1.2185 -0.5144  0.2867
  932MOL0     O28486   4.459   0.435  10.838  0.8925  0.7564 -0.4827
  932MOL0     C28487   4.489   0.552  10.754 -0.7464 -0.0235 -0.7941
  932MOL0     C28488   4.542   0.506  10.621 -0.2505 -0.1901  0.2252
  932MOL0     C28489   4.570   0.619  10.527  0.3982 -0.5812 -0.0089
  932MOL0     C28490   4.649   0.572  10.411  0.2637  0.5029  0.0574
  932MOL0     C28491   4.638   0.679  10.308  0.8694  0.2253  0.0481
  932MOL0     C28492   4.672   0.625  10.169 -0.1113 -0.0608  0.5790
  932MOL0     C28493   4.815   0.564  10.159  0.1663  0.2184  0.2845
  932MOL0     C28494   4.826   0.496  10.018  0.6416 -0.5856 -0.1166
  932MOL0     N28495   4.966   0.462   9.981 -0.0821  0.0543  0.0116
  932MOL0     C28496   5.047   0.558   9.931  0.2563  0.1457  0.2115
  932MOL0     C28497   5.169   0.500   9.906 -0.7460 -0.4673 -0.4067
  932MOL0     C28498   5.291   0.577   9.856  0.4569 -0.1691 -0.1201
  932MOL0     C28499   5.266   0.644   9.720 -0.6196  0.4012 -1.0244
  932MOL0     C28500   5.399   0.691   9.666 -0.2484 -0.5278 -0.1989
  932MOL0     C28501   5.430   0.677   9.512  0.9518  0.4666 -0.1664
  932MOL0     O28502   5.425   0.541   9.481  0.6140 -0.2774  0.7676
  932MOL0     C28503   5.502   0.505   9.371 -0.1063  0.1727  0.2931
  932MOL0     C28504   5.528   0.583   9.254  0.1032  0.5516  0.5147
  932MOL0     C28505   5.584   0.531   9.141 -0.4422 -0.1086 -0.3957
  932MOL0     C28506   5.607   0.618   9.020  0.0987  0.0707 -0.2988
  932MOL0     C28507   5.639   0.396   9.142 -0.2798 -0.4320  0.6187
  932MOL0     C28508   5.715   0.339   9.033  0.5862 -0.6376  1.1749
  932MOL0     O28509   5.808   0.408   8.961  0.3336 -0.5761  0.1347
  932MOL0     C28510   5.845   0.364   8.834  0.4633 -0.5343 -0.1301
  932MOL0     C28511   5.932   0.261   8.831  0.5319  0.0113 -0.6098
  932MOL0     C28512   5.981   0.224   8.705  0.6069 -0.3431 -0.0523
  932MOL0     C28513   5.942   0.295   8.586  0.5381 -0.3405 -0.3151
  932MOL0     O28514   6.001   0.281   8.463  0.5641  0.5221 -0.4954
  932MOL0     C28515   6.019   0.149   8.419  0.7362 -0.5960 -0.0254
  932MOL0     C28516   6.068   0.147   8.272 -0.4500 -0.2030  0.2182
  932MOL0     C28517   5.953   0.179   8.183 -0.2476 -0.2572 -0.1875
  932MOL0     C28518   6.000   0.144   8.040  0.2401 -0.3428  0.1117
  932MOL0     C28519   5.899   0.199   7.938  0.4072  0.2438  0.4852
  932MOL0     C28520   5.959   0.172   7.798  0.0559 -0.0688 -0.8522
  932MOL0     C28521   5.879   0.233   7.680 -0.0510 -0.1226 -0.1703
  932MOL0     C28522   5.905   0.380   7.661 -0.0480  0.2350  0.2242
  932MOL0    Cl28523   6.059   0.403   7.566  0.2415  0.3695  0.2612
  932MOL0     C28524   5.849   0.391   8.602 -0.1115 -0.0729  0.2487
  932MOL0     C28525   5.791   0.424   8.718  0.8292 -0.8065  0.8438
  932MOL0     O28526   5.682   0.224   9.004  0.4653 -0.2637  0.1748
  932MOL0     C28527   5.608   0.315   9.248  0.1017  0.3350  0.2628
  932MOL0     C28528   5.540   0.370   9.359 -0.6830 -0.6178 -0.5607
  932MOL0     N28529   5.158   0.372   9.953 -0.4068 -0.0056  0.1119
  932MOL0     N28530   5.036   0.350   9.998  0.2041 -0.5566 -0.1363
  932MOL0     C28531   4.210   0.454  10.865 -0.4687  0.3502  0.6092
  932MOL0     C28532   4.099   0.409  10.934 -0.1391 -0.9780  0.1490
  932MOL0     C28533   3.775   0.180  11.080  0.6272  0.0507 -0.6787
  932MOL0     C28534   3.707   0.051  11.072 -0.8677  0.2802 -0.1469
  932MOL0     C28535   3.573   0.029  11.119 -0.4383  0.2052  0.2440
  932MOL0     C28536   3.504   0.139  11.166  0.1264 -0.1752 -0.4046
  932MOL0     O28537   3.367   0.132  11.193  0.3423  0.0092 -0.2662
  932MOL0     C28538   3.308   0.004  11.214  0.2097 -0.2414 -0.1271
  932MOL0     C28539   3.185   0.027  11.305  0.5269  0.1735 -0.5074
  932MOL0     C28540   3.145  -0.099  11.383 -0.8298  0.3872  0.2445
  932MOL0     C28541   3.032  -0.084  11.488 -0.8167  0.4265  0.1189
  932MOL0     C28542   3.097  -0.027  11.601  0.4863  0.1811  0.3720
  932MOL0     C28543   3.152   0.030  11.688 -0.2506 -0.6680 -0.4615
  932MOL0     C28544   3.568   0.261  11.189 -0.1176 -0.1231 -0.0651
  932MOL0     C28545   3.703   0.282  11.146 -0.4827 -0.1949 -0.0871
  932MOL0     C28546   3.756   0.424  11.161 -0.0954 -0.3803 -0.3543
  932MOL0     H28547   4.224   0.230  11.180  0.2094 -0.8443 -0.5448
  932MOL0     H28548   4.447   0.290  11.040  0.4538 -1.1388 -1.7629
  932MOL0     H28549   4.566   0.610  10.805 -2.6950  1.6893  0.3463
  932MOL0     H28550   4.412   0.629  10.746 -0.9677 -0.1315  0.0944
  932MOL0     H28551   4.632   0.443  10.626 -0.7540 -1.0529 -1.1180
  932MOL0     H28552   4.462   0.452  10.570 -0.6300 -2.0925  2.6273
  932MOL0     H28553   4.471   0.640  10.485  1.1786 -1.1687 -2.2786
  932MOL0     H28554   4.614   0.705  10.578 -1.7027 -0.1982  1.2547
  932MOL0     H28555   4.752   0.557  10.445  0.2648 -1.0201 -0.5303
  932MOL0     H28556   4.600   0.482  10.373  0.8185  0.5891 -0.8807
  932MOL0     H28557   4.706   0.761  10.329  0.6611  1.5529 -3.6104
  932MOL0     H28558   4.533   0.709  10.298  0.7779 -0.1264 -0.0574
  932MOL0     H28559   4.592   0.553  10.151  0.4733 -0.7835  0.8159
  932MOL0     H28560   4.657   0.703  10.094  2.6346 -0.0585 -0.0872
  932MOL0     H28561   4.835   0.490  10.237 -2.4515 -1.5298 -0.5784
  932MOL0     H28562   4.882   0.650  10.166 -0.6707  0.8557  0.5607
  932MOL0     H28563   4.758   0.411  10.025 -1.5362  0.2277 -5.7869
  932MOL0     H28564   4.786   0.561   9.939 -1.5493 -1.7984 -0.0943
  932MOL0     H28565   5.017   0.660   9.910 -3.1400 -0.8870 -0.6732
  932MOL0     H28566   5.371   0.504   9.837 -1.1641 -1.5150 -2.2850
  932MOL0     H28567   5.321   0.659   9.922  3.2383 -0.3744 -0.9810
  932MOL0     H28568   5.231   0.567   9.651  0.8806 -1.8152  0.5793
  932MOL0     H28569   5.197   0.728   9.738 -0.7200 -0.1258  1.4229
  932MOL0     H28570   5.412   0.796   9.694 -1.6484  0.1993 -2.0988
  932MOL0     H28571   5.482   0.633   9.707 -2.3950 -1.3554  3.4425
  932MOL0     H28572   5.351   0.719   9.449  0.1140 -1.9209 -0.8344
  932MOL0     H28573   5.527   0.722   9.491  0.5556  2.1566  1.3039
  932MOL0     H28574   5.508   0.689   9.256 -2.1352  0.2155  2.9185
  932MOL0     H28575   5.541   0.704   9.031 -1.3959 -0.7605 -2.1388
  932MOL0     H28576   5.596   0.559   8.928  0.4060 -3.9598  2.0303
  932MOL0     H28577   5.708   0.660   9.018 -1.0095  3.0663  1.3762
  932MOL0     H28578   5.972   0.205   8.915  1.4378  0.6405 -0.6092
  932MOL0     H28579   6.036   0.133   8.683 -3.2409 -2.8219 -0.3522
  932MOL0     H28580   6.099   0.114   8.484  0.0808  1.5066  2.0705
  932MOL0     H28581   5.921   0.100   8.426 -0.3758  1.7181  2.5130
  932MOL0     H28582   6.146   0.223   8.261  0.5864 -1.1644  0.6860
  932MOL0     H28583   6.110   0.049   8.248 -1.5954 -1.4525  2.8601
  932MOL0     H28584   5.922   0.283   8.196 -0.8269 -0.7249  3.5406
  932MOL0     H28585   5.873   0.112   8.217  1.6426 -2.2449  0.6088
  932MOL0     H28586   6.011   0.038   8.017  0.9940 -0.4675  0.9926
  932MOL0     H28587   6.100   0.186   8.028  1.2133 -1.9415  1.9992
  932MOL0     H28588   5.800   0.153   7.946 -0.3222  1.9567  2.1888
  932MOL0     H28589   5.904   0.307   7.953  2.1461  0.2675 -0.1280
  932MOL0     H28590   5.977   0.065   7.807  0.8697  0.2242  5.3428
  932MOL0     H28591   6.064   0.205   7.798 -0.2663  1.0223 -0.4859
  932MOL0     H28592   5.775   0.228   7.710  0.2535 -0.2893  0.8894
  932MOL0     H28593   5.899   0.169   7.593  0.5230  1.2028 -1.0616
  932MOL0     H28594   5.887   0.438   7.752  0.0501 -0.1523  0.4937
  932MOL0     H28595   5.826   0.416   7.595  0.1892 -0.3153 -0.3795
  932MOL0     H28596   5.807   0.442   8.516 -2.0342 -1.2705  0.4002
  932MOL0     H28597   5.717   0.502   8.725  0.2484 -1.2698  0.0391
  932MOL0     H28598   5.636   0.211   9.258  0.5230  0.2012 -1.7985
  932MOL0     H28599   5.514   0.311   9.447 -0.5606  2.3765  1.6364
  932MOL0     H28600   4.209   0.523  10.781 -0.5761  1.0575  1.1769
  932MOL0     H28601   4.008   0.452  10.893  0.5375  2.2626  1.7313
  932MOL0     H28602   3.772  -0.021  11.022 -1.6220  0.4702 -1.4560
  932MOL0     H28603   3.524  -0.068  11.114  0.0373 -0.0579  0.5831
  932MOL0     H28604   3.288  -0.045  11.118  1.2562  1.5867 -1.3305
  932MOL0     H28605   3.379  -0.059  11.268 -0.0003 -0.0382  0.3928
  932MOL0     H28606   3.100   0.037  11.238  0.8571  1.6659 -0.7400
  932MOL0     H28607   3.197   0.113  11.372 -0.1999 -2.0930  2.8156
  932MOL0     H28608   3.106  -0.176  11.317 -1.9758 -1.0256  2.4275
  932MOL0     H28609   3.226  -0.144  11.441  0.7279 -0.2623 -2.2853
  932MOL0     H28610   2.993  -0.183  11.512 -1.0890  0.0036 -1.8727
  932MOL0     H28611   2.949  -0.021  11.455 -0.6951  0.4735 -0.1004
  932MOL0     H28612   3.207   0.075  11.769  0.6116 -0.7237 -1.0097
  932MOL0     H28613   3.493   0.329  11.229 -0.4398  1.6734 -3.3921
  932MOL0     H28614   3.685   0.501  11.192  2.2277  1.6694  0.2212
  932MOL0     H28615   3.837   0.425  11.235  0.8031 -1.6898 -1.2786
  932MOL0     H28616   3.777   0.460  11.060 -6.0571  0.7370 -1.5960
  933MOL0     O28617   2.347   7.141   3.327  1.2309 -0.0069  0.0810
  933MOL0     C28618   2.326   7.069   3.424  0.4536  0.6214  0.5008
  933MOL0     O28619   2.226   7.081   3.514 -0.6890 -0.0933  0.1335
  933MOL0     C28620   2.194   7.220   3.541 -0.3297  0.2325 -0.1253
  933MOL0     C28621   2.274   7.333   3.577 -0.0104  0.4465  0.6679
  933MOL0     C28622   2.232   7.465   3.582  0.2243  0.1059 -0.0286
  933MOL0     C28623   2.102   7.493   3.546  0.5965 -0.4228  0.0170
  933MOL0     O28624   2.041   7.613   3.565  0.2312 -0.9805  0.4027
  933MOL0     C28625   2.112   7.711   3.641 -0.2574  0.5711  0.2053
  933MOL0     C28626   2.023   7.822   3.696  0.6325 -1.0607  0.3953
  933MOL0     C28627   1.929   7.782   3.809 -0.9438  1.2483  0.3678
  933MOL0     C28628   1.868   7.911   3.862 -0.1494 -0.2391  0.6274
  933MOL0     C28629   1.852   7.905   4.011 -0.6833  0.5266  1.3666
  933MOL0     C28630   1.821   8.033   4.078 -0.5756  0.4826 -0.3236
  933MOL0     C28631   1.805   8.003   4.233  0.0795  0.8662  0.9277
  933MOL0     C28632   1.911   7.918   4.312 -0.1955 -0.0803  0.2875
  933MOL0     N28633   2.049   7.967   4.317 -0.2945 -0.9887 -0.1766
  933MOL0     C28634   2.101   8.096   4.306 -0.4091 -0.6929  1.0435
  933MOL0     C28635   2.237   8.096   4.309  0.6801 -0.1917 -0.3587
  933MOL0     C28636   2.320   8.216   4.262  0.3641  0.1953  0.1529
  933MOL0     C28637   2.376   8.300   4.380  0.0164  0.1642  1.2296
  933MOL0     C28638   2.277   8.325   4.500  0.5661  0.1540  0.4485
  933MOL0     C28639   2.177   8.438   4.474 -0.1912 -0.9110  0.0934
  933MOL0     O28640   2.074   8.395   4.386 -0.6248 -0.6256 -0.5513
  933MOL0     C28641   1.967   8.477   4.379 -0.9333 -0.0317  0.4131
  933MOL0     C28642   1.855   8.431   4.315 -1.1949  0.1290  0.2763
  933MOL0     C28643   1.739   8.510   4.305  0.5329 -0.3235 -0.4573
  933MOL0     C28644   1.626   8.441   4.235 -0.5255 -1.2515 -0.8599
  933MOL0     C28645   1.730   8.639   4.373  0.9730 -0.3752 -0.3169
  933MOL0     C28646   1.601   8.725   4.379 -0.4863  0.2808 -0.5216
  933MOL0     O28647   1.483   8.665   4.352 -0.1333 -0.0527 -0.1671
  933MOL0     C28648   1.355   8.704   4.390 -0.5261  0.0051  0.0490
  933MOL0     C28649   1.251   8.619   4.350 -0.5188 -0.9666  1.0818
  933MOL0     C28650   1.121   8.647   4.392  0.5239 -0.1058 -0.4813
  933MOL0     C28651   1.091   8.770   4.454  1.0575  0.5452  0.6262
  933MOL0     O28652   0.959   8.807   4.471 -0.6376  0.5285  0.3180
  933MOL0     C28653   0.854   8.710   4.522  0.1648  0.2927 -0.5631
  933MOL0     C28654   0.732   8.787   4.587  0.6965 -0.2827 -0.7222
  933MOL0     C28655   0.645   8.881   4.503  0.3247  0.5865 -0.2871
  933MOL0     C28656   0.731   8.998   4.443  0.2545  0.4195 -0.0316
  933MOL0     C28657   0.647   9.112   4.386 -0.1820 -0.2948  0.1434
  933MOL0     C28658   0.740   9.204   4.286  0.4178  0.1905  0.0226
  933MOL0     C28659   0.699   9.355   4.286  0.2921 -0.1853 -0.3069
  933MOL0     C28660   0.784   9.445   4.200 -0.6768 -0.6108  0.0613
  933MOL0    Cl28661   0.968   9.432   4.230 -0.1896  0.0319  0.1813
  933MOL0     C28662   1.193   8.850   4.501 -0.2077  0.1836  0.4985
  933MOL0     C28663   1.322   8.828   4.466 -0.9458  0.5550 -0.5156
  933MOL0     O28664   1.611   8.841   4.419  0.0174 -0.2422 -0.0550
  933MOL0     C28665   1.842   8.684   4.443  0.1368  0.3561  1.0330
  933MOL0     C28666   1.960   8.611   4.445 -0.2396  1.2242 -0.0601
  933MOL0     N28667   2.270   7.969   4.345 -0.6910 -0.3989  0.3279
  933MOL0     N28668   2.160   7.891   4.340  1.2793 -0.7636 -0.1147
  933MOL0     C28669   2.016   7.383   3.508 -0.3634  0.6082  0.0272
  933MOL0     C28670   2.064   7.249   3.499  0.2509  0.3595 -0.6413
  933MOL0     C28671   2.427   6.958   3.451 -0.4820 -0.6674  0.3028
  933MOL0     C28672   2.453   6.932   3.587 -0.8451  0.6088  0.2248
  933MOL0     C28673   2.537   6.833   3.620 -0.8754 -0.7352  0.8964
  933MOL0     C28674   2.620   6.768   3.520  0.4623  1.1440  0.7559
  933MOL0     O28675   2.710   6.672   3.559 -0.6177 -0.1999  0.8687
  933MOL0     C28676   2.809   6.614   3.471  0.4700  0.0008 -0.8424
  933MOL0     C28677   2.919   6.722   3.448 -0.7651  0.2672 -0.7557
  933MOL0     C28678   2.989   6.739   3.578 -0.7881 -0.6418 -0.6761
  933MOL0     C28679   3.098   6.847   3.534 -1.1690 -0.8052  0.2355
  933MOL0     C28680   3.173   6.878   3.660  0.5576  0.0994  0.8118
  933MOL0     C28681   3.243   6.889   3.762 -0.2338 -0.1002 -0.0222
  933MOL0     C28682   2.586   6.789   3.383 -0.2619  0.8672 -0.0537
  933MOL0     C28683   2.493   6.879   3.354  0.1724 -0.1787 -0.3753
  933MOL0     C28684   2.466   6.896   3.202 -0.1583  0.3853 -0.0430
  933MOL0     H28685   2.379   7.307   3.591 -0.2877 -2.4147 -1.4747
  933MOL0     H28686   2.303   7.529   3.634  2.8474 -2.3248 -0.3872
  933MOL0     H28687   2.192   7.755   3.581 -0.3017 -0.9605 -1.0417
  933MOL0     H28688   2.153   7.652   3.724 -3.2161 -1.5252  0.3007
  933MOL0     H28689   2.091   7.900   3.732 -1.5252 -0.4080  3.4493
  933MOL0     H28690   1.964   7.869   3.617  1.2396  2.1568  1.6761
  933MOL0     H28691   1.846   7.715   3.785 -1.8815  1.6652  2.2595
  933MOL0     H28692   1.996   7.741   3.886 -0.2820 -2.4070 -1.9265
  933MOL0     H28693   1.930   7.999   3.844  0.2956 -0.5661  0.5476
  933MOL0     H28694   1.768   7.930   3.820 -0.8526 -4.5797 -0.2316
  933MOL0     H28695   1.936   7.855   4.060 -1.1566 -0.0168  1.6369
  933MOL0     H28696   1.773   7.830   4.022  1.1795 -1.9830 -1.1315
  933MOL0     H28697   1.898   8.110   4.066 -0.6575  0.4194 -1.3582
  933MOL0     H28698   1.726   8.067   4.035 -0.3364  2.0905  0.3422
  933MOL0     H28699   1.715   7.942   4.229 -1.6637  3.3251  0.0204
  933MOL0     H28700   1.793   8.102   4.278 -1.6406  2.5390 -2.7661
  933MOL0     H28701   1.887   7.907   4.418  1.3552 -0.5267  0.6204
  933MOL0     H28702   1.912   7.819   4.264 -0.7913  1.2132 -2.6238
  933MOL0     H28703   2.059   8.192   4.277  2.0948  0.3229  0.5250
  933MOL0     H28704   2.253   8.276   4.201  0.5310 -2.1567 -2.5516
  933MOL0     H28705   2.406   8.185   4.202 -0.7858 -1.9763 -0.4824
  933MOL0     H28706   2.460   8.244   4.423  0.2888 -0.7477 -0.4078
  933MOL0     H28707   2.417   8.394   4.343  0.4933 -0.5601 -0.1759
  933MOL0     H28708   2.222   8.233   4.521  0.8428 -0.2231 -0.4212
  933MOL0     H28709   2.345   8.349   4.583  2.3655 -3.6856  0.2774
  933MOL0     H28710   2.153   8.480   4.572  1.5181 -0.5578  0.3882
  933MOL0     H28711   2.227   8.514   4.413 -3.5903  0.9333 -0.6956
  933MOL0     H28712   1.864   8.333   4.270 -0.0041  0.8442 -1.1271
  933MOL0     H28713   1.575   8.514   4.172  1.6708  1.2830  0.0860
  933MOL0     H28714   1.562   8.389   4.306  0.9176 -2.0051 -0.0594
  933MOL0     H28715   1.677   8.379   4.161  1.7531  1.5974 -1.9163
  933MOL0     H28716   1.279   8.549   4.272 -0.3605  0.6159 -0.3440
  933MOL0     H28717   1.044   8.582   4.350 -1.8196  2.4504 -0.4050
  933MOL0     H28718   0.810   8.653   4.439 -1.7438 -1.1826  1.3367
  933MOL0     H28719   0.891   8.644   4.601  0.0684 -0.8608 -1.4541
  933MOL0     H28720   0.671   8.699   4.612  1.2004 -0.6104 -0.6301
  933MOL0     H28721   0.772   8.836   4.677  2.1192 -3.3259  0.4461
  933MOL0     H28722   0.573   8.920   4.576 -0.5459 -0.6118 -0.4725
  933MOL0     H28723   0.593   8.832   4.420 -1.0669 -0.1815  0.9920
  933MOL0     H28724   0.797   8.963   4.363  0.8144  1.9461 -0.2691
  933MOL0     H28725   0.792   9.044   4.521  0.1904 -0.1043  0.3294
  933MOL0     H28726   0.574   9.065   4.319 -0.3448  0.3602 -0.1523
  933MOL0     H28727   0.599   9.176   4.461  3.7955  2.6850  0.4968
  933MOL0     H28728   0.741   9.161   4.186  3.3677  0.4525 -0.1537
  933MOL0     H28729   0.843   9.186   4.318  1.1041  0.5306 -1.8451
  933MOL0     H28730   0.695   9.386   4.391 -2.4294 -2.0101  0.2549
  933MOL0     H28731   0.593   9.367   4.261  0.5456  1.9544 -0.4863
  933MOL0     H28732   0.747   9.545   4.224  1.7907  0.0871  1.3315
  933MOL0     H28733   0.766   9.418   4.095  2.9000 -0.8570 -0.6146
  933MOL0     H28734   1.176   8.940   4.559  0.5596 -1.1134  2.8624
  933MOL0     H28735   1.389   8.911   4.488 -3.2401  2.4070 -0.1700
  933MOL0     H28736   1.832   8.777   4.497  0.6705  0.0697  1.6437
  933MOL0     H28737   2.052   8.651   4.485 -0.6446  2.4020 -0.2524
  933MOL0     H28738   1.922   7.403   3.457 -0.7741 -0.9163  0.1333
  933MOL0     H28739   1.997   7.173   3.461 -1.2337  1.5706 -0.5646
  933MOL0     H28740   2.386   6.958   3.668  0.6354 -1.3634  2.1917
  933MOL0     H28741   2.537   6.807   3.725 -3.0154 -1.4909  0.7680
  933MOL0     H28742   2.852   6.533   3.531 -1.5957  1.9149  3.7185
  933MOL0     H28743   2.763   6.586   3.376 -1.8377  2.9028 -0.7160
  933MOL0     H28744   2.867   6.812   3.412 -2.1260  0.1866  0.8745
  933MOL0     H28745   2.986   6.681   3.372  0.5955 -1.6136  1.3321
  933MOL0     H28746   2.922   6.792   3.646 -0.4368 -1.1159  0.0546
  933MOL0     H28747   3.019   6.642   3.619 -1.2268 -0.3897  0.2779
  933MOL0     H28748   3.052   6.943   3.506 -0.5245 -0.2176  1.1518
  933MOL0     H28749   3.166   6.802   3.462  1.4125  4.1107 -0.8342
  933MOL0     H28750   3.310   6.918   3.840 -1.4983 -3.0251  2.3544
  933MOL0     H28751   2.635   6.732   3.305  1.0229  2.2023 -0.2545
  933MOL0     H28752   2.368   6.941   3.184 -0.2565  0.6068  0.9860
  933MOL0     H28753   2.543   6.955   3.150  0.6237 -0.7630 -0.2350
  933MOL0     H28754   2.456   6.793   3.166 -0.7328  0.0157  1.1643
  934MOL0     O28755   4.766   4.346   1.107  0.8982 -0.5283 -0.8455
  934MOL0     C28756   4.814   4.285   1.010 -0.3822  0.2694 -0.6899
  934MOL0     O28757   4.954   4.269   0.999 -0.4829  0.2894 -0.3282
  934MOL0     C28758   5.052   4.352   1.058  0.0300 -0.1001  0.3809
  934MOL0     C28759   5.047   4.494   1.039  0.5227  0.0750 -0.1264
  934MOL0     C28760   5.161   4.569   1.078  0.0540  0.0973 -0.5158
  934MOL0     C28761   5.271   4.503   1.129  0.4319 -0.2473  0.5180
  934MOL0     O28762   5.376   4.568   1.180 -0.5879  0.2827  0.3565
  934MOL0     C28763   5.347   4.686   1.252 -0.2065  0.0744  0.8179
  934MOL0     C28764   5.486   4.750   1.266  0.2498 -0.1088 -0.9731
  934MOL0     C28765   5.536   4.819   1.137 -0.1026  0.0541 -0.0611
  934MOL0     C28766   5.451   4.935   1.087  0.6426 -0.1508 -0.3012
  934MOL0     C28767   5.555   5.005   0.994  0.1772  0.0308  0.4937
  934MOL0     C28768   5.499   5.136   0.914 -1.2221  0.4469 -0.0287
  934MOL0     C28769   5.617   5.174   0.819  0.8485  0.4618 -0.3699
  934MOL0     C28770   5.586   5.302   0.741  0.2700 -0.2615  0.9231
  934MOL0     N28771   5.706   5.329   0.660  0.4827  0.9803  0.1270
  934MOL0     C28772   5.723   5.310   0.528  0.6204 -0.0827  0.6823
  934MOL0     C28773   5.839   5.372   0.497 -0.9825  0.4943  0.5217
  934MOL0     C28774   5.892   5.395   0.359  0.6692 -0.3375  0.5062
  934MOL0     C28775   5.967   5.279   0.330 -0.2045  0.8881  0.3936
  934MOL0     C28776   6.051   5.307   0.194 -0.5477 -0.0216  0.2001
  934MOL0     C28777   6.132   5.175   0.185  0.0682 -0.1262  0.4659
  934MOL0     O28778   6.254   5.196   0.256 -0.5600  0.6757 -0.2050
  934MOL0     C28779   6.324   5.080   0.255 -0.3838 -0.1389 -0.8109
  934MOL0     C28780   6.428   5.051   0.170  0.0386  0.1273  0.5107
  934MOL0     C28781   6.501   4.930   0.187  0.9239  0.4163  0.5777
  934MOL0     C28782   6.611   4.900   0.087 -0.5788 -1.0473  0.7267
  934MOL0     C28783   6.461   4.833   0.285  0.1766 -0.3888  0.6638
  934MOL0     C28784   6.534   4.708   0.322  0.0703  0.2256  0.0023
  934MOL0     O28785   6.470   4.607   0.391  0.0105  0.7036 -0.1711
  934MOL0     C28786   6.536   4.499   0.433  0.6907  1.0170 -0.5672
  934MOL0     C28787   6.599   4.401   0.349  0.1146 -0.2241 -0.1127
  934MOL0     C28788   6.672   4.300   0.413 -1.0782  0.6927  0.6191
  934MOL0     C28789   6.696   4.298   0.549 -0.7097  0.2736 -0.3110
  934MOL0     O28790   6.772   4.195   0.599  0.1698  0.7096  0.2542
  934MOL0     C28791   6.776   4.162   0.745  0.0644 -1.0845  0.3404
  934MOL0     C28792   6.841   4.036   0.780  0.1757  0.9575  0.3608
  934MOL0     C28793   6.748   3.916   0.755  0.3183 -0.6707 -0.6178
  934MOL0     C28794   6.802   3.774   0.756 -0.6993  0.3184 -0.0057
  934MOL0     C28795   6.713   3.654   0.733  0.2402  0.3181  0.6483
  934MOL0     C28796   6.785   3.514   0.709 -0.1360 -0.0359  0.2320
  934MOL0     C28797   6.687   3.414   0.664 -0.0727  0.9393 -0.0696
  934MOL0     C28798   6.748   3.291   0.596  0.2880 -0.1317 -0.1475
  934MOL0    Cl28799   6.777   3.316   0.428  0.5255  0.1725 -0.0540
  934MOL0     C28800   6.647   4.402   0.627  0.2361 -0.0840 -0.4112
  934MOL0     C28801   6.557   4.497   0.572  0.3340 -0.6182 -0.7568
  934MOL0     O28802   6.650   4.695   0.287  0.5454  0.1630 -0.1825
  934MOL0     C28803   6.355   4.865   0.359 -0.4921 -1.3829 -0.4260
  934MOL0     C28804   6.289   4.983   0.345  0.1500 -0.3611 -0.1361
  934MOL0     N28805   5.894   5.432   0.614  0.4531  0.4697  0.0531
  934MOL0     N28806   5.810   5.400   0.711 -0.1471 -0.4797 -0.0084
  934MOL0     C28807   5.273   4.366   1.141 -0.0599 -0.4238  0.0576
  934MOL0     C28808   5.166   4.286   1.105 -0.1068 -0.6191  0.0804
  934MOL0     C28809   4.731   4.257   0.884  0.5450 -0.2154  0.0379
  934MOL0     C28810   4.792   4.230   0.758  0.5896 -0.1577 -0.1157
  934MOL0     C28811   4.720   4.193   0.647  0.2246  0.2602  0.0995
  934MOL0     C28812   4.579   4.192   0.648  0.2522 -0.1501  0.2027
  934MOL0     O28813   4.497   4.144   0.551  0.0927  0.5343 -0.0586
  934MOL0     C28814   4.553   4.067   0.443 -0.3217 -0.1340  0.3394
  934MOL0     C28815   4.447   4.011   0.358  0.6341 -0.2022 -0.4329
  934MOL0     C28816   4.504   3.919   0.250  0.2063  1.1747 -0.2301
  934MOL0     C28817   4.438   3.779   0.259 -1.1038  0.4676  0.8588
  934MOL0     C28818   4.462   3.699   0.132  0.2956  0.0935 -0.0637
  934MOL0     C28819   4.488   3.629   0.034  0.3519 -0.0039  0.9646
  934MOL0     C28820   4.514   4.217   0.767 -1.2026 -0.5414  0.0593
  934MOL0     C28821   4.590   4.242   0.881  0.4952  0.1105  0.0204
  934MOL0     C28822   4.505   4.260   1.005 -0.6132  0.1290  0.0576
  934MOL0     H28823   4.964   4.540   0.988  1.1232  1.6195  0.2396
  934MOL0     H28824   5.144   4.676   1.082  1.5722  0.3981 -1.3980
  934MOL0     H28825   5.310   4.663   1.353 -0.2522  0.1772  0.8243
  934MOL0     H28826   5.285   4.761   1.203  2.4771  0.8944 -1.6254
  934MOL0     H28827   5.493   4.821   1.349  0.9432 -0.9360 -0.3011
  934MOL0     H28828   5.564   4.676   1.288 -0.7069 -0.1837  2.9730
  934MOL0     H28829   5.634   4.854   1.169 -1.3192  0.9228  3.1948
  934MOL0     H28830   5.553   4.747   1.056  3.1723  0.0560  0.4959
  934MOL0     H28831   5.366   4.892   1.032  1.4791 -1.5603 -0.5316
  934MOL0     H28832   5.414   5.007   1.160  0.0883 -1.0129  0.3022
  934MOL0     H28833   5.595   4.932   0.923  1.9585  0.6340  0.8247
  934MOL0     H28834   5.642   5.030   1.056  0.6176 -2.5956  1.0297
  934MOL0     H28835   5.408   5.126   0.854 -0.0234 -2.0278 -1.6119
  934MOL0     H28836   5.499   5.216   0.988  0.9808  1.7591 -1.3445
  934MOL0     H28837   5.628   5.091   0.748 -0.7217  0.0415 -0.1401
  934MOL0     H28838   5.701   5.195   0.887  0.6889  1.3733 -0.4342
  934MOL0     H28839   5.494   5.298   0.683  1.3049 -0.9488 -0.7206
  934MOL0     H28840   5.563   5.384   0.810  1.6679 -0.9858  2.3330
  934MOL0     H28841   5.666   5.256   0.453 -1.2019 -0.5392  2.2986
  934MOL0     H28842   5.951   5.487   0.364  1.4415 -0.8750  1.6510
  934MOL0     H28843   5.825   5.421   0.276 -0.0999 -1.7197  0.6594
  934MOL0     H28844   6.029   5.256   0.417 -1.2731 -4.1770  0.0977
  934MOL0     H28845   5.902   5.192   0.319 -1.1812  1.4563  1.5205
  934MOL0     H28846   5.990   5.322   0.104 -0.6523  0.7741  0.3964
  934MOL0     H28847   6.125   5.386   0.210  0.5628 -0.4220 -2.3995
  934MOL0     H28848   6.075   5.086   0.213 -1.1778 -0.6451 -3.1521
  934MOL0     H28849   6.157   5.159   0.079  2.6765 -1.7875  1.2509
  934MOL0     H28850   6.461   5.112   0.087  0.1188 -1.6625 -0.8226
  934MOL0     H28851   6.626   4.978   0.011  1.9815 -0.8443  1.3360
  934MOL0     H28852   6.593   4.809   0.030  0.1506  0.2285 -1.6871
  934MOL0     H28853   6.707   4.891   0.140  0.7577  0.2801 -1.3180
  934MOL0     H28854   6.605   4.409   0.241  1.6469  0.3559 -0.0076
  934MOL0     H28855   6.724   4.233   0.346 -0.0941  1.0285  1.0291
  934MOL0     H28856   6.832   4.247   0.784  0.1978  0.3063 -2.6524
  934MOL0     H28857   6.671   4.163   0.777 -0.1953 -4.4827 -0.0447
  934MOL0     H28858   6.936   4.030   0.726 -1.3755 -1.1499 -2.4064
  934MOL0     H28859   6.856   4.033   0.888 -0.9540 -1.9992  0.5249
  934MOL0     H28860   6.709   3.937   0.655  2.4269  4.2773 -0.6486
  934MOL0     H28861   6.680   3.923   0.840  0.9894  3.1508 -0.2455
  934MOL0     H28862   6.859   3.762   0.849 -0.3511 -0.8804 -0.3514
  934MOL0     H28863   6.886   3.778   0.686  0.9283  0.0082  1.8249
  934MOL0     H28864   6.638   3.646   0.812 -2.7017  3.7265 -1.4848
  934MOL0     H28865   6.653   3.667   0.643  1.2808  0.9650  0.0351
  934MOL0     H28866   6.826   3.493   0.808  1.6622  0.3538 -0.3954
  934MOL0     H28867   6.866   3.521   0.637  1.3048  0.3087  1.8221
  934MOL0     H28868   6.619   3.463   0.594 -1.9739  1.2966  1.9352
  934MOL0     H28869   6.635   3.376   0.752 -1.1478  3.5488  0.5217
  934MOL0     H28870   6.677   3.208   0.600  0.6687 -0.6227 -2.3592
  934MOL0     H28871   6.847   3.266   0.637  1.3513 -0.1234 -2.5159
  934MOL0     H28872   6.671   4.398   0.733 -0.9834 -1.4971 -0.1529
  934MOL0     H28873   6.505   4.573   0.631 -2.1308 -1.0320 -2.2755
  934MOL0     H28874   6.325   4.797   0.438 -0.6601  1.0642  1.7481
  934MOL0     H28875   6.218   5.022   0.416  0.1130  0.3810 -0.5727
  934MOL0     H28876   5.357   4.322   1.194  0.2596 -1.2676 -1.0957
  934MOL0     H28877   5.173   4.178   1.119 -2.5958 -0.9035 -0.3858
  934MOL0     H28878   4.898   4.230   0.736  0.4799  0.8724 -0.7285
  934MOL0     H28879   4.758   4.168   0.548 -4.1655 -3.4137 -0.9994
  934MOL0     H28880   4.614   4.130   0.378 -2.5801 -0.8232 -2.6637
  934MOL0     H28881   4.608   3.980   0.479  1.2615  1.0935  1.0149
  934MOL0     H28882   4.380   4.089   0.321 -0.9669 -1.4274 -0.2072
  934MOL0     H28883   4.375   3.951   0.414  0.7999  0.2396  0.2563
  934MOL0     H28884   4.488   3.956   0.149 -1.3228  0.2993 -0.3418
  934MOL0     H28885   4.613   3.913   0.263 -0.0429 -0.0247  1.7051
  934MOL0     H28886   4.330   3.778   0.281 -2.0565 -2.4199 -2.8286
  934MOL0     H28887   4.482   3.731   0.347  2.3066  1.2912 -0.2688
  934MOL0     H28888   4.510   3.575  -0.055  3.5067 -0.3572  1.8487
  934MOL0     H28889   4.407   4.221   0.752 -0.9128 -0.5081 -2.4208
  934MOL0     H28890   4.521   4.359   1.048 -1.3890 -0.4588  1.8134
  934MOL0     H28891   4.399   4.237   0.992 -0.2083 -2.2335  0.3629
  934MOL0     H28892   4.542   4.185   1.076  1.0579  2.4750  1.7975
  935MOL0     O28893   0.404   3.030  10.538  0.2649  0.4227 -0.4673
  935MOL0     C28894   0.362   3.065  10.650 -0.3724 -0.1817  0.7022
  935MOL0     O28895   0.413   3.020  10.767 -0.1105 -0.0406 -0.3229
  935MOL0     C28896   0.518   2.930  10.756  0.0123 -0.7663  0.5024
  935MOL0     C28897   0.485   2.790  10.764  0.1884 -0.1917  0.1656
  935MOL0     C28898   0.589   2.693  10.774 -0.1141 -0.9794  0.5570
  935MOL0     C28899   0.728   2.738  10.776  0.0152  0.0725 -0.0887
  935MOL0     O28900   0.836   2.655  10.780 -0.2005 -0.4628  0.4088
  935MOL0     C28901   0.851   2.571  10.901 -0.3627 -0.9287 -0.1135
  935MOL0     C28902   0.768   2.436  10.901 -0.1916 -0.6057  0.0489
  935MOL0     C28903   0.801   2.353  10.776  0.1310 -0.0394  1.1507
  935MOL0     C28904   0.749   2.208  10.795 -0.0855 -0.6627 -0.2242
  935MOL0     C28905   0.673   2.149  10.687  0.4117 -0.9322 -0.0635
  935MOL0     C28906   0.659   2.001  10.708 -0.4946 -0.3628 -0.0870
  935MOL0     C28907   0.788   1.938  10.644 -0.3020  0.1897 -0.7500
  935MOL0     C28908   0.766   1.854  10.515  0.4018 -0.4971 -0.7807
  935MOL0     N28909   0.879   1.763  10.488  0.1471 -0.0293 -0.1468
  935MOL0     C28910   0.884   1.681  10.375  0.0295 -0.0928 -0.9041
  935MOL0     C28911   0.985   1.594  10.412 -0.9032 -0.2054  0.2159
  935MOL0     C28912   1.020   1.468  10.333 -0.6208 -0.5841  0.3016
  935MOL0     C28913   0.950   1.345  10.396 -0.0975 -0.0725 -0.2478
  935MOL0     C28914   0.927   1.241  10.286 -0.4084  0.4125  0.4999
  935MOL0     C28915   0.856   1.113  10.331 -0.6542  0.0505 -0.2617
  935MOL0     O28916   0.806   1.046  10.212 -0.0488  0.1071  0.1130
  935MOL0     C28917   0.704   0.955  10.206  0.0435 -0.2288  0.1268
  935MOL0     C28918   0.652   0.894  10.319 -0.3715  0.7648  0.0066
  935MOL0     C28919   0.564   0.788  10.309 -0.7622  0.2667  0.0572
  935MOL0     C28920   0.519   0.739  10.443 -1.1538  0.0921 -0.5386
  935MOL0     C28921   0.530   0.735  10.186 -0.5436 -0.0942 -0.6217
  935MOL0     C28922   0.428   0.632  10.174 -0.0273 -0.0497 -0.6059
  935MOL0     O28923   0.474   0.517  10.119  0.0175  0.1484  1.0275
  935MOL0     C28924   0.370   0.437  10.075 -1.1097 -1.2519 -0.3831
  935MOL0     C28925   0.302   0.355  10.156 -0.2790  0.1643 -1.1023
  935MOL0     C28926   0.197   0.274  10.106 -0.6239 -0.1373  1.0759
  935MOL0     C28927   0.155   0.294   9.971 -1.3836 -0.0454  0.1496
  935MOL0     O28928   0.055   0.219   9.933  0.4896  0.4123 -0.4733
  935MOL0     C28929   0.045   0.184   9.791  0.8740 -0.1990  0.0510
  935MOL0     C28930  -0.062   0.070   9.779 -0.0773 -0.1785  0.1122
  935MOL0     C28931  -0.110   0.021   9.636  1.0538 -0.4054  0.1474
  935MOL0     C28932  -0.100  -0.131   9.626 -0.2161 -0.2048  0.4455
  935MOL0     C28933  -0.020  -0.154   9.497 -0.3140  0.1112  0.0711
  935MOL0     C28934   0.018  -0.302   9.487  0.3092  0.5749  0.5035
  935MOL0     C28935  -0.103  -0.396   9.491 -0.0259  0.8838 -0.4336
  935MOL0     C28936  -0.075  -0.538   9.454 -0.2982 -0.0883 -0.7090
  935MOL0    Cl28937  -0.022  -0.548   9.289 -0.2585 -0.1092 -0.4514
  935MOL0     C28938   0.229   0.388   9.885 -0.1014 -0.0927  0.2294
  935MOL0     C28939   0.333   0.457   9.944 -0.5968  0.0543 -0.2319
  935MOL0     O28940   0.318   0.641  10.220  0.5731 -0.7353  0.1350
  935MOL0     C28941   0.587   0.784  10.073  0.1670 -0.8214  0.3768
  935MOL0     C28942   0.673   0.892  10.085 -0.0413  0.4315  0.0833
  935MOL0     N28943   1.037   1.627  10.535 -0.4990  0.1173 -1.1584
  935MOL0     N28944   0.978   1.729  10.580 -0.0238 -0.1190  0.1062
  935MOL0     C28945   0.754   2.872  10.768 -0.3825  0.2967 -0.5106
  935MOL0     C28946   0.651   2.965  10.763  0.4895  0.0211  0.3956
  935MOL0     C28947   0.256   3.171  10.649 -0.5372 -0.3907  0.1384
  935MOL0     C28948   0.196   3.199  10.523  0.8233  0.8607 -0.4882
  935MOL0     C28949   0.089   3.283  10.518  0.2653 -0.6271  0.2200
  935MOL0     C28950   0.049   3.357  10.634 -0.0550  1.2284 -1.0388
  935MOL0     O28951  -0.064   3.431  10.612 -0.7855  0.1526  0.3665
  935MOL0     C28952  -0.129   3.501  10.718 -0.2775 -0.1892 -0.5701
  935MOL0     C28953  -0.240   3.588  10.658  0.2092 -0.4841  0.4418
  935MOL0     C28954  -0.190   3.706  10.566  0.5312 -0.5683  0.7123
  935MOL0     C28955  -0.301   3.808  10.526 -0.0176  0.0689  0.1139
  935MOL0     C28956  -0.259   3.880  10.404  0.7163  0.2879  0.2304
  935MOL0     C28957  -0.235   3.951  10.305 -0.3095 -0.1563  0.0292
  935MOL0     C28958   0.106   3.331  10.758  0.0571  0.0307  0.3532
  935MOL0     C28959   0.209   3.233  10.770 -0.1020 -0.8403  0.5138
  935MOL0     C28960   0.251   3.202  10.910 -0.0369 -0.0904 -0.4347
  935MOL0     H28961   0.382   2.756  10.770  0.3877 -0.9321 -0.4676
  935MOL0     H28962   0.564   2.589  10.755  1.5666 -0.7676 -3.8723
  935MOL0     H28963   0.828   2.615  10.998  1.0596  0.4340 -0.3642
  935MOL0     H28964   0.957   2.552  10.916  0.8530  3.8240 -1.0959
  935MOL0     H28965   0.786   2.390  10.999  1.7333  0.2722  0.1498
  935MOL0     H28966   0.660   2.450  10.906 -0.2218 -0.8477  0.1010
  935MOL0     H28967   0.769   2.396  10.681  0.6704 -1.8114  0.1206
  935MOL0     H28968   0.909   2.349  10.793  0.1333 -2.7484  0.8873
  935MOL0     H28969   0.840   2.153  10.819  1.4036  1.4562 -0.6839
  935MOL0     H28970   0.691   2.209  10.888  3.1006  2.0805  1.9627
  935MOL0     H28971   0.714   2.173  10.588  1.6111 -1.4488  0.2926
  935MOL0     H28972   0.579   2.204  10.689  0.4256 -0.8303  3.1135
  935MOL0     H28973   0.654   1.974  10.814  0.5058 -1.4596 -0.2907
  935MOL0     H28974   0.564   1.968  10.665  0.4979 -0.4730 -2.3339
  935MOL0     H28975   0.797   1.868  10.728 -2.0170  1.1107  0.2572
  935MOL0     H28976   0.878   1.999  10.632  0.5496 -0.4754  1.6955
  935MOL0     H28977   0.680   1.791  10.535 -0.8053  0.4019 -2.7919
  935MOL0     H28978   0.738   1.923  10.435  0.2309 -0.0938 -0.3781
  935MOL0     H28979   0.816   1.694  10.291  0.6952  2.3107 -1.1380
  935MOL0     H28980   1.128   1.456  10.339 -0.0701  2.6571 -0.9865
  935MOL0     H28981   0.993   1.491  10.230  2.5665 -0.3745 -0.5654
  935MOL0     H28982   1.009   1.312  10.482 -0.1505 -0.4093 -0.3389
  935MOL0     H28983   0.853   1.379  10.432  0.6735  3.3164 -1.0939
  935MOL0     H28984   0.848   1.279  10.221 -0.5560  0.6547  0.8233
  935MOL0     H28985   1.019   1.210  10.235 -1.4387 -1.7552 -0.1978
  935MOL0     H28986   0.917   1.042  10.387 -0.8467 -1.6584 -2.0615
  935MOL0     H28987   0.773   1.141  10.397  0.2455 -0.8787  1.3116
  935MOL0     H28988   0.690   0.928  10.415 -0.3545  0.0094  0.2771
  935MOL0     H28989   0.454   0.820  10.478  0.0842 -0.2196  2.8468
  935MOL0     H28990   0.602   0.718  10.512 -1.0483 -0.4992 -0.8377
  935MOL0     H28991   0.458   0.647  10.445  0.3641 -0.9346  0.2316
  935MOL0     H28992   0.340   0.341  10.256  0.7308  2.3604 -1.1032
  935MOL0     H28993   0.134   0.211  10.168 -0.7209 -1.7250 -0.5489
  935MOL0     H28994   0.012   0.274   9.739 -0.6964  0.2010  1.6559
  935MOL0     H28995   0.141   0.149   9.753  0.6070 -1.7379  0.7192
  935MOL0     H28996  -0.019  -0.014   9.835  2.2526  0.8306 -0.0950
  935MOL0     H28997  -0.153   0.105   9.830 -0.3796  1.4778 -1.4820
  935MOL0     H28998  -0.040   0.072   9.570  0.1365 -1.6624 -1.9096
  935MOL0     H28999  -0.210   0.054   9.607 -0.0646 -1.9450  2.0201
  935MOL0     H29000  -0.199  -0.176   9.623 -1.2993  2.1238 -1.8988
  935MOL0     H29001  -0.049  -0.180   9.710  0.1107  0.9012  0.9114
  935MOL0     H29002  -0.079  -0.120   9.412 -2.6686  0.0872  1.5900
  935MOL0     H29003   0.079  -0.108   9.501 -1.7918  3.5408  3.2017
  935MOL0     H29004   0.087  -0.326   9.568  2.0431 -0.1202 -1.0760
  935MOL0     H29005   0.083  -0.319   9.400 -0.4213 -1.4183  0.2852
  935MOL0     H29006  -0.186  -0.371   9.423 -0.8764  0.4163  0.4155
  935MOL0     H29007  -0.149  -0.401   9.590  0.7416 -2.8033 -0.1230
  935MOL0     H29008  -0.161  -0.598   9.484  0.1529  0.8378  2.8713
  935MOL0     H29009   0.002  -0.579   9.520 -1.1757  0.1836  0.4943
  935MOL0     H29010   0.190   0.397   9.784 -1.8060 -3.0941  0.4953
  935MOL0     H29011   0.397   0.524   9.886  3.8426 -2.2485  1.4876
  935MOL0     H29012   0.560   0.742   9.977 -0.4469 -0.3458  0.3386
  935MOL0     H29013   0.715   0.929   9.992 -0.9915 -1.9696 -1.3987
  935MOL0     H29014   0.858   2.903  10.761 -0.6784  1.3923 -0.3590
  935MOL0     H29015   0.668   3.070  10.743  0.1108  0.1407  0.6858
  935MOL0     H29016   0.237   3.145  10.437  2.6619  2.3789 -0.6405
  935MOL0     H29017   0.026   3.299  10.431  0.0838  0.2874  0.5108
  935MOL0     H29018  -0.178   3.422  10.775  0.9029 -1.0113 -0.6709
  935MOL0     H29019  -0.067   3.561  10.785 -2.7008  2.8581 -0.7897
  935MOL0     H29020  -0.291   3.623  10.748 -1.4371  1.4093 -1.1355
  935MOL0     H29021  -0.315   3.529  10.607 -0.6571 -0.5167  1.7103
  935MOL0     H29022  -0.114   3.760  10.623 -2.2545  1.6421  2.6798
  935MOL0     H29023  -0.156   3.660  10.473 -0.6287 -0.7537  0.3629
  935MOL0     H29024  -0.324   3.888  10.598  3.7964  1.8294 -0.3900
  935MOL0     H29025  -0.384   3.743  10.498 -1.3633  1.1539  1.3664
  935MOL0     H29026  -0.203   4.003  10.217  0.0717 -1.2111 -0.4790
  935MOL0     H29027   0.058   3.380  10.842  1.0314 -1.0767  1.5981
  935MOL0     H29028   0.216   3.274  10.984 -0.4821 -1.1098  0.3769
  935MOL0     H29029   0.221   3.102  10.942 -1.0436  0.0049 -1.0225
  935MOL0     H29030   0.360   3.212  10.903 -0.1600  0.8829 -1.2304
  936MOL0     O29031   5.385   7.871   5.224  0.4161 -0.6569  0.7412
  936MOL0     C29032   5.315   7.906   5.317  0.1281  0.1850 -0.0272
  936MOL0     O29033   5.179   7.894   5.329  0.1451  0.0070 -0.7195
  936MOL0     C29034   5.099   7.848   5.225 -0.3815  0.3514 -0.4189
  936MOL0     C29035   5.137   7.783   5.105  0.4478  0.8804  0.1108
  936MOL0     C29036   5.037   7.761   5.006  0.7229  0.1889  0.3336
  936MOL0     C29037   4.904   7.791   5.020  0.7068 -0.1912  0.6807
  936MOL0     O29038   4.815   7.773   4.916  0.5459  0.3238 -0.3986
  936MOL0     C29039   4.679   7.809   4.915 -0.9939 -0.2395  1.0680
  936MOL0     C29040   4.646   7.956   4.878  0.1101  0.4642 -0.3394
  936MOL0     C29041   4.704   7.999   4.742  0.6894 -0.7908  0.1741
  936MOL0     C29042   4.657   8.143   4.715 -0.7029 -0.9245 -0.0648
  936MOL0     C29043   4.692   8.198   4.574  0.4182  1.0708  0.4539
  936MOL0     C29044   4.649   8.341   4.549  0.0562 -0.4339 -0.0798
  936MOL0     C29045   4.673   8.398   4.407  0.1761  0.9622 -0.1195
  936MOL0     C29046   4.582   8.364   4.295  0.1443 -0.7874  0.6627
  936MOL0     N29047   4.450   8.426   4.320 -0.0307  0.1194  0.5145
  936MOL0     C29048   4.426   8.562   4.309  0.1014  0.1682 -0.0529
  936MOL0     C29049   4.296   8.581   4.359 -0.3897 -0.7407  0.2223
  936MOL0     C29050   4.211   8.707   4.363 -1.5786  0.0990  0.7857
  936MOL0     C29051   4.284   8.844   4.353 -0.7991  0.1500 -1.0682
  936MOL0     C29052   4.183   8.931   4.279 -0.3941 -0.2592 -0.3576
  936MOL0     C29053   4.078   9.004   4.370 -0.1787 -0.7721 -0.6887
  936MOL0     O29054   4.002   8.917   4.446  0.5843 -0.0768 -0.6436
  936MOL0     C29055   3.982   8.962   4.574  0.7536 -0.1596 -0.5220
  936MOL0     C29056   3.923   9.084   4.609 -0.0290 -0.4535 -0.0769
  936MOL0     C29057   3.901   9.117   4.749 -0.1386  0.0965  0.4196
  936MOL0     C29058   3.834   9.245   4.781  0.4195 -0.0543 -0.1346
  936MOL0     C29059   3.944   9.031   4.851 -0.4284 -0.4869  0.4473
  936MOL0     C29060   3.929   9.064   4.997 -0.2216 -0.2267 -0.3164
  936MOL0     O29061   3.995   8.977   5.082  0.5360 -0.5905  0.6488
  936MOL0     C29062   3.980   8.978   5.217 -0.0889  0.1051  0.5520
  936MOL0     C29063   3.925   9.074   5.306 -0.7675 -0.6218  0.6208
  936MOL0     C29064   3.934   9.069   5.444  0.2830 -0.7443 -0.6196
  936MOL0     C29065   4.000   8.973   5.507  0.6954 -1.1745 -0.6414
  936MOL0     O29066   3.998   8.979   5.646 -0.4530 -0.2505  0.0312
  936MOL0     C29067   4.123   8.962   5.717  0.0707 -0.2083 -0.2805
  936MOL0     C29068   4.220   9.083   5.721 -0.8102  0.2592  0.2781
  936MOL0     C29069   4.266   9.155   5.585 -0.7177 -0.3287  0.9211
  936MOL0     C29070   4.191   9.285   5.570 -0.1865 -0.3621  0.0585
  936MOL0     C29071   4.231   9.368   5.451  0.5981  0.3947 -0.9397
  936MOL0     C29072   4.144   9.331   5.330 -0.2501 -0.1748 -0.3542
  936MOL0     C29073   4.160   9.427   5.210 -0.7641 -1.4095 -0.5732
  936MOL0     C29074   4.067   9.404   5.100  0.6687 -0.8086  0.4551
  936MOL0    Cl29075   4.109   9.515   4.967  0.2632  0.2138  0.0779
  936MOL0     C29076   4.050   8.871   5.425 -0.9711 -0.6242 -0.3734
  936MOL0     C29077   4.035   8.864   5.284  0.2082  0.0957  0.8437
  936MOL0     O29078   3.836   9.141   5.033  0.0675  0.4192  0.3305
  936MOL0     C29079   4.018   8.912   4.815  0.1886  0.0850  0.6845
  936MOL0     C29080   4.032   8.876   4.673  0.6606  0.1680  0.8929
  936MOL0     N29081   4.245   8.460   4.367  0.3648 -0.7746 -0.1521
  936MOL0     N29082   4.336   8.366   4.340  0.1382 -0.9009  0.0583
  936MOL0     C29083   4.864   7.848   5.141  0.0037 -0.3787 -0.4758
  936MOL0     C29084   4.960   7.865   5.243 -0.0145 -0.4427 -0.3963
  936MOL0     C29085   5.379   7.940   5.441 -0.1320 -0.2909  0.6357
  936MOL0     C29086   5.315   7.912   5.569  0.0559 -0.1283  0.2586
  936MOL0     C29087   5.374   7.963   5.692  0.3127 -0.0323 -0.0567
  936MOL0     C29088   5.503   8.022   5.690  0.8105  0.1537  0.2122
  936MOL0     O29089   5.572   8.061   5.802 -0.4196  0.6351  0.4210
  936MOL0     C29090   5.514   8.057   5.928  0.8394 -0.6256  1.2495
  936MOL0     C29091   5.548   7.931   5.994 -0.3433  0.4656 -0.3584
  936MOL0     C29092   5.690   7.917   6.045 -0.5095 -0.0718 -0.1300
  936MOL0     C29093   5.715   7.779   6.104 -0.0134  1.1624 -0.1720
  936MOL0     C29094   5.708   7.758   6.251  0.2094  0.5029 -0.1138
  936MOL0     C29095   5.689   7.741   6.370 -0.7228 -0.1735 -0.1273
  936MOL0     C29096   5.563   8.034   5.563  0.0345 -0.3567  0.0580
  936MOL0     C29097   5.505   8.004   5.439  0.0641  0.1499  0.3369
  936MOL0     C29098   5.573   8.079   5.322 -0.4892  0.1090 -0.0543
  936MOL0     H29099   5.235   7.744   5.078 -0.1178  0.4419 -1.3446
  936MOL0     H29100   5.075   7.718   4.914 -2.2406 -1.2553 -0.3371
  936MOL0     H29101   4.637   7.790   5.014 -0.6135  2.9438  1.9237
  936MOL0     H29102   4.611   7.749   4.852 -1.1605  1.6293 -0.6226
  936MOL0     H29103   4.538   7.963   4.893 -0.3569 -3.5572 -0.5451
  936MOL0     H29104   4.700   8.015   4.952  0.9921 -0.2679 -0.3869
  936MOL0     H29105   4.813   7.996   4.752  0.5727  0.5948  3.0332
  936MOL0     H29106   4.674   7.929   4.663 -1.8080 -0.4213  0.6873
  936MOL0     H29107   4.551   8.157   4.738 -0.6358 -1.5834  0.6903
  936MOL0     H29108   4.712   8.205   4.786  2.3081 -4.1723  0.6883
  936MOL0     H29109   4.624   8.146   4.505  0.9571  1.4097 -0.3569
  936MOL0     H29110   4.798   8.190   4.546  0.0268 -4.4722 -0.6906
  936MOL0     H29111   4.544   8.351   4.577  0.3126  2.2369  0.1192
  936MOL0     H29112   4.704   8.403   4.619  1.1153 -1.7683  0.3239
  936MOL0     H29113   4.759   8.343   4.367  0.8120  0.5137  1.7526
  936MOL0     H29114   4.705   8.502   4.412 -0.8297  1.3659 -1.6443
  936MOL0     H29115   4.618   8.406   4.201 -2.2329 -2.0163 -0.9011
  936MOL0     H29116   4.575   8.257   4.278 -1.9567 -0.4430 -1.1766
  936MOL0     H29117   4.502   8.636   4.283 -0.2367  0.0860 -1.3406
  936MOL0     H29118   4.168   8.701   4.463  0.6665  2.8366  2.0586
  936MOL0     H29119   4.133   8.692   4.288 -0.1523 -1.1971 -0.5108
  936MOL0     H29120   4.302   8.867   4.459 -0.6316 -2.0236 -0.5645
  936MOL0     H29121   4.378   8.832   4.299 -1.0538 -1.9139 -1.1223
  936MOL0     H29122   4.239   9.004   4.220  0.1113 -3.9262 -5.0280
  936MOL0     H29123   4.123   8.881   4.202  0.5919 -0.1050 -1.2493
  936MOL0     H29124   4.146   9.060   4.436 -0.8594  2.7221 -2.6727
  936MOL0     H29125   4.012   9.072   4.316 -0.1925 -1.7128 -1.8762
  936MOL0     H29126   3.896   9.159   4.536 -2.5651  0.7039  1.9120
  936MOL0     H29127   3.849   9.316   4.699  2.0393  0.4845  0.5910
  936MOL0     H29128   3.885   9.295   4.863 -0.5025 -0.4590  0.7108
  936MOL0     H29129   3.725   9.235   4.791  0.3716  0.7895  0.2224
  936MOL0     H29130   3.888   9.159   5.251  1.2943 -2.4132 -4.1325
  936MOL0     H29131   3.881   9.147   5.499  2.5155 -1.0024  2.1091
  936MOL0     H29132   4.089   8.951   5.821  1.0914 -0.9472 -0.0082
  936MOL0     H29133   4.179   8.875   5.681  1.8816  1.3669 -1.4649
  936MOL0     H29134   4.179   9.158   5.789  1.3006 -0.3189  2.3271
  936MOL0     H29135   4.309   9.054   5.777 -0.2195  1.0695 -0.2186
  936MOL0     H29136   4.266   9.088   5.500  1.2121  1.3904 -0.5369
  936MOL0     H29137   4.370   9.185   5.602  0.0122 -0.9251 -2.0504
  936MOL0     H29138   4.213   9.350   5.655 -0.3349 -1.3445  0.8656
  936MOL0     H29139   4.083   9.274   5.569 -0.2603 -0.9062  3.3816
  936MOL0     H29140   4.226   9.476   5.468 -0.1710  0.0265  1.5317
  936MOL0     H29141   4.334   9.349   5.422  0.1505 -0.0883 -2.2897
  936MOL0     H29142   4.039   9.340   5.361 -0.2823 -2.6246  0.5057
  936MOL0     H29143   4.163   9.231   5.291  0.8425  0.1690 -0.7453
  936MOL0     H29144   4.262   9.422   5.171 -0.7675  1.5532 -1.1709
  936MOL0     H29145   4.142   9.528   5.249  0.0449 -1.4324 -0.1036
  936MOL0     H29146   3.971   9.434   5.143  0.6275 -2.0266  1.2508
  936MOL0     H29147   4.071   9.299   5.069 -1.1293 -1.0399  0.8824
  936MOL0     H29148   4.075   8.771   5.460 -0.2955 -0.9393 -1.7116
  936MOL0     H29149   4.070   8.782   5.221 -1.8451  1.1314 -1.8036
  936MOL0     H29150   4.072   8.850   4.886  0.0924  2.0179  2.5408
  936MOL0     H29151   4.079   8.781   4.649 -1.1828 -0.7147  0.6524
  936MOL0     H29152   4.758   7.857   5.157 -0.0228 -0.2647 -0.7077
  936MOL0     H29153   4.932   7.906   5.339  1.1695 -2.3578  0.8537
  936MOL0     H29154   5.217   7.866   5.583  1.0577 -2.2742  0.6614
  936MOL0     H29155   5.320   7.939   5.783 -1.1510 -0.6815 -1.0637
  936MOL0     H29156   5.553   8.138   5.989 -0.2553 -1.6576  3.4305
  936MOL0     H29157   5.409   8.088   5.931  1.4924  1.7795  1.8295
  936MOL0     H29158   5.517   7.849   5.929  0.8260  0.1495 -0.5291
  936MOL0     H29159   5.477   7.917   6.076 -0.6585 -0.4684 -0.7786
  936MOL0     H29160   5.766   7.933   5.968  1.9606 -0.5827  2.0396
  936MOL0     H29161   5.717   7.990   6.122  1.9824  0.2586 -1.2268
  936MOL0     H29162   5.818   7.755   6.075 -0.1559 -1.7106  1.3086
  936MOL0     H29163   5.653   7.711   6.043  0.7229  1.9401 -1.8632
  936MOL0     H29164   5.682   7.723   6.475 -0.0515 -0.5829 -0.1432
  936MOL0     H29165   5.656   8.088   5.553 -0.9476  1.1559 -1.6371
  936MOL0     H29166   5.644   8.020   5.263 -0.2266  0.2551  0.1171
  936MOL0     H29167   5.499   8.121   5.254  0.2974 -2.0654 -2.4051
  936MOL0     H29168   5.634   8.161   5.361  0.6687 -0.5455 -0.4505
  937MOL0     O29169   8.876   4.253   8.662  0.2105  0.1417 -0.1259
  937MOL0     C29170   8.782   4.227   8.736 -0.4741 -0.2249  0.2218
  937MOL0     O29171   8.794   4.208   8.869  0.0921 -0.5395  0.3397
  937MOL0     C29172   8.915   4.224   8.937 -0.3709 -0.4113  0.3325
  937MOL0     C29173   8.941   4.339   9.022  0.4691  0.3338  0.7802
  937MOL0     C29174   9.050   4.334   9.111  1.0536 -0.5701 -0.9297
  937MOL0     C29175   9.141   4.230   9.109 -0.4198 -0.0165  0.1898
  937MOL0     O29176   9.244   4.243   9.196 -0.4044  0.2603 -0.1055
  937MOL0     C29177   9.372   4.227   9.137  0.5522 -0.6673 -0.9004
  937MOL0     C29178   9.414   4.321   9.019 -0.1105 -0.9265 -0.1109
  937MOL0     C29179   9.381   4.474   9.032  0.4445  0.6334 -0.7510
  937MOL0     C29180   9.416   4.547   8.904 -0.3358 -0.6208  0.8320
  937MOL0     C29181   9.419   4.700   8.911  1.0075  0.0526  0.9542
  937MOL0     C29182   9.471   4.765   8.779  0.1683 -0.1833 -0.2729
  937MOL0     C29183   9.623   4.797   8.788  0.4729  0.1029  0.6320
  937MOL0     C29184   9.714   4.674   8.825  0.1109 -0.0224  0.5324
  937MOL0     N29185   9.863   4.690   8.819 -0.1978  0.1934 -0.1637
  937MOL0     C29186   9.938   4.706   8.936  0.0516  0.9985  1.1701
  937MOL0     C29187  10.065   4.668   8.899 -0.6158  0.3713  0.7387
  937MOL0     C29188  10.181   4.676   8.990  0.1653  0.5763  0.0839
  937MOL0     C29189  10.285   4.559   8.971  0.3534  1.0384  0.6215
  937MOL0     C29190  10.422   4.607   9.025  0.3517  0.2931  0.4254
  937MOL0     C29191  10.527   4.501   8.977  0.7596  0.1209  0.3457
  937MOL0     O29192  10.662   4.538   9.001  0.1778 -1.2639  0.3832
  937MOL0     C29193  10.765   4.514   8.914 -0.0552 -0.2531  0.1332
  937MOL0     C29194  10.891   4.551   8.961 -0.5944  0.2299  0.4613
  937MOL0     C29195  11.008   4.516   8.891 -0.5526 -0.0773 -0.4224
  937MOL0     C29196  11.143   4.556   8.954 -0.2378  0.3121  0.8076
  937MOL0     C29197  11.001   4.439   8.772  0.2832  0.2621  1.0906
  937MOL0     C29198  11.118   4.411   8.685 -0.0985 -0.1850 -0.0738
  937MOL0     O29199  11.130   4.278   8.636 -0.0705 -0.5236 -0.3033
  937MOL0     C29200  11.245   4.251   8.572 -0.5964 -0.2002  0.0860
  937MOL0     C29201  11.266   4.292   8.439 -0.0853  0.3520  1.1714
  937MOL0     C29202  11.373   4.249   8.360 -0.9109 -0.3350 -0.0685
  937MOL0     C29203  11.484   4.191   8.426 -1.0455 -0.3343 -0.2300
  937MOL0     O29204  11.591   4.159   8.350  0.0590  0.8784 -0.6034
  937MOL0     C29205  11.720   4.187   8.406 -0.2366 -0.3315 -0.3648
  937MOL0     C29206  11.822   4.073   8.377 -0.1342 -1.1636  0.0164
  937MOL0     C29207  11.878   4.064   8.233 -0.5956  0.0559  0.4628
  937MOL0     C29208  11.987   3.952   8.215  0.7149  0.0280 -0.3453
  937MOL0     C29209  12.066   3.975   8.082  0.8004 -1.0251  0.1440
  937MOL0     C29210  12.167   3.857   8.071 -0.6223 -0.7958  0.4008
  937MOL0     C29211  12.292   3.900   7.977  0.0566  0.1355 -0.3525
  937MOL0     C29212  12.252   3.991   7.856  0.3323 -0.4212 -0.3913
  937MOL0    Cl29213  12.141   3.899   7.754 -0.2459 -0.3088 -0.2337
  937MOL0     C29214  11.462   4.145   8.560  0.0595 -0.0602  1.0139
  937MOL0     C29215  11.343   4.174   8.630 -0.0300 -0.8529 -0.1199
  937MOL0     O29216  11.197   4.498   8.663 -1.0115 -0.8046  0.5069
  937MOL0     C29217  10.874   4.406   8.724 -0.1144  0.4407 -0.6099
  937MOL0     C29218  10.763   4.442   8.792 -0.1822 -0.1914  0.8092
  937MOL0     N29219  10.070   4.642   8.763 -0.8085 -0.8362 -0.3790
  937MOL0     N29220   9.950   4.646   8.722 -0.2570 -0.4421  1.0412
  937MOL0     C29221   9.130   4.121   9.016 -0.0247 -0.8003  0.5417
  937MOL0     C29222   9.009   4.126   8.935 -0.3140  0.2329 -0.5435
  937MOL0     C29223   8.643   4.203   8.684  0.6177 -0.0983  0.0107
  937MOL0     C29224   8.538   4.182   8.776  0.3094  0.6461  0.0582
  937MOL0     C29225   8.405   4.166   8.730  0.1052  0.6902  1.4237
  937MOL0     C29226   8.378   4.149   8.592 -0.2045 -0.0475  0.0352
  937MOL0     O29227   8.264   4.112   8.525  0.1720  0.0866 -0.6232
  937MOL0     C29228   8.146   4.129   8.595  0.5604 -0.3689 -0.0248
  937MOL0     C29229   8.033   4.104   8.496 -0.0034 -0.3481 -0.5342
  937MOL0     C29230   8.043   4.202   8.373 -0.9113  1.0819  0.0657
  937MOL0     C29231   7.991   4.125   8.251 -0.6016 -0.1701 -0.2080
  937MOL0     C29232   7.848   4.125   8.242 -0.6376 -0.7415 -0.9505
  937MOL0     C29233   7.725   4.133   8.242 -0.3580 -0.4251  0.3184
  937MOL0     C29234   8.479   4.159   8.509 -0.2305 -0.0413 -0.3807
  937MOL0     C29235   8.611   4.186   8.546  0.6229 -0.6694 -0.1218
  937MOL0     C29236   8.718   4.197   8.433 -0.1255  0.3221 -0.2672
  937MOL0     H29237   8.866   4.417   9.015 -1.3715 -1.4505 -0.3856
  937MOL0     H29238   9.068   4.408   9.187 -3.4052 -0.3214  0.1470
  937MOL0     H29239   9.379   4.128   9.091 -0.8929  0.7786 -4.5741
  937MOL0     H29240   9.446   4.244   9.215  0.5027 -0.1689 -0.9642
  937MOL0     H29241   9.520   4.318   8.992  0.3947  3.6765  0.4803
  937MOL0     H29242   9.360   4.278   8.935 -2.3482 -0.4233  0.9839
  937MOL0     H29243   9.272   4.481   9.041  0.5657  2.3302 -0.2633
  937MOL0     H29244   9.431   4.516   9.120 -1.2748  1.0996  0.0489
  937MOL0     H29245   9.519   4.523   8.876 -0.2370 -2.2396  2.4565
  937MOL0     H29246   9.350   4.508   8.826  2.2686  0.8236 -2.3730
  937MOL0     H29247   9.476   4.723   9.002  3.2486  2.1246 -0.7958
  937MOL0     H29248   9.316   4.736   8.916 -0.5800 -3.8312 -0.0496
  937MOL0     H29249   9.450   4.696   8.697 -0.1589  0.3899 -0.6790
  937MOL0     H29250   9.419   4.858   8.755 -2.8792 -1.5560  0.5008
  937MOL0     H29251   9.642   4.884   8.851 -0.5655  2.5171 -2.1615
  937MOL0     H29252   9.649   4.830   8.687 -1.6378 -0.2541 -0.0719
  937MOL0     H29253   9.695   4.640   8.927 -1.1663  0.6265  0.5294
  937MOL0     H29254   9.684   4.586   8.767 -4.4474 -0.0098  2.4441
  937MOL0     H29255   9.906   4.724   9.038  0.9761  0.0896  1.6374
  937MOL0     H29256  10.151   4.686   9.094  2.3862 -0.8048  0.9486
  937MOL0     H29257  10.237   4.769   8.976  3.2821 -1.1547 -0.0899
  937MOL0     H29258  10.251   4.470   9.025 -3.2999  2.0006  0.1992
  937MOL0     H29259  10.299   4.523   8.868 -2.6111  0.7397  0.2393
  937MOL0     H29260  10.458   4.701   8.984  1.5969 -1.0431 -1.6986
  937MOL0     H29261  10.432   4.622   9.133 -1.1518 -2.8232  1.1279
  937MOL0     H29262  10.506   4.400   9.013  0.2374  1.0055  2.6470
  937MOL0     H29263  10.516   4.476   8.871  1.8623 -0.8550  0.4360
  937MOL0     H29264  10.890   4.597   9.059 -0.2746 -1.1081  1.1220
  937MOL0     H29265  11.120   4.592   9.054 -1.6429  0.5226  0.4282
  937MOL0     H29266  11.204   4.630   8.903  0.1126 -2.2562 -2.9167
  937MOL0     H29267  11.211   4.471   8.967  2.9893  2.9667  2.9148
  937MOL0     H29268  11.195   4.351   8.382  0.6228 -0.3711 -0.5392
  937MOL0     H29269  11.385   4.271   8.255  1.9563  1.9036  0.5632
  937MOL0     H29270  11.767   4.276   8.362  0.7848 -1.8095 -2.4262
  937MOL0     H29271  11.717   4.204   8.514  2.3585 -2.6380  0.1986
  937MOL0     H29272  11.913   4.100   8.431 -1.6176  3.4562  0.6750
  937MOL0     H29273  11.791   3.973   8.410  0.1763 -0.6203  2.0838
  937MOL0     H29274  11.917   4.164   8.212  1.7959 -1.1123 -1.1509
  937MOL0     H29275  11.792   4.047   8.167  1.3873 -0.0995 -2.2354
  937MOL0     H29276  11.947   3.851   8.228 -0.2571  0.6091  1.5364
  937MOL0     H29277  12.054   3.959   8.301 -1.1236 -2.5050  1.4679
  937MOL0     H29278  12.006   3.989   7.992  0.8434 -0.9685  0.1234
  937MOL0     H29279  12.110   4.074   8.091 -2.3900  0.3220  2.6556
  937MOL0     H29280  12.121   3.775   8.014 -1.6222  0.7825 -1.1721
  937MOL0     H29281  12.203   3.822   8.168  0.1142 -0.8175  0.1269
  937MOL0     H29282  12.342   3.815   7.930  1.7898  0.9464 -0.0441
  937MOL0     H29283  12.370   3.947   8.038  0.4883 -2.1833  0.9837
  937MOL0     H29284  12.342   4.013   7.797  0.0443  0.6027 -0.4645
  937MOL0     H29285  12.207   4.086   7.886  1.6592  0.4983 -1.1854
  937MOL0     H29286  11.552   4.095   8.592  2.3354  2.9788 -0.1793
  937MOL0     H29287  11.342   4.145   8.735 -1.4600 -1.7642 -0.3604
  937MOL0     H29288  10.866   4.372   8.622 -0.7472  1.3627 -0.8769
  937MOL0     H29289  10.670   4.402   8.752  0.2771 -2.3947  1.7907
  937MOL0     H29290   9.194   4.034   9.004 -1.4523 -1.5871 -2.1310
  937MOL0     H29291   8.979   4.039   8.877  0.8159  1.0049 -2.3880
  937MOL0     H29292   8.543   4.185   8.884 -0.5674 -0.1536  0.1326
  937MOL0     H29293   8.334   4.172   8.811  1.9095  3.0571  2.9774
  937MOL0     H29294   8.147   4.066   8.684  3.9299  1.3360  1.3260
  937MOL0     H29295   8.144   4.233   8.627  1.3485 -0.1883 -0.5312
  937MOL0     H29296   7.948   4.138   8.555  1.5526  1.1789  0.9261
  937MOL0     H29297   8.030   3.998   8.470 -4.2668 -1.3564  2.8764
  937MOL0     H29298   7.979   4.290   8.380 -3.1160 -0.0549 -3.1522
  937MOL0     H29299   8.145   4.231   8.347 -0.6052  0.0443  0.0446
  937MOL0     H29300   8.036   4.025   8.249  2.0256  0.8150  2.4771
  937MOL0     H29301   8.021   4.184   8.163 -1.6790 -2.1486 -2.0044
  937MOL0     H29302   7.618   4.123   8.234 -0.2550 -2.4500  0.8914
  937MOL0     H29303   8.455   4.152   8.404 -0.6460  1.0095 -0.3696
  937MOL0     H29304   8.756   4.299   8.441 -1.8598  0.9200  0.8553
  937MOL0     H29305   8.795   4.119   8.443 -0.7427 -0.0524  2.5748
  937MOL0     H29306   8.673   4.194   8.333 -2.0613  1.1296  0.5402
  938MOL0     O29307   0.774   0.871   2.310 -0.5843  0.0474  1.2447
  938MOL0     C29308   0.731   0.881   2.421 -0.0013  0.5428 -0.1971
  938MOL0     O29309   0.751   0.788   2.521  0.5750  0.6955 -0.1618
  938MOL0     C29310   0.851   0.697   2.512 -0.1094 -0.8699 -0.4687
  938MOL0     C29311   0.972   0.711   2.435  0.8335  0.1457 -0.8076
  938MOL0     C29312   1.070   0.611   2.455  0.4149  0.8903  0.1563
  938MOL0     C29313   1.060   0.500   2.535  0.3703  0.1224  0.2040
  938MOL0     O29314   1.163   0.407   2.540 -0.1032  0.1083  0.0098
  938MOL0     C29315   1.135   0.272   2.509  0.3136  0.5127 -0.0994
  938MOL0     C29316   1.196   0.176   2.612 -0.6664  0.4190 -0.2708
  938MOL0     C29317   1.340   0.132   2.571  0.4153 -0.1076 -0.1616
  938MOL0     C29318   1.391   0.030   2.665  0.6136  0.5289  0.2947
  938MOL0     C29319   1.533  -0.019   2.621  0.9418 -0.0555 -0.1470
  938MOL0     C29320   1.637   0.082   2.667  0.5266 -0.5545 -0.4519
  938MOL0     C29321   1.773   0.035   2.617  0.3806 -0.6677  0.7306
  938MOL0     C29322   1.791   0.038   2.464  0.0943  0.6170  0.4585
  938MOL0     N29323   1.770   0.172   2.416 -0.1052 -0.0467 -1.1503
  938MOL0     C29324   1.663   0.209   2.339  0.5313 -0.2726  0.7339
  938MOL0     C29325   1.680   0.340   2.310 -0.1132  0.2693  1.0827
  938MOL0     C29326   1.587   0.418   2.228  0.3456 -0.1205  0.0060
  938MOL0     C29327   1.481   0.478   2.328  0.1570 -0.5273 -0.0191
  938MOL0     C29328   1.545   0.587   2.416  0.7152 -0.2322 -0.3944
  938MOL0     C29329   1.446   0.668   2.499  0.5202 -0.4031 -0.5153
  938MOL0     O29330   1.394   0.772   2.408 -0.2685  0.5623 -0.1671
  938MOL0     C29331   1.299   0.858   2.451  0.1432 -0.5492 -0.9790
  938MOL0     C29332   1.227   0.838   2.570  0.5796  0.2779 -0.4007
  938MOL0     C29333   1.146   0.940   2.619 -0.3341 -0.7221 -0.5426
  938MOL0     C29334   1.093   0.913   2.752  0.3681 -0.3583 -0.3585
  938MOL0     C29335   1.127   1.059   2.543  0.0604  0.1364  0.4344
  938MOL0     C29336   1.052   1.177   2.594 -0.6486 -0.4109 -0.2322
  938MOL0     O29337   0.978   1.177   2.700 -1.0239  0.3689  0.5833
  938MOL0     C29338   0.906   1.288   2.739 -0.4865  0.2960  0.6643
  938MOL0     C29339   0.905   1.330   2.875  0.4036  0.7519  0.1741
  938MOL0     C29340   0.831   1.445   2.904 -0.6869  0.6509  0.4304
  938MOL0     C29341   0.738   1.501   2.816 -0.4173 -0.3135 -0.5401
  938MOL0     O29342   0.660   1.587   2.877 -0.1645  0.3391  0.1184
  938MOL0     C29343   0.603   1.679   2.790 -0.2998  0.8344 -0.7255
  938MOL0     C29344   0.460   1.634   2.763  0.5913  0.6040  0.1748
  938MOL0     C29345   0.373   1.700   2.639 -0.4708  1.0036  0.5131
  938MOL0     C29346   0.271   1.597   2.585 -0.4595 -0.2113  0.1033
  938MOL0     C29347   0.183   1.530   2.686  0.4344 -1.4620 -0.1731
  938MOL0     C29348   0.099   1.629   2.776  0.0624 -0.0756 -0.8551
  938MOL0     C29349   0.002   1.559   2.873 -0.2121 -0.0511 -0.4020
  938MOL0     C29350  -0.084   1.458   2.794  0.0278  0.0152 -0.6537
  938MOL0    Cl29351  -0.002   1.295   2.795  0.1253 -0.0005 -0.5084
  938MOL0     C29352   0.729   1.459   2.680 -0.7314  0.3424 -0.2552
  938MOL0     C29353   0.822   1.350   2.640  0.6662  0.0568  0.3130
  938MOL0     O29354   1.057   1.278   2.514  1.2960  0.3695  0.3145
  938MOL0     C29355   1.202   1.072   2.419 -0.8275  0.3704  0.4177
  938MOL0     C29356   1.276   0.967   2.369 -0.5916  0.5964 -0.1898
  938MOL0     N29357   1.791   0.389   2.372  0.5081  0.9196 -0.2757
  938MOL0     N29358   1.847   0.283   2.436  0.1848 -0.0801  0.2303
  938MOL0     C29359   0.939   0.485   2.602  0.0314  0.7707 -0.1234
  938MOL0     C29360   0.837   0.583   2.588  0.6049  0.1128 -1.0510
  938MOL0     C29361   0.627   0.989   2.447 -0.6644  0.1269  0.6763
  938MOL0     C29362   0.533   0.974   2.547  0.5374  0.9474  0.7331
  938MOL0     C29363   0.424   1.057   2.544 -0.6081  0.2671 -0.0084
  938MOL0     C29364   0.424   1.175   2.476  0.2016  0.0906  0.5208
  938MOL0     O29365   0.304   1.245   2.488  0.0977 -0.4600 -0.1030
  938MOL0     C29366   0.222   1.212   2.375 -0.2685 -0.3547  0.2507
  938MOL0     C29367   0.084   1.251   2.415  0.7445 -0.5992 -0.4886
  938MOL0     C29368  -0.013   1.275   2.291 -0.4568 -1.1871 -0.4036
  938MOL0     C29369  -0.164   1.269   2.335 -0.3332 -0.3250  0.1816
  938MOL0     C29370  -0.235   1.264   2.214  0.0067  0.0083  0.5795
  938MOL0     C29371  -0.286   1.276   2.102 -0.6797 -0.4927  0.2088
  938MOL0     C29372   0.519   1.199   2.389 -0.0057 -0.1001  0.2202
  938MOL0     C29373   0.632   1.111   2.375  0.0910  1.1296  0.7734
  938MOL0     C29374   0.732   1.149   2.270  0.0333  0.1595  0.6906
  938MOL0     H29375   0.989   0.795   2.368 -1.9956 -0.2130 -2.1485
  938MOL0     H29376   1.152   0.599   2.384  0.1652  0.3655 -0.0480
  938MOL0     H29377   1.173   0.255   2.408 -0.6535 -1.9855 -0.1196
  938MOL0     H29378   1.027   0.256   2.499  0.4054  0.3212 -0.8040
  938MOL0     H29379   1.198   0.230   2.707 -1.2655  0.6891 -0.4013
  938MOL0     H29380   1.134   0.088   2.628  1.9954 -1.0613  3.0057
  938MOL0     H29381   1.336   0.099   2.467 -3.2024 -1.3684  0.2273
  938MOL0     H29382   1.405   0.220   2.567 -0.5532  0.6208 -0.2798
  938MOL0     H29383   1.374   0.074   2.763 -0.5305  2.3059 -0.6596
  938MOL0     H29384   1.335  -0.063   2.649  0.4340  0.5868  0.5829
  938MOL0     H29385   1.527  -0.019   2.511  0.3547 -1.9287 -0.1369
  938MOL0     H29386   1.547  -0.117   2.667 -0.3004  0.1947  0.8205
  938MOL0     H29387   1.613   0.187   2.646  1.6978 -0.5359 -1.8880
  938MOL0     H29388   1.652   0.071   2.775  0.5582 -0.4987 -0.4504
  938MOL0     H29389   1.787  -0.063   2.662 -1.6318 -1.1877  0.3018
  938MOL0     H29390   1.851   0.104   2.650  0.3148  1.4995 -3.0640
  938MOL0     H29391   1.890  -0.001   2.439  0.0690 -2.5970  4.3946
  938MOL0     H29392   1.719  -0.035   2.425  0.0244  1.2146 -0.5635
  938MOL0     H29393   1.574   0.160   2.300 -0.1216  1.1381  0.3612
  938MOL0     H29394   1.537   0.366   2.146  0.5319 -1.8366  0.9473
  938MOL0     H29395   1.648   0.499   2.185  1.6508 -1.3739 -0.5755
  938MOL0     H29396   1.406   0.538   2.275  0.1137  1.6909  2.3445
  938MOL0     H29397   1.437   0.396   2.384 -2.5725 -0.9722 -2.5587
  938MOL0     H29398   1.613   0.537   2.485  0.7740  0.9466  0.4260
  938MOL0     H29399   1.611   0.654   2.359  1.6715  0.0654  1.0098
  938MOL0     H29400   1.363   0.603   2.529  0.8716  0.2020  1.9313
  938MOL0     H29401   1.489   0.710   2.590 -0.8473 -0.0124 -0.0242
  938MOL0     H29402   1.248   0.749   2.629  2.2027  1.0735  0.2752
  938MOL0     H29403   1.133   0.822   2.798 -1.2911 -0.0461  1.8739
  938MOL0     H29404   0.983   0.911   2.750  0.3449  0.5387 -0.1936
  938MOL0     H29405   1.111   1.000   2.815  0.9995 -1.5981  1.2373
  938MOL0     H29406   0.979   1.277   2.934  2.4162  0.0975 -2.7473
  938MOL0     H29407   0.844   1.485   3.004 -0.4273 -2.2655  1.6727
  938MOL0     H29408   0.594   1.779   2.832 -0.0058  0.3764  0.4818
  938MOL0     H29409   0.660   1.695   2.698  0.6060 -0.4414 -0.4235
  938MOL0     H29410   0.458   1.526   2.745 -1.1388  0.6055  0.1899
  938MOL0     H29411   0.407   1.642   2.859  2.9854 -0.6889  1.7217
  938MOL0     H29412   0.438   1.729   2.556  1.2901 -0.4049  1.3351
  938MOL0     H29413   0.318   1.779   2.691  0.6351  1.4404  1.0412
  938MOL0     H29414   0.312   1.519   2.519 -1.7025 -0.8435  0.0532
  938MOL0     H29415   0.210   1.663   2.523 -3.8245 -1.2094  2.1089
  938MOL0     H29416   0.110   1.473   2.628 -0.3848 -1.8220  1.1753
  938MOL0     H29417   0.241   1.452   2.737 -0.0553 -1.0260  1.0963
  938MOL0     H29418   0.037   1.700   2.720  1.3375  1.9174  0.1300
  938MOL0     H29419   0.173   1.685   2.834 -1.2551  0.5885  0.2133
  938MOL0     H29420  -0.055   1.641   2.918 -0.5842 -0.2217 -0.5602
  938MOL0     H29421   0.055   1.512   2.956  0.3997  1.3121  0.0029
  938MOL0     H29422  -0.110   1.499   2.696  0.7714 -0.0907 -0.8949
  938MOL0     H29423  -0.177   1.440   2.849  1.1617 -1.7836  0.8039
  938MOL0     H29424   0.668   1.512   2.608 -0.7465  1.0325  0.2536
  938MOL0     H29425   0.824   1.310   2.539  0.8246  1.2235 -0.1624
  938MOL0     H29426   1.206   1.163   2.360  3.3829  1.0116  1.3881
  938MOL0     H29427   1.326   0.988   2.276 -1.3335  3.6703 -0.0015
  938MOL0     H29428   0.920   0.396   2.661 -4.2528  2.7745  2.0332
  938MOL0     H29429   0.748   0.571   2.649 -0.9647 -0.3860 -3.2778
  938MOL0     H29430   0.542   0.882   2.603 -2.9538 -1.6689 -2.4939
  938MOL0     H29431   0.344   1.043   2.617 -0.5412  0.1676  0.0453
  938MOL0     H29432   0.263   1.257   2.284 -1.2528  1.0821  0.4706
  938MOL0     H29433   0.216   1.107   2.347  0.5324 -0.0867 -1.0116
  938MOL0     H29434   0.085   1.330   2.490  0.6090 -1.5313  0.5127
  938MOL0     H29435   0.049   1.168   2.477  1.0787  2.1301  3.7466
  938MOL0     H29436   0.001   1.375   2.249 -1.3114 -0.7693  0.2525
  938MOL0     H29437   0.020   1.206   2.212  0.9016 -1.9651  0.7895
  938MOL0     H29438  -0.194   1.344   2.408  0.3634 -0.2638  0.4096
  938MOL0     H29439  -0.192   1.176   2.387 -1.4938 -0.4321 -0.5773
  938MOL0     H29440  -0.348   1.269   2.015 -1.3291  1.4178  0.4786
  938MOL0     H29441   0.506   1.300   2.352  2.2486 -0.0138 -0.4407
  938MOL0     H29442   0.717   1.252   2.236  3.1262 -0.1458 -2.0029
  938MOL0     H29443   0.839   1.134   2.286  0.2083 -1.0066 -1.3088
  938MOL0     H29444   0.703   1.096   2.180 -0.6858  0.6677  0.6147
  939MOL0     O29445   8.674   9.269   5.006 -0.1288  0.5245 -0.4238
  939MOL0     C29446   8.608   9.168   4.984  0.6377 -0.3531  0.5095
  939MOL0     O29447   8.642   9.042   4.998  0.3280  0.8385 -0.5259
  939MOL0     C29448   8.752   9.004   5.073 -0.0669  0.3346  0.5112
  939MOL0     C29449   8.731   8.914   5.172  0.5983  0.7521 -0.1866
  939MOL0     C29450   8.834   8.855   5.244  0.2843 -0.0309  0.5841
  939MOL0     C29451   8.964   8.870   5.203  0.3522  1.4659  0.3977
  939MOL0     O29452   9.064   8.804   5.271 -0.2420  0.3022 -0.2753
  939MOL0     C29453   9.201   8.825   5.235  0.6034 -0.7666  0.2236
  939MOL0     C29454   9.281   8.712   5.293  0.3904 -0.1627 -0.2924
  939MOL0     C29455   9.336   8.753   5.428 -0.0465 -0.4293 -1.0761
  939MOL0     C29456   9.470   8.688   5.462  1.3274 -0.6499  0.8536
  939MOL0     C29457   9.488   8.686   5.616  0.0235 -0.5066  0.6152
  939MOL0     C29458   9.495   8.813   5.699  0.0334 -0.4265 -1.7651
  939MOL0     C29459   9.544   8.789   5.846 -0.3018 -0.1946 -0.1577
  939MOL0     C29460   9.561   8.921   5.937 -0.4955 -0.1107  0.0413
  939MOL0     N29461   9.643   9.019   5.869  0.0687 -0.1271 -0.3185
  939MOL0     C29462   9.775   9.000   5.835  1.3049  0.2209 -1.0414
  939MOL0     C29463   9.845   9.114   5.844 -0.0337 -0.6947  0.0416
  939MOL0     C29464   9.982   9.112   5.795  0.5064 -1.2735  0.2975
  939MOL0     C29465  10.001   9.229   5.690  0.1984 -0.2811 -0.0431
  939MOL0     C29466  10.133   9.243   5.614  0.1795 -0.2873  0.0660
  939MOL0     C29467  10.170   9.140   5.509  0.1705 -0.3637 -0.2189
  939MOL0     O29468  10.065   9.102   5.423 -0.3069  1.1188 -0.8164
  939MOL0     C29469  10.110   9.031   5.315 -1.5690 -0.8360  0.5057
  939MOL0     C29470  10.028   9.041   5.202 -0.8071  0.1384  0.8287
  939MOL0     C29471  10.055   8.961   5.086  0.1093  0.6411 -0.3878
  939MOL0     C29472   9.949   8.963   4.971 -0.2031 -0.0215 -1.2593
  939MOL0     C29473  10.169   8.874   5.081 -0.2704  0.6992 -0.4884
  939MOL0     C29474  10.209   8.784   4.971  0.1814 -0.7634 -0.5456
  939MOL0     O29475  10.286   8.677   5.012  0.5749 -0.1534  0.6131
  939MOL0     C29476  10.322   8.588   4.912 -0.3909  0.3701 -0.7285
  939MOL0     C29477  10.426   8.623   4.818  0.0445  0.4491  0.0237
  939MOL0     C29478  10.468   8.514   4.732  0.8588 -0.2692  0.9574
  939MOL0     C29479  10.421   8.388   4.749  0.3544 -0.2374 -0.6116
  939MOL0     O29480  10.477   8.294   4.663  0.3384  0.1579 -0.3608
  939MOL0     C29481  10.402   8.180   4.640 -0.0287 -0.1439 -0.8690
  939MOL0     C29482  10.462   8.096   4.521  0.1007 -0.4277 -0.0327
  939MOL0     C29483  10.399   7.954   4.529  0.3607 -0.8281  0.9694
  939MOL0     C29484  10.476   7.868   4.429 -0.7381 -0.0902  0.2099
  939MOL0     C29485  10.411   7.734   4.404 -0.7300 -0.0715  0.6368
  939MOL0     C29486  10.459   7.632   4.504  0.4257  0.1438 -0.1786
  939MOL0     C29487  10.396   7.493   4.473 -0.1986  0.4817  0.1973
  939MOL0     C29488  10.397   7.393   4.589 -0.0537  0.3506  0.8606
  939MOL0    Cl29489  10.336   7.229   4.538  0.3567 -0.0084  0.0156
  939MOL0     C29490  10.315   8.359   4.837  0.6777 -0.1818 -0.2054
  939MOL0     C29491  10.266   8.462   4.915 -1.0053 -0.0902 -0.7990
  939MOL0     O29492  10.165   8.798   4.855 -0.0999 -0.0518 -0.2721
  939MOL0     C29493  10.255   8.879   5.196  0.1467  0.2077  0.3616
  939MOL0     C29494  10.219   8.951   5.313 -0.3110 -0.6975  0.0327
  939MOL0     N29495   9.761   9.203   5.889  0.5563  0.4002  0.7291
  939MOL0     N29496   9.639   9.150   5.909 -0.0734 -1.2126  0.5028
  939MOL0     C29497   8.991   8.963   5.103  0.6760 -0.3492  0.3377
  939MOL0     C29498   8.887   9.029   5.043 -0.5066  0.1392  0.7591
  939MOL0     C29499   8.465   9.193   4.921  0.0744 -0.0806 -1.1807
  939MOL0     C29500   8.398   9.086   4.855 -0.9017 -1.0017 -0.3915
  939MOL0     C29501   8.264   9.104   4.808  0.7858 -0.0389 -0.5306
  939MOL0     C29502   8.202   9.232   4.812 -0.4642 -0.8806  0.1590
  939MOL0     O29503   8.078   9.267   4.759 -0.0487  0.4341  0.1665
  939MOL0     C29504   8.002   9.186   4.664  0.6344 -0.0131  1.0267
  939MOL0     C29505   7.984   9.275   4.536  0.2260  0.9560  0.9211
  939MOL0     C29506   8.113   9.306   4.461  0.0264  1.1509 -0.0232
  939MOL0     C29507   8.088   9.363   4.327  0.6071 -0.1203  0.0945
  939MOL0     C29508   8.119   9.271   4.217  0.4882  1.0514 -0.4090
  939MOL0     C29509   8.156   9.206   4.126  0.0063  0.3396  0.2346
  939MOL0     C29510   8.274   9.334   4.873  0.1115 -0.2648  0.0491
  939MOL0     C29511   8.394   9.318   4.932 -0.5279 -0.0801  0.2732
  939MOL0     C29512   8.442   9.448   4.999 -0.6411 -0.4674 -0.2029
  939MOL0     H29513   8.627   8.893   5.193  0.5252 -0.9873 -1.9797
  939MOL0     H29514   8.813   8.776   5.317 -0.6924  0.5379  0.9370
  939MOL0     H29515   9.247   8.918   5.270 -0.2449 -1.1211  2.3979
  939MOL0     H29516   9.210   8.800   5.129 -0.2468  0.6002 -0.1955
  939MOL0     H29517   9.221   8.622   5.309  1.8034 -1.1281 -0.3240
  939MOL0     H29518   9.359   8.682   5.224  0.2352 -4.5401  1.1270
  939MOL0     H29519   9.353   8.859   5.450  0.9578 -0.7565 -0.1876
  939MOL0     H29520   9.258   8.728   5.500  0.6166 -2.3368 -0.9579
  939MOL0     H29521   9.484   8.586   5.425  0.2578 -0.5370  0.0515
  939MOL0     H29522   9.555   8.740   5.416  0.5684 -1.1702 -1.2467
  939MOL0     H29523   9.590   8.645   5.620  1.0883  1.9889  1.3078
  939MOL0     H29524   9.419   8.612   5.657  1.0623 -2.0793 -0.3675
  939MOL0     H29525   9.570   8.878   5.653 -1.9197 -1.2605 -6.8770
  939MOL0     H29526   9.398   8.864   5.694 -1.2640 -2.4478  0.4788
  939MOL0     H29527   9.633   8.726   5.857  0.9458  1.8305  2.4923
  939MOL0     H29528   9.457   8.739   5.888 -1.9144  0.8902 -2.0199
  939MOL0     H29529   9.461   8.958   5.960 -0.2523  0.2310  0.5629
  939MOL0     H29530   9.604   8.898   6.034 -2.3991  2.5442  1.6488
  939MOL0     H29531   9.813   8.906   5.797 -1.6381 -0.8889 -1.5613
  939MOL0     H29532  10.003   9.013   5.753  2.7462 -0.1663 -1.4611
  939MOL0     H29533  10.058   9.124   5.873  4.3948 -1.6411 -3.0777
  939MOL0     H29534   9.928   9.223   5.609  3.9701 -1.3221 -3.6809
  939MOL0     H29535   9.986   9.328   5.734  0.3728 -1.2652  2.4277
  939MOL0     H29536  10.137   9.331   5.550  4.6501 -0.3981 -0.1075
  939MOL0     H29537  10.213   9.248   5.689  1.2048  1.6819 -1.0735
  939MOL0     H29538  10.255   9.183   5.455 -0.7571  4.8242  1.8429
  939MOL0     H29539  10.212   9.057   5.566  2.1062  1.6401  1.4328
  939MOL0     H29540   9.940   9.102   5.216 -0.4382  0.3913  2.2100
  939MOL0     H29541   9.985   8.999   4.874 -1.1104  3.6421 -0.3629
  939MOL0     H29542   9.861   9.024   4.995  1.1492  1.5516 -0.1021
  939MOL0     H29543   9.901   8.865   4.961 -1.3534  0.2754  0.8694
  939MOL0     H29544  10.461   8.722   4.791 -3.0181  1.2090 -1.6139
  939MOL0     H29545  10.543   8.539   4.656 -0.8363 -1.6051 -1.2796
  939MOL0     H29546  10.408   8.114   4.726  3.4836  2.3833  1.1181
  939MOL0     H29547  10.302   8.214   4.614 -0.7790 -0.7759  1.0553
  939MOL0     H29548  10.450   8.144   4.423  0.8038  0.1583  0.1574
  939MOL0     H29549  10.568   8.081   4.540  0.1979 -2.8001 -1.8777
  939MOL0     H29550  10.296   7.951   4.491  0.4666 -2.8669  0.7403
  939MOL0     H29551  10.403   7.896   4.622  3.7591 -2.5036 -0.0560
  939MOL0     H29552  10.575   7.857   4.474 -1.4301  1.1673  2.1568
  939MOL0     H29553  10.485   7.920   4.333  2.5335 -1.5800 -0.4275
  939MOL0     H29554  10.303   7.748   4.408 -0.4465  4.4061 -1.5659
  939MOL0     H29555  10.444   7.704   4.304 -1.9700 -0.5547  0.3583
  939MOL0     H29556  10.443   7.658   4.609  1.2032 -0.5190  0.1155
  939MOL0     H29557  10.568   7.636   4.492  0.4659 -0.3556 -0.0153
  939MOL0     H29558  10.459   7.455   4.392  0.0646  0.3363  0.4723
  939MOL0     H29559  10.292   7.508   4.440 -0.5003 -1.0777  0.3751
  939MOL0     H29560  10.338   7.438   4.669 -0.2421 -1.4093  1.7456
  939MOL0     H29561  10.492   7.375   4.639  0.7891  0.4795 -0.6308
  939MOL0     H29562  10.276   8.258   4.844  2.3954 -0.9925 -1.4747
  939MOL0     H29563  10.184   8.448   4.986 -2.3249 -2.0408 -2.6015
  939MOL0     H29564  10.343   8.814   5.196 -1.0836 -1.5461 -0.5771
  939MOL0     H29565  10.293   8.943   5.393 -0.3620  0.1456  0.1833
  939MOL0     H29566   9.093   8.994   5.084  0.4931  0.3711  0.4659
  939MOL0     H29567   8.902   9.108   4.971 -1.5476 -0.3784 -0.0492
  939MOL0     H29568   8.464   9.003   4.830  2.0137  1.4877 -1.6927
  939MOL0     H29569   8.221   9.039   4.733 -0.4812 -0.5857  0.6176
  939MOL0     H29570   8.045   9.090   4.632 -0.5131  0.4578 -2.3720
  939MOL0     H29571   7.897   9.168   4.691 -0.5660  1.4660 -2.1327
  939MOL0     H29572   7.932   9.368   4.562  0.4969  1.8012 -1.3049
  939MOL0     H29573   7.913   9.216   4.477 -2.6023  4.2033  0.7312
  939MOL0     H29574   8.173   9.368   4.528 -0.5581  2.0164 -0.2860
  939MOL0     H29575   8.185   9.223   4.461  0.6435  1.6712  0.7553
  939MOL0     H29576   8.153   9.451   4.325  1.3320 -0.4708  3.0547
  939MOL0     H29577   7.982   9.387   4.318  0.1120 -2.5269 -1.2474
  939MOL0     H29578   8.197   9.153   4.042  0.4335  3.2504 -1.5313
  939MOL0     H29579   8.223   9.430   4.875  1.2876  0.3963 -0.7384
  939MOL0     H29580   8.362   9.516   5.026 -1.2441  0.7124 -4.2333
  939MOL0     H29581   8.514   9.418   5.075  1.1973 -0.1720 -1.7360
  939MOL0     H29582   8.483   9.512   4.920 -0.5117  0.1081  0.3224
  940MOL0     O29583   2.640   9.565   5.860  1.1194  0.5283  0.1748
  940MOL0     C29584   2.735   9.491   5.900  0.7789 -0.7400 -0.6858
  940MOL0     O29585   2.863   9.522   5.876  0.0654 -0.0687 -0.4495
  940MOL0     C29586   2.891   9.644   5.823 -0.5438  0.2744 -0.3349
  940MOL0     C29587   2.847   9.698   5.702  0.6541  0.3490 -0.4927
  940MOL0     C29588   2.884   9.819   5.653 -0.3068 -0.1415 -0.3574
  940MOL0     C29589   2.980   9.892   5.735 -0.6900 -0.6015 -0.4130
  940MOL0     O29590   3.034  10.016   5.709 -0.0623  0.3336  0.3808
  940MOL0     C29591   2.981  10.107   5.617  0.7286 -0.2874  0.2064
  940MOL0     C29592   2.919  10.227   5.689  0.0924 -0.1572  0.3500
  940MOL0     C29593   2.869  10.318   5.580  0.8845  0.1001 -0.1944
  940MOL0     C29594   2.804  10.448   5.637  0.1901 -0.3602  1.1933
  940MOL0     C29595   2.758  10.549   5.536 -0.0271 -0.3995  0.5332
  940MOL0     C29596   2.833  10.683   5.531  0.7068 -1.0967  1.1016
  940MOL0     C29597   2.783  10.765   5.408  0.7330  0.5557 -0.5888
  940MOL0     C29598   2.835  10.749   5.268  0.8805  0.2031  0.1340
  940MOL0     N29599   2.760  10.838   5.173 -0.8186  0.1599  0.0889
  940MOL0     C29600   2.763  10.973   5.187 -0.3599  0.6101 -0.1086
  940MOL0     C29601   2.691  11.034   5.084 -0.7253  0.8841  0.3630
  940MOL0     C29602   2.658  11.177   5.055 -0.6676  0.2270  0.6035
  940MOL0     C29603   2.712  11.214   4.909 -0.4814 -0.1956 -0.6570
  940MOL0     C29604   2.866  11.209   4.902 -0.0850  0.8181 -0.1740
  940MOL0     C29605   2.921  11.230   4.758  0.0309 -0.7667  0.0373
  940MOL0     O29606   2.877  11.350   4.694  0.6299 -0.3808 -0.4219
  940MOL0     C29607   2.906  11.476   4.732 -0.4717 -0.7018  0.5653
  940MOL0     C29608   2.997  11.520   4.822  0.2195  0.2500  0.0016
  940MOL0     C29609   3.020  11.658   4.839  0.1823  0.0311  0.2314
  940MOL0     C29610   3.124  11.699   4.933 -0.4785 -0.5532  0.0320
  940MOL0     C29611   2.964  11.751   4.738  0.5627 -0.6960 -0.3982
  940MOL0     C29612   2.975  11.899   4.737 -0.3023  0.4012  0.1322
  940MOL0     O29613   2.862  11.970   4.703 -0.2162  0.8206 -0.2845
  940MOL0     C29614   2.884  12.107   4.673  0.0531 -0.2653 -0.4814
  940MOL0     C29615   2.932  12.145   4.548 -0.6308  0.6590  1.1539
  940MOL0     C29616   2.942  12.278   4.522 -0.8168  0.1442 -0.6114
  940MOL0     C29617   2.919  12.371   4.614 -0.1913 -1.2341  0.4673
  940MOL0     O29618   2.939  12.504   4.603  0.1395  0.1563  0.0455
  940MOL0     C29619   2.973  12.567   4.474 -0.1957  0.5418 -0.5276
  940MOL0     C29620   2.998  12.708   4.486  1.0545  0.0367 -0.5814
  940MOL0     C29621   3.027  12.781   4.350 -0.1411 -0.1929  0.4322
  940MOL0     C29622   3.142  12.731   4.262 -0.5849  0.1784  0.4459
  940MOL0     C29623   3.170  12.826   4.144  0.0573 -0.0999 -0.1915
  940MOL0     C29624   3.301  12.801   4.070 -0.3255 -0.2201  0.6884
  940MOL0     C29625   3.302  12.875   3.941  0.0915  0.0051  0.5867
  940MOL0     C29626   3.303  13.027   3.942  1.0443  0.3457 -0.1237
  940MOL0    Cl29627   3.444  13.081   4.050  0.0969 -0.0994 -0.2764
  940MOL0     C29628   2.885  12.329   4.746  0.1257 -0.7738 -0.2234
  940MOL0     C29629   2.857  12.203   4.770 -0.9365  0.2029  0.4835
  940MOL0     O29630   3.093  11.944   4.751  0.0056 -0.2660  0.5294
  940MOL0     C29631   2.895  11.704   4.633 -0.3277  0.9730 -0.0261
  940MOL0     C29632   2.855  11.569   4.639 -0.1079 -0.0890  1.3080
  940MOL0     N29633   2.659  10.922   5.003 -0.3726 -0.4274 -0.4948
  940MOL0     N29634   2.704  10.809   5.055  0.2825  0.0073  0.1025
  940MOL0     C29635   3.034   9.841   5.854  0.5817 -0.0929  0.2180
  940MOL0     C29636   2.997   9.715   5.893 -0.4162 -0.9232  0.1668
  940MOL0     C29637   2.688   9.364   5.972 -0.5434  0.5477 -0.2352
  940MOL0     C29638   2.552   9.368   6.015 -0.0489  0.8466 -0.7141
  940MOL0     C29639   2.489   9.252   6.059 -0.1927  0.1739 -0.6011
  940MOL0     C29640   2.559   9.136   6.081 -0.1445 -0.0663  0.1290
  940MOL0     O29641   2.493   9.035   6.137  1.2300  0.3408  0.1680
  940MOL0     C29642   2.559   8.910   6.182  0.2888 -0.6502  0.1100
  940MOL0     C29643   2.480   8.818   6.274  0.3876 -0.1194 -0.3310
  940MOL0     C29644   2.411   8.898   6.385 -0.1088  0.7665  0.9226
  940MOL0     C29645   2.291   8.822   6.445  0.0028 -0.5581 -0.7497
  940MOL0     C29646   2.217   8.889   6.549 -0.6734 -0.6532  0.1301
  940MOL0     C29647   2.171   8.954   6.645 -0.1654 -0.2316  0.0260
  940MOL0     C29648   2.696   9.133   6.057  0.4126  0.1218  0.2372
  940MOL0     C29649   2.764   9.246   5.999  0.6833 -0.6441  0.8824
  940MOL0     C29650   2.905   9.239   5.971 -0.4981 -0.8744 -0.5607
  940MOL0     H29651   2.781   9.645   5.634  0.6991  0.8298 -0.9121
  940MOL0     H29652   2.853   9.856   5.556 -0.9411 -2.6419 -1.1824
  940MOL0     H29653   2.909  10.062   5.548  0.3624 -0.4375  0.6744
  940MOL0     H29654   3.062  10.142   5.553 -0.4277  0.5228 -0.8619
  940MOL0     H29655   2.835  10.199   5.754  0.6487  1.7509  1.9634
  940MOL0     H29656   2.999  10.272   5.747  0.3234 -1.3610  0.9918
  940MOL0     H29657   2.952  10.344   5.514  0.3040  0.7049 -0.6968
  940MOL0     H29658   2.790  10.260   5.533  2.1658 -0.3098 -1.9427
  940MOL0     H29659   2.730  10.417   5.711 -0.7479 -1.0157  0.0223
  940MOL0     H29660   2.888  10.490   5.694  1.7464  0.4489 -1.5032
  940MOL0     H29661   2.656  10.577   5.563  0.3141 -0.4389  1.9573
  940MOL0     H29662   2.758  10.492   5.443  0.5884  0.2404  0.1291
  940MOL0     H29663   2.813  10.745   5.618 -0.7158  0.1228 -0.0396
  940MOL0     H29664   2.941  10.674   5.517  0.7881  2.0237 -1.1216
  940MOL0     H29665   2.801  10.869   5.437 -0.5782  0.8703 -0.8408
  940MOL0     H29666   2.675  10.753   5.396  0.8169 -1.9417  0.5245
  940MOL0     H29667   2.936  10.790   5.261  0.7504  0.3455 -1.2796
  940MOL0     H29668   2.837  10.644   5.239  1.8700 -0.9303  3.8317
  940MOL0     H29669   2.810  11.024   5.270  0.1229 -0.9568  0.6273
  940MOL0     H29670   2.703  11.253   5.120  2.8771  0.9795 -2.3725
  940MOL0     H29671   2.549  11.178   5.060 -0.7269  3.3146  0.3578
  940MOL0     H29672   2.673  11.143   4.835 -1.8067  1.3379 -1.4998
  940MOL0     H29673   2.673  11.312   4.877  0.2415 -0.1120 -1.3323
  940MOL0     H29674   2.912  11.289   4.960  1.1823 -1.4617  2.2060
  940MOL0     H29675   2.907  11.111   4.931  3.6853  1.2372 -3.2311
  940MOL0     H29676   3.030  11.238   4.753  0.0442  0.8510  1.9083
  940MOL0     H29677   2.893  11.144   4.696 -1.5170 -0.8393  0.8052
  940MOL0     H29678   3.050  11.445   4.880 -0.7235  0.3650  1.0335
  940MOL0     H29679   3.153  11.609   4.988 -2.9064 -1.8449 -0.6714
  940MOL0     H29680   3.074  11.772   4.999 -0.4411  1.1194 -1.7000
  940MOL0     H29681   3.209  11.732   4.873 -0.2484 -4.5678 -2.1796
  940MOL0     H29682   2.941  12.065   4.476 -2.4020  1.0835  0.4121
  940MOL0     H29683   2.994  12.319   4.436  0.7823 -0.1879  0.1654
  940MOL0     H29684   3.065  12.521   4.438 -1.0655 -2.4750  0.7714
  940MOL0     H29685   2.907  12.558   4.387  1.4669  0.8347 -1.8738
  940MOL0     H29686   2.914  12.759   4.535  1.6713  0.5720 -0.0505
  940MOL0     H29687   3.089  12.720   4.546  2.0974  3.0180 -2.5369
  940MOL0     H29688   3.069  12.877   4.380  5.5183 -2.1383 -0.1282
  940MOL0     H29689   2.941  12.792   4.283  0.6955  2.6225 -0.2851
  940MOL0     H29690   3.107  12.639   4.214 -1.7369  1.5866 -1.5397
  940MOL0     H29691   3.230  12.711   4.325 -1.7387  0.0406  2.0883
  940MOL0     H29692   3.081  12.820   4.081  0.2966  0.2382 -0.5655
  940MOL0     H29693   3.185  12.929   4.178 -1.5257 -0.6578  2.4740
  940MOL0     H29694   3.320  12.696   4.049 -0.3713 -0.2572  0.8290
  940MOL0     H29695   3.385  12.821   4.137 -0.7606  3.2318  0.3685
  940MOL0     H29696   3.213  12.840   3.887  0.5387  0.2855 -0.3538
  940MOL0     H29697   3.395  12.839   3.896 -1.3190 -3.7080  0.2895
  940MOL0     H29698   3.209  13.076   3.971  1.1512 -0.5151  1.8951
  940MOL0     H29699   3.323  13.062   3.841 -2.8840  0.8389 -0.8783
  940MOL0     H29700   2.871  12.410   4.817  2.8802  1.1769 -1.7003
  940MOL0     H29701   2.821  12.184   4.870  0.8026  1.6363  1.4481
  940MOL0     H29702   2.860  11.782   4.565  1.8307  5.9507  3.8994
  940MOL0     H29703   2.793  11.546   4.553  0.4045  3.8311 -0.2835
  940MOL0     H29704   3.119   9.893   5.897  1.4531 -1.0983 -0.2592
  940MOL0     H29705   3.042   9.664   5.977  2.8027  0.8106 -0.3754
  940MOL0     H29706   2.484   9.452   6.011 -0.4792  0.4926 -0.9101
  940MOL0     H29707   2.383   9.272   6.064  0.2307  4.7973 -3.9445
  940MOL0     H29708   2.589   8.859   6.090 -3.8802  1.5283 -2.7782
  940MOL0     H29709   2.655   8.941   6.225 -0.0233  0.8037 -0.1839
  940MOL0     H29710   2.537   8.736   6.319 -3.8203 -3.3086 -0.2563
  940MOL0     H29711   2.412   8.755   6.216  1.4299 -2.5287  0.8991
  940MOL0     H29712   2.486   8.923   6.460  0.9068  0.9411 -0.1116
  940MOL0     H29713   2.380   8.994   6.340 -2.0266 -0.5910 -0.8373
  940MOL0     H29714   2.299   8.721   6.487 -0.3649 -1.0673 -1.8806
  940MOL0     H29715   2.224   8.812   6.360  3.3462  4.1693 -4.5438
  940MOL0     H29716   2.133   9.003   6.732  2.4892 -1.2621  1.9019
  940MOL0     H29717   2.758   9.046   6.077  0.2634  0.4965  2.5705
  940MOL0     H29718   2.945   9.139   5.988  1.0701  0.0034  1.3813
  940MOL0     H29719   2.919   9.287   5.874  0.2198  1.4241  0.5882
  940MOL0     H29720   2.951   9.313   6.038  0.5158 -0.9829 -1.1174
  941MOL0     O29721   8.100   2.222   0.622  0.2034  0.0208  0.2249
  941MOL0     C29722   8.173   2.131   0.584  0.5662  0.0883 -0.1409
  941MOL0     O29723   8.130   1.997   0.564  0.5090 -0.7162  0.0747
  941MOL0     C29724   7.993   1.991   0.546 -0.6316  0.3926 -0.4965
  941MOL0     C29725   7.943   1.995   0.418  0.2824  1.0612 -0.4433
  941MOL0     C29726   7.807   1.967   0.398 -0.4637 -0.2928 -0.5707
  941MOL0     C29727   7.723   1.961   0.509  0.6024  0.1703 -0.2969
  941MOL0     O29728   7.587   1.944   0.487  0.4269 -0.7028  0.2809
  941MOL0     C29729   7.518   1.862   0.592 -0.1972  0.4252 -0.2904
  941MOL0     C29730   7.391   1.822   0.527  1.1201 -0.0222  0.0320
  941MOL0     C29731   7.291   1.943   0.502  0.4235  0.0288  0.8426
  941MOL0     C29732   7.157   1.900   0.429 -0.4630 -0.0119 -0.1442
  941MOL0     C29733   7.082   2.031   0.399  0.5675  0.3423 -0.3844
  941MOL0     C29734   6.930   1.992   0.384 -0.8135 -0.1632 -0.0951
  941MOL0     C29735   6.907   1.892   0.270 -0.5627  0.1238 -0.1154
  941MOL0     C29736   6.754   1.859   0.260 -0.6909  0.3932  0.5792
  941MOL0     N29737   6.701   1.779   0.377  0.9872  0.1232 -0.1425
  941MOL0     C29738   6.707   1.647   0.394 -0.6351 -0.1580  0.7113
  941MOL0     C29739   6.638   1.612   0.502  0.5361  0.4145 -0.4183
  941MOL0     C29740   6.609   1.473   0.564  1.1754  0.1996 -0.1451
  941MOL0     C29741   6.551   1.380   0.456 -0.0750 -0.3586  0.3614
  941MOL0     C29742   6.548   1.244   0.516  0.4861 -0.4612  0.2951
  941MOL0     C29743   6.473   1.136   0.432  0.4402 -0.1378  0.1980
  941MOL0     O29744   6.511   1.105   0.293 -0.1761  0.0198 -0.3662
  941MOL0     C29745   6.642   1.072   0.269 -0.4793 -0.4645 -0.2267
  941MOL0     C29746   6.729   1.012   0.354 -0.6189  0.4381 -0.5921
  941MOL0     C29747   6.852   0.966   0.315 -1.2944 -0.1185 -0.6047
  941MOL0     C29748   6.936   0.891   0.413 -0.3089 -0.0617  0.9792
  941MOL0     C29749   6.894   0.976   0.179 -0.0316  0.2835  0.0439
  941MOL0     C29750   7.016   0.922   0.130  0.1814  0.2132  0.6717
  941MOL0     O29751   7.115   1.015   0.128 -0.4608  0.7413  0.1293
  941MOL0     C29752   7.231   1.010   0.048  0.0511 -0.9415  0.2289
  941MOL0     C29753   7.323   1.118   0.049  0.0224  0.1186 -0.4465
  941MOL0     C29754   7.430   1.133  -0.036 -0.0716  0.6331  0.1912
  941MOL0     C29755   7.444   1.035  -0.136 -0.7370  0.7013 -0.6562
  941MOL0     O29756   7.560   1.028  -0.212 -0.3230 -0.1083  0.1501
  941MOL0     C29757   7.687   1.073  -0.160 -0.6655 -0.7453  0.2108
  941MOL0     C29758   7.794   0.975  -0.214 -0.1013  0.2603  0.0961
  941MOL0     C29759   7.929   1.005  -0.159  0.3949 -0.7011 -0.1490
  941MOL0     C29760   8.043   0.961  -0.255 -0.0997 -0.1247  0.4121
  941MOL0     C29761   8.181   0.957  -0.201  0.6998 -0.2688  0.2771
  941MOL0     C29762   8.223   0.854  -0.103  0.6506 -0.2964  0.0465
  941MOL0     C29763   8.370   0.862  -0.089  0.1686  0.0667  0.5900
  941MOL0     C29764   8.425   0.770   0.012 -0.2930  0.2597 -0.9232
  941MOL0    Cl29765   8.602   0.794   0.050  0.3935  0.1192 -1.1277
  941MOL0     C29766   7.362   0.920  -0.138 -0.4187 -0.2020 -0.4869
  941MOL0     C29767   7.258   0.905  -0.046 -0.6597  0.1924 -1.0202
  941MOL0     O29768   7.029   0.804   0.095  0.6570 -0.1936  0.3628
  941MOL0     C29769   6.805   1.042   0.095  0.1406 -1.1880  0.3535
  941MOL0     C29770   6.681   1.090   0.133  0.0641 -0.2110 -0.7591
  941MOL0     N29771   6.599   1.733   0.551 -0.1172  0.3035 -0.5155
  941MOL0     N29772   6.633   1.833   0.482 -0.2044  0.3616  0.1083
  941MOL0     C29773   7.775   1.958   0.641  1.1388 -0.9602  0.5359
  941MOL0     C29774   7.906   1.965   0.659 -0.1730  0.0297  0.2595
  941MOL0     C29775   8.311   2.169   0.570 -0.3034 -0.2987  0.4075
  941MOL0     C29776   8.355   2.306   0.567  0.6615  0.3260  0.3174
  941MOL0     C29777   8.490   2.347   0.558  0.0157  0.5879  0.2127
  941MOL0     C29778   8.588   2.250   0.536  0.4433 -0.8616  0.5515
  941MOL0     O29779   8.714   2.298   0.524  0.2345  0.8278 -0.0027
  941MOL0     C29780   8.818   2.229   0.444  0.5865 -0.4141  0.4833
  941MOL0     C29781   8.905   2.119   0.514  0.7733 -0.1117 -0.9615
  941MOL0     C29782   9.040   2.088   0.451 -0.6704  0.1091  0.1646
  941MOL0     C29783   9.126   2.007   0.552 -0.2821  0.9813 -0.3978
  941MOL0     C29784   9.271   1.990   0.508  0.6967 -0.2119  0.1870
  941MOL0     C29785   9.375   1.995   0.455  0.4012 -0.6023  1.2840
  941MOL0     C29786   8.552   2.120   0.514  0.1535 -1.4811 -0.7691
  941MOL0     C29787   8.412   2.089   0.528 -0.3245  0.0678 -0.1922
  941MOL0     C29788   8.391   1.936   0.483 -0.5833 -0.4954  0.5687
  941MOL0     H29789   8.015   2.018   0.340  1.9473  3.2190  1.5835
  941MOL0     H29790   7.768   1.951   0.298 -2.4022 -1.8134  0.3608
  941MOL0     H29791   7.501   1.925   0.680 -1.2856  0.0030 -0.1938
  941MOL0     H29792   7.577   1.770   0.598  1.6897  1.4349 -2.0117
  941MOL0     H29793   7.401   1.758   0.439  2.1371 -0.8783  0.7487
  941MOL0     H29794   7.346   1.760   0.605  1.6897 -1.4681 -0.7563
  941MOL0     H29795   7.272   1.997   0.595 -0.0595  0.1318  0.6858
  941MOL0     H29796   7.337   2.017   0.436  0.1223  0.5265  1.1877
  941MOL0     H29797   7.177   1.851   0.333  0.2736  0.9181 -0.4783
  941MOL0     H29798   7.112   1.828   0.498  2.0166 -1.0687  0.4757
  941MOL0     H29799   7.129   2.078   0.313  1.8096 -1.9257 -1.0179
  941MOL0     H29800   7.113   2.103   0.476  1.2686 -1.7007  1.3515
  941MOL0     H29801   6.899   1.953   0.482 -1.0523 -0.2369 -0.1985
  941MOL0     H29802   6.880   2.088   0.368  3.1269  1.6631 -3.1917
  941MOL0     H29803   6.961   1.800   0.294  0.0343  0.4433 -0.2147
  941MOL0     H29804   6.940   1.924   0.171 -1.0129  2.3502  0.4144
  941MOL0     H29805   6.684   1.942   0.246 -0.8375  0.7224  2.8112
  941MOL0     H29806   6.749   1.796   0.171  1.0543  0.7544  0.1900
  941MOL0     H29807   6.750   1.575   0.324 -3.3360 -0.0698 -1.1834
  941MOL0     H29808   6.541   1.484   0.649  0.8023 -0.0687 -0.4046
  941MOL0     H29809   6.697   1.419   0.602  1.5370  0.9678  0.1256
  941MOL0     H29810   6.447   1.409   0.439  0.2893  1.2848  0.8090
  941MOL0     H29811   6.606   1.370   0.362  0.2382  4.9912 -0.2956
  941MOL0     H29812   6.648   1.209   0.541  0.4975 -0.5758  0.0940
  941MOL0     H29813   6.500   1.254   0.614  2.9400  2.4720  1.3624
  941MOL0     H29814   6.473   1.045   0.492  1.4286 -0.4845 -0.3010
  941MOL0     H29815   6.366   1.157   0.435  0.5889  1.4564 -2.3766
  941MOL0     H29816   6.696   0.997   0.456 -1.8986  0.6150 -0.9649
  941MOL0     H29817   6.986   0.801   0.376  3.3988  1.9336  0.6520
  941MOL0     H29818   6.866   0.865   0.493 -1.2463 -3.7929 -0.8565
  941MOL0     H29819   7.011   0.959   0.456 -1.6684  0.7630  2.1161
  941MOL0     H29820   7.310   1.194   0.125 -1.3619  2.5603 -2.9186
  941MOL0     H29821   7.499   1.216  -0.042 -0.9331  1.3570 -0.0157
  941MOL0     H29822   7.714   1.172  -0.198 -2.3143 -1.6812 -3.8962
  941MOL0     H29823   7.692   1.071  -0.051 -0.6321 -1.4692  0.2021
  941MOL0     H29824   7.774   0.871  -0.191 -0.5383  0.1681 -0.6509
  941MOL0     H29825   7.802   0.981  -0.323 -1.9191  1.6831 -0.0213
  941MOL0     H29826   7.948   0.960  -0.060  0.2411  1.7980  1.0983
  941MOL0     H29827   7.945   1.113  -0.151  2.3347 -0.9745  0.4134
  941MOL0     H29828   8.035   1.026  -0.343 -0.9736  0.0640  0.6256
  941MOL0     H29829   8.018   0.861  -0.288  1.9838 -0.2644 -0.9370
  941MOL0     H29830   8.249   0.944  -0.286  2.2235  0.5512  1.3194
  941MOL0     H29831   8.218   1.047  -0.150  4.0744 -1.9215  1.0457
  941MOL0     H29832   8.200   0.754  -0.143  1.8048 -1.0615  1.2239
  941MOL0     H29833   8.175   0.857  -0.005 -1.2478  0.0483 -0.8283
  941MOL0     H29834   8.384   0.968  -0.063 -1.0221  0.2790  0.4337
  941MOL0     H29835   8.414   0.839  -0.186  0.8749 -0.1721  0.9562
  941MOL0     H29836   8.410   0.680  -0.049  2.3766 -2.2232  1.7682
  941MOL0     H29837   8.361   0.753   0.098 -3.8344 -0.7615 -3.5286
  941MOL0     H29838   7.384   0.831  -0.197  0.3972  0.1315 -0.7039
  941MOL0     H29839   7.188   0.823  -0.061 -2.5572  1.6211 -0.3816
  941MOL0     H29840   6.841   1.061  -0.006 -0.0186  0.5301  0.5942
  941MOL0     H29841   6.611   1.140   0.067  0.6921 -0.6420 -1.7712
  941MOL0     H29842   7.715   1.967   0.731  1.0760  0.9210  0.3368
  941MOL0     H29843   7.940   1.945   0.760 -0.4957  0.9679  0.5617
  941MOL0     H29844   8.293   2.395   0.571  0.9524  0.4745  2.0098
  941MOL0     H29845   8.515   2.452   0.554 -1.0694  0.8291 -0.6111
  941MOL0     H29846   8.784   2.179   0.353  2.6163  0.0573 -0.6010
  941MOL0     H29847   8.885   2.313   0.426 -1.5117  1.8139  2.4500
  941MOL0     H29848   8.853   2.023   0.519  1.8942 -0.6496  2.1405
  941MOL0     H29849   8.912   2.154   0.617  0.4149 -3.8582  0.4841
  941MOL0     H29850   9.020   2.029   0.362  0.0984 -0.2997  0.2521
  941MOL0     H29851   9.089   2.181   0.421 -0.5641 -0.3042 -0.9746
  941MOL0     H29852   9.074   1.913   0.567  0.0643  0.0720 -3.9576
  941MOL0     H29853   9.142   2.057   0.648 -1.0926 -1.9919  1.3900
  941MOL0     H29854   9.478   2.004   0.425  0.6869  1.0409  2.6010
  941MOL0     H29855   8.623   2.044   0.484  1.7444 -1.3131  2.2096
  941MOL0     H29856   8.375   1.874   0.571 -0.4414 -2.1055 -0.5039
  941MOL0     H29857   8.300   1.925   0.423 -2.0173  1.0895  2.3197
  941MOL0     H29858   8.478   1.900   0.428  0.1783  3.3592 -1.1024
  942MOL0     O29859   0.367   4.462   8.261 -0.2256 -0.3024  0.3371
  942MOL0     C29860   0.373   4.529   8.157  0.4148 -0.3805  0.0806
  942MOL0     O29861   0.481   4.592   8.097  0.0018 -0.2464 -0.1212
  942MOL0     C29862   0.605   4.603   8.171  0.5646 -0.0503 -0.0385
  942MOL0     C29863   0.653   4.730   8.209 -0.2614 -0.5003 -0.4242
  942MOL0     C29864   0.768   4.735   8.294 -0.7771  0.3370 -0.9340
  942MOL0     C29865   0.840   4.616   8.320  0.2780 -0.0821 -0.7682
  942MOL0     O29866   0.957   4.612   8.389  0.1383 -0.1175  0.4309
  942MOL0     C29867   0.976   4.728   8.475 -0.2784  0.3365  0.1155
  942MOL0     C29868   1.105   4.700   8.540 -0.5040 -0.6794 -0.6119
  942MOL0     C29869   1.231   4.721   8.456 -0.2951  0.0315  0.1831
  942MOL0     C29870   1.351   4.666   8.526  0.2043 -0.4338  0.2207
  942MOL0     C29871   1.479   4.676   8.440 -0.0808 -0.1461 -0.1886
  942MOL0     C29872   1.609   4.614   8.503  0.7024  0.5872 -0.3228
  942MOL0     C29873   1.650   4.690   8.633 -0.0933  0.3242 -0.3929
  942MOL0     C29874   1.777   4.636   8.687 -0.6948 -0.6161 -0.4241
  942MOL0     N29875   1.798   4.641   8.832 -0.3413 -0.5541  0.2224
  942MOL0     C29876   1.763   4.749   8.906  0.8176  1.2574  0.4932
  942MOL0     C29877   1.822   4.722   9.026  0.4669  0.1240  0.0878
  942MOL0     C29878   1.834   4.831   9.121 -0.4514 -1.3070 -0.3918
  942MOL0     C29879   1.730   4.821   9.233  0.9810 -1.2487  0.1507
  942MOL0     C29880   1.746   4.926   9.340 -0.5428 -0.9965  0.1643
  942MOL0     C29881   1.878   4.905   9.417 -0.6275 -0.3174 -0.8198
  942MOL0     O29882   1.909   5.028   9.491  0.0219 -0.4879 -0.3056
  942MOL0     C29883   1.919   5.039   9.623 -1.0993 -0.3049  0.3091
  942MOL0     C29884   2.017   5.133   9.677  0.7142  0.5538 -0.3356
  942MOL0     C29885   2.017   5.160   9.813  0.3151  0.4740 -1.1731
  942MOL0     C29886   2.114   5.274   9.861 -1.3582 -0.6556 -0.9740
  942MOL0     C29887   1.929   5.093   9.906 -0.4918  0.3539 -0.2021
  942MOL0     C29888   1.919   5.132  10.053 -0.6199  0.0054 -0.2312
  942MOL0     O29889   1.788   5.136  10.097 -0.1298  0.5468 -0.6870
  942MOL0     C29890   1.775   5.193  10.219  0.2539  0.2055 -0.1012
  942MOL0     C29891   1.755   5.107  10.325 -1.3218  0.2439 -0.6195
  942MOL0     C29892   1.753   5.145  10.467  0.4304  0.1928 -0.2220
  942MOL0     C29893   1.767   5.281  10.482  0.3486  0.1819  0.1786
  942MOL0     O29894   1.771   5.322  10.609 -0.2874 -0.2100 -0.3568
  942MOL0     C29895   1.664   5.415  10.659  0.2469  0.9118  0.2101
  942MOL0     C29896   1.725   5.502  10.764 -0.2344 -0.3231  0.4450
  942MOL0     C29897   1.620   5.588  10.832  0.1384  0.5764 -0.5992
  942MOL0     C29898   1.610   5.736  10.782 -1.4585 -0.0758 -0.7052
  942MOL0     C29899   1.511   5.814  10.867  0.0489 -0.5917 -0.2496
  942MOL0     C29900   1.475   5.948  10.804  1.0489 -0.4031 -0.2734
  942MOL0     C29901   1.358   6.010  10.891  0.5037  0.1485  0.1791
  942MOL0     C29902   1.286   6.124  10.823  0.8036  0.4262 -0.6828
  942MOL0    Cl29903   1.302   6.273  10.913  0.2952  0.0688 -0.1440
  942MOL0     C29904   1.760   5.368  10.372 -0.4593 -0.3173  0.3661
  942MOL0     C29905   1.768   5.331  10.237 -0.4934  0.5527  0.0540
  942MOL0     O29906   2.014   5.171  10.117  0.1694 -0.3965  0.0836
  942MOL0     C29907   1.837   4.995   9.854 -0.9956 -1.2985 -0.7407
  942MOL0     C29908   1.823   4.982   9.710 -0.3166  1.2004  0.6044
  942MOL0     N29909   1.893   4.604   9.010  0.0269 -0.4384  0.0287
  942MOL0     N29910   1.871   4.548   8.898 -0.6092  0.5781  0.0324
  942MOL0     C29911   0.794   4.491   8.269 -1.2075 -0.1086 -0.4404
  942MOL0     C29912   0.677   4.483   8.194  0.2297  0.0492 -0.2471
  942MOL0     C29913   0.245   4.540   8.078 -0.5564  0.0473  0.4875
  942MOL0     C29914   0.153   4.432   8.067  0.6441 -0.4251  0.4016
  942MOL0     C29915   0.031   4.459   8.005 -0.0390  0.4024  0.5524
  942MOL0     C29916  -0.009   4.579   7.952  0.4703 -0.4268  0.4516
  942MOL0     O29917  -0.138   4.580   7.904 -0.1793  0.4935 -0.0563
  942MOL0     C29918  -0.191   4.707   7.851 -0.7512  0.4081  0.2829
  942MOL0     C29919  -0.157   4.729   7.701 -0.7000  0.0359  0.8099
  942MOL0     C29920  -0.283   4.772   7.623  0.8682  0.4824  0.6452
  942MOL0     C29921  -0.371   4.665   7.565 -0.0901  0.6525 -0.3331
  942MOL0     C29922  -0.311   4.532   7.588 -0.2758  1.0031 -0.5010
  942MOL0     C29923  -0.269   4.418   7.587 -0.0488 -0.1259  0.1887
  942MOL0     C29924   0.086   4.673   7.938  0.4969 -0.3149  0.3892
  942MOL0     C29925   0.212   4.661   8.005 -0.4697 -0.2261  0.8334
  942MOL0     C29926   0.303   4.792   7.997  0.1347 -0.1502 -0.0456
  942MOL0     H29927   0.597   4.818   8.179 -2.6145 -1.6224  0.5032
  942MOL0     H29928   0.798   4.832   8.334 -3.1895  0.9870 -0.5158
  942MOL0     H29929   0.900   4.742   8.552  0.1478  0.9286  0.4478
  942MOL0     H29930   0.987   4.826   8.427 -1.3975  0.8244  0.8108
  942MOL0     H29931   1.129   4.764   8.625  0.0525 -1.9339  0.2082
  942MOL0     H29932   1.106   4.598   8.581  0.4922 -0.7354 -0.7330
  942MOL0     H29933   1.215   4.678   8.357  1.6182 -1.6101  0.5349
  942MOL0     H29934   1.243   4.829   8.442 -2.8380  0.0916 -2.4255
  942MOL0     H29935   1.371   4.727   8.614  2.7442  0.3636 -0.7983
  942MOL0     H29936   1.343   4.563   8.562  1.2542 -1.6846 -2.7625
  942MOL0     H29937   1.504   4.779   8.417  1.0130 -0.3640 -0.0139
  942MOL0     H29938   1.455   4.618   8.350  0.3507  0.1163 -0.4738
  942MOL0     H29939   1.578   4.510   8.517 -0.8754  0.8096 -1.7352
  942MOL0     H29940   1.686   4.625   8.426  0.3210  1.7626 -0.5586
  942MOL0     H29941   1.573   4.684   8.710  4.2513 -0.7345  4.3701
  942MOL0     H29942   1.667   4.789   8.590 -2.5265  0.1925 -1.8624
  942MOL0     H29943   1.794   4.532   8.660 -1.6181 -1.8646  3.1633
  942MOL0     H29944   1.852   4.701   8.642 -0.4861  1.9373  3.1243
  942MOL0     H29945   1.708   4.835   8.869 -3.0585 -1.6341 -1.1483
  942MOL0     H29946   1.824   4.920   9.059 -0.0408 -0.1847  1.0911
  942MOL0     H29947   1.937   4.848   9.154 -0.7033  2.6037 -1.2008
  942MOL0     H29948   1.631   4.823   9.186 -0.5127  1.6087  3.0725
  942MOL0     H29949   1.734   4.722   9.279 -2.6016 -1.6111 -0.0149
  942MOL0     H29950   1.745   5.026   9.296 -0.9829 -0.8475  0.5046
  942MOL0     H29951   1.662   4.928   9.410 -0.0917  1.3091  0.7061
  942MOL0     H29952   1.861   4.827   9.492 -1.2679  0.6311  0.0497
  942MOL0     H29953   1.967   4.883   9.357 -0.4346 -3.3897  0.3876
  942MOL0     H29954   2.090   5.172   9.606  0.0328  2.8725  0.1436
  942MOL0     H29955   2.160   5.327   9.777 -1.9363  1.2532 -0.1410
  942MOL0     H29956   2.201   5.246   9.920 -0.4305 -1.0577 -2.4698
  942MOL0     H29957   2.067   5.355   9.917  2.2537  0.0006  1.4621
  942MOL0     H29958   1.741   5.003  10.297  0.7211 -0.5071  0.9227
  942MOL0     H29959   1.726   5.083  10.552 -0.6960 -2.0402 -2.1029
  942MOL0     H29960   1.623   5.485  10.586 -2.1994  2.4111  2.8173
  942MOL0     H29961   1.578   5.362  10.703 -0.0200  1.4457  0.3315
  942MOL0     H29962   1.769   5.435  10.838  2.2633  1.5681  0.8201
  942MOL0     H29963   1.811   5.557  10.724  0.5926 -0.1961  2.3028
  942MOL0     H29964   1.660   5.594  10.934  2.8143  0.9622 -1.5814
  942MOL0     H29965   1.521   5.542  10.836  0.5878 -0.3258  1.1562
  942MOL0     H29966   1.584   5.735  10.676  1.3955  0.9397 -1.5086
  942MOL0     H29967   1.709   5.783  10.788 -1.8428  0.5726  1.1755
  942MOL0     H29968   1.420   5.755  10.874 -2.4303  3.0984  2.7356
  942MOL0     H29969   1.541   5.825  10.972  0.4969 -0.3202 -0.4008
  942MOL0     H29970   1.468   5.954  10.695  2.1221  2.0958 -0.2571
  942MOL0     H29971   1.558   6.018  10.818  0.4917 -0.1515  2.4747
  942MOL0     H29972   1.400   6.031  10.990  1.1210 -0.3735  0.0403
  942MOL0     H29973   1.291   5.924  10.900  3.3897 -2.3087  0.0082
  942MOL0     H29974   1.178   6.103  10.820  0.5759  1.5910 -3.0820
  942MOL0     H29975   1.323   6.129  10.720  0.4886  2.9693 -0.7250
  942MOL0     H29976   1.754   5.474  10.397 -2.1891 -0.4389  0.6421
  942MOL0     H29977   1.768   5.398  10.152 -1.7208 -1.6298 -1.7743
  942MOL0     H29978   1.774   4.933   9.917 -0.1357 -1.8446 -0.3989
  942MOL0     H29979   1.740   4.929   9.664  1.4772 -0.5618 -0.7490
  942MOL0     H29980   0.858   4.406   8.288  0.0755  1.3189  2.1149
  942MOL0     H29981   0.647   4.392   8.143 -1.6816 -0.0079  0.8652
  942MOL0     H29982   0.189   4.339   8.110  0.9420  1.3842  4.5108
  942MOL0     H29983  -0.043   4.380   8.012  0.5356 -0.0047  5.3140
  942MOL0     H29984  -0.293   4.666   7.858  0.3829 -3.0478 -0.9062
  942MOL0     H29985  -0.181   4.798   7.911 -2.5286 -1.0864  3.0985
  942MOL0     H29986  -0.111   4.636   7.668 -1.6130 -0.0054 -0.4019
  942MOL0     H29987  -0.083   4.809   7.694  0.3024 -0.8748  0.8886
  942MOL0     H29988  -0.355   4.827   7.685  0.2566 -1.7966  2.0800
  942MOL0     H29989  -0.250   4.829   7.536  1.0203  0.5189  0.7270
  942MOL0     H29990  -0.408   4.668   7.462  0.3515 -1.8284 -0.6200
  942MOL0     H29991  -0.463   4.659   7.623  1.2270 -2.0860  1.6891
  942MOL0     H29992  -0.235   4.317   7.571  3.4900  1.2594 -2.5493
  942MOL0     H29993   0.058   4.762   7.883 -1.4693 -2.2209 -1.8853
  942MOL0     H29994   0.391   4.784   7.933  0.5036 -1.0706  0.5526
  942MOL0     H29995   0.235   4.870   7.961  0.1418 -0.3719 -0.5480
  942MOL0     H29996   0.329   4.825   8.098 -1.7478  3.8055 -0.6603
  943MOL0     O29997   9.294   8.502   8.925  0.5566  0.0980 -0.3035
  943MOL0     C29998   9.388   8.486   8.853 -0.1042  0.2781  0.1246
  943MOL0     O29999   9.401   8.390   8.758 -0.6011  0.6358 -0.5773
  943MOL0     C30000   9.348   8.267   8.794  0.0768  0.7474 -0.3859
  943MOL0     C30001   9.403   8.188   8.895  0.6046  0.7802 -1.6046
  943MOL0     C30002   9.339   8.080   8.954 -0.4141  0.1413 -1.0839
  943MOL0     C30003   9.205   8.046   8.916  0.1806 -0.3174 -0.1956
  943MOL0     O30004   9.144   7.933   8.964 -0.3216 -0.8106 -0.1851
  943MOL0     C30005   9.020   7.965   9.035 -0.3565  0.9146 -0.0356
  943MOL0     C30006   8.973   7.825   9.090 -0.1731  0.5220  0.8192
  943MOL0     C30007   8.886   7.851   9.213  1.5156 -0.0709  0.4659
  943MOL0     C30008   8.734   7.896   9.193  0.2832 -0.7044  0.5831
  943MOL0     C30009   8.681   7.974   9.314 -0.0229  0.1574 -0.1950
  943MOL0     C30010   8.529   8.006   9.286 -0.1837  0.4626 -1.3772
  943MOL0     C30011   8.464   8.090   9.399 -0.4387 -0.9796  0.3264
  943MOL0     C30012   8.320   8.126   9.369 -0.2231  0.4767 -0.2968
  943MOL0     N30013   8.266   8.211   9.472  0.5147  0.1693  0.4592
  943MOL0     C30014   8.213   8.161   9.590 -0.2141 -1.0011 -0.3780
  943MOL0     C30015   8.174   8.270   9.653 -0.1427 -1.1428 -0.6081
  943MOL0     C30016   8.127   8.279   9.792  0.9843 -1.2039  0.7286
  943MOL0     C30017   8.229   8.328   9.890  0.3276 -0.0261 -0.2975
  943MOL0     C30018   8.185   8.348  10.038 -0.3445  0.7692  0.0642
  943MOL0     C30019   8.285   8.321  10.150  0.3410  0.0041 -0.0261
  943MOL0     O30020   8.303   8.181  10.156 -0.0779  0.4923 -0.0136
  943MOL0     C30021   8.420   8.133  10.205  0.5188 -0.0330 -0.3077
  943MOL0     C30022   8.465   8.013  10.154 -0.2300  0.3741  0.2967
  943MOL0     C30023   8.589   7.953  10.188 -0.2081 -0.4252 -0.1475
  943MOL0     C30024   8.622   7.816  10.121  0.1051 -0.8054  0.8585
  943MOL0     C30025   8.667   8.027  10.285 -0.5793 -0.7192 -0.2907
  943MOL0     C30026   8.808   7.978  10.330  0.7719 -0.2340 -0.4927
  943MOL0     O30027   8.868   7.897  10.250 -0.2111  1.0125  0.1647
  943MOL0     C30028   8.964   7.802  10.299  0.6975  0.3455 -0.6350
  943MOL0     C30029   9.060   7.754  10.204  0.2679 -1.1016 -0.0143
  943MOL0     C30030   9.156   7.664  10.237 -0.5230 -0.8002 -0.3494
  943MOL0     C30031   9.160   7.612  10.368 -0.2256  0.0232  0.4497
  943MOL0     O30032   9.241   7.504  10.415  0.0615 -0.0873 -0.4977
  943MOL0     C30033   9.336   7.453  10.326 -0.5512  0.9293 -0.5704
  943MOL0     C30034   9.402   7.325  10.393 -0.2605 -0.5098 -0.0349
  943MOL0     C30035   9.526   7.262  10.332 -0.5746  0.3026 -0.1100
  943MOL0     C30036   9.649   7.296  10.418  0.0491 -0.1736 -0.4241
  943MOL0     C30037   9.772   7.210  10.366 -0.7843  0.3303 -0.3253
  943MOL0     C30038   9.903   7.277  10.327  0.6879 -0.4026 -0.0792
  943MOL0     C30039   9.884   7.400  10.243  0.1853 -0.3458  0.5295
  943MOL0     C30040  10.018   7.463  10.211 -0.2612 -0.5563  0.7676
  943MOL0    Cl30041  10.026   7.575  10.070  1.1608  0.1735 -0.2769
  943MOL0     C30042   9.080   7.666  10.457  0.2208  0.6530 -0.2329
  943MOL0     C30043   8.981   7.759  10.434  0.1856  0.3471 -0.4918
  943MOL0     O30044   8.839   8.015  10.443  0.3366  0.4512 -0.4686
  943MOL0     C30045   8.620   8.148  10.348  0.3680  0.1889 -0.5438
  943MOL0     C30046   8.504   8.208  10.296  0.0911  0.0577 -0.4630
  943MOL0     N30047   8.199   8.380   9.578 -0.0524  0.1532  0.0997
  943MOL0     N30048   8.254   8.344   9.470  0.3427  0.9041  0.0746
  943MOL0     C30049   9.158   8.118   8.804  0.8804 -0.6978 -0.5075
  943MOL0     C30050   9.226   8.228   8.737  0.0640 -0.5636 -1.0935
  943MOL0     C30051   9.492   8.596   8.855 -0.4684  0.2578  0.1707
  943MOL0     C30052   9.523   8.657   8.727  0.2427 -0.2063  0.1387
  943MOL0     C30053   9.604   8.768   8.715 -0.3664 -0.4029 -0.0930
  943MOL0     C30054   9.657   8.824   8.828 -0.2128 -0.1843 -0.3877
  943MOL0     O30055   9.737   8.940   8.822 -0.4698  0.3849  0.3077
  943MOL0     C30056   9.672   9.066   8.818  0.7585 -0.4121 -1.2787
  943MOL0     C30057   9.559   9.072   8.721  0.1048 -0.1623  0.3082
  943MOL0     C30058   9.522   9.221   8.713 -0.1567  0.4935 -0.1321
  943MOL0     C30059   9.400   9.229   8.623 -0.2463 -0.3862  0.7556
  943MOL0     C30060   9.358   9.362   8.579  0.0311  0.1975  0.0967
  943MOL0     C30061   9.314   9.471   8.548  0.7405  0.8807  0.2472
  943MOL0     C30062   9.632   8.766   8.952 -0.2039 -0.7521  0.0884
  943MOL0     C30063   9.556   8.651   8.966 -0.4437 -0.2614 -0.3802
  943MOL0     C30064   9.543   8.600   9.109  0.0869  0.7653 -0.3030
  943MOL0     H30065   9.504   8.210   8.928 -0.6229  4.2677  0.3038
  943MOL0     H30066   9.383   8.033   9.041 -2.1895 -0.4055 -0.4274
  943MOL0     H30067   8.945   8.019   8.976 -0.4415 -0.6560 -1.4553
  943MOL0     H30068   9.053   8.032   9.114  3.7198  0.7918 -1.3791
  943MOL0     H30069   8.911   7.768   9.021  0.9695 -1.8612  1.6449
  943MOL0     H30070   9.057   7.764   9.127 -1.3056  0.5312  3.6824
  943MOL0     H30071   8.891   7.756   9.268 -0.1602 -0.8367 -0.6227
  943MOL0     H30072   8.940   7.926   9.271  0.5153  1.6889 -0.7797
  943MOL0     H30073   8.737   7.968   9.111  1.2499  0.9372  1.9981
  943MOL0     H30074   8.666   7.811   9.175 -1.4764  1.1919 -2.5445
  943MOL0     H30075   8.744   8.064   9.317  1.6875 -1.0056  0.1424
  943MOL0     H30076   8.696   7.912   9.403  0.6235 -3.6057 -2.6889
  943MOL0     H30077   8.508   8.067   9.198  1.2395  1.6566 -0.9355
  943MOL0     H30078   8.472   7.913   9.282 -3.9789  2.4590  0.7653
  943MOL0     H30079   8.510   8.190   9.404 -1.3750 -0.5674  1.0078
  943MOL0     H30080   8.471   8.040   9.496  0.7051 -1.2206  0.1293
  943MOL0     H30081   8.319   8.185   9.276 -2.3106  1.6889  0.4416
  943MOL0     H30082   8.260   8.038   9.344  4.2001 -2.9239 -0.3052
  943MOL0     H30083   8.216   8.055   9.613 -1.6983 -1.6233 -2.6606
  943MOL0     H30084   8.088   8.181   9.821 -3.3246  0.1699  0.4130
  943MOL0     H30085   8.047   8.354   9.796  1.5924 -0.5758  1.7463
  943MOL0     H30086   8.316   8.262   9.884 -0.8869 -1.5915 -1.3025
  943MOL0     H30087   8.262   8.429   9.864 -0.3887  0.8700  2.0626
  943MOL0     H30088   8.138   8.447  10.042 -2.4915 -0.2045  0.8705
  943MOL0     H30089   8.098   8.285  10.059  0.2431  0.5789  2.1876
  943MOL0     H30090   8.376   8.376  10.126  1.4183 -1.7114 -0.0421
  943MOL0     H30091   8.240   8.353  10.245 -1.0952  0.2161 -0.7466
  943MOL0     H30092   8.408   7.950  10.086 -1.7023 -1.1535  2.7847
  943MOL0     H30093   8.588   7.729  10.177 -1.3791 -1.6483 -1.2495
  943MOL0     H30094   8.727   7.804  10.091  0.6887  1.8386  1.5348
  943MOL0     H30095   8.567   7.792  10.030 -0.2527  0.1986  0.7905
  943MOL0     H30096   9.055   7.795  10.103 -1.4657 -1.4991 -0.1218
  943MOL0     H30097   9.230   7.635  10.164  0.3773 -1.1377  0.6690
  943MOL0     H30098   9.298   7.432  10.225  1.0418  0.7123 -1.1527
  943MOL0     H30099   9.416   7.527  10.325  0.0700  0.2984  0.3898
  943MOL0     H30100   9.406   7.344  10.501  0.9522  2.6299 -0.5151
  943MOL0     H30101   9.318   7.255  10.390  0.0921 -0.9964  0.9282
  943MOL0     H30102   9.545   7.298  10.230  0.7454  0.6562  0.2369
  943MOL0     H30103   9.519   7.153  10.322  0.7354  0.2813 -1.0736
  943MOL0     H30104   9.623   7.264  10.519 -1.6786 -0.1206 -0.8170
  943MOL0     H30105   9.665   7.404  10.422 -0.0905 -0.1010 -1.4491
  943MOL0     H30106   9.779   7.136  10.445 -1.2129  1.2047  0.5563
  943MOL0     H30107   9.743   7.157  10.274  2.4499 -2.5634  0.1269
  943MOL0     H30108   9.960   7.201  10.271 -0.4385 -1.3295 -0.0072
  943MOL0     H30109   9.969   7.292  10.413 -0.0676 -0.7802  0.5770
  943MOL0     H30110   9.826   7.471  10.303  3.1191  1.9334  0.9024
  943MOL0     H30111   9.827   7.372  10.154 -1.7306  0.0057  1.5841
  943MOL0     H30112  10.094   7.385  10.204  0.8641  0.4904  1.1490
  943MOL0     H30113  10.046   7.523  10.297 -0.4062 -0.4898  0.7688
  943MOL0     H30114   9.082   7.635  10.561  0.1152 -3.0709 -1.2179
  943MOL0     H30115   8.929   7.788  10.525 -1.6584 -0.9601 -1.0859
  943MOL0     H30116   8.677   8.196  10.427 -2.8898  1.5858  1.1468
  943MOL0     H30117   8.472   8.298  10.348  0.2564 -1.0881  1.7355
  943MOL0     H30118   9.064   8.077   8.770  0.6028 -0.9446  0.5215
  943MOL0     H30119   9.188   8.296   8.662  3.7201  0.6103 -2.0772
  943MOL0     H30120   9.489   8.623   8.630  1.0559 -1.3939  0.2453
  943MOL0     H30121   9.627   8.805   8.616 -0.3111 -0.6306 -0.1665
  943MOL0     H30122   9.634   9.086   8.918 -0.2676  0.1511 -1.7608
  943MOL0     H30123   9.751   9.137   8.791  1.2112 -0.5259 -0.3091
  943MOL0     H30124   9.475   9.010   8.754  0.3292 -0.6773 -0.0742
  943MOL0     H30125   9.584   9.021   8.628 -0.4208  1.0021 -0.4959
  943MOL0     H30126   9.493   9.270   8.807  0.1129  2.9082 -1.2239
  943MOL0     H30127   9.602   9.272   8.659 -0.6063 -0.1820 -1.4854
  943MOL0     H30128   9.315   9.170   8.657 -0.4907 -0.8123 -0.5325
  943MOL0     H30129   9.436   9.185   8.530 -1.8380  1.9330 -1.0924
  943MOL0     H30130   9.268   9.564   8.520 -1.0844  0.6017  2.0829
  943MOL0     H30131   9.689   8.806   9.036 -1.5969 -1.0171  1.1997
  943MOL0     H30132   9.561   8.493   9.117  0.1260  0.8318  0.5051
  943MOL0     H30133   9.609   8.667   9.166  2.6217 -0.6753 -1.3707
  943MOL0     H30134   9.439   8.609   9.139  0.4378  0.0253  1.1927
  944MOL0     O30135  11.356   4.600  10.047  0.3058  0.3374  0.5663
  944MOL0     C30136  11.444   4.523  10.066 -0.7689  0.7357  1.4621
  944MOL0     O30137  11.459   4.434  10.157  0.0351 -0.0255 -0.0762
  944MOL0     C30138  11.399   4.446  10.283 -0.7486  0.1665  0.6884
  944MOL0     C30139  11.355   4.329  10.348  0.3732 -0.0435  0.7949
  944MOL0     C30140  11.309   4.344  10.479  0.3480 -0.1048  0.2560
  944MOL0     C30141  11.298   4.470  10.541 -1.2862  0.7229 -0.2159
  944MOL0     O30142  11.240   4.473  10.668  0.6836  0.3010 -0.3441
  944MOL0     C30143  11.205   4.602  10.709  0.2121  0.5012 -0.1675
  944MOL0     C30144  11.159   4.589  10.854  0.5803  0.6982 -0.5661
  944MOL0     C30145  11.116   4.716  10.920  0.4096  0.0911 -1.0698
  944MOL0     C30146  11.046   4.681  11.049  0.2168 -0.3000 -0.1101
  944MOL0     C30147  10.976   4.783  11.124  0.3142  0.2618  0.3495
  944MOL0     C30148  10.921   4.721  11.254  0.1679 -0.6618 -0.7182
  944MOL0     C30149  10.897   4.842  11.353 -0.2772  0.8480 -0.4812
  944MOL0     C30150  10.849   4.798  11.490  1.0231  0.6149 -0.1845
  944MOL0     N30151  10.814   4.922  11.560  1.0315  0.7265  0.1842
  944MOL0     C30152  10.684   4.952  11.597  0.6623 -1.0345 -0.2535
  944MOL0     C30153  10.694   5.068  11.660  0.2019 -1.0333  0.5697
  944MOL0     C30154  10.582   5.156  11.716 -0.1977 -0.0566 -0.0479
  944MOL0     C30155  10.522   5.098  11.847 -0.2759  0.4248  0.1238
  944MOL0     C30156  10.615   5.078  11.966  0.1587 -0.4423  0.5294
  944MOL0     C30157  10.684   4.938  11.955 -0.7700 -0.2626 -0.1183
  944MOL0     O30158  10.605   4.826  11.923  0.6892 -0.4371  0.6704
  944MOL0     C30159  10.664   4.705  11.936 -0.0455 -0.5842 -0.8427
  944MOL0     C30160  10.740   4.638  11.843  0.1292  0.2862  0.0506
  944MOL0     C30161  10.790   4.511  11.859 -0.2233  0.8482 -0.0662
  944MOL0     C30162  10.887   4.457  11.761  0.8399 -0.7079 -0.3657
  944MOL0     C30163  10.776   4.439  11.979 -0.1167 -1.1797  0.7400
  944MOL0     C30164  10.834   4.312  12.011  0.5433  0.5723 -0.2996
  944MOL0     O30165  10.819   4.272  12.135  0.3171  0.8148 -0.3465
  944MOL0     C30166  10.805   4.134  12.151  0.3578  0.8588  1.4802
  944MOL0     C30167  10.910   4.049  12.184  0.8611  0.9771 -0.2102
  944MOL0     C30168  10.885   3.915  12.207 -0.1229  0.7127  0.6880
  944MOL0     C30169  10.769   3.853  12.165 -0.4427  0.4789  0.0647
  944MOL0     O30170  10.763   3.715  12.179 -0.6709  0.3646  0.7456
  944MOL0     C30171  10.681   3.650  12.083 -0.3818  0.4261 -0.0668
  944MOL0     C30172  10.682   3.503  12.105  0.8460  0.4248 -0.3918
  944MOL0     C30173  10.823   3.450  12.130 -0.2634 -0.3214  0.1213
  944MOL0     C30174  10.915   3.481  12.013 -0.0439  0.4900  0.2227
  944MOL0     C30175  11.060   3.408  12.021  0.0209 -0.1554 -0.1882
  944MOL0     C30176  11.147   3.500  12.117  0.1584 -0.9496  0.8421
  944MOL0     C30177  11.196   3.631  12.037 -0.0851 -0.8034 -0.3392
  944MOL0     C30178  11.257   3.724  12.139  0.5063  0.4180  0.2845
  944MOL0    Cl30179  11.310   3.880  12.065  0.3020  0.4748  0.3464
  944MOL0     C30180  10.667   3.934  12.119  0.8663  0.6711  0.5395
  944MOL0     C30181  10.681   4.073  12.119  0.7612 -0.5617  0.9394
  944MOL0     O30182  10.886   4.247  11.928  0.0153  0.0469 -0.0211
  944MOL0     C30183  10.711   4.511  12.081  0.3612  0.3897  0.2062
  944MOL0     C30184  10.650   4.638  12.060  0.2361  1.3500  1.4467
  944MOL0     N30185  10.832   5.102  11.672 -0.5869 -0.0857  0.6868
  944MOL0     N30186  10.899   5.003  11.617 -0.0712  0.1068 -0.2122
  944MOL0     C30187  11.346   4.580  10.469  0.6347 -0.7133 -0.2571
  944MOL0     C30188  11.400   4.569  10.345 -0.1668  0.6474  1.0377
  944MOL0     C30189  11.541   4.497   9.953 -0.1399  0.4684  0.3987
  944MOL0     C30190  11.579   4.366   9.918  0.4627 -1.0825  0.5532
  944MOL0     C30191  11.676   4.353   9.815 -0.3320  0.6904  0.8189
  944MOL0     C30192  11.720   4.450   9.731 -0.1946 -0.1332 -0.1868
  944MOL0     O30193  11.809   4.436   9.627 -0.2383 -0.6655  0.2971
  944MOL0     C30194  11.817   4.310   9.556  0.5474  0.3294 -0.9019
  944MOL0     C30195  11.897   4.315   9.430  0.4313 -0.4945  0.2408
  944MOL0     C30196  11.872   4.206   9.323 -0.5771 -0.3416  0.5893
  944MOL0     C30197  11.930   4.071   9.375 -0.6484 -0.3385 -0.5854
  944MOL0     C30198  11.844   3.991   9.461  1.6501  0.5168 -0.1509
  944MOL0     C30199  11.753   3.935   9.518 -0.2334 -0.2353 -0.0030
  944MOL0     C30200  11.671   4.581   9.747 -0.9721  0.4604  0.2767
  944MOL0     C30201  11.574   4.597   9.853 -0.0634  0.6889  0.7875
  944MOL0     C30202  11.535   4.744   9.872  0.3015  0.2037 -0.0036
  944MOL0     H30203  11.358   4.229  10.307 -2.7816  0.3159 -0.5932
  944MOL0     H30204  11.288   4.263  10.548  0.6860  0.0225  0.5070
  944MOL0     H30205  11.127   4.655  10.653 -0.7439  1.2308  1.7690
  944MOL0     H30206  11.293   4.667  10.717  1.3111 -0.6928 -1.8088
  944MOL0     H30207  11.078   4.516  10.845 -0.3687  1.6223  0.2783
  944MOL0     H30208  11.238   4.544  10.916  0.3301  1.9112  0.6843
  944MOL0     H30209  11.210   4.766  10.943  1.0842 -2.2761  2.0485
  944MOL0     H30210  11.057   4.776  10.850 -0.6378 -1.0409 -1.1913
  944MOL0     H30211  10.969   4.605  11.031  1.5347 -1.4796 -0.9740
  944MOL0     H30212  11.124   4.649  11.118 -1.1739  1.4358  2.4211
  944MOL0     H30213  10.891   4.818  11.064 -0.6189 -1.1268  0.8247
  944MOL0     H30214  11.041   4.870  11.139  0.8028  0.0216 -0.2954
  944MOL0     H30215  10.829   4.665  11.239  0.0799 -0.6148 -0.3634
  944MOL0     H30216  10.998   4.664  11.306  2.4796  4.4106  2.2835
  944MOL0     H30217  10.817   4.905  11.312 -1.0007  0.1081 -0.2385
  944MOL0     H30218  10.990   4.893  11.382 -0.4523  0.7747  0.2306
  944MOL0     H30219  10.766   4.727  11.487 -0.6793  2.5308 -0.6849
  944MOL0     H30220  10.932   4.754  11.546  0.7729  1.6028  1.0014
  944MOL0     H30221  10.595   4.892  11.587  0.9649 -1.3814 -0.9148
  944MOL0     H30222  10.500   5.164  11.643 -0.7288 -2.9531  0.1201
  944MOL0     H30223  10.617   5.258  11.734 -2.9558  0.3939  4.0828
  944MOL0     H30224  10.447   5.172  11.876  1.6961  2.3137  0.7225
  944MOL0     H30225  10.464   5.007  11.830 -0.7299  0.1417  2.7920
  944MOL0     H30226  10.690   5.156  11.984 -1.5192  0.9259  1.9655
  944MOL0     H30227  10.562   5.080  12.061 -1.0568 -0.6416 -0.1195
  944MOL0     H30228  10.772   4.946  11.890  2.0969  0.5470  3.5172
  944MOL0     H30229  10.722   4.926  12.057  0.2118  0.8628 -0.3347
  944MOL0     H30230  10.761   4.681  11.745 -1.3247 -0.7996 -0.7798
  944MOL0     H30231  10.907   4.526  11.679 -1.2744  0.6222  0.1624
  944MOL0     H30232  10.865   4.356  11.724  0.7162  0.1622 -2.8627
  944MOL0     H30233  10.981   4.445  11.816 -0.4801  0.3048  2.2716
  944MOL0     H30234  11.004   4.095  12.212  1.0234  0.5458 -0.0403
  944MOL0     H30235  10.965   3.846  12.229  0.2418 -0.4408 -3.4241
  944MOL0     H30236  10.576   3.678  12.085 -0.2929  0.7365  0.6535
  944MOL0     H30237  10.704   3.684  11.982 -1.0441 -0.7822 -0.6497
  944MOL0     H30238  10.617   3.481  12.190  0.0686  0.5604 -0.9409
  944MOL0     H30239  10.646   3.453  12.015  2.3799  1.2938 -1.5383
  944MOL0     H30240  10.821   3.341  12.140  0.0909 -0.3597 -0.2255
  944MOL0     H30241  10.874   3.491  12.218  1.1684 -2.4682  0.3765
  944MOL0     H30242  10.941   3.587  12.003  2.2128  0.2635  2.6202
  944MOL0     H30243  10.876   3.443  11.918  3.7194 -5.4085  0.5289
  944MOL0     H30244  11.047   3.307  12.061 -1.7323  0.2555  0.4019
  944MOL0     H30245  11.117   3.390  11.929  0.3892 -1.2962  0.2464
  944MOL0     H30246  11.222   3.424  12.145  0.5273 -1.5016 -1.4178
  944MOL0     H30247  11.093   3.533  12.205  0.3495  2.9004 -0.3087
  944MOL0     H30248  11.110   3.690  12.004  1.0952  0.9034 -0.4787
  944MOL0     H30249  11.262   3.608  11.953  0.7599  1.4830 -0.3599
  944MOL0     H30250  11.343   3.681  12.190  1.1712 -0.2820 -1.3310
  944MOL0     H30251  11.193   3.736  12.226  0.5328 -3.3659  0.9841
  944MOL0     H30252  10.569   3.890  12.104  0.0970  2.5978 -0.4419
  944MOL0     H30253  10.589   4.128  12.105  2.0865  1.7285  0.6535
  944MOL0     H30254  10.691   4.477  12.183 -2.5459 -0.2483 -0.4717
  944MOL0     H30255  10.586   4.682  12.137 -0.4348  0.1948  1.5599
  944MOL0     H30256  11.328   4.674  10.521 -1.3010 -1.4312  0.4564
  944MOL0     H30257  11.450   4.650  10.292 -0.9099 -0.7892 -2.0800
  944MOL0     H30258  11.546   4.279   9.974 -1.0799  0.2516  1.8193
  944MOL0     H30259  11.715   4.252   9.805 -0.8000  0.2977  2.5255
  944MOL0     H30260  11.855   4.226   9.615  1.0347  2.5837  2.2626
  944MOL0     H30261  11.713   4.293   9.526 -0.0637  3.0418 -0.6172
  944MOL0     H30262  11.999   4.328   9.466 -0.5619  3.6699  2.1023
  944MOL0     H30263  11.870   4.410   9.384  2.6286  0.5519  0.9598
  944MOL0     H30264  11.765   4.191   9.306 -0.7596  1.0927  0.3330
  944MOL0     H30265  11.915   4.233   9.226 -0.6104 -0.9734  0.3952
  944MOL0     H30266  12.027   4.085   9.423 -0.5297 -0.6590 -0.7270
  944MOL0     H30267  11.952   4.006   9.290  4.8318 -0.3390  0.4562
  944MOL0     H30268  11.674   3.880   9.564  0.0025  0.5660  1.3981
  944MOL0     H30269  11.702   4.660   9.679 -0.9308  0.0379 -0.1951
  944MOL0     H30270  11.606   4.808   9.817 -0.8946  1.4529 -0.1519
  944MOL0     H30271  11.438   4.770   9.830  0.0836  4.1221  2.3375
  944MOL0     H30272  11.533   4.760   9.980 -0.4965 -2.6524  0.4745
  945MOL0     O30273   4.926   8.458   9.265 -0.5879  0.0281  0.0394
  945MOL0     C30274   4.932   8.524   9.371  0.0794  0.4184  0.0243
  945MOL0     O30275   5.015   8.619   9.400 -0.6918  0.6846  0.5069
  945MOL0     C30276   5.125   8.660   9.323 -0.0017  0.5709 -0.6346
  945MOL0     C30277   5.233   8.731   9.382  0.8028  0.2402  0.6616
  945MOL0     C30278   5.334   8.788   9.307  0.0687  0.0433 -0.7107
  945MOL0     C30279   5.353   8.769   9.169 -0.7825 -0.5144  0.9489
  945MOL0     O30280   5.458   8.830   9.106 -0.7569 -0.6617  0.4269
  945MOL0     C30281   5.475   8.806   8.965  0.3418  0.3428 -0.6458
  945MOL0     C30282   5.612   8.847   8.923  0.4553 -0.1233 -0.1694
  945MOL0     C30283   5.636   8.804   8.773 -0.2116  0.0665  0.3738
  945MOL0     C30284   5.777   8.801   8.746  0.4127 -1.0548 -0.6764
  945MOL0     C30285   5.798   8.749   8.602  0.0328 -0.0313  0.2698
  945MOL0     C30286   5.944   8.726   8.546  0.7161  0.1561  0.7573
  945MOL0     C30287   5.929   8.648   8.417 -0.4327  0.2121  0.7512
  945MOL0     C30288   6.071   8.617   8.357  0.3904  0.6666  0.1287
  945MOL0     N30289   6.054   8.533   8.238 -0.6665 -0.5632 -0.3983
  945MOL0     C30290   6.030   8.401   8.239 -0.4040 -0.5848  0.3894
  945MOL0     C30291   6.018   8.369   8.111 -0.8632 -0.3052 -0.0529
  945MOL0     C30292   5.970   8.239   8.065 -0.0074 -0.9621  0.3518
  945MOL0     C30293   6.027   8.173   7.931 -0.2159  0.0519  0.0573
  945MOL0     C30294   6.181   8.173   7.928  0.0403 -0.2723  0.2856
  945MOL0     C30295   6.240   8.087   8.035  0.3861  0.0300 -0.2047
  945MOL0     O30296   6.384   8.091   8.027 -0.4845 -0.6377  0.6396
  945MOL0     C30297   6.458   8.210   8.053  0.1690  0.1052 -0.3110
  945MOL0     C30298   6.412   8.333   8.112  0.3077 -0.3141 -0.4895
  945MOL0     C30299   6.492   8.452   8.120 -0.9391  0.3926 -0.2770
  945MOL0     C30300   6.413   8.572   8.173 -0.0207 -0.2923  0.4259
  945MOL0     C30301   6.634   8.448   8.092 -0.2574  0.2275  0.1032
  945MOL0     C30302   6.737   8.560   8.097 -0.4622  0.3533  1.2884
  945MOL0     O30303   6.860   8.536   8.032  0.7869 -0.9907  0.9088
  945MOL0     C30304   6.969   8.616   8.079 -0.2970  1.1556 -0.1121
  945MOL0     C30305   7.078   8.551   8.132  0.2368 -1.1462  0.0302
  945MOL0     C30306   7.193   8.624   8.159  0.2661 -0.3071 -0.6791
  945MOL0     C30307   7.197   8.757   8.132 -0.1515 -0.4352 -0.6059
  945MOL0     O30308   7.319   8.824   8.151 -0.4408  0.6728 -0.7697
  945MOL0     C30309   7.356   8.947   8.085 -0.1666  0.8172 -0.7949
  945MOL0     C30310   7.380   8.927   7.937 -0.4049  0.3256 -0.5826
  945MOL0     C30311   7.362   9.053   7.859 -0.3706  0.7820  0.5849
  945MOL0     C30312   7.401   9.026   7.714 -0.1706  0.0539 -0.5715
  945MOL0     C30313   7.378   9.144   7.626 -0.3714  0.0799  1.1309
  945MOL0     C30314   7.439   9.104   7.482  0.6868 -0.2701 -0.9115
  945MOL0     C30315   7.382   9.177   7.367  0.5827 -0.1726  0.4337
  945MOL0     C30316   7.439   9.311   7.342  0.3686 -0.4422  0.3841
  945MOL0    Cl30317   7.378   9.385   7.184 -0.3487 -0.2958 -0.5811
  945MOL0     C30318   7.080   8.819   8.077 -0.6686 -0.2582 -0.4482
  945MOL0     C30319   6.968   8.750   8.051  0.7053 -0.5415 -0.3125
  945MOL0     O30320   6.705   8.665   8.151  0.5549 -0.0922  1.1409
  945MOL0     C30321   6.685   8.325   8.035  0.3487  1.2053 -0.0084
  945MOL0     C30322   6.593   8.212   8.020  0.3821  0.5558  0.9452
  945MOL0     N30323   6.026   8.484   8.029  0.1886 -0.1146 -0.5998
  945MOL0     N30324   6.044   8.578   8.112 -0.3579  0.8801 -0.0943
  945MOL0     C30325   5.252   8.696   9.106  0.0874 -0.4691  0.1185
  945MOL0     C30326   5.142   8.645   9.183  0.0277  0.4025  0.6155
  945MOL0     C30327   4.837   8.500   9.476 -0.0900 -0.1316  0.2186
  945MOL0     C30328   4.869   8.528   9.612 -0.2621  0.7142  0.1819
  945MOL0     C30329   4.771   8.515   9.721 -0.0265  0.6357 -0.2788
  945MOL0     C30330   4.648   8.471   9.685  0.9147 -0.0149 -0.3770
  945MOL0     O30331   4.551   8.436   9.777  0.3031 -0.8502  0.2034
  945MOL0     C30332   4.561   8.468   9.924  0.7157 -0.9818  0.3103
  945MOL0     C30333   4.424   8.433   9.977  0.8422  0.1684  0.1574
  945MOL0     C30334   4.395   8.279   9.983 -0.0586 -0.0662 -0.4333
  945MOL0     C30335   4.246   8.247   9.984 -0.0136  0.1684 -0.3588
  945MOL0     C30336   4.165   8.318  10.075  1.0657 -0.4756 -0.3383
  945MOL0     C30337   4.081   8.363  10.149 -0.5054 -0.7677 -0.1193
  945MOL0     C30338   4.619   8.428   9.557  0.4217 -0.2199  0.7287
  945MOL0     C30339   4.708   8.446   9.452 -0.0909  0.1767  0.2127
  945MOL0     C30340   4.659   8.420   9.313  0.2447  0.1747 -0.0408
  945MOL0     H30341   5.212   8.744   9.487  1.8991 -1.2361  1.0997
  945MOL0     H30342   5.396   8.851   9.371  1.3842 -1.6069 -0.2950
  945MOL0     H30343   5.399   8.858   8.905 -0.8162  0.2340  0.6773
  945MOL0     H30344   5.466   8.698   8.951 -2.5980  0.4704 -0.3777
  945MOL0     H30345   5.628   8.955   8.927 -1.4251  0.3005 -2.0409
  945MOL0     H30346   5.683   8.809   8.996 -0.0254  2.0052  1.5063
  945MOL0     H30347   5.590   8.709   8.746  1.6356 -0.2563 -1.9721
  945MOL0     H30348   5.593   8.873   8.700 -0.0280  2.4070  2.3405
  945MOL0     H30349   5.814   8.904   8.753  0.6573 -1.0485 -1.7912
  945MOL0     H30350   5.818   8.739   8.825  0.4219 -0.5739 -0.2995
  945MOL0     H30351   5.759   8.832   8.542  0.6973 -1.3119 -2.0459
  945MOL0     H30352   5.739   8.661   8.577 -0.5765  0.8243 -1.4624
  945MOL0     H30353   5.995   8.821   8.527  0.1838  0.0933 -1.1822
  945MOL0     H30354   5.993   8.674   8.628 -1.6282 -2.2356  0.7892
  945MOL0     H30355   5.874   8.699   8.337  1.5177 -2.6416 -2.7058
  945MOL0     H30356   5.885   8.549   8.434 -0.8688 -0.2201 -2.3198
  945MOL0     H30357   6.121   8.709   8.323 -1.6256  2.0776  0.8009
  945MOL0     H30358   6.125   8.562   8.435 -2.8763 -2.0178  0.7514
  945MOL0     H30359   6.022   8.337   8.326  0.5373  2.5298  2.9302
  945MOL0     H30360   5.862   8.239   8.045 -0.2275  1.3865  1.2379
  945MOL0     H30361   5.986   8.165   8.143  2.7004 -1.5854 -0.6801
  945MOL0     H30362   5.977   8.077   7.913 -0.4043  0.4034 -1.4253
  945MOL0     H30363   5.993   8.231   7.845 -1.1486 -1.6246 -0.7608
  945MOL0     H30364   6.215   8.132   7.832  2.7950  0.2157  0.9694
  945MOL0     H30365   6.224   8.273   7.938 -0.1328 -0.2074  0.3852
  945MOL0     H30366   6.205   8.111   8.136  2.0614  0.7521  0.2455
  945MOL0     H30367   6.205   7.987   8.008 -1.3093  0.9121 -1.4994
  945MOL0     H30368   6.306   8.325   8.134 -1.1028 -0.5204 -5.9097
  945MOL0     H30369   6.481   8.647   8.214  0.9227 -0.0034 -1.5489
  945MOL0     H30370   6.353   8.526   8.252 -1.3555  0.8645  0.1191
  945MOL0     H30371   6.354   8.612   8.091 -1.4741 -0.6611  1.2627
  945MOL0     H30372   7.072   8.444   8.150  1.4356 -1.1320  0.6430
  945MOL0     H30373   7.285   8.573   8.187  1.7045 -0.1352 -4.4880
  945MOL0     H30374   7.271   9.013   8.106 -0.9348 -0.3273 -0.1923
  945MOL0     H30375   7.451   8.976   8.132 -0.3578 -1.0792  0.8942
  945MOL0     H30376   7.484   8.895   7.926  0.7087  2.3148  2.6277
  945MOL0     H30377   7.311   8.857   7.889 -0.9393  0.2882  0.2248
  945MOL0     H30378   7.420   9.138   7.894  1.1886 -0.2281  0.5520
  945MOL0     H30379   7.259   9.089   7.868 -0.5278 -0.0536  2.7993
  945MOL0     H30380   7.335   8.946   7.678  1.1168 -1.9513  1.2624
  945MOL0     H30381   7.506   8.995   7.719  0.7566  3.0689  0.5801
  945MOL0     H30382   7.277   9.186   7.630  0.3122  1.6671  4.0435
  945MOL0     H30383   7.443   9.227   7.652 -1.2037  1.1225  0.0043
  945MOL0     H30384   7.424   8.998   7.462  1.4499 -0.0809 -2.6767
  945MOL0     H30385   7.548   9.116   7.473  0.5233  0.7765 -1.7522
  945MOL0     H30386   7.276   9.195   7.387  0.8753  4.2563 -0.8523
  945MOL0     H30387   7.387   9.129   7.269 -2.1664 -0.2162  0.2377
  945MOL0     H30388   7.548   9.299   7.336  0.7944  0.6271  3.8580
  945MOL0     H30389   7.408   9.371   7.428  2.5342  1.6892 -0.2055
  945MOL0     H30390   7.075   8.925   8.056 -0.4189 -0.2902 -0.6748
  945MOL0     H30391   6.885   8.803   8.006  0.8778  2.5717  2.6843
  945MOL0     H30392   6.789   8.320   8.003  1.1584  0.8070  2.4433
  945MOL0     H30393   6.621   8.137   7.947 -1.2315  0.4147  0.4284
  945MOL0     H30394   5.247   8.685   8.998 -3.1008 -1.2133  0.2203
  945MOL0     H30395   5.064   8.603   9.121  1.9768 -3.7812  0.6693
  945MOL0     H30396   4.974   8.553   9.626  0.3131 -0.6150 -1.3934
  945MOL0     H30397   4.798   8.539   9.823 -0.5753  1.5468 -0.3387
  945MOL0     H30398   4.638   8.405   9.970  1.5132  0.6097  1.2381
  945MOL0     H30399   4.585   8.574   9.935  0.9762 -1.0411  0.3208
  945MOL0     H30400   4.351   8.484   9.913  2.6247  0.8392 -1.4458
  945MOL0     H30401   4.414   8.471  10.079  1.0921  2.9266 -0.7613
  945MOL0     H30402   4.438   8.224   9.899 -0.1561  1.4128 -1.4834
  945MOL0     H30403   4.446   8.240  10.071 -1.2001  1.0045  0.7518
  945MOL0     H30404   4.247   8.140  10.009  3.0932  0.1678 -0.1178
  945MOL0     H30405   4.208   8.264   9.883  2.7799  2.5050 -1.1359
  945MOL0     H30406   4.006   8.422  10.199 -0.1621  1.4343 -1.9906
  945MOL0     H30407   4.522   8.383   9.541  0.5798 -1.9867  3.8466
  945MOL0     H30408   4.556   8.395   9.341 -0.6674  3.6831  0.1750
  945MOL0     H30409   4.661   8.504   9.243 -1.2273  0.3081  0.0549
  945MOL0     H30410   4.701   8.326   9.277  1.2819  0.1779  1.0779
  946MOL0     O30411   2.029   5.021   6.093 -0.3107  0.4555  0.0165
  946MOL0     C30412   1.983   5.003   6.211  0.2765  0.2809 -0.6241
  946MOL0     O30413   2.049   5.027   6.326  0.0870  0.1653 -1.0860
  946MOL0     C30414   2.186   5.050   6.324  0.0267 -0.4726  0.3240
  946MOL0     C30415   2.228   5.140   6.417 -0.3399 -0.1885  0.1396
  946MOL0     C30416   2.358   5.182   6.420  0.0904  0.9754 -0.1968
  946MOL0     C30417   2.451   5.127   6.334 -0.4227  0.2876 -0.5735
  946MOL0     O30418   2.587   5.140   6.343 -0.2872 -0.1098 -0.1513
  946MOL0     C30419   2.642   5.183   6.466 -0.5769  0.1453 -0.3371
  946MOL0     C30420   2.791   5.130   6.476  1.0595  0.2351  0.7332
  946MOL0     C30421   2.806   4.982   6.483  0.0214  1.3309 -0.2587
  946MOL0     C30422   2.952   4.945   6.449 -0.1984  0.0393 -0.9066
  946MOL0     C30423   2.994   4.792   6.474 -0.7923  0.1827  0.5635
  946MOL0     C30424   3.125   4.769   6.402 -0.7498 -0.4187 -0.5604
  946MOL0     C30425   3.168   4.620   6.425 -0.5314  0.0908 -1.0224
  946MOL0     C30426   3.317   4.586   6.391 -0.7693  1.2371  1.0525
  946MOL0     N30427   3.411   4.649   6.484 -0.2607  0.0346 -0.1048
  946MOL0     C30428   3.396   4.730   6.591  0.3921 -0.7261 -0.4094
  946MOL0     C30429   3.526   4.752   6.636 -0.3439 -0.5355  0.5035
  946MOL0     C30430   3.566   4.808   6.768 -0.1151 -0.1930  0.5291
  946MOL0     C30431   3.715   4.791   6.807  0.1278 -0.1351 -0.0409
  946MOL0     C30432   3.807   4.884   6.732  0.8016 -0.3021  0.1774
  946MOL0     C30433   3.944   4.879   6.790 -0.8687 -0.2995 -0.0655
  946MOL0     O30434   3.932   4.931   6.925  0.0137 -0.1389 -0.2125
  946MOL0     C30435   4.029   4.897   7.018 -0.4521 -0.1881  0.2227
  946MOL0     C30436   4.142   4.818   6.982 -0.2648  0.8006 -0.5950
  946MOL0     C30437   4.229   4.773   7.088  0.0717 -0.3721  0.4391
  946MOL0     C30438   4.337   4.676   7.034  0.1925 -0.1177 -0.4377
  946MOL0     C30439   4.199   4.824   7.218 -1.2278 -0.8793  0.0948
  946MOL0     C30440   4.279   4.783   7.338  0.2165  0.2730  0.1037
  946MOL0     O30441   4.317   4.894   7.413 -0.0077  0.2360 -0.5167
  946MOL0     C30442   4.409   4.881   7.509  0.4156 -0.7965  0.4903
  946MOL0     C30443   4.533   4.890   7.470 -0.0412  0.0191  0.3330
  946MOL0     C30444   4.635   4.895   7.565 -0.1567  0.9119  0.0199
  946MOL0     C30445   4.605   4.869   7.704  0.6759 -0.1496 -0.5166
  946MOL0     O30446   4.690   4.877   7.812  0.5777  0.4098  0.4034
  946MOL0     C30447   4.819   4.929   7.770  0.8420  0.5447 -0.0197
  946MOL0     C30448   4.873   4.954   7.911  0.3309 -0.1620  0.6153
  946MOL0     C30449   4.993   5.042   7.914 -0.7202 -0.2155 -0.1085
  946MOL0     C30450   5.026   5.084   8.060 -0.3169 -0.7749 -0.0623
  946MOL0     C30451   5.153   5.176   8.069 -0.1664  0.1295 -0.2601
  946MOL0     C30452   5.182   5.213   8.218 -0.4439  0.2476 -0.5866
  946MOL0     C30453   5.320   5.288   8.205 -0.4328 -0.2235  0.1486
  946MOL0     C30454   5.364   5.320   8.344  0.2767  0.5583 -0.5078
  946MOL0    Cl30455   5.287   5.462   8.409 -0.0353  0.3087  0.5405
  946MOL0     C30456   4.475   4.843   7.736  0.6519  0.5614 -0.8079
  946MOL0     C30457   4.371   4.850   7.638 -0.2742  0.9852  0.4325
  946MOL0     O30458   4.327   4.669   7.342 -0.7026 -0.5170  0.1754
  946MOL0     C30459   4.090   4.911   7.238 -0.2535 -0.6914 -0.0802
  946MOL0     C30460   4.000   4.944   7.144  0.1151  1.2552 -1.2507
  946MOL0     N30461   3.609   4.687   6.551  0.3234  0.5025 -1.0104
  946MOL0     N30462   3.540   4.639   6.458 -0.4974 -0.4904 -0.7389
  946MOL0     C30463   2.414   5.031   6.241  0.1526 -0.6696 -0.1068
  946MOL0     C30464   2.281   4.991   6.231 -0.8479  0.3658 -0.1306
  946MOL0     C30465   1.847   4.952   6.232  0.2286  0.0404  0.3492
  946MOL0     C30466   1.819   4.845   6.139 -0.2952  0.3760 -0.3201
  946MOL0     C30467   1.702   4.772   6.152  1.2000 -0.5380 -0.1255
  946MOL0     C30468   1.600   4.807   6.247 -0.2235  0.9570  0.3391
  946MOL0     O30469   1.488   4.732   6.258  0.3366  0.2645  0.3823
  946MOL0     C30470   1.374   4.813   6.225  0.3430  1.0003 -0.0038
  946MOL0     C30471   1.239   4.749   6.255 -0.7750  0.6874  0.0125
  946MOL0     C30472   1.217   4.715   6.401 -0.5357  0.8446  0.5265
  946MOL0     C30473   1.088   4.636   6.427  0.3639 -0.5016 -0.3007
  946MOL0     C30474   0.961   4.719   6.420  0.0727  0.1507 -0.4738
  946MOL0     C30475   0.851   4.775   6.419  0.0943  0.8854  0.8655
  946MOL0     C30476   1.632   4.903   6.339  0.2133  0.3353 -0.4141
  946MOL0     C30477   1.752   4.982   6.332  0.5915  0.0746 -1.1430
  946MOL0     C30478   1.782   5.094   6.429  0.8576 -0.6568 -0.1787
  946MOL0     H30479   2.149   5.170   6.486  0.3627 -1.5085  1.5874
  946MOL0     H30480   2.384   5.252   6.499  1.2735 -1.6224  1.8784
  946MOL0     H30481   2.591   5.152   6.559  0.2357 -0.4197 -0.0711
  946MOL0     H30482   2.650   5.292   6.470  1.5108  0.0302  3.6040
  946MOL0     H30483   2.844   5.146   6.381 -0.6151 -1.6870 -0.6303
  946MOL0     H30484   2.832   5.192   6.556  0.1605  2.6406 -0.5479
  946MOL0     H30485   2.781   4.941   6.581  4.1854  0.0522  0.4552
  946MOL0     H30486   2.739   4.928   6.415 -1.6385  3.7653 -0.7106
  946MOL0     H30487   2.985   4.982   6.352 -0.8607  0.4565 -0.9787
  946MOL0     H30488   3.017   5.001   6.517  0.0993  1.8814 -2.6249
  946MOL0     H30489   2.912   4.725   6.445 -2.5192  2.1676  0.6083
  946MOL0     H30490   2.996   4.782   6.583  1.4237 -1.8184  0.4077
  946MOL0     H30491   3.117   4.788   6.295  2.5467 -1.9199 -1.2000
  946MOL0     H30492   3.203   4.831   6.446  0.3203 -2.5225  0.6784
  946MOL0     H30493   3.099   4.560   6.365 -0.3147 -2.3074  0.9540
  946MOL0     H30494   3.150   4.586   6.528  2.0246  1.0184 -0.1865
  946MOL0     H30495   3.340   4.482   6.366 -1.6538  0.7113  2.2971
  946MOL0     H30496   3.337   4.635   6.296 -2.5067  0.0942  0.0382
  946MOL0     H30497   3.301   4.745   6.642 -0.0133  1.0541 -1.5596
  946MOL0     H30498   3.500   4.751   6.833  0.9757 -0.3545  1.5341
  946MOL0     H30499   3.536   4.913   6.777 -0.0560 -0.0905 -0.3945
  946MOL0     H30500   3.735   4.810   6.913  0.7499  1.4912 -0.4212
  946MOL0     H30501   3.746   4.687   6.788 -1.4553 -0.6051 -0.2129
  946MOL0     H30502   3.805   4.871   6.623 -3.2232 -0.0824  0.0712
  946MOL0     H30503   3.766   4.984   6.751  1.0372 -0.2837  0.6025
  946MOL0     H30504   3.971   4.774   6.802  0.0099  0.1252  2.2420
  946MOL0     H30505   4.013   4.941   6.730 -0.4074 -0.0459  0.7168
  946MOL0     H30506   4.157   4.777   6.883  0.0080 -1.6619  0.4153
  946MOL0     H30507   4.301   4.572   7.039  0.5602 -0.2172  0.2555
  946MOL0     H30508   4.432   4.671   7.088 -0.9297  1.5277  1.8575
  946MOL0     H30509   4.356   4.697   6.928  2.0042 -0.7447 -0.2663
  946MOL0     H30510   4.544   4.901   7.362 -2.4895  1.1886  0.1490
  946MOL0     H30511   4.738   4.901   7.533  0.2351 -2.2441  0.3641
  946MOL0     H30512   4.880   4.856   7.715  3.9693  2.2553  0.9612
  946MOL0     H30513   4.808   5.030   7.730 -0.9313  0.6428  0.6271
  946MOL0     H30514   4.797   5.008   7.967 -1.1159  0.8925 -2.1420
  946MOL0     H30515   4.901   4.857   7.952 -0.9142 -0.5446  0.5766
  946MOL0     H30516   4.973   5.134   7.860  1.0839 -0.2867 -0.9760
  946MOL0     H30517   5.081   5.006   7.860  0.9563  3.8663 -0.4482
  946MOL0     H30518   5.055   4.994   8.116 -0.3898 -0.6653  0.1500
  946MOL0     H30519   4.939   5.131   8.106 -0.8209 -0.1686 -1.5505
  946MOL0     H30520   5.239   5.126   8.023  0.6852  2.6238 -1.5691
  946MOL0     H30521   5.133   5.267   8.011 -2.6755  0.4656  0.9862
  946MOL0     H30522   5.180   5.128   8.287 -0.6660  0.2017 -0.6487
  946MOL0     H30523   5.108   5.285   8.253 -2.7599 -1.2607 -2.1248
  946MOL0     H30524   5.316   5.376   8.141 -0.1307  1.5251  2.4019
  946MOL0     H30525   5.399   5.230   8.156 -0.0128  2.5822 -2.8506
  946MOL0     H30526   5.472   5.340   8.341  0.7952 -1.0185  2.6615
  946MOL0     H30527   5.347   5.234   8.409 -1.3529 -0.1424 -1.8076
  946MOL0     H30528   4.449   4.823   7.840  0.9124  0.0125 -0.8455
  946MOL0     H30529   4.268   4.824   7.660  0.2569  1.5261  4.4292
  946MOL0     H30530   4.082   4.953   7.338  2.7581  0.2427 -0.1263
  946MOL0     H30531   3.912   5.007   7.158 -2.0683 -1.5936 -1.1712
  946MOL0     H30532   2.488   4.975   6.184  0.7217 -4.7851  4.0779
  946MOL0     H30533   2.253   4.921   6.153  1.0960  0.1886 -0.7247
  946MOL0     H30534   1.896   4.819   6.068  0.4736 -1.4380  1.0845
  946MOL0     H30535   1.680   4.693   6.082 -0.1366 -0.2571 -0.0499
  946MOL0     H30536   1.382   4.909   6.277 -0.8319  1.5828 -0.8787
  946MOL0     H30537   1.387   4.837   6.119 -1.3806  0.9262 -0.2602
  946MOL0     H30538   1.238   4.652   6.206  0.1848 -0.0172  1.3033
  946MOL0     H30539   1.162   4.815   6.215  0.1757  0.8067 -1.7076
  946MOL0     H30540   1.302   4.655   6.435 -0.7095 -0.8149 -1.7810
  946MOL0     H30541   1.211   4.812   6.452  1.0163  1.6101 -0.6898
  946MOL0     H30542   1.097   4.588   6.525  0.7432  0.3344  0.0894
  946MOL0     H30543   1.071   4.551   6.360  2.0378 -0.1093 -1.3064
  946MOL0     H30544   0.755   4.824   6.422  0.9078  2.5673  0.5651
  946MOL0     H30545   1.562   4.910   6.421  0.5068  1.6068 -0.2544
  946MOL0     H30546   1.844   5.171   6.382 -0.5782  0.0483 -1.0149
  946MOL0     H30547   1.684   5.129   6.463 -0.5108 -2.3758 -2.1108
  946MOL0     H30548   1.837   5.072   6.521 -0.2602  0.2017  0.7371
  947MOL0     O30549   9.524   8.145   9.881 -0.0550  0.0605 -0.1705
  947MOL0     C30550   9.454   8.222   9.814  0.4560  0.2667 -1.0172
  947MOL0     O30551   9.497   8.320   9.738 -0.3225 -0.8217 -0.5505
  947MOL0     C30552   9.631   8.373   9.754  0.7681  0.0263  0.4140
  947MOL0     C30553   9.695   8.383   9.878 -0.2207 -0.4908  0.2201
  947MOL0     C30554   9.819   8.440   9.892  0.4291 -0.2836  1.1564
  947MOL0     C30555   9.888   8.491   9.773 -0.3475  0.5078 -0.5783
  947MOL0     O30556  10.013   8.547   9.785  0.4919  0.2684  0.6564
  947MOL0     C30557  10.081   8.598   9.665 -0.0618  0.4850  0.0396
  947MOL0     C30558  10.213   8.660   9.694 -1.0045  0.4604  0.2875
  947MOL0     C30559  10.325   8.552   9.694 -0.4390  0.7474  0.1858
  947MOL0     C30560  10.468   8.593   9.755 -0.3578  0.1834  0.4545
  947MOL0     C30561  10.557   8.470   9.779 -0.9180  0.3491  0.8881
  947MOL0     C30562  10.589   8.390   9.644 -0.5288  0.3177 -0.7200
  947MOL0     C30563  10.716   8.307   9.657 -0.6297  0.8708 -0.0573
  947MOL0     C30564  10.704   8.193   9.755 -0.8268  0.0962  0.1363
  947MOL0     N30565  10.627   8.080   9.697 -0.0560  0.2301 -0.4457
  947MOL0     C30566  10.490   8.056   9.724 -0.5855  1.1773 -0.1200
  947MOL0     C30567  10.453   7.957   9.641 -0.2185 -0.0108  0.0476
  947MOL0     C30568  10.307   7.921   9.585  0.3323  0.4546 -0.1784
  947MOL0     C30569  10.198   7.931   9.690  0.3168 -0.6286  0.1523
  947MOL0     C30570  10.078   7.849   9.655 -0.1699 -0.2467  0.5033
  947MOL0     C30571   9.995   7.821   9.784  0.7037 -0.2126 -0.3831
  947MOL0     O30572   9.871   7.760   9.743 -0.1663  0.3022 -0.3788
  947MOL0     C30573   9.778   7.825   9.672 -1.0122 -0.9260 -0.1997
  947MOL0     C30574   9.707   7.763   9.576 -0.0746  0.4737  0.3349
  947MOL0     C30575   9.622   7.839   9.492 -1.1059 -0.6636 -1.0268
  947MOL0     C30576   9.555   7.765   9.385 -0.4936 -0.4159 -0.6765
  947MOL0     C30577   9.599   7.979   9.515 -0.5418 -0.0437 -0.6679
  947MOL0     C30578   9.516   8.061   9.436  0.6990  0.1021  0.1266
  947MOL0     O30579   9.403   8.102   9.500  0.5026 -0.1112  0.1992
  947MOL0     C30580   9.286   8.153   9.437  0.4557 -0.0116  1.5819
  947MOL0     C30581   9.276   8.231   9.317  0.7952  0.4902  0.0618
  947MOL0     C30582   9.149   8.268   9.264  0.0320 -0.3217 -0.2002
  947MOL0     C30583   9.027   8.227   9.333 -0.9991 -0.3916  0.3455
  947MOL0     O30584   8.902   8.264   9.281  0.2031  0.1372  0.3286
  947MOL0     C30585   8.886   8.411   9.276  0.9080 -0.1570 -0.2407
  947MOL0     C30586   8.854   8.484   9.405  0.0214 -0.6182  0.4300
  947MOL0     C30587   8.740   8.421   9.486  0.0957  0.0642  0.4795
  947MOL0     C30588   8.732   8.478   9.625 -0.6532 -0.6621  0.0052
  947MOL0     C30589   8.620   8.407   9.712 -0.1583 -0.2800  0.4270
  947MOL0     C30590   8.609   8.467   9.856  0.5125 -0.0720 -0.4868
  947MOL0     C30591   8.739   8.500   9.941  0.1360 -0.3016 -0.5064
  947MOL0     C30592   8.710   8.506  10.093 -0.2507  0.2479  0.0617
  947MOL0    Cl30593   8.571   8.617  10.116 -0.4016 -0.2211 -0.1932
  947MOL0     C30594   9.045   8.147   9.449  1.0033 -0.9442 -0.7818
  947MOL0     C30595   9.169   8.110   9.492 -0.3103  0.0055  0.7085
  947MOL0     O30596   9.544   8.084   9.319 -0.0538  0.1258 -0.6030
  947MOL0     C30597   9.665   8.033   9.623  0.0939 -0.2809 -0.2529
  947MOL0     C30598   9.755   7.960   9.698 -0.6136  0.0420 -1.0125
  947MOL0     N30599  10.563   7.920   9.572  0.0351  0.6075  0.0540
  947MOL0     N30600  10.668   7.981   9.612  0.7360 -0.5747 -0.4050
  947MOL0     C30601   9.816   8.473   9.651  0.5373  0.2576 -0.4119
  947MOL0     C30602   9.686   8.429   9.643  0.2633  1.0513  0.4737
  947MOL0     C30603   9.304   8.195   9.821 -0.1096 -0.0504  0.9139
  947MOL0     C30604   9.225   8.296   9.772  0.1288  0.1418 -1.1359
  947MOL0     C30605   9.086   8.291   9.783 -0.0711 -0.3616 -0.6873
  947MOL0     C30606   9.022   8.173   9.826  0.4644  0.9045  0.0349
  947MOL0     O30607   8.891   8.159   9.805 -0.8158  0.1646 -0.3311
  947MOL0     C30608   8.803   8.082   9.881 -0.1529  0.7023  0.0122
  947MOL0     C30609   8.775   7.937   9.815  0.8225  0.3734  0.1541
  947MOL0     C30610   8.682   7.948   9.702  0.6224 -0.2118  0.7013
  947MOL0     C30611   8.558   7.857   9.703  0.0759 -0.3109 -0.5166
  947MOL0     C30612   8.459   7.942   9.774 -0.3829 -0.8072 -0.7718
  947MOL0     C30613   8.377   7.995   9.841  1.3993  0.8167  0.1419
  947MOL0     C30614   9.106   8.078   9.882 -0.1482  0.1684 -0.4954
  947MOL0     C30615   9.241   8.080   9.877 -0.1650  0.2976  0.6194
  947MOL0     C30616   9.314   7.957   9.929 -0.8279 -0.9750  0.0401
  947MOL0     H30617   9.649   8.356   9.973  1.7623  1.0834  1.7043
  947MOL0     H30618   9.867   8.453   9.989  3.5120 -1.8984 -0.0172
  947MOL0     H30619  10.017   8.679   9.628 -1.9712 -1.2480 -0.6447
  947MOL0     H30620  10.079   8.523   9.585  2.9519  1.7936 -1.4478
  947MOL0     H30621  10.231   8.733   9.614 -1.5181  1.8167  1.3677
  947MOL0     H30622  10.218   8.710   9.791  2.8550 -2.4989  1.9350
  947MOL0     H30623  10.289   8.458   9.738  0.6178  1.1495  2.0521
  947MOL0     H30624  10.360   8.528   9.593  0.8699 -0.5319  0.8932
  947MOL0     H30625  10.519   8.674   9.703  0.6695  0.7538  2.2709
  947MOL0     H30626  10.447   8.627   9.857 -0.1489  0.3051  0.4569
  947MOL0     H30627  10.492   8.401   9.835 -2.3146 -1.3079 -2.4831
  947MOL0     H30628  10.649   8.490   9.834  0.4996 -1.8774 -0.4945
  947MOL0     H30629  10.511   8.321   9.610 -0.3899 -1.3494  2.0536
  947MOL0     H30630  10.598   8.464   9.563 -1.3129  0.3800 -0.7653
  947MOL0     H30631  10.794   8.377   9.686 -0.9884  1.7932 -1.2009
  947MOL0     H30632  10.744   8.271   9.557 -0.4175 -2.5881  1.1281
  947MOL0     H30633  10.805   8.158   9.777 -0.8712 -0.6045 -0.7534
  947MOL0     H30634  10.654   8.221   9.849 -2.5007  1.2058 -1.0240
  947MOL0     H30635  10.420   8.117   9.780  0.7562  0.4958  2.4152
  947MOL0     H30636  10.316   7.815   9.560 -0.8019  0.1216  0.7436
  947MOL0     H30637  10.282   7.965   9.488 -0.7469  3.3906  1.2857
  947MOL0     H30638  10.239   7.912   9.789  0.1809 -1.6995  0.0176
  947MOL0     H30639  10.148   8.028   9.699 -2.2949 -1.7497 -1.0177
  947MOL0     H30640  10.003   7.899   9.591  0.4492  0.0491 -0.0035
  947MOL0     H30641  10.111   7.758   9.605  3.3454  1.5170 -0.6756
  947MOL0     H30642  10.045   7.759   9.859 -0.9665  0.1548  1.1089
  947MOL0     H30643   9.974   7.909   9.847  1.7590  0.0167 -0.3268
  947MOL0     H30644   9.736   7.658   9.572 -2.7170 -0.3575  0.6577
  947MOL0     H30645   9.592   7.791   9.286  2.2336 -0.9601  0.1023
  947MOL0     H30646   9.450   7.795   9.382 -0.0391  1.2220 -1.3430
  947MOL0     H30647   9.558   7.656   9.397  2.0189 -0.2534  0.9112
  947MOL0     H30648   9.371   8.251   9.269  0.9901 -1.5314 -0.5136
  947MOL0     H30649   9.154   8.334   9.178  2.2332  3.1742  2.3530
  947MOL0     H30650   8.971   8.454   9.222 -1.1649  1.3894 -2.4943
  947MOL0     H30651   8.805   8.423   9.204 -0.2650 -0.1653  1.0328
  947MOL0     H30652   8.949   8.485   9.458  1.1608 -3.4678 -1.3151
  947MOL0     H30653   8.827   8.587   9.381 -0.0425 -0.1106  2.4702
  947MOL0     H30654   8.766   8.315   9.489  1.4788  0.3679  0.0802
  947MOL0     H30655   8.652   8.420   9.421 -1.4948 -2.1794  2.5123
  947MOL0     H30656   8.714   8.586   9.619 -2.4169 -0.9438 -0.2182
  947MOL0     H30657   8.822   8.451   9.681  0.4052  0.9369 -0.8029
  947MOL0     H30658   8.528   8.439   9.662 -1.3814  1.1970  3.3402
  947MOL0     H30659   8.621   8.298   9.721 -0.3074 -0.3720 -0.6185
  947MOL0     H30660   8.540   8.397   9.904  2.0145 -2.0612 -1.1270
  947MOL0     H30661   8.555   8.563   9.857  1.7258  0.6410  0.5266
  947MOL0     H30662   8.765   8.602   9.911  0.0904  0.3255  1.4298
  947MOL0     H30663   8.822   8.429   9.931  0.7689  0.2798  0.4594
  947MOL0     H30664   8.804   8.531  10.142 -0.1553 -1.6214  0.9049
  947MOL0     H30665   8.681   8.402  10.112 -0.5379  0.3456  0.1535
  947MOL0     H30666   8.962   8.098   9.499  2.0383  0.3074  2.4230
  947MOL0     H30667   9.190   8.044   9.576  1.5780 -2.0441 -1.2672
  947MOL0     H30668   9.654   8.139   9.647  0.1902 -0.0453 -1.2074
  947MOL0     H30669   9.811   8.009   9.777 -0.8929  2.5146 -2.2285
  947MOL0     H30670   9.863   8.487   9.554  1.9504 -1.5354 -0.0504
  947MOL0     H30671   9.639   8.420   9.545  1.6432 -1.1885 -0.0787
  947MOL0     H30672   9.265   8.391   9.740 -2.8326  3.0352  2.7018
  947MOL0     H30673   9.020   8.375   9.764  0.2180  0.9619  3.3881
  947MOL0     H30674   8.837   8.068   9.984  0.8780  1.8399 -0.1486
  947MOL0     H30675   8.706   8.134   9.880 -2.4660 -3.2182 -1.5907
  947MOL0     H30676   8.727   7.877   9.893  0.9136  1.3922  1.0116
  947MOL0     H30677   8.869   7.884   9.798 -0.5753 -2.6857  1.1678
  947MOL0     H30678   8.655   8.053   9.690 -1.5435 -0.7843  0.2462
  947MOL0     H30679   8.734   7.918   9.610  2.1374  2.5904  0.5174
  947MOL0     H30680   8.592   7.767   9.754 -1.3726 -0.2700  0.5743
  947MOL0     H30681   8.516   7.829   9.606 -3.5457  3.3291 -0.3011
  947MOL0     H30682   8.290   8.028   9.895  0.8407 -1.2502  0.6063
  947MOL0     H30683   9.054   7.995   9.930 -0.1523 -0.0804 -0.9242
  947MOL0     H30684   9.252   7.894   9.993 -0.6349 -0.5610  0.6463
  947MOL0     H30685   9.360   7.901   9.847  0.4664  1.4072 -0.9594
  947MOL0     H30686   9.397   7.985   9.994 -1.3348 -0.4352  0.4636
  948MOL0     O30687  11.136  10.510   4.632  0.2144 -0.0464  1.4130
  948MOL0     C30688  11.139  10.615   4.575  0.4126  0.3777  0.0990
  948MOL0     O30689  11.035  10.677   4.507  0.8158  0.0549 -0.5277
  948MOL0     C30690  10.916  10.615   4.483  0.1549 -0.3981  0.6637
  948MOL0     C30691  10.830  10.568   4.583  0.3007  0.6178  0.3068
  948MOL0     C30692  10.709  10.534   4.534 -0.6360 -0.2377 -0.1049
  948MOL0     C30693  10.675  10.503   4.400  0.1328  0.7348  0.1199
  948MOL0     O30694  10.571  10.435   4.345 -0.0390  0.5085 -0.2629
  948MOL0     C30695  10.488  10.358   4.431 -0.1843 -0.7567  1.3386
  948MOL0     C30696  10.408  10.270   4.342 -0.3201  0.2974  0.0177
  948MOL0     C30697  10.345  10.156   4.423 -0.6004 -0.2889 -0.4880
  948MOL0     C30698  10.325  10.033   4.335 -0.3087 -0.5775 -0.2616
  948MOL0     C30699  10.292   9.908   4.410  0.4066  0.7733 -0.7059
  948MOL0     C30700  10.267   9.775   4.334  0.1384  0.2959  0.4165
  948MOL0     C30701  10.381   9.719   4.250 -0.7595  0.5769 -0.7112
  948MOL0     C30702  10.491   9.639   4.321 -0.6423 -0.9946 -0.3579
  948MOL0     N30703  10.586   9.569   4.237  0.7466 -0.4381 -0.2772
  948MOL0     C30704  10.717   9.540   4.268  0.4181 -0.5494 -0.9198
  948MOL0     C30705  10.753   9.446   4.188 -0.4430 -0.2312 -0.5656
  948MOL0     C30706  10.902   9.429   4.182  0.0238  0.1404 -0.0639
  948MOL0     C30707  10.954   9.374   4.050  0.7809  0.3690  0.2675
  948MOL0     C30708  11.100   9.343   4.061  0.1261 -0.3003 -0.8627
  948MOL0     C30709  11.157   9.303   3.924 -0.4155 -0.2671  0.3139
  948MOL0     O30710  11.131   9.164   3.898  0.3213 -0.6005  0.2380
  948MOL0     C30711  11.116   9.132   3.762  0.2621 -0.6301 -0.0212
  948MOL0     C30712  11.003   9.062   3.724  0.0877  0.3063 -0.1416
  948MOL0     C30713  10.977   9.039   3.587 -0.8731 -0.4042 -0.5060
  948MOL0     C30714  10.858   8.960   3.545  0.6042  0.2400 -0.1384
  948MOL0     C30715  11.061   9.105   3.497 -0.1862  0.5790  0.9539
  948MOL0     C30716  11.019   9.113   3.363 -0.1173  1.1177  0.0999
  948MOL0     O30717  11.084   9.036   3.267  0.7539 -0.4680 -0.2002
  948MOL0     C30718  11.069   9.079   3.133 -1.0572 -0.3695 -0.7733
  948MOL0     C30719  11.162   9.170   3.077 -0.5767 -0.1184  0.5394
  948MOL0     C30720  11.149   9.217   2.945 -0.7658 -0.6531 -0.1130
  948MOL0     C30721  11.049   9.165   2.872 -0.6868  0.1258  0.9165
  948MOL0     O30722  11.038   9.203   2.742 -0.1540 -0.2082  0.3949
  948MOL0     C30723  11.142   9.169   2.656 -0.7727  0.3459 -0.3045
  948MOL0     C30724  11.237   9.285   2.620 -0.8079  0.0740 -0.0875
  948MOL0     C30725  11.324   9.267   2.499  0.2542 -0.0302  0.2204
  948MOL0     C30726  11.419   9.154   2.513  0.0403 -0.4998  0.7974
  948MOL0     C30727  11.502   9.142   2.383 -0.1312 -0.7602  0.7538
  948MOL0     C30728  11.643   9.069   2.403  0.2544 -0.4168 -0.2563
  948MOL0     C30729  11.750   9.143   2.487  0.3665 -0.1337 -0.3992
  948MOL0     C30730  11.893   9.072   2.484 -0.0807 -0.6588  0.7868
  948MOL0    Cl30731  11.954   9.065   2.315  0.2909  0.2130  0.2345
  948MOL0     C30732  10.947   9.080   2.930 -0.8240  0.0359  0.1659
  948MOL0     C30733  10.959   9.033   3.062 -1.2599 -0.9084 -0.3908
  948MOL0     O30734  10.918   9.177   3.335  0.4318  0.0671 -0.2817
  948MOL0     C30735  11.184   9.163   3.530 -0.3101  0.6721  0.0886
  948MOL0     C30736  11.204   9.181   3.665  0.7887 -0.1868  0.3150
  948MOL0     N30737  10.654   9.422   4.099  0.0435 -1.0498 -0.2893
  948MOL0     N30738  10.551   9.487   4.128  0.4000  0.1381  0.3797
  948MOL0     C30739  10.769  10.547   4.310  0.0687  0.8035  0.1395
  948MOL0     C30740  10.884  10.605   4.348  0.5168  0.2322 -0.5047
  948MOL0     C30741  11.262  10.701   4.591 -0.7960  0.2574 -0.4167
  948MOL0     C30742  11.381  10.638   4.650 -1.0917  0.8764 -0.9234
  948MOL0     C30743  11.513  10.691   4.650 -0.3623  0.0431 -0.6066
  948MOL0     C30744  11.532  10.823   4.598  0.7095  0.7271  1.5400
  948MOL0     O30745  11.647  10.897   4.589  0.3195  1.0305  0.5265
  948MOL0     C30746  11.764  10.860   4.666  0.6693 -0.3344 -0.3218
  948MOL0     C30747  11.743  10.875   4.812  0.0229 -0.0026 -1.1060
  948MOL0     C30748  11.882  10.866   4.888 -0.5887 -0.3694  0.6256
  948MOL0     C30749  11.888  10.895   5.041 -0.0050 -0.5948 -0.1669
  948MOL0     C30750  12.025  10.864   5.096 -0.3308  0.2467 -0.1448
  948MOL0     C30751  12.135  10.834   5.130  0.4864 -0.3745  0.2147
  948MOL0     C30752  11.411  10.895   4.562 -0.7901  0.6465 -0.3291
  948MOL0     C30753  11.283  10.838   4.552  0.2659  0.2688 -0.4269
  948MOL0     C30754  11.170  10.936   4.504  0.2470  0.3036  0.0498
  948MOL0     H30755  10.862  10.571   4.686  0.0386  0.4363  0.3953
  948MOL0     H30756  10.642  10.499   4.612 -1.8574  3.7595  0.8674
  948MOL0     H30757  10.421  10.418   4.493 -0.0192  1.8107 -0.8027
  948MOL0     H30758  10.554  10.300   4.497  1.7242 -0.0577  0.1382
  948MOL0     H30759  10.334  10.328   4.286  2.5186  2.2743 -1.9868
  948MOL0     H30760  10.480  10.218   4.277  0.9199 -2.5412  3.3095
  948MOL0     H30761  10.419  10.122   4.496  1.1334  1.4242 -1.3458
  948MOL0     H30762  10.254  10.185   4.475 -0.4623 -1.1687  0.2803
  948MOL0     H30763  10.254  10.052   4.254  1.1607  0.7431 -1.3117
  948MOL0     H30764  10.420  10.013   4.284 -0.8414 -3.4997 -0.2981
  948MOL0     H30765  10.200   9.920   4.469  1.2628 -1.6272  1.3041
  948MOL0     H30766  10.372   9.895   4.482 -1.3606  0.1483  1.2440
  948MOL0     H30767  10.246   9.703   4.413  0.6746  1.2313  1.4490
  948MOL0     H30768  10.186   9.790   4.262  2.0669  4.0971 -1.2471
  948MOL0     H30769  10.435   9.798   4.197 -0.4868  2.1634  1.8009
  948MOL0     H30770  10.341   9.648   4.177 -0.5969  0.0290 -0.2758
  948MOL0     H30771  10.553   9.713   4.373 -0.1609 -0.7973 -1.1819
  948MOL0     H30772  10.440   9.572   4.390 -0.4267 -1.1811 -0.3774
  948MOL0     H30773  10.777   9.589   4.343 -0.7101  0.5468 -0.6988
  948MOL0     H30774  10.934   9.373   4.269  0.8493  1.6024  0.6066
  948MOL0     H30775  10.954   9.524   4.199  0.7300 -0.5936  2.1935
  948MOL0     H30776  10.901   9.287   4.011  0.7983  0.3764  0.2278
  948MOL0     H30777  10.945   9.459   3.982 -0.8391  0.1014  0.1135
  948MOL0     H30778  11.163   9.421   4.106  0.9401 -1.0453 -0.6889
  948MOL0     H30779  11.113   9.258   4.128  0.3851  2.2343  2.6030
  948MOL0     H30780  11.126   9.367   3.841  0.8389 -1.0054 -0.7575
  948MOL0     H30781  11.265   9.306   3.940 -0.2808 -5.0926  1.7527
  948MOL0     H30782  10.958   9.010   3.808  1.1716  0.6020  0.6372
  948MOL0     H30783  10.830   8.894   3.628 -3.3238  2.7404  0.8195
  948MOL0     H30784  10.868   8.906   3.451 -1.0836 -0.5541  0.1067
  948MOL0     H30785  10.774   9.028   3.528 -0.7442 -1.4519 -0.5299
  948MOL0     H30786  11.244   9.207   3.137  0.5293 -2.2503  0.4600
  948MOL0     H30787  11.221   9.284   2.899 -1.3986  0.5658  0.6455
  948MOL0     H30788  11.198   9.084   2.697 -1.8976 -1.5953 -2.5733
  948MOL0     H30789  11.099   9.130   2.564 -1.4547  0.0280  0.1420
  948MOL0     H30790  11.180   9.376   2.597  2.4872  2.3335 -0.0264
  948MOL0     H30791  11.299   9.297   2.709 -1.0018 -1.2699  0.2540
  948MOL0     H30792  11.378   9.361   2.485 -1.0131  0.7348  0.2475
  948MOL0     H30793  11.261   9.247   2.411  0.1369 -1.0217  0.5105
  948MOL0     H30794  11.366   9.059   2.523  0.7889 -0.9352  0.7417
  948MOL0     H30795  11.488   9.176   2.595  0.4970  0.5605  0.1622
  948MOL0     H30796  11.435   9.089   2.315  0.8534 -0.1868 -0.7182
  948MOL0     H30797  11.541   9.235   2.341  4.8558 -3.4706 -1.5070
  948MOL0     H30798  11.685   9.057   2.303 -0.6957 -0.0197 -0.7175
  948MOL0     H30799  11.619   8.977   2.457  1.7990 -2.0629 -2.2126
  948MOL0     H30800  11.718   9.159   2.590 -1.6558  1.7417 -1.2331
  948MOL0     H30801  11.768   9.243   2.445 -1.2176  0.6512  0.6885
  948MOL0     H30802  11.893   8.975   2.536  1.9489 -0.1809  1.7748
  948MOL0     H30803  11.967   9.138   2.529  1.2806  0.0210 -2.2742
  948MOL0     H30804  10.865   9.052   2.865  0.2348  1.1775 -1.7704
  948MOL0     H30805  10.889   8.963   3.106  0.8072 -2.1739  1.0684
  948MOL0     H30806  11.245   9.212   3.454 -0.5864 -0.7692 -1.1019
  948MOL0     H30807  11.280   9.251   3.699  0.6670 -0.3443  0.9186
  948MOL0     H30808  10.761  10.536   4.202  1.7027 -0.8507  0.1231
  948MOL0     H30809  10.947  10.649   4.271  1.5939  2.6720  1.6046
  948MOL0     H30810  11.379  10.535   4.683  1.6839  1.7940  2.7797
  948MOL0     H30811  11.600  10.636   4.684  0.7211 -0.0318 -3.2704
  948MOL0     H30812  11.796  10.756   4.655  1.1475 -0.0788 -1.5438
  948MOL0     H30813  11.850  10.915   4.627  1.7569 -0.5367  1.6282
  948MOL0     H30814  11.688  10.797   4.867 -1.3774  0.4617 -1.8065
  948MOL0     H30815  11.696  10.970   4.837 -0.5955 -0.7049  0.5637
  948MOL0     H30816  11.926  10.768   4.869 -1.1206 -1.2951  3.6018
  948MOL0     H30817  11.954  10.930   4.836 -0.6323 -1.3475 -0.6926
  948MOL0     H30818  11.811  10.860   5.110 -1.9071  0.9299 -1.4118
  948MOL0     H30819  11.874  11.004   5.044  0.1818 -0.5916  1.3863
  948MOL0     H30820  12.234  10.821   5.169  1.0675 -1.0581 -1.3848
  948MOL0     H30821  11.439  10.999   4.546  1.1509  0.3209  0.6371
  948MOL0     H30822  11.143  10.917   4.399 -4.9255  4.7288  0.1600
  948MOL0     H30823  11.083  10.921   4.568 -0.5867  1.5198 -0.7568
  948MOL0     H30824  11.200  11.040   4.519  1.2645 -0.0836  0.8569
  949MOL0     O30825   3.500   0.232   5.055  0.0414 -0.2223 -0.2793
  949MOL0     C30826   3.599   0.307   5.045  1.1983 -0.8733 -0.5217
  949MOL0     O30827   3.727   0.266   4.995 -0.6070  0.0978 -0.0173
  949MOL0     C30828   3.726   0.148   4.913  0.1870  0.6579 -0.3966
  949MOL0     C30829   3.823   0.051   4.927 -0.0274 -0.0365 -0.3208
  949MOL0     C30830   3.827  -0.054   4.832  0.6678 -0.0165 -0.6751
  949MOL0     C30831   3.744  -0.062   4.726  1.2692 -1.1577  0.3938
  949MOL0     O30832   3.763  -0.159   4.639 -0.1582 -0.2747  0.3616
  949MOL0     C30833   3.688  -0.159   4.516 -0.5593  1.0622  0.2538
  949MOL0     C30834   3.711  -0.283   4.424  0.3886 -1.0759 -0.2158
  949MOL0     C30835   3.660  -0.419   4.469  0.9193  0.2460 -0.7611
  949MOL0     C30836   3.714  -0.484   4.600  0.6401 -0.3191  0.1092
  949MOL0     C30837   3.662  -0.625   4.637 -0.0133  0.0713  0.7031
  949MOL0     C30838   3.733  -0.685   4.756  0.0923  0.4444  0.7103
  949MOL0     C30839   3.721  -0.835   4.743  0.5909 -0.0608 -0.4474
  949MOL0     C30840   3.578  -0.880   4.782 -0.1574 -0.2156  0.1510
  949MOL0     N30841   3.552  -1.020   4.786  0.0189 -0.6113  0.5157
  949MOL0     C30842   3.527  -1.098   4.672  0.6763  0.9926  1.1540
  949MOL0     C30843   3.483  -1.216   4.728  0.9193  0.2661  0.4480
  949MOL0     C30844   3.432  -1.339   4.665  0.8327 -0.1904 -0.1375
  949MOL0     C30845   3.544  -1.448   4.644  0.5512  0.4141  0.1906
  949MOL0     C30846   3.659  -1.389   4.560  0.3853 -0.6428 -0.0396
  949MOL0     C30847   3.775  -1.495   4.529  0.0787  0.4404 -0.7854
  949MOL0     O30848   3.712  -1.604   4.450 -1.0480 -0.4341 -0.2425
  949MOL0     C30849   3.798  -1.714   4.436 -0.4071  1.0902 -0.4885
  949MOL0     C30850   3.739  -1.831   4.401 -0.3498 -0.2960  0.1891
  949MOL0     C30851   3.813  -1.947   4.394 -0.5825  0.9085  0.8196
  949MOL0     C30852   3.745  -2.077   4.356  0.5974  0.0833 -0.0027
  949MOL0     C30853   3.956  -1.947   4.413 -0.8667 -0.2511 -0.6344
  949MOL0     C30854   4.045  -2.072   4.423 -0.3047  0.0398 -0.6546
  949MOL0     O30855   4.152  -2.057   4.509 -0.6574 -0.2350 -0.1168
  949MOL0     C30856   4.234  -2.168   4.531 -0.6596  0.1924  0.2080
  949MOL0     C30857   4.327  -2.208   4.440 -0.4141 -0.3250  0.1643
  949MOL0     C30858   4.407  -2.318   4.466 -0.2267 -0.7606 -0.0176
  949MOL0     C30859   4.398  -2.386   4.584  0.3411  0.9932 -0.0946
  949MOL0     O30860   4.489  -2.492   4.594 -0.0215  0.8773  0.8764
  949MOL0     C30861   4.456  -2.587   4.689 -0.3117 -0.0203  0.7588
  949MOL0     C30862   4.549  -2.716   4.671 -0.1951  0.4611 -0.6270
  949MOL0     C30863   4.691  -2.678   4.721  0.3004  0.0976  0.4174
  949MOL0     C30864   4.764  -2.800   4.778 -0.0073  0.7985 -0.5968
  949MOL0     C30865   4.903  -2.774   4.841  0.9832  0.7401 -0.4051
  949MOL0     C30866   5.011  -2.749   4.741  0.1036 -0.2743  0.3694
  949MOL0     C30867   5.153  -2.724   4.806 -0.2922  0.7250 -0.6684
  949MOL0     C30868   5.159  -2.620   4.926 -0.0109  0.3687 -0.0087
  949MOL0    Cl30869   5.063  -2.481   4.884  0.2630 -0.1667 -0.1642
  949MOL0     C30870   4.304  -2.346   4.682  0.4073 -0.1543 -1.0837
  949MOL0     C30871   4.223  -2.229   4.651 -0.8608 -0.2829  0.3434
  949MOL0     O30872   4.013  -2.176   4.367 -0.4039 -0.0265 -0.1809
  949MOL0     C30873   4.021  -1.824   4.431  0.5777 -0.3412 -0.1391
  949MOL0     C30874   3.944  -1.714   4.447 -0.0666  0.3173 -0.1060
  949MOL0     N30875   3.478  -1.206   4.866  0.1478  0.7671  0.0511
  949MOL0     N30876   3.515  -1.086   4.898 -0.8043  0.2724  0.2804
  949MOL0     C30877   3.640   0.028   4.720 -0.1620 -0.0345  0.2145
  949MOL0     C30878   3.628   0.134   4.814 -0.7126  0.0489  0.2057
  949MOL0     C30879   3.592   0.448   5.081  0.7100 -0.3001 -1.3779
  949MOL0     C30880   3.715   0.521   5.087 -0.2890 -0.3771 -0.3418
  949MOL0     C30881   3.711   0.654   5.110  0.0977 -0.1736  0.7028
  949MOL0     C30882   3.591   0.728   5.109 -0.8302 -0.0271 -0.0012
  949MOL0     O30883   3.603   0.862   5.131  0.4066  0.2214 -0.1847
  949MOL0     C30884   3.574   0.937   5.012  0.2423 -0.0720  0.3695
  949MOL0     C30885   3.640   1.077   5.001  0.3270 -0.0836 -0.5616
  949MOL0     C30886   3.537   1.188   5.035  0.5117 -0.4062  0.7013
  949MOL0     C30887   3.444   1.156   5.160  0.4051 -0.0097  0.0987
  949MOL0     C30888   3.375   1.282   5.207 -0.6044  1.0185 -0.0136
  949MOL0     C30889   3.318   1.375   5.231  0.5582  0.1596  0.1389
  949MOL0     C30890   3.469   0.661   5.099  0.6903  0.2266  0.9687
  949MOL0     C30891   3.467   0.519   5.084  0.5241 -0.3959 -0.0976
  949MOL0     C30892   3.322   0.460   5.087 -1.1206 -1.1740 -0.0547
  949MOL0     H30893   3.894   0.056   5.009 -3.2370  1.1313  2.6022
  949MOL0     H30894   3.899  -0.135   4.829  0.5881 -0.0626 -1.9088
  949MOL0     H30895   3.692  -0.062   4.466  0.2879  1.8228  1.7167
  949MOL0     H30896   3.582  -0.162   4.541 -0.9289 -3.0526 -1.0601
  949MOL0     H30897   3.667  -0.261   4.327 -2.2219  1.6284  1.3901
  949MOL0     H30898   3.819  -0.287   4.413  0.4415 -2.5726  0.5861
  949MOL0     H30899   3.554  -0.408   4.494  0.6967 -0.5588 -1.3036
  949MOL0     H30900   3.667  -0.498   4.394 -0.3698  0.5042 -1.1703
  949MOL0     H30901   3.821  -0.500   4.586  0.2780 -0.2196 -3.9516
  949MOL0     H30902   3.705  -0.404   4.675 -0.7325  1.7193 -2.0791
  949MOL0     H30903   3.684  -0.686   4.549  0.8437 -0.6415  1.3969
  949MOL0     H30904   3.554  -0.625   4.658 -0.5427 -0.7059 -1.6358
  949MOL0     H30905   3.841  -0.666   4.750 -0.1615  1.4579 -1.5317
  949MOL0     H30906   3.692  -0.642   4.847 -1.0696 -0.5260  0.6637
  949MOL0     H30907   3.788  -0.879   4.817  1.2133 -3.1031 -2.6643
  949MOL0     H30908   3.750  -0.868   4.643  1.5933  1.3489 -0.6596
  949MOL0     H30909   3.563  -0.852   4.887  1.0027  0.1730  0.2317
  949MOL0     H30910   3.504  -0.829   4.720  0.0488  0.8696  0.7720
  949MOL0     H30911   3.531  -1.079   4.565  2.4622  1.3936  1.2704
  949MOL0     H30912   3.400  -1.303   4.566  0.3256 -0.6023 -0.1279
  949MOL0     H30913   3.342  -1.364   4.722 -0.9939  0.1792 -2.6820
  949MOL0     H30914   3.566  -1.466   4.749 -1.5129 -0.3148  0.5359
  949MOL0     H30915   3.507  -1.543   4.603  2.9327  1.2128 -4.5213
  949MOL0     H30916   3.629  -1.342   4.466  1.5087  0.7427  0.2643
  949MOL0     H30917   3.706  -1.313   4.623  0.0114 -0.7013  0.3194
  949MOL0     H30918   3.846  -1.459   4.455  2.9014 -2.3932  0.3475
  949MOL0     H30919   3.819  -1.540   4.618  0.0756  0.0548 -0.9779
  949MOL0     H30920   3.634  -1.835   4.374  0.2546 -0.1386 -2.4063
  949MOL0     H30921   3.636  -2.074   4.349  0.6397  0.9915 -0.4209
  949MOL0     H30922   3.766  -2.150   4.435 -0.6878  0.8901  1.1373
  949MOL0     H30923   3.777  -2.119   4.261 -2.0226 -0.7259 -0.5978
  949MOL0     H30924   4.325  -2.146   4.350  1.0591  0.7035  0.7987
  949MOL0     H30925   4.484  -2.352   4.398  2.0346  0.0253  2.0165
  949MOL0     H30926   4.473  -2.552   4.791  0.4538 -0.8391  0.9268
  949MOL0     H30927   4.355  -2.628   4.680 -0.2506 -0.3526  1.4982
  949MOL0     H30928   4.505  -2.796   4.730 -0.9183  1.0933 -0.2927
  949MOL0     H30929   4.544  -2.758   4.570 -3.8153 -0.0410 -0.3636
  949MOL0     H30930   4.691  -2.611   4.808  0.0244  0.3235  0.2455
  949MOL0     H30931   4.747  -2.620   4.647  1.2519  0.2597  1.2415
  949MOL0     H30932   4.789  -2.873   4.701  0.7307 -0.1639  0.5164
  949MOL0     H30933   4.704  -2.852   4.853  2.7457 -2.6029 -0.5181
  949MOL0     H30934   4.894  -2.697   4.918  0.7450 -0.6639  1.0201
  949MOL0     H30935   4.929  -2.872   4.882 -0.2712  0.3996 -0.3908
  949MOL0     H30936   4.986  -2.661   4.681 -0.3248  0.2595  1.3026
  949MOL0     H30937   5.022  -2.834   4.673  1.7229 -0.2260  0.5249
  949MOL0     H30938   5.211  -2.698   4.717 -1.3585 -0.1006 -1.6334
  949MOL0     H30939   5.200  -2.815   4.845 -0.1597  0.9464 -0.3060
  949MOL0     H30940   5.267  -2.607   4.929  0.0555  0.3848 -1.5789
  949MOL0     H30941   5.119  -2.654   5.022  0.1384  1.3090  0.3981
  949MOL0     H30942   4.294  -2.406   4.772  0.5893  0.0819 -0.9056
  949MOL0     H30943   4.159  -2.186   4.727 -0.2464  0.6054  0.3637
  949MOL0     H30944   4.125  -1.821   4.462  0.9313  1.2952 -1.3278
  949MOL0     H30945   3.993  -1.619   4.467  2.1706 -0.5576 -1.1011
  949MOL0     H30946   3.560   0.037   4.648 -0.5532  0.7528  0.7435
  949MOL0     H30947   3.543   0.200   4.797  1.0963  1.7854 -3.2606
  949MOL0     H30948   3.807   0.464   5.075 -0.9856 -0.9626 -4.0669
  949MOL0     H30949   3.795   0.720   5.135 -2.1621  3.4910 -0.5302
  949MOL0     H30950   3.614   0.869   4.937  3.8780 -3.5816  4.8536
  949MOL0     H30951   3.467   0.938   4.991 -0.1123  0.0768  2.0525
  949MOL0     H30952   3.683   1.088   4.901 -2.4558 -1.9448 -2.0931
  949MOL0     H30953   3.723   1.087   5.071 -0.6911  0.1900  0.6424
  949MOL0     H30954   3.586   1.284   5.056  1.9405 -0.8936 -0.2678
  949MOL0     H30955   3.474   1.210   4.948  1.3456 -0.4035  0.0905
  949MOL0     H30956   3.513   1.125   5.240  0.2544 -0.6136 -0.0016
  949MOL0     H30957   3.374   1.075   5.140 -3.3044  2.5582  1.5730
  949MOL0     H30958   3.281   1.473   5.255  0.2234  0.5357 -1.7424
  949MOL0     H30959   3.387   0.731   5.085  0.2519 -0.4613 -0.0351
  949MOL0     H30960   3.250   0.540   5.072 -1.2985 -2.0256 -6.4927
  949MOL0     H30961   3.301   0.395   5.002 -0.4171 -1.3999 -0.0657
  949MOL0     H30962   3.317   0.396   5.176  3.7483  0.4265  1.7204
  950MOL0     O30963  11.318   0.133   0.895  0.8295  0.3490 -0.5331
  950MOL0     C30964  11.221   0.063   0.935  0.1974 -0.8243 -0.6788
  950MOL0     O30965  11.177  -0.042   0.875 -0.0241  0.0732 -0.2921
  950MOL0     C30966  11.246  -0.088   0.763 -0.0270 -0.9562  0.5392
  950MOL0     C30967  11.271  -0.008   0.655 -0.9203  0.4810 -0.0907
  950MOL0     C30968  11.335  -0.041   0.538 -0.0692  0.1735  1.2202
  950MOL0     C30969  11.375  -0.178   0.523 -0.2644 -0.4518 -0.4109
  950MOL0     O30970  11.436  -0.211   0.407  0.0220 -0.1407  0.3225
  950MOL0     C30971  11.394  -0.338   0.346  0.4060 -0.0296 -0.3848
  950MOL0     C30972  11.246  -0.327   0.298 -0.8541 -0.5676 -0.2752
  950MOL0     C30973  11.196  -0.442   0.205 -0.2799 -0.1882 -0.0050
  950MOL0     C30974  11.211  -0.583   0.268 -0.4283  0.2943  1.0368
  950MOL0     C30975  11.199  -0.695   0.164  0.0661 -0.7289  0.6509
  950MOL0     C30976  11.223  -0.835   0.227 -0.1621 -0.3779  0.0115
  950MOL0     C30977  11.096  -0.882   0.297 -0.3861  0.8564  0.2435
  950MOL0     C30978  11.122  -1.033   0.334 -1.0495 -0.2789 -0.0702
  950MOL0     N30979  11.231  -1.052   0.440  0.4268 -0.3788  0.4070
  950MOL0     C30980  11.223  -1.009   0.570  0.4856  0.1261  0.4759
  950MOL0     C30981  11.342  -1.063   0.624  0.1410 -0.2465 -1.1193
  950MOL0     C30982  11.385  -1.031   0.772  0.2156  0.6738 -0.2877
  950MOL0     C30983  11.486  -0.915   0.773 -0.2935  0.5630  0.2469
  950MOL0     C30984  11.413  -0.778   0.715  0.4314 -0.0258  0.5865
  950MOL0     C30985  11.479  -0.651   0.766  0.0959 -0.0193  0.2102
  950MOL0     O30986  11.425  -0.625   0.896 -0.3306  0.0665  0.4580
  950MOL0     C30987  11.466  -0.518   0.969 -0.1333  0.1757 -0.0387
  950MOL0     C30988  11.555  -0.420   0.933 -0.3602  0.3194 -0.0262
  950MOL0     C30989  11.592  -0.321   1.022 -0.7054  0.8699 -0.5297
  950MOL0     C30990  11.687  -0.213   0.971 -0.9315 -0.3282  0.1675
  950MOL0     C30991  11.534  -0.318   1.150  0.3593 -0.0201 -0.0146
  950MOL0     C30992  11.561  -0.209   1.247 -0.0771 -0.2035  0.2177
  950MOL0     O30993  11.453  -0.143   1.296  0.3121 -0.2843  0.4668
  950MOL0     C30994  11.469  -0.016   1.333 -0.0516 -0.1790 -0.6602
  950MOL0     C30995  11.392   0.024   1.446 -0.3651 -0.5792  0.2549
  950MOL0     C30996  11.391   0.158   1.489 -0.3907  0.0116  0.1025
  950MOL0     C30997  11.463   0.258   1.417 -0.0425  0.4531  0.5537
  950MOL0     O30998  11.449   0.386   1.467  0.0754  0.3492 -0.0691
  950MOL0     C30999  11.570   0.457   1.473 -0.4417 -0.4709  0.5455
  950MOL0     C31000  11.542   0.573   1.572  0.0799  0.4870 -0.1683
  950MOL0     C31001  11.636   0.689   1.563  0.3184 -0.0847  1.0880
  950MOL0     C31002  11.628   0.793   1.672  0.3609  0.5888 -0.4176
  950MOL0     C31003  11.732   0.903   1.646 -0.8899 -0.3884 -0.9932
  950MOL0     C31004  11.761   0.982   1.777 -0.3864  1.2625 -0.1784
  950MOL0     C31005  11.858   1.097   1.748 -0.7555 -0.1029 -0.5343
  950MOL0     C31006  11.892   1.183   1.865  1.1197 -1.4491  0.0897
  950MOL0    Cl31007  11.991   1.122   1.984 -0.0723 -0.2069  0.0428
  950MOL0     C31008  11.536   0.221   1.302 -0.4766 -0.1522 -0.1933
  950MOL0     C31009  11.547   0.082   1.267 -0.1674  0.2334 -0.6927
  950MOL0     O31010  11.674  -0.198   1.290 -0.3127  0.0090 -0.5940
  950MOL0     C31011  11.439  -0.410   1.184  0.3749  0.4110 -0.3774
  950MOL0     C31012  11.409  -0.511   1.099  0.0226  0.7294 -0.2138
  950MOL0     N31013  11.404  -1.135   0.527  0.6802  0.0415  0.1794
  950MOL0     N31014  11.342  -1.130   0.413 -0.4311 -0.5525  0.8975
  950MOL0     C31015  11.355  -0.262   0.639  0.5820 -0.2512  0.6139
  950MOL0     C31016  11.291  -0.218   0.756  0.7924  1.1246  0.2671
  950MOL0     C31017  11.165   0.108   1.068  0.4204 -0.0148 -0.8932
  950MOL0     C31018  11.177   0.249   1.108  0.7237  0.5197 -0.4088
  950MOL0     C31019  11.138   0.295   1.236  0.1566 -0.3834  0.2314
  950MOL0     C31020  11.092   0.211   1.336 -0.4367 -0.7683  0.3652
  950MOL0     O31021  11.053   0.242   1.461  0.2858 -0.4041  0.2470
  950MOL0     C31022  11.060   0.370   1.519  0.2980 -0.4249  1.0258
  950MOL0     C31023  10.985   0.368   1.647  0.4064  0.5167 -1.3031
  950MOL0     C31024  11.040   0.251   1.726  0.3434  0.3863 -0.0755
  950MOL0     C31025  11.018   0.266   1.878  0.3006 -0.3264  0.2464
  950MOL0     C31026  11.041   0.143   1.947 -0.6344  0.4213  0.4329
  950MOL0     C31027  11.059   0.043   2.008 -0.6504  0.3616 -0.6980
  950MOL0     C31028  11.095   0.075   1.305 -0.0976  0.0898 -0.2814
  950MOL0     C31029  11.125   0.025   1.179 -0.1583  0.7438  0.6406
  950MOL0     C31030  11.088  -0.128   1.169 -0.6293 -0.3109  0.0700
  950MOL0     H31031  11.242   0.096   0.665  0.8715  0.9682  0.5043
  950MOL0     H31032  11.351   0.030   0.457  2.4064  1.5424  2.7828
  950MOL0     H31033  11.407  -0.425   0.412  0.2527  0.3685  0.1777
  950MOL0     H31034  11.447  -0.361   0.253 -0.2162  2.3052 -1.3808
  950MOL0     H31035  11.178  -0.338   0.383 -1.4847 -0.8844 -0.8120
  950MOL0     H31036  11.227  -0.226   0.262 -3.4769 -0.4928  1.1075
  950MOL0     H31037  11.092  -0.428   0.175  0.0052 -2.2833 -2.2529
  950MOL0     H31038  11.264  -0.429   0.120 -1.3987 -0.1174 -0.9123
  950MOL0     H31039  11.306  -0.594   0.320 -1.9296 -0.7378  3.7907
  950MOL0     H31040  11.131  -0.584   0.343 -0.4958  0.9444  0.9772
  950MOL0     H31041  11.264  -0.666   0.081 -3.1452  1.2608 -1.4022
  950MOL0     H31042  11.098  -0.696   0.122  0.5411 -0.2263 -0.5619
  950MOL0     H31043  11.263  -0.900   0.149 -0.4822  1.0332 -1.3942
  950MOL0     H31044  11.301  -0.820   0.302  0.1006  0.4370 -0.4090
  950MOL0     H31045  11.016  -0.894   0.222 -0.3786 -0.1323  0.3772
  950MOL0     H31046  11.063  -0.827   0.385  0.1022  0.1644  0.8664
  950MOL0     H31047  11.026  -1.068   0.372 -0.1830 -0.7559  1.7857
  950MOL0     H31048  11.135  -1.087   0.240 -2.3484 -5.7145  2.4789
  950MOL0     H31049  11.150  -0.945   0.619  1.6043  2.4333 -0.6891
  950MOL0     H31050  11.427  -1.119   0.822  0.0412 -0.3029 -1.8075
  950MOL0     H31051  11.292  -1.004   0.824 -0.4404 -1.2632 -0.3445
  950MOL0     H31052  11.521  -0.894   0.875 -2.9541  0.1587  1.3515
  950MOL0     H31053  11.576  -0.941   0.718  0.3153  4.2723 -0.7782
  950MOL0     H31054  11.416  -0.786   0.605  0.6188  0.3508  0.5628
  950MOL0     H31055  11.310  -0.777   0.751  0.2441  2.1123  0.1062
  950MOL0     H31056  11.586  -0.671   0.776 -0.3340 -1.2556  4.5640
  950MOL0     H31057  11.461  -0.579   0.685  2.9164 -2.0661 -2.4540
  950MOL0     H31058  11.594  -0.411   0.832  0.6151 -0.7481  0.2309
  950MOL0     H31059  11.630  -0.174   0.887 -1.3536  2.4178  1.5936
  950MOL0     H31060  11.786  -0.250   0.941 -1.8470 -2.9291  0.1299
  950MOL0     H31061  11.702  -0.123   1.031  1.8459  1.3515 -2.7222
  950MOL0     H31062  11.316  -0.043   1.485 -1.5957 -0.1123 -1.2578
  950MOL0     H31063  11.316   0.182   1.564 -0.6358 -0.2943 -0.0423
  950MOL0     H31064  11.655   0.396   1.505  1.5596  0.5182 -2.4570
  950MOL0     H31065  11.580   0.501   1.373 -0.3643 -1.7712 -0.0345
  950MOL0     H31066  11.442   0.607   1.542 -0.5232 -1.6261 -0.7002
  950MOL0     H31067  11.529   0.531   1.672 -3.0366  2.4359  0.4195
  950MOL0     H31068  11.614   0.735   1.466 -3.0697  0.5822  2.0416
  950MOL0     H31069  11.739   0.651   1.559 -0.2422 -1.5485 -0.8259
  950MOL0     H31070  11.655   0.759   1.772 -0.4915  2.6335  0.5789
  950MOL0     H31071  11.524   0.826   1.680  0.3766  0.4889  0.3166
  950MOL0     H31072  11.828   0.863   1.611 -0.3647  1.8150 -2.2566
  950MOL0     H31073  11.691   0.967   1.567  1.8724  1.3533 -1.1640
  950MOL0     H31074  11.809   0.922   1.856  0.2027  1.2378 -0.5515
  950MOL0     H31075  11.662   1.013   1.812 -1.3411 -1.4105 -0.2706
  950MOL0     H31076  11.818   1.161   1.669 -0.1472  1.2831  0.2431
  950MOL0     H31077  11.950   1.047   1.718 -1.5305 -1.6289 -0.4442
  950MOL0     H31078  11.804   1.216   1.920  0.8410 -2.1317  0.0627
  950MOL0     H31079  11.943   1.270   1.821  0.4925 -0.9923  0.2603
  950MOL0     H31080  11.581   0.292   1.232 -2.3871  1.7647  0.4082
  950MOL0     H31081  11.607   0.041   1.187  0.1671 -1.7668  0.5167
  950MOL0     H31082  11.385  -0.416   1.279 -3.6777 -0.7997 -2.5185
  950MOL0     H31083  11.335  -0.587   1.121  1.1984 -0.3341  0.2089
  950MOL0     H31084  11.395  -0.363   0.635 -1.3473 -1.0813  1.2469
  950MOL0     H31085  11.284  -0.295   0.832  1.2278 -1.0082 -1.7330
  950MOL0     H31086  11.215   0.317   1.033  0.9294 -3.1656 -3.9968
  950MOL0     H31087  11.148   0.402   1.249 -1.5686  0.4402 -3.7414
  950MOL0     H31088  11.165   0.397   1.535  0.6667  0.5320 -2.2878
  950MOL0     H31089  11.010   0.444   1.456 -1.7517 -1.7612  0.9769
  950MOL0     H31090  10.878   0.352   1.634 -0.1911  0.4302  2.6762
  950MOL0     H31091  10.997   0.453   1.715  0.5828  0.7874 -1.6681
  950MOL0     H31092  10.984   0.161   1.698 -0.5009  0.5610  0.9717
  950MOL0     H31093  11.148   0.234   1.716  0.8432  1.1802  3.0497
  950MOL0     H31094  10.914   0.301   1.889  0.4136  0.6091 -1.3380
  950MOL0     H31095  11.094   0.332   1.921  0.5594 -1.0780  0.9850
  950MOL0     H31096  11.078  -0.045   2.065  0.2966  1.4442  0.7114
  950MOL0     H31097  11.083   0.008   1.390 -0.3410  1.2469  0.6164
  950MOL0     H31098  11.047  -0.148   1.070 -3.5599 -0.2929  1.1902
  950MOL0     H31099  11.172  -0.197   1.180 -0.4260  0.1697  1.8641
  950MOL0     H31100  11.005  -0.144   1.239  1.3548 -1.3655  2.3517
  951MOL0     O31101   0.441  10.504   5.605 -0.1177  0.2335 -0.6843
  951MOL0     C31102   0.320  10.501   5.568 -0.1755  1.0126  0.9304
  951MOL0     O31103   0.256  10.603   5.508  0.1228  0.0984  0.0382
  951MOL0     C31104   0.319  10.727   5.514 -0.2926 -0.1376  0.2050
  951MOL0     C31105   0.422  10.767   5.426  0.6290  0.1812 -0.7534
  951MOL0     C31106   0.476  10.900   5.446 -0.6370 -0.2267  0.3329
  951MOL0     C31107   0.437  10.988   5.549  0.2442  0.5487  0.6624
  951MOL0     O31108   0.475  11.117   5.555  0.0383 -0.8139  0.0518
  951MOL0     C31109   0.598  11.131   5.625  0.1711  0.6804  0.1579
  951MOL0     C31110   0.569  11.170   5.767  0.1344  0.1697  1.0561
  951MOL0     C31111   0.503  11.311   5.790  0.2874 -0.5697  0.6170
  951MOL0     C31112   0.548  11.432   5.700 -0.1929  0.6885  0.3487
  951MOL0     C31113   0.686  11.477   5.768  0.2766  0.4117  0.1083
  951MOL0     C31114   0.750  11.598   5.696 -0.4019  0.7712  0.5389
  951MOL0     C31115   0.881  11.639   5.778  0.4207 -0.7567  0.8953
  951MOL0     C31116   0.954  11.743   5.683  0.1556 -0.7163  0.0300
  951MOL0     N31117   1.090  11.766   5.729 -0.0994 -0.2952 -0.8009
  951MOL0     C31118   1.137  11.830   5.844 -0.3897 -0.1318  0.0348
  951MOL0     C31119   1.250  11.774   5.879 -0.3724  0.3662 -0.2667
  951MOL0     C31120   1.324  11.809   6.010  0.5653 -1.4287 -0.0970
  951MOL0     C31121   1.398  11.694   6.080  0.1038 -0.2108  0.4917
  951MOL0     C31122   1.423  11.725   6.228  0.1037  0.2418 -0.4218
  951MOL0     C31123   1.511  11.617   6.291 -0.8554  0.6722  0.6082
  951MOL0     O31124   1.441  11.487   6.297 -0.0393  0.4881  0.2794
  951MOL0     C31125   1.341  11.471   6.390 -0.0465 -0.4521 -0.0571
  951MOL0     C31126   1.263  11.355   6.375 -0.3105 -0.2976  0.2920
  951MOL0     C31127   1.140  11.337   6.447 -0.2472 -0.5541 -0.0027
  951MOL0     C31128   1.060  11.213   6.423  0.0081  0.3331 -0.1984
  951MOL0     C31129   1.093  11.433   6.539  0.2529  0.0605 -0.3174
  951MOL0     C31130   0.962  11.421   6.602 -0.1790  0.3991 -0.4814
  951MOL0     O31131   0.851  11.491   6.546 -0.5346  0.0906  0.0327
  951MOL0     C31132   0.730  11.482   6.612 -0.6702  0.0524 -0.5781
  951MOL0     C31133   0.637  11.381   6.591 -0.7898 -0.1359 -0.2786
  951MOL0     C31134   0.521  11.367   6.670 -0.3982  0.5881 -0.7982
  951MOL0     C31135   0.485  11.465   6.764 -0.5117 -0.3994  0.0338
  951MOL0     O31136   0.359  11.456   6.811 -0.2037  0.6190 -0.1663
  951MOL0     C31137   0.330  11.505   6.942  0.5303  1.0144 -0.0942
  951MOL0     C31138   0.205  11.431   7.004 -0.0200  0.1748  0.5189
  951MOL0     C31139   0.114  11.371   6.899 -0.6905 -0.1867  0.3642
  951MOL0     C31140  -0.015  11.319   6.958  0.0567 -0.7265  0.3678
  951MOL0     C31141  -0.126  11.279   6.858 -0.0044 -0.5306 -0.0779
  951MOL0     C31142  -0.081  11.205   6.737 -1.0285  0.2619  0.2236
  951MOL0     C31143  -0.032  11.061   6.761  0.1633 -0.3065 -0.8083
  951MOL0     C31144  -0.047  10.978   6.638 -0.2698 -0.1715 -1.5322
  951MOL0    Cl31145   0.091  11.021   6.536 -0.2282  0.1350 -0.0776
  951MOL0     C31146   0.584  11.566   6.789  0.0092 -1.2369  0.0215
  951MOL0     C31147   0.699  11.578   6.707 -0.2861 -0.4586 -0.3464
  951MOL0     O31148   0.952  11.347   6.697  0.0319 -0.0602 -0.5724
  951MOL0     C31149   1.183  11.538   6.578  0.2762 -0.5790  0.5085
  951MOL0     C31150   1.293  11.559   6.492  0.3342 -0.1055  0.5157
  951MOL0     N31151   1.292  11.680   5.781  0.5367 -0.1224  0.1231
  951MOL0     N31152   1.193  11.680   5.698  0.8413 -0.3862  0.3304
  951MOL0     C31153   0.335  10.939   5.634  0.8608  0.1990 -0.4791
  951MOL0     C31154   0.274  10.814   5.611  0.0319 -0.6674  0.7753
  951MOL0     C31155   0.238  10.381   5.602 -0.8821 -0.0400  0.1369
  951MOL0     C31156   0.134  10.345   5.509 -1.1233  0.6075  0.5454
  951MOL0     C31157   0.058  10.227   5.527  1.0174 -0.3725  0.7940
  951MOL0     C31158   0.095  10.142   5.637  0.3611 -0.4381  0.1699
  951MOL0     O31159   0.033  10.019   5.656 -0.3233  1.3153  0.0009
  951MOL0     C31160  -0.013   9.957   5.529 -0.3508  1.2503 -0.1391
  951MOL0     C31161  -0.036   9.803   5.547  1.1936  0.2538  0.4233
  951MOL0     C31162  -0.098   9.739   5.420  1.2478 -0.1234  0.0015
  951MOL0     C31163  -0.096   9.581   5.423 -0.0706  0.7758  0.5496
  951MOL0     C31164  -0.140   9.520   5.302  0.7524 -0.8182  0.0571
  951MOL0     C31165  -0.160   9.473   5.191  0.3477 -0.0921 -0.5047
  951MOL0     C31166   0.203  10.172   5.718  0.7201 -0.9649 -1.0194
  951MOL0     C31167   0.270  10.295   5.707 -0.1092 -1.2238 -0.8376
  951MOL0     C31168   0.373  10.317   5.816 -0.4593 -1.1552  0.2212
  951MOL0     H31169   0.462  10.702   5.349  4.1060  1.7882 -0.4952
  951MOL0     H31170   0.566  10.940   5.399 -1.6954  0.2612 -1.3793
  951MOL0     H31171   0.666  11.204   5.582  2.6561 -1.1031  0.8027
  951MOL0     H31172   0.657  11.038   5.621 -0.5583  0.2345 -0.3377
  951MOL0     H31173   0.502  11.092   5.805  0.2278  0.4713  1.8620
  951MOL0     H31174   0.659  11.160   5.829 -0.2871 -1.9694  1.4153
  951MOL0     H31175   0.397  11.297   5.766 -0.2124 -0.2929  2.5261
  951MOL0     H31176   0.500  11.341   5.895  1.4355 -0.2443  0.5672
  951MOL0     H31177   0.566  11.400   5.597  5.0294  0.4643  1.0698
  951MOL0     H31178   0.480  11.517   5.711 -2.8928 -1.2655 -0.1626
  951MOL0     H31179   0.759  11.396   5.774 -3.0776 -2.8841  0.2590
  951MOL0     H31180   0.651  11.498   5.870 -0.3527 -0.0364 -0.0062
  951MOL0     H31181   0.788  11.569   5.598  2.3693 -0.6196  1.8968
  951MOL0     H31182   0.686  11.686   5.684  2.2072  2.5964 -1.0357
  951MOL0     H31183   0.954  11.559   5.794  0.4976 -0.9192 -0.1699
  951MOL0     H31184   0.856  11.676   5.878 -5.3126 -1.8310  0.1646
  951MOL0     H31185   0.968  11.705   5.582 -1.6842  2.7814 -1.7039
  951MOL0     H31186   0.889  11.828   5.663  2.4490  1.2637  0.5543
  951MOL0     H31187   1.078  11.905   5.895 -1.5656  1.2000 -3.0318
  951MOL0     H31188   1.242  11.829   6.080 -0.4608 -4.3426 -0.3173
  951MOL0     H31189   1.405  11.882   6.000  0.5491 -1.6744 -2.7818
  951MOL0     H31190   1.347  11.599   6.063  1.1064 -0.7691  0.4877
  951MOL0     H31191   1.490  11.683   6.021  0.2890  0.0332  0.7310
  951MOL0     H31192   1.469  11.822   6.251 -0.4706  0.7232 -1.2353
  951MOL0     H31193   1.332  11.732   6.289  1.9111  0.1041  2.4862
  951MOL0     H31194   1.606  11.604   6.239  0.3255  0.5040  2.6718
  951MOL0     H31195   1.542  11.635   6.395  0.1572 -0.3220  0.5015
  951MOL0     H31196   1.299  11.286   6.299  0.7104 -1.1381  1.5126
  951MOL0     H31197   1.063  11.187   6.316 -0.0961 -1.9091  0.3016
  951MOL0     H31198   0.959  11.231   6.459  0.1198 -0.0409  0.3195
  951MOL0     H31199   1.090  11.126   6.482 -2.2257 -1.0372 -0.9562
  951MOL0     H31200   0.654  11.301   6.519  0.6455  0.1820 -0.3284
  951MOL0     H31201   0.462  11.277   6.657 -1.0191  0.5454  1.8400
  951MOL0     H31202   0.415  11.494   7.010  2.4673 -0.0640 -2.5685
  951MOL0     H31203   0.312  11.613   6.937  1.7580  1.2406  0.1211
  951MOL0     H31204   0.239  11.352   7.071  0.7251 -2.0974 -2.3350
  951MOL0     H31205   0.145  11.497   7.067  1.2653  2.1596 -0.2643
  951MOL0     H31206   0.171  11.288   6.857 -2.1051 -0.4459 -1.1551
  951MOL0     H31207   0.083  11.442   6.822 -3.6038  1.3644  2.7653
  951MOL0     H31208  -0.055  11.401   7.018 -1.0358 -2.2832  1.8399
  951MOL0     H31209   0.004  11.235   7.025  0.5610 -0.6477  0.3319
  951MOL0     H31210  -0.199  11.218   6.911 -0.1981 -2.1495 -2.0995
  951MOL0     H31211  -0.173  11.370   6.818 -2.3344  0.8738  4.9473
  951MOL0     H31212   0.006  11.259   6.697 -0.4181 -0.0483  1.0938
  951MOL0     H31213  -0.156  11.213   6.658 -0.7893 -0.8295 -0.1271
  951MOL0     H31214  -0.091  11.018   6.843  2.5317 -0.6855  0.8037
  951MOL0     H31215   0.071  11.066   6.797  0.3472 -0.4043 -1.3230
  951MOL0     H31216  -0.136  11.007   6.581 -1.7274  2.6508  1.8046
  951MOL0     H31217  -0.050  10.869   6.651  1.0581  0.1438  2.6893
  951MOL0     H31218   0.571  11.651   6.856 -1.0025  1.0928 -2.8962
  951MOL0     H31219   0.763  11.663   6.732 -2.7335  1.0207  1.3208
  951MOL0     H31220   1.150  11.610   6.652 -0.6744  0.4168 -0.8319
  951MOL0     H31221   1.345  11.652   6.513 -1.3465  1.0632 -0.3041
  951MOL0     H31222   0.299  11.000   5.716  1.8356 -3.6653  3.1028
  951MOL0     H31223   0.195  10.782   5.678 -0.2878 -1.8698 -0.1460
  951MOL0     H31224   0.113  10.409   5.424  3.3341  0.5366 -0.8332
  951MOL0     H31225  -0.035  10.223   5.471 -2.6077  2.2297  5.7826
  951MOL0     H31226  -0.109   9.999   5.498  0.4975  2.4830 -1.1866
  951MOL0     H31227   0.052   9.975   5.443  0.5150 -0.9425 -0.0063
  951MOL0     H31228  -0.116   9.793   5.621 -0.3357  0.3320 -1.1512
  951MOL0     H31229   0.051   9.745   5.582  0.8459 -0.6747 -0.1965
  951MOL0     H31230  -0.204   9.765   5.409  0.4243 -2.8109  0.7140
  951MOL0     H31231  -0.048   9.775   5.330  1.4855 -0.9689 -0.2123
  951MOL0     H31232  -0.155   9.557   5.512  0.9191  0.5576  1.1527
  951MOL0     H31233   0.007   9.550   5.438 -0.8455 -1.4328  1.8337
  951MOL0     H31234  -0.182   9.433   5.094 -0.9967  1.8715 -1.0804
  951MOL0     H31235   0.220  10.111   5.807 -1.0812  3.4510  2.7993
  951MOL0     H31236   0.472  10.294   5.776 -0.8931 -1.2693 -0.8190
  951MOL0     H31237   0.372  10.419   5.856 -0.4437 -2.0840  2.7945
  951MOL0     H31238   0.364  10.246   5.898  0.9250 -0.0946  1.3413
  952MOL0     O31239   8.294   5.544   2.034  0.6919  0.1560 -0.3048
  952MOL0     C31240   8.334   5.563   1.917  0.6158  0.3733  0.6042
  952MOL0     O31241   8.427   5.488   1.854  0.0658 -0.1342  0.4756
  952MOL0     C31242   8.477   5.386   1.930  0.2456 -0.4551 -1.4333
  952MOL0     C31243   8.557   5.396   2.046 -0.3739 -0.5507 -0.7886
  952MOL0     C31244   8.623   5.292   2.106  0.3592  0.7123  0.3317
  952MOL0     C31245   8.601   5.155   2.055  0.3538  0.6787 -0.0462
  952MOL0     O31246   8.657   5.034   2.098 -0.1069 -0.2761  0.4523
  952MOL0     C31247   8.802   5.026   2.121 -0.2343 -0.4527  0.0239
  952MOL0     C31248   8.869   4.898   2.056  0.6019 -0.0362 -0.3713
  952MOL0     C31249   8.803   4.767   2.082 -0.7466 -0.0111  0.1314
  952MOL0     C31250   8.865   4.694   2.206  0.3149 -0.4832 -0.1632
  952MOL0     C31251   8.809   4.732   2.343 -0.8179 -0.5240  0.3413
  952MOL0     C31252   8.852   4.645   2.465 -0.1362 -0.2574  0.0491
  952MOL0     C31253   8.849   4.724   2.596 -0.7955 -0.7786 -0.1118
  952MOL0     C31254   8.925   4.642   2.701  0.7900  0.1915  0.4976
  952MOL0     N31255   8.979   4.700   2.820  1.3330  0.8279 -0.0320
  952MOL0     C31256   8.914   4.709   2.937  0.6386 -0.1598  1.0728
  952MOL0     C31257   9.006   4.762   3.020 -0.3495 -0.2021 -0.4473
  952MOL0     C31258   8.978   4.766   3.172 -1.1226  0.2727 -0.1265
  952MOL0     C31259   8.831   4.796   3.206 -0.0872 -0.1219 -0.2308
  952MOL0     C31260   8.814   4.823   3.359  0.1262 -0.3311  0.7037
  952MOL0     C31261   8.870   4.703   3.448 -0.4266  0.5475 -0.4114
  952MOL0     O31262   8.846   4.708   3.596 -0.0586 -0.3460 -0.4344
  952MOL0     C31263   8.712   4.721   3.636 -0.6667  0.3101 -0.0734
  952MOL0     C31264   8.602   4.665   3.575  0.1944 -0.4113  0.6480
  952MOL0     C31265   8.477   4.676   3.623 -0.3137  0.0102 -0.0553
  952MOL0     C31266   8.365   4.598   3.552 -0.1075 -0.3750 -0.8490
  952MOL0     C31267   8.452   4.758   3.731 -0.2426 -0.3545 -1.4120
  952MOL0     C31268   8.318   4.770   3.781 -1.3893 -1.0874 -0.1546
  952MOL0     O31269   8.301   4.898   3.831 -0.1430  0.8152 -0.4018
  952MOL0     C31270   8.184   4.925   3.908 -0.6330  0.2796  0.2377
  952MOL0     C31271   8.203   4.979   4.038  0.5182 -0.4491 -0.1909
  952MOL0     C31272   8.097   4.992   4.133 -0.7465 -0.3056  0.0039
  952MOL0     C31273   7.967   4.951   4.093  0.7416 -0.0235  0.1384
  952MOL0     O31274   7.859   4.956   4.166 -0.0215  0.7149 -0.0098
  952MOL0     C31275   7.737   4.993   4.102 -0.1706 -0.3827 -0.0533
  952MOL0     C31276   7.628   4.992   4.209  0.0642 -0.0036 -0.2847
  952MOL0     C31277   7.570   4.858   4.257 -0.7511  0.0287  0.3400
  952MOL0     C31278   7.481   4.885   4.383  0.2495  0.1180  0.6004
  952MOL0     C31279   7.411   4.765   4.446 -1.1139 -0.0949 -1.0190
  952MOL0     C31280   7.293   4.711   4.367  0.4124 -0.2560  0.2731
  952MOL0     C31281   7.193   4.650   4.476 -0.2426 -0.6292  1.2490
  952MOL0     C31282   7.090   4.750   4.527  0.5809 -0.7986 -0.3226
  952MOL0    Cl31283   6.980   4.775   4.392 -0.0740  0.2658  0.1283
  952MOL0     C31284   7.947   4.896   3.964 -0.2137 -0.3604 -0.5505
  952MOL0     C31285   8.049   4.892   3.874  0.1397  0.5750 -0.5204
  952MOL0     O31286   8.237   4.680   3.784 -0.2028  0.5541  0.0211
  952MOL0     C31287   8.559   4.809   3.806 -0.0077  0.6736  0.8469
  952MOL0     C31288   8.691   4.788   3.753  0.5693 -0.8138 -0.2869
  952MOL0     N31289   9.119   4.793   2.949 -0.6876  0.2367  0.4590
  952MOL0     N31290   9.100   4.763   2.825  0.1939 -0.1026 -0.0503
  952MOL0     C31291   8.512   5.141   1.944  0.0639 -0.3282  0.1291
  952MOL0     C31292   8.453   5.256   1.883 -0.1476 -0.1528  0.3607
  952MOL0     C31293   8.289   5.684   1.836 -0.2871 -0.0792  0.1471
  952MOL0     C31294   8.327   5.691   1.703 -0.5134  0.1339 -0.6899
  952MOL0     C31295   8.283   5.773   1.612 -0.5925  0.3867  0.2980
  952MOL0     C31296   8.215   5.884   1.644  0.5120 -0.8116 -0.3215
  952MOL0     O31297   8.176   5.980   1.556  0.4558  0.1325  1.3165
  952MOL0     C31298   8.235   5.980   1.422 -0.2845 -0.5960  0.1874
  952MOL0     C31299   8.199   6.117   1.352  0.1640  1.0376  0.0715
  952MOL0     C31300   8.066   6.094   1.272 -0.1699 -0.0282  0.8253
  952MOL0     C31301   8.052   6.207   1.163 -0.2427  0.5222 -0.6186
  952MOL0     C31302   7.911   6.188   1.124  0.1439  0.2049  0.4230
  952MOL0     C31303   7.795   6.184   1.084  0.5407 -0.0492  0.3942
  952MOL0     C31304   8.183   5.896   1.787 -0.0982  0.3303 -0.5923
  952MOL0     C31305   8.225   5.801   1.878 -0.9334 -0.9084 -0.6791
  952MOL0     C31306   8.169   5.812   2.025  0.1832  0.9235  0.8364
  952MOL0     H31307   8.576   5.497   2.080  2.9395 -1.4495  0.4955
  952MOL0     H31308   8.684   5.312   2.194  1.7979 -1.2169 -0.1827
  952MOL0     H31309   8.835   5.007   2.224 -1.8070 -1.5291  0.3655
  952MOL0     H31310   8.856   5.119   2.099  1.1770 -1.9176 -3.3253
  952MOL0     H31311   8.857   4.903   1.947 -0.1581 -1.0326 -0.3429
  952MOL0     H31312   8.977   4.890   2.075  0.2618 -3.1212  0.9135
  952MOL0     H31313   8.695   4.785   2.083 -0.7306  0.1080 -0.1055
  952MOL0     H31314   8.814   4.693   2.002 -0.5180  0.0883  0.0684
  952MOL0     H31315   8.850   4.586   2.199  0.0332 -0.4142 -0.6800
  952MOL0     H31316   8.973   4.711   2.198  0.8215 -3.4794 -1.4287
  952MOL0     H31317   8.700   4.741   2.336 -0.6195  2.2035 -0.3613
  952MOL0     H31318   8.834   4.833   2.374 -0.2545 -0.3446 -0.6674
  952MOL0     H31319   8.771   4.574   2.481 -0.6982 -0.1314 -1.9171
  952MOL0     H31320   8.946   4.595   2.442 -0.6480 -0.8633 -0.8140
  952MOL0     H31321   8.748   4.747   2.630 -0.8146 -1.1600  0.0867
  952MOL0     H31322   8.895   4.821   2.576  0.1630 -0.8457  1.5522
  952MOL0     H31323   8.851   4.567   2.730  0.2262  0.7731  0.5710
  952MOL0     H31324   9.007   4.589   2.651  1.8693  2.0705  0.1750
  952MOL0     H31325   8.825   4.649   2.956 -0.5949  1.4721  0.7664
  952MOL0     H31326   9.047   4.831   3.226  0.8593  0.0632 -2.2255
  952MOL0     H31327   9.002   4.663   3.197  5.0199  1.0985 -1.1704
  952MOL0     H31328   8.792   4.877   3.143  2.7793 -0.2015 -2.3080
  952MOL0     H31329   8.780   4.704   3.176 -0.4171  0.4841 -1.6169
  952MOL0     H31330   8.868   4.918   3.373 -1.6460  0.9078 -0.4744
  952MOL0     H31331   8.709   4.843   3.382  0.7883  5.0849  0.3076
  952MOL0     H31332   8.823   4.616   3.401  0.8241 -0.0308 -0.6428
  952MOL0     H31333   8.979   4.699   3.434 -0.6556  1.9413 -3.3196
  952MOL0     H31334   8.604   4.593   3.493  0.2892  0.2042  0.1027
  952MOL0     H31335   8.330   4.518   3.618 -1.0765  0.6328 -0.1038
  952MOL0     H31336   8.401   4.552   3.459 -0.9076  0.9369 -1.8617
  952MOL0     H31337   8.276   4.656   3.525  1.1214  1.3617 -1.3825
  952MOL0     H31338   8.305   5.009   4.061  0.4670  0.3903 -0.9860
  952MOL0     H31339   8.122   5.018   4.235  0.2029 -0.3640 -0.2001
  952MOL0     H31340   7.747   5.097   4.069  1.4992 -0.4887  0.0520
  952MOL0     H31341   7.698   4.922   4.028 -2.8697  2.3281 -1.4340
  952MOL0     H31342   7.658   5.053   4.294 -0.5532  1.1800 -0.8971
  952MOL0     H31343   7.537   5.040   4.173 -3.7119 -4.8965  1.6068
  952MOL0     H31344   7.649   4.784   4.271  0.0942  0.5874 -1.2964
  952MOL0     H31345   7.493   4.807   4.198  0.4359 -0.0337 -1.1879
  952MOL0     H31346   7.402   4.958   4.362 -0.3614 -0.4194  0.9734
  952MOL0     H31347   7.540   4.940   4.457 -0.4864 -0.2597  1.4912
  952MOL0     H31348   7.476   4.682   4.474 -1.4618 -0.0208  0.0501
  952MOL0     H31349   7.375   4.811   4.538 -0.7034  0.1006 -0.9542
  952MOL0     H31350   7.346   4.638   4.305  2.1451  2.7140 -2.0059
  952MOL0     H31351   7.261   4.777   4.286  3.1946  1.4560  0.4235
  952MOL0     H31352   7.250   4.608   4.559  0.9665 -4.6952 -1.3245
  952MOL0     H31353   7.148   4.563   4.428  1.6724 -1.4074  0.7715
  952MOL0     H31354   7.124   4.844   4.572 -2.4945 -0.5337  1.7062
  952MOL0     H31355   7.034   4.693   4.601 -0.8812  0.9312 -0.0209
  952MOL0     H31356   7.858   4.845   3.930  1.0782 -2.6424 -0.7003
  952MOL0     H31357   8.038   4.842   3.778  2.9394 -0.5213 -0.3758
  952MOL0     H31358   8.548   4.866   3.898  0.0940  2.5513 -0.2484
  952MOL0     H31359   8.769   4.832   3.814  0.1243  0.1074 -0.3702
  952MOL0     H31360   8.502   5.040   1.907  1.4673 -0.5398  0.2674
  952MOL0     H31361   8.392   5.252   1.793 -0.9527 -0.4078  0.9064
  952MOL0     H31362   8.393   5.611   1.670 -2.0820 -1.3803 -0.3268
  952MOL0     H31363   8.316   5.738   1.515  0.1122 -2.4146  1.4434
  952MOL0     H31364   8.342   5.989   1.438 -0.6734 -0.1815  2.9404
  952MOL0     H31365   8.206   5.897   1.357 -1.8384 -1.0752  1.4290
  952MOL0     H31366   8.279   6.136   1.280  0.1141  1.4756  0.1290
  952MOL0     H31367   8.182   6.206   1.413 -1.1428  0.6700  0.2854
  952MOL0     H31368   8.079   6.005   1.209 -0.1542  0.4167  0.1872
  952MOL0     H31369   7.983   6.099   1.343 -0.5519 -1.3343  0.4973
  952MOL0     H31370   8.117   6.183   1.078  0.4929 -1.6724  0.5057
  952MOL0     H31371   8.062   6.310   1.199 -0.8093  0.3536  0.0313
  952MOL0     H31372   7.693   6.191   1.051  0.9210 -1.2629 -1.1978
  952MOL0     H31373   8.137   5.990   1.816 -4.2179 -0.5794 -3.2916
  952MOL0     H31374   8.246   5.840   2.098  0.5411  2.4571 -0.0705
  952MOL0     H31375   8.089   5.886   2.038  1.6712  3.0305 -1.2050
  952MOL0     H31376   8.136   5.709   2.043  1.0054  0.7184  1.2501
  953MOL0     O31377  10.662   5.003   2.361 -0.3562 -0.3881  0.5416
  953MOL0     C31378  10.551   4.955   2.339 -0.2901 -0.4565 -0.2092
  953MOL0     O31379  10.448   4.992   2.412  0.5983  0.0742  0.5975
  953MOL0     C31380  10.450   5.113   2.473 -0.1119  0.6601 -0.6749
  953MOL0     C31381  10.414   5.230   2.412 -0.0765  0.0996  0.0696
  953MOL0     C31382  10.428   5.354   2.467  0.1477  0.2113 -0.1764
  953MOL0     C31383  10.482   5.361   2.598  0.3300 -0.7159 -0.8752
  953MOL0     O31384  10.490   5.479   2.665 -0.1936 -0.0836 -0.6019
  953MOL0     C31385  10.473   5.612   2.599  0.9740  0.4648  0.0900
  953MOL0     C31386  10.478   5.726   2.700 -0.7222  0.7026 -0.5251
  953MOL0     C31387  10.598   5.733   2.791  0.1891  0.4638 -0.6905
  953MOL0     C31388  10.729   5.776   2.715  0.8427  0.6529 -1.0961
  953MOL0     C31389  10.840   5.779   2.817 -0.1471 -0.4910  0.0863
  953MOL0     C31390  10.979   5.797   2.757  0.2937 -1.2719 -0.2869
  953MOL0     C31391  11.057   5.672   2.713  0.0766 -0.4634  0.1694
  953MOL0     C31392  11.172   5.703   2.628 -0.5320  0.3337 -0.0767
  953MOL0     N31393  11.249   5.821   2.664  0.5631 -0.3864 -0.1128
  953MOL0     C31394  11.347   5.826   2.762 -0.1795  0.2901 -0.7831
  953MOL0     C31395  11.406   5.939   2.730 -0.0093  0.5395 -0.4891
  953MOL0     C31396  11.516   6.018   2.802 -0.0163  0.1175 -0.1650
  953MOL0     C31397  11.625   5.918   2.849  0.3900  0.0435  0.1348
  953MOL0     C31398  11.724   5.924   2.737  0.5531 -0.7793  0.1733
  953MOL0     C31399  11.828   5.812   2.737  0.0125 -0.1772 -0.6444
  953MOL0     O31400  11.909   5.810   2.854  0.6861 -0.3761  0.4296
  953MOL0     C31401  12.009   5.717   2.875 -0.8905 -0.5607 -0.8698
  953MOL0     C31402  12.061   5.715   3.007 -0.6204 -0.2970 -0.0160
  953MOL0     C31403  12.181   5.644   3.041  1.0126 -0.6333 -0.6066
  953MOL0     C31404  12.229   5.655   3.183  0.4890  0.7166 -0.4363
  953MOL0     C31405  12.235   5.549   2.944 -0.2445 -0.9828  0.3062
  953MOL0     C31406  12.357   5.463   2.970  0.6335 -0.0883 -0.6106
  953MOL0     O31407  12.359   5.367   2.882 -0.0188  0.2421  0.0558
  953MOL0     C31408  12.468   5.291   2.876 -0.6015 -1.0490 -0.7151
  953MOL0     C31409  12.496   5.189   2.956 -0.4665 -0.2247 -0.6386
  953MOL0     C31410  12.614   5.111   2.936 -0.8809 -0.5096  1.1779
  953MOL0     C31411  12.697   5.128   2.828 -0.1026  0.1284  0.7956
  953MOL0     O31412  12.807   5.048   2.820 -0.0376  0.6818 -0.8593
  953MOL0     C31413  12.921   5.103   2.760  0.4735  0.2272 -1.1726
  953MOL0     C31414  13.045   5.013   2.783  0.4033  0.0792 -0.4621
  953MOL0     C31415  13.101   5.016   2.920  0.2189  0.2504 -0.1383
  953MOL0     C31416  13.179   4.894   2.957 -0.0470  0.2442  0.2941
  953MOL0     C31417  13.252   4.903   3.088 -0.9275  0.7231 -0.0895
  953MOL0     C31418  13.287   4.759   3.138  0.2660  0.7478 -0.9781
  953MOL0     C31419  13.404   4.685   3.062 -0.6302 -0.0697 -0.3446
  953MOL0     C31420  13.489   4.604   3.159  0.7533 -0.1382  0.1704
  953MOL0    Cl31421  13.563   4.478   3.063  0.1444 -0.0264  0.3707
  953MOL0     C31422  12.666   5.230   2.736 -0.4422  0.3820  0.4471
  953MOL0     C31423  12.557   5.308   2.770 -0.2370 -0.2887 -0.6364
  953MOL0     O31424  12.437   5.487   3.055 -0.2752  0.1886 -0.5066
  953MOL0     C31425  12.184   5.556   2.814  1.0159 -0.2293  0.2158
  953MOL0     C31426  12.075   5.641   2.783 -0.1999 -0.2331 -0.3172
  953MOL0     N31427  11.339   6.001   2.630 -0.6100 -0.1061 -0.1713
  953MOL0     N31428  11.245   5.933   2.583  0.4113 -0.2515 -0.1338
  953MOL0     C31429  10.516   5.243   2.670  1.1180 -0.4653 -0.4408
  953MOL0     C31430  10.498   5.118   2.608  0.3724 -0.6124  0.6464
  953MOL0     C31431  10.524   4.837   2.257  0.0642  0.1015 -0.1021
  953MOL0     C31432  10.390   4.787   2.238  0.2207 -0.9801  1.1058
  953MOL0     C31433  10.366   4.687   2.147  0.3288  0.3808 -0.0315
  953MOL0     C31434  10.465   4.619   2.081  0.3828 -0.3588  0.1056
  953MOL0     O31435  10.430   4.509   2.004 -0.5975 -0.2991  0.0215
  953MOL0     C31436  10.530   4.452   1.921 -1.1470 -1.0247 -0.1248
  953MOL0     C31437  10.467   4.335   1.860  0.8488 -1.2553 -0.1205
  953MOL0     C31438  10.427   4.231   1.970 -0.0198  0.6795  1.0767
  953MOL0     C31439  10.413   4.084   1.922 -0.3498 -0.9010  0.5560
  953MOL0     C31440  10.394   4.001   2.044 -0.3310 -0.5133  0.2627
  953MOL0     C31441  10.377   3.947   2.150 -0.0739  0.7173  0.0497
  953MOL0     C31442  10.593   4.664   2.101  0.0253 -0.2213  0.3489
  953MOL0     C31443  10.630   4.764   2.187  2.4101 -0.7965 -0.0349
  953MOL0     C31444  10.778   4.784   2.209  0.5202  0.6128  0.4296
  953MOL0     H31445  10.359   5.226   2.318 -0.9738  0.4905  0.5628
  953MOL0     H31446  10.403   5.446   2.414  0.3516  0.8665  0.8310
  953MOL0     H31447  10.376   5.625   2.550  2.0201  1.3267 -1.8505
  953MOL0     H31448  10.544   5.620   2.516 -1.0587 -6.3494 -2.9708
  953MOL0     H31449  10.481   5.827   2.656  1.1757  0.9140 -0.0053
  953MOL0     H31450  10.382   5.735   2.751 -0.5017 -0.1611  0.0552
  953MOL0     H31451  10.576   5.804   2.872 -0.4672 -0.8756  0.3391
  953MOL0     H31452  10.614   5.641   2.846  0.0752  1.1503  0.5277
  953MOL0     H31453  10.749   5.694   2.646  0.9100 -0.2504 -0.0316
  953MOL0     H31454  10.722   5.873   2.666  1.8860  0.7125 -1.1594
  953MOL0     H31455  10.847   5.687   2.875 -0.1909 -0.1853  0.5785
  953MOL0     H31456  10.814   5.863   2.882 -0.4708  1.9022 -2.8837
  953MOL0     H31457  10.977   5.864   2.670 -1.5881  0.6811  1.1468
  953MOL0     H31458  11.038   5.844   2.836 -0.1155  0.8714 -1.1795
  953MOL0     H31459  10.996   5.593   2.668 -0.3542 -1.5239  2.4682
  953MOL0     H31460  11.095   5.632   2.807 -1.6380 -1.2374  0.5805
  953MOL0     H31461  11.235   5.613   2.621  0.7618  1.3221 -1.9709
  953MOL0     H31462  11.140   5.717   2.524  2.3785 -2.2899 -1.5177
  953MOL0     H31463  11.361   5.767   2.852  1.9821  0.7966 -0.7306
  953MOL0     H31464  11.484   6.068   2.894 -3.0853 -1.4319 -0.2418
  953MOL0     H31465  11.546   6.097   2.733 -2.1034 -0.2786 -1.6422
  953MOL0     H31466  11.675   5.956   2.939 -0.4984 -2.9343  2.0241
  953MOL0     H31467  11.592   5.817   2.874  1.1255  0.0192  1.0673
  953MOL0     H31468  11.666   5.921   2.644  0.1896 -3.8380  0.3627
  953MOL0     H31469  11.772   6.022   2.738  2.4735 -1.6700 -0.6242
  953MOL0     H31470  11.786   5.711   2.730  1.2211 -0.9676  2.1264
  953MOL0     H31471  11.886   5.826   2.645  0.0005  4.9819 -0.1305
  953MOL0     H31472  12.021   5.775   3.087 -0.5798 -0.2234 -0.0505
  953MOL0     H31473  12.177   5.730   3.244  0.1124 -0.6390  0.9742
  953MOL0     H31474  12.331   5.693   3.182  0.0062  2.1350  0.6140
  953MOL0     H31475  12.224   5.557   3.230  1.0810 -0.1435 -2.0934
  953MOL0     H31476  12.428   5.166   3.037 -1.8733  4.0130 -0.3864
  953MOL0     H31477  12.643   5.045   3.018  0.5132  0.3381  1.3886
  953MOL0     H31478  12.901   5.104   2.652 -1.5373  0.9954 -0.8347
  953MOL0     H31479  12.939   5.201   2.806  0.8463 -0.1157 -0.5887
  953MOL0     H31480  13.018   4.911   2.754 -0.7708  0.6660 -1.5415
  953MOL0     H31481  13.129   5.028   2.715 -0.8089  0.1610 -1.9985
  953MOL0     H31482  13.021   5.042   2.990 -1.3086 -1.5477 -1.0979
  953MOL0     H31483  13.175   5.095   2.922 -0.3131  0.7714  2.3831
  953MOL0     H31484  13.251   4.882   2.875  1.8105  0.6819  1.7755
  953MOL0     H31485  13.121   4.802   2.945  0.4435 -0.0792  0.3804
  953MOL0     H31486  13.340   4.965   3.071 -0.9926  0.6543 -0.6831
  953MOL0     H31487  13.196   4.947   3.171  0.5535  1.1409  0.7261
  953MOL0     H31488  13.202   4.691   3.145 -0.8640  2.3049  2.2639
  953MOL0     H31489  13.314   4.776   3.242  1.1200 -0.2471 -1.0176
  953MOL0     H31490  13.459   4.763   3.008 -2.5709  2.0737  0.5834
  953MOL0     H31491  13.363   4.618   2.987 -2.5956  2.1107 -1.3501
  953MOL0     H31492  13.431   4.551   3.236  0.7752  0.6108  0.7083
  953MOL0     H31493  13.568   4.659   3.211 -1.2711  1.8179  1.3489
  953MOL0     H31494  12.733   5.254   2.654 -0.5306  2.6330  0.9540
  953MOL0     H31495  12.523   5.385   2.702  2.4271  1.6805  0.1275
  953MOL0     H31496  12.224   5.496   2.734  1.7056  2.9697 -2.0308
  953MOL0     H31497  12.056   5.657   2.678  2.1181 -0.0430 -0.7537
  953MOL0     H31498  10.533   5.254   2.777 -0.4403  0.8024 -0.2778
  953MOL0     H31499  10.524   5.028   2.663  1.2392 -2.0669 -1.9320
  953MOL0     H31500  10.307   4.817   2.300 -1.1555 -0.9559 -0.6530
  953MOL0     H31501  10.272   4.635   2.129  2.0443 -2.2213 -2.2726
  953MOL0     H31502  10.567   4.525   1.848 -2.1168  0.6157  0.9404
  953MOL0     H31503  10.621   4.417   1.970  0.1150  1.2251 -0.7251
  953MOL0     H31504  10.534   4.294   1.785 -1.0774 -1.7862 -1.6363
  953MOL0     H31505  10.374   4.359   1.807  0.8581  0.9020  0.7385
  953MOL0     H31506  10.513   4.226   2.038  0.0605  1.4005  1.0420
  953MOL0     H31507  10.338   4.259   2.028 -0.4520 -0.1992  0.8476
  953MOL0     H31508  10.496   4.039   1.867  0.3003  0.8660  0.0165
  953MOL0     H31509  10.326   4.091   1.855  0.4954  4.6413 -0.4912
  953MOL0     H31510  10.341   3.911   2.244 -1.9231 -2.9853 -1.8569
  953MOL0     H31511  10.677   4.615   2.052  0.9490  1.3712  0.2578
  953MOL0     H31512  10.805   4.883   2.171 -1.1871  0.7060 -0.6578
  953MOL0     H31513  10.799   4.780   2.316 -1.7133  1.5149  0.9401
  953MOL0     H31514  10.835   4.711   2.150 -0.1277 -0.1033  0.6637
  954MOL0     O31515   5.302   6.931   8.501 -0.4029 -0.9347  0.6163
  954MOL0     C31516   5.331   7.048   8.527  0.7460  0.0034 -0.5436
  954MOL0     O31517   5.243   7.150   8.534  0.3785  0.3076 -0.1179
  954MOL0     C31518   5.109   7.126   8.503 -0.2386  0.0628  0.7106
  954MOL0     C31519   5.035   7.020   8.559  0.7649  0.8579 -1.1174
  954MOL0     C31520   4.903   6.994   8.517  0.3937  0.2840  0.5584
  954MOL0     C31521   4.838   7.073   8.431 -0.0013 -0.5443 -0.2277
  954MOL0     O31522   4.708   7.058   8.402  0.6052 -0.2718  0.6748
  954MOL0     C31523   4.674   7.062   8.264  1.0800  0.0058 -0.2216
  954MOL0     C31524   4.528   7.022   8.251 -0.2101 -0.0947 -0.3951
  954MOL0     C31525   4.477   7.009   8.104  0.2057 -0.0408 -0.6481
  954MOL0     C31526   4.557   6.908   8.031 -0.0492  0.1002  0.5197
  954MOL0     C31527   4.489   6.878   7.896 -0.0710  0.2872  0.0841
  954MOL0     C31528   4.548   6.750   7.840 -0.5920 -0.2176  0.8721
  954MOL0     C31529   4.694   6.764   7.801 -0.1241 -0.5651 -0.5111
  954MOL0     C31530   4.757   6.612   7.808  0.7429 -0.0849  0.8866
  954MOL0     N31531   4.691   6.509   7.718 -0.3169 -0.2850 -0.1873
  954MOL0     C31532   4.686   6.536   7.585 -0.7944  0.0879  0.9805
  954MOL0     C31533   4.598   6.453   7.527  0.3857  0.5063 -0.6632
  954MOL0     C31534   4.560   6.455   7.389  1.0423 -1.1196 -0.2509
  954MOL0     C31535   4.683   6.454   7.290 -0.2297  0.4749  0.3005
  954MOL0     C31536   4.653   6.491   7.146 -0.3531  0.2979  0.3896
  954MOL0     C31537   4.774   6.474   7.058  0.1677 -0.1640  0.2933
  954MOL0     O31538   4.890   6.538   7.111 -0.4511  0.2556  1.0387
  954MOL0     C31539   4.999   6.544   7.035  0.2020 -0.3404  0.0605
  954MOL0     C31540   5.017   6.477   6.911  0.0980 -0.7462  0.2858
  954MOL0     C31541   5.123   6.504   6.822  0.5661 -0.4011 -0.1238
  954MOL0     C31542   5.120   6.426   6.693  0.1648  0.1072  0.1988
  954MOL0     C31543   5.214   6.611   6.852  0.4512  0.4569 -0.2252
  954MOL0     C31544   5.314   6.665   6.770 -0.8398  0.1744  0.5023
  954MOL0     O31545   5.340   6.595   6.653  0.0800 -0.5134  0.0954
  954MOL0     C31546   5.472   6.562   6.634  0.8118 -0.3981 -0.1417
  954MOL0     C31547   5.582   6.591   6.718  0.7351  0.2731  0.3796
  954MOL0     C31548   5.709   6.539   6.689  0.0743 -0.2701 -0.0933
  954MOL0     C31549   5.739   6.450   6.577 -0.0327  0.0041  0.1135
  954MOL0     O31550   5.868   6.402   6.580  0.4549 -0.0081  0.0115
  954MOL0     C31551   5.946   6.401   6.459  0.0393  0.1267  0.0204
  954MOL0     C31552   6.099   6.377   6.481  0.3183  0.1943 -0.4103
  954MOL0     C31553   6.163   6.465   6.597  0.1731  0.9692 -0.6831
  954MOL0     C31554   6.302   6.422   6.626  0.4294 -0.5960  0.4802
  954MOL0     C31555   6.370   6.547   6.699  0.8232 -0.0362 -0.1910
  954MOL0     C31556   6.509   6.515   6.743 -0.4495 -0.0550 -0.8390
  954MOL0     C31557   6.616   6.510   6.635  0.0893  0.3867 -0.1452
  954MOL0     C31558   6.755   6.465   6.702 -0.0703  0.3750 -0.1643
  954MOL0    Cl31559   6.821   6.601   6.799  0.0442 -0.0391  0.0654
  954MOL0     C31560   5.634   6.427   6.484 -0.6257  0.4548  0.1119
  954MOL0     C31561   5.502   6.481   6.513 -0.4093 -0.8002  0.9057
  954MOL0     O31562   5.368   6.771   6.798  0.0748 -0.5769  0.7816
  954MOL0     C31563   5.192   6.685   6.970 -1.1414  0.0302 -0.3427
  954MOL0     C31564   5.091   6.644   7.061  0.2256  0.1501  0.4357
  954MOL0     N31565   4.543   6.385   7.632  0.0910  0.0583  0.9012
  954MOL0     N31566   4.594   6.415   7.742  0.3227  0.5677 -0.8714
  954MOL0     C31567   4.906   7.193   8.391  0.5825  0.5501  0.0390
  954MOL0     C31568   5.042   7.214   8.421  0.5080 -0.5725  0.2616
  954MOL0     C31569   5.468   7.072   8.559 -0.9464 -0.3794  0.4602
  954MOL0     C31570   5.567   6.986   8.504  0.1825  0.0113  0.2203
  954MOL0     C31571   5.700   7.006   8.534 -0.9833  1.3129  0.7856
  954MOL0     C31572   5.744   7.091   8.627 -0.5622 -0.1422 -0.0937
  954MOL0     O31573   5.870   7.112   8.658  0.7589  0.0535 -0.1070
  954MOL0     C31574   5.969   7.105   8.551  0.7443 -0.2178  0.5486
  954MOL0     C31575   6.110   7.172   8.564 -0.3523 -0.0563 -0.6758
  954MOL0     C31576   6.192   7.083   8.662  0.1952 -0.2012 -0.1450
  954MOL0     C31577   6.313   7.164   8.696 -0.1619 -1.0151 -0.0918
  954MOL0     C31578   6.429   7.161   8.600  1.2111  0.2146  0.0577
  954MOL0     C31579   6.532   7.153   8.528 -0.2615  0.0094  0.1726
  954MOL0     C31580   5.652   7.169   8.694  0.4244 -0.2680  0.2911
  954MOL0     C31581   5.515   7.168   8.649 -0.3820  0.8988 -0.5489
  954MOL0     C31582   5.422   7.262   8.719 -0.4493  0.1053  0.1692
  954MOL0     H31583   5.066   6.968   8.649  0.7466  1.3440 -0.8265
  954MOL0     H31584   4.864   6.901   8.557  0.0995  0.3944  0.5299
  954MOL0     H31585   4.744   6.994   8.214 -0.4305 -1.3254 -0.6137
  954MOL0     H31586   4.692   7.159   8.218 -0.8646  0.3929 -0.2653
  954MOL0     H31587   4.514   6.925   8.300 -3.5385  0.8053  0.7085
  954MOL0     H31588   4.466   7.091   8.310 -1.8703 -3.6261  2.4372
  954MOL0     H31589   4.372   6.978   8.102  0.3343 -0.6014  0.3454
  954MOL0     H31590   4.483   7.108   8.058  2.0054  0.4680  0.5670
  954MOL0     H31591   4.665   6.925   8.032 -0.3378  2.1226  0.3952
  954MOL0     H31592   4.545   6.813   8.083 -1.3009  1.1435  2.2298
  954MOL0     H31593   4.518   6.959   7.829  2.1857 -0.8328 -0.3738
  954MOL0     H31594   4.380   6.873   7.891 -0.0835  0.0813  0.5340
  954MOL0     H31595   4.517   6.668   7.906 -2.3322 -1.7566 -1.6831
  954MOL0     H31596   4.502   6.722   7.744 -1.5982  3.5541  0.0815
  954MOL0     H31597   4.738   6.826   7.879 -2.3565  0.3300  0.1059
  954MOL0     H31598   4.713   6.814   7.706 -0.7044 -1.9513 -1.3921
  954MOL0     H31599   4.864   6.619   7.786  0.9379  1.7861  2.1416
  954MOL0     H31600   4.736   6.572   7.908  0.2461  0.1223  0.8653
  954MOL0     H31601   4.750   6.608   7.535 -1.1516  0.7675  1.4818
  954MOL0     H31602   4.501   6.545   7.369  0.1320 -1.1187  2.0904
  954MOL0     H31603   4.489   6.377   7.361 -1.1434  0.2884  1.0282
  954MOL0     H31604   4.757   6.524   7.328  0.2047  1.5318 -2.2666
  954MOL0     H31605   4.737   6.358   7.292  2.3332  1.8170 -0.3952
  954MOL0     H31606   4.579   6.422   7.107 -0.0237  0.5574 -0.7153
  954MOL0     H31607   4.612   6.592   7.135 -1.9884 -0.4931 -1.4476
  954MOL0     H31608   4.794   6.370   7.032 -5.0920 -1.8527  1.6306
  954MOL0     H31609   4.754   6.531   6.967  0.3282  0.6244  0.7420
  954MOL0     H31610   4.945   6.400   6.887  0.6418 -0.6675 -1.7976
  954MOL0     H31611   5.204   6.355   6.690  0.0813 -0.0078  0.6479
  954MOL0     H31612   5.133   6.484   6.601 -0.2353  1.1696  0.7895
  954MOL0     H31613   5.032   6.363   6.681 -0.1546  0.8959 -2.3223
  954MOL0     H31614   5.576   6.657   6.803  0.9650 -2.0791  2.3416
  954MOL0     H31615   5.778   6.560   6.771  1.5398  0.0184 -1.3595
  954MOL0     H31616   5.910   6.323   6.390  0.4685 -1.0624  1.1153
  954MOL0     H31617   5.921   6.496   6.411 -1.0471  0.4414  1.1743
  954MOL0     H31618   6.120   6.272   6.503  2.4060  0.3639 -1.3593
  954MOL0     H31619   6.147   6.394   6.384  0.8862  3.4013  0.3036
  954MOL0     H31620   6.096   6.455   6.683 -2.3658 -1.5385 -2.7447
  954MOL0     H31621   6.161   6.569   6.565  0.0723  2.1407  2.6793
  954MOL0     H31622   6.364   6.405   6.537  1.0104 -1.8001  1.0901
  954MOL0     H31623   6.300   6.329   6.684  1.3476 -0.9104  0.0399
  954MOL0     H31624   6.367   6.636   6.636  1.3759  0.9092  1.0579
  954MOL0     H31625   6.310   6.576   6.786  1.4674  1.8675 -0.3431
  954MOL0     H31626   6.510   6.428   6.809 -0.5844  0.0578 -0.6859
  954MOL0     H31627   6.535   6.603   6.804 -2.5892  1.3763 -1.8725
  954MOL0     H31628   6.622   6.609   6.588 -0.7968  0.1801 -0.7370
  954MOL0     H31629   6.595   6.453   6.544  4.0811 -2.2881  0.3664
  954MOL0     H31630   6.813   6.445   6.612  0.8160 -0.8299  0.6558
  954MOL0     H31631   6.752   6.371   6.757 -0.7266  0.1487 -0.5741
  954MOL0     H31632   5.639   6.364   6.396  1.2715 -2.5200  2.1535
  954MOL0     H31633   5.429   6.453   6.438  0.5877  1.9842 -1.2985
  954MOL0     H31634   5.256   6.768   6.998 -0.6456 -0.5260  0.1822
  954MOL0     H31635   5.074   6.696   7.155  0.1957  0.9877 -0.0204
  954MOL0     H31636   4.854   7.261   8.324 -0.5570 -1.4629 -1.2096
  954MOL0     H31637   5.099   7.300   8.385 -0.4285 -0.7067 -1.6504
  954MOL0     H31638   5.538   6.899   8.446  1.3726 -0.8409  0.8468
  954MOL0     H31639   5.757   6.944   8.464 -1.0808  1.7781  0.2823
  954MOL0     H31640   5.989   7.000   8.528 -0.2436 -0.0424 -1.3010
  954MOL0     H31641   5.936   7.140   8.452 -0.9900 -2.8366  0.1142
  954MOL0     H31642   6.094   7.278   8.587  0.1263  0.2561 -1.7122
  954MOL0     H31643   6.156   7.178   8.465 -0.5136 -2.6332 -0.9824
  954MOL0     H31644   6.134   7.074   8.754 -0.4727 -1.8707 -0.7010
  954MOL0     H31645   6.232   6.990   8.619  1.5181  0.3873 -0.2311
  954MOL0     H31646   6.355   7.120   8.787  1.6900 -0.7537 -0.7779
  954MOL0     H31647   6.298   7.270   8.718  1.7743 -0.4998 -0.9953
  954MOL0     H31648   6.623   7.143   8.471 -0.9174 -1.8239 -0.6490
  954MOL0     H31649   5.686   7.230   8.776 -0.1913  1.8187 -0.9379
  954MOL0     H31650   5.480   7.337   8.773 -0.6832 -1.1237  2.2815
  954MOL0     H31651   5.358   7.312   8.645  1.9047  1.8906 -0.7763
  954MOL0     H31652   5.356   7.207   8.787  0.7135 -0.5639  0.7736
  955MOL0     O31653  11.285   1.010   1.673  0.9885 -0.0539 -0.2557
  955MOL0     C31654  11.321   0.998   1.792  0.2011 -1.1656 -0.2833
  955MOL0     O31655  11.390   1.093   1.858  0.2516 -0.4804 -0.0822
  955MOL0     C31656  11.405   1.226   1.815  0.2263 -0.0042 -0.1318
  955MOL0     C31657  11.300   1.297   1.757 -0.0208  0.3459  0.2428
  955MOL0     C31658  11.310   1.436   1.728  0.3796  1.0925  0.0356
  955MOL0     C31659  11.430   1.497   1.763 -0.9503  0.3824 -0.2958
  955MOL0     O31660  11.430   1.635   1.744  0.6963 -1.0827 -0.0307
  955MOL0     C31661  11.532   1.713   1.805  0.8087  0.3967  0.2646
  955MOL0     C31662  11.518   1.855   1.748  0.9199 -0.1538 -0.0474
  955MOL0     C31663  11.616   1.870   1.640 -0.2625  0.8195  0.5880
  955MOL0     C31664  11.616   2.015   1.587 -0.5216 -0.4320  0.6187
  955MOL0     C31665  11.727   2.019   1.483 -0.3694 -0.3788  0.3018
  955MOL0     C31666  11.747   2.156   1.416 -0.1781  0.4103 -0.7583
  955MOL0     C31667  11.626   2.258   1.436  0.3700 -0.0337 -0.2165
  955MOL0     C31668  11.643   2.394   1.360 -0.4164  0.0040 -0.2087
  955MOL0     N31669  11.681   2.495   1.461 -0.2460  0.3697  0.1606
  955MOL0     C31670  11.810   2.547   1.482  0.7082 -0.4694  0.0339
  955MOL0     C31671  11.781   2.646   1.572 -0.3161  1.0285  0.1124
  955MOL0     C31672  11.887   2.728   1.603 -0.3060 -0.1258 -1.0948
  955MOL0     C31673  11.911   2.828   1.497 -0.7260  0.7538 -0.1646
  955MOL0     C31674  12.043   2.896   1.512 -0.1103 -0.1675  0.2262
  955MOL0     C31675  12.078   2.989   1.394 -0.1203  0.6842 -1.0356
  955MOL0     O31676  12.009   3.105   1.400  0.0182 -0.8412 -0.9786
  955MOL0     C31677  12.028   3.205   1.312  0.3309 -0.8454 -0.1190
  955MOL0     C31678  11.954   3.327   1.322  0.0237  0.7087 -0.2464
  955MOL0     C31679  11.989   3.439   1.241  0.5245  0.1288 -0.8500
  955MOL0     C31680  11.893   3.556   1.246  0.5381 -0.3937 -0.2967
  955MOL0     C31681  12.085   3.426   1.146 -0.5778 -0.1161  0.8415
  955MOL0     C31682  12.130   3.538   1.060 -0.4947 -0.4872  0.0043
  955MOL0     O31683  12.219   3.510   0.960 -0.7188  0.0179  0.4717
  955MOL0     C31684  12.227   3.604   0.856  0.2917  0.2082 -0.0224
  955MOL0     C31685  12.120   3.612   0.758  0.8530 -0.3939 -0.7623
  955MOL0     C31686  12.135   3.697   0.650  0.1740 -0.0537  0.7613
  955MOL0     C31687  12.255   3.783   0.639  0.0277  0.7047 -0.2869
  955MOL0     O31688  12.265   3.879   0.535 -0.8583  0.5446  0.3865
  955MOL0     C31689  12.150   3.890   0.442  0.2166 -0.3207 -0.5519
  955MOL0     C31690  12.147   4.017   0.349 -0.7905  0.6607  0.1233
  955MOL0     C31691  12.262   4.046   0.265  0.0183  0.7848 -0.6002
  955MOL0     C31692  12.319   3.928   0.180  0.2872  0.1728  0.3336
  955MOL0     C31693  12.426   3.996   0.090 -1.3692 -0.6245  0.4202
  955MOL0     C31694  12.488   3.883   0.002 -0.6266  0.4980 -0.1217
  955MOL0     C31695  12.607   3.936  -0.085 -0.0367 -1.0931  0.0596
  955MOL0     C31696  12.586   4.079  -0.150 -0.6099  0.0666  0.0459
  955MOL0    Cl31697  12.721   4.129  -0.267  0.1346 -0.1897  0.0430
  955MOL0     C31698  12.355   3.768   0.738 -0.8370 -0.3157 -0.4820
  955MOL0     C31699  12.346   3.679   0.846 -0.0970  0.1316 -0.0779
  955MOL0     O31700  12.107   3.655   1.091 -0.7723  0.3096  0.3093
  955MOL0     C31701  12.160   3.307   1.139  0.3598 -0.0764  0.8176
  955MOL0     C31702  12.137   3.197   1.220 -0.0485  0.2257 -0.4052
  955MOL0     N31703  11.652   2.647   1.606 -0.4214  0.3019 -0.5079
  955MOL0     N31704  11.597   2.550   1.545  0.5578  0.7253 -0.5117
  955MOL0     C31705  11.532   1.422   1.831  0.2434 -0.1828  0.0617
  955MOL0     C31706  11.517   1.285   1.858 -0.0508 -1.2930 -0.2202
  955MOL0     C31707  11.300   0.876   1.875  1.0588 -0.3070  0.1249
  955MOL0     C31708  11.355   0.869   2.003  0.5889  0.9022  0.0209
  955MOL0     C31709  11.316   0.759   2.089 -0.9108  0.0514 -0.1268
  955MOL0     C31710  11.226   0.665   2.053 -0.5673  0.5106  0.3445
  955MOL0     O31711  11.192   0.559   2.130  0.1934 -0.5368 -0.0961
  955MOL0     C31712  11.195   0.564   2.272 -0.5749  0.0843  0.1791
  955MOL0     C31713  11.333   0.510   2.315  0.3133  0.6756  0.0905
  955MOL0     C31714  11.314   0.362   2.341  0.4031 -0.2494  1.0223
  955MOL0     C31715  11.322   0.281   2.212  0.5379 -0.0987  0.6276
  955MOL0     C31716  11.302   0.136   2.240 -0.4520 -1.6438 -0.2164
  955MOL0     C31717  11.291   0.012   2.238 -0.4375  0.2964  0.3289
  955MOL0     C31718  11.182   0.665   1.922  0.0328 -0.8195  0.5163
  955MOL0     C31719  11.213   0.769   1.832  0.6840  0.5176  0.6531
  955MOL0     C31720  11.152   0.766   1.686  1.0302  0.1977  0.2504
  955MOL0     H31721  11.202   1.252   1.746 -1.1134  2.8422 -1.1616
  955MOL0     H31722  11.234   1.508   1.701 -2.3152 -0.8028  2.0311
  955MOL0     H31723  11.634   1.673   1.796 -0.5732 -3.2342 -1.1277
  955MOL0     H31724  11.504   1.729   1.910 -0.3696 -0.3646  0.0822
  955MOL0     H31725  11.417   1.879   1.712  1.6078  1.5464 -0.9648
  955MOL0     H31726  11.559   1.932   1.813  2.1568  0.7979 -1.8685
  955MOL0     H31727  11.715   1.831   1.666 -0.2657  0.0233 -0.5037
  955MOL0     H31728  11.579   1.800   1.564 -1.9462 -0.6803  2.6680
  955MOL0     H31729  11.517   2.027   1.543 -1.3987 -4.3069  1.1452
  955MOL0     H31730  11.634   2.085   1.669 -1.2685 -0.6052  0.9402
  955MOL0     H31731  11.709   1.958   1.394 -1.7753 -0.4929  0.6379
  955MOL0     H31732  11.822   1.995   1.531 -0.4920 -2.0807 -0.2237
  955MOL0     H31733  11.843   2.193   1.453 -2.1348  3.2074  2.0883
  955MOL0     H31734  11.746   2.153   1.307  2.8159  1.1451 -0.8836
  955MOL0     H31735  11.606   2.279   1.541  0.0643  0.1867 -0.3153
  955MOL0     H31736  11.539   2.202   1.399  2.9695 -5.0598  0.4205
  955MOL0     H31737  11.715   2.398   1.278 -0.2461 -0.3187 -0.0768
  955MOL0     H31738  11.545   2.414   1.314  0.1308  1.8999 -0.6395
  955MOL0     H31739  11.908   2.529   1.440  2.6704 -1.5547  4.4486
  955MOL0     H31740  11.979   2.671   1.617 -0.8108 -0.8151 -0.4775
  955MOL0     H31741  11.863   2.767   1.702  1.0385  0.4800 -0.9917
  955MOL0     H31742  11.912   2.762   1.409  3.1595  0.3929 -0.0629
  955MOL0     H31743  11.823   2.892   1.492  0.1044  1.8613 -0.9339
  955MOL0     H31744  12.046   2.945   1.610  1.2141 -2.0710  1.2123
  955MOL0     H31745  12.117   2.815   1.508  1.1654  1.0256 -1.5562
  955MOL0     H31746  12.185   3.014   1.392  0.2811 -0.8629 -0.4045
  955MOL0     H31747  12.066   2.942   1.297  0.4063 -1.9972  0.1231
  955MOL0     H31748  11.876   3.326   1.396 -2.2969 -1.8424 -2.4779
  955MOL0     H31749  11.928   3.635   1.312  2.1149 -1.8573  0.7050
  955MOL0     H31750  11.803   3.518   1.295  1.6821 -1.3147  1.1651
  955MOL0     H31751  11.871   3.585   1.142  0.3393 -0.8247 -0.3789
  955MOL0     H31752  12.025   3.560   0.767 -0.3448  0.7832 -4.6986
  955MOL0     H31753  12.059   3.690   0.573  2.3981 -0.8661 -1.5299
  955MOL0     H31754  12.171   3.802   0.380 -0.5211 -1.4206  0.7094
  955MOL0     H31755  12.059   3.879   0.501  0.0324 -0.9502 -0.9395
  955MOL0     H31756  12.051   4.013   0.297 -0.6615 -3.8491 -0.1700
  955MOL0     H31757  12.137   4.103   0.416 -0.7089  1.5292 -0.9638
  955MOL0     H31758  12.346   4.080   0.326 -0.8554  1.3966  0.2846
  955MOL0     H31759  12.234   4.127   0.196  0.5355 -0.8631 -2.8603
  955MOL0     H31760  12.241   3.883   0.117  0.1940  0.9596 -0.1388
  955MOL0     H31761  12.374   3.849   0.231 -0.1605  0.8735  1.9576
  955MOL0     H31762  12.383   4.073   0.026  1.7257  1.4425  0.6328
  955MOL0     H31763  12.510   4.033   0.149  1.1866 -0.0501 -3.1907
  955MOL0     H31764  12.404   3.840  -0.054 -3.0057  1.2274  2.6092
  955MOL0     H31765  12.526   3.801   0.063 -0.2916  1.4913  1.0363
  955MOL0     H31766  12.638   3.870  -0.167  0.4446  0.2739 -0.8830
  955MOL0     H31767  12.692   3.946  -0.017  0.9292  3.0358 -1.4790
  955MOL0     H31768  12.600   4.150  -0.068  3.4380  0.4258 -0.7599
  955MOL0     H31769  12.488   4.080  -0.200 -1.7924 -1.7450  2.1664
  955MOL0     H31770  12.445   3.827   0.729 -1.6065  1.9457  3.6964
  955MOL0     H31771  12.435   3.669   0.908  0.9202  0.7900 -1.3804
  955MOL0     H31772  12.237   3.289   1.065  1.5650 -1.8982  2.3887
  955MOL0     H31773  12.207   3.115   1.212 -1.6742 -1.2136 -0.5074
  955MOL0     H31774  11.622   1.476   1.861 -2.3477  4.3642  0.4929
  955MOL0     H31775  11.583   1.227   1.922 -2.2542 -1.4087  2.1047
  955MOL0     H31776  11.427   0.938   2.044 -0.2073  1.5220  0.4105
  955MOL0     H31777  11.359   0.762   2.188 -0.8349  2.7397 -0.1721
  955MOL0     H31778  11.192   0.663   2.319  1.1785  0.2464  0.0323
  955MOL0     H31779  11.112   0.500   2.303 -1.1524  1.5085  1.6856
  955MOL0     H31780  11.369   0.566   2.402 -0.7413  0.0373  0.9510
  955MOL0     H31781  11.402   0.523   2.231  1.4611 -2.2649  0.4528
  955MOL0     H31782  11.392   0.321   2.406  2.3553  1.1545 -0.3021
  955MOL0     H31783  11.225   0.333   2.397  1.0031  0.3381  2.3202
  955MOL0     H31784  11.420   0.297   2.166 -0.8853  1.1915 -2.1638
  955MOL0     H31785  11.247   0.306   2.137  0.9756  1.1854  0.5953
  955MOL0     H31786  11.283  -0.094   2.244 -0.5652  0.1320 -1.8423
  955MOL0     H31787  11.105   0.596   1.890 -0.5335 -0.7004  1.5793
  955MOL0     H31788  11.097   0.672   1.674 -1.7911  1.8727 -0.7290
  955MOL0     H31789  11.077   0.844   1.674 -1.2205 -2.0002 -0.9375
  955MOL0     H31790  11.225   0.779   1.605  1.4721  3.1325  1.0276
  956MOL0     O31791   1.635   3.639   6.531  0.1590  0.2995 -0.0837
  956MOL0     C31792   1.635   3.742   6.606  0.6417 -0.4154  0.2336
  956MOL0     O31793   1.701   3.858   6.573 -0.7722 -0.6689  0.2540
  956MOL0     C31794   1.764   3.868   6.449  0.2983 -0.4762  0.1923
  956MOL0     C31795   1.843   3.765   6.399  0.8018 -0.5786 -0.3210
  956MOL0     C31796   1.922   3.785   6.282 -0.7084 -0.6921  0.0770
  956MOL0     C31797   1.940   3.907   6.232 -0.5809 -0.3798 -0.4561
  956MOL0     O31798   2.023   3.918   6.125 -0.6619 -0.1547 -0.0494
  956MOL0     C31799   2.067   4.052   6.086  0.3626  0.5421 -0.4023
  956MOL0     C31800   2.182   4.051   5.990  0.7016  0.1104  0.2060
  956MOL0     C31801   2.234   4.183   5.943 -0.5407 -0.0522  0.5917
  956MOL0     C31802   2.359   4.168   5.876 -0.1915  0.4700 -1.4564
  956MOL0     C31803   2.409   4.296   5.809 -0.9867  0.9059  0.3931
  956MOL0     C31804   2.529   4.276   5.718 -0.2799 -0.1458  1.1826
  956MOL0     C31805   2.670   4.263   5.766  0.0715  0.3664 -0.0610
  956MOL0     C31806   2.687   4.115   5.802  0.7259 -0.0796 -1.3997
  956MOL0     N31807   2.815   4.075   5.850  0.1613  0.0713 -0.6499
  956MOL0     C31808   2.894   4.001   5.767 -0.2795 -0.0360 -0.3717
  956MOL0     C31809   3.009   3.994   5.835  0.2737  0.0540  1.5315
  956MOL0     C31810   3.141   3.938   5.785 -0.4916  0.5359 -0.0672
  956MOL0     C31811   3.161   3.781   5.796 -0.0461 -0.8791  0.1359
  956MOL0     C31812   3.056   3.703   5.719  0.2168 -0.0597  0.1944
  956MOL0     C31813   3.104   3.548   5.733  0.4987 -1.0318 -0.3968
  956MOL0     O31814   3.228   3.522   5.664 -0.3343 -0.2338 -0.4096
  956MOL0     C31815   3.222   3.515   5.522 -0.2210  1.0192 -0.6759
  956MOL0     C31816   3.349   3.492   5.472 -0.4755  0.2658  0.3664
  956MOL0     C31817   3.379   3.500   5.330  0.4144 -0.2341 -0.4979
  956MOL0     C31818   3.525   3.484   5.294  0.3183 -0.4637  0.8899
  956MOL0     C31819   3.270   3.524   5.233  0.2987  0.0820  0.4207
  956MOL0     C31820   3.293   3.529   5.092  0.3425 -0.1233  0.0920
  956MOL0     O31821   3.412   3.472   5.037  0.6011  0.8396  0.7871
  956MOL0     C31822   3.447   3.521   4.923  0.8233  0.5036  0.1233
  956MOL0     C31823   3.388   3.485   4.802 -0.1675 -0.3898 -0.2166
  956MOL0     C31824   3.442   3.539   4.680 -0.0498  0.3159 -0.9958
  956MOL0     C31825   3.549   3.622   4.691 -0.0076 -0.0295 -0.5456
  956MOL0     O31826   3.601   3.681   4.577  0.4418  0.4698  0.8365
  956MOL0     C31827   3.584   3.816   4.568  0.1032 -1.0533  0.1475
  956MOL0     C31828   3.651   3.861   4.438 -0.3828 -0.3062 -0.6323
  956MOL0     C31829   3.666   4.013   4.432 -0.8684  0.3976  0.2461
  956MOL0     C31830   3.754   4.040   4.305  0.0683  0.0949 -0.4174
  956MOL0     C31831   3.738   4.180   4.247  0.5669 -0.1753  0.7347
  956MOL0     C31832   3.810   4.295   4.313  0.0874 -0.1828 -0.4820
  956MOL0     C31833   3.957   4.278   4.293 -0.3332 -0.6740  0.7878
  956MOL0     C31834   4.037   4.410   4.303  0.5562 -0.6391 -0.4063
  956MOL0    Cl31835   4.007   4.505   4.160  0.2840  0.1990  0.1080
  956MOL0     C31836   3.604   3.655   4.811 -0.2523  0.2776  0.1645
  956MOL0     C31837   3.555   3.607   4.930 -0.9233  0.2917  1.0359
  956MOL0     O31838   3.211   3.593   5.021 -0.0249 -0.1669 -0.4054
  956MOL0     C31839   3.142   3.532   5.293  0.1779  0.7456  0.0572
  956MOL0     C31840   3.116   3.526   5.433  0.9305  0.1944 -0.8608
  956MOL0     N31841   2.995   4.045   5.955  0.3751  0.1662  0.0255
  956MOL0     N31842   2.876   4.093   5.964 -0.7546 -0.4779  0.3414
  956MOL0     C31843   1.869   4.013   6.288  0.2002 -0.3615 -0.0522
  956MOL0     C31844   1.780   3.991   6.392 -0.4697  0.2044 -0.7579
  956MOL0     C31845   1.531   3.760   6.713 -0.0783  0.1995 -0.1189
  956MOL0     C31846   1.507   3.893   6.761  0.2044 -0.4026  0.2698
  956MOL0     C31847   1.414   3.924   6.857 -0.0033 -0.4624  0.1640
  956MOL0     C31848   1.324   3.828   6.908 -0.7293  0.7914 -0.5398
  956MOL0     O31849   1.226   3.842   7.002 -0.2979 -0.2427  0.5107
  956MOL0     C31850   1.180   3.971   7.034  0.0875  0.2735 -0.3506
  956MOL0     C31851   1.076   3.972   7.144  0.3844 -0.4549  0.7521
  956MOL0     C31852   0.946   3.907   7.094 -0.7912  0.3059 -0.0482
  956MOL0     C31853   0.858   3.984   6.999  0.2247  0.0292 -0.0075
  956MOL0     C31854   0.748   3.911   6.944 -0.0338 -0.5419  0.5569
  956MOL0     C31855   0.666   3.836   6.891  0.8703  0.0783  0.9066
  956MOL0     C31856   1.356   3.691   6.860 -0.1522 -0.6510 -0.4446
  956MOL0     C31857   1.458   3.658   6.775  0.0334  0.1180  0.2361
  956MOL0     C31858   1.476   3.509   6.766  0.3535 -0.5331  0.9483
  956MOL0     H31859   1.842   3.661   6.428  0.6968 -0.8753 -1.3473
  956MOL0     H31860   1.980   3.700   6.247  1.3347 -0.5616  2.8057
  956MOL0     H31861   2.104   4.112   6.170  1.9025 -1.5443  0.5166
  956MOL0     H31862   1.980   4.106   6.048  0.6171  1.6562  0.5516
  956MOL0     H31863   2.269   3.997   6.030  2.9645  2.0004 -1.8817
  956MOL0     H31864   2.142   3.988   5.910 -0.1406  0.7949  0.0777
  956MOL0     H31865   2.163   4.237   5.879 -1.9237  0.3414  2.3617
  956MOL0     H31866   2.249   4.258   6.022 -4.7909  3.0713 -1.1889
  956MOL0     H31867   2.430   4.128   5.949  0.8562  1.5202 -1.8697
  956MOL0     H31868   2.348   4.093   5.797 -2.0774  0.8969 -1.6346
  956MOL0     H31869   2.450   4.366   5.883 -0.2562  1.3326 -0.3945
  956MOL0     H31870   2.328   4.333   5.746 -0.6540 -0.9286 -1.2153
  956MOL0     H31871   2.512   4.196   5.645  2.1993 -0.1999  0.5547
  956MOL0     H31872   2.531   4.368   5.660 -1.1781 -0.9609 -0.2005
  956MOL0     H31873   2.683   4.317   5.860  2.4228 -1.2984  0.6541
  956MOL0     H31874   2.734   4.306   5.689  0.8431  1.6679  1.2554
  956MOL0     H31875   2.622   4.095   5.887  0.8249  1.1515 -1.0085
  956MOL0     H31876   2.651   4.054   5.719 -0.3013  0.0055 -1.0283
  956MOL0     H31877   2.890   3.978   5.662 -0.7479 -1.5623 -0.0427
  956MOL0     H31878   3.216   3.984   5.850 -0.9453  2.0857 -0.6090
  956MOL0     H31879   3.159   3.969   5.682  1.5002 -1.0740 -0.2838
  956MOL0     H31880   3.257   3.743   5.761 -2.2723 -6.2123 -1.1520
  956MOL0     H31881   3.156   3.761   5.904 -0.7335 -3.1132 -0.2464
  956MOL0     H31882   2.957   3.715   5.763 -1.4500 -0.1932 -3.1454
  956MOL0     H31883   3.042   3.735   5.615  1.7584 -1.0368 -0.3573
  956MOL0     H31884   3.120   3.532   5.840 -0.5967  4.0656  0.7941
  956MOL0     H31885   3.041   3.464   5.703  0.0571 -1.7727  2.3246
  956MOL0     H31886   3.427   3.476   5.546  0.6462  0.1950 -0.8019
  956MOL0     H31887   3.560   3.565   5.228 -0.8094 -1.9612 -1.6769
  956MOL0     H31888   3.553   3.388   5.250  4.7084  0.5381  1.0282
  956MOL0     H31889   3.590   3.491   5.382  0.9555 -0.5590  0.4331
  956MOL0     H31890   3.296   3.427   4.804 -1.3285  1.3624  0.9905
  956MOL0     H31891   3.386   3.520   4.589 -0.9453 -1.0160 -0.1983
  956MOL0     H31892   3.480   3.851   4.570  0.8465  1.4689 -0.6102
  956MOL0     H31893   3.632   3.875   4.647 -0.4735  1.2766 -1.1441
  956MOL0     H31894   3.753   3.821   4.435  0.7529  2.3586 -0.0894
  956MOL0     H31895   3.588   3.832   4.353  2.8117  0.9100 -3.6819
  956MOL0     H31896   3.711   4.052   4.524  1.8682  1.3745 -1.4050
  956MOL0     H31897   3.568   4.055   4.411  0.2927  3.7352  0.9040
  956MOL0     H31898   3.716   3.973   4.227  0.8148 -0.2161 -0.5230
  956MOL0     H31899   3.856   4.009   4.329 -0.0019  1.7084  2.4350
  956MOL0     H31900   3.775   4.182   4.144  2.1350  2.2345  1.2643
  956MOL0     H31901   3.634   4.212   4.251 -0.7435 -3.3709 -2.3021
  956MOL0     H31902   3.791   4.295   4.421  0.7413 -0.3563 -0.3642
  956MOL0     H31903   3.784   4.391   4.267  0.5648 -0.6169 -1.6934
  956MOL0     H31904   3.992   4.230   4.201 -0.5432 -1.9683  1.3573
  956MOL0     H31905   3.997   4.215   4.373  0.8236  0.3845  1.0649
  956MOL0     H31906   4.141   4.379   4.316  0.1992 -1.5451  0.4611
  956MOL0     H31907   4.010   4.477   4.385  1.3478  1.0221 -1.4630
  956MOL0     H31908   3.684   3.728   4.808 -2.1882  2.5049 -1.8209
  956MOL0     H31909   3.612   3.644   5.015 -0.5500  3.2538 -0.3691
  956MOL0     H31910   3.062   3.559   5.225  0.1824 -0.8115 -0.6175
  956MOL0     H31911   3.012   3.536   5.462  0.7806 -2.5012 -0.1857
  956MOL0     H31912   1.860   4.116   6.255 -1.1228 -1.6020 -4.0268
  956MOL0     H31913   1.730   4.080   6.429 -3.4531 -0.0930 -3.5974
  956MOL0     H31914   1.545   3.985   6.718  1.4240 -1.3157 -0.7061
  956MOL0     H31915   1.404   4.029   6.885 -1.8925  0.8169 -4.4303
  956MOL0     H31916   1.263   4.035   7.065  0.4248  0.2039 -1.0772
  956MOL0     H31917   1.153   4.014   6.937 -1.4813 -3.3904 -1.7162
  956MOL0     H31918   1.061   4.078   7.166  1.8528 -0.4997  2.2180
  956MOL0     H31919   1.115   3.936   7.240  1.5237  1.5414  1.0946
  956MOL0     H31920   0.955   3.805   7.054  0.6337  0.2986  0.2415
  956MOL0     H31921   0.890   3.898   7.188  1.2279 -1.7511  1.0576
  956MOL0     H31922   0.920   4.012   6.914  1.7628  2.5016  1.8087
  956MOL0     H31923   0.834   4.073   7.058  3.9716  1.9722 -1.1454
  956MOL0     H31924   0.598   3.780   6.829  1.3490  2.2658 -1.8404
  956MOL0     H31925   1.292   3.618   6.909  0.7857 -1.5409 -0.5128
  956MOL0     H31926   1.387   3.449   6.787 -0.3483  0.0915 -0.1484
  956MOL0     H31927   1.519   3.488   6.668  0.7597  1.2489  0.6967
  956MOL0     H31928   1.550   3.491   6.845  3.0905 -1.6305 -1.6808
  957MOL0     O31929   7.426   8.573   9.046  0.3449  0.0538  0.1329
  957MOL0     C31930   7.341   8.660   9.027 -0.6372  0.8185 -0.8294
  957MOL0     O31931   7.358   8.781   9.002 -0.4378  0.4932 -0.0537
  957MOL0     C31932   7.478   8.850   9.030  0.9482 -0.0965 -1.0823
  957MOL0     C31933   7.574   8.819   9.134  0.3653  0.3350  0.6075
  957MOL0     C31934   7.683   8.901   9.154 -0.2777  0.0572 -0.9047
  957MOL0     C31935   7.695   9.028   9.084 -0.6922  0.0857 -0.1893
  957MOL0     O31936   7.803   9.117   9.101 -0.1114 -0.0906  0.2438
  957MOL0     C31937   7.937   9.064   9.120  0.3515 -1.3368  0.3627
  957MOL0     C31938   8.035   9.160   9.194  1.1214  0.4419  1.3464
  957MOL0     C31939   8.090   9.282   9.110 -0.8484 -0.3196 -0.3156
  957MOL0     C31940   8.157   9.392   9.187  0.8653 -0.5191 -0.3784
  957MOL0     C31941   8.205   9.512   9.101 -1.5293  0.4768 -0.6755
  957MOL0     C31942   8.358   9.531   9.122 -0.1574  0.2189  0.1681
  957MOL0     C31943   8.401   9.583   9.260 -0.0242  1.6416  1.1919
  957MOL0     C31944   8.551   9.629   9.261  0.0877 -1.1701  0.3922
  957MOL0     N31945   8.644   9.545   9.176  0.3874 -0.2949 -0.0807
  957MOL0     C31946   8.709   9.427   9.204  0.2096 -0.4888  0.5975
  957MOL0     C31947   8.779   9.397   9.092  0.5001  0.9445  0.4103
  957MOL0     C31948   8.859   9.273   9.083 -0.1245 -0.6590  0.0696
  957MOL0     C31949   9.004   9.281   9.104 -0.4865 -0.1219 -0.3832
  957MOL0     C31950   9.065   9.243   9.250 -0.2637  0.5720 -0.7413
  957MOL0     C31951   8.998   9.303   9.377 -0.5791 -0.0336 -0.3133
  957MOL0     O31952   9.074   9.277   9.497  0.4749  0.3557  0.2410
  957MOL0     C31953   9.062   9.156   9.556 -0.5215  0.4218 -0.2426
  957MOL0     C31954   8.960   9.061   9.534 -0.0547  0.1129 -0.0261
  957MOL0     C31955   8.961   8.932   9.600  0.6777  0.0747  0.8164
  957MOL0     C31956   8.847   8.841   9.556  0.6631  0.2199  0.6232
  957MOL0     C31957   9.078   8.893   9.673  0.0719 -0.3327 -0.3964
  957MOL0     C31958   9.106   8.761   9.735 -0.2158 -0.0472  0.3191
  957MOL0     O31959   9.225   8.756   9.790 -0.1240 -0.0904  0.0789
  957MOL0     C31960   9.267   8.679   9.892 -0.4638  0.0539  0.0376
  957MOL0     C31961   9.408   8.679   9.907 -0.1342  0.1969 -0.3287
  957MOL0     C31962   9.462   8.610  10.013  0.0613 -0.1145  0.7682
  957MOL0     C31963   9.387   8.530  10.094  0.4886  0.3851 -0.0291
  957MOL0     O31964   9.439   8.462  10.201 -0.7334 -0.7342  0.3339
  957MOL0     C31965   9.479   8.541  10.312 -0.0157  0.5691 -1.0221
  957MOL0     C31966   9.577   8.468  10.401 -0.1921 -0.2147 -0.0005
  957MOL0     C31967   9.715   8.449  10.328  0.5787  0.1537 -0.8486
  957MOL0     C31968   9.816   8.374  10.419 -0.5161  0.5399 -0.9750
  957MOL0     C31969   9.961   8.364  10.365  0.2976 -0.3795  0.5775
  957MOL0     C31970  10.044   8.289  10.463  0.7502  0.4209 -0.4166
  957MOL0     C31971  10.197   8.287  10.432  0.4099  0.4033 -0.6398
  957MOL0     C31972  10.261   8.295  10.562 -0.5212  1.5937  0.0237
  957MOL0    Cl31973  10.430   8.358  10.540 -0.3728  0.3748 -0.0489
  957MOL0     C31974   9.250   8.529  10.077 -0.0133  0.9412 -0.1967
  957MOL0     C31975   9.179   8.606   9.979 -0.1707 -0.2033  0.3422
  957MOL0     O31976   9.018   8.679   9.744 -0.1550  0.0863  0.0253
  957MOL0     C31977   9.174   9.000   9.692 -1.1116 -0.2600  0.3805
  957MOL0     C31978   9.168   9.124   9.632  0.2339 -0.4196 -0.5828
  957MOL0     N31979   8.756   9.482   8.989  1.2179 -0.7697 -0.0271
  957MOL0     N31980   8.663   9.567   9.037  0.2276  0.6714  0.5233
  957MOL0     C31981   7.608   9.057   8.987  0.8404  0.2428  0.2157
  957MOL0     C31982   7.502   8.962   8.957 -0.8828  0.1232  0.3604
  957MOL0     C31983   7.202   8.611   9.021 -0.3209 -0.4725 -0.1797
  957MOL0     C31984   7.180   8.477   8.982  0.6264 -0.6702  0.0810
  957MOL0     C31985   7.046   8.428   8.980  0.4118  0.0183 -0.5273
  957MOL0     C31986   6.930   8.511   9.009 -0.6609  0.0682  0.5952
  957MOL0     O31987   6.803   8.455   8.990  0.1135 -0.3059 -0.3077
  957MOL0     C31988   6.702   8.501   9.076  0.7050  0.8213 -0.1999
  957MOL0     C31989   6.718   8.512   9.235  0.4516 -0.2768  0.0586
  957MOL0     C31990   6.682   8.388   9.319  0.3283 -0.6059 -0.1506
  957MOL0     C31991   6.754   8.279   9.250  0.0819  0.2794 -0.7173
  957MOL0     C31992   6.735   8.156   9.316  0.0134  0.2260 -0.3141
  957MOL0     C31993   6.718   8.069   9.399 -0.4222 -0.2517 -0.1497
  957MOL0     C31994   6.957   8.649   9.045  0.2905  0.1766  0.6202
  957MOL0     C31995   7.088   8.700   9.046 -0.0438  0.5163  0.3270
  957MOL0     C31996   7.097   8.852   9.074  0.1180 -0.7261 -0.9345
  957MOL0     H31997   7.566   8.723   9.185  3.0893 -0.8984 -1.0592
  957MOL0     H31998   7.742   8.882   9.243 -3.2171 -1.4017  0.8997
  957MOL0     H31999   7.978   9.034   9.023  0.7047  0.0374  0.0734
  957MOL0     H32000   7.921   8.970   9.173 -2.1583 -1.3301 -0.2562
  957MOL0     H32001   7.991   9.175   9.293 -0.9317 -1.3224  0.7837
  957MOL0     H32002   8.126   9.102   9.213  1.3947  0.7797  1.0699
  957MOL0     H32003   8.163   9.250   9.036 -0.0513  0.8302 -0.0506
  957MOL0     H32004   8.005   9.328   9.059  0.0788  2.0738  0.1617
  957MOL0     H32005   8.086   9.439   9.256  1.7216  0.3594 -0.0589
  957MOL0     H32006   8.241   9.345   9.240  1.2039  0.3535 -0.1054
  957MOL0     H32007   8.156   9.608   9.121 -1.1781  0.4540  0.3428
  957MOL0     H32008   8.197   9.488   8.995 -0.1997  0.4985 -0.7995
  957MOL0     H32009   8.390   9.429   9.097  0.1584  0.4107 -0.2180
  957MOL0     H32010   8.398   9.594   9.043  1.4042  0.2644  0.9617
  957MOL0     H32011   8.387   9.502   9.332 -0.8458  0.4190 -0.2730
  957MOL0     H32012   8.331   9.660   9.292 -1.4749  0.5456  0.7907
  957MOL0     H32013   8.556   9.735   9.235 -0.5704  0.2883  5.1658
  957MOL0     H32014   8.585   9.618   9.365  1.0014 -0.0832  0.2300
  957MOL0     H32015   8.693   9.385   9.302 -3.6731 -2.2119 -0.5869
  957MOL0     H32016   8.845   9.237   8.981 -2.5321  0.9308 -0.2415
  957MOL0     H32017   8.817   9.197   9.150 -1.2444 -0.5314 -0.4679
  957MOL0     H32018   9.050   9.221   9.025 -0.2361  2.4925 -2.3257
  957MOL0     H32019   9.030   9.386   9.093 -3.0982  0.5185 -0.8984
  957MOL0     H32020   9.056   9.134   9.254  2.6908  0.2859  1.4282
  957MOL0     H32021   9.170   9.275   9.250  0.1675 -0.7015  1.0926
  957MOL0     H32022   8.990   9.411   9.366 -0.9373 -0.0506 -0.2083
  957MOL0     H32023   8.897   9.261   9.383 -0.4378 -0.3622 -0.1656
  957MOL0     H32024   8.877   9.095   9.473 -0.0919  1.8973  0.9448
  957MOL0     H32025   8.790   8.803   9.641  0.7134 -0.3929  0.3883
  957MOL0     H32026   8.891   8.756   9.504  2.5416  1.0512  0.7709
  957MOL0     H32027   8.780   8.883   9.480  0.8872 -0.0285  0.2813
  957MOL0     H32028   9.464   8.752   9.849 -2.0601  1.5954 -0.5264
  957MOL0     H32029   9.571   8.603  10.013  0.1275 -2.8618 -3.3504
  957MOL0     H32030   9.526   8.634  10.280  1.3565  0.2390 -0.0464
  957MOL0     H32031   9.395   8.575  10.373 -0.2108 -1.5179 -0.0175
  957MOL0     H32032   9.591   8.532  10.488 -3.8759  1.0378 -0.1266
  957MOL0     H32033   9.536   8.372  10.434  2.4925 -0.1538  4.1682
  957MOL0     H32034   9.763   8.542  10.297  0.1628  1.7750  2.8712
  957MOL0     H32035   9.698   8.378  10.247 -0.7437 -1.3067  0.6272
  957MOL0     H32036   9.773   8.273  10.428  3.2070 -1.0912  0.6030
  957MOL0     H32037   9.818   8.420  10.518 -0.7515  2.3301 -1.7764
  957MOL0     H32038   9.981   8.313  10.271  0.0618  1.5054 -0.5440
  957MOL0     H32039  10.001   8.465  10.352  3.2278 -1.5090  0.2086
  957MOL0     H32040  10.009   8.185  10.462 -1.0250  0.9833 -0.2846
  957MOL0     H32041  10.028   8.337  10.560  0.9995  1.8607 -1.0570
  957MOL0     H32042  10.209   8.375  10.369  1.6665  1.2022  0.6531
  957MOL0     H32043  10.236   8.193  10.393 -0.7271 -0.8060  0.9922
  957MOL0     H32044  10.254   8.205  10.625 -0.6952  1.5335 -0.0791
  957MOL0     H32045  10.206   8.365  10.626 -2.9774 -2.7897  3.3355
  957MOL0     H32046   9.193   8.467  10.146  2.4220 -4.3254 -2.3772
  957MOL0     H32047   9.072   8.603   9.966  0.0376 -0.5276 -1.6158
  957MOL0     H32048   9.262   8.981   9.753  0.0572  0.3606 -1.0428
  957MOL0     H32049   9.248   9.192   9.656 -0.7357 -0.2304  2.4206
  957MOL0     H32050   7.608   9.152   8.935 -0.4660 -0.3640 -0.9551
  957MOL0     H32051   7.426   8.989   8.885  0.5619  0.7245 -0.9955
  957MOL0     H32052   7.260   8.414   8.944 -0.9134 -2.5845 -0.1802
  957MOL0     H32053   7.041   8.329   8.934 -0.1480 -0.3200  0.2437
  957MOL0     H32054   6.680   8.607   9.062 -0.3328  1.3474  3.9755
  957MOL0     H32055   6.610   8.453   9.042  0.9117  2.0072 -2.6474
  957MOL0     H32056   6.652   8.592   9.273  0.5031  0.0036 -0.4417
  957MOL0     H32057   6.820   8.542   9.262 -0.1607 -1.3905  4.4480
  957MOL0     H32058   6.710   8.402   9.423  1.7708  0.1157 -0.6205
  957MOL0     H32059   6.573   8.378   9.315  0.0909 -1.9227  4.2989
  957MOL0     H32060   6.862   8.288   9.233 -0.3144  0.4718 -3.5028
  957MOL0     H32061   6.726   8.261   9.146 -1.9527 -1.6242  0.0682
  957MOL0     H32062   6.703   7.990   9.469  0.3672  0.2831  0.6557
  957MOL0     H32063   6.873   8.719   9.052  0.9084  1.2254 -1.4923
  957MOL0     H32064   7.190   8.896   9.111 -0.7570  0.5042 -0.0979
  957MOL0     H32065   7.075   8.909   8.984  1.3659  2.2162  0.4696
  957MOL0     H32066   7.029   8.877   9.156  3.6102 -1.0760  2.3448
  958MOL0     O32067   3.998   0.087   5.851  0.2747 -0.4023  0.1574
  958MOL0     C32068   4.049  -0.007   5.905  0.2205  0.5516 -1.4224
  958MOL0     O32069   4.183  -0.044   5.900 -0.5199 -0.5212  0.4122
  958MOL0     C32070   4.274   0.027   5.817 -0.4798  0.2506 -1.0202
  958MOL0     C32071   4.405   0.024   5.870  0.2060  0.1486  0.6738
  958MOL0     C32072   4.513   0.090   5.810  0.0642 -0.9732  0.5783
  958MOL0     C32073   4.486   0.157   5.682 -0.0116  0.0638 -0.0788
  958MOL0     O32074   4.583   0.221   5.610 -1.2931  0.3288 -0.7493
  958MOL0     C32075   4.716   0.173   5.605 -0.2970 -0.0155  0.0458
  958MOL0     C32076   4.747   0.194   5.455 -1.0647  0.1749  0.3284
  958MOL0     C32077   4.886   0.151   5.423 -0.2682  1.0190 -0.7460
  958MOL0     C32078   4.991   0.265   5.435 -0.3316  0.1980 -0.5606
  958MOL0     C32079   5.138   0.217   5.436  1.2386  0.3702 -0.4673
  958MOL0     C32080   5.179   0.075   5.375  0.3424 -0.3388 -0.3174
  958MOL0     C32081   5.320   0.036   5.377 -0.3765 -0.3811  0.0013
  958MOL0     C32082   5.353  -0.100   5.304 -1.0135 -0.7224 -0.9839
  958MOL0     N32083   5.493  -0.136   5.308 -0.6469 -0.5528 -0.8733
  958MOL0     C32084   5.592  -0.071   5.237 -0.5131  0.0326  0.9220
  958MOL0     C32085   5.703  -0.112   5.297  0.2690  0.1366  0.0947
  958MOL0     C32086   5.834  -0.048   5.280  0.6267  0.1683 -1.0825
  958MOL0     C32087   5.928  -0.140   5.204  0.0422  0.6061  0.8960
  958MOL0     C32088   6.074  -0.090   5.197 -0.3649 -0.5182  0.5506
  958MOL0     C32089   6.131  -0.090   5.338  0.0447 -0.1790 -0.3329
  958MOL0     O32090   6.269  -0.055   5.336  0.7102  0.3679 -0.1570
  958MOL0     C32091   6.333  -0.028   5.449  0.1911 -0.0703 -0.3082
  958MOL0     C32092   6.275  -0.019   5.577 -0.4071  0.3525  0.6532
  958MOL0     C32093   6.346   0.003   5.692  0.2393 -0.0541 -0.1393
  958MOL0     C32094   6.261   0.017   5.824 -0.6923  0.0328  0.3010
  958MOL0     C32095   6.489  -0.002   5.682  0.1002  0.3416 -0.0492
  958MOL0     C32096   6.575   0.018   5.803  0.0170  0.2660 -0.6076
  958MOL0     O32097   6.711   0.009   5.778 -0.0054 -0.1479 -0.4144
  958MOL0     C32098   6.800   0.052   5.877  0.0898  0.3468  0.0570
  958MOL0     C32099   6.791   0.171   5.954  0.0788  0.2688 -0.4012
  958MOL0     C32100   6.888   0.192   6.056  0.3494 -0.6845  0.0559
  958MOL0     C32101   6.988   0.103   6.085  0.0370 -0.5755  0.1196
  958MOL0     O32102   7.064   0.136   6.184  0.0194 -0.7159 -0.1323
  958MOL0     C32103   7.067   0.041   6.294  0.0263 -0.1348 -0.2002
  958MOL0     C32104   7.069   0.107   6.437  0.1763 -0.8468  0.2339
  958MOL0     C32105   6.974   0.222   6.463 -0.3084  0.6624  0.2725
  958MOL0     C32106   7.007   0.260   6.610 -0.1140 -0.3069 -0.3739
  958MOL0     C32107   6.940   0.395   6.643  0.5982  1.0404 -1.2350
  958MOL0     C32108   6.795   0.422   6.579 -0.7756  0.2339 -1.1750
  958MOL0     C32109   6.676   0.332   6.611 -0.5891  0.4169  0.0332
  958MOL0     C32110   6.629   0.354   6.751 -0.3563  0.2761 -0.5610
  958MOL0    Cl32111   6.729   0.231   6.854 -0.1147 -0.4197  0.1666
  958MOL0     C32112   6.996  -0.011   6.006 -0.4939 -0.7424  0.0654
  958MOL0     C32113   6.904  -0.030   5.900  0.2038 -0.2564  0.2708
  958MOL0     O32114   6.524   0.056   5.906  0.8588  0.0208 -0.2957
  958MOL0     C32115   6.543  -0.019   5.550 -0.2599 -0.1232 -0.0706
  958MOL0     C32116   6.471  -0.019   5.433 -0.0443  0.2353 -0.0472
  958MOL0     N32117   5.674  -0.221   5.384 -0.2626 -0.7148 -0.2897
  958MOL0     N32118   5.546  -0.230   5.391 -0.1302 -0.2274  0.4554
  958MOL0     C32119   4.358   0.159   5.630  0.5284  0.7395 -0.0151
  958MOL0     C32120   4.249   0.095   5.696 -0.3095 -1.2695 -0.3332
  958MOL0     C32121   3.951  -0.097   5.972 -0.5381  0.9084  0.8239
  958MOL0     C32122   3.979  -0.236   5.972 -1.3998 -0.3105  0.0824
  958MOL0     C32123   3.892  -0.329   6.027 -0.2811 -0.0113 -0.0809
  958MOL0     C32124   3.771  -0.278   6.077  0.4823  0.1635 -0.1433
  958MOL0     O32125   3.675  -0.352   6.138 -0.0870  0.5971  0.1319
  958MOL0     C32126   3.683  -0.495   6.136  0.8006  0.3191  0.0568
  958MOL0     C32127   3.535  -0.541   6.153 -1.3304  0.5041 -0.3749
  958MOL0     C32128   3.516  -0.694   6.134 -0.4821 -1.1598  0.3815
  958MOL0     C32129   3.567  -0.790   6.248  0.7010  0.3263 -0.4277
  958MOL0     C32130   3.578  -0.926   6.199  0.8058  0.6805  1.1169
  958MOL0     C32131   3.590  -1.037   6.149 -0.0822 -0.5133  1.1973
  958MOL0     C32132   3.744  -0.142   6.087 -0.1730 -0.6753 -1.5112
  958MOL0     C32133   3.834  -0.050   6.042 -0.6846 -0.5546  0.0033
  958MOL0     C32134   3.795   0.094   6.059  0.2591 -0.5964 -0.4716
  958MOL0     H32135   4.424  -0.030   5.963  0.8920 -1.0686 -0.1469
  958MOL0     H32136   4.611   0.091   5.855  1.2976  1.1589 -1.9350
  958MOL0     H32137   4.720   0.065   5.626 -2.7783 -0.9815 -3.3962
  958MOL0     H32138   4.794   0.218   5.666  0.8300  1.5884 -2.4388
  958MOL0     H32139   4.673   0.137   5.398 -0.9016  0.8885 -0.6169
  958MOL0     H32140   4.740   0.302   5.435  1.9244  0.1679 -1.1904
  958MOL0     H32141   4.930   0.073   5.485  0.0293  1.5876 -0.2249
  958MOL0     H32142   4.875   0.115   5.321 -0.4337 -2.7581  0.4535
  958MOL0     H32143   4.973   0.321   5.343  1.7285  1.0587 -0.5020
  958MOL0     H32144   4.977   0.323   5.526 -1.4818  2.0413 -1.8430
  958MOL0     H32145   5.168   0.208   5.541 -2.1889  2.5174  0.8624
  958MOL0     H32146   5.195   0.298   5.390  0.7871  1.9465  1.5665
  958MOL0     H32147   5.130   0.001   5.437  1.6940  1.2273  2.8396
  958MOL0     H32148   5.133   0.069   5.276 -3.1973  5.0516  0.5477
  958MOL0     H32149   5.362   0.026   5.478  1.6270  1.2012 -0.5990
  958MOL0     H32150   5.375   0.114   5.323 -0.8763 -1.3344 -1.9645
  958MOL0     H32151   5.290  -0.180   5.343 -0.2688 -1.2563 -0.8538
  958MOL0     H32152   5.333  -0.097   5.197  0.7596 -0.5455 -1.3490
  958MOL0     H32153   5.584   0.007   5.162  1.7546 -0.5189  0.0357
  958MOL0     H32154   5.863  -0.032   5.385  0.4056  0.9387 -1.1328
  958MOL0     H32155   5.827   0.050   5.232  3.7132  0.7392 -0.6282
  958MOL0     H32156   5.914  -0.238   5.249 -2.1965  0.5158  0.0950
  958MOL0     H32157   5.899  -0.153   5.099 -2.1935 -1.6913  1.7228
  958MOL0     H32158   6.133  -0.150   5.127 -0.3053 -0.6224  0.6898
  958MOL0     H32159   6.092   0.015   5.172  0.7647 -1.0348 -1.0148
  958MOL0     H32160   6.085  -0.012   5.399  0.5159  0.4361 -0.7413
  958MOL0     H32161   6.120  -0.185   5.391 -0.6499  1.2641  2.2524
  958MOL0     H32162   6.167  -0.019   5.582 -0.4685  0.7841 -0.3235
  958MOL0     H32163   6.291  -0.072   5.880 -0.0404  0.2013  0.2366
  958MOL0     H32164   6.154   0.018   5.803 -0.4931  2.5637 -0.9944
  958MOL0     H32165   6.298   0.103   5.880 -0.9508 -0.6603  1.5531
  958MOL0     H32166   6.712   0.244   5.939  0.5675  1.0708  0.7588
  958MOL0     H32167   6.887   0.275   6.126 -0.1876  0.8231 -1.6544
  958MOL0     H32168   6.977  -0.021   6.294  0.4500 -0.9179  2.8296
  958MOL0     H32169   7.159  -0.016   6.274  0.1528  0.5908 -1.8309
  958MOL0     H32170   7.049   0.032   6.514  0.4902 -1.2693 -0.0932
  958MOL0     H32171   7.172   0.140   6.456  0.1940 -0.9784  0.3724
  958MOL0     H32172   6.872   0.183   6.472  0.2316 -0.6939  0.8341
  958MOL0     H32173   7.001   0.307   6.400  1.4384  1.6909  2.2750
  958MOL0     H32174   7.115   0.263   6.631 -0.2980  2.1440  0.6034
  958MOL0     H32175   6.969   0.180   6.674  2.7057  0.0707  2.0232
  958MOL0     H32176   6.927   0.412   6.751 -1.4720  3.0957 -1.7196
  958MOL0     H32177   7.015   0.473   6.625  1.8791  0.7303  2.0560
  958MOL0     H32178   6.800   0.431   6.470  0.3963  1.2270 -1.0613
  958MOL0     H32179   6.761   0.520   6.613 -1.3509 -0.4984  0.4655
  958MOL0     H32180   6.692   0.227   6.585 -4.2309 -0.8099  1.9617
  958MOL0     H32181   6.584   0.359   6.557 -1.4722 -1.8055  0.3299
  958MOL0     H32182   6.523   0.325   6.757 -0.4146  0.6257  0.1964
  958MOL0     H32183   6.644   0.455   6.788 -2.0912  0.3251  0.1198
  958MOL0     H32184   7.080  -0.080   6.008  0.0892 -0.0796 -0.7062
  958MOL0     H32185   6.914  -0.119   5.838 -1.2642 -2.0123  2.4235
  958MOL0     H32186   6.652  -0.019   5.547 -0.0035  4.1578  2.1436
  958MOL0     H32187   6.513  -0.044   5.336 -1.2381  0.6968 -0.7102
  958MOL0     H32188   4.341   0.216   5.540 -0.5102  1.3253  0.5340
  958MOL0     H32189   4.150   0.105   5.653 -0.3927  0.4134  0.1914
  958MOL0     H32190   4.064  -0.270   5.915 -0.4235  1.4289  0.4241
  958MOL0     H32191   3.921  -0.434   6.022 -0.9809 -0.2925  1.1205
  958MOL0     H32192   3.713  -0.538   6.040 -2.3914 -0.8933 -0.4963
  958MOL0     H32193   3.754  -0.535   6.209  0.6453  0.3885  0.2467
  958MOL0     H32194   3.492  -0.487   6.068 -0.9339  1.9068  0.2923
  958MOL0     H32195   3.493  -0.520   6.252 -0.0853 -2.6108  0.9478
  958MOL0     H32196   3.407  -0.699   6.131 -0.5310  0.0731 -1.8135
  958MOL0     H32197   3.558  -0.726   6.037 -2.3605 -1.9497 -0.2113
  958MOL0     H32198   3.502  -0.783   6.336  0.5493  1.7404 -0.6175
  958MOL0     H32199   3.665  -0.763   6.288  1.5828 -1.4914 -1.2376
  958MOL0     H32200   3.587  -1.125   6.088  1.3859  0.7997 -0.9178
  958MOL0     H32201   3.649  -0.115   6.134  0.8314 -0.7928  0.7253
  958MOL0     H32202   3.742   0.138   5.975 -0.7661 -1.2732 -0.2001
  958MOL0     H32203   3.737   0.111   6.150 -0.2332  0.4282 -0.9648
  958MOL0     H32204   3.891   0.147   6.067 -0.4819  0.6504  0.3783
  959MOL0     O32205   1.436   1.173   4.275  0.5928 -0.4434  0.1136
  959MOL0     C32206   1.507   1.095   4.207  0.5889  0.0934  0.4133
  959MOL0     O32207   1.643   1.097   4.212 -0.3121 -0.2695 -0.0658
  959MOL0     C32208   1.710   1.196   4.285  0.3146 -0.3929  0.0264
  959MOL0     C32209   1.725   1.317   4.221  0.2605 -0.2287 -0.3217
  959MOL0     C32210   1.800   1.411   4.283 -0.1993 -0.1093 -0.1929
  959MOL0     C32211   1.849   1.391   4.417  0.2424 -0.4690 -0.3931
  959MOL0     O32212   1.904   1.490   4.490  0.1493 -0.2361 -0.1573
  959MOL0     C32213   1.820   1.609   4.511  0.5553  0.0500  0.0817
  959MOL0     C32214   1.883   1.744   4.463 -0.3704  0.3108  0.1665
  959MOL0     C32215   2.033   1.743   4.523 -0.3859 -0.0932  0.1026
  959MOL0     C32216   2.094   1.886   4.508 -0.2150  0.7419 -0.4103
  959MOL0     C32217   2.245   1.890   4.537  0.6885 -0.0618 -0.1623
  959MOL0     C32218   2.313   2.003   4.463  0.7461  0.4201  0.4929
  959MOL0     C32219   2.445   2.029   4.521 -0.4486 -0.5843  0.3862
  959MOL0     C32220   2.544   1.911   4.507  0.3992 -0.2265 -0.7584
  959MOL0     N32221   2.681   1.955   4.507 -0.3932 -0.0374 -0.6151
  959MOL0     C32222   2.739   1.997   4.625 -0.2722 -0.4496  1.0711
  959MOL0     C32223   2.864   2.041   4.595 -0.4313  0.4921 -0.3014
  959MOL0     C32224   2.959   2.097   4.698  0.9151  0.4656  0.3865
  959MOL0     C32225   3.105   2.121   4.651 -0.0013 -0.0836 -0.1527
  959MOL0     C32226   3.199   2.188   4.762 -0.1251 -0.4676 -0.3029
  959MOL0     C32227   3.177   2.127   4.906 -0.6619 -0.8179  0.2404
  959MOL0     O32228   3.185   1.980   4.904 -0.2486 -0.1331 -0.3510
  959MOL0     C32229   3.309   1.913   4.914  0.7307  0.0743 -1.2089
  959MOL0     C32230   3.303   1.782   4.932 -0.5049 -0.0279  0.9988
  959MOL0     C32231   3.426   1.704   4.924  0.7735  0.2837 -0.5514
  959MOL0     C32232   3.403   1.557   4.947 -0.9039 -0.3501  0.2307
  959MOL0     C32233   3.550   1.764   4.895 -0.0038  0.0935 -0.0989
  959MOL0     C32234   3.682   1.683   4.867 -0.0807  0.8836 -0.1268
  959MOL0     O32235   3.695   1.563   4.924  0.4560 -0.7539 -0.1711
  959MOL0     C32236   3.809   1.482   4.919 -0.5486  0.2811  0.0182
  959MOL0     C32237   3.798   1.352   4.873  0.1059 -0.5660 -0.1195
  959MOL0     C32238   3.897   1.257   4.887 -0.5156  0.3281 -0.3169
  959MOL0     C32239   4.017   1.292   4.946  0.6995 -0.0018 -0.1786
  959MOL0     O32240   4.101   1.187   4.968  0.3694  0.1775 -0.4636
  959MOL0     C32241   4.126   1.157   5.107  0.5957 -0.0423  0.9200
  959MOL0     C32242   4.033   1.045   5.152 -0.6837 -0.6336 -0.0373
  959MOL0     C32243   4.064   0.917   5.071 -0.0034 -0.0714  0.5035
  959MOL0     C32244   3.974   0.898   4.951 -0.4902  0.1853 -0.3835
  959MOL0     C32245   3.990   0.771   4.880 -0.3519 -0.0849 -0.6318
  959MOL0     C32246   4.136   0.747   4.824 -0.5752  0.9000  0.0804
  959MOL0     C32247   4.151   0.664   4.703  0.5261  0.0614 -0.0170
  959MOL0     C32248   4.281   0.674   4.623 -0.2023 -0.3999  0.6821
  959MOL0    Cl32249   4.420   0.623   4.733 -0.0641  0.3930 -0.3592
  959MOL0     C32250   4.036   1.424   4.980 -0.4610 -0.3614 -0.3689
  959MOL0     C32251   3.935   1.514   4.970  0.0825 -0.7112  0.4438
  959MOL0     O32252   3.774   1.743   4.801  0.4835 -0.2954 -0.4356
  959MOL0     C32253   3.556   1.902   4.875  0.0397 -0.5815 -0.2903
  959MOL0     C32254   3.440   1.971   4.898 -0.8140  0.3094  1.0579
  959MOL0     N32255   2.878   2.028   4.458  0.1051  0.6371  0.4256
  959MOL0     N32256   2.769   1.985   4.404 -0.1928  0.0344 -0.2412
  959MOL0     C32257   1.833   1.273   4.472  0.1002 -0.5777 -0.8346
  959MOL0     C32258   1.769   1.170   4.406 -0.9381 -0.4863  0.4564
  959MOL0     C32259   1.432   1.017   4.098  0.3703  0.0229  0.2375
  959MOL0     C32260   1.291   1.043   4.087 -0.8217 -0.4278 -0.3800
  959MOL0     C32261   1.220   1.002   3.982  0.6596  1.0733  0.3084
  959MOL0     C32262   1.277   0.920   3.881  0.0118  0.2460  0.0107
  959MOL0     O32263   1.211   0.862   3.774 -0.6010  0.2078 -0.2670
  959MOL0     C32264   1.067   0.857   3.771  0.0952 -0.8237  0.7579
  959MOL0     C32265   1.023   0.785   3.650  0.3604  0.0429  0.2076
  959MOL0     C32266   0.875   0.797   3.609  0.6440 -0.0630  0.7414
  959MOL0     C32267   0.784   0.677   3.657 -0.1148 -0.2028 -0.1191
  959MOL0     C32268   0.647   0.693   3.624  0.1766  0.6162  0.5537
  959MOL0     C32269   0.526   0.702   3.609 -0.5089  0.5647  0.0296
  959MOL0     C32270   1.416   0.896   3.889  0.8266  0.5196 -0.5708
  959MOL0     C32271   1.493   0.938   4.001 -0.8913  0.1100  0.4536
  959MOL0     C32272   1.643   0.912   3.999 -0.3017  0.7874  0.2931
  959MOL0     H32273   1.682   1.338   4.123  1.6544  3.6024 -0.2974
  959MOL0     H32274   1.821   1.509   4.239  1.7896 -0.5635 -0.3540
  959MOL0     H32275   1.804   1.610   4.619 -3.4453 -0.8805 -0.3362
  959MOL0     H32276   1.720   1.595   4.469  0.4822 -0.5670  0.4548
  959MOL0     H32277   1.873   1.747   4.354 -0.3875  0.4589  0.1727
  959MOL0     H32278   1.837   1.835   4.503  3.1070  2.3227 -0.0531
  959MOL0     H32279   2.037   1.707   4.626 -0.3628  0.6795  0.3745
  959MOL0     H32280   2.075   1.672   4.451 -0.7325  1.8977 -2.1626
  959MOL0     H32281   2.064   1.914   4.407 -1.9342 -0.0048 -0.1382
  959MOL0     H32282   2.042   1.960   4.570 -1.0688 -2.1179  2.5801
  959MOL0     H32283   2.295   1.796   4.511 -2.3352 -1.6925 -0.6091
  959MOL0     H32284   2.261   1.901   4.645  2.2428  1.0647 -0.4851
  959MOL0     H32285   2.321   1.976   4.357  0.1835  2.1557 -0.0303
  959MOL0     H32286   2.256   2.097   4.458  1.3119  0.7239 -3.2356
  959MOL0     H32287   2.442   2.062   4.625  1.5258  1.4235 -0.1090
  959MOL0     H32288   2.492   2.111   4.466 -0.7441  0.0994  1.1341
  959MOL0     H32289   2.518   1.855   4.598 -1.0647  3.0318  1.0495
  959MOL0     H32290   2.527   1.842   4.425  1.0613  0.8426 -1.8245
  959MOL0     H32291   2.688   1.989   4.720 -3.2088  2.4172 -0.0721
  959MOL0     H32292   2.946   2.040   4.791  1.9671 -2.2663 -1.0157
  959MOL0     H32293   2.929   2.201   4.713 -1.0619 -0.2075  1.4638
  959MOL0     H32294   3.144   2.025   4.615  0.7205 -0.3512  1.2765
  959MOL0     H32295   3.106   2.193   4.569 -2.0991  2.9028  2.2015
  959MOL0     H32296   3.303   2.171   4.733  1.0286  1.0422  2.4866
  959MOL0     H32297   3.188   2.297   4.766  3.2099 -0.0323  1.6730
  959MOL0     H32298   3.257   2.169   4.967 -1.3456  2.1687 -0.7541
  959MOL0     H32299   3.079   2.159   4.940 -0.2297  0.7391  0.0952
  959MOL0     H32300   3.202   1.747   4.948 -1.0112  1.1841  0.6017
  959MOL0     H32301   3.462   1.533   5.036  1.4242  0.7122 -0.9489
  959MOL0     H32302   3.448   1.511   4.859  0.1418 -0.0777  0.6105
  959MOL0     H32303   3.303   1.515   4.964 -1.3812 -0.9536 -3.3372
  959MOL0     H32304   3.705   1.328   4.823 -0.9573  2.2538  0.3576
  959MOL0     H32305   3.879   1.163   4.836 -1.4224  0.3866 -0.1204
  959MOL0     H32306   4.229   1.121   5.121  0.0861 -1.9718  0.0700
  959MOL0     H32307   4.107   1.244   5.171 -0.8209  0.4315 -0.1113
  959MOL0     H32308   4.047   1.022   5.257 -0.2324  2.0062  0.5641
  959MOL0     H32309   3.926   1.062   5.139 -0.5672 -0.8666 -1.5773
  959MOL0     H32310   4.054   0.827   5.133  5.0529  0.6778  2.9510
  959MOL0     H32311   4.163   0.924   5.024 -0.3863  0.9312 -0.1890
  959MOL0     H32312   3.981   0.983   4.882  1.5740 -0.3698 -0.9375
  959MOL0     H32313   3.877   0.894   5.001  0.0496 -3.1078  0.6385
  959MOL0     H32314   3.949   0.686   4.936 -1.9430  0.0160 -1.5828
  959MOL0     H32315   3.924   0.768   4.793 -1.9104 -1.2326  0.5287
  959MOL0     H32316   4.196   0.702   4.904 -1.2700 -2.7101 -1.2247
  959MOL0     H32317   4.187   0.839   4.792  1.0011 -1.2670 -4.6284
  959MOL0     H32318   4.070   0.692   4.636  2.0966  5.0875 -0.2456
  959MOL0     H32319   4.153   0.556   4.722  0.0641  0.3417  1.8092
  959MOL0     H32320   4.295   0.775   4.584 -0.5265  0.0853  1.7850
  959MOL0     H32321   4.274   0.599   4.543 -2.8538  0.1575  0.3085
  959MOL0     H32322   4.126   1.459   5.029 -1.0356  2.0356 -0.8699
  959MOL0     H32323   3.947   1.618   4.995  0.4640 -1.5197  4.1892
  959MOL0     H32324   3.642   1.964   4.852  0.8332 -1.7086 -0.4422
  959MOL0     H32325   3.459   2.077   4.883  2.3833 -0.4133 -1.0394
  959MOL0     H32326   1.892   1.248   4.560  1.3166  0.7300 -1.2241
  959MOL0     H32327   1.784   1.072   4.450  0.8693 -1.2757 -1.7537
  959MOL0     H32328   1.239   1.101   4.162 -0.7365 -1.3399  0.4013
  959MOL0     H32329   1.115   1.026   3.977  0.5308  0.2834 -1.9692
  959MOL0     H32330   1.021   0.820   3.862 -1.2825 -0.0320  0.4098
  959MOL0     H32331   1.045   0.963   3.754 -0.6380 -1.0059  0.5622
  959MOL0     H32332   1.030   0.679   3.673 -0.3037  0.5851  3.3721
  959MOL0     H32333   1.093   0.804   3.568  2.1040  3.3795  2.2023
  959MOL0     H32334   0.833   0.895   3.634  2.9303  0.4818  2.7450
  959MOL0     H32335   0.879   0.802   3.499 -0.6487 -2.0052  0.5577
  959MOL0     H32336   0.782   0.670   3.766 -1.3931 -0.8765 -0.1735
  959MOL0     H32337   0.817   0.581   3.616 -1.2949 -1.2976  1.3831
  959MOL0     H32338   0.420   0.715   3.594 -0.1338  2.1288 -1.5606
  959MOL0     H32339   1.454   0.841   3.803 -0.9914 -1.9202  0.0526
  959MOL0     H32340   1.665   0.833   3.928 -0.6700  1.2737 -0.3699
  959MOL0     H32341   1.700   1.005   3.987 -0.9078  1.1002 -0.2149
  959MOL0     H32342   1.672   0.860   4.091  1.3739  1.3355  0.1090
  960MOL0     O32343   1.326   2.419   7.633  0.4549  0.0637 -0.5771
  960MOL0     C32344   1.366   2.315   7.585  0.2420  0.6894  0.9216
  960MOL0     O32345   1.432   2.296   7.465 -0.4532  0.2776  1.1233
  960MOL0     C32346   1.433   2.399   7.378 -0.4460 -0.5255  0.1079
  960MOL0     C32347   1.523   2.505   7.396  0.1245 -0.3614  0.2803
  960MOL0     C32348   1.526   2.612   7.301  0.7873  0.7109 -0.0208
  960MOL0     C32349   1.428   2.616   7.205  0.1318 -0.3502  0.4515
  960MOL0     O32350   1.426   2.719   7.113  0.1428  0.6681  0.1037
  960MOL0     C32351   1.544   2.801   7.075 -0.1069  0.7959 -0.2550
  960MOL0     C32352   1.492   2.909   6.978  0.3775 -0.0446 -0.7459
  960MOL0     C32353   1.614   2.982   6.913  0.0303  0.0294  0.7277
  960MOL0     C32354   1.562   3.102   6.832  0.0273  0.5026 -0.5336
  960MOL0     C32355   1.642   3.148   6.715 -0.2882 -0.2577  0.1805
  960MOL0     C32356   1.776   3.196   6.751  0.0278  0.4368 -0.2886
  960MOL0     C32357   1.847   3.295   6.655  0.6474 -0.5041  0.1892
  960MOL0     C32358   2.004   3.301   6.679  0.0246 -0.2451 -0.9602
  960MOL0     N32359   2.079   3.370   6.573  0.2523 -0.6309 -0.1715
  960MOL0     C32360   2.168   3.469   6.584 -0.1738 -0.1249  0.2697
  960MOL0     C32361   2.213   3.492   6.456 -0.9477  1.2233 -0.9590
  960MOL0     C32362   2.318   3.585   6.411  0.7566 -0.7017  0.1266
  960MOL0     C32363   2.293   3.627   6.274 -0.1537 -0.4802 -0.9080
  960MOL0     C32364   2.414   3.715   6.233 -0.0634 -0.1567  0.4758
  960MOL0     C32365   2.441   3.736   6.082  0.3113  0.3016 -0.4759
  960MOL0     O32366   2.511   3.630   6.020  0.3054  0.0724  0.6789
  960MOL0     C32367   2.636   3.598   6.051 -0.5883  0.0195  0.1816
  960MOL0     C32368   2.660   3.471   6.071 -0.4259  1.1455 -0.1923
  960MOL0     C32369   2.791   3.423   6.090 -1.0585 -0.8674 -0.4475
  960MOL0     C32370   2.807   3.278   6.129 -0.1276 -0.0110  0.5717
  960MOL0     C32371   2.897   3.519   6.085 -0.7572  0.2635 -1.1067
  960MOL0     C32372   3.046   3.477   6.095  0.5135 -0.3461  0.5565
  960MOL0     O32373   3.077   3.350   6.082 -0.2335  0.0002  0.6469
  960MOL0     C32374   3.201   3.297   6.114 -0.0595 -0.0689 -0.5977
  960MOL0     C32375   3.257   3.299   6.241  0.4562 -0.9633 -0.0200
  960MOL0     C32376   3.379   3.241   6.258 -0.0559  0.6402 -0.0915
  960MOL0     C32377   3.442   3.167   6.166 -0.2706  1.4839  0.5273
  960MOL0     O32378   3.560   3.106   6.206 -0.6164 -0.1992 -0.1743
  960MOL0     C32379   3.670   3.106   6.105 -0.2875 -0.4892 -0.7304
  960MOL0     C32380   3.737   3.247   6.109 -0.0138  0.5218  0.2671
  960MOL0     C32381   3.838   3.257   6.228  0.6423  1.2738 -0.1618
  960MOL0     C32382   3.975   3.215   6.206 -0.0136  0.2965  0.2985
  960MOL0     C32383   4.044   3.226   6.342 -0.1974 -0.0315 -0.7265
  960MOL0     C32384   4.191   3.261   6.315  1.0248 -0.8613  0.8572
  960MOL0     C32385   4.205   3.414   6.277 -0.2933 -0.1381 -0.1098
  960MOL0     C32386   4.344   3.458   6.316 -0.4281 -0.9367  0.7301
  960MOL0    Cl32387   4.473   3.379   6.243 -0.7662  0.5890 -0.4759
  960MOL0     C32388   3.377   3.146   6.044 -0.7386  0.2940 -0.3251
  960MOL0     C32389   3.258   3.209   6.015  0.4847 -0.6873 -0.0897
  960MOL0     O32390   3.117   3.568   6.129  0.6061  0.4235 -0.1940
  960MOL0     C32391   2.868   3.658   6.084 -0.4417  0.9873  0.2215
  960MOL0     C32392   2.737   3.695   6.059  0.4374  0.6609 -0.1956
  960MOL0     N32393   2.141   3.407   6.378  0.3451  0.1456 -0.0006
  960MOL0     N32394   2.074   3.327   6.447  0.2144 -0.4613  0.7250
  960MOL0     C32395   1.331   2.518   7.198 -0.0619  0.4895 -0.3248
  960MOL0     C32396   1.341   2.394   7.277 -0.0964  0.1702  0.5157
  960MOL0     C32397   1.351   2.204   7.672 -0.3011  0.8492  0.2400
  960MOL0     C32398   1.388   2.213   7.810 -0.5233 -0.4663 -0.6852
  960MOL0     C32399   1.381   2.101   7.890 -0.3329  0.2531  0.3701
  960MOL0     C32400   1.325   1.983   7.846  0.2010  0.1121 -0.1497
  960MOL0     O32401   1.338   1.877   7.933 -0.2066 -0.1270 -0.2440
  960MOL0     C32402   1.289   1.750   7.888  0.5339 -0.2880 -0.1076
  960MOL0     C32403   1.307   1.637   7.995 -0.0819  0.1558  0.5292
  960MOL0     C32404   1.282   1.687   8.142 -0.0928  0.0878 -0.0157
  960MOL0     C32405   1.278   1.563   8.236 -0.3557 -0.4510  0.3506
  960MOL0     C32406   1.387   1.468   8.227 -0.1199 -0.6961 -0.3744
  960MOL0     C32407   1.482   1.391   8.238 -0.0691  0.2441 -0.1351
  960MOL0     C32408   1.281   1.980   7.712  1.0250 -0.1322  0.6484
  960MOL0     C32409   1.289   2.088   7.628 -0.2051  0.1852  0.2396
  960MOL0     C32410   1.252   2.071   7.489  0.5728 -0.0292  0.5154
  960MOL0     H32411   1.599   2.495   7.472  0.3117 -1.4680 -0.0426
  960MOL0     H32412   1.610   2.680   7.293 -0.4701  2.2333 -0.7693
  960MOL0     H32413   1.616   2.734   7.026  1.4957  1.0083  1.6810
  960MOL0     H32414   1.597   2.849   7.158  1.5444 -0.4278 -0.5380
  960MOL0     H32415   1.427   2.853   6.910 -3.7606  0.0154  2.7469
  960MOL0     H32416   1.427   2.972   7.039 -0.9381 -0.7635 -1.3653
  960MOL0     H32417   1.686   3.005   6.992 -1.4884 -0.7265  2.4071
  960MOL0     H32418   1.673   2.922   6.843 -0.9357  0.1337 -0.2056
  960MOL0     H32419   1.464   3.071   6.793 -0.7628 -1.6494  2.6824
  960MOL0     H32420   1.541   3.184   6.902 -2.2418  1.8874 -2.6654
  960MOL0     H32421   1.584   3.222   6.660 -1.2479 -0.3897  0.9900
  960MOL0     H32422   1.655   3.057   6.655 -3.8462 -2.2978  2.1935
  960MOL0     H32423   1.761   3.244   6.848 -0.5394 -0.6912  0.2100
  960MOL0     H32424   1.840   3.107   6.759  0.7182  0.9659  0.3091
  960MOL0     H32425   1.803   3.394   6.668  0.8491 -0.3828 -0.0486
  960MOL0     H32426   1.814   3.256   6.558  0.1313 -1.8212  0.8640
  960MOL0     H32427   2.039   3.341   6.775 -0.3584 -0.6454 -0.6462
  960MOL0     H32428   2.043   3.199   6.670  1.9058  0.3385  0.0955
  960MOL0     H32429   2.204   3.521   6.672 -0.5398  1.1679 -0.3252
  960MOL0     H32430   2.409   3.529   6.436 -0.3006 -1.2423  3.0732
  960MOL0     H32431   2.320   3.675   6.473  1.1196 -0.6227  0.0049
  960MOL0     H32432   2.285   3.540   6.208  0.8886  0.3462 -2.1941
  960MOL0     H32433   2.201   3.686   6.280 -0.8128 -1.6418  1.0645
  960MOL0     H32434   2.392   3.816   6.269 -1.5064 -0.7344  1.2990
  960MOL0     H32435   2.504   3.673   6.278  0.7960 -0.7357 -1.6390
  960MOL0     H32436   2.346   3.742   6.029  0.3923  0.4057 -0.6115
  960MOL0     H32437   2.497   3.830   6.083  1.1136 -0.1693  0.9834
  960MOL0     H32438   2.573   3.407   6.084  0.6264 -0.0915  1.1403
  960MOL0     H32439   2.885   3.268   6.204  1.1460  0.3193 -0.6516
  960MOL0     H32440   2.842   3.230   6.037  2.1009 -2.7101  2.6783
  960MOL0     H32441   2.706   3.241   6.149 -1.2010  1.1586 -2.1669
  960MOL0     H32442   3.205   3.367   6.309  0.8253 -1.8515  1.1846
  960MOL0     H32443   3.415   3.244   6.361 -1.3256  1.8739  0.3482
  960MOL0     H32444   3.749   3.032   6.125  1.4209  0.5734 -3.0145
  960MOL0     H32445   3.639   3.089   6.002 -0.0714 -1.2599 -0.6727
  960MOL0     H32446   3.795   3.268   6.018 -2.0837  1.9293 -0.8082
  960MOL0     H32447   3.658   3.322   6.114  0.3975  1.0502 -0.8841
  960MOL0     H32448   3.811   3.187   6.308  2.7504 -0.0404 -0.5231
  960MOL0     H32449   3.837   3.356   6.273  1.4397 -0.1601  3.3687
  960MOL0     H32450   4.011   3.291   6.135  2.1754  0.6942  1.7111
  960MOL0     H32451   3.992   3.114   6.167  0.7484  0.6984 -0.4501
  960MOL0     H32452   4.002   3.300   6.411 -1.4142 -3.7946  3.0149
  960MOL0     H32453   4.024   3.136   6.400  0.0335  1.1920  1.3620
  960MOL0     H32454   4.218   3.194   6.233  1.9524  1.9189 -1.2839
  960MOL0     H32455   4.255   3.236   6.400  0.3439  1.0565  2.0038
  960MOL0     H32456   4.128   3.478   6.320  1.4864  1.6865  0.5487
  960MOL0     H32457   4.200   3.420   6.168 -1.5555  2.7822  0.0325
  960MOL0     H32458   4.357   3.449   6.424  4.0512 -0.7518  0.4170
  960MOL0     H32459   4.354   3.560   6.278 -1.7814 -1.6598 -1.7711
  960MOL0     H32460   3.415   3.085   5.962  1.4874 -0.7913  1.3906
  960MOL0     H32461   3.205   3.206   5.921  0.7639  2.8736 -0.5261
  960MOL0     H32462   2.949   3.729   6.072  1.1815 -0.9515 -0.8531
  960MOL0     H32463   2.708   3.799   6.061 -1.6058  0.1326 -0.0656
  960MOL0     H32464   1.257   2.520   7.119 -0.5005  1.3504  0.0908
  960MOL0     H32465   1.273   2.311   7.265 -0.7506  0.9756 -2.0912
  960MOL0     H32466   1.437   2.307   7.833  3.7041 -0.8067 -6.1097
  960MOL0     H32467   1.421   2.108   7.991  1.3921  2.5829 -0.3814
  960MOL0     H32468   1.182   1.756   7.866  0.8222 -2.5197 -2.6375
  960MOL0     H32469   1.345   1.717   7.800  3.0542  3.0588  0.0221
  960MOL0     H32470   1.405   1.590   7.982 -0.8270 -1.8073  1.5628
  960MOL0     H32471   1.253   1.545   7.972 -2.0335  0.9441  1.7278
  960MOL0     H32472   1.367   1.749   8.174  1.1854 -1.6008  0.0005
  960MOL0     H32473   1.183   1.733   8.143 -0.1230  0.0184  1.2292
  960MOL0     H32474   1.182   1.510   8.233 -0.8936  0.5679 -1.9586
  960MOL0     H32475   1.292   1.598   8.339  2.0922  1.8636 -0.6740
  960MOL0     H32476   1.578   1.344   8.237 -0.8486 -1.7119  3.2147
  960MOL0     H32477   1.251   1.885   7.669 -0.4027 -0.1097  1.5178
  960MOL0     H32478   1.333   2.087   7.417  2.0587  3.6032  2.7538
  960MOL0     H32479   1.214   1.971   7.466 -0.0023  0.2488  0.2378
  960MOL0     H32480   1.175   2.146   7.472 -0.7168 -1.5709 -0.8627
  961MOL0     O32481   4.731   5.538   4.466  0.0742 -0.1367 -0.2346
  961MOL0     C32482   4.737   5.544   4.584 -1.5231 -0.9314 -0.5075
  961MOL0     O32483   4.831   5.478   4.655  0.0774 -0.2673 -0.4433
  961MOL0     C32484   4.923   5.393   4.590 -0.4368 -0.4969 -0.7653
  961MOL0     C32485   4.893   5.260   4.572  0.0162  0.5809 -0.0410
  961MOL0     C32486   4.989   5.177   4.511  0.2851 -0.1546 -0.0742
  961MOL0     C32487   5.117   5.224   4.464  0.4192 -0.4367 -0.4083
  961MOL0     O32488   5.198   5.127   4.406 -0.6709  0.2993 -0.4727
  961MOL0     C32489   5.329   5.159   4.362 -0.1921  0.1201 -0.6582
  961MOL0     C32490   5.399   5.031   4.320  0.9570 -0.2388 -0.8892
  961MOL0     C32491   5.515   5.059   4.233 -0.3565 -0.2750  0.2364
  961MOL0     C32492   5.610   4.933   4.211 -0.5572 -0.2816  0.5602
  961MOL0     C32493   5.745   4.973   4.159  0.1192 -0.8358 -0.1127
  961MOL0     C32494   5.743   5.029   4.013 -0.1434 -0.0688  0.7011
  961MOL0     C32495   5.881   5.035   3.944  0.2521 -0.7580 -0.0076
  961MOL0     C32496   5.914   4.905   3.878 -0.8219  0.9766  0.6130
  961MOL0     N32497   6.044   4.900   3.812 -0.8118  0.4372  0.4637
  961MOL0     C32498   6.123   5.003   3.767  0.3655 -0.3883  0.6304
  961MOL0     C32499   6.231   4.943   3.715  0.6603 -0.6044 -0.3670
  961MOL0     C32500   6.348   5.025   3.665  0.2556  0.2172  0.0956
  961MOL0     C32501   6.474   5.004   3.745 -0.2469 -0.0748 -0.2316
  961MOL0     C32502   6.533   4.859   3.725 -0.9941 -0.3537  0.4763
  961MOL0     C32503   6.685   4.860   3.758  0.4483  0.3382  0.2524
  961MOL0     O32504   6.712   4.735   3.825  0.0094 -0.8510  0.5905
  961MOL0     C32505   6.685   4.711   3.959  0.0962 -0.0905  0.9648
  961MOL0     C32506   6.717   4.587   4.013  0.0987  0.4859 -0.1945
  961MOL0     C32507   6.720   4.557   4.151 -0.2725  0.1343  0.4291
  961MOL0     C32508   6.749   4.419   4.195 -0.8805  0.8797  0.1202
  961MOL0     C32509   6.663   4.655   4.249 -1.0165 -0.3606  0.7049
  961MOL0     C32510   6.643   4.641   4.396 -0.9154  0.4626 -0.0587
  961MOL0     O32511   6.605   4.744   4.470  0.5564  0.5823 -0.2732
  961MOL0     C32512   6.612   4.719   4.599 -1.2862  1.1093 -0.0469
  961MOL0     C32513   6.732   4.751   4.667 -0.6081  0.6528  0.1148
  961MOL0     C32514   6.722   4.744   4.809 -0.7560  0.1072 -0.6227
  961MOL0     C32515   6.609   4.693   4.878  0.1716  0.0673 -0.6203
  961MOL0     O32516   6.616   4.668   5.012 -0.5614  0.6456  0.0289
  961MOL0     C32517   6.555   4.547   5.056  0.2648  0.6267 -0.1159
  961MOL0     C32518   6.594   4.483   5.182  0.5306  0.2802 -0.4952
  961MOL0     C32519   6.740   4.445   5.208 -0.1243 -0.0281 -1.0979
  961MOL0     C32520   6.797   4.356   5.103 -0.0562  0.2516  0.8110
  961MOL0     C32521   6.891   4.241   5.149  0.4076 -0.3765 -0.0608
  961MOL0     C32522   6.989   4.187   5.041  0.5067  0.0042 -0.0878
  961MOL0     C32523   7.073   4.082   5.106  0.4132  0.4730  0.2467
  961MOL0     C32524   7.152   3.995   4.996 -0.4368 -0.7638 -0.7843
  961MOL0    Cl32525   7.222   3.861   5.093 -0.4639 -0.2494  0.7549
  961MOL0     C32526   6.490   4.665   4.808  0.0551 -0.8089  0.1425
  961MOL0     C32527   6.493   4.675   4.669  0.8011  0.5377 -0.1081
  961MOL0     O32528   6.669   4.531   4.441 -0.9658  0.4749  0.1392
  961MOL0     C32529   6.633   4.775   4.194  0.6235  0.0272  0.2835
  961MOL0     C32530   6.640   4.804   4.055 -0.2430 -0.6861 -0.0314
  961MOL0     N32531   6.218   4.804   3.721 -0.6878  0.5021  0.0222
  961MOL0     N32532   6.101   4.782   3.775 -0.1665 -0.8467 -0.5239
  961MOL0     C32533   5.144   5.359   4.481 -0.5457  0.3656  0.1682
  961MOL0     C32534   5.050   5.439   4.541 -0.3691 -0.3641  0.6285
  961MOL0     C32535   4.666   5.657   4.653 -0.9728  0.0090 -0.1529
  961MOL0     C32536   4.689   5.654   4.793  1.1943  0.9540  1.1259
  961MOL0     C32537   4.624   5.756   4.857 -0.2218 -0.7069  0.3518
  961MOL0     C32538   4.547   5.854   4.800 -0.1881  0.0428  0.3225
  961MOL0     O32539   4.480   5.939   4.884 -0.1394  0.2505  0.3448
  961MOL0     C32540   4.388   6.040   4.839  0.5985  0.2708 -0.4601
  961MOL0     C32541   4.344   6.124   4.954  0.0235 -0.8613 -1.4331
  961MOL0     C32542   4.282   6.030   5.063  0.1343 -0.4571 -0.3263
  961MOL0     C32543   4.204   6.106   5.166 -0.5691  0.2393 -1.1597
  961MOL0     C32544   4.185   6.025   5.287  0.3781 -0.2765 -0.2395
  961MOL0     C32545   4.157   5.980   5.395  0.1549  1.1973  0.1248
  961MOL0     C32546   4.538   5.865   4.665  0.0393  0.7761  0.1994
  961MOL0     C32547   4.593   5.764   4.584 -1.1917  0.3576 -0.2906
  961MOL0     C32548   4.558   5.768   4.438  0.6270  0.0779 -0.5395
  961MOL0     H32549   4.804   5.221   4.621 -0.0129  1.0938  0.3269
  961MOL0     H32550   4.970   5.070   4.506  1.2841 -0.2896 -2.1969
  961MOL0     H32551   5.379   5.211   4.444  1.1399  0.2365 -1.5133
  961MOL0     H32552   5.316   5.231   4.280 -0.0880 -0.1146 -0.8839
  961MOL0     H32553   5.429   4.980   4.412 -1.2063  0.3718  0.2108
  961MOL0     H32554   5.336   4.960   4.266  4.3332 -4.1935 -0.1578
  961MOL0     H32555   5.485   5.098   4.136 -3.1928 -0.9762  0.7549
  961MOL0     H32556   5.575   5.139   4.278 -1.4573  2.0880 -2.2549
  961MOL0     H32557   5.638   4.891   4.308 -0.3715  1.8258  1.4687
  961MOL0     H32558   5.558   4.876   4.133 -0.3080  1.1042 -0.6655
  961MOL0     H32559   5.807   4.884   4.174  1.7529  0.7471  4.0021
  961MOL0     H32560   5.797   5.036   4.231  1.3355 -1.1527 -0.6867
  961MOL0     H32561   5.662   4.989   3.951 -2.7560  4.3603  0.7855
  961MOL0     H32562   5.711   5.133   4.031 -0.9458 -0.5030  1.9407
  961MOL0     H32563   5.963   5.061   4.011 -0.5672  1.6709  0.1729
  961MOL0     H32564   5.878   5.121   3.876  2.7921  1.3395  2.3295
  961MOL0     H32565   5.909   4.818   3.944  0.6340 -0.2450 -0.7975
  961MOL0     H32566   5.829   4.879   3.814  0.8228 -4.4249  0.0938
  961MOL0     H32567   6.110   5.110   3.762  3.2785  0.0653  0.8883
  961MOL0     H32568   6.320   5.131   3.670 -0.7020 -0.0054 -0.4463
  961MOL0     H32569   6.373   5.001   3.561 -0.4885 -0.4061  0.0546
  961MOL0     H32570   6.548   5.073   3.705 -0.6817  0.1212 -0.7129
  961MOL0     H32571   6.448   5.025   3.849 -1.9014  1.7295 -0.9409
  961MOL0     H32572   6.483   4.785   3.788 -0.2627 -3.5293 -2.4150
  961MOL0     H32573   6.513   4.827   3.623 -0.2844 -2.6432  0.9922
  961MOL0     H32574   6.751   4.863   3.671 -0.0116 -2.9859 -0.3473
  961MOL0     H32575   6.706   4.946   3.822  0.1993 -0.2936  1.2103
  961MOL0     H32576   6.756   4.516   3.940  3.0475 -1.0718  2.6274
  961MOL0     H32577   6.831   4.409   4.268  0.7743  0.2440 -1.7213
  961MOL0     H32578   6.782   4.362   4.108 -0.1232  1.6372 -0.1055
  961MOL0     H32579   6.661   4.363   4.229 -1.1409  0.1793 -1.5993
  961MOL0     H32580   6.813   4.804   4.619  2.9094  1.4587  5.9651
  961MOL0     H32581   6.818   4.766   4.855 -1.0239 -2.6629  1.5760
  961MOL0     H32582   6.448   4.570   5.058  0.1499  0.3076 -1.5251
  961MOL0     H32583   6.577   4.466   4.985  1.4556  0.6281  0.2313
  961MOL0     H32584   6.551   4.547   5.260  0.0474  1.1341 -1.4397
  961MOL0     H32585   6.538   4.390   5.191  2.2001 -0.7049  0.0377
  961MOL0     H32586   6.751   4.389   5.301 -1.6614  1.2885 -0.0768
  961MOL0     H32587   6.795   4.537   5.224 -0.9784  0.0497  2.1262
  961MOL0     H32588   6.831   4.414   5.017 -0.8635  0.1876  0.4368
  961MOL0     H32589   6.713   4.298   5.062  1.3853 -1.8015  0.6316
  961MOL0     H32590   6.945   4.280   5.236 -0.1229 -2.4566  1.2810
  961MOL0     H32591   6.821   4.163   5.181  2.7849 -2.7270 -0.1658
  961MOL0     H32592   7.055   4.268   5.009 -0.5186  1.0471  0.3325
  961MOL0     H32593   6.941   4.150   4.949 -0.1793  2.2050 -0.6860
  961MOL0     H32594   7.014   4.019   5.174 -0.8568  2.9167  1.5101
  961MOL0     H32595   7.152   4.118   5.173 -0.8124 -0.3456  2.2226
  961MOL0     H32596   7.217   4.049   4.928 -1.1557 -0.2946 -1.1024
  961MOL0     H32597   7.072   3.965   4.927 -0.4574  0.7900 -1.4698
  961MOL0     H32598   6.401   4.643   4.865 -0.1688  2.0061  1.0299
  961MOL0     H32599   6.398   4.648   4.623  0.6394 -1.4525  1.2911
  961MOL0     H32600   6.570   4.844   4.250 -4.4273 -1.2121 -3.1186
  961MOL0     H32601   6.613   4.902   4.016 -1.8303 -0.9129  0.4510
  961MOL0     H32602   5.235   5.410   4.451 -2.1434  1.2102 -3.9209
  961MOL0     H32603   5.076   5.544   4.554 -0.7976 -0.4246  2.1665
  961MOL0     H32604   4.736   5.569   4.843  0.1307 -2.4414 -3.0493
  961MOL0     H32605   4.645   5.763   4.964 -0.6400  2.4300  0.3204
  961MOL0     H32606   4.436   6.097   4.759 -0.2703 -2.5063 -3.1607
  961MOL0     H32607   4.302   5.995   4.789  1.2474  0.3004 -1.6421
  961MOL0     H32608   4.275   6.202   4.921 -0.1090 -0.3402  0.0029
  961MOL0     H32609   4.430   6.178   4.998 -0.8167 -0.8719  0.3096
  961MOL0     H32610   4.220   5.961   5.004 -0.8463  0.7263 -0.7412
  961MOL0     H32611   4.366   5.977   5.108  0.7208 -2.5993 -3.5668
  961MOL0     H32612   4.114   6.144   5.117 -1.3929 -1.9717 -1.4667
  961MOL0     H32613   4.273   6.186   5.194  1.5777 -1.0863 -2.4002
  961MOL0     H32614   4.139   5.929   5.488 -0.4340 -0.8282 -1.0281
  961MOL0     H32615   4.476   5.945   4.626 -1.7223 -0.4401  0.3404
  961MOL0     H32616   4.486   5.845   4.407 -0.4514 -0.9462 -0.6364
  961MOL0     H32617   4.654   5.780   4.387  1.3126  0.8511  0.8899
  961MOL0     H32618   4.505   5.676   4.410 -1.2864  1.3367 -1.2847
  962MOL0     O32619   4.088   3.501   5.377  0.2260 -0.2041  0.4507
  962MOL0     C32620   4.103   3.588   5.467  1.0437 -0.2348 -0.1503
  962MOL0     O32621   4.202   3.676   5.475  0.9035 -1.0652 -0.0517
  962MOL0     C32622   4.288   3.692   5.368  0.1682  0.0620 -0.1333
  962MOL0     C32623   4.235   3.728   5.237 -0.1442 -0.1095 -0.1031
  962MOL0     C32624   4.320   3.773   5.137  0.4165 -0.3576  0.2499
  962MOL0     C32625   4.459   3.784   5.163 -0.0495 -0.3734  0.3852
  962MOL0     O32626   4.546   3.802   5.056  0.6912  0.4687 -0.2866
  962MOL0     C32627   4.561   3.934   5.004 -0.4176  0.5374 -0.0338
  962MOL0     C32628   4.707   3.979   5.005  0.6175  0.1679  0.1230
  962MOL0     C32629   4.742   4.053   5.135 -0.3744  0.2487 -0.1282
  962MOL0     C32630   4.887   4.075   5.152 -0.5455 -0.6093 -0.1969
  962MOL0     C32631   4.925   4.154   5.271  0.7451  0.1515  0.0839
  962MOL0     C32632   5.074   4.206   5.286  0.4432  0.3943  0.0339
  962MOL0     C32633   5.086   4.265   5.422 -0.2044 -0.6594 -0.8034
  962MOL0     C32634   5.032   4.405   5.418  0.0799  0.0298  0.1971
  962MOL0     N32635   5.016   4.454   5.558  0.0931 -0.9311  0.1042
  962MOL0     C32636   5.103   4.428   5.658  0.3116 -0.1062  0.3162
  962MOL0     C32637   5.054   4.510   5.761  0.0585  0.4139 -0.3632
  962MOL0     C32638   5.122   4.494   5.893  0.5084 -0.1187 -0.3699
  962MOL0     C32639   5.261   4.561   5.896  1.3552  0.5882 -0.0767
  962MOL0     C32640   5.352   4.498   6.004  0.6365  0.4818  0.3586
  962MOL0     C32641   5.477   4.584   6.011 -0.1676  0.5467  0.2625
  962MOL0     O32642   5.573   4.516   6.095  0.3340  0.2500 -0.4183
  962MOL0     C32643   5.688   4.456   6.042  0.9172 -0.5930  0.0855
  962MOL0     C32644   5.697   4.413   5.912 -0.3886  0.8719  0.0934
  962MOL0     C32645   5.824   4.365   5.864  0.0611 -0.0652  0.1927
  962MOL0     C32646   5.822   4.328   5.718 -0.2234  0.9137 -0.2916
  962MOL0     C32647   5.937   4.357   5.949  0.9538  0.4051 -0.1555
  962MOL0     C32648   6.075   4.318   5.911  0.1238 -0.4974  0.2024
  962MOL0     O32649   6.172   4.358   5.988  0.2754  0.0645 -0.4574
  962MOL0     C32650   6.297   4.324   5.954 -0.2724 -1.0762 -0.5041
  962MOL0     C32651   6.344   4.189   5.965 -0.0816 -0.7718 -0.2085
  962MOL0     C32652   6.479   4.153   5.945 -0.5302 -0.1756 -0.2675
  962MOL0     C32653   6.566   4.245   5.901  0.3520 -0.2349 -0.3267
  962MOL0     O32654   6.698   4.210   5.887 -0.4169 -0.2680  0.2312
  962MOL0     C32655   6.779   4.306   5.806 -0.2607 -0.6584 -0.4450
  962MOL0     C32656   6.920   4.255   5.764  0.7957 -0.3686 -0.0366
  962MOL0     C32657   6.928   4.111   5.701 -0.5263 -0.6814 -0.8772
  962MOL0     C32658   6.850   4.089   5.582 -0.2524 -0.3903  0.5600
  962MOL0     C32659   6.897   3.970   5.481  0.1901  0.1701 -0.0075
  962MOL0     C32660   6.951   3.845   5.551 -0.8387 -0.3641 -0.9920
  962MOL0     C32661   6.842   3.755   5.616 -0.3322 -0.4490  0.9795
  962MOL0     C32662   6.843   3.726   5.767  0.1666  0.3846  0.6416
  962MOL0    Cl32663   6.983   3.624   5.815 -0.3426 -0.2620 -0.7186
  962MOL0     C32664   6.523   4.384   5.892  0.3137  0.2473  0.2383
  962MOL0     C32665   6.386   4.418   5.923  0.1372 -0.1311  0.8219
  962MOL0     O32666   6.081   4.247   5.810 -0.3353 -0.3189  0.0774
  962MOL0     C32667   5.921   4.389   6.080 -0.3132  0.5013 -0.4803
  962MOL0     C32668   5.796   4.442   6.131  0.3066 -0.3714 -0.0965
  962MOL0     N32669   4.934   4.566   5.731 -0.4860 -0.1435  0.5369
  962MOL0     N32670   4.914   4.536   5.606 -0.5303 -0.4380  1.0398
  962MOL0     C32671   4.515   3.751   5.293 -0.2581  0.6849 -0.6233
  962MOL0     C32672   4.426   3.696   5.393 -0.0833  0.3276  0.2358
  962MOL0     C32673   3.996   3.593   5.572 -0.4026  0.0595 -0.0410
  962MOL0     C32674   3.857   3.581   5.536 -0.6496  0.1014  0.6721
  962MOL0     C32675   3.757   3.573   5.632 -0.1773  0.6948  0.5761
  962MOL0     C32676   3.792   3.573   5.766 -0.7079 -0.1674 -0.0611
  962MOL0     O32677   3.705   3.534   5.860 -0.5862 -0.2074 -0.2269
  962MOL0     C32678   3.565   3.559   5.838 -0.4575  0.3146 -0.6347
  962MOL0     C32679   3.488   3.527   5.961 -0.2034  0.4575  1.0279
  962MOL0     C32680   3.493   3.630   6.072  0.4059 -0.7151  0.2065
  962MOL0     C32681   3.467   3.580   6.217 -0.2388  0.9364  0.2841
  962MOL0     C32682   3.531   3.672   6.310  0.0385 -1.5687 -0.1784
  962MOL0     C32683   3.579   3.763   6.384  0.2251  0.6812  0.3673
  962MOL0     C32684   3.927   3.590   5.806  0.9659 -0.7818 -0.2599
  962MOL0     C32685   4.027   3.605   5.713  0.5441 -0.1867 -0.0442
  962MOL0     C32686   4.168   3.636   5.751 -0.1527  0.3043 -0.1180
  962MOL0     H32687   4.129   3.714   5.218  0.3868 -0.6958 -3.2175
  962MOL0     H32688   4.275   3.797   5.041 -2.3389 -1.7157  1.1139
  962MOL0     H32689   4.501   4.011   5.054 -1.9490  1.0376 -2.4903
  962MOL0     H32690   4.522   3.920   4.903  1.6144 -1.9446 -0.5658
  962MOL0     H32691   4.757   3.883   4.989 -1.7830 -0.9944 -1.0703
  962MOL0     H32692   4.701   4.032   4.910  0.3344 -3.1834 -1.9001
  962MOL0     H32693   4.688   4.148   5.133 -0.3462  0.2708  0.1477
  962MOL0     H32694   4.708   3.988   5.216  2.9775 -0.4982  0.8374
  962MOL0     H32695   4.928   3.975   5.143 -2.0343 -1.2457 -0.1655
  962MOL0     H32696   4.922   4.131   5.065 -2.6899 -2.0217 -2.0637
  962MOL0     H32697   4.910   4.080   5.351  2.3017 -2.6992 -2.0922
  962MOL0     H32698   4.855   4.237   5.286  0.1814 -0.1519 -0.7763
  962MOL0     H32699   5.144   4.123   5.271 -0.4020 -0.6475  1.6427
  962MOL0     H32700   5.099   4.283   5.212 -0.5814 -0.2350 -0.9877
  962MOL0     H32701   5.193   4.274   5.445  0.0038 -1.3318 -1.4534
  962MOL0     H32702   5.032   4.201   5.492 -3.6737  0.0116 -2.6216
  962MOL0     H32703   5.097   4.471   5.359 -3.0627  0.4816 -3.1109
  962MOL0     H32704   4.937   4.416   5.365  2.1249 -0.6256 -3.9560
  962MOL0     H32705   5.185   4.357   5.661 -0.0512 -0.5043  1.7093
  962MOL0     H32706   5.117   4.391   5.929 -2.9046 -1.3471 -3.6813
  962MOL0     H32707   5.055   4.550   5.959 -1.6659  0.4025 -2.8494
  962MOL0     H32708   5.309   4.558   5.798 -1.0179  1.6709 -1.3566
  962MOL0     H32709   5.248   4.668   5.915  0.8036  0.6160 -0.5707
  962MOL0     H32710   5.315   4.501   6.107  0.7580 -2.4950  0.5722
  962MOL0     H32711   5.391   4.399   5.976  1.7363  0.7226  1.0092
  962MOL0     H32712   5.511   4.604   5.908  1.3098 -0.5725  0.4959
  962MOL0     H32713   5.449   4.687   6.037 -1.1787  0.7637 -1.5037
  962MOL0     H32714   5.614   4.435   5.846 -0.1568  4.5861  0.8371
  962MOL0     H32715   5.723   4.326   5.673 -1.1370  3.5056  1.3824
  962MOL0     H32716   5.873   4.233   5.699  0.6004  1.7091 -2.3004
  962MOL0     H32717   5.876   4.404   5.661 -1.3716  2.2980  0.4133
  962MOL0     H32718   6.270   4.111   5.980 -0.8942 -0.2383 -1.2888
  962MOL0     H32719   6.517   4.053   5.965  1.5980  0.8920  1.4759
  962MOL0     H32720   6.722   4.335   5.717 -0.2574  2.9992  0.5955
  962MOL0     H32721   6.801   4.402   5.854 -1.1607 -0.3057 -0.7192
  962MOL0     H32722   6.975   4.328   5.704 -2.4511  3.0482  0.7006
  962MOL0     H32723   6.973   4.244   5.859  1.1466  0.4673 -0.1273
  962MOL0     H32724   6.909   4.030   5.772 -3.3234  1.3749  0.9333
  962MOL0     H32725   7.033   4.097   5.675 -0.9908 -0.9158 -2.7721
  962MOL0     H32726   6.838   4.179   5.521 -0.0220 -0.4063  0.4904
  962MOL0     H32727   6.749   4.054   5.609  0.0287 -0.9421  0.9231
  962MOL0     H32728   6.816   3.942   5.412 -0.0949  1.8313 -0.3920
  962MOL0     H32729   6.976   4.013   5.418  0.4533 -1.5572 -0.9227
  962MOL0     H32730   7.030   3.887   5.613  0.2878 -2.9311 -0.5942
  962MOL0     H32731   7.007   3.794   5.472  1.2858 -0.0477  0.2276
  962MOL0     H32732   6.850   3.658   5.566  0.0624 -0.9953  2.0513
  962MOL0     H32733   6.742   3.794   5.595  0.2385  0.2496 -0.5271
  962MOL0     H32734   6.756   3.666   5.794 -0.9363  1.4200 -0.5456
  962MOL0     H32735   6.844   3.813   5.833 -4.5324  0.9748  0.2512
  962MOL0     H32736   6.585   4.466   5.857  0.3290  0.9375  1.7835
  962MOL0     H32737   6.348   4.520   5.926 -2.4554 -1.0369  3.2935
  962MOL0     H32738   6.002   4.379   6.151 -1.6011  0.6076  1.0507
  962MOL0     H32739   5.780   4.457   6.237  1.3511  1.6090 -0.1728
  962MOL0     H32740   4.618   3.726   5.316 -0.7405 -2.5574 -1.5310
  962MOL0     H32741   4.463   3.663   5.489  1.7653 -0.2076 -0.6281
  962MOL0     H32742   3.837   3.568   5.431  0.2786  0.4570  0.4462
  962MOL0     H32743   3.653   3.562   5.601  0.2442  0.6685 -0.8930
  962MOL0     H32744   3.548   3.663   5.812  0.0275  0.6629  0.3889
  962MOL0     H32745   3.533   3.485   5.764  1.4798  0.8007 -2.0351
  962MOL0     H32746   3.517   3.427   5.992  1.6320  0.4884 -0.4328
  962MOL0     H32747   3.384   3.527   5.926  0.5444 -0.5850 -1.3804
  962MOL0     H32748   3.591   3.680   6.068 -1.8767  4.2349 -1.9915
  962MOL0     H32749   3.422   3.712   6.064 -0.3221 -1.2845  0.7652
  962MOL0     H32750   3.504   3.479   6.239  1.3852  1.8490  2.0033
  962MOL0     H32751   3.358   3.573   6.230  0.0284 -2.1023  1.7487
  962MOL0     H32752   3.615   3.839   6.451  1.6842 -0.4729  0.9382
  962MOL0     H32753   3.953   3.587   5.912 -2.1599 -0.4386  0.6081
  962MOL0     H32754   4.172   3.642   5.860 -1.2500  2.4811 -0.1413
  962MOL0     H32755   4.235   3.558   5.714 -0.5562 -2.5964  4.4374
  962MOL0     H32756   4.204   3.732   5.713  2.3682 -2.1222 -4.6793
  963MOL0     O32757   6.039   4.892   5.329  0.1287  0.1945 -0.1822
  963MOL0     C32758   5.923   4.887   5.274 -0.4390  0.1479  0.0423
  963MOL0     O32759   5.857   4.771   5.255 -0.1644  0.1860  0.6241
  963MOL0     C32760   5.922   4.650   5.257  0.6191 -0.3095 -0.0762
  963MOL0     C32761   5.854   4.548   5.327  0.4486  0.2083 -0.0554
  963MOL0     C32762   5.906   4.418   5.330 -0.6717  0.9712  0.1150
  963MOL0     C32763   6.009   4.383   5.236  0.7188  1.1252 -0.4790
  963MOL0     O32764   6.056   4.260   5.218 -0.5441  0.1344 -0.3451
  963MOL0     C32765   5.953   4.155   5.225 -0.4259  0.2305 -0.4484
  963MOL0     C32766   5.932   4.089   5.361 -0.1817 -0.3169  0.5946
  963MOL0     C32767   5.923   3.942   5.349  0.5120  1.0773 -0.6665
  963MOL0     C32768   5.940   3.878   5.496  0.3928  0.3429  0.5085
  963MOL0     C32769   5.962   3.729   5.487  0.1589  0.0126 -0.4017
  963MOL0     C32770   6.095   3.684   5.425 -0.7583  0.3519  0.6925
  963MOL0     C32771   6.122   3.537   5.424  1.4051 -0.2568 -0.2670
  963MOL0     C32772   6.268   3.510   5.385  0.0082 -0.5738  0.2132
  963MOL0     N32773   6.284   3.489   5.247  0.4333 -0.3290  1.1295
  963MOL0     C32774   6.253   3.383   5.173 -0.2766  0.0656  0.7967
  963MOL0     C32775   6.287   3.411   5.048  0.9983 -0.3823 -0.1165
  963MOL0     C32776   6.300   3.313   4.930 -0.4068 -0.1149 -0.0783
  963MOL0     C32777   6.414   3.336   4.835  0.4662  0.3388  0.7173
  963MOL0     C32778   6.542   3.285   4.907  0.0235 -0.0478  0.2135
  963MOL0     C32779   6.661   3.302   4.817 -0.6002  0.1583 -0.1237
  963MOL0     O32780   6.661   3.206   4.712 -0.4549 -0.3225 -0.0141
  963MOL0     C32781   6.758   3.222   4.616 -1.1535 -1.0520  0.1323
  963MOL0     C32782   6.860   3.323   4.608 -0.2873 -0.3099 -0.2873
  963MOL0     C32783   6.949   3.338   4.498  0.9017  0.1594  0.0642
  963MOL0     C32784   7.044   3.457   4.500  0.6258  0.2069  0.2357
  963MOL0     C32785   6.954   3.235   4.402  0.3425  0.5122  0.4716
  963MOL0     C32786   7.051   3.232   4.283  0.2989 -0.0796 -0.4194
  963MOL0     O32787   7.086   3.114   4.232 -0.6568  0.4224  0.0863
  963MOL0     C32788   7.157   3.118   4.111  0.7082 -0.0043 -0.2789
  963MOL0     C32789   7.102   3.047   4.005 -0.7333 -0.2151 -0.2999
  963MOL0     C32790   7.168   3.032   3.885 -0.4998  0.1285  1.0373
  963MOL0     C32791   7.289   3.105   3.857  0.4863  1.0937 -0.5995
  963MOL0     O32792   7.348   3.097   3.738  0.1697 -0.4118  0.4760
  963MOL0     C32793   7.271   3.110   3.613  0.0728  1.1135 -0.1730
  963MOL0     C32794   7.372   3.144   3.500 -0.4133 -0.3905 -0.3949
  963MOL0     C32795   7.305   3.147   3.366 -0.2882 -0.0964  0.2850
  963MOL0     C32796   7.383   3.247   3.279 -0.1994 -0.0401  0.4638
  963MOL0     C32797   7.331   3.255   3.135  0.6642 -0.5915 -0.9631
  963MOL0     C32798   7.415   3.356   3.047 -0.2539  0.3020  0.4158
  963MOL0     C32799   7.362   3.373   2.900  0.2803 -0.1052  0.5430
  963MOL0     C32800   7.286   3.503   2.886 -0.1618 -0.2547 -0.6534
  963MOL0    Cl32801   7.147   3.508   3.004 -0.0124 -0.5516  0.4508
  963MOL0     C32802   7.338   3.188   3.961 -0.2893 -0.1779 -0.6133
  963MOL0     C32803   7.279   3.188   4.090  0.4501  0.8237 -1.1354
  963MOL0     O32804   7.065   3.336   4.223  0.2665  0.8481 -0.5329
  963MOL0     C32805   6.871   3.123   4.421  0.1665 -0.8357  0.5700
  963MOL0     C32806   6.770   3.120   4.524  0.4352 -0.4317 -0.2909
  963MOL0     N32807   6.329   3.539   5.035 -0.4319  0.4093 -0.6632
  963MOL0     N32808   6.339   3.581   5.158  1.0859  0.2955 -1.2194
  963MOL0     C32809   6.080   4.481   5.166  0.7184  0.4188 -1.2382
  963MOL0     C32810   6.038   4.613   5.185  0.3428  0.1336 -0.1105
  963MOL0     C32811   5.843   5.004   5.234 -0.2487 -0.0835 -0.2438
  963MOL0     C32812   5.707   5.016   5.262 -0.7289 -0.5200 -0.4030
  963MOL0     C32813   5.637   5.124   5.213 -0.0295  0.2617  0.7254
  963MOL0     C32814   5.704   5.231   5.149 -0.0695 -0.5718 -0.2662
  963MOL0     O32815   5.649   5.351   5.118 -0.0514 -0.1593  0.2612
  963MOL0     C32816   5.512   5.388   5.147 -0.1624  0.0981  1.0932
  963MOL0     C32817   5.467   5.511   5.074  0.2401  1.3483 -0.0518
  963MOL0     C32818   5.317   5.531   5.110 -0.6633 -0.2196  0.2204
  963MOL0     C32819   5.238   5.630   5.016  0.1734  0.0055 -0.5133
  963MOL0     C32820   5.099   5.627   5.057  0.1512  0.2647  0.0306
  963MOL0     C32821   4.992   5.600   5.112  0.1879  0.1616  0.4649
  963MOL0     C32822   5.843   5.230   5.144  0.0473 -0.2786  0.7567
  963MOL0     C32823   5.916   5.120   5.177 -0.5696  0.5286  0.0959
  963MOL0     C32824   6.069   5.118   5.151  0.0572  0.3545 -0.2682
  963MOL0     H32825   5.761   4.570   5.380 -1.5615 -3.9300 -1.4266
  963MOL0     H32826   5.840   4.359   5.392  0.1710 -0.3866 -0.2119
  963MOL0     H32827   5.991   4.081   5.154 -3.5606 -0.8470 -1.1295
  963MOL0     H32828   5.852   4.185   5.198 -0.9661  0.4917  1.6724
  963MOL0     H32829   6.014   4.120   5.427 -0.4105 -1.5751  1.5101
  963MOL0     H32830   5.845   4.133   5.409 -3.2689  0.5602 -4.9342
  963MOL0     H32831   5.824   3.918   5.309 -0.4352  3.0982  0.3289
  963MOL0     H32832   5.999   3.909   5.279 -0.4604  0.4089 -1.4421
  963MOL0     H32833   6.025   3.920   5.551  2.6175 -2.5415 -0.4355
  963MOL0     H32834   5.842   3.898   5.542 -0.6201  0.2625 -1.5245
  963MOL0     H32835   5.885   3.692   5.420  0.3771 -1.5618  0.1858
  963MOL0     H32836   5.956   3.670   5.579  0.1766  1.1141  0.3259
  963MOL0     H32837   6.103   3.732   5.327  3.1933  2.9628  2.0339
  963MOL0     H32838   6.178   3.728   5.482 -1.0581  0.7610  0.8162
  963MOL0     H32839   6.050   3.492   5.355 -0.8925 -0.3168  1.9841
  963MOL0     H32840   6.094   3.500   5.523  0.6799  2.1095  0.4839
  963MOL0     H32841   6.342   3.586   5.414 -3.0314  2.6191  0.2168
  963MOL0     H32842   6.306   3.420   5.435  3.0806  0.5892  0.1857
  963MOL0     H32843   6.215   3.285   5.200  3.8443 -1.8265  0.5008
  963MOL0     H32844   6.209   3.328   4.872  0.5181 -0.5424 -1.7133
  963MOL0     H32845   6.301   3.211   4.970 -2.0696 -0.6896 -1.3576
  963MOL0     H32846   6.401   3.280   4.741 -1.9772  0.2554  1.0189
  963MOL0     H32847   6.424   3.442   4.811  3.2176  0.3368  1.5604
  963MOL0     H32848   6.571   3.344   4.994  2.7658  0.0836 -0.6801
  963MOL0     H32849   6.531   3.184   4.948 -1.5542  1.0734  2.7985
  963MOL0     H32850   6.673   3.407   4.790  0.3916  1.2379  3.8928
  963MOL0     H32851   6.747   3.272   4.877 -0.6748 -0.4325 -0.3049
  963MOL0     H32852   6.867   3.390   4.694 -2.5469  0.4664 -0.6284
  963MOL0     H32853   7.043   3.512   4.406  0.9534  1.7502  1.1080
  963MOL0     H32854   7.144   3.418   4.521  0.0343 -0.7671  1.3707
  963MOL0     H32855   7.010   3.515   4.586 -2.7012 -1.0357 -0.0934
  963MOL0     H32856   7.019   2.981   4.029  0.7098 -1.5665  1.2373
  963MOL0     H32857   7.130   2.970   3.805 -1.1300  2.7353 -0.8400
  963MOL0     H32858   7.228   3.013   3.587  2.2535 -0.6582  2.2513
  963MOL0     H32859   7.195   3.188   3.614 -1.0094  0.1495  2.6514
  963MOL0     H32860   7.408   3.242   3.531 -1.2366  0.3859 -1.8016
  963MOL0     H32861   7.444   3.061   3.498 -1.7876 -1.7547  2.0208
  963MOL0     H32862   7.201   3.180   3.372  0.3389  1.8499  1.3166
  963MOL0     H32863   7.315   3.047   3.323  2.9454  0.1177  0.3045
  963MOL0     H32864   7.491   3.234   3.265 -0.2718  2.4096 -4.6029
  963MOL0     H32865   7.359   3.340   3.332 -4.3639 -0.1671 -0.8403
  963MOL0     H32866   7.320   3.156   3.090  1.8929 -0.6316 -1.1945
  963MOL0     H32867   7.229   3.293   3.153  1.1238 -1.1934  5.1392
  963MOL0     H32868   7.522   3.335   3.036 -0.2706 -0.3589  1.3736
  963MOL0     H32869   7.428   3.456   3.091  4.2571 -0.4923  1.3990
  963MOL0     H32870   7.287   3.298   2.876  0.4447 -0.0988 -0.0079
  963MOL0     H32871   7.446   3.370   2.830 -2.4887  1.9551 -3.2339
  963MOL0     H32872   7.251   3.499   2.782  0.4262 -2.2751 -0.8093
  963MOL0     H32873   7.354   3.587   2.899 -1.3745  0.7273 -0.4576
  963MOL0     H32874   7.427   3.249   3.947  0.7024 -1.0892  1.3192
  963MOL0     H32875   7.326   3.244   4.170 -1.6248 -0.5781  1.2122
  963MOL0     H32876   6.873   3.041   4.349 -0.7784 -0.5382  0.1842
  963MOL0     H32877   6.705   3.034   4.537 -0.6356  0.3424 -0.3717
  963MOL0     H32878   6.176   4.460   5.120 -0.7470 -1.4399 -3.6883
  963MOL0     H32879   6.108   4.675   5.129  2.2088 -0.4740  1.4283
  963MOL0     H32880   5.660   4.930   5.309  0.7129 -3.0017 -3.1885
  963MOL0     H32881   5.530   5.133   5.228 -0.9601 -0.4912 -3.8780
  963MOL0     H32882   5.447   5.303   5.123  3.4805 -2.3600 -1.0696
  963MOL0     H32883   5.512   5.401   5.255  2.0206 -0.9955  1.2632
  963MOL0     H32884   5.497   5.496   4.970  2.5060 -2.2063  0.9620
  963MOL0     H32885   5.526   5.597   5.108  0.7036  0.0406  2.7853
  963MOL0     H32886   5.268   5.434   5.102  2.2600 -1.9210  1.3421
  963MOL0     H32887   5.311   5.571   5.212  0.1555  2.8357 -0.8260
  963MOL0     H32888   5.246   5.598   4.912 -1.6833  0.8793 -0.9723
  963MOL0     H32889   5.284   5.729   5.010  1.9983 -0.3654  3.9259
  963MOL0     H32890   4.898   5.581   5.159  1.3814 -0.4541  2.7497
  963MOL0     H32891   5.889   5.320   5.104 -0.0470 -0.0793  1.0921
  963MOL0     H32892   6.124   5.164   5.233 -0.3860  0.6646 -0.1423
  963MOL0     H32893   6.113   5.019   5.134 -2.8617 -1.4922  2.0548
  963MOL0     H32894   6.090   5.171   5.057 -2.8091  1.5364 -0.3279
  964MOL0     O32895   8.320   0.697  10.974  0.7081  0.2312 -0.3240
  964MOL0     C32896   8.238   0.612  11.014 -0.5064  0.5218  0.2103
  964MOL0     O32897   8.269   0.505  11.100 -0.2515 -0.5336 -0.0500
  964MOL0     C32898   8.386   0.497  11.176  0.0496 -0.1134 -0.2025
  964MOL0     C32899   8.420   0.377  11.241 -1.2021  1.0194 -0.3045
  964MOL0     C32900   8.529   0.364  11.337  0.1253 -0.0830 -0.4177
  964MOL0     C32901   8.609   0.466  11.361 -1.0551 -0.6411 -0.6476
  964MOL0     O32902   8.725   0.467  11.434  0.1092 -0.2204 -0.2783
  964MOL0     C32903   8.707   0.413  11.567 -0.1497  0.1620  0.4635
  964MOL0     C32904   8.825   0.457  11.648  1.0151 -0.0083  0.2863
  964MOL0     C32905   8.955   0.428  11.579 -0.9558  0.1054 -0.9341
  964MOL0     C32906   9.064   0.416  11.694  0.1456 -1.1673  0.2203
  964MOL0     C32907   9.204   0.403  11.632  0.1878 -0.2567  0.5746
  964MOL0     C32908   9.323   0.427  11.735  0.4320  0.2342  0.0099
  964MOL0     C32909   9.338   0.340  11.855 -0.7118 -0.6329  1.3303
  964MOL0     C32910   9.322   0.190  11.840 -0.7262 -0.2485 -0.4316
  964MOL0     N32911   9.320   0.135  11.973  0.3728  0.5968  0.1059
  964MOL0     C32912   9.218   0.064  12.031  0.1764  0.2462 -0.1883
  964MOL0     C32913   9.264   0.038  12.156 -0.6187  0.1812  0.4035
  964MOL0     C32914   9.173  -0.019  12.256 -0.4846 -0.2660 -0.2570
  964MOL0     C32915   9.238  -0.152  12.300 -0.2752  0.9551 -0.2440
  964MOL0     C32916   9.243  -0.155  12.455  0.8039  0.2644 -0.2200
  964MOL0     C32917   9.308  -0.282  12.516  1.3434 -0.4859  0.1849
  964MOL0     O32918   9.444  -0.268  12.531 -0.4716  0.4866  0.1611
  964MOL0     C32919   9.533  -0.295  12.433  0.0195  0.3826 -0.3885
  964MOL0     C32920   9.504  -0.373  12.314 -0.4901 -0.1576  0.7104
  964MOL0     C32921   9.597  -0.407  12.220 -1.6435 -0.2059  0.5849
  964MOL0     C32922   9.558  -0.470  12.085 -0.9076 -0.9490  0.2815
  964MOL0     C32923   9.728  -0.387  12.252 -0.3165 -0.0587  0.1535
  964MOL0     C32924   9.833  -0.432  12.153 -0.0002  0.1010 -0.9541
  964MOL0     O32925   9.921  -0.342  12.092 -0.0695  0.4197 -0.3311
  964MOL0     C32926   9.996  -0.407  11.994 -0.9421 -0.7865 -0.5241
  964MOL0     C32927   9.992  -0.366  11.858 -0.4319  0.4091 -0.6452
  964MOL0     C32928  10.053  -0.443  11.755 -0.2910  0.0233  0.2588
  964MOL0     C32929  10.141  -0.546  11.790  0.3520 -0.2698  0.0920
  964MOL0     O32930  10.181  -0.637  11.700 -0.2034  0.4092  0.3057
  964MOL0     C32931  10.318  -0.652  11.704 -0.2838 -0.4321  0.3263
  964MOL0     C32932  10.366  -0.682  11.555 -0.3616  0.2066 -0.1365
  964MOL0     C32933  10.347  -0.828  11.514 -0.3965  0.0665  0.4126
  964MOL0     C32934  10.370  -0.853  11.368 -0.2319 -1.4127 -0.6748
  964MOL0     C32935  10.317  -0.993  11.333  0.4775  0.0718 -0.4210
  964MOL0     C32936  10.293  -1.003  11.179 -0.7921 -1.1074  0.0535
  964MOL0     C32937  10.415  -0.987  11.081 -0.1372 -0.5745  0.6005
  964MOL0     C32938  10.372  -0.971  10.934  0.1175  0.5449  0.4901
  964MOL0    Cl32939  10.250  -0.834  10.914  0.1725 -0.4447 -0.8976
  964MOL0     C32940  10.164  -0.565  11.925 -0.0087  0.0456 -0.4628
  964MOL0     C32941  10.095  -0.501  12.021  1.0115 -0.1329 -0.6241
  964MOL0     O32942   9.847  -0.555  12.158  0.6095  0.0611  0.0025
  964MOL0     C32943   9.767  -0.327  12.375  0.5480  0.0775  0.8337
  964MOL0     C32944   9.668  -0.262  12.446  0.1217 -0.2866 -0.7821
  964MOL0     N32945   9.387   0.094  12.178 -0.6275  0.3050 -0.6844
  964MOL0     N32946   9.418   0.151  12.069 -0.3475 -0.5630 -0.4210
  964MOL0     C32947   8.586   0.584  11.296  0.8056  0.2274  0.3284
  964MOL0     C32948   8.474   0.606  11.206 -0.0149  0.7715 -0.6265
  964MOL0     C32949   8.096   0.630  10.985  0.6773 -0.2489  0.5576
  964MOL0     C32950   8.046   0.759  10.946  0.9925  0.1811  0.9082
  964MOL0     C32951   7.918   0.773  10.895  0.5926 -0.1778  0.8191
  964MOL0     C32952   7.830   0.676  10.883 -0.5196  0.4449 -0.9516
  964MOL0     O32953   7.699   0.715  10.837  0.0304 -0.2542 -1.3894
  964MOL0     C32954   7.600   0.609  10.795  0.1111 -0.4630 -0.2514
  964MOL0     C32955   7.589   0.595  10.642  0.3497  0.4026 -0.4135
  964MOL0     C32956   7.572   0.726  10.573  1.0309 -0.8819 -0.0043
  964MOL0     C32957   7.527   0.723  10.429 -0.4238 -0.1421  0.1150
  964MOL0     C32958   7.529   0.843  10.344 -0.8338  0.7729 -0.2231
  964MOL0     C32959   7.544   0.936  10.270 -0.7009  1.6510  0.5332
  964MOL0     C32960   7.872   0.550  10.913  0.0082  0.0808 -0.4890
  964MOL0     C32961   8.005   0.525  10.958 -0.9856 -0.3380 -0.0821
  964MOL0     C32962   8.039   0.381  10.980 -0.9148  0.1716 -0.6553
  964MOL0     H32963   8.363   0.285  11.234 -1.4195  1.1394 -0.1303
  964MOL0     H32964   8.542   0.267  11.385 -2.7038 -0.0294  0.6785
  964MOL0     H32965   8.695   0.304  11.566 -3.2103  0.3790 -0.8733
  964MOL0     H32966   8.619   0.457  11.616 -1.3898  0.1590 -1.5884
  964MOL0     H32967   8.826   0.565  11.668 -1.2866  0.2529 -0.7412
  964MOL0     H32968   8.816   0.406  11.745 -1.3077  1.3892  0.8890
  964MOL0     H32969   8.952   0.325  11.543 -0.7401 -0.6462  1.0829
  964MOL0     H32970   8.967   0.498  11.496 -0.9771 -0.1345 -1.1399
  964MOL0     H32971   9.066   0.513  11.745  0.7151 -0.0507 -1.7961
  964MOL0     H32972   9.041   0.349  11.777 -1.1139 -0.2244  0.6518
  964MOL0     H32973   9.221   0.463  11.543  1.0516 -2.0871 -0.5607
  964MOL0     H32974   9.211   0.302  11.590  0.2013 -0.1099  0.2256
  964MOL0     H32975   9.410   0.405  11.672  1.1662  1.4790  0.5455
  964MOL0     H32976   9.325   0.528  11.777  2.3997 -1.0118  3.2843
  964MOL0     H32977   9.263   0.373  11.928  0.1451  2.6956  0.8650
  964MOL0     H32978   9.442   0.346  11.889  0.0492 -0.2916 -0.9228
  964MOL0     H32979   9.224   0.163  11.801 -0.8963 -1.7188  0.9182
  964MOL0     H32980   9.393   0.140  11.774  0.7543  0.5501  0.4983
  964MOL0     H32981   9.118   0.049  11.993  0.0826  3.3697 -1.4562
  964MOL0     H32982   9.075  -0.038  12.209  0.0176 -4.2284 -0.0623
  964MOL0     H32983   9.156   0.050  12.338 -3.1319 -0.4095 -0.5929
  964MOL0     H32984   9.166  -0.230  12.272 -0.0129 -0.2938  2.2438
  964MOL0     H32985   9.336  -0.172  12.256  0.1735 -3.1630  2.0223
  964MOL0     H32986   9.282  -0.064  12.501  1.5701  0.9569 -2.1364
  964MOL0     H32987   9.142  -0.171  12.493  1.9594 -2.7397  1.9591
  964MOL0     H32988   9.265  -0.291  12.616 -2.4826  1.4175 -1.0887
  964MOL0     H32989   9.283  -0.375  12.465 -1.4154  0.8533 -1.1263
  964MOL0     H32990   9.399  -0.381  12.290 -0.1266  0.5891 -1.4092
  964MOL0     H32991   9.612  -0.565  12.087 -0.5079 -0.7716 -1.0428
  964MOL0     H32992   9.581  -0.417  11.992 -0.7485 -2.3046 -0.4835
  964MOL0     H32993   9.449  -0.477  12.076 -1.5290  2.8212  2.5615
  964MOL0     H32994   9.930  -0.284  11.824 -1.9708 -1.0103 -1.4241
  964MOL0     H32995  10.038  -0.426  11.649 -1.1536 -0.6108  0.2704
  964MOL0     H32996  10.374  -0.560  11.719  1.3821 -1.0537 -1.7430
  964MOL0     H32997  10.356  -0.730  11.771 -0.7711  1.5369  3.0567
  964MOL0     H32998  10.315  -0.621  11.480 -2.1869 -0.9599  0.0864
  964MOL0     H32999  10.473  -0.662  11.555 -0.0520 -0.9749 -2.9382
  964MOL0     H33000  10.250  -0.872  11.537 -0.2652 -1.6135 -1.9315
  964MOL0     H33001  10.426  -0.880  11.570  1.7375  1.2321 -1.3265
  964MOL0     H33002  10.479  -0.848  11.352  0.4260  1.5044  3.1520
  964MOL0     H33003  10.321  -0.774  11.310  1.9595  1.1564  0.7348
  964MOL0     H33004  10.366  -1.082  11.373 -1.5028 -0.6768  0.4844
  964MOL0     H33005  10.213  -0.999  11.368 -0.2966  0.8789 -2.4455
  964MOL0     H33006  10.216  -0.929  11.155  0.1318 -0.0653  0.2261
  964MOL0     H33007  10.253  -1.104  11.166  0.2371 -1.3835 -1.1938
  964MOL0     H33008  10.459  -1.087  11.090  3.6224  1.0333  2.3637
  964MOL0     H33009  10.490  -0.917  11.119 -1.6029  0.8654  0.9268
  964MOL0     H33010  10.317  -1.055  10.891 -0.6256  1.5848 -0.6661
  964MOL0     H33011  10.456  -0.951  10.867 -0.4849  1.8751  0.0835
  964MOL0     H33012  10.230  -0.637  11.972  0.0151  1.6172  2.1056
  964MOL0     H33013  10.121  -0.520  12.124  0.0979 -1.6738 -0.6570
  964MOL0     H33014   9.873  -0.319  12.394  0.8366 -1.2303 -0.0884
  964MOL0     H33015   9.691  -0.197  12.530  1.0932  1.2019 -2.1284
  964MOL0     H33016   8.661   0.661  11.307 -0.4466  1.4737  0.3708
  964MOL0     H33017   8.459   0.704  11.163 -4.1967  0.2679 -0.7460
  964MOL0     H33018   8.113   0.844  10.941  3.1627 -1.4303  1.1967
  964MOL0     H33019   7.883   0.875  10.888  1.7392  0.2620  1.2105
  964MOL0     H33020   7.615   0.510  10.838 -0.9262 -1.3318 -1.7927
  964MOL0     H33021   7.499   0.642  10.822  0.3632  0.9231 -0.9123
  964MOL0     H33022   7.499   0.537  10.618  1.3501 -1.5367  0.3227
  964MOL0     H33023   7.674   0.548  10.591 -0.8641 -1.1307 -1.1169
  964MOL0     H33024   7.510   0.803  10.621  0.5200 -0.7107 -0.9168
  964MOL0     H33025   7.675   0.764  10.568  0.7704 -0.1335  0.1767
  964MOL0     H33026   7.428   0.677  10.422  0.5535 -2.1182 -3.4799
  964MOL0     H33027   7.589   0.651  10.375  0.1108  0.3934 -0.0004
  964MOL0     H33028   7.565   1.026  10.216  2.7459  0.8406  0.2455
  964MOL0     H33029   7.804   0.466  10.908  0.8724 -0.6090 -0.9777
  964MOL0     H33030   8.110   0.349  10.903 -3.4022  1.0015 -3.4770
  964MOL0     H33031   8.063   0.353  11.083 -2.3768 -0.5013 -0.4740
  964MOL0     H33032   7.952   0.319  10.958 -0.2971 -1.1732  0.5115
  965MOL0     O33033   7.689   1.357   6.859 -0.3255  0.1506 -0.8510
  965MOL0     C33034   7.670   1.277   6.769  0.1258  0.2636  0.5626
  965MOL0     O33035   7.764   1.186   6.722 -0.0144 -0.9574 -0.8944
  965MOL0     C33036   7.881   1.175   6.786  1.3303 -0.1789  0.0262
  965MOL0     C33037   7.892   1.121   6.912 -0.4391 -0.3831  0.5272
  965MOL0     C33038   8.014   1.102   6.981  0.1908  0.5461  0.3834
  965MOL0     C33039   8.130   1.139   6.917  0.5484  1.1831 -0.1201
  965MOL0     O33040   8.246   1.138   6.979 -0.0169 -0.3216  0.2320
  965MOL0     C33041   8.352   1.055   6.922  0.5063 -0.1120 -0.6262
  965MOL0     C33042   8.447   1.012   7.022  0.6162 -1.4739 -1.5147
  965MOL0     C33043   8.382   0.937   7.134 -0.3044  0.3474  1.0372
  965MOL0     C33044   8.489   0.894   7.239 -0.5576  0.0893 -0.5856
  965MOL0     C33045   8.557   0.756   7.193 -0.1144  0.0349 -1.1832
  965MOL0     C33046   8.674   0.702   7.291 -0.4726 -0.0037 -0.7995
  965MOL0     C33047   8.756   0.585   7.230  0.6012 -0.2315 -0.1321
  965MOL0     C33048   8.836   0.501   7.325  0.2404 -0.9613  0.3491
  965MOL0     N33049   8.949   0.576   7.386  0.2648  0.2546  0.4339
  965MOL0     C33050   9.054   0.642   7.321  0.3067 -0.0417 -0.0798
  965MOL0     C33051   9.125   0.695   7.428  0.3798  0.5480 -0.1541
  965MOL0     C33052   9.242   0.786   7.414 -0.1186 -0.7042  0.1576
  965MOL0     C33053   9.177   0.929   7.385  0.5203 -0.0842  0.0473
  965MOL0     C33054   9.099   0.977   7.513  0.2581 -0.2155  0.5552
  965MOL0     C33055   9.172   0.966   7.647  0.3345  0.4446 -0.1782
  965MOL0     O33056   9.304   1.037   7.645  0.7319  0.0100 -0.3501
  965MOL0     C33057   9.313   1.170   7.681 -0.3782 -0.0352  0.1919
  965MOL0     C33058   9.430   1.215   7.722  0.0503 -0.5376 -0.3515
  965MOL0     C33059   9.457   1.348   7.745 -0.2435 -0.3738  0.5909
  965MOL0     C33060   9.602   1.394   7.773  0.0223 -0.2341 -1.3145
  965MOL0     C33061   9.347   1.440   7.729  0.2703 -0.4107 -0.1829
  965MOL0     C33062   9.362   1.590   7.723  0.3375 -0.4343 -0.0627
  965MOL0     O33063   9.266   1.643   7.631  0.3291 -0.2798  0.0731
  965MOL0     C33064   9.231   1.774   7.628 -0.8422  0.3837  0.0159
  965MOL0     C33065   9.191   1.840   7.749  0.0839  0.7247  0.6740
  965MOL0     C33066   9.131   1.956   7.753  1.4044 -0.4639  0.0570
  965MOL0     C33067   9.114   2.030   7.635  0.0836  0.5235  0.0299
  965MOL0     O33068   9.060   2.157   7.632  0.2340 -0.3382 -0.9516
  965MOL0     C33069   8.986   2.221   7.741 -0.4397  0.5715 -0.4411
  965MOL0     C33070   9.086   2.290   7.837  0.9839 -0.1917  0.2296
  965MOL0     C33071   9.001   2.364   7.944 -0.8366  0.2452 -0.6498
  965MOL0     C33072   9.097   2.435   8.045  0.5730  0.4347  0.5625
  965MOL0     C33073   9.033   2.496   8.166 -0.2492 -0.8203 -0.3124
  965MOL0     C33074   9.018   2.655   8.173 -0.0093  0.2875 -0.5523
  965MOL0     C33075   8.884   2.703   8.112 -0.7960  1.5669  0.0468
  965MOL0     C33076   8.825   2.834   8.167 -0.8109  0.6501  0.1313
  965MOL0    Cl33077   8.721   2.806   8.304  0.7057  0.4145  0.1929
  965MOL0     C33078   9.157   1.974   7.522 -0.2851  0.1686  0.3047
  965MOL0     C33079   9.220   1.853   7.514 -0.4359  0.3629 -0.7282
  965MOL0     O33080   9.431   1.658   7.802 -0.2446 -0.0153 -0.2806
  965MOL0     C33081   9.226   1.390   7.689 -1.1188  0.2041  1.2549
  965MOL0     C33082   9.202   1.262   7.666 -0.3502  0.4468  0.2200
  965MOL0     N33083   9.058   0.663   7.546 -0.2595  0.8484  0.1256
  965MOL0     N33084   8.965   0.587   7.521  0.5116  0.1456  0.6463
  965MOL0     C33085   8.121   1.202   6.789  0.5637 -0.3393  0.0866
  965MOL0     C33086   7.996   1.211   6.722  0.0108  0.4610 -0.7227
  965MOL0     C33087   7.553   1.292   6.682  0.0207  0.6926  0.1948
  965MOL0     C33088   7.431   1.294   6.745 -0.3846  0.1485  0.3944
  965MOL0     C33089   7.307   1.317   6.676 -0.3695 -0.3215 -0.0895
  965MOL0     C33090   7.309   1.301   6.537  0.3973 -0.3976 -1.2582
  965MOL0     O33091   7.187   1.305   6.474 -0.8483  0.5519  0.1632
  965MOL0     C33092   7.169   1.242   6.342  0.0094 -0.2805  0.9201
  965MOL0     C33093   7.045   1.169   6.349 -0.6631  0.1978 -0.7780
  965MOL0     C33094   6.916   1.251   6.354  0.1000 -0.7166 -0.1740
  965MOL0     C33095   6.807   1.144   6.367 -0.1429 -0.2540 -0.3782
  965MOL0     C33096   6.697   1.211   6.440 -1.1820  0.0063 -0.3323
  965MOL0     C33097   6.619   1.288   6.487  0.1417 -0.4404 -0.3875
  965MOL0     C33098   7.425   1.280   6.472  0.5289  0.1065 -0.0709
  965MOL0     C33099   7.547   1.285   6.534  0.0076 -0.0623 -0.9618
  965MOL0     C33100   7.676   1.293   6.461 -0.7898  0.2025  0.2459
  965MOL0     H33101   7.802   1.116   6.972  0.4218  2.7798  2.3074
  965MOL0     H33102   8.027   1.068   7.083  1.9280 -3.5751 -1.0196
  965MOL0     H33103   8.414   1.110   6.850  1.1396  0.7567  0.5476
  965MOL0     H33104   8.303   0.968   6.876 -2.5319  0.2694  1.6173
  965MOL0     H33105   8.517   0.941   6.976  2.4544 -0.8406  0.1860
  965MOL0     H33106   8.512   1.092   7.059 -1.1692  1.4422 -4.2164
  965MOL0     H33107   8.308   0.995   7.190 -0.4112  2.3899 -1.1090
  965MOL0     H33108   8.327   0.848   7.102  2.2014 -0.8464 -0.2441
  965MOL0     H33109   8.570   0.965   7.259 -1.6134  1.1253  0.1115
  965MOL0     H33110   8.446   0.876   7.338 -0.8735 -0.2243 -0.7761
  965MOL0     H33111   8.603   0.771   7.095 -1.1099 -1.9417 -2.0291
  965MOL0     H33112   8.483   0.677   7.172 -0.5916  1.1417 -4.1200
  965MOL0     H33113   8.739   0.788   7.310 -0.1457 -0.7351  1.6630
  965MOL0     H33114   8.640   0.670   7.389  0.6274 -2.8498 -1.2540
  965MOL0     H33115   8.834   0.625   7.165  1.5490  0.5720  1.4515
  965MOL0     H33116   8.693   0.519   7.170  1.1341  1.7589 -3.0966
  965MOL0     H33117   8.779   0.458   7.408 -1.6281  0.2440 -0.2295
  965MOL0     H33118   8.891   0.428   7.264  1.3774 -0.5886  0.9065
  965MOL0     H33119   9.065   0.663   7.215  0.9791  3.1163  0.5114
  965MOL0     H33120   9.291   0.753   7.322  0.4291  1.9547 -0.5767
  965MOL0     H33121   9.305   0.780   7.503 -0.1052 -2.1143  0.0786
  965MOL0     H33122   9.256   0.997   7.353  0.0636  0.9787  1.0523
  965MOL0     H33123   9.096   0.926   7.312 -0.7327  1.5842  1.2814
  965MOL0     H33124   9.093   1.085   7.494 -0.2757 -0.1554  1.0480
  965MOL0     H33125   9.004   0.925   7.524  0.8487 -1.2838  0.7943
  965MOL0     H33126   9.113   1.004   7.731 -1.4106 -1.8680 -0.2331
  965MOL0     H33127   9.193   0.862   7.675  0.7807  0.5933  0.0557
  965MOL0     H33128   9.507   1.140   7.740  0.3146 -0.3002 -0.4806
  965MOL0     H33129   9.605   1.478   7.843 -0.4978 -2.0057  0.9321
  965MOL0     H33130   9.638   1.425   7.674  0.4435  0.2293 -1.0224
  965MOL0     H33131   9.661   1.315   7.819  0.6292  0.8528 -0.1601
  965MOL0     H33132   9.197   1.782   7.841 -0.7541  1.0009  0.9146
  965MOL0     H33133   9.099   1.999   7.847  0.9792  3.8403 -1.8551
  965MOL0     H33134   8.924   2.297   7.693 -1.3710  0.7902  1.0642
  965MOL0     H33135   8.930   2.149   7.802  0.6581  0.7560  0.8307
  965MOL0     H33136   9.155   2.223   7.889  2.0989  1.2991  0.7443
  965MOL0     H33137   9.145   2.362   7.780  0.4623 -0.3466 -0.5146
  965MOL0     H33138   8.942   2.285   7.990  0.7929  0.4827  2.0305
  965MOL0     H33139   8.935   2.436   7.896 -2.2934 -0.2893  0.4724
  965MOL0     H33140   9.134   2.505   7.969  1.1298 -0.6603 -0.2074
  965MOL0     H33141   9.176   2.367   8.077 -0.6953 -2.2018 -1.4516
  965MOL0     H33142   8.944   2.436   8.188 -0.2970 -0.4456  0.5601
  965MOL0     H33143   9.102   2.465   8.246  1.1264 -0.0102 -1.1368
  965MOL0     H33144   9.097   2.700   8.113  0.5990 -2.6704 -2.1819
  965MOL0     H33145   9.016   2.682   8.279  2.4269  1.5060 -0.7549
  965MOL0     H33146   8.811   2.624   8.131  3.2107 -3.0213 -1.6389
  965MOL0     H33147   8.913   2.706   8.006  5.1557  0.6955  1.2756
  965MOL0     H33148   8.750   2.865   8.093 -2.1843 -2.8135 -0.1016
  965MOL0     H33149   8.896   2.916   8.186 -1.8584  1.6379 -0.0879
  965MOL0     H33150   9.152   2.033   7.431 -0.4621 -0.5345 -0.1434
  965MOL0     H33151   9.252   1.825   7.414  0.2877  1.0315 -0.6964
  965MOL0     H33152   9.135   1.445   7.668 -1.0154  0.4536  1.4600
  965MOL0     H33153   9.107   1.215   7.643 -1.1697  2.6347 -1.1011
  965MOL0     H33154   8.216   1.234   6.747  3.3132 -2.4020  4.1211
  965MOL0     H33155   7.997   1.264   6.627 -4.6869 -1.3097 -2.0731
  965MOL0     H33156   7.428   1.311   6.852  1.9005 -3.7560  1.3015
  965MOL0     H33157   7.214   1.330   6.730 -0.9859 -2.1901 -0.6142
  965MOL0     H33158   7.160   1.318   6.264  0.7365 -1.7560 -0.6875
  965MOL0     H33159   7.245   1.172   6.304 -1.2139 -1.3266  0.3175
  965MOL0     H33160   7.050   1.093   6.428  1.8331 -2.5480 -3.3121
  965MOL0     H33161   7.030   1.110   6.258 -0.8054 -1.2046  0.1118
  965MOL0     H33162   6.905   1.316   6.441 -3.5846 -1.9528  0.4807
  965MOL0     H33163   6.909   1.302   6.257 -2.9540 -0.2099  0.1883
  965MOL0     H33164   6.837   1.051   6.417 -2.7521  0.1067  2.1011
  965MOL0     H33165   6.787   1.121   6.261  0.3517 -2.6062 -0.0243
  965MOL0     H33166   6.545   1.355   6.527  0.6596 -0.3491  0.4178
  965MOL0     H33167   7.430   1.256   6.366  0.6559 -4.0405  0.7293
  965MOL0     H33168   7.727   1.197   6.468  2.3807  1.5488 -2.2772
  965MOL0     H33169   7.652   1.321   6.358  0.4737  5.1467  1.0143
  965MOL0     H33170   7.744   1.372   6.494 -2.6388  1.3516  1.5462
  966MOL0     O33171   6.520   9.050   7.206 -0.2688 -0.2276 -0.6641
  966MOL0     C33172   6.478   8.964   7.280 -0.1872  0.2109 -0.2508
  966MOL0     O33173   6.557   8.856   7.328 -0.5862  0.4110  0.0445
  966MOL0     C33174   6.685   8.843   7.282 -0.3094  0.6780 -0.8238
  966MOL0     C33175   6.797   8.919   7.332 -0.1686 -0.1345  0.6328
  966MOL0     C33176   6.923   8.892   7.283 -0.7607  0.7288  0.3386
  966MOL0     C33177   6.955   8.793   7.191  0.0690  0.5367  0.8120
  966MOL0     O33178   7.081   8.778   7.143 -0.0042 -0.3117  0.1849
  966MOL0     C33179   7.081   8.704   7.019  0.2511 -0.9687 -0.5694
  966MOL0     C33180   7.115   8.556   7.024 -0.2916 -0.5006 -0.0131
  966MOL0     C33181   7.218   8.528   7.134 -0.7606 -0.4965  0.5133
  966MOL0     C33182   7.277   8.390   7.131  0.4464  0.2802  0.0293
  966MOL0     C33183   7.394   8.361   7.222  1.0938  0.4366  0.0935
  966MOL0     C33184   7.521   8.448   7.211 -0.1324 -0.3172 -0.4170
  966MOL0     C33185   7.645   8.384   7.282  0.2565  0.4389  2.0338
  966MOL0     C33186   7.768   8.470   7.269  0.2132 -0.2154 -0.2886
  966MOL0     N33187   7.780   8.576   7.381 -0.6827  0.1104 -0.0855
  966MOL0     C33188   7.798   8.561   7.522 -0.1504  1.7368 -0.0240
  966MOL0     C33189   7.802   8.685   7.572  0.2603 -0.7629  0.0577
  966MOL0     C33190   7.837   8.715   7.712 -0.0584 -0.1784  0.0497
  966MOL0     C33191   7.978   8.780   7.708 -0.1641  0.5343 -0.1335
  966MOL0     C33192   8.025   8.802   7.852 -0.2070 -0.1620  0.4730
  966MOL0     C33193   8.172   8.846   7.866 -0.0287  0.1776 -0.1636
  966MOL0     O33194   8.236   8.718   7.833 -1.0178 -0.3232 -0.0385
  966MOL0     C33195   8.370   8.694   7.854  0.6581 -0.8771 -0.4806
  966MOL0     C33196   8.475   8.794   7.867  0.2429  0.1892 -0.1739
  966MOL0     C33197   8.615   8.775   7.883  0.1291 -0.1175  0.2893
  966MOL0     C33198   8.707   8.899   7.875 -0.0775  0.4774 -0.2189
  966MOL0     C33199   8.655   8.640   7.896 -0.1330 -0.0221 -0.3104
  966MOL0     C33200   8.787   8.599   7.940 -0.4658  0.9598 -0.5289
  966MOL0     O33201   8.839   8.493   7.867  0.4321 -0.3198 -0.1681
  966MOL0     C33202   8.968   8.451   7.899  0.1713  0.1088  0.1274
  966MOL0     C33203   9.081   8.538   7.877  0.4219  0.5778  0.3264
  966MOL0     C33204   9.210   8.502   7.914 -0.0315  0.4009  1.0414
  966MOL0     C33205   9.234   8.370   7.955 -0.1348 -0.2266 -0.8687
  966MOL0     O33206   9.362   8.331   7.968  0.0548 -0.6697 -0.1129
  966MOL0     C33207   9.414   8.271   7.849 -0.0685 -0.1783  0.0029
  966MOL0     C33208   9.561   8.317   7.841  0.3259 -0.5154  0.3857
  966MOL0     C33209   9.602   8.320   7.695  0.3440  0.1023  0.8801
  966MOL0     C33210   9.753   8.300   7.680  0.3618  0.1655  0.8290
  966MOL0     C33211   9.779   8.314   7.533  0.6708 -0.6057 -0.7271
  966MOL0     C33212   9.927   8.280   7.501  0.5930  0.8527  0.1000
  966MOL0     C33213   9.950   8.306   7.359 -0.0840 -0.3928  0.5311
  966MOL0     C33214  10.013   8.200   7.287 -0.0204 -0.3332  0.5497
  966MOL0    Cl33215  10.185   8.163   7.326  0.2476  0.4136 -0.2561
  966MOL0     C33216   9.123   8.284   7.977  0.0558  0.6744  1.0245
  966MOL0     C33217   8.994   8.328   7.958 -0.7671  0.0097 -1.1642
  966MOL0     O33218   8.846   8.659   8.024 -0.7042  0.6974  0.1545
  966MOL0     C33219   8.551   8.537   7.888  0.6098 -0.4093 -0.1499
  966MOL0     C33220   8.415   8.564   7.874  0.0363 -0.6287 -0.8669
  966MOL0     N33221   7.781   8.768   7.463  0.1475 -0.0127  0.1176
  966MOL0     N33222   7.772   8.711   7.349 -0.3325  0.5846 -0.1726
  966MOL0     C33223   6.840   8.714   7.154 -0.7303 -0.4871  0.0917
  966MOL0     C33224   6.718   8.734   7.202  0.1997  0.2700  0.6322
  966MOL0     C33225   6.342   8.973   7.322  1.0748  0.6248 -0.2216
  966MOL0     C33226   6.253   8.867   7.284 -1.3578 -0.4490  0.0285
  966MOL0     C33227   6.122   8.873   7.331  0.8932 -0.5815  0.8210
  966MOL0     C33228   6.079   8.976   7.422 -0.1913  0.0621 -0.3415
  966MOL0     O33229   5.947   8.958   7.467  0.6283 -0.0087  0.3492
  966MOL0     C33230   5.903   9.017   7.595  0.4207  0.1726 -0.2767
  966MOL0     C33231   5.919   8.923   7.715 -0.1274 -1.0066  0.2517
  966MOL0     C33232   5.801   8.952   7.807  0.3668  0.5010 -0.5319
  966MOL0     C33233   5.835   8.904   7.948 -0.2777 -0.6358 -0.2780
  966MOL0     C33234   5.733   8.814   8.006  0.2014  0.4884  0.8737
  966MOL0     C33235   5.641   8.756   8.061 -0.3842 -0.3816 -0.4682
  966MOL0     C33236   6.172   9.077   7.462  0.6642  0.0722  0.6565
  966MOL0     C33237   6.299   9.086   7.401 -0.1067  1.2155  0.8907
  966MOL0     C33238   6.403   9.182   7.452 -0.7332 -0.8393 -0.0085
  966MOL0     H33239   6.784   9.007   7.393 -0.3288 -0.6145  1.3108
  966MOL0     H33240   7.001   8.960   7.315 -1.2076  1.1341  0.5738
  966MOL0     H33241   7.165   8.758   6.972 -0.3547  5.0292  3.9616
  966MOL0     H33242   6.997   8.730   6.955  0.8958  1.5081 -0.5302
  966MOL0     H33243   7.025   8.498   7.044  0.0540 -1.7568 -1.8809
  966MOL0     H33244   7.157   8.522   6.929  4.3217 -0.2517  1.6494
  966MOL0     H33245   7.307   8.591   7.129 -0.0146 -1.4207  1.6259
  966MOL0     H33246   7.164   8.540   7.229 -0.1285 -0.7629  0.9174
  966MOL0     H33247   7.199   8.315   7.148  0.3337 -0.3176 -2.7247
  966MOL0     H33248   7.315   8.375   7.030  2.2919  0.7005  0.6188
  966MOL0     H33249   7.432   8.260   7.202  0.3767 -0.1304  1.4785
  966MOL0     H33250   7.361   8.351   7.326 -0.6245  0.1114 -0.4446
  966MOL0     H33251   7.548   8.467   7.106 -2.8381 -0.9340 -1.2960
  966MOL0     H33252   7.506   8.543   7.263 -0.2234  0.0420 -1.0901
  966MOL0     H33253   7.658   8.283   7.244  0.2496  1.4067 -0.7152
  966MOL0     H33254   7.636   8.364   7.390  0.4169 -2.3060  1.6053
  966MOL0     H33255   7.864   8.418   7.283  1.9121  2.4533 -1.2771
  966MOL0     H33256   7.772   8.513   7.168  1.1629  1.5948  0.4698
  966MOL0     H33257   7.810   8.471   7.581 -0.1536  2.4315  1.0623
  966MOL0     H33258   7.839   8.624   7.774  2.3286 -1.7282 -2.1186
  966MOL0     H33259   7.763   8.786   7.750  0.9576  0.7551  0.3710
  966MOL0     H33260   8.054   8.709   7.676  0.2438  2.0220 -2.6961
  966MOL0     H33261   7.992   8.869   7.646  1.6220  1.1754  1.1201
  966MOL0     H33262   7.963   8.883   7.889  0.5074  0.9527 -0.6877
  966MOL0     H33263   8.016   8.705   7.904  4.3184 -2.6494 -2.6078
  966MOL0     H33264   8.200   8.927   7.798  2.6969  0.4064  1.1050
  966MOL0     H33265   8.210   8.880   7.963  1.9147 -0.1124 -0.7754
  966MOL0     H33266   8.437   8.895   7.858  0.1635  0.0906 -1.0741
  966MOL0     H33267   8.704   8.967   7.960  2.0660  0.3767  0.0019
  966MOL0     H33268   8.679   8.952   7.784  1.6462  2.2015  0.1933
  966MOL0     H33269   8.811   8.868   7.861 -1.0982 -3.0123 -1.0698
  966MOL0     H33270   9.058   8.633   7.832  1.5254 -0.1372 -1.9057
  966MOL0     H33271   9.284   8.580   7.904 -0.8165  0.8922 -1.5758
  966MOL0     H33272   9.415   8.162   7.848  1.7584 -0.2140 -1.4851
  966MOL0     H33273   9.370   8.311   7.758  1.3845  2.5174  0.3722
  966MOL0     H33274   9.586   8.406   7.898 -2.0534 -0.6198  1.7137
  966MOL0     H33275   9.615   8.237   7.892 -0.2379 -1.7486 -0.8732
  966MOL0     H33276   9.578   8.412   7.640  1.9311 -0.0509 -0.1559
  966MOL0     H33277   9.569   8.231   7.640  0.6762  1.5796 -1.9042
  966MOL0     H33278   9.780   8.198   7.709 -0.9167 -1.1623 -2.1966
  966MOL0     H33279   9.811   8.376   7.733 -1.1676  1.2901  0.9785
  966MOL0     H33280   9.711   8.254   7.470 -0.0211 -0.4445 -0.1494
  966MOL0     H33281   9.758   8.416   7.502  2.6490 -0.0253 -0.2328
  966MOL0     H33282   9.940   8.176   7.532 -1.9328  0.9197  1.6994
  966MOL0     H33283   9.999   8.348   7.548  0.3699 -1.2294  3.7941
  966MOL0     H33284  10.019   8.391   7.355  1.9564 -1.9292  1.0376
  966MOL0     H33285   9.858   8.337   7.309  1.4700  1.5292 -1.2928
  966MOL0     H33286  10.020   8.232   7.183  0.7668 -2.0173  0.0481
  966MOL0     H33287   9.951   8.110   7.281  1.4430 -1.2670 -2.6510
  966MOL0     H33288   9.119   8.183   8.017 -1.8944  1.2863  2.5868
  966MOL0     H33289   8.926   8.258   8.006  1.7005 -3.5324 -2.4093
  966MOL0     H33290   8.566   8.430   7.889 -1.9058 -0.8238  0.2788
  966MOL0     H33291   8.341   8.485   7.872  0.5986 -1.2841  1.5078
  966MOL0     H33292   6.853   8.623   7.097 -0.1001 -0.9493  0.9364
  966MOL0     H33293   6.637   8.669   7.170  0.6757 -0.2150  0.3901
  966MOL0     H33294   6.276   8.781   7.222 -2.4488 -0.1404 -0.8141
  966MOL0     H33295   6.049   8.803   7.293  0.1830 -0.0933  1.2812
  966MOL0     H33296   5.940   9.120   7.606 -2.6534  1.4442 -0.8675
  966MOL0     H33297   5.797   9.042   7.594  0.6542  1.2142 -0.1755
  966MOL0     H33298   6.010   8.957   7.765  0.5345  3.1936 -3.1237
  966MOL0     H33299   5.923   8.817   7.689  0.1040 -0.9284 -0.0465
  966MOL0     H33300   5.762   9.055   7.808 -2.4202 -0.3990 -2.6768
  966MOL0     H33301   5.715   8.900   7.763  1.5014  0.3275 -2.6344
  966MOL0     H33302   5.838   8.994   8.010 -0.1885  0.7955 -2.2845
  966MOL0     H33303   5.935   8.861   7.956 -0.5715 -1.8479 -2.3241
  966MOL0     H33304   5.562   8.704   8.111  0.7986 -1.6136  0.2003
  966MOL0     H33305   6.156   9.154   7.538 -0.8350 -1.2275  1.7250
  966MOL0     H33306   6.487   9.127   7.494 -0.9580 -3.1589 -2.3330
  966MOL0     H33307   6.441   9.243   7.369  0.9939 -2.1599 -0.2422
  966MOL0     H33308   6.366   9.250   7.529  2.1582 -1.9991  2.5855
  967MOL0     O33309   9.538   4.786   7.608  0.1816 -0.0543 -0.1389
  967MOL0     C33310   9.535   4.674   7.662 -0.3059 -0.0072 -0.1334
  967MOL0     O33311   9.632   4.579   7.668  0.4108  0.2603 -0.5833
  967MOL0     C33312   9.748   4.582   7.602  0.1245  0.8643  0.1957
  967MOL0     C33313   9.766   4.652   7.480  0.0982 -0.8506  0.0996
  967MOL0     C33314   9.882   4.625   7.395  0.9998  0.3151 -0.2792
  967MOL0     C33315   9.981   4.551   7.445  0.4623  0.3970 -0.0702
  967MOL0     O33316  10.075   4.527   7.358  0.6175  0.0236 -0.0880
  967MOL0     C33317  10.194   4.477   7.408  0.4695  0.0794 -0.2490
  967MOL0     C33318  10.314   4.506   7.326  0.2844 -0.4099  0.3723
  967MOL0     C33319  10.305   4.445   7.181  0.2054 -0.0444 -0.0827
  967MOL0     C33320  10.337   4.296   7.194 -1.2418  0.0033  0.3778
  967MOL0     C33321  10.481   4.256   7.165  0.3985 -0.8214  0.5437
  967MOL0     C33322  10.575   4.263   7.290  0.1130 -0.0058 -0.0327
  967MOL0     C33323  10.699   4.181   7.284  0.2847 -0.2575 -0.1987
  967MOL0     C33324  10.783   4.203   7.408 -0.4563 -0.3468  0.7062
  967MOL0     N33325  10.924   4.146   7.413 -0.2784 -0.1496 -0.4323
  967MOL0     C33326  10.982   4.032   7.486  1.1868 -0.6753  0.6892
  967MOL0     C33327  11.112   4.031   7.463 -0.2485 -0.2366  0.1302
  967MOL0     C33328  11.217   3.943   7.515 -0.7575 -0.0485 -0.0277
  967MOL0     C33329  11.254   3.979   7.662  0.0736  0.2847  0.0537
  967MOL0     C33330  11.387   3.917   7.707  0.7325 -0.1988  0.3477
  967MOL0     C33331  11.424   3.951   7.852  0.3977 -0.2397 -0.3917
  967MOL0     O33332  11.457   4.087   7.875 -0.0686  0.2541 -0.1650
  967MOL0     C33333  11.568   4.130   7.818 -0.6238  0.1278  0.8900
  967MOL0     C33334  11.570   4.191   7.690  0.4073 -0.2278  0.2421
  967MOL0     C33335  11.689   4.250   7.634  0.4960  0.5382  0.0995
  967MOL0     C33336  11.685   4.322   7.498  0.5887  0.0769  0.0607
  967MOL0     C33337  11.806   4.239   7.707  0.0274 -0.2434 -0.0623
  967MOL0     C33338  11.946   4.277   7.661  0.5246 -0.6236 -0.2199
  967MOL0     O33339  11.972   4.234   7.537 -0.4252 -0.2744  0.1798
  967MOL0     C33340  12.106   4.235   7.505  0.1168 -0.7150 -0.1970
  967MOL0     C33341  12.185   4.353   7.495 -0.8269  0.1081  1.2442
  967MOL0     C33342  12.314   4.353   7.459 -0.2057  0.5307  0.1795
  967MOL0     C33343  12.383   4.233   7.444 -0.3225  0.3471 -0.2792
  967MOL0     O33344  12.515   4.218   7.413  0.0207  0.4637 -0.8925
  967MOL0     C33345  12.598   4.329   7.385 -0.8323  0.1490 -0.0780
  967MOL0     C33346  12.734   4.304   7.426  0.5697  0.4567 -0.1496
  967MOL0     C33347  12.797   4.167   7.407 -0.3558  0.0025  0.2086
  967MOL0     C33348  12.919   4.140   7.494 -0.3806  0.3831  0.6742
  967MOL0     C33349  13.046   4.206   7.448 -0.1560  0.1765 -0.0893
  967MOL0     C33350  13.126   4.263   7.564 -0.1592  0.0735 -0.0066
  967MOL0     C33351  13.272   4.324   7.543  1.0786 -0.5740  0.2363
  967MOL0     C33352  13.260   4.446   7.453  0.6122 -0.0452  0.3255
  967MOL0    Cl33353  13.420   4.524   7.420 -0.0715  0.2481  0.0026
  967MOL0     C33354  12.304   4.117   7.443 -0.0869  0.0327 -0.4482
  967MOL0     C33355  12.166   4.115   7.462 -0.6722 -0.1742 -0.6826
  967MOL0     O33356  12.028   4.309   7.748 -0.1843  0.2890  0.2814
  967MOL0     C33357  11.795   4.183   7.834  0.3779  0.3218 -0.0725
  967MOL0     C33358  11.686   4.119   7.889  0.4492  0.2056  1.1269
  967MOL0     N33359  11.136   4.138   7.372  0.8564 -0.3986 -0.5762
  967MOL0     N33360  11.027   4.210   7.352  0.5500  0.3465  0.4610
  967MOL0     C33361   9.956   4.474   7.561 -0.2931 -0.1170  0.3901
  967MOL0     C33362   9.838   4.483   7.638 -0.9558 -0.3901  0.6429
  967MOL0     C33363   9.410   4.646   7.739  0.7955 -0.1009 -0.0387
  967MOL0     C33364   9.289   4.694   7.689 -0.2422  0.0353 -0.3390
  967MOL0     C33365   9.173   4.692   7.771  0.1816  0.1372  0.8214
  967MOL0     C33366   9.176   4.630   7.895  0.3232 -0.3746 -0.9095
  967MOL0     O33367   9.057   4.619   7.953 -0.1461 -0.7177 -0.1577
  967MOL0     C33368   9.036   4.716   8.061  1.4722  0.7164  0.2613
  967MOL0     C33369   8.906   4.798   8.052 -0.3890  0.3193  0.2183
  967MOL0     C33370   8.774   4.717   8.067  0.3338 -1.2610  0.4817
  967MOL0     C33371   8.649   4.802   8.094 -0.6533 -0.1387 -1.4424
  967MOL0     C33372   8.661   4.877   8.218  0.6999 -0.1028 -0.9066
  967MOL0     C33373   8.669   4.954   8.317 -0.2009 -0.0291  0.4733
  967MOL0     C33374   9.297   4.572   7.941  0.2780  0.4992  0.1625
  967MOL0     C33375   9.411   4.581   7.865 -0.4491  0.4251  0.5632
  967MOL0     C33376   9.539   4.523   7.933 -0.3359  0.6169 -0.2453
  967MOL0     H33377   9.695   4.713   7.425 -2.3629  0.9025  4.6716
  967MOL0     H33378   9.893   4.674   7.299 -1.3375  2.3305  0.3724
  967MOL0     H33379  10.188   4.368   7.420  0.4247 -0.3766 -3.4408
  967MOL0     H33380  10.219   4.521   7.505  2.1895 -0.4742 -0.4011
  967MOL0     H33381  10.337   4.613   7.317 -2.1595  0.5209  3.2747
  967MOL0     H33382  10.392   4.464   7.389 -0.8543  0.5710  2.5636
  967MOL0     H33383  10.201   4.471   7.161 -0.3832 -1.1341  1.3581
  967MOL0     H33384  10.369   4.495   7.108  1.5836  1.7053  2.1818
  967MOL0     H33385  10.301   4.260   7.291  0.5353 -1.5135  0.5282
  967MOL0     H33386  10.269   4.243   7.126 -2.2945 -1.0761  2.1744
  967MOL0     H33387  10.528   4.319   7.089 -1.7994  0.6280  0.2860
  967MOL0     H33388  10.482   4.157   7.117  2.3032  0.4619 -2.3680
  967MOL0     H33389  10.608   4.364   7.316 -2.9899  1.0715  0.1030
  967MOL0     H33390  10.513   4.249   7.379 -0.5333 -0.0357 -0.4810
  967MOL0     H33391  10.748   4.209   7.191  0.0822  1.3389  0.1485
  967MOL0     H33392  10.677   4.073   7.286 -0.2018 -0.1801 -1.1245
  967MOL0     H33393  10.807   4.310   7.417  3.8767 -1.0048 -0.4889
  967MOL0     H33394  10.736   4.170   7.500  0.4274  1.8213  2.0104
  967MOL0     H33395  10.925   3.961   7.546 -0.7928 -0.1573 -0.4618
  967MOL0     H33396  11.301   3.955   7.446  1.7142 -1.3446  2.5263
  967MOL0     H33397  11.197   3.836   7.499  2.5160 -0.2374 -5.2766
  967MOL0     H33398  11.262   4.087   7.678  2.8562 -0.0641  1.5880
  967MOL0     H33399  11.168   3.946   7.720  0.0891 -1.0087 -0.6103
  967MOL0     H33400  11.386   3.810   7.684 -1.0114  0.1217 -1.3671
  967MOL0     H33401  11.458   3.959   7.636  0.3265  0.6449  0.4289
  967MOL0     H33402  11.337   3.936   7.916  0.7169 -4.7152 -0.6859
  967MOL0     H33403  11.489   3.874   7.894  0.5006  0.5241  0.9324
  967MOL0     H33404  11.469   4.212   7.655 -0.0580 -0.4943  1.3522
  967MOL0     H33405  11.596   4.292   7.441 -1.2820  4.7013  0.1557
  967MOL0     H33406  11.777   4.306   7.442  3.1256  3.3469  2.8410
  967MOL0     H33407  11.656   4.427   7.507 -0.9470 -0.3634  0.7788
  967MOL0     H33408  12.129   4.446   7.508 -0.6414  0.5479 -0.7207
  967MOL0     H33409  12.360   4.449   7.438  0.6375 -0.2993 -2.0539
  967MOL0     H33410  12.598   4.365   7.282  2.8535  1.2263  0.1275
  967MOL0     H33411  12.566   4.414   7.446  0.4637  3.5586 -3.7009
  967MOL0     H33412  12.790   4.371   7.361  0.8426  1.4378  1.0513
  967MOL0     H33413  12.749   4.335   7.530  2.1985  0.3382 -0.3286
  967MOL0     H33414  12.821   4.166   7.300  0.5527  2.9515  0.2912
  967MOL0     H33415  12.721   4.094   7.435  1.3249 -1.8566  0.1181
  967MOL0     H33416  12.932   4.032   7.511 -0.7532  0.6279  2.8426
  967MOL0     H33417  12.892   4.163   7.598 -0.4489  0.3061  0.6742
  967MOL0     H33418  13.110   4.133   7.398 -2.4805 -0.6908 -1.9342
  967MOL0     H33419  13.023   4.291   7.383  3.4464  1.9112  0.6281
  967MOL0     H33420  13.146   4.172   7.621  0.3787  1.7221  2.6006
  967MOL0     H33421  13.064   4.333   7.622 -0.3623 -0.2840  0.2149
  967MOL0     H33422  13.352   4.254   7.516  1.7488 -0.3901  1.6403
  967MOL0     H33423  13.309   4.372   7.634  0.2861  0.2593  0.1251
  967MOL0     H33424  13.193   4.527   7.484  2.3554  0.7401  2.2196
  967MOL0     H33425  13.219   4.411   7.357  2.7944 -2.6891  0.2466
  967MOL0     H33426  12.346   4.017   7.431  0.7479  0.5875 -2.5469
  967MOL0     H33427  12.102   4.027   7.466  3.0023 -3.0802 -0.5037
  967MOL0     H33428  11.880   4.188   7.901  0.2971  0.4104  0.0226
  967MOL0     H33429  11.684   4.086   7.993 -3.0803  0.0031  1.1197
  967MOL0     H33430  10.024   4.393   7.585  1.0396  0.3153 -1.6604
  967MOL0     H33431   9.821   4.433   7.733  1.3418  0.5559  1.6520
  967MOL0     H33432   9.289   4.757   7.600 -0.0436  3.0217  1.6330
  967MOL0     H33433   9.086   4.738   7.725 -0.3589  0.3152  1.9806
  967MOL0     H33434   9.037   4.659   8.154  2.2224  2.0186  1.0739
  967MOL0     H33435   9.116   4.790   8.071  0.9244  1.2603  0.6920
  967MOL0     H33436   8.899   4.846   7.954 -1.9005  0.0106  0.1541
  967MOL0     H33437   8.908   4.876   8.130 -0.5665 -0.4511  1.0048
  967MOL0     H33438   8.763   4.659   7.975  0.2830  2.2914 -1.9418
  967MOL0     H33439   8.789   4.652   8.154 -0.8366 -0.8630  0.9964
  967MOL0     H33440   8.557   4.746   8.107 -1.8814  2.2675  1.3511
  967MOL0     H33441   8.624   4.868   8.010 -1.7908 -0.2907 -1.2402
  967MOL0     H33442   8.671   5.012   8.407  3.6365  0.8416  0.0105
  967MOL0     H33443   9.301   4.524   8.038  0.8672  0.5251  0.1521
  967MOL0     H33444   9.630   4.583   7.920  1.6866 -2.4853 -1.8587
  967MOL0     H33445   9.528   4.513   8.041 -1.9057 -0.3098 -0.4563
  967MOL0     H33446   9.566   4.421   7.902 -1.0729  0.9441 -2.1220
  968MOL0     O33447   1.212   9.858   6.477  0.7286 -0.1205 -0.0265
  968MOL0     C33448   1.126   9.904   6.552 -0.0643 -0.3709 -0.4368
  968MOL0     O33449   1.001   9.954   6.527  0.3355  0.1766  0.4292
  968MOL0     C33450   0.916   9.889   6.450 -0.1408  0.0394 -0.9150
  968MOL0     C33451   0.803   9.962   6.427 -1.0777  0.7174 -1.2384
  968MOL0     C33452   0.698   9.909   6.362  0.2836 -0.0532  0.8252
  968MOL0     C33453   0.697   9.771   6.323 -0.0121  0.0038  0.0465
  968MOL0     O33454   0.586   9.733   6.254  0.3854  0.1502  0.8780
  968MOL0     C33455   0.564   9.590   6.234 -0.5932  0.3623  1.0712
  968MOL0     C33456   0.497   9.515   6.351 -0.4961 -1.2015 -0.0937
  968MOL0     C33457   0.349   9.557   6.366 -0.2943 -0.1615  0.2938
  968MOL0     C33458   0.263   9.494   6.477 -0.1301  0.2725  0.3218
  968MOL0     C33459   0.117   9.540   6.473 -0.1746 -0.2774  0.1287
  968MOL0     C33460   0.025   9.452   6.560  0.7155 -0.3783 -0.0322
  968MOL0     C33461  -0.122   9.498   6.547 -0.4200  0.2215  0.4406
  968MOL0     C33462  -0.211   9.445   6.662  0.2357 -0.8136 -0.2252
  968MOL0     N33463  -0.233   9.300   6.649 -0.3457  0.5126  0.0797
  968MOL0     C33464  -0.359   9.246   6.618 -0.1088  0.9386  0.6255
  968MOL0     C33465  -0.338   9.110   6.602 -1.0733 -0.1279 -0.1388
  968MOL0     C33466  -0.439   8.997   6.562 -0.4094 -1.2734  0.1010
  968MOL0     C33467  -0.577   9.042   6.530 -0.1835 -0.6266 -0.0195
  968MOL0     C33468  -0.586   9.142   6.415 -0.2687 -0.3349 -0.1559
  968MOL0     C33469  -0.618   9.072   6.288  0.0894 -0.5657  1.4751
  968MOL0     O33470  -0.526   8.964   6.259 -0.0468 -0.2211 -0.9251
  968MOL0     C33471  -0.520   8.910   6.130  0.3030  0.1545 -0.4587
  968MOL0     C33472  -0.607   8.947   6.024 -0.3132  0.3811 -0.6448
  968MOL0     C33473  -0.587   8.891   5.894  0.5494  0.8327  0.5579
  968MOL0     C33474  -0.694   8.915   5.786 -0.1821  0.3820  0.2865
  968MOL0     C33475  -0.475   8.805   5.875 -0.1156 -0.2172  0.8443
  968MOL0     C33476  -0.440   8.739   5.741  0.1907 -0.4065  0.2691
  968MOL0     O33477  -0.316   8.676   5.744  0.3149 -0.4341 -0.1234
  968MOL0     C33478  -0.270   8.598   5.645  0.2976 -0.1524  0.0962
  968MOL0     C33479  -0.134   8.583   5.649 -0.2031  0.1580 -0.3085
  968MOL0     C33480  -0.071   8.486   5.572 -0.4548 -0.4300 -0.9590
  968MOL0     C33481  -0.142   8.409   5.484  1.3479 -0.8309 -0.9848
  968MOL0     O33482  -0.083   8.318   5.408  0.0164 -0.1905 -0.1184
  968MOL0     C33483   0.039   8.357   5.342 -0.2981 -0.4577 -0.7386
  968MOL0     C33484   0.069   8.265   5.226 -0.1370 -0.1539  0.2291
  968MOL0     C33485   0.118   8.123   5.261  0.1326 -0.5336 -0.4531
  968MOL0     C33486   0.081   8.023   5.148  0.0376  0.8127  0.1443
  968MOL0     C33487   0.144   7.884   5.176 -0.3961  0.1612 -0.1783
  968MOL0     C33488   0.063   7.791   5.265  0.0394  0.2487  1.0622
  968MOL0     C33489  -0.091   7.784   5.226 -0.6975  0.0695 -0.5091
  968MOL0     C33490  -0.145   7.655   5.281  0.1472 -0.5764  0.1910
  968MOL0    Cl33491  -0.122   7.635   5.451 -0.3386 -0.4097 -0.0111
  968MOL0     C33492  -0.285   8.426   5.482 -0.7399  0.6886 -0.1981
  968MOL0     C33493  -0.347   8.522   5.561 -0.8501 -0.1627 -0.1835
  968MOL0     O33494  -0.510   8.755   5.639 -0.3174  0.7635  0.4829
  968MOL0     C33495  -0.398   8.767   5.986 -0.3647 -0.3082 -0.5991
  968MOL0     C33496  -0.428   8.817   6.111 -0.5155 -0.9222  0.1459
  968MOL0     N33497  -0.214   9.089   6.642 -0.5642  0.1438  0.3873
  968MOL0     N33498  -0.148   9.196   6.672 -0.4558 -0.3639  0.4496
  968MOL0     C33499   0.816   9.697   6.340  0.7555  0.8135  0.4259
  968MOL0     C33500   0.919   9.753   6.408 -0.3693  0.1943  0.2819
  968MOL0     C33501   1.165   9.909   6.689  0.4184  0.3516  0.1314
  968MOL0     C33502   1.108   9.814   6.773  0.2300 -0.0708 -0.2390
  968MOL0     C33503   1.129   9.816   6.913  0.1624 -0.3377  0.0012
  968MOL0     C33504   1.217   9.909   6.965 -1.2892  0.0862 -0.1776
  968MOL0     O33505   1.251   9.926   7.095 -0.6596 -0.1404  0.1731
  968MOL0     C33506   1.344   9.824   7.137  0.0169  0.4203  0.1028
  968MOL0     C33507   1.278   9.701   7.202  0.0165 -0.0195 -0.0264
  968MOL0     C33508   1.378   9.579   7.210  0.5019 -0.8752 -0.0635
  968MOL0     C33509   1.324   9.449   7.269 -0.4549  0.4005 -0.6826
  968MOL0     C33510   1.421   9.342   7.275  0.1052  0.5632 -0.1748
  968MOL0     C33511   1.512   9.256   7.265 -0.6713  0.7220 -0.2464
  968MOL0     C33512   1.274  10.004   6.879  0.4232 -0.8527 -0.5567
  968MOL0     C33513   1.251  10.008   6.743  0.0970  1.0477  0.3250
  968MOL0     C33514   1.303  10.117   6.649  0.5437  0.1659  0.1726
  968MOL0     H33515   0.787  10.059   6.471 -2.7817 -0.5363  1.0969
  968MOL0     H33516   0.614   9.976   6.351 -0.5669 -1.1764  0.1849
  968MOL0     H33517   0.660   9.546   6.204 -1.5601 -0.6159 -0.8250
  968MOL0     H33518   0.494   9.562   6.154  0.0957  1.2591  0.1380
  968MOL0     H33519   0.486   9.408   6.332 -0.2327 -1.0450 -1.1938
  968MOL0     H33520   0.541   9.534   6.449 -1.0375 -1.1898  0.1451
  968MOL0     H33521   0.341   9.663   6.390 -0.8626 -0.5971  2.2193
  968MOL0     H33522   0.294   9.542   6.272  1.9171 -2.7005 -0.7238
  968MOL0     H33523   0.250   9.388   6.450 -1.3646  0.5160 -0.0921
  968MOL0     H33524   0.298   9.494   6.581 -1.7796  2.8841  0.9630
  968MOL0     H33525   0.090   9.525   6.368 -0.1016  2.0567 -0.2851
  968MOL0     H33526   0.107   9.648   6.490 -0.1436  0.0398 -1.6943
  968MOL0     H33527   0.014   9.348   6.527 -1.3709  0.2400 -1.5066
  968MOL0     H33528   0.047   9.455   6.667  0.3547 -0.5917  0.0493
  968MOL0     H33529  -0.157   9.472   6.446  2.6484 -0.5834 -0.5091
  968MOL0     H33530  -0.129   9.607   6.548 -1.9140  0.2222 -1.7015
  968MOL0     H33531  -0.168   9.469   6.759  0.9598  3.1452 -1.3240
  968MOL0     H33532  -0.305   9.502   6.654  0.8364  0.4887  1.4606
  968MOL0     H33533  -0.449   9.303   6.595  0.8163  1.8450 -0.8754
  968MOL0     H33534  -0.437   8.925   6.644 -0.3670 -2.1475 -0.6564
  968MOL0     H33535  -0.417   8.941   6.471 -3.7420  0.1832 -1.7968
  968MOL0     H33536  -0.649   8.963   6.509  0.4117 -0.8081 -1.5267
  968MOL0     H33537  -0.617   9.092   6.618 -0.9834 -0.2176 -0.5983
  968MOL0     H33538  -0.658   9.224   6.417  0.2316  0.1688 -1.5558
  968MOL0     H33539  -0.492   9.195   6.402 -1.1697  1.8903  1.7202
  968MOL0     H33540  -0.720   9.033   6.294 -0.4507  0.6231  0.5295
  968MOL0     H33541  -0.612   9.140   6.202 -0.0374 -1.6149  0.6039
  968MOL0     H33542  -0.696   9.002   6.053  0.4889  0.0920  2.8019
  968MOL0     H33543  -0.647   8.947   5.692  1.7916  0.5622  1.2851
  968MOL0     H33544  -0.770   8.990   5.810 -1.0943 -0.7627  1.1006
  968MOL0     H33545  -0.749   8.821   5.770  0.5278 -0.2647  1.4997
  968MOL0     H33546  -0.079   8.648   5.717 -0.6031  4.2605 -3.5337
  968MOL0     H33547   0.034   8.466   5.588 -0.3045  1.8401  1.6793
  968MOL0     H33548   0.035   8.455   5.293 -0.6706 -0.5560 -0.9095
  968MOL0     H33549   0.117   8.361   5.418  0.9812  1.0637 -2.0615
  968MOL0     H33550  -0.022   8.267   5.166 -1.5223  0.7876  2.2415
  968MOL0     H33551   0.148   8.311   5.166 -0.7214  1.6537  0.7649
  968MOL0     H33552   0.084   8.096   5.362  0.0805  2.6531  0.4939
  968MOL0     H33553   0.226   8.132   5.272  0.2254  1.2491 -2.3445
  968MOL0     H33554   0.126   8.057   5.054 -0.6901 -0.2989 -0.6288
  968MOL0     H33555  -0.028   8.015   5.151  0.0630  0.3976  3.0966
  968MOL0     H33556   0.143   7.835   5.078  1.7030 -0.6496  0.1733
  968MOL0     H33557   0.244   7.898   5.216 -0.1543  3.4215 -1.5723
  968MOL0     H33558   0.073   7.816   5.371 -0.9243 -1.2653  1.5502
  968MOL0     H33559   0.100   7.689   5.248  0.2086  0.4093  0.4350
  968MOL0     H33560  -0.102   7.778   5.118  1.3696  0.4352 -0.7842
  968MOL0     H33561  -0.157   7.860   5.269 -2.2707  0.1622 -2.9076
  968MOL0     H33562  -0.108   7.574   5.218 -0.6658 -0.5531 -0.3335
  968MOL0     H33563  -0.254   7.661   5.268  0.2289  0.4680 -0.0564
  968MOL0     H33564  -0.347   8.373   5.410 -0.0788 -1.1220  0.5222
  968MOL0     H33565  -0.455   8.525   5.561 -0.8260  1.0974 -0.4758
  968MOL0     H33566  -0.319   8.694   5.973 -1.2157 -2.0405  2.8887
  968MOL0     H33567  -0.353   8.792   6.184  1.3346 -0.6000 -1.5628
  968MOL0     H33568   0.827   9.590   6.325 -2.0404  0.4025  0.7723
  968MOL0     H33569   1.008   9.692   6.415 -0.0752  0.2471 -2.1545
  968MOL0     H33570   1.037   9.744   6.730 -1.2670  1.2889 -0.0875
  968MOL0     H33571   1.075   9.758   6.987 -5.1542  4.1822  0.2939
  968MOL0     H33572   1.411   9.797   7.055 -0.1382 -2.2648  0.7802
  968MOL0     H33573   1.406   9.869   7.215  1.0680  0.8657 -0.9664
  968MOL0     H33574   1.193   9.674   7.139  0.5970  0.9446 -1.2861
  968MOL0     H33575   1.249   9.720   7.306  1.7015  0.0185  0.4679
  968MOL0     H33576   1.426   9.551   7.115  2.0961 -2.6265  1.1915
  968MOL0     H33577   1.455   9.614   7.279 -0.6524 -1.2637  1.4637
  968MOL0     H33578   1.239   9.415   7.209 -1.7367 -3.7610  2.8779
  968MOL0     H33579   1.288   9.458   7.372 -0.9437  1.9586 -0.9707
  968MOL0     H33580   1.592   9.185   7.265 -2.4741 -1.4373 -2.1140
  968MOL0     H33581   1.324  10.092   6.919 -2.2045  0.1839  0.6928
  968MOL0     H33582   1.389  10.081   6.592  0.4278 -2.9680  1.7528
  968MOL0     H33583   1.227  10.159   6.582  2.0917 -2.0031 -3.2466
  968MOL0     H33584   1.336  10.209   6.697 -3.7563  0.6341  2.7686
  969MOL0     O33585  10.948   2.773   3.076  0.6096  0.1594 -0.2882
  969MOL0     C33586  11.007   2.794   3.188 -0.0555  0.5786  0.3079
  969MOL0     O33587  11.058   2.703   3.264 -0.4250  0.1740  0.4339
  969MOL0     C33588  11.015   2.577   3.245 -1.2583  0.2882 -1.2177
  969MOL0     C33589  10.887   2.530   3.293  1.1537 -0.6069 -1.0251
  969MOL0     C33590  10.858   2.386   3.301  0.0903  0.0979  0.1466
  969MOL0     C33591  10.957   2.294   3.257  0.3931  1.2869 -0.7380
  969MOL0     O33592  10.932   2.156   3.229 -0.1158 -0.1574 -0.5100
  969MOL0     C33593  10.809   2.090   3.210  0.1663  0.0572  0.0288
  969MOL0     C33594  10.832   1.940   3.185 -0.2186  0.1140  0.2165
  969MOL0     C33595  10.934   1.871   3.278 -0.4020 -0.0493  0.4626
  969MOL0     C33596  10.970   1.729   3.223 -0.0944 -0.0981  0.5647
  969MOL0     C33597  11.069   1.725   3.108  0.0171 -0.3426  1.3561
  969MOL0     C33598  11.165   1.609   3.100  0.1012  0.0425  0.3105
  969MOL0     C33599  11.091   1.482   3.088  0.1617 -0.1482 -0.1909
  969MOL0     C33600  11.188   1.369   3.128  0.1533 -0.5500 -0.5202
  969MOL0     N33601  11.121   1.237   3.152 -0.3819  0.6937  0.2591
  969MOL0     C33602  11.056   1.165   3.063 -0.4519 -0.4369  0.5790
  969MOL0     C33603  11.002   1.059   3.132  0.2681 -0.4319  1.0151
  969MOL0     C33604  10.931   0.937   3.075 -0.2938  0.3848  0.3036
  969MOL0     C33605  11.031   0.829   3.047 -0.2409  0.0230 -0.2968
  969MOL0     C33606  11.043   0.726   3.160  0.0329 -0.5696  0.1528
  969MOL0     C33607  11.105   0.591   3.108  0.5238 -0.1430 -0.9510
  969MOL0     O33608  11.122   0.505   3.225  0.1745 -0.1422 -0.0088
  969MOL0     C33609  11.114   0.377   3.207  0.8508 -0.0798  0.5726
  969MOL0     C33610  11.119   0.305   3.329 -0.7044  0.0842 -0.0478
  969MOL0     C33611  11.105   0.164   3.338 -0.3700  1.1648  0.2397
  969MOL0     C33612  11.097   0.096   3.476  0.3058 -0.3867  0.7999
  969MOL0     C33613  11.068   0.095   3.225 -0.3366 -0.9232 -0.0209
  969MOL0     C33614  11.045  -0.047   3.220  0.3134 -0.5281 -0.2401
  969MOL0     O33615  11.154  -0.111   3.255 -0.3009 -0.3139  0.3210
  969MOL0     C33616  11.150  -0.250   3.260  0.2622  1.3491 -0.3650
  969MOL0     C33617  11.054  -0.307   3.347  0.0649 -0.2180  0.0518
  969MOL0     C33618  11.047  -0.450   3.367  0.8538 -0.6329  0.3704
  969MOL0     C33619  11.131  -0.531   3.294 -0.2369 -0.7826  0.2471
  969MOL0     O33620  11.121  -0.667   3.305 -0.1963 -0.5967  0.3161
  969MOL0     C33621  11.101  -0.743   3.183  0.4940  1.0887 -0.8730
  969MOL0     C33622  11.152  -0.894   3.200  0.4021  0.2875 -0.2675
  969MOL0     C33623  11.050  -0.980   3.268  0.5464  0.6255  0.1457
  969MOL0     C33624  11.095  -1.120   3.278  0.2561 -0.1738 -0.8728
  969MOL0     C33625  11.004  -1.225   3.355  0.4413  0.0456 -1.1173
  969MOL0     C33626  11.054  -1.365   3.375  0.3770  0.0257 -0.2421
  969MOL0     C33627  11.184  -1.360   3.443  0.1282  0.0916 -0.5092
  969MOL0     C33628  11.248  -1.512   3.457  0.8454  0.2814 -0.5319
  969MOL0    Cl33629  11.316  -1.574   3.301 -0.2032 -0.2453 -0.1460
  969MOL0     C33630  11.215  -0.478   3.196 -0.1500 -0.6090  0.0935
  969MOL0     C33631  11.227  -0.337   3.182 -0.6614  0.0270  0.6494
  969MOL0     O33632  10.946  -0.087   3.166  0.0862  0.0758 -0.3083
  969MOL0     C33633  11.074   0.159   3.098 -0.1199  0.4621 -0.5069
  969MOL0     C33634  11.099   0.298   3.091 -0.2286 -0.8417  0.2923
  969MOL0     N33635  11.039   1.067   3.266 -0.7754  0.1702  0.6872
  969MOL0     N33636  11.118   1.170   3.274  0.0086  0.7908 -0.3653
  969MOL0     C33637  11.075   2.343   3.207  0.0892 -0.8130 -0.0920
  969MOL0     C33638  11.117   2.481   3.212  0.6616 -0.1808  0.1265
  969MOL0     C33639  11.043   2.936   3.217  0.4116  0.0257 -0.4076
  969MOL0     C33640  11.137   2.965   3.322  0.3702  0.5836  0.6855
  969MOL0     C33641  11.186   3.096   3.337  0.1568  0.4773 -0.4002
  969MOL0     C33642  11.135   3.202   3.265  0.0189  0.3939 -0.6099
  969MOL0     O33643  11.169   3.330   3.288 -0.5555 -0.2105  0.7272
  969MOL0     C33644  11.259   3.370   3.391  1.0807 -0.4863  0.7292
  969MOL0     C33645  11.404   3.350   3.354 -0.8577 -1.2192  0.7131
  969MOL0     C33646  11.464   3.449   3.251  0.2439  0.4615 -0.0786
  969MOL0     C33647  11.460   3.590   3.309  0.1849 -0.4364 -0.8886
  969MOL0     C33648  11.541   3.685   3.233  0.0888  0.1416 -0.2607
  969MOL0     C33649  11.595   3.770   3.171 -0.3680 -0.5577  0.5604
  969MOL0     C33650  11.038   3.169   3.174 -0.3038 -0.9174  0.0117
  969MOL0     C33651  10.980   3.042   3.152 -0.7060 -0.7853 -1.4868
  969MOL0     C33652  10.856   3.031   3.060 -0.0997  0.3988 -0.9793
  969MOL0     H33653  10.814   2.604   3.322  0.6948 -0.1601 -3.1531
  969MOL0     H33654  10.755   2.360   3.322 -0.6570  1.6905 -1.2199
  969MOL0     H33655  10.751   2.135   3.129 -0.2302  1.3950  1.0178
  969MOL0     H33656  10.753   2.104   3.303 -3.9941  0.7269 -2.3267
  969MOL0     H33657  10.738   1.885   3.192 -0.1885  0.1673  1.0922
  969MOL0     H33658  10.862   1.949   3.080 -2.9666  3.2813 -0.4887
  969MOL0     H33659  11.023   1.936   3.282  0.4354 -1.1964  2.9142
  969MOL0     H33660  10.907   1.866   3.384  1.8358  1.9824  1.2545
  969MOL0     H33661  11.010   1.670   3.305  2.8728  1.2148  0.1855
  969MOL0     H33662  10.882   1.683   3.176  1.5899  1.9278 -5.5155
  969MOL0     H33663  11.127   1.817   3.115  0.7361 -0.8076  1.6059
  969MOL0     H33664  11.014   1.741   3.015  2.5734  4.2214  0.2997
  969MOL0     H33665  11.225   1.620   3.009  0.6441 -0.8960  0.5435
  969MOL0     H33666  11.239   1.612   3.180  1.6030 -0.8602 -0.9828
  969MOL0     H33667  11.050   1.465   2.988 -2.8702  0.4157  0.8423
  969MOL0     H33668  11.003   1.478   3.153  3.0956 -3.4435  4.1341
  969MOL0     H33669  11.264   1.350   3.052  2.1861  0.8190  1.0426
  969MOL0     H33670  11.247   1.404   3.214  1.0016  1.0339 -1.6995
  969MOL0     H33671  11.054   1.193   2.958  3.2095  0.7585  0.7009
  969MOL0     H33672  10.890   0.971   2.979  0.5152  2.0097  0.4852
  969MOL0     H33673  10.852   0.907   3.144 -0.1661 -0.1979  0.2012
  969MOL0     H33674  10.989   0.781   2.958 -3.3125  1.7214  0.0937
  969MOL0     H33675  11.128   0.869   3.016  0.1993 -0.7988 -0.0220
  969MOL0     H33676  11.098   0.774   3.241 -0.0474 -0.9862  0.4618
  969MOL0     H33677  10.943   0.708   3.201  0.4308 -2.0036  0.5503
  969MOL0     H33678  11.036   0.559   3.030 -1.4006 -0.2599  0.7285
  969MOL0     H33679  11.202   0.611   3.061  1.1477 -3.1673 -1.1093
  969MOL0     H33680  11.146   0.355   3.422 -1.6726 -3.9720  2.6667
  969MOL0     H33681  11.151   0.000   3.473 -0.0381 -0.6779  2.6651
  969MOL0     H33682  10.995   0.063   3.497 -0.4170  0.4191 -1.2257
  969MOL0     H33683  11.139   0.163   3.552 -0.2612  0.8717  0.0280
  969MOL0     H33684  11.005  -0.241   3.419  1.6284  1.2697 -0.1614
  969MOL0     H33685  10.967  -0.488   3.430  1.0086  1.4782  1.9459
  969MOL0     H33686  10.993  -0.730   3.166  0.7243  0.8325 -2.6814
  969MOL0     H33687  11.149  -0.698   3.096  2.3912  1.5013  0.3143
  969MOL0     H33688  11.167  -0.927   3.097  0.9738 -0.6845  0.1161
  969MOL0     H33689  11.250  -0.901   3.248 -0.7999 -1.7452  2.1271
  969MOL0     H33690  10.966  -0.978   3.197  2.3354 -0.6042 -2.1526
  969MOL0     H33691  11.016  -0.937   3.363  2.3996 -0.0013  1.1247
  969MOL0     H33692  11.190  -1.118   3.331  0.0304  3.2761 -0.4104
  969MOL0     H33693  11.125  -1.156   3.179 -0.4285  2.2222 -2.0157
  969MOL0     H33694  10.987  -1.187   3.456  2.2655  2.1718 -1.5503
  969MOL0     H33695  10.906  -1.234   3.307  0.0390  1.7184 -0.6600
  969MOL0     H33696  11.063  -1.406   3.274 -1.3236  3.8736 -2.2014
  969MOL0     H33697  10.978  -1.424   3.427 -0.0900  0.0767 -0.8606
  969MOL0     H33698  11.173  -1.319   3.544  0.5682 -2.8098  0.8367
  969MOL0     H33699  11.255  -1.306   3.380 -1.5232  0.4572 -2.1228
  969MOL0     H33700  11.169  -1.577   3.496  1.8818 -1.1503 -0.7448
  969MOL0     H33701  11.329  -1.511   3.531 -1.4572  1.1179  2.1637
  969MOL0     H33702  11.286  -0.533   3.135  2.1801  1.7230  0.5269
  969MOL0     H33703  11.306  -0.292   3.123  0.7544 -0.0015  2.4430
  969MOL0     H33704  11.044   0.106   3.008  0.2616 -0.3408 -0.1737
  969MOL0     H33705  11.096   0.340   2.991 -0.2509  0.9231  0.9783
  969MOL0     H33706  11.144   2.264   3.179 -0.5916 -1.2432 -0.6147
  969MOL0     H33707  11.210   2.521   3.172 -0.2763  0.7311 -1.2682
  969MOL0     H33708  11.177   2.875   3.366  0.1238 -0.1667 -0.5859
  969MOL0     H33709  11.263   3.113   3.412 -2.0281  4.0103  1.3089
  969MOL0     H33710  11.238   3.478   3.392  1.3974 -0.3418 -1.8833
  969MOL0     H33711  11.237   3.325   3.488  0.4284 -2.7305 -0.4042
  969MOL0     H33712  11.413   3.249   3.312 -3.7498 -1.6940  1.0192
  969MOL0     H33713  11.464   3.358   3.445  0.4435 -0.0450 -0.2242
  969MOL0     H33714  11.568   3.420   3.233  1.3391  3.0313  1.5308
  969MOL0     H33715  11.408   3.455   3.158  1.5515  0.5402 -0.8900
  969MOL0     H33716  11.504   3.597   3.408 -1.1889  0.0265 -0.2875
  969MOL0     H33717  11.358   3.629   3.312  0.7649  1.2318 -1.8412
  969MOL0     H33718  11.646   3.843   3.110  1.3865 -2.8047 -0.8146
  969MOL0     H33719  10.999   3.248   3.111  0.7275 -1.2837 -1.1038
  969MOL0     H33720  10.877   2.982   2.964 -2.2527  1.1115 -1.8851
  969MOL0     H33721  10.772   2.971   3.094 -0.0207 -0.2655 -1.9166
  969MOL0     H33722  10.815   3.128   3.029 -2.6238  0.4037  1.9739
  970MOL0     O33723   5.689   8.609  10.578 -0.0650 -0.0306  0.1581
  970MOL0     C33724   5.767   8.645  10.492  0.3069  0.4796  0.6632
  970MOL0     O33725   5.899   8.649  10.504  0.7490  0.9458 -0.4396
  970MOL0     C33726   5.956   8.570  10.590  0.4865 -0.5660  0.6731
  970MOL0     C33727   5.986   8.439  10.564  0.9720  0.4043  1.2880
  970MOL0     C33728   6.027   8.361  10.663 -0.8055 -0.6233 -0.1082
  970MOL0     C33729   6.049   8.413  10.796 -0.7992 -0.3155 -0.0028
  970MOL0     O33730   6.103   8.331  10.895  0.6710  0.6503  0.4714
  970MOL0     C33731   6.170   8.210  10.852  0.0727  0.7539  0.2201
  970MOL0     C33732   6.076   8.087  10.846  0.1871 -0.8627  0.0501
  970MOL0     C33733   5.985   8.094  10.966  1.2927 -0.4146 -0.0725
  970MOL0     C33734   5.886   7.977  10.951  0.3076 -0.4576  0.0318
  970MOL0     C33735   5.783   7.980  11.064  0.4469 -1.0041  1.4859
  970MOL0     C33736   5.676   7.867  11.049 -0.0471  0.0011 -0.3254
  970MOL0     C33737   5.609   7.849  10.916  0.3533  1.0304 -0.9856
  970MOL0     C33738   5.507   7.733  10.895 -0.3591 -0.1883  0.1398
  970MOL0     N33739   5.385   7.736  10.980 -0.2938 -0.0305  0.7521
  970MOL0     C33740   5.300   7.632  11.007 -0.2815 -0.3604 -0.1806
  970MOL0     C33741   5.189   7.687  11.046  0.6241  1.0987 -1.0940
  970MOL0     C33742   5.066   7.617  11.089  0.5430  0.8392 -0.1680
  970MOL0     C33743   5.057   7.627  11.242 -0.0188 -0.5602 -0.2317
  970MOL0     C33744   4.976   7.519  11.320 -0.4543  0.5181  0.3685
  970MOL0     C33745   5.045   7.383  11.319 -0.5591 -0.0006  0.6615
  970MOL0     O33746   5.046   7.310  11.197  0.1253 -0.8722  0.2938
  970MOL0     C33747   5.109   7.194  11.197  0.3514 -0.2906  0.9325
  970MOL0     C33748   5.126   7.143  11.066 -0.4559 -0.0890 -0.1766
  970MOL0     C33749   5.194   7.024  11.045 -0.3498  0.8761  0.5412
  970MOL0     C33750   5.207   6.978  10.902 -1.6392  0.4794  0.2459
  970MOL0     C33751   5.244   6.940  11.161  0.9309 -0.8601  0.9728
  970MOL0     C33752   5.332   6.831  11.137 -0.9152  0.5964 -0.7860
  970MOL0     O33753   5.285   6.712  11.196 -0.7646 -0.6424 -0.3234
  970MOL0     C33754   5.369   6.613  11.236  0.0670  0.8934  0.7480
  970MOL0     C33755   5.309   6.490  11.266  0.8908  0.7801  0.7076
  970MOL0     C33756   5.383   6.375  11.298  0.8906 -0.2865  0.0061
  970MOL0     C33757   5.522   6.380  11.303 -0.1533 -0.3746  0.0735
  970MOL0     O33758   5.599   6.270  11.344 -0.9680 -0.5309  0.5466
  970MOL0     C33759   5.525   6.164  11.413  0.0726  0.0290 -0.2337
  970MOL0     C33760   5.520   6.195  11.560  0.5297 -0.3228 -1.3413
  970MOL0     C33761   5.496   6.058  11.637  0.9478 -0.2631 -0.0099
  970MOL0     C33762   5.354   6.006  11.613  0.1930  0.6667 -0.6871
  970MOL0     C33763   5.351   5.860  11.664  0.3681  0.5961  0.1342
  970MOL0     C33764   5.204   5.809  11.672 -0.1933  0.2419  0.2951
  970MOL0     C33765   5.198   5.687  11.760 -0.3299 -0.0389 -0.4646
  970MOL0     C33766   5.052   5.634  11.790  0.0470 -0.1755  0.2496
  970MOL0    Cl33767   4.945   5.766  11.854  0.2870 -0.3053  0.1796
  970MOL0     C33768   5.583   6.506  11.278 -0.6690  0.4801  0.0709
  970MOL0     C33769   5.512   6.619  11.240  0.7878 -0.4201 -0.1622
  970MOL0     O33770   5.422   6.846  11.059  0.3324  0.1011  0.1528
  970MOL0     C33771   5.222   6.994  11.290 -0.2913 -0.1347  0.8175
  970MOL0     C33772   5.156   7.116  11.305 -0.3299 -0.0331  0.4826
  970MOL0     N33773   5.205   7.825  11.047 -0.3432 -0.1302 -0.4834
  970MOL0     N33774   5.327   7.857  11.010 -0.3251  1.0677 -0.4692
  970MOL0     C33775   6.024   8.544  10.817  0.6764 -0.2417  0.2583
  970MOL0     C33776   5.987   8.631  10.709 -0.1177  0.2009 -0.6237
  970MOL0     C33777   5.711   8.688  10.359  0.4750 -0.2171 -0.1680
  970MOL0     C33778   5.804   8.742  10.261  0.2004 -0.4942 -0.3591
  970MOL0     C33779   5.765   8.764  10.126  0.2723 -0.1482  0.2329
  970MOL0     C33780   5.627   8.739  10.086 -0.7625 -0.4061 -0.3174
  970MOL0     O33781   5.584   8.757   9.953 -0.3039 -0.4601 -0.0108
  970MOL0     C33782   5.614   8.889   9.885 -0.0936 -0.1515 -0.0037
  970MOL0     C33783   5.506   8.991   9.935 -0.6759  0.5288  0.3415
  970MOL0     C33784   5.358   8.958   9.885  0.0290 -0.9280 -0.7373
  970MOL0     C33785   5.257   9.037   9.981 -1.0993  0.5049  0.2078
  970MOL0     C33786   5.278   9.178   9.958  0.3090  0.3877  0.1075
  970MOL0     C33787   5.299   9.291   9.944  0.5046  0.2825  0.3744
  970MOL0     C33788   5.540   8.698  10.182  0.2550  0.0126  0.2008
  970MOL0     C33789   5.573   8.676  10.314 -0.6511  0.2109 -0.3937
  970MOL0     C33790   5.465   8.637  10.402  0.1702 -0.2304  0.0573
  970MOL0     H33791   5.976   8.397  10.464  2.6369  0.2739  1.1564
  970MOL0     H33792   6.047   8.259  10.632  1.3740  0.2512 -1.7976
  970MOL0     H33793   6.251   8.186  10.921  0.9274  1.3354 -0.5548
  970MOL0     H33794   6.221   8.217  10.755  1.3064 -0.3835  0.7502
  970MOL0     H33795   6.011   8.098  10.759  3.1799  1.3228 -2.0992
  970MOL0     H33796   6.135   7.996  10.851  0.6831 -0.5597  4.9031
  970MOL0     H33797   6.042   8.084  11.059  0.2415  1.1209  0.7785
  970MOL0     H33798   5.918   8.180  10.974 -2.4956 -2.7548 -3.1315
  970MOL0     H33799   5.843   7.996  10.853  2.0930 -0.9460 -0.8850
  970MOL0     H33800   5.954   7.893  10.966  3.9043  2.2316  0.1289
  970MOL0     H33801   5.740   8.080  11.074  0.4557 -0.7502 -0.6088
  970MOL0     H33802   5.841   7.964  11.156  1.8291 -1.2221  0.6110
  970MOL0     H33803   5.726   7.772  11.070 -2.9542 -0.8737  3.8392
  970MOL0     H33804   5.600   7.868  11.127  0.6694 -3.9741  0.6394
  970MOL0     H33805   5.693   7.832  10.848  1.8829  1.5088  0.6934
  970MOL0     H33806   5.548   7.933  10.882 -1.5310  0.1866  0.1594
  970MOL0     H33807   5.488   7.735  10.788  3.8815 -2.7650 -0.8968
  970MOL0     H33808   5.561   7.639  10.912  0.8197  0.9575  3.8512
  970MOL0     H33809   5.307   7.525  10.989 -1.0913 -0.5917  0.8279
  970MOL0     H33810   5.061   7.509  11.069  2.1144  0.3392  1.8553
  970MOL0     H33811   4.982   7.665  11.038  2.0836  4.3790  0.3397
  970MOL0     H33812   5.156   7.619  11.288 -0.1462  1.0984  0.4046
  970MOL0     H33813   5.032   7.730  11.268  0.0827 -0.6888  0.4099
  970MOL0     H33814   4.980   7.567  11.418  1.8547  0.3105  0.4133
  970MOL0     H33815   4.872   7.505  11.288 -0.5630  0.5232  0.7219
  970MOL0     H33816   5.149   7.390  11.351 -0.0791 -0.7991 -0.6139
  970MOL0     H33817   4.985   7.317  11.382  1.5693 -0.9544  1.7928
  970MOL0     H33818   5.105   7.190  10.971 -1.3613 -0.4376 -0.1509
  970MOL0     H33819   5.127   7.030  10.849 -1.7952  3.0715  2.7577
  970MOL0     H33820   5.189   6.870  10.894  0.8787  0.1773 -4.5775
  970MOL0     H33821   5.310   6.997  10.869 -0.5581  3.0948  4.2711
  970MOL0     H33822   5.201   6.492  11.261  0.8210  2.4088  1.9255
  970MOL0     H33823   5.318   6.289  11.311  1.9512 -1.1132 -0.0307
  970MOL0     H33824   5.432   6.138  11.362  1.4042 -2.2619 -1.6845
  970MOL0     H33825   5.590   6.077  11.402  1.9141  1.1603  1.1511
  970MOL0     H33826   5.609   6.245  11.599 -0.5216  1.0481 -0.5819
  970MOL0     H33827   5.448   6.271  11.592  0.3912 -1.0585  0.2224
  970MOL0     H33828   5.509   6.078  11.744  3.0275  2.9325 -0.7411
  970MOL0     H33829   5.568   5.982  11.605 -0.7526 -1.6819 -0.6572
  970MOL0     H33830   5.321   6.010  11.509 -0.5126  0.6710 -0.4661
  970MOL0     H33831   5.289   6.077  11.666  1.1287  1.2454 -0.2850
  970MOL0     H33832   5.406   5.795  11.596  0.9020  2.6307 -1.5059
  970MOL0     H33833   5.391   5.864  11.766  0.0368  1.1489  0.2506
  970MOL0     H33834   5.164   5.799  11.571 -2.4662 -0.7040  1.2228
  970MOL0     H33835   5.141   5.884  11.719 -3.3085 -1.9040 -0.1238
  970MOL0     H33836   5.251   5.706  11.854 -3.5324  0.3205  1.4107
  970MOL0     H33837   5.259   5.609  11.715  1.8095  0.6824  1.0067
  970MOL0     H33838   5.044   5.548  11.858 -0.7795 -0.3121 -0.0153
  970MOL0     H33839   5.014   5.612  11.690  0.9105  0.1699 -0.1632
  970MOL0     H33840   5.691   6.502  11.295 -0.5695 -2.1772 -0.7691
  970MOL0     H33841   5.561   6.713  11.218 -3.0555  1.8344 -0.0883
  970MOL0     H33842   5.268   6.952  11.380 -0.1526  0.3599  0.9832
  970MOL0     H33843   5.151   7.159  11.404  1.2788  1.6994 -0.1384
  970MOL0     H33844   6.057   8.584  10.913  0.6894 -0.5786  0.3976
  970MOL0     H33845   5.966   8.737  10.721  2.4431  0.6619  0.5923
  970MOL0     H33846   5.908   8.756  10.289  0.6014  0.3852 -2.1564
  970MOL0     H33847   5.845   8.791  10.057  1.2083 -1.5854  0.7146
  970MOL0     H33848   5.711   8.930   9.915 -0.1555 -1.4094  2.1855
  970MOL0     H33849   5.607   8.892   9.776 -1.4337  0.0451  0.0756
  970MOL0     H33850   5.534   9.093   9.905  1.0484  0.1702  0.6082
  970MOL0     H33851   5.509   8.986  10.044  1.0974 -2.5614  0.2568
  970MOL0     H33852   5.346   9.002   9.785  0.0568 -0.2053 -0.4289
  970MOL0     H33853   5.338   8.851   9.887  1.7467 -1.3374 -2.3670
  970MOL0     H33854   5.275   9.020  10.087 -0.3155 -1.0373 -0.1470
  970MOL0     H33855   5.151   9.018   9.958 -0.9758 -1.0211  0.8005
  970MOL0     H33856   5.320   9.395   9.932  1.9766  0.3445  2.7450
  970MOL0     H33857   5.443   8.681  10.137 -0.3949  2.6711  0.4730
  970MOL0     H33858   5.474   8.529  10.416  0.5751 -0.1236  0.6773
  970MOL0     H33859   5.452   8.678  10.503  1.0643 -4.4153  2.1019
  970MOL0     H33860   5.375   8.650  10.342  0.5146  2.2854 -0.0077
  971MOL0     O33861   1.238   9.832   4.647  0.3498  0.1924  0.9740
  971MOL0     C33862   1.313   9.889   4.727  0.7831  0.1171  0.4081
  971MOL0     O33863   1.439   9.938   4.708 -0.6561 -0.0070 -0.9859
  971MOL0     C33864   1.514   9.854   4.634 -0.5430 -0.2641  0.0458
  971MOL0     C33865   1.578   9.902   4.511 -0.0925  0.6539  0.6709
  971MOL0     C33866   1.666   9.823   4.431 -0.4212  0.8516  0.3562
  971MOL0     C33867   1.702   9.691   4.478 -0.1508  0.3399 -0.5281
  971MOL0     O33868   1.810   9.623   4.423  0.6704  0.9458 -0.0702
  971MOL0     C33869   1.753   9.530   4.328 -0.0693  0.7631 -0.9040
  971MOL0     C33870   1.853   9.482   4.226 -0.9395 -0.6564  0.2490
  971MOL0     C33871   1.901   9.599   4.148  0.6876 -0.1957  0.2740
  971MOL0     C33872   1.992   9.562   4.030 -0.3729 -0.1188 -0.1975
  971MOL0     C33873   2.036   9.681   3.950 -0.9504 -0.4975 -0.0015
  971MOL0     C33874   2.158   9.647   3.860 -0.6156  0.9003  0.3806
  971MOL0     C33875   2.156   9.518   3.786  0.0539  0.3615  0.2831
  971MOL0     C33876   2.265   9.513   3.679  0.6213 -0.1441 -0.6540
  971MOL0     N33877   2.285   9.373   3.642 -0.5418  0.4928 -0.5015
  971MOL0     C33878   2.393   9.297   3.693 -0.3422 -1.2067 -0.1761
  971MOL0     C33879   2.383   9.189   3.621 -0.4372  0.1939 -0.1957
  971MOL0     C33880   2.481   9.075   3.644 -0.0644 -1.0550 -0.5380
  971MOL0     C33881   2.489   8.982   3.519  0.3772 -0.1644 -0.9360
  971MOL0     C33882   2.597   8.885   3.532  0.2078  0.4011 -0.0724
  971MOL0     C33883   2.624   8.786   3.411 -0.5667  0.1102 -0.6251
  971MOL0     O33884   2.766   8.772   3.386  0.5950 -0.1498 -0.1053
  971MOL0     C33885   2.854   8.711   3.466 -0.1642  0.3849  0.0570
  971MOL0     C33886   2.983   8.733   3.432 -1.2465  0.2520  0.3082
  971MOL0     C33887   3.093   8.668   3.491 -0.8652  0.1460 -0.2668
  971MOL0     C33888   3.235   8.717   3.460 -0.8991  0.3855 -0.2434
  971MOL0     C33889   3.069   8.569   3.588  0.3143 -0.9815  0.1738
  971MOL0     C33890   3.170   8.482   3.647 -0.2071  0.1798 -0.0101
  971MOL0     O33891   3.133   8.435   3.765  0.6692 -0.2599 -0.4132
  971MOL0     C33892   3.202   8.324   3.810  1.0903 -0.1147 -0.1168
  971MOL0     C33893   3.331   8.328   3.871 -0.6568  0.7854 -0.0324
  971MOL0     C33894   3.401   8.204   3.915  0.2021  0.0865 -0.1790
  971MOL0     C33895   3.339   8.083   3.910  0.1940  0.1415  0.3511
  971MOL0     O33896   3.399   7.971   3.967  0.3799 -0.5788 -0.5035
  971MOL0     C33897   3.361   7.844   3.911  1.3271 -1.2333  0.7984
  971MOL0     C33898   3.457   7.732   3.942 -0.4152  0.2427  0.9605
  971MOL0     C33899   3.426   7.602   3.870 -0.1626  0.6102  0.4594
  971MOL0     C33900   3.410   7.623   3.721  0.1892 -0.5615 -0.3590
  971MOL0     C33901   3.387   7.490   3.653 -0.5371  0.1328  0.4148
  971MOL0     C33902   3.484   7.464   3.541 -0.3279  0.1269 -0.5689
  971MOL0     C33903   3.504   7.576   3.445 -0.3084 -0.6599 -1.2044
  971MOL0     C33904   3.526   7.530   3.300  0.0347 -0.2591  0.8002
  971MOL0    Cl33905   3.679   7.450   3.309  0.4188  0.3312  0.8517
  971MOL0     C33906   3.212   8.081   3.839 -0.4379  0.8852 -0.2678
  971MOL0     C33907   3.143   8.194   3.802 -0.4158 -0.7925  1.4161
  971MOL0     O33908   3.283   8.466   3.596 -0.0579  1.4075  0.5648
  971MOL0     C33909   2.942   8.571   3.649 -0.3280  0.0373 -0.0100
  971MOL0     C33910   2.834   8.633   3.581 -0.6538  0.3737 -0.1344
  971MOL0     N33911   2.272   9.193   3.539  0.8066 -0.4193 -0.1390
  971MOL0     N33912   2.212   9.311   3.550 -0.5017  0.2707 -0.9173
  971MOL0     C33913   1.635   9.642   4.594 -0.7346 -0.1902 -0.1478
  971MOL0     C33914   1.542   9.721   4.667 -0.5148 -0.7637 -0.6876
  971MOL0     C33915   1.244   9.925   4.856  0.6339  0.3853 -1.0424
  971MOL0     C33916   1.263  10.053   4.904 -0.3023 -0.0103  0.5198
  971MOL0     C33917   1.196  10.089   5.022  0.4126 -0.0221 -1.0824
  971MOL0     C33918   1.122  10.001   5.104  0.0859  0.1984 -0.0533
  971MOL0     O33919   1.086  10.015   5.236 -0.4850  0.1145 -0.5117
  971MOL0     C33920   1.111  10.140   5.293  0.5006 -0.1037 -0.1690
  971MOL0     C33921   1.078  10.137   5.445  0.2476 -0.8764  0.0687
  971MOL0     C33922   1.076  10.277   5.502 -0.4621  0.6684  0.4487
  971MOL0     C33923   1.088  10.269   5.654  0.7524  0.5550  0.7487
  971MOL0     C33924   1.055  10.402   5.696 -0.3216 -0.2900 -0.5000
  971MOL0     C33925   1.020  10.512   5.739 -1.0188  0.1501  0.3053
  971MOL0     C33926   1.103   9.866   5.048 -0.4879  0.7920  0.0267
  971MOL0     C33927   1.169   9.833   4.931  0.6761  0.1478  0.6024
  971MOL0     C33928   1.164   9.683   4.891 -0.0996  0.4968 -0.5324
  971MOL0     H33929   1.557  10.002   4.474 -2.4221  0.3020  0.8814
  971MOL0     H33930   1.724   9.864   4.349  4.9212 -3.9465  1.0667
  971MOL0     H33931   1.665   9.565   4.274 -0.0144  2.5648  0.0774
  971MOL0     H33932   1.726   9.442   4.386  1.5333 -0.4660 -1.9603
  971MOL0     H33933   1.927   9.417   4.273  0.7512  0.2368 -1.0411
  971MOL0     H33934   1.800   9.415   4.159 -0.7644 -3.5645  2.7767
  971MOL0     H33935   1.814   9.649   4.105  1.1390 -0.4851 -1.0295
  971MOL0     H33936   1.959   9.673   4.204  0.1629  1.2941 -1.0663
  971MOL0     H33937   2.080   9.518   4.078 -1.1792 -1.9791 -0.3600
  971MOL0     H33938   1.941   9.481   3.978 -0.6752 -1.5169  2.1616
  971MOL0     H33939   2.075   9.754   4.021 -3.9197 -1.2057  2.5495
  971MOL0     H33940   1.951   9.728   3.899 -0.5314  0.4397  0.1306
  971MOL0     H33941   2.172   9.721   3.782  1.3472 -1.7607 -2.0223
  971MOL0     H33942   2.248   9.662   3.920  0.8817  3.1173 -2.2429
  971MOL0     H33943   2.064   9.498   3.730 -0.9561  0.1251  1.9310
  971MOL0     H33944   2.164   9.441   3.863 -1.5083 -2.3303 -2.0480
  971MOL0     H33945   2.206   9.558   3.598 -0.6046  1.5563  1.0856
  971MOL0     H33946   2.358   9.567   3.703  1.2707 -2.4318  2.5000
  971MOL0     H33947   2.476   9.326   3.758 -0.7469 -1.2423  0.3576
  971MOL0     H33948   2.442   9.021   3.730  0.9081 -1.6018 -0.4285
  971MOL0     H33949   2.579   9.114   3.673  1.1061 -0.8042 -4.2269
  971MOL0     H33950   2.394   8.930   3.508 -0.2683  1.2363 -2.3206
  971MOL0     H33951   2.498   9.040   3.426  1.2610  1.0146 -0.1442
  971MOL0     H33952   2.691   8.941   3.547 -0.5623  1.5281  0.7820
  971MOL0     H33953   2.585   8.830   3.626  0.3282 -1.7143 -1.2366
  971MOL0     H33954   2.567   8.692   3.416  0.5576 -0.7692 -2.8364
  971MOL0     H33955   2.595   8.834   3.317  1.8072  0.8097 -1.0719
  971MOL0     H33956   3.003   8.791   3.342  0.1763 -2.5096 -1.3080
  971MOL0     H33957   3.228   8.794   3.383  1.4404  1.0001  0.0691
  971MOL0     H33958   3.308   8.642   3.431  0.3742  0.7497  1.8063
  971MOL0     H33959   3.281   8.764   3.548 -0.6193  1.0188 -0.7182
  971MOL0     H33960   3.383   8.417   3.904 -0.2730  1.3327 -2.0258
  971MOL0     H33961   3.493   8.223   3.969 -1.4203  2.3893  1.9740
  971MOL0     H33962   3.260   7.824   3.948 -0.1173  3.7164  0.2706
  971MOL0     H33963   3.349   7.843   3.803  2.9186 -1.8474  0.6081
  971MOL0     H33964   3.543   7.772   3.888  0.1086  0.4017  1.8875
  971MOL0     H33965   3.488   7.719   4.046  2.1232 -0.3782  0.1827
  971MOL0     H33966   3.341   7.551   3.918 -0.1437  0.5372  0.4151
  971MOL0     H33967   3.499   7.524   3.892 -1.0479  0.2203  2.2811
  971MOL0     H33968   3.498   7.683   3.696 -2.2504  2.9655 -1.4429
  971MOL0     H33969   3.320   7.676   3.686 -1.1405 -1.7502  1.0929
  971MOL0     H33970   3.405   7.404   3.718  1.9099 -1.3724 -2.0085
  971MOL0     H33971   3.283   7.492   3.619 -0.7226  2.0380  0.9929
  971MOL0     H33972   3.463   7.371   3.487  0.4517 -0.3411 -0.0884
  971MOL0     H33973   3.584   7.449   3.583 -0.8610 -1.8738  0.1230
  971MOL0     H33974   3.584   7.649   3.465 -0.7058  0.0727 -2.1725
  971MOL0     H33975   3.412   7.636   3.444 -0.8719 -1.3951  0.9311
  971MOL0     H33976   3.539   7.614   3.231  2.1581  0.0584  1.5087
  971MOL0     H33977   3.444   7.467   3.266  0.4874 -1.9333  2.6338
  971MOL0     H33978   3.157   7.989   3.823  0.5642  0.3519 -0.8038
  971MOL0     H33979   3.048   8.203   3.751  0.5317  1.3694 -0.0904
  971MOL0     H33980   2.923   8.517   3.741  0.9716 -1.9276 -0.8119
  971MOL0     H33981   2.737   8.613   3.624  0.0566 -4.1898 -0.2075
  971MOL0     H33982   1.659   9.541   4.625  0.8802 -0.6532 -2.6210
  971MOL0     H33983   1.500   9.681   4.759 -1.9875  1.9447 -0.0503
  971MOL0     H33984   1.319  10.125   4.846  1.6129 -0.2933  1.9055
  971MOL0     H33985   1.214  10.189   5.059  0.9767 -1.5421  3.4309
  971MOL0     H33986   1.217  10.164   5.276  0.7236 -2.0353 -1.9886
  971MOL0     H33987   1.056  10.216   5.238  5.5607  3.2606 -1.2255
  971MOL0     H33988   1.154  10.068   5.484 -0.6370 -2.5634 -1.0716
  971MOL0     H33989   0.981  10.095   5.470  0.8887 -2.3616  0.2167
  971MOL0     H33990   1.158  10.335   5.459 -0.5838  0.6981  0.2558
  971MOL0     H33991   0.984  10.326   5.468  1.4451  4.9802  0.8688
  971MOL0     H33992   1.185  10.230   5.686  0.4873  0.2340  1.1859
  971MOL0     H33993   1.011  10.202   5.695 -0.9287  2.2125  0.4211
  971MOL0     H33994   1.007  10.605   5.790 -1.6292 -0.8636  2.0811
  971MOL0     H33995   1.047   9.790   5.101  0.2896  0.3845  0.2874
  971MOL0     H33996   1.242   9.651   4.821 -1.8835 -0.7001 -2.0838
  971MOL0     H33997   1.179   9.615   4.976  2.5516  0.5569 -0.8720
  971MOL0     H33998   1.070   9.655   4.842 -0.6277 -0.2068  0.8307
  972MOL0     O33999   0.417   4.982  10.733 -0.2505 -0.9022  0.2935
  972MOL0     C34000   0.527   4.969  10.676  0.3818 -0.4011  0.2610
  972MOL0     O34001   0.632   5.060  10.671  0.1314 -0.0844 -0.0625
  972MOL0     C34002   0.618   5.178  10.740  0.1019 -0.7114  1.3596
  972MOL0     C34003   0.599   5.184  10.880 -0.0485  0.2337 -0.8819
  972MOL0     C34004   0.609   5.308  10.955  0.2229  0.3955  0.1841
  972MOL0     C34005   0.617   5.427  10.881  0.8187  0.1104  0.4984
  972MOL0     O34006   0.611   5.547  10.947 -0.2261 -0.4031 -1.2790
  972MOL0     C34007   0.741   5.615  10.920 -0.0858 -0.9976 -0.4601
  972MOL0     C34008   0.749   5.762  10.985  0.2134  1.2125  0.0599
  972MOL0     C34009   0.625   5.837  10.956 -0.7957  0.1439 -0.0991
  972MOL0     C34010   0.649   5.987  11.011 -1.3312 -0.6296 -0.3588
  972MOL0     C34011   0.633   5.992  11.163  0.2519 -0.2656 -0.6779
  972MOL0     C34012   0.600   6.131  11.220  0.0974  0.1770  0.8467
  972MOL0     C34013   0.703   6.241  11.167 -0.4142  0.0908 -0.5962
  972MOL0     C34014   0.675   6.389  11.219 -0.9491 -0.3838  0.0041
  972MOL0     N34015   0.750   6.497  11.153 -0.6701 -0.5422 -0.2429
  972MOL0     C34016   0.885   6.509  11.161 -0.4479  0.1205 -0.9055
  972MOL0     C34017   0.915   6.630  11.097  0.9502  0.6638 -0.0984
  972MOL0     C34018   1.049   6.686  11.050  0.0989 -0.8185  0.5405
  972MOL0     C34019   1.095   6.810  11.139  0.9626  0.5937 -0.0882
  972MOL0     C34020   1.032   6.933  11.079 -0.8574  0.5361  0.9096
  972MOL0     C34021   1.047   7.060  11.168  0.1175 -0.4057 -0.4790
  972MOL0     O34022   1.012   7.163  11.078 -0.2851 -0.1587 -0.2927
  972MOL0     C34023   1.015   7.292  11.123  1.2531  0.4417  0.8570
  972MOL0     C34024   1.134   7.349  11.152  0.6977 -0.4010 -0.3640
  972MOL0     C34025   1.149   7.489  11.170 -0.2388  0.1906  0.1809
  972MOL0     C34026   1.279   7.561  11.203  0.1330 -0.1818 -0.5636
  972MOL0     C34027   1.034   7.567  11.144 -0.1055 -0.8384 -0.5177
  972MOL0     C34028   1.028   7.722  11.123 -0.5363 -0.0298  0.1622
  972MOL0     O34029   1.110   7.795  11.204  0.4203  0.0803 -1.0209
  972MOL0     C34030   1.115   7.933  11.181 -0.2645  0.8790 -0.6382
  972MOL0     C34031   1.241   7.979  11.137 -0.1776  0.0998  0.1363
  972MOL0     C34032   1.263   8.119  11.135  0.6593 -0.3251  0.2030
  972MOL0     C34033   1.152   8.211  11.148  0.6374 -0.4291 -0.3874
  972MOL0     O34034   1.174   8.344  11.135  0.4052  0.8557 -0.4540
  972MOL0     C34035   1.228   8.389  11.012  0.0933  0.0023 -0.0590
  972MOL0     C34036   1.109   8.448  10.945 -1.0085  0.3314  0.6668
  972MOL0     C34037   1.148   8.533  10.831 -0.4509 -0.3057 -0.0156
  972MOL0     C34038   1.206   8.457  10.713  0.3057  1.0919  0.3499
  972MOL0     C34039   1.095   8.397  10.619 -0.4775 -0.3395 -0.0731
  972MOL0     C34040   1.172   8.355  10.497  1.0007  0.6719  0.1056
  972MOL0     C34041   1.080   8.353  10.371  0.2403  0.9112  0.9252
  972MOL0     C34042   1.134   8.275  10.257 -0.2801 -0.5120 -0.1065
  972MOL0    Cl34043   1.270   8.376  10.175  0.4108 -0.5131  0.2766
  972MOL0     C34044   1.029   8.157  11.203 -0.1852  0.4228 -1.1726
  972MOL0     C34045   1.012   8.021  11.229  0.5816 -0.3927  0.1624
  972MOL0     O34046   0.946   7.756  11.034 -0.2023  0.0036 -0.8109
  972MOL0     C34047   0.910   7.503  11.131 -0.4012  0.2867  0.8336
  972MOL0     C34048   0.901   7.368  11.104 -1.0534 -0.2282  0.4241
  972MOL0     N34049   0.788   6.686  11.063  0.0120  0.0882 -0.3757
  972MOL0     N34050   0.697   6.602  11.085  0.4573  0.5688 -0.3176
  972MOL0     C34051   0.621   5.422  10.736  0.2311  0.7245 -0.3694
  972MOL0     C34052   0.625   5.294  10.674  0.6291  0.0376  0.1852
  972MOL0     C34053   0.559   4.843  10.600 -0.1681 -0.3604 -0.0739
  972MOL0     C34054   0.600   4.849  10.467 -0.7673  0.3024  0.1649
  972MOL0     C34055   0.618   4.738  10.386 -0.4915  0.0053  0.7745
  972MOL0     C34056   0.592   4.608  10.431  1.1173  0.9303 -0.8983
  972MOL0     O34057   0.607   4.493  10.353 -0.2691  0.1118  0.1110
  972MOL0     C34058   0.735   4.443  10.331 -0.7715 -0.0917  0.3543
  972MOL0     C34059   0.758   4.300  10.379 -0.7720  0.4498  0.1024
  972MOL0     C34060   0.725   4.272  10.535  0.6906 -0.9450  0.3143
  972MOL0     C34061   0.751   4.121  10.567 -0.3782 -0.2322 -0.1160
  972MOL0     C34062   0.892   4.097  10.539 -0.7019  0.9026 -0.7924
  972MOL0     C34063   1.002   4.060  10.512 -0.1109 -0.6192  1.0206
  972MOL0     C34064   0.543   4.599  10.559 -0.9331 -0.7121 -0.9642
  972MOL0     C34065   0.532   4.711  10.645  0.1006 -0.5259 -0.2135
  972MOL0     C34066   0.470   4.703  10.777 -0.4311  0.3078 -1.2627
  972MOL0     H34067   0.594   5.087  10.929 -0.8956  0.0369 -1.3427
  972MOL0     H34068   0.616   5.296  11.063 -2.2565 -4.4073  0.0643
  972MOL0     H34069   0.777   5.610  10.817 -0.2204 -0.5292 -0.5317
  972MOL0     H34070   0.820   5.563  10.975  1.7205  3.1763  1.2725
  972MOL0     H34071   0.762   5.746  11.092  0.1644  0.4656 -0.0387
  972MOL0     H34072   0.840   5.810  10.947  0.9214  0.0467  0.2352
  972MOL0     H34073   0.610   5.830  10.848  2.8380 -1.3414 -0.6328
  972MOL0     H34074   0.545   5.793  11.016  0.0820  1.5039  2.1999
  972MOL0     H34075   0.747   6.025  10.983 -0.1887 -0.2381  3.5678
  972MOL0     H34076   0.571   6.050  10.966 -0.0499 -0.5313 -2.6070
  972MOL0     H34077   0.723   5.951  11.212  1.2379  3.1830  0.6556
  972MOL0     H34078   0.549   5.925  11.186  0.4932  0.4345  2.7451
  972MOL0     H34079   0.495   6.150  11.196 -0.7536 -3.6468  0.9203
  972MOL0     H34080   0.601   6.135  11.329 -2.4716  1.9315  0.8821
  972MOL0     H34081   0.704   6.238  11.058 -1.6848  2.8261 -0.7672
  972MOL0     H34082   0.799   6.211  11.210 -0.3209  2.6620  1.1495
  972MOL0     H34083   0.568   6.413  11.224 -0.6676  0.6319  2.5243
  972MOL0     H34084   0.704   6.404  11.323 -0.4555  2.7617 -0.4627
  972MOL0     H34085   0.968   6.448  11.194  0.6174  1.2733 -1.3463
  972MOL0     H34086   1.041   6.705  10.943  0.3989 -2.8898  0.1246
  972MOL0     H34087   1.116   6.600  11.058 -0.6088 -1.2734  2.1207
  972MOL0     H34088   1.063   6.810  11.243 -0.1692 -1.0563 -0.3967
  972MOL0     H34089   1.204   6.812  11.133  0.8983  2.4669 -2.9091
  972MOL0     H34090   1.081   6.949  10.983  0.3210 -0.7474  1.2624
  972MOL0     H34091   0.924   6.920  11.071 -0.7332  0.4565 -1.1409
  972MOL0     H34092   0.991   7.069  11.261 -0.3214 -0.8052 -0.6989
  972MOL0     H34093   1.151   7.058  11.200 -0.3736 -2.3389  1.2307
  972MOL0     H34094   1.220   7.284  11.154  1.3310  0.4378 -0.1118
  972MOL0     H34095   1.324   7.622  11.125 -2.5466  1.3025 -1.0648
  972MOL0     H34096   1.357   7.487  11.226 -0.7244 -1.0854 -0.4783
  972MOL0     H34097   1.262   7.618  11.295 -1.4338  0.4971 -1.2418
  972MOL0     H34098   1.323   7.911  11.116 -0.9604 -1.1376  0.9534
  972MOL0     H34099   1.359   8.157  11.100  1.6887 -3.2571 -0.4655
  972MOL0     H34100   1.304   8.465  11.033  1.7442 -0.8870 -2.3764
  972MOL0     H34101   1.275   8.310  10.952 -0.0189 -0.4583  0.4548
  972MOL0     H34102   1.045   8.362  10.926 -1.3262 -0.1769  3.5809
  972MOL0     H34103   1.061   8.515  11.017  1.0809  3.8457 -0.9336
  972MOL0     H34104   1.230   8.595  10.868 -0.2979  0.0853 -0.9843
  972MOL0     H34105   1.065   8.592  10.793  0.3208  1.1576  0.4986
  972MOL0     H34106   1.275   8.377  10.740 -0.3716  0.2000 -0.4442
  972MOL0     H34107   1.263   8.528  10.653 -0.7890  0.3312 -1.7162
  972MOL0     H34108   1.044   8.323  10.681  0.8718  0.1392  1.7003
  972MOL0     H34109   1.022   8.473  10.592  1.3453  1.4688 -0.1897
  972MOL0     H34110   1.198   8.252  10.525 -2.2205  0.3363  2.4264
  972MOL0     H34111   1.261   8.410  10.467  1.8641 -0.2152  0.9476
  972MOL0     H34112   1.064   8.458  10.347 -3.3211  0.3963  0.4788
  972MOL0     H34113   0.979   8.316  10.393 -0.9078  3.2754 -0.0299
  972MOL0     H34114   1.051   8.263  10.186 -1.3317  3.5814  0.1756
  972MOL0     H34115   1.176   8.177  10.282 -0.9529 -0.8026 -0.0739
  972MOL0     H34116   0.940   8.214  11.225  0.0313  0.8669 -1.4286
  972MOL0     H34117   0.923   7.975  11.270  1.4128 -2.6107 -0.3433
  972MOL0     H34118   0.819   7.560  11.119  1.8123  3.9760 -0.1425
  972MOL0     H34119   0.805   7.319  11.087 -1.5574  1.0593 -0.6225
  972MOL0     H34120   0.611   5.510  10.673  1.4879  1.3013  0.2152
  972MOL0     H34121   0.623   5.290  10.566 -2.4817  2.4490 -0.0050
  972MOL0     H34122   0.613   4.939  10.408 -1.9674  0.0397 -0.5390
  972MOL0     H34123   0.640   4.752  10.281 -0.6299  1.2783  0.8990
  972MOL0     H34124   0.746   4.433  10.223 -2.2761 -2.8677  0.3605
  972MOL0     H34125   0.799   4.523  10.368 -0.1938 -0.9872  1.3550
  972MOL0     H34126   0.864   4.276  10.368 -1.4331 -4.3333  1.7448
  972MOL0     H34127   0.691   4.244  10.314 -0.3879 -2.1239  1.8089
  972MOL0     H34128   0.770   4.339  10.609 -1.1203  0.0630  0.5432
  972MOL0     H34129   0.617   4.286  10.536  0.9226  1.2727 -0.5367
  972MOL0     H34130   0.674   4.060  10.520 -1.3688 -0.1763  1.3651
  972MOL0     H34131   0.740   4.110  10.675  3.2450 -0.5323  0.3470
  972MOL0     H34132   1.096   4.026  10.473  0.4099 -1.5771  2.9505
  972MOL0     H34133   0.537   4.500  10.604  2.4470 -0.6682 -0.1128
  972MOL0     H34134   0.536   4.717  10.862 -1.6713 -1.1041 -0.0030
  972MOL0     H34135   0.381   4.763  10.797 -0.9097 -1.2070  1.7297
  972MOL0     H34136   0.415   4.609  10.792  2.0461 -0.7408  2.6383
  973MOL0     O34137   7.880   6.201   3.843  0.4154 -0.1878 -0.2030
  973MOL0     C34138   7.963   6.125   3.897 -0.3623 -0.0333  0.4912
  973MOL0     O34139   8.039   6.170   4.000 -0.1516  0.6700 -0.3999
  973MOL0     C34140   8.013   6.290   4.061  0.5440  0.0973  0.7417
  973MOL0     C34141   7.997   6.289   4.195  0.5076 -0.1957 -0.4219
  973MOL0     C34142   7.960   6.407   4.264 -0.6502  0.6747 -0.3816
  973MOL0     C34143   7.941   6.530   4.196 -0.2695 -0.5943 -0.1804
  973MOL0     O34144   7.928   6.648   4.275  0.2737 -0.5820  0.3059
  973MOL0     C34145   7.990   6.780   4.249 -0.0148  0.3689 -0.3385
  973MOL0     C34146   8.139   6.752   4.263  0.0088 -0.2726  0.3768
  973MOL0     C34147   8.222   6.877   4.236 -0.2050 -0.1996  0.0277
  973MOL0     C34148   8.372   6.870   4.245 -0.3174 -0.3269 -0.6740
  973MOL0     C34149   8.437   7.008   4.246 -0.6029  0.0940 -0.2117
  973MOL0     C34150   8.592   7.002   4.212 -0.8565  0.2948 -0.3344
  973MOL0     C34151   8.663   6.921   4.318 -0.1494  0.1953 -0.7836
  973MOL0     C34152   8.639   6.966   4.467  0.4496  0.6052 -0.7783
  973MOL0     N34153   8.703   7.088   4.493 -0.2544 -0.1063 -0.2168
  973MOL0     C34154   8.836   7.096   4.525 -0.5156  0.8942 -0.9043
  973MOL0     C34155   8.857   7.234   4.529 -0.6139 -0.3795  0.2739
  973MOL0     C34156   8.989   7.297   4.544  0.3786  0.9782 -0.2911
  973MOL0     C34157   9.005   7.416   4.445  0.2345  0.4023  0.0823
  973MOL0     C34158   8.966   7.547   4.504  0.0591 -0.2939  0.6255
  973MOL0     C34159   8.970   7.668   4.406  0.5918  0.6117  0.3064
  973MOL0     O34160   9.112   7.669   4.362  0.1358 -0.1812  0.1441
  973MOL0     C34161   9.128   7.729   4.246  0.7771 -1.0958 -0.2053
  973MOL0     C34162   9.046   7.827   4.183 -0.1399  0.5525 -1.0105
  973MOL0     C34163   9.077   7.863   4.049  0.3934 -0.2791 -0.2675
  973MOL0     C34164   8.989   7.970   4.003 -0.0702  0.2219  0.3900
  973MOL0     C34165   9.197   7.828   3.985 -0.2392 -0.1931 -0.2960
  973MOL0     C34166   9.246   7.891   3.862  0.5187  0.0762  0.1191
  973MOL0     O34167   9.269   7.817   3.753  0.7382  0.6633  0.1832
  973MOL0     C34168   9.249   7.870   3.629 -0.2459 -0.4639 -0.3325
  973MOL0     C34169   9.142   7.952   3.593 -0.4527 -0.2422 -0.2625
  973MOL0     C34170   9.123   7.986   3.455  0.7125 -0.6411  0.1056
  973MOL0     C34171   9.195   7.921   3.357  0.6405 -0.3408  0.8016
  973MOL0     O34172   9.172   7.961   3.223  0.5548  0.0516 -0.4699
  973MOL0     C34173   9.288   7.988   3.140  1.2364  0.1894  0.6108
  973MOL0     C34174   9.272   8.117   3.054 -0.9039  0.3555  0.7828
  973MOL0     C34175   9.408   8.162   2.994  0.6872  1.1391  0.4382
  973MOL0     C34176   9.381   8.263   2.881 -0.3259  0.0306  1.2644
  973MOL0     C34177   9.517   8.313   2.834  1.0795  0.5750 -0.6615
  973MOL0     C34178   9.498   8.408   2.705 -0.1559 -0.5517  0.4360
  973MOL0     C34179   9.626   8.433   2.636  1.0951  1.0234 -0.5749
  973MOL0     C34180   9.617   8.547   2.531  0.2954  0.1665 -0.5581
  973MOL0    Cl34181   9.477   8.509   2.427 -0.2914 -0.1252 -0.0468
  973MOL0     C34182   9.297   7.835   3.392 -0.2403  0.4893 -0.4248
  973MOL0     C34183   9.320   7.813   3.527  0.4803 -0.2545  0.0902
  973MOL0     O34184   9.266   8.006   3.869  0.2565 -0.9637  0.3130
  973MOL0     C34185   9.276   7.730   4.051  0.1343 -0.3440  0.3045
  973MOL0     C34186   9.237   7.673   4.172 -0.1393 -0.3243  0.0617
  973MOL0     N34187   8.738   7.297   4.515  0.0934 -0.9341  0.1509
  973MOL0     N34188   8.644   7.209   4.498  0.4424  0.1255 -0.3134
  973MOL0     C34189   7.942   6.527   4.052 -0.3427 -0.0855  0.5263
  973MOL0     C34190   7.997   6.412   3.989  1.3859 -1.1099 -0.2062
  973MOL0     C34191   7.993   5.995   3.833  0.2655  0.1497 -0.3818
  973MOL0     C34192   8.120   5.944   3.843  0.1624  0.6178  0.8471
  973MOL0     C34193   8.159   5.830   3.775  0.0304 -0.4136  0.4569
  973MOL0     C34194   8.063   5.747   3.713  0.0927 -0.1895 -0.1101
  973MOL0     O34195   8.093   5.623   3.651 -0.0485 -0.9735 -0.6825
  973MOL0     C34196   8.214   5.622   3.562  0.1555 -0.8043 -0.3782
  973MOL0     C34197   8.222   5.496   3.475 -0.4674 -0.0355 -0.5695
  973MOL0     C34198   8.084   5.455   3.412 -0.0411 -0.5846 -0.2932
  973MOL0     C34199   8.101   5.338   3.312  0.8695 -0.9049 -0.5467
  973MOL0     C34200   7.977   5.306   3.244  0.7243 -0.0673  0.0987
  973MOL0     C34201   7.879   5.277   3.186  0.4672 -0.1024  0.2217
  973MOL0     C34202   7.932   5.783   3.717  0.1011 -0.1180  0.1549
  973MOL0     C34203   7.900   5.918   3.759 -0.5789  0.7615  0.0803
  973MOL0     C34204   7.760   5.972   3.723 -0.0709  0.5908  0.3883
  973MOL0     H34205   8.013   6.192   4.241  0.6162 -1.1239 -2.3253
  973MOL0     H34206   7.958   6.401   4.372  0.3664  0.7281 -0.3522
  973MOL0     H34207   7.958   6.861   4.315 -3.5838 -0.2601 -1.0763
  973MOL0     H34208   7.959   6.804   4.147  0.3847 -2.4670 -1.2121
  973MOL0     H34209   8.147   6.715   4.366  1.6038 -0.2538  0.2814
  973MOL0     H34210   8.175   6.669   4.201 -0.9945  0.1303 -0.7934
  973MOL0     H34211   8.204   6.920   4.137  0.4544  2.3897  0.9527
  973MOL0     H34212   8.197   6.954   4.310  0.8837 -1.0223  1.2976
  973MOL0     H34213   8.393   6.833   4.346  1.4323 -1.4333 -1.3887
  973MOL0     H34214   8.398   6.800   4.165 -0.3295 -0.6352 -0.4093
  973MOL0     H34215   8.428   7.070   4.336  2.7184  2.0920 -1.0656
  973MOL0     H34216   8.385   7.062   4.167 -3.8013 -2.4819 -0.0512
  973MOL0     H34217   8.618   6.964   4.113  2.3607 -0.3697  0.6602
  973MOL0     H34218   8.632   7.101   4.234 -1.5139  0.5774 -0.4004
  973MOL0     H34219   8.771   6.923   4.300  0.0953  0.5863  0.5701
  973MOL0     H34220   8.635   6.816   4.313 -2.0631  0.7096 -1.4682
  973MOL0     H34221   8.535   6.960   4.501  0.8574 -0.1395  0.4076
  973MOL0     H34222   8.688   6.890   4.529  2.5233  1.7003 -0.9756
  973MOL0     H34223   8.901   7.011   4.540  0.1702  1.7276  1.1691
  973MOL0     H34224   9.054   7.210   4.530 -1.2679 -0.0654 -1.9695
  973MOL0     H34225   9.007   7.329   4.647  0.3150 -0.3267  0.1430
  973MOL0     H34226   9.112   7.417   4.423 -0.2765 -1.3520 -2.9728
  973MOL0     H34227   8.936   7.405   4.361 -1.4303  1.5159  1.2361
  973MOL0     H34228   8.865   7.533   4.544 -0.5017 -1.2607 -1.0053
  973MOL0     H34229   9.038   7.562   4.584  0.5263 -0.3883  0.2249
  973MOL0     H34230   8.894   7.657   4.329 -1.1312  0.1323  2.0156
  973MOL0     H34231   8.951   7.753   4.472 -0.5897 -1.9859  3.5539
  973MOL0     H34232   8.964   7.869   4.240 -0.0073 -2.1069  1.3917
  973MOL0     H34233   9.041   8.066   4.013 -1.5312  1.2065 -0.9014
  973MOL0     H34234   8.895   7.975   4.059 -0.8238 -4.5148 -0.0843
  973MOL0     H34235   8.966   7.960   3.896 -3.3305  0.7395  0.9370
  973MOL0     H34236   9.064   7.976   3.665  0.0569 -0.1608  0.2747
  973MOL0     H34237   9.045   8.059   3.436  0.4557 -1.2100 -1.1688
  973MOL0     H34238   9.382   8.008   3.192  1.6192 -1.7372  0.7520
  973MOL0     H34239   9.304   7.904   3.072 -0.4594 -0.1418  0.5773
  973MOL0     H34240   9.214   8.097   2.964 -0.1172  0.1687  0.3080
  973MOL0     H34241   9.228   8.194   3.117 -0.7750 -0.7386  2.2688
  973MOL0     H34242   9.461   8.072   2.962 -1.1230 -0.2365  1.1908
  973MOL0     H34243   9.466   8.212   3.073 -1.4412  0.5266  2.5088
  973MOL0     H34244   9.312   8.347   2.894  0.5860  2.5983 -5.8897
  973MOL0     H34245   9.349   8.210   2.791  1.1250  0.7586  0.2941
  973MOL0     H34246   9.577   8.368   2.907  0.1729  1.6510 -0.7092
  973MOL0     H34247   9.575   8.225   2.805 -1.7031 -1.1616 -1.3615
  973MOL0     H34248   9.439   8.498   2.724 -0.6243 -0.5969 -0.7423
  973MOL0     H34249   9.439   8.351   2.632 -4.1472  0.0764  2.8329
  973MOL0     H34250   9.661   8.344   2.584  0.3534 -0.3896  1.2177
  973MOL0     H34251   9.698   8.470   2.710 -1.7055  3.8635  0.9841
  973MOL0     H34252   9.710   8.547   2.474 -0.7228 -0.5598 -2.3062
  973MOL0     H34253   9.604   8.643   2.582 -3.5825 -0.9557  0.9364
  973MOL0     H34254   9.348   7.787   3.308 -2.1342 -1.2658 -0.6451
  973MOL0     H34255   9.389   7.738   3.563 -0.6715 -0.7231  1.4142
  973MOL0     H34256   9.372   7.697   4.011 -0.7380 -2.4990 -0.1592
  973MOL0     H34257   9.301   7.599   4.218 -1.2076 -0.8377  0.7582
  973MOL0     H34258   7.913   6.613   3.993  1.1062 -1.2113 -1.9433
  973MOL0     H34259   8.021   6.412   3.883 -1.4341  1.5554 -0.9703
  973MOL0     H34260   8.199   5.996   3.896  1.6159 -0.7974  0.1472
  973MOL0     H34261   8.261   5.794   3.783 -0.0166 -1.0176 -1.2979
  973MOL0     H34262   8.213   5.709   3.496 -3.8644 -1.7944 -1.9653
  973MOL0     H34263   8.296   5.628   3.633 -1.0518 -0.0150  1.0009
  973MOL0     H34264   8.257   5.410   3.532  2.5589  1.8048  0.6053
  973MOL0     H34265   8.291   5.527   3.396 -1.2327  0.2865 -1.1227
  973MOL0     H34266   8.004   5.433   3.484 -0.5973  0.4066 -0.5895
  973MOL0     H34267   8.063   5.545   3.354 -0.4434 -1.5283 -1.6377
  973MOL0     H34268   8.134   5.249   3.367 -1.0864 -3.0222 -2.5584
  973MOL0     H34269   8.180   5.369   3.243  0.2881  1.5422 -0.2111
  973MOL0     H34270   7.786   5.248   3.141  1.0265  0.0288 -1.0865
  973MOL0     H34271   7.859   5.728   3.658  0.5977  0.3859 -0.9562
  973MOL0     H34272   7.700   5.974   3.814 -3.1431 -1.7842 -1.3666
  973MOL0     H34273   7.776   6.070   3.677  0.5154 -0.3817 -1.5677
  973MOL0     H34274   7.693   5.923   3.652 -0.9457  2.1714  0.0713
  974MOL0     O34275   9.040   6.615   6.875  0.5286  0.2262  0.6459
  974MOL0     C34276   8.994   6.554   6.776 -0.5969  0.5311  0.3753
  974MOL0     O34277   8.998   6.602   6.645 -0.3953  0.0894 -0.0851
  974MOL0     C34278   9.064   6.724   6.625 -0.0642 -0.4854 -0.2737
  974MOL0     C34279   9.004   6.850   6.617  0.7052  0.1057 -0.5518
  974MOL0     C34280   9.071   6.969   6.592  0.0305 -0.4864 -0.1742
  974MOL0     C34281   9.208   6.952   6.552 -0.2293 -0.5987 -0.1866
  974MOL0     O34282   9.264   7.069   6.523  0.3497  0.2066  0.2787
  974MOL0     C34283   9.403   7.077   6.548 -0.1144  1.3030 -0.7129
  974MOL0     C34284   9.433   7.198   6.641 -0.4292  0.0816 -0.9092
  974MOL0     C34285   9.351   7.199   6.776 -0.0006  0.3814  0.5060
  974MOL0     C34286   9.392   7.085   6.862  0.1225  0.6906 -0.1622
  974MOL0     C34287   9.322   7.106   7.000 -0.2430  0.6339 -0.1228
  974MOL0     C34288   9.174   7.101   6.993  0.9112  0.7034  0.3677
  974MOL0     C34289   9.096   7.077   7.133  0.9199  0.4041 -0.0870
  974MOL0     C34290   9.093   7.215   7.213  0.8032 -0.3321 -0.0378
  974MOL0     N34291   9.016   7.320   7.142 -0.4885  0.4789 -0.3520
  974MOL0     C34292   8.895   7.301   7.072  0.8787 -0.7390 -0.1642
  974MOL0     C34293   8.871   7.423   7.016  0.9402  0.1447 -0.2254
  974MOL0     C34294   8.750   7.480   6.958 -0.4642  0.3668 -0.7565
  974MOL0     C34295   8.766   7.535   6.817 -1.1784  0.8212 -0.6473
  974MOL0     C34296   8.840   7.431   6.724 -0.1928  0.2205  0.3216
  974MOL0     C34297   8.804   7.484   6.579  0.0284  0.1752 -0.0878
  974MOL0     O34298   8.846   7.399   6.475  0.1030 -0.1868  0.2686
  974MOL0     C34299   8.974   7.401   6.428  0.1534 -0.8826  0.2272
  974MOL0     C34300   9.056   7.513   6.446  0.4611  0.0974 -0.1547
  974MOL0     C34301   9.185   7.518   6.400 -0.0070  0.4080  0.7964
  974MOL0     C34302   9.265   7.637   6.454 -0.1343  0.2923 -0.7466
  974MOL0     C34303   9.244   7.407   6.321 -0.0355 -1.1051  0.1518
  974MOL0     C34304   9.390   7.403   6.276 -0.2114  1.0861 -0.7381
  974MOL0     O34305   9.430   7.281   6.216 -0.9963 -0.9779  0.1355
  974MOL0     C34306   9.555   7.234   6.203  0.2286 -0.7845  0.1812
  974MOL0     C34307   9.579   7.123   6.122  0.4086  0.8967  0.0196
  974MOL0     C34308   9.707   7.067   6.106  0.5247  0.1785  0.9722
  974MOL0     C34309   9.815   7.118   6.168 -0.9085  0.1429  0.0639
  974MOL0     O34310   9.933   7.068   6.129 -0.9302  0.5548  0.2258
  974MOL0     C34311  10.053   7.103   6.200 -0.4190 -0.0247  0.0936
  974MOL0     C34312  10.168   7.026   6.140  0.4427  0.1126  0.0620
  974MOL0     C34313  10.131   6.870   6.150 -0.1795 -0.2658 -0.1346
  974MOL0     C34314  10.258   6.781   6.119  0.4772  0.5693  1.0932
  974MOL0     C34315  10.236   6.626   6.119 -0.1639  0.0796  0.2912
  974MOL0     C34316  10.165   6.547   6.237 -0.9986 -0.2315  0.2554
  974MOL0     C34317  10.256   6.530   6.358  0.1603 -0.7577  0.3746
  974MOL0     C34318  10.209   6.427   6.456  0.1691 -0.5463 -0.3804
  974MOL0    Cl34319  10.300   6.430   6.606  0.0054 -0.5486  0.4912
  974MOL0     C34320   9.793   7.232   6.247 -0.4594  0.6735 -0.4892
  974MOL0     C34321   9.662   7.282   6.275 -0.4246  0.1130  0.6832
  974MOL0     O34322   9.462   7.494   6.308  0.3948 -0.0910  0.3804
  974MOL0     C34323   9.157   7.306   6.295 -0.4466 -0.0546  0.3091
  974MOL0     C34324   9.028   7.303   6.345  0.8454 -0.4006  0.3527
  974MOL0     N34325   8.983   7.499   7.034  0.6753 -0.1562  0.6839
  974MOL0     N34326   9.072   7.435   7.100 -0.4872 -0.5564  0.6698
  974MOL0     C34327   9.269   6.825   6.544  0.8844  0.4369  0.0219
  974MOL0     C34328   9.197   6.711   6.583 -0.0939 -0.3009  0.8990
  974MOL0     C34329   8.945   6.407   6.785 -0.3809  0.0731 -2.1931
  974MOL0     C34330   8.956   6.328   6.673 -0.2940  1.0065 -0.1649
  974MOL0     C34331   8.916   6.198   6.660  0.6450 -0.3060 -0.9082
  974MOL0     C34332   8.857   6.137   6.772 -0.1084 -0.7513 -0.1155
  974MOL0     O34333   8.813   6.013   6.749  0.0189 -0.2038 -0.1737
  974MOL0     C34334   8.751   5.943   6.856 -0.3213  0.3042 -0.6471
  974MOL0     C34335   8.736   5.796   6.836 -0.4913  0.5220  0.1790
  974MOL0     C34336   8.615   5.738   6.908 -0.1175  0.2701  1.2645
  974MOL0     C34337   8.617   5.754   7.056 -0.3163  0.6296 -1.0121
  974MOL0     C34338   8.494   5.698   7.115 -0.1677  1.0635  0.0421
  974MOL0     C34339   8.404   5.643   7.178  0.7906  0.3737  0.6357
  974MOL0     C34340   8.855   6.207   6.893  0.1423 -0.6224  0.0408
  974MOL0     C34341   8.889   6.348   6.899  0.2037  0.3368 -0.3316
  974MOL0     C34342   8.867   6.420   7.033  0.3858 -0.7297  0.5946
  974MOL0     H34343   8.898   6.851   6.642  0.1275 -2.8088 -2.3449
  974MOL0     H34344   9.027   7.068   6.588 -0.6379 -0.8075 -1.4914
  974MOL0     H34345   9.452   7.088   6.451 -1.3980 -2.2917 -1.9582
  974MOL0     H34346   9.437   6.987   6.600 -2.5014  0.3839 -0.6090
  974MOL0     H34347   9.539   7.205   6.668 -0.3861 -0.0309 -1.0495
  974MOL0     H34348   9.422   7.285   6.576 -1.6964  0.5061 -0.1591
  974MOL0     H34349   9.383   7.281   6.840 -0.5208 -1.0040  2.6375
  974MOL0     H34350   9.244   7.198   6.752  0.3555  1.0951 -1.2942
  974MOL0     H34351   9.363   6.991   6.815  1.9827  0.6204 -1.2627
  974MOL0     H34352   9.500   7.076   6.875  0.6399  0.3691 -3.7567
  974MOL0     H34353   9.351   7.204   7.039 -0.7446  2.4624 -3.9336
  974MOL0     H34354   9.354   7.034   7.076 -0.4786 -2.4668 -2.7649
  974MOL0     H34355   9.127   7.186   6.942  1.2150  0.6945  0.0737
  974MOL0     H34356   9.156   7.016   6.927  1.4641  0.7137  0.1991
  974MOL0     H34357   9.144   7.003   7.198 -0.4276  1.2245  1.9379
  974MOL0     H34358   8.994   7.042   7.115  0.3241  1.8253  0.3653
  974MOL0     H34359   9.047   7.194   7.310  1.8007 -1.9166  0.1330
  974MOL0     H34360   9.195   7.252   7.232  1.4022 -2.1031  0.3511
  974MOL0     H34361   8.822   7.222   7.090  1.0795 -0.6954  0.8806
  974MOL0     H34362   8.701   7.541   7.035 -0.0542 -0.4492  0.1652
  974MOL0     H34363   8.678   7.398   6.955 -0.5089  0.4362 -2.5260
  974MOL0     H34364   8.672   7.570   6.774  0.3522  1.6263 -3.5681
  974MOL0     H34365   8.824   7.628   6.821  2.2196 -1.1193  3.4502
  974MOL0     H34366   8.945   7.429   6.754 -0.3476  3.4578  1.4622
  974MOL0     H34367   8.791   7.334   6.739  3.0438 -1.7120 -0.5588
  974MOL0     H34368   8.695   7.480   6.578 -0.0104  1.0637  0.0104
  974MOL0     H34369   8.825   7.590   6.567  2.1655 -0.1756  0.1909
  974MOL0     H34370   9.036   7.594   6.516 -0.6520  1.6494 -2.1594
  974MOL0     H34371   9.325   7.601   6.539 -0.0559  0.6104 -0.6662
  974MOL0     H34372   9.197   7.717   6.485 -2.9626 -1.2378 -2.5618
  974MOL0     H34373   9.334   7.688   6.386  0.8960  0.1559  0.1680
  974MOL0     H34374   9.501   7.070   6.067  1.0609 -1.2227  1.0202
  974MOL0     H34375   9.709   6.979   6.042 -1.8631  1.2812 -0.7647
  974MOL0     H34376  10.074   7.210   6.198 -0.3289 -0.0477 -1.4920
  974MOL0     H34377  10.041   7.078   6.306 -0.2319  0.9562  0.3523
  974MOL0     H34378  10.195   7.059   6.039 -1.5372 -0.7827 -0.8202
  974MOL0     H34379  10.258   7.048   6.199  0.6897  0.7238 -0.5304
  974MOL0     H34380  10.047   6.839   6.087  1.1603 -2.6863 -0.8465
  974MOL0     H34381  10.101   6.840   6.251  0.2406 -3.2226 -0.7946
  974MOL0     H34382  10.322   6.798   6.206  2.2582 -1.6637  0.3341
  974MOL0     H34383  10.321   6.813   6.035 -0.9778  2.6350  0.7249
  974MOL0     H34384  10.194   6.615   6.019  0.8993  3.8623 -0.7277
  974MOL0     H34385  10.336   6.583   6.120 -0.0981  0.2335  0.2800
  974MOL0     H34386  10.148   6.443   6.207  2.4311 -1.2988  1.5123
  974MOL0     H34387  10.069   6.593   6.262  0.0600  1.9858  0.4510
  974MOL0     H34388  10.265   6.620   6.420  0.0797  0.5660 -1.4461
  974MOL0     H34389  10.360   6.512   6.331  0.1424  0.4032 -0.5470
  974MOL0     H34390  10.230   6.331   6.409  1.6901 -1.0133  1.1658
  974MOL0     H34391  10.099   6.428   6.460 -0.0425 -2.9395 -2.9183
  974MOL0     H34392   9.877   7.287   6.289  1.5045 -0.0713 -3.1739
  974MOL0     H34393   9.651   7.364   6.344 -0.1061  2.3752 -1.7767
  974MOL0     H34394   9.193   7.231   6.226  2.5993  0.3718  1.2647
  974MOL0     H34395   8.971   7.220   6.303 -2.2453  2.5503 -1.8269
  974MOL0     H34396   9.363   6.803   6.495  0.3609 -1.7449 -0.1364
  974MOL0     H34397   9.249   6.616   6.580  0.5961 -0.1232  3.6650
  974MOL0     H34398   9.008   6.364   6.584  2.6572 -0.4284  0.8536
  974MOL0     H34399   8.935   6.133   6.575  0.3759  1.1275 -2.1154
  974MOL0     H34400   8.795   5.962   6.954 -0.7033  0.2108 -0.4581
  974MOL0     H34401   8.649   5.982   6.862 -0.5154 -0.2894  0.0786
  974MOL0     H34402   8.823   5.741   6.873 -1.2844 -0.8906  0.0160
  974MOL0     H34403   8.720   5.782   6.728  2.9630  1.6206 -0.5907
  974MOL0     H34404   8.526   5.784   6.865 -0.4592  0.4447  2.1280
  974MOL0     H34405   8.611   5.633   6.877  3.5002 -0.1488  1.7858
  974MOL0     H34406   8.635   5.859   7.084  1.2023 -0.4736  2.8651
  974MOL0     H34407   8.700   5.700   7.102  0.4347  2.7210  0.2320
  974MOL0     H34408   8.313   5.604   7.218 -0.7611  0.8114 -2.2325
  974MOL0     H34409   8.812   6.164   6.983  0.3974  0.6074  0.7811
  974MOL0     H34410   8.825   6.519   7.015  1.6038 -0.3669 -0.3786
  974MOL0     H34411   8.795   6.365   7.094 -2.8468  0.4439 -1.8692
  974MOL0     H34412   8.962   6.435   7.085  0.8959  0.0657 -0.5213
  975MOL0     O34413   8.987   6.936   9.351  0.5114  0.1165  0.3182
  975MOL0     C34414   8.900   6.869   9.404 -0.5819 -1.0537  0.4038
  975MOL0     O34415   8.917   6.778   9.499  0.3988 -0.3918  0.0858
  975MOL0     C34416   9.045   6.736   9.535  1.0142 -0.2542 -0.5789
  975MOL0     C34417   9.101   6.786   9.655  0.6123  0.7014  0.4325
  975MOL0     C34418   9.236   6.759   9.681 -0.0235  0.4699 -0.1529
  975MOL0     C34419   9.316   6.682   9.595 -1.4125  0.0509  0.0361
  975MOL0     O34420   9.450   6.648   9.638 -0.8401 -0.7860 -0.0463
  975MOL0     C34421   9.546   6.627   9.536  0.0463  0.1922 -0.0106
  975MOL0     C34422   9.683   6.654   9.602 -0.5139 -0.0870 -0.2302
  975MOL0     C34423   9.708   6.794   9.649 -0.8365  0.3654 -0.5905
  975MOL0     C34424   9.856   6.834   9.629 -0.1355  0.7179 -0.2531
  975MOL0     C34425   9.907   6.943   9.719 -0.1952  0.0248  0.2881
  975MOL0     C34426  10.060   6.947   9.747  1.0716  0.5966 -0.6357
  975MOL0     C34427  10.150   6.962   9.621  0.2055 -0.0889  0.1378
  975MOL0     C34428  10.301   6.959   9.657 -0.8010 -0.1231  1.5628
  975MOL0     N34429  10.387   7.023   9.550  0.4326  0.1366 -0.2200
  975MOL0     C34430  10.387   7.153   9.497 -1.1947 -0.1833  0.2389
  975MOL0     C34431  10.480   7.148   9.399 -0.3760  0.2370 -0.0962
  975MOL0     C34432  10.496   7.271   9.310 -0.1460 -0.1041  0.0278
  975MOL0     C34433  10.604   7.361   9.356  0.6507 -0.1671  0.6778
  975MOL0     C34434  10.742   7.294   9.319  0.1520 -0.0177  0.2951
  975MOL0     C34435  10.864   7.345   9.397 -0.6184 -0.0007 -0.8339
  975MOL0     O34436  10.983   7.278   9.350  0.1283  0.2261 -0.6033
  975MOL0     C34437  11.090   7.291   9.424 -0.1753 -0.5164 -0.3237
  975MOL0     C34438  11.211   7.321   9.354  1.1950  0.3604  0.0910
  975MOL0     C34439  11.345   7.326   9.415 -0.6699 -0.8752 -0.0873
  975MOL0     C34440  11.461   7.349   9.322 -0.6723 -0.3533 -1.0063
  975MOL0     C34441  11.351   7.312   9.554  0.6706  0.1216  0.1278
  975MOL0     C34442  11.476   7.294   9.632 -0.8576 -0.0403  0.1775
  975MOL0     O34443  11.459   7.304   9.770  0.3641  0.0554  0.5591
  975MOL0     C34444  11.548   7.230   9.838 -0.2966  0.8894 -0.7545
  975MOL0     C34445  11.660   7.279   9.898  0.4654 -1.2881 -0.4588
  975MOL0     C34446  11.749   7.203   9.975  0.6137 -0.9273 -0.0379
  975MOL0     C34447  11.710   7.078  10.013 -0.6646 -0.6288  0.2926
  975MOL0     O34448  11.779   6.990  10.085  0.0060  0.1686 -0.3872
  975MOL0     C34449  11.873   7.031  10.182 -0.1173 -0.8579 -0.3722
  975MOL0     C34450  11.945   6.914  10.233 -0.8783 -0.1011  0.0630
  975MOL0     C34451  12.023   6.942  10.363 -0.9817 -0.0489  0.0354
  975MOL0     C34452  12.161   7.025  10.342 -0.2735  0.6082  0.5364
  975MOL0     C34453  12.244   7.021  10.464  0.9469  0.6560 -0.8189
  975MOL0     C34454  12.392   7.055  10.433 -0.0306  0.2944 -0.2657
  975MOL0     C34455  12.472   7.058  10.564 -0.3824 -0.9326 -0.3624
  975MOL0     C34456  12.441   7.180  10.657 -0.3131  1.3207  1.2423
  975MOL0    Cl34457  12.564   7.211  10.787  0.1046  0.2266 -0.1440
  975MOL0     C34458  11.592   7.027   9.969  0.3960 -0.3310  0.2710
  975MOL0     C34459  11.516   7.096   9.871 -0.2407 -1.2414  0.2251
  975MOL0     O34460  11.587   7.275   9.580  0.3920 -0.2422 -0.1149
  975MOL0     C34461  11.231   7.280   9.621 -0.2569 -0.0158 -0.2394
  975MOL0     C34462  11.104   7.269   9.553 -0.1451  0.6825  0.6169
  975MOL0     N34463  10.540   7.021   9.387  0.5123  0.4388 -0.1760
  975MOL0     N34464  10.492   6.952   9.483  0.2089 -0.0097 -0.5662
  975MOL0     C34465   9.268   6.632   9.468  0.8538 -0.1790 -0.7673
  975MOL0     C34466   9.124   6.657   9.450 -0.5327  0.4571 -0.5509
  975MOL0     C34467   8.767   6.923   9.367  0.2924  0.8175 -0.0340
  975MOL0     C34468   8.749   7.010   9.262  0.3176  0.1600 -0.6109
  975MOL0     C34469   8.630   7.060   9.219  0.2420 -0.3080 -0.5170
  975MOL0     C34470   8.511   7.000   9.257 -0.0286  0.0847  0.8492
  975MOL0     O34471   8.401   7.047   9.196 -0.1761 -0.1545  0.2219
  975MOL0     C34472   8.279   6.982   9.221  0.1815  0.1810  0.7051
  975MOL0     C34473   8.264   6.851   9.146 -0.3314 -0.3433  0.7970
  975MOL0     C34474   8.119   6.841   9.091 -0.3339  0.0076 -0.3182
  975MOL0     C34475   8.100   6.912   8.963  0.6076 -0.3440 -0.8693
  975MOL0     C34476   7.955   6.921   8.921 -0.7475  0.1801 -0.1971
  975MOL0     C34477   7.833   6.903   8.905 -0.6424  0.4829 -0.7179
  975MOL0     C34478   8.526   6.907   9.364 -0.4677  0.1016 -0.5311
  975MOL0     C34479   8.646   6.858   9.416 -0.4318  0.7722 -0.7526
  975MOL0     C34480   8.641   6.753   9.528 -0.0478  0.1793  0.1305
  975MOL0     H34481   9.030   6.844   9.715  0.5388  0.1148  0.9178
  975MOL0     H34482   9.276   6.778   9.780  0.1802 -3.2005  0.6295
  975MOL0     H34483   9.520   6.694   9.454  0.1075 -0.7570 -0.8352
  975MOL0     H34484   9.548   6.522   9.504  4.3369  0.0416  0.1542
  975MOL0     H34485   9.692   6.589   9.690 -1.8987  2.4801  1.9381
  975MOL0     H34486   9.763   6.616   9.538 -0.9936 -2.7334  0.6220
  975MOL0     H34487   9.644   6.859   9.588  0.3805  2.1025 -0.0949
  975MOL0     H34488   9.676   6.799   9.754 -1.9698  1.8243 -0.9732
  975MOL0     H34489   9.916   6.749   9.665  0.8579  1.3240 -0.4474
  975MOL0     H34490   9.878   6.844   9.523 -0.6864  0.5067 -0.3892
  975MOL0     H34491   9.859   6.929   9.817  0.0606  1.8563  0.7238
  975MOL0     H34492   9.879   7.039   9.674  0.3357 -0.5481 -1.3249
  975MOL0     H34493  10.079   7.020   9.827 -0.0631 -0.0400  0.2418
  975MOL0     H34494  10.078   6.853   9.800 -3.4707 -0.1240 -0.0081
  975MOL0     H34495  10.121   7.053   9.568 -2.8282 -1.5400 -0.9476
  975MOL0     H34496  10.122   6.893   9.541 -0.3492  0.5066 -0.1882
  975MOL0     H34497  10.333   6.987   9.757 -0.5665  1.3418  1.1013
  975MOL0     H34498  10.325   6.852   9.650 -1.0022 -0.1560  1.3518
  975MOL0     H34499  10.321   7.235   9.524  2.5241  2.5479  1.9987
  975MOL0     H34500  10.400   7.323   9.304 -0.8342 -1.5230 -2.7786
  975MOL0     H34501  10.517   7.248   9.205  0.6812 -0.1830  0.2003
  975MOL0     H34502  10.600   7.457   9.304  0.2500 -1.4497 -1.8009
  975MOL0     H34503  10.598   7.366   9.465 -0.7864  0.6575  0.5868
  975MOL0     H34504  10.746   7.188   9.345  0.8287 -0.3508 -1.0838
  975MOL0     H34505  10.752   7.315   9.212 -1.7304  1.0170  0.2774
  975MOL0     H34506  10.872   7.453   9.383 -1.1564  0.4956  2.0744
  975MOL0     H34507  10.846   7.325   9.503 -4.6049  0.2716 -1.2913
  975MOL0     H34508  11.199   7.339   9.247 -0.2302  2.8235  0.5974
  975MOL0     H34509  11.503   7.249   9.314 -2.6834 -1.2011 -1.5320
  975MOL0     H34510  11.519   7.427   9.372 -4.9281  1.0581  2.4471
  975MOL0     H34511  11.423   7.376   9.223 -2.2177 -3.1045 -1.2660
  975MOL0     H34512  11.694   7.375   9.861  5.8683 -1.5215  2.7898
  975MOL0     H34513  11.850   7.240   9.991  1.4864 -3.5412  0.9387
  975MOL0     H34514  11.944   7.098  10.133 -0.3947 -0.4969 -0.2797
  975MOL0     H34515  11.820   7.089  10.258 -1.6057 -0.2580 -1.8016
  975MOL0     H34516  11.875   6.830  10.234 -1.3174  0.2650  0.1115
  975MOL0     H34517  12.021   6.884  10.161 -0.6692  0.8987 -0.1514
  975MOL0     H34518  12.060   6.843  10.389  0.7503 -0.4387 -3.3048
  975MOL0     H34519  11.953   6.971  10.442 -2.1736  1.2155 -1.4016
  975MOL0     H34520  12.135   7.126  10.308 -1.5699  0.2041  0.2653
  975MOL0     H34521  12.218   6.976  10.262 -0.5302  0.8631  0.1923
  975MOL0     H34522  12.195   7.080  10.541 -0.1784  1.4968 -2.1291
  975MOL0     H34523  12.246   6.915  10.492  0.1879  0.8184 -0.1299
  975MOL0     H34524  12.399   7.151  10.382 -2.7752  0.7934  0.1618
  975MOL0     H34525  12.433   6.986  10.358 -0.6790 -0.0852 -0.2753
  975MOL0     H34526  12.575   7.066  10.529  0.7561 -2.1213  2.3962
  975MOL0     H34527  12.466   6.963  10.618  3.2522 -1.0906 -0.0293
  975MOL0     H34528  12.354   7.139  10.709  0.3102  0.2031  1.4248
  975MOL0     H34529  12.441   7.279  10.610  3.2525  0.8755  0.0125
  975MOL0     H34530  11.549   6.929   9.985 -2.1972  0.7374  0.4699
  975MOL0     H34531  11.429   7.052   9.823 -0.8196 -0.1729  0.2717
  975MOL0     H34532  11.236   7.253   9.726  1.0872  3.0741  0.6155
  975MOL0     H34533  11.018   7.241   9.613 -0.6582 -0.3556 -0.5698
  975MOL0     H34534   9.322   6.560   9.407  1.7692 -0.0160 -0.1599
  975MOL0     H34535   9.072   6.610   9.367 -0.5631 -0.1695 -0.1828
  975MOL0     H34536   8.829   7.063   9.212 -2.2287  7.1264  1.4205
  975MOL0     H34537   8.626   7.140   9.145  1.6203 -1.2962 -1.7193
  975MOL0     H34538   8.261   6.968   9.328  1.1936  2.1308  1.1809
  975MOL0     H34539   8.203   7.048   9.178  0.8961 -0.0267 -0.9577
  975MOL0     H34540   8.275   6.764   9.212  1.0277  0.1581  1.2701
  975MOL0     H34541   8.338   6.855   9.065 -0.5747 -1.4846  0.5007
  975MOL0     H34542   8.094   6.737   9.071 -0.0863 -0.7719  2.9315
  975MOL0     H34543   8.034   6.863   9.156 -2.7964 -4.3603 -1.6762
  975MOL0     H34544   8.162   6.865   8.886  1.9512  1.5460 -0.9924
  975MOL0     H34545   8.129   7.017   8.961 -1.1898  0.1829 -1.8553
  975MOL0     H34546   7.730   6.879   8.891 -0.6507 -0.8545  1.2286
  975MOL0     H34547   8.435   6.870   9.411 -0.1233  1.4965  1.2982
  975MOL0     H34548   8.695   6.796   9.613  1.1911  0.0189 -0.5537
  975MOL0     H34549   8.535   6.735   9.550 -0.3643 -2.2735 -2.7416
  975MOL0     H34550   8.684   6.659   9.493 -4.4828 -1.7427 -0.8296
  976MOL0     O34551   8.527   0.113   3.105  0.9970 -0.4794  0.1948
  976MOL0     C34552   8.448   0.133   3.201  0.3345 -0.1078  0.1641
  976MOL0     O34553   8.487   0.194   3.314 -0.6861  0.3505 -0.0230
  976MOL0     C34554   8.619   0.238   3.312 -0.7356  0.2918  0.4926
  976MOL0     C34555   8.629   0.378   3.301  0.1546 -0.0183  0.0646
  976MOL0     C34556   8.755   0.439   3.300  0.2070 -0.1510 -0.5383
  976MOL0     C34557   8.865   0.357   3.330 -0.1621  0.9686 -0.4012
  976MOL0     O34558   8.997   0.406   3.323  0.2387 -0.4409 -0.1646
  976MOL0     C34559   9.023   0.554   3.319 -0.3844  0.4168  0.1896
  976MOL0     C34560   9.168   0.599   3.335  0.3173  0.3582 -0.2089
  976MOL0     C34561   9.276   0.534   3.231 -0.3889  1.0380  0.3800
  976MOL0     C34562   9.293   0.626   3.106  1.1863  0.4101  0.1237
  976MOL0     C34563   9.367   0.758   3.139 -0.2469 -0.0297 -0.0677
  976MOL0     C34564   9.504   0.738   3.207  0.5354  0.0473  0.3335
  976MOL0     C34565   9.582   0.654   3.114 -0.6505  0.7213  0.3614
  976MOL0     C34566   9.730   0.658   3.156 -0.4918 -0.1752  0.8843
  976MOL0     N34567   9.806   0.786   3.128 -0.7475 -0.2221 -0.7433
  976MOL0     C34568   9.849   0.831   3.001  0.5651  0.6562 -0.0958
  976MOL0     C34569   9.943   0.924   3.021  0.0784 -0.1499  0.0545
  976MOL0     C34570  10.028   0.994   2.923 -0.2336  0.1563  0.0424
  976MOL0     C34571  10.147   0.918   2.862  0.0910 -0.1611 -0.6492
  976MOL0     C34572  10.256   1.005   2.799 -0.0097 -0.3591  1.2977
  976MOL0     C34573  10.206   1.119   2.712  0.4585  0.0774 -0.2989
  976MOL0     O34574  10.126   1.228   2.767 -1.2584 -0.4470  0.3979
  976MOL0     C34575  10.153   1.340   2.693 -0.6939 -1.4201  0.1360
  976MOL0     C34576  10.160   1.342   2.560  0.5371 -0.0577 -0.0924
  976MOL0     C34577  10.213   1.452   2.495  0.4479 -0.5010  0.3525
  976MOL0     C34578  10.212   1.434   2.341  0.0064  0.0414 -0.4446
  976MOL0     C34579  10.253   1.563   2.568 -0.0519 -0.5052 -0.3550
  976MOL0     C34580  10.326   1.677   2.512 -0.1892 -0.3817 -0.0475
  976MOL0     O34581  10.374   1.774   2.600  0.6623  0.4882  0.0533
  976MOL0     C34582  10.452   1.877   2.551 -0.2266 -0.9305 -0.2269
  976MOL0     C34583  10.404   2.003   2.494  0.2036  0.1446 -0.2411
  976MOL0     C34584  10.495   2.084   2.427 -0.1763 -0.6114  0.5490
  976MOL0     C34585  10.636   2.067   2.437 -0.3697  0.2868  0.1465
  976MOL0     O34586  10.732   2.151   2.374  0.2617  0.1520  0.2609
  976MOL0     C34587  10.698   2.212   2.252  1.0781  0.4244 -0.4643
  976MOL0     C34588  10.791   2.171   2.137 -0.2084 -0.4937  0.4428
  976MOL0     C34589  10.929   2.213   2.175 -0.0990  0.0579  0.7848
  976MOL0     C34590  11.023   2.205   2.055 -0.2992 -0.4686 -0.1901
  976MOL0     C34591  11.141   2.285   2.086 -0.1387 -0.3939 -0.2657
  976MOL0     C34592  11.254   2.289   1.971 -0.9347 -0.5810 -0.5557
  976MOL0     C34593  11.367   2.388   2.007  1.0392 -0.0120 -0.0809
  976MOL0     C34594  11.488   2.355   1.926 -0.1092  0.9628 -0.1720
  976MOL0    Cl34595  11.573   2.214   1.989 -0.3276  0.0176 -0.3420
  976MOL0     C34596  10.681   1.947   2.498 -0.2312  0.4782 -0.0163
  976MOL0     C34597  10.591   1.849   2.548 -0.1130  0.1562 -0.1557
  976MOL0     O34598  10.357   1.672   2.388 -0.4187  0.1254 -0.1310
  976MOL0     C34599  10.234   1.571   2.708 -0.1410  0.3229  0.7256
  976MOL0     C34600  10.177   1.461   2.765 -0.3625 -0.3097 -0.1272
  976MOL0     N34601   9.949   0.939   3.158  0.9664 -0.0983 -0.0281
  976MOL0     N34602   9.870   0.861   3.221  0.1253  0.2331  0.3638
  976MOL0     C34603   8.853   0.222   3.338 -0.9714 -0.2730  0.3572
  976MOL0     C34604   8.723   0.162   3.332 -0.2937  0.1296  0.3335
  976MOL0     C34605   8.307   0.094   3.172  0.2803  0.3440 -0.1723
  976MOL0     C34606   8.268   0.083   3.037  0.5177  0.7218 -0.3121
  976MOL0     C34607   8.139   0.038   3.007  0.5009  0.4390 -0.2802
  976MOL0     C34608   8.050   0.001   3.106 -0.3712 -0.4212  0.0018
  976MOL0     O34609   7.932  -0.059   3.077 -0.7053  0.3960 -0.1889
  976MOL0     C34610   7.940  -0.181   3.004  1.0502 -0.3326 -0.5622
  976MOL0     C34611   7.988  -0.300   3.085  0.6009 -0.1959 -0.0911
  976MOL0     C34612   7.910  -0.333   3.219  0.7884 -0.2627  0.5924
  976MOL0     C34613   7.759  -0.357   3.200  0.0100 -0.2967  0.6420
  976MOL0     C34614   7.737  -0.487   3.138 -0.3765  0.5021 -0.4722
  976MOL0     C34615   7.757  -0.596   3.092  0.7432 -0.1286  0.5014
  976MOL0     C34616   8.085   0.020   3.238  0.8018 -0.5911 -0.0085
  976MOL0     C34617   8.211   0.062   3.271 -0.2607  0.5953 -0.5799
  976MOL0     C34618   8.246   0.048   3.416 -0.3376  0.9912 -0.2772
  976MOL0     H34619   8.535   0.432   3.298 -0.4544 -0.9069  1.6380
  976MOL0     H34620   8.755   0.547   3.291  0.1949 -0.0337  0.6679
  976MOL0     H34621   8.959   0.592   3.399 -3.5382 -3.6043 -0.1020
  976MOL0     H34622   8.988   0.594   3.223  1.3699  2.1234  0.2158
  976MOL0     H34623   9.174   0.708   3.322 -0.8322  0.4576 -0.0446
  976MOL0     H34624   9.192   0.588   3.441 -0.8894  3.0983  0.4456
  976MOL0     H34625   9.374   0.515   3.275 -0.0725  0.1846 -0.6552
  976MOL0     H34626   9.237   0.441   3.188 -0.8513  0.6455  1.6007
  976MOL0     H34627   9.341   0.571   3.025 -1.1330  0.1329 -1.1460
  976MOL0     H34628   9.194   0.655   3.069  1.2077  0.5982  0.2125
  976MOL0     H34629   9.304   0.829   3.194  2.4896  1.5269  1.3186
  976MOL0     H34630   9.381   0.808   3.043 -3.2126 -0.0144 -0.5847
  976MOL0     H34631   9.556   0.829   3.238  1.0680 -0.9910  2.7157
  976MOL0     H34632   9.492   0.677   3.297 -3.0872  0.9544  0.6104
  976MOL0     H34633   9.572   0.694   3.013 -1.7971  0.5632  0.4022
  976MOL0     H34634   9.558   0.547   3.112  0.1892  0.4546  2.1772
  976MOL0     H34635   9.727   0.628   3.261 -1.7111  1.9451  1.5425
  976MOL0     H34636   9.781   0.579   3.101  1.1595  1.2362  0.2971
  976MOL0     H34637   9.811   0.788   2.909 -2.2517 -1.0242  1.6535
  976MOL0     H34638  10.060   1.089   2.966 -0.8717 -0.9544  3.2207
  976MOL0     H34639   9.970   1.023   2.835  0.1618 -0.5575 -0.4628
  976MOL0     H34640  10.193   0.873   2.950 -1.1989 -1.4957 -0.6140
  976MOL0     H34641  10.104   0.840   2.798 -0.1659 -0.6317  0.0869
  976MOL0     H34642  10.321   1.041   2.878  0.2828  3.5003 -0.4623
  976MOL0     H34643  10.318   0.947   2.731 -1.9803 -0.1066 -0.8694
  976MOL0     H34644  10.296   1.161   2.667 -0.4008  1.4688 -0.7531
  976MOL0     H34645  10.152   1.081   2.624 -3.3800  1.7710  1.1225
  976MOL0     H34646  10.129   1.260   2.495 -0.7574 -0.7352  1.3157
  976MOL0     H34647  10.168   1.337   2.315 -2.9962  0.4892  2.2840
  976MOL0     H34648  10.315   1.432   2.304  0.8605 -3.3998  1.6521
  976MOL0     H34649  10.153   1.506   2.284  0.0578  0.1094 -0.4129
  976MOL0     H34650  10.303   2.041   2.506 -1.2995 -2.7476 -2.3762
  976MOL0     H34651  10.461   2.179   2.387  1.1177 -0.3453  0.0126
  976MOL0     H34652  10.603   2.169   2.219  1.0887 -0.1962  0.2735
  976MOL0     H34653  10.681   2.319   2.260 -1.4766 -0.0588  1.7554
  976MOL0     H34654  10.793   2.062   2.127  4.3926 -0.4621 -2.4226
  976MOL0     H34655  10.754   2.214   2.043 -0.4065 -1.5334  0.0279
  976MOL0     H34656  10.969   2.159   2.262 -0.2313 -1.8773 -0.2878
  976MOL0     H34657  10.925   2.317   2.209  0.3258  0.7080 -1.0632
  976MOL0     H34658  10.972   2.232   1.962  2.0899 -1.7387 -1.9988
  976MOL0     H34659  11.064   2.105   2.038  2.0712  0.6803 -1.6689
  976MOL0     H34660  11.114   2.389   2.105  1.7208  0.3731 -1.5546
  976MOL0     H34661  11.183   2.249   2.181  2.6358  1.8875 -0.4758
  976MOL0     H34662  11.225   2.319   1.870  0.4177 -1.5943 -1.2662
  976MOL0     H34663  11.288   2.188   1.947 -0.3645 -0.9178  1.4245
  976MOL0     H34664  11.389   2.396   2.114 -0.3302 -3.1409  0.5260
  976MOL0     H34665  11.348   2.487   1.964  0.4305 -0.3513 -0.6036
  976MOL0     H34666  11.554   2.443   1.923 -0.9270  1.6128  0.3759
  976MOL0     H34667  11.464   2.332   1.822 -1.1884 -0.0447  0.2784
  976MOL0     H34668  10.787   1.925   2.508 -0.5057 -0.6145  0.6217
  976MOL0     H34669  10.636   1.757   2.584  1.9298  1.3471  0.4536
  976MOL0     H34670  10.265   1.654   2.771  0.5639 -1.3278  2.6474
  976MOL0     H34671  10.182   1.464   2.873  0.2977  1.7235 -0.1629
  976MOL0     H34672   8.938   0.157   3.356 -0.7144 -0.5779 -1.7153
  976MOL0     H34673   8.704   0.055   3.329  1.1610 -0.2512  2.4457
  976MOL0     H34674   8.335   0.112   2.956  2.0621  0.8346  0.9570
  976MOL0     H34675   8.106   0.013   2.907  2.0802 -1.6783 -0.3477
  976MOL0     H34676   7.840  -0.191   2.960  1.1758  1.4985 -1.3877
  976MOL0     H34677   7.999  -0.166   2.913  1.3820  1.7217 -0.0556
  976MOL0     H34678   8.095  -0.291   3.107  0.2040  0.9249  1.5301
  976MOL0     H34679   7.985  -0.387   3.019  2.1837  1.0704 -1.9709
  976MOL0     H34680   7.952  -0.422   3.267  0.0002 -0.3729  1.0883
  976MOL0     H34681   7.933  -0.258   3.295  2.5390 -0.4944  0.3247
  976MOL0     H34682   7.705  -0.281   3.143  0.9363 -1.7481 -2.3760
  976MOL0     H34683   7.720  -0.360   3.302  1.8641 -1.2925  1.3803
  976MOL0     H34684   7.753  -0.688   3.037 -1.9951 -0.3124  0.8488
  976MOL0     H34685   8.026  -0.018   3.321  1.8485 -0.3643  0.8673
  976MOL0     H34686   8.195  -0.041   3.455  2.4543 -0.0123  1.4101
  976MOL0     H34687   8.352   0.034   3.440 -0.7219 -1.0879  0.4464
  976MOL0     H34688   8.205   0.131   3.475 -1.2005 -0.4066  1.1694
  977MOL0     O34689   0.260   6.505   1.128  0.1130 -0.0651 -0.3537
  977MOL0     C34690   0.288   6.611   1.185  0.1753  1.3531  0.2458
  977MOL0     O34691   0.198   6.692   1.257 -1.0069  0.9600 -0.1495
  977MOL0     C34692   0.086   6.643   1.305  0.5574  0.5766 -0.7047
  977MOL0     C34693   0.077   6.513   1.359  0.3763 -0.7594  1.0688
  977MOL0     C34694  -0.046   6.468   1.406  0.4188  0.3171  0.5568
  977MOL0     C34695  -0.153   6.554   1.420  0.3462 -0.7908 -0.6886
  977MOL0     O34696  -0.270   6.512   1.472  0.2363 -0.7175  0.2965
  977MOL0     C34697  -0.322   6.394   1.420  0.4971  0.9054 -0.4907
  977MOL0     C34698  -0.474   6.409   1.442  0.2064  0.4288 -0.4198
  977MOL0     C34699  -0.539   6.279   1.384  0.8505  0.1862 -0.2348
  977MOL0     C34700  -0.574   6.286   1.236 -0.2370 -0.7106  0.2613
  977MOL0     C34701  -0.699   6.363   1.207 -0.3297 -0.2883 -0.8135
  977MOL0     C34702  -0.749   6.375   1.058  0.0038 -0.0789  0.3531
  977MOL0     C34703  -0.646   6.459   0.978 -0.8835 -0.6334  0.2459
  977MOL0     C34704  -0.667   6.431   0.830 -0.6260 -0.5869  0.9989
  977MOL0     N34705  -0.563   6.488   0.738  1.2270 -0.4572  0.6610
  977MOL0     C34706  -0.554   6.618   0.693  0.2639 -0.2912 -0.1997
  977MOL0     C34707  -0.464   6.607   0.585  0.1030  0.3915 -0.3632
  977MOL0     C34708  -0.411   6.723   0.509  0.4771 -0.1402 -0.5317
  977MOL0     C34709  -0.498   6.799   0.412  0.6758 -0.2384 -0.0643
  977MOL0     C34710  -0.408   6.878   0.301  0.8282  0.1174 -0.7807
  977MOL0     C34711  -0.288   6.952   0.356 -0.2841 -0.2298  0.7288
  977MOL0     O34712  -0.218   7.010   0.245  0.6654  0.0583  0.1311
  977MOL0     C34713  -0.105   7.092   0.268  0.3462 -0.4461  0.8296
  977MOL0     C34714  -0.057   7.128   0.394  0.0521  0.9852 -0.1988
  977MOL0     C34715   0.061   7.205   0.417 -0.1924 -0.5276  0.1884
  977MOL0     C34716   0.116   7.232   0.554 -0.4715  0.4656 -0.4008
  977MOL0     C34717   0.108   7.275   0.302 -1.0848  0.7391 -0.7834
  977MOL0     C34718   0.221   7.378   0.304  0.4252 -0.8677  0.5232
  977MOL0     O34719   0.297   7.387   0.188 -0.3851 -0.5457 -0.8603
  977MOL0     C34720   0.382   7.491   0.190  0.1277 -0.4338  0.8370
  977MOL0     C34721   0.360   7.608   0.119  0.1065 -0.0763  0.7539
  977MOL0     C34722   0.449   7.712   0.113 -0.0713  0.8139 -0.0610
  977MOL0     C34723   0.574   7.701   0.187  0.5379 -0.3697  0.5683
  977MOL0     O34724   0.666   7.801   0.195  0.0015 -0.6919 -0.4897
  977MOL0     C34725   0.710   7.871   0.076 -0.1481  0.0405 -0.0447
  977MOL0     C34726   0.866   7.893   0.098 -0.0729  0.1878 -0.1432
  977MOL0     C34727   0.909   8.038   0.072 -0.6290 -0.1961 -0.7851
  977MOL0     C34728   1.053   8.074   0.126 -0.7646 -0.1293  0.6599
  977MOL0     C34729   1.088   8.212   0.080  0.1896 -0.2493 -0.5638
  977MOL0     C34730   1.228   8.244   0.129 -0.3719 -0.9944 -0.4593
  977MOL0     C34731   1.249   8.389   0.090 -0.7904  0.5028 -0.5878
  977MOL0     C34732   1.369   8.461   0.157  0.3326  0.3000 -0.6593
  977MOL0    Cl34733   1.446   8.569   0.034 -0.2524  0.4965 -0.2040
  977MOL0     C34734   0.599   7.579   0.254 -0.3825 -0.4897  0.0202
  977MOL0     C34735   0.506   7.474   0.253 -0.1171 -0.0952 -0.6094
  977MOL0     O34736   0.238   7.443   0.411  0.4746 -0.1823 -0.1758
  977MOL0     C34737   0.057   7.236   0.172  0.2039  1.0355  0.8311
  977MOL0     C34738  -0.056   7.152   0.156  0.0711  0.2832 -0.2849
  977MOL0     N34739  -0.414   6.482   0.575 -0.4537  0.4465 -1.1502
  977MOL0     N34740  -0.468   6.416   0.675 -0.3690  0.0094  0.1726
  977MOL0     C34741  -0.141   6.688   1.380  0.1560  0.0722 -0.2118
  977MOL0     C34742  -0.019   6.727   1.324  0.0981  0.1605 -0.5650
  977MOL0     C34743   0.422   6.676   1.158 -0.4408  0.9702 -0.1030
  977MOL0     C34744   0.467   6.774   1.250 -0.2438 -0.2720  0.8770
  977MOL0     C34745   0.579   6.849   1.221 -0.1431  0.2366  0.4991
  977MOL0     C34746   0.665   6.817   1.113 -0.2922 -0.2477  0.8182
  977MOL0     O34747   0.772   6.900   1.104  0.4632  0.0316 -0.6093
  977MOL0     C34748   0.787   6.944   0.970 -0.2213 -0.1652 -0.8637
  977MOL0     C34749   0.912   7.032   0.988 -0.5995  0.3330  0.1999
  977MOL0     C34750   0.926   7.109   0.861  0.4174  0.0989  1.1072
  977MOL0     C34751   1.069   7.146   0.832 -0.4564 -0.9905  1.2127
  977MOL0     C34752   1.144   7.040   0.767 -0.9894  0.0744 -0.4126
  977MOL0     C34753   1.217   6.957   0.723 -0.3625 -0.4671 -0.0442
  977MOL0     C34754   0.628   6.711   1.033 -0.1717 -0.2340  0.2430
  977MOL0     C34755   0.507   6.641   1.040 -1.0299 -0.2374  0.3306
  977MOL0     C34756   0.476   6.543   0.940 -0.3084  1.1527 -0.9313
  977MOL0     H34757   0.163   6.448   1.344  1.1591  0.6040 -0.8321
  977MOL0     H34758  -0.059   6.362   1.427 -3.2027  0.4879 -0.1869
  977MOL0     H34759  -0.277   6.309   1.471  2.1268  1.8343 -0.3251
  977MOL0     H34760  -0.312   6.393   1.311 -2.5159  0.7649 -0.8533
  977MOL0     H34761  -0.498   6.435   1.545 -1.5781  0.3563 -0.7854
  977MOL0     H34762  -0.519   6.494   1.389 -0.1215  1.3505  1.2706
  977MOL0     H34763  -0.481   6.189   1.404 -0.0424 -0.0388  1.4851
  977MOL0     H34764  -0.633   6.254   1.433  2.4993 -2.6277  1.7474
  977MOL0     H34765  -0.494   6.323   1.171 -2.5576  0.7296 -1.9655
  977MOL0     H34766  -0.590   6.179   1.224  2.7215 -1.3272  1.1191
  977MOL0     H34767  -0.691   6.467   1.241 -2.5443  0.3090 -1.9411
  977MOL0     H34768  -0.775   6.324   1.275  0.9327  0.8663  1.3779
  977MOL0     H34769  -0.745   6.269   1.031 -0.3362 -1.3907  4.7068
  977MOL0     H34770  -0.848   6.420   1.043 -0.7774 -0.9712  2.4247
  977MOL0     H34771  -0.543   6.426   0.996  1.3573  4.8895 -0.3884
  977MOL0     H34772  -0.656   6.565   1.003 -1.9938 -0.6836  0.0650
  977MOL0     H34773  -0.680   6.326   0.803 -1.5735 -0.3906  0.6589
  977MOL0     H34774  -0.760   6.482   0.804 -0.1982 -0.2415  0.1090
  977MOL0     H34775  -0.621   6.700   0.716  1.7120  1.4745 -1.9705
  977MOL0     H34776  -0.318   6.685   0.467  0.5835 -3.0058  1.8774
  977MOL0     H34777  -0.390   6.796   0.588  0.1649 -0.6692  0.0491
  977MOL0     H34778  -0.561   6.722   0.365  0.2410 -0.0886  0.2605
  977MOL0     H34779  -0.569   6.862   0.467  2.2534 -1.4889  3.8156
  977MOL0     H34780  -0.373   6.802   0.231 -1.8046 -2.9589  0.9991
  977MOL0     H34781  -0.469   6.955   0.254  0.4150  0.0807 -0.3092
  977MOL0     H34782  -0.328   7.021   0.431 -1.6242  0.9138 -0.9694
  977MOL0     H34783  -0.209   6.890   0.402  2.4577 -1.6219 -4.9738
  977MOL0     H34784  -0.107   7.079   0.476  1.8533  3.7779  2.8114
  977MOL0     H34785   0.221   7.204   0.559 -0.3026  1.2078  0.5318
  977MOL0     H34786   0.053   7.171   0.620 -0.5575 -1.7058 -2.3609
  977MOL0     H34787   0.113   7.333   0.597 -0.8752  0.9012 -1.4221
  977MOL0     H34788   0.265   7.625   0.070 -0.1559 -0.2250  1.2025
  977MOL0     H34789   0.427   7.807   0.065  0.1991  0.4678 -0.8952
  977MOL0     H34790   0.682   7.810  -0.011 -0.5491 -2.4567  1.7070
  977MOL0     H34791   0.675   7.974   0.062  2.5113  0.6613 -3.5925
  977MOL0     H34792   0.892   7.875   0.203  0.3727 -0.3169 -0.3388
  977MOL0     H34793   0.914   7.826   0.026 -0.2121 -0.0375 -0.0307
  977MOL0     H34794   0.851   8.101   0.139  1.3530 -1.5392  2.3983
  977MOL0     H34795   0.883   8.063  -0.032 -3.2709 -1.3807 -0.4943
  977MOL0     H34796   1.117   7.999   0.080 -1.8690 -1.0419  0.5673
  977MOL0     H34797   1.082   8.069   0.231  1.2426 -0.2426  0.1426
  977MOL0     H34798   1.091   8.227  -0.028  0.1109  4.1704 -0.0986
  977MOL0     H34799   1.015   8.280   0.124 -2.1424 -1.4965 -2.3046
  977MOL0     H34800   1.297   8.187   0.066  2.1386 -0.3393  1.5634
  977MOL0     H34801   1.232   8.229   0.237 -2.2272 -0.2077 -0.2473
  977MOL0     H34802   1.160   8.453   0.090  0.7930  2.8339 -1.6929
  977MOL0     H34803   1.271   8.380  -0.017 -1.4727 -1.7352 -0.6056
  977MOL0     H34804   1.442   8.380   0.165 -2.0208 -1.7254  3.1667
  977MOL0     H34805   1.334   8.499   0.253 -0.8658 -4.6193  1.1394
  977MOL0     H34806   0.694   7.569   0.305 -0.9633  0.4591  1.3562
  977MOL0     H34807   0.509   7.376   0.300 -0.0128  0.3915  0.4230
  977MOL0     H34808   0.107   7.274   0.083 -1.3575 -0.3666 -0.7348
  977MOL0     H34809  -0.092   7.136   0.055  0.2149  0.8466 -0.4296
  977MOL0     H34810  -0.214   6.763   1.408  2.1925  1.2571  2.4493
  977MOL0     H34811  -0.018   6.828   1.286 -0.2023 -0.2017 -1.5751
  977MOL0     H34812   0.417   6.797   1.344  2.1553  2.5431  1.6048
  977MOL0     H34813   0.602   6.932   1.287  0.9730 -0.4996  1.0898
  977MOL0     H34814   0.810   6.862   0.902 -4.3553 -2.6375  0.3725
  977MOL0     H34815   0.704   7.004   0.930  0.5321  0.0057 -2.2417
  977MOL0     H34816   0.999   6.969   1.012 -0.2562  0.5178 -0.5156
  977MOL0     H34817   0.914   7.097   1.076 -0.2123  0.9226 -0.2384
  977MOL0     H34818   0.890   7.049   0.777 -2.2994  2.6708  0.2568
  977MOL0     H34819   0.864   7.198   0.868  0.8457  0.4794  0.2253
  977MOL0     H34820   1.116   7.184   0.923  0.1449  2.2486 -0.3075
  977MOL0     H34821   1.074   7.241   0.778 -2.2014  1.8569  5.4696
  977MOL0     H34822   1.295   6.895   0.682 -0.2823  0.3669 -1.2221
  977MOL0     H34823   0.692   6.676   0.952 -0.2467  0.8011 -0.2771
  977MOL0     H34824   0.482   6.444   0.985  1.9871  1.9412  0.6749
  977MOL0     H34825   0.383   6.584   0.899 -0.6182 -0.0890 -1.5143
  977MOL0     H34826   0.547   6.528   0.858 -0.2960 -0.0331 -0.7252
  978MOL0     O34827   1.146   8.005   9.070 -0.0683  0.3294 -0.3729
  978MOL0     C34828   1.097   7.965   9.174 -0.1002 -0.2460  0.4371
  978MOL0     O34829   1.029   8.038   9.252  0.4359 -0.2777 -0.5681
  978MOL0     C34830   0.998   8.161   9.205  0.1762  0.6356  0.4430
  978MOL0     C34831   1.088   8.271   9.212  0.1135  0.0092 -0.0409
  978MOL0     C34832   1.055   8.394   9.145 -0.1096 -0.8718  0.5564
  978MOL0     C34833   0.931   8.417   9.100  0.3079  0.2208 -0.0863
  978MOL0     O34834   0.892   8.540   9.054  0.4857  0.0453  0.1150
  978MOL0     C34835   0.766   8.560   8.995 -0.7085  0.2207  0.4009
  978MOL0     C34836   0.776   8.510   8.850 -0.7019 -0.2003 -0.2630
  978MOL0     C34837   0.691   8.597   8.752 -0.7147  0.5382 -0.4020
  978MOL0     C34838   0.725   8.566   8.606  0.8655 -0.3211  0.3820
  978MOL0     C34839   0.627   8.614   8.497  0.0014  0.0291  1.2504
  978MOL0     C34840   0.482   8.575   8.535 -0.4837  0.9191 -0.0682
  978MOL0     C34841   0.375   8.564   8.416  0.5713 -0.1540  0.5417
  978MOL0     C34842   0.242   8.518   8.471  0.2516  0.3961 -1.1120
  978MOL0     N34843   0.136   8.530   8.373  1.0815 -0.5347 -0.0334
  978MOL0     C34844   0.011   8.596   8.394  0.9216 -0.3574 -0.2416
  978MOL0     C34845  -0.048   8.586   8.276 -1.0622  0.0348 -0.2288
  978MOL0     C34846  -0.178   8.613   8.210 -0.4092 -0.7050 -0.4624
  978MOL0     C34847  -0.273   8.486   8.188 -0.8556 -0.5012  0.6332
  978MOL0     C34848  -0.212   8.396   8.083 -0.0834  0.2245 -0.3575
  978MOL0     C34849  -0.310   8.288   8.034  0.1730 -0.0015  1.5235
  978MOL0     O34850  -0.364   8.190   8.127  0.5286 -0.9422 -0.4076
  978MOL0     C34851  -0.499   8.142   8.122 -0.0332 -1.0663 -0.0208
  978MOL0     C34852  -0.596   8.218   8.055  0.3367  0.2043  0.4184
  978MOL0     C34853  -0.728   8.170   8.054 -0.2546  0.3067 -0.2100
  978MOL0     C34854  -0.830   8.247   7.976 -0.0574  0.6038  0.0375
  978MOL0     C34855  -0.757   8.046   8.117  0.5250 -0.3107 -0.1310
  978MOL0     C34856  -0.884   7.988   8.119 -0.0871  0.0524  0.6452
  978MOL0     O34857  -0.931   7.905   8.018  0.3700 -0.0316  0.6651
  978MOL0     C34858  -1.063   7.879   8.021  0.5238  0.0197  0.4961
  978MOL0     C34859  -1.111   7.776   8.101 -0.3115  0.2118 -0.3115
  978MOL0     C34860  -1.246   7.723   8.078 -0.9711 -0.4738  0.1054
  978MOL0     C34861  -1.334   7.795   7.979 -1.1267 -0.5927 -0.3664
  978MOL0     O34862  -1.460   7.753   7.949 -0.5595 -0.4473 -0.1593
  978MOL0     C34863  -1.516   7.658   8.033  0.4325 -0.1435  0.1023
  978MOL0     C34864  -1.493   7.511   7.982  0.9087 -0.6406  0.2930
  978MOL0     C34865  -1.514   7.416   8.103  0.7780  0.2739  0.9845
  978MOL0     C34866  -1.461   7.278   8.065 -1.0147  0.2432  0.4694
  978MOL0     C34867  -1.402   7.201   8.189  0.9133 -0.5905  0.9453
  978MOL0     C34868  -1.344   7.067   8.148 -1.2395  0.5483  0.2141
  978MOL0     C34869  -1.334   6.974   8.267  0.3028  0.0956 -0.1754
  978MOL0     C34870  -1.302   6.829   8.248 -0.4238  0.0021  0.5531
  978MOL0    Cl34871  -1.341   6.729   8.389  0.6382  0.2714  0.6911
  978MOL0     C34872  -1.287   7.908   7.907 -0.5244  0.1498  0.3267
  978MOL0     C34873  -1.153   7.948   7.930  0.1391  0.6764  0.7978
  978MOL0     O34874  -0.962   8.032   8.208 -0.9046 -0.6947  0.4404
  978MOL0     C34875  -0.658   7.969   8.178  0.4092 -0.8402 -0.2492
  978MOL0     C34876  -0.529   8.019   8.184 -0.6816  0.7253  0.3463
  978MOL0     N34877   0.049   8.548   8.188  0.0809  0.0226 -0.0906
  978MOL0     N34878   0.150   8.495   8.246  0.1808 -0.5321 -0.4774
  978MOL0     C34879   0.843   8.305   9.094  0.2876  0.3147  0.2421
  978MOL0     C34880   0.876   8.177   9.139  0.6525 -0.8789 -0.1253
  978MOL0     C34881   1.110   7.832   9.210  0.3546  0.5349  0.0390
  978MOL0     C34882   1.138   7.801   9.338  0.3595  0.4156 -0.8479
  978MOL0     C34883   1.159   7.679   9.390 -0.1811  1.5950 -0.7038
  978MOL0     C34884   1.161   7.562   9.305 -0.0643 -0.4390  0.0367
  978MOL0     O34885   1.193   7.432   9.346  0.6210 -0.1867  0.1136
  978MOL0     C34886   1.243   7.415   9.483 -0.4214 -0.1351 -0.1997
  978MOL0     C34887   1.242   7.265   9.516 -0.9026 -0.3032 -0.2812
  978MOL0     C34888   1.326   7.173   9.424  0.6183 -0.3401 -0.2398
  978MOL0     C34889   1.328   7.028   9.472  0.8229  0.5370  0.4425
  978MOL0     C34890   1.195   6.965   9.474  0.2330 -0.0291  0.4132
  978MOL0     C34891   1.093   6.901   9.454  0.1564 -0.6571  0.8407
  978MOL0     C34892   1.131   7.590   9.171 -0.1381 -1.1373  0.4769
  978MOL0     C34893   1.098   7.721   9.120 -0.1057  1.1680  0.6009
  978MOL0     C34894   1.079   7.745   8.978  0.5623  0.0854  0.7259
  978MOL0     H34895   1.176   8.251   9.273  0.1350 -1.3288 -0.4662
  978MOL0     H34896   1.128   8.474   9.151  0.0139 -0.5113 -3.4405
  978MOL0     H34897   0.760   8.669   8.986  0.1424  0.2821  0.4490
  978MOL0     H34898   0.680   8.527   9.052 -2.0710 -0.3377 -1.8375
  978MOL0     H34899   0.878   8.529   8.816 -0.6263 -1.5815 -0.8911
  978MOL0     H34900   0.763   8.401   8.847  3.4592 -0.8763  0.4549
  978MOL0     H34901   0.584   8.579   8.768 -0.3385 -0.4396  1.3666
  978MOL0     H34902   0.698   8.702   8.781  0.4061  0.2021  0.6419
  978MOL0     H34903   0.825   8.608   8.597  1.1093 -0.6404  1.4270
  978MOL0     H34904   0.732   8.458   8.591 -0.1495 -0.6100  1.7596
  978MOL0     H34905   0.658   8.569   8.403 -0.5288 -0.6254  1.3853
  978MOL0     H34906   0.642   8.721   8.475  1.7095 -0.6737 -1.5194
  978MOL0     H34907   0.487   8.483   8.595 -2.3634  0.4930 -0.5015
  978MOL0     H34908   0.447   8.653   8.603 -0.4000  1.4061 -0.5873
  978MOL0     H34909   0.411   8.496   8.338 -0.2666 -0.7066  0.6241
  978MOL0     H34910   0.360   8.664   8.375 -0.1883 -1.2781 -2.2043
  978MOL0     H34911   0.252   8.411   8.491 -1.3522  0.1940 -1.3275
  978MOL0     H34912   0.221   8.570   8.565  0.7158  1.1833 -1.4325
  978MOL0     H34913  -0.039   8.624   8.487  1.7451 -1.5040  0.5813
  978MOL0     H34914  -0.155   8.651   8.110  2.3064  1.8318  0.9818
  978MOL0     H34915  -0.217   8.694   8.272 -0.4472  0.5477 -2.0523
  978MOL0     H34916  -0.306   8.427   8.274 -0.7031 -0.8347  0.4651
  978MOL0     H34917  -0.366   8.539   8.163 -2.3501 -0.6367  4.9441
  978MOL0     H34918  -0.181   8.458   7.999  1.4798 -0.4402 -0.3024
  978MOL0     H34919  -0.128   8.338   8.122 -0.5205 -1.0717 -1.2728
  978MOL0     H34920  -0.387   8.343   7.979  3.1760  1.2256 -1.8252
  978MOL0     H34921  -0.266   8.231   7.952 -2.2460 -1.1244  0.9127
  978MOL0     H34922  -0.572   8.313   8.010 -3.1235  1.0046  0.0203
  978MOL0     H34923  -0.784   8.312   7.902 -0.8792  1.3912  0.2116
  978MOL0     H34924  -0.885   8.313   8.044 -0.6531  0.0878  0.0706
  978MOL0     H34925  -0.895   8.179   7.920  0.4128 -1.0058  1.3484
  978MOL0     H34926  -1.049   7.733   8.178 -0.5666 -0.2525 -0.3607
  978MOL0     H34927  -1.272   7.633   8.133 -0.4255  1.3755  3.6841
  978MOL0     H34928  -1.493   7.670   8.139  0.1800  1.7501 -0.0172
  978MOL0     H34929  -1.624   7.674   8.028  0.3314 -0.1570  1.9018
  978MOL0     H34930  -1.563   7.475   7.906 -2.3279  0.0356  2.6960
  978MOL0     H34931  -1.389   7.489   7.958  1.2202 -1.1148  1.9256
  978MOL0     H34932  -1.620   7.407   8.129  1.0428 -2.8834  1.4111
  978MOL0     H34933  -1.464   7.459   8.190 -0.4192  2.0558  0.8320
  978MOL0     H34934  -1.379   7.283   7.992 -1.0141 -1.0933  0.3670
  978MOL0     H34935  -1.539   7.223   8.013  2.9259 -2.3668 -3.3462
  978MOL0     H34936  -1.317   7.259   8.227 -1.5480  2.9063  1.5524
  978MOL0     H34937  -1.481   7.203   8.264  0.2648  1.3630  0.2729
  978MOL0     H34938  -1.243   7.086   8.109 -1.0675  1.4122  1.0222
  978MOL0     H34939  -1.411   7.014   8.080  2.3566 -2.3906 -1.4030
  978MOL0     H34940  -1.433   6.979   8.314  0.1611 -0.8245 -0.3594
  978MOL0     H34941  -1.258   7.014   8.334  0.6869  1.2343 -1.2512
  978MOL0     H34942  -1.195   6.819   8.226 -0.1666 -0.5468  1.9549
  978MOL0     H34943  -1.354   6.793   8.159 -2.8286  3.1783  0.4996
  978MOL0     H34944  -1.352   7.961   7.838 -0.8979 -1.6769 -0.7969
  978MOL0     H34945  -1.115   8.039   7.886  1.3558  0.8844  2.1999
  978MOL0     H34946  -0.682   7.867   8.208 -1.6572 -0.1160  0.7382
  978MOL0     H34947  -0.447   7.969   8.234 -2.3153  0.8337  3.3470
  978MOL0     H34948   0.746   8.314   9.046 -0.2124 -0.8959  0.9776
  978MOL0     H34949   0.809   8.094   9.118 -0.7867  0.6764 -2.0562
  978MOL0     H34950   1.158   7.881   9.408 -1.9445  1.9605 -1.8387
  978MOL0     H34951   1.178   7.668   9.496 -1.1522  2.1947 -0.4544
  978MOL0     H34952   1.340   7.467   9.487 -0.5488  0.0468  0.7463
  978MOL0     H34953   1.179   7.462   9.558 -0.2518 -0.4718  0.1591
  978MOL0     H34954   1.144   7.220   9.531 -0.2818 -1.1259  1.7723
  978MOL0     H34955   1.294   7.255   9.612 -4.0445  0.6999  1.6587
  978MOL0     H34956   1.275   7.185   9.327 -0.6053 -0.8586  0.3129
  978MOL0     H34957   1.420   7.227   9.417 -0.3962  1.6488  0.7902
  978MOL0     H34958   1.371   7.006   9.570 -1.2491  3.1691  2.0630
  978MOL0     H34959   1.384   6.965   9.402 -2.2117 -0.7366 -0.9946
  978MOL0     H34960   0.999   6.855   9.431 -0.7099  1.1138  0.7181
  978MOL0     H34961   1.127   7.511   9.096  0.0020 -0.5861 -0.1230
  978MOL0     H34962   1.172   7.776   8.929 -0.5023  1.2209 -0.6698
  978MOL0     H34963   1.034   7.665   8.919 -0.2044  1.3641 -0.4955
  978MOL0     H34964   1.004   7.825   8.971  0.7234  0.4482  2.6813
  979MOL0     O34965   5.762   7.949   0.775 -0.0783 -0.3392 -0.0968
  979MOL0     C34966   5.870   7.983   0.815 -0.0595  0.0323 -0.0910
  979MOL0     O34967   5.956   7.909   0.892 -0.0829  0.2963 -0.3108
  979MOL0     C34968   5.943   7.777   0.900 -0.6342  0.2220  0.2544
  979MOL0     C34969   6.025   7.686   0.827  1.3435 -0.3557 -0.4439
  979MOL0     C34970   6.002   7.547   0.849 -0.4330  0.0404  0.3936
  979MOL0     C34971   5.911   7.504   0.946 -0.7460 -0.5818  0.2312
  979MOL0     O34972   5.914   7.370   0.977  0.4901 -0.1447  0.7420
  979MOL0     C34973   6.022   7.330   1.063  0.0683 -1.3357  0.3193
  979MOL0     C34974   5.970   7.326   1.217 -0.4590  0.3354 -0.5121
  979MOL0     C34975   5.995   7.193   1.292 -0.8525 -1.1272 -0.8270
  979MOL0     C34976   5.928   7.193   1.433 -0.2656  0.1896 -0.9436
  979MOL0     C34977   5.922   7.049   1.487  1.0494  0.2516 -0.3155
  979MOL0     C34978   6.030   7.019   1.600  0.0043  0.1149 -1.1731
  979MOL0     C34979   5.995   7.079   1.728  1.0013 -0.0214  0.3536
  979MOL0     C34980   5.904   6.977   1.811 -0.2860  0.0378  0.0442
  979MOL0     N34981   5.978   6.906   1.909 -0.5516  0.2797 -0.1675
  979MOL0     C34982   6.027   6.775   1.896  0.1319 -0.8458  0.3905
  979MOL0     C34983   6.101   6.761   2.006  0.5521 -0.1212  0.3372
  979MOL0     C34984   6.167   6.630   2.054 -1.1468  0.2084  0.0221
  979MOL0     C34985   6.296   6.638   2.138  0.1618  0.4634 -0.0722
  979MOL0     C34986   6.288   6.709   2.274 -0.3053  0.8467  0.1190
  979MOL0     C34987   6.413   6.689   2.357 -0.3178 -0.1400  0.2113
  979MOL0     O34988   6.430   6.548   2.377  0.0280  0.2141  1.1512
  979MOL0     C34989   6.511   6.494   2.471 -0.9296 -0.6251  0.1304
  979MOL0     C34990   6.500   6.359   2.506 -0.8206  0.4984  1.1539
  979MOL0     C34991   6.597   6.305   2.603  0.3077  0.8176  0.4137
  979MOL0     C34992   6.588   6.157   2.611  0.2629  0.1314  0.8494
  979MOL0     C34993   6.700   6.387   2.665  0.8764 -0.2531 -0.9627
  979MOL0     C34994   6.783   6.344   2.772  0.0265 -0.3321 -0.3069
  979MOL0     O34995   6.898   6.409   2.783  0.9509  0.0099  0.1375
  979MOL0     C34996   6.983   6.391   2.887 -0.9154  0.3575 -0.1777
  979MOL0     C34997   7.011   6.270   2.948 -0.0913 -0.4948 -0.3711
  979MOL0     C34998   7.087   6.260   3.058 -0.3000 -0.3046 -0.6923
  979MOL0     C34999   7.157   6.379   3.105  0.6213 -0.0461 -0.1957
  979MOL0     O35000   7.232   6.361   3.218  0.0424  0.6410 -0.2201
  979MOL0     C35001   7.202   6.445   3.331  0.2217 -0.3109  1.4115
  979MOL0     C35002   7.219   6.378   3.462  0.3436  0.4572 -0.6563
  979MOL0     C35003   7.360   6.322   3.487 -0.1342 -0.5617 -0.3329
  979MOL0     C35004   7.463   6.426   3.556  1.0678  0.0067 -0.2216
  979MOL0     C35005   7.594   6.373   3.584  0.5289 -0.1810  0.2355
  979MOL0     C35006   7.664   6.467   3.673  0.3959 -0.5352 -0.0366
  979MOL0     C35007   7.684   6.611   3.625  0.0049 -0.4612 -0.6103
  979MOL0     C35008   7.786   6.690   3.702 -1.1550  0.2662 -1.0679
  979MOL0    Cl35009   7.830   6.852   3.633 -0.2238 -0.3379  0.1601
  979MOL0     C35010   7.139   6.499   3.029 -0.0362  0.1458  0.3840
  979MOL0     C35011   7.051   6.501   2.921 -0.2377 -0.7555  0.4708
  979MOL0     O35012   6.741   6.257   2.852  0.1129 -0.0252  0.5502
  979MOL0     C35013   6.697   6.517   2.624  0.0293  0.3066  0.3962
  979MOL0     C35014   6.607   6.568   2.536 -0.6027 -0.4008 -0.1409
  979MOL0     N35015   6.109   6.889   2.068  0.4836  0.2850  0.8032
  979MOL0     N35016   6.022   6.971   2.019  0.3216  0.9457  0.3607
  979MOL0     C35017   5.823   7.595   1.003 -0.0520  0.7719  0.0161
  979MOL0     C35018   5.833   7.727   0.980 -0.2136  0.0597  0.2303
  979MOL0     C35019   5.916   8.117   0.778 -0.7672 -0.3202 -0.4458
  979MOL0     C35020   5.821   8.219   0.745 -0.2580  0.3204  0.4347
  979MOL0     C35021   5.851   8.347   0.705  0.1113 -0.5865 -0.8434
  979MOL0     C35022   5.978   8.393   0.703 -0.3991  0.7516  0.4671
  979MOL0     O35023   6.008   8.527   0.687  0.1701  0.1669  0.0388
  979MOL0     C35024   5.914   8.602   0.623 -0.2407 -0.3856  0.2803
  979MOL0     C35025   5.980   8.702   0.526  0.0662 -0.8654  0.4634
  979MOL0     C35026   6.101   8.777   0.566  0.2709 -0.6073 -0.5289
  979MOL0     C35027   6.065   8.872   0.683  0.3282  0.1678 -0.2321
  979MOL0     C35028   6.170   8.977   0.687  0.0944 -0.1465 -0.8796
  979MOL0     C35029   6.250   9.064   0.668  0.3946 -0.5924 -0.1694
  979MOL0     C35030   6.072   8.302   0.743 -0.2427 -0.9200  0.1207
  979MOL0     C35031   6.055   8.163   0.772  0.2517 -0.2743  0.9053
  979MOL0     C35032   6.176   8.084   0.793 -0.7587  0.5449  0.5735
  979MOL0     H35033   6.089   7.723   0.748 -1.0794  2.4412 -1.3041
  979MOL0     H35034   6.044   7.461   0.798 -3.0205 -1.0802  0.0206
  979MOL0     H35035   6.097   7.409   1.054 -0.6877 -0.5367  0.8107
  979MOL0     H35036   6.044   7.227   1.032  1.0030 -0.9025 -0.4902
  979MOL0     H35037   6.012   7.407   1.276  2.0233  1.0031 -2.9641
  979MOL0     H35038   5.861   7.336   1.215 -0.5536 -0.4956  0.0067
  979MOL0     H35039   5.956   7.118   1.223  0.9735 -1.5445 -1.4660
  979MOL0     H35040   6.100   7.170   1.311 -0.6155 -0.2136 -0.9740
  979MOL0     H35041   5.977   7.258   1.506 -1.4251 -1.8643  1.8413
  979MOL0     H35042   5.826   7.231   1.422 -0.9450 -0.2232  2.5267
  979MOL0     H35043   5.922   6.991   1.395  0.5625  3.4017 -2.4590
  979MOL0     H35044   5.823   7.029   1.530 -0.0075 -0.4661 -2.9355
  979MOL0     H35045   6.026   6.910   1.609 -0.2897  0.3055  2.2086
  979MOL0     H35046   6.127   7.051   1.562  0.8366  2.0890  2.2006
  979MOL0     H35047   5.944   7.175   1.716 -0.7440 -1.1044 -1.4344
  979MOL0     H35048   6.087   7.091   1.786 -0.4650 -1.0297  3.0768
  979MOL0     H35049   5.819   7.028   1.858  0.0522  2.5081 -1.8159
  979MOL0     H35050   5.861   6.899   1.748  0.5154 -0.5205  0.1679
  979MOL0     H35051   6.006   6.697   1.823  1.5122 -2.0881  1.2408
  979MOL0     H35052   6.192   6.573   1.964 -1.4622 -0.1336  0.1490
  979MOL0     H35053   6.088   6.584   2.114  0.2162  0.3857  2.0455
  979MOL0     H35054   6.315   6.532   2.157 -0.3569  0.8575  3.1898
  979MOL0     H35055   6.373   6.684   2.076 -0.5049  2.1264  0.2856
  979MOL0     H35056   6.269   6.816   2.273 -2.2174  0.5417 -0.0858
  979MOL0     H35057   6.205   6.661   2.326 -2.2324  0.6530 -2.9061
  979MOL0     H35058   6.504   6.726   2.309 -0.1485 -0.5724  0.1960
  979MOL0     H35059   6.409   6.741   2.453 -0.7455 -0.8298  0.5775
  979MOL0     H35060   6.435   6.304   2.440  1.0991  2.2177 -2.4719
  979MOL0     H35061   6.511   6.118   2.543  0.8466 -0.4681  0.5158
  979MOL0     H35062   6.561   6.128   2.713  0.0659  2.1557  1.4201
  979MOL0     H35063   6.682   6.115   2.573 -0.7068 -1.9965  0.6629
  979MOL0     H35064   6.982   6.180   2.894  0.4926 -0.7953 -0.1939
  979MOL0     H35065   7.107   6.172   3.118  1.8912  1.9149  2.0980
  979MOL0     H35066   7.253   6.541   3.336 -1.4018  0.9426 -2.6159
  979MOL0     H35067   7.095   6.469   3.328  0.7991  2.3467 -0.3624
  979MOL0     H35068   7.184   6.441   3.545  0.5675 -0.1052 -0.1213
  979MOL0     H35069   7.158   6.287   3.467  0.5986  0.3151 -0.0129
  979MOL0     H35070   7.403   6.280   3.395 -0.2170  0.9397 -1.0874
  979MOL0     H35071   7.342   6.237   3.554 -4.9262 -0.1118 -0.6688
  979MOL0     H35072   7.409   6.465   3.643 -1.0653  1.7694 -2.2126
  979MOL0     H35073   7.475   6.516   3.496  2.5468  1.3778  1.9958
  979MOL0     H35074   7.587   6.271   3.621  1.2780 -0.0320  0.8116
  979MOL0     H35075   7.650   6.373   3.490  2.0873  1.0819  1.1108
  979MOL0     H35076   7.761   6.418   3.687  0.2801 -0.2387  2.0204
  979MOL0     H35077   7.605   6.472   3.765 -0.4930  1.9243 -0.6712
  979MOL0     H35078   7.587   6.661   3.631  0.5958  0.5898  1.1216
  979MOL0     H35079   7.717   6.622   3.521 -1.5563  0.1500 -1.0737
  979MOL0     H35080   7.880   6.635   3.700  1.0393  3.6899 -0.3420
  979MOL0     H35081   7.744   6.700   3.802 -2.0543  0.7213 -1.4763
  979MOL0     H35082   7.190   6.591   3.056  1.2215 -0.4946  0.2863
  979MOL0     H35083   7.027   6.596   2.873 -0.9254 -0.7783  0.7631
  979MOL0     H35084   6.774   6.584   2.661  2.0979 -0.5229 -2.1123
  979MOL0     H35085   6.630   6.670   2.506  1.4812 -1.6595 -3.3029
  979MOL0     H35086   5.746   7.560   1.072  1.1312  0.0317  1.0118
  979MOL0     H35087   5.754   7.785   1.025 -0.4641  1.2643 -1.6400
  979MOL0     H35088   5.719   8.186   0.761 -0.0142  0.4947  2.7021
  979MOL0     H35089   5.769   8.418   0.691  0.0144 -0.4375  0.3459
  979MOL0     H35090   5.837   8.550   0.565 -0.6443  0.2445  0.2355
  979MOL0     H35091   5.863   8.662   0.698  2.2551 -0.0797  1.8416
  979MOL0     H35092   5.904   8.771   0.488 -1.1647 -1.5150  1.6924
  979MOL0     H35093   6.012   8.636   0.444  3.5508 -0.2119  1.1155
  979MOL0     H35094   6.180   8.706   0.592 -1.2711 -2.5864 -0.9376
  979MOL0     H35095   6.138   8.833   0.480  1.8661  2.3570  1.9192
  979MOL0     H35096   6.044   8.819   0.776  1.8437 -1.7890 -0.9292
  979MOL0     H35097   5.974   8.926   0.655  0.0342 -0.6364 -0.8710
  979MOL0     H35098   6.325   9.140   0.659  0.6641 -0.8155  0.1257
  979MOL0     H35099   6.170   8.349   0.741 -1.3038  1.4450 -2.7483
  979MOL0     H35100   6.265   8.144   0.776  0.2201 -1.4493 -1.9282
  979MOL0     H35101   6.171   8.039   0.893 -0.5660  0.9472  0.7672
  979MOL0     H35102   6.172   8.000   0.723 -1.1392 -0.4345  1.7254
  980MOL0     O35103   1.867   7.751   0.223 -0.6096 -0.6099 -0.2035
  980MOL0     C35104   1.796   7.724   0.316  0.2424 -1.1904 -0.5559
  980MOL0     O35105   1.714   7.818   0.383 -0.0665 -0.4309  0.5152
  980MOL0     C35106   1.716   7.952   0.360 -0.5550  0.0715  0.5700
  980MOL0     C35107   1.841   8.011   0.383 -0.6232 -0.5622 -0.5512
  980MOL0     C35108   1.857   8.151   0.396 -0.0128 -0.6919 -0.1362
  980MOL0     C35109   1.737   8.232   0.392 -0.4308  0.2203 -0.2592
  980MOL0     O35110   1.760   8.364   0.399  0.6347 -0.7404  0.4247
  980MOL0     C35111   1.655   8.453   0.443  0.2243  0.2499 -0.8804
  980MOL0     C35112   1.714   8.575   0.513 -0.1646  0.6465  0.5158
  980MOL0     C35113   1.597   8.663   0.567 -0.0499  0.3438 -0.1343
  980MOL0     C35114   1.657   8.781   0.640 -1.0067  0.7459  0.1563
  980MOL0     C35115   1.545   8.869   0.701 -0.4440  0.4801  0.9645
  980MOL0     C35116   1.489   8.821   0.834  0.6190 -0.3988  0.5193
  980MOL0     C35117   1.355   8.890   0.878  0.9281  0.1081 -0.6196
  980MOL0     C35118   1.233   8.807   0.851 -0.5461 -0.0122 -1.0544
  980MOL0     N35119   1.204   8.768   0.719  0.6243  0.2367  0.2202
  980MOL0     C35120   1.165   8.845   0.611  0.1609 -0.0548  0.5018
  980MOL0     C35121   1.176   8.763   0.503  0.1512 -0.8941 -0.1161
  980MOL0     C35122   1.137   8.808   0.369  0.1279  0.4037  0.7704
  980MOL0     C35123   1.250   8.822   0.274  0.1850 -0.1915  0.3003
  980MOL0     C35124   1.355   8.939   0.314 -0.1119  0.1526  1.2479
  980MOL0     C35125   1.483   8.934   0.226  0.4872 -0.8303 -0.8837
  980MOL0     O35126   1.580   9.019   0.291 -0.1753  0.3119 -0.3413
  980MOL0     C35127   1.712   8.984   0.273  0.0706 -0.2886 -1.0002
  980MOL0     C35128   1.763   8.862   0.232 -0.4447  0.3705 -0.2667
  980MOL0     C35129   1.902   8.841   0.222  0.6281 -0.1674 -0.6387
  980MOL0     C35130   1.952   8.701   0.203  0.4852 -0.0345 -0.1447
  980MOL0     C35131   1.990   8.945   0.229  0.3377 -0.4545 -0.3767
  980MOL0     C35132   2.135   8.928   0.222 -0.2149 -0.1784  0.6789
  980MOL0     O35133   2.196   9.013   0.134  0.3445  0.0184  0.5056
  980MOL0     C35134   2.330   9.037   0.148  0.3210 -0.0771 -0.1612
  980MOL0     C35135   2.380   9.171   0.152 -0.0103  0.1615  0.5567
  980MOL0     C35136   2.519   9.193   0.177  1.0747  0.0477 -0.3714
  980MOL0     C35137   2.608   9.089   0.173 -0.3519 -1.3875 -0.3550
  980MOL0     O35138   2.746   9.117   0.204  0.1162  0.3558  0.2480
  980MOL0     C35139   2.840   9.017   0.165 -0.8401 -0.2446 -0.0655
  980MOL0     C35140   2.980   9.076   0.189 -0.1952  0.0311 -0.3379
  980MOL0     C35141   3.025   9.055   0.339  0.5347 -0.0606  0.7213
  980MOL0     C35142   3.174   9.088   0.342  0.4450 -0.4262 -0.7668
  980MOL0     C35143   3.247   9.056   0.477  0.0689  0.6730 -1.0478
  980MOL0     C35144   3.387   9.097   0.485 -0.6174 -0.5682  0.2636
  980MOL0     C35145   3.402   9.248   0.482 -1.0118  0.4576 -0.2712
  980MOL0     C35146   3.536   9.284   0.542  0.3846  0.8886 -0.4093
  980MOL0    Cl35147   3.540   9.261   0.717  0.0630 -0.0866 -0.0751
  980MOL0     C35148   2.566   8.960   0.161  0.6260  0.7413  0.4208
  980MOL0     C35149   2.432   8.936   0.144  0.8469 -0.2856 -0.0740
  980MOL0     O35150   2.193   8.854   0.296  0.1186  0.3260 -0.6846
  980MOL0     C35151   1.939   9.071   0.245  0.2909  0.5056 -0.1083
  980MOL0     C35152   1.804   9.088   0.261  0.7968  0.3458 -0.6590
  980MOL0     N35153   1.204   8.634   0.552  0.3508  0.4972  0.0940
  980MOL0     N35154   1.227   8.642   0.670 -0.3912 -0.1910 -0.5581
  980MOL0     C35155   1.608   8.177   0.373  0.3281 -0.3247 -0.4490
  980MOL0     C35156   1.600   8.035   0.364  0.0284  0.9799  1.1879
  980MOL0     C35157   1.759   7.580   0.348 -0.3744 -0.1508  0.4638
  980MOL0     C35158   1.662   7.558   0.439 -0.1088 -1.0285 -0.5989
  980MOL0     C35159   1.622   7.439   0.489  0.0367  0.4011  0.0906
  980MOL0     C35160   1.673   7.325   0.432 -0.0600 -0.5117 -0.3433
  980MOL0     O35161   1.616   7.204   0.475  0.2807  0.4264  0.0372
  980MOL0     C35162   1.697   7.086   0.458  0.6729 -0.4690  0.0872
  980MOL0     C35163   1.646   6.999   0.572 -0.4712  0.1990 -0.4477
  980MOL0     C35164   1.730   6.862   0.559  0.3887 -0.4267  1.1679
  980MOL0     C35165   1.663   6.738   0.618  0.5142  0.4522 -0.1653
  980MOL0     C35166   1.706   6.611   0.553  0.4651 -0.3087 -0.8367
  980MOL0     C35167   1.748   6.517   0.498  0.7517  1.3265  0.0673
  980MOL0     C35168   1.765   7.338   0.327  0.0504 -0.1731  0.2346
  980MOL0     C35169   1.817   7.461   0.286 -0.3445  0.0871 -0.1355
  980MOL0     C35170   1.934   7.458   0.196 -0.3186  0.0447  0.0380
  980MOL0     H35171   1.934   7.958   0.400 -1.9679 -2.2027  2.4334
  980MOL0     H35172   1.958   8.192   0.392  0.4435 -1.7140  0.5143
  980MOL0     H35173   1.605   8.403   0.527  1.2714  0.3698 -0.1592
  980MOL0     H35174   1.579   8.478   0.369 -0.0644  4.6001  0.6293
  980MOL0     H35175   1.785   8.547   0.591  0.6980  1.6779  0.1286
  980MOL0     H35176   1.767   8.628   0.434 -0.2299 -0.5729 -0.3780
  980MOL0     H35177   1.535   8.695   0.483 -0.4738  1.2976  0.5283
  980MOL0     H35178   1.536   8.602   0.635  0.1981  0.0705 -0.1554
  980MOL0     H35179   1.731   8.743   0.712  0.1088  0.1516 -1.2445
  980MOL0     H35180   1.713   8.837   0.565 -1.0448  1.0448  0.3509
  980MOL0     H35181   1.464   8.879   0.628  1.1801  1.1209 -0.8418
  980MOL0     H35182   1.585   8.969   0.717  0.1359 -0.0137  2.8873
  980MOL0     H35183   1.471   8.713   0.833  2.7922 -0.8015 -0.4143
  980MOL0     H35184   1.561   8.847   0.912  0.7259 -2.6238  1.2542
  980MOL0     H35185   1.336   8.985   0.827  0.8592 -2.4367 -6.1006
  980MOL0     H35186   1.354   8.899   0.987  2.2764  3.0167 -0.7394
  980MOL0     H35187   1.238   8.718   0.915 -1.9991 -1.3502 -2.7159
  980MOL0     H35188   1.143   8.863   0.878  0.5032 -0.3037  4.2576
  980MOL0     H35189   1.153   8.952   0.592  2.4294 -0.2987 -3.2626
  980MOL0     H35190   1.082   8.903   0.374 -0.5867 -0.0426  1.7626
  980MOL0     H35191   1.074   8.735   0.318 -0.0839  2.3694 -1.9962
  980MOL0     H35192   1.291   8.721   0.277  0.4827 -0.1029 -0.4482
  980MOL0     H35193   1.216   8.854   0.174 -2.7283  0.3422  1.3539
  980MOL0     H35194   1.310   9.038   0.310  1.1720  0.7149 -0.6100
  980MOL0     H35195   1.395   8.914   0.413  3.3604 -2.2213 -0.5241
  980MOL0     H35196   1.511   8.828   0.224 -1.0907 -1.2628 -0.6063
  980MOL0     H35197   1.462   8.972   0.125  3.2428  2.8057 -0.3122
  980MOL0     H35198   1.695   8.778   0.221 -2.4116  2.0269 -1.5051
  980MOL0     H35199   2.040   8.699   0.138  0.1504  3.0413 -0.8425
  980MOL0     H35200   1.875   8.643   0.152 -1.2956  2.9099 -0.9971
  980MOL0     H35201   1.982   8.655   0.298  0.2913 -0.8377 -0.4630
  980MOL0     H35202   2.305   9.249   0.159 -0.8282 -0.0243 -3.5645
  980MOL0     H35203   2.553   9.295   0.193 -0.1375  0.8520 -2.4457
  980MOL0     H35204   2.830   8.922   0.220  0.2945  0.2040  0.9778
  980MOL0     H35205   2.827   9.008   0.057  0.1583  0.0832 -0.2282
  980MOL0     H35206   3.051   9.022   0.125  1.0999  1.3240 -0.0490
  980MOL0     H35207   2.987   9.182   0.163 -2.4303  0.0509 -0.9974
  980MOL0     H35208   3.001   8.958   0.384  0.2844  1.1229  3.3164
  980MOL0     H35209   2.969   9.119   0.408 -1.4786 -0.3754 -0.5210
  980MOL0     H35210   3.186   9.193   0.311  0.3987 -0.9295 -2.5922
  980MOL0     H35211   3.226   9.029   0.266 -0.4888 -0.1654 -1.6397
  980MOL0     H35212   3.189   9.087   0.565 -1.9596 -3.6229 -0.6434
  980MOL0     H35213   3.253   8.950   0.500  2.3808  0.9337 -0.1604
  980MOL0     H35214   3.442   9.040   0.409  0.6651 -0.6042  1.2001
  980MOL0     H35215   3.433   9.065   0.579  1.7424  4.0713  0.9774
  980MOL0     H35216   3.319   9.298   0.534 -0.3505  1.1435  0.1533
  980MOL0     H35217   3.393   9.279   0.377  1.9512 -2.1740 -1.4360
  980MOL0     H35218   3.562   9.387   0.514 -1.6149  0.9020 -2.4797
  980MOL0     H35219   3.611   9.216   0.502 -0.6041 -1.4577  1.4434
  980MOL0     H35220   2.635   8.877   0.171  1.1015  1.1008  0.1651
  980MOL0     H35221   2.392   8.838   0.120  2.6486 -0.7707 -1.2578
  980MOL0     H35222   2.006   9.157   0.241  1.1486  0.0320  2.3141
  980MOL0     H35223   1.761   9.187   0.276  0.6379 -0.1857  3.6699
  980MOL0     H35224   1.524   8.245   0.384  0.6520  0.1991 -1.1879
  980MOL0     H35225   1.504   7.985   0.357  0.2394  0.5745  1.1474
  980MOL0     H35226   1.613   7.636   0.495 -0.5544 -0.1825 -2.0952
  980MOL0     H35227   1.544   7.427   0.564  1.2521  1.5419  1.5834
  980MOL0     H35228   1.697   7.042   0.358  0.5099  1.2703 -0.7279
  980MOL0     H35229   1.799   7.117   0.480 -0.3744  4.6642 -0.9384
  980MOL0     H35230   1.540   6.974   0.565 -0.7197  0.2279  2.1670
  980MOL0     H35231   1.652   7.059   0.663  3.0044  0.2938 -0.5967
  980MOL0     H35232   1.752   6.850   0.452  1.8061  0.9492  1.2611
  980MOL0     H35233   1.827   6.875   0.608 -0.1922  0.5946  2.0779
  980MOL0     H35234   1.557   6.736   0.591  1.1145 -0.8764 -2.7039
  980MOL0     H35235   1.678   6.725   0.726 -0.5705 -0.9182 -0.1493
  980MOL0     H35236   1.789   6.428   0.455 -2.6839 -0.4600  0.0977
  980MOL0     H35237   1.795   7.238   0.296 -3.8728 -1.5526  0.3846
  980MOL0     H35238   1.999   7.543   0.219  0.0884  1.0080 -3.9124
  980MOL0     H35239   2.001   7.372   0.200  2.8025  2.2907 -0.3053
  980MOL0     H35240   1.902   7.471   0.092  0.0340  0.2116 -0.0515
  981MOL0     O35241   8.027   9.078   2.396  0.1784  0.4105  0.4022
  981MOL0     C35242   7.985   9.003   2.480 -0.1968  0.5358 -0.5859
  981MOL0     O35243   7.871   8.942   2.473  1.6409 -0.0968  0.2340
  981MOL0     C35244   7.782   8.966   2.372  0.5592 -0.3621 -0.3005
  981MOL0     C35245   7.729   9.095   2.381  0.6826 -0.2170 -0.0002
  981MOL0     C35246   7.654   9.154   2.280 -0.3779  0.1318 -0.0852
  981MOL0     C35247   7.622   9.079   2.163  0.5338 -0.7230  0.5268
  981MOL0     O35248   7.540   9.146   2.070 -0.6458  0.5583 -0.0882
  981MOL0     C35249   7.457   9.055   1.998 -0.7741 -0.3388 -0.0467
  981MOL0     C35250   7.335   9.137   1.946 -0.0651 -0.0425  0.0244
  981MOL0     C35251   7.354   9.190   1.802  0.6468 -0.2418 -0.1643
  981MOL0     C35252   7.230   9.260   1.765 -0.4205 -1.0587 -0.3906
  981MOL0     C35253   7.225   9.311   1.622 -0.4943  0.4601  1.0501
  981MOL0     C35254   7.184   9.202   1.522  1.0705  0.3721 -0.3018
  981MOL0     C35255   7.038   9.206   1.503  0.0697  0.0579  0.5588
  981MOL0     C35256   6.978   9.331   1.422  0.3822 -0.1639  0.4104
  981MOL0     N35257   6.833   9.321   1.400  0.0352  0.8734  1.2933
  981MOL0     C35258   6.735   9.298   1.498 -0.5363  0.4375  0.8782
  981MOL0     C35259   6.617   9.288   1.430  0.3198  0.4149  0.7231
  981MOL0     C35260   6.491   9.258   1.510  0.4102 -0.0977  1.5337
  981MOL0     C35261   6.371   9.304   1.427  0.2938 -0.0476 -0.3346
  981MOL0     C35262   6.237   9.315   1.491 -0.7833  0.1373  0.0149
  981MOL0     C35263   6.213   9.441   1.569  0.1111 -0.3741  0.5482
  981MOL0     O35264   6.079   9.431   1.619  0.7039 -0.8675 -0.2940
  981MOL0     C35265   5.974   9.449   1.535 -0.0459  0.3842  0.2667
  981MOL0     C35266   5.890   9.346   1.504  0.0321 -0.3340  0.4058
  981MOL0     C35267   5.774   9.373   1.428  0.5926 -0.5959 -1.0600
  981MOL0     C35268   5.676   9.256   1.399  0.1837  0.0276  0.5553
  981MOL0     C35269   5.750   9.504   1.381  0.5087 -0.5527 -0.3863
  981MOL0     C35270   5.631   9.564   1.313  0.0012  0.0593 -0.7711
  981MOL0     O35271   5.648   9.692   1.266  0.4097  0.4142  0.5964
  981MOL0     C35272   5.548   9.749   1.195 -0.1240 -0.4470 -1.5961
  981MOL0     C35273   5.436   9.797   1.267  0.2069 -0.4090 -0.6610
  981MOL0     C35274   5.330   9.831   1.193  0.9187 -0.5006 -0.0952
  981MOL0     C35275   5.340   9.856   1.053  0.1693  0.1393  0.2502
  981MOL0     O35276   5.225   9.895   0.981 -0.5934  0.4214 -0.1703
  981MOL0     C35277   5.198   9.816   0.862 -0.2901 -0.4117  0.0029
  981MOL0     C35278   5.185   9.668   0.908 -0.7338 -0.0632 -0.0287
  981MOL0     C35279   5.058   9.649   0.991  0.4373 -0.3418  0.4447
  981MOL0     C35280   5.071   9.540   1.098 -0.3929 -1.5397 -0.5103
  981MOL0     C35281   4.939   9.505   1.158 -0.2042  0.0096 -0.9125
  981MOL0     C35282   4.972   9.412   1.276 -0.1033  0.6485 -0.1490
  981MOL0     C35283   4.849   9.348   1.333 -0.4254  0.0741  0.3650
  981MOL0     C35284   4.883   9.221   1.416  0.2300  0.6575  0.2660
  981MOL0    Cl35285   4.736   9.119   1.444  0.1976 -0.1257  0.1858
  981MOL0     C35286   5.465   9.849   0.987 -0.0270  0.1147  0.6041
  981MOL0     C35287   5.565   9.785   1.058 -0.7996  0.5472 -0.0022
  981MOL0     O35288   5.526   9.511   1.336 -0.1617  0.4537  0.6091
  981MOL0     C35289   5.835   9.603   1.419  0.1314  0.1026 -0.5310
  981MOL0     C35290   5.961   9.574   1.476 -0.8476  0.4093  0.1793
  981MOL0     N35291   6.640   9.305   1.291 -0.2194 -0.3605 -0.4321
  981MOL0     N35292   6.771   9.320   1.271  0.4981  0.5981  0.1916
  981MOL0     C35293   7.677   8.947   2.150 -0.8900  0.5834 -0.3116
  981MOL0     C35294   7.753   8.892   2.259  0.4919 -0.8890  0.5443
  981MOL0     C35295   8.082   8.985   2.590 -0.2081 -0.4371  0.1745
  981MOL0     C35296   8.219   8.974   2.564 -0.3702  0.7173  0.8223
  981MOL0     C35297   8.306   8.933   2.668  0.0758  0.1208 -0.3776
  981MOL0     C35298   8.255   8.913   2.799  0.0869 -0.4832 -0.1043
  981MOL0     O35299   8.337   8.890   2.906 -0.3170  0.2781  0.1811
  981MOL0     C35300   8.460   8.961   2.908  0.6777 -0.7217  0.5500
  981MOL0     C35301   8.443   9.113   2.937  0.3305 -0.4002 -0.3905
  981MOL0     C35302   8.363   9.150   3.057  0.1875  1.2509 -0.5484
  981MOL0     C35303   8.367   9.299   3.081 -0.3778  0.5679 -0.0907
  981MOL0     C35304   8.278   9.325   3.195 -0.3349 -0.1581  0.0122
  981MOL0     C35305   8.203   9.339   3.290  0.2121  0.3012  0.2410
  981MOL0     C35306   8.127   8.941   2.820 -0.3672  0.6555 -0.7247
  981MOL0     C35307   8.036   8.972   2.722  0.8061  0.9631 -1.2914
  981MOL0     C35308   7.887   8.981   2.766  0.0256  0.1536 -0.5772
  981MOL0     H35309   7.736   9.160   2.468  1.4996  1.7953 -1.4879
  981MOL0     H35310   7.613   9.252   2.299 -0.1261  0.1569  0.3359
  981MOL0     H35311   7.425   8.974   2.064 -0.7301 -0.5644 -0.3012
  981MOL0     H35312   7.502   9.005   1.913  2.9900 -1.5685  2.4252
  981MOL0     H35313   7.242   9.080   1.960 -1.9418  3.0301  1.0577
  981MOL0     H35314   7.333   9.226   2.009 -0.3077  0.9274 -1.3086
  981MOL0     H35315   7.431   9.268   1.794 -2.5389  3.2396  0.4583
  981MOL0     H35316   7.372   9.113   1.726  1.3649  1.8404 -2.2258
  981MOL0     H35317   7.144   9.194   1.780 -0.8820 -0.8076 -1.8164
  981MOL0     H35318   7.213   9.340   1.838 -1.5196 -0.4940 -1.2377
  981MOL0     H35319   7.322   9.352   1.591  0.4619 -2.0134  0.5639
  981MOL0     H35320   7.155   9.396   1.618  1.2212  1.9587  1.4236
  981MOL0     H35321   7.213   9.222   1.419 -2.8444 -1.4858 -1.9675
  981MOL0     H35322   7.231   9.108   1.550  0.6122  0.2733  0.1563
  981MOL0     H35323   6.987   9.197   1.600 -1.1413  4.5440  0.5440
  981MOL0     H35324   6.999   9.124   1.441 -3.1521  2.8431 -1.4737
  981MOL0     H35325   6.979   9.419   1.487 -1.4520 -1.9934  3.0955
  981MOL0     H35326   7.038   9.348   1.332 -0.8273  1.4769 -0.1263
  981MOL0     H35327   6.751   9.292   1.605 -1.1527  3.3580  1.2202
  981MOL0     H35328   6.485   9.296   1.613 -1.4874 -1.3730  1.9573
  981MOL0     H35329   6.478   9.151   1.531  2.8172 -1.0904 -1.3649
  981MOL0     H35330   6.387   9.402   1.381  1.7995  0.9978  2.2093
  981MOL0     H35331   6.360   9.241   1.338  1.5582  3.6245 -3.3690
  981MOL0     H35332   6.160   9.302   1.414 -0.2837 -1.6459 -0.2366
  981MOL0     H35333   6.237   9.231   1.561  3.4983 -0.1502 -0.0714
  981MOL0     H35334   6.287   9.468   1.644  0.4846 -1.7820  0.7147
  981MOL0     H35335   6.216   9.522   1.495 -0.7473 -1.1081 -0.3319
  981MOL0     H35336   5.894   9.244   1.541  0.3413 -0.5443 -0.2026
  981MOL0     H35337   5.688   9.171   1.468 -0.1601  0.5349  1.2459
  981MOL0     H35338   5.707   9.222   1.300  1.2003 -0.3267  0.9794
  981MOL0     H35339   5.572   9.287   1.389  0.1953  1.4079  3.5734
  981MOL0     H35340   5.426   9.795   1.375 -1.0950 -2.2196 -0.7913
  981MOL0     H35341   5.241   9.850   1.253  0.4881 -1.8702 -0.2800
  981MOL0     H35342   5.100   9.851   0.827 -0.4373  0.5516  1.2662
  981MOL0     H35343   5.270   9.835   0.783  1.4318 -0.8415  1.4154
  981MOL0     H35344   5.194   9.589   0.833  1.8466 -1.1004  1.2484
  981MOL0     H35345   5.268   9.663   0.979  0.3022  0.6392 -1.1365
  981MOL0     H35346   4.974   9.620   0.927  1.2933  0.3158 -1.0029
  981MOL0     H35347   5.021   9.747   1.024  1.1153  0.2082 -0.4121
  981MOL0     H35348   5.144   9.579   1.170 -0.7142 -0.4731 -0.7375
  981MOL0     H35349   5.117   9.452   1.052 -0.1256 -1.6558 -0.0252
  981MOL0     H35350   4.888   9.589   1.205  4.0596  2.0387  0.5852
  981MOL0     H35351   4.877   9.452   1.084  0.6558 -1.3765 -0.6768
  981MOL0     H35352   5.017   9.483   1.345  2.3654  0.8172 -1.7777
  981MOL0     H35353   5.040   9.333   1.240 -4.7152 -2.2798 -3.5112
  981MOL0     H35354   4.785   9.312   1.252  1.8581 -4.1871  0.1876
  981MOL0     H35355   4.796   9.421   1.394  2.8797  0.9603  2.4480
  981MOL0     H35356   4.915   9.262   1.513 -2.9727  0.3476  1.6021
  981MOL0     H35357   4.959   9.158   1.371 -1.6896 -1.8743  0.3689
  981MOL0     H35358   5.472   9.865   0.879 -0.7091 -1.3205  0.3233
  981MOL0     H35359   5.662   9.761   1.016 -2.0542 -0.3134 -2.6257
  981MOL0     H35360   5.825   9.707   1.389  1.2118  0.9485  1.8196
  981MOL0     H35361   6.032   9.654   1.490 -0.3788  0.0519 -0.1458
  981MOL0     H35362   7.666   8.889   2.059  1.3860  1.0856 -0.9658
  981MOL0     H35363   7.790   8.792   2.239  1.1851 -0.1630 -2.2153
  981MOL0     H35364   8.256   8.997   2.464  3.1522  1.4125  2.1609
  981MOL0     H35365   8.409   8.920   2.638  0.4988  2.2626 -0.0171
  981MOL0     H35366   8.516   8.913   2.989  1.2175 -1.2326 -0.1137
  981MOL0     H35367   8.523   8.934   2.823 -0.7603 -1.9802 -0.1633
  981MOL0     H35368   8.397   9.138   2.841 -1.6202 -2.2129 -0.0068
  981MOL0     H35369   8.544   9.151   2.956  0.4608 -1.3297  0.8954
  981MOL0     H35370   8.266   9.112   3.025  1.5372 -0.8202 -2.4294
  981MOL0     H35371   8.404   9.094   3.142 -2.1186  1.3631  0.7426
  981MOL0     H35372   8.344   9.349   2.986  1.3398  2.1480  0.2685
  981MOL0     H35373   8.470   9.325   3.107 -0.2039  1.9730 -1.9630
  981MOL0     H35374   8.127   9.339   3.365  0.2687 -2.2509  0.3894
  981MOL0     H35375   8.098   8.923   2.924 -1.6445 -2.1083 -1.4615
  981MOL0     H35376   7.815   8.931   2.700 -0.1019 -2.2233  1.2109
  981MOL0     H35377   7.870   8.919   2.854 -0.0731 -0.1811 -0.8294
  981MOL0     H35378   7.863   9.084   2.795 -0.0352  0.0750 -0.3464
  982MOL0     O35379   3.765   5.382  11.094  0.0679  0.4244  0.1205
  982MOL0     C35380   3.761   5.362  11.212 -0.3405  0.9119 -0.0477
  982MOL0     O35381   3.869   5.305  11.284 -0.0588  0.0069 -0.1856
  982MOL0     C35382   3.995   5.293  11.235  0.0196 -0.1141  1.0748
  982MOL0     C35383   4.058   5.378  11.146  0.3761 -1.3498 -0.8620
  982MOL0     C35384   4.194   5.376  11.121 -0.1865  0.6939  0.0336
  982MOL0     C35385   4.276   5.275  11.183  0.5035 -0.3820 -0.5370
  982MOL0     O35386   4.412   5.289  11.185 -0.3476  0.0849 -0.0049
  982MOL0     C35387   4.490   5.362  11.081  0.0033  0.0162  0.3908
  982MOL0     C35388   4.507   5.274  10.955  0.8704  0.0152 -0.0307
  982MOL0     C35389   4.588   5.340  10.839  0.0463  0.4287 -0.3260
  982MOL0     C35390   4.555   5.482  10.814  0.5051 -1.1083  0.6464
  982MOL0     C35391   4.644   5.524  10.699 -0.1929 -0.2128 -0.1218
  982MOL0     C35392   4.779   5.582  10.757  0.2912  1.2565  0.6673
  982MOL0     C35393   4.878   5.630  10.644 -0.4032  0.7899 -1.0206
  982MOL0     C35394   5.016   5.673  10.715 -0.0850  0.2947 -1.3999
  982MOL0     N35395   5.132   5.655  10.626 -0.0909  0.3140 -0.1448
  982MOL0     C35396   5.251   5.589  10.655 -0.0898 -1.0884 -0.2208
  982MOL0     C35397   5.333   5.610  10.542 -0.9214  0.1845 -0.1504
  982MOL0     C35398   5.475   5.573  10.533  0.4586  0.0207  0.3521
  982MOL0     C35399   5.573   5.641  10.621 -0.1094 -0.1403  0.2365
  982MOL0     C35400   5.604   5.562  10.752 -0.1384  0.0266  0.3981
  982MOL0     C35401   5.698   5.626  10.862 -0.2896  0.5681  0.2771
  982MOL0     O35402   5.743   5.534  10.969 -0.4704 -1.2902  0.8620
  982MOL0     C35403   5.635   5.502  11.050  0.7561 -0.1482 -0.4001
  982MOL0     C35404   5.563   5.595  11.132 -0.2534  0.5932 -0.2218
  982MOL0     C35405   5.458   5.535  11.214 -0.4804 -0.9727 -0.6780
  982MOL0     C35406   5.398   5.629  11.317  0.0545  0.4486  0.7061
  982MOL0     C35407   5.419   5.401  11.199  0.2878 -0.4541 -0.2345
  982MOL0     C35408   5.301   5.362  11.275  0.7677  0.6668  0.8866
  982MOL0     O35409   5.322   5.253  11.352 -1.3417  0.6345  0.0604
  982MOL0     C35410   5.228   5.203  11.441  0.8820 -0.7509 -0.3835
  982MOL0     C35411   5.260   5.088  11.500  0.8227 -0.1139 -0.1604
  982MOL0     C35412   5.180   5.028  11.604 -0.4247 -0.3712  0.1556
  982MOL0     C35413   5.055   5.083  11.633  0.0015 -0.2412 -0.5746
  982MOL0     O35414   4.967   5.031  11.730 -0.6686  0.1282  0.5657
  982MOL0     C35415   4.984   4.898  11.775  0.0893  0.1214 -0.3058
  982MOL0     C35416   4.876   4.860  11.869 -0.1256 -0.0828 -0.0678
  982MOL0     C35417   4.739   4.910  11.834  0.4483  1.1595 -0.1769
  982MOL0     C35418   4.668   4.940  11.960  0.3901  0.7924 -0.3050
  982MOL0     C35419   4.522   4.911  11.933 -0.4483  0.3263  0.2420
  982MOL0     C35420   4.424   4.940  12.049  0.2484 -0.3538  0.5276
  982MOL0     C35421   4.278   4.895  12.014 -1.0445  0.3069  1.0843
  982MOL0     C35422   4.189   4.889  12.141  0.2780 -0.0766  0.1035
  982MOL0    Cl35423   4.156   5.058  12.185  0.4410  0.3268  0.1213
  982MOL0     C35424   5.024   5.211  11.579 -0.0922  0.0482  0.3040
  982MOL0     C35425   5.104   5.271  11.482 -0.3583 -0.4187  0.0543
  982MOL0     O35426   5.200   5.397  11.218 -0.7209 -0.5723 -0.3429
  982MOL0     C35427   5.483   5.318  11.108 -0.2717  0.0061  0.2311
  982MOL0     C35428   5.598   5.369  11.038  0.4203 -0.9145  0.9097
  982MOL0     N35429   5.259   5.673  10.448  0.1997  0.3007 -0.1251
  982MOL0     N35430   5.144   5.698  10.496  0.1938  0.6765  0.7385
  982MOL0     C35431   4.208   5.179  11.263 -0.5880 -0.0497 -0.2269
  982MOL0     C35432   4.074   5.187  11.290  0.0060  0.0659 -1.0706
  982MOL0     C35433   3.646   5.421  11.280  0.7647  0.0457  0.6526
  982MOL0     C35434   3.564   5.516  11.221 -0.1696  0.5195  0.2873
  982MOL0     C35435   3.457   5.573  11.289 -0.0925 -0.4769  0.3553
  982MOL0     C35436   3.429   5.542  11.422  0.9244 -0.9750 -0.2782
  982MOL0     O35437   3.332   5.592  11.505  0.0349 -0.0928 -0.0700
  982MOL0     C35438   3.219   5.655  11.443  0.5393  0.1442  0.5952
  982MOL0     C35439   3.127   5.552  11.387 -0.1516 -0.3375  0.1104
  982MOL0     C35440   3.075   5.462  11.494  0.1189 -0.0538  0.0404
  982MOL0     C35441   3.174   5.345  11.533  0.6378 -0.9044 -0.1580
  982MOL0     C35442   3.207   5.281  11.404  0.0669  0.1688  0.2351
  982MOL0     C35443   3.244   5.224  11.302 -0.2347 -0.5579 -0.4569
  982MOL0     C35444   3.501   5.440  11.477  0.0817  0.5016 -1.2352
  982MOL0     C35445   3.605   5.374  11.411 -0.8820  0.3926  0.0169
  982MOL0     C35446   3.658   5.247  11.487 -0.0706  0.2127 -0.8708
  982MOL0     H35447   3.999   5.463  11.112  1.9851  0.6387  1.0296
  982MOL0     H35448   4.236   5.454  11.058  1.4540  0.0597  0.2918
  982MOL0     H35449   4.592   5.383  11.116  1.0195  0.2949 -2.4508
  982MOL0     H35450   4.446   5.457  11.051 -0.3992  0.3646  2.0224
  982MOL0     H35451   4.565   5.188  10.986  0.4277  0.0394  0.8985
  982MOL0     H35452   4.409   5.245  10.914  1.0011  0.1901 -0.4725
  982MOL0     H35453   4.693   5.341  10.867  0.0268  0.9057 -0.2729
  982MOL0     H35454   4.587   5.275  10.750  0.7706 -1.4115  0.9500
  982MOL0     H35455   4.451   5.492  10.780  1.1888 -0.3448 -1.3191
  982MOL0     H35456   4.585   5.548  10.896  0.0786  2.4773 -1.8394
  982MOL0     H35457   4.591   5.604  10.645  0.9311  0.9136  0.3847
  982MOL0     H35458   4.670   5.447  10.625  0.0992 -2.2503  2.0126
  982MOL0     H35459   4.768   5.655  10.838  0.4800  0.6449  1.2536
  982MOL0     H35460   4.832   5.500  10.806  1.1817  1.4797  0.1224
  982MOL0     H35461   4.843   5.717  10.587 -3.5956  0.1436 -0.2016
  982MOL0     H35462   4.894   5.542  10.582  2.1170  0.6125 -0.2325
  982MOL0     H35463   5.008   5.780  10.736 -0.5527  0.0799 -0.4358
  982MOL0     H35464   5.024   5.623  10.812  0.9818 -3.2263 -3.1444
  982MOL0     H35465   5.272   5.532  10.744 -0.3386 -1.3734 -0.3444
  982MOL0     H35466   5.512   5.589  10.432 -0.9332 -3.4676 -0.8580
  982MOL0     H35467   5.478   5.466  10.557 -2.1005 -0.6321 -1.7688
  982MOL0     H35468   5.658   5.665  10.557 -3.4201  1.8893 -3.9560
  982MOL0     H35469   5.534   5.738  10.654  5.6049  3.1145 -1.3424
  982MOL0     H35470   5.517   5.543  10.816 -0.8363 -0.8784 -0.7750
  982MOL0     H35471   5.636   5.459  10.732 -1.6386 -1.2117  3.6576
  982MOL0     H35472   5.790   5.654  10.811 -1.4583 -1.2045 -3.0772
  982MOL0     H35473   5.646   5.712  10.904 -0.3378  0.4650  0.4322
  982MOL0     H35474   5.597   5.698  11.128  1.9777  0.0005  1.2272
  982MOL0     H35475   5.473   5.703  11.347  1.6290 -0.7157 -0.2279
  982MOL0     H35476   5.377   5.565  11.403 -0.8114 -0.6927 -0.3113
  982MOL0     H35477   5.307   5.677  11.279  1.2004  0.7545 -1.7999
  982MOL0     H35478   5.353   5.045  11.466  0.3886 -0.9946 -0.2956
  982MOL0     H35479   5.211   4.935  11.651 -0.5675 -0.3978  0.1976
  982MOL0     H35480   4.971   4.839  11.684 -0.5563  1.8191 -1.3729
  982MOL0     H35481   5.080   4.879  11.824  0.4161  0.2045 -0.9069
  982MOL0     H35482   4.871   4.752  11.886  1.4038 -0.4281 -1.5676
  982MOL0     H35483   4.900   4.907  11.965  0.1653 -0.7190  0.1760
  982MOL0     H35484   4.696   4.826  11.780  3.6966  0.5718 -2.1489
  982MOL0     H35485   4.740   4.998  11.769 -0.4985  2.1764  1.1453
  982MOL0     H35486   4.681   5.044  11.992 -4.1011  1.1493  1.1181
  982MOL0     H35487   4.706   4.866  12.031  1.3493 -1.0072 -2.5967
  982MOL0     H35488   4.489   4.975  11.852 -0.1505  1.6050  1.1005
  982MOL0     H35489   4.517   4.803  11.914  0.0099  0.5365 -1.1480
  982MOL0     H35490   4.427   5.047  12.071  0.8597 -0.4009  0.6805
  982MOL0     H35491   4.452   4.884  12.138  3.1716  0.5586  0.2868
  982MOL0     H35492   4.283   4.788  11.993 -3.4251  0.3862 -0.1865
  982MOL0     H35493   4.244   4.949  11.926  0.0406 -0.7382 -0.0255
  982MOL0     H35494   4.226   4.832  12.227  1.4947  0.1822 -0.2310
  982MOL0     H35495   4.093   4.847  12.111  0.0219  1.3357 -1.1952
  982MOL0     H35496   4.925   5.249  11.603 -0.4919  0.3173 -1.5565
  982MOL0     H35497   5.070   5.366  11.442  1.4175 -0.4094 -1.5989
  982MOL0     H35498   5.441   5.221  11.083 -0.5156  0.6188 -1.9207
  982MOL0     H35499   5.657   5.308  10.971  0.9174  1.2047 -0.6805
  982MOL0     H35500   4.271   5.109  11.317  0.6485  1.4620  0.3624
  982MOL0     H35501   4.028   5.115  11.356 -3.4351  2.5825 -0.4163
  982MOL0     H35502   3.604   5.557  11.129  0.3244 -2.9051 -1.1514
  982MOL0     H35503   3.402   5.654  11.242 -2.7760 -1.7722  1.0298
  982MOL0     H35504   3.158   5.706  11.518  1.2389 -1.4028  2.3074
  982MOL0     H35505   3.243   5.723  11.360 -0.3685 -0.3476 -0.0932
  982MOL0     H35506   3.181   5.497  11.310  0.6103  0.6639 -0.1100
  982MOL0     H35507   3.043   5.604  11.341 -2.4236 -3.0644  0.9137
  982MOL0     H35508   3.065   5.511  11.592  0.7892 -0.2337  0.2046
  982MOL0     H35509   2.988   5.413  11.451  1.1275 -0.4627 -1.6443
  982MOL0     H35510   3.121   5.275  11.598  0.8292  1.3880  2.7224
  982MOL0     H35511   3.256   5.385  11.593 -0.7722  0.7763  0.7532
  982MOL0     H35512   3.261   5.174  11.208  1.5113  1.4754 -1.3216
  982MOL0     H35513   3.478   5.397  11.574  2.0576 -0.3114 -1.0747
  982MOL0     H35514   3.684   5.166  11.419 -0.8052 -1.1021  0.3376
  982MOL0     H35515   3.748   5.261  11.547 -0.3967 -0.3298 -0.2376
  982MOL0     H35516   3.581   5.222  11.561 -2.0426  2.5203 -1.9928
  983MOL0     O35517   2.733   2.507   6.049  0.1887  0.2625  0.2286
  983MOL0     C35518   2.653   2.486   6.139  0.5104 -0.2585  0.1004
  983MOL0     O35519   2.521   2.517   6.137 -0.2160 -0.5385 -0.6262
  983MOL0     C35520   2.458   2.544   6.018  0.3577 -0.2335  1.0117
  983MOL0     C35521   2.372   2.657   6.021 -1.2310 -0.6899  1.0120
  983MOL0     C35522   2.305   2.700   5.907 -0.1201 -0.2180 -0.4790
  983MOL0     C35523   2.315   2.619   5.789  0.1554  0.4273 -0.0663
  983MOL0     O35524   2.266   2.650   5.665 -0.3720  0.5260  0.0529
  983MOL0     C35525   2.157   2.744   5.666  0.4834 -0.1790  0.2958
  983MOL0     C35526   2.096   2.748   5.528 -0.0209  0.2179 -0.3453
  983MOL0     C35527   2.021   2.619   5.492 -0.0685  0.2607 -0.3677
  983MOL0     C35528   1.900   2.574   5.583 -0.3946  0.4207  0.4706
  983MOL0     C35529   1.844   2.441   5.530 -0.1325  0.4859  0.8768
  983MOL0     C35530   1.922   2.327   5.594  0.5483  0.6010 -0.2013
  983MOL0     C35531   1.842   2.196   5.616 -0.7914 -0.0168  0.4502
  983MOL0     C35532   1.836   2.119   5.477 -0.1376  0.0211  0.2614
  983MOL0     N35533   1.953   2.038   5.427 -0.6885 -0.6167 -0.0401
  983MOL0     C35534   2.052   1.989   5.518  0.8804 -0.3338 -0.0640
  983MOL0     C35535   2.152   1.957   5.435 -0.1166  0.8190  0.3809
  983MOL0     C35536   2.300   1.915   5.453  0.7026 -0.2569 -0.5722
  983MOL0     C35537   2.325   1.781   5.406 -1.1514  0.5750 -0.2341
  983MOL0     C35538   2.461   1.725   5.455 -0.2701 -0.6433 -0.0636
  983MOL0     C35539   2.476   1.572   5.444  1.0884 -0.1385 -0.4476
  983MOL0     O35540   2.447   1.540   5.305  0.0561 -0.2594 -0.0953
  983MOL0     C35541   2.418   1.412   5.270  0.6478  0.1479  0.8420
  983MOL0     C35542   2.340   1.322   5.344 -0.1785  0.4122 -0.2228
  983MOL0     C35543   2.312   1.190   5.300  0.6426 -0.4867  0.4008
  983MOL0     C35544   2.227   1.108   5.386  0.2252 -0.8364  0.1692
  983MOL0     C35545   2.357   1.151   5.170 -0.4260  0.3582 -0.3973
  983MOL0     C35546   2.334   1.015   5.111  0.1917 -0.2390  0.4452
  983MOL0     O35547   2.416   0.982   5.011 -0.5214 -0.5393  0.8645
  983MOL0     C35548   2.404   0.856   4.951 -0.6315  0.3331 -0.1269
  983MOL0     C35549   2.305   0.829   4.860  0.0027 -0.7455 -0.7611
  983MOL0     C35550   2.286   0.699   4.802 -0.1313 -0.2754  0.0270
  983MOL0     C35551   2.378   0.599   4.840 -0.1805  0.1392 -0.5523
  983MOL0     O35552   2.353   0.473   4.781 -0.1187  0.3579  0.2620
  983MOL0     C35553   2.431   0.354   4.807 -0.2377 -0.7486  0.4527
  983MOL0     C35554   2.342   0.240   4.764 -0.1478 -0.8353 -0.1835
  983MOL0     C35555   2.394   0.106   4.808  0.3381  0.0935 -0.2046
  983MOL0     C35556   2.291  -0.003   4.783 -0.7025 -0.0136 -0.0860
  983MOL0     C35557   2.336  -0.144   4.779  0.4617 -0.9688 -0.2701
  983MOL0     C35558   2.437  -0.172   4.672  0.4823  0.0218 -0.5323
  983MOL0     C35559   2.384  -0.171   4.532  0.3915  0.1997 -0.7430
  983MOL0     C35560   2.476  -0.231   4.425  0.6419  0.0610 -0.5514
  983MOL0    Cl35561   2.490  -0.408   4.414  0.0422  0.9648 -0.2466
  983MOL0     C35562   2.470   0.620   4.944 -0.7722 -0.1693  0.2919
  983MOL0     C35563   2.487   0.750   4.991 -0.1969 -0.4067  0.4093
  983MOL0     O35564   2.256   0.941   5.166 -0.9011 -0.2693  0.4377
  983MOL0     C35565   2.433   1.237   5.092  0.0274  0.0090  0.6180
  983MOL0     C35566   2.470   1.361   5.142  0.0460  0.3902  0.0239
  983MOL0     N35567   2.129   1.991   5.303 -0.0889 -0.3301 -0.3761
  983MOL0     N35568   2.007   2.044   5.295  0.3497  0.8096 -0.2776
  983MOL0     C35569   2.393   2.509   5.790 -0.4670 -0.4586  0.5483
  983MOL0     C35570   2.459   2.469   5.903 -0.3794  0.0636  0.6514
  983MOL0     C35571   2.705   2.445   6.268  0.5909 -0.1275 -0.2590
  983MOL0     C35572   2.608   2.414   6.367  0.6593 -0.9099  0.6163
  983MOL0     C35573   2.644   2.391   6.501 -0.2287 -0.1749 -0.1377
  983MOL0     C35574   2.786   2.370   6.531 -0.2141 -1.1063 -0.1301
  983MOL0     O35575   2.834   2.328   6.656 -0.2612  0.1601 -0.8778
  983MOL0     C35576   2.742   2.260   6.744 -0.1125  0.0580 -0.1988
  983MOL0     C35577   2.806   2.162   6.839  0.0693 -0.1230  0.2769
  983MOL0     C35578   2.921   2.070   6.788 -0.1350 -0.5940 -0.3797
  983MOL0     C35579   3.059   2.138   6.790  0.4187  0.0240 -0.3646
  983MOL0     C35580   3.169   2.038   6.815 -0.6290  0.0157 -0.3365
  983MOL0     C35581   3.242   1.940   6.839  0.6279 -0.5909 -0.0917
  983MOL0     C35582   2.881   2.387   6.432 -0.1857 -0.5393  0.2891
  983MOL0     C35583   2.842   2.428   6.304  0.6300  0.6439 -0.5374
  983MOL0     C35584   2.958   2.460   6.213 -0.4564  0.5128 -0.0169
  983MOL0     H35585   2.376   2.718   6.111 -0.4993 -2.6131  2.3614
  983MOL0     H35586   2.251   2.795   5.907 -1.0424 -0.6901  1.3968
  983MOL0     H35587   2.200   2.841   5.691 -0.7126  0.4065  0.1560
  983MOL0     H35588   2.085   2.711   5.742  0.1723 -0.6169 -0.1836
  983MOL0     H35589   2.029   2.835   5.523 -0.9218 -0.4763 -0.6902
  983MOL0     H35590   2.177   2.774   5.459  0.8588 -0.8048  0.2791
  983MOL0     H35591   1.974   2.629   5.394 -2.1862 -0.7488  0.4754
  983MOL0     H35592   2.092   2.536   5.484 -0.5166 -0.0804 -0.9452
  983MOL0     H35593   1.926   2.560   5.688  1.1572 -0.7847 -0.0306
  983MOL0     H35594   1.817   2.644   5.578 -1.0721 -0.3178  1.1348
  983MOL0     H35595   1.854   2.436   5.421  2.8567  0.2171  1.0923
  983MOL0     H35596   1.737   2.432   5.554 -0.9899 -1.9053 -2.9778
  983MOL0     H35597   2.015   2.303   5.542 -0.8721 -2.5791 -1.5620
  983MOL0     H35598   1.948   2.356   5.696  0.7311 -0.9298  0.2215
  983MOL0     H35599   1.736   2.212   5.640 -1.5887 -3.3682 -0.2892
  983MOL0     H35600   1.888   2.134   5.692  1.2337  1.1561  0.2350
  983MOL0     H35601   1.761   2.041   5.489  0.2956 -0.1898  1.7394
  983MOL0     H35602   1.794   2.175   5.393  0.4431 -1.7257 -1.2822
  983MOL0     H35603   2.059   2.004   5.625 -0.9480 -0.0602  0.0565
  983MOL0     H35604   2.320   1.927   5.560 -3.2344  0.7289  0.2087
  983MOL0     H35605   2.371   1.984   5.407  1.5007  2.0151  3.4964
  983MOL0     H35606   2.246   1.716   5.444 -1.9162  0.7093 -1.5564
  983MOL0     H35607   2.327   1.766   5.297  1.5211 -0.1557 -0.1780
  983MOL0     H35608   2.540   1.777   5.400 -0.5090  1.9784  1.8690
  983MOL0     H35609   2.488   1.755   5.557 -1.0082  1.7317 -0.5184
  983MOL0     H35610   2.579   1.541   5.463  1.4476  0.7171 -0.9149
  983MOL0     H35611   2.415   1.516   5.515  0.3415  1.6251  0.3579
  983MOL0     H35612   2.287   1.353   5.434 -2.3295 -0.3160 -1.1847
  983MOL0     H35613   2.123   1.119   5.354  0.8327  1.5869 -1.1574
  983MOL0     H35614   2.234   1.125   5.494  0.3771 -1.0677  0.1972
  983MOL0     H35615   2.262   1.004   5.378  0.1628 -0.7828 -0.8288
  983MOL0     H35616   2.224   0.897   4.835 -2.5142 -2.6532  1.4661
  983MOL0     H35617   2.205   0.683   4.731  0.3543 -1.2218 -0.3209
  983MOL0     H35618   2.516   0.361   4.738 -1.1497  0.3076 -0.6043
  983MOL0     H35619   2.467   0.344   4.910  2.2167  1.2951 -0.1019
  983MOL0     H35620   2.239   0.252   4.801 -0.6888 -4.6791 -0.1165
  983MOL0     H35621   2.321   0.237   4.657 -0.9978 -0.1445 -0.0580
  983MOL0     H35622   2.419   0.124   4.913  1.0604  0.8333 -0.4870
  983MOL0     H35623   2.478   0.085   4.740 -0.9256 -2.1793 -1.1663
  983MOL0     H35624   2.233   0.009   4.691  0.3062  0.3274 -0.6915
  983MOL0     H35625   2.215   0.007   4.861 -1.9795  2.8845 -1.5346
  983MOL0     H35626   2.373  -0.170   4.878  1.6042  1.3368 -0.0125
  983MOL0     H35627   2.244  -0.201   4.765 -2.8466  3.5355  0.9669
  983MOL0     H35628   2.459  -0.277   4.690 -0.0418 -0.0426 -0.2339
  983MOL0     H35629   2.533  -0.121   4.683  0.5668 -0.3534  0.6799
  983MOL0     H35630   2.357  -0.072   4.492 -2.8579 -1.0852 -2.1085
  983MOL0     H35631   2.285  -0.218   4.526  0.7094 -0.3174 -2.4273
  983MOL0     H35632   2.579  -0.200   4.446 -0.3037  3.2840 -0.1938
  983MOL0     H35633   2.451  -0.199   4.323  1.1682 -1.3094 -1.1474
  983MOL0     H35634   2.538   0.544   4.980 -1.4358 -0.6039  0.6485
  983MOL0     H35635   2.551   0.782   5.073 -0.6943 -0.9553  1.0254
  983MOL0     H35636   2.485   1.223   4.998 -1.3768 -1.7694  0.0488
  983MOL0     H35637   2.522   1.423   5.071  1.8545  0.0477  0.9783
  983MOL0     H35638   2.401   2.443   5.705 -0.8439 -1.9901  1.6433
  983MOL0     H35639   2.510   2.373   5.903 -2.4341 -1.1233  2.7618
  983MOL0     H35640   2.500   2.421   6.355  0.5007  1.1929  2.6204
  983MOL0     H35641   2.569   2.369   6.576  1.1531  0.5866  1.5421
  983MOL0     H35642   2.680   2.329   6.802 -0.1628 -1.9840  2.3694
  983MOL0     H35643   2.663   2.213   6.685  0.6688 -2.6432  0.7615
  983MOL0     H35644   2.724   2.098   6.872 -1.0966  0.9215 -0.5003
  983MOL0     H35645   2.832   2.222   6.927 -4.5279  0.5837  1.4110
  983MOL0     H35646   2.922   1.981   6.852 -0.0725 -0.0997  0.3234
  983MOL0     H35647   2.899   2.040   6.685 -1.1633  2.5240 -1.1650
  983MOL0     H35648   3.062   2.203   6.879  1.4916 -1.9264  1.0979
  983MOL0     H35649   3.072   2.192   6.696  1.9680 -2.3763 -1.6229
  983MOL0     H35650   3.299   1.856   6.873  1.4573 -0.1470 -0.3782
  983MOL0     H35651   2.987   2.372   6.452  0.6300  1.4033 -2.0794
  983MOL0     H35652   2.956   2.566   6.184  1.3230  0.2517 -1.2148
  983MOL0     H35653   3.054   2.446   6.264 -1.8452  0.0289  2.6964
  983MOL0     H35654   2.967   2.401   6.122  0.1490  0.5888 -0.0133
  984MOL0     O35655   0.567   7.819   2.427  0.6513 -0.1811 -0.1856
  984MOL0     C35656   0.526   7.838   2.310 -0.4627  0.3761  0.2544
  984MOL0     O35657   0.568   7.767   2.199 -0.1531 -0.4590  0.0798
  984MOL0     C35658   0.653   7.656   2.225  0.1057  0.1330 -0.0048
  984MOL0     C35659   0.594   7.549   2.298 -0.0661  0.5640  0.2396
  984MOL0     C35660   0.663   7.429   2.309 -0.1671 -0.3246  0.3428
  984MOL0     C35661   0.789   7.408   2.260  0.1985  0.0211  1.0060
  984MOL0     O35662   0.851   7.290   2.260  0.1193  0.1416 -0.4940
  984MOL0     C35663   0.797   7.170   2.312  0.6921 -0.6388  0.3859
  984MOL0     C35664   0.897   7.066   2.356 -0.1983 -0.5305 -0.0373
  984MOL0     C35665   0.824   6.933   2.387 -0.4645 -0.5261 -0.3126
  984MOL0     C35666   0.931   6.816   2.419  0.0048  0.5320  0.4417
  984MOL0     C35667   0.848   6.696   2.469  0.0853 -0.9785  1.2944
  984MOL0     C35668   0.946   6.597   2.543  0.9475  0.1637  0.8978
  984MOL0     C35669   0.861   6.502   2.626 -0.6419 -1.3960  0.2314
  984MOL0     C35670   0.930   6.454   2.750 -0.1812  0.7403  0.0653
  984MOL0     N35671   1.054   6.377   2.705 -0.0490  0.6363 -0.3444
  984MOL0     C35672   1.176   6.439   2.689 -0.5398 -0.0157  0.1857
  984MOL0     C35673   1.259   6.339   2.640  1.1823 -1.1207  0.1949
  984MOL0     C35674   1.399   6.363   2.598 -0.4113  0.2862 -0.2324
  984MOL0     C35675   1.491   6.304   2.705 -0.2040 -0.1176 -0.2879
  984MOL0     C35676   1.465   6.365   2.845 -0.0151 -0.7488 -0.4022
  984MOL0     C35677   1.600   6.417   2.900  0.1404 -0.6372  0.5076
  984MOL0     O35678   1.569   6.462   3.033  0.4605  0.4453 -0.0878
  984MOL0     C35679   1.617   6.584   3.043 -0.3684  0.4325 -0.1460
  984MOL0     C35680   1.541   6.698   3.023  0.1162  0.1688  0.8175
  984MOL0     C35681   1.592   6.824   3.050  0.3102 -0.4987  0.0320
  984MOL0     C35682   1.484   6.936   3.034  0.1302 -0.6621 -0.4119
  984MOL0     C35683   1.726   6.843   3.078  0.0840 -0.8433  0.5380
  984MOL0     C35684   1.776   6.976   3.101  0.3517  0.5625 -0.5769
  984MOL0     O35685   1.908   6.995   3.043 -0.2573  0.5251  0.0789
  984MOL0     C35686   1.952   7.124   3.050 -0.6810 -0.9317 -0.2132
  984MOL0     C35687   2.065   7.154   3.131 -0.8143  0.2884 -0.0550
  984MOL0     C35688   2.132   7.279   3.125 -0.2150 -0.0782  0.1764
  984MOL0     C35689   2.090   7.376   3.037 -0.4199  0.0533 -1.4632
  984MOL0     O35690   2.164   7.485   3.042 -0.6395  0.4761  0.5718
  984MOL0     C35691   2.118   7.598   2.963 -1.2103 -0.9337  1.2672
  984MOL0     C35692   1.982   7.652   3.012 -0.0255 -0.6010  1.0768
  984MOL0     C35693   1.992   7.717   3.153  0.4817  0.5857  0.0679
  984MOL0     C35694   1.849   7.732   3.214  0.2762  0.5441  0.9366
  984MOL0     C35695   1.845   7.808   3.346  0.3801  0.0431 -0.8658
  984MOL0     C35696   1.702   7.789   3.401  1.2243 -0.2383 -0.5915
  984MOL0     C35697   1.677   7.867   3.527  0.7446  0.5266 -0.4014
  984MOL0     C35698   1.523   7.858   3.568  0.5558  0.5875  0.3903
  984MOL0    Cl35699   1.501   7.964   3.710  0.4086 -0.4650 -0.1457
  984MOL0     C35700   1.977   7.350   2.949 -0.0953 -0.0071 -0.8037
  984MOL0     C35701   1.914   7.223   2.955  0.0027  0.2443 -0.3809
  984MOL0     O35702   1.722   7.060   3.173  1.2216  0.1173  0.1857
  984MOL0     C35703   1.805   6.731   3.084 -0.7024 -0.4358 -0.2380
  984MOL0     C35704   1.752   6.605   3.073  0.3304 -0.0239  0.2376
  984MOL0     N35705   1.185   6.220   2.636 -0.6562  0.8173 -0.2384
  984MOL0     N35706   1.067   6.245   2.676  0.3429 -0.5099 -0.0585
  984MOL0     C35707   0.850   7.511   2.185 -0.0992 -0.1555 -0.2123
  984MOL0     C35708   0.777   7.635   2.167  0.2204 -0.0278 -0.0954
  984MOL0     C35709   0.400   7.925   2.311  0.4524  0.3480  0.0669
  984MOL0     C35710   0.291   7.877   2.235  0.2321  0.3977 -0.9038
  984MOL0     C35711   0.173   7.948   2.233 -0.9286 -0.4752 -0.5143
  984MOL0     C35712   0.164   8.076   2.299 -0.3550  0.0828 -0.0950
  984MOL0     O35713   0.041   8.130   2.286  0.4382  0.1236 -0.2636
  984MOL0     C35714   0.025   8.273   2.296 -0.0697 -1.0390  0.0984
  984MOL0     C35715  -0.042   8.319   2.170 -0.4213 -0.3533 -0.0338
  984MOL0     C35716   0.065   8.346   2.058  0.4687  0.3314 -0.2721
  984MOL0     C35717   0.006   8.383   1.918 -0.2272  0.0418  0.7046
  984MOL0     C35718  -0.063   8.515   1.936 -0.1637  0.9032  0.3466
  984MOL0     C35719  -0.127   8.617   1.950  0.4157 -0.9601 -0.2604
  984MOL0     C35720   0.275   8.127   2.363  0.6086 -0.6278  0.6405
  984MOL0     C35721   0.393   8.050   2.372  0.8207 -0.2174  0.1778
  984MOL0     C35722   0.505   8.125   2.429 -0.6444  0.0682  0.7124
  984MOL0     H35723   0.497   7.552   2.346  1.0491  0.1472  2.7195
  984MOL0     H35724   0.621   7.356   2.377 -1.6593  3.5620  4.0026
  984MOL0     H35725   0.753   7.117   2.227  0.8679  0.4992 -0.4386
  984MOL0     H35726   0.727   7.192   2.393 -1.0036  3.8585 -1.9051
  984MOL0     H35727   0.972   7.048   2.277  0.0985 -1.9337  0.5360
  984MOL0     H35728   0.952   7.093   2.446 -3.2216 -0.1973  1.8382
  984MOL0     H35729   0.762   6.946   2.477 -0.6745 -1.9073 -0.2333
  984MOL0     H35730   0.747   6.911   2.312 -0.1395 -0.4243 -0.6749
  984MOL0     H35731   0.973   6.778   2.325  0.6586 -2.1003  1.6943
  984MOL0     H35732   1.015   6.847   2.481  1.5411 -3.5231  0.6943
  984MOL0     H35733   0.793   6.650   2.387 -0.7532  1.5152  0.3520
  984MOL0     H35734   0.768   6.735   2.534 -0.3269  0.0667  0.2015
  984MOL0     H35735   1.012   6.546   2.473  0.1387 -0.4747  0.5980
  984MOL0     H35736   1.020   6.651   2.604  2.4729  0.0893 -0.8113
  984MOL0     H35737   0.833   6.422   2.556  2.3063 -2.7821  0.4988
  984MOL0     H35738   0.763   6.537   2.659 -0.5654 -2.4827  1.7209
  984MOL0     H35739   0.956   6.535   2.818 -0.2061  1.0986 -0.3478
  984MOL0     H35740   0.857   6.389   2.799  0.9557 -0.6125  0.0401
  984MOL0     H35741   1.203   6.544   2.687  1.2915 -0.4439 -2.0774
  984MOL0     H35742   1.428   6.468   2.599  0.9642 -0.0318  2.4339
  984MOL0     H35743   1.413   6.314   2.501 -1.2778 -3.1077  1.2143
  984MOL0     H35744   1.466   6.198   2.702 -1.9663  0.2677 -0.5040
  984MOL0     H35745   1.592   6.316   2.665  0.3088 -4.4941 -0.7268
  984MOL0     H35746   1.381   6.436   2.850  1.3595  0.8508  1.9175
  984MOL0     H35747   1.440   6.282   2.912  0.8112 -0.3460  0.4246
  984MOL0     H35748   1.666   6.329   2.905 -0.0563 -0.7959  0.3357
  984MOL0     H35749   1.648   6.490   2.836 -2.3587 -0.9270 -1.8810
  984MOL0     H35750   1.437   6.689   2.993  0.4019  0.6424 -0.3918
  984MOL0     H35751   1.405   6.937   3.110  1.1636  0.7551  0.6977
  984MOL0     H35752   1.428   6.912   2.943 -3.1784  0.9418  1.0135
  984MOL0     H35753   1.529   7.034   3.016 -0.0172 -0.5878 -0.3808
  984MOL0     H35754   2.109   7.068   3.179  0.2520  1.1246  0.4963
  984MOL0     H35755   2.230   7.283   3.172  0.0148 -0.5815 -0.2476
  984MOL0     H35756   2.190   7.680   2.964 -1.3298 -0.7896  0.0432
  984MOL0     H35757   2.117   7.565   2.858  2.7227 -1.5609  1.2735
  984MOL0     H35758   1.955   7.737   2.949  3.0773 -1.3676 -1.5606
  984MOL0     H35759   1.905   7.574   3.010  1.2669 -1.9246  1.3726
  984MOL0     H35760   2.031   7.819   3.145 -1.0900  1.1724 -0.6088
  984MOL0     H35761   2.062   7.650   3.204  1.0090  0.5872 -0.6281
  984MOL0     H35762   1.802   7.634   3.226  0.5838  0.1959 -0.5145
  984MOL0     H35763   1.785   7.781   3.140  0.7894 -1.1934 -0.7340
  984MOL0     H35764   1.928   7.779   3.411  0.2623  1.5489  0.0115
  984MOL0     H35765   1.868   7.914   3.333  0.3661 -0.1016 -2.2003
  984MOL0     H35766   1.682   7.684   3.423  0.8441 -0.4810 -1.9945
  984MOL0     H35767   1.630   7.815   3.323  1.7004 -2.4033 -1.8436
  984MOL0     H35768   1.705   7.970   3.502 -0.5423  1.3551  1.3495
  984MOL0     H35769   1.751   7.837   3.601  1.6766  2.2731 -0.5912
  984MOL0     H35770   1.488   7.757   3.589 -1.4547  1.4881  1.6450
  984MOL0     H35771   1.452   7.891   3.492 -0.8403 -2.3432  0.2600
  984MOL0     H35772   1.960   7.424   2.872  0.9667 -2.1476 -3.2312
  984MOL0     H35773   1.838   7.200   2.881 -2.0231  1.8267  1.0998
  984MOL0     H35774   1.911   6.750   3.095 -1.4934  3.9232  1.6945
  984MOL0     H35775   1.817   6.519   3.089 -0.8361 -0.5894  2.3427
  984MOL0     H35776   0.939   7.494   2.125  1.2284 -0.1904  1.6724
  984MOL0     H35777   0.826   7.716   2.114 -0.1796 -0.4006 -1.0573
  984MOL0     H35778   0.301   7.779   2.190 -1.4614 -0.9373  1.3946
  984MOL0     H35779   0.087   7.912   2.178 -1.7686  2.4546 -1.2933
  984MOL0     H35780  -0.041   8.287   2.382 -2.4775  0.8235 -1.8708
  984MOL0     H35781   0.117   8.331   2.301 -0.8403  0.1311  2.0571
  984MOL0     H35782  -0.097   8.410   2.196  0.5361 -0.8026  4.2210
  984MOL0     H35783  -0.121   8.254   2.132 -2.2582  2.8573 -2.2370
  984MOL0     H35784   0.142   8.418   2.088  0.5018 -0.3185  1.2755
  984MOL0     H35785   0.109   8.247   2.044  0.2056  0.3523 -1.4163
  984MOL0     H35786  -0.066   8.306   1.892  2.3300 -2.1624 -0.3671
  984MOL0     H35787   0.088   8.383   1.846 -1.9775  0.3272 -1.3789
  984MOL0     H35788  -0.190   8.703   1.959 -0.5192 -1.4615 -1.5755
  984MOL0     H35789   0.269   8.228   2.401 -2.7228 -0.0845 -0.9544
  984MOL0     H35790   0.588   8.106   2.360  0.2523 -0.9829  2.0199
  984MOL0     H35791   0.486   8.232   2.442  1.5347  0.6263 -0.3191
  984MOL0     H35792   0.525   8.085   2.530  0.3519  0.1799  0.5694
  985MOL0     O35793  10.016   5.977   0.690  0.3038 -1.2421  0.4601
  985MOL0     C35794   9.945   5.872   0.683  0.4059  0.1601  0.0933
  985MOL0     O35795   9.980   5.758   0.745 -0.1634  0.6991 -0.1488
  985MOL0     C35796  10.100   5.742   0.810  0.3028  0.1441  0.4561
  985MOL0     C35797  10.091   5.692   0.943  0.2194 -0.7167 -0.0183
  985MOL0     C35798  10.212   5.687   1.018 -0.0844  0.7145  0.2803
  985MOL0     C35799  10.335   5.725   0.964  0.9638  0.4972  0.0958
  985MOL0     O35800  10.454   5.730   1.035  0.0677  0.5135  1.1412
  985MOL0     C35801  10.553   5.827   1.007 -0.5712 -0.0553 -0.3286
  985MOL0     C35802  10.503   5.970   1.028  0.3204  1.2078 -0.0589
  985MOL0     C35803  10.468   5.992   1.182  0.2619  0.0075  0.5015
  985MOL0     C35804  10.445   6.138   1.220 -0.8203  0.3897 -0.4258
  985MOL0     C35805  10.463   6.152   1.369 -0.5349 -0.8767  0.6262
  985MOL0     C35806  10.394   6.284   1.413 -1.3632  0.4109  0.8131
  985MOL0     C35807  10.400   6.298   1.568  0.4300  0.5454  0.0439
  985MOL0     C35808  10.354   6.435   1.622 -0.6604  0.7441  0.3244
  985MOL0     N35809  10.438   6.546   1.560 -0.0153  0.1218  0.8222
  985MOL0     C35810  10.574   6.565   1.572  0.0529  0.5053 -0.5492
  985MOL0     C35811  10.608   6.675   1.490 -0.4650 -0.1959 -1.0767
  985MOL0     C35812  10.753   6.729   1.476 -0.7358  0.2831 -0.1105
  985MOL0     C35813  10.757   6.844   1.384 -0.3570 -0.9496  0.5626
  985MOL0     C35814  10.765   6.816   1.225  0.0891  0.1841 -0.3122
  985MOL0     C35815  10.908   6.842   1.174 -0.5143  0.2326  0.3019
  985MOL0     O35816  11.011   6.753   1.238  0.9440 -1.1866  0.3709
  985MOL0     C35817  11.113   6.744   1.154 -0.8418 -0.9265 -0.8633
  985MOL0     C35818  11.157   6.618   1.119 -0.0567 -0.6991 -0.7190
  985MOL0     C35819  11.247   6.599   1.021 -0.7961  0.2350 -0.4852
  985MOL0     C35820  11.281   6.452   0.996 -0.2376  0.6215  0.3409
  985MOL0     C35821  11.314   6.713   0.960  0.4193  0.4913  0.7210
  985MOL0     C35822  11.414   6.707   0.851  0.7108 -0.3750  0.4308
  985MOL0     O35823  11.439   6.829   0.800  0.2394 -0.0532 -0.3510
  985MOL0     C35824  11.571   6.864   0.780 -0.2281  0.1634 -0.1801
  985MOL0     C35825  11.616   6.914   0.657  0.5195  0.1538  0.4412
  985MOL0     C35826  11.746   6.950   0.641  0.4274 -0.0447  1.1233
  985MOL0     C35827  11.844   6.936   0.744 -0.3187 -0.7078 -0.1034
  985MOL0     O35828  11.976   6.956   0.713  0.1174 -0.4390  0.2427
  985MOL0     C35829  12.019   7.086   0.670  0.5316 -0.7478 -0.6087
  985MOL0     C35830  12.007   7.179   0.789  0.1416  0.1526  0.5048
  985MOL0     C35831  12.102   7.299   0.788  0.9550 -0.3068 -0.0752
  985MOL0     C35832  12.081   7.405   0.684 -0.2960 -0.1740 -0.7035
  985MOL0     C35833  11.971   7.498   0.727  0.3206 -0.0409  0.4900
  985MOL0     C35834  11.946   7.611   0.636 -0.0995 -0.1645  0.3512
  985MOL0     C35835  11.794   7.659   0.655 -0.2928 -0.5360 -0.2987
  985MOL0     C35836  11.767   7.770   0.561 -0.3150  0.0220 -0.0083
  985MOL0    Cl35837  11.879   7.906   0.595  0.1305 -0.3966  0.0895
  985MOL0     C35838  11.802   6.891   0.874  0.3719 -1.2976  0.8216
  985MOL0     C35839  11.664   6.874   0.893  0.1590 -0.0581 -0.1657
  985MOL0     O35840  11.464   6.598   0.807  0.3657  0.7147  0.6307
  985MOL0     C35841  11.279   6.837   1.007 -0.5256 -0.1464  0.9728
  985MOL0     C35842  11.190   6.855   1.109  0.8073  0.3335 -0.1753
  985MOL0     N35843  10.492   6.730   1.448 -0.3495  0.2662  0.2048
  985MOL0     N35844  10.399   6.655   1.493  0.1902 -0.0203  0.4335
  985MOL0     C35845  10.340   5.765   0.825 -0.7598  0.9970  0.3016
  985MOL0     C35846  10.223   5.779   0.752  0.1536 -0.5120 -1.2731
  985MOL0     C35847   9.803   5.878   0.624 -0.6628  0.2391  0.0686
  985MOL0     C35848   9.700   5.797   0.675 -1.2166  0.9246 -0.1610
  985MOL0     C35849   9.575   5.799   0.632  0.1945  0.2286  0.0996
  985MOL0     C35850   9.535   5.891   0.535  0.7390  0.2518  0.3872
  985MOL0     O35851   9.402   5.896   0.493 -0.8007 -1.0708  0.4326
  985MOL0     C35852   9.345   6.015   0.432 -0.1924  1.5207  0.0565
  985MOL0     C35853   9.345   6.142   0.521  1.3405 -0.0231  0.2898
  985MOL0     C35854   9.218   6.219   0.468  1.1123  0.2365  0.2309
  985MOL0     C35855   9.209   6.361   0.526  0.5802  0.5241  0.5690
  985MOL0     C35856   9.336   6.432   0.502  0.3387  0.0591 -0.1316
  985MOL0     C35857   9.433   6.493   0.474  0.4685 -0.9352  0.2797
  985MOL0     C35858   9.635   5.955   0.459 -0.6318  0.3981  0.3950
  985MOL0     C35859   9.763   5.962   0.509 -0.1411 -0.2514  0.6993
  985MOL0     C35860   9.867   6.045   0.443  0.1757 -1.1660 -0.4312
  985MOL0     H35861   9.993   5.686   0.989  1.5511  0.7798  3.3294
  985MOL0     H35862  10.202   5.647   1.118 -2.1037 -1.5235 -0.7288
  985MOL0     H35863  10.601   5.816   0.909  0.1102  4.1676 -0.6577
  985MOL0     H35864  10.624   5.818   1.090 -0.5596 -1.8068 -0.5009
  985MOL0     H35865  10.591   6.032   1.006  0.3419  0.7137 -1.4959
  985MOL0     H35866  10.418   5.991   0.961 -0.2001 -1.0026 -0.1560
  985MOL0     H35867  10.368   5.946   1.185  1.2050 -2.1336  1.3680
  985MOL0     H35868  10.536   5.942   1.251 -0.5642 -0.7798  0.7715
  985MOL0     H35869  10.517   6.205   1.171  1.1627 -1.5524 -0.3367
  985MOL0     H35870  10.348   6.169   1.179 -1.0607 -1.9925 -1.8803
  985MOL0     H35871  10.570   6.159   1.392 -0.3664 -0.0203 -0.3356
  985MOL0     H35872  10.422   6.070   1.429  0.1057 -0.3278  1.8378
  985MOL0     H35873  10.446   6.374   1.380 -0.7366  0.7528  2.6410
  985MOL0     H35874  10.295   6.276   1.366 -0.5110 -0.5549 -0.8855
  985MOL0     H35875  10.504   6.292   1.603  0.9291  1.2696 -1.2353
  985MOL0     H35876  10.345   6.217   1.617  1.2987  1.1798  2.1532
  985MOL0     H35877  10.250   6.454   1.594  0.2038  2.0518 -2.3803
  985MOL0     H35878  10.367   6.432   1.731  0.2852  0.6658  0.2136
  985MOL0     H35879  10.645   6.507   1.631 -0.9542 -0.6893 -0.4779
  985MOL0     H35880  10.819   6.654   1.432 -3.8180 -2.2962 -0.7140
  985MOL0     H35881  10.791   6.766   1.571 -1.1425 -0.2012  0.2478
  985MOL0     H35882  10.684   6.923   1.402  2.0713  1.9732 -1.3489
  985MOL0     H35883  10.845   6.899   1.419 -1.3426  0.8952  0.2846
  985MOL0     H35884  10.730   6.717   1.194 -0.7995  0.7809 -1.2933
  985MOL0     H35885  10.706   6.892   1.173 -0.2350 -0.2720 -0.6179
  985MOL0     H35886  10.907   6.816   1.068 -4.2192  2.8834 -0.5049
  985MOL0     H35887  10.937   6.947   1.174 -0.5338  0.2461 -0.7444
  985MOL0     H35888  11.107   6.542   1.178  0.8237 -0.2828  0.6047
  985MOL0     H35889  11.212   6.373   1.029  2.2716 -1.1137  1.8326
  985MOL0     H35890  11.375   6.441   1.050 -0.1372 -0.6899 -0.0674
  985MOL0     H35891  11.301   6.430   0.891 -1.5087  2.6682 -0.3885
  985MOL0     H35892  11.558   6.924   0.565  4.4201  1.2900 -2.1135
  985MOL0     H35893  11.778   6.983   0.542 -1.6421 -0.2468  0.3537
  985MOL0     H35894  12.126   7.079   0.651  0.4796  1.9406 -2.3618
  985MOL0     H35895  11.959   7.119   0.584 -3.1770 -0.2824  1.9058
  985MOL0     H35896  11.907   7.224   0.794  0.0419  0.1047 -0.7240
  985MOL0     H35897  12.019   7.116   0.878  0.5605 -0.9596 -0.3180
  985MOL0     H35898  12.206   7.267   0.775  1.4655  0.3048  2.1885
  985MOL0     H35899  12.092   7.344   0.887  2.8166  0.4920 -0.2035
  985MOL0     H35900  12.065   7.374   0.581 -0.2952  2.5304 -1.6143
  985MOL0     H35901  12.170   7.468   0.677 -2.3437  3.4940  2.2620
  985MOL0     H35902  11.880   7.438   0.729 -1.3136  1.9123 -3.4875
  985MOL0     H35903  11.991   7.535   0.828 -0.8771 -1.6915  1.3688
  985MOL0     H35904  11.960   7.596   0.529  0.2063  4.8364 -0.5741
  985MOL0     H35905  12.002   7.700   0.667 -0.3571  0.5816 -1.2027
  985MOL0     H35906  11.792   7.693   0.760  1.1239 -1.1707 -0.0440
  985MOL0     H35907  11.723   7.577   0.643 -0.5571 -0.0767 -2.0428
  985MOL0     H35908  11.663   7.802   0.572 -0.4309 -0.1026 -0.6977
  985MOL0     H35909  11.793   7.729   0.463 -0.1882 -3.3539  1.2988
  985MOL0     H35910  11.870   6.892   0.960 -0.6404  0.2473  1.6428
  985MOL0     H35911  11.623   6.852   0.991 -1.4656 -0.6241 -0.9419
  985MOL0     H35912  11.336   6.923   0.971 -2.8627  0.0763 -2.7828
  985MOL0     H35913  11.182   6.952   1.157  3.1576  0.3526  0.2820
  985MOL0     H35914  10.431   5.804   0.782 -0.4140 -1.0580 -0.9247
  985MOL0     H35915  10.237   5.789   0.645  1.6520  2.3597 -0.9014
  985MOL0     H35916   9.731   5.724   0.750  2.2947  0.0991 -2.2088
  985MOL0     H35917   9.507   5.730   0.681  1.3815 -0.5440  0.6889
  985MOL0     H35918   9.382   6.031   0.330 -2.2451 -4.0658 -1.9210
  985MOL0     H35919   9.239   5.998   0.412  0.1175 -2.8594  1.1258
  985MOL0     H35920   9.439   6.197   0.523  0.1525  2.3242 -1.8563
  985MOL0     H35921   9.321   6.126   0.627  1.3043 -0.8421  0.1644
  985MOL0     H35922   9.227   6.219   0.359  1.3817 -0.3926  0.2430
  985MOL0     H35923   9.132   6.154   0.488  2.0837 -2.5719 -3.5816
  985MOL0     H35924   9.210   6.359   0.635  1.6827  0.3323  0.5678
  985MOL0     H35925   9.120   6.402   0.478 -1.2934 -2.8519  0.8752
  985MOL0     H35926   9.511   6.565   0.456 -0.9532 -0.2031 -4.5221
  985MOL0     H35927   9.607   6.011   0.370  1.2009 -0.4844 -0.8122
  985MOL0     H35928   9.877   6.143   0.491 -2.0652 -1.0628 -0.0452
  985MOL0     H35929   9.964   5.996   0.447  0.8435  0.0861 -0.5762
  985MOL0     H35930   9.840   6.077   0.342 -1.2333  3.4923  1.1130
  986MOL0     O35931   5.413   3.691   9.199 -0.0764 -0.6213 -0.7611
  986MOL0     C35932   5.449   3.676   9.318 -0.3379 -0.2447 -0.1084
  986MOL0     O35933   5.560   3.744   9.374  0.7988  0.5379 -0.2353
  986MOL0     C35934   5.656   3.777   9.278  0.3711 -0.1431  0.4953
  986MOL0     C35935   5.664   3.910   9.240  0.1440 -0.2383 -0.4792
  986MOL0     C35936   5.773   3.959   9.164 -0.5854 -0.0197  0.0478
  986MOL0     C35937   5.878   3.874   9.130 -0.0577 -0.0723  0.2378
  986MOL0     O35938   5.983   3.930   9.054 -0.0737  0.6852 -0.9250
  986MOL0     C35939   6.108   3.875   9.072 -0.6755  0.4213  0.8010
  986MOL0     C35940   6.221   3.972   9.053 -1.0006 -1.2099 -0.8761
  986MOL0     C35941   6.198   4.111   9.123  0.4397 -0.2354  0.5918
  986MOL0     C35942   6.199   4.110   9.277  0.8298  0.0946 -0.5337
  986MOL0     C35943   6.149   4.239   9.343 -0.5462  0.6026 -0.9534
  986MOL0     C35944   6.108   4.222   9.485 -0.8298 -0.2613  0.3832
  986MOL0     C35945   6.056   4.352   9.540  0.2796  0.0811  0.6457
  986MOL0     C35946   6.021   4.334   9.688  0.5516  0.5948  0.5610
  986MOL0     N35947   5.946   4.450   9.745  0.4381 -0.0024  0.2901
  986MOL0     C35948   5.818   4.478   9.724 -0.6814  0.3366 -0.0709
  986MOL0     C35949   5.797   4.596   9.797  0.5014  0.5160 -0.5772
  986MOL0     C35950   5.670   4.677   9.793  0.2611  0.1822 -0.7004
  986MOL0     C35951   5.644   4.721   9.935 -1.1678  0.2743  0.4712
  986MOL0     C35952   5.509   4.769   9.971  0.1683 -1.2530  0.8205
  986MOL0     C35953   5.488   4.829  10.105 -0.0788 -0.4646 -0.5659
  986MOL0     O35954   5.352   4.872  10.116  1.5368 -0.5684  0.2936
  986MOL0     C35955   5.258   4.817  10.204  0.4037 -0.2440  0.5419
  986MOL0     C35956   5.275   4.695  10.286  0.8981 -0.0920  0.2106
  986MOL0     C35957   5.193   4.654  10.389  0.6930 -1.2676  0.4336
  986MOL0     C35958   5.236   4.537  10.476  0.0018  0.1556  0.6919
  986MOL0     C35959   5.081   4.739  10.411  0.6636  0.2415 -0.6890
  986MOL0     C35960   4.993   4.720  10.527  0.5882 -0.1441 -0.1838
  986MOL0     O35961   4.952   4.604  10.558 -0.3935 -0.3603  0.0952
  986MOL0     C35962   4.853   4.595  10.650  0.7979 -0.2165  0.2216
  986MOL0     C35963   4.872   4.515  10.765 -0.0930  0.2090 -0.5571
  986MOL0     C35964   4.780   4.502  10.866  0.7329  0.0830  0.0453
  986MOL0     C35965   4.650   4.561  10.853 -0.6629 -0.4535  0.3721
  986MOL0     O35966   4.532   4.547  10.928  0.0273  0.3592  0.0744
  986MOL0     C35967   4.537   4.461  11.039 -0.1051  0.6235 -0.3126
  986MOL0     C35968   4.397   4.461  11.111  1.0334 -0.6002  0.2156
  986MOL0     C35969   4.292   4.422  11.007  0.4303  0.2373 -0.0652
  986MOL0     C35970   4.144   4.435  11.062 -0.5080  0.4116 -0.3214
  986MOL0     C35971   4.047   4.351  10.976 -0.1712  0.4568  0.0887
  986MOL0     C35972   3.909   4.336  11.041 -0.4714 -0.1382 -0.1994
  986MOL0     C35973   3.837   4.463  11.035  0.8131 -0.4432  0.1226
  986MOL0     C35974   3.691   4.440  11.020  0.2180  0.1425  0.2269
  986MOL0    Cl35975   3.637   4.376  11.176  0.3088  0.3142  0.4051
  986MOL0     C35976   4.629   4.638  10.741  0.0018 -0.2847 -0.7092
  986MOL0     C35977   4.725   4.659  10.638 -0.3005 -0.4867  0.0629
  986MOL0     O35978   4.948   4.824  10.576  0.2828  0.2599 -0.5847
  986MOL0     C35979   5.050   4.844  10.328 -0.2773 -0.8046 -0.4093
  986MOL0     C35980   5.139   4.884  10.227  0.2297 -0.8719 -0.2082
  986MOL0     N35981   5.913   4.640   9.855  0.1186  0.3409 -0.7230
  986MOL0     N35982   6.002   4.554   9.816 -0.4728  0.5238  0.3170
  986MOL0     C35983   5.864   3.738   9.164 -0.2907  0.4036 -0.6419
  986MOL0     C35984   5.753   3.691   9.234  0.2847  0.0740  0.0794
  986MOL0     C35985   5.345   3.610   9.401 -0.3554 -0.1999 -0.6072
  986MOL0     C35986   5.211   3.601   9.359 -0.4267  0.8064  0.8974
  986MOL0     C35987   5.108   3.536   9.429 -0.3915 -0.2606  0.1288
  986MOL0     C35988   5.136   3.490   9.558  0.2726  0.7660 -0.0845
  986MOL0     O35989   5.032   3.431   9.633  0.3606 -0.1380 -0.3867
  986MOL0     C35990   4.906   3.387   9.576 -0.0315 -0.3148 -0.3810
  986MOL0     C35991   4.918   3.269   9.477 -0.2093 -0.4985  0.0984
  986MOL0     C35992   4.770   3.220   9.463 -0.0036  1.2155  0.7245
  986MOL0     C35993   4.689   3.322   9.382  1.0100  0.4445  0.5467
  986MOL0     C35994   4.618   3.411   9.472 -0.9560  0.7373 -0.8141
  986MOL0     C35995   4.556   3.475   9.551  0.1538 -0.3901  0.5626
  986MOL0     C35996   5.262   3.503   9.612 -0.7063  1.0203 -0.1222
  986MOL0     C35997   5.370   3.570   9.539 -0.0112 -0.2336 -0.4088
  986MOL0     C35998   5.507   3.584   9.605 -0.7455  0.2463 -0.6282
  986MOL0     H35999   5.582   3.979   9.253 -0.9473 -1.7830  1.1166
  986MOL0     H36000   5.770   4.061   9.126  4.0658 -0.8369 -3.4020
  986MOL0     H36001   6.116   3.779   9.021 -2.3434  1.1215 -0.8791
  986MOL0     H36002   6.110   3.849   9.179 -0.4406 -0.4537  0.5929
  986MOL0     H36003   6.311   3.931   9.098 -0.3553 -0.7061 -1.6662
  986MOL0     H36004   6.238   3.984   8.945 -1.2090 -1.8433 -0.9866
  986MOL0     H36005   6.275   4.171   9.074 -0.5726 -1.4535 -2.7606
  986MOL0     H36006   6.100   4.152   9.100  0.1837 -2.0367 -1.9242
  986MOL0     H36007   6.125   4.033   9.299  2.3638 -1.0618  0.8011
  986MOL0     H36008   6.292   4.076   9.324  1.2106 -0.5918 -1.7425
  986MOL0     H36009   6.064   4.269   9.281 -1.4074 -2.7498 -1.6027
  986MOL0     H36010   6.229   4.312   9.329  2.7379 -2.3070  1.1344
  986MOL0     H36011   6.030   4.145   9.489 -0.2196 -0.8572  1.0467
  986MOL0     H36012   6.182   4.177   9.551  0.2636 -1.4077 -1.5481
  986MOL0     H36013   5.969   4.377   9.479 -2.1025 -2.0426  2.8786
  986MOL0     H36014   6.141   4.421   9.539  1.8231 -1.6442  2.5520
  986MOL0     H36015   5.948   4.255   9.703 -1.0135  1.7032 -0.8176
  986MOL0     H36016   6.109   4.302   9.745  0.1478 -3.1423 -0.6861
  986MOL0     H36017   5.759   4.415   9.657  4.2511 -0.6951 -4.0789
  986MOL0     H36018   5.582   4.622   9.760 -0.0061  0.2537 -0.1224
  986MOL0     H36019   5.671   4.752   9.713 -2.2090 -0.5261 -1.4730
  986MOL0     H36020   5.668   4.634   9.997  0.3699  0.4150  0.1145
  986MOL0     H36021   5.724   4.794   9.949  0.0603 -1.1325  1.0769
  986MOL0     H36022   5.491   4.855   9.906  1.3955 -0.6849  1.2061
  986MOL0     H36023   5.434   4.691   9.955 -0.7233 -0.1847 -0.4322
  986MOL0     H36024   5.515   4.755  10.182 -0.6999  0.2414  0.3603
  986MOL0     H36025   5.549   4.918  10.118 -1.8093  0.7860 -0.6766
  986MOL0     H36026   5.369   4.648  10.259  0.1830  0.2022 -3.3914
  986MOL0     H36027   5.150   4.485  10.520  1.7191 -1.1692  2.7299
  986MOL0     H36028   5.295   4.570  10.562 -2.6145 -0.5663  2.9232
  986MOL0     H36029   5.281   4.466  10.407 -1.4203 -1.2899  1.1825
  986MOL0     H36030   4.955   4.447  10.781 -1.1408 -0.8980  0.3237
  986MOL0     H36031   4.808   4.441  10.951  1.3003 -0.6246 -0.6385
  986MOL0     H36032   4.569   4.363  11.003 -0.9219  0.5526 -0.8698
  986MOL0     H36033   4.606   4.507  11.111 -1.1271  2.2122 -0.2965
  986MOL0     H36034   4.405   4.385  11.189 -0.1935 -1.5976 -0.5885
  986MOL0     H36035   4.374   4.562  11.146  2.9102  0.1490 -0.5409
  986MOL0     H36036   4.307   4.317  10.982 -4.0691 -0.4443 -0.8262
  986MOL0     H36037   4.303   4.475  10.913  0.4160  1.9193  0.8385
  986MOL0     H36038   4.118   4.541  11.070 -0.9766  0.1395  3.6689
  986MOL0     H36039   4.151   4.387  11.160  0.0177 -0.2452 -0.6746
  986MOL0     H36040   4.045   4.379  10.870 -1.4077  1.7549  0.4301
  986MOL0     H36041   4.094   4.252  10.978  1.3289  1.1304  2.4443
  986MOL0     H36042   3.923   4.298  11.142  1.7875  0.5763 -0.1938
  986MOL0     H36043   3.858   4.259  10.982 -0.1130 -1.0935  0.7199
  986MOL0     H36044   3.889   4.507  10.950 -0.2468 -1.7317 -1.2555
  986MOL0     H36045   3.860   4.513  11.130  2.9578 -2.5114  0.7781
  986MOL0     H36046   3.663   4.373  10.939 -1.7223 -0.7478  1.5715
  986MOL0     H36047   3.643   4.537  11.007 -0.7523 -0.3755 -0.1727
  986MOL0     H36048   4.538   4.692  10.717  0.6352  1.1141 -0.0870
  986MOL0     H36049   4.710   4.721  10.551  1.6032  1.5647  1.0965
  986MOL0     H36050   4.962   4.906  10.342 -0.6065 -1.6912  1.8855
  986MOL0     H36051   5.120   4.977  10.173  0.1727 -1.0584 -0.5095
  986MOL0     H36052   5.933   3.663   9.128  0.4391  0.7405  0.0317
  986MOL0     H36053   5.735   3.589   9.266 -4.7295  0.6409 -0.1770
  986MOL0     H36054   5.189   3.660   9.271 -1.2120 -0.9860 -0.1664
  986MOL0     H36055   5.009   3.528   9.384 -0.3117  1.4308 -0.4112
  986MOL0     H36056   4.836   3.363   9.657  0.2833  1.5263  0.5058
  986MOL0     H36057   4.862   3.476   9.530  1.8294  1.0142  0.2655
  986MOL0     H36058   4.977   3.189   9.523  2.6386  0.5550 -1.4988
  986MOL0     H36059   4.953   3.291   9.376 -0.4583  0.5088  0.2212
  986MOL0     H36060   4.761   3.128   9.406  0.1086  0.4682  1.8782
  986MOL0     H36061   4.709   3.202   9.553  2.2719  0.1802  2.1507
  986MOL0     H36062   4.622   3.268   9.315  1.4470  0.8980 -0.2634
  986MOL0     H36063   4.746   3.383   9.311  3.0341 -3.5287 -1.5651
  986MOL0     H36064   4.514   3.541   9.624  0.3280 -0.7761  1.0188
  986MOL0     H36065   5.284   3.471   9.713 -1.6367 -1.4622 -0.6401
  986MOL0     H36066   5.508   3.525   9.696 -4.5402 -0.0006 -0.5781
  986MOL0     H36067   5.587   3.527   9.556  0.3299  0.9549  0.2646
  986MOL0     H36068   5.530   3.690   9.623 -2.0056  0.4455 -0.0958
  987MOL0     O36069   9.498   9.020   1.475 -0.1254 -0.6578 -0.3068
  987MOL0     C36070   9.487   9.100   1.386  0.2448 -0.2970 -0.6771
  987MOL0     O36071   9.589   9.153   1.309  0.0992 -0.0784 -0.4170
  987MOL0     C36072   9.713   9.092   1.337 -0.8587 -0.8006  1.3349
  987MOL0     C36073   9.731   8.956   1.315  0.3317  0.0084 -0.6112
  987MOL0     C36074   9.857   8.902   1.334 -0.1529  0.5347  0.4814
  987MOL0     C36075   9.969   8.984   1.374  0.3953  0.3043 -0.0447
  987MOL0     O36076  10.101   8.946   1.394 -0.0019  0.5307 -0.0574
  987MOL0     C36077  10.126   8.810   1.379 -0.3712  0.8363  0.7896
  987MOL0     C36078  10.275   8.796   1.413  0.8128  0.5988 -0.3198
  987MOL0     C36079  10.303   8.853   1.560 -1.1041 -1.0767  0.4642
  987MOL0     C36080  10.435   8.797   1.610  0.8744 -0.4367 -0.8155
  987MOL0     C36081  10.547   8.843   1.523 -0.2514 -0.3323 -0.0196
  987MOL0     C36082  10.539   8.992   1.479  0.3874  0.9871 -0.0120
  987MOL0     C36083  10.678   9.021   1.419  1.2643 -0.1346 -0.1659
  987MOL0     C36084  10.793   9.043   1.515  0.1976 -0.4101 -0.7159
  987MOL0     N36085  10.755   9.152   1.612  0.8279 -0.6286  1.4766
  987MOL0     C36086  10.748   9.138   1.748 -0.7047  0.4905  0.1721
  987MOL0     C36087  10.714   9.254   1.790 -0.2623 -0.1250 -0.0311
  987MOL0     C36088  10.683   9.287   1.935  0.2796  0.3810 -0.0308
  987MOL0     C36089  10.810   9.278   2.014 -0.1488 -0.0677  0.2186
  987MOL0     C36090  10.867   9.423   2.037 -0.4433  0.4843 -0.0383
  987MOL0     C36091  10.991   9.417   2.137  0.1238 -0.0014  1.0471
  987MOL0     O36092  11.082   9.328   2.068  0.5711  0.1449  0.7348
  987MOL0     C36093  11.218   9.336   2.099 -0.5716 -0.4148 -0.2551
  987MOL0     C36094  11.310   9.249   2.027 -1.1735  0.6262 -0.2380
  987MOL0     C36095  11.447   9.255   2.053 -0.4832  0.8627  0.1438
  987MOL0     C36096  11.528   9.146   1.996 -0.5226  0.0156  0.0909
  987MOL0     C36097  11.508   9.365   2.123  0.6892  0.3237  0.3604
  987MOL0     C36098  11.656   9.394   2.139  0.8715  0.2460 -0.1597
  987MOL0     O36099  11.683   9.491   2.232  0.1907 -0.3461  0.4286
  987MOL0     C36100  11.811   9.536   2.253  0.7674  0.5456 -0.0416
  987MOL0     C36101  11.918   9.443   2.294 -0.4213 -0.1371  0.5167
  987MOL0     C36102  12.038   9.494   2.336  0.4280  0.8069  1.0208
  987MOL0     C36103  12.054   9.629   2.351  0.1209 -0.4123  0.8525
  987MOL0     O36104  12.174   9.675   2.414  1.2512  0.7169  1.0610
  987MOL0     C36105  12.253   9.765   2.338  0.5692  0.0637 -0.2468
  987MOL0     C36106  12.278   9.878   2.444 -0.6492 -0.6050  0.2515
  987MOL0     C36107  12.353   9.992   2.369 -0.0258 -0.7331  0.5979
  987MOL0     C36108  12.445  10.057   2.461 -0.4390  0.1112 -0.3384
  987MOL0     C36109  12.511  10.168   2.393  0.3230 -0.0953 -0.5130
  987MOL0     C36110  12.627  10.218   2.484 -0.3147 -0.3246 -0.1768
  987MOL0     C36111  12.712  10.334   2.431  0.0029 -0.1127  0.1979
  987MOL0     C36112  12.617  10.445   2.375 -0.0061  1.1294  0.1089
  987MOL0    Cl36113  12.707  10.583   2.306 -0.1404  0.2703 -0.0236
  987MOL0     C36114  11.954   9.718   2.335 -0.4420  0.4882  0.1794
  987MOL0     C36115  11.835   9.674   2.284  1.0014  0.3406  0.1134
  987MOL0     O36116  11.734   9.341   2.062 -1.6261  0.0124  0.2930
  987MOL0     C36117  11.410   9.435   2.200  0.2047 -0.6422 -0.1455
  987MOL0     C36118  11.272   9.419   2.195 -0.0623 -0.1754 -0.2263
  987MOL0     N36119  10.681   9.340   1.684  0.0917 -0.4514 -0.3742
  987MOL0     N36120  10.714   9.275   1.581 -0.0492 -0.1919 -0.3790
  987MOL0     C36121   9.944   9.122   1.415  0.3274 -0.3402  0.8635
  987MOL0     C36122   9.819   9.174   1.385 -0.1638  0.3874  0.1928
  987MOL0     C36123   9.351   9.143   1.341  0.1050 -0.7844 -0.2446
  987MOL0     C36124   9.245   9.152   1.431 -0.7246 -1.7414 -0.6480
  987MOL0     C36125   9.118   9.184   1.394  0.1345  0.5299 -1.1583
  987MOL0     C36126   9.085   9.214   1.260 -0.4939  0.1222  0.0587
  987MOL0     O36127   8.963   9.259   1.231 -0.0521 -0.2277 -0.2603
  987MOL0     C36128   8.849   9.192   1.289  0.5078  0.5035  0.4980
  987MOL0     C36129   8.734   9.200   1.185  0.1349 -0.2654 -0.0890
  987MOL0     C36130   8.611   9.115   1.222  0.1649  0.1320  0.2276
  987MOL0     C36131   8.546   9.179   1.346 -0.2395  0.3637  0.5594
  987MOL0     C36132   8.424   9.100   1.369 -0.8488 -0.6161  1.7970
  987MOL0     C36133   8.326   9.048   1.404 -0.0618 -0.2835  0.1682
  987MOL0     C36134   9.185   9.185   1.158  0.5739 -0.7786  0.5392
  987MOL0     C36135   9.311   9.153   1.196  0.6127  0.3312 -0.6416
  987MOL0     C36136   9.410   9.134   1.080  0.7737 -0.2732  0.1731
  987MOL0     H36137   9.647   8.891   1.291 -1.3133  1.4473  0.9184
  987MOL0     H36138   9.870   8.798   1.306  0.6159  0.8574 -0.4158
  987MOL0     H36139  10.127   8.791   1.272  2.7979 -2.3750  1.2096
  987MOL0     H36140  10.062   8.743   1.437 -2.3309 -0.1317 -2.2649
  987MOL0     H36141  10.292   8.690   1.434  0.2454  0.6674  0.5673
  987MOL0     H36142  10.340   8.820   1.328  1.0383 -1.4867 -0.7920
  987MOL0     H36143  10.302   8.961   1.546 -3.6165 -1.3313 -2.6529
  987MOL0     H36144  10.215   8.826   1.618 -2.9803  1.5774 -0.9328
  987MOL0     H36145  10.448   8.836   1.712 -1.1685  0.6097 -0.9033
  987MOL0     H36146  10.413   8.690   1.606 -0.6963 -0.1808  0.0636
  987MOL0     H36147  10.558   8.773   1.440  0.1109 -3.1135  2.2163
  987MOL0     H36148  10.631   8.830   1.592  1.6904  1.6724 -1.8397
  987MOL0     H36149  10.457   8.996   1.406 -1.4432  2.3283  1.9554
  987MOL0     H36150  10.505   9.067   1.551  0.5339 -0.2878  1.4420
  987MOL0     H36151  10.659   9.112   1.362 -1.2522 -1.1566 -1.1164
  987MOL0     H36152  10.710   8.953   1.340  0.6306  2.6826 -3.0816
  987MOL0     H36153  10.816   8.949   1.567 -2.6810 -0.2903  0.9704
  987MOL0     H36154  10.875   9.090   1.461  2.3119 -2.5421  0.4577
  987MOL0     H36155  10.761   9.048   1.808 -1.1992  0.0551 -0.3472
  987MOL0     H36156  10.610   9.215   1.976  0.8130  0.4634  1.0902
  987MOL0     H36157  10.632   9.382   1.952 -0.2750  0.0922 -0.0296
  987MOL0     H36158  10.784   9.253   2.117 -1.2031  2.0398  0.5233
  987MOL0     H36159  10.881   9.208   1.969 -1.5943 -1.3161 -0.1887
  987MOL0     H36160  10.886   9.472   1.942 -1.8530  2.1563  0.5056
  987MOL0     H36161  10.788   9.488   2.076 -0.3634  1.0556 -0.8136
  987MOL0     H36162  11.024   9.522   2.141 -0.6091  0.4197 -1.7475
  987MOL0     H36163  10.963   9.380   2.236 -1.3430 -0.3642  0.5153
  987MOL0     H36164  11.258   9.182   1.959  0.8473  0.4999 -1.7277
  987MOL0     H36165  11.475   9.050   1.995 -1.1664  0.3081  2.1283
  987MOL0     H36166  11.620   9.133   2.053  0.3089 -1.7240 -1.5334
  987MOL0     H36167  11.557   9.171   1.893 -1.3087 -2.3835 -0.7892
  987MOL0     H36168  11.901   9.336   2.283 -1.8954  0.2481 -1.4512
  987MOL0     H36169  12.125   9.430   2.345  0.8883  1.2520 -0.1361
  987MOL0     H36170  12.347   9.719   2.307  1.3008  0.9523  0.6037
  987MOL0     H36171  12.198   9.799   2.249  0.9436 -0.4666 -0.6920
  987MOL0     H36172  12.186   9.918   2.487 -0.4180 -0.0277  0.2262
  987MOL0     H36173  12.342   9.840   2.524 -0.6566  1.9023  1.5545
  987MOL0     H36174  12.282  10.067   2.332  2.5828  0.8063 -1.6972
  987MOL0     H36175  12.400   9.952   2.278  0.8653  2.4623 -0.5000
  987MOL0     H36176  12.509   9.988   2.516 -0.5170 -0.2310 -0.6722
  987MOL0     H36177  12.384  10.102   2.541  0.3781 -1.1763  1.0695
  987MOL0     H36178  12.557  10.123   2.304 -1.3366 -2.4273 -0.3032
  987MOL0     H36179  12.438  10.246   2.371 -1.6947 -1.9169 -0.6767
  987MOL0     H36180  12.696  10.136   2.508  2.2015  1.8270  0.4729
  987MOL0     H36181  12.580  10.245   2.579  2.0007  0.6515  0.7759
  987MOL0     H36182  12.781  10.302   2.352 -2.1379  1.9526 -2.7175
  987MOL0     H36183  12.763  10.372   2.520 -1.5537 -0.2931  1.2082
  987MOL0     H36184  12.547  10.473   2.454 -1.5658 -2.7831  0.3494
  987MOL0     H36185  12.561  10.404   2.291  2.5513  1.2025 -1.7193
  987MOL0     H36186  11.968   9.822   2.361 -1.6533  1.2025 -1.7985
  987MOL0     H36187  11.751   9.742   2.271  1.0557 -0.1167 -4.4246
  987MOL0     H36188  11.437   9.505   2.278  0.7235 -0.1334 -0.7666
  987MOL0     H36189  11.214   9.482   2.263 -0.2874  0.6045 -1.1098
  987MOL0     H36190  10.027   9.182   1.450  2.2661 -2.1113 -0.4021
  987MOL0     H36191   9.811   9.282   1.389 -1.1641  0.3490 -0.2633
  987MOL0     H36192   9.272   9.123   1.532 -2.2798 -0.6667  0.1289
  987MOL0     H36193   9.056   9.191   1.483  0.9741  0.5547 -0.5621
  987MOL0     H36194   8.866   9.091   1.330  0.5148  0.1616 -0.3323
  987MOL0     H36195   8.816   9.252   1.374  0.9758 -0.1198  1.1303
  987MOL0     H36196   8.773   9.145   1.099 -1.0996 -0.9648 -0.2377
  987MOL0     H36197   8.706   9.304   1.167 -0.3705 -0.3017  0.4379
  987MOL0     H36198   8.547   9.113   1.133 -0.7863  2.3327  0.7859
  987MOL0     H36199   8.649   9.014   1.238  0.2348  0.3770  1.6976
  987MOL0     H36200   8.521   9.282   1.319  2.4664  1.0051  0.1765
  987MOL0     H36201   8.605   9.174   1.438 -0.9710 -2.8440  0.9621
  987MOL0     H36202   8.227   9.013   1.426  0.9270 -1.8171  2.4881
  987MOL0     H36203   9.143   9.199   1.059  1.7771 -1.8938 -0.1533
  987MOL0     H36204   9.358   9.121   0.985  2.3877 -2.2664 -0.5083
  987MOL0     H36205   9.468   9.225   1.064 -0.4104  0.1529 -2.1167
  987MOL0     H36206   9.467   9.042   1.095  0.2535 -0.6854 -0.3269
  988MOL0     O36207   1.707  10.725   8.097 -0.4570  0.0802  0.0287
  988MOL0     C36208   1.615  10.733   8.012  0.9898  0.0761  0.6564
  988MOL0     O36209   1.627  10.775   7.882 -0.1329 -0.3271 -0.3258
  988MOL0     C36210   1.746  10.810   7.846 -0.1310 -0.0294 -1.5643
  988MOL0     C36211   1.757  10.942   7.799 -1.2005 -0.1683 -1.1274
  988MOL0     C36212   1.883  10.986   7.743  0.1368  1.0639  0.2409
  988MOL0     C36213   1.976  10.880   7.719  0.3170  0.1645  0.9099
  988MOL0     O36214   2.096  10.905   7.672  0.5816  0.3792  0.5246
  988MOL0     C36215   2.170  11.020   7.707 -0.6211 -1.0149  0.2114
  988MOL0     C36216   2.281  11.035   7.605  0.0884 -0.3734 -0.5238
  988MOL0     C36217   2.396  10.937   7.632  0.0511 -0.2893  0.4097
  988MOL0     C36218   2.478  10.899   7.504  0.3238  0.3239  0.2187
  988MOL0     C36219   2.559  10.774   7.520 -0.0199  0.2736 -0.9282
  988MOL0     C36220   2.703  10.791   7.467  0.0324 -0.0664 -0.0133
  988MOL0     C36221   2.800  10.671   7.489  0.3410 -0.4855 -1.1895
  988MOL0     C36222   2.928  10.677   7.400 -0.0864 -0.7696  0.6850
  988MOL0     N36223   3.019  10.566   7.393  0.2156 -0.2297 -0.7614
  988MOL0     C36224   2.991  10.444   7.336  0.4820 -0.0397 -0.2206
  988MOL0     C36225   3.087  10.360   7.374 -0.2579 -1.0083  0.3142
  988MOL0     C36226   3.097  10.210   7.341 -0.3708 -0.2837  0.4210
  988MOL0     C36227   3.227  10.145   7.387 -0.3366  0.6761 -0.2209
  988MOL0     C36228   3.235   9.991   7.384 -0.7546 -0.0249  1.1366
  988MOL0     C36229   3.372   9.951   7.442  0.0839 -0.3155  0.1962
  988MOL0     O36230   3.373   9.981   7.587  0.4759  0.1130 -0.3297
  988MOL0     C36231   3.485  10.003   7.660 -0.6508 -0.2728  0.1299
  988MOL0     C36232   3.478  10.091   7.763  1.4475  0.5582  0.1779
  988MOL0     C36233   3.589  10.127   7.847  0.1285 -0.7543  0.7423
  988MOL0     C36234   3.564  10.227   7.959 -0.3819 -0.0015 -0.1046
  988MOL0     C36235   3.720  10.082   7.816 -0.0395 -0.6242 -0.1399
  988MOL0     C36236   3.842  10.116   7.890 -0.7020 -0.3156 -0.1331
  988MOL0     O36237   3.955  10.045   7.845 -0.5252  0.0239  0.6404
  988MOL0     C36238   4.084  10.080   7.891 -0.0471 -0.0791 -0.2516
  988MOL0     C36239   4.118  10.216   7.908 -0.2433 -0.5423 -0.3822
  988MOL0     C36240   4.241  10.254   7.963 -0.3391  0.5809 -0.1080
  988MOL0     C36241   4.341  10.157   7.989  0.3598  0.4342  0.0092
  988MOL0     O36242   4.462  10.173   8.055  0.1827  0.2278 -0.8029
  988MOL0     C36243   4.475  10.291   8.140  0.4688  0.2945  0.1571
  988MOL0     C36244   4.553  10.249   8.270  0.6248 -0.3458 -0.0442
  988MOL0     C36245   4.551  10.367   8.373 -0.3081 -0.2673  0.0868
  988MOL0     C36246   4.630  10.486   8.330 -0.3720 -0.6920  0.2442
  988MOL0     C36247   4.611  10.613   8.433  0.8871 -0.3328 -0.4174
  988MOL0     C36248   4.694  10.739   8.389 -0.2318  0.2792 -0.1454
  988MOL0     C36249   4.654  10.867   8.481  0.2491 -0.7655 -0.2674
  988MOL0     C36250   4.659  11.000   8.408 -0.3694  0.5740 -0.5152
  988MOL0    Cl36251   4.636  11.133   8.520  0.5860  0.4665  0.0198
  988MOL0     C36252   4.309  10.026   7.951 -0.5469  0.2465  0.9308
  988MOL0     C36253   4.186   9.987   7.909  1.0176  0.2160  0.0042
  988MOL0     O36254   3.840  10.185   7.992  0.4238  0.1546 -0.0084
  988MOL0     C36255   3.728  10.008   7.690  0.3053  0.3005  0.2752
  988MOL0     C36256   3.617   9.970   7.619  1.0700  0.3645 -0.2468
  988MOL0     N36257   3.177  10.437   7.453 -1.1616  0.6483  0.2537
  988MOL0     N36258   3.139  10.559   7.467 -0.2555 -0.5262  0.0674
  988MOL0     C36259   1.962  10.752   7.768 -0.3185 -0.2198  0.1078
  988MOL0     C36260   1.844  10.714   7.827 -1.0929  0.4277 -0.4282
  988MOL0     C36261   1.480  10.710   8.066  1.0463 -0.4848  0.1076
  988MOL0     C36262   1.469  10.641   8.190  1.2666  0.6851  0.9698
  988MOL0     C36263   1.340  10.621   8.246  0.3049  0.9496 -0.2211
  988MOL0     C36264   1.225  10.675   8.191 -0.6654 -0.4572 -0.5361
  988MOL0     O36265   1.093  10.661   8.232 -0.9146 -0.6815 -0.3556
  988MOL0     C36266   1.076  10.546   8.315  0.1937  0.2895 -0.2743
  988MOL0     C36267   0.925  10.536   8.324  0.9495  0.4851  1.1138
  988MOL0     C36268   0.848  10.502   8.194 -0.3360  0.8710  0.1704
  988MOL0     C36269   0.865  10.354   8.158  0.2674 -0.7019 -0.4567
  988MOL0     C36270   0.794  10.317   8.037  0.9280  0.0817  1.3125
  988MOL0     C36271   0.727  10.293   7.933  1.3353  0.7488  0.1330
  988MOL0     C36272   1.244  10.737   8.061  0.4136 -1.2969  0.1762
  988MOL0     C36273   1.364  10.760   8.004 -0.6029 -0.6361 -0.2471
  988MOL0     C36274   1.357  10.854   7.882 -0.0751  0.0809  0.6376
  988MOL0     H36275   1.680  11.016   7.816  0.0094  0.4189  3.0639
  988MOL0     H36276   1.892  11.087   7.703 -1.1530  2.0964  2.3889
  988MOL0     H36277   2.210  11.015   7.809 -0.9252  0.5039  0.4265
  988MOL0     H36278   2.099  11.102   7.697 -2.3376 -2.6587 -2.2965
  988MOL0     H36279   2.238  11.028   7.505  0.6188 -3.6315 -0.6529
  988MOL0     H36280   2.329  11.133   7.608  2.5139 -1.4075 -2.0721
  988MOL0     H36281   2.464  10.988   7.701  1.1837 -2.2974  0.8421
  988MOL0     H36282   2.368  10.848   7.690 -0.5186  0.5962  1.5540
  988MOL0     H36283   2.405  10.891   7.423  0.7950  1.5045 -0.3490
  988MOL0     H36284   2.534  10.981   7.458 -1.3364  0.2990 -2.0491
  988MOL0     H36285   2.508  10.696   7.462 -1.1857  0.5190 -0.2579
  988MOL0     H36286   2.552  10.742   7.624 -0.2509  2.5025 -0.2228
  988MOL0     H36287   2.691  10.810   7.360 -1.2982  3.8216  0.6669
  988MOL0     H36288   2.742  10.886   7.506  2.9077  0.5882 -3.9225
  988MOL0     H36289   2.743  10.579   7.469 -2.2034  0.0395  2.6127
  988MOL0     H36290   2.818  10.676   7.597 -0.2488 -1.0587 -1.0569
  988MOL0     H36291   2.898  10.694   7.296  1.4758  1.0918  0.4722
  988MOL0     H36292   2.978  10.772   7.421 -0.6633 -0.2613 -0.1832
  988MOL0     H36293   2.901  10.411   7.286 -0.8050 -1.0348  2.5425
  988MOL0     H36294   3.096  10.202   7.232 -0.8242  2.3626  0.1620
  988MOL0     H36295   3.017  10.146   7.381  1.4194 -1.2476  2.6743
  988MOL0     H36296   3.313  10.197   7.344 -0.4913 -2.0933 -4.4649
  988MOL0     H36297   3.226  10.162   7.495  1.1486  0.7559 -0.2057
  988MOL0     H36298   3.146   9.948   7.430 -1.3323  0.5160  0.5655
  988MOL0     H36299   3.234   9.953   7.281  1.2759 -2.6662  1.9874
  988MOL0     H36300   3.394   9.845   7.424  0.3832 -0.1752 -0.2746
  988MOL0     H36301   3.445  10.020   7.400 -1.3565  0.4708 -1.0780
  988MOL0     H36302   3.380  10.136   7.773  0.8792  0.0161 -2.2998
  988MOL0     H36303   3.621  10.320   7.951 -2.1118  1.1856  0.6742
  988MOL0     H36304   3.601  10.185   8.053  3.0118 -0.6075 -1.5619
  988MOL0     H36305   3.457  10.243   7.974 -0.7315 -0.5214 -1.8051
  988MOL0     H36306   4.043  10.286   7.876 -3.6891 -3.5877  0.3275
  988MOL0     H36307   4.262  10.360   7.970  1.7180  0.3802 -2.1290
  988MOL0     H36308   4.531  10.370   8.089  0.5142 -0.5927 -1.2207
  988MOL0     H36309   4.374  10.312   8.175  0.1320 -2.0171  0.7438
  988MOL0     H36310   4.493  10.177   8.326 -1.9771  0.0252 -2.1728
  988MOL0     H36311   4.654  10.215   8.245  1.0962  1.1663 -0.3233
  988MOL0     H36312   4.617  10.320   8.446  0.0351  0.7459  0.4356
  988MOL0     H36313   4.450  10.391   8.408  0.3597  2.4664  0.3399
  988MOL0     H36314   4.600  10.511   8.228 -4.4764 -1.6518  1.0273
  988MOL0     H36315   4.737  10.466   8.323 -0.5873 -1.3614 -1.5382
  988MOL0     H36316   4.505  10.639   8.443  1.3687  1.1389  1.4949
  988MOL0     H36317   4.636  10.588   8.537 -2.2080  1.2026  0.8253
  988MOL0     H36318   4.669  10.765   8.285 -0.1158  1.3991  0.1013
  988MOL0     H36319   4.802  10.725   8.392 -0.2403  0.0670 -0.6318
  988MOL0     H36320   4.731  10.863   8.558  0.0478  0.0300 -0.0171
  988MOL0     H36321   4.556  10.858   8.530  1.4908  0.9648  2.8244
  988MOL0     H36322   4.579  11.005   8.334 -1.0200  0.3051  0.1573
  988MOL0     H36323   4.757  11.003   8.359 -0.2764  0.1647 -0.3579
  988MOL0     H36324   4.385   9.948   7.953 -1.0591 -0.2660  0.7348
  988MOL0     H36325   4.175   9.879   7.902 -3.2192  0.3323  2.2141
  988MOL0     H36326   3.824   9.982   7.648  0.6798 -0.0470  1.3256
  988MOL0     H36327   3.617   9.918   7.524 -3.4752 -1.1828  0.3689
  988MOL0     H36328   2.046  10.683   7.773 -1.2166 -1.2561  2.7288
  988MOL0     H36329   1.819  10.611   7.852  0.2001  0.6249  1.9466
  988MOL0     H36330   1.564  10.614   8.234  1.7303  0.9370  0.1512
  988MOL0     H36331   1.322  10.553   8.329  0.1132 -0.9917 -1.7748
  988MOL0     H36332   1.124  10.452   8.287 -0.5636 -1.7887  4.4454
  988MOL0     H36333   1.107  10.577   8.416 -0.8627 -0.8822  0.4317
  988MOL0     H36334   0.883  10.634   8.352 -0.2686  0.9384 -1.9035
  988MOL0     H36335   0.893  10.465   8.401  0.1106 -1.8266 -1.2179
  988MOL0     H36336   0.740  10.520   8.196 -1.2385 -3.4115  1.3062
  988MOL0     H36337   0.877  10.567   8.111 -3.4807  3.2198  0.7054
  988MOL0     H36338   0.830  10.296   8.244 -1.6377  1.1986  0.1364
  988MOL0     H36339   0.970  10.325   8.145  1.7104  0.9432  4.8373
  988MOL0     H36340   0.671  10.275   7.844 -0.8905  0.0336  1.6001
  988MOL0     H36341   1.154  10.769   8.008  2.1866  1.6124 -1.3740
  988MOL0     H36342   1.398  10.796   7.799  0.1530 -0.7721  1.3332
  988MOL0     H36343   1.258  10.891   7.853  0.5533 -0.2798 -2.2872
  988MOL0     H36344   1.421  10.942   7.894  1.5559 -1.2114  2.1112
  989MOL0     O36345   4.610   6.966   1.634  0.2706 -0.3072  0.0517
  989MOL0     C36346   4.697   7.046   1.624 -0.4996 -0.5622 -0.2420
  989MOL0     O36347   4.730   7.133   1.727  0.2720  0.9123  0.1104
  989MOL0     C36348   4.684   7.103   1.857  0.1052 -0.5398  0.6997
  989MOL0     C36349   4.611   7.201   1.913  0.1880 -0.2303 -0.1881
  989MOL0     C36350   4.559   7.172   2.042  0.8391 -0.1858  0.0502
  989MOL0     C36351   4.595   7.053   2.108 -0.9775  1.0421 -0.9315
  989MOL0     O36352   4.530   7.014   2.224  0.5645 -0.3886  0.0002
  989MOL0     C36353   4.492   7.116   2.323 -0.2161  0.2492  0.1944
  989MOL0     C36354   4.462   7.058   2.454  0.0947 -0.0934  0.1640
  989MOL0     C36355   4.382   7.158   2.537  0.5850 -0.2324  0.0837
  989MOL0     C36356   4.379   7.114   2.677 -0.3308 -0.3872 -0.8429
  989MOL0     C36357   4.289   7.212   2.762 -0.0041 -0.0831  0.4878
  989MOL0     C36358   4.278   7.155   2.903  0.7804 -0.2552 -0.4081
  989MOL0     C36359   4.182   7.244   2.982 -0.3975 -0.2529 -0.2854
  989MOL0     C36360   4.192   7.226   3.127 -1.0117  0.2309 -0.0575
  989MOL0     N36361   4.074   7.162   3.182  0.2309 -0.5227  0.2165
  989MOL0     C36362   4.005   7.182   3.305  0.6645  0.4124  0.0439
  989MOL0     C36363   3.933   7.073   3.312  0.8633  0.6239  0.7269
  989MOL0     C36364   3.849   7.015   3.423 -0.1958 -0.0627 -0.3163
  989MOL0     C36365   3.710   7.074   3.397  0.3199  0.0485 -0.3086
  989MOL0     C36366   3.602   6.994   3.472 -0.0095 -0.5776  0.8559
  989MOL0     C36367   3.602   7.036   3.619 -0.3556  0.3670 -0.4811
  989MOL0     O36368   3.600   7.183   3.643 -0.8423  0.8787  0.8459
  989MOL0     C36369   3.584   7.197   3.782 -0.2020  0.0357  1.0122
  989MOL0     C36370   3.457   7.167   3.834  1.3604  0.0170 -0.6702
  989MOL0     C36371   3.431   7.183   3.970  0.7987 -0.0085  0.2017
  989MOL0     C36372   3.288   7.157   4.010 -0.0448  0.4296 -0.8071
  989MOL0     C36373   3.533   7.236   4.052  0.4023 -0.6779  0.2140
  989MOL0     C36374   3.513   7.265   4.195 -0.0743 -0.0505 -0.2317
  989MOL0     O36375   3.602   7.347   4.253  0.1344  0.3420  0.0202
  989MOL0     C36376   3.584   7.377   4.380  0.2128  0.4734  0.1783
  989MOL0     C36377   3.675   7.324   4.478  0.3386 -0.3268  0.9322
  989MOL0     C36378   3.670   7.353   4.613  0.5103 -0.1833  0.9107
  989MOL0     C36379   3.553   7.429   4.663 -0.5345 -0.2444  0.4218
  989MOL0     O36380   3.523   7.449   4.797 -0.3009 -0.1701 -0.6062
  989MOL0     C36381   3.611   7.549   4.850  0.8365  0.6076 -0.2788
  989MOL0     C36382   3.586   7.592   4.990 -0.2966  0.0418 -0.5631
  989MOL0     C36383   3.691   7.694   5.038 -0.2607 -0.3212 -0.4170
  989MOL0     C36384   3.651   7.740   5.181 -0.2309  0.4887  1.2004
  989MOL0     C36385   3.521   7.828   5.175  0.1256 -0.9729  0.5820
  989MOL0     C36386   3.493   7.904   5.308 -0.1453  0.0949  0.4283
  989MOL0     C36387   3.361   7.986   5.315  0.8226 -1.1607  0.3284
  989MOL0     C36388   3.310   7.996   5.456  0.0046 -0.0875 -0.4125
  989MOL0    Cl36389   3.228   8.157   5.491 -0.2615  0.3767  0.0447
  989MOL0     C36390   3.473   7.486   4.564  0.9687 -0.0612 -0.2364
  989MOL0     C36391   3.482   7.462   4.425 -1.2852 -0.8207  0.2579
  989MOL0     O36392   3.427   7.200   4.261  0.3429  0.2403  0.1672
  989MOL0     C36393   3.661   7.261   3.990 -0.2422 -0.0430 -0.2856
  989MOL0     C36394   3.691   7.245   3.860 -0.3067  0.0355  0.7858
  989MOL0     N36395   3.956   6.995   3.203  0.6461  0.7828 -0.5226
  989MOL0     N36396   4.024   7.055   3.118 -1.0852  0.6390 -0.0501
  989MOL0     C36397   4.660   6.953   2.039 -1.1059 -0.2386 -0.1070
  989MOL0     C36398   4.710   6.979   1.915  0.2106 -0.0979  0.7766
  989MOL0     C36399   4.785   7.056   1.509 -0.3936 -0.7468 -0.3842
  989MOL0     C36400   4.900   7.138   1.518  1.1626  0.6368 -0.0938
  989MOL0     C36401   4.984   7.164   1.413  0.2765  0.4932 -0.1078
  989MOL0     C36402   4.948   7.119   1.284  0.6681  0.1267 -0.9805
  989MOL0     O36403   5.025   7.164   1.176  0.3018 -0.5521 -0.1596
  989MOL0     C36404   5.010   7.108   1.044 -0.1332  1.1990  0.1344
  989MOL0     C36405   5.079   7.184   0.933 -0.7006  0.0763 -0.3938
  989MOL0     C36406   5.206   7.114   0.879 -0.0887 -1.0634  0.1896
  989MOL0     C36407   5.170   7.014   0.763 -0.1055  0.6683 -0.6726
  989MOL0     C36408   5.121   6.885   0.803 -0.4362  1.0297 -0.7102
  989MOL0     C36409   5.065   6.770   0.816  0.1750 -1.0524  0.1206
  989MOL0     C36410   4.837   7.035   1.275 -0.0500  0.8143 -0.8930
  989MOL0     C36411   4.760   6.996   1.388  0.0338  0.0682 -0.2682
  989MOL0     C36412   4.660   6.887   1.366 -0.2526  0.1699  1.0897
  989MOL0     H36413   4.588   7.296   1.866 -0.5172 -0.1968  0.2190
  989MOL0     H36414   4.501   7.243   2.102  1.4942 -0.3280  0.8684
  989MOL0     H36415   4.399   7.167   2.296 -0.0562  1.2114  1.3705
  989MOL0     H36416   4.579   7.183   2.325  0.6627 -0.7084 -2.0172
  989MOL0     H36417   4.410   6.963   2.441 -0.5735  0.2688  0.0990
  989MOL0     H36418   4.561   7.042   2.497 -0.1460 -0.4613  0.5982
  989MOL0     H36419   4.423   7.259   2.529 -0.0326 -0.0975 -2.2812
  989MOL0     H36420   4.279   7.155   2.501  0.3753 -2.6407  0.6823
  989MOL0     H36421   4.341   7.011   2.679  1.6754 -1.1669 -0.9726
  989MOL0     H36422   4.482   7.114   2.712 -0.4673 -2.4925 -0.2938
  989MOL0     H36423   4.188   7.227   2.723 -0.7297 -2.0627  1.4868
  989MOL0     H36424   4.331   7.313   2.760 -1.2529  0.4420 -0.6338
  989MOL0     H36425   4.235   7.055   2.897  2.1508 -0.8352 -0.8063
  989MOL0     H36426   4.377   7.139   2.946  0.1178 -0.2862  1.1905
  989MOL0     H36427   4.079   7.226   2.952 -1.4779 -0.1131  2.9632
  989MOL0     H36428   4.210   7.348   2.961  2.2009 -0.7295  0.4302
  989MOL0     H36429   4.281   7.167   3.150  1.4122  3.6475  0.0029
  989MOL0     H36430   4.213   7.321   3.177 -1.3310 -0.4759  1.4816
  989MOL0     H36431   4.015   7.269   3.370 -0.1042  1.3842 -1.1047
  989MOL0     H36432   3.891   7.028   3.523  1.3450 -2.2729 -0.6136
  989MOL0     H36433   3.833   6.907   3.419 -3.4413  0.3493 -0.8051
  989MOL0     H36434   3.711   7.183   3.411 -0.5990  0.0832 -0.4195
  989MOL0     H36435   3.695   7.049   3.292 -1.2679 -1.2850  0.1953
  989MOL0     H36436   3.506   7.022   3.430  0.9183 -1.1568 -1.8545
  989MOL0     H36437   3.615   6.887   3.452 -0.3445 -0.2394 -1.4107
  989MOL0     H36438   3.511   6.990   3.661 -0.5500  1.2652  0.1267
  989MOL0     H36439   3.683   6.985   3.671 -2.6479 -0.3405  2.7252
  989MOL0     H36440   3.376   7.159   3.762  0.0106 -0.4298  0.8421
  989MOL0     H36441   3.247   7.230   4.080 -0.1630 -0.8798  0.5308
  989MOL0     H36442   3.287   7.059   4.059  1.1920  0.5708 -0.4784
  989MOL0     H36443   3.217   7.145   3.927  0.4194 -0.9157 -1.0299
  989MOL0     H36444   3.754   7.259   4.440  0.6288 -1.4028  3.2233
  989MOL0     H36445   3.743   7.326   4.689  2.4485  2.5633  0.2046
  989MOL0     H36446   3.714   7.513   4.850  0.4331 -0.6583 -1.2089
  989MOL0     H36447   3.609   7.634   4.781 -0.8874 -1.2628 -2.7534
  989MOL0     H36448   3.482   7.627   4.983  0.1309  1.3181 -0.7940
  989MOL0     H36449   3.594   7.497   5.043  1.1255  0.4689  0.0187
  989MOL0     H36450   3.694   7.777   4.968 -0.1353  0.0105 -0.0228
  989MOL0     H36451   3.782   7.634   5.039  0.5677  0.8937 -1.2919
  989MOL0     H36452   3.736   7.786   5.231 -1.5391 -0.1659  4.2112
  989MOL0     H36453   3.611   7.658   5.241 -0.9798 -0.5398 -0.6046
  989MOL0     H36454   3.525   7.904   5.096  0.2199 -0.7677  0.7838
  989MOL0     H36455   3.432   7.768   5.155 -0.8091 -0.0149  1.7006
  989MOL0     H36456   3.583   7.959   5.338 -0.1621 -0.5085  1.6616
  989MOL0     H36457   3.478   7.822   5.380  2.2879  1.1445  2.2696
  989MOL0     H36458   3.280   7.948   5.252  0.4547  2.3911 -1.6109
  989MOL0     H36459   3.382   8.091   5.295 -1.1349 -0.7909 -0.0226
  989MOL0     H36460   3.391   7.994   5.530 -0.8635  0.4517  0.5739
  989MOL0     H36461   3.254   7.904   5.476  2.8223 -1.5191  1.6641
  989MOL0     H36462   3.405   7.564   4.599  2.5964  1.2506  0.1278
  989MOL0     H36463   3.409   7.512   4.362  0.9329  0.9691 -1.0800
  989MOL0     H36464   3.738   7.299   4.057 -0.3470 -0.2603 -0.0411
  989MOL0     H36465   3.783   7.281   3.815 -2.1751  3.9215 -0.4621
  989MOL0     H36466   4.682   6.857   2.085 -0.1325 -0.9908 -2.0161
  989MOL0     H36467   4.764   6.901   1.861 -0.1948  0.1104  0.0501
  989MOL0     H36468   4.924   7.182   1.615 -2.3279 -0.1999  1.3179
  989MOL0     H36469   5.069   7.231   1.423  1.0977 -0.2912 -1.4782
  989MOL0     H36470   5.052   7.007   1.053 -1.6659  0.5503  0.4158
  989MOL0     H36471   4.907   7.099   1.009 -1.5561 -0.4045  4.1110
  989MOL0     H36472   5.098   7.286   0.966 -0.6656  0.7886 -2.4252
  989MOL0     H36473   5.012   7.204   0.849 -0.4557  0.0553 -0.5958
  989MOL0     H36474   5.254   7.198   0.829 -4.2332  2.0124  0.8265
  989MOL0     H36475   5.268   7.063   0.954  2.3723  1.9774  0.4464
  989MOL0     H36476   5.268   6.998   0.717 -0.2846 -1.2904 -0.4730
  989MOL0     H36477   5.107   7.059   0.686  2.1121 -0.6588 -3.4911
  989MOL0     H36478   5.001   6.684   0.814 -1.3723  0.0535  0.2023
  989MOL0     H36479   4.810   7.001   1.175  0.8267 -0.6220 -0.6676
  989MOL0     H36480   4.696   6.801   1.423  0.2681  0.5968  1.4223
  989MOL0     H36481   4.560   6.918   1.395 -0.8283 -2.1736  1.8316
  989MOL0     H36482   4.661   6.851   1.263 -2.4602  1.6139  0.4945
  990MOL0     O36483   0.083  11.507   2.803  0.6048  1.0870 -0.7989
  990MOL0     C36484   0.095  11.624   2.758  0.2787  0.5671 -0.6782
  990MOL0     O36485   0.105  11.741   2.838 -0.0136 -0.3116  0.0875
  990MOL0     C36486   0.089  11.713   2.970 -1.0493 -0.0415 -0.4722
  990MOL0     C36487  -0.035  11.710   3.039 -0.5981 -0.3181 -0.5080
  990MOL0     C36488  -0.036  11.661   3.172 -0.1367 -1.1690 -0.0262
  990MOL0     C36489   0.079  11.609   3.230  0.0407 -0.0732  1.0122
  990MOL0     O36490   0.087  11.554   3.354  0.3080 -0.1242 -0.0895
  990MOL0     C36491  -0.016  11.568   3.443 -0.0402  0.2452 -0.8329
  990MOL0     C36492   0.056  11.565   3.581 -0.1261 -0.5655 -0.4642
  990MOL0     C36493   0.139  11.689   3.596 -0.6726  0.3894  0.2304
  990MOL0     C36494   0.192  11.681   3.735 -1.0133 -0.5217 -0.0078
  990MOL0     C36495   0.330  11.758   3.740  0.2766  0.4944  0.0097
  990MOL0     C36496   0.305  11.912   3.749 -0.7996  0.4510  0.3081
  990MOL0     C36497   0.270  11.957   3.894  0.3139 -1.3628 -0.2917
  990MOL0     C36498   0.261  12.109   3.909  1.1867 -0.1915  0.5619
  990MOL0     N36499   0.223  12.147   4.044  0.3441 -0.1176  1.4882
  990MOL0     C36500   0.108  12.107   4.097  1.2082  0.2563  0.8933
  990MOL0     C36501   0.103  12.154   4.221 -0.2720 -1.2328 -0.3341
  990MOL0     C36502   0.003  12.151   4.339 -1.0206  0.3825  0.1345
  990MOL0     C36503  -0.110  12.053   4.306 -0.3411  0.3369 -0.6534
  990MOL0     C36504  -0.208  12.133   4.225 -0.3674  0.9721  0.2771
  990MOL0     C36505  -0.324  12.048   4.180 -0.1973 -0.9058 -0.1964
  990MOL0     O36506  -0.418  12.127   4.103 -0.6160  0.7988 -0.4863
  990MOL0     C36507  -0.539  12.082   4.064  0.4307 -0.2403 -0.6242
  990MOL0     C36508  -0.624  12.026   4.160 -0.9259  0.3560 -0.1964
  990MOL0     C36509  -0.759  11.997   4.134 -0.5235  0.1326  0.5339
  990MOL0     C36510  -0.829  11.945   4.258  0.1403 -0.1193 -0.8026
  990MOL0     C36511  -0.806  12.018   4.003  1.0508  0.5162 -0.0489
  990MOL0     C36512  -0.950  11.985   3.961 -0.0268  0.2280 -0.2872
  990MOL0     O36513  -0.988  12.050   3.850  0.3206 -0.2518  0.1297
  990MOL0     C36514  -1.118  12.062   3.814  0.5763 -0.3288 -0.6337
  990MOL0     C36515  -1.203  12.148   3.876  0.9045 -0.1298  0.8959
  990MOL0     C36516  -1.331  12.174   3.827  0.0913 -0.0581  0.5894
  990MOL0     C36517  -1.370  12.103   3.716  1.1947  0.9435 -0.0017
  990MOL0     O36518  -1.472  12.150   3.638  0.1930 -0.1891  0.6808
  990MOL0     C36519  -1.582  12.212   3.711 -0.6869  0.0320  0.5619
  990MOL0     C36520  -1.715  12.208   3.643  0.2116 -0.3020  0.3214
  990MOL0     C36521  -1.784  12.064   3.654 -0.3549 -0.5878 -0.2226
  990MOL0     C36522  -1.932  12.080   3.617  0.1833  0.1809 -0.2765
  990MOL0     C36523  -1.998  11.947   3.652  0.0319  1.3846 -0.6001
  990MOL0     C36524  -2.150  11.950   3.651  0.0537  0.6684 -0.7343
  990MOL0     C36525  -2.206  11.811   3.696 -0.6936  1.3660 -0.3048
  990MOL0     C36526  -2.343  11.781   3.705 -0.1744 -0.5780  0.7192
  990MOL0    Cl36527  -2.422  11.876   3.830  0.3243  0.1509  0.1166
  990MOL0     C36528  -1.294  12.005   3.656  0.2727 -0.0641  0.0211
  990MOL0     C36529  -1.168  11.983   3.712 -0.2694 -0.1913  1.1707
  990MOL0     O36530  -1.025  11.920   4.031  0.4113  0.0594  0.5168
  990MOL0     C36531  -0.714  12.070   3.908  0.1694  0.4385 -0.6813
  990MOL0     C36532  -0.584  12.101   3.931 -0.3330  0.5863 -0.7991
  990MOL0     N36533   0.212  12.235   4.239 -0.6565 -0.2194  0.7202
  990MOL0     N36534   0.285  12.226   4.131 -0.2894 -0.3031 -0.6009
  990MOL0     C36535   0.199  11.608   3.158 -0.0440 -0.7518 -0.5597
  990MOL0     C36536   0.205  11.663   3.032  0.4313  0.0571  0.5067
  990MOL0     C36537   0.100  11.636   2.610  0.0801 -0.6996 -0.9357
  990MOL0     C36538   0.170  11.750   2.558 -0.8639 -0.8849  0.5072
  990MOL0     C36539   0.192  11.769   2.418 -0.0808 -0.8996 -0.5260
  990MOL0     C36540   0.156  11.679   2.331  0.1367 -0.2728 -0.2854
  990MOL0     O36541   0.179  11.706   2.200  1.2009 -0.2681 -0.1521
  990MOL0     C36542   0.136  11.615   2.105 -0.4159 -0.2058  1.0991
  990MOL0     C36543   0.154  11.684   1.965 -0.9200 -0.4180 -0.4123
  990MOL0     C36544   0.087  11.613   1.850  1.1234 -0.0140  0.6886
  990MOL0     C36545  -0.068  11.630   1.845  0.0489 -0.4749 -0.4643
  990MOL0     C36546  -0.106  11.773   1.848 -0.4160  0.0319  1.3862
  990MOL0     C36547  -0.141  11.887   1.850 -0.3111  0.1945 -1.3850
  990MOL0     C36548   0.099  11.559   2.382 -0.4290 -0.2267 -0.3002
  990MOL0     C36549   0.062  11.537   2.515 -0.7480 -0.5126 -0.1064
  990MOL0     C36550  -0.001  11.408   2.543  0.4503 -0.2455 -0.3636
  990MOL0     H36551  -0.123  11.748   2.988  0.1670  0.9002 -0.9694
  990MOL0     H36552  -0.134  11.647   3.216  0.0712  3.3935  2.5012
  990MOL0     H36553  -0.084  11.482   3.448 -0.4405  0.5970 -0.2120
  990MOL0     H36554  -0.074  11.659   3.428  0.2563  0.2966 -1.7276
  990MOL0     H36555  -0.018  11.544   3.658 -2.2724 -2.7570 -2.9428
  990MOL0     H36556   0.114  11.473   3.574  3.2182  1.3891 -0.4150
  990MOL0     H36557   0.218  11.678   3.520  0.7323  3.3966  1.1143
  990MOL0     H36558   0.075  11.774   3.574  0.3102  0.9589 -0.5566
  990MOL0     H36559   0.121  11.734   3.799 -0.6735  1.1338 -0.9393
  990MOL0     H36560   0.206  11.580   3.774  1.0534 -1.0226 -1.8396
  990MOL0     H36561   0.398  11.732   3.658 -0.7604  0.4210 -0.8502
  990MOL0     H36562   0.387  11.724   3.827 -0.6334 -3.5361 -0.7932
  990MOL0     H36563   0.400  11.956   3.717 -0.1587 -0.5472  0.7732
  990MOL0     H36564   0.221  11.949   3.689 -2.8794 -1.1172  2.0762
  990MOL0     H36565   0.343  11.929   3.971  1.0288 -0.2814 -0.5376
  990MOL0     H36566   0.173  11.916   3.922  0.7758 -1.1323  1.7890
  990MOL0     H36567   0.353  12.162   3.883  1.1119 -1.3048 -2.3978
  990MOL0     H36568   0.179  12.134   3.841 -0.7665  0.4887  3.0193
  990MOL0     H36569   0.040  12.040   4.046  1.3099 -0.7294  2.0325
  990MOL0     H36570  -0.034  12.247   4.374 -0.5131 -0.2297  2.5632
  990MOL0     H36571   0.063  12.118   4.424 -3.0174  0.3792  1.6092
  990MOL0     H36572  -0.084  11.965   4.247  1.7484 -0.4730  1.3503
  990MOL0     H36573  -0.149  12.002   4.395  0.9014 -1.5721 -1.1391
  990MOL0     H36574  -0.232  12.229   4.272  0.3511  2.6110 -2.5184
  990MOL0     H36575  -0.157  12.163   4.133 -3.2168 -1.2495 -2.2389
  990MOL0     H36576  -0.283  11.965   4.122 -0.7647 -0.3891 -1.3493
  990MOL0     H36577  -0.382  12.013   4.267 -0.1510  0.7799  0.5439
  990MOL0     H36578  -0.587  12.023   4.261 -2.3137 -1.1281  0.3092
  990MOL0     H36579  -0.915  12.009   4.281 -0.3478 -1.0783  0.1105
  990MOL0     H36580  -0.767  11.937   4.348 -0.1897 -2.6866 -0.7435
  990MOL0     H36581  -0.875  11.851   4.226 -0.8904  0.3254 -0.6492
  990MOL0     H36582  -1.180  12.196   3.970  1.0620  0.2383  0.6734
  990MOL0     H36583  -1.384  12.262   3.862  1.9012  1.7871 -1.0012
  990MOL0     H36584  -1.583  12.169   3.812  0.6631 -0.9397  0.1827
  990MOL0     H36585  -1.549  12.316   3.727  1.4755 -0.8391  2.4759
  990MOL0     H36586  -1.778  12.285   3.689 -0.8986 -1.8511  1.4942
  990MOL0     H36587  -1.695  12.232   3.538 -0.5848 -2.5804 -0.4195
  990MOL0     H36588  -1.770  12.032   3.757 -2.1431 -1.7847 -0.3052
  990MOL0     H36589  -1.748  11.989   3.583  2.8185  1.0938 -0.6018
  990MOL0     H36590  -1.946  12.112   3.513 -2.4789  1.2755  0.3430
  990MOL0     H36591  -1.979  12.155   3.681  0.5319 -0.3127  0.5720
  990MOL0     H36592  -1.965  11.872   3.579 -2.3766 -1.0775  0.6508
  990MOL0     H36593  -1.947  11.912   3.743 -0.8007  1.0165 -0.2718
  990MOL0     H36594  -2.189  11.964   3.550 -3.6573 -2.2893  0.0436
  990MOL0     H36595  -2.185  12.035   3.711  0.5628  3.1183 -3.6692
  990MOL0     H36596  -2.167  11.779   3.793  1.6891 -2.8404 -2.3515
  990MOL0     H36597  -2.180  11.737   3.620 -0.1691 -0.3518  1.4596
  990MOL0     H36598  -2.347  11.673   3.721  1.2768 -0.7104  0.3924
  990MOL0     H36599  -2.401  11.797   3.614 -2.1901  2.2098  2.3393
  990MOL0     H36600  -1.317  11.947   3.567  1.1780  1.4206 -1.2509
  990MOL0     H36601  -1.103  11.914   3.659  1.5555 -0.3025  3.4361
  990MOL0     H36602  -0.764  12.089   3.814 -0.8955  0.8499 -0.0475
  990MOL0     H36603  -0.526  12.152   3.855 -0.8989  3.4540  0.5854
  990MOL0     H36604   0.287  11.565   3.204 -1.2401 -2.3741  0.3252
  990MOL0     H36605   0.290  11.661   2.966  1.3838  1.6363  1.6112
  990MOL0     H36606   0.194  11.830   2.628 -0.8430  0.1294 -0.6142
  990MOL0     H36607   0.228  11.869   2.396 -1.2583 -0.0007  1.3651
  990MOL0     H36608   0.199  11.525   2.113 -0.0620 -0.1528 -0.7087
  990MOL0     H36609   0.029  11.591   2.111 -0.5306  0.4016  1.4909
  990MOL0     H36610   0.260  11.703   1.946 -0.7550 -1.5661 -0.7521
  990MOL0     H36611   0.111  11.783   1.980 -1.6406 -0.9238  1.0647
  990MOL0     H36612   0.130  11.658   1.760  0.9640 -2.1777 -0.5455
  990MOL0     H36613   0.115  11.507   1.860  1.6248  0.0592  0.1654
  990MOL0     H36614  -0.120  11.573   1.922 -1.4717  1.8957  0.3816
  990MOL0     H36615  -0.108  11.581   1.756 -0.3088 -0.5622 -0.2567
  990MOL0     H36616  -0.173  11.989   1.847 -2.8010 -0.4953 -0.4705
  990MOL0     H36617   0.076  11.493   2.299 -0.3059  2.8584 -3.0309
  990MOL0     H36618  -0.016  11.347   2.454  0.1319 -0.1124 -0.4034
  990MOL0     H36619   0.058  11.345   2.611  0.9399 -0.1721 -0.7189
  990MOL0     H36620  -0.097  11.421   2.594  0.1098  2.9450 -1.5596
  991MOL0     O36621   9.934   7.754  10.622  0.8302  0.6888  0.6550
  991MOL0     C36622   9.825   7.695  10.641 -0.2442 -0.3882  0.4890
  991MOL0     O36623   9.816   7.567  10.693 -0.4927 -0.0421  0.4576
  991MOL0     C36624   9.921   7.480  10.716 -0.4083 -0.7423 -0.5436
  991MOL0     C36625   9.908   7.342  10.683 -0.8914  0.4563  0.7552
  991MOL0     C36626  10.008   7.256  10.712  0.8043 -0.0034 -0.4541
  991MOL0     C36627  10.135   7.305  10.760  0.0883 -0.7338  0.0972
  991MOL0     O36628  10.239   7.215  10.771 -0.1442 -0.4842  0.1905
  991MOL0     C36629  10.334   7.204  10.667 -0.6560 -0.3403 -0.1096
  991MOL0     C36630  10.272   7.128  10.555  0.6751  0.2296  0.2436
  991MOL0     C36631  10.370   7.081  10.467 -0.6113  0.7487 -0.1079
  991MOL0     C36632  10.326   6.995  10.341  0.1647  0.3801  0.5909
  991MOL0     C36633  10.445   6.972  10.253  0.7487 -0.0802 -0.6371
  991MOL0     C36634  10.538   6.870  10.309 -0.5156  0.5529 -0.5585
  991MOL0     C36635  10.684   6.907  10.258  0.0382 -0.6273 -0.1381
  991MOL0     C36636  10.697   6.926  10.105 -0.1913 -0.1058 -0.0931
  991MOL0     N36637  10.665   6.809  10.027  0.4744 -0.7622 -0.6502
  991MOL0     C36638  10.755   6.717   9.968 -0.2209 -0.2689  0.2570
  991MOL0     C36639  10.667   6.627   9.918 -0.6165 -0.0379  0.8898
  991MOL0     C36640  10.706   6.500   9.851  0.4077  0.3517 -1.2120
  991MOL0     C36641  10.774   6.518   9.719 -0.1034  0.1669  0.4936
  991MOL0     C36642  10.807   6.378   9.654  0.4487  0.1182 -0.1449
  991MOL0     C36643  10.834   6.370   9.507  0.2645  0.0680 -0.6578
  991MOL0     O36644  10.954   6.448   9.482 -0.1025  0.1449  0.6020
  991MOL0     C36645  10.989   6.478   9.350 -0.1713 -0.4518 -1.0474
  991MOL0     C36646  10.915   6.457   9.235  0.8833  0.0645 -0.2940
  991MOL0     C36647  10.968   6.475   9.109 -0.3472 -0.3498  1.2509
  991MOL0     C36648  10.875   6.429   8.994  0.3740 -0.0904 -0.5662
  991MOL0     C36649  11.101   6.521   9.095  0.2358  0.7359 -1.0455
  991MOL0     C36650  11.164   6.540   8.965  0.3490  0.7584  0.2827
  991MOL0     O36651  11.087   6.598   8.865  0.0576 -1.2695  0.3853
  991MOL0     C36652  11.154   6.644   8.754  0.4932 -0.0392 -0.0936
  991MOL0     C36653  11.073   6.644   8.643  0.5064  0.7465 -0.2290
  991MOL0     C36654  11.115   6.687   8.517 -0.0584  0.8970 -0.1938
  991MOL0     C36655  11.244   6.731   8.494  0.5028  0.4864 -0.1780
  991MOL0     O36656  11.276   6.771   8.367  0.4447  0.2657 -0.2424
  991MOL0     C36657  11.409   6.815   8.335  0.2689  0.8895 -0.0112
  991MOL0     C36658  11.431   6.838   8.184  0.0216 -0.6107 -0.5345
  991MOL0     C36659  11.329   6.940   8.132  0.4338 -0.3264  0.5387
  991MOL0     C36660  11.344   6.943   7.974 -0.1269  0.0708 -0.8025
  991MOL0     C36661  11.274   7.058   7.897  0.5197  0.2182  0.3149
  991MOL0     C36662  11.269   7.068   7.750 -0.0944  0.3203 -0.4409
  991MOL0     C36663  11.154   7.166   7.697  0.2284  0.0585  0.1918
  991MOL0     C36664  11.079   7.114   7.573 -0.2460 -0.5009 -0.6151
  991MOL0    Cl36665  10.950   7.221   7.524  0.1433  0.0793 -0.5205
  991MOL0     C36666  11.328   6.739   8.606 -0.3218  0.1351 -0.5546
  991MOL0     C36667  11.280   6.699   8.738  0.4463  0.0310 -0.2342
  991MOL0     O36668  11.279   6.500   8.961  0.5950  0.1585  0.6277
  991MOL0     C36669  11.174   6.555   9.209  0.4281  0.1890 -0.3686
  991MOL0     C36670  11.119   6.532   9.332  0.5696  0.1038  0.6588
  991MOL0     N36671  10.543   6.674   9.939  0.8866  0.0488 -0.4909
  991MOL0     N36672  10.538   6.788  10.001 -0.4384 -0.1612  0.9306
  991MOL0     C36673  10.152   7.432  10.796 -0.5015 -0.2722 -0.0001
  991MOL0     C36674  10.045   7.523  10.777  0.1181  0.5694  0.0593
  991MOL0     C36675   9.693   7.764  10.607 -1.2002 -0.6900  0.6102
  991MOL0     C36676   9.577   7.685  10.606 -0.2305 -0.0865  0.3310
  991MOL0     C36677   9.450   7.734  10.591 -0.0334 -0.5798 -0.3278
  991MOL0     C36678   9.439   7.872  10.564 -0.2204  0.5941 -0.0998
  991MOL0     O36679   9.307   7.907  10.539 -0.6009  0.0603 -0.2967
  991MOL0     C36680   9.262   8.041  10.527 -0.5794 -0.3467 -0.2359
  991MOL0     C36681   9.272   8.076  10.380  0.3605  0.7197  0.5263
  991MOL0     C36682   9.251   8.223  10.361 -0.2179 -0.6776 -0.0004
  991MOL0     C36683   9.103   8.268  10.387 -0.0475 -0.0560 -0.7442
  991MOL0     C36684   9.021   8.263  10.271  0.6270 -0.1234  0.8685
  991MOL0     C36685   8.962   8.257  10.172  0.2788  0.1386 -0.0889
  991MOL0     C36686   9.552   7.955  10.567  1.2748  0.9383  0.1496
  991MOL0     C36687   9.676   7.900  10.599  0.0599 -0.6673  0.6602
  991MOL0     C36688   9.790   8.000  10.619 -0.6789  0.2831  0.1990
  991MOL0     H36689   9.822   7.319  10.622 -0.3889 -1.8183  0.8291
  991MOL0     H36690   9.997   7.150  10.692 -1.2588  0.4248 -1.9120
  991MOL0     H36691  10.419   7.148  10.706  0.5893  1.1622 -0.5704
  991MOL0     H36692  10.362   7.303  10.628 -1.0778 -0.2185 -0.1021
  991MOL0     H36693  10.217   7.044  10.599 -4.1558  2.6228 -0.5622
  991MOL0     H36694  10.192   7.189  10.510 -0.4967  0.3620  2.3739
  991MOL0     H36695  10.422   7.169  10.428 -0.8704  0.8921 -0.1326
  991MOL0     H36696  10.450   7.030  10.521 -1.2810  0.2626  0.4359
  991MOL0     H36697  10.271   6.905  10.371  1.4932 -0.1113  1.6515
  991MOL0     H36698  10.255   7.049  10.277  0.7074  3.0879  2.1044
  991MOL0     H36699  10.495   7.068  10.235 -0.4131  0.5424 -0.6683
  991MOL0     H36700  10.397   6.942  10.159  0.5092  0.2249 -0.6155
  991MOL0     H36701  10.548   6.859  10.418 -0.3066 -1.8548 -0.7661
  991MOL0     H36702  10.500   6.773  10.277 -4.3735  0.7266  2.6781
  991MOL0     H36703  10.756   6.830  10.287  0.1181 -0.7941 -0.7665
  991MOL0     H36704  10.722   6.995  10.311  2.5649 -2.1471  0.7370
  991MOL0     H36705  10.628   7.003  10.068  1.0716  1.4057  0.5911
  991MOL0     H36706  10.804   6.943  10.091  0.6145 -3.6425  0.7591
  991MOL0     H36707  10.863   6.722   9.971 -0.2411  3.4828 -0.7371
  991MOL0     H36708  10.630   6.421   9.847 -0.3075  0.7167  2.1570
  991MOL0     H36709  10.755   6.440   9.928 -3.0314 -2.3842 -0.9260
  991MOL0     H36710  10.713   6.576   9.650 -0.6848 -2.3230 -1.2276
  991MOL0     H36711  10.871   6.567   9.728  0.0461  0.3193 -1.6084
  991MOL0     H36712  10.896   6.335   9.701  1.1153  0.2153 -1.2935
  991MOL0     H36713  10.733   6.304   9.687  0.6389  0.0030  0.0255
  991MOL0     H36714  10.847   6.267   9.474  2.5260 -0.6289  2.0666
  991MOL0     H36715  10.751   6.410   9.447  0.2623 -1.9323 -2.0792
  991MOL0     H36716  10.817   6.412   9.250  0.4955  0.6110 -1.1573
  991MOL0     H36717  10.924   6.341   8.951 -0.8527 -0.3040 -1.6040
  991MOL0     H36718  10.867   6.500   8.911 -0.2159  2.9247  1.9004
  991MOL0     H36719  10.774   6.397   9.019  0.9003 -1.4873 -0.1224
  991MOL0     H36720  10.972   6.604   8.649 -0.6919  3.6563  0.7989
  991MOL0     H36721  11.058   6.666   8.427 -1.7466  1.2468  0.7324
  991MOL0     H36722  11.436   6.893   8.407 -0.0448  0.8198  0.1813
  991MOL0     H36723  11.480   6.736   8.361  0.8259  0.9273 -1.3203
  991MOL0     H36724  11.536   6.865   8.171 -0.6894  2.6811 -0.3346
  991MOL0     H36725  11.414   6.742   8.136  1.6922 -0.4417 -1.5272
  991MOL0     H36726  11.344   7.042   8.169 -1.8897 -0.9387  3.6116
  991MOL0     H36727  11.231   6.899   8.160  0.7127  0.3123  2.6491
  991MOL0     H36728  11.310   6.854   7.920 -5.2776  1.3202 -0.1918
  991MOL0     H36729  11.450   6.952   7.951 -0.3298  0.4435 -1.6332
  991MOL0     H36730  11.173   7.047   7.939  1.4622 -1.7692  2.2604
  991MOL0     H36731  11.318   7.150   7.936 -0.2330  0.5599  0.3872
  991MOL0     H36732  11.241   6.968   7.716 -2.9563 -0.1617  2.7218
  991MOL0     H36733  11.367   7.088   7.705 -2.5396  2.8947 -5.5375
  991MOL0     H36734  11.207   7.258   7.669 -0.1631 -0.2777 -1.7916
  991MOL0     H36735  11.093   7.188   7.785  0.3072 -0.9351  0.5063
  991MOL0     H36736  11.035   7.015   7.589 -2.1355  0.2753 -0.7453
  991MOL0     H36737  11.152   7.111   7.492  0.8414  0.2821  0.3102
  991MOL0     H36738  11.417   6.800   8.600  1.5677 -2.1462  1.7332
  991MOL0     H36739  11.348   6.717   8.821  1.8644  1.6310 -1.6735
  991MOL0     H36740  11.274   6.596   9.217  0.1361  0.5292  2.2252
  991MOL0     H36741  11.171   6.549   9.426 -0.0379 -1.2337  1.2589
  991MOL0     H36742  10.242   7.469  10.844 -2.7810  6.9301 -0.0594
  991MOL0     H36743  10.052   7.628  10.805  3.5132  0.1939  0.9845
  991MOL0     H36744   9.585   7.578  10.624 -2.0340 -0.4088 -0.5845
  991MOL0     H36745   9.360   7.673  10.593 -2.6415  2.9188 -1.3561
  991MOL0     H36746   9.158   8.059  10.556  0.5451  2.6771  2.5754
  991MOL0     H36747   9.323   8.118  10.576 -1.5784 -0.4439  1.2020
  991MOL0     H36748   9.193   8.019  10.330 -1.0676  1.9053  1.3599
  991MOL0     H36749   9.374   8.058  10.345  0.0895  1.9171 -0.9516
  991MOL0     H36750   9.309   8.281  10.435 -0.1751 -1.0745  0.2772
  991MOL0     H36751   9.300   8.256  10.269  2.5931  0.0137  1.6184
  991MOL0     H36752   9.102   8.366  10.436 -1.0577 -1.2809  1.9260
  991MOL0     H36753   9.038   8.220  10.461 -1.8112  0.5332 -1.8490
  991MOL0     H36754   8.905   8.274  10.083 -2.9285 -0.8831  1.6321
  991MOL0     H36755   9.544   8.062  10.551 -2.1939  0.9520  1.1612
  991MOL0     H36756   9.858   7.976  10.702  0.2764  0.4010 -0.5363
  991MOL0     H36757   9.849   7.996  10.527 -0.6629 -2.2060  0.2549
  991MOL0     H36758   9.774   8.108  10.631  0.4355  0.3413  1.4137
  992MOL0     O36759  10.327   4.787   0.685 -1.4956  0.0762 -0.4201
  992MOL0     C36760  10.204   4.808   0.683  0.1004 -0.4281 -0.3358
  992MOL0     O36761  10.124   4.794   0.575  0.1989  0.7219 -0.5503
  992MOL0     C36762  10.173   4.780   0.450 -0.9355  1.1947 -0.0619
  992MOL0     C36763  10.289   4.705   0.397 -0.7147 -0.5124  0.4751
  992MOL0     C36764  10.324   4.693   0.260  0.5774 -0.3002 -0.1266
  992MOL0     C36765  10.245   4.756   0.169  0.3519 -0.4561 -0.6751
  992MOL0     O36766  10.263   4.754   0.034  0.1073  0.0475  0.0262
  992MOL0     C36767  10.250   4.624  -0.033  0.5201 -0.6010 -0.7048
  992MOL0     C36768  10.376   4.584  -0.104  1.1814  0.2310  0.3852
  992MOL0     C36769  10.394   4.671  -0.225  0.0514 -0.2142 -0.6536
  992MOL0     C36770  10.518   4.626  -0.296  0.3743 -0.2182  0.7729
  992MOL0     C36771  10.533   4.689  -0.435  0.2712 -0.8175  0.6335
  992MOL0     C36772  10.548   4.838  -0.446  0.4173 -0.1952 -0.0180
  992MOL0     C36773  10.503   4.905  -0.570 -0.8160  0.1806 -0.3743
  992MOL0     C36774  10.360   4.877  -0.615  0.6716 -0.2992  0.5671
  992MOL0     N36775  10.316   4.972  -0.720  0.0759  0.2588 -0.3145
  992MOL0     C36776  10.220   5.068  -0.703  0.7275 -0.0755  0.3262
  992MOL0     C36777  10.230   5.151  -0.812 -0.3744 -0.1905  0.7643
  992MOL0     C36778  10.144   5.274  -0.847 -0.3742  0.0265 -0.4857
  992MOL0     C36779  10.009   5.256  -0.914  0.6539  0.4079 -0.0187
  992MOL0     C36780   9.980   5.142  -1.002  0.4426  0.1162 -0.4848
  992MOL0     C36781   9.911   5.020  -0.945 -0.2270 -0.3156  0.0221
  992MOL0     O36782   9.937   5.005  -0.804 -0.2932 -1.1343  0.9002
  992MOL0     C36783   9.841   4.950  -0.724 -0.3785  0.5883 -0.0717
  992MOL0     C36784   9.754   4.855  -0.780  0.8682  0.3886 -0.1946
  992MOL0     C36785   9.651   4.796  -0.710 -0.1363  0.5193 -1.0110
  992MOL0     C36786   9.539   4.725  -0.787 -0.3038  0.4934 -0.5823
  992MOL0     C36787   9.646   4.821  -0.570  0.1737 -0.6962 -0.6838
  992MOL0     C36788   9.554   4.752  -0.474 -1.0816  0.2129  0.2449
  992MOL0     O36789   9.546   4.803  -0.348 -0.4346 -0.1227 -0.1436
  992MOL0     C36790   9.452   4.742  -0.272 -0.1062  0.4232 -0.0657
  992MOL0     C36791   9.462   4.606  -0.236 -0.0789 -0.0547 -0.0475
  992MOL0     C36792   9.364   4.561  -0.141  0.4718  0.6611  0.9153
  992MOL0     C36793   9.277   4.643  -0.062  0.0305  0.2357 -0.7287
  992MOL0     O36794   9.207   4.573   0.041  0.1709 -1.4883  0.4510
  992MOL0     C36795   9.076   4.627   0.071  0.4472  0.7535  0.3129
  992MOL0     C36796   8.983   4.508   0.128 -0.1514  0.1696  0.7155
  992MOL0     C36797   8.867   4.570   0.203 -0.0259  0.2830  0.3182
  992MOL0     C36798   8.902   4.572   0.353  0.2873  0.6904  0.8082
  992MOL0     C36799   8.970   4.712   0.398  0.4396  1.3413  0.2983
  992MOL0     C36800   8.997   4.712   0.550 -0.7592  0.4183  0.0985
  992MOL0     C36801   9.111   4.619   0.596  0.5211  0.8698  0.4332
  992MOL0     C36802   9.164   4.648   0.732 -0.7153  0.2880  0.4754
  992MOL0    Cl36803   9.246   4.804   0.758 -0.1521 -0.0677  0.4181
  992MOL0     C36804   9.275   4.781  -0.102 -0.5525  0.1328  0.0164
  992MOL0     C36805   9.369   4.826  -0.197  0.2459 -0.2164  0.0833
  992MOL0     O36806   9.485   4.664  -0.523 -0.7012  0.5466  0.1014
  992MOL0     C36807   9.750   4.901  -0.506  0.0374  0.0930 -0.4669
  992MOL0     C36808   9.841   4.966  -0.589 -1.2498  0.2452 -0.1008
  992MOL0     N36809  10.334   5.107  -0.900  0.1646 -0.6160 -0.2646
  992MOL0     N36810  10.381   5.006  -0.837 -1.0286  0.5873  0.6965
  992MOL0     C36811  10.131   4.831   0.215  0.5092 -0.1739  0.2969
  992MOL0     C36812  10.102   4.855   0.350  0.0372 -0.5548 -0.6930
  992MOL0     C36813  10.140   4.856   0.807  0.0579 -0.0457 -0.2132
  992MOL0     C36814  10.211   4.914   0.911 -0.1856  0.4298 -0.3833
  992MOL0     C36815  10.157   4.957   1.039  0.1405  0.3437 -1.3828
  992MOL0     C36816  10.017   4.964   1.049 -1.0158 -0.6912  0.0522
  992MOL0     O36817   9.964   5.013   1.166  0.5254 -0.0235  0.0420
  992MOL0     C36818   9.932   4.913   1.269 -0.1295  0.0010  1.1934
  992MOL0     C36819   9.777   4.894   1.296 -1.6037 -0.3680 -0.2470
  992MOL0     C36820   9.738   4.806   1.419 -0.5988 -0.0428  0.2582
  992MOL0     C36821   9.814   4.824   1.547  0.5263 -0.4577 -0.1524
  992MOL0     C36822   9.775   4.944   1.613 -0.0960 -0.4130 -0.3787
  992MOL0     C36823   9.738   5.042   1.671  0.3293 -0.1094  0.2264
  992MOL0     C36824   9.950   4.910   0.947  0.0992 -0.0024  0.2723
  992MOL0     C36825   9.997   4.862   0.824 -0.1957  0.7315  0.8442
  992MOL0     C36826   9.888   4.816   0.715 -0.3912  0.8924 -0.2794
  992MOL0     H36827  10.360   4.653   0.460 -0.7874 -0.0612  0.9353
  992MOL0     H36828  10.410   4.634   0.229  0.0094 -1.6072  0.6872
  992MOL0     H36829  10.163   4.620  -0.100 -3.0776 -0.8541  3.5012
  992MOL0     H36830  10.232   4.544   0.039 -2.4167 -0.9787 -1.7109
  992MOL0     H36831  10.457   4.593  -0.030  2.0681  0.3929 -0.5771
  992MOL0     H36832  10.379   4.476  -0.121  0.5993  0.1305  0.8865
  992MOL0     H36833  10.315   4.653  -0.299  0.6618  0.4966 -1.4973
  992MOL0     H36834  10.396   4.777  -0.199  2.4844  0.1519 -2.0683
  992MOL0     H36835  10.610   4.655  -0.244  0.3194 -0.6414  1.1126
  992MOL0     H36836  10.513   4.516  -0.302 -1.3429 -0.1100 -0.9320
  992MOL0     H36837  10.437   4.677  -0.487  0.8897  0.8528 -0.9651
  992MOL0     H36838  10.605   4.640  -0.500  0.3722 -2.4406  1.8905
  992MOL0     H36839  10.493   4.878  -0.360  0.9979  0.2470  0.1579
  992MOL0     H36840  10.653   4.864  -0.427 -0.2118  1.7895  1.0445
  992MOL0     H36841  10.569   4.875  -0.652  1.8391  2.3622  0.7945
  992MOL0     H36842  10.513   5.013  -0.558  0.9928  0.4150 -2.9742
  992MOL0     H36843  10.351   4.776  -0.656 -0.5835  0.5238 -1.3592
  992MOL0     H36844  10.282   4.874  -0.538  0.2679 -3.5318  0.1764
  992MOL0     H36845  10.148   5.075  -0.622 -2.6587  0.2196 -2.4735
  992MOL0     H36846  10.195   5.322  -0.931  1.1475  1.7810  1.3417
  992MOL0     H36847  10.140   5.347  -0.765 -3.7701 -2.0567  1.4468
  992MOL0     H36848   9.932   5.256  -0.835 -0.1478 -3.7893 -0.5777
  992MOL0     H36849   9.989   5.348  -0.970  1.9642  1.2679  0.8692
  992MOL0     H36850   9.915   5.168  -1.086 -0.5619 -1.1195 -0.1248
  992MOL0     H36851  10.074   5.100  -1.038 -0.5278 -0.0184 -3.0920
  992MOL0     H36852   9.804   5.027  -0.967 -0.1113  0.5248 -0.2918
  992MOL0     H36853   9.953   4.938  -1.003  0.3268  0.5183 -0.7856
  992MOL0     H36854   9.760   4.821  -0.882  0.4306 -1.0652  0.2456
  992MOL0     H36855   9.547   4.617  -0.802 -1.8693  0.0433  1.4077
  992MOL0     H36856   9.547   4.758  -0.891  0.8754 -1.0053 -0.9939
  992MOL0     H36857   9.441   4.761  -0.754 -1.0694 -1.8441 -0.1423
  992MOL0     H36858   9.544   4.544  -0.272  1.9598  1.2860  1.9749
  992MOL0     H36859   9.356   4.460  -0.104 -1.7784  0.4519  0.0212
  992MOL0     H36860   9.080   4.709   0.144 -0.7633  0.2435  0.9703
  992MOL0     H36861   9.027   4.662  -0.020 -3.2586 -3.4105  0.3842
  992MOL0     H36862   8.943   4.444   0.049 -0.0918  0.5626  0.3693
  992MOL0     H36863   9.045   4.441   0.190  1.1205  0.5216 -0.1367
  992MOL0     H36864   8.782   4.501   0.196  0.4115 -0.1393 -1.3644
  992MOL0     H36865   8.840   4.663   0.151  0.2562 -0.0360 -0.4161
  992MOL0     H36866   8.954   4.484   0.392 -0.4522 -1.3994 -2.5361
  992MOL0     H36867   8.805   4.583   0.403  0.1878  1.8026  0.4108
  992MOL0     H36868   9.070   4.727   0.357  0.2177  0.8728 -0.4258
  992MOL0     H36869   8.909   4.798   0.367  1.5029  1.7696 -0.6812
  992MOL0     H36870   8.909   4.671   0.599 -0.7795  1.8415  1.3004
  992MOL0     H36871   9.020   4.817   0.570  1.1276 -0.2224  1.6167
  992MOL0     H36872   9.195   4.628   0.526 -1.1016  2.5969 -1.4393
  992MOL0     H36873   9.071   4.517   0.599  0.0052  1.0168 -0.7924
  992MOL0     H36874   9.236   4.568   0.750 -2.0501 -1.0902 -0.1727
  992MOL0     H36875   9.087   4.643   0.810 -1.2956  2.0215  0.0683
  992MOL0     H36876   9.210   4.847  -0.046 -1.8504 -3.1192  2.6018
  992MOL0     H36877   9.376   4.928  -0.236 -0.2073 -0.0267  0.4940
  992MOL0     H36878   9.757   4.908  -0.398  0.0963 -1.2235 -0.3690
  992MOL0     H36879   9.923   5.023  -0.547  0.3541  0.0670 -2.7520
  992MOL0     H36880  10.048   4.857   0.150  0.3616  0.6741  0.8080
  992MOL0     H36881  10.013   4.911   0.378 -0.0187 -1.4277  1.0496
  992MOL0     H36882  10.319   4.917   0.901 -0.1157  0.7988  0.4234
  992MOL0     H36883  10.230   4.972   1.118 -2.6866  0.9718  1.2548
  992MOL0     H36884   9.964   4.809   1.254  0.5011  0.0843  1.8968
  992MOL0     H36885   9.992   4.945   1.355 -1.4935  0.3726  2.0319
  992MOL0     H36886   9.725   4.848   1.212 -2.1970 -0.8011  0.3503
  992MOL0     H36887   9.733   4.993   1.315 -1.1575 -0.3667  0.8463
  992MOL0     H36888   9.631   4.825   1.429 -0.6838  0.0246 -0.6783
  992MOL0     H36889   9.743   4.702   1.384 -4.9251  0.0776 -1.2529
  992MOL0     H36890   9.920   4.824   1.519  1.0982  0.7040  1.8563
  992MOL0     H36891   9.793   4.734   1.604 -2.5230  0.6789  0.6910
  992MOL0     H36892   9.696   5.128   1.721  0.8815  1.7155 -2.2490
  992MOL0     H36893   9.841   4.902   0.952  0.2806 -3.9636  0.9564
  992MOL0     H36894   9.785   4.832   0.747 -0.1320 -0.8542  1.5928
  992MOL0     H36895   9.900   4.878   0.626  0.0642  0.1952 -0.7183
  992MOL0     H36896   9.898   4.708   0.703 -2.1138  0.3054  2.5411
  993MOL0     O36897   2.280   1.177   3.902  0.7945 -0.4773 -0.1683
  993MOL0     C36898   2.293   1.059   3.878 -0.2671  0.2681 -0.1161
  993MOL0     O36899   2.342   0.994   3.767 -0.5243 -0.1011  0.3839
  993MOL0     C36900   2.359   1.061   3.647 -0.1574 -0.0339 -0.6187
  993MOL0     C36901   2.465   1.013   3.566  0.1881 -0.6712 -0.0614
  993MOL0     C36902   2.485   1.082   3.446  1.3198  0.2502 -0.3140
  993MOL0     C36903   2.411   1.195   3.407  0.2430  0.1875  0.6162
  993MOL0     O36904   2.435   1.242   3.278  1.3998 -0.1595 -0.3943
  993MOL0     C36905   2.379   1.371   3.237 -0.3404  0.9773 -0.4058
  993MOL0     C36906   2.397   1.383   3.079 -0.4441  0.3944  0.1022
  993MOL0     C36907   2.330   1.512   3.021 -0.1368 -0.0802  0.0802
  993MOL0     C36908   2.426   1.627   3.032  0.3287 -0.2761  0.6322
  993MOL0     C36909   2.351   1.759   2.994 -0.5382  0.2571  0.5137
  993MOL0     C36910   2.435   1.886   3.005  0.1233  0.2480  1.5067
  993MOL0     C36911   2.393   1.999   2.916  0.2323  0.3685  0.4926
  993MOL0     C36912   2.464   2.129   2.939  0.3606 -0.2850  0.2333
  993MOL0     N36913   2.424   2.238   2.846 -0.3615  0.4938 -0.0463
  993MOL0     C36914   2.499   2.284   2.739 -0.0693  0.5178 -0.1977
  993MOL0     C36915   2.427   2.367   2.661 -0.0929 -0.8108 -0.8280
  993MOL0     C36916   2.496   2.445   2.553 -0.8659  0.4995  0.4984
  993MOL0     C36917   2.387   2.541   2.480  0.1862 -0.1553 -0.5985
  993MOL0     C36918   2.312   2.456   2.366 -0.2604 -0.5776 -0.2596
  993MOL0     C36919   2.183   2.523   2.309  0.6433 -0.2624  0.1194
  993MOL0     O36920   2.085   2.506   2.411 -0.6456  0.1494  0.6515
  993MOL0     C36921   1.992   2.611   2.398  0.3324  0.9459  0.2612
  993MOL0     C36922   1.857   2.593   2.357 -1.2589  0.3487  0.0309
  993MOL0     C36923   1.763   2.697   2.345 -0.7272  0.2845  0.5592
  993MOL0     C36924   1.628   2.654   2.303  0.2201 -0.6018  0.7549
  993MOL0     C36925   1.798   2.823   2.368  0.4590 -0.3421 -0.5413
  993MOL0     C36926   1.715   2.946   2.346 -0.2923  0.7659  0.2102
  993MOL0     O36927   1.586   2.942   2.366 -0.6779  0.0249 -0.9656
  993MOL0     C36928   1.496   3.037   2.342 -0.6338 -0.7899 -0.3809
  993MOL0     C36929   1.378   3.037   2.418  0.2229 -0.1021  0.5251
  993MOL0     C36930   1.284   3.143   2.403  0.4016  0.2746  0.3077
  993MOL0     C36931   1.298   3.247   2.314 -0.1929  0.2377 -0.0519
  993MOL0     O36932   1.208   3.354   2.308 -0.4045  0.0706 -0.0383
  993MOL0     C36933   1.138   3.394   2.422 -0.2894 -1.2269 -0.0583
  993MOL0     C36934   1.133   3.550   2.422 -1.4632  0.2247  0.6918
  993MOL0     C36935   1.069   3.592   2.285 -0.0144 -0.3080 -0.5490
  993MOL0     C36936   1.031   3.748   2.284  0.0366 -0.6810 -0.9572
  993MOL0     C36937   0.939   3.774   2.170  0.7734  0.1342 -0.1326
  993MOL0     C36938   0.860   3.898   2.193 -0.6590 -0.3774  0.4089
  993MOL0     C36939   0.788   3.940   2.054 -0.8625  0.7863  0.2570
  993MOL0     C36940   0.673   3.836   2.034  0.4290 -0.3035  0.2353
  993MOL0    Cl36941   0.565   3.900   1.902  0.0133 -0.3703  0.5047
  993MOL0     C36942   1.409   3.226   2.235 -0.2338 -0.1693  0.4273
  993MOL0     C36943   1.509   3.127   2.246 -0.5001 -0.3278 -0.3763
  993MOL0     O36944   1.780   3.044   2.313 -0.2106 -0.1063  0.2287
  993MOL0     C36945   1.931   2.844   2.414  0.3331 -1.2164  0.0338
  993MOL0     C36946   2.018   2.742   2.428 -0.0275 -0.3212 -0.0013
  993MOL0     N36947   2.309   2.381   2.733 -0.6519 -0.8260 -0.1172
  993MOL0     N36948   2.312   2.313   2.836 -0.8366 -1.1255 -0.7058
  993MOL0     C36949   2.314   1.251   3.499 -0.6271  0.3170 -1.6550
  993MOL0     C36950   2.287   1.184   3.617 -0.8158  0.3373 -0.2608
  993MOL0     C36951   2.226   0.980   3.978  0.1488  0.0091  0.6998
  993MOL0     C36952   2.297   0.915   4.081  0.8351  1.0243  0.2517
  993MOL0     C36953   2.230   0.836   4.175 -0.3362  0.0760  0.5630
  993MOL0     C36954   2.088   0.827   4.173 -0.6941 -0.2405 -0.5444
  993MOL0     O36955   2.021   0.735   4.254 -0.2314 -0.0335 -0.0478
  993MOL0     C36956   2.064   0.694   4.391  0.1061 -0.6643  0.1645
  993MOL0     C36957   1.959   0.590   4.422  0.2206  0.3410 -0.5733
  993MOL0     C36958   1.817   0.640   4.476  0.0658  0.7762  0.1354
  993MOL0     C36959   1.709   0.667   4.371  1.4316  0.1228 -0.2074
  993MOL0     C36960   1.621   0.769   4.426 -0.1068 -0.0415  0.0244
  993MOL0     C36961   1.545   0.835   4.486 -0.5142 -0.3026 -0.2790
  993MOL0     C36962   2.021   0.900   4.080 -0.0300 -0.5315 -0.5942
  993MOL0     C36963   2.088   0.973   3.978  0.3017 -0.1110  0.4997
  993MOL0     C36964   1.992   1.035   3.877 -0.0317 -0.4877  0.0300
  993MOL0     H36965   2.547   0.949   3.595  0.4905 -0.4938 -0.5153
  993MOL0     H36966   2.568   1.047   3.385  2.0900  0.3263  0.6497
  993MOL0     H36967   2.418   1.456   3.292  0.5864  0.1580  0.2259
  993MOL0     H36968   2.272   1.362   3.260 -0.2580 -0.9384 -0.5809
  993MOL0     H36969   2.503   1.380   3.051 -0.3508 -1.2647  0.5760
  993MOL0     H36970   2.346   1.295   3.038  0.0443 -0.4299  1.2295
  993MOL0     H36971   2.293   1.504   2.918 -0.2926 -0.6489  0.1729
  993MOL0     H36972   2.236   1.545   3.066  0.3232  2.9450 -0.9400
  993MOL0     H36973   2.464   1.641   3.133  1.2753 -1.8517  0.5347
  993MOL0     H36974   2.507   1.617   2.959 -0.4129  2.6775 -0.7577
  993MOL0     H36975   2.262   1.772   3.056  0.9491  2.4889  2.3212
  993MOL0     H36976   2.313   1.756   2.891 -0.6221 -0.3698  0.5621
  993MOL0     H36977   2.423   1.906   3.112 -1.9384 -2.4569  1.8843
  993MOL0     H36978   2.541   1.866   2.983  0.3993  2.2299  0.8659
  993MOL0     H36979   2.288   2.025   2.934  0.4192  0.5094  1.4336
  993MOL0     H36980   2.401   1.951   2.817  1.2397 -0.4382  0.9409
  993MOL0     H36981   2.444   2.169   3.039 -0.1287 -1.0165  0.4351
  993MOL0     H36982   2.570   2.107   2.924  1.0789  2.4221  0.7994
  993MOL0     H36983   2.603   2.265   2.716  0.3589  2.4406 -0.0175
  993MOL0     H36984   2.529   2.372   2.478 -2.5741  0.6488 -0.4678
  993MOL0     H36985   2.586   2.491   2.594 -1.1766  2.9453 -1.3124
  993MOL0     H36986   2.310   2.579   2.549  0.9601  1.3949 -0.5463
  993MOL0     H36987   2.433   2.629   2.435 -0.8216  1.4654  1.3708
  993MOL0     H36988   2.385   2.438   2.287 -1.8381  0.8144 -2.1486
  993MOL0     H36989   2.288   2.355   2.401  1.0516 -0.7858  0.0702
  993MOL0     H36990   2.207   2.627   2.285 -0.2478 -0.6159 -2.6803
  993MOL0     H36991   2.158   2.476   2.213 -0.0658  0.6205 -0.1369
  993MOL0     H36992   1.821   2.498   2.320  0.2729 -1.8767  3.6821
  993MOL0     H36993   1.557   2.671   2.385  1.7459 -4.2037  3.0764
  993MOL0     H36994   1.620   2.548   2.277 -0.9248 -0.4826  0.5428
  993MOL0     H36995   1.600   2.713   2.215 -0.4315 -1.8934  0.0750
  993MOL0     H36996   1.360   2.958   2.490  0.9660 -0.0643  0.7618
  993MOL0     H36997   1.200   3.154   2.471 -3.2638 -0.8361 -3.5734
  993MOL0     H36998   1.039   3.349   2.428 -1.3949  1.1847  2.4454
  993MOL0     H36999   1.198   3.371   2.511 -0.1252  3.5714  1.3764
  993MOL0     H37000   1.078   3.602   2.501  2.7487  1.4257  3.1182
  993MOL0     H37001   1.226   3.607   2.415 -1.2290 -0.3137 -0.9489
  993MOL0     H37002   0.974   3.540   2.273  0.3503 -2.0122  2.8045
  993MOL0     H37003   1.142   3.560   2.210 -1.5411 -1.0264 -1.7844
  993MOL0     H37004   1.123   3.807   2.270 -0.3180  0.0059 -0.4606
  993MOL0     H37005   0.983   3.787   2.374 -1.2239 -0.0129 -1.8811
  993MOL0     H37006   0.995   3.772   2.077  2.8140  1.7033  0.9898
  993MOL0     H37007   0.860   3.698   2.167 -2.4772  3.1955  0.8339
  993MOL0     H37008   0.929   3.976   2.225  0.4814 -1.7095  1.3503
  993MOL0     H37009   0.786   3.896   2.274 -1.6689  2.8431 -0.3019
  993MOL0     H37010   0.856   3.948   1.969  0.7573  1.9815  1.6125
  993MOL0     H37011   0.747   4.038   2.078 -1.0187  1.2425 -1.7433
  993MOL0     H37012   0.607   3.822   2.120 -4.1747 -2.5152 -3.2438
  993MOL0     H37013   0.726   3.745   2.004 -0.7211 -0.6834 -0.7044
  993MOL0     H37014   1.423   3.299   2.155 -2.2609  1.4140  1.4224
  993MOL0     H37015   1.589   3.130   2.173  0.1068 -4.3287 -0.0996
  993MOL0     H37016   1.959   2.949   2.423  2.2653 -1.4398 -2.2858
  993MOL0     H37017   2.119   2.772   2.452 -0.5055  0.3287  1.3693
  993MOL0     H37018   2.259   1.343   3.481 -0.1111  0.6579 -1.5013
  993MOL0     H37019   2.209   1.216   3.686 -2.1083 -1.3945 -0.8349
  993MOL0     H37020   2.401   0.945   4.085  0.8356  1.0679 -0.0960
  993MOL0     H37021   2.293   0.787   4.249  1.7808 -1.8957 -2.3391
  993MOL0     H37022   2.168   0.660   4.393  0.6596  0.9012 -0.5283
  993MOL0     H37023   2.047   0.772   4.467  1.7015 -0.3869  0.2638
  993MOL0     H37024   2.000   0.531   4.505  0.3260 -0.1831 -0.9871
  993MOL0     H37025   1.944   0.520   4.339  1.9624  1.3512 -1.8041
  993MOL0     H37026   1.780   0.558   4.538  1.0788  0.2666  0.0811
  993MOL0     H37027   1.837   0.726   4.541 -0.1871 -2.1626  4.5434
  993MOL0     H37028   1.657   0.583   4.325  0.8345  2.6214 -4.6012
  993MOL0     H37029   1.755   0.714   4.284 -0.9270  1.8688 -0.6219
  993MOL0     H37030   1.481   0.886   4.555 -1.8686 -1.7409 -0.4281
  993MOL0     H37031   1.913   0.898   4.071 -0.2283  1.6746  0.4472
  993MOL0     H37032   1.886   1.011   3.886 -0.0675  0.2492  2.4422
  993MOL0     H37033   2.002   1.143   3.866 -0.3350 -0.3417  1.0875
  993MOL0     H37034   2.025   0.991   3.783  0.8764 -0.2759  0.2374
  994MOL0     O37035   1.815   7.734  11.069  0.0236  0.2901  0.3785
  994MOL0     C37036   1.699   7.710  11.047 -0.6171  0.9613 -1.0552
  994MOL0     O37037   1.599   7.804  11.027  0.5358 -0.1136 -0.2257
  994MOL0     C37038   1.623   7.935  11.028  0.3025 -0.0869  0.2152
  994MOL0     C37039   1.570   8.010  10.923 -0.6297  0.9552  0.4286
  994MOL0     C37040   1.573   8.151  10.929 -0.0040 -0.7005 -0.0916
  994MOL0     C37041   1.636   8.228  11.024 -0.2334  0.3667 -0.3014
  994MOL0     O37042   1.633   8.359  11.029  0.4342 -0.5276 -0.1649
  994MOL0     C37043   1.638   8.422  11.151  1.1380 -0.1027 -0.3223
  994MOL0     C37044   1.615   8.569  11.126  0.5064 -0.1277 -1.0757
  994MOL0     C37045   1.743   8.649  11.111 -0.4564  0.1177  0.2154
  994MOL0     C37046   1.797   8.636  10.969 -0.6661 -0.6750  0.0397
  994MOL0     C37047   1.943   8.665  10.960  0.7676 -0.4436  0.4220
  994MOL0     C37048   2.014   8.601  10.836 -0.5485 -0.5646  0.4211
  994MOL0     C37049   1.937   8.628  10.697 -0.0773 -0.3882 -0.6067
  994MOL0     C37050   2.020   8.603  10.568 -0.5888 -0.5754  0.7955
  994MOL0     N37051   1.930   8.609  10.447  0.3429 -0.2463 -0.1877
  994MOL0     C37052   1.895   8.495  10.372  0.6710 -0.0123  0.0684
  994MOL0     C37053   1.825   8.540  10.256 -0.0261 -0.3941  0.5948
  994MOL0     C37054   1.758   8.442  10.167 -0.0602  0.7201 -0.4484
  994MOL0     C37055   1.612   8.419  10.208  0.4340 -0.5925  0.0343
  994MOL0     C37056   1.583   8.354  10.337  0.2617 -0.1225 -0.1778
  994MOL0     C37057   1.574   8.196  10.332 -0.3410 -0.5439 -0.3433
  994MOL0     O37058   1.695   8.132  10.295 -0.4245 -0.5854 -0.0655
  994MOL0     C37059   1.806   8.145  10.384 -0.4452 -0.0194 -0.3691
  994MOL0     C37060   1.795   8.192  10.518 -0.4592 -0.3524  0.1302
  994MOL0     C37061   1.907   8.176  10.604 -0.7876  0.2854 -0.5736
  994MOL0     C37062   1.890   8.223  10.747  0.4217  0.0075  0.2722
  994MOL0     C37063   2.036   8.117  10.560  0.8992 -0.5179  1.8449
  994MOL0     C37064   2.145   8.083  10.649  0.2491 -0.7079  0.3169
  994MOL0     O37065   2.270   8.122  10.605 -0.6317 -0.7342 -0.3029
  994MOL0     C37066   2.362   8.140  10.705 -0.4926  0.1197  0.1807
  994MOL0     C37067   2.342   8.229  10.813 -0.1602  0.4686  0.0385
  994MOL0     C37068   2.450   8.265  10.896  0.3085 -0.0285 -0.5366
  994MOL0     C37069   2.570   8.199  10.889  0.0872  0.4892 -0.2179
  994MOL0     O37070   2.679   8.212  10.976  0.6632  0.9779  0.5284
  994MOL0     C37071   2.645   8.229  11.117 -0.5660  0.3046  0.5985
  994MOL0     C37072   2.661   8.370  11.144 -0.9770  0.3855 -0.3114
  994MOL0     C37073   2.800   8.420  11.138 -0.4098  0.8679  0.1032
  994MOL0     C37074   2.900   8.347  11.222 -1.0844 -1.5383  0.4848
  994MOL0     C37075   3.034   8.428  11.256  1.2439 -0.9529  0.7142
  994MOL0     C37076   3.105   8.385  11.389  0.2238  0.6736 -0.1987
  994MOL0     C37077   3.226   8.462  11.433 -0.2599  0.2196  1.0700
  994MOL0     C37078   3.331   8.473  11.323  0.1539  0.5973 -0.3603
  994MOL0    Cl37079   3.383   8.308  11.261  0.1352  0.0008 -0.1211
  994MOL0     C37080   2.585   8.103  10.793  0.1875  0.2313 -0.1585
  994MOL0     C37081   2.486   8.076  10.698  0.3543 -0.7664  0.4102
  994MOL0     O37082   2.122   8.033  10.761 -0.2265 -0.3312  0.2326
  994MOL0     C37083   2.037   8.084  10.421 -0.1869 -0.2162 -0.4105
  994MOL0     C37084   1.931   8.107  10.338  0.1514 -0.4407 -0.1954
  994MOL0     N37085   1.815   8.681  10.268  0.0655 -0.0126  0.2626
  994MOL0     N37086   1.886   8.714  10.374  0.0063 -0.1768 -0.3833
  994MOL0     C37087   1.698   8.143  11.124  0.1331  0.3853 -0.9246
  994MOL0     C37088   1.685   8.002  11.126  0.7010  0.7545  0.3074
  994MOL0     C37089   1.674   7.575  11.015  0.2742  1.0697 -0.1444
  994MOL0     C37090   1.538   7.539  10.976 -1.0768 -0.0424  0.4913
  994MOL0     C37091   1.499   7.406  10.955 -0.5350 -0.0451  0.6750
  994MOL0     C37092   1.583   7.303  10.985 -0.5412  0.3954 -0.6181
  994MOL0     O37093   1.552   7.173  10.971 -0.0866  0.3768 -1.0956
  994MOL0     C37094   1.425   7.119  10.936 -0.9501  0.3950  0.1391
  994MOL0     C37095   1.418   7.101  10.789  0.0155 -1.0100  0.5460
  994MOL0     C37096   1.546   7.027  10.740  0.1816 -0.6732  0.8507
  994MOL0     C37097   1.547   6.973  10.588 -0.0463  0.6439  0.1440
  994MOL0     C37098   1.661   6.884  10.580 -0.4545  0.3884 -0.2260
  994MOL0     C37099   1.762   6.814  10.573  0.4592  0.6192 -0.3508
  994MOL0     C37100   1.712   7.329  11.028  0.5543  0.0175  0.0490
  994MOL0     C37101   1.765   7.457  11.049  0.3179 -0.3606  1.0532
  994MOL0     C37102   1.900   7.470  11.111 -0.2175 -0.1578  0.1748
  994MOL0     H37103   1.505   7.957  10.855 -2.2634  3.3349  0.0273
  994MOL0     H37104   1.506   8.197  10.857  0.3962  0.8402  0.4664
  994MOL0     H37105   1.736   8.398  11.194  2.4295  1.7374 -2.0627
  994MOL0     H37106   1.556   8.380  11.210  0.3302  3.3145  1.2306
  994MOL0     H37107   1.553   8.586  11.037 -0.9693 -0.1066 -0.0707
  994MOL0     H37108   1.557   8.611  11.208 -0.0989 -0.0399 -1.5364
  994MOL0     H37109   1.751   8.754  11.140  0.7922  0.7993 -2.2667
  994MOL0     H37110   1.817   8.600  11.175  1.2055  1.5779 -0.5070
  994MOL0     H37111   1.776   8.535  10.931  0.4223 -0.6981 -0.5115
  994MOL0     H37112   1.748   8.700  10.896 -1.6200 -1.3360  0.0719
  994MOL0     H37113   1.998   8.627  11.047 -1.7450 -1.6978  1.5899
  994MOL0     H37114   1.959   8.773  10.957  1.0737 -0.4066  2.2724
  994MOL0     H37115   2.116   8.639  10.825 -0.8196 -0.1806 -1.0540
  994MOL0     H37116   2.019   8.493  10.848  1.9762 -0.5857 -0.3998
  994MOL0     H37117   1.896   8.729  10.698 -1.4066 -0.9120 -0.5681
  994MOL0     H37118   1.853   8.558  10.693  1.4554 -2.5288  1.5901
  994MOL0     H37119   2.100   8.678  10.566 -2.3552  1.5143  2.5459
  994MOL0     H37120   2.073   8.508  10.559 -0.0740 -0.0958 -2.2884
  994MOL0     H37121   1.910   8.390  10.396  2.5931 -0.2579 -1.8731
  994MOL0     H37122   1.814   8.349  10.176 -0.2666  0.7458  1.7742
  994MOL0     H37123   1.758   8.480  10.065 -1.7266  1.1164 -0.3373
  994MOL0     H37124   1.556   8.512  10.194 -1.3957 -1.7197 -0.3942
  994MOL0     H37125   1.575   8.347  10.135 -0.2195 -0.3919  0.1567
  994MOL0     H37126   1.653   8.386  10.415  0.0400  1.4118 -0.5842
  994MOL0     H37127   1.483   8.391  10.360  0.4667  1.4219 -1.5735
  994MOL0     H37128   1.544   8.158  10.429  1.5463  3.9673  2.3291
  994MOL0     H37129   1.491   8.158  10.272 -1.2783  1.0227 -0.1119
  994MOL0     H37130   1.700   8.227  10.558 -0.5996  0.9258 -1.2400
  994MOL0     H37131   1.953   8.309  10.773  1.6461 -1.5495  2.8261
  994MOL0     H37132   1.916   8.139  10.811  1.7128  2.5544  3.3520
  994MOL0     H37133   1.787   8.255  10.765  0.7570  1.2430  0.0870
  994MOL0     H37134   2.244   8.274  10.823  0.5002  2.2161 -0.9145
  994MOL0     H37135   2.429   8.327  10.983  0.2099 -1.8378  0.7901
  994MOL0     H37136   2.543   8.197  11.139 -0.2943 -1.2173 -0.2649
  994MOL0     H37137   2.708   8.162  11.175 -0.6484 -0.4767 -0.1990
  994MOL0     H37138   2.608   8.430  11.069 -1.7216  0.5178  0.3031
  994MOL0     H37139   2.618   8.394  11.242 -0.0059 -1.9515  0.7495
  994MOL0     H37140   2.789   8.526  11.163  0.4055  0.6611  1.4706
  994MOL0     H37141   2.843   8.429  11.038  0.1923  1.1268  0.3835
  994MOL0     H37142   2.920   8.254  11.169 -1.0320 -1.3935  0.2467
  994MOL0     H37143   2.860   8.310  11.317 -0.1582  1.2623  2.0901
  994MOL0     H37144   3.104   8.425  11.172 -0.2782  1.5041 -0.7656
  994MOL0     H37145   3.015   8.536  11.257  1.7917 -0.6160 -3.7207
  994MOL0     H37146   3.130   8.280  11.374 -1.6065 -0.6670  4.2528
  994MOL0     H37147   3.022   8.383  11.461 -1.4453 -0.5550 -2.0485
  994MOL0     H37148   3.263   8.424  11.529 -0.6573  1.7587  1.8705
  994MOL0     H37149   3.181   8.561  11.448  1.1702  1.5205 -2.2524
  994MOL0     H37150   3.413   8.534  11.363  0.5698  0.0285 -0.3206
  994MOL0     H37151   3.283   8.529  11.243 -1.9466  0.9077  1.0462
  994MOL0     H37152   2.675   8.045  10.781  0.5643  0.6885  0.3952
  994MOL0     H37153   2.506   8.007  10.617 -0.0127 -2.1198  1.4414
  994MOL0     H37154   2.132   8.043  10.388 -0.8639 -2.3302  0.1009
  994MOL0     H37155   1.946   8.092  10.231  2.1099 -1.8761  0.2212
  994MOL0     H37156   1.746   8.191  11.209 -0.3713 -0.8460  0.0770
  994MOL0     H37157   1.727   7.937  11.202 -0.2385 -0.5268 -0.2422
  994MOL0     H37158   1.464   7.619  10.971 -0.3052  0.6900  0.6740
  994MOL0     H37159   1.393   7.399  10.935 -0.9254  0.5543  2.3022
  994MOL0     H37160   1.417   7.024  10.990  2.3320 -0.8245 -1.2739
  994MOL0     H37161   1.339   7.179  10.967 -2.2833  0.8941 -3.9288
  994MOL0     H37162   1.427   7.207  10.762  0.1603 -0.4723  2.6087
  994MOL0     H37163   1.321   7.065  10.752 -0.9568  1.9392 -0.1177
  994MOL0     H37164   1.635   7.091  10.742  0.9640 -1.6301 -0.8976
  994MOL0     H37165   1.567   6.943  10.807  0.6663 -0.4752  0.9535
  994MOL0     H37166   1.542   7.040  10.502 -1.1468  0.7032  0.2457
  994MOL0     H37167   1.462   6.906  10.578  0.0609  0.4257  0.6285
  994MOL0     H37168   1.855   6.762  10.584  0.2397  0.3659  0.3840
  994MOL0     H37169   1.777   7.245  11.049  3.0363  2.2423  1.9189
  994MOL0     H37170   1.867   7.493  11.213 -1.8140 -1.2562 -0.0514
  994MOL0     H37171   1.955   7.376  11.104 -0.0615  0.0714 -2.7829
  994MOL0     H37172   1.961   7.550  11.069 -0.1118  0.3783  1.2946
  995MOL0     O37173   3.742   1.919   9.750  0.2103 -0.3124  0.9070
  995MOL0     C37174   3.777   1.895   9.633  0.6568 -0.0210  0.1557
  995MOL0     O37175   3.889   1.818   9.602 -0.1138 -0.2520  0.2802
  995MOL0     C37176   3.960   1.777   9.710  0.6197  0.7547  0.1671
  995MOL0     C37177   3.915   1.656   9.774 -0.2871  0.0778 -0.9650
  995MOL0     C37178   4.001   1.601   9.879  0.7439 -0.4313  0.7106
  995MOL0     C37179   4.121   1.657   9.905 -0.9068 -1.0943 -0.4118
  995MOL0     O37180   4.185   1.590  10.005  0.5262 -0.3315 -0.0038
  995MOL0     C37181   4.303   1.638  10.064 -1.0826 -0.5369 -0.6777
  995MOL0     C37182   4.345   1.549  10.173 -1.1276 -0.3302 -0.7346
  995MOL0     C37183   4.243   1.536  10.287 -0.4733  0.0290  0.0452
  995MOL0     C37184   4.308   1.440  10.390  0.2865 -0.3305 -0.7252
  995MOL0     C37185   4.231   1.391  10.516 -0.1866 -0.9178 -0.4306
  995MOL0     C37186   4.248   1.498  10.626  0.3607 -1.3253 -0.0693
  995MOL0     C37187   4.206   1.453  10.773 -0.3303  0.3559  1.3073
  995MOL0     C37188   4.304   1.345  10.826  1.0093  0.8248 -0.1006
  995MOL0     N37189   4.438   1.383  10.831 -0.3771 -0.1404 -0.3924
  995MOL0     C37190   4.491   1.491  10.899  0.7204 -0.6492  0.7986
  995MOL0     C37191   4.616   1.507  10.855 -0.2220 -0.7628 -0.1702
  995MOL0     C37192   4.692   1.629  10.888 -0.0283  0.0925  0.7745
  995MOL0     C37193   4.777   1.681  10.776 -0.0719 -0.2224  0.2890
  995MOL0     C37194   4.693   1.752  10.672  0.3222  0.2526 -0.4624
  995MOL0     C37195   4.652   1.663  10.557 -1.1350  0.5267 -0.2218
  995MOL0     O37196   4.587   1.745  10.451  0.8084 -0.0297  0.6204
  995MOL0     C37197   4.673   1.811  10.370 -0.4562 -0.0538 -0.9409
  995MOL0     C37198   4.658   1.949  10.377 -0.9433 -0.3695 -0.2085
  995MOL0     C37199   4.740   2.029  10.306  0.4898 -0.5074  0.7539
  995MOL0     C37200   4.717   2.184  10.305  0.0778  0.4205  0.1762
  995MOL0     C37201   4.837   1.973  10.218  0.4110 -0.8790 -0.1686
  995MOL0     C37202   4.926   2.057  10.140  1.3341 -1.1400  0.1314
  995MOL0     O37203   4.938   2.018  10.007  0.1653 -0.5755  0.3729
  995MOL0     C37204   5.001   2.088   9.909 -0.2903  0.6923 -0.0232
  995MOL0     C37205   5.002   2.030   9.779 -0.6767  0.3923 -0.4069
  995MOL0     C37206   5.075   2.074   9.671  0.6050  0.0808  0.6733
  995MOL0     C37207   5.127   2.206   9.676  1.0477 -0.1326  0.2962
  995MOL0     O37208   5.189   2.276   9.574  0.0999 -0.6357 -0.7914
  995MOL0     C37209   5.161   2.244   9.443 -0.4523  0.2469  0.4151
  995MOL0     C37210   5.029   2.289   9.391  0.2258 -0.3259  0.1111
  995MOL0     C37211   5.050   2.281   9.238  0.7178 -0.0411  0.1926
  995MOL0     C37212   4.944   2.354   9.148  0.3618 -0.1940 -0.2119
  995MOL0     C37213   4.919   2.277   9.019  0.6700 -0.0080 -1.0902
  995MOL0     C37214   4.872   2.367   8.894  0.6424 -0.1771 -0.4556
  995MOL0     C37215   4.837   2.280   8.775 -0.9578  0.1854 -0.4280
  995MOL0     C37216   4.966   2.230   8.698 -0.8400  1.0235  0.9002
  995MOL0    Cl37217   4.918   2.121   8.565 -0.2552 -0.1597  0.2816
  995MOL0     C37218   5.121   2.267   9.804 -0.2269 -0.1756 -0.7884
  995MOL0     C37219   5.058   2.210   9.919 -0.2262 -0.4169  0.2279
  995MOL0     O37220   4.979   2.155  10.194 -0.5132 -0.2474  0.6140
  995MOL0     C37221   4.831   1.834  10.194 -0.0097  0.7943 -0.4429
  995MOL0     C37222   4.751   1.750  10.278 -0.4888  0.1309 -0.1112
  995MOL0     N37223   4.641   1.413  10.764 -0.5235  0.1566  0.2608
  995MOL0     N37224   4.536   1.342  10.739  1.2978 -0.3559  0.1945
  995MOL0     C37225   4.157   1.777   9.842 -0.5373 -0.7561  0.6047
  995MOL0     C37226   4.069   1.841   9.748  0.4205 -0.5187 -0.4595
  995MOL0     C37227   3.682   1.940   9.512  0.6580 -0.4808  0.9209
  995MOL0     C37228   3.710   1.889   9.383 -0.2215 -0.0659  0.1327
  995MOL0     C37229   3.623   1.922   9.277  0.1831  0.2299  0.1399
  995MOL0     C37230   3.506   1.994   9.297 -0.7956  0.3177  0.1988
  995MOL0     O37231   3.415   1.985   9.190  0.4771 -0.3719 -0.0985
  995MOL0     C37232   3.281   1.962   9.232  0.1200  0.3911  0.4902
  995MOL0     C37233   3.255   1.809   9.244  0.4633 -0.2495 -0.3251
  995MOL0     C37234   3.101   1.779   9.261 -0.3731  0.7030  0.1565
  995MOL0     C37235   3.027   1.832   9.384  0.8116  0.0333  0.3680
  995MOL0     C37236   2.885   1.791   9.394 -0.6740  0.4686 -0.1706
  995MOL0     C37237   2.773   1.755   9.416  0.3364  0.3735  0.3383
  995MOL0     C37238   3.482   2.049   9.423 -0.3883  1.1359 -0.4328
  995MOL0     C37239   3.572   2.021   9.533  0.2224  0.6673  0.3145
  995MOL0     C37240   3.532   2.083   9.665 -0.8308  0.6539 -0.3093
  995MOL0     H37241   3.815   1.615   9.763 -0.5316 -0.2496  1.8016
  995MOL0     H37242   3.963   1.516   9.934  0.2735 -0.9513 -0.3777
  995MOL0     H37243   4.283   1.734  10.112 -1.0335 -0.1755 -1.3651
  995MOL0     H37244   4.391   1.647   9.998 -0.8466 -2.2353 -0.6404
  995MOL0     H37245   4.365   1.452  10.126  3.0066  0.1928 -0.4191
  995MOL0     H37246   4.436   1.584  10.223 -0.9171 -0.9489 -0.6654
  995MOL0     H37247   4.205   1.636  10.313 -0.5454  0.6375 -2.1255
  995MOL0     H37248   4.151   1.492  10.248 -0.0516 -1.1938  0.4045
  995MOL0     H37249   4.334   1.346  10.340  2.2679 -0.1407 -0.1534
  995MOL0     H37250   4.403   1.484  10.421  0.0304  0.9211 -1.6615
  995MOL0     H37251   4.293   1.307  10.548  1.5666  0.9269  1.3543
  995MOL0     H37252   4.124   1.369  10.504 -1.3275 -0.2159  5.4361
  995MOL0     H37253   4.350   1.536  10.614  0.6171 -2.6871 -3.1395
  995MOL0     H37254   4.180   1.580  10.601  0.8380 -1.1921 -1.0187
  995MOL0     H37255   4.101   1.424  10.762 -0.2033  0.4072 -0.2990
  995MOL0     H37256   4.218   1.534  10.846  0.0902  2.6085 -1.0917
  995MOL0     H37257   4.274   1.297  10.920 -0.1048  0.9695 -0.3661
  995MOL0     H37258   4.301   1.258  10.759  1.9585  1.0552 -0.4514
  995MOL0     H37259   4.444   1.565  10.963  0.9640  1.4112 -1.2826
  995MOL0     H37260   4.760   1.599  10.969  1.9862  0.3805 -0.7187
  995MOL0     H37261   4.616   1.701  10.921 -2.7000 -2.0222 -0.3818
  995MOL0     H37262   4.838   1.760  10.821 -2.6093  1.8328  0.3772
  995MOL0     H37263   4.838   1.603  10.730  0.0072 -0.5335  0.9100
  995MOL0     H37264   4.601   1.793  10.715 -1.1897  0.7845 -3.8945
  995MOL0     H37265   4.756   1.830  10.629 -0.3585  0.9677 -0.1937
  995MOL0     H37266   4.741   1.610  10.521 -1.9858  0.7892 -2.9037
  995MOL0     H37267   4.577   1.599  10.604 -0.9926  0.6363  0.1591
  995MOL0     H37268   4.590   1.994  10.448 -0.6165 -0.1801 -0.0148
  995MOL0     H37269   4.808   2.220  10.355  1.3061 -1.3685 -0.6711
  995MOL0     H37270   4.626   2.216  10.357 -0.9332 -1.4775 -0.3317
  995MOL0     H37271   4.706   2.229  10.206 -3.3441  0.1854  0.3289
  995MOL0     H37272   4.950   1.935   9.768 -1.9812  0.9418  0.6600
  995MOL0     H37273   5.059   2.021   9.578 -7.9369  2.7940 -0.2505
  995MOL0     H37274   5.242   2.285   9.382 -0.9741  0.8042  0.0799
  995MOL0     H37275   5.159   2.135   9.431  0.5224  0.0876  1.4873
  995MOL0     H37276   4.942   2.231   9.424  0.0078 -1.1132 -1.7056
  995MOL0     H37277   5.017   2.392   9.426 -0.0930 -1.2043  2.8603
  995MOL0     H37278   5.040   2.174   9.216 -1.3032 -0.6309  3.3172
  995MOL0     H37279   5.147   2.309   9.197  1.4321 -0.6276  1.4225
  995MOL0     H37280   4.983   2.456   9.136  0.1974  0.4887  3.7887
  995MOL0     H37281   4.850   2.350   9.203  0.8000 -0.8379  0.5108
  995MOL0     H37282   5.015   2.233   8.991  2.8652  1.8377  2.7485
  995MOL0     H37283   4.848   2.198   9.048 -0.4417  0.7408 -1.7034
  995MOL0     H37284   4.962   2.423   8.866  0.9123 -0.8942 -1.0575
  995MOL0     H37285   4.793   2.436   8.922 -0.9532 -2.8368  2.1315
  995MOL0     H37286   4.765   2.323   8.706 -0.5317 -1.5403 -2.0238
  995MOL0     H37287   4.788   2.189   8.810 -1.2558  0.4167 -0.2382
  995MOL0     H37288   5.038   2.191   8.771  0.0481  1.0947  0.0763
  995MOL0     H37289   5.019   2.314   8.652  0.4518  0.5192  1.4101
  995MOL0     H37290   5.170   2.361   9.826 -1.0091  0.7475 -2.7902
  995MOL0     H37291   5.068   2.266  10.012  0.7354 -0.3387  0.0867
  995MOL0     H37292   4.906   1.782  10.135  0.3036  0.2459  0.4255
  995MOL0     H37293   4.769   1.645  10.254 -1.8657 -0.8875  2.8493
  995MOL0     H37294   4.253   1.824   9.861  0.0205 -1.7578  0.3578
  995MOL0     H37295   4.111   1.923   9.692 -2.7279  0.8313 -1.0704
  995MOL0     H37296   3.789   1.818   9.362 -0.7819 -1.6661  2.8273
  995MOL0     H37297   3.627   1.882   9.176  0.1854 -2.6170  1.2078
  995MOL0     H37298   3.255   2.021   9.320 -2.2439  2.4667 -1.4391
  995MOL0     H37299   3.215   2.008   9.158 -0.1398 -0.9801 -0.1727
  995MOL0     H37300   3.309   1.779   9.334 -0.8583 -3.2165 -0.3912
  995MOL0     H37301   3.296   1.759   9.156  2.8246 -0.1120  0.6188
  995MOL0     H37302   3.056   1.833   9.178  3.7531  1.6230 -1.7519
  995MOL0     H37303   3.067   1.675   9.251  1.7554 -0.0191 -0.1235
  995MOL0     H37304   3.014   1.938   9.362 -1.9967 -0.7435 -2.4118
  995MOL0     H37305   3.082   1.813   9.477 -0.7543 -1.0797  1.1078
  995MOL0     H37306   2.681   1.712   9.451  1.2422 -0.6350  1.5516
  995MOL0     H37307   3.391   2.104   9.443 -1.6965 -1.1766  0.4045
  995MOL0     H37308   3.436   2.134   9.660  0.1986  2.5589 -2.0983
  995MOL0     H37309   3.515   2.001   9.735 -0.7818  1.8989  1.2202
  995MOL0     H37310   3.615   2.146   9.700  2.1899 -1.8260 -2.4274
  996MOL0     O37311   4.483   4.366   8.866  0.0507 -0.5817 -0.3364
  996MOL0     C37312   4.467   4.413   8.761 -0.7519  0.0431  0.3684
  996MOL0     O37313   4.459   4.341   8.643  0.3594  0.1676  0.3243
  996MOL0     C37314   4.471   4.204   8.650  1.0491 -0.5197  0.1581
  996MOL0     C37315   4.603   4.156   8.655  1.2699 -0.2044  0.5536
  996MOL0     C37316   4.629   4.018   8.666  0.1027  0.6095  0.4784
  996MOL0     C37317   4.529   3.926   8.671 -0.6624  0.1453  0.0173
  996MOL0     O37318   4.578   3.798   8.692  0.6621 -0.4743  0.3745
  996MOL0     C37319   4.490   3.692   8.648  0.5561  0.5016  0.4065
  996MOL0     C37320   4.383   3.661   8.750  0.4134  0.0579  0.1824
  996MOL0     C37321   4.441   3.568   8.856  0.4524 -0.1316 -0.7122
  996MOL0     C37322   4.345   3.577   8.984  0.6263 -0.9141 -0.2712
  996MOL0     C37323   4.383   3.481   9.102 -0.1725  0.8449 -0.2068
  996MOL0     C37324   4.357   3.334   9.066 -0.0354 -0.3505 -0.2396
  996MOL0     C37325   4.345   3.235   9.175 -0.6103 -0.3292 -1.1099
  996MOL0     C37326   4.348   3.091   9.140 -1.0931 -0.0433 -0.2172
  996MOL0     N37327   4.420   3.027   9.253 -0.0848  0.1945  0.4288
  996MOL0     C37328   4.377   3.020   9.379 -0.3238 -0.1552  0.2409
  996MOL0     C37329   4.477   2.968   9.453  0.6957  0.0524 -0.8253
  996MOL0     C37330   4.485   2.948   9.599  0.5232  0.0471 -0.3902
  996MOL0     C37331   4.434   2.815   9.639 -0.0198  0.5362  0.3221
  996MOL0     C37332   4.392   2.817   9.787 -0.3580  0.5054  0.0392
  996MOL0     C37333   4.366   2.677   9.835  0.3147  0.0570 -0.9117
  996MOL0     O37334   4.235   2.645   9.792 -0.4982  0.2522  0.2276
  996MOL0     C37335   4.150   2.565   9.862 -0.1517 -0.4909  0.4391
  996MOL0     C37336   4.078   2.468   9.798 -0.4849  0.8026 -0.3650
  996MOL0     C37337   3.991   2.374   9.869  0.2195  0.0235  0.7085
  996MOL0     C37338   3.931   2.266   9.780 -0.5071  0.0883  0.2046
  996MOL0     C37339   3.995   2.369  10.017  0.2526 -0.5042 -0.2531
  996MOL0     C37340   3.933   2.262  10.109  0.5512 -0.4517 -0.4346
  996MOL0     O37341   3.857   2.166  10.058  0.2661 -0.3361  0.4019
  996MOL0     C37342   3.843   2.049  10.141  1.8992  0.4030  0.1504
  996MOL0     C37343   3.714   2.007  10.190 -0.3558  0.5114  0.3388
  996MOL0     C37344   3.709   1.892  10.269 -0.8458  0.8673 -0.0479
  996MOL0     C37345   3.822   1.810  10.300  1.0959  0.8503 -0.3803
  996MOL0     O37346   3.817   1.687  10.371  0.1663 -0.6219 -1.1321
  996MOL0     C37347   3.726   1.688  10.479  0.6514 -0.2710 -0.4348
  996MOL0     C37348   3.771   1.774  10.600  0.5065  0.1614  0.2717
  996MOL0     C37349   3.795   1.695  10.720  0.2216 -0.1820 -0.1874
  996MOL0     C37350   3.909   1.756  10.802  0.1157  0.7336  0.3295
  996MOL0     C37351   3.921   1.693  10.947 -0.0967  0.4633  0.0937
  996MOL0     C37352   3.830   1.748  11.061  0.1561  0.9134  0.7039
  996MOL0     C37353   3.881   1.879  11.126 -0.2122 -0.9237 -0.3621
  996MOL0     C37354   3.958   1.832  11.249 -0.0569 -0.3340 -0.2925
  996MOL0    Cl37355   4.010   1.982  11.342 -0.2966  0.2061 -0.1805
  996MOL0     C37356   3.943   1.857  10.255  0.4446 -0.3591  0.7462
  996MOL0     C37357   3.951   1.970  10.168  0.3759  0.4071 -0.3028
  996MOL0     O37358   3.964   2.267  10.228 -0.0623  0.1389 -0.1379
  996MOL0     C37359   4.053   2.478  10.071 -0.1616 -0.6710 -0.0281
  996MOL0     C37360   4.128   2.572   9.999 -0.1629 -0.1061  0.0184
  996MOL0     N37361   4.580   2.938   9.376 -0.2595  0.8917 -0.1953
  996MOL0     N37362   4.545   2.973   9.254 -0.4570 -0.1695  0.3636
  996MOL0     C37363   4.397   3.977   8.661 -0.7196  0.1878 -0.2987
  996MOL0     C37364   4.364   4.111   8.649  0.8291 -1.2179  0.8547
  996MOL0     C37365   4.461   4.564   8.754 -0.9384  0.1787  0.8404
  996MOL0     C37366   4.505   4.647   8.864  0.1569 -1.1537  0.1818
  996MOL0     C37367   4.490   4.784   8.870  0.2033  0.1451  0.2714
  996MOL0     C37368   4.427   4.849   8.768  0.2789 -0.0289  0.0330
  996MOL0     O37369   4.390   4.984   8.780 -0.8637  0.2615 -0.1137
  996MOL0     C37370   4.313   5.057   8.684  1.2465 -0.8178  0.4208
  996MOL0     C37371   4.290   5.213   8.726 -0.1802  0.9844  0.8786
  996MOL0     C37372   4.191   5.244   8.833 -0.0349 -0.0114  0.5935
  996MOL0     C37373   4.185   5.396   8.855  0.2630  0.0343  0.2409
  996MOL0     C37374   4.106   5.415   8.977  0.0866  0.1634  0.1666
  996MOL0     C37375   4.029   5.433   9.068  0.2214 -0.3423  0.6205
  996MOL0     C37376   4.400   4.781   8.651  0.8124  0.0464 -0.7129
  996MOL0     C37377   4.419   4.641   8.644  0.0591 -0.1581  0.3398
  996MOL0     C37378   4.403   4.579   8.509 -0.3938 -0.2103 -0.9346
  996MOL0     H37379   4.683   4.229   8.652 -0.6168  2.0557 -3.9276
  996MOL0     H37380   4.731   3.984   8.682 -1.1785 -1.9582  4.5700
  996MOL0     H37381   4.551   3.603   8.631  0.7278  0.7791 -0.4375
  996MOL0     H37382   4.446   3.713   8.550 -1.0841  1.9801  1.3997
  996MOL0     H37383   4.358   3.754   8.802 -1.4803  0.9117 -2.0694
  996MOL0     H37384   4.293   3.620   8.705  2.2024 -0.4181 -3.2725
  996MOL0     H37385   4.454   3.463   8.828 -1.0985 -0.7697  0.7451
  996MOL0     H37386   4.532   3.611   8.896 -1.9459  3.3518  1.5700
  996MOL0     H37387   4.359   3.680   9.016  3.4168 -0.8920 -1.3423
  996MOL0     H37388   4.240   3.567   8.955  0.5520 -1.5314  0.1884
  996MOL0     H37389   4.333   3.503   9.197  1.0183  1.3556  0.3132
  996MOL0     H37390   4.490   3.500   9.112 -0.5707  3.1970  0.1363
  996MOL0     H37391   4.263   3.328   9.009 -1.2690 -0.6487  1.7166
  996MOL0     H37392   4.445   3.308   9.007  1.5039  0.7830  1.4816
  996MOL0     H37393   4.262   3.253   9.244  2.2611  4.9043  1.6380
  996MOL0     H37394   4.420   3.267   9.248 -1.2386 -1.0962 -0.1138
  996MOL0     H37395   4.244   3.064   9.120 -1.0825 -0.6909  0.5606
  996MOL0     H37396   4.400   3.069   9.046  0.0305  0.8994  0.1623
  996MOL0     H37397   4.281   3.066   9.404 -1.2545 -0.8573 -1.7813
  996MOL0     H37398   4.441   3.034   9.650  0.3586  0.1934 -0.7741
  996MOL0     H37399   4.588   2.948   9.636 -0.9291 -0.4948  4.2353
  996MOL0     H37400   4.344   2.791   9.581 -0.8978  2.7158  0.6889
  996MOL0     H37401   4.512   2.742   9.616  0.8722  0.9456  1.9155
  996MOL0     H37402   4.474   2.848   9.853  1.1700 -3.1699  0.1417
  996MOL0     H37403   4.299   2.870   9.806 -1.7082 -1.0980 -1.7468
  996MOL0     H37404   4.444   2.608   9.804  0.1611 -1.6959  2.2215
  996MOL0     H37405   4.371   2.664   9.943 -0.5680 -0.5754 -0.9404
  996MOL0     H37406   4.104   2.450   9.694  0.0460 -2.8021  0.2561
  996MOL0     H37407   3.999   2.180   9.785 -1.3667 -1.0575 -3.8108
  996MOL0     H37408   3.930   2.286   9.672  3.1781  1.3747  0.2786
  996MOL0     H37409   3.839   2.210   9.803  0.5163 -3.8663 -3.8325
  996MOL0     H37410   3.620   2.057  10.168 -1.0403  1.0739  3.8351
  996MOL0     H37411   3.611   1.871  10.313  0.2989  4.8030  5.6066
  996MOL0     H37412   3.622   1.702  10.446 -0.3459 -3.3432  1.0313
  996MOL0     H37413   3.726   1.583  10.510  2.3287  0.0766  0.8687
  996MOL0     H37414   3.866   1.820  10.571  1.2126 -1.5601 -0.2469
  996MOL0     H37415   3.698   1.854  10.616 -0.9629 -0.8849 -0.8953
  996MOL0     H37416   3.822   1.594  10.687  3.6751  0.9329 -1.1235
  996MOL0     H37417   3.698   1.687  10.770  0.6926  0.2171  0.8311
  996MOL0     H37418   3.886   1.863  10.810  0.1125  0.8013 -0.4588
  996MOL0     H37419   3.997   1.742  10.739 -1.1605 -0.8549 -1.2177
  996MOL0     H37420   3.895   1.588  10.932  0.1616  0.6454 -1.8896
  996MOL0     H37421   4.018   1.710  10.994 -0.5044 -1.0221  1.5571
  996MOL0     H37422   3.827   1.667  11.134  2.8778  2.3265  2.5514
  996MOL0     H37423   3.726   1.770  11.037 -0.6496  1.5043  4.1617
  996MOL0     H37424   3.801   1.947  11.158  1.2595  0.7212 -0.0432
  996MOL0     H37425   3.935   1.937  11.051 -1.5002 -1.6331 -1.9008
  996MOL0     H37426   4.049   1.776  11.223  0.0124 -0.2846 -0.1578
  996MOL0     H37427   3.903   1.766  11.316  0.5158 -1.0433 -0.5075
  996MOL0     H37428   4.022   1.784  10.273  0.0546 -1.4481 -1.5873
  996MOL0     H37429   4.050   1.996  10.134  0.8409 -1.2771 -0.3077
  996MOL0     H37430   4.036   2.510  10.173 -0.2664  1.9300 -0.7934
  996MOL0     H37431   4.179   2.652  10.052  3.1493 -1.6981 -0.4827
  996MOL0     H37432   4.315   3.906   8.663 -2.2839  1.8581 -1.4873
  996MOL0     H37433   4.262   4.144   8.665  1.2327 -0.4839  2.0395
  996MOL0     H37434   4.555   4.598   8.947 -0.9085  2.6934  3.4526
  996MOL0     H37435   4.507   4.830   8.966 -1.4256  1.0011  0.1878
  996MOL0     H37436   4.363   5.063   8.587  0.0434  1.1055 -0.1343
  996MOL0     H37437   4.213   5.012   8.680 -0.3060  2.0441  2.8825
  996MOL0     H37438   4.248   5.264   8.639  1.5717 -0.8085 -1.1012
  996MOL0     H37439   4.386   5.256   8.756  0.5621  0.0198 -0.0797
  996MOL0     H37440   4.092   5.205   8.806 -0.0601  0.0345  0.6207
  996MOL0     H37441   4.229   5.193   8.921  2.0729  0.8852  0.2644
  996MOL0     H37442   4.144   5.454   8.771  0.8831  0.6709  0.3707
  996MOL0     H37443   4.291   5.422   8.861  0.4508  1.0001 -3.7835
  996MOL0     H37444   3.963   5.431   9.152 -0.6813 -2.1458 -0.0715
  996MOL0     H37445   4.365   4.828   8.559  0.8573 -2.5713 -2.1514
  996MOL0     H37446   4.502   4.551   8.471  2.1569 -1.4979  5.3286
  996MOL0     H37447   4.331   4.497   8.507 -2.1439  1.2799 -2.0287
  996MOL0     H37448   4.368   4.656   8.440 -1.5430  0.1832  0.0701
  997MOL0     O37449   6.901   7.153   8.580  0.0413 -0.3599  0.2167
  997MOL0     C37450   6.874   7.080   8.672  0.7129 -0.4092  0.7645
  997MOL0     O37451   6.932   7.091   8.800 -1.0186 -0.0500  0.5722
  997MOL0     C37452   7.032   7.179   8.815  0.8405  0.1411 -0.7754
  997MOL0     C37453   7.034   7.248   8.935 -0.5445 -0.5151 -0.3654
  997MOL0     C37454   7.127   7.344   8.974  0.4440 -0.3598 -0.0856
  997MOL0     C37455   7.220   7.383   8.875  0.2334 -0.2436 -0.0176
  997MOL0     O37456   7.305   7.485   8.907 -0.2284  0.1417  0.3494
  997MOL0     C37457   7.319   7.583   8.806 -0.6373 -0.3883 -0.0213
  997MOL0     C37458   7.407   7.696   8.848 -0.5237 -0.1643  0.4251
  997MOL0     C37459   7.544   7.640   8.809 -1.0194 -0.6694 -1.1684
  997MOL0     C37460   7.656   7.738   8.838 -0.6424  0.2517 -0.4527
  997MOL0     C37461   7.795   7.675   8.822 -1.1496  0.1666 -0.1188
  997MOL0     C37462   7.821   7.588   8.950 -0.1834  0.0602  0.0629
  997MOL0     C37463   7.972   7.586   8.978 -0.4501 -0.7185 -0.2751
  997MOL0     C37464   8.000   7.440   9.029  0.1369  0.1906  0.0249
  997MOL0     N37465   8.124   7.426   9.103 -0.1147 -0.0065 -0.0761
  997MOL0     C37466   8.247   7.451   9.050  0.0177  0.1647  0.5720
  997MOL0     C37467   8.333   7.437   9.155  0.8457 -0.3508 -0.6989
  997MOL0     C37468   8.474   7.451   9.158  0.3052 -0.4663  0.4326
  997MOL0     C37469   8.514   7.546   9.267  0.5865  0.6268  0.2832
  997MOL0     C37470   8.665   7.561   9.309 -0.3488  1.2850 -0.4065
  997MOL0     C37471   8.713   7.426   9.362 -0.1194  0.4547 -0.5337
  997MOL0     O37472   8.834   7.435   9.440 -0.5817 -0.0033 -0.2601
  997MOL0     C37473   8.956   7.459   9.379 -0.0265 -0.3419 -0.1306
  997MOL0     C37474   9.064   7.462   9.469 -0.1568  0.3181 -1.0118
  997MOL0     C37475   9.201   7.478   9.426  0.3023  0.9281 -0.4896
  997MOL0     C37476   9.302   7.452   9.545  0.7450  0.0329  0.7373
  997MOL0     C37477   9.225   7.500   9.282 -0.1061  0.5309 -0.1017
  997MOL0     C37478   9.362   7.496   9.222  1.3017 -0.3153  0.0186
  997MOL0     O37479   9.370   7.544   9.096 -0.1147  0.4296 -0.3371
  997MOL0     C37480   9.487   7.596   9.053  0.4619 -0.9757  0.1964
  997MOL0     C37481   9.458   7.703   8.963 -0.4143  0.1346 -1.5612
  997MOL0     C37482   9.560   7.763   8.891  1.2525  0.4711  0.1629
  997MOL0     C37483   9.697   7.735   8.923  0.7722  0.0031  1.1178
  997MOL0     O37484   9.803   7.792   8.858  0.4740 -0.4837  0.0222
  997MOL0     C37485   9.775   7.885   8.749 -0.4745  0.0498  0.6508
  997MOL0     C37486   9.732   8.032   8.785  0.3886 -0.2148  0.2059
  997MOL0     C37487   9.838   8.115   8.865 -0.7430  0.6002  0.5590
  997MOL0     C37488   9.848   8.083   9.012  0.7094 -0.2480  0.2768
  997MOL0     C37489   9.951   8.176   9.074 -0.0606  0.4966  0.1947
  997MOL0     C37490   9.967   8.163   9.219 -0.0603  0.3962  0.0111
  997MOL0     C37491  10.067   8.253   9.278  0.5722  0.0212 -0.0608
  997MOL0     C37492  10.075   8.236   9.431 -0.9324  0.5828 -0.2219
  997MOL0    Cl37493  10.227   8.291   9.485 -0.4103 -0.0747 -0.0172
  997MOL0     C37494   9.718   7.629   9.002  0.5475  0.4072 -0.7658
  997MOL0     C37495   9.622   7.559   9.070 -0.4574  0.5034  0.2731
  997MOL0     O37496   9.454   7.460   9.289  0.5493  0.1346 -0.3812
  997MOL0     C37497   9.113   7.512   9.200  0.5881  0.2861  0.2039
  997MOL0     C37498   8.983   7.478   9.243 -0.4681 -0.9663  0.0624
  997MOL0     N37499   8.254   7.402   9.268  0.5980  0.7250  0.2567
  997MOL0     N37500   8.129   7.403   9.236 -0.3679 -0.2763 -0.4494
  997MOL0     C37501   7.228   7.316   8.752  0.1030 -0.2716  0.1347
  997MOL0     C37502   7.141   7.209   8.725  0.4763  0.5418 -0.0050
  997MOL0     C37503   6.779   6.975   8.643  0.6215 -0.3828 -0.6180
  997MOL0     C37504   6.690   6.931   8.742 -0.3575  0.4896 -0.2906
  997MOL0     C37505   6.605   6.819   8.723  0.4226  0.6224 -0.5842
  997MOL0     C37506   6.604   6.749   8.603  0.2518 -0.8545  0.7908
  997MOL0     O37507   6.509   6.640   8.596 -0.2859 -0.0931 -0.2090
  997MOL0     C37508   6.456   6.614   8.468  0.5274  1.0066 -1.0498
  997MOL0     C37509   6.331   6.525   8.475 -0.8091 -0.4247  0.3578
  997MOL0     C37510   6.219   6.576   8.564 -0.5373 -0.6631  0.5093
  997MOL0     C37511   6.129   6.686   8.503  0.6781 -0.4495 -0.2971
  997MOL0     C37512   6.031   6.747   8.594  1.0448 -0.5689 -0.1490
  997MOL0     C37513   5.932   6.775   8.656 -0.7783  0.1429  0.1643
  997MOL0     C37514   6.690   6.796   8.500  1.6139  0.1100  0.4655
  997MOL0     C37515   6.779   6.903   8.519 -0.3325 -0.4348  0.7418
  997MOL0     C37516   6.879   6.928   8.403  0.5114  1.1789 -0.4345
  997MOL0     H37517   6.948   7.223   8.995 -2.6220  0.1970 -2.8494
  997MOL0     H37518   7.130   7.381   9.076  3.1913  0.0095 -0.2257
  997MOL0     H37519   7.221   7.630   8.793 -0.7573  1.4821  5.1718
  997MOL0     H37520   7.350   7.532   8.715 -1.9401 -0.7840 -0.2642
  997MOL0     H37521   7.372   7.780   8.788 -2.1775 -1.8250 -1.0826
  997MOL0     H37522   7.400   7.706   8.957 -1.2181  1.0629  0.2854
  997MOL0     H37523   7.567   7.551   8.868  0.9400  1.2726  1.2171
  997MOL0     H37524   7.537   7.616   8.702 -4.2820 -0.5946 -1.0675
  997MOL0     H37525   7.647   7.824   8.772  2.7662  0.1354 -1.2539
  997MOL0     H37526   7.645   7.764   8.944 -1.3238 -3.4231  0.5534
  997MOL0     H37527   7.872   7.752   8.818 -0.0069 -0.9976 -3.0010
  997MOL0     H37528   7.791   7.627   8.724 -1.7687  2.6132 -1.3668
  997MOL0     H37529   7.771   7.632   9.036  0.3657  0.6497  0.0892
  997MOL0     H37530   7.788   7.485   8.935  1.6293 -0.6093  0.4191
  997MOL0     H37531   7.987   7.654   9.062 -0.6240 -2.7634  1.4802
  997MOL0     H37532   8.036   7.621   8.897 -0.2801  0.1140  0.2038
  997MOL0     H37533   7.914   7.407   9.088 -0.3681  0.8486 -0.3272
  997MOL0     H37534   7.998   7.369   8.945 -1.3196 -2.4485  2.1531
  997MOL0     H37535   8.280   7.472   8.949  0.4160  0.4504  0.7593
  997MOL0     H37536   8.514   7.479   9.060 -1.9019 -3.1919 -1.4324
  997MOL0     H37537   8.510   7.350   9.178  1.7051  0.0463  0.5923
  997MOL0     H37538   8.482   7.644   9.229 -0.6915 -0.7942 -2.6318
  997MOL0     H37539   8.468   7.517   9.362 -1.1188  3.5333  0.4869
  997MOL0     H37540   8.726   7.578   9.220 -1.6063 -0.5128 -1.6786
  997MOL0     H37541   8.684   7.635   9.387  0.8952  0.6352 -0.0562
  997MOL0     H37542   8.644   7.384   9.435  0.9062 -0.5108 -0.0953
  997MOL0     H37543   8.729   7.350   9.285  1.8165 -2.4666  2.4799
  997MOL0     H37544   9.035   7.454   9.573  0.5313 -0.2251 -0.8502
  997MOL0     H37545   9.367   7.537   9.561  2.3221 -1.2358  1.3102
  997MOL0     H37546   9.356   7.360   9.522 -1.8111 -1.6305  0.9115
  997MOL0     H37547   9.251   7.424   9.638 -3.0622  1.2129 -0.7942
  997MOL0     H37548   9.355   7.733   8.948 -0.5943  0.3641 -0.1002
  997MOL0     H37549   9.530   7.835   8.815 -1.6669 -1.8632 -1.1211
  997MOL0     H37550   9.872   7.899   8.699 -1.1432  3.2321 -0.0296
  997MOL0     H37551   9.702   7.843   8.679  0.0904 -2.2151  1.3501
  997MOL0     H37552   9.711   8.073   8.685 -1.0866 -4.3518 -1.4019
  997MOL0     H37553   9.646   8.028   8.852  0.0524  1.0612 -0.1130
  997MOL0     H37554   9.819   8.222   8.870 -0.9044  0.5292  2.0835
  997MOL0     H37555   9.940   8.102   8.826 -0.9065 -0.4239  0.4466
  997MOL0     H37556   9.874   7.979   9.034 -1.8892 -0.7982  1.1867
  997MOL0     H37557   9.749   8.085   9.059 -1.8120 -0.6960 -4.4289
  997MOL0     H37558  10.049   8.173   9.027  0.1927  1.5069  0.6287
  997MOL0     H37559   9.923   8.280   9.054 -0.8809  0.7597  2.3814
  997MOL0     H37560  10.003   8.062   9.243  2.0430  1.3613  1.2055
  997MOL0     H37561   9.872   8.190   9.265 -0.6347 -0.5216 -0.5937
  997MOL0     H37562  10.034   8.356   9.259  0.6758  0.0928  0.1476
  997MOL0     H37563  10.166   8.227   9.239 -0.2696 -3.6642 -0.1399
  997MOL0     H37564  10.086   8.131   9.459 -2.4633  0.7457  1.1622
  997MOL0     H37565   9.998   8.300   9.477 -0.3025  0.7954  0.5676
  997MOL0     H37566   9.823   7.608   9.016  1.2857  3.1192 -1.7261
  997MOL0     H37567   9.648   7.463   9.115 -0.4417  0.1016 -0.5752
  997MOL0     H37568   9.116   7.525   9.092 -2.3632 -3.7959 -0.5859
  997MOL0     H37569   8.907   7.472   9.166 -2.5763 -1.1129  2.0222
  997MOL0     H37570   7.304   7.347   8.681  0.5145  1.4695  1.2502
  997MOL0     H37571   7.142   7.155   8.631 -0.0891 -0.2267  0.4158
  997MOL0     H37572   6.673   6.984   8.835  2.3060  0.3524  0.3675
  997MOL0     H37573   6.535   6.785   8.798  0.6862 -2.4380 -1.5940
  997MOL0     H37574   6.424   6.708   8.420  1.2123 -0.5133 -4.8135
  997MOL0     H37575   6.534   6.578   8.401  2.4326  2.7070  0.1280
  997MOL0     H37576   6.355   6.423   8.508 -0.5271  0.3713  2.7973
  997MOL0     H37577   6.300   6.511   8.371  0.6139  0.8000 -0.2648
  997MOL0     H37578   6.157   6.491   8.597  0.1663 -0.6657  1.9038
  997MOL0     H37579   6.269   6.609   8.655 -0.1430  0.5827 -0.1370
  997MOL0     H37580   6.071   6.640   8.423  2.6255  0.5858 -2.4375
  997MOL0     H37581   6.172   6.775   8.454 -2.2229  0.0489 -2.2020
  997MOL0     H37582   5.848   6.797   8.719 -0.1996  0.1172  0.9646
  997MOL0     H37583   6.690   6.743   8.406 -1.5253 -1.9980  1.4667
  997MOL0     H37584   6.972   6.874   8.422 -0.6458 -0.6018  0.4528
  997MOL0     H37585   6.835   6.881   8.314  0.8574  3.6253 -1.9846
  997MOL0     H37586   6.904   7.027   8.364 -0.5661  1.6107 -0.0424
  998MOL0     O37587   0.415   6.981   8.336  1.4658 -0.5540 -0.5253
  998MOL0     C37588   0.410   7.033   8.226  0.0208 -0.4334 -0.0897
  998MOL0     O37589   0.482   6.994   8.114  0.3769  0.4423 -0.1235
  998MOL0     C37590   0.552   6.873   8.129 -1.0400 -0.7521  0.0632
  998MOL0     C37591   0.689   6.874   8.127  0.3341 -0.3604 -0.3503
  998MOL0     C37592   0.753   6.751   8.121  0.8073  0.4078 -0.1231
  998MOL0     C37593   0.681   6.631   8.127 -0.7704  0.1754 -0.3689
  998MOL0     O37594   0.735   6.504   8.142 -0.8499 -0.1580 -0.3475
  998MOL0     C37595   0.848   6.496   8.236  0.2075  0.2115 -0.2800
  998MOL0     C37596   0.975   6.459   8.160 -0.0173  0.5276  0.2641
  998MOL0     C37597   0.980   6.320   8.096 -0.9720 -0.5743 -0.2938
  998MOL0     C37598   1.064   6.332   7.964  0.4579  0.1581  1.4626
  998MOL0     C37599   1.212   6.359   7.976  0.7264 -0.2261  0.9291
  998MOL0     C37600   1.301   6.334   7.865 -0.0105  0.7175 -0.3187
  998MOL0     C37601   1.247   6.379   7.728 -0.1988  0.5000  0.7794
  998MOL0     C37602   1.238   6.540   7.703 -0.4317  0.0843 -0.1679
  998MOL0     N37603   1.114   6.606   7.731 -0.0306  0.1964 -0.9000
  998MOL0     C37604   0.991   6.564   7.691  0.1078 -0.0064 -0.0700
  998MOL0     C37605   0.903   6.657   7.742  0.0349  0.1090  0.3492
  998MOL0     C37606   0.752   6.653   7.723  0.0737  1.2516 -0.0524
  998MOL0     C37607   0.685   6.509   7.718 -0.9028  0.1275 -0.3764
  998MOL0     C37608   0.528   6.517   7.715 -0.2621  0.6377  0.2321
  998MOL0     C37609   0.468   6.374   7.745  0.3711 -0.0492  0.3093
  998MOL0     O37610   0.503   6.284   7.640  0.2317  0.3111  0.3316
  998MOL0     C37611   0.435   6.278   7.515 -0.3611  0.1853 -0.4613
  998MOL0     C37612   0.476   6.180   7.425 -0.0492 -0.5449 -0.1600
  998MOL0     C37613   0.433   6.175   7.294  0.1152 -0.6109  0.3455
  998MOL0     C37614   0.494   6.065   7.216 -0.5484  0.3791  0.2818
  998MOL0     C37615   0.325   6.250   7.259 -0.0283 -1.0463  0.0235
  998MOL0     C37616   0.248   6.246   7.127  0.4260 -0.2984 -0.3493
  998MOL0     O37617   0.167   6.350   7.088 -0.2520  0.2675  0.6811
  998MOL0     C37618   0.111   6.339   6.963  0.1686 -0.5014  0.7878
  998MOL0     C37619  -0.022   6.302   6.952  0.4353  0.1184 -0.4447
  998MOL0     C37620  -0.085   6.289   6.829 -1.3925  0.3387  0.9532
  998MOL0     C37621  -0.011   6.309   6.709 -0.1945 -0.1731  0.0162
  998MOL0     O37622  -0.089   6.287   6.591  0.5714 -0.3708  0.7858
  998MOL0     C37623  -0.020   6.217   6.490 -0.6352 -0.4125 -0.2314
  998MOL0     C37624  -0.112   6.145   6.392  0.4484 -0.3046  1.1664
  998MOL0     C37625  -0.205   6.054   6.467  0.1243  1.2419 -0.0802
  998MOL0     C37626  -0.122   5.919   6.504 -0.2490  0.1208  0.0234
  998MOL0     C37627  -0.197   5.833   6.614 -0.2610  1.1384  0.2714
  998MOL0     C37628  -0.131   5.704   6.667 -0.8508  0.1726  0.2840
  998MOL0     C37629  -0.222   5.634   6.780  0.2816  0.1822 -0.3956
  998MOL0     C37630  -0.148   5.525   6.847 -0.3780 -0.0794  0.7713
  998MOL0    Cl37631  -0.266   5.439   6.964  0.0405 -0.1527 -0.2133
  998MOL0     C37632   0.125   6.339   6.717  0.2722  0.1541 -0.6402
  998MOL0     C37633   0.184   6.350   6.842 -0.3861 -0.0102 -0.5589
  998MOL0     O37634   0.269   6.150   7.052  0.6242 -0.5575  0.8050
  998MOL0     C37635   0.272   6.345   7.351 -1.2284 -0.0845  0.6481
  998MOL0     C37636   0.324   6.359   7.483  0.0385  0.2186 -0.3549
  998MOL0     N37637   0.964   6.745   7.824  0.4876  0.3529  0.2834
  998MOL0     N37638   1.092   6.707   7.823 -0.0565 -0.1382 -0.0341
  998MOL0     C37639   0.546   6.636   8.118 -0.7509 -0.0120 -0.6721
  998MOL0     C37640   0.477   6.756   8.115 -0.5923 -0.5266 -0.7670
  998MOL0     C37641   0.333   7.150   8.200  1.0029 -0.4960  0.0903
  998MOL0     C37642   0.296   7.194   8.065 -0.2753  0.5714 -0.6693
  998MOL0     C37643   0.215   7.304   8.040  0.3618 -0.1879 -0.2374
  998MOL0     C37644   0.160   7.379   8.143  0.6525 -1.5843  0.2835
  998MOL0     O37645   0.066   7.476   8.113  0.5976 -0.4215  0.0333
  998MOL0     C37646   0.004   7.552   8.213 -0.6405  0.2406 -0.6337
  998MOL0     C37647   0.087   7.685   8.230  0.9187  0.0629 -0.0251
  998MOL0     C37648   0.091   7.760   8.091  0.5600  0.0957 -1.5157
  998MOL0     C37649   0.141   7.906   8.127  0.0630  0.5173  0.0127
  998MOL0     C37650   0.046   7.993   8.190 -0.2316 -0.3238  0.3907
  998MOL0     C37651  -0.030   8.077   8.239  0.5173  0.3276 -0.4978
  998MOL0     C37652   0.212   7.353   8.268  1.2529 -0.3330  0.3172
  998MOL0     C37653   0.286   7.240   8.306 -0.5008 -0.0030  0.0767
  998MOL0     C37654   0.297   7.213   8.453 -0.2869  0.0557  0.5505
  998MOL0     H37655   0.746   6.966   8.133 -2.7664  1.6049  1.5095
  998MOL0     H37656   0.860   6.737   8.113  0.8780 -0.3590  1.5825
  998MOL0     H37657   0.834   6.413   8.306  0.4948 -0.3805 -0.9180
  998MOL0     H37658   0.846   6.580   8.307  2.3954 -2.4040  3.1977
  998MOL0     H37659   1.008   6.539   8.093 -2.8206  0.7046 -1.0808
  998MOL0     H37660   1.058   6.464   8.230  3.3251  2.3185 -3.4045
  998MOL0     H37661   1.030   6.256   8.168  0.9264  0.3486 -0.7326
  998MOL0     H37662   0.879   6.289   8.069 -0.9317  0.0780 -1.2539
  998MOL0     H37663   1.055   6.234   7.917  0.2413 -0.2301  2.2900
  998MOL0     H37664   1.010   6.405   7.904 -1.5667 -1.0936  1.6304
  998MOL0     H37665   1.236   6.304   8.068 -2.2286  2.0766  3.2576
  998MOL0     H37666   1.221   6.463   8.009 -1.1623  0.0237  0.7315
  998MOL0     H37667   1.395   6.383   7.892  0.5498  0.2430 -1.3290
  998MOL0     H37668   1.333   6.231   7.880  3.1956  2.0916  4.7798
  998MOL0     H37669   1.149   6.332   7.719 -0.1759 -0.2401  3.3729
  998MOL0     H37670   1.316   6.341   7.653 -1.2063 -0.6437  0.4132
  998MOL0     H37671   1.319   6.596   7.752 -2.6745  3.7803 -0.3191
  998MOL0     H37672   1.263   6.560   7.598 -1.4379  0.0656 -0.4228
  998MOL0     H37673   0.967   6.478   7.630  0.8803 -0.8369  0.7570
  998MOL0     H37674   0.737   6.697   7.623 -2.2863 -2.5902 -1.6036
  998MOL0     H37675   0.702   6.709   7.802 -2.4669 -1.1561  0.1887
  998MOL0     H37676   0.726   6.445   7.639  0.7277 -1.2541  1.4615
  998MOL0     H37677   0.711   6.450   7.807 -2.3328  0.8548  0.5509
  998MOL0     H37678   0.484   6.591   7.784 -1.8707 -0.1303  0.0914
  998MOL0     H37679   0.505   6.543   7.612  2.7945 -0.9270 -0.9644
  998MOL0     H37680   0.500   6.324   7.837 -0.9147  1.1530  1.4588
  998MOL0     H37681   0.359   6.379   7.750 -0.2990 -4.3858 -3.3959
  998MOL0     H37682   0.556   6.113   7.456  0.2197 -0.1612 -0.0153
  998MOL0     H37683   0.424   5.981   7.207 -0.4700  0.4371 -1.0120
  998MOL0     H37684   0.596   6.039   7.247 -0.5143 -1.7455 -1.3602
  998MOL0     H37685   0.501   6.102   7.114  0.2429  1.9832  0.8905
  998MOL0     H37686  -0.086   6.290   7.039  0.0847  0.0090 -0.7170
  998MOL0     H37687  -0.190   6.262   6.823 -1.2206 -0.0086 -0.7805
  998MOL0     H37688   0.044   6.286   6.434  0.8451 -2.2226 -0.8703
  998MOL0     H37689   0.052   6.151   6.540  1.0209  0.4493 -1.3688
  998MOL0     H37690  -0.170   6.229   6.352  5.2448  2.1267 -1.5809
  998MOL0     H37691  -0.065   6.099   6.305 -2.6739 -1.6383  0.0415
  998MOL0     H37692  -0.294   6.025   6.410  1.1673 -2.9445  0.0330
  998MOL0     H37693  -0.238   6.106   6.556 -0.8646  5.5194 -2.6722
  998MOL0     H37694  -0.035   5.967   6.549  1.7872  0.3114 -3.7103
  998MOL0     H37695  -0.084   5.865   6.417  0.1697  0.6812 -0.1488
  998MOL0     H37696  -0.224   5.893   6.702 -2.9472  1.2263 -0.5243
  998MOL0     H37697  -0.287   5.805   6.559  2.2090 -3.4823 -2.0099
  998MOL0     H37698  -0.035   5.735   6.710  0.4907  0.3971 -2.6012
  998MOL0     H37699  -0.104   5.636   6.586  0.3776  0.4705  0.4246
  998MOL0     H37700  -0.316   5.597   6.737  0.1447  1.4126 -1.2296
  998MOL0     H37701  -0.269   5.702   6.852  0.4565 -0.4094  0.2767
  998MOL0     H37702  -0.053   5.558   6.889 -0.4068 -0.6313  1.2797
  998MOL0     H37703  -0.103   5.456   6.775  0.9835 -0.1679  1.6663
  998MOL0     H37704   0.205   6.341   6.644  1.7621 -0.1477  0.9231
  998MOL0     H37705   0.289   6.379   6.847 -1.1237  2.7766  1.0311
  998MOL0     H37706   0.189   6.410   7.322  0.5583  0.8684 -2.8154
  998MOL0     H37707   0.291   6.435   7.554  2.9000 -0.0681  1.4659
  998MOL0     H37708   0.486   6.546   8.121 -2.7058  1.2405  1.7149
  998MOL0     H37709   0.370   6.750   8.100 -0.6908  1.9792 -1.5487
  998MOL0     H37710   0.339   7.135   7.984 -2.4786 -0.3048 -1.2672
  998MOL0     H37711   0.195   7.336   7.939  1.3062  1.0514 -0.0473
  998MOL0     H37712  -0.102   7.563   8.188 -0.7306 -1.9110 -1.4141
  998MOL0     H37713   0.002   7.504   8.312  0.5040  0.7682 -0.3409
  998MOL0     H37714   0.187   7.670   8.274  1.3553  1.5274 -0.4732
  998MOL0     H37715   0.029   7.741   8.303 -0.9399  1.4106 -2.4227
  998MOL0     H37716   0.160   7.718   8.018  4.0977  4.2175 -0.9179
  998MOL0     H37717  -0.007   7.777   8.044  0.1950 -0.5208 -0.9947
  998MOL0     H37718   0.192   7.944   8.038  0.8697  1.8711  1.0052
  998MOL0     H37719   0.226   7.895   8.196 -0.6506  2.0058  1.2114
  998MOL0     H37720  -0.113   8.133   8.277  0.6901 -0.0022  0.3757
  998MOL0     H37721   0.186   7.418   8.351  0.0160  1.3404 -1.3036
  998MOL0     H37722   0.280   7.308   8.504  0.6240  1.4535 -1.5916
  998MOL0     H37723   0.217   7.145   8.484 -1.6884  2.0535  1.5148
  998MOL0     H37724   0.391   7.166   8.482 -1.2752 -2.3821  0.0940
  999MOL0     O37725   7.291   8.562   5.727  0.2589 -0.1982 -0.5755
  999MOL0     C37726   7.344   8.662   5.780  0.3970  0.6904  0.1185
  999MOL0     O37727   7.439   8.743   5.733 -1.0842  0.4309 -0.4403
  999MOL0     C37728   7.499   8.693   5.622 -0.4831  0.2176  0.4329
  999MOL0     C37729   7.454   8.728   5.493  0.8709 -0.1353 -0.6316
  999MOL0     C37730   7.507   8.675   5.380 -1.2780 -0.3175 -0.2293
  999MOL0     C37731   7.629   8.605   5.381 -0.9189  0.5003 -0.0673
  999MOL0     O37732   7.698   8.575   5.262  0.5200  0.9720  0.3437
  999MOL0     C37733   7.637   8.575   5.136 -0.2311 -0.2751  0.0071
  999MOL0     C37734   7.730   8.482   5.047  0.3441  0.1538  0.8793
  999MOL0     C37735   7.872   8.540   5.027  0.0291 -0.5059 -0.5927
  999MOL0     C37736   7.958   8.483   4.917  0.0185  0.8683  0.5550
  999MOL0     C37737   8.114   8.482   4.920  0.0882  0.0580 -0.3854
  999MOL0     C37738   8.167   8.431   4.791  0.7639  0.1075  0.3465
  999MOL0     C37739   8.315   8.487   4.755 -0.0146 -0.5127  0.3697
  999MOL0     C37740   8.308   8.634   4.719  0.6298 -0.0661  0.5432
  999MOL0     N37741   8.435   8.694   4.679 -0.2186 -0.1400  0.0542
  999MOL0     C37742   8.537   8.746   4.760 -0.4767 -0.4873 -0.1963
  999MOL0     C37743   8.631   8.798   4.668  0.1619  0.4480 -0.0069
  999MOL0     C37744   8.764   8.863   4.703  0.3648 -0.2455  0.4684
  999MOL0     C37745   8.868   8.757   4.731 -0.3574  0.7701 -0.2528
  999MOL0     C37746   9.010   8.826   4.739  0.7355  1.1212 -0.1299
  999MOL0     C37747   9.127   8.767   4.827  0.2423 -0.0419 -0.4922
  999MOL0     O37748   9.211   8.880   4.860  0.0044 -0.4676  0.9903
  999MOL0     C37749   9.335   8.844   4.917  0.2487  0.2770 -0.3163
  999MOL0     C37750   9.387   8.943   4.999 -0.5724  0.4444 -1.1921
  999MOL0     C37751   9.502   8.917   5.076  0.3142 -0.8457  0.1191
  999MOL0     C37752   9.558   9.022   5.160  0.7932  0.1430  0.2481
  999MOL0     C37753   9.577   8.791   5.055  1.6334 -0.4228 -0.3980
  999MOL0     C37754   9.690   8.738   5.134 -0.0548  0.5642  0.9040
  999MOL0     O37755   9.760   8.640   5.068  0.1363 -0.0932 -0.3189
  999MOL0     C37756   9.865   8.568   5.123 -0.3406  0.3034 -0.9085
  999MOL0     C37757   9.874   8.434   5.088 -0.0337 -0.5493 -0.9314
  999MOL0     C37758   9.958   8.346   5.155 -0.4641  0.2525  0.5594
  999MOL0     C37759  10.049   8.388   5.249 -0.6843 -0.2637 -0.1076
  999MOL0     O37760  10.142   8.288   5.289  1.2227  0.0995  0.9130
  999MOL0     C37761  10.271   8.337   5.298 -0.2920 -1.1247  1.1335
  999MOL0     C37762  10.361   8.218   5.310 -0.7955 -0.1224  0.2850
  999MOL0     C37763  10.504   8.272   5.320  0.3137  0.3206 -0.4280
  999MOL0     C37764  10.603   8.160   5.350 -0.0415 -0.0653 -0.7136
  999MOL0     C37765  10.618   8.126   5.506  0.5068 -0.0373 -0.5139
  999MOL0     C37766  10.715   8.228   5.571  0.6169  0.2794  0.1853
  999MOL0     C37767  10.762   8.165   5.702  0.0589  0.1310 -0.6084
  999MOL0     C37768  10.862   8.259   5.772  0.8759 -0.6860 -1.7325
  999MOL0    Cl37769  10.776   8.408   5.820 -0.1647  0.7330  0.1417
  999MOL0     C37770  10.051   8.528   5.283 -0.6786 -0.3322  0.2933
  999MOL0     C37771   9.960   8.614   5.221 -0.1870 -0.1111 -0.0966
  999MOL0     O37772   9.723   8.789   5.238 -0.0480  0.1755  0.0444
  999MOL0     C37773   9.524   8.704   4.956  0.5026 -0.1783  0.0231
  999MOL0     C37774   9.410   8.728   4.892  0.1117 -0.0729  0.1838
  999MOL0     N37775   8.574   8.785   4.540 -0.6315  0.7245  0.9791
  999MOL0     N37776   8.462   8.717   4.553  0.4320 -0.2103 -0.1661
  999MOL0     C37777   7.687   8.587   5.513 -0.2969  0.1785  0.1064
  999MOL0     C37778   7.615   8.612   5.634 -0.0075 -0.5088 -0.1667
  999MOL0     C37779   7.303   8.675   5.925  0.9311  0.2258  0.4822
  999MOL0     C37780   7.397   8.731   6.005 -0.0002 -0.2652  0.1840
  999MOL0     C37781   7.393   8.730   6.144  0.2501 -0.4197 -0.1882
  999MOL0     C37782   7.276   8.688   6.205  0.1138 -0.1498  0.4014
  999MOL0     O37783   7.243   8.705   6.343 -1.1111  0.7312 -0.4807
  999MOL0     C37784   7.352   8.743   6.427 -0.0715  0.1944  0.5712
  999MOL0     C37785   7.304   8.711   6.568  0.0913  0.0242 -0.2350
  999MOL0     C37786   7.275   8.552   6.584 -0.2326  0.1651 -0.1071
  999MOL0     C37787   7.392   8.453   6.565  0.1491  0.1017 -0.0923
  999MOL0     C37788   7.514   8.500   6.630  0.3427  0.1032 -0.5062
  999MOL0     C37789   7.616   8.524   6.690  0.3242 -0.0702 -0.3901
  999MOL0     C37790   7.180   8.621   6.127 -0.3680 -0.1117 -0.3626
  999MOL0     C37791   7.194   8.604   5.984  0.2116 -0.3588  0.1242
  999MOL0     C37792   7.078   8.546   5.916  0.5694  0.4339  0.0214
  999MOL0     H37793   7.367   8.789   5.473  0.8620 -0.1818 -0.7375
  999MOL0     H37794   7.471   8.702   5.281 -0.3723 -0.5472 -0.6323
  999MOL0     H37795   7.648   8.675   5.093 -1.4818  0.1068  0.5374
  999MOL0     H37796   7.532   8.546   5.140 -1.2473  3.0623  0.4362
  999MOL0     H37797   7.734   8.380   5.086 -0.5128 -0.5050 -0.6416
  999MOL0     H37798   7.691   8.472   4.945  2.7651 -1.2553  0.0226
  999MOL0     H37799   7.859   8.646   5.003 -0.3307 -0.7596 -1.5806
  999MOL0     H37800   7.929   8.535   5.119 -2.5705 -0.2892  1.1451
  999MOL0     H37801   7.937   8.376   4.921  1.8991  0.4693  1.2004
  999MOL0     H37802   7.927   8.525   4.821  2.3960 -1.4428 -1.3843
  999MOL0     H37803   8.151   8.415   4.998 -0.2805 -1.9624 -1.8400
  999MOL0     H37804   8.141   8.584   4.947 -0.9869  0.1939  0.2353
  999MOL0     H37805   8.175   8.323   4.811 -1.3720  0.0833  1.3788
  999MOL0     H37806   8.097   8.439   4.707  0.1894 -0.1231  0.7967
  999MOL0     H37807   8.358   8.425   4.676 -1.9007 -1.7456  0.2423
  999MOL0     H37808   8.377   8.475   4.844  1.1807  1.5408 -0.1423
  999MOL0     H37809   8.234   8.634   4.639 -0.8468  2.5095  1.7949
  999MOL0     H37810   8.277   8.700   4.801  1.6763 -0.5506  1.3591
  999MOL0     H37811   8.560   8.744   4.866  3.2149  2.1448 -0.7707
  999MOL0     H37812   8.738   8.937   4.779 -0.6508  1.2651 -1.2752
  999MOL0     H37813   8.789   8.918   4.612  1.5934 -0.9234  0.3698
  999MOL0     H37814   8.843   8.696   4.819  3.2765 -0.7278 -0.0903
  999MOL0     H37815   8.863   8.692   4.644 -1.4190  1.5212 -0.7797
  999MOL0     H37816   9.038   8.835   4.634  1.3884 -1.2235 -0.2186
  999MOL0     H37817   9.005   8.926   4.782  3.0421  1.1543  0.1666
  999MOL0     H37818   9.090   8.724   4.921 -1.2552  1.0922 -0.5288
  999MOL0     H37819   9.179   8.686   4.776  0.8543  0.8546 -1.3394
  999MOL0     H37820   9.334   9.037   5.008  0.8850  1.1357  0.7666
  999MOL0     H37821   9.505   9.111   5.126 -1.7204 -2.1213 -2.3100
  999MOL0     H37822   9.666   9.040   5.154  0.8946  1.2620  3.3892
  999MOL0     H37823   9.529   9.005   5.264 -0.4677 -1.7537 -0.3729
  999MOL0     H37824   9.808   8.392   5.012 -1.1710 -1.9893  0.7785
  999MOL0     H37825   9.944   8.241   5.130  0.4240  0.5020 -1.1289
  999MOL0     H37826  10.300   8.399   5.213 -1.5807 -2.0410 -0.0223
  999MOL0     H37827  10.285   8.403   5.384  3.7527 -1.3847  0.8398
  999MOL0     H37828  10.340   8.169   5.405  4.0322  2.2500  2.8893
  999MOL0     H37829  10.355   8.147   5.226  2.7940 -0.3426  0.0529
  999MOL0     H37830  10.504   8.350   5.397  3.9076 -1.0974  1.2356
  999MOL0     H37831  10.518   8.314   5.219  1.1364 -3.1003 -1.8688
  999MOL0     H37832  10.701   8.179   5.306  0.2301  0.0807 -0.0411
  999MOL0     H37833  10.555   8.069   5.312 -0.5485 -1.1972  2.3952
  999MOL0     H37834  10.522   8.127   5.559  0.4331 -0.8497 -0.6187
  999MOL0     H37835  10.647   8.022   5.526  1.3997 -0.1972 -2.3990
  999MOL0     H37836  10.666   8.326   5.577  0.8356  0.4756 -1.0202
  999MOL0     H37837  10.806   8.248   5.515  1.7041 -1.9057  1.0448
  999MOL0     H37838  10.813   8.071   5.678 -0.3904 -0.5114  0.8473
  999MOL0     H37839  10.680   8.138   5.770  0.9980  0.7853  0.8075
  999MOL0     H37840  10.953   8.275   5.714  0.6417  4.5061 -1.1536
  999MOL0     H37841  10.887   8.204   5.863  0.0607  2.0039  0.2456
  999MOL0     H37842  10.113   8.558   5.367 -0.1031  0.6874 -0.4815
  999MOL0     H37843   9.957   8.718   5.252 -1.4815  0.0338 -0.6206
  999MOL0     H37844   9.564   8.607   4.929 -0.2584 -0.9466  1.5015
  999MOL0     H37845   9.379   8.656   4.817 -0.1778 -0.0292  0.2598
  999MOL0     H37846   7.785   8.540   5.520  0.1530  1.0669 -0.1480
  999MOL0     H37847   7.659   8.567   5.723  0.2370  0.1935  0.0708
  999MOL0     H37848   7.480   8.782   5.958 -2.4811  2.2497 -1.7834
  999MOL0     H37849   7.473   8.778   6.200 -2.3702  3.8155  0.3186
  999MOL0     H37850   7.446   8.692   6.403 -0.8373 -1.1681  0.3800
  999MOL0     H37851   7.370   8.849   6.405 -1.0623  0.2160 -0.2026
  999MOL0     H37852   7.217   8.768   6.601 -0.4704 -2.0894  2.2165
  999MOL0     H37853   7.385   8.746   6.633 -2.9399  3.4988  2.0692
  999MOL0     H37854   7.237   8.540   6.686  2.9462 -0.0637  1.1822
  999MOL0     H37855   7.197   8.525   6.513  0.3171  0.6628 -0.9143
  999MOL0     H37856   7.409   8.443   6.458 -4.4648  1.3938 -1.1468
  999MOL0     H37857   7.370   8.353   6.603 -1.1209 -0.1596 -1.4621
  999MOL0     H37858   7.708   8.535   6.743  1.3429 -0.2653 -2.0437
  999MOL0     H37859   7.092   8.585   6.179 -0.2033  1.8006  1.3930
  999MOL0     H37860   7.006   8.510   5.990  2.2788 -2.5466  0.4146
  999MOL0     H37861   7.036   8.626   5.855 -1.9782 -0.2011  0.8134
  999MOL0     H37862   7.114   8.468   5.849  0.0400  2.0112 -2.1986
 1000MOL0     O37863   1.610   3.149   0.843  0.8098  0.2068  0.6836
 1000MOL0     C37864   1.688   3.056   0.807  0.5036  0.1139  0.0612
 1000MOL0     O37865   1.789   3.070   0.717  0.4815 -0.2174 -0.3171
 1000MOL0     C37866   1.786   3.181   0.629  0.8459  0.7666  0.7712
 1000MOL0     C37867   1.673   3.211   0.544  0.2567 -0.4505 -0.8967
 1000MOL0     C37868   1.673   3.331   0.468  0.5519 -0.0558 -0.6003
 1000MOL0     C37869   1.783   3.421   0.481  0.0125 -0.5216  0.2597
 1000MOL0     O37870   1.761   3.539   0.419 -0.9426 -0.2257 -0.4725
 1000MOL0     C37871   1.812   3.663   0.484  0.3041  0.3224  0.0273
 1000MOL0     C37872   1.709   3.688   0.599 -0.1837  0.5123  1.0007
 1000MOL0     C37873   1.725   3.828   0.661  0.2929 -0.1585  0.2224
 1000MOL0     C37874   1.679   3.939   0.561 -0.3480 -0.1143  0.4086
 1000MOL0     C37875   1.704   4.072   0.608  0.2112 -0.0500 -0.1833
 1000MOL0     C37876   1.618   4.118   0.734  0.5190  0.3479  0.5864
 1000MOL0     C37877   1.658   4.247   0.802  0.4828  0.5048  0.3128
 1000MOL0     C37878   1.566   4.283   0.919  0.2955  0.6880  0.3706
 1000MOL0     N37879   1.652   4.331   1.030 -0.1210  0.4864  0.3216
 1000MOL0     C37880   1.708   4.455   1.013 -0.7635  0.2572 -0.1922
 1000MOL0     C37881   1.804   4.471   1.102  0.0289  0.0416  0.3264
 1000MOL0     C37882   1.893   4.589   1.133  0.9189 -0.2224  0.0897
 1000MOL0     C37883   1.835   4.644   1.266 -0.5088 -0.0256  0.3938
 1000MOL0     C37884   1.929   4.756   1.317 -0.0643  0.3000 -0.3677
 1000MOL0     C37885   1.857   4.824   1.422  0.2249 -0.2248  0.4541
 1000MOL0     O37886   1.824   4.746   1.542 -0.7364  0.4785 -0.4931
 1000MOL0     C37887   1.922   4.705   1.620 -0.2774 -0.3971 -0.6288
 1000MOL0     C37888   2.005   4.797   1.687 -0.4615 -0.3771  1.2750
 1000MOL0     C37889   2.115   4.755   1.766  0.2731 -0.1615  0.0651
 1000MOL0     C37890   2.204   4.868   1.804 -0.2349  0.0653  0.0185
 1000MOL0     C37891   2.136   4.610   1.781 -0.0496  0.8766 -0.1506
 1000MOL0     C37892   2.253   4.550   1.851 -0.1431  0.3819 -0.6875
 1000MOL0     O37893   2.335   4.629   1.937  0.6392  0.3091  0.9712
 1000MOL0     C37894   2.463   4.584   1.966  0.6147  0.1297  1.0644
 1000MOL0     C37895   2.495   4.496   2.073  0.1008 -0.8082  0.5897
 1000MOL0     C37896   2.619   4.456   2.097 -0.0208  0.7361  0.0387
 1000MOL0     C37897   2.727   4.499   2.018 -0.4801  0.3093 -0.1470
 1000MOL0     O37898   2.861   4.474   2.035  0.3305 -0.5919 -0.7819
 1000MOL0     C37899   2.906   4.357   2.111  1.5564 -0.7846  0.1763
 1000MOL0     C37900   2.982   4.267   2.018  0.1332 -0.7493  0.7106
 1000MOL0     C37901   3.129   4.295   1.998  0.3147 -0.1290  1.2646
 1000MOL0     C37902   3.178   4.174   1.911 -0.1485  0.1455  0.0899
 1000MOL0     C37903   3.324   4.171   1.872 -0.6261 -0.9733 -0.2841
 1000MOL0     C37904   3.410   4.186   1.994 -0.8575 -0.5148 -0.1898
 1000MOL0     C37905   3.558   4.171   1.958  0.1799  0.8020 -0.2100
 1000MOL0     C37906   3.638   4.147   2.085 -0.0971 -0.1468  0.4365
 1000MOL0    Cl37907   3.813   4.143   2.053  0.0342  0.4672 -0.1806
 1000MOL0     C37908   2.701   4.585   1.911  0.3405  0.7181 -0.9589
 1000MOL0     C37909   2.563   4.634   1.890 -0.2558 -0.1105  0.2174
 1000MOL0     O37910   2.278   4.432   1.824  0.3397 -0.1568  0.0550
 1000MOL0     C37911   2.040   4.521   1.718  0.1469  0.6008  0.6104
 1000MOL0     C37912   1.937   4.569   1.636 -0.3764 -0.2133  0.0779
 1000MOL0     N37913   1.814   4.349   1.172 -0.4695  0.2829 -1.3711
 1000MOL0     N37914   1.727   4.263   1.127 -0.0663  0.4535  0.2235
 1000MOL0     C37915   1.888   3.388   0.569  0.2976 -0.4818  0.2912
 1000MOL0     C37916   1.889   3.273   0.642 -0.3792 -0.2173  0.5074
 1000MOL0     C37917   1.697   2.941   0.898 -0.3918  0.0030  0.2249
 1000MOL0     C37918   1.814   2.865   0.889 -0.1715 -0.6316  1.3088
 1000MOL0     C37919   1.844   2.762   0.981 -0.6790 -0.1950  1.1858
 1000MOL0     C37920   1.761   2.733   1.086  0.1531 -0.5317 -0.4542
 1000MOL0     O37921   1.814   2.635   1.173  0.1062  0.9609  0.4336
 1000MOL0     C37922   1.879   2.667   1.295  0.4339 -0.0654  0.4550
 1000MOL0     C37923   1.994   2.567   1.315  0.4470 -0.3277  0.8460
 1000MOL0     C37924   2.081   2.583   1.432  0.3961 -0.3088 -0.0365
 1000MOL0     C37925   2.005   2.609   1.567  0.2686 -0.2462  0.0390
 1000MOL0     C37926   2.089   2.569   1.682 -1.3378 -0.4364  0.8158
 1000MOL0     C37927   2.148   2.538   1.783  0.2970 -0.9288 -0.6465
 1000MOL0     C37928   1.649   2.808   1.101 -0.3021 -0.8043  0.6990
 1000MOL0     C37929   1.608   2.912   1.008  0.1047  0.5672 -0.0776
 1000MOL0     C37930   1.473   2.975   1.028 -0.3394  0.5294 -0.4433
 1000MOL0     H37931   1.586   3.146   0.541 -0.6431  0.7159 -1.1834
 1000MOL0     H37932   1.583   3.352   0.411  0.7827  0.9626 -0.6126
 1000MOL0     H37933   1.799   3.747   0.415 -2.3646  1.1371  1.3695
 1000MOL0     H37934   1.914   3.659   0.524  0.1298  1.8830  0.6982
 1000MOL0     H37935   1.609   3.666   0.561  0.5635  0.1000 -0.8293
 1000MOL0     H37936   1.731   3.622   0.684 -3.5799 -0.8385  0.9680
 1000MOL0     H37937   1.663   3.833   0.750  1.1632 -2.1940  1.0005
 1000MOL0     H37938   1.828   3.852   0.691  1.3221 -0.9790 -2.3324
 1000MOL0     H37939   1.744   3.930   0.473  0.9616  2.8174  0.9366
 1000MOL0     H37940   1.572   3.934   0.539 -0.3576 -1.1959  0.6633
 1000MOL0     H37941   1.698   4.141   0.523 -1.3280  0.5720  0.3962
 1000MOL0     H37942   1.810   4.086   0.633  0.4915  2.0509 -2.1503
 1000MOL0     H37943   1.514   4.128   0.703  0.0512  1.7319  2.3952
 1000MOL0     H37944   1.634   4.036   0.806 -1.1216  0.7602  1.4614
 1000MOL0     H37945   1.676   4.332   0.736  0.0284  2.0858  2.1130
 1000MOL0     H37946   1.757   4.221   0.841  1.1599 -1.3984 -2.3537
 1000MOL0     H37947   1.504   4.369   0.891 -1.3021  0.5186  3.0039
 1000MOL0     H37948   1.492   4.206   0.946  0.8105  0.0708  0.0509
 1000MOL0     H37949   1.666   4.528   0.945 -3.0948  1.4144  2.3170
 1000MOL0     H37950   1.888   4.661   1.050  1.4262 -1.6197 -1.1957
 1000MOL0     H37951   1.999   4.562   1.135  0.7543 -0.9193 -0.1296
 1000MOL0     H37952   1.738   4.687   1.241  0.0847  0.8886 -0.4071
 1000MOL0     H37953   1.826   4.558   1.333  1.9986  1.0902  2.3099
 1000MOL0     H37954   2.018   4.703   1.353  0.4909 -0.0989 -2.2134
 1000MOL0     H37955   1.946   4.828   1.237  0.1495 -0.9747 -1.4956
 1000MOL0     H37956   1.921   4.907   1.453 -1.2839  1.0723  0.2145
 1000MOL0     H37957   1.767   4.866   1.376  0.2872  1.1502  1.5149
 1000MOL0     H37958   1.996   4.904   1.671  0.8036 -0.4617 -0.1918
 1000MOL0     H37959   2.157   4.893   1.900  0.5546 -5.7547  2.3360
 1000MOL0     H37960   2.197   4.957   1.742 -3.0368 -0.5579 -0.7073
 1000MOL0     H37961   2.307   4.842   1.830 -0.7082 -1.9241  0.1178
 1000MOL0     H37962   2.416   4.466   2.141  0.1628  0.2743  1.1704
 1000MOL0     H37963   2.639   4.402   2.189 -2.9576 -1.1884 -0.3403
 1000MOL0     H37964   2.981   4.396   2.181 -0.8459  2.1953  1.3249
 1000MOL0     H37965   2.821   4.304   2.154  1.1149 -1.4589 -1.4554
 1000MOL0     H37966   2.962   4.167   2.058 -0.6911 -2.0504 -2.6577
 1000MOL0     H37967   2.935   4.261   1.920  0.9336 -2.0075  0.3740
 1000MOL0     H37968   3.179   4.301   2.095  0.3872  2.1701  1.1315
 1000MOL0     H37969   3.127   4.385   1.937 -0.4284 -0.7352  0.3686
 1000MOL0     H37970   3.120   4.183   1.819  0.2762  2.4543  0.0015
 1000MOL0     H37971   3.150   4.079   1.957 -2.0447  0.7853  0.3429
 1000MOL0     H37972   3.357   4.088   1.809 -3.7583 -3.5002  1.1289
 1000MOL0     H37973   3.348   4.253   1.803  1.0838 -1.7202 -0.6290
 1000MOL0     H37974   3.398   4.109   2.071  2.4490 -3.5735 -2.4029
 1000MOL0     H37975   3.402   4.282   2.045  0.4322  0.5508 -1.9124
 1000MOL0     H37976   3.602   4.251   1.897 -0.3096 -0.3729 -2.2241
 1000MOL0     H37977   3.572   4.085   1.891 -0.0440  0.4853  0.1467
 1000MOL0     H37978   3.611   4.051   2.130 -1.9122  0.8789  1.6579
 1000MOL0     H37979   3.620   4.222   2.162 -1.7763 -1.2673  1.2044
 1000MOL0     H37980   2.788   4.607   1.850 -1.0371  1.8940 -2.5911
 1000MOL0     H37981   2.527   4.714   1.826 -2.3041  0.5102  2.0462
 1000MOL0     H37982   2.048   4.414   1.734  2.1785  0.6792  0.4059
 1000MOL0     H37983   1.864   4.502   1.593 -0.7592  0.5352 -0.4751
 1000MOL0     H37984   1.968   3.462   0.566 -1.3378  1.3305 -0.7221
 1000MOL0     H37985   1.979   3.248   0.698  1.4950  0.3119 -2.0996
 1000MOL0     H37986   1.873   2.873   0.797  0.1157  0.0268  1.5388
 1000MOL0     H37987   1.936   2.707   0.969  0.1175  1.6803 -3.1819
 1000MOL0     H37988   1.924   2.767   1.293  1.2959 -0.4223  0.9558
 1000MOL0     H37989   1.809   2.659   1.379 -0.5460 -1.5928 -0.4657
 1000MOL0     H37990   2.054   2.578   1.224 -0.8329 -0.3992 -0.0368
 1000MOL0     H37991   1.947   2.469   1.329  0.8028 -0.3130  2.3502
 1000MOL0     H37992   2.138   2.490   1.438  1.3445  0.2538 -0.0520
 1000MOL0     H37993   2.151   2.665   1.414 -0.2024  0.0290 -0.8869
 1000MOL0     H37994   1.911   2.553   1.566 -0.3401  0.6789 -2.2336
 1000MOL0     H37995   1.985   2.716   1.576  1.1429 -0.1274  0.7086
 1000MOL0     H37996   2.171   2.502   1.881 -1.7341 -0.1948  0.1665
 1000MOL0     H37997   1.593   2.783   1.190  2.6242 -3.7087  1.9381
 1000MOL0     H37998   1.447   2.934   1.126  3.9501  2.0736  1.6355
 1000MOL0     H37999   1.474   3.083   1.045 -3.1080  0.6861 -0.8066
 1000MOL0     H38000   1.409   2.946   0.945 -0.9081  0.8424 -0.1177
 1001MOL0     O38001   7.924   9.733   6.112 -0.4505  0.4190 -0.1646
 1001MOL0     C38002   7.921   9.625   6.169  0.1565 -0.5016  0.5332
 1001MOL0     O38003   7.920   9.508   6.104  0.6796  0.2595  0.1109
 1001MOL0     C38004   7.909   9.498   5.964  0.5587 -0.3799 -0.1457
 1001MOL0     C38005   7.817   9.408   5.899 -0.0820  0.1238 -0.3281
 1001MOL0     C38006   7.795   9.416   5.758  0.1014 -0.0204 -0.6254
 1001MOL0     C38007   7.870   9.507   5.680  1.9150 -0.3067  0.0817
 1001MOL0     O38008   7.860   9.511   5.542  0.0885  0.2684 -0.2473
 1001MOL0     C38009   7.740   9.575   5.492  0.7476  0.4165  0.7360
 1001MOL0     C38010   7.780   9.662   5.382  0.7339  0.1688  0.7593
 1001MOL0     C38011   7.665   9.748   5.328  0.3695  0.5439 -0.4523
 1001MOL0     C38012   7.547   9.654   5.314  0.3831 -0.6525  0.4555
 1001MOL0     C38013   7.425   9.727   5.241 -0.3195  0.1918  0.7110
 1001MOL0     C38014   7.423   9.761   5.088 -0.4094  0.1600  0.7494
 1001MOL0     C38015   7.480   9.897   5.049  0.1039 -0.4186 -0.2239
 1001MOL0     C38016   7.540   9.892   4.901  0.0563  1.0073 -0.3899
 1001MOL0     N38017   7.671   9.828   4.922  0.2329 -0.4096  0.1186
 1001MOL0     C38018   7.704   9.702   4.881  0.4461 -0.0994 -0.9002
 1001MOL0     C38019   7.824   9.675   4.925  0.4494 -0.1019  0.4346
 1001MOL0     C38020   7.889   9.548   4.897  0.3956  0.3178 -0.3885
 1001MOL0     C38021   7.915   9.481   5.037  0.0499  0.1000 -0.1205
 1001MOL0     C38022   7.786   9.430   5.091 -0.2872  0.4352 -0.5786
 1001MOL0     C38023   7.809   9.325   5.205  0.5205  0.1794 -0.3195
 1001MOL0     O38024   7.681   9.269   5.251 -0.8087  0.6345  0.3938
 1001MOL0     C38025   7.680   9.199   5.364 -0.5506  0.7796 -1.1848
 1001MOL0     C38026   7.800   9.167   5.431  0.0492  0.3699 -0.9148
 1001MOL0     C38027   7.791   9.107   5.554 -0.7685  0.0333 -0.5438
 1001MOL0     C38028   7.928   9.077   5.619  0.1923 -0.4196 -0.8456
 1001MOL0     C38029   7.660   9.090   5.615  0.1222 -0.7073 -0.0535
 1001MOL0     C38030   7.648   9.041   5.751 -0.4245  0.0192  0.0155
 1001MOL0     O38031   7.596   9.132   5.843 -0.6569  0.0786  1.1017
 1001MOL0     C38032   7.584   9.108   5.975  0.2367 -1.5109  0.1923
 1001MOL0     C38033   7.473   9.156   6.053 -0.1357 -0.7117  0.7785
 1001MOL0     C38034   7.475   9.140   6.199  0.3428  0.4360  0.6186
 1001MOL0     C38035   7.593   9.086   6.270  1.0454  0.5745 -0.1465
 1001MOL0     O38036   7.601   9.037   6.396 -0.3009  0.2916  0.1511
 1001MOL0     C38037   7.554   9.128   6.496  0.1580 -0.3286  0.2013
 1001MOL0     C38038   7.547   9.056   6.640 -1.0140 -0.3454 -0.3642
 1001MOL0     C38039   7.691   9.018   6.695 -0.4484 -0.1675 -0.0506
 1001MOL0     C38040   7.788   9.133   6.739  0.5022 -0.8023  0.3001
 1001MOL0     C38041   7.925   9.083   6.758  0.6039 -0.9884  0.1186
 1001MOL0     C38042   8.029   9.189   6.794  0.3816 -0.0090  0.4552
 1001MOL0     C38043   8.170   9.140   6.806 -0.3678  0.1838  0.4322
 1001MOL0     C38044   8.256   9.230   6.724 -0.5436  0.0346  0.0064
 1001MOL0    Cl38045   8.420   9.147   6.714  0.1727  0.3686  0.2777
 1001MOL0     C38046   7.701   9.040   6.186  1.1438 -1.0203 -0.1955
 1001MOL0     C38047   7.698   9.053   6.046 -0.5463  0.7515 -0.0692
 1001MOL0     O38048   7.701   8.931   5.779 -0.1738  0.0326 -0.2145
 1001MOL0     C38049   7.548   9.137   5.552 -1.0834 -0.0583  1.1702
 1001MOL0     C38050   7.556   9.185   5.424 -0.2042  0.5365  0.0873
 1001MOL0     N38051   7.875   9.792   4.979  0.7582  0.5342 -0.3705
 1001MOL0     N38052   7.787   9.884   4.975  0.0256  0.1292 -0.1066
 1001MOL0     C38053   7.966   9.590   5.740  0.0136  0.1055 -0.7767
 1001MOL0     C38054   7.982   9.583   5.880 -0.5890  0.7656 -1.2557
 1001MOL0     C38055   7.888   9.627   6.313  0.5896 -0.5664 -0.3592
 1001MOL0     C38056   7.831   9.508   6.368  0.0641 -0.1199  0.7803
 1001MOL0     C38057   7.789   9.494   6.502  0.5476 -0.1148 -0.6873
 1001MOL0     C38058   7.813   9.596   6.590 -0.2690 -0.4724 -0.5234
 1001MOL0     O38059   7.776   9.607   6.723  0.1754 -0.5904  0.5713
 1001MOL0     C38060   7.658   9.529   6.741 -0.1253  0.6157  0.0026
 1001MOL0     C38061   7.614   9.547   6.884 -0.1633  0.6632  0.3163
 1001MOL0     C38062   7.627   9.690   6.942  0.7252 -0.4810  0.1645
 1001MOL0     C38063   7.601   9.690   7.090  0.4619 -0.1759 -0.9967
 1001MOL0     C38064   7.622   9.823   7.147  0.0115  0.1394  0.5818
 1001MOL0     C38065   7.617   9.931   7.205  0.0270  0.6907 -0.4558
 1001MOL0     C38066   7.861   9.719   6.540  0.2580 -0.9150 -1.1009
 1001MOL0     C38067   7.896   9.743   6.405 -0.5035 -0.6130  1.1170
 1001MOL0     C38068   7.951   9.883   6.379  0.1479  0.5584 -0.2265
 1001MOL0     H38069   7.756   9.336   5.952  0.9248 -0.1013  0.5507
 1001MOL0     H38070   7.727   9.343   5.715  0.9901 -1.2771  0.0066
 1001MOL0     H38071   7.682   9.631   5.565 -0.3709  2.3017 -1.4754
 1001MOL0     H38072   7.679   9.497   5.445  0.2120  3.3465 -4.1623
 1001MOL0     H38073   7.860   9.729   5.416  0.3986  1.2865 -0.5756
 1001MOL0     H38074   7.822   9.595   5.306  0.6102 -0.3613  1.1462
 1001MOL0     H38075   7.656   9.825   5.405  2.7561 -0.5925  1.1028
 1001MOL0     H38076   7.675   9.787   5.227 -0.2062 -1.4759 -1.3487
 1001MOL0     H38077   7.570   9.573   5.245 -2.7650  1.3823 -3.3576
 1001MOL0     H38078   7.515   9.619   5.413  3.1241 -0.7714  1.3865
 1001MOL0     H38079   7.411   9.815   5.305  4.1220 -0.4632  2.9919
 1001MOL0     H38080   7.328   9.680   5.261  0.2189 -2.2249 -1.7618
 1001MOL0     H38081   7.476   9.679   5.040 -0.7531 -0.6427  1.7232
 1001MOL0     H38082   7.320   9.748   5.053 -0.4475  0.6513  0.6588
 1001MOL0     H38083   7.550   9.938   5.122 -1.8923  3.0700  0.0002
 1001MOL0     H38084   7.400   9.971   5.035  2.7840  2.3085 -2.5939
 1001MOL0     H38085   7.488   9.829   4.829  1.8839 -0.0715 -0.8299
 1001MOL0     H38086   7.557   9.990   4.855  3.3653 -0.1117 -1.8487
 1001MOL0     H38087   7.638   9.643   4.818 -0.8371 -0.1358  0.4007
 1001MOL0     H38088   7.985   9.566   4.847 -0.5742  0.6754 -2.2161
 1001MOL0     H38089   7.835   9.488   4.823 -0.7135  1.2942 -0.3946
 1001MOL0     H38090   7.977   9.392   5.024 -1.3960 -1.6325  3.4018
 1001MOL0     H38091   7.970   9.544   5.108  4.1613  0.4316 -3.2291
 1001MOL0     H38092   7.729   9.517   5.125  1.0691  0.7687  0.9980
 1001MOL0     H38093   7.728   9.388   5.008 -1.9215  1.8872 -0.2188
 1001MOL0     H38094   7.883   9.252   5.172  0.9934  0.6314 -0.2714
 1001MOL0     H38095   7.850   9.376   5.293  0.8584  2.5835 -1.7605
 1001MOL0     H38096   7.894   9.164   5.377 -1.3488  1.4557 -3.5834
 1001MOL0     H38097   8.015   9.105   5.558 -1.9270  2.0062 -3.0296
 1001MOL0     H38098   7.943   8.970   5.634  0.8945 -0.3785 -1.2397
 1001MOL0     H38099   7.942   9.125   5.717  0.4184 -0.1475 -1.0092
 1001MOL0     H38100   7.392   9.206   6.001  1.6591  1.5374 -0.0233
 1001MOL0     H38101   7.384   9.159   6.254 -1.4546  0.6681 -2.2124
 1001MOL0     H38102   7.605   9.224   6.509 -0.0324 -0.4440  2.0653
 1001MOL0     H38103   7.453   9.150   6.459  0.1169 -0.1593  0.4120
 1001MOL0     H38104   7.511   9.133   6.709  0.7953 -0.4374  0.7294
 1001MOL0     H38105   7.488   8.964   6.628 -1.7971  0.3062 -1.8944
 1001MOL0     H38106   7.749   8.964   6.620 -0.5743  1.2733 -1.2212
 1001MOL0     H38107   7.672   8.950   6.779 -0.2881  1.1099  1.0748
 1001MOL0     H38108   7.753   9.179   6.832 -3.0928 -2.6227  0.0312
 1001MOL0     H38109   7.786   9.205   6.657 -0.2437  1.0461  1.8685
 1001MOL0     H38110   7.917   8.998   6.827 -1.6836  0.3038  1.5571
 1001MOL0     H38111   7.960   9.047   6.660  0.5912  2.2521 -1.1957
 1001MOL0     H38112   8.005   9.232   6.892  1.0117  0.0038  0.6085
 1001MOL0     H38113   8.009   9.257   6.711  3.2997 -1.8893 -2.0234
 1001MOL0     H38114   8.175   9.038   6.766 -3.0038 -0.9758  2.7213
 1001MOL0     H38115   8.203   9.143   6.911 -2.2279  3.0994  1.0551
 1001MOL0     H38116   8.265   9.332   6.762 -2.9130  1.5158 -2.9677
 1001MOL0     H38117   8.224   9.251   6.621  2.6952  2.4857 -0.6712
 1001MOL0     H38118   7.788   8.989   6.227  0.8702 -1.2122  0.1574
 1001MOL0     H38119   7.794   9.025   6.003 -0.9640  1.6778 -1.6720
 1001MOL0     H38120   7.447   9.129   5.592 -1.5207  2.2887  0.6813
 1001MOL0     H38121   7.466   9.215   5.371  0.5161 -0.9109 -2.0730
 1001MOL0     H38122   8.034   9.651   5.682  0.2320 -1.3949 -2.2084
 1001MOL0     H38123   8.045   9.657   5.927 -2.0359  0.7099  0.9389
 1001MOL0     H38124   7.800   9.423   6.308 -1.4238 -0.1916  1.5845
 1001MOL0     H38125   7.756   9.399   6.543  1.7322 -0.3539 -0.2210
 1001MOL0     H38126   7.575   9.569   6.682  1.6712 -0.9408 -3.9187
 1001MOL0     H38127   7.664   9.421   6.721  0.0497  1.2040 -3.9810
 1001MOL0     H38128   7.674   9.474   6.938 -1.0324  1.2964  2.2537
 1001MOL0     H38129   7.511   9.513   6.899  0.4469 -1.4296  0.0062
 1001MOL0     H38130   7.728   9.729   6.924 -0.1230  3.2267  2.3480
 1001MOL0     H38131   7.551   9.746   6.888 -1.6346 -2.1895  1.5290
 1001MOL0     H38132   7.670   9.618   7.136  1.5973  1.0258 -0.7523
 1001MOL0     H38133   7.500   9.652   7.109  0.8832 -1.1688 -0.6539
 1001MOL0     H38134   7.602  10.025   7.253  1.0366  0.0848  1.1089
 1001MOL0     H38135   7.865   9.801   6.611  0.5804  0.8967 -3.1346
 1001MOL0     H38136   8.058   9.888   6.399  0.3398 -1.0163 -0.7156
 1001MOL0     H38137   7.933   9.921   6.277 -0.0099  1.2181  0.0438
 1001MOL0     H38138   7.901   9.960   6.437 -2.0421 -0.8428 -0.1427
 1002MOL0     O38139   8.750  11.324   9.959 -0.7602 -0.2339 -0.3262
 1002MOL0     C38140   8.705  11.384  10.055  0.9618  0.0626 -0.3707
 1002MOL0     O38141   8.779  11.434  10.163  0.1018  0.0739  0.0994
 1002MOL0     C38142   8.906  11.384  10.183 -0.6311  0.5860  0.3933
 1002MOL0     C38143   8.926  11.245  10.177 -0.2967  0.4688  1.5629
 1002MOL0     C38144   9.054  11.184  10.199 -0.0344 -0.4721  0.4516
 1002MOL0     C38145   9.158  11.265  10.236  0.5941 -0.0961  0.3176
 1002MOL0     O38146   9.277  11.209  10.276 -0.5559  0.1783  0.5387
 1002MOL0     C38147   9.330  11.103  10.192 -0.1368  0.1280 -0.6822
 1002MOL0     C38148   9.479  11.078  10.219  0.1041  0.1431  0.0179
 1002MOL0     C38149   9.575  11.201  10.193 -0.2874  0.3348 -0.5444
 1002MOL0     C38150   9.579  11.236  10.047 -0.2255  0.4296 -0.0918
 1002MOL0     C38151   9.706  11.310  10.004  0.0926  0.7283  0.9308
 1002MOL0     C38152   9.705  11.358   9.853  0.1835  0.0549  0.7375
 1002MOL0     C38153   9.832  11.429   9.809  0.1201 -0.3094 -0.6634
 1002MOL0     C38154   9.795  11.486   9.673 -0.6220  0.5387  0.0241
 1002MOL0     N38155   9.922  11.517   9.589 -0.6921  0.3133 -0.4376
 1002MOL0     C38156  10.035  11.585   9.619  0.0836 -0.2013 -0.2569
 1002MOL0     C38157  10.132  11.543   9.539 -0.1547  0.2188  0.3638
 1002MOL0     C38158  10.282  11.577   9.561 -0.4180  0.6193  0.1345
 1002MOL0     C38159  10.331  11.683   9.462  0.1372  0.5005  0.7494
 1002MOL0     C38160  10.485  11.707   9.458  0.1636  0.1802 -0.2606
 1002MOL0     C38161  10.565  11.603   9.363  0.1616 -0.9882  1.0383
 1002MOL0     O38162  10.558  11.470   9.409 -0.3130  0.3177  0.5337
 1002MOL0     C38163  10.670  11.417   9.483 -0.2634 -0.8851 -0.0011
 1002MOL0     C38164  10.772  11.485   9.542  0.6541  0.6155  0.0783
 1002MOL0     C38165  10.879  11.421   9.601  0.7379  0.0624 -0.6388
 1002MOL0     C38166  10.980  11.510   9.673 -0.1468  0.2395 -0.1651
 1002MOL0     C38167  10.874  11.273   9.603 -1.0437  0.1450 -0.2274
 1002MOL0     C38168  10.976  11.179   9.662 -0.8737 -1.1310  0.2971
 1002MOL0     O38169  10.945  11.044   9.679 -0.4109 -0.0501 -0.2158
 1002MOL0     C38170  11.041  10.945   9.722 -0.2389  0.1500 -0.0054
 1002MOL0     C38171  11.030  10.816   9.671  0.2098  0.0327  0.0228
 1002MOL0     C38172  11.119  10.714   9.698 -0.1630 -0.1999  0.6426
 1002MOL0     C38173  11.236  10.736   9.771  0.2088  0.0293 -0.1682
 1002MOL0     O38174  11.315  10.623   9.776 -0.6033 -0.2941  0.1214
 1002MOL0     C38175  11.443  10.633   9.840 -0.5380 -0.2187 -0.6738
 1002MOL0     C38176  11.506  10.489   9.843  0.5673 -0.2864  0.3776
 1002MOL0     C38177  11.647  10.488   9.910 -0.8335 -0.0640 -0.3027
 1002MOL0     C38178  11.746  10.548   9.814 -0.0440  0.1245  0.3870
 1002MOL0     C38179  11.881  10.582   9.878 -0.0109 -0.0579 -0.0421
 1002MOL0     C38180  11.970  10.461   9.917  0.8774 -0.1550  0.3073
 1002MOL0     C38181  12.040  10.410   9.790 -0.6545 -0.4549  0.4225
 1002MOL0     C38182  12.185  10.458   9.784 -0.2690 -0.8114 -0.4106
 1002MOL0    Cl38183  12.287  10.415   9.922  0.4509  0.0113  0.0833
 1002MOL0     C38184  11.262  10.867   9.819  0.0770  0.3161 -0.1110
 1002MOL0     C38185  11.159  10.966   9.793 -0.1736 -0.2586 -0.2499
 1002MOL0     O38186  11.083  11.224   9.680  0.3298 -0.3048 -0.1992
 1002MOL0     C38187  10.757  11.210   9.565 -0.7548 -0.1965  0.5851
 1002MOL0     C38188  10.663  11.279   9.496 -0.3363 -0.6572  0.5740
 1002MOL0     N38189  10.074  11.472   9.436 -0.1378  0.3167  0.6687
 1002MOL0     N38190   9.952  11.445   9.472 -0.6217  0.0231  0.0485
 1002MOL0     C38191   9.142  11.403  10.231  0.7965  0.7586  0.4607
 1002MOL0     C38192   9.017  11.465  10.208 -0.3834 -1.0103  0.1903
 1002MOL0     C38193   8.571  11.448  10.036  0.1386 -0.0948  0.1477
 1002MOL0     C38194   8.548  11.558  10.105 -0.8096 -0.0176  0.7984
 1002MOL0     C38195   8.438  11.639  10.095  0.0546 -0.0670 -0.9742
 1002MOL0     C38196   8.344  11.620   9.987 -0.4543 -0.8412  0.0733
 1002MOL0     O38197   8.241  11.705   9.973  0.1490  0.0366 -0.0302
 1002MOL0     C38198   8.240  11.832  10.044  0.1636  1.1903 -0.0806
 1002MOL0     C38199   8.099  11.882  10.009 -0.0338  0.0443  0.0857
 1002MOL0     C38200   7.976  11.812  10.078  0.8197 -0.7869  0.3334
 1002MOL0     C38201   7.851  11.902  10.087 -1.3232 -0.3786  0.5653
 1002MOL0     C38202   7.862  11.991  10.206  0.4801  0.2239  1.0090
 1002MOL0     C38203   7.873  12.060  10.299  0.1788 -0.3100  0.6575
 1002MOL0     C38204   8.366  11.501   9.912  0.0789  0.0132  0.4126
 1002MOL0     C38205   8.478  11.414   9.934  0.0165  0.3384  0.3905
 1002MOL0     C38206   8.483  11.287   9.854 -0.5761  0.5753 -0.3937
 1002MOL0     H38207   8.841  11.182  10.152  0.9521 -0.2735 -1.2576
 1002MOL0     H38208   9.071  11.077  10.209  0.5510 -0.3657  0.6756
 1002MOL0     H38209   9.328  11.142  10.090  0.4467 -0.7486 -1.0455
 1002MOL0     H38210   9.276  11.009  10.206  0.7329 -0.2738  0.1913
 1002MOL0     H38211   9.481  11.058  10.327 -2.3255 -0.7827 -0.0368
 1002MOL0     H38212   9.509  10.987  10.168  0.8913  0.4891 -0.1470
 1002MOL0     H38213   9.536  11.295  10.234  1.6696  1.6051 -1.4565
 1002MOL0     H38214   9.673  11.185  10.239 -0.9339  0.7458  1.0899
 1002MOL0     H38215   9.565  11.145   9.987  1.5914  0.0459  0.0105
 1002MOL0     H38216   9.491  11.297  10.025  1.3443  1.4158 -4.8902
 1002MOL0     H38217   9.795  11.251  10.031  1.7467  2.1406 -1.0873
 1002MOL0     H38218   9.729  11.397  10.065 -1.9415  0.2921  2.4242
 1002MOL0     H38219   9.695  11.265   9.795 -2.6686 -1.2681  3.0737
 1002MOL0     H38220   9.613  11.416   9.844 -0.2619 -0.9395 -4.8834
 1002MOL0     H38221   9.915  11.358   9.807 -0.4420 -1.0526  0.8052
 1002MOL0     H38222   9.859  11.504   9.884 -1.4792  1.1951 -1.5116
 1002MOL0     H38223   9.747  11.406   9.616  0.0058 -0.0074  0.2462
 1002MOL0     H38224   9.743  11.578   9.701  1.2924  1.1421  1.8258
 1002MOL0     H38225  10.051  11.648   9.706 -1.7537  0.5653 -0.4424
 1002MOL0     H38226  10.337  11.483   9.573  1.4440  1.9563  3.3262
 1002MOL0     H38227  10.277  11.632   9.655  0.3206 -1.0065  1.1848
 1002MOL0     H38228  10.296  11.662   9.360 -0.5437 -1.9007  1.4130
 1002MOL0     H38229  10.285  11.776   9.498 -2.6996 -0.2630 -0.5821
 1002MOL0     H38230  10.505  11.806   9.415  1.8288 -0.3562 -0.8209
 1002MOL0     H38231  10.527  11.709   9.559 -0.4400  3.3838  0.0311
 1002MOL0     H38232  10.512  11.601   9.268 -1.1204 -0.4843  1.7161
 1002MOL0     H38233  10.661  11.651   9.345  0.7271 -2.4968 -0.1721
 1002MOL0     H38234  10.775  11.594   9.546  0.7479  0.9218 -3.8928
 1002MOL0     H38235  11.063  11.520   9.603 -0.7426 -0.3014 -0.9762
 1002MOL0     H38236  11.021  11.460   9.761 -1.5361  0.8023  0.8391
 1002MOL0     H38237  10.939  11.609   9.693 -0.3705 -0.4208  3.0839
 1002MOL0     H38238  10.947  10.785   9.609  0.7244 -1.6243  0.1023
 1002MOL0     H38239  11.092  10.621   9.651 -0.5384 -0.3782  1.1967
 1002MOL0     H38240  11.510  10.700   9.785  2.1925 -0.9667  1.5083
 1002MOL0     H38241  11.436  10.684   9.936  5.0265  3.0924 -1.6102
 1002MOL0     H38242  11.435  10.420   9.889  1.5548 -1.1144  0.7028
 1002MOL0     H38243  11.521  10.448   9.743  1.4165  0.5718  0.1350
 1002MOL0     H38244  11.669  10.389   9.950 -4.1701 -0.0824  1.8887
 1002MOL0     H38245  11.633  10.549  10.000 -0.8454 -0.4488 -0.0409
 1002MOL0     H38246  11.711  10.649   9.793 -1.3274 -0.3422  0.2134
 1002MOL0     H38247  11.743  10.490   9.721  1.4185  1.8434 -0.8228
 1002MOL0     H38248  11.944  10.638   9.809 -0.0810  1.5876  1.1623
 1002MOL0     H38249  11.845  10.646   9.959 -1.5613 -1.2355  0.2415
 1002MOL0     H38250  11.903  10.386   9.960  0.9526 -1.6298 -1.9832
 1002MOL0     H38251  12.049  10.489   9.987 -0.0939  0.5644  1.1528
 1002MOL0     H38252  11.988  10.419   9.694 -0.7247 -1.0742  0.3989
 1002MOL0     H38253  12.059  10.303   9.802 -2.0708 -1.4737 -4.2585
 1002MOL0     H38254  12.202  10.566   9.789  1.8833 -1.0478 -1.3539
 1002MOL0     H38255  12.239  10.432   9.692 -0.7477 -0.9550 -0.6562
 1002MOL0     H38256  11.343  10.890   9.887 -0.6089  1.1412  0.4548
 1002MOL0     H38257  11.172  11.066   9.833  2.5294 -0.3695 -0.6525
 1002MOL0     H38258  10.737  11.107   9.591  0.6001  0.1836  3.5888
 1002MOL0     H38259  10.576  11.230   9.454  1.1423 -2.0852 -0.9535
 1002MOL0     H38260   9.228  11.465  10.256  1.4796  0.6748 -1.4841
 1002MOL0     H38261   9.009  11.573  10.219 -0.8030 -1.1318  1.1724
 1002MOL0     H38262   8.612  11.599  10.182 -1.6224 -1.0543  2.0721
 1002MOL0     H38263   8.431  11.717  10.171  0.3848 -1.0431  0.0835
 1002MOL0     H38264   8.255  11.831  10.152  1.0607 -1.4232 -0.1660
 1002MOL0     H38265   8.315  11.896   9.996 -0.8081 -0.0943 -3.6170
 1002MOL0     H38266   8.086  11.860   9.902 -3.2483 -2.1321  0.7792
 1002MOL0     H38267   8.087  11.988  10.031  0.9204  0.2746 -0.4387
 1002MOL0     H38268   7.946  11.725  10.019 -3.0000  0.7062 -0.2049
 1002MOL0     H38269   8.007  11.766  10.172  1.0324 -2.1054 -0.3531
 1002MOL0     H38270   7.761  11.840  10.083 -0.2430 -1.9654 -3.2243
 1002MOL0     H38271   7.848  11.950   9.989  1.2265  0.0326  0.6308
 1002MOL0     H38272   7.884  12.121  10.387  5.0699  0.9608 -0.5474
 1002MOL0     H38273   8.286  11.463   9.848 -0.9381  0.2150  1.5255
 1002MOL0     H38274   8.503  11.209   9.928 -0.5837  1.5596  0.6771
 1002MOL0     H38275   8.387  11.266   9.806 -0.5295  1.3769 -0.8585
 1002MOL0     H38276   8.564  11.293   9.781 -0.2724  0.2387 -0.0865
 1003MOL0     O38277   5.562   1.542   1.662  0.0368  0.0353 -0.3544
 1003MOL0     C38278   5.487   1.624   1.614 -0.2235 -0.1843  0.1411
 1003MOL0     O38279   5.511   1.691   1.490  0.1749 -1.0033  0.6148
 1003MOL0     C38280   5.621   1.656   1.415  0.2959 -0.1825  0.5988
 1003MOL0     C38281   5.737   1.733   1.409  0.3348 -0.3117  0.6358
 1003MOL0     C38282   5.851   1.681   1.356 -0.1654  1.4258  0.8354
 1003MOL0     C38283   5.847   1.570   1.265 -0.7347  0.0733 -0.5525
 1003MOL0     O38284   5.966   1.526   1.201  0.3937 -0.2366  0.0666
 1003MOL0     C38285   5.959   1.403   1.136  0.5475 -0.4053  0.0433
 1003MOL0     C38286   6.088   1.363   1.079 -0.2410 -0.1593  0.9654
 1003MOL0     C38287   6.111   1.437   0.942 -0.3208  0.0916  0.0617
 1003MOL0     C38288   6.222   1.377   0.859 -0.4486 -0.3361 -0.6316
 1003MOL0     C38289   6.228   1.447   0.722  0.6686  0.1216 -0.3154
 1003MOL0     C38290   6.240   1.605   0.716  0.2314  0.0091  0.0768
 1003MOL0     C38291   6.355   1.654   0.807 -1.3590 -0.5405 -0.2299
 1003MOL0     C38292   6.360   1.810   0.788  0.2993 -0.1856 -0.2397
 1003MOL0     N38293   6.463   1.867   0.873 -0.4764 -0.7932  0.4838
 1003MOL0     C38294   6.569   1.935   0.822 -0.1426  0.3189 -0.1468
 1003MOL0     C38295   6.644   1.958   0.934 -1.0256 -0.1779 -0.1611
 1003MOL0     C38296   6.757   2.048   0.936  0.0518  0.2730 -0.4222
 1003MOL0     C38297   6.793   2.109   1.074  0.0905 -0.1250  0.0798
 1003MOL0     C38298   6.709   2.221   1.127  0.3780  0.9797 -0.1575
 1003MOL0     C38299   6.720   2.259   1.275  1.2671 -0.0968  0.3034
 1003MOL0     O38300   6.855   2.287   1.320  0.0199  0.5206 -0.2659
 1003MOL0     C38301   6.930   2.386   1.274 -0.6921 -0.9897  0.2572
 1003MOL0     C38302   7.070   2.364   1.292 -0.0700 -0.4738 -0.3587
 1003MOL0     C38303   7.158   2.451   1.240  0.4438 -0.0707 -1.0661
 1003MOL0     C38304   7.303   2.399   1.249  0.6873 -0.2547 -0.1348
 1003MOL0     C38305   7.126   2.576   1.186  0.0293 -0.5405 -0.0284
 1003MOL0     C38306   7.230   2.676   1.149  0.0461 -0.0462  0.6600
 1003MOL0     O38307   7.178   2.783   1.087  0.2273  0.1672  0.7067
 1003MOL0     C38308   7.251   2.867   1.013 -0.6209  0.1840  0.0596
 1003MOL0     C38309   7.212   2.895   0.883  0.9250 -0.3367 -0.2820
 1003MOL0     C38310   7.293   2.980   0.804  1.0964  0.1510 -0.1382
 1003MOL0     C38311   7.416   3.026   0.850  0.3131 -0.7110  0.4528
 1003MOL0     O38312   7.500   3.095   0.767  0.5637 -0.0766 -0.6972
 1003MOL0     C38313   7.451   3.221   0.718  0.3655 -0.3597 -0.7143
 1003MOL0     C38314   7.579   3.310   0.692  0.4315  0.9170 -0.7356
 1003MOL0     C38315   7.681   3.248   0.600 -0.1968  0.3162 -0.0239
 1003MOL0     C38316   7.803   3.346   0.582  0.0952  0.0392  0.3479
 1003MOL0     C38317   7.908   3.276   0.498 -0.4434  0.7950 -0.7253
 1003MOL0     C38318   8.038   3.365   0.503  0.4746  0.0692 -0.3003
 1003MOL0     C38319   8.112   3.372   0.641 -0.1623  0.8562  0.4398
 1003MOL0     C38320   8.243   3.448   0.634  1.0021  1.0749 -0.7626
 1003MOL0    Cl38321   8.227   3.604   0.553  0.0890  0.4010 -0.2017
 1003MOL0     C38322   7.464   2.986   0.974  0.7283  0.2431 -0.3581
 1003MOL0     C38323   7.377   2.912   1.060 -0.2457 -0.2175  0.5412
 1003MOL0     O38324   7.352   2.650   1.155  0.0732  0.0189  0.0817
 1003MOL0     C38325   6.983   2.605   1.185  0.4862 -0.4577  0.0400
 1003MOL0     C38326   6.881   2.509   1.213 -0.4179 -0.2667  0.3812
 1003MOL0     N38327   6.582   1.903   1.043  0.8067  0.2133 -0.5160
 1003MOL0     N38328   6.469   1.847   1.009  0.1244 -0.7700  0.6771
 1003MOL0     C38329   5.735   1.500   1.267 -0.1530 -0.0495 -0.2535
 1003MOL0     C38330   5.622   1.539   1.344 -0.6006  0.5632 -0.2448
 1003MOL0     C38331   5.350   1.649   1.668 -0.2800 -0.0323 -0.1009
 1003MOL0     C38332   5.253   1.702   1.580 -0.1105  0.1676  0.3718
 1003MOL0     C38333   5.116   1.693   1.612 -0.1923  0.0241  0.1412
 1003MOL0     C38334   5.082   1.640   1.736  0.3914 -0.7037 -0.1419
 1003MOL0     O38335   4.947   1.629   1.759  0.0779  0.3641  0.2039
 1003MOL0     C38336   4.900   1.592   1.886 -0.0027 -0.0886 -0.5066
 1003MOL0     C38337   4.747   1.588   1.890 -0.5661  0.0310  0.3428
 1003MOL0     C38338   4.680   1.512   2.016 -0.0876 -0.2497  0.8572
 1003MOL0     C38339   4.740   1.561   2.146  0.6150 -0.1831 -1.0431
 1003MOL0     C38340   4.671   1.512   2.270 -0.5921 -0.0586 -0.0842
 1003MOL0     C38341   4.629   1.459   2.369  0.4264  0.3169  0.6990
 1003MOL0     C38342   5.181   1.613   1.832  0.7810 -0.7062 -0.2998
 1003MOL0     C38343   5.311   1.618   1.796  0.3343  0.0876 -0.8405
 1003MOL0     C38344   5.404   1.563   1.903  1.0188 -0.0849  0.1793
 1003MOL0     H38345   5.747   1.819   1.474  0.2692  1.9496 -2.1528
 1003MOL0     H38346   5.946   1.730   1.376  1.9687 -0.8454 -2.6391
 1003MOL0     H38347   5.881   1.411   1.060  1.1868 -1.4264 -0.7454
 1003MOL0     H38348   5.914   1.323   1.195 -3.0435  0.6960 -0.9951
 1003MOL0     H38349   6.172   1.393   1.143 -0.1522  0.9861  0.3289
 1003MOL0     H38350   6.086   1.254   1.066 -3.6159 -0.0727  0.0142
 1003MOL0     H38351   6.022   1.438   0.878  0.0404 -0.6743 -0.4734
 1003MOL0     H38352   6.135   1.542   0.961  0.4271 -0.3749  1.9042
 1003MOL0     H38353   6.316   1.390   0.914 -0.9847 -2.1518  0.8600
 1003MOL0     H38354   6.205   1.269   0.851 -1.2054 -0.1670 -1.5208
 1003MOL0     H38355   6.128   1.427   0.682  0.2037  4.2293 -1.7158
 1003MOL0     H38356   6.314   1.408   0.666  0.7025 -0.8671  0.4110
 1003MOL0     H38357   6.249   1.639   0.612 -0.4132 -0.3935 -0.1184
 1003MOL0     H38358   6.148   1.643   0.761 -2.3254 -1.1764 -3.6592
 1003MOL0     H38359   6.443   1.594   0.786 -1.0931 -0.5013  0.7732
 1003MOL0     H38360   6.328   1.639   0.912 -0.4587 -2.9613 -0.2995
 1003MOL0     H38361   6.389   1.820   0.683  2.8669 -1.6921  0.2344
 1003MOL0     H38362   6.260   1.852   0.801 -0.3934 -1.8976  0.1796
 1003MOL0     H38363   6.584   1.970   0.720  0.7608  2.5027  0.6918
 1003MOL0     H38364   6.747   2.130   0.864  1.3437  2.7721  2.0486
 1003MOL0     H38365   6.844   1.986   0.914 -0.1237 -0.6004  1.1862
 1003MOL0     H38366   6.835   2.031   1.137 -0.4301 -0.3843  0.1123
 1003MOL0     H38367   6.886   2.164   1.062 -0.8665  1.4282 -0.6066
 1003MOL0     H38368   6.735   2.311   1.071 -0.4491  1.0044 -0.5117
 1003MOL0     H38369   6.605   2.197   1.106  0.2350 -1.1989  2.5374
 1003MOL0     H38370   6.658   2.348   1.289  1.8002  0.6690 -1.7192
 1003MOL0     H38371   6.675   2.182   1.338  0.1650  1.3207  1.3176
 1003MOL0     H38372   7.107   2.278   1.347  1.5764  0.4721  0.0903
 1003MOL0     H38373   7.357   2.403   1.154 -0.7757  0.6938 -0.9707
 1003MOL0     H38374   7.308   2.294   1.277  0.6771 -0.6179 -1.4087
 1003MOL0     H38375   7.360   2.460   1.320  1.7596 -2.7338  1.2361
 1003MOL0     H38376   7.126   2.845   0.841  0.1835  2.2653 -2.1686
 1003MOL0     H38377   7.266   3.011   0.703  0.5328  0.9041  0.2336
 1003MOL0     H38378   7.403   3.210   0.621 -1.1710 -1.9861  0.1895
 1003MOL0     H38379   7.392   3.267   0.798  0.7046 -1.0220 -0.0737
 1003MOL0     H38380   7.544   3.403   0.645 -0.2599  1.3633  0.6146
 1003MOL0     H38381   7.627   3.329   0.788 -0.6342 -0.1664  0.0396
 1003MOL0     H38382   7.633   3.216   0.506  0.0360 -0.3313  0.0723
 1003MOL0     H38383   7.718   3.156   0.645 -1.2085 -0.7542 -1.2865
 1003MOL0     H38384   7.826   3.364   0.687 -1.1660 -1.6293  0.9603
 1003MOL0     H38385   7.773   3.441   0.537 -0.8388  1.1492  3.1197
 1003MOL0     H38386   7.934   3.185   0.552  0.8758  2.4038  1.5266
 1003MOL0     H38387   7.885   3.261   0.392 -1.3753 -1.1211 -0.2870
 1003MOL0     H38388   8.012   3.468   0.476 -0.4886  0.4847  1.9669
 1003MOL0     H38389   8.103   3.332   0.422  2.4080  2.0629  0.3626
 1003MOL0     H38390   8.138   3.273   0.679 -1.0289  0.5367  0.2158
 1003MOL0     H38391   8.049   3.426   0.712 -1.0642 -0.6345  0.8108
 1003MOL0     H38392   8.302   3.373   0.580 -2.0912 -1.0855 -1.4620
 1003MOL0     H38393   8.281   3.455   0.736 -3.3177 -1.6750  1.3418
 1003MOL0     H38394   7.559   3.014   1.020  0.2223 -1.1661  1.7180
 1003MOL0     H38395   7.418   2.886   1.157 -3.7535  0.1738  2.2633
 1003MOL0     H38396   6.967   2.707   1.150  0.9243 -0.2257  0.5055
 1003MOL0     H38397   6.774   2.525   1.209 -0.3127  1.7995  3.1557
 1003MOL0     H38398   5.726   1.397   1.232  1.6456 -0.9522  1.7704
 1003MOL0     H38399   5.546   1.462   1.354 -0.5580  0.3000 -1.7014
 1003MOL0     H38400   5.278   1.723   1.477 -0.5774  0.0512  0.2307
 1003MOL0     H38401   5.049   1.733   1.537 -0.5568 -0.0541  0.4186
 1003MOL0     H38402   4.943   1.496   1.916  1.3262  0.0390 -1.9055
 1003MOL0     H38403   4.924   1.667   1.962 -2.0557  0.8132 -0.6835
 1003MOL0     H38404   4.718   1.525   1.806 -3.3663 -1.0502  1.9749
 1003MOL0     H38405   4.708   1.690   1.885 -0.4579  0.0113 -1.2363
 1003MOL0     H38406   4.573   1.530   2.009 -0.4036 -2.1906  0.0491
 1003MOL0     H38407   4.697   1.407   1.989  1.3915 -0.0228  0.8339
 1003MOL0     H38408   4.740   1.670   2.137 -0.8861  0.1779  1.9900
 1003MOL0     H38409   4.841   1.521   2.163  0.3352 -0.5572 -0.2471
 1003MOL0     H38410   4.596   1.401   2.453  0.2551 -0.3033  0.2108
 1003MOL0     H38411   5.154   1.580   1.931 -2.7132  0.9704 -0.5471
 1003MOL0     H38412   5.366   1.591   2.001  0.4625 -0.4597  0.0749
 1003MOL0     H38413   5.403   1.454   1.889 -2.4819 -0.0632 -0.4870
 1003MOL0     H38414   5.499   1.617   1.895 -0.5139  2.5096 -1.6175
 1004MOL0     O38415  11.031   3.060   6.006  0.0123 -0.4002 -0.0063
 1004MOL0     C38416  11.106   3.091   6.096 -0.1184  0.5651  0.3032
 1004MOL0     O38417  11.236   3.112   6.087  0.1873  0.2149 -0.1803
 1004MOL0     C38418  11.293   3.099   5.966 -0.9869 -0.1639 -0.4360
 1004MOL0     C38419  11.385   3.197   5.930 -0.0199 -0.7319  0.0415
 1004MOL0     C38420  11.458   3.190   5.815 -0.3698  0.5377  0.2051
 1004MOL0     C38421  11.452   3.077   5.727 -0.6307 -0.9156 -0.6877
 1004MOL0     O38422  11.501   3.058   5.601 -0.5341 -0.0313 -0.8092
 1004MOL0     C38423  11.469   3.165   5.509  0.2284 -0.0054  0.3720
 1004MOL0     C38424  11.546   3.145   5.378 -0.0161  0.9927 -0.0852
 1004MOL0     C38425  11.692   3.107   5.408 -0.4061  0.2637  0.0940
 1004MOL0     C38426  11.775   3.221   5.487  0.0190  0.6248  0.5633
 1004MOL0     C38427  11.904   3.154   5.565  0.1187 -0.7277  0.3055
 1004MOL0     C38428  11.993   3.266   5.622  0.6664  0.0723 -0.4899
 1004MOL0     C38429  12.056   3.363   5.528  0.4893  0.2634 -0.6860
 1004MOL0     C38430  12.154   3.457   5.600  0.6166 -0.3063  0.5248
 1004MOL0     N38431  12.215   3.546   5.500  0.2803 -0.0694 -0.7621
 1004MOL0     C38432  12.327   3.494   5.434 -0.7673 -0.4368  0.6585
 1004MOL0     C38433  12.363   3.610   5.369  0.3629 -0.2827 -0.8476
 1004MOL0     C38434  12.486   3.630   5.292 -0.1313 -0.1667 -0.7824
 1004MOL0     C38435  12.590   3.716   5.361 -0.4571  0.6536  0.8190
 1004MOL0     C38436  12.543   3.861   5.364 -1.1075 -0.1009  0.7966
 1004MOL0     C38437  12.651   3.968   5.374 -0.1299  0.2014  0.6727
 1004MOL0     O38438  12.736   3.935   5.477 -0.1817  0.6444 -0.1527
 1004MOL0     C38439  12.792   4.042   5.536 -0.1041  0.2123  0.1574
 1004MOL0     C38440  12.777   4.069   5.671 -0.1645 -0.0187 -0.1200
 1004MOL0     C38441  12.845   4.176   5.731 -0.2322 -0.7808  0.2601
 1004MOL0     C38442  12.814   4.196   5.882 -0.0416  0.1068  0.7029
 1004MOL0     C38443  12.937   4.255   5.661 -0.4575  0.1214 -0.2966
 1004MOL0     C38444  13.024   4.357   5.713 -0.3330 -0.3654 -0.8887
 1004MOL0     O38445  13.034   4.479   5.643  0.1761 -0.2736 -0.0451
 1004MOL0     C38446  13.138   4.569   5.675  0.3462  0.0937 -0.1758
 1004MOL0     C38447  13.264   4.552   5.625 -0.3976 -0.1821 -0.8367
 1004MOL0     C38448  13.356   4.645   5.656 -0.3325  0.5569 -0.7563
 1004MOL0     C38449  13.336   4.748   5.745 -0.8335 -0.2975 -0.3471
 1004MOL0     O38450  13.430   4.837   5.785  0.1883  0.6558 -0.2532
 1004MOL0     C38451  13.532   4.865   5.689 -0.4175 -0.0655  0.6271
 1004MOL0     C38452  13.624   4.987   5.725  0.3963 -0.9571 -0.0041
 1004MOL0     C38453  13.747   5.011   5.631  0.9064  0.2265  0.0380
 1004MOL0     C38454  13.842   5.121   5.670  0.4255 -0.6259  0.3347
 1004MOL0     C38455  13.778   5.264   5.692 -0.4534  0.5814  0.3428
 1004MOL0     C38456  13.725   5.334   5.571  0.4451  0.2576  0.6748
 1004MOL0     C38457  13.804   5.312   5.437 -0.4563 -1.1246  0.5649
 1004MOL0     C38458  13.771   5.409   5.320  0.7403 -0.2734 -0.0996
 1004MOL0    Cl38459  13.606   5.375   5.272  0.2724  0.6806 -0.0215
 1004MOL0     C38460  13.213   4.758   5.809 -0.1443  0.2028  0.4807
 1004MOL0     C38461  13.106   4.669   5.762 -1.0783  0.3616 -0.5673
 1004MOL0     O38462  13.082   4.339   5.822 -0.3761 -0.2169 -0.6114
 1004MOL0     C38463  12.965   4.221   5.530  0.4187  0.5498  0.3199
 1004MOL0     C38464  12.878   4.131   5.465  0.1695  0.8746 -0.0489
 1004MOL0     N38465  12.272   3.725   5.408  0.8367  0.4075 -0.0093
 1004MOL0     N38466  12.187   3.678   5.496  0.0746 -0.5856  0.4884
 1004MOL0     C38467  11.360   2.981   5.769 -0.3157  0.4293  0.1906
 1004MOL0     C38468  11.283   2.986   5.885 -0.7257  0.0420 -0.3278
 1004MOL0     C38469  11.036   3.119   6.226 -0.4107 -0.5385  0.3379
 1004MOL0     C38470  10.901   3.087   6.241 -0.3399  0.3682 -0.5988
 1004MOL0     C38471  10.844   3.102   6.366  0.0566 -0.2866  0.9599
 1004MOL0     C38472  10.911   3.152   6.480 -0.3576  0.2928 -0.8321
 1004MOL0     O38473  10.862   3.147   6.613  0.0171  0.8895  0.4756
 1004MOL0     C38474  10.872   3.013   6.667  0.4876  0.6466 -0.9155
 1004MOL0     C38475  10.934   3.013   6.813 -0.3386 -0.3039 -0.1416
 1004MOL0     C38476  11.067   3.083   6.825  0.2299 -0.2931  0.7963
 1004MOL0     C38477  11.179   2.997   6.763  0.0893  0.2205 -0.1947
 1004MOL0     C38478  11.310   3.060   6.772 -0.0787 -0.2347  0.1843
 1004MOL0     C38479  11.423   3.092   6.765  0.5294  0.9841  0.2315
 1004MOL0     C38480  11.042   3.194   6.460 -0.4818 -0.0225 -0.0098
 1004MOL0     C38481  11.098   3.174   6.337 -0.6556  0.1685  0.0049
 1004MOL0     C38482  11.248   3.214   6.332  0.6616  0.3485  0.1446
 1004MOL0     H38483  11.390   3.297   5.971 -0.4775  0.1142 -1.8574
 1004MOL0     H38484  11.515   3.278   5.788 -2.8604  1.5837 -2.0233
 1004MOL0     H38485  11.475   3.266   5.549 -0.7483 -0.6258  2.1692
 1004MOL0     H38486  11.361   3.151   5.491  0.3809 -0.3595 -0.3282
 1004MOL0     H38487  11.506   3.068   5.311  0.7067 -0.5175  1.1466
 1004MOL0     H38488  11.530   3.237   5.321 -0.0426  2.5401  2.2900
 1004MOL0     H38489  11.703   3.010   5.457 -1.7390  0.2138  0.3219
 1004MOL0     H38490  11.750   3.102   5.315 -0.4259  0.2609  0.0821
 1004MOL0     H38491  11.803   3.296   5.412 -3.2831 -1.1804 -2.8292
 1004MOL0     H38492  11.716   3.273   5.563 -0.0412 -0.2699  1.1357
 1004MOL0     H38493  11.961   3.095   5.492  2.0084 -1.6802  2.4159
 1004MOL0     H38494  11.878   3.081   5.643  1.9206 -1.6112  0.1451
 1004MOL0     H38495  11.946   3.322   5.703 -1.0580 -0.7378 -0.8870
 1004MOL0     H38496  12.064   3.211   5.685 -0.3045  0.6090  1.1330
 1004MOL0     H38497  11.986   3.425   5.471  0.6935  3.4188  2.1980
 1004MOL0     H38498  12.123   3.298   5.471  1.9827  1.1846 -0.0369
 1004MOL0     H38499  12.108   3.521   5.676  0.3654 -0.8584  0.8422
 1004MOL0     H38500  12.236   3.399   5.645  2.4125 -0.8555 -3.0995
 1004MOL0     H38501  12.363   3.392   5.427 -0.9881 -0.4203 -1.7426
 1004MOL0     H38502  12.468   3.681   5.196  4.9461 -0.8532 -2.4047
 1004MOL0     H38503  12.521   3.528   5.275  3.6947  1.2227 -2.2664
 1004MOL0     H38504  12.605   3.663   5.456 -2.4458 -2.5076 -0.4622
 1004MOL0     H38505  12.677   3.701   5.297 -1.4566 -0.9230 -0.2598
 1004MOL0     H38506  12.485   3.873   5.272  0.7059  0.6863 -0.3013
 1004MOL0     H38507  12.479   3.873   5.453  0.3984 -0.3507  1.9467
 1004MOL0     H38508  12.708   3.957   5.281 -0.2696 -3.3588  0.8532
 1004MOL0     H38509  12.595   4.061   5.384 -0.3034 -0.0122  1.8273
 1004MOL0     H38510  12.711   3.996   5.717  0.8446 -0.5316  0.5546
 1004MOL0     H38511  12.716   4.150   5.898 -0.4216  1.2211  1.6580
 1004MOL0     H38512  12.812   4.301   5.909 -1.1358 -0.2018  1.8948
 1004MOL0     H38513  12.893   4.143   5.937  0.3191  1.3406  1.3933
 1004MOL0     H38514  13.288   4.472   5.556 -2.1825 -0.6677 -0.9474
 1004MOL0     H38515  13.450   4.635   5.604 -0.0995 -1.4634 -0.0441
 1004MOL0     H38516  13.601   4.781   5.671  0.8680  0.9167  0.8072
 1004MOL0     H38517  13.485   4.887   5.593 -0.1272  1.6367  0.8381
 1004MOL0     H38518  13.564   5.078   5.737 -0.0030 -1.0600 -1.0894
 1004MOL0     H38519  13.659   4.956   5.824 -1.3995 -0.4872  0.8320
 1004MOL0     H38520  13.714   5.020   5.527 -1.7686  0.5348  0.8400
 1004MOL0     H38521  13.811   4.922   5.633  2.3544  1.2226 -0.5889
 1004MOL0     H38522  13.921   5.123   5.594 -0.4432  0.9077 -0.5656
 1004MOL0     H38523  13.896   5.085   5.758  0.0959 -0.0481  0.7752
 1004MOL0     H38524  13.703   5.238   5.767  0.1774 -0.5507  0.5901
 1004MOL0     H38525  13.852   5.328   5.741  0.1190 -2.0760  3.2714
 1004MOL0     H38526  13.732   5.442   5.591  1.6024  0.1918  0.6807
 1004MOL0     H38527  13.619   5.320   5.545  0.7696  1.5520 -1.6495
 1004MOL0     H38528  13.793   5.208   5.403  2.0510 -0.4370 -2.8821
 1004MOL0     H38529  13.911   5.310   5.459 -0.6321  1.0635  1.7996
 1004MOL0     H38530  13.854   5.389   5.250  0.1651 -0.7948 -0.6479
 1004MOL0     H38531  13.775   5.516   5.338 -2.3728 -0.2152  0.7174
 1004MOL0     H38532  13.185   4.827   5.887 -3.4704  0.2840 -0.6188
 1004MOL0     H38533  13.008   4.674   5.809 -0.7298  0.1167  0.2053
 1004MOL0     H38534  13.036   4.274   5.467  0.3316  0.1801 -0.0944
 1004MOL0     H38535  12.899   4.112   5.361  3.6907 -3.1667  1.1132
 1004MOL0     H38536  11.348   2.890   5.711 -0.7624  0.9729 -0.5890
 1004MOL0     H38537  11.235   2.893   5.916  0.5562  0.2637  2.6769
 1004MOL0     H38538  10.841   3.040   6.164 -0.6445  0.3561 -0.3563
 1004MOL0     H38539  10.742   3.067   6.380 -1.3086  2.2583 -1.6403
 1004MOL0     H38540  10.773   2.966   6.676 -0.8233  3.6008  3.7233
 1004MOL0     H38541  10.937   2.949   6.607  0.5638 -0.1777  0.0134
 1004MOL0     H38542  10.940   2.910   6.850 -0.2885  0.2109  1.3620
 1004MOL0     H38543  10.860   3.064   6.876 -1.7140 -3.2883  0.8361
 1004MOL0     H38544  11.060   3.184   6.785  0.6624 -0.5603  0.0182
 1004MOL0     H38545  11.089   3.102   6.931 -0.3291  1.0749  0.6841
 1004MOL0     H38546  11.163   2.960   6.661  0.0806 -0.4154  0.0297
 1004MOL0     H38547  11.179   2.910   6.830  0.2616  1.8156  1.9922
 1004MOL0     H38548  11.525   3.124   6.757  0.1994  1.8089 -1.0786
 1004MOL0     H38549  11.087   3.236   6.550  0.4828 -2.4227  0.7189
 1004MOL0     H38550  11.270   3.274   6.420 -0.0742  1.6918 -0.5621
 1004MOL0     H38551  11.309   3.123   6.333  0.0328 -0.0866 -0.3748
 1004MOL0     H38552  11.259   3.279   6.245  0.3551 -1.5614 -1.3798
 1005MOL0     O38553   1.434   6.499   6.816 -0.0132 -0.1801 -0.0509
 1005MOL0     C38554   1.318   6.520   6.853 -0.0988 -0.7103 -0.0211
 1005MOL0     O38555   1.276   6.493   6.982 -0.1545 -0.5442  0.7068
 1005MOL0     C38556   1.362   6.460   7.081 -0.3558  0.0210  0.5105
 1005MOL0     C38557   1.335   6.338   7.155 -0.1850 -0.6411  1.1352
 1005MOL0     C38558   1.405   6.313   7.273  0.8258  0.3391  0.8459
 1005MOL0     C38559   1.494   6.412   7.320  0.4660  1.1705 -0.1831
 1005MOL0     O38560   1.546   6.382   7.439  0.0085  0.0367 -0.1405
 1005MOL0     C38561   1.598   6.494   7.516 -0.1311 -0.3482  0.1742
 1005MOL0     C38562   1.746   6.499   7.497 -0.9409 -0.9279 -0.3069
 1005MOL0     C38563   1.793   6.644   7.536 -0.3993  0.2376  0.6849
 1005MOL0     C38564   1.945   6.650   7.558  0.2286  1.0390 -0.5745
 1005MOL0     C38565   1.989   6.756   7.652  0.4440 -0.1671 -0.1950
 1005MOL0     C38566   2.140   6.746   7.673  0.6696 -0.3262 -0.7154
 1005MOL0     C38567   2.182   6.882   7.737  0.9678  0.1795 -0.4203
 1005MOL0     C38568   2.330   6.871   7.782 -0.0991 -0.4562 -0.0578
 1005MOL0     N38569   2.392   7.005   7.799  0.4421  0.4485 -0.5085
 1005MOL0     C38570   2.484   7.067   7.718  0.4511  0.6047  0.4832
 1005MOL0     C38571   2.508   7.185   7.774 -0.1645  0.4607 -0.2720
 1005MOL0     C38572   2.613   7.288   7.731 -0.1772  0.4067  0.3788
 1005MOL0     C38573   2.677   7.257   7.588 -0.1320  0.8805  0.0193
 1005MOL0     C38574   2.810   7.350   7.580  0.9746  0.5906 -0.9354
 1005MOL0     C38575   2.784   7.489   7.531 -0.2294 -0.5854  0.5451
 1005MOL0     O38576   2.914   7.557   7.508 -0.2545 -0.1865  0.5062
 1005MOL0     C38577   2.917   7.678   7.442  0.1115 -0.4401  0.2967
 1005MOL0     C38578   2.808   7.752   7.423  0.9071 -1.2785 -0.2003
 1005MOL0     C38579   2.811   7.873   7.346  1.1623  0.1023 -0.1604
 1005MOL0     C38580   2.690   7.956   7.350 -0.3422  0.1352 -0.1987
 1005MOL0     C38581   2.924   7.910   7.272 -0.0985 -0.1993  0.1363
 1005MOL0     C38582   2.936   8.026   7.187 -1.5163  0.0033 -0.4330
 1005MOL0     O38583   3.054   8.097   7.193 -0.2612  0.3068  0.3048
 1005MOL0     C38584   3.039   8.233   7.161 -0.1954  0.0945 -0.2215
 1005MOL0     C38585   2.936   8.311   7.214 -0.0832  0.7573  0.7665
 1005MOL0     C38586   2.932   8.445   7.192  0.7196 -0.0146 -0.0735
 1005MOL0     C38587   3.031   8.509   7.111 -0.5602  0.4565  0.2238
 1005MOL0     O38588   3.026   8.634   7.066 -0.0305 -0.2506 -0.0270
 1005MOL0     C38589   2.931   8.729   7.127 -0.1414  0.7223  0.3771
 1005MOL0     C38590   2.799   8.709   7.042  0.3085  0.8100 -0.3629
 1005MOL0     C38591   2.697   8.810   7.107  1.7130  0.2189 -0.3481
 1005MOL0     C38592   2.555   8.751   7.140  1.0719  0.1838  0.7465
 1005MOL0     C38593   2.453   8.862   7.178 -0.1750 -0.5771 -0.0666
 1005MOL0     C38594   2.310   8.808   7.223  0.3946 -0.1254  0.3945
 1005MOL0     C38595   2.243   8.710   7.128  1.0957 -0.6297  0.6490
 1005MOL0     C38596   2.180   8.783   7.000 -0.2290  0.3014 -0.4289
 1005MOL0    Cl38597   2.013   8.816   7.037  0.3403 -0.2331 -0.1652
 1005MOL0     C38598   3.136   8.435   7.062 -0.5573  0.4322  0.4370
 1005MOL0     C38599   3.147   8.295   7.090  0.0185  0.2248  0.4963
 1005MOL0     O38600   2.856   8.042   7.103 -0.8188 -0.7663  0.4874
 1005MOL0     C38601   3.038   7.842   7.298 -0.6006  0.4474  0.3039
 1005MOL0     C38602   3.039   7.729   7.384  0.0344 -0.4188 -0.3901
 1005MOL0     N38603   2.439   7.190   7.894 -0.1677  0.3530 -0.4419
 1005MOL0     N38604   2.365   7.088   7.902 -0.3025 -0.0557  0.3010
 1005MOL0     C38605   1.529   6.520   7.240 -0.9182 -0.4635  0.0488
 1005MOL0     C38606   1.462   6.551   7.124 -0.4244 -0.3573 -0.2398
 1005MOL0     C38607   1.222   6.555   6.755 -0.0626 -0.0684 -0.3957
 1005MOL0     C38608   1.250   6.551   6.622 -0.6329 -0.1281 -0.0905
 1005MOL0     C38609   1.165   6.583   6.516 -0.3822  1.1968 -0.3370
 1005MOL0     C38610   1.046   6.637   6.544  0.3354  0.1193  0.0988
 1005MOL0     O38611   0.973   6.679   6.428 -0.1338 -0.5256 -0.4487
 1005MOL0     C38612   0.840   6.726   6.444  0.2310 -0.2736  0.1938
 1005MOL0     C38613   0.802   6.835   6.345  0.4260 -0.0396 -0.4554
 1005MOL0     C38614   0.772   6.763   6.206  0.9186  0.1445  0.1940
 1005MOL0     C38615   0.624   6.725   6.188  0.7076 -0.4774  0.5851
 1005MOL0     C38616   0.606   6.662   6.060  1.3084  0.5322  0.3531
 1005MOL0     C38617   0.613   6.608   5.949  0.5625  0.0543  0.1894
 1005MOL0     C38618   1.012   6.653   6.679  0.1467  0.2070 -0.5655
 1005MOL0     C38619   1.092   6.612   6.789 -0.2164 -0.2422  0.7337
 1005MOL0     C38620   1.043   6.630   6.925  0.1405 -0.1040  0.2981
 1005MOL0     H38621   1.247   6.277   7.135 -1.2138  1.0037  0.4096
 1005MOL0     H38622   1.385   6.223   7.329  0.2718 -1.0049 -1.4105
 1005MOL0     H38623   1.584   6.486   7.625 -1.2004  1.5659  0.2318
 1005MOL0     H38624   1.550   6.588   7.486 -3.5448 -1.2949  2.1114
 1005MOL0     H38625   1.796   6.434   7.570  0.7628  0.1258 -0.4868
 1005MOL0     H38626   1.777   6.463   7.398 -1.5497 -1.4079 -0.3290
 1005MOL0     H38627   1.770   6.708   7.451  2.0824 -2.3450 -2.2047
 1005MOL0     H38628   1.751   6.668   7.634  2.6809  0.0744  2.1890
 1005MOL0     H38629   1.977   6.553   7.597 -0.1171  1.1379 -0.0417
 1005MOL0     H38630   1.999   6.666   7.464 -1.0469  0.5688 -1.4004
 1005MOL0     H38631   1.940   6.750   7.749 -0.6123 -1.6990 -0.7872
 1005MOL0     H38632   1.963   6.852   7.607  1.6262  0.0045 -0.5494
 1005MOL0     H38633   2.159   6.656   7.732  0.4092 -2.5411 -3.7858
 1005MOL0     H38634   2.189   6.721   7.578 -1.8128 -0.5366 -2.0137
 1005MOL0     H38635   2.120   6.910   7.823 -1.0143 -0.3573 -1.6117
 1005MOL0     H38636   2.176   6.955   7.656  2.4960  2.5198  1.4360
 1005MOL0     H38637   2.344   6.811   7.873  2.8483  0.5722  0.2888
 1005MOL0     H38638   2.378   6.823   7.696 -0.6058  0.4146 -0.8372
 1005MOL0     H38639   2.528   7.013   7.634  2.0585 -0.5090  1.9676
 1005MOL0     H38640   2.691   7.276   7.807  1.4227 -4.0098 -1.6186
 1005MOL0     H38641   2.565   7.385   7.723  1.0356  0.8671 -1.9973
 1005MOL0     H38642   2.707   7.152   7.587 -1.4080  0.4087  2.8893
 1005MOL0     H38643   2.601   7.277   7.512  0.0404 -1.4109 -0.8386
 1005MOL0     H38644   2.839   7.353   7.685  1.7634  0.0137 -1.1245
 1005MOL0     H38645   2.896   7.301   7.531  0.2042  1.2069 -3.0150
 1005MOL0     H38646   2.730   7.485   7.436  0.7982 -0.6851 -0.0402
 1005MOL0     H38647   2.724   7.542   7.605  0.2063  0.1570  0.3733
 1005MOL0     H38648   2.722   7.726   7.484  0.8355 -0.8720 -0.1275
 1005MOL0     H38649   2.606   7.907   7.401 -1.0501  0.8192 -0.6897
 1005MOL0     H38650   2.662   7.980   7.247  3.6537  2.8710 -0.8777
 1005MOL0     H38651   2.699   8.060   7.382 -2.8359  0.6626 -0.9800
 1005MOL0     H38652   2.859   8.264   7.274 -0.4384  0.1453 -0.1440
 1005MOL0     H38653   2.852   8.498   7.242 -2.1078 -0.8683 -3.2857
 1005MOL0     H38654   2.925   8.714   7.235 -0.5173 -3.0044 -0.0338
 1005MOL0     H38655   2.967   8.832   7.125  0.0213  0.6644  0.2291
 1005MOL0     H38656   2.822   8.741   6.940 -0.5037  0.7103 -0.5869
 1005MOL0     H38657   2.762   8.607   7.035  0.4604  0.6145  1.2774
 1005MOL0     H38658   2.684   8.888   7.032  0.8550  1.1985  0.7677
 1005MOL0     H38659   2.745   8.842   7.201 -1.5231 -3.9250  3.1081
 1005MOL0     H38660   2.564   8.681   7.224 -0.9284  0.5730  1.3321
 1005MOL0     H38661   2.497   8.702   7.061 -2.0058  3.8099  0.4722
 1005MOL0     H38662   2.488   8.917   7.266  0.3155  0.1631 -0.7128
 1005MOL0     H38663   2.445   8.933   7.096  0.0639 -0.5678 -0.0828
 1005MOL0     H38664   2.243   8.890   7.252 -1.5615  0.3196 -4.4188
 1005MOL0     H38665   2.332   8.750   7.312 -2.9537 -0.3671  1.2137
 1005MOL0     H38666   2.157   8.659   7.174 -1.6178  1.7156 -1.4611
 1005MOL0     H38667   2.308   8.626   7.102  0.8524 -1.4064  2.4244
 1005MOL0     H38668   2.176   8.710   6.919  0.4018  0.4836 -0.6304
 1005MOL0     H38669   2.224   8.880   6.974  0.9206 -0.0010  0.3439
 1005MOL0     H38670   3.213   8.474   6.997  1.2959 -0.2107  2.1538
 1005MOL0     H38671   3.225   8.232   7.050  0.0386  2.1750 -2.9395
 1005MOL0     H38672   3.134   7.858   7.249 -0.4940 -0.8882  0.0461
 1005MOL0     H38673   3.131   7.672   7.389  0.0374 -0.7628 -2.9472
 1005MOL0     H38674   1.601   6.592   7.280 -1.6889 -0.7569  2.0478
 1005MOL0     H38675   1.465   6.647   7.073  0.5104 -1.8776 -3.3359
 1005MOL0     H38676   1.354   6.533   6.593 -0.4638 -2.4730  1.6687
 1005MOL0     H38677   1.207   6.586   6.415 -1.4023  0.2036 -0.8066
 1005MOL0     H38678   0.769   6.643   6.441 -0.4399  0.2296  1.4997
 1005MOL0     H38679   0.817   6.765   6.544 -1.5696  2.8183 -1.2830
 1005MOL0     H38680   0.889   6.899   6.330 -0.9955  1.7005 -1.7351
 1005MOL0     H38681   0.708   6.885   6.372  0.3968  0.5221 -1.5461
 1005MOL0     H38682   0.799   6.828   6.122 -1.9903  1.6725  0.2882
 1005MOL0     H38683   0.822   6.667   6.197 -1.3631 -0.9441 -2.5775
 1005MOL0     H38684   0.572   6.821   6.187  3.3649  1.0573  0.9132
 1005MOL0     H38685   0.595   6.658   6.269  2.1990 -1.8190  0.0481
 1005MOL0     H38686   0.621   6.575   5.848  0.5393  1.3118 -0.2466
 1005MOL0     H38687   0.918   6.702   6.704  1.1021  1.2707  1.1383
 1005MOL0     H38688   1.037   6.529   6.968  3.7175  0.8565  3.6811
 1005MOL0     H38689   1.110   6.688   6.989  2.6536 -1.1913 -1.1842
 1005MOL0     H38690   0.939   6.664   6.926  0.9033  2.4657  1.7633
 1006MOL0     O38691   0.796   2.435   2.037  0.3177  0.0982  0.7537
 1006MOL0     C38692   0.680   2.442   2.069  0.1464 -0.2372 -0.2585
 1006MOL0     O38693   0.611   2.566   2.070 -0.0185 -0.3616  0.0732
 1006MOL0     C38694   0.675   2.676   2.022 -0.3153  0.0463 -0.3543
 1006MOL0     C38695   0.680   2.677   1.881  0.3700 -0.3098 -1.1546
 1006MOL0     C38696   0.744   2.784   1.821 -0.0485 -0.1173  0.2212
 1006MOL0     C38697   0.796   2.890   1.892  1.2596 -0.1511 -0.5025
 1006MOL0     O38698   0.846   2.994   1.820 -0.0767 -0.6647  0.2361
 1006MOL0     C38699   0.750   3.099   1.790  0.4644 -0.3273  0.5958
 1006MOL0     C38700   0.779   3.155   1.644 -0.3647  0.6824 -1.6658
 1006MOL0     C38701   0.883   3.267   1.643  0.0769 -0.5016 -0.1291
 1006MOL0     C38702   0.875   3.340   1.503 -0.3558  0.5258  0.1732
 1006MOL0     C38703   0.980   3.446   1.462 -0.2972  0.0980 -0.4611
 1006MOL0     C38704   0.932   3.527   1.343  0.1049 -0.0929 -0.0596
 1006MOL0     C38705   1.044   3.593   1.263  0.0506  0.1394 -0.5937
 1006MOL0     C38706   1.134   3.483   1.187 -0.1378 -1.0437 -0.5294
 1006MOL0     N38707   1.062   3.394   1.103 -0.2856 -0.1819  0.2703
 1006MOL0     C38708   1.061   3.420   0.965  0.2445  0.9318 -0.0661
 1006MOL0     C38709   0.994   3.308   0.911 -0.3328  0.0698 -0.4484
 1006MOL0     C38710   0.962   3.265   0.772 -0.0839 -0.9559  0.1991
 1006MOL0     C38711   1.086   3.182   0.720  0.4359  0.3079  0.7307
 1006MOL0     C38712   1.028   3.064   0.634 -0.6760  0.0446 -0.5854
 1006MOL0     C38713   0.981   3.112   0.495  1.1206  0.2261  0.9706
 1006MOL0     O38714   1.095   3.128   0.408 -0.0589 -0.5196  0.2569
 1006MOL0     C38715   1.076   3.160   0.279  0.7210  0.1275  0.0184
 1006MOL0     C38716   1.191   3.147   0.194 -0.3989 -0.4972  0.1891
 1006MOL0     C38717   1.179   3.136   0.054  0.9130  0.1461 -0.4091
 1006MOL0     C38718   1.300   3.099  -0.029  0.7741  0.2373 -1.0757
 1006MOL0     C38719   1.052   3.156  -0.004  0.2066 -0.1387 -0.7526
 1006MOL0     C38720   1.035   3.164  -0.152  0.8673  0.6601  0.5561
 1006MOL0     O38721   0.934   3.087  -0.216  0.0467 -0.3875 -1.3368
 1006MOL0     C38722   0.878   3.131  -0.336 -0.0621  0.3348 -0.1750
 1006MOL0     C38723   0.922   3.084  -0.458 -0.5800 -0.3543  1.1267
 1006MOL0     C38724   0.877   3.153  -0.576 -1.2498  0.0423 -0.2357
 1006MOL0     C38725   0.786   3.253  -0.572  0.1387 -0.9323  0.3685
 1006MOL0     O38726   0.739   3.310  -0.697  0.3104  0.0847 -0.3911
 1006MOL0     C38727   0.631   3.406  -0.673 -0.3201 -0.1714 -0.6834
 1006MOL0     C38728   0.555   3.424  -0.808 -0.6167 -0.1101  0.0994
 1006MOL0     C38729   0.635   3.483  -0.923  0.4794  0.3894  0.4593
 1006MOL0     C38730   0.551   3.516  -1.048  0.5605 -0.2827 -0.3753
 1006MOL0     C38731   0.631   3.589  -1.160 -0.9878  0.2645  0.0292
 1006MOL0     C38732   0.697   3.727  -1.117  0.8197 -0.3204 -0.1962
 1006MOL0     C38733   0.776   3.792  -1.230  0.3560  1.0252 -1.5956
 1006MOL0     C38734   0.685   3.854  -1.344 -0.3691  0.4834 -0.8851
 1006MOL0    Cl38735   0.552   3.960  -1.283  0.1261 -0.1355  0.2305
 1006MOL0     C38736   0.737   3.292  -0.444 -0.8446  0.0493 -1.0547
 1006MOL0     C38737   0.784   3.241  -0.330 -0.2833  0.0591 -0.0981
 1006MOL0     O38738   1.121   3.222  -0.220  0.1676 -0.3048  0.6136
 1006MOL0     C38739   0.939   3.183   0.079  0.3387  0.7490 -0.0932
 1006MOL0     C38740   0.946   3.172   0.220 -0.1100 -0.3668  0.1285
 1006MOL0     N38741   0.964   3.226   1.025 -0.1480  0.3975  0.8618
 1006MOL0     N38742   0.984   3.283   1.133  0.5874  0.0173 -0.4930
 1006MOL0     C38743   0.784   2.889   2.031  1.0386  0.8053 -0.5025
 1006MOL0     C38744   0.723   2.778   2.095 -0.0861  0.2249 -0.4412
 1006MOL0     C38745   0.611   2.317   2.097 -0.4135  0.2028 -0.1160
 1006MOL0     C38746   0.492   2.333   2.174 -0.6701  0.1277 -0.5390
 1006MOL0     C38747   0.418   2.229   2.217 -0.0384 -0.6835  0.2478
 1006MOL0     C38748   0.463   2.099   2.197  0.1582  0.0343  0.5296
 1006MOL0     O38749   0.391   1.985   2.223 -0.8341 -0.8370 -0.3355
 1006MOL0     C38750   0.256   1.999   2.266 -0.6966 -0.0020 -0.2145
 1006MOL0     C38751   0.205   1.862   2.291  0.1245 -0.6293 -0.5191
 1006MOL0     C38752   0.120   1.811   2.177 -0.3898 -0.1994  0.8451
 1006MOL0     C38753   0.087   1.654   2.184  0.2770 -0.5955  0.2374
 1006MOL0     C38754  -0.019   1.634   2.283  0.3167 -0.5908  0.0897
 1006MOL0     C38755  -0.114   1.615   2.357 -0.2050 -0.4525  0.5085
 1006MOL0     C38756   0.586   2.077   2.135  0.2132  0.3108  0.0844
 1006MOL0     C38757   0.664   2.180   2.076 -0.3500 -0.3379  0.5605
 1006MOL0     C38758   0.783   2.141   2.004 -0.3781  0.3278 -0.0309
 1006MOL0     H38759   0.637   2.602   1.816 -0.2600 -1.5632  0.6063
 1006MOL0     H38760   0.745   2.792   1.713  0.3828  3.5914  0.3511
 1006MOL0     H38761   0.765   3.175   1.867  3.6702 -0.1875 -0.0239
 1006MOL0     H38762   0.648   3.061   1.780  1.2441 -1.8850 -3.3803
 1006MOL0     H38763   0.817   3.078   1.575 -2.0978  1.4360 -3.5899
 1006MOL0     H38764   0.684   3.183   1.598 -1.3968  0.7313  0.3862
 1006MOL0     H38765   0.868   3.338   1.725 -1.2951 -0.6565 -0.2253
 1006MOL0     H38766   0.979   3.216   1.655  1.0157  1.0588 -0.7616
 1006MOL0     H38767   0.851   3.265   1.427  0.2633 -0.9314  1.3586
 1006MOL0     H38768   0.784   3.398   1.520 -0.3608 -0.2811  3.8259
 1006MOL0     H38769   1.074   3.394   1.442  1.6103  1.9627  2.7152
 1006MOL0     H38770   1.003   3.523   1.536 -3.3623  1.4925 -0.8122
 1006MOL0     H38771   0.890   3.451   1.276  0.7936 -3.0106  2.5700
 1006MOL0     H38772   0.848   3.594   1.366  0.6195  0.5390 -0.0020
 1006MOL0     H38773   1.105   3.661   1.323 -2.4515  1.5953  0.4417
 1006MOL0     H38774   0.998   3.660   1.189 -3.0708  0.7411  1.6990
 1006MOL0     H38775   1.206   3.544   1.131  1.9857 -1.8234  1.2194
 1006MOL0     H38776   1.182   3.429   1.269 -0.5122  2.0218  1.9205
 1006MOL0     H38777   1.103   3.497   0.901  1.4408 -1.5852 -2.5312
 1006MOL0     H38778   0.943   3.352   0.708  0.7667 -0.0101  1.1796
 1006MOL0     H38779   0.863   3.218   0.775 -1.5442  1.8596 -0.3425
 1006MOL0     H38780   1.160   3.248   0.673  0.1906  0.9454  1.2129
 1006MOL0     H38781   1.143   3.141   0.804  2.9328  3.6724  0.8748
 1006MOL0     H38782   1.107   2.990   0.618 -0.8899 -0.3416  0.0952
 1006MOL0     H38783   0.951   3.013   0.692 -0.9866  1.0023 -0.1229
 1006MOL0     H38784   0.912   3.040   0.448  2.1011 -0.3911  0.4442
 1006MOL0     H38785   0.928   3.208   0.499  0.5775  0.1057 -1.5493
 1006MOL0     H38786   1.287   3.122   0.238  2.3833  0.8228 -4.4650
 1006MOL0     H38787   1.336   3.186  -0.085  0.7036  0.7693 -0.3174
 1006MOL0     H38788   1.257   3.026  -0.098  0.4640  1.0287 -1.7384
 1006MOL0     H38789   1.382   3.060   0.032 -0.0575 -0.2024 -0.2122
 1006MOL0     H38790   0.990   3.000  -0.464 -0.7686 -0.6025  2.1754
 1006MOL0     H38791   0.920   3.132  -0.674  0.9744 -1.1050  0.9103
 1006MOL0     H38792   0.565   3.364  -0.596  1.8623  0.5890  1.7434
 1006MOL0     H38793   0.674   3.504  -0.650  2.1658 -0.8329 -2.1459
 1006MOL0     H38794   0.520   3.325  -0.836 -0.3456  0.2049 -1.4557
 1006MOL0     H38795   0.473   3.496  -0.800  0.8246  1.5833  0.3551
 1006MOL0     H38796   0.703   3.401  -0.947 -0.3802  0.0411 -0.8886
 1006MOL0     H38797   0.696   3.567  -0.889 -1.6623  2.6478 -0.9177
 1006MOL0     H38798   0.477   3.588  -1.013  2.5803  2.3788 -1.2442
 1006MOL0     H38799   0.499   3.430  -1.091 -0.8092  0.7071 -0.7463
 1006MOL0     H38800   0.711   3.523  -1.193 -0.1796 -0.2057  2.6505
 1006MOL0     H38801   0.567   3.611  -1.246 -1.2674 -1.3072 -0.1771
 1006MOL0     H38802   0.770   3.717  -1.036  0.4611  3.4792  0.7702
 1006MOL0     H38803   0.636   3.805  -1.072  0.3592 -1.9213  2.1635
 1006MOL0     H38804   0.862   3.738  -1.270  0.1066 -1.2244  0.6924
 1006MOL0     H38805   0.836   3.872  -1.186 -0.1834  1.0904 -0.9514
 1006MOL0     H38806   0.643   3.775  -1.407 -3.8579  3.7510 -3.1279
 1006MOL0     H38807   0.764   3.905  -1.400  1.2232 -0.9509 -0.0450
 1006MOL0     H38808   0.670   3.376  -0.432  0.1676  1.1267 -2.5141
 1006MOL0     H38809   0.767   3.280  -0.230  4.9120 -0.4227  1.2361
 1006MOL0     H38810   0.848   3.211   0.027 -0.6824 -3.4259 -0.9260
 1006MOL0     H38811   0.850   3.184   0.268 -0.2130 -0.9300  0.0674
 1006MOL0     H38812   0.833   2.973   2.079  1.9648  1.2801 -2.1905
 1006MOL0     H38813   0.711   2.782   2.202  1.5155  0.2203 -0.2371
 1006MOL0     H38814   0.459   2.432   2.204 -0.5980 -1.4576  6.4061
 1006MOL0     H38815   0.329   2.252   2.275  0.0292 -1.0414  0.4944
 1006MOL0     H38816   0.248   2.061   2.356 -1.1278  1.0329 -0.9447
 1006MOL0     H38817   0.211   2.047   2.179  0.6363 -0.1191 -0.9892
 1006MOL0     H38818   0.134   1.863   2.374 -0.3406  3.0069 -0.7908
 1006MOL0     H38819   0.293   1.800   2.310  1.4881  1.3474 -0.0060
 1006MOL0     H38820   0.022   1.858   2.179 -0.0113  0.6191  0.8836
 1006MOL0     H38821   0.161   1.828   2.076  0.0123 -2.4420  0.5698
 1006MOL0     H38822   0.177   1.595   2.203  1.0188  0.4354  0.0183
 1006MOL0     H38823   0.038   1.623   2.091  0.3208  1.7297 -0.6245
 1006MOL0     H38824  -0.198   1.591   2.419 -0.4948  2.5031  1.3791
 1006MOL0     H38825   0.615   1.973   2.136 -1.7464 -0.2818  0.8877
 1006MOL0     H38826   0.867   2.204   2.034  2.3806 -2.0703 -2.0094
 1006MOL0     H38827   0.813   2.036   2.018 -3.4107 -0.6710 -0.2510
 1006MOL0     H38828   0.778   2.154   1.895 -2.2988 -0.5735 -0.0816
 1007MOL0     O38829   7.938   7.269   6.324 -0.8198 -0.5037  0.2617
 1007MOL0     C38830   7.907   7.212   6.226  0.3138  0.4980  0.5897
 1007MOL0     O38831   7.813   7.254   6.141  0.6425  0.2543  0.4611
 1007MOL0     C38832   7.791   7.381   6.118  1.0316 -1.3435 -1.0078
 1007MOL0     C38833   7.884   7.457   6.060  0.0014 -0.0854  0.5822
 1007MOL0     C38834   7.845   7.586   6.020 -0.2922 -0.1018  0.4615
 1007MOL0     C38835   7.712   7.637   6.050  1.1748  0.5619  0.0246
 1007MOL0     O38836   7.660   7.766   6.037  0.1595 -0.7402  0.2449
 1007MOL0     C38837   7.737   7.865   5.972 -0.5162 -0.1755  1.0088
 1007MOL0     C38838   7.690   8.008   5.965  0.1721 -0.4316 -0.0968
 1007MOL0     C38839   7.712   8.081   6.104 -0.8801  0.1918  0.0876
 1007MOL0     C38840   7.629   8.218   6.114 -0.8577  0.2222 -1.0872
 1007MOL0     C38841   7.613   8.258   6.264  0.5501 -0.8497 -0.1754
 1007MOL0     C38842   7.743   8.303   6.332 -0.7418  1.3085  0.5091
 1007MOL0     C38843   7.790   8.441   6.281 -0.3705  0.6412  0.2288
 1007MOL0     C38844   7.886   8.504   6.391 -0.3125  0.0280  0.3272
 1007MOL0     N38845   7.940   8.645   6.350 -0.0990  0.5925 -0.3142
 1007MOL0     C38846   7.987   8.736   6.442  0.3131 -1.0507  0.5405
 1007MOL0     C38847   8.042   8.834   6.361 -0.5336  0.6308  0.2724
 1007MOL0     C38848   8.112   8.961   6.400 -0.5178 -0.2484  0.1739
 1007MOL0     C38849   8.059   9.093   6.347 -0.6535 -0.5897  0.3651
 1007MOL0     C38850   8.124   9.137   6.216  0.4688  0.1312  0.8840
 1007MOL0     C38851   8.160   9.292   6.210  0.5780  0.0851  0.0360
 1007MOL0     O38852   8.277   9.313   6.287 -0.1046 -0.1693  0.3576
 1007MOL0     C38853   8.286   9.400   6.387  0.3250 -0.0724  0.6491
 1007MOL0     C38854   8.404   9.416   6.454 -0.0595 -0.0402 -0.7259
 1007MOL0     C38855   8.426   9.493   6.569  0.3615  0.2992  0.1374
 1007MOL0     C38856   8.558   9.471   6.641  0.6233  0.9297  0.2561
 1007MOL0     C38857   8.322   9.563   6.621  0.5970 -1.1045  0.3701
 1007MOL0     C38858   8.317   9.622   6.756 -0.1912  0.5717  0.4641
 1007MOL0     O38859   8.184   9.654   6.801 -0.1819  0.9081  0.5825
 1007MOL0     C38860   8.156   9.710   6.914 -0.1860 -0.5888  0.3354
 1007MOL0     C38861   8.032   9.686   6.973 -0.6048  0.4666 -0.4198
 1007MOL0     C38862   8.002   9.745   7.097  0.0574 -0.8227  0.1237
 1007MOL0     C38863   8.094   9.827   7.169  0.9152  0.6101 -0.1480
 1007MOL0     O38864   8.077   9.891   7.287 -0.9168  0.0096  0.3099
 1007MOL0     C38865   7.943   9.900   7.337 -0.1152 -0.3496  0.3009
 1007MOL0     C38866   7.934   9.960   7.476  0.8715 -0.4891  1.3759
 1007MOL0     C38867   8.028   9.905   7.581  0.0420  0.7677  0.6362
 1007MOL0     C38868   8.015   9.988   7.705  0.1241 -0.8819 -0.8900
 1007MOL0     C38869   8.109   9.944   7.818 -0.3106  0.4037  0.7708
 1007MOL0     C38870   8.079   9.797   7.861  0.3153 -0.1080  0.3761
 1007MOL0     C38871   8.167   9.741   7.973 -0.2492 -0.8214  0.0568
 1007MOL0     C38872   8.122   9.606   8.025  0.4327 -0.1812  0.4338
 1007MOL0    Cl38873   8.174   9.597   8.201 -0.0180 -0.4341  0.3939
 1007MOL0     C38874   8.215   9.847   7.108  0.0412  0.7272 -0.7901
 1007MOL0     C38875   8.243   9.805   6.978 -0.4214 -0.2465 -0.2102
 1007MOL0     O38876   8.419   9.629   6.820  0.3502 -0.2247 -0.0626
 1007MOL0     C38877   8.199   9.559   6.549  0.3368  0.3058 -0.1529
 1007MOL0     C38878   8.179   9.470   6.442  0.1953 -0.3026 -0.0323
 1007MOL0     N38879   8.023   8.805   6.230 -0.3008  0.3290  0.2098
 1007MOL0     N38880   7.957   8.692   6.223  0.2429  0.4547  0.6821
 1007MOL0     C38881   7.619   7.537   6.098 -0.4229 -1.0153  0.3263
 1007MOL0     C38882   7.655   7.409   6.127 -0.0075 -0.0009  0.2057
 1007MOL0     C38883   7.988   7.090   6.190  0.9234 -0.6051  0.6595
 1007MOL0     C38884   8.008   7.054   6.058  0.0702 -0.8006 -0.3647
 1007MOL0     C38885   8.076   6.940   6.010 -0.0350  0.2326  0.5578
 1007MOL0     C38886   8.123   6.848   6.102 -0.1288 -0.6116  1.1966
 1007MOL0     O38887   8.180   6.728   6.083 -0.2066 -0.3199  0.1286
 1007MOL0     C38888   8.221   6.697   5.949 -0.0195  0.3293  1.0595
 1007MOL0     C38889   8.275   6.553   5.943 -0.5791 -0.4634  0.3554
 1007MOL0     C38890   8.417   6.546   6.011  0.6366  0.6458 -0.3814
 1007MOL0     C38891   8.450   6.396   6.057  0.0083 -0.0478 -0.0377
 1007MOL0     C38892   8.588   6.396   6.113 -0.9969 -0.1911 -0.8557
 1007MOL0     C38893   8.702   6.403   6.163  0.7691 -0.1662  0.4229
 1007MOL0     C38894   8.109   6.878   6.238  0.1707 -0.6747 -0.1084
 1007MOL0     C38895   8.038   6.989   6.284 -0.3203  0.7027  0.8975
 1007MOL0     C38896   8.006   6.984   6.436 -0.2687  0.1323  0.1205
 1007MOL0     H38897   7.980   7.415   6.034  0.4631  0.1945  1.7606
 1007MOL0     H38898   7.927   7.653   5.994 -1.9619  2.5912  1.6584
 1007MOL0     H38899   7.760   7.835   5.869  1.9485  2.7393  0.5591
 1007MOL0     H38900   7.838   7.868   6.015  0.6594  1.6008 -1.5790
 1007MOL0     H38901   7.746   8.054   5.883 -2.2643  3.3699  0.0908
 1007MOL0     H38902   7.585   8.008   5.934  0.7363 -0.0834 -2.1710
 1007MOL0     H38903   7.661   8.022   6.182 -0.1844  0.0799  0.4598
 1007MOL0     H38904   7.819   8.088   6.121  0.0476 -0.4647 -4.3941
 1007MOL0     H38905   7.672   8.304   6.061 -1.4257  0.3718 -1.3142
 1007MOL0     H38906   7.534   8.201   6.063  0.0601  1.6267 -3.4513
 1007MOL0     H38907   7.579   8.167   6.314 -3.4231  1.3228  1.5312
 1007MOL0     H38908   7.536   8.335   6.269  0.5880 -0.8779  1.0930
 1007MOL0     H38909   7.725   8.319   6.439  2.1022  0.1264  1.2791
 1007MOL0     H38910   7.816   8.226   6.305  0.2635  2.6985 -0.9165
 1007MOL0     H38911   7.706   8.512   6.279 -1.3412 -0.4714  0.6857
 1007MOL0     H38912   7.846   8.428   6.188 -1.9172 -0.3710 -0.6000
 1007MOL0     H38913   7.829   8.522   6.483 -0.6214  1.4126 -0.1130
 1007MOL0     H38914   7.964   8.441   6.434 -0.1039 -0.7821 -1.1701
 1007MOL0     H38915   7.985   8.732   6.551  2.6067 -1.6202  0.6015
 1007MOL0     H38916   8.215   8.960   6.364 -0.3251 -1.1051  0.7317
 1007MOL0     H38917   8.104   8.970   6.508 -0.3410  0.2277  0.1515
 1007MOL0     H38918   7.954   9.078   6.320 -0.4305  0.0730 -0.9446
 1007MOL0     H38919   8.069   9.169   6.425 -1.3305 -1.8451  1.7116
 1007MOL0     H38920   8.208   9.070   6.191 -0.8040 -2.0932  2.1724
 1007MOL0     H38921   8.048   9.122   6.139  1.4784 -0.6490 -0.0098
 1007MOL0     H38922   8.166   9.302   6.101 -0.9800 -3.3098 -0.5189
 1007MOL0     H38923   8.078   9.359   6.238  0.7087  0.2903 -0.0703
 1007MOL0     H38924   8.481   9.357   6.406 -0.8762 -0.3567 -1.6891
 1007MOL0     H38925   8.538   9.414   6.732 -3.4670  0.2158 -0.8820
 1007MOL0     H38926   8.617   9.563   6.649 -0.1247  1.6245 -1.5881
 1007MOL0     H38927   8.619   9.411   6.573 -0.4701 -1.5962  1.3881
 1007MOL0     H38928   7.967   9.607   6.936  1.4350 -1.5150 -0.0545
 1007MOL0     H38929   7.905   9.723   7.139  0.1740 -1.0537  0.2735
 1007MOL0     H38930   7.888   9.963   7.267 -2.9394 -2.3044  0.5729
 1007MOL0     H38931   7.892   9.803   7.340  0.9655 -0.9269  0.6910
 1007MOL0     H38932   7.971  10.062   7.461  0.0169 -0.1762  1.3163
 1007MOL0     H38933   7.829   9.969   7.505 -0.0973 -0.8070 -1.6823
 1007MOL0     H38934   8.127   9.903   7.537 -0.6524 -2.1158 -1.0293
 1007MOL0     H38935   8.009   9.801   7.610  1.4790  1.5507  5.2720
 1007MOL0     H38936   7.912   9.990   7.740 -0.4260  0.5118 -2.4710
 1007MOL0     H38937   8.035  10.093   7.679 -0.6533 -0.8358 -1.3376
 1007MOL0     H38938   8.216   9.938   7.796 -0.6859  0.2454 -1.1698
 1007MOL0     H38939   8.091  10.009   7.904 -1.6424 -0.5061  1.2090
 1007MOL0     H38940   8.077   9.728   7.776 -1.6955 -1.6641  1.5946
 1007MOL0     H38941   7.974   9.804   7.893  0.0117 -0.3099 -0.5331
 1007MOL0     H38942   8.172   9.821   8.048 -1.8976  0.5593 -1.2103
 1007MOL0     H38943   8.264   9.746   7.921 -1.1485  0.5669 -1.5901
 1007MOL0     H38944   8.141   9.520   7.960 -3.6891 -0.8207 -0.2352
 1007MOL0     H38945   8.013   9.615   8.033  0.3142 -0.4303 -0.7440
 1007MOL0     H38946   8.291   9.907   7.156  1.4290  0.0359 -2.0323
 1007MOL0     H38947   8.339   9.833   6.938  0.2982 -2.3812 -0.1030
 1007MOL0     H38948   8.108   9.600   6.591 -1.2955 -2.4176 -0.7666
 1007MOL0     H38949   8.079   9.470   6.400  0.0555  0.1158  0.3053
 1007MOL0     H38950   7.518   7.574   6.110  0.5678  1.2209  2.6061
 1007MOL0     H38951   7.584   7.332   6.154  0.0150 -0.4127 -0.8468
 1007MOL0     H38952   7.969   7.122   5.983 -2.1062 -1.4017  0.1564
 1007MOL0     H38953   8.081   6.942   5.902 -1.0947  1.8544  0.4924
 1007MOL0     H38954   8.138   6.705   5.878  0.8192  2.9609  0.2227
 1007MOL0     H38955   8.299   6.767   5.917 -0.6014  0.3731 -0.3539
 1007MOL0     H38956   8.282   6.514   5.841  2.4784  2.2534 -0.6745
 1007MOL0     H38957   8.201   6.493   5.995 -1.7831 -0.5235 -1.3612
 1007MOL0     H38958   8.489   6.585   5.938  1.6550  0.3043  0.4197
 1007MOL0     H38959   8.420   6.620   6.091  0.3427 -0.2316  0.4594
 1007MOL0     H38960   8.439   6.327   5.973  3.1724 -1.2020  0.3538
 1007MOL0     H38961   8.375   6.364   6.130 -0.8052  1.8564  0.0236
 1007MOL0     H38962   8.794   6.420   6.216  1.4625  0.9566 -1.0759
 1007MOL0     H38963   8.136   6.813   6.321 -1.5691  1.7779  2.5803
 1007MOL0     H38964   7.951   7.075   6.461  0.1117  0.0338  1.3758
 1007MOL0     H38965   7.944   6.895   6.451 -0.6634  0.3649 -0.1202
 1007MOL0     H38966   8.098   6.994   6.494  1.5562  1.9376 -2.8253
 1008MOL0     O38967   3.146   4.475   9.177  0.3088  0.4165 -0.3671
 1008MOL0     C38968   3.209   4.443   9.082  0.4620 -0.2143 -0.1901
 1008MOL0     O38969   3.328   4.489   9.045  0.0489 -0.0828  0.2575
 1008MOL0     C38970   3.407   4.569   9.114 -0.4649 -0.5986  0.5070
 1008MOL0     C38971   3.388   4.636   9.235 -0.8333  0.0197  0.9019
 1008MOL0     C38972   3.499   4.689   9.307  0.0291  0.4545  0.2940
 1008MOL0     C38973   3.629   4.681   9.246  0.5391  0.4363 -0.2223
 1008MOL0     O38974   3.728   4.755   9.308 -0.3883  0.2966 -0.3129
 1008MOL0     C38975   3.768   4.710   9.442 -0.1856 -1.0831 -0.3315
 1008MOL0     C38976   3.844   4.824   9.518  0.1981  0.1868 -0.6945
 1008MOL0     C38977   3.747   4.892   9.621  0.0115 -0.6195  0.4499
 1008MOL0     C38978   3.631   4.962   9.550 -0.5882  0.6727 -0.3736
 1008MOL0     C38979   3.556   5.055   9.650  1.1855  0.7920  0.5716
 1008MOL0     C38980   3.426   5.105   9.590  0.4064  0.3184  0.3282
 1008MOL0     C38981   3.406   5.253   9.624  0.2166  0.2091  0.3383
 1008MOL0     C38982   3.266   5.314   9.634 -0.2144  0.2904  0.3196
 1008MOL0     N38983   3.176   5.274   9.520  0.3153 -0.0368 -0.0081
 1008MOL0     C38984   3.181   5.326   9.392 -0.4390  0.5131  0.4763
 1008MOL0     C38985   3.078   5.269   9.325  0.3432  0.4518 -0.0122
 1008MOL0     C38986   3.038   5.307   9.183  0.1901  0.6978  0.0905
 1008MOL0     C38987   3.132   5.246   9.082  0.3779 -1.1228  0.6459
 1008MOL0     C38988   3.087   5.308   8.931 -0.1090  0.1241 -0.8603
 1008MOL0     C38989   3.178   5.234   8.832 -0.9625  0.0422 -0.0635
 1008MOL0     O38990   3.326   5.237   8.861  1.0277  0.2328  0.6354
 1008MOL0     C38991   3.403   5.325   8.796 -0.5660  0.5866  0.2844
 1008MOL0     C38992   3.547   5.319   8.824  0.4345  0.7959  1.0101
 1008MOL0     C38993   3.637   5.403   8.765 -0.0735  0.9362 -0.7585
 1008MOL0     C38994   3.786   5.386   8.797  0.2705  0.5521 -0.0360
 1008MOL0     C38995   3.593   5.498   8.674 -0.9640  1.1245 -0.0385
 1008MOL0     C38996   3.681   5.604   8.607  0.1777  0.6545 -0.0606
 1008MOL0     O38997   3.619   5.650   8.491  0.0116  0.1944 -0.5214
 1008MOL0     C38998   3.684   5.735   8.405 -0.4953  0.5015  0.2973
 1008MOL0     C38999   3.763   5.673   8.305 -0.9807  0.7995 -1.1258
 1008MOL0     C39000   3.841   5.754   8.218 -0.4727  1.1582 -0.9121
 1008MOL0     C39001   3.843   5.894   8.243 -0.4375  0.0148  0.7269
 1008MOL0     O39002   3.936   5.971   8.176  0.2707  0.5504  0.3455
 1008MOL0     C39003   4.060   5.987   8.249  0.0222 -0.5848 -0.0099
 1008MOL0     C39004   4.155   6.077   8.170  0.1156  0.2290  0.8112
 1008MOL0     C39005   4.115   6.220   8.153  0.2959 -1.0332 -0.1367
 1008MOL0     C39006   4.241   6.306   8.164 -0.6212 -1.1101 -0.6250
 1008MOL0     C39007   4.214   6.465   8.162  0.3592  0.3516 -0.9077
 1008MOL0     C39008   4.187   6.504   8.016 -0.3310  0.7422 -1.1374
 1008MOL0     C39009   4.154   6.654   8.018 -0.0853  0.7120 -0.4289
 1008MOL0     C39010   4.135   6.716   7.880  1.2739 -0.0598 -0.4071
 1008MOL0    Cl39011   4.123   6.887   7.915 -0.3980 -0.2963 -0.1587
 1008MOL0     C39012   3.765   5.953   8.341 -0.6603 -0.8333 -0.2376
 1008MOL0     C39013   3.686   5.874   8.427  0.3425 -0.6570  0.4990
 1008MOL0     O39014   3.799   5.634   8.645 -0.4032 -0.3611 -0.6015
 1008MOL0     C39015   3.458   5.513   8.653 -0.4555  0.6847  0.0456
 1008MOL0     C39016   3.364   5.433   8.712  0.4489  0.5985  0.0193
 1008MOL0     N39017   3.026   5.172   9.409  0.3934  0.7738  0.4343
 1008MOL0     N39018   3.077   5.185   9.524  0.6210 -0.0111  0.3006
 1008MOL0     C39019   3.647   4.618   9.127  0.0281 -0.7081 -0.3921
 1008MOL0     C39020   3.543   4.564   9.065  0.3617 -0.2168  0.7156
 1008MOL0     C39021   3.152   4.336   8.997  0.0324  0.2697  0.1734
 1008MOL0     C39022   3.234   4.232   8.950  0.1534  0.1675 -0.4258
 1008MOL0     C39023   3.178   4.124   8.889  0.2815  0.0202  0.0228
 1008MOL0     C39024   3.040   4.122   8.865 -0.5665  0.3424 -0.1931
 1008MOL0     O39025   2.974   4.026   8.789 -0.1250 -0.3141 -0.2960
 1008MOL0     C39026   3.052   3.917   8.740  0.2625  0.3765  0.1086
 1008MOL0     C39027   2.966   3.830   8.649 -0.8928 -0.3395 -0.8716
 1008MOL0     C39028   2.886   3.911   8.544 -0.3883 -0.0215 -0.5441
 1008MOL0     C39029   2.805   3.837   8.441 -0.1595 -0.1259 -0.4925
 1008MOL0     C39030   2.750   3.926   8.345  0.2698 -0.6069 -0.3834
 1008MOL0     C39031   2.706   3.998   8.258  0.8152 -0.1545  0.6926
 1008MOL0     C39032   2.964   4.221   8.908 -0.4569  0.0520  0.3370
 1008MOL0     C39033   3.011   4.335   8.974 -0.4352  0.5745 -0.1612
 1008MOL0     C39034   2.914   4.448   8.997 -0.3024 -0.9806  0.0912
 1008MOL0     H39035   3.288   4.663   9.267  0.5675  5.6897  1.5025
 1008MOL0     H39036   3.468   4.746   9.394  0.4051 -0.1373  0.8204
 1008MOL0     H39037   3.835   4.625   9.425 -0.7381 -1.1452 -2.4552
 1008MOL0     H39038   3.674   4.693   9.495 -0.5376 -6.4505 -2.0592
 1008MOL0     H39039   3.925   4.781   9.578  2.5824  3.2433 -1.4801
 1008MOL0     H39040   3.894   4.888   9.445 -0.4829 -0.7759 -2.0503
 1008MOL0     H39041   3.705   4.816   9.688  0.6762 -1.9250 -0.5785
 1008MOL0     H39042   3.810   4.961   9.677 -0.7198  2.4509 -2.2229
 1008MOL0     H39043   3.666   5.029   9.471 -1.2560 -0.5015 -1.6900
 1008MOL0     H39044   3.565   4.883   9.515 -0.3651  1.3126 -2.3593
 1008MOL0     H39045   3.623   5.138   9.675  1.2924  0.6604  0.7197
 1008MOL0     H39046   3.527   4.996   9.737 -2.1143 -0.9670 -1.5164
 1008MOL0     H39047   3.422   5.094   9.481 -1.6521 -0.9889  0.4672
 1008MOL0     H39048   3.338   5.046   9.618  1.6408 -3.0734 -2.2290
 1008MOL0     H39049   3.479   5.302   9.559 -0.1647 -0.6020 -0.7190
 1008MOL0     H39050   3.447   5.286   9.720 -1.2385  1.1222  0.6816
 1008MOL0     H39051   3.220   5.276   9.725 -0.7500  1.0142  0.3686
 1008MOL0     H39052   3.275   5.423   9.632 -2.0683  0.5434  2.3738
 1008MOL0     H39053   3.244   5.398   9.341 -0.0241  0.5797  1.0703
 1008MOL0     H39054   3.033   5.416   9.180 -1.2113  0.9050  4.1148
 1008MOL0     H39055   2.934   5.272   9.176 -0.4664  1.6419  3.4438
 1008MOL0     H39056   3.235   5.281   9.096  0.4539 -0.6452 -0.9064
 1008MOL0     H39057   3.131   5.137   9.088  0.7743 -1.4168 -2.6138
 1008MOL0     H39058   2.984   5.278   8.908 -0.1863  0.1844 -0.5952
 1008MOL0     H39059   3.078   5.417   8.932  1.0023  0.2585  1.3264
 1008MOL0     H39060   3.134   5.134   8.820 -3.4814  1.3390 -2.8666
 1008MOL0     H39061   3.173   5.265   8.728  2.2173  0.9572 -0.0262
 1008MOL0     H39062   3.564   5.240   8.897  0.1824 -0.8406 -0.6245
 1008MOL0     H39063   3.836   5.374   8.700 -0.8646 -3.7437 -0.3025
 1008MOL0     H39064   3.811   5.298   8.858 -2.0415  1.3013  2.1807
 1008MOL0     H39065   3.828   5.475   8.844 -0.3923  0.0031  1.6954
 1008MOL0     H39066   3.763   5.564   8.303 -0.7368  0.8023 -2.8810
 1008MOL0     H39067   3.905   5.708   8.143 -0.1393  1.6178 -0.9122
 1008MOL0     H39068   4.039   6.039   8.343 -1.5370 -0.4997 -0.3728
 1008MOL0     H39069   4.105   5.897   8.291  0.8406  0.0786  0.5746
 1008MOL0     H39070   4.249   6.063   8.224  0.4564  0.8641  0.3950
 1008MOL0     H39071   4.167   6.026   8.073 -1.5101  0.4645  0.4627
 1008MOL0     H39072   4.059   6.260   8.238  1.6558  2.4056 -0.6753
 1008MOL0     H39073   4.053   6.249   8.068  4.1766  0.1741 -2.8419
 1008MOL0     H39074   4.314   6.288   8.085 -1.4432  1.7719 -2.2034
 1008MOL0     H39075   4.294   6.288   8.258 -0.5906  1.0613 -0.1761
 1008MOL0     H39076   4.131   6.500   8.225  1.8625  1.4672  0.5336
 1008MOL0     H39077   4.313   6.506   8.186  0.4458 -1.4734  2.6031
 1008MOL0     H39078   4.094   6.456   7.985 -0.1357 -1.6718  1.5551
 1008MOL0     H39079   4.265   6.470   7.948 -1.1759 -0.1325 -1.6925
 1008MOL0     H39080   4.240   6.708   8.058  0.7812 -1.3621  0.6538
 1008MOL0     H39081   4.066   6.658   8.082 -0.4872  0.7720 -0.9788
 1008MOL0     H39082   4.044   6.679   7.831  0.0903 -1.4485  2.5597
 1008MOL0     H39083   4.225   6.687   7.825  0.6498  0.7682 -1.9352
 1008MOL0     H39084   3.780   6.060   8.353 -1.3788 -0.6543 -0.8473
 1008MOL0     H39085   3.635   5.913   8.514 -3.0207 -2.3142 -0.5464
 1008MOL0     H39086   3.418   5.592   8.591 -1.1811  0.9517  0.8406
 1008MOL0     H39087   3.262   5.445   8.678  0.1726 -2.1715 -0.3367
 1008MOL0     H39088   3.746   4.621   9.084  1.1420 -4.9916  1.2952
 1008MOL0     H39089   3.556   4.507   8.973 -0.6004  0.6240  0.0230
 1008MOL0     H39090   3.341   4.244   8.965  0.4005 -1.3781 -0.8600
 1008MOL0     H39091   3.244   4.040   8.870  2.3454  1.8663 -1.5211
 1008MOL0     H39092   3.127   3.965   8.675  0.8801  1.9546  1.9067
 1008MOL0     H39093   3.105   3.867   8.822 -0.4453  5.0159  3.7724
 1008MOL0     H39094   2.893   3.770   8.705  0.5205 -0.4576  0.9698
 1008MOL0     H39095   3.033   3.765   8.592  1.4894  1.6904 -0.5459
 1008MOL0     H39096   2.821   3.978   8.601 -0.0123  0.9111 -1.1806
 1008MOL0     H39097   2.960   3.971   8.491 -1.9267  3.4033  0.8525
 1008MOL0     H39098   2.732   3.769   8.486  0.9686 -1.9522 -1.2694
 1008MOL0     H39099   2.879   3.771   8.393 -1.7747 -1.2694 -1.5112
 1008MOL0     H39100   2.663   4.061   8.183  1.7346 -2.2750 -1.7856
 1008MOL0     H39101   2.863   4.209   8.870  0.1617 -3.9705 -0.5955
 1008MOL0     H39102   2.855   4.439   9.088 -0.2860 -1.2252  0.0784
 1008MOL0     H39103   2.952   4.550   9.005  0.0809 -0.9004 -2.1042
 1008MOL0     H39104   2.839   4.446   8.917  0.2180  0.7622 -0.4937
 1009MOL0     O39105   3.681   6.351   2.865 -0.1529 -0.9652  0.6674
 1009MOL0     C39106   3.760   6.354   2.774  0.9803 -0.5814  0.8203
 1009MOL0     O39107   3.870   6.271   2.752  0.0390 -1.0446  0.0199
 1009MOL0     C39108   3.854   6.141   2.793 -0.4533 -0.3687 -0.7259
 1009MOL0     C39109   3.734   6.081   2.842 -0.4164 -0.1806  0.3610
 1009MOL0     C39110   3.728   5.948   2.878  0.2829  0.2804  0.3126
 1009MOL0     C39111   3.840   5.870   2.882  0.1373 -0.6334 -0.7404
 1009MOL0     O39112   3.813   5.740   2.913 -0.0696 -0.3617  0.1003
 1009MOL0     C39113   3.909   5.679   2.996 -0.4759  0.5896 -0.0725
 1009MOL0     C39114   3.999   5.575   2.918 -1.1390 -0.3752  0.4547
 1009MOL0     C39115   3.921   5.487   2.826  0.6056  0.0442  0.3423
 1009MOL0     C39116   4.013   5.370   2.782  0.3163 -0.2262 -0.0866
 1009MOL0     C39117   3.938   5.265   2.725  0.8023  0.6386 -0.1726
 1009MOL0     C39118   3.823   5.301   2.639  0.2027 -0.5918 -0.1875
 1009MOL0     C39119   3.754   5.189   2.582  0.5672 -0.2346  0.5419
 1009MOL0     C39120   3.671   5.107   2.674  0.4985 -0.4388 -0.2453
 1009MOL0     N39121   3.628   4.978   2.627  0.5571  0.5762 -0.3249
 1009MOL0     C39122   3.714   4.882   2.575 -0.8942  0.3861  0.2707
 1009MOL0     C39123   3.642   4.775   2.542  1.5652  0.2206 -0.3491
 1009MOL0     C39124   3.686   4.647   2.467  0.2810  1.2809 -0.6408
 1009MOL0     C39125   3.663   4.642   2.320  0.9771 -0.1218 -0.1416
 1009MOL0     C39126   3.513   4.588   2.299 -0.1050  0.1835 -0.1631
 1009MOL0     C39127   3.496   4.549   2.147  0.6725 -0.3585 -0.2431
 1009MOL0     O39128   3.503   4.662   2.059 -0.4031 -0.1493 -0.4481
 1009MOL0     C39129   3.574   4.647   1.941  0.1895 -1.2170  0.2179
 1009MOL0     C39130   3.535   4.558   1.842  0.1200  0.3679 -0.0842
 1009MOL0     C39131   3.605   4.532   1.724  0.3304  0.4025 -0.2767
 1009MOL0     C39132   3.529   4.428   1.628 -0.0802 -0.7875 -0.6461
 1009MOL0     C39133   3.723   4.603   1.696  0.7273  0.4544 -0.5001
 1009MOL0     C39134   3.815   4.579   1.574  0.7874 -0.0848 -0.2653
 1009MOL0     O39135   3.903   4.667   1.541  0.2244 -0.2806 -0.1455
 1009MOL0     C39136   4.024   4.607   1.498 -0.2020  0.4004 -0.1041
 1009MOL0     C39137   4.069   4.637   1.370  0.5832 -0.0035 -0.6322
 1009MOL0     C39138   4.188   4.578   1.322  0.8005  0.2227 -0.6321
 1009MOL0     C39139   4.257   4.490   1.414  0.3855 -0.1612  0.2466
 1009MOL0     O39140   4.381   4.446   1.365 -0.1677  0.2260 -0.4464
 1009MOL0     C39141   4.480   4.410   1.455 -0.2515 -0.8779  0.0069
 1009MOL0     C39142   4.605   4.350   1.392  0.7925  0.6589  1.1617
 1009MOL0     C39143   4.722   4.335   1.489 -1.0051 -0.0731 -0.4950
 1009MOL0     C39144   4.860   4.303   1.431 -0.0327 -0.2007 -0.5073
 1009MOL0     C39145   4.954   4.266   1.544 -0.1283  0.2280 -0.2938
 1009MOL0     C39146   5.099   4.238   1.496  0.0144  0.3298 -0.4595
 1009MOL0     C39147   5.188   4.216   1.622 -0.5997 -0.6343 -0.3569
 1009MOL0     C39148   5.335   4.190   1.583  0.7202 -0.3046  0.7912
 1009MOL0    Cl39149   5.408   4.335   1.509  0.0282 -0.0815 -0.0620
 1009MOL0     C39150   4.218   4.470   1.543  0.9568  1.4125 -0.2114
 1009MOL0     C39151   4.097   4.528   1.586  0.5013 -0.1428  0.4276
 1009MOL0     O39152   3.791   4.482   1.502  0.2160 -0.1667 -0.2956
 1009MOL0     C39153   3.764   4.705   1.794  0.1726  0.0756 -0.6641
 1009MOL0     C39154   3.690   4.720   1.913  0.2706  1.2395 -0.1727
 1009MOL0     N39155   3.513   4.806   2.581  0.4416  0.6491 -0.4323
 1009MOL0     N39156   3.506   4.923   2.641  0.5494  0.3120 -0.2415
 1009MOL0     C39157   3.961   5.927   2.843 -0.3344  0.9161 -0.5696
 1009MOL0     C39158   3.964   6.061   2.800 -0.5907  0.3861 -0.4591
 1009MOL0     C39159   3.732   6.448   2.651 -0.5240  0.4225 -0.7173
 1009MOL0     C39160   3.809   6.429   2.528  0.7273  0.5694  0.3181
 1009MOL0     C39161   3.792   6.520   2.423  0.0513  0.7709  0.2932
 1009MOL0     C39162   3.717   6.630   2.432  0.6478 -0.3102  0.0880
 1009MOL0     O39163   3.696   6.728   2.337 -0.5383 -0.2658  0.9751
 1009MOL0     C39164   3.761   6.707   2.210 -0.0817  0.2843 -0.0425
 1009MOL0     C39165   3.776   6.839   2.127  0.1800  0.1763 -0.9984
 1009MOL0     C39166   3.819   6.958   2.215  0.1458  0.7027  0.6480
 1009MOL0     C39167   3.920   7.043   2.148 -0.2401  0.4538 -0.2700
 1009MOL0     C39168   3.869   7.183   2.146 -0.2248  0.8161 -0.5795
 1009MOL0     C39169   3.846   7.302   2.143  0.9229  0.7285 -1.0376
 1009MOL0     C39170   3.641   6.643   2.547 -0.1513 -0.6121 -0.1480
 1009MOL0     C39171   3.648   6.560   2.656 -0.3150 -0.6596 -1.2485
 1009MOL0     C39172   3.566   6.589   2.777 -0.4129  0.2282  0.4958
 1009MOL0     H39173   3.643   6.140   2.838  1.6051  3.3110  1.6469
 1009MOL0     H39174   3.632   5.920   2.920 -0.4762  3.8957  1.3442
 1009MOL0     H39175   3.862   5.636   3.085 -5.1972  2.0473 -1.5986
 1009MOL0     H39176   3.965   5.759   3.047  0.7318 -1.3031  1.7052
 1009MOL0     H39177   4.069   5.631   2.855 -1.0062  0.3752  1.2498
 1009MOL0     H39178   4.058   5.515   2.987 -2.1441 -0.6687  1.0761
 1009MOL0     H39179   3.840   5.452   2.891  0.0080  0.9108  0.0846
 1009MOL0     H39180   3.875   5.545   2.745 -1.5951 -2.3557 -0.2472
 1009MOL0     H39181   4.084   5.409   2.708  1.8280 -0.3222  1.2594
 1009MOL0     H39182   4.061   5.342   2.876 -1.2517 -1.5165  0.3833
 1009MOL0     H39183   3.911   5.198   2.807 -0.0579 -2.0842 -2.5073
 1009MOL0     H39184   4.009   5.201   2.670  0.4886 -0.3001  0.4793
 1009MOL0     H39185   3.745   5.357   2.692 -0.8705 -1.6036 -0.6343
 1009MOL0     H39186   3.863   5.357   2.554  1.0892 -1.8662 -0.6347
 1009MOL0     H39187   3.825   5.127   2.526  1.6142  0.4894  1.0375
 1009MOL0     H39188   3.681   5.231   2.512  2.2059  1.4176 -0.2660
 1009MOL0     H39189   3.733   5.091   2.762  3.8449  2.7411 -1.7688
 1009MOL0     H39190   3.579   5.162   2.698 -1.7670 -3.1513 -2.0533
 1009MOL0     H39191   3.820   4.905   2.565 -0.8715  0.4741  0.6939
 1009MOL0     H39192   3.661   4.552   2.514  1.5485  2.2247  2.1209
 1009MOL0     H39193   3.795   4.646   2.477  0.4745 -4.1635 -0.5030
 1009MOL0     H39194   3.660   4.744   2.281 -1.4837  0.8821  2.3401
 1009MOL0     H39195   3.731   4.574   2.268  2.4799 -0.4987  2.1558
 1009MOL0     H39196   3.494   4.494   2.352  0.1709  1.4890  2.4341
 1009MOL0     H39197   3.442   4.662   2.337  1.0567  1.7088 -0.8465
 1009MOL0     H39198   3.563   4.464   2.130  0.3961 -0.2854 -1.8949
 1009MOL0     H39199   3.393   4.514   2.146  0.8303 -0.8214 -0.4083
 1009MOL0     H39200   3.445   4.506   1.871  0.6143 -0.2715  0.3088
 1009MOL0     H39201   3.520   4.471   1.528 -0.8864 -1.2753 -0.7894
 1009MOL0     H39202   3.431   4.406   1.671  0.0071  0.7074  0.4004
 1009MOL0     H39203   3.591   4.339   1.610 -1.5289 -2.1419  0.7269
 1009MOL0     H39204   4.024   4.697   1.291 -1.5133 -1.7966 -0.8972
 1009MOL0     H39205   4.210   4.608   1.220 -1.7003  2.1556 -0.7097
 1009MOL0     H39206   4.495   4.506   1.506 -0.0373 -1.5676  1.2954
 1009MOL0     H39207   4.443   4.343   1.533 -1.4646  0.2924  0.4930
 1009MOL0     H39208   4.583   4.249   1.358  0.0230  1.5861 -1.3203
 1009MOL0     H39209   4.653   4.399   1.307  0.2389 -1.2408 -0.3192
 1009MOL0     H39210   4.702   4.248   1.551 -0.6350  0.4136  0.3252
 1009MOL0     H39211   4.724   4.431   1.542  4.4262 -0.3224  0.2929
 1009MOL0     H39212   4.902   4.377   1.362 -0.4938 -2.2558 -3.1661
 1009MOL0     H39213   4.830   4.214   1.375 -0.1794 -1.1537  1.0391
 1009MOL0     H39214   4.978   4.341   1.620  4.2149 -1.5388  0.3616
 1009MOL0     H39215   4.916   4.174   1.590  0.5687 -0.1284 -0.4303
 1009MOL0     H39216   5.139   4.326   1.445  0.3111  1.0926  1.0378
 1009MOL0     H39217   5.094   4.147   1.435 -1.8219  0.9163 -1.2681
 1009MOL0     H39218   5.153   4.129   1.679  1.8644 -1.2399  0.3327
 1009MOL0     H39219   5.183   4.302   1.690 -0.9037  0.5284 -1.7973
 1009MOL0     H39220   5.344   4.095   1.528 -0.9703  0.1816 -0.4124
 1009MOL0     H39221   5.398   4.168   1.670  3.2674 -1.7367 -1.2420
 1009MOL0     H39222   4.276   4.417   1.618  0.0039  2.8960  1.6640
 1009MOL0     H39223   4.063   4.527   1.689 -0.9059  1.0156  0.0101
 1009MOL0     H39224   3.854   4.765   1.789 -0.7930  1.5359 -1.1321
 1009MOL0     H39225   3.731   4.781   1.993  0.9220  1.7095 -0.8526
 1009MOL0     H39226   4.049   5.864   2.850 -0.6496  0.1251 -2.8988
 1009MOL0     H39227   4.064   6.090   2.770 -1.3781  3.1065 -0.6886
 1009MOL0     H39228   3.877   6.345   2.531 -1.8279 -1.6339  3.7742
 1009MOL0     H39229   3.850   6.505   2.332 -0.0720 -0.0253  0.3416
 1009MOL0     H39230   3.863   6.666   2.209 -0.6605 -1.2255  0.2910
 1009MOL0     H39231   3.704   6.631   2.155  1.0597  0.7106 -1.8864
 1009MOL0     H39232   3.679   6.861   2.081 -0.4016  1.8546  0.9111
 1009MOL0     H39233   3.842   6.803   2.047  2.4558 -0.5738  1.0980
 1009MOL0     H39234   3.730   7.020   2.228 -0.3972  0.3987 -1.2599
 1009MOL0     H39235   3.860   6.926   2.311  1.4023  0.1446 -0.0576
 1009MOL0     H39236   3.938   7.001   2.049  0.0773 -4.5668  1.6393
 1009MOL0     H39237   4.021   7.043   2.190  0.0426  3.6601 -0.6875
 1009MOL0     H39238   3.831   7.408   2.136 -2.2821  0.5764  1.4662
 1009MOL0     H39239   3.572   6.727   2.547 -0.2747 -0.6824 -1.4303
 1009MOL0     H39240   3.530   6.690   2.754  1.3238  0.2399 -2.6771
 1009MOL0     H39241   3.487   6.513   2.784  0.1056 -0.6487 -2.0823
 1009MOL0     H39242   3.623   6.587   2.870  2.3955 -4.2866 -1.0177
 1010MOL0     O39243  11.450   3.496   6.392 -0.0504 -0.5799 -1.0465
 1010MOL0     C39244  11.565   3.468   6.404  0.1772 -0.9410  0.4818
 1010MOL0     O39245  11.644   3.496   6.515 -0.6702  0.2027 -0.2291
 1010MOL0     C39246  11.610   3.575   6.620  0.5368  0.0214 -0.0253
 1010MOL0     C39247  11.491   3.556   6.691  0.2136  0.2169 -0.5114
 1010MOL0     C39248  11.452   3.631   6.804 -0.0016  0.5474 -0.1377
 1010MOL0     C39249  11.540   3.734   6.851  0.5520 -0.0050 -0.3229
 1010MOL0     O39250  11.513   3.804   6.962 -0.4144 -0.0878  0.6093
 1010MOL0     C39251  11.501   3.940   6.948  0.4509 -0.4883 -0.1063
 1010MOL0     C39252  11.386   3.994   7.036 -0.1454 -0.5326 -0.1094
 1010MOL0     C39253  11.249   3.971   6.970 -0.4976  0.4625  0.7106
 1010MOL0     C39254  11.128   4.005   7.054 -0.2019  0.4557 -0.5570
 1010MOL0     C39255  10.984   3.975   6.992 -1.2794 -0.3912 -0.3005
 1010MOL0     C39256  10.969   3.832   6.939  0.0903  0.6450  0.2431
 1010MOL0     C39257  10.812   3.798   6.933  0.0031 -0.0186 -0.3454
 1010MOL0     C39258  10.742   3.771   7.076  0.3316 -0.5017  0.5348
 1010MOL0     N39259  10.594   3.799   7.092  0.7486  0.2027 -0.6801
 1010MOL0     C39260  10.496   3.696   7.084 -0.8028  0.2251 -0.0969
 1010MOL0     C39261  10.383   3.763   7.109 -0.6022  0.4459 -0.2224
 1010MOL0     C39262  10.254   3.696   7.093 -0.0423  0.1752 -0.9634
 1010MOL0     C39263  10.221   3.607   7.223  1.0285 -0.4892  0.0521
 1010MOL0     C39264  10.089   3.534   7.241 -0.2129 -0.0067 -0.8602
 1010MOL0     C39265   9.986   3.626   7.296  1.4531  0.1136  0.3914
 1010MOL0     O39266   9.920   3.683   7.181  0.6029  0.1138  0.1337
 1010MOL0     C39267   9.791   3.639   7.143 -0.3867  0.8329  0.4288
 1010MOL0     C39268   9.755   3.624   7.003 -0.4654  0.5127  1.1461
 1010MOL0     C39269   9.628   3.570   6.964  0.8476 -0.1542 -1.0252
 1010MOL0     C39270   9.608   3.519   6.828 -0.2950 -0.2313 -0.1115
 1010MOL0     C39271   9.532   3.561   7.054 -0.3944 -0.5180  0.0602
 1010MOL0     C39272   9.385   3.533   7.024 -0.2451 -0.6621  0.2551
 1010MOL0     O39273   9.333   3.409   7.056 -0.2126 -0.2244  0.2084
 1010MOL0     C39274   9.192   3.403   7.042 -0.2565  0.1079  1.0173
 1010MOL0     C39275   9.115   3.467   7.139  0.6601 -0.0256  0.1799
 1010MOL0     C39276   8.976   3.460   7.142 -0.5303 -0.0014 -0.2749
 1010MOL0     C39277   8.915   3.391   7.039  0.2382  0.6363  0.0520
 1010MOL0     O39278   8.780   3.399   7.048 -0.2460  0.6238 -0.5085
 1010MOL0     C39279   8.699   3.377   6.934  0.1285  0.2193  0.0157
 1010MOL0     C39280   8.662   3.230   6.922  0.1863  0.3134  0.0875
 1010MOL0     C39281   8.579   3.178   7.039  0.6299  0.5967 -0.2780
 1010MOL0     C39282   8.552   3.037   7.032  0.6927 -0.0524 -0.5926
 1010MOL0     C39283   8.422   2.992   7.107 -0.1836  0.7515 -0.1397
 1010MOL0     C39284   8.395   2.846   7.085  0.4894  0.3675  0.3630
 1010MOL0     C39285   8.282   2.789   7.177  0.4718  0.1115 -0.6557
 1010MOL0     C39286   8.335   2.770   7.322  0.3914  0.0183 -0.3729
 1010MOL0    Cl39287   8.283   2.614   7.391  0.2044  0.1279  0.2257
 1010MOL0     C39288   8.994   3.334   6.929  0.5692 -0.3996 -1.1350
 1010MOL0     C39289   9.128   3.347   6.936  1.4233  0.5981  0.6552
 1010MOL0     O39290   9.324   3.625   6.971  0.7135  0.3126  0.2672
 1010MOL0     C39291   9.563   3.596   7.182 -0.1711  0.6413 -0.6162
 1010MOL0     C39292   9.688   3.610   7.232  0.2316  0.1747 -0.3734
 1010MOL0     N39293  10.410   3.900   7.134  0.1960 -0.8766  0.1384
 1010MOL0     N39294  10.541   3.910   7.139  0.0080 -0.6473  0.6857
 1010MOL0     C39295  11.648   3.761   6.773  0.2402  0.4322 -0.4164
 1010MOL0     C39296  11.690   3.678   6.670  0.2631 -0.8603  0.7883
 1010MOL0     C39297  11.629   3.388   6.297 -0.4690 -0.2193 -0.0685
 1010MOL0     C39298  11.628   3.449   6.175  0.4099  0.3357 -0.0055
 1010MOL0     C39299  11.673   3.383   6.060 -0.1994 -0.0391 -0.4983
 1010MOL0     C39300  11.723   3.251   6.069 -0.9008  0.4283 -0.5752
 1010MOL0     O39301  11.750   3.189   5.945  0.3148 -0.4115 -0.9040
 1010MOL0     C39302  11.851   3.083   5.942 -0.0359 -0.3962  0.4876
 1010MOL0     C39303  11.790   2.951   5.895  0.4649 -0.8377 -0.0021
 1010MOL0     C39304  11.695   2.889   5.993  0.2121 -0.1660 -0.1281
 1010MOL0     C39305  11.623   2.773   5.930  1.1681 -0.1447  0.5850
 1010MOL0     C39306  11.510   2.738   6.023  0.3140  0.0998 -0.0119
 1010MOL0     C39307  11.398   2.718   6.058 -0.2784 -0.1988  0.2915
 1010MOL0     C39308  11.726   3.191   6.197 -0.5127  0.6841  1.0091
 1010MOL0     C39309  11.691   3.264   6.308  0.0379  0.3603 -0.5900
 1010MOL0     C39310  11.695   3.183   6.435  0.3001 -0.3947 -0.0597
 1010MOL0     H39311  11.431   3.469   6.665  3.4316 -2.1391 -0.5848
 1010MOL0     H39312  11.366   3.598   6.862 -2.2082  2.0581 -2.3547
 1010MOL0     H39313  11.499   3.967   6.842  0.2409 -2.0777 -0.5295
 1010MOL0     H39314  11.590   3.978   7.000 -0.1149  1.0372 -0.1862
 1010MOL0     H39315  11.401   3.965   7.140  1.8239  0.8841  0.0560
 1010MOL0     H39316  11.389   4.103   7.034  0.1826 -0.5105 -2.6486
 1010MOL0     H39317  11.242   4.033   6.879 -2.1485  1.0071  1.1702
 1010MOL0     H39318  11.233   3.866   6.946 -0.8694  0.7788 -0.5221
 1010MOL0     H39319  11.147   3.948   7.145  0.4066  2.0457  0.3358
 1010MOL0     H39320  11.141   4.110   7.080 -1.0173  0.4281  0.0010
 1010MOL0     H39321  10.962   4.046   6.912 -4.0803 -3.0575 -2.1337
 1010MOL0     H39322  10.912   3.990   7.073 -1.1624 -1.0273 -0.0730
 1010MOL0     H39323  11.024   3.818   6.846 -1.8585 -0.8732 -0.7558
 1010MOL0     H39324  11.014   3.765   7.014  0.5223  0.8826  0.2004
 1010MOL0     H39325  10.804   3.706   6.874  2.3569 -0.7827  0.3815
 1010MOL0     H39326  10.765   3.877   6.875  1.7467  0.2542 -1.4689
 1010MOL0     H39327  10.758   3.664   7.094 -0.2946 -0.9800 -1.5556
 1010MOL0     H39328  10.793   3.830   7.154  0.1966 -0.2239  0.4143
 1010MOL0     H39329  10.527   3.595   7.060  0.9088  0.7471 -0.2776
 1010MOL0     H39330  10.267   3.630   7.008 -2.5162  0.4422 -1.6169
 1010MOL0     H39331  10.176   3.770   7.072  0.3251  0.8436 -0.0598
 1010MOL0     H39332  10.297   3.529   7.222  2.1815  0.3359 -4.7545
 1010MOL0     H39333  10.240   3.666   7.313  1.9386  0.3393 -0.6580
 1010MOL0     H39334  10.048   3.487   7.151 -0.1870 -3.1914  0.6507
 1010MOL0     H39335  10.107   3.456   7.315 -1.3980  1.4440  1.0754
 1010MOL0     H39336   9.920   3.571   7.364  3.4362 -0.2039  2.1535
 1010MOL0     H39337  10.028   3.701   7.363 -0.9139  1.2547  0.7171
 1010MOL0     H39338   9.827   3.653   6.928 -2.4613 -3.3359 -2.6793
 1010MOL0     H39339   9.511   3.550   6.786 -1.3154  0.2063  2.3692
 1010MOL0     H39340   9.613   3.410   6.834 -0.6164 -0.2003  0.8972
 1010MOL0     H39341   9.688   3.547   6.759  1.7610 -2.8077  1.0687
 1010MOL0     H39342   9.165   3.525   7.216 -2.3365  0.7156  1.7302
 1010MOL0     H39343   8.904   3.494   7.215  0.0723  2.5697 -0.7875
 1010MOL0     H39344   8.604   3.428   6.949 -1.1049 -1.1146 -2.5325
 1010MOL0     H39345   8.735   3.410   6.836 -2.6395  0.7407 -0.9186
 1010MOL0     H39346   8.604   3.208   6.833  0.4834  0.4989 -0.1532
 1010MOL0     H39347   8.750   3.164   6.920 -1.3431 -1.8437  0.1005
 1010MOL0     H39348   8.482   3.228   7.036  1.2767  1.8526 -1.1975
 1010MOL0     H39349   8.622   3.209   7.135 -3.6068  0.8488  1.7596
 1010MOL0     H39350   8.634   2.989   7.089 -0.9028 -0.7151  1.2708
 1010MOL0     H39351   8.549   3.006   6.927 -0.2246  3.3957 -1.6922
 1010MOL0     H39352   8.433   2.996   7.216 -0.7870  0.5530 -0.0719
 1010MOL0     H39353   8.334   3.055   7.088 -1.8911 -0.8133  2.0902
 1010MOL0     H39354   8.487   2.788   7.090  0.3849  0.1939  0.2800
 1010MOL0     H39355   8.351   2.839   6.985 -0.7097 -2.5625  1.0005
 1010MOL0     H39356   8.269   2.688   7.138  2.2188  0.8199 -3.3112
 1010MOL0     H39357   8.187   2.842   7.180 -2.2583 -4.0717 -3.4239
 1010MOL0     H39358   8.308   2.849   7.393  2.6747 -1.4650  2.3528
 1010MOL0     H39359   8.444   2.766   7.327  0.3643  0.7429  1.2859
 1010MOL0     H39360   8.940   3.287   6.848 -1.0190 -0.0937 -0.2976
 1010MOL0     H39361   9.184   3.306   6.852  1.5851  1.8844  0.1071
 1010MOL0     H39362   9.474   3.596   7.244  0.2845 -0.0670  0.0564
 1010MOL0     H39363   9.703   3.619   7.339 -1.3325  1.0576 -0.1922
 1010MOL0     H39364  11.707   3.846   6.804 -1.4754  1.9320 -1.0672
 1010MOL0     H39365  11.783   3.699   6.618 -0.9121 -0.3282 -1.2204
 1010MOL0     H39366  11.571   3.539   6.157 -2.6710 -1.4071  0.3388
 1010MOL0     H39367  11.656   3.437   5.967 -0.2908 -2.4020 -1.9123
 1010MOL0     H39368  11.938   3.116   5.884 -1.1350  3.0620  0.5948
 1010MOL0     H39369  11.896   3.072   6.041 -0.9066 -2.9377  0.6727
 1010MOL0     H39370  11.877   2.884   5.892  0.9211 -0.3463  1.3838
 1010MOL0     H39371  11.742   2.968   5.798  1.0173 -1.1526 -0.3354
 1010MOL0     H39372  11.756   2.850   6.076 -3.2871  1.4590  3.5725
 1010MOL0     H39373  11.625   2.967   6.025  1.1182  1.4976 -1.9667
 1010MOL0     H39374  11.707   2.703   5.919  2.4710  1.4537 -0.0783
 1010MOL0     H39375  11.577   2.803   5.835  0.3897  1.2135  1.3580
 1010MOL0     H39376  11.302   2.691   6.096 -0.9258  2.7617  1.0413
 1010MOL0     H39377  11.758   3.088   6.202 -0.3398  0.5722 -1.2461
 1010MOL0     H39378  11.745   3.235   6.517 -2.0336  0.3028  1.0075
 1010MOL0     H39379  11.594   3.145   6.455  0.8871 -0.7021  2.7046
 1010MOL0     H39380  11.759   3.098   6.412 -0.3736 -1.4140  1.6213
 1011MOL0     O39381   3.896   4.414   5.063  0.0615 -0.5029  0.7152
 1011MOL0     C39382   3.796   4.464   5.111  0.6043 -0.4054 -0.0654
 1011MOL0     O39383   3.699   4.531   5.046 -0.0303 -0.7432  0.2008
 1011MOL0     C39384   3.693   4.540   4.912  1.0480 -0.5715  0.7704
 1011MOL0     C39385   3.571   4.589   4.868 -0.0112  0.3365  0.7380
 1011MOL0     C39386   3.536   4.580   4.727 -0.7581 -0.0894  0.3821
 1011MOL0     C39387   3.624   4.525   4.634  0.3588  0.4575 -1.1062
 1011MOL0     O39388   3.598   4.516   4.501  0.5163  0.3266 -0.1982
 1011MOL0     C39389   3.467   4.544   4.445 -0.8389  0.1236 -1.4658
 1011MOL0     C39390   3.466   4.523   4.293  0.1839  0.2643  0.5478
 1011MOL0     C39391   3.571   4.605   4.223 -0.8328 -0.3334 -0.3776
 1011MOL0     C39392   3.563   4.573   4.080  0.0950 -0.0881  0.3101
 1011MOL0     C39393   3.678   4.640   4.003 -0.0409  0.0051  0.8655
 1011MOL0     C39394   3.692   4.588   3.853  0.4678  0.9711  0.4763
 1011MOL0     C39395   3.754   4.449   3.841 -0.6410  0.3699 -1.1810
 1011MOL0     C39396   3.825   4.418   3.711  0.3102 -0.8415 -0.2179
 1011MOL0     N39397   3.878   4.281   3.712  0.1409 -0.3818  0.2345
 1011MOL0     C39398   3.902   4.201   3.601  0.0618 -0.0528  0.4807
 1011MOL0     C39399   3.987   4.101   3.643  0.2397  0.9694  0.3392
 1011MOL0     C39400   4.054   3.983   3.563  0.8548  0.1382  0.6210
 1011MOL0     C39401   4.174   4.025   3.479 -1.2882 -0.0310  0.1043
 1011MOL0     C39402   4.249   3.894   3.413 -0.2992 -0.0052  0.4533
 1011MOL0     C39403   4.398   3.917   3.395  0.1356 -0.2688  0.9106
 1011MOL0     O39404   4.419   4.015   3.292 -0.3438  0.4105  0.2067
 1011MOL0     C39405   4.528   4.100   3.320  1.1529 -0.5581 -0.2800
 1011MOL0     C39406   4.497   4.234   3.324  0.0925 -0.7500  0.3482
 1011MOL0     C39407   4.607   4.327   3.329 -0.5279  0.0580  0.0594
 1011MOL0     C39408   4.578   4.480   3.317 -0.3587  0.0900  1.2613
 1011MOL0     C39409   4.737   4.292   3.356  0.0793  0.8442  0.2269
 1011MOL0     C39410   4.854   4.382   3.386  0.0190  0.2071  0.4061
 1011MOL0     O39411   4.828   4.514   3.412 -0.3133  0.5674  0.6258
 1011MOL0     C39412   4.925   4.591   3.454 -0.1503 -0.8011 -0.0871
 1011MOL0     C39413   4.928   4.624   3.590  0.8010  0.7619  0.3951
 1011MOL0     C39414   5.037   4.698   3.642  0.2765  0.0085 -0.2313
 1011MOL0     C39415   5.145   4.746   3.562 -0.1482 -0.7648 -0.0483
 1011MOL0     O39416   5.236   4.825   3.622 -0.0827  0.2563 -0.2903
 1011MOL0     C39417   5.225   4.965   3.633 -0.4149 -0.0064 -0.0129
 1011MOL0     C39418   5.272   5.033   3.503  0.2156  0.7324 -0.3106
 1011MOL0     C39419   5.248   5.188   3.507  0.3144  0.6351 -0.3646
 1011MOL0     C39420   5.371   5.251   3.571 -0.7298 -0.1891  0.3797
 1011MOL0     C39421   5.364   5.406   3.573 -0.5216  0.0239  1.1631
 1011MOL0     C39422   5.264   5.474   3.674  0.6650 -0.4721  0.2248
 1011MOL0     C39423   5.236   5.628   3.652 -0.0932 -0.7162 -0.7065
 1011MOL0     C39424   5.184   5.689   3.775 -0.1839  0.5374 -0.8149
 1011MOL0    Cl39425   5.221   5.851   3.778  0.2581  0.3897 -0.6314
 1011MOL0     C39426   5.132   4.728   3.426 -0.8034  0.4021 -0.6668
 1011MOL0     C39427   5.026   4.653   3.377 -0.7256  0.0890  0.4766
 1011MOL0     O39428   4.965   4.329   3.373 -0.0936  0.3330  0.2427
 1011MOL0     C39429   4.765   4.150   3.351  0.0092  0.2336  0.0692
 1011MOL0     C39430   4.659   4.058   3.337 -0.5880 -0.2184  0.5111
 1011MOL0     N39431   4.002   4.114   3.784  1.2954  1.2161  0.6709
 1011MOL0     N39432   3.950   4.227   3.818  0.2219  0.6240 -0.3938
 1011MOL0     C39433   3.757   4.482   4.679 -0.1347  0.2832  0.8612
 1011MOL0     C39434   3.781   4.486   4.814 -0.1780 -0.7652 -0.0045
 1011MOL0     C39435   3.775   4.453   5.261  0.5411 -0.7711 -0.3911
 1011MOL0     C39436   3.855   4.363   5.324  0.2114  0.2683  0.3998
 1011MOL0     C39437   3.858   4.352   5.458  0.1646  0.6442 -0.8618
 1011MOL0     C39438   3.777   4.445   5.536  0.1945  0.1132 -0.8136
 1011MOL0     O39439   3.779   4.451   5.673  0.5273 -0.1787  0.5043
 1011MOL0     C39440   3.826   4.330   5.735 -0.1616  0.0269 -0.5329
 1011MOL0     C39441   3.760   4.322   5.867 -0.1639  0.4676  0.0065
 1011MOL0     C39442   3.827   4.394   5.988  0.1601  0.2062  0.3996
 1011MOL0     C39443   3.800   4.338   6.132 -0.3656  0.5638 -0.3407
 1011MOL0     C39444   3.657   4.360   6.162 -0.5455  0.3829  0.9363
 1011MOL0     C39445   3.532   4.375   6.176 -0.4625 -0.1971  0.2517
 1011MOL0     C39446   3.687   4.530   5.478  0.1172  0.8391 -0.9048
 1011MOL0     C39447   3.679   4.526   5.338  0.7218 -0.0684  0.3733
 1011MOL0     C39448   3.582   4.625   5.284  0.0508 -0.3237 -0.2222
 1011MOL0     H39449   3.498   4.617   4.942 -0.4053 -2.2350  1.4175
 1011MOL0     H39450   3.450   4.635   4.692 -0.2497 -1.3699 -3.2203
 1011MOL0     H39451   3.441   4.649   4.462 -1.9474 -0.3279 -0.1646
 1011MOL0     H39452   3.388   4.489   4.498 -0.4432 -2.4790 -3.3796
 1011MOL0     H39453   3.474   4.415   4.277 -1.2194  0.1320  0.6711
 1011MOL0     H39454   3.364   4.545   4.262 -0.5654 -1.2548  1.7843
 1011MOL0     H39455   3.539   4.709   4.237  1.7541  0.2388  2.1057
 1011MOL0     H39456   3.671   4.591   4.265 -1.1992 -0.4478  0.4774
 1011MOL0     H39457   3.569   4.466   4.057  1.1712  0.1623 -0.6741
 1011MOL0     H39458   3.468   4.595   4.030 -0.5177 -3.2494 -0.1505
 1011MOL0     H39459   3.771   4.628   4.058 -0.7606 -1.4680  1.8439
 1011MOL0     H39460   3.656   4.746   3.991  1.1022  0.3206  1.5086
 1011MOL0     H39461   3.590   4.582   3.814 -0.0529  0.4067  1.8522
 1011MOL0     H39462   3.743   4.666   3.795  2.4348 -1.9308 -1.9921
 1011MOL0     H39463   3.677   4.375   3.863  1.8362 -1.8657  0.7697
 1011MOL0     H39464   3.828   4.449   3.922  1.3231 -1.1302 -2.8659
 1011MOL0     H39465   3.749   4.431   3.634  2.4149 -0.6476 -2.3870
 1011MOL0     H39466   3.906   4.491   3.698  0.2468 -0.9801 -1.6138
 1011MOL0     H39467   3.866   4.224   3.501  0.8452  0.2313  0.2556
 1011MOL0     H39468   3.971   3.939   3.506 -0.0088  0.8662  1.2721
 1011MOL0     H39469   4.080   3.909   3.640  0.4943  1.6663  2.2820
 1011MOL0     H39470   4.148   4.100   3.404 -1.8628  1.5422  1.7888
 1011MOL0     H39471   4.234   4.083   3.550 -1.2448 -2.3344  2.0993
 1011MOL0     H39472   4.238   3.810   3.482  3.1312  0.8887  2.3206
 1011MOL0     H39473   4.206   3.867   3.316  2.0994 -2.1040 -0.1627
 1011MOL0     H39474   4.446   3.961   3.482 -2.5119  2.7478  1.0233
 1011MOL0     H39475   4.443   3.818   3.385 -0.9456 -0.6969  0.1014
 1011MOL0     H39476   4.394   4.266   3.314 -0.9074 -3.0306  2.2656
 1011MOL0     H39477   4.589   4.536   3.410  1.7176  0.8196  0.6323
 1011MOL0     H39478   4.480   4.489   3.269 -1.6604 -0.7187  3.6319
 1011MOL0     H39479   4.643   4.526   3.241 -0.7606  2.8165  2.4331
 1011MOL0     H39480   4.849   4.597   3.659  2.3695  3.1099  3.3441
 1011MOL0     H39481   5.059   4.714   3.747  1.9102  1.0683 -0.7011
 1011MOL0     H39482   5.119   4.992   3.646 -0.9941 -1.7221 -0.8297
 1011MOL0     H39483   5.280   5.002   3.720 -0.2636 -0.2451 -0.0063
 1011MOL0     H39484   5.377   5.014   3.482 -0.2416 -1.7050 -0.6686
 1011MOL0     H39485   5.212   4.995   3.420 -0.6732  3.0368 -0.8040
 1011MOL0     H39486   5.164   5.224   3.568  1.5538  3.5074 -0.1884
 1011MOL0     H39487   5.231   5.232   3.408 -1.2391 -2.1226 -1.4322
 1011MOL0     H39488   5.452   5.207   3.514 -1.2125  0.7137 -1.0658
 1011MOL0     H39489   5.375   5.219   3.676  0.6207  0.8247  0.6607
 1011MOL0     H39490   5.466   5.436   3.595 -0.3959 -1.1762  2.3459
 1011MOL0     H39491   5.336   5.439   3.473 -0.7514 -1.0987  0.8423
 1011MOL0     H39492   5.305   5.458   3.774 -2.0750  2.7600  2.0672
 1011MOL0     H39493   5.172   5.418   3.688  0.6931  0.1675  3.7695
 1011MOL0     H39494   5.162   5.646   3.573 -1.0472 -0.2687  0.2574
 1011MOL0     H39495   5.324   5.684   3.622  0.0019 -0.7968 -0.5786
 1011MOL0     H39496   5.223   5.645   3.868 -2.2006 -3.9587 -1.8346
 1011MOL0     H39497   5.076   5.674   3.773 -0.0810 -0.1303 -2.1615
 1011MOL0     H39498   5.214   4.768   3.367  0.6738  3.0967  2.8662
 1011MOL0     H39499   5.035   4.641   3.270 -0.9137  2.6461  0.1172
 1011MOL0     H39500   4.868   4.119   3.361  0.3615  1.4604  0.3240
 1011MOL0     H39501   4.692   3.956   3.350  1.1088  0.2945  0.4674
 1011MOL0     H39502   3.841   4.444   4.622 -0.5087  1.1435 -0.2945
 1011MOL0     H39503   3.878   4.442   4.832  0.2902 -0.5051 -1.7264
 1011MOL0     H39504   3.926   4.301   5.270 -0.1652 -0.7409  1.0219
 1011MOL0     H39505   3.928   4.278   5.494 -1.0643 -1.8477 -3.2342
 1011MOL0     H39506   3.813   4.242   5.672  2.2066 -3.0618  2.8659
 1011MOL0     H39507   3.930   4.340   5.768 -0.5188 -0.0954  0.6684
 1011MOL0     H39508   3.747   4.218   5.901  0.5194  0.2089 -0.5031
 1011MOL0     H39509   3.653   4.346   5.872 -0.2734 -0.0535  0.2816
 1011MOL0     H39510   3.936   4.388   5.976  0.1885  0.9169  0.2856
 1011MOL0     H39511   3.809   4.502   5.988 -0.6308  0.1017 -1.5121
 1011MOL0     H39512   3.849   4.398   6.208 -0.5132  0.3924 -0.1101
 1011MOL0     H39513   3.826   4.232   6.138  2.4503  1.2125  0.2356
 1011MOL0     H39514   3.432   4.411   6.173 -1.7425 -3.3841  0.0837
 1011MOL0     H39515   3.623   4.606   5.522  1.6357  1.9700 -0.5811
 1011MOL0     H39516   3.513   4.666   5.358 -0.2011 -1.4621  0.1993
 1011MOL0     H39517   3.629   4.706   5.228 -0.1801  0.7131  1.0368
 1011MOL0     H39518   3.517   4.571   5.214  4.1092 -2.8681 -2.4680
 1012MOL0     O39519   4.554   2.037  10.894 -0.2867  0.1156  0.1561
 1012MOL0     C39520   4.501   2.144  10.858  0.1847 -0.5210  0.5754
 1012MOL0     O39521   4.542   2.221  10.755 -0.9432 -0.2082 -0.0358
 1012MOL0     C39522   4.670   2.231  10.696  0.2585 -0.0874 -0.7552
 1012MOL0     C39523   4.692   2.346  10.623  0.0357  0.9012 -0.4188
 1012MOL0     C39524   4.811   2.371  10.567  0.4614 -0.3157  0.8933
 1012MOL0     C39525   4.926   2.298  10.606  0.6392  0.0059 -0.4295
 1012MOL0     O39526   5.041   2.343  10.544  0.1361 -0.5927  0.2438
 1012MOL0     C39527   5.152   2.247  10.536 -0.6008 -0.8552 -0.8756
 1012MOL0     C39528   5.269   2.307  10.459 -0.0868 -0.4678  0.8907
 1012MOL0     C39529   5.312   2.447  10.502 -0.9217  0.2028  0.4122
 1012MOL0     C39530   5.430   2.513  10.424 -0.4158  0.4225  1.0050
 1012MOL0     C39531   5.483   2.643  10.502  0.0271  0.3935  0.3289
 1012MOL0     C39532   5.587   2.611  10.614 -0.0681  0.0012  0.0562
 1012MOL0     C39533   5.729   2.580  10.568 -0.3539 -0.1821  0.6290
 1012MOL0     C39534   5.814   2.510  10.671 -0.3286 -1.1251  0.7525
 1012MOL0     N39535   5.833   2.589  10.789 -0.3807 -0.1027  0.2489
 1012MOL0     C39536   5.880   2.722  10.779 -0.0757  1.4649  0.7059
 1012MOL0     C39537   5.866   2.771  10.904  0.6733 -0.8097  1.1263
 1012MOL0     C39538   5.921   2.905  10.944  0.9416  0.5426 -0.2319
 1012MOL0     C39539   6.072   2.901  10.945 -0.4374 -0.4748 -0.9210
 1012MOL0     C39540   6.131   3.013  11.038  0.9071  0.3102  0.7454
 1012MOL0     C39541   6.278   3.035  11.034  0.5243  0.6441  0.0697
 1012MOL0     O39542   6.328   3.054  10.900 -0.9834 -0.7644 -0.1412
 1012MOL0     C39543   6.455   3.040  10.870 -0.4012  0.5035  0.1092
 1012MOL0     C39544   6.489   3.076  10.737  0.5461  0.3530 -0.2879
 1012MOL0     C39545   6.616   3.073  10.698 -0.5254 -0.0847 -0.3253
 1012MOL0     C39546   6.656   3.135  10.564 -0.4451 -0.0204 -1.1197
 1012MOL0     C39547   6.718   3.040  10.784  0.1391 -0.5628 -1.1033
 1012MOL0     C39548   6.856   3.033  10.743  0.2789  0.5204 -0.2058
 1012MOL0     O39549   6.933   2.935  10.777 -0.4024 -0.4207 -0.2883
 1012MOL0     C39550   7.057   2.912  10.738 -0.6627 -0.1997  0.6184
 1012MOL0     C39551   7.091   2.785  10.696  1.0204  0.2035  0.1333
 1012MOL0     C39552   7.218   2.752  10.677 -0.7646 -0.0317  0.3106
 1012MOL0     C39553   7.317   2.853  10.667  0.5168 -0.1799  0.8130
 1012MOL0     O39554   7.445   2.819  10.633 -0.5298 -0.7427  0.1715
 1012MOL0     C39555   7.541   2.916  10.578 -0.3985  0.8612 -0.2150
 1012MOL0     C39556   7.583   2.902  10.434  0.2884  1.1626 -0.5813
 1012MOL0     C39557   7.469   2.874  10.333  0.4963  0.1192 -0.1996
 1012MOL0     C39558   7.514   2.837  10.189  0.3061 -0.1106  0.0237
 1012MOL0     C39559   7.407   2.856  10.077  0.8666 -0.3549 -0.3183
 1012MOL0     C39560   7.453   2.782   9.952 -0.0907 -0.7827 -0.2088
 1012MOL0     C39561   7.340   2.800   9.853  0.0917  0.1852  0.0306
 1012MOL0     C39562   7.343   2.689   9.740  0.2007  0.1484  0.2299
 1012MOL0    Cl39563   7.508   2.692   9.659  0.0055  0.1612  0.3419
 1012MOL0     C39564   7.280   2.980  10.713 -0.2892 -0.1749  0.2834
 1012MOL0     C39565   7.153   3.004  10.749 -0.2169 -0.8703  0.7207
 1012MOL0     O39566   6.897   3.134  10.689 -0.2177 -0.3793  0.2416
 1012MOL0     C39567   6.687   2.966  10.898  0.5472  0.2925 -0.2192
 1012MOL0     C39568   6.557   2.976  10.950 -0.1682 -0.6065 -0.0809
 1012MOL0     N39569   5.806   2.674  10.984  0.1368  0.2673  0.4185
 1012MOL0     N39570   5.785   2.569  10.911  1.1014  0.0894 -0.3324
 1012MOL0     C39571   4.904   2.190  10.686 -0.1686  0.8332 -0.8470
 1012MOL0     C39572   4.778   2.142  10.727  0.5211 -0.8633  0.1124
 1012MOL0     C39573   4.369   2.189  10.917  0.4405  0.4656 -0.3414
 1012MOL0     C39574   4.318   2.311  10.873 -0.5185  0.1598 -0.1899
 1012MOL0     C39575   4.209   2.366  10.932  0.1732 -0.2811 -0.3020
 1012MOL0     C39576   4.131   2.304  11.035  0.2607  0.4167  0.7031
 1012MOL0     O39577   4.016   2.340  11.103  0.4470 -0.2190  0.4522
 1012MOL0     C39578   3.969   2.470  11.084 -0.2276 -0.6801  0.0559
 1012MOL0     C39579   3.896   2.522  11.208  1.0469 -0.9209  0.3435
 1012MOL0     C39580   3.773   2.429  11.235  0.5134 -0.6416  0.1359
 1012MOL0     C39581   3.814   2.305  11.323  0.2750 -0.4336  0.3716
 1012MOL0     C39582   3.690   2.251  11.387 -1.0914 -0.1658 -0.9555
 1012MOL0     C39583   3.597   2.215  11.456  0.6579 -0.2963  0.0580
 1012MOL0     C39584   4.183   2.179  11.076  0.4693 -0.0988 -0.1802
 1012MOL0     C39585   4.294   2.123  11.018 -0.3794 -0.4340  0.4568
 1012MOL0     C39586   4.336   1.998  11.081  0.2861 -0.0703 -0.3923
 1012MOL0     H39587   4.609   2.408  10.590  0.1010  0.6759 -1.0248
 1012MOL0     H39588   4.802   2.446  10.490 -1.8277 -1.5514 -0.1266
 1012MOL0     H39589   5.115   2.158  10.484  1.0013  0.7228 -5.0915
 1012MOL0     H39590   5.177   2.213  10.637 -3.8780  2.9241  1.5333
 1012MOL0     H39591   5.349   2.234  10.467  0.3984 -0.2568 -1.4669
 1012MOL0     H39592   5.244   2.323  10.354  2.9959 -0.4808  0.0610
 1012MOL0     H39593   5.234   2.523  10.493 -1.6496 -0.7015 -1.3179
 1012MOL0     H39594   5.337   2.454  10.608 -0.1981  0.2210  0.2463
 1012MOL0     H39595   5.502   2.433  10.409 -1.0745 -0.1046  0.5624
 1012MOL0     H39596   5.378   2.547  10.334  0.9158  2.8159  1.0559
 1012MOL0     H39597   5.395   2.693  10.544  0.4068  1.4198 -0.0599
 1012MOL0     H39598   5.526   2.709  10.426  1.7875  1.1027  1.8742
 1012MOL0     H39599   5.592   2.695  10.684  0.7436  0.3767 -0.4275
 1012MOL0     H39600   5.551   2.519  10.660 -0.7971  0.0262 -0.4406
 1012MOL0     H39601   5.790   2.662  10.529  0.5551 -1.6199 -1.1764
 1012MOL0     H39602   5.718   2.514  10.481 -5.6743 -0.9647  1.5770
 1012MOL0     H39603   5.761   2.418  10.697  0.6839 -1.5806  1.2909
 1012MOL0     H39604   5.902   2.461  10.627  0.8030 -0.6387  2.3633
 1012MOL0     H39605   5.925   2.758  10.687 -1.7103 -1.0976 -1.2510
 1012MOL0     H39606   5.888   2.918  11.048  0.2913  2.0069 -0.6002
 1012MOL0     H39607   5.869   2.982  10.887 -0.6714 -0.1097  0.2947
 1012MOL0     H39608   6.118   2.805  10.971  2.5814  1.0771 -0.0902
 1012MOL0     H39609   6.101   2.918  10.841  2.0594 -1.0132 -0.3771
 1012MOL0     H39610   6.082   3.106  11.009  0.9162 -0.2236 -1.1201
 1012MOL0     H39611   6.104   2.984  11.140  1.3102 -2.4782  0.1265
 1012MOL0     H39612   6.296   3.127  11.091 -2.2922  0.7204  0.9696
 1012MOL0     H39613   6.318   2.952  11.093 -0.5848  2.6023  3.9699
 1012MOL0     H39614   6.407   3.102  10.672  0.2905 -0.2335 -0.2064
 1012MOL0     H39615   6.703   3.232  10.582 -0.2640 -0.4134  0.7235
 1012MOL0     H39616   6.572   3.153  10.495 -1.9367  0.6157  0.7744
 1012MOL0     H39617   6.721   3.064  10.511 -0.3281  1.4526 -3.0388
 1012MOL0     H39618   7.009   2.716  10.682  0.2933  1.2569 -0.9836
 1012MOL0     H39619   7.237   2.649  10.650  3.4847  0.0939  2.0935
 1012MOL0     H39620   7.505   3.020  10.570 -0.8652  0.7000 -0.2758
 1012MOL0     H39621   7.628   2.913  10.643 -1.6496 -2.8549  1.5471
 1012MOL0     H39622   7.644   2.986  10.398  0.6260  0.8257 -0.8068
 1012MOL0     H39623   7.653   2.818  10.436 -1.7066 -0.6267 -1.1691
 1012MOL0     H39624   7.422   2.972  10.319 -2.2330 -1.3384 -1.9537
 1012MOL0     H39625   7.392   2.806  10.370 -1.8938  2.0324 -1.3549
 1012MOL0     H39626   7.551   2.735  10.179 -1.1148 -0.6637  0.1123
 1012MOL0     H39627   7.601   2.898  10.163 -0.0624 -0.0385 -1.1192
 1012MOL0     H39628   7.316   2.816  10.123  1.0754  1.1906  1.5734
 1012MOL0     H39629   7.385   2.962  10.059  1.0296 -0.1158  0.8131
 1012MOL0     H39630   7.471   2.677   9.977 -0.4015 -0.3841  1.8340
 1012MOL0     H39631   7.542   2.835   9.918 -1.7356  1.2622 -1.5912
 1012MOL0     H39632   7.356   2.895   9.799  2.0244 -1.3498 -2.3471
 1012MOL0     H39633   7.245   2.800   9.906 -0.6234  1.2473 -1.1791
 1012MOL0     H39634   7.263   2.711   9.670  0.0088 -2.5730 -0.5153
 1012MOL0     H39635   7.313   2.593   9.783 -2.6385 -0.0768 -1.9964
 1012MOL0     H39636   7.365   3.045  10.732 -0.7916  1.1404 -1.6479
 1012MOL0     H39637   7.124   3.104  10.779  1.7613 -0.1452  0.3989
 1012MOL0     H39638   6.756   2.910  10.960 -1.2651 -0.3561  1.2907
 1012MOL0     H39639   6.529   2.952  11.051  1.6451  0.2660  0.6816
 1012MOL0     H39640   4.994   2.136  10.712  1.2687  1.9489 -3.0874
 1012MOL0     H39641   4.771   2.049  10.782  0.5470  0.2632  2.0883
 1012MOL0     H39642   4.358   2.360  10.785  2.6184 -1.7820 -0.0302
 1012MOL0     H39643   4.183   2.465  10.895 -2.4631 -1.8953 -3.2454
 1012MOL0     H39644   4.051   2.538  11.059 -0.5472 -0.0409  0.7276
 1012MOL0     H39645   3.897   2.473  11.001  0.0714 -1.2479 -0.2312
 1012MOL0     H39646   3.867   2.627  11.196  1.2573 -0.9596 -0.6133
 1012MOL0     H39647   3.960   2.518  11.297 -1.2476  1.8917  2.3158
 1012MOL0     H39648   3.703   2.492  11.290 -0.2682  1.7036 -3.2261
 1012MOL0     H39649   3.716   2.407  11.144  3.2001  2.6598 -2.6491
 1012MOL0     H39650   3.878   2.328  11.408 -0.2547 -0.4229  0.7738
 1012MOL0     H39651   3.869   2.228  11.269  0.9494 -0.9880  1.8166
 1012MOL0     H39652   3.523   2.175  11.522 -1.2402 -0.3421 -1.9559
 1012MOL0     H39653   4.125   2.123  11.149  1.4987 -1.3639 -0.3099
 1012MOL0     H39654   4.445   1.986  11.087  0.4965  0.9806 -1.8320
 1012MOL0     H39655   4.304   1.992  11.186 -1.8761  3.3627 -0.7264
 1012MOL0     H39656   4.298   1.915  11.021  2.7081 -1.9971  0.5231
 1013MOL0     O39657   2.288   1.307   1.754 -0.7845 -0.5762 -0.0683
 1013MOL0     C39658   2.188   1.244   1.718  0.0458  0.2344  0.0791
 1013MOL0     O39659   2.190   1.106   1.705  0.3182 -0.1818  0.0020
 1013MOL0     C39660   2.305   1.043   1.738 -0.5625 -0.2536  0.2640
 1013MOL0     C39661   2.413   1.037   1.653  0.4700  0.6908  0.3609
 1013MOL0     C39662   2.539   0.980   1.693  0.2374 -0.2644 -0.2995
 1013MOL0     C39663   2.563   0.940   1.826 -0.3114 -0.3484 -0.0139
 1013MOL0     O39664   2.672   0.890   1.889  0.4074  1.1854  0.1406
 1013MOL0     C39665   2.783   0.982   1.882  0.1981  0.2198  0.4582
 1013MOL0     C39666   2.907   0.917   1.949  0.5691  0.2166 -0.7897
 1013MOL0     C39667   3.052   0.985   1.921  0.6105 -0.5164  0.3862
 1013MOL0     C39668   3.076   1.117   2.004 -0.0555  1.4831  0.4508
 1013MOL0     C39669   3.206   1.188   1.963  0.3508 -0.5097 -0.3176
 1013MOL0     C39670   3.334   1.127   2.030 -0.3569 -0.1750  0.5682
 1013MOL0     C39671   3.450   1.160   1.941 -0.7153 -0.2537 -0.1256
 1013MOL0     C39672   3.502   1.311   1.933  0.4773  0.0193 -0.3886
 1013MOL0     N39673   3.604   1.325   1.826  0.5786 -0.6136  0.3049
 1013MOL0     C39674   3.732   1.278   1.831  0.1188 -0.5606 -0.5092
 1013MOL0     C39675   3.798   1.351   1.734 -0.0080 -0.0044  0.0006
 1013MOL0     C39676   3.942   1.349   1.717 -0.5156  0.3748 -0.0980
 1013MOL0     C39677   3.993   1.213   1.666 -0.3642 -0.7361  0.4458
 1013MOL0     C39678   4.137   1.217   1.612 -0.7867 -0.8591 -0.3161
 1013MOL0     C39679   4.182   1.080   1.555 -0.3727 -0.5463  0.3308
 1013MOL0     O39680   4.326   1.097   1.532 -1.2479  0.0137 -0.0104
 1013MOL0     C39681   4.413   1.092   1.638  0.3303 -0.3087 -0.3313
 1013MOL0     C39682   4.541   1.101   1.598 -0.0884  0.3339 -0.1535
 1013MOL0     C39683   4.652   1.089   1.694 -0.8466 -0.1159  0.2431
 1013MOL0     C39684   4.791   1.094   1.631 -0.0561 -0.0209  0.0056
 1013MOL0     C39685   4.623   1.081   1.838  0.2868 -0.1154 -0.8602
 1013MOL0     C39686   4.728   1.087   1.932  0.7768  0.6810 -0.7527
 1013MOL0     O39687   4.698   1.023   2.050  0.4963 -0.0695 -0.1673
 1013MOL0     C39688   4.775   1.051   2.155  0.8944 -0.8763 -0.0709
 1013MOL0     C39689   4.784   1.180   2.212 -0.5299 -0.1816  0.2314
 1013MOL0     C39690   4.856   1.196   2.332 -0.4990  0.8628 -0.2535
 1013MOL0     C39691   4.912   1.081   2.392  0.0218  0.4307  1.0787
 1013MOL0     O39692   4.972   1.074   2.513 -0.0882 -0.0272 -0.0689
 1013MOL0     C39693   4.915   1.157   2.607  0.0214 -0.5498 -0.5814
 1013MOL0     C39694   4.930   1.079   2.737  0.2171 -0.1191 -0.2620
 1013MOL0     C39695   4.897   1.176   2.849  0.4654  0.3133  0.1803
 1013MOL0     C39696   4.888   1.107   2.986  0.4291 -0.5154  0.2160
 1013MOL0     C39697   4.859   1.199   3.111  1.2274  0.1231  0.0131
 1013MOL0     C39698   4.886   1.120   3.232  0.0061  0.5268 -0.1316
 1013MOL0     C39699   4.779   1.136   3.345 -0.4325  0.7418  0.1570
 1013MOL0     C39700   4.631   1.112   3.311 -0.7347  0.2540 -0.9619
 1013MOL0    Cl39701   4.621   0.974   3.205  0.1952 -0.1770  0.1456
 1013MOL0     C39702   4.919   0.956   2.321 -0.1795 -0.4496 -0.7432
 1013MOL0     C39703   4.848   0.942   2.209  0.8837  0.4418 -0.3831
 1013MOL0     O39704   4.831   1.146   1.911  0.7952 -0.4291  0.1071
 1013MOL0     C39705   4.488   1.078   1.872 -0.2235  0.0877  0.6442
 1013MOL0     C39706   4.386   1.083   1.779 -0.5006  0.1170 -0.4792
 1013MOL0     N39707   3.715   1.437   1.669  0.4138  0.8043 -0.1556
 1013MOL0     N39708   3.596   1.420   1.725 -0.3418 -0.0900 -0.4286
 1013MOL0     C39709   2.453   0.948   1.907 -0.0299  0.4823 -1.0044
 1013MOL0     C39710   2.323   0.991   1.865 -0.3840  0.4540  0.2213
 1013MOL0     C39711   2.059   1.314   1.694 -0.1215  0.0970  0.0356
 1013MOL0     C39712   1.943   1.239   1.654  0.4036  0.7233 -0.6256
 1013MOL0     C39713   1.821   1.307   1.621  0.0118 -0.4536  0.2417
 1013MOL0     C39714   1.807   1.443   1.638  0.2095 -0.4567  0.0341
 1013MOL0     O39715   1.697   1.519   1.619 -0.0423 -0.7514 -0.5949
 1013MOL0     C39716   1.577   1.456   1.580 -0.9433 -0.4687 -0.8040
 1013MOL0     C39717   1.508   1.401   1.702  0.1579  0.1100  0.4888
 1013MOL0     C39718   1.380   1.339   1.640  0.5771  0.1282  0.4317
 1013MOL0     C39719   1.393   1.200   1.584  0.2619  0.5401 -0.2653
 1013MOL0     C39720   1.291   1.176   1.476  0.0255  0.0239 -0.1803
 1013MOL0     C39721   1.202   1.186   1.386 -0.2927  0.6089  1.2452
 1013MOL0     C39722   1.909   1.513   1.692  0.5793  1.2917  0.1600
 1013MOL0     C39723   2.037   1.452   1.708 -0.5117 -0.5445 -0.1728
 1013MOL0     C39724   2.146   1.544   1.760 -0.1458 -0.3333  0.4290
 1013MOL0     H39725   2.392   1.059   1.548 -0.4733 -0.5601  0.2522
 1013MOL0     H39726   2.625   0.962   1.630  1.9685  3.2135  0.8040
 1013MOL0     H39727   2.770   1.075   1.938  2.0563  1.1737 -0.5994
 1013MOL0     H39728   2.808   0.999   1.777 -1.6374 -0.4551 -0.1347
 1013MOL0     H39729   2.892   0.921   2.057  0.7622  0.7982 -0.7815
 1013MOL0     H39730   2.911   0.812   1.920 -0.3565  0.9469 -3.9895
 1013MOL0     H39731   3.134   0.914   1.935  0.9971 -0.3323 -0.7881
 1013MOL0     H39732   3.055   0.991   1.812  0.7667 -2.3054  0.2571
 1013MOL0     H39733   2.996   1.189   1.986 -0.8332  0.3815 -0.7140
 1013MOL0     H39734   3.085   1.098   2.111  1.2011  0.2244  0.1469
 1013MOL0     H39735   3.202   1.297   1.976 -0.7483 -0.4462 -1.0692
 1013MOL0     H39736   3.212   1.168   1.856 -0.2015 -2.5049 -0.0099
 1013MOL0     H39737   3.342   1.164   2.133  1.1889 -1.3292  0.9023
 1013MOL0     H39738   3.327   1.018   2.026  0.2996 -0.2237 -3.6347
 1013MOL0     H39739   3.422   1.137   1.837 -3.3334  0.4667  0.3571
 1013MOL0     H39740   3.532   1.093   1.970 -0.6210  0.4105  1.2100
 1013MOL0     H39741   3.417   1.380   1.939  0.6540  0.1524  0.8494
 1013MOL0     H39742   3.556   1.331   2.026 -0.8323 -1.5611  0.7710
 1013MOL0     H39743   3.780   1.212   1.902  2.3997  0.6347 -0.8498
 1013MOL0     H39744   3.981   1.378   1.815 -2.5104 -2.1953  1.6086
 1013MOL0     H39745   3.969   1.431   1.650 -0.3783  3.7814  3.7896
 1013MOL0     H39746   4.001   1.147   1.752  1.7864 -1.0928  0.0159
 1013MOL0     H39747   3.927   1.177   1.587 -4.1451 -0.7589  3.3385
 1013MOL0     H39748   4.136   1.297   1.537  3.8570  1.2701  1.5087
 1013MOL0     H39749   4.205   1.250   1.691 -2.0878  0.5774  0.2687
 1013MOL0     H39750   4.185   0.991   1.619  3.3900 -2.8663 -2.6002
 1013MOL0     H39751   4.125   1.056   1.465 -0.3070  0.2084  0.0771
 1013MOL0     H39752   4.578   1.105   1.496  1.0323  1.4426  0.2713
 1013MOL0     H39753   4.785   1.069   1.525  1.6283  2.8348 -0.8524
 1013MOL0     H39754   4.868   1.029   1.673  0.4017  0.0830 -0.6709
 1013MOL0     H39755   4.833   1.194   1.642  0.2212 -0.0772 -0.5392
 1013MOL0     H39756   4.734   1.266   2.167  1.4006  1.7985  1.6362
 1013MOL0     H39757   4.877   1.299   2.361  1.0621  0.9050 -1.3587
 1013MOL0     H39758   4.968   1.253   2.607 -1.7027  0.4593  0.2707
 1013MOL0     H39759   4.807   1.168   2.591 -0.5981 -2.3058  1.8421
 1013MOL0     H39760   4.874   0.986   2.744  0.0076  0.0679  0.8294
 1013MOL0     H39761   5.035   1.049   2.742  0.6421  0.9041 -2.1110
 1013MOL0     H39762   4.799   1.219   2.827 -0.8153 -0.7298  3.3057
 1013MOL0     H39763   4.967   1.260   2.853 -0.6959  1.2925  0.3088
 1013MOL0     H39764   4.981   1.052   3.003  1.6191  0.6076 -2.2363
 1013MOL0     H39765   4.811   1.029   2.979  0.4614 -0.8059  2.3666
 1013MOL0     H39766   4.931   1.282   3.116  0.3532  0.9461 -0.7413
 1013MOL0     H39767   4.759   1.243   3.110  0.3149 -1.5668 -4.6826
 1013MOL0     H39768   4.985   1.143   3.273 -0.8124  0.2724  2.1067
 1013MOL0     H39769   4.881   1.012   3.212  2.1455  0.4676 -0.5372
 1013MOL0     H39770   4.802   1.232   3.393  1.1347 -0.2404  1.4933
 1013MOL0     H39771   4.785   1.067   3.430  0.0245  0.8192  0.1898
 1013MOL0     H39772   4.597   1.204   3.263 -1.1362  1.1296  0.9207
 1013MOL0     H39773   4.563   1.091   3.394 -0.8355  5.7833  0.7397
 1013MOL0     H39774   4.972   0.868   2.354  2.2454  1.4445  0.7936
 1013MOL0     H39775   4.837   0.852   2.151 -0.6642  0.9477 -0.9380
 1013MOL0     H39776   4.466   1.055   1.976  5.0375 -1.6276  1.7299
 1013MOL0     H39777   4.281   1.075   1.807 -1.0092  1.5761 -1.8367
 1013MOL0     H39778   2.457   0.918   2.011 -5.4645 -3.9408 -1.6180
 1013MOL0     H39779   2.236   1.008   1.927 -0.8529 -2.3224  0.4269
 1013MOL0     H39780   1.946   1.131   1.646 -0.0675  0.4239  2.1731
 1013MOL0     H39781   1.744   1.250   1.570  0.8185 -1.7283  0.4140
 1013MOL0     H39782   1.523   1.531   1.521  2.3329  0.0265 -3.4439
 1013MOL0     H39783   1.590   1.374   1.508 -2.5039 -1.4033 -0.0813
 1013MOL0     H39784   1.480   1.486   1.764 -0.4123 -0.5681  1.1786
 1013MOL0     H39785   1.553   1.323   1.764 -1.5576 -1.7614 -0.4995
 1013MOL0     H39786   1.308   1.334   1.722 -1.7723 -2.5836 -1.5858
 1013MOL0     H39787   1.328   1.409   1.574 -0.3356 -0.8308  0.1097
 1013MOL0     H39788   1.389   1.131   1.669  0.6815 -3.0185 -2.9197
 1013MOL0     H39789   1.488   1.181   1.532  1.4350 -1.3214  2.3038
 1013MOL0     H39790   1.128   1.211   1.314 -0.8506  1.5507  2.1237
 1013MOL0     H39791   1.887   1.618   1.708  1.9450  1.7315 -0.6514
 1013MOL0     H39792   2.183   1.509   1.857  0.6075 -1.8312 -0.3626
 1013MOL0     H39793   2.225   1.538   1.684 -0.5156  1.2879 -0.1096
 1013MOL0     H39794   2.102   1.644   1.765 -0.9624 -0.6751  0.3155
 1014MOL0     O39795   2.474   6.319   4.138  0.2025 -0.0602 -0.0775
 1014MOL0     C39796   2.431   6.309   4.025  0.3599 -0.3160  0.6882
 1014MOL0     O39797   2.465   6.202   3.953  0.1437  0.1761  0.4237
 1014MOL0     C39798   2.405   6.166   3.840  0.6607 -0.1470 -0.0384
 1014MOL0     C39799   2.482   6.163   3.719 -0.1476  0.2868  0.3993
 1014MOL0     C39800   2.420   6.124   3.603  0.3164  0.0363  0.3984
 1014MOL0     C39801   2.283   6.073   3.605  0.3079 -1.2620 -0.0463
 1014MOL0     O39802   2.215   6.043   3.493  0.6475 -0.0083  0.2257
 1014MOL0     C39803   2.291   5.979   3.390  0.3280 -0.1312 -0.1533
 1014MOL0     C39804   2.190   5.926   3.293  0.2134  0.3599 -0.0759
 1014MOL0     C39805   2.100   5.824   3.380 -0.4237  0.5851 -0.1981
 1014MOL0     C39806   1.976   5.793   3.297 -0.2124 -0.2008 -0.2084
 1014MOL0     C39807   1.893   5.676   3.369 -0.0539 -0.7661 -0.0628
 1014MOL0     C39808   1.787   5.619   3.278  0.1499  0.4702  0.3489
 1014MOL0     C39809   1.682   5.528   3.358  0.6289 -0.9361  0.0174
 1014MOL0     C39810   1.677   5.376   3.310  0.5427  0.8188 -0.4057
 1014MOL0     N39811   1.804   5.304   3.332  0.0576  0.1239  0.5688
 1014MOL0     C39812   1.871   5.216   3.254 -0.0019 -0.0698  0.5864
 1014MOL0     C39813   2.001   5.223   3.284  0.3087  0.6789 -0.4683
 1014MOL0     C39814   2.100   5.138   3.201  0.5510  0.0230  0.0688
 1014MOL0     C39815   2.157   5.218   3.083 -0.1563  0.5254 -0.2657
 1014MOL0     C39816   2.220   5.355   3.138  1.1991  0.4699  0.7901
 1014MOL0     C39817   2.300   5.433   3.038  0.0280 -0.3748 -0.2855
 1014MOL0     O39818   2.391   5.353   2.976 -0.0063  0.7372  0.8362
 1014MOL0     C39819   2.395   5.379   2.835  0.0933  0.4238 -0.0884
 1014MOL0     C39820   2.401   5.272   2.753 -0.2963  0.4088 -0.3038
 1014MOL0     C39821   2.421   5.282   2.611 -0.1076  0.8976  0.5310
 1014MOL0     C39822   2.429   5.152   2.533  0.1323  0.4426 -0.6034
 1014MOL0     C39823   2.435   5.406   2.556  0.0702 -0.9994 -0.1550
 1014MOL0     C39824   2.482   5.426   2.411  0.3698 -0.7045 -0.5048
 1014MOL0     O39825   2.543   5.540   2.373  0.6119 -0.3613  0.8019
 1014MOL0     C39826   2.624   5.516   2.269  0.1327 -0.2305 -0.0625
 1014MOL0     C39827   2.724   5.427   2.281 -0.1666  0.3779  0.6402
 1014MOL0     C39828   2.819   5.405   2.179  0.2732 -0.0459 -0.8507
 1014MOL0     C39829   2.804   5.470   2.054  0.1934  0.1946 -0.5435
 1014MOL0     O39830   2.896   5.441   1.953 -0.5728  1.1463  0.9365
 1014MOL0     C39831   2.886   5.527   1.837 -1.1047  0.3957 -0.3440
 1014MOL0     C39832   2.930   5.670   1.857 -0.0409 -0.9153  0.9238
 1014MOL0     C39833   3.082   5.684   1.848 -0.3510 -0.0849 -0.1057
 1014MOL0     C39834   3.161   5.606   1.960  0.8392  0.2104 -0.6989
 1014MOL0     C39835   3.274   5.694   2.020  0.6460 -0.8770  0.5458
 1014MOL0     C39836   3.400   5.696   1.936 -0.7371 -0.2193  0.1278
 1014MOL0     C39837   3.385   5.752   1.798 -0.0247 -0.0475  0.2296
 1014MOL0     C39838   3.517   5.825   1.757 -0.4642 -0.0396 -0.0535
 1014MOL0    Cl39839   3.492   5.912   1.607  0.2685  0.0137 -0.2681
 1014MOL0     C39840   2.697   5.564   2.046  0.4040 -0.4229 -0.2035
 1014MOL0     C39841   2.608   5.592   2.153 -0.5202  0.2256  0.9713
 1014MOL0     O39842   2.449   5.337   2.333 -0.4528  0.8346 -0.0451
 1014MOL0     C39843   2.429   5.520   2.638  0.1227  0.2512  0.0463
 1014MOL0     C39844   2.404   5.509   2.773  0.3999 -0.3043 -0.2524
 1014MOL0     N39845   2.014   5.307   3.382 -0.2108  0.2404  0.1434
 1014MOL0     N39846   1.903   5.351   3.408 -0.1497 -0.1128 -0.0196
 1014MOL0     C39847   2.218   6.057   3.725  0.9655 -1.2806 -0.0101
 1014MOL0     C39848   2.277   6.111   3.842  0.2736 -0.0373 -0.1721
 1014MOL0     C39849   2.350   6.420   3.980  0.6683  0.5185  0.2310
 1014MOL0     C39850   2.375   6.493   3.864 -0.6399 -0.6827  0.0582
 1014MOL0     C39851   2.286   6.594   3.816  0.2635  0.2681 -0.1636
 1014MOL0     C39852   2.174   6.639   3.900 -0.3463  0.4924  0.2492
 1014MOL0     O39853   2.075   6.739   3.876 -0.8855 -0.1638  0.0846
 1014MOL0     C39854   2.090   6.800   3.746  0.2667 -1.0963 -0.0966
 1014MOL0     C39855   2.054   6.710   3.629  0.5864  0.7531  0.4794
 1014MOL0     C39856   2.100   6.756   3.496  0.5774  0.8119  0.3772
 1014MOL0     C39857   2.056   6.648   3.396  0.7294 -0.1940 -0.3283
 1014MOL0     C39858   2.110   6.680   3.267 -0.5133  0.1741 -0.3588
 1014MOL0     C39859   2.166   6.700   3.163 -0.0717  0.3355  0.9899
 1014MOL0     C39860   2.161   6.567   4.021 -0.1247  0.3382  1.8575
 1014MOL0     C39861   2.235   6.454   4.054  0.0701 -0.5368 -0.4232
 1014MOL0     C39862   2.177   6.375   4.168 -0.3221 -0.8138 -1.3276
 1014MOL0     H39863   2.582   6.202   3.712  1.4397 -2.8893  2.7097
 1014MOL0     H39864   2.474   6.128   3.509  2.1615  0.7158  1.4299
 1014MOL0     H39865   2.349   5.896   3.433  3.1363  1.7182 -0.0940
 1014MOL0     H39866   2.345   6.058   3.338 -3.7832  4.3149  1.5731
 1014MOL0     H39867   2.127   6.000   3.242  0.0671 -0.5488 -1.2631
 1014MOL0     H39868   2.228   5.869   3.208 -2.9353 -0.8713 -0.8313
 1014MOL0     H39869   2.160   5.735   3.400 -0.7848  0.4825  0.4721
 1014MOL0     H39870   2.062   5.866   3.474 -0.1827  1.8034 -0.6273
 1014MOL0     H39871   1.920   5.887   3.296  0.3778  0.2847  2.8686
 1014MOL0     H39872   1.989   5.761   3.193 -1.7536  1.8581 -1.1016
 1014MOL0     H39873   1.857   5.709   3.468 -0.2368 -0.6949 -0.1523
 1014MOL0     H39874   1.955   5.590   3.393  1.4894  0.5146  0.7896
 1014MOL0     H39875   1.725   5.698   3.235 -0.6416 -0.0767  0.4448
 1014MOL0     H39876   1.823   5.561   3.193  1.6465 -2.1324  2.5951
 1014MOL0     H39877   1.579   5.564   3.349  0.6781 -0.5662  0.8982
 1014MOL0     H39878   1.701   5.529   3.465 -2.3846 -1.2992  0.6335
 1014MOL0     H39879   1.610   5.320   3.376 -0.5856  1.2468 -1.1424
 1014MOL0     H39880   1.645   5.373   3.205  0.7432 -0.6299 -0.4419
 1014MOL0     H39881   1.834   5.151   3.176 -0.3712  1.6130 -0.6826
 1014MOL0     H39882   2.039   5.053   3.170 -1.2527  1.0923  0.5199
 1014MOL0     H39883   2.188   5.098   3.253  2.5844  0.6674 -2.6140
 1014MOL0     H39884   2.236   5.154   3.042 -0.6743 -4.0288  4.6574
 1014MOL0     H39885   2.079   5.238   3.009  0.7611 -2.1395 -2.1029
 1014MOL0     H39886   2.137   5.410   3.184  0.0556 -1.2310  0.8591
 1014MOL0     H39887   2.295   5.321   3.210  2.7584  0.1621 -0.9193
 1014MOL0     H39888   2.225   5.481   2.974  0.7470  0.5891 -0.4359
 1014MOL0     H39889   2.343   5.520   3.088 -2.0331  1.2511 -1.1487
 1014MOL0     H39890   2.397   5.174   2.799 -1.7619  2.0506  3.3681
 1014MOL0     H39891   2.433   5.062   2.594  1.5965 -0.4949 -2.0140
 1014MOL0     H39892   2.523   5.153   2.478  1.6380 -0.3797  1.8087
 1014MOL0     H39893   2.348   5.137   2.461 -0.0165  2.8405 -1.0401
 1014MOL0     H39894   2.749   5.384   2.377  0.5130 -0.1366  0.2437
 1014MOL0     H39895   2.905   5.341   2.199  1.7855  2.0594 -0.3316
 1014MOL0     H39896   2.938   5.492   1.747  0.6180  4.8595 -1.3570
 1014MOL0     H39897   2.781   5.527   1.804 -2.5151 -0.6127  3.5981
 1014MOL0     H39898   2.883   5.724   1.775  0.0996 -3.1465 -0.7090
 1014MOL0     H39899   2.890   5.715   1.949  0.8198  0.6209  0.5868
 1014MOL0     H39900   3.100   5.791   1.861  2.2318 -0.4814  0.1081
 1014MOL0     H39901   3.119   5.651   1.751  0.8006  1.5960 -0.2791
 1014MOL0     H39902   3.208   5.512   1.929  1.9005  0.7280 -0.7108
 1014MOL0     H39903   3.092   5.590   2.043  0.0795  0.0991 -1.3369
 1014MOL0     H39904   3.235   5.794   2.043  0.5702 -0.2718 -1.9203
 1014MOL0     H39905   3.291   5.658   2.122  0.3552  0.0209  0.9190
 1014MOL0     H39906   3.428   5.592   1.918 -0.6275 -0.6804  2.5769
 1014MOL0     H39907   3.480   5.748   1.989  0.1296 -1.5392  0.1573
 1014MOL0     H39908   3.311   5.833   1.801  1.2503  1.1244  1.0917
 1014MOL0     H39909   3.362   5.675   1.724 -1.5124  0.8107 -0.2627
 1014MOL0     H39910   3.604   5.760   1.743 -2.0880 -1.5270 -5.4971
 1014MOL0     H39911   3.537   5.902   1.832 -1.6422  1.6083 -1.3672
 1014MOL0     H39912   2.676   5.631   1.963  1.1227  1.5865  1.1608
 1014MOL0     H39913   2.532   5.669   2.145  0.2304  1.3558  3.6127
 1014MOL0     H39914   2.432   5.622   2.599 -0.4976  0.9342  1.6822
 1014MOL0     H39915   2.389   5.598   2.833 -1.5107 -0.5665 -0.2870
 1014MOL0     H39916   2.117   6.017   3.725  0.5494 -0.2748  0.4565
 1014MOL0     H39917   2.221   6.118   3.934  0.6346 -1.1989  0.1453
 1014MOL0     H39918   2.457   6.471   3.797 -0.0387  1.9857 -0.1976
 1014MOL0     H39919   2.295   6.653   3.726 -1.7786  2.1306  0.7793
 1014MOL0     H39920   2.031   6.893   3.751  0.2835 -1.1468  1.3629
 1014MOL0     H39921   2.193   6.834   3.731  0.0847  0.5072  1.8913
 1014MOL0     H39922   1.946   6.720   3.616  0.9767  2.3108 -2.3093
 1014MOL0     H39923   2.082   6.605   3.641  2.0700  0.9275 -1.1274
 1014MOL0     H39924   2.059   6.854   3.471 -1.6807  0.4882  2.4378
 1014MOL0     H39925   2.209   6.763   3.489  0.3608  2.6383 -3.7275
 1014MOL0     H39926   1.947   6.634   3.396  0.7238 -0.5886  2.0779
 1014MOL0     H39927   2.103   6.553   3.425 -0.1994 -0.0670  1.8272
 1014MOL0     H39928   2.229   6.705   3.076  0.6482 -2.1508  1.2985
 1014MOL0     H39929   2.076   6.590   4.085  0.0629 -0.1374  2.2796
 1014MOL0     H39930   2.249   6.309   4.218  1.8038  0.9426 -1.9008
 1014MOL0     H39931   2.127   6.443   4.238  1.2493 -0.1211 -0.8308
 1014MOL0     H39932   2.101   6.305   4.132 -1.5927 -2.3672  3.6111
 1015MOL0     O39933  10.881   8.031   1.306 -0.3464 -0.4555  0.6693
 1015MOL0     C39934  10.903   7.921   1.351 -0.7661 -0.4048 -1.1762
 1015MOL0     O39935  11.001   7.835   1.305  0.4595  0.7307  0.2387
 1015MOL0     C39936  11.090   7.885   1.210  0.2773 -0.7245  0.1256
 1015MOL0     C39937  11.053   7.894   1.078 -0.4375 -0.9251 -0.8268
 1015MOL0     C39938  11.135   7.956   0.991 -0.2217  0.4723 -0.3678
 1015MOL0     C39939  11.268   7.997   1.026 -0.3865 -0.3724  0.7378
 1015MOL0     O39940  11.369   8.038   0.928  0.4303 -0.4755 -0.1795
 1015MOL0     C39941  11.337   8.119   0.815 -0.4518 -0.2310  0.6087
 1015MOL0     C39942  11.298   8.266   0.839 -0.4417 -0.1270 -0.4102
 1015MOL0     C39943  11.388   8.333   0.940  0.4861  0.9556 -0.5643
 1015MOL0     C39944  11.390   8.485   0.924 -0.4618  0.3427  0.3032
 1015MOL0     C39945  11.494   8.558   1.017  0.6179 -0.4307  0.2747
 1015MOL0     C39946  11.489   8.519   1.159  0.2941  0.5925  0.5905
 1015MOL0     C39947  11.555   8.615   1.253  0.2449 -0.2190 -0.1746
 1015MOL0     C39948  11.701   8.636   1.224 -1.1204  0.0887 -0.4581
 1015MOL0     N39949  11.766   8.744   1.305 -1.0809  1.5616 -0.0726
 1015MOL0     C39950  11.775   8.882   1.300 -0.0433  0.7727 -0.3323
 1015MOL0     C39951  11.839   8.930   1.412  0.2019  0.1244  0.1650
 1015MOL0     C39952  11.842   9.081   1.441 -0.3745 -0.3069  0.3038
 1015MOL0     C39953  11.991   9.124   1.476 -0.1840 -0.4660 -0.8269
 1015MOL0     C39954  12.109   9.071   1.394 -0.0766 -0.8599 -0.2433
 1015MOL0     C39955  12.246   9.104   1.456  0.2055 -1.6419  0.5758
 1015MOL0     O39956  12.258   9.228   1.528 -0.2685  0.2592  0.3220
 1015MOL0     C39957  12.381   9.285   1.559  0.1795  0.5712  0.4889
 1015MOL0     C39958  12.391   9.422   1.605  0.7106 -0.3893 -0.3287
 1015MOL0     C39959  12.514   9.479   1.624  1.2036  0.9254  0.1013
 1015MOL0     C39960  12.510   9.630   1.652  0.1734 -1.0906 -0.0695
 1015MOL0     C39961  12.635   9.409   1.609  0.0346 -0.0386  0.3181
 1015MOL0     C39962  12.771   9.461   1.637 -0.4116  0.8566 -0.3600
 1015MOL0     O39963  12.771   9.570   1.714  0.3399 -0.5601  0.3315
 1015MOL0     C39964  12.898   9.635   1.726  0.2832 -0.7710  0.3933
 1015MOL0     C39965  13.001   9.580   1.810  0.4231 -0.0061 -0.3077
 1015MOL0     C39966  13.127   9.638   1.804  0.0965  0.0990 -0.0058
 1015MOL0     C39967  13.158   9.748   1.719 -0.2768  0.0858  0.9361
 1015MOL0     O39968  13.289   9.781   1.681  0.1406  0.6720 -0.4041
 1015MOL0     C39969  13.388   9.717   1.767 -0.3337 -0.2134 -0.6480
 1015MOL0     C39970  13.512   9.785   1.766 -1.0034  0.4907  0.5387
 1015MOL0     C39971  13.583   9.786   1.623  0.4210  0.2435 -0.4964
 1015MOL0     C39972  13.737   9.798   1.636 -0.5441 -0.1664 -0.1308
 1015MOL0     C39973  13.800   9.759   1.496 -0.5911 -0.0154 -0.5403
 1015MOL0     C39974  13.949   9.784   1.495 -0.2897 -0.3156 -1.1833
 1015MOL0     C39975  14.037   9.722   1.606  0.7700  1.2206 -0.4793
 1015MOL0     C39976  14.184   9.697   1.563 -0.6162  0.3247 -0.1220
 1015MOL0    Cl39977  14.282   9.858   1.544 -0.2300  0.2702 -0.1710
 1015MOL0     C39978  13.052   9.807   1.646 -0.4028  0.3602  1.6608
 1015MOL0     C39979  12.931   9.748   1.650  0.6344  0.0307  0.0701
 1015MOL0     O39980  12.868   9.405   1.592 -0.8894 -0.6147 -0.1757
 1015MOL0     C39981  12.619   9.271   1.572 -0.3678  0.2388  0.3232
 1015MOL0     C39982  12.499   9.212   1.539  0.6601  0.9607  0.5025
 1015MOL0     N39983  11.863   8.818   1.494 -0.0419  0.4589  0.2830
 1015MOL0     N39984  11.809   8.716   1.430 -0.4287  0.1236  0.0979
 1015MOL0     C39985  11.305   7.971   1.155  0.4754  0.5026 -0.9609
 1015MOL0     C39986  11.212   7.928   1.254 -0.0241  0.5212 -0.0296
 1015MOL0     C39987  10.842   7.889   1.476  0.6918  0.2429 -0.7115
 1015MOL0     C39988  10.770   7.986   1.539 -0.1315 -0.2469  0.1549
 1015MOL0     C39989  10.679   7.960   1.645 -0.6021  0.6960 -0.5756
 1015MOL0     C39990  10.678   7.825   1.701 -0.0803  0.2434  0.4696
 1015MOL0     O39991  10.593   7.791   1.804  0.0349  0.0440 -0.0997
 1015MOL0     C39992  10.493   7.699   1.763 -0.2068  0.6360 -0.6321
 1015MOL0     C39993  10.388   7.681   1.869 -0.3430 -0.8708 -0.0176
 1015MOL0     C39994  10.362   7.541   1.911  0.6101  0.1790 -1.1523
 1015MOL0     C39995  10.316   7.448   1.794  0.1096 -0.4238 -1.1603
 1015MOL0     C39996  10.177   7.472   1.746  0.1868 -0.1141 -0.5187
 1015MOL0     C39997  10.065   7.499   1.708  0.0066  0.2475 -0.0787
 1015MOL0     C39998  10.768   7.730   1.650 -0.0316  0.9072  0.4698
 1015MOL0     C39999  10.835   7.757   1.533 -0.2801 -0.0436  0.1478
 1015MOL0     C40000  10.888   7.632   1.465 -0.0436 -0.2084 -0.0190
 1015MOL0     H40001  10.958   7.846   1.055  1.2155 -4.5899 -0.5173
 1015MOL0     H40002  11.088   7.964   0.893 -1.4290 -2.8230 -0.1687
 1015MOL0     H40003  11.244   8.084   0.769 -1.6426  2.8071  0.4711
 1015MOL0     H40004  11.414   8.126   0.737 -0.1898  0.2721  0.9121
 1015MOL0     H40005  11.304   8.323   0.746 -0.6739  1.2088  0.3658
 1015MOL0     H40006  11.196   8.256   0.877  0.3304 -1.4341  1.5081
 1015MOL0     H40007  11.348   8.311   1.040  5.1547  1.7073  1.7529
 1015MOL0     H40008  11.487   8.287   0.933  0.0856  0.1420 -1.1033
 1015MOL0     H40009  11.422   8.502   0.821 -0.6790  1.6571  0.4432
 1015MOL0     H40010  11.293   8.533   0.936 -0.4038  0.3343  0.8513
 1015MOL0     H40011  11.464   8.663   1.009  0.1722 -0.5881 -0.2057
 1015MOL0     H40012  11.591   8.544   0.969  1.2064  0.5833  1.1086
 1015MOL0     H40013  11.384   8.515   1.190 -0.1850  2.2935 -0.6746
 1015MOL0     H40014  11.521   8.415   1.170 -2.9246 -0.4662  1.0096
 1015MOL0     H40015  11.551   8.588   1.359 -0.1491  1.1968  0.1997
 1015MOL0     H40016  11.500   8.709   1.243 -1.1875 -0.5730  2.9719
 1015MOL0     H40017  11.769   8.553   1.247 -1.7502 -0.0556  1.0128
 1015MOL0     H40018  11.699   8.671   1.120 -3.5904 -0.8266 -0.7820
 1015MOL0     H40019  11.718   8.947   1.234 -0.9100  0.0584 -0.3070
 1015MOL0     H40020  11.778   9.111   1.525  1.3234  0.8621  1.2375
 1015MOL0     H40021  11.830   9.135   1.347  2.9845  1.0547  0.5431
 1015MOL0     H40022  11.988   9.233   1.464 -0.6462 -0.5299 -1.3635
 1015MOL0     H40023  12.010   9.104   1.582  0.1094  1.4741 -0.4719
 1015MOL0     H40024  12.100   8.962   1.388  0.3128 -0.9465  0.6012
 1015MOL0     H40025  12.118   9.109   1.292  2.9175 -2.5596 -0.7304
 1015MOL0     H40026  12.271   9.021   1.523 -1.8696 -1.0744  2.1921
 1015MOL0     H40027  12.315   9.114   1.372  0.8326  0.3546  1.2745
 1015MOL0     H40028  12.304   9.481   1.630 -0.5255 -1.7111 -1.2786
 1015MOL0     H40029  12.421   9.689   1.626  0.6290 -1.1684 -1.9830
 1015MOL0     H40030  12.588   9.681   1.595  0.9835  1.5988  3.1415
 1015MOL0     H40031  12.539   9.651   1.755 -3.4940 -0.2261  0.9381
 1015MOL0     H40032  12.990   9.492   1.874  0.9480 -0.5662 -0.9753
 1015MOL0     H40033  13.194   9.578   1.865 -0.2694 -3.3507 -2.6340
 1015MOL0     H40034  13.358   9.701   1.871  1.7801 -1.4160 -0.1563
 1015MOL0     H40035  13.405   9.615   1.729  2.0418  0.1333 -0.6989
 1015MOL0     H40036  13.484   9.889   1.789  0.6885  1.1270 -0.1026
 1015MOL0     H40037  13.579   9.746   1.843 -1.7076 -0.3898  0.7119
 1015MOL0     H40038  13.538   9.867   1.566  0.9558  0.8770 -0.0283
 1015MOL0     H40039  13.574   9.693   1.565  2.7021  0.2753 -0.9663
 1015MOL0     H40040  13.778   9.724   1.704 -2.0407 -0.4435  0.5123
 1015MOL0     H40041  13.757   9.900   1.672 -0.6148 -1.2337  3.2418
 1015MOL0     H40042  13.768   9.656   1.479 -1.8671  0.4432 -1.1239
 1015MOL0     H40043  13.753   9.820   1.417 -2.3212  1.7703  1.7289
 1015MOL0     H40044  13.961   9.892   1.507 -2.8567 -0.0212 -0.7306
 1015MOL0     H40045  13.992   9.770   1.395  0.8507  3.4593 -1.3716
 1015MOL0     H40046  14.003   9.620   1.626  4.1743  0.4735  2.5181
 1015MOL0     H40047  14.019   9.771   1.702 -1.3096  1.5393 -0.9880
 1015MOL0     H40048  14.192   9.646   1.467  0.8078  0.0073  0.1372
 1015MOL0     H40049  14.234   9.635   1.638  2.1765  2.4212 -0.0734
 1015MOL0     H40050  13.064   9.884   1.570  0.2149  0.0186  1.4086
 1015MOL0     H40051  12.856   9.781   1.580  3.1233  2.0794 -1.8151
 1015MOL0     H40052  12.702   9.201   1.569  0.3413  1.0471 -2.8252
 1015MOL0     H40053  12.490   9.104   1.539  0.9447  0.9349  0.8696
 1015MOL0     H40054  11.405   7.995   1.188 -0.4119  1.9824  0.8102
 1015MOL0     H40055  11.246   7.902   1.353  1.0864 -3.7420 -1.3223
 1015MOL0     H40056  10.777   8.087   1.501 -0.6993 -0.5683 -0.8502
 1015MOL0     H40057  10.611   8.035   1.684 -0.7527  0.2690  0.0140
 1015MOL0     H40058  10.437   7.738   1.678  0.0693  1.8666 -0.2699
 1015MOL0     H40059  10.533   7.605   1.724 -1.5907  0.0148 -0.5970
 1015MOL0     H40060  10.292   7.728   1.844 -1.3514 -1.6630  2.1668
 1015MOL0     H40061  10.414   7.738   1.958 -0.5488  0.1807 -0.6085
 1015MOL0     H40062  10.462   7.520   1.951  0.2373  1.2757  0.4486
 1015MOL0     H40063  10.290   7.548   1.993  1.4160 -1.5892 -0.2332
 1015MOL0     H40064  10.310   7.347   1.836  0.0688  0.2385  0.4926
 1015MOL0     H40065  10.388   7.441   1.712  2.5119  0.2149  0.7833
 1015MOL0     H40066   9.961   7.506   1.685  0.2219  0.4041 -1.0582
 1015MOL0     H40067  10.758   7.629   1.690  1.7039  0.3831 -0.3257
 1015MOL0     H40068  10.997   7.640   1.472  0.2629 -1.1178 -2.6990
 1015MOL0     H40069  10.850   7.541   1.511  2.4756 -2.4583 -2.0215
 1015MOL0     H40070  10.866   7.633   1.358  1.7669  2.2187 -0.4874
 1016MOL0     O40071   8.967   2.989   4.784 -0.4452  0.3186  0.3353
 1016MOL0     C40072   9.077   3.043   4.782  0.3665  0.4248  0.7995
 1016MOL0     O40073   9.192   2.985   4.806 -0.0278 -0.7884  0.0400
 1016MOL0     C40074   9.194   2.857   4.856 -0.8871 -1.1058 -0.0967
 1016MOL0     C40075   9.289   2.777   4.792  0.5124  0.6699 -0.1313
 1016MOL0     C40076   9.286   2.643   4.839  0.1364 -0.2407 -0.1253
 1016MOL0     C40077   9.213   2.591   4.936 -0.0732  1.3204 -1.2537
 1016MOL0     O40078   9.225   2.454   4.957 -0.0845  0.2535 -0.2059
 1016MOL0     C40079   9.184   2.401   5.084 -0.0516 -0.5573 -0.0998
 1016MOL0     C40080   9.245   2.266   5.110  0.1787 -1.4236 -0.3517
 1016MOL0     C40081   9.198   2.218   5.241  0.3354  0.5551 -0.4571
 1016MOL0     C40082   9.215   2.067   5.259 -0.2198 -0.6740 -0.5058
 1016MOL0     C40083   9.101   2.021   5.360 -0.5010  0.6172 -0.4207
 1016MOL0     C40084   9.107   1.871   5.406  0.1727  0.6066 -0.0340
 1016MOL0     C40085   9.108   1.771   5.294  0.5701 -0.8986  0.3449
 1016MOL0     C40086   9.130   1.630   5.349  0.9644  0.5173 -0.3572
 1016MOL0     N40087   9.136   1.526   5.248 -0.7473 -0.3677 -0.0554
 1016MOL0     C40088   9.049   1.524   5.146  0.3114  1.1644  0.4194
 1016MOL0     C40089   9.065   1.404   5.077 -0.6305 -0.6193 -0.7431
 1016MOL0     C40090   8.990   1.371   4.955 -0.4164  0.0977  0.1098
 1016MOL0     C40091   9.089   1.375   4.836  0.4299 -0.3504 -0.3636
 1016MOL0     C40092   9.115   1.522   4.801 -0.4673  0.3237  0.9166
 1016MOL0     C40093   9.240   1.536   4.702  0.6768 -0.7663  0.2210
 1016MOL0     O40094   9.366   1.499   4.767  0.0379 -0.0821  0.3220
 1016MOL0     C40095   9.413   1.570   4.882  0.6384  0.1329  0.6601
 1016MOL0     C40096   9.432   1.715   4.876 -0.5139  0.7958  0.4045
 1016MOL0     C40097   9.473   1.794   4.980 -0.3368  1.3943 -0.7221
 1016MOL0     C40098   9.489   1.941   4.959 -0.2329  1.3010 -0.2429
 1016MOL0     C40099   9.488   1.732   5.105 -0.0562 -0.4807  0.0219
 1016MOL0     C40100   9.518   1.810   5.231  0.0755 -0.5077  0.5305
 1016MOL0     O40101   9.588   1.922   5.226 -0.8852 -0.6531 -0.5077
 1016MOL0     C40102   9.599   2.002   5.333 -0.1310  0.7251  0.1706
 1016MOL0     C40103   9.562   2.134   5.320 -0.7724 -0.4757 -0.9595
 1016MOL0     C40104   9.577   2.220   5.433  0.8315  0.2591  0.0924
 1016MOL0     C40105   9.624   2.169   5.560 -0.1373  0.0890  0.0453
 1016MOL0     O40106   9.643   2.248   5.664  0.4360 -0.9711 -0.6912
 1016MOL0     C40107   9.701   2.373   5.628 -0.8563 -0.6613 -0.9477
 1016MOL0     C40108   9.734   2.429   5.769 -0.4479 -0.4399  0.0649
 1016MOL0     C40109   9.812   2.568   5.760 -0.6357 -0.0083  0.5096
 1016MOL0     C40110   9.872   2.617   5.898 -0.2634  1.0316 -0.2043
 1016MOL0     C40111   9.927   2.764   5.878  0.5959  0.5941  0.3311
 1016MOL0     C40112  10.030   2.803   5.983  0.8465  0.4333  0.3226
 1016MOL0     C40113  10.171   2.744   5.968  0.0118 -0.3605  0.0948
 1016MOL0     C40114  10.242   2.749   6.100 -0.0297 -0.2979  0.2017
 1016MOL0    Cl40115  10.283   2.933   6.124  0.0845  0.0792 -0.1330
 1016MOL0     C40116   9.651   2.033   5.564 -0.8670  0.1204 -0.1475
 1016MOL0     C40117   9.650   1.955   5.451  0.2209  0.2352  0.6995
 1016MOL0     O40118   9.488   1.754   5.340 -0.4236  0.2428 -0.1829
 1016MOL0     C40119   9.450   1.595   5.118 -0.3497 -0.6109  1.0605
 1016MOL0     C40120   9.420   1.518   5.005  0.8978 -0.0163 -0.1792
 1016MOL0     N40121   9.169   1.329   5.147 -0.4336  0.7827  0.0625
 1016MOL0     N40122   9.206   1.411   5.251  0.2602 -0.0038  0.2152
 1016MOL0     C40123   9.131   2.676   5.007 -0.0784  0.8102 -0.5203
 1016MOL0     C40124   9.113   2.804   4.956 -0.9583 -0.7390 -0.2877
 1016MOL0     C40125   9.084   3.188   4.759  0.1063  0.6034  0.3724
 1016MOL0     C40126   8.985   3.279   4.806 -0.8756 -0.1021 -0.9288
 1016MOL0     C40127   8.983   3.417   4.788 -0.1331  0.2179 -0.5990
 1016MOL0     C40128   9.089   3.476   4.740  0.0508 -0.9686 -0.7252
 1016MOL0     O40129   9.108   3.609   4.732  0.0745  0.5287 -0.4293
 1016MOL0     C40130   9.008   3.696   4.791  0.2196 -0.5510  0.4229
 1016MOL0     C40131   9.025   3.851   4.764  0.3683  0.4166  0.8969
 1016MOL0     C40132   8.936   3.943   4.843 -0.3506  0.2352  0.2608
 1016MOL0     C40133   8.965   3.922   4.991 -0.1027 -0.1151 -0.1374
 1016MOL0     C40134   9.113   3.941   5.025  0.4186  0.2694 -0.3513
 1016MOL0     C40135   9.227   3.965   5.058 -0.2064 -0.8372 -0.3347
 1016MOL0     C40136   9.189   3.391   4.686 -0.1127  0.0381 -0.0453
 1016MOL0     C40137   9.192   3.252   4.689  0.4235 -0.0102  0.0017
 1016MOL0     C40138   9.298   3.176   4.616  0.0728 -0.0530  0.1475
 1016MOL0     H40139   9.354   2.808   4.710 -0.9857 -0.2143 -1.7139
 1016MOL0     H40140   9.355   2.575   4.790 -2.2042 -1.0206 -2.5186
 1016MOL0     H40141   9.075   2.395   5.083 -0.2947  1.8305  2.2753
 1016MOL0     H40142   9.216   2.468   5.164 -0.5376  1.5705 -1.6231
 1016MOL0     H40143   9.213   2.194   5.034  0.8758 -1.3901 -0.6890
 1016MOL0     H40144   9.353   2.284   5.111  0.1296 -1.1256 -0.2088
 1016MOL0     H40145   9.251   2.271   5.321 -0.4102 -1.4509  1.4433
 1016MOL0     H40146   9.093   2.245   5.247  0.7964  2.8919 -1.5280
 1016MOL0     H40147   9.227   2.009   5.167  2.8605 -1.2381  0.1332
 1016MOL0     H40148   9.316   2.054   5.300 -0.0826 -2.1332 -1.2582
 1016MOL0     H40149   9.001   2.040   5.320 -1.5577 -0.9897  1.2451
 1016MOL0     H40150   9.100   2.074   5.456 -0.7895 -2.9072  1.7099
 1016MOL0     H40151   9.196   1.853   5.467 -0.7414  0.0504  1.1838
 1016MOL0     H40152   9.024   1.846   5.472  0.3700 -4.6281 -1.3121
 1016MOL0     H40153   9.189   1.776   5.221 -1.2412 -1.5435 -1.8389
 1016MOL0     H40154   9.003   1.771   5.263  0.3521 -0.2917  1.0474
 1016MOL0     H40155   9.228   1.631   5.397  0.7057 -0.0058  0.1830
 1016MOL0     H40156   9.048   1.615   5.420 -0.6575  0.6247 -2.1070
 1016MOL0     H40157   8.970   1.591   5.113  2.8647  2.8427 -3.0153
 1016MOL0     H40158   8.912   1.445   4.938  0.9836  1.0409 -2.9908
 1016MOL0     H40159   8.937   1.276   4.964 -0.8123  0.1003 -1.8858
 1016MOL0     H40160   9.184   1.330   4.866  0.6909 -0.7287 -1.7023
 1016MOL0     H40161   9.050   1.319   4.751  0.7893  0.5284 -1.1335
 1016MOL0     H40162   9.035   1.573   4.747 -0.7867 -2.4285 -1.4188
 1016MOL0     H40163   9.142   1.582   4.889  0.5630 -2.0517  2.3096
 1016MOL0     H40164   9.228   1.471   4.615 -0.5293  0.7366 -0.7773
 1016MOL0     H40165   9.247   1.638   4.664 -1.1192 -1.9157 -3.6260
 1016MOL0     H40166   9.407   1.763   4.782  0.7016  1.7254  0.5285
 1016MOL0     H40167   9.590   1.978   4.980  0.1352 -0.3373  1.0469
 1016MOL0     H40168   9.412   1.992   5.017 -0.6594  0.4012 -0.0043
 1016MOL0     H40169   9.477   1.960   4.852 -0.0520 -0.2850 -0.5731
 1016MOL0     H40170   9.521   2.170   5.226  0.3808  0.4220 -1.1522
 1016MOL0     H40171   9.548   2.321   5.407 -1.1217 -0.4319 -0.6523
 1016MOL0     H40172   9.782   2.358   5.556  0.0971  1.5029 -0.4079
 1016MOL0     H40173   9.625   2.440   5.588  2.0117  2.7710 -1.1636
 1016MOL0     H40174   9.648   2.440   5.836  0.5757  0.3834  1.3047
 1016MOL0     H40175   9.814   2.375   5.821 -0.1434 -0.0376  0.0239
 1016MOL0     H40176   9.749   2.651   5.727 -0.3900  0.2402  0.6681
 1016MOL0     H40177   9.897   2.558   5.693 -0.8044  1.7236 -0.0092
 1016MOL0     H40178   9.947   2.553   5.945 -0.9934  0.1047 -0.2502
 1016MOL0     H40179   9.788   2.623   5.968  0.8800 -2.4088  1.6993
 1016MOL0     H40180   9.972   2.767   5.778 -1.6890  0.0743 -0.7941
 1016MOL0     H40181   9.842   2.833   5.883  1.6083  1.7634  3.3733
 1016MOL0     H40182   9.997   2.770   6.082 -0.2514  0.4668 -0.0202
 1016MOL0     H40183  10.047   2.911   5.985  1.7594  0.3120 -0.4449
 1016MOL0     H40184  10.224   2.803   5.893  0.4816 -0.1170  0.6140
 1016MOL0     H40185  10.147   2.646   5.926 -2.8384 -0.5882  1.9508
 1016MOL0     H40186  10.334   2.689   6.100 -0.3330 -0.8419 -1.6990
 1016MOL0     H40187  10.183   2.717   6.187  1.4206 -1.4288  0.8160
 1016MOL0     H40188   9.693   1.998   5.657 -1.8069  1.4678  0.8366
 1016MOL0     H40189   9.668   1.848   5.459  0.6419  0.0275 -2.1890
 1016MOL0     H40190   9.444   1.538   5.211  1.5355  0.9240  2.2078
 1016MOL0     H40191   9.384   1.417   5.017 -2.5163  1.1741  0.8925
 1016MOL0     H40192   9.059   2.639   5.078  1.8177 -1.2040  0.4819
 1016MOL0     H40193   9.031   2.862   4.999 -1.2887  0.0343 -1.8746
 1016MOL0     H40194   8.901   3.230   4.854  1.0199 -2.1349  0.4769
 1016MOL0     H40195   8.900   3.468   4.837 -0.4214 -0.5532 -0.2560
 1016MOL0     H40196   8.907   3.677   4.752  1.0683 -0.5366 -1.9073
 1016MOL0     H40197   9.009   3.659   4.894 -0.3615 -2.1523 -0.1128
 1016MOL0     H40198   9.009   3.860   4.656 -0.3783 -1.1399  0.8441
 1016MOL0     H40199   9.131   3.869   4.783  1.6213 -3.1764 -1.5992
 1016MOL0     H40200   8.949   4.047   4.812 -3.0309  0.4846 -0.2566
 1016MOL0     H40201   8.832   3.941   4.812 -0.1111 -0.1192 -0.5518
 1016MOL0     H40202   8.932   3.824   5.028 -0.3454 -0.2161 -0.6154
 1016MOL0     H40203   8.919   4.005   5.045  0.4622  0.5529 -0.6611
 1016MOL0     H40204   9.323   3.985   5.100  0.1540 -1.2854 -0.9259
 1016MOL0     H40205   9.268   3.442   4.633  2.5480 -3.5930  0.0612
 1016MOL0     H40206   9.359   3.114   4.682  2.7121  1.1511 -0.9922
 1016MOL0     H40207   9.254   3.109   4.542  0.5458 -0.4572  0.2292
 1016MOL0     H40208   9.376   3.225   4.556  1.2016 -3.0266 -1.0134
 1017MOL0     O40209   2.969   6.430   3.262 -1.0510 -0.0153 -0.8077
 1017MOL0     C40210   2.907   6.448   3.153 -0.2719 -0.1587  1.1552
 1017MOL0     O40211   2.971   6.487   3.034  0.2700  0.3730 -0.2563
 1017MOL0     C40212   3.104   6.497   3.062 -0.8360  0.2883  0.4189
 1017MOL0     C40213   3.150   6.628   3.101 -0.0320  0.2044 -0.0249
 1017MOL0     C40214   3.290   6.652   3.104 -0.2270 -0.2756 -0.0367
 1017MOL0     C40215   3.381   6.552   3.071 -1.0945  0.8132  0.1403
 1017MOL0     O40216   3.520   6.569   3.084  0.4679 -0.0764 -0.1839
 1017MOL0     C40217   3.578   6.698   3.119  0.6253 -1.0007 -0.1880
 1017MOL0     C40218   3.729   6.693   3.136 -0.5018 -0.1575 -0.5851
 1017MOL0     C40219   3.787   6.617   3.255 -0.6875 -0.5725  0.2420
 1017MOL0     C40220   3.845   6.481   3.232  1.3774  0.0830 -0.7121
 1017MOL0     C40221   3.976   6.480   3.166  0.1738 -0.6799  0.2851
 1017MOL0     C40222   4.030   6.341   3.140 -0.2802  0.0533 -0.5099
 1017MOL0     C40223   4.172   6.341   3.072  0.8389 -0.2533 -0.4084
 1017MOL0     C40224   4.175   6.406   2.938 -0.1406 -0.8878 -0.3064
 1017MOL0     N40225   4.288   6.357   2.868 -0.2436 -0.0320  0.5624
 1017MOL0     C40226   4.428   6.343   2.906 -0.0644  0.5795  0.0725
 1017MOL0     C40227   4.485   6.303   2.790 -0.1014  0.3260  0.3834
 1017MOL0     C40228   4.640   6.297   2.773  0.5872  0.2866  0.5768
 1017MOL0     C40229   4.675   6.155   2.762  0.0303 -0.6197  0.2332
 1017MOL0     C40230   4.818   6.118   2.715  0.8023  0.1869  0.5281
 1017MOL0     C40231   4.831   5.972   2.674  1.4379 -0.4633 -0.2985
 1017MOL0     O40232   4.794   5.878   2.777  0.0761 -0.6674 -0.5999
 1017MOL0     C40233   4.779   5.754   2.733 -0.3324  0.5914  0.2193
 1017MOL0     C40234   4.879   5.666   2.768 -0.0146 -0.3931 -0.6126
 1017MOL0     C40235   4.873   5.536   2.721 -1.1411  0.1857 -0.4160
 1017MOL0     C40236   4.994   5.457   2.771 -0.3566  1.0176  0.0222
 1017MOL0     C40237   4.762   5.491   2.645 -0.5176  0.3494  0.4926
 1017MOL0     C40238   4.768   5.358   2.590 -0.6616  0.1649 -0.0745
 1017MOL0     O40239   4.678   5.336   2.494  0.3517 -0.2541 -0.2047
 1017MOL0     C40240   4.666   5.209   2.441 -0.2276  0.0226  0.2585
 1017MOL0     C40241   4.653   5.198   2.303  0.4973 -0.3696  1.0376
 1017MOL0     C40242   4.649   5.077   2.232 -0.4153 -0.3105 -0.2526
 1017MOL0     C40243   4.656   4.958   2.298  0.4020 -0.3216  0.9322
 1017MOL0     O40244   4.642   4.837   2.244  1.0474 -0.6751  0.3478
 1017MOL0     C40245   4.522   4.804   2.163  0.3281 -0.4947 -0.4838
 1017MOL0     C40246   4.569   4.691   2.071  0.1623 -0.7775  0.7066
 1017MOL0     C40247   4.464   4.664   1.953  0.3732  0.1857 -0.2918
 1017MOL0     C40248   4.508   4.572   1.834 -0.9543 -0.0990 -0.0598
 1017MOL0     C40249   4.588   4.441   1.864 -0.1681 -0.2150  0.2426
 1017MOL0     C40250   4.739   4.449   1.857  0.3548 -0.4639 -0.2385
 1017MOL0     C40251   4.804   4.321   1.901  0.0685  0.0206  0.3079
 1017MOL0     C40252   4.780   4.298   2.054  0.4555 -0.6450  0.0060
 1017MOL0    Cl40253   4.855   4.419   2.161  0.3250  0.1978 -0.2082
 1017MOL0     C40254   4.654   4.964   2.441  0.5787  0.3336  0.3393
 1017MOL0     C40255   4.665   5.089   2.515  0.3413 -0.1289 -0.7426
 1017MOL0     O40256   4.856   5.284   2.621 -0.1538  0.4100  0.0852
 1017MOL0     C40257   4.658   5.590   2.613 -0.1053  0.6579  0.3355
 1017MOL0     C40258   4.673   5.725   2.646  0.7056 -0.1945 -0.2357
 1017MOL0     N40259   4.395   6.283   2.689 -0.8531  0.9726  0.7871
 1017MOL0     N40260   4.282   6.309   2.741 -0.5998 -0.2514  0.4177
 1017MOL0     C40261   3.335   6.434   3.017 -0.3768 -0.8171  0.9148
 1017MOL0     C40262   3.191   6.413   3.004 -0.7308 -0.2499 -0.4406
 1017MOL0     C40263   2.758   6.457   3.150  0.3405  0.6511 -0.7458
 1017MOL0     C40264   2.694   6.349   3.206  0.3704  0.5875  0.1495
 1017MOL0     C40265   2.557   6.326   3.183 -0.1516 -0.5024  0.4273
 1017MOL0     C40266   2.483   6.406   3.100  0.2675 -0.6617 -1.1373
 1017MOL0     O40267   2.352   6.370   3.073 -0.6391 -0.1739  0.9596
 1017MOL0     C40268   2.287   6.383   2.943 -0.5269  0.0387  0.5650
 1017MOL0     C40269   2.320   6.256   2.857  0.1275 -0.0984  0.1970
 1017MOL0     C40270   2.249   6.129   2.899  0.1280  1.0681 -0.1482
 1017MOL0     C40271   2.321   5.998   2.854  0.4371  0.1383 -0.8712
 1017MOL0     C40272   2.354   5.998   2.707  0.4194  0.4338  0.4055
 1017MOL0     C40273   2.397   5.992   2.589  0.0516  0.4963  0.0698
 1017MOL0     C40274   2.543   6.527   3.059  0.6809  0.4161  0.1322
 1017MOL0     C40275   2.678   6.555   3.086 -0.2355  0.1036 -0.0387
 1017MOL0     C40276   2.733   6.690   3.033 -0.9242 -0.0109  0.8628
 1017MOL0     H40277   3.080   6.703   3.134  0.7335  0.7967  0.2885
 1017MOL0     H40278   3.318   6.747   3.148 -1.1292  0.3534 -0.7784
 1017MOL0     H40279   3.541   6.741   3.213  0.0900 -0.7669 -0.5054
 1017MOL0     H40280   3.563   6.770   3.038  1.1918 -0.4598  0.1784
 1017MOL0     H40281   3.778   6.648   3.048  0.1231 -0.6354 -0.0028
 1017MOL0     H40282   3.771   6.793   3.147 -1.0629  0.0194 -0.0221
 1017MOL0     H40283   3.856   6.674   3.317  0.2955 -0.5998 -0.8046
 1017MOL0     H40284   3.705   6.604   3.327 -0.9678 -0.0665  0.0162
 1017MOL0     H40285   3.851   6.428   3.327  3.4812 -1.3197 -1.5524
 1017MOL0     H40286   3.775   6.420   3.174  0.1380  0.8021 -0.0032
 1017MOL0     H40287   4.051   6.527   3.230  0.5357 -2.9262  1.5906
 1017MOL0     H40288   3.951   6.537   3.076 -1.2377 -0.6299  0.6839
 1017MOL0     H40289   4.032   6.289   3.236 -3.3667 -2.2660 -1.5269
 1017MOL0     H40290   3.959   6.285   3.077 -1.0189  0.8841 -0.4339
 1017MOL0     H40291   4.212   6.240   3.065 -1.2871 -1.0383 -2.5327
 1017MOL0     H40292   4.238   6.398   3.138 -0.2823  2.0172 -1.1457
 1017MOL0     H40293   4.088   6.391   2.875 -0.5783  2.3207 -0.6443
 1017MOL0     H40294   4.167   6.515   2.933 -3.3347 -1.0757 -2.3357
 1017MOL0     H40295   4.472   6.362   3.003 -1.7939 -3.6862  1.9563
 1017MOL0     H40296   4.695   6.344   2.855  3.2078  0.7412 -1.3275
 1017MOL0     H40297   4.669   6.352   2.683 -3.3260  1.1174 -0.3699
 1017MOL0     H40298   4.663   6.106   2.859  1.1331  1.0452  1.2698
 1017MOL0     H40299   4.602   6.110   2.695 -0.2291  0.6097 -0.3428
 1017MOL0     H40300   4.842   6.180   2.628  0.6442 -3.7938 -2.6154
 1017MOL0     H40301   4.894   6.151   2.787  0.0543  3.0889  0.1243
 1017MOL0     H40302   4.759   5.944   2.597 -1.7561 -3.5348  3.3549
 1017MOL0     H40303   4.934   5.955   2.643  0.5415 -1.0574 -3.2847
 1017MOL0     H40304   4.957   5.702   2.834  1.1753 -1.5797 -1.3241
 1017MOL0     H40305   5.053   5.423   2.686 -3.4607 -0.7722 -1.5618
 1017MOL0     H40306   4.957   5.375   2.834 -0.5176  1.2366  0.2146
 1017MOL0     H40307   5.051   5.528   2.832 -1.9362  0.7267  1.9287
 1017MOL0     H40308   4.646   5.287   2.241  0.2238 -1.6812 -0.9004
 1017MOL0     H40309   4.646   5.075   2.124  0.4133  0.6354 -0.3115
 1017MOL0     H40310   4.441   4.762   2.224 -0.3903 -0.1900 -1.2096
 1017MOL0     H40311   4.486   4.878   2.091 -3.3051 -0.3125  1.3114
 1017MOL0     H40312   4.667   4.718   2.030 -0.2277  0.6371  0.6345
 1017MOL0     H40313   4.595   4.606   2.134  0.9739 -1.9010 -1.0424
 1017MOL0     H40314   4.427   4.755   1.906  2.4591  1.4521  0.4059
 1017MOL0     H40315   4.388   4.603   2.004  2.5003 -2.6918 -0.3055
 1017MOL0     H40316   4.579   4.633   1.777  0.9072 -3.2649 -1.3693
 1017MOL0     H40317   4.422   4.552   1.770 -3.1005  0.4417  2.4967
 1017MOL0     H40318   4.551   4.390   1.953 -0.1096 -0.9131 -0.1312
 1017MOL0     H40319   4.567   4.384   1.773 -3.6750 -2.3215  2.1360
 1017MOL0     H40320   4.783   4.530   1.916 -2.5349  0.7916  0.3367
 1017MOL0     H40321   4.768   4.458   1.752  1.6239 -1.3338  0.0037
 1017MOL0     H40322   4.912   4.320   1.885  0.3883 -1.6021  2.1459
 1017MOL0     H40323   4.759   4.232   1.856 -3.0879  1.0119  1.2454
 1017MOL0     H40324   4.831   4.208   2.090 -0.4033 -1.1966 -0.1330
 1017MOL0     H40325   4.678   4.282   2.089 -0.4786  0.2012 -2.1731
 1017MOL0     H40326   4.651   4.869   2.494 -2.2378  0.4574  0.5685
 1017MOL0     H40327   4.667   5.095   2.624 -0.4009 -0.3495 -0.7118
 1017MOL0     H40328   4.573   5.552   2.557 -0.1881 -5.1917  3.5745
 1017MOL0     H40329   4.605   5.808   2.629  0.0601  0.4640  4.2942
 1017MOL0     H40330   3.395   6.351   2.981 -0.5089  0.4357 -2.5983
 1017MOL0     H40331   3.166   6.316   2.963  0.7551 -0.6279 -0.4817
 1017MOL0     H40332   2.748   6.275   3.265  0.9519  3.6416  3.8391
 1017MOL0     H40333   2.510   6.235   3.220  0.1030 -0.7569  0.1316
 1017MOL0     H40334   2.178   6.384   2.949 -0.5511  0.7493  0.0528
 1017MOL0     H40335   2.330   6.468   2.890 -0.2365  0.7271  1.8612
 1017MOL0     H40336   2.428   6.244   2.859  0.1442 -0.0730  2.5681
 1017MOL0     H40337   2.295   6.286   2.755  2.2822 -0.3132 -0.4326
 1017MOL0     H40338   2.219   6.131   3.004 -0.6184 -0.5877 -0.3108
 1017MOL0     H40339   2.157   6.127   2.839 -1.8185  1.6423  2.6334
 1017MOL0     H40340   2.265   5.908   2.881 -0.0537 -0.4274 -3.4596
 1017MOL0     H40341   2.413   5.985   2.910  1.0485 -0.2781 -1.9390
 1017MOL0     H40342   2.446   5.975   2.495  2.8300 -0.4782  1.5739
 1017MOL0     H40343   2.482   6.603   3.011  1.7427 -0.8819 -3.5887
 1017MOL0     H40344   2.811   6.729   3.099 -1.7140  0.4395  1.5521
 1017MOL0     H40345   2.785   6.673   2.938  0.8512 -0.5739  1.8885
 1017MOL0     H40346   2.655   6.766   3.023  0.0638  1.1863  1.9595
 1018MOL0     O40347   0.891   4.554   7.121  0.4550  0.1673  0.0324
 1018MOL0     C40348   0.812   4.616   7.193 -0.3836  0.2677  1.0111
 1018MOL0     O40349   0.842   4.713   7.282 -0.8036  0.2177  0.0443
 1018MOL0     C40350   0.973   4.747   7.278  0.2551  0.0684  0.4426
 1018MOL0     C40351   1.049   4.688   7.376 -0.0702 -0.1666  0.3547
 1018MOL0     C40352   1.193   4.682   7.362  0.2467  0.1077 -0.2734
 1018MOL0     C40353   1.251   4.768   7.274 -0.5492 -0.0768  1.2663
 1018MOL0     O40354   1.388   4.775   7.263  0.0749 -0.1192  0.1559
 1018MOL0     C40355   1.458   4.888   7.204  0.5035 -0.6260 -0.0812
 1018MOL0     C40356   1.590   4.918   7.286 -1.1504 -0.3495 -0.5881
 1018MOL0     C40357   1.564   5.003   7.405 -0.0043 -0.2655 -0.6134
 1018MOL0     C40358   1.691   5.055   7.478  0.3071 -0.4557  0.2205
 1018MOL0     C40359   1.662   5.175   7.568  0.4970 -0.2172  0.4091
 1018MOL0     C40360   1.688   5.314   7.487 -0.0792 -0.1768 -1.5955
 1018MOL0     C40361   1.664   5.440   7.572  0.6895  0.8122  0.0436
 1018MOL0     C40362   1.779   5.468   7.661  0.3942 -0.2535 -0.4561
 1018MOL0     N40363   1.755   5.592   7.743 -0.3720  0.1560  0.1450
 1018MOL0     C40364   1.755   5.613   7.878 -0.0742  0.3684 -0.4547
 1018MOL0     C40365   1.740   5.748   7.898 -0.2913  0.5139 -0.1096
 1018MOL0     C40366   1.744   5.830   8.027  0.0391  0.6586 -0.0417
 1018MOL0     C40367   1.861   5.928   8.027 -0.5052 -0.2973  0.0286
 1018MOL0     C40368   2.000   5.862   8.027 -1.3238 -0.7988 -0.3868
 1018MOL0     C40369   2.111   5.964   8.059  0.1096 -0.0565  0.2102
 1018MOL0     O40370   2.237   5.896   8.100  0.6635 -0.0026  0.4360
 1018MOL0     C40371   2.352   5.965   8.074 -0.0348 -0.0060  0.4552
 1018MOL0     C40372   2.469   5.897   8.048 -0.3266 -0.5178  0.3025
 1018MOL0     C40373   2.594   5.971   8.035  0.1760 -0.4495 -0.2015
 1018MOL0     C40374   2.723   5.897   8.019 -0.7898  0.2639  0.0590
 1018MOL0     C40375   2.586   6.116   8.036 -0.6530  0.4220  0.8037
 1018MOL0     C40376   2.701   6.210   8.016  0.1195 -0.2801 -0.3803
 1018MOL0     O40377   2.823   6.156   7.996  0.1935 -0.4657  0.4962
 1018MOL0     C40378   2.924   6.240   7.937 -0.2524  0.8073 -0.7198
 1018MOL0     C40379   2.979   6.213   7.815 -0.5158 -0.3796  0.1037
 1018MOL0     C40380   3.084   6.302   7.763  0.3977  0.2435 -0.2451
 1018MOL0     C40381   3.124   6.417   7.839  0.3483 -0.1721  0.1744
 1018MOL0     O40382   3.215   6.513   7.798  0.0265  0.7349  0.3246
 1018MOL0     C40383   3.266   6.511   7.662 -0.5670 -0.6703 -0.4497
 1018MOL0     C40384   3.350   6.639   7.641  0.1905  1.0891  0.2062
 1018MOL0     C40385   3.268   6.763   7.617  0.0197 -0.3784 -0.1573
 1018MOL0     C40386   3.313   6.894   7.702 -0.1431 -1.5473  0.0725
 1018MOL0     C40387   3.236   7.007   7.644  0.3108  0.6500  0.2577
 1018MOL0     C40388   3.263   7.139   7.721 -0.2062 -0.6337  0.1056
 1018MOL0     C40389   3.168   7.254   7.659  0.0587  1.3446 -1.0961
 1018MOL0     C40390   3.168   7.381   7.740 -0.0332  0.3427  0.3674
 1018MOL0    Cl40391   3.332   7.441   7.766  0.4980  0.2407 -0.1640
 1018MOL0     C40392   3.065   6.440   7.961  0.4401 -0.0444  0.5067
 1018MOL0     C40393   2.965   6.352   8.002 -0.0014  0.2084  0.6585
 1018MOL0     O40394   2.674   6.327   7.992 -0.3110  0.1129  0.0357
 1018MOL0     C40395   2.468   6.181   8.060  0.5210  0.9195  0.6063
 1018MOL0     C40396   2.354   6.108   8.078 -0.0448  0.1750 -0.4922
 1018MOL0     N40397   1.726   5.796   7.771 -0.1998 -0.3225 -0.3029
 1018MOL0     N40398   1.727   5.706   7.677 -0.2911  0.0173 -0.2739
 1018MOL0     C40399   1.170   4.849   7.182  0.0708  0.1075 -1.0673
 1018MOL0     C40400   1.032   4.830   7.177 -1.0260  0.8021 -0.0370
 1018MOL0     C40401   0.666   4.596   7.186  0.3219  0.5954 -0.0100
 1018MOL0     C40402   0.586   4.716   7.200  0.2424 -0.4178  0.0277
 1018MOL0     C40403   0.444   4.703   7.194 -0.1701 -0.4712 -1.0447
 1018MOL0     C40404   0.384   4.584   7.170 -0.4573 -0.0952  0.0749
 1018MOL0     O40405   0.253   4.584   7.148  0.1026 -0.0183  0.3354
 1018MOL0     C40406   0.175   4.522   7.251  0.4478 -0.4166 -1.3027
 1018MOL0     C40407   0.033   4.579   7.234  0.6113 -0.3742 -0.1476
 1018MOL0     C40408  -0.085   4.494   7.287 -0.2836 -0.4075  0.2603
 1018MOL0     C40409  -0.109   4.367   7.215  0.1276  0.3675  0.3184
 1018MOL0     C40410  -0.140   4.391   7.073 -0.5486 -0.3487 -0.3392
 1018MOL0     C40411  -0.150   4.408   6.954 -0.4983  0.2428  0.4440
 1018MOL0     C40412   0.458   4.470   7.147  0.5223  0.5097 -0.1879
 1018MOL0     C40413   0.601   4.470   7.163 -0.7177 -0.3990  0.6509
 1018MOL0     C40414   0.662   4.340   7.156  0.6792  0.1657 -0.6051
 1018MOL0     H40415   1.009   4.632   7.460  1.4072  0.8391  1.8007
 1018MOL0     H40416   1.260   4.623   7.424  2.8818  1.6740 -1.4285
 1018MOL0     H40417   1.398   4.978   7.186  1.0688  0.0913  1.3945
 1018MOL0     H40418   1.492   4.857   7.105  1.4906 -0.5747  0.2352
 1018MOL0     H40419   1.626   4.823   7.327  1.2304  0.8512  0.2732
 1018MOL0     H40420   1.670   4.962   7.227  0.6772  1.2993  2.8162
 1018MOL0     H40421   1.505   5.083   7.359 -1.8490 -1.8049 -1.0559
 1018MOL0     H40422   1.495   4.953   7.473 -0.4520 -2.6102 -2.6641
 1018MOL0     H40423   1.721   4.966   7.534 -1.2071 -1.5794 -0.7132
 1018MOL0     H40424   1.776   5.072   7.411 -1.1523 -1.3688 -1.9347
 1018MOL0     H40425   1.735   5.161   7.648  1.8826 -1.0091 -0.9330
 1018MOL0     H40426   1.559   5.177   7.605 -0.3790  0.3732 -1.8584
 1018MOL0     H40427   1.791   5.317   7.450  0.7151 -0.4361  0.4452
 1018MOL0     H40428   1.615   5.308   7.405 -0.4902 -0.8701 -1.1972
 1018MOL0     H40429   1.575   5.438   7.634 -0.9679 -1.1825 -2.1841
 1018MOL0     H40430   1.631   5.514   7.499  2.7998 -1.2682 -3.3435
 1018MOL0     H40431   1.794   5.378   7.721 -2.6334 -2.6649 -2.9213
 1018MOL0     H40432   1.878   5.484   7.619  1.1520 -1.3454  0.8552
 1018MOL0     H40433   1.774   5.536   7.952  1.2023  1.9606  0.9584
 1018MOL0     H40434   1.757   5.771   8.118  3.3077  2.1387  0.5910
 1018MOL0     H40435   1.648   5.883   8.030 -1.9899 -2.5998 -1.5515
 1018MOL0     H40436   1.857   6.000   7.944 -1.5197  2.7642  2.5178
 1018MOL0     H40437   1.864   5.983   8.122  0.6745  0.5014 -0.4459
 1018MOL0     H40438   2.008   5.791   8.110  0.2285  2.9764  2.9937
 1018MOL0     H40439   2.026   5.801   7.939  2.3145 -1.1635  0.7998
 1018MOL0     H40440   2.120   6.030   7.972 -0.5919  0.3919  0.4715
 1018MOL0     H40441   2.089   6.031   8.142 -0.3553  0.1217 -0.0511
 1018MOL0     H40442   2.458   5.789   8.047 -2.8828 -0.3099 -1.6782
 1018MOL0     H40443   2.770   5.926   7.925 -0.9668 -2.4215 -0.9407
 1018MOL0     H40444   2.699   5.790   8.017 -3.2727  0.7233 -3.1538
 1018MOL0     H40445   2.798   5.910   8.098  0.5657 -0.5701 -1.0449
 1018MOL0     H40446   2.965   6.119   7.761  2.7285  0.7298 -3.0581
 1018MOL0     H40447   3.141   6.282   7.672  2.0270  0.5522  0.6606
 1018MOL0     H40448   3.334   6.426   7.653 -1.9210 -1.6171 -2.6925
 1018MOL0     H40449   3.175   6.509   7.601 -0.7507 -1.2046 -0.1575
 1018MOL0     H40450   3.401   6.661   7.736 -0.5406 -1.9510  1.4136
 1018MOL0     H40451   3.424   6.625   7.561  0.0479  0.7889  0.1243
 1018MOL0     H40452   3.168   6.727   7.643  0.9875 -2.0126  1.5903
 1018MOL0     H40453   3.275   6.795   7.513  2.6302  0.1282  0.1131
 1018MOL0     H40454   3.421   6.912   7.697  0.1673 -3.3943 -1.4338
 1018MOL0     H40455   3.294   6.869   7.807  1.6269  0.9087  1.0653
 1018MOL0     H40456   3.267   7.014   7.539 -0.1080 -0.1068  0.0781
 1018MOL0     H40457   3.128   6.990   7.645  0.5583 -1.2042  2.3090
 1018MOL0     H40458   3.365   7.170   7.694 -0.6059  1.3694  0.7028
 1018MOL0     H40459   3.245   7.121   7.827 -2.0861 -0.9971 -0.2352
 1018MOL0     H40460   3.062   7.229   7.652 -0.1545  2.5884 -2.7630
 1018MOL0     H40461   3.205   7.275   7.558  1.2279 -0.4801 -1.1116
 1018MOL0     H40462   3.128   7.352   7.838  1.8915  0.9587  1.3820
 1018MOL0     H40463   3.100   7.446   7.683  0.0229 -2.4062 -3.2063
 1018MOL0     H40464   3.107   6.526   8.012  1.4931  3.0866 -4.8786
 1018MOL0     H40465   2.911   6.372   8.095 -0.7559 -0.0035  0.2781
 1018MOL0     H40466   2.462   6.288   8.077 -0.0192  0.8067  1.1374
 1018MOL0     H40467   2.270   6.172   8.105 -0.5574 -0.0817 -1.4490
 1018MOL0     H40468   1.209   4.936   7.129  0.6688  3.7795  4.5464
 1018MOL0     H40469   0.968   4.873   7.100 -4.9442 -1.1034  1.8469
 1018MOL0     H40470   0.628   4.815   7.217 -1.5120  1.3932 -4.6447
 1018MOL0     H40471   0.385   4.794   7.199  1.2068  0.3694  0.9667
 1018MOL0     H40472   0.188   4.415   7.238  2.8836 -0.2867 -0.3772
 1018MOL0     H40473   0.211   4.564   7.345  0.0687  3.2626 -2.6058
 1018MOL0     H40474   0.019   4.586   7.125 -0.2713 -1.9151 -0.1588
 1018MOL0     H40475   0.026   4.679   7.277  0.6941 -0.4096 -0.0503
 1018MOL0     H40476  -0.068   4.472   7.393  2.3271 -2.8122 -0.5262
 1018MOL0     H40477  -0.179   4.550   7.279  0.9201  2.0811  1.9370
 1018MOL0     H40478  -0.191   4.301   7.245  0.9042 -0.8725 -0.1789
 1018MOL0     H40479  -0.019   4.305   7.217 -1.3928 -2.1830 -2.3165
 1018MOL0     H40480  -0.146   4.402   6.847  1.9475 -0.2491  0.5170
 1018MOL0     H40481   0.415   4.373   7.124  1.0311  0.5362 -1.3207
 1018MOL0     H40482   0.769   4.337   7.179  0.4435 -1.3484  0.4004
 1018MOL0     H40483   0.606   4.268   7.216  0.9310  2.2318  2.3336
 1018MOL0     H40484   0.661   4.309   7.051  3.9062 -2.6130  0.0244
 1019MOL0     O40485   4.460   8.711   5.093  0.1718  0.3442 -0.0121
 1019MOL0     C40486   4.423   8.758   5.196 -1.2398  0.6618  0.7105
 1019MOL0     O40487   4.433   8.894   5.227  0.6560  0.0778  0.0499
 1019MOL0     C40488   4.471   8.987   5.133 -0.7629 -0.2157  1.0731
 1019MOL0     C40489   4.382   9.095   5.108  0.2200  0.5551 -0.2063
 1019MOL0     C40490   4.435   9.195   5.020  0.9495  0.4240 -0.0444
 1019MOL0     C40491   4.568   9.198   4.965 -0.3053 -0.7022  0.5803
 1019MOL0     O40492   4.601   9.295   4.869 -0.1308 -0.1980 -0.1303
 1019MOL0     C40493   4.712   9.275   4.785 -0.1244 -0.3948  0.4029
 1019MOL0     C40494   4.724   9.375   4.668 -0.1506 -0.1316  0.3443
 1019MOL0     C40495   4.846   9.362   4.578 -0.0361  0.0438  1.0197
 1019MOL0     C40496   4.857   9.476   4.470 -0.6596 -0.7549 -0.4652
 1019MOL0     C40497   4.969   9.434   4.367  0.1669  0.6698  0.0086
 1019MOL0     C40498   5.110   9.417   4.416 -0.2793 -0.5110  1.0670
 1019MOL0     C40499   5.213   9.415   4.299 -0.9682 -0.7261 -0.2460
 1019MOL0     C40500   5.263   9.276   4.274 -0.0100 -0.0811 -0.3972
 1019MOL0     N40501   5.397   9.267   4.225  0.2841  0.0523 -0.2796
 1019MOL0     C40502   5.478   9.159   4.216  0.0446  0.2364 -0.7413
 1019MOL0     C40503   5.598   9.205   4.189 -0.7270 -0.1813  0.9407
 1019MOL0     C40504   5.722   9.124   4.179 -1.1995  0.3078 -0.1173
 1019MOL0     C40505   5.744   9.042   4.048 -0.5507 -0.5543 -0.3308
 1019MOL0     C40506   5.886   8.993   4.042  0.2630  0.0220  0.1467
 1019MOL0     C40507   5.937   8.965   3.900  0.0473  0.1648 -0.4789
 1019MOL0     O40508   5.858   8.855   3.844  0.0688 -1.1205  0.0660
 1019MOL0     C40509   5.889   8.805   3.723  0.1831  0.7745  0.8231
 1019MOL0     C40510   5.998   8.845   3.645 -1.3520 -0.4715 -0.0762
 1019MOL0     C40511   6.032   8.803   3.513  0.9401  0.4397  0.0241
 1019MOL0     C40512   6.161   8.852   3.456  0.4536 -0.5017  0.9821
 1019MOL0     C40513   5.941   8.701   3.457 -0.8333 -0.0541 -0.7820
 1019MOL0     C40514   5.945   8.653   3.324  0.4175  0.0702  0.2678
 1019MOL0     O40515   5.885   8.527   3.298  0.0490 -0.1812  0.5067
 1019MOL0     C40516   5.909   8.483   3.172 -0.3930 -1.0168 -0.5872
 1019MOL0     C40517   5.824   8.531   3.069  0.1651 -0.0131  1.2578
 1019MOL0     C40518   5.841   8.482   2.941 -0.0124 -0.6807  0.2366
 1019MOL0     C40519   5.943   8.394   2.909 -0.5585 -0.1270  0.1598
 1019MOL0     O40520   5.947   8.325   2.795 -0.1481 -0.2102  0.6940
 1019MOL0     C40521   5.877   8.383   2.676 -0.2146 -0.0200  0.6693
 1019MOL0     C40522   5.918   8.314   2.540 -0.1776 -0.6230  0.1609
 1019MOL0     C40523   5.843   8.386   2.425 -0.2427  0.3132 -0.0410
 1019MOL0     C40524   5.879   8.345   2.284 -0.4445  0.7164 -0.9992
 1019MOL0     C40525   5.799   8.420   2.183  0.5111  0.1115  0.1016
 1019MOL0     C40526   5.662   8.345   2.158  0.8854 -0.7238 -0.4825
 1019MOL0     C40527   5.601   8.410   2.030  0.0938  0.4222 -0.2568
 1019MOL0     C40528   5.557   8.552   2.056  1.0225 -0.9008  0.5248
 1019MOL0    Cl40529   5.458   8.605   1.924  0.2946 -0.1547  0.0830
 1019MOL0     C40530   6.028   8.347   3.011  0.1460 -0.0642 -0.2740
 1019MOL0     C40531   6.017   8.393   3.146 -0.6184  0.1067 -0.7348
 1019MOL0     O40532   6.018   8.707   3.242 -0.2749  0.5498  1.1679
 1019MOL0     C40533   5.836   8.660   3.535  1.2647 -0.2159  0.6516
 1019MOL0     C40534   5.804   8.713   3.664  0.4880 -0.1990 -0.7697
 1019MOL0     N40535   5.584   9.334   4.138  0.0012  0.5688 -0.8385
 1019MOL0     N40536   5.464   9.370   4.167 -0.1889  0.1499  0.5206
 1019MOL0     C40537   4.654   9.088   4.992  0.0687  0.2580 -0.9186
 1019MOL0     C40538   4.604   8.984   5.080 -0.0660 -0.9428 -0.0894
 1019MOL0     C40539   4.365   8.664   5.293  0.5006 -0.2290  0.8803
 1019MOL0     C40540   4.400   8.692   5.422 -0.8595  0.5281 -0.3624
 1019MOL0     C40541   4.327   8.620   5.530  0.2147 -0.0908  0.0402
 1019MOL0     C40542   4.238   8.517   5.502  0.3085  0.7012 -0.3578
 1019MOL0     O40543   4.162   8.459   5.598  0.0769  0.8641 -0.0905
 1019MOL0     C40544   4.055   8.537   5.641  0.9626 -0.3040 -0.2425
 1019MOL0     C40545   3.992   8.481   5.770  1.0838  0.0756  0.6281
 1019MOL0     C40546   4.088   8.454   5.887  0.5285  0.5248 -0.1302
 1019MOL0     C40547   4.173   8.594   5.916  0.9610  0.2686  0.1043
 1019MOL0     C40548   4.082   8.690   5.973  0.6029 -0.4284 -0.0071
 1019MOL0     C40549   3.987   8.755   6.015 -0.7484 -0.2666 -0.6795
 1019MOL0     C40550   4.221   8.487   5.367  0.4450  0.4278 -0.0222
 1019MOL0     C40551   4.277   8.555   5.261 -0.2494  0.2969  0.0483
 1019MOL0     C40552   4.218   8.512   5.122 -0.9886  0.3413  0.2219
 1019MOL0     H40553   4.276   9.089   5.128  0.2188  0.0947 -0.3326
 1019MOL0     H40554   4.373   9.274   4.978 -2.1652 -0.5879  2.2620
 1019MOL0     H40555   4.701   9.174   4.744 -0.0434 -0.1970 -0.1156
 1019MOL0     H40556   4.810   9.284   4.833  0.5802 -1.4276 -0.7645
 1019MOL0     H40557   4.644   9.363   4.595  0.0188 -0.1351  0.1574
 1019MOL0     H40558   4.723   9.475   4.714 -1.7583  0.5117 -0.9912
 1019MOL0     H40559   4.945   9.357   4.624  0.4838  1.2658  0.0993
 1019MOL0     H40560   4.830   9.263   4.536  0.7730 -0.6027  2.1876
 1019MOL0     H40561   4.760   9.485   4.419 -0.4423  0.9325 -0.6352
 1019MOL0     H40562   4.874   9.579   4.504 -1.4675 -0.5685 -0.5874
 1019MOL0     H40563   4.969   9.505   4.283  0.1528 -3.2853 -3.6974
 1019MOL0     H40564   4.943   9.343   4.312 -2.2040  1.9990 -1.2457
 1019MOL0     H40565   5.139   9.501   4.478  3.8180  0.3161 -1.5595
 1019MOL0     H40566   5.116   9.330   4.482  0.2310 -2.7530 -1.7029
 1019MOL0     H40567   5.288   9.491   4.326  0.0347 -0.6099 -3.0559
 1019MOL0     H40568   5.168   9.439   4.202  1.5117 -1.7485 -1.7541
 1019MOL0     H40569   5.265   9.213   4.363  0.3613  0.1303 -0.2502
 1019MOL0     H40570   5.203   9.231   4.195  0.2178  0.9036 -1.1482
 1019MOL0     H40571   5.457   9.057   4.245  0.2707 -0.0650 -1.5868
 1019MOL0     H40572   5.715   9.058   4.266 -0.8247  1.5865  0.9192
 1019MOL0     H40573   5.803   9.196   4.194 -1.3112  1.0876 -2.7382
 1019MOL0     H40574   5.674   8.958   4.046 -2.1702  0.7649 -0.9195
 1019MOL0     H40575   5.731   9.107   3.961 -1.4038 -1.5767 -0.9854
 1019MOL0     H40576   5.955   9.065   4.086  2.4059 -0.7925 -1.6707
 1019MOL0     H40577   5.893   8.900   4.100  3.6822 -0.2802 -0.5590
 1019MOL0     H40578   5.934   9.055   3.837 -1.5283 -1.0026 -2.1564
 1019MOL0     H40579   6.043   8.942   3.917  0.1656  1.8699  1.4467
 1019MOL0     H40580   6.059   8.926   3.685 -2.3201  0.1033  0.2568
 1019MOL0     H40581   6.203   8.781   3.385 -1.4104  2.2248 -3.2416
 1019MOL0     H40582   6.225   8.866   3.544  1.6677  1.5325 -0.1397
 1019MOL0     H40583   6.152   8.947   3.403 -1.0027 -1.1274  0.0511
 1019MOL0     H40584   5.741   8.593   3.101 -0.5759 -0.2387 -0.1533
 1019MOL0     H40585   5.763   8.511   2.872  1.1784  0.9564 -0.4862
 1019MOL0     H40586   5.772   8.359   2.693 -0.4553  2.4701  3.6427
 1019MOL0     H40587   5.883   8.491   2.660  1.2526 -0.4217 -2.1014
 1019MOL0     H40588   6.026   8.321   2.524 -0.0582  1.1943  1.4976
 1019MOL0     H40589   5.886   8.210   2.539  0.5061 -0.8649  1.8185
 1019MOL0     H40590   5.876   8.490   2.429  1.5348 -0.2400  1.2356
 1019MOL0     H40591   5.736   8.392   2.445 -0.0529  2.8253  0.5301
 1019MOL0     H40592   5.856   8.243   2.252 -1.9825  0.2368  1.3785
 1019MOL0     H40593   5.988   8.348   2.276 -0.4455  2.6134 -0.8417
 1019MOL0     H40594   5.788   8.526   2.207  0.8044  0.7828 -2.4651
 1019MOL0     H40595   5.848   8.414   2.085  2.8857 -1.0175  1.2640
 1019MOL0     H40596   5.595   8.362   2.242  0.8293  0.9524 -0.8248
 1019MOL0     H40597   5.679   8.239   2.136 -0.9760 -1.4499  1.2553
 1019MOL0     H40598   5.513   8.352   2.001  0.2030 -0.6419  1.4242
 1019MOL0     H40599   5.689   8.398   1.967  3.1544 -0.4783  3.7818
 1019MOL0     H40600   5.644   8.618   2.062  1.1040 -1.0433  0.9160
 1019MOL0     H40601   5.500   8.556   2.149 -2.6730  3.1157 -1.5305
 1019MOL0     H40602   6.100   8.269   2.987  0.4072  0.1162 -0.0881
 1019MOL0     H40603   6.093   8.361   3.217 -0.3952  1.2056 -0.4654
 1019MOL0     H40604   5.771   8.585   3.491  2.3104 -0.0484 -1.2876
 1019MOL0     H40605   5.716   8.677   3.717  2.0861 -0.9771  1.5037
 1019MOL0     H40606   4.754   9.088   4.950  1.2111  0.6483  1.6106
 1019MOL0     H40607   4.667   8.899   5.105  0.8186 -0.9278 -2.0904
 1019MOL0     H40608   4.466   8.763   5.470  1.0986 -1.2382 -0.3344
 1019MOL0     H40609   4.345   8.664   5.627  1.1158  3.9335 -1.7407
 1019MOL0     H40610   4.080   8.641   5.664  0.0744 -0.2156  0.3659
 1019MOL0     H40611   3.977   8.550   5.565  0.5838 -1.5235 -0.0788
 1019MOL0     H40612   3.939   8.388   5.749 -0.0208  0.3961  1.8641
 1019MOL0     H40613   3.915   8.551   5.803  0.6693 -0.5693  1.0582
 1019MOL0     H40614   4.020   8.428   5.968 -1.6416  1.8141 -1.4423
 1019MOL0     H40615   4.153   8.368   5.866 -0.3214 -1.2972  3.6964
 1019MOL0     H40616   4.219   8.632   5.824  1.3762 -0.5931 -0.0555
 1019MOL0     H40617   4.251   8.574   5.990  1.2275 -2.6111 -0.8108
 1019MOL0     H40618   3.897   8.805   6.041 -0.5540 -0.0274 -0.4632
 1019MOL0     H40619   4.152   8.411   5.332  0.5066  0.0310  0.7047
 1019MOL0     H40620   4.133   8.577   5.101 -0.7599  0.7851  0.6419
 1019MOL0     H40621   4.281   8.514   5.033 -2.9658 -0.5257 -1.2466
 1019MOL0     H40622   4.181   8.410   5.133  0.4589 -0.2181  0.1425
 1020MOL0     O40623  10.470  10.564   6.532 -0.1279  0.2009 -0.5551
 1020MOL0     C40624  10.383  10.629   6.476 -1.0515 -0.4688  0.9121
 1020MOL0     O40625  10.257  10.590   6.458  0.0801  0.8679 -0.1425
 1020MOL0     C40626  10.210  10.455   6.473 -0.1152 -0.2926 -0.5453
 1020MOL0     C40627  10.293  10.339   6.477 -0.5414  0.6104  0.7612
 1020MOL0     C40628  10.228  10.215   6.496  0.6069 -0.2660  0.0687
 1020MOL0     C40629  10.082  10.197   6.498  0.1950  0.5515 -0.5957
 1020MOL0     O40630  10.014  10.079   6.522  0.0250  0.3975 -0.2396
 1020MOL0     C40631  10.087   9.961   6.560  0.1294 -0.2735  0.2572
 1020MOL0     C40632   9.998   9.834   6.581  0.0834 -0.4612  0.1812
 1020MOL0     C40633   9.858   9.879   6.647 -0.5793 -0.7309 -0.0736
 1020MOL0     C40634   9.758   9.758   6.667 -0.4740  0.1944  0.2252
 1020MOL0     C40635   9.615   9.808   6.702  0.1488  0.3962  0.1153
 1020MOL0     C40636   9.532   9.699   6.752  0.4918  0.7139 -0.5607
 1020MOL0     C40637   9.390   9.736   6.747  0.1617 -0.6036 -0.5739
 1020MOL0     C40638   9.297   9.638   6.808  0.5730  1.1108  0.0533
 1020MOL0     N40639   9.333   9.596   6.950  0.3665  0.1831  0.2025
 1020MOL0     C40640   9.382   9.687   7.038  0.1159  0.7771  0.4132
 1020MOL0     C40641   9.402   9.630   7.157 -0.2025  0.0152 -0.8094
 1020MOL0     C40642   9.437   9.705   7.290  0.1518  0.5085  0.2461
 1020MOL0     C40643   9.558   9.648   7.371  0.2616 -0.3087  0.2134
 1020MOL0     C40644   9.695   9.696   7.330  0.1540  0.6239 -0.3283
 1020MOL0     C40645   9.735   9.618   7.212  0.6048 -0.3085 -0.3217
 1020MOL0     O40646   9.861   9.660   7.162 -0.0149  0.2447  0.2602
 1020MOL0     C40647   9.907   9.601   7.050  0.0927  0.8507 -0.1906
 1020MOL0     C40648   9.852   9.482   6.988 -0.4514  0.2031 -0.3894
 1020MOL0     C40649   9.905   9.427   6.872 -0.4005  0.1276  0.4854
 1020MOL0     C40650   9.840   9.302   6.821 -0.7500 -0.5163  0.4096
 1020MOL0     C40651  10.014   9.492   6.810 -0.7415  0.6531  0.2101
 1020MOL0     C40652  10.089   9.440   6.689 -0.2670  0.3534  0.8903
 1020MOL0     O40653  10.195   9.518   6.646  0.3618 -0.8925 -0.0767
 1020MOL0     C40654  10.266   9.480   6.533  0.9310  1.0751 -0.0450
 1020MOL0     C40655  10.342   9.359   6.523 -0.5831  1.0355  0.0514
 1020MOL0     C40656  10.391   9.313   6.405 -0.3094  0.8997 -0.5987
 1020MOL0     C40657  10.374   9.388   6.284  0.1893 -0.2391  0.6317
 1020MOL0     O40658  10.423   9.360   6.162 -0.1510 -0.1736  0.8272
 1020MOL0     C40659  10.497   9.236   6.140 -0.2533 -1.1776 -0.2958
 1020MOL0     C40660  10.562   9.235   6.005 -1.2795 -0.0379 -1.3074
 1020MOL0     C40661  10.704   9.303   6.023 -0.2848 -0.5402 -0.2360
 1020MOL0     C40662  10.686   9.462   6.004  0.3253 -0.3518 -0.4047
 1020MOL0     C40663  10.695   9.554   6.123 -0.1130  0.2793  1.0852
 1020MOL0     C40664  10.821   9.561   6.217 -0.0228 -0.8774 -0.3927
 1020MOL0     C40665  10.933   9.646   6.154  0.5896  0.7490 -0.6011
 1020MOL0     C40666  11.011   9.734   6.250 -0.0721 -0.4904  0.9256
 1020MOL0    Cl40667  11.084   9.630   6.384 -0.4000 -0.2208 -0.4547
 1020MOL0     C40668  10.307   9.513   6.288 -0.1935 -0.4929 -0.0234
 1020MOL0     C40669  10.252   9.552   6.413  0.3967  0.5291 -0.1428
 1020MOL0     O40670  10.057   9.336   6.632 -0.0415 -0.3466 -0.7409
 1020MOL0     C40671  10.070   9.611   6.880 -1.5084  0.4349  1.1348
 1020MOL0     C40672  10.013   9.658   6.990  0.8160 -0.4289 -0.3029
 1020MOL0     N40673   9.357   9.492   7.143 -0.3641  0.6809  0.9114
 1020MOL0     N40674   9.319   9.477   7.019  0.4370  0.4526 -0.2926
 1020MOL0     C40675  10.010  10.308   6.468 -0.8436 -0.0615  0.3543
 1020MOL0     C40676  10.073  10.437   6.468 -0.2282  0.2592 -0.1488
 1020MOL0     C40677  10.401  10.773   6.408  0.0717  0.1447 -0.2647
 1020MOL0     C40678  10.286  10.830   6.347  0.0858 -0.0691  1.0049
 1020MOL0     C40679  10.287  10.961   6.309 -0.0166  0.0999 -0.3252
 1020MOL0     C40680  10.404  11.038   6.319  0.1404  0.0986 -1.0342
 1020MOL0     O40681  10.386  11.164   6.271  0.0933  0.6243 -0.5241
 1020MOL0     C40682  10.488  11.269   6.299  1.0335  0.0352 -0.3713
 1020MOL0     C40683  10.516  11.299   6.444 -0.0007 -0.0532  0.5543
 1020MOL0     C40684  10.384  11.314   6.522  0.9859  0.2976  1.1663
 1020MOL0     C40685  10.398  11.351   6.663  0.8131  0.0333 -0.6459
 1020MOL0     C40686  10.480  11.468   6.679 -0.2036  0.0393 -0.0257
 1020MOL0     C40687  10.551  11.562   6.681  0.5448  0.5239  0.5293
 1020MOL0     C40688  10.522  10.984   6.364 -0.3058  0.4349  0.1976
 1020MOL0     C40689  10.524  10.848   6.413  0.9055  0.0332  0.6845
 1020MOL0     C40690  10.657  10.798   6.466 -0.4204 -0.3061 -0.7988
 1020MOL0     H40691  10.399  10.355   6.461 -0.9285  2.9792  0.1985
 1020MOL0     H40692  10.300  10.134   6.485  1.1288  0.3583 -1.2624
 1020MOL0     H40693  10.130   9.975   6.659  2.2502  0.1856 -0.6752
 1020MOL0     H40694  10.167   9.942   6.489  1.9597 -2.5940  2.7559
 1020MOL0     H40695   9.979   9.778   6.490  1.8055 -1.5950  0.4887
 1020MOL0     H40696  10.054   9.776   6.655  0.2215 -0.8805 -0.2527
 1020MOL0     H40697   9.871   9.918   6.748 -1.5246  0.2261 -0.3096
 1020MOL0     H40698   9.806   9.958   6.592  0.9992  1.4495  1.3836
 1020MOL0     H40699   9.745   9.692   6.581  0.8917 -0.6525  0.6242
 1020MOL0     H40700   9.796   9.701   6.752 -0.7727  1.1324  1.0033
 1020MOL0     H40701   9.567   9.849   6.613 -1.0256  0.2538  0.6682
 1020MOL0     H40702   9.625   9.885   6.779  1.5588 -0.0695  0.4389
 1020MOL0     H40703   9.552   9.610   6.691 -3.5509  0.1533 -1.3683
 1020MOL0     H40704   9.564   9.678   6.854 -1.3624 -1.0325 -0.2758
 1020MOL0     H40705   9.359   9.740   6.642  1.9394 -0.0079 -1.1198
 1020MOL0     H40706   9.361   9.833   6.787 -3.5509 -2.5471  2.0617
 1020MOL0     H40707   9.197   9.679   6.822  0.4055  0.1921  1.8141
 1020MOL0     H40708   9.300   9.549   6.744 -3.9567 -0.5519  1.7520
 1020MOL0     H40709   9.399   9.792   7.016 -0.7989  0.6361 -1.0322
 1020MOL0     H40710   9.349   9.673   7.345  1.6914 -3.4211  0.7001
 1020MOL0     H40711   9.447   9.811   7.261  0.3452 -0.1187 -2.1764
 1020MOL0     H40712   9.538   9.673   7.476  0.8881  1.1256  0.0085
 1020MOL0     H40713   9.565   9.539   7.362  1.1204 -0.1401 -1.6492
 1020MOL0     H40714   9.690   9.801   7.298 -2.3617  1.3174  1.9377
 1020MOL0     H40715   9.773   9.696   7.408  0.8142  2.0348 -0.9387
 1020MOL0     H40716   9.729   9.509   7.220  1.2194 -0.4758 -1.6963
 1020MOL0     H40717   9.667   9.649   7.131  0.2621  4.3502  1.4329
 1020MOL0     H40718   9.770   9.424   7.030 -0.7333 -0.2603 -1.5349
 1020MOL0     H40719   9.900   9.212   6.836 -1.3530 -0.9595  0.1870
 1020MOL0     H40720   9.831   9.307   6.712  3.3671 -1.5867 -0.1474
 1020MOL0     H40721   9.741   9.288   6.864 -1.0379 -1.5239 -0.5272
 1020MOL0     H40722  10.359   9.287   6.603 -2.3272 -0.9058 -1.2253
 1020MOL0     H40723  10.442   9.218   6.409 -2.8969 -0.5403  0.3480
 1020MOL0     H40724  10.573   9.233   6.218  0.4996 -0.3924 -0.9770
 1020MOL0     H40725  10.433   9.148   6.145  1.6253 -2.5962 -0.2433
 1020MOL0     H40726  10.588   9.129   5.993  0.8189  0.2514 -0.0022
 1020MOL0     H40727  10.500   9.269   5.923 -1.9255 -0.8990 -1.1971
 1020MOL0     H40728  10.770   9.276   5.940 -0.7288 -0.3915 -0.6404
 1020MOL0     H40729  10.753   9.284   6.119  1.5925  2.8534 -0.3370
 1020MOL0     H40730  10.588   9.476   5.959 -0.1325 -0.0652  0.6576
 1020MOL0     H40731  10.762   9.498   5.934 -0.7626  0.5103 -1.1653
 1020MOL0     H40732  10.675   9.653   6.082  0.8013 -0.1981 -0.5766
 1020MOL0     H40733  10.615   9.531   6.194 -1.5111  3.0361  0.5253
 1020MOL0     H40734  10.861   9.461   6.235 -0.9945 -0.9242  1.8037
 1020MOL0     H40735  10.790   9.607   6.311 -1.1097 -3.5846  0.6554
 1020MOL0     H40736  10.885   9.708   6.078  0.2054 -0.8117 -1.6920
 1020MOL0     H40737  10.996   9.579   6.094 -0.1979  1.6510 -2.5088
 1020MOL0     H40738  10.938   9.804   6.291 -1.5417 -0.9843 -0.7358
 1020MOL0     H40739  11.089   9.799   6.208 -2.7089  1.9750 -0.5109
 1020MOL0     H40740  10.298   9.570   6.196 -0.9115  0.5069  0.6418
 1020MOL0     H40741  10.212   9.653   6.421  0.2480  0.5594 -1.1122
 1020MOL0     H40742  10.156   9.659   6.835 -2.5972  0.9546 -0.4800
 1020MOL0     H40743  10.046   9.754   7.029 -2.3357  0.5502  0.2535
 1020MOL0     H40744   9.903  10.299   6.457 -0.7543 -1.1410  0.2755
 1020MOL0     H40745  10.004  10.518   6.443  1.5513  2.0488  0.4538
 1020MOL0     H40746  10.194  10.779   6.318  1.2731 -0.3119 -2.8525
 1020MOL0     H40747  10.198  11.005   6.267 -2.2306 -2.9068  0.8772
 1020MOL0     H40748  10.584  11.236   6.258  0.6714 -1.2634 -0.2253
 1020MOL0     H40749  10.454  11.361   6.252 -1.5261 -1.5522 -1.8743
 1020MOL0     H40750  10.577  11.387   6.467 -0.1796 -0.3524  2.3105
 1020MOL0     H40751  10.580  11.219   6.482  2.9075  1.6744 -0.3497
 1020MOL0     H40752  10.319  11.386   6.473 -0.6646 -2.9053 -1.7037
 1020MOL0     H40753  10.333  11.218   6.515 -0.7537  0.9583  3.4536
 1020MOL0     H40754  10.454  11.275   6.717  2.1240  1.9391  0.8115
 1020MOL0     H40755  10.303  11.360   6.717  1.2982  0.0516  0.2229
 1020MOL0     H40756  10.619  11.642   6.701  0.3535  0.0651  3.4364
 1020MOL0     H40757  10.617  11.034   6.350  0.5626 -1.4110 -0.8128
 1020MOL0     H40758  10.742  10.862   6.441 -0.4167  0.1051  0.2318
 1020MOL0     H40759  10.643  10.798   6.574  3.2885 -1.5065 -0.1971
 1020MOL0     H40760  10.680  10.702   6.420  2.5497 -0.0458 -0.0402
 1021MOL0     O40761   6.235   0.076  10.495 -0.7316 -0.2576 -0.8826
 1021MOL0     C40762   6.258   0.195  10.468 -0.7047  0.4588  0.6231
 1021MOL0     O40763   6.319   0.286  10.547 -0.8880  0.2211 -0.0974
 1021MOL0     C40764   6.355   0.254  10.672  0.9384 -0.5213  0.1206
 1021MOL0     C40765   6.288   0.288  10.786  0.0680 -0.6972  0.8550
 1021MOL0     C40766   6.329   0.245  10.915 -0.1200  0.9805 -0.3660
 1021MOL0     C40767   6.445   0.173  10.931 -0.5355  0.3570 -0.1358
 1021MOL0     O40768   6.487   0.141  11.059 -0.4032  0.4232 -0.1588
 1021MOL0     C40769   6.543   0.006  11.072 -0.1216  0.7369  0.7493
 1021MOL0     C40770   6.623   0.017  11.208 -0.3027 -0.0828 -0.4541
 1021MOL0     C40771   6.658  -0.121  11.274 -0.0054  0.1386  0.6623
 1021MOL0     C40772   6.760  -0.097  11.385  0.2059  0.5815 -0.2993
 1021MOL0     C40773   6.812  -0.222  11.444 -0.0198 -1.0745 -1.0132
 1021MOL0     C40774   6.902  -0.196  11.568 -0.9082  0.1396 -0.0895
 1021MOL0     C40775   7.020  -0.298  11.580  0.7604 -0.7762  0.5737
 1021MOL0     C40776   6.981  -0.444  11.619 -0.5254  0.3855  0.0876
 1021MOL0     N40777   6.940  -0.455  11.758 -0.2287  0.4589 -0.3856
 1021MOL0     C40778   7.025  -0.451  11.867  0.7868  0.7072 -0.3430
 1021MOL0     C40779   6.944  -0.416  11.969 -0.1536  0.5791  0.0475
 1021MOL0     C40780   6.979  -0.396  12.110  0.4092  0.2884 -0.6003
 1021MOL0     C40781   7.040  -0.267  12.156 -0.3916 -0.3560  0.4098
 1021MOL0     C40782   6.953  -0.155  12.195  1.3793  0.7499 -0.0829
 1021MOL0     C40783   6.897  -0.073  12.077  0.7787 -0.3465  0.4755
 1021MOL0     O40784   7.010  -0.020  11.999  0.0317  0.7632  0.1875
 1021MOL0     C40785   7.046   0.112  12.008  0.0526  0.2343 -0.3564
 1021MOL0     C40786   7.105   0.165  11.897  0.4656 -0.0837  0.2505
 1021MOL0     C40787   7.136   0.303  11.898  1.0574 -0.4772 -0.1457
 1021MOL0     C40788   7.177   0.365  11.758  0.4307 -0.0111 -1.4248
 1021MOL0     C40789   7.119   0.384  12.020  0.5062  1.1164 -0.8411
 1021MOL0     C40790   7.161   0.522  12.045 -0.2077  0.7131  0.0417
 1021MOL0     O40791   7.234   0.585  11.938 -0.1935 -0.1714 -0.1112
 1021MOL0     C40792   7.298   0.697  11.977 -0.5400  0.5109  0.2787
 1021MOL0     C40793   7.399   0.695  12.083 -0.2501 -0.2317  0.3940
 1021MOL0     C40794   7.471   0.810  12.115  0.5813  0.6820  0.8995
 1021MOL0     C40795   7.441   0.933  12.066 -0.6247 -0.7635  0.1275
 1021MOL0     O40796   7.486   1.060  12.115 -0.7037  0.4541 -0.4634
 1021MOL0     C40797   7.584   1.057  12.219 -0.6559 -0.8656 -0.7297
 1021MOL0     C40798   7.726   1.025  12.162 -0.4817  0.3450 -0.4439
 1021MOL0     C40799   7.781   1.148  12.084  0.2829 -0.0347 -0.0524
 1021MOL0     C40800   7.919   1.190  12.139  0.1510  0.4349  0.5921
 1021MOL0     C40801   7.958   1.320  12.068 -0.1370  0.2616  1.0449
 1021MOL0     C40802   8.087   1.362  12.129 -0.3866 -0.2997  0.2714
 1021MOL0     C40803   8.128   1.488  12.053  0.5718  0.2033  0.0961
 1021MOL0     C40804   8.203   1.473  11.918 -0.6783  0.3385 -0.7281
 1021MOL0    Cl40805   8.256   1.632  11.846 -0.3629 -0.1487  0.1065
 1021MOL0     C40806   7.341   0.928  11.960 -1.0246 -1.1897 -0.1533
 1021MOL0     C40807   7.282   0.815  11.908 -0.4510  0.3204 -0.2706
 1021MOL0     O40808   7.137   0.578  12.151 -0.5602  0.2601 -0.0828
 1021MOL0     C40809   7.059   0.321  12.125  1.2530 -0.7502 -0.8062
 1021MOL0     C40810   7.018   0.185  12.121 -0.1587 -0.0639  0.2008
 1021MOL0     N40811   6.817  -0.384  11.922  0.3882 -0.2643 -0.9664
 1021MOL0     N40812   6.813  -0.414  11.798  0.3999  0.3876  0.2060
 1021MOL0     C40813   6.523   0.147  10.816  0.6403  0.8895  0.2615
 1021MOL0     C40814   6.474   0.190  10.686 -0.4779 -0.2864  0.1654
 1021MOL0     C40815   6.199   0.237  10.338 -0.5390 -0.3720 -0.5825
 1021MOL0     C40816   6.133   0.355  10.342  0.8065  0.9220  0.3552
 1021MOL0     C40817   6.070   0.406  10.227  0.6215 -0.2730  0.9174
 1021MOL0     C40818   6.064   0.323  10.111 -0.1173 -0.5680 -0.3769
 1021MOL0     O40819   6.002   0.372   9.996 -0.3335 -0.6887  0.0334
 1021MOL0     C40820   5.912   0.291   9.916  0.2436  0.4031  0.7438
 1021MOL0     C40821   5.779   0.285   9.977  0.5584 -0.2223  0.1443
 1021MOL0     C40822   5.685   0.199   9.898  0.3220  0.4133  0.1857
 1021MOL0     C40823   5.563   0.185   9.974 -0.0455 -0.3200 -0.6691
 1021MOL0     C40824   5.456   0.148   9.880 -0.2349 -0.2563 -1.2010
 1021MOL0     C40825   5.384   0.122   9.785 -0.7769  0.2570 -0.2259
 1021MOL0     C40826   6.125   0.201  10.120 -0.3058 -0.7600 -0.0038
 1021MOL0     C40827   6.191   0.149  10.227 -0.4580 -0.4661  0.4374
 1021MOL0     C40828   6.264   0.020  10.211  0.3035 -0.6429  0.2408
 1021MOL0     H40829   6.198   0.348  10.779 -0.2795 -1.3727 -0.9818
 1021MOL0     H40830   6.258   0.240  10.997 -0.3611 -2.9209 -0.6477
 1021MOL0     H40831   6.613  -0.013  10.990  1.4831 -0.2731  2.3010
 1021MOL0     H40832   6.468  -0.073  11.077  2.5917 -2.1109 -0.1546
 1021MOL0     H40833   6.715   0.070  11.178  0.2152  0.0857  1.3466
 1021MOL0     H40834   6.566   0.081  11.275  0.8893  1.1934 -0.6057
 1021MOL0     H40835   6.573  -0.156  11.333 -0.6858 -0.5337 -0.6723
 1021MOL0     H40836   6.700  -0.189  11.199  0.2007  2.5440 -1.5317
 1021MOL0     H40837   6.852  -0.046  11.356  1.6777 -0.9529  1.4030
 1021MOL0     H40838   6.709  -0.031  11.455  0.6440  1.9179 -1.2065
 1021MOL0     H40839   6.877  -0.273  11.373  1.1989 -0.5028 -0.3385
 1021MOL0     H40840   6.729  -0.288  11.468 -0.3129 -0.3950 -0.0823
 1021MOL0     H40841   6.937  -0.092  11.565 -1.9074  0.5333  1.1143
 1021MOL0     H40842   6.830  -0.214  11.648 -1.3197 -2.2486 -0.9132
 1021MOL0     H40843   7.101  -0.265  11.646  1.3159 -3.7932  1.5837
 1021MOL0     H40844   7.065  -0.292  11.480 -0.3505  1.2220  0.1323
 1021MOL0     H40845   6.903  -0.481  11.551 -2.1710  3.6098  0.0378
 1021MOL0     H40846   7.068  -0.509  11.601 -1.4564 -1.1315  0.8167
 1021MOL0     H40847   7.128  -0.479  11.890  0.4725  0.2318  0.5833
 1021MOL0     H40848   7.057  -0.470  12.124 -0.8489 -1.0079 -0.2149
 1021MOL0     H40849   6.885  -0.414  12.163  0.9097 -1.7808 -0.3387
 1021MOL0     H40850   7.105  -0.292  12.240  1.3127  1.6085 -0.2218
 1021MOL0     H40851   7.107  -0.230  12.077 -2.5123 -0.7987 -1.7273
 1021MOL0     H40852   6.872  -0.196  12.255  0.3380 -0.2854 -2.1039
 1021MOL0     H40853   7.004  -0.087  12.265  0.2292 -0.2088  1.7713
 1021MOL0     H40854   6.839  -0.140  12.013  1.5627 -3.6628  2.9293
 1021MOL0     H40855   6.824  -0.001  12.115  1.8001 -0.1025  2.0897
 1021MOL0     H40856   7.134   0.103  11.812  0.8772 -1.1070  1.1124
 1021MOL0     H40857   7.114   0.451  11.734 -0.5150 -0.1081  0.5156
 1021MOL0     H40858   7.167   0.298  11.672  0.2389  0.1951 -1.5636
 1021MOL0     H40859   7.283   0.392  11.758  0.1914  0.9832 -0.5558
 1021MOL0     H40860   7.427   0.601  12.129  0.2733 -0.5514 -0.5571
 1021MOL0     H40861   7.543   0.793  12.193  0.1563 -0.5604  1.0342
 1021MOL0     H40862   7.582   1.157  12.263  3.3022 -1.4179  1.0563
 1021MOL0     H40863   7.552   0.987  12.297 -1.6362 -0.6702 -0.9415
 1021MOL0     H40864   7.789   0.994  12.247 -4.3507 -0.0300  2.5671
 1021MOL0     H40865   7.706   0.941  12.095  0.7245  1.3796 -2.1624
 1021MOL0     H40866   7.716   1.234  12.100 -0.9556 -1.1364  1.0252
 1021MOL0     H40867   7.785   1.121  11.978  0.5676 -0.1282 -0.0209
 1021MOL0     H40868   7.995   1.114  12.121 -0.9339 -1.3987  3.0746
 1021MOL0     H40869   7.903   1.212  12.245 -3.9488  1.9212 -0.1536
 1021MOL0     H40870   7.960   1.298  11.961 -2.3670 -0.7997  1.1761
 1021MOL0     H40871   7.884   1.400  12.078  1.6407  1.9669  1.1721
 1021MOL0     H40872   8.165   1.286  12.125  0.7909  0.8132  1.2036
 1021MOL0     H40873   8.067   1.396  12.231 -2.6697  0.5976 -0.3988
 1021MOL0     H40874   8.203   1.532  12.119  0.8122 -0.2789  0.1556
 1021MOL0     H40875   8.049   1.560  12.031 -1.1545 -1.6973 -0.3348
 1021MOL0     H40876   8.140   1.427  11.841 -1.6564  1.0382 -0.3637
 1021MOL0     H40877   8.283   1.402  11.942  1.0743  2.8435  1.5247
 1021MOL0     H40878   7.308   1.023  11.917 -0.1173 -1.3345 -1.2190
 1021MOL0     H40879   7.202   0.826  11.835  0.5139 -1.0273 -1.5837
 1021MOL0     H40880   7.044   0.380  12.215  1.0347  0.2868 -1.4936
 1021MOL0     H40881   6.968   0.131  12.200 -1.9035 -2.3575 -2.2653
 1021MOL0     H40882   6.613   0.087  10.821  0.3085  0.3911  0.3732
 1021MOL0     H40883   6.540   0.174  10.602 -0.2028  0.7272  0.1709
 1021MOL0     H40884   6.133   0.411  10.435  0.7034  1.2154  0.1842
 1021MOL0     H40885   6.018   0.501  10.220 -0.0559 -0.7724 -1.8836
 1021MOL0     H40886   5.902   0.338   9.818  0.7757 -2.0145 -0.5619
 1021MOL0     H40887   5.946   0.189   9.894 -1.8305 -0.5014  1.4404
 1021MOL0     H40888   5.751   0.391   9.977 -2.3393 -0.8461  2.7813
 1021MOL0     H40889   5.793   0.249  10.079  0.1015 -1.9563 -0.3754
 1021MOL0     H40890   5.685   0.242   9.798  1.7191  1.6714  0.6786
 1021MOL0     H40891   5.716   0.094   9.886 -4.5244 -1.3562  0.7866
 1021MOL0     H40892   5.538   0.273  10.033  2.4370 -0.1323  0.1959
 1021MOL0     H40893   5.567   0.097  10.038 -2.6720 -0.0808 -0.0774
 1021MOL0     H40894   5.320   0.103   9.701 -1.0297  4.2470 -1.1328
 1021MOL0     H40895   6.118   0.134  10.034  1.5256 -1.3889  0.2875
 1021MOL0     H40896   6.254  -0.006  10.105  3.2419  2.1374 -0.8667
 1021MOL0     H40897   6.372   0.020  10.227  0.2510 -0.3272  0.6050
 1021MOL0     H40898   6.214  -0.057  10.270  0.4988 -2.9852 -2.4471
 1022MOL0     O40899   1.933   5.506   5.896  0.1105  0.9324  1.5190
 1022MOL0     C40900   1.983   5.416   5.963 -0.6224 -0.0037 -0.2324
 1022MOL0     O40901   1.920   5.310   6.026  0.0977  0.5611 -0.0006
 1022MOL0     C40902   1.783   5.309   6.022  0.6221 -0.0508 -0.0019
 1022MOL0     C40903   1.694   5.417   6.040 -0.4576  0.5518 -0.0463
 1022MOL0     C40904   1.554   5.398   6.038  0.3270  0.1105 -0.5639
 1022MOL0     C40905   1.497   5.274   6.021  0.4573 -0.3228  0.5897
 1022MOL0     O40906   1.361   5.278   6.032  0.2331 -0.4887  0.1068
 1022MOL0     C40907   1.273   5.170   6.004 -0.6605 -0.4876 -0.6733
 1022MOL0     C40908   1.285   5.102   5.870 -0.1039  1.7293 -0.3166
 1022MOL0     C40909   1.163   5.034   5.814 -0.8238 -0.9604  0.2253
 1022MOL0     C40910   1.135   4.903   5.889  0.5083  1.1108 -0.2215
 1022MOL0     C40911   1.011   4.838   5.834 -0.3130  0.1905  0.3658
 1022MOL0     C40912   0.956   4.731   5.936 -0.0504  0.1881 -0.1163
 1022MOL0     C40913   0.810   4.718   5.936  0.1722  0.7345  0.1404
 1022MOL0     C40914   0.750   4.822   6.038 -0.9449  0.4136  0.2556
 1022MOL0     N40915   0.610   4.785   6.068  0.4458 -0.0500  0.1343
 1022MOL0     C40916   0.515   4.778   5.975 -1.1592  0.6630  0.1525
 1022MOL0     C40917   0.416   4.708   6.043  0.7168 -0.6892  0.2376
 1022MOL0     C40918   0.267   4.675   5.997  0.0593 -0.2711 -0.4430
 1022MOL0     C40919   0.218   4.530   6.021 -0.0028 -0.9478  0.3583
 1022MOL0     C40920   0.303   4.432   5.945  0.2258 -0.7494 -0.8097
 1022MOL0     C40921   0.263   4.281   5.963 -0.4731 -0.3799  0.4096
 1022MOL0     O40922   0.284   4.243   6.104 -0.1696 -0.4117 -0.1047
 1022MOL0     C40923   0.410   4.223   6.141 -0.3945  0.1989  0.3314
 1022MOL0     C40924   0.468   4.308   6.226 -0.2573 -0.3139  0.4044
 1022MOL0     C40925   0.593   4.295   6.277  0.5582  0.6869 -0.7104
 1022MOL0     C40926   0.655   4.414   6.347  0.3912 -0.8043 -0.9197
 1022MOL0     C40927   0.661   4.172   6.256 -0.2535  1.0800 -0.6549
 1022MOL0     C40928   0.799   4.151   6.293 -0.6000  0.2925 -0.9928
 1022MOL0     O40929   0.848   4.033   6.246 -0.5908 -0.1110  0.8363
 1022MOL0     C40930   0.988   4.001   6.253  0.2083 -0.6841 -0.5160
 1022MOL0     C40931   1.054   4.004   6.382  0.0866 -0.3256  0.8141
 1022MOL0     C40932   1.181   3.953   6.398  0.8955  0.0783 -0.7937
 1022MOL0     C40933   1.258   3.918   6.293  1.0034  0.2182 -0.4833
 1022MOL0     O40934   1.371   3.855   6.321  0.4176  0.7209  0.1828
 1022MOL0     C40935   1.443   3.782   6.226  0.1100 -0.2875 -0.1735
 1022MOL0     C40936   1.516   3.896   6.157  0.9317 -0.9562 -0.2489
 1022MOL0     C40937   1.621   3.847   6.057  0.9236  0.4931 -0.2025
 1022MOL0     C40938   1.663   3.963   5.975  1.1721  0.7230 -0.2232
 1022MOL0     C40939   1.775   3.919   5.885  0.6457  0.0070 -0.2585
 1022MOL0     C40940   1.805   4.035   5.793 -0.7861 -0.5731 -0.9259
 1022MOL0     C40941   1.915   3.996   5.690 -0.2402 -1.0103  0.4894
 1022MOL0     C40942   1.969   4.123   5.616 -0.8415 -0.2693  0.2561
 1022MOL0    Cl40943   1.826   4.197   5.515  0.5278  0.1341  0.4702
 1022MOL0     C40944   1.201   3.914   6.155 -0.0099 -0.3128 -0.3960
 1022MOL0     C40945   1.066   3.962   6.142 -0.6686  0.0202 -0.9685
 1022MOL0     O40946   0.863   4.221   6.374  0.2885 -0.5444  0.1718
 1022MOL0     C40947   0.599   4.079   6.173  0.4200  0.0087  0.0173
 1022MOL0     C40948   0.470   4.099   6.111 -1.0930 -0.0378 -0.2009
 1022MOL0     N40949   0.456   4.681   6.169 -0.3035  0.1616 -0.1916
 1022MOL0     N40950   0.561   4.745   6.186 -0.1340 -0.1519  0.0258
 1022MOL0     C40951   1.584   5.161   5.999  0.3446  0.7068  0.4708
 1022MOL0     C40952   1.725   5.176   6.001  0.0633 -0.1747  0.3550
 1022MOL0     C40953   2.128   5.437   5.987  0.0181  0.4049  0.2830
 1022MOL0     C40954   2.196   5.339   6.067  0.2118 -0.0569 -0.1813
 1022MOL0     C40955   2.332   5.360   6.084 -0.0635  0.4518 -0.3881
 1022MOL0     C40956   2.401   5.469   6.042  0.1220  0.4434  0.1319
 1022MOL0     O40957   2.536   5.497   6.065  1.4178 -0.2634  0.0484
 1022MOL0     C40958   2.624   5.392   6.106  0.7194 -0.2276 -0.1157
 1022MOL0     C40959   2.643   5.296   5.995 -0.9439  0.5332  0.3081
 1022MOL0     C40960   2.721   5.368   5.875  0.2930  0.4557  0.4793
 1022MOL0     C40961   2.691   5.283   5.751 -0.8234 -0.7478  0.5286
 1022MOL0     C40962   2.757   5.342   5.641 -0.5162 -0.1242 -0.2997
 1022MOL0     C40963   2.790   5.401   5.536  0.5256 -0.3758 -0.4627
 1022MOL0     C40964   2.336   5.558   5.958  0.5995  0.0989 -0.7312
 1022MOL0     C40965   2.198   5.546   5.926 -0.1251  0.0693  0.6133
 1022MOL0     C40966   2.149   5.655   5.829 -0.4673 -0.1197 -0.2891
 1022MOL0     H40967   1.732   5.518   6.053  2.4441 -0.3986 -0.3547
 1022MOL0     H40968   1.480   5.475   6.058  0.4122  0.0589 -0.0131
 1022MOL0     H40969   1.172   5.211   6.003 -0.8295 -0.7777 -3.1439
 1022MOL0     H40970   1.273   5.098   6.087 -1.0949  0.3570  0.0742
 1022MOL0     H40971   1.315   5.171   5.790 -2.5188  1.7620 -1.2947
 1022MOL0     H40972   1.365   5.029   5.881  1.1458  3.2851  1.5206
 1022MOL0     H40973   1.075   5.098   5.828 -2.0470 -1.6646 -3.2897
 1022MOL0     H40974   1.175   5.013   5.708 -0.4615 -0.1524  0.1003
 1022MOL0     H40975   1.217   4.831   5.886  1.2353  1.9146 -0.3216
 1022MOL0     H40976   1.119   4.938   5.991 -1.2077 -0.2798  0.0329
 1022MOL0     H40977   1.041   4.793   5.739  0.0354  1.0048  0.0871
 1022MOL0     H40978   0.941   4.919   5.812  1.8420  1.9896 -0.3108
 1022MOL0     H40979   0.990   4.631   5.905 -0.6424  0.9249 -3.5424
 1022MOL0     H40980   0.983   4.761   6.038 -0.8218  3.4850 -0.7699
 1022MOL0     H40981   0.781   4.622   5.978 -0.5658  0.3118 -1.2609
 1022MOL0     H40982   0.771   4.730   5.834 -0.9220  2.6605  0.7208
 1022MOL0     H40983   0.805   4.813   6.132  0.1785 -3.0015 -0.5786
 1022MOL0     H40984   0.757   4.921   5.993 -1.3488 -0.1751 -1.1419
 1022MOL0     H40985   0.530   4.816   5.875  3.8347 -0.7706  0.0974
 1022MOL0     H40986   0.264   4.705   5.892 -0.3369  0.6921 -0.1621
 1022MOL0     H40987   0.202   4.749   6.044 -1.1470 -2.8383  2.2622
 1022MOL0     H40988   0.221   4.512   6.129 -2.9629  1.8020  1.0434
 1022MOL0     H40989   0.115   4.529   5.985  0.3966  0.1291 -0.8818
 1022MOL0     H40990   0.312   4.454   5.838  1.7531  2.3570 -0.1387
 1022MOL0     H40991   0.405   4.436   5.985  0.6854 -0.7981 -1.9471
 1022MOL0     H40992   0.163   4.268   5.921  0.3267  0.1880 -1.8020
 1022MOL0     H40993   0.340   4.221   5.913  5.0445  2.7249  4.0889
 1022MOL0     H40994   0.421   4.401   6.256  1.9257  1.5986 -1.6384
 1022MOL0     H40995   0.754   4.438   6.308  0.1363  1.0696 -0.5401
 1022MOL0     H40996   0.662   4.398   6.455  0.7462 -2.0903 -1.1242
 1022MOL0     H40997   0.590   4.498   6.321  0.1277 -0.9852 -0.8485
 1022MOL0     H40998   1.002   4.032   6.473 -0.7120  1.0008 -0.0146
 1022MOL0     H40999   1.228   3.948   6.496  0.3983 -0.5256 -0.5737
 1022MOL0     H41000   1.516   3.724   6.284  1.3124  2.6150  1.4414
 1022MOL0     H41001   1.384   3.713   6.165 -1.2717  0.3524  0.3808
 1022MOL0     H41002   1.447   3.957   6.098  1.8676 -2.1371 -2.7061
 1022MOL0     H41003   1.567   3.968   6.223  0.9719  0.4130 -1.6984
 1022MOL0     H41004   1.577   3.764   6.003  0.8104  0.1729  0.3786
 1022MOL0     H41005   1.698   3.792   6.112  0.1280 -0.4470 -0.0099
 1022MOL0     H41006   1.707   4.048   6.028  0.0199  1.1256  0.1037
 1022MOL0     H41007   1.574   3.990   5.918 -0.0140  1.4574  1.8715
 1022MOL0     H41008   1.852   3.886   5.955 -0.9352  1.3298  2.2691
 1022MOL0     H41009   1.736   3.847   5.813  1.2739 -1.4125  0.7610
 1022MOL0     H41010   1.848   4.118   5.850  2.7529 -3.2853  0.7992
 1022MOL0     H41011   1.710   4.072   5.754 -1.5738  0.3482  1.6432
 1022MOL0     H41012   1.874   3.923   5.620 -2.1614  0.8167 -0.4191
 1022MOL0     H41013   2.000   3.954   5.743  0.2541  0.0335  0.5527
 1022MOL0     H41014   2.048   4.095   5.546  0.1839 -2.8247  2.2667
 1022MOL0     H41015   2.011   4.193   5.690 -2.4390  2.0260 -0.8757
 1022MOL0     H41016   1.249   3.867   6.070 -0.2184  2.0614 -1.9367
 1022MOL0     H41017   1.014   3.945   6.048  0.1572 -0.0466 -1.4209
 1022MOL0     H41018   0.648   3.985   6.149  1.8882  1.2138 -2.0353
 1022MOL0     H41019   0.415   4.030   6.047 -1.2857  0.4856 -0.6079
 1022MOL0     H41020   1.537   5.064   5.990 -1.4665  1.6938 -1.9360
 1022MOL0     H41021   1.785   5.089   5.980 -2.0862 -1.8368  0.7087
 1022MOL0     H41022   2.140   5.253   6.101  0.4856 -0.3665 -0.5013
 1022MOL0     H41023   2.385   5.285   6.141  0.4835  2.5399  2.0056
 1022MOL0     H41024   2.723   5.437   6.118  1.4031 -1.0574 -2.2217
 1022MOL0     H41025   2.598   5.350   6.204  1.4221  1.2831  0.7537
 1022MOL0     H41026   2.552   5.249   5.955 -0.8152  0.1311  0.4875
 1022MOL0     H41027   2.701   5.214   6.039 -1.1690  0.9303  1.3731
 1022MOL0     H41028   2.680   5.469   5.864 -1.9651 -0.5568 -1.3185
 1022MOL0     H41029   2.828   5.376   5.894  0.5133  0.2921 -0.6258
 1022MOL0     H41030   2.589   5.297   5.715  0.4681 -0.3468 -3.5213
 1022MOL0     H41031   2.713   5.176   5.761  0.1774 -0.5191  0.8857
 1022MOL0     H41032   2.811   5.439   5.439 -0.9529  0.4206 -0.5073
 1022MOL0     H41033   2.395   5.645   5.930 -0.9271  1.4033 -0.0639
 1022MOL0     H41034   2.102   5.600   5.747 -0.0496 -0.4979 -0.2790
 1022MOL0     H41035   2.078   5.707   5.893 -2.2453 -2.3026 -0.3467
 1022MOL0     H41036   2.235   5.719   5.806  0.0106  1.4672  4.7551
 1023MOL0     O41037   1.026   6.286   7.319  0.0098 -0.8007  0.4065
 1023MOL0     C41038   0.920   6.330   7.358  0.2864  0.0091 -1.3070
 1023MOL0     O41039   0.822   6.266   7.418 -0.7681  0.4260 -0.0135
 1023MOL0     C41040   0.833   6.137   7.460 -0.5561 -0.1063  0.0425
 1023MOL0     C41041   0.799   6.110   7.595 -0.3854  0.3125 -0.0196
 1023MOL0     C41042   0.827   5.978   7.640  0.7000  0.8670  0.3577
 1023MOL0     C41043   0.869   5.871   7.550  0.5153 -0.4538  0.8095
 1023MOL0     O41044   0.909   5.755   7.597  0.7823  0.6031  0.0472
 1023MOL0     C41045   1.039   5.700   7.557 -0.7970  0.7111  0.1213
 1023MOL0     C41046   1.033   5.547   7.588 -0.8002  0.2393  1.2543
 1023MOL0     C41047   1.059   5.526   7.736  0.1880  0.8212 -0.3990
 1023MOL0     C41048   1.217   5.535   7.764  0.6075  0.1980 -1.0077
 1023MOL0     C41049   1.230   5.506   7.919  0.0866 -0.2938  0.4373
 1023MOL0     C41050   1.358   5.565   7.974 -0.1802 -0.3762 -0.2646
 1023MOL0     C41051   1.396   5.540   8.121 -0.6241 -0.3587 -0.3918
 1023MOL0     C41052   1.419   5.393   8.156 -0.2030  0.4764  0.5336
 1023MOL0     N41053   1.520   5.320   8.073  0.0211 -0.7596 -0.4022
 1023MOL0     C41054   1.662   5.329   8.085 -0.5692  0.2554 -0.2236
 1023MOL0     C41055   1.708   5.243   7.991 -0.2332  0.8382  0.0879
 1023MOL0     C41056   1.846   5.195   7.952  0.3503  0.4818  0.5577
 1023MOL0     C41057   1.953   5.307   7.955  0.4033  0.4696 -0.2489
 1023MOL0     C41058   2.059   5.293   7.848  0.6926  0.1848 -0.1790
 1023MOL0     C41059   2.135   5.426   7.826  0.1364  0.4684 -0.0449
 1023MOL0     O41060   2.208   5.459   7.945 -0.3837 -0.8367  0.0895
 1023MOL0     C41061   2.341   5.437   7.961  0.8169 -0.2962  0.3622
 1023MOL0     C41062   2.402   5.507   8.062  0.9076  0.0199 -0.3142
 1023MOL0     C41063   2.530   5.489   8.104  0.2143  0.2597  0.2947
 1023MOL0     C41064   2.584   5.576   8.222  0.5459  0.0370  0.8281
 1023MOL0     C41065   2.613   5.400   8.034 -0.0347  0.5984  0.3636
 1023MOL0     C41066   2.754   5.375   8.073 -0.1708  0.0768  0.1442
 1023MOL0     O41067   2.836   5.319   7.966  0.0971 -0.4861  0.2798
 1023MOL0     C41068   2.967   5.276   8.006 -0.3692 -0.5754  0.0937
 1023MOL0     C41069   3.073   5.310   7.932 -0.6945 -0.2320  0.7824
 1023MOL0     C41070   3.202   5.266   7.956  0.6767 -0.1154  0.8838
 1023MOL0     C41071   3.218   5.183   8.066  0.6618  1.1608  0.0461
 1023MOL0     O41072   3.336   5.132   8.098 -0.4742  0.3470 -0.4533
 1023MOL0     C41073   3.355   5.007   8.022 -0.9455 -0.1831 -0.3970
 1023MOL0     C41074   3.495   4.960   8.040  0.4480 -0.4128  0.3011
 1023MOL0     C41075   3.517   4.903   8.182 -0.0264  0.0301 -0.1205
 1023MOL0     C41076   3.661   4.869   8.208 -0.4758  0.0098  0.8834
 1023MOL0     C41077   3.675   4.795   8.342 -0.3342  0.3140 -0.5540
 1023MOL0     C41078   3.818   4.742   8.376  0.6875 -0.1041  0.2393
 1023MOL0     C41079   3.810   4.635   8.489  0.5539 -0.6079 -0.6199
 1023MOL0     C41080   3.949   4.583   8.517  0.3171  0.6202 -0.4247
 1023MOL0    Cl41081   4.051   4.727   8.589 -0.1210  0.4065  0.0467
 1023MOL0     C41082   3.109   5.144   8.141  0.1836  0.6693  0.2572
 1023MOL0     C41083   2.977   5.198   8.119 -1.3116  1.3561  0.3860
 1023MOL0     O41084   2.804   5.409   8.181 -0.1079 -0.0316 -0.6649
 1023MOL0     C41085   2.555   5.332   7.924 -0.0026  0.7515  0.1834
 1023MOL0     C41086   2.416   5.344   7.894 -0.5580  0.6953  0.8118
 1023MOL0     N41087   1.598   5.201   7.927 -0.0927 -0.3363 -0.3861
 1023MOL0     N41088   1.483   5.239   7.979 -0.0494  0.2720  0.6527
 1023MOL0     C41089   0.889   5.911   7.409 -0.6476  0.1498  0.5589
 1023MOL0     C41090   0.874   6.045   7.368  0.4223  0.0247  0.3214
 1023MOL0     C41091   0.903   6.469   7.315  0.0152  0.9571 -0.6840
 1023MOL0     C41092   1.006   6.558   7.338  0.3840 -0.2586  0.2807
 1023MOL0     C41093   1.000   6.690   7.299  0.2072  0.8452  0.7260
 1023MOL0     C41094   0.883   6.739   7.243  0.5422  0.3040  0.2537
 1023MOL0     O41095   0.883   6.870   7.196 -0.3673  0.7955  0.1326
 1023MOL0     C41096   0.767   6.921   7.123  0.3086  0.3003 -0.0536
 1023MOL0     C41097   0.651   6.957   7.214  0.6255  0.1480 -0.3033
 1023MOL0     C41098   0.678   7.094   7.282 -0.4893  0.3930  1.0101
 1023MOL0     C41099   0.605   7.109   7.407  0.5287 -0.0133 -0.5023
 1023MOL0     C41100   0.632   7.238   7.468  0.2787 -0.4634  0.2819
 1023MOL0     C41101   0.644   7.352   7.508  0.6311 -0.3050  0.2796
 1023MOL0     C41102   0.778   6.653   7.231  0.2416 -0.3320 -0.8309
 1023MOL0     C41103   0.785   6.520   7.258 -0.2922 -0.5797 -0.0941
 1023MOL0     C41104   0.677   6.425   7.225  0.1650 -0.9217 -0.3252
 1023MOL0     H41105   0.770   6.188   7.665 -0.0605 -1.7470  2.5776
 1023MOL0     H41106   0.812   5.958   7.746 -2.5442 -1.2713 -0.3588
 1023MOL0     H41107   1.117   5.750   7.615 -0.0785 -0.8920  0.5831
 1023MOL0     H41108   1.059   5.717   7.450 -0.0492 -1.3882 -0.1208
 1023MOL0     H41109   0.932   5.515   7.559 -1.2696  3.0311 -0.6183
 1023MOL0     H41110   1.107   5.501   7.523 -2.1538 -0.5734  0.2258
 1023MOL0     H41111   1.009   5.604   7.793 -1.1219  0.3120 -0.8290
 1023MOL0     H41112   1.029   5.425   7.767  1.8947  0.4583  0.2316
 1023MOL0     H41113   1.285   5.475   7.703 -0.3378 -0.6076 -1.2969
 1023MOL0     H41114   1.249   5.639   7.753  0.1648  0.4230 -0.2760
 1023MOL0     H41115   1.214   5.399   7.931 -0.9179 -0.0911  1.0662
 1023MOL0     H41116   1.142   5.554   7.962 -0.2934 -1.8308  1.4389
 1023MOL0     H41117   1.445   5.530   7.918  2.3924  4.3213  0.2783
 1023MOL0     H41118   1.352   5.674   7.960  1.6914  0.3254  3.1377
 1023MOL0     H41119   1.322   5.577   8.193  0.4317  0.3074  0.3893
 1023MOL0     H41120   1.477   5.608   8.147  0.1255 -1.0020 -0.9911
 1023MOL0     H41121   1.437   5.365   8.261 -2.8930 -2.9500  0.2780
 1023MOL0     H41122   1.327   5.338   8.134  0.5646 -0.9239  0.7050
 1023MOL0     H41123   1.728   5.380   8.154 -0.1285  0.0190 -0.4611
 1023MOL0     H41124   1.839   5.149   7.853  1.3665 -1.0800  1.1830
 1023MOL0     H41125   1.882   5.119   8.021  2.5947 -2.2405 -3.1836
 1023MOL0     H41126   1.915   5.410   7.948  1.3407  1.1096  2.5270
 1023MOL0     H41127   2.011   5.298   8.048  1.3146  1.1704 -0.7327
 1023MOL0     H41128   2.123   5.210   7.879  0.1161  0.0164  0.6013
 1023MOL0     H41129   2.017   5.271   7.749  1.9696 -0.4799 -0.5885
 1023MOL0     H41130   2.201   5.412   7.740 -1.1336  0.0755 -0.9682
 1023MOL0     H41131   2.067   5.506   7.798 -0.3093 -0.5686 -2.0823
 1023MOL0     H41132   2.351   5.589   8.112  1.4020 -0.5948  1.2517
 1023MOL0     H41133   2.513   5.654   8.250  2.0147  1.1763  1.5088
 1023MOL0     H41134   2.682   5.617   8.198 -0.1518 -0.2838 -3.3667
 1023MOL0     H41135   2.596   5.501   8.300 -1.4302 -0.2697  0.9080
 1023MOL0     H41136   3.057   5.375   7.847  1.6342  1.6573  1.6652
 1023MOL0     H41137   3.280   5.287   7.884 -1.5452  0.4852 -1.5213
 1023MOL0     H41138   3.280   4.930   8.044 -0.6346 -0.3393  0.1367
 1023MOL0     H41139   3.344   5.030   7.916  1.7761 -1.0003 -0.9260
 1023MOL0     H41140   3.512   4.884   7.963  5.0611  2.2092 -1.7072
 1023MOL0     H41141   3.554   5.047   8.009 -0.4147 -0.5258 -1.8204
 1023MOL0     H41142   3.442   4.825   8.196  2.2038 -2.2140  0.0639
 1023MOL0     H41143   3.499   4.983   8.254  0.6475  1.8659 -1.8869
 1023MOL0     H41144   3.710   4.967   8.210  1.1997 -0.7071 -1.2098
 1023MOL0     H41145   3.705   4.809   8.128  1.4335  1.8020  0.4957
 1023MOL0     H41146   3.636   4.865   8.416  2.3956  2.7725 -1.2323
 1023MOL0     H41147   3.597   4.719   8.340  0.0277 -0.4194  3.8298
 1023MOL0     H41148   3.889   4.815   8.415  1.0632 -2.8808  5.6290
 1023MOL0     H41149   3.857   4.699   8.282 -1.0217 -0.8520 -0.1634
 1023MOL0     H41150   3.740   4.559   8.452 -1.3453  0.7670 -0.0237
 1023MOL0     H41151   3.759   4.681   8.574  1.1319  1.4125 -1.3035
 1023MOL0     H41152   3.999   4.547   8.427  0.8513  0.9674 -0.2727
 1023MOL0     H41153   3.950   4.502   8.590  0.4267 -0.6103 -1.7576
 1023MOL0     H41154   3.119   5.064   8.214  0.3401 -1.6503 -2.1626
 1023MOL0     H41155   2.903   5.154   8.185  0.4583 -3.2651 -0.2784
 1023MOL0     H41156   2.615   5.261   7.868  3.4773  3.3501  0.2087
 1023MOL0     H41157   2.381   5.286   7.809 -2.3963 -0.4165  2.2620
 1023MOL0     H41158   0.919   5.831   7.341  1.1061 -0.1165  1.5612
 1023MOL0     H41159   0.887   6.083   7.267  2.8191  2.7718  1.5225
 1023MOL0     H41160   1.103   6.529   7.376  0.7049  0.9749  0.4576
 1023MOL0     H41161   1.091   6.749   7.303 -0.0591  1.2648  0.6951
 1023MOL0     H41162   0.797   7.013   7.073 -0.9003 -0.1216 -1.6128
 1023MOL0     H41163   0.749   6.852   7.041 -0.8700 -1.0334  1.2537
 1023MOL0     H41164   0.627   6.873   7.279  0.0621  0.9001  0.4748
 1023MOL0     H41165   0.560   6.965   7.154 -2.4560  0.4969  3.9959
 1023MOL0     H41166   0.784   7.122   7.290 -0.1971  0.8634 -2.7680
 1023MOL0     H41167   0.634   7.171   7.218 -0.4249 -0.2409  0.1888
 1023MOL0     H41168   0.617   7.036   7.487  0.4411  0.8450  0.3170
 1023MOL0     H41169   0.500   7.098   7.379  0.0124 -2.3030  1.9032
 1023MOL0     H41170   0.652   7.455   7.536 -2.6483  0.5955 -1.5462
 1023MOL0     H41171   0.684   6.673   7.179 -0.5786  2.1747  1.4134
 1023MOL0     H41172   0.631   6.462   7.133 -2.0545  0.9808  1.4172
 1023MOL0     H41173   0.709   6.323   7.206  0.0031 -0.9111 -0.6555
 1023MOL0     H41174   0.599   6.429   7.302 -0.0080 -4.3305 -0.1751
 1024MOL0     O41175   4.672   2.764  10.285 -0.8688 -0.7023 -0.1956
 1024MOL0     C41176   4.622   2.653  10.257 -0.3981 -0.6932  0.3882
 1024MOL0     O41177   4.682   2.571  10.166 -0.4261  0.0736  0.1322
 1024MOL0     C41178   4.817   2.581  10.145 -0.5531  0.4534  0.5789
 1024MOL0     C41179   4.864   2.676  10.048 -0.3302 -0.2966 -0.7013
 1024MOL0     C41180   4.990   2.670   9.986 -0.4805  0.0656 -0.0195
 1024MOL0     C41181   5.095   2.584  10.041  0.4855 -1.0129  0.0892
 1024MOL0     O41182   5.218   2.550   9.997 -0.0839  0.2924 -0.0407
 1024MOL0     C41183   5.298   2.657   9.931 -0.3342  0.4337 -1.0495
 1024MOL0     C41184   5.440   2.606   9.930  0.0614 -0.3160 -0.1157
 1024MOL0     C41185   5.557   2.701   9.905 -0.2705  1.0334  0.6732
 1024MOL0     C41186   5.558   2.765   9.763 -0.4726 -0.8302 -0.2369
 1024MOL0     C41187   5.526   2.919   9.760 -0.1849 -0.5482 -0.1651
 1024MOL0     C41188   5.502   2.963   9.620 -0.6303 -0.0658  0.0289
 1024MOL0     C41189   5.495   3.113   9.620 -0.7673 -0.7754  0.9069
 1024MOL0     C41190   5.435   3.153   9.486  0.4175  0.2789  0.1262
 1024MOL0     N41191   5.533   3.186   9.383 -0.5215  0.1896 -0.9898
 1024MOL0     C41192   5.567   3.107   9.269  0.0010  0.7876 -0.7375
 1024MOL0     C41193   5.655   3.188   9.201  0.6715  0.8485  0.6728
 1024MOL0     C41194   5.720   3.148   9.067  0.3487 -0.0404 -0.3591
 1024MOL0     C41195   5.777   3.008   9.063 -0.4540 -0.7246 -0.3896
 1024MOL0     C41196   5.881   2.974   9.164  0.4631 -0.1095  0.5713
 1024MOL0     C41197   6.007   3.037   9.142 -0.9229  0.2353  0.5712
 1024MOL0     O41198   6.106   2.959   9.215 -0.2770 -0.3190 -0.5038
 1024MOL0     C41199   6.228   3.013   9.259 -0.0719  0.1876  1.0781
 1024MOL0     C41200   6.302   2.959   9.363  0.5380  0.0343  0.0950
 1024MOL0     C41201   6.425   3.025   9.404  0.1776  0.0856 -0.2939
 1024MOL0     C41202   6.493   2.955   9.528  0.5743  0.5731 -0.4633
 1024MOL0     C41203   6.478   3.145   9.348  0.1037  0.3651  0.2040
 1024MOL0     C41204   6.606   3.233   9.399 -0.1048 -0.3664 -0.0645
 1024MOL0     O41205   6.621   3.363   9.371  0.6427 -0.7922 -0.4616
 1024MOL0     C41206   6.748   3.423   9.389  0.3884 -0.0814  0.1901
 1024MOL0     C41207   6.874   3.362   9.364  0.2193  0.2699 -0.7978
 1024MOL0     C41208   6.996   3.430   9.368 -0.1650  0.4435 -1.2923
 1024MOL0     C41209   6.997   3.566   9.392  0.0112 -0.7358 -0.6482
 1024MOL0     O41210   7.123   3.630   9.394  0.5336 -0.0940 -0.3535
 1024MOL0     C41211   7.146   3.762   9.455 -0.3506  0.2288 -0.2359
 1024MOL0     C41212   7.295   3.815   9.471 -0.7144 -0.6778  0.1050
 1024MOL0     C41213   7.352   3.739   9.598  0.4734 -0.3325  0.8217
 1024MOL0     C41214   7.490   3.691   9.573 -0.1871 -0.0047  0.4871
 1024MOL0     C41215   7.540   3.606   9.685  0.2921 -0.6806 -0.3778
 1024MOL0     C41216   7.680   3.546   9.644  0.0459  0.0222 -0.4255
 1024MOL0     C41217   7.726   3.470   9.773  0.1215  0.0074  0.9844
 1024MOL0     C41218   7.855   3.396   9.743 -0.5194 -0.0704 -0.2968
 1024MOL0    Cl41219   7.832   3.238   9.676  0.0642 -0.0298 -0.0388
 1024MOL0     C41220   6.872   3.631   9.405  0.7244 -0.0011  0.4097
 1024MOL0     C41221   6.747   3.567   9.399  0.3478  0.9526 -0.0313
 1024MOL0     O41222   6.678   3.175   9.477 -0.0189 -0.0195  0.1609
 1024MOL0     C41223   6.398   3.197   9.239 -0.7897  0.0428 -0.5526
 1024MOL0     C41224   6.282   3.132   9.194 -0.5808  0.3123  0.6249
 1024MOL0     N41225   5.673   3.300   9.274  1.0882  0.9397  0.5982
 1024MOL0     N41226   5.604   3.300   9.381  0.0582  0.6198 -0.2794
 1024MOL0     C41227   5.051   2.500  10.142  0.0439 -0.6346  0.1043
 1024MOL0     C41228   4.919   2.497  10.196 -0.5360  0.1531  0.4476
 1024MOL0     C41229   4.499   2.619  10.330  0.8745 -0.2696 -0.0728
 1024MOL0     C41230   4.469   2.686  10.445 -0.7857 -0.5783  0.4947
 1024MOL0     C41231   4.357   2.658  10.520 -0.3667 -0.5124 -0.7742
 1024MOL0     C41232   4.265   2.567  10.473  0.3542  0.7219  0.1829
 1024MOL0     O41233   4.152   2.554  10.552  0.5259 -0.3086 -0.6111
 1024MOL0     C41234   4.049   2.456  10.524 -0.3413 -0.0356  1.4747
 1024MOL0     C41235   3.930   2.497  10.615 -0.1586  0.0436  0.3129
 1024MOL0     C41236   3.836   2.600  10.558 -0.1486  0.2453 -0.6485
 1024MOL0     C41237   3.734   2.556  10.454  0.4384  0.4607 -0.7868
 1024MOL0     C41238   3.658   2.658  10.391 -0.2687  0.1509 -0.6843
 1024MOL0     C41239   3.591   2.743  10.342 -1.1139  0.3196  0.5128
 1024MOL0     C41240   4.279   2.501  10.353 -0.3053  0.3429  0.1054
 1024MOL0     C41241   4.398   2.526  10.284  0.4854  0.8965 -0.3267
 1024MOL0     C41242   4.438   2.455  10.167 -0.9982  0.6484  0.2389
 1024MOL0     H41243   4.791   2.749  10.013 -0.3945  1.1184  2.1116
 1024MOL0     H41244   4.995   2.730   9.896 -0.0323  0.3207  0.1802
 1024MOL0     H41245   5.297   2.755   9.980 -0.7460  0.5084 -1.2043
 1024MOL0     H41246   5.269   2.664   9.826 -0.2814 -1.9945 -1.2901
 1024MOL0     H41247   5.458   2.587  10.036  2.2355  1.1241 -0.1541
 1024MOL0     H41248   5.443   2.515   9.870 -2.2675  0.4026 -1.4742
 1024MOL0     H41249   5.561   2.787   9.972  0.2357  1.9096 -0.4600
 1024MOL0     H41250   5.643   2.633   9.919 -1.9327 -2.0016 -2.3318
 1024MOL0     H41251   5.660   2.746   9.727  1.2024  1.7318  2.6911
 1024MOL0     H41252   5.495   2.711   9.691  2.0125 -0.5731 -2.8055
 1024MOL0     H41253   5.606   2.976   9.810 -1.6515  0.2113  1.4372
 1024MOL0     H41254   5.436   2.936   9.820 -0.0195 -0.7640  0.1471
 1024MOL0     H41255   5.580   2.927   9.551  0.8746  1.0964  1.0480
 1024MOL0     H41256   5.406   2.919   9.593 -0.3222 -1.0059  0.4144
 1024MOL0     H41257   5.592   3.157   9.644 -0.3902 -2.3750  2.5375
 1024MOL0     H41258   5.427   3.151   9.698 -0.4455 -0.5148  1.0621
 1024MOL0     H41259   5.376   3.071   9.444  2.3715 -1.6663  0.9668
 1024MOL0     H41260   5.378   3.245   9.500  0.2591  0.0687  0.9142
 1024MOL0     H41261   5.528   3.008   9.247  0.8830  0.4323 -0.7325
 1024MOL0     H41262   5.800   3.218   9.042  0.7878 -0.2432  0.4138
 1024MOL0     H41263   5.644   3.147   8.989 -3.5873 -0.5137  3.1039
 1024MOL0     H41264   5.701   2.933   9.087  1.3751 -1.9994  1.8192
 1024MOL0     H41265   5.812   2.996   8.960 -2.1575 -0.3553 -1.0420
 1024MOL0     H41266   5.850   3.013   9.261  0.1359  0.9339  0.0525
 1024MOL0     H41267   5.886   2.864   9.167 -0.5394 -0.1489  1.4715
 1024MOL0     H41268   6.034   3.030   9.036 -0.2176  2.5600  0.5545
 1024MOL0     H41269   5.992   3.140   9.174 -2.2087  0.2983 -0.1856
 1024MOL0     H41270   6.250   2.879   9.415 -0.8822 -0.1483 -1.5006
 1024MOL0     H41271   6.599   2.933   9.512  0.1016 -2.3739 -0.1570
 1024MOL0     H41272   6.439   2.862   9.549  2.3101 -0.4849 -0.5069
 1024MOL0     H41273   6.488   3.028   9.610  2.0472  0.3366 -0.1391
 1024MOL0     H41274   6.884   3.254   9.359  1.8534  0.2070  1.7851
 1024MOL0     H41275   7.078   3.361   9.349  2.0905  2.9742 -1.4406
 1024MOL0     H41276   7.093   3.839   9.398 -2.0675  0.4857  1.6059
 1024MOL0     H41277   7.088   3.756   9.548  2.3999 -3.5564  1.5072
 1024MOL0     H41278   7.347   3.794   9.377  1.2371 -0.2978  1.0489
 1024MOL0     H41279   7.297   3.923   9.490 -1.2623 -0.6940  0.2703
 1024MOL0     H41280   7.288   3.659   9.637 -0.5370  0.5008  0.9010
 1024MOL0     H41281   7.343   3.805   9.684 -0.9783 -0.1438  0.5595
 1024MOL0     H41282   7.556   3.775   9.551 -1.2588  0.4084 -1.3908
 1024MOL0     H41283   7.494   3.624   9.487  2.7173  0.5720  0.0616
 1024MOL0     H41284   7.550   3.677   9.768  0.5708 -0.5713 -0.5024
 1024MOL0     H41285   7.468   3.525   9.699  0.9536 -0.8138  3.7755
 1024MOL0     H41286   7.755   3.619   9.612  3.6787 -3.6529 -1.0822
 1024MOL0     H41287   7.667   3.480   9.558  0.7688  2.4794 -2.5407
 1024MOL0     H41288   7.644   3.409   9.811  0.4369 -0.7796  0.4046
 1024MOL0     H41289   7.755   3.541   9.852  3.2389 -0.1002  0.0808
 1024MOL0     H41290   7.914   3.383   9.834  0.7476  0.2891 -1.0262
 1024MOL0     H41291   7.921   3.458   9.680 -1.4412 -0.4920 -1.7285
 1024MOL0     H41292   6.878   3.739   9.404 -0.0054  0.1289 -3.2936
 1024MOL0     H41293   6.651   3.617   9.396 -2.0793 -2.9884  2.0645
 1024MOL0     H41294   6.435   3.283   9.185 -0.0351  1.5263  2.1548
 1024MOL0     H41295   6.229   3.180   9.112 -2.3207 -1.1688  0.8202
 1024MOL0     H41296   5.118   2.432  10.194 -1.4831 -0.0936  3.0047
 1024MOL0     H41297   4.873   2.433  10.271 -2.9944  0.7989 -0.4124
 1024MOL0     H41298   4.541   2.754  10.488  1.2929 -2.6452  0.4837
 1024MOL0     H41299   4.323   2.714  10.606  0.4509 -0.5049 -0.4464
 1024MOL0     H41300   4.019   2.458  10.419  2.3897  1.4118  0.6447
 1024MOL0     H41301   4.076   2.356  10.559 -1.9391 -1.0866 -0.1503
 1024MOL0     H41302   3.963   2.529  10.714  1.6685  0.5529 -0.4078
 1024MOL0     H41303   3.871   2.406  10.631  0.2520 -0.3819 -0.5043
 1024MOL0     H41304   3.776   2.633  10.643  1.4196 -1.7232  1.3321
 1024MOL0     H41305   3.899   2.683  10.526  1.2410 -0.1466  0.9800
 1024MOL0     H41306   3.661   2.493  10.507  3.3074  2.0977  6.2545
 1024MOL0     H41307   3.771   2.496  10.370  3.8567  2.6776 -1.0449
 1024MOL0     H41308   3.545   2.822  10.285 -0.8379  2.5833  3.1926
 1024MOL0     H41309   4.198   2.443  10.310  0.4556  0.6237 -1.8269
 1024MOL0     H41310   4.363   2.384  10.131  0.3838 -1.0341  0.5615
 1024MOL0     H41311   4.458   2.517  10.079 -1.2553  1.3722  0.6720
 1024MOL0     H41312   4.517   2.388  10.201 -1.4744 -0.7912 -1.3759
  11.51427  11.51427  11.51427
